/*--------------------------------*- C++ -*----------------------------------*\
  =========                 |
  \\      /  F ield         | OpenFOAM: The Open Source CFD Toolbox
   \\    /   O peration     | Website:  https://openfoam.org
    \\  /    A nd           | Version:  6.0
     \\/     M anipulation  |
\*---------------------------------------------------------------------------*/
FoamFile
{
    version     2.0;
    format      ascii;
    class       surfaceScalarField;
    location    "33";
    object      phi;
}
// * * * * * * * * * * * * * * * * * * * * * * * * * * * * * * * * * * * * * //

dimensions      [0 3 -1 0 0 0 0];

internalField   nonuniform List<scalar> 
7840
(
3.46884e-05
-0.000246126
0.000123344
-0.000776562
0.000249301
-0.00131187
0.000394071
-0.00180956
0.000540363
-0.00223622
0.000675091
-0.00257482
0.000790635
-0.00282447
0.000884373
-0.00299547
0.000957263
-0.00310349
0.00101227
-0.00316496
0.00105309
-0.00319439
0.00108328
-0.00320317
0.00110583
-0.00319957
0.00112305
-0.00318918
0.0011366
-0.0031756
0.00114766
-0.00316106
0.00115698
-0.00314692
0.00116512
-0.00313399
0.00117239
-0.0031228
-0.00311386
0.00117898
3.61402e-05
-0.000282266
0.000125897
-0.000866319
0.000249873
-0.00143585
0.000388036
-0.00194772
0.000523108
-0.00237129
0.000643234
-0.00269494
0.000742529
-0.00292377
0.000819984
-0.00307293
0.000877708
-0.00316121
0.000919277
-0.00320653
0.000948534
-0.00322364
0.000968891
-0.00322353
0.000983048
-0.00321372
0.00099298
-0.00319911
0.00100005
-0.00318267
0.00100517
-0.00316618
0.00100894
-0.00315069
0.00101177
-0.00313681
0.0010139
-0.00312493
-0.00311543
0.00101547
3.71917e-05
-0.000319458
0.000126886
-0.000956013
0.000247196
-0.00155616
0.000377036
-0.00207756
0.00049964
-0.00249389
0.000604666
-0.00279997
0.000687979
-0.00300708
0.000750006
-0.00313495
0.000793751
-0.00320496
0.000823157
-0.00323594
0.000842044
-0.00324253
0.000853576
-0.00323506
0.000860126
-0.00322027
0.000863343
-0.00320233
0.000864321
-0.00318365
0.000863771
-0.00316563
0.000862156
-0.00314907
0.000859782
-0.00313444
0.000856838
-0.00312199
-0.003112
0.00085341
3.78047e-05
-0.000357263
0.00012626
-0.00104447
0.000241341
-0.00167124
0.000361423
-0.00219764
0.000470682
-0.00260315
0.000560462
-0.00288975
0.000628306
-0.00307492
0.000675858
-0.00318251
0.00070677
-0.00323587
0.000725148
-0.00325432
0.000734656
-0.00325204
0.000738158
-0.00323856
0.00073769
-0.00321981
0.000734605
-0.00319924
0.000729767
-0.00317881
0.000723721
-0.00315959
0.000716823
-0.00314218
0.000709307
-0.00312692
0.000701321
-0.003114
-0.0031036
0.000692924
3.7953e-05
-0.000395216
0.000124018
-0.00113053
0.000232463
-0.00177969
0.000341637
-0.00230682
0.000437004
-0.00269852
0.000511671
-0.00296442
0.000564713
-0.00312796
0.000598765
-0.00321656
0.0006179
-0.003255
0.000626225
-0.00326264
0.000627164
-0.00325298
0.00062325
-0.00323465
0.0006162
-0.00321276
0.000607105
-0.00319015
0.000596636
-0.00316834
0.000585208
-0.00314816
0.000573092
-0.00313006
0.000560472
-0.0031143
0.000547464
-0.00310099
-0.00309025
0.000534115
3.76222e-05
-0.000432838
0.000120198
-0.00121311
0.00022078
-0.00188027
0.000318173
-0.00240421
0.000399385
-0.00277973
0.000459271
-0.0030243
0.000498264
-0.00316696
0.00051976
-0.00323805
0.000528062
-0.00326331
0.000527155
-0.00326173
0.000520168
-0.00324599
0.000509304
-0.00322378
0.000495988
-0.00319944
0.000481087
-0.00317525
0.000465113
-0.00315237
0.000448377
-0.00313142
0.000431084
-0.00311277
0.000413381
-0.0030966
0.000395366
-0.00308298
-0.00307197
0.000377078
3.681e-05
-0.000469648
0.000114876
-0.00129118
0.000206561
-0.00197195
0.000291555
-0.00248921
0.000358577
-0.00284675
0.000404154
-0.00306988
0.00042988
-0.00319268
0.0004397
-0.00324787
0.000437991
-0.0032616
0.000428526
-0.00325227
0.000414117
-0.00323158
0.000396652
-0.00320632
0.000377298
-0.00318009
0.000356732
-0.00315468
0.000335337
-0.00313097
0.000313341
-0.00310943
0.000290898
-0.00309032
0.000268128
-0.00307383
0.000245117
-0.00305997
-0.00304875
0.000221905
3.5525e-05
-0.000505173
0.000108158
-0.00136381
0.000190104
-0.0020539
0.000262307
-0.00256141
0.000315284
-0.00289973
0.000347113
-0.00310171
0.000360345
-0.00320592
0.000359289
-0.00324682
0.00034827
-0.00325058
0.000330795
-0.00323479
0.000309352
-0.00321014
0.000285541
-0.00318251
0.000260308
-0.00315485
0.000234172
-0.00312855
0.000207413
-0.00310422
0.000180191
-0.0030822
0.000152618
-0.00306275
0.000124792
-0.00304601
9.67958e-05
-0.00303197
-0.00302063
6.86758e-05
3.37859e-05
-0.000538959
0.00010017
-0.00143019
0.000171724
-0.00212545
0.00023094
-0.00262063
0.000270151
-0.00293894
0.000288841
-0.0031204
0.000290319
-0.00320739
0.0002791
-0.0032356
0.00025936
-0.00323084
0.000234311
-0.00320974
0.000206129
-0.00318196
0.000176156
-0.00315253
0.000145151
-0.00312385
0.000113509
-0.0030969
8.14237e-05
-0.00307213
4.89981e-05
-0.00304978
1.63096e-05
-0.00303006
-1.65608e-05
-0.00301314
-4.9529e-05
-0.002999
-0.00298762
-8.25374e-05
3.16195e-05
-0.000570578
9.10571e-05
-0.00148963
0.000151739
-0.00218614
0.000197934
-0.00266682
0.00022376
-0.00296477
0.000229936
-0.00312658
0.000220353
-0.00319781
0.000199595
-0.00321484
0.000171627
-0.00320287
0.000139349
-0.00317747
0.000104646
-0.00314726
6.86373e-05
-0.00311652
3.19292e-05
-0.00308714
-5.18259e-06
-0.00305979
-4.25716e-05
-0.00303474
-8.01843e-05
-0.00301216
-0.000117977
-0.00299227
-0.000155882
-0.00297523
-0.00019381
-0.00296107
-0.00294975
-0.000231684
2.90601e-05
-0.000599638
8.09708e-05
-0.00154154
0.000130462
-0.00223563
0.000163737
-0.00270009
0.000176626
-0.00297765
0.000170913
-0.00312086
0.000150905
-0.0031778
0.000121154
-0.00318509
8.53649e-05
-0.00316708
4.61275e-05
-0.00313823
5.06289e-06
-0.00310619
-3.69003e-05
-0.00307456
-7.92764e-05
-0.00304476
-0.000121845
-0.00301722
-0.000164531
-0.00299205
-0.000207326
-0.00296937
-0.000250218
-0.00294938
-0.000293157
-0.00293229
-0.000336039
-0.00291819
-0.00290703
-0.000378763
2.61474e-05
-0.000625786
7.00694e-05
-0.00158546
0.000108195
-0.00227375
0.00012876
-0.00272066
0.000129204
-0.0029781
0.000112211
-0.00310387
8.2362e-05
-0.00314795
4.40913e-05
-0.00314682
8.18551e-07
-0.00312381
-4.51667e-05
-0.00309224
-9.24813e-05
-0.00305888
-0.000140355
-0.00302669
-0.000188394
-0.00299672
-0.000236431
-0.00296919
-0.000284429
-0.00294406
-0.000332417
-0.00292138
-0.000380421
-0.00290137
-0.000428412
-0.0028843
-0.000476269
-0.00287034
-0.00285944
-0.000523856
2.29254e-05
-0.000648711
5.85112e-05
-0.00162105
8.52225e-05
-0.00230046
9.33742e-05
-0.00272881
8.18938e-05
-0.00296662
5.42079e-05
-0.00307618
1.5051e-05
-0.0031088
-3.13243e-05
-0.00310044
-8.17977e-05
-0.00307334
-0.000134364
-0.00303968
-0.000187852
-0.00300539
-0.000241622
-0.00297292
-0.000295348
-0.002943
-0.000348894
-0.00291564
-0.000402245
-0.00289071
-0.000455462
-0.00286817
-0.000508615
-0.00284822
-0.000561705
-0.00283121
-0.000614603
-0.00281744
-0.00280693
-0.00066711
1.94411e-05
-0.000668152
4.64521e-05
-0.00164806
6.18103e-05
-0.00231582
5.79141e-05
-0.00272492
3.50477e-05
-0.00294375
-2.76706e-06
-0.00303837
-5.07432e-05
-0.00306082
-0.000104854
-0.00304633
-0.000162284
-0.00301591
-0.000221294
-0.00298067
-0.000280903
-0.00294578
-0.000340579
-0.00291324
-0.000400044
-0.00288353
-0.000459173
-0.00285651
-0.000517953
-0.00283192
-0.000576465
-0.00280965
-0.000634828
-0.00278986
-0.00069309
-0.00277295
-0.000751123
-0.0027594
-0.00274942
-0.000808632
1.57432e-05
-0.000683896
3.40431e-05
-0.00166636
3.82055e-05
-0.00231998
2.26809e-05
-0.00270939
-1.10251e-05
-0.00291004
-5.84267e-05
-0.00299097
-0.000114767
-0.00300448
-0.000176277
-0.00298482
-0.00024044
-0.00295174
-0.000305771
-0.00291534
-0.000371457
-0.00288009
-0.000437063
-0.00284764
-0.000502346
-0.00281825
-0.000567173
-0.00279169
-0.00063151
-0.00276759
-0.000695433
-0.00274573
-0.000759099
-0.00272619
-0.000822623
-0.00270942
-0.000885889
-0.00269614
-0.00268684
-0.000948466
1.18815e-05
-0.000695777
2.14282e-05
-0.00167591
1.46343e-05
-0.00231319
-1.20566e-05
-0.0026827
-5.60512e-05
-0.00286605
-0.000112516
-0.0029345
-0.000176788
-0.00294021
-0.000245375
-0.00291623
-0.000316057
-0.00288106
-0.000387578
-0.00284381
-0.000459289
-0.00280838
-0.000530845
-0.00277608
-0.00060204
-0.00274705
-0.000672726
-0.002721
-0.000742824
-0.00269749
-0.000812367
-0.00267619
-0.000881519
-0.00265704
-0.000950472
-0.00264047
-0.00101914
-0.00262747
-0.002619
-0.00108699
7.90532e-06
-0.000703682
8.74298e-06
-0.00167674
-8.69786e-06
-0.00229575
-4.60597e-05
-0.00264534
-9.97898e-05
-0.00281232
-0.000164806
-0.00286949
-0.00023659
-0.00286842
-0.000311937
-0.00284089
-0.000388906
-0.00280409
-0.000466464
-0.00276626
-0.000544114
-0.00273073
-0.000621612
-0.00269858
-0.000698799
-0.00266987
-0.000775531
-0.00264427
-0.000851678
-0.00262134
-0.000927196
-0.00260067
-0.00100223
-0.00258201
-0.00107705
-0.00256565
-0.00115165
-0.00255287
-0.00254498
-0.00122568
3.86261e-06
-0.000707545
-3.88729e-06
-0.00166899
-3.16072e-05
-0.00226803
-7.9119e-05
-0.00259783
-0.00014203
-0.00274941
-0.000215094
-0.00279642
-0.000293972
-0.00278955
-0.000375747
-0.00275911
-0.000458745
-0.0027211
-0.00054214
-0.00268286
-0.000625587
-0.00264729
-0.000708955
-0.00261521
-0.000792171
-0.00258665
-0.000875131
-0.00256131
-0.000957688
-0.00253879
-0.00103973
-0.00251863
-0.00112134
-0.00250039
-0.00120291
-0.00248408
-0.00128466
-0.00247112
-0.00246248
-0.00136715
-2.01008e-07
-0.000707344
-1.63492e-05
-0.00165285
-5.39327e-05
-0.00223045
-0.000111055
-0.0025407
-0.000182593
-0.00267787
-0.000263203
-0.00271581
-0.000348749
-0.002704
-0.000436592
-0.00267127
-0.000525308
-0.00263238
-0.000614264
-0.0025939
-0.000703264
-0.00255829
-0.000792315
-0.00252616
-0.000881482
-0.00249748
-0.000970795
-0.00247199
-0.0010602
-0.00244938
-0.00114958
-0.00242925
-0.00123895
-0.00241103
-0.00132863
-0.00239439
-0.00141921
-0.00238054
-0.00236831
-0.00151339
-4.24351e-06
-0.000703101
-2.85429e-05
-0.00162855
-7.55381e-05
-0.00218345
-0.000141721
-0.00247452
-0.000221334
-0.00259826
-0.00030899
-0.00262816
-0.000400765
-0.00261222
-0.000494281
-0.00257775
-0.000588334
-0.00253833
-0.000682454
-0.00249978
-0.000776578
-0.00246416
-0.000870849
-0.00243189
-0.000965514
-0.00240282
-0.00106086
-0.00237665
-0.00115716
-0.00235308
-0.00125461
-0.00233179
-0.00135334
-0.00231231
-0.00145389
-0.00229384
-0.0015585
-0.00227594
-0.00226987
-0.00165693
-8.21533e-06
-0.000694885
-4.03641e-05
-0.0015964
-9.62897e-05
-0.00212753
-0.000170979
-0.00239983
-0.000258126
-0.00251111
-0.000352339
-0.00253395
-0.000449903
-0.00251466
-0.000548676
-0.00247898
-0.000647635
-0.00243937
-0.000746424
-0.00240099
-0.000845048
-0.00236554
-0.0009437
-0.00233324
-0.0010427
-0.00230382
-0.0011425
-0.00227685
-0.00124371
-0.00225187
-0.00134717
-0.00222834
-0.00145373
-0.00220574
-0.00156381
-0.00218376
-0.00167835
-0.0021614
-0.00213168
-0.00181655
-1.21052e-05
-0.00068278
-5.17796e-05
-0.00155672
-0.000116146
-0.00206316
-0.000198795
-0.00231718
-0.000292951
-0.00241695
-0.000393245
-0.00243365
-0.000496171
-0.00241174
-0.000599796
-0.00237535
-0.000703245
-0.00233592
-0.000806239
-0.002298
-0.000908788
-0.00226299
-0.00101103
-0.002231
-0.00111314
-0.00220171
-0.00121534
-0.00217465
-0.00131787
-0.00214934
-0.00142093
-0.00212528
-0.00152458
-0.00210209
-0.00162906
-0.00207929
-0.00173504
-0.00205541
-0.002027
-0.00183972
-1.58742e-05
-0.000666906
-6.27157e-05
-0.00150988
-0.000135023
-0.00199085
-0.000225096
-0.00222711
-0.000325755
-0.00231629
-0.000431681
-0.00232773
-0.000539566
-0.00230385
-0.000647669
-0.00226725
-0.000755244
-0.00222834
-0.000862078
-0.00219117
-0.000968201
-0.00215687
-0.00107374
-0.00212547
-0.00117883
-0.00209662
-0.0012836
-0.00206987
-0.00138815
-0.00204479
-0.00149248
-0.00202095
-0.00159657
-0.001998
-0.00170036
-0.00197549
-0.00180317
-0.0019526
-0.0019285
-0.00190167
-1.95004e-05
-0.000647405
-7.31308e-05
-0.00145625
-0.000152879
-0.0019111
-0.000249855
-0.00213014
-0.000356537
-0.00220961
-0.000467673
-0.00221659
-0.000580143
-0.00219138
-0.000692378
-0.00215502
-0.000803739
-0.00211698
-0.000914059
-0.00208085
-0.00102337
-0.00204755
-0.00113178
-0.00201706
-0.00123936
-0.00198903
-0.0013462
-0.00196304
-0.00145228
-0.00193871
-0.00155753
-0.0019157
-0.00166181
-0.00189371
-0.00176485
-0.00187245
-0.00186599
-0.00185146
-0.00183032
-0.00196417
-2.29659e-05
-0.000624439
-8.29945e-05
-0.00139622
-0.000169688
-0.00182441
-0.000273068
-0.00202676
-0.00038532
-0.00209736
-0.000501272
-0.00210064
-0.000617987
-0.00207466
-0.000734052
-0.00203895
-0.000848925
-0.00200211
-0.000962484
-0.00196729
-0.00107477
-0.00193526
-0.00118588
-0.00190596
-0.00129586
-0.00187904
-0.00140476
-0.00185414
-0.00151256
-0.00183092
-0.00161917
-0.00180909
-0.00172446
-0.00178842
-0.00182818
-0.00176873
-0.00192994
-0.0017497
-0.00173111
-0.00202915
-2.62565e-05
-0.000598183
-9.22855e-05
-0.00133019
-0.000185438
-0.00173126
-0.000294741
-0.00191745
-0.000412135
-0.00197997
-0.000532536
-0.00198024
-0.000653183
-0.00195402
-0.000772804
-0.00191933
-0.000890946
-0.00188397
-0.00100753
-0.0018507
-0.00112262
-0.00182018
-0.00123629
-0.00179229
-0.00134861
-0.00176672
-0.00145961
-0.00174314
-0.00156928
-0.00172125
-0.00167755
-0.00170081
-0.00178432
-0.00168165
-0.00188945
-0.0016636
-0.00199274
-0.00164642
-0.00162995
-0.0020939
-2.93612e-05
-0.000568822
-0.00010099
-0.00125857
-0.000200125
-0.00163212
-0.00031489
-0.00180269
-0.000437021
-0.00185783
-0.00056153
-0.00185573
-0.000685818
-0.00182973
-0.000808748
-0.0017964
-0.000929946
-0.00176277
-0.00104938
-0.00173127
-0.00116712
-0.00170244
-0.00128326
-0.00167614
-0.00139788
-0.0016521
-0.00151103
-0.00162999
-0.00162271
-0.00160957
-0.00173289
-0.00159063
-0.00184153
-0.00157301
-0.00194856
-0.00155657
-0.0020539
-0.00154108
-0.00152646
-0.00215739
-3.22716e-05
-0.00053655
-0.000109097
-0.00118174
-0.000213751
-0.00152747
-0.000333535
-0.00168291
-0.000460018
-0.00173135
-0.000588311
-0.00172743
-0.000715969
-0.00170207
-0.000841976
-0.00167039
-0.000966035
-0.00163871
-0.00108815
-0.00160916
-0.00120842
-0.00158217
-0.00132695
-0.00155761
-0.00144384
-0.0015352
-0.00155916
-0.00151468
-0.00167292
-0.00149581
-0.00178516
-0.00147839
-0.00189587
-0.0014623
-0.00200503
-0.0014474
-0.00211263
-0.00143348
-0.00142049
-0.0022186
-3.49808e-05
-0.000501569
-0.000116601
-0.00110012
-0.000226318
-0.00141775
-0.000350696
-0.00155853
-0.000481163
-0.00160089
-0.000612931
-0.00159567
-0.000743699
-0.0015713
-0.000872562
-0.00154153
-0.000999292
-0.00151198
-0.00112393
-0.00148452
-0.0012466
-0.0014595
-0.00136743
-0.00143678
-0.00148654
-0.0014161
-0.001604
-0.00139722
-0.00171988
-0.00137993
-0.00183423
-0.00136405
-0.00194707
-0.00134946
-0.00205845
-0.00133602
-0.00216839
-0.00132355
-0.00131202
-0.00227685
-3.74831e-05
-0.000464086
-0.000123498
-0.0010141
-0.000237833
-0.00130342
-0.000366391
-0.00142997
-0.000500487
-0.00146679
-0.000635431
-0.00146072
-0.000769056
-0.00143768
-0.000900558
-0.00141003
-0.00102977
-0.00138277
-0.00115677
-0.00135752
-0.00128171
-0.00133456
-0.00140473
-0.00131375
-0.00152597
-0.00129486
-0.00164552
-0.00127767
-0.00176348
-0.00126197
-0.00187992
-0.00124761
-0.00199489
-0.00123448
-0.00210847
-0.00122244
-0.0022207
-0.00121132
-0.00120114
-0.00233158
-3.97739e-05
-0.000424312
-0.000129784
-0.000924093
-0.000248299
-0.0011849
-0.000380635
-0.00129763
-0.000518014
-0.00132941
-0.000655844
-0.00132289
-0.000792076
-0.00130145
-0.000926
-0.0012761
-0.0010575
-0.00125127
-0.0011867
-0.00122833
-0.00131375
-0.00120751
-0.00143883
-0.00118867
-0.00156209
-0.00117161
-0.00168364
-0.00115611
-0.0018036
-0.00114201
-0.00192205
-0.00112916
-0.00203908
-0.00111745
-0.00215477
-0.00110675
-0.00226918
-0.00109691
-0.00108796
-0.00238236
-4.1849e-05
-0.000382463
-0.000135456
-0.000830486
-0.00025772
-0.00106264
-0.000393441
-0.00116191
-0.000533766
-0.00118909
-0.000674192
-0.00118247
-0.000812782
-0.00116286
-0.000948907
-0.00113998
-0.0010825
-0.00111767
-0.00121371
-0.00109712
-0.00134272
-0.0010785
-0.00146971
-0.00106168
-0.00159485
-0.00104647
-0.00171827
-0.00103269
-0.0018401
-0.00102018
-0.00196045
-0.00100881
-0.00207941
-0.000998486
-0.00219708
-0.000989082
-0.00231354
-0.000980454
-0.000972665
-0.00242883
-4.37043e-05
-0.000338759
-0.00014051
-0.000733681
-0.000266098
-0.000937048
-0.000404817
-0.00102319
-0.000547754
-0.00104615
-0.000690491
-0.00103973
-0.000831189
-0.00102216
-0.000969288
-0.00100188
-0.00110477
-0.00098219
-0.0012378
-0.000964088
-0.00136858
-0.000947714
-0.00149732
-0.000932946
-0.00162418
-0.000919612
-0.00174932
-0.00090755
-0.00187288
-0.000896623
-0.00199497
-0.00088672
-0.00211571
-0.000877748
-0.00223519
-0.000869596
-0.00235351
-0.000862136
-0.000855441
-0.00247073
-4.53365e-05
-0.000293423
-0.000144942
-0.000634075
-0.000273433
-0.000808557
-0.000414768
-0.000881858
-0.000559988
-0.000900928
-0.000704751
-0.000894966
-0.000847303
-0.000879607
-0.000987146
-0.000862037
-0.0011243
-0.000845037
-0.00125895
-0.000829438
-0.00139131
-0.000815347
-0.00152161
-0.000802652
-0.00165002
-0.000791206
-0.0017767
-0.000780867
-0.00190181
-0.000771517
-0.00202546
-0.000763061
-0.0021478
-0.000755415
-0.00226891
-0.000748482
-0.00238889
-0.000742153
-0.000736502
-0.00250783
-4.67423e-05
-0.00024668
-0.00014875
-0.000532067
-0.000279726
-0.000677582
-0.000423298
-0.000738286
-0.000570473
-0.000753753
-0.000716975
-0.000748465
-0.000861125
-0.000735457
-0.00100247
-0.000720687
-0.00114108
-0.000706437
-0.00127713
-0.000693382
-0.00141088
-0.0006816
-0.00154253
-0.000670998
-0.00167229
-0.000661448
-0.00180032
-0.000652833
-0.00192679
-0.000645054
-0.00205182
-0.000638029
-0.00217555
-0.000631689
-0.00229808
-0.000625949
-0.00241951
-0.000620719
-0.00061607
-0.00253995
-4.79186e-05
-0.000198762
-0.00015193
-0.000428056
-0.000284973
-0.000544538
-0.000430407
-0.000592852
-0.000579212
-0.000604948
-0.000727166
-0.00060051
-0.000872652
-0.000589971
-0.00101527
-0.000578072
-0.00115509
-0.000566619
-0.00129233
-0.000556139
-0.00142724
-0.000546689
-0.00156005
-0.000538193
-0.00169095
-0.000530546
-0.00182012
-0.000523655
-0.00194774
-0.00051744
-0.00207393
-0.000511834
-0.00219884
-0.000506782
-0.00232257
-0.000502215
-0.00244523
-0.000498059
-0.00049438
-0.00256692
-4.88629e-05
-0.000149899
-0.000154478
-0.000322442
-0.000289174
-0.000409842
-0.000436096
-0.00044593
-0.000586203
-0.000454841
-0.000735321
-0.000451392
-0.000881882
-0.00044341
-0.00102552
-0.000434438
-0.00116632
-0.000425818
-0.00130452
-0.000417938
-0.00144037
-0.000410837
-0.00157411
-0.000404456
-0.00170593
-0.000398717
-0.00183604
-0.00039355
-0.00196459
-0.000388893
-0.00209172
-0.000384698
-0.00221758
-0.00038092
-0.00234229
-0.000377508
-0.00246594
-0.000374408
-0.000371673
-0.00258865
-4.95731e-05
-0.000100326
-0.000156391
-0.000215623
-0.000292327
-0.000273906
-0.000440363
-0.000297894
-0.000591448
-0.000303757
-0.00074144
-0.0003014
-0.000888808
-0.000296042
-0.00103321
-0.000290038
-0.00117475
-0.000284277
-0.00131367
-0.000279013
-0.00145024
-0.000274273
-0.00158468
-0.000270015
-0.00171721
-0.000266187
-0.00184802
-0.000262743
-0.00197727
-0.00025964
-0.00210512
-0.000256847
-0.00223171
-0.000254334
-0.00235715
-0.000252066
-0.00248155
-0.000250008
-0.000248195
-0.00260503
-5.00473e-05
-5.02784e-05
-0.000157668
-0.000108003
-0.000294429
-0.000137145
-0.000443208
-0.000149114
-0.000594944
-0.000152021
-0.00074552
-0.000150824
-0.000893428
-0.000148134
-0.00103834
-0.000145125
-0.00118038
-0.000142239
-0.00131979
-0.000139604
-0.00145683
-0.000137232
-0.00159174
-0.000135101
-0.00172474
-0.000133187
-0.00185602
-0.000131464
-0.00198575
-0.000129913
-0.00211408
-0.000128517
-0.00224115
-0.000127262
-0.00236709
-0.00012613
-0.00249199
-0.000125103
-0.000124201
-0.00261598
-5.02844e-05
6.06149e-09
-0.000158306
1.87809e-08
-0.00029548
2.90201e-08
-0.00044463
3.59979e-08
-0.000596691
4.02398e-08
-0.000747558
4.2711e-08
-0.000895737
4.42532e-08
-0.00104091
4.53972e-08
-0.00118319
4.64035e-08
-0.00132284
4.73696e-08
-0.00146012
4.83183e-08
-0.00159528
4.92455e-08
-0.00172851
5.0141e-08
-0.00186003
5.09951e-08
-0.00198999
5.18e-08
-0.00211856
5.25495e-08
-0.00224588
5.32388e-08
-0.00237206
5.38677e-08
-0.00249722
5.44424e-08
5.4957e-08
-0.00262148
-5.02842e-05
5.02902e-05
-0.000158305
0.00010804
-0.000295478
0.000137202
-0.000444628
0.000149186
-0.000596689
0.000152101
-0.000747556
0.000150909
-0.000895734
0.000148222
-0.0010409
0.000145215
-0.00118319
0.000142332
-0.00132284
0.000139699
-0.00146012
0.000137328
-0.00159527
0.0001352
-0.00172851
0.000133287
-0.00186002
0.000131566
-0.00198999
0.000130017
-0.00211856
0.000128622
-0.00224587
0.000127369
-0.00237206
0.000126238
-0.00249721
0.000125212
0.00012431
-0.00262147
-5.00464e-05
0.000100337
-0.000157665
0.000215659
-0.000294425
0.000273962
-0.000443203
0.000297964
-0.000594937
0.000303835
-0.000745512
0.000301484
-0.000893419
0.000296129
-0.00103833
0.000290127
-0.00118037
0.000284368
-0.00131978
0.000279107
-0.00145682
0.000274369
-0.00159173
0.000270113
-0.00172473
0.000266287
-0.00185601
0.000262844
-0.00198573
0.000259743
-0.00211406
0.000256951
-0.00224113
0.00025444
-0.00236707
0.000252173
-0.00249197
0.000250116
0.000248305
-0.00261597
-4.95716e-05
0.000149908
-0.000156387
0.000322474
-0.00029232
0.000409895
-0.000440354
0.000445998
-0.000591436
0.000454918
-0.000741426
0.000451474
-0.000888793
0.000443496
-0.00103319
0.000434526
-0.00117473
0.000425908
-0.00131365
0.00041803
-0.00145022
0.000410931
-0.00158466
0.000404552
-0.00171719
0.000398816
-0.00184799
0.00039365
-0.00197724
0.000388995
-0.00210509
0.000384801
-0.00223168
0.000381025
-0.00235712
0.000377615
-0.00248152
0.000374516
0.000371781
-0.002605
-4.88609e-05
0.000198769
-0.000154472
0.000428086
-0.000289165
0.000544587
-0.000436083
0.000592916
-0.000586187
0.000605022
-0.000735302
0.000600589
-0.00088186
0.000590054
-0.00102549
0.000578157
-0.00116629
0.000566707
-0.00130449
0.000556229
-0.00144034
0.000546782
-0.00157407
0.000538287
-0.0017059
0.000530642
-0.001836
0.000523754
-0.00196455
0.00051754
-0.00209168
0.000511937
-0.00221755
0.000506886
-0.00234225
0.00050232
-0.0024659
0.000498166
0.000494488
-0.00258861
-4.79159e-05
0.000246685
-0.000151922
0.000532092
-0.000284961
0.000677626
-0.00043039
0.000738345
-0.00057919
0.000753822
-0.000727141
0.00074854
-0.000872624
0.000735537
-0.00101524
0.000720769
-0.00115505
0.000706522
-0.00129229
0.000693469
-0.0014272
0.00068169
-0.00156
0.00067109
-0.0016909
0.000661542
-0.00182008
0.00065293
-0.00194769
0.000645152
-0.00207388
0.000638129
-0.00219879
0.000631791
-0.00232252
0.000626053
-0.00244518
0.000620824
0.000616177
-0.00256687
-4.6739e-05
0.000293424
-0.000148741
0.000634094
-0.00027971
0.000808595
-0.000423277
0.000881911
-0.000570447
0.000900993
-0.000716945
0.000895038
-0.00086109
0.000879682
-0.00100244
0.000862116
-0.00114103
0.000845119
-0.00127709
0.000829523
-0.00141083
0.000815433
-0.00154248
0.000802742
-0.00167224
0.000791297
-0.00180027
0.000780961
-0.00192673
0.000771614
-0.00205176
0.000763159
-0.00217548
0.000755515
-0.00229802
0.000748584
-0.00241945
0.000742256
0.000736607
-0.00253988
-4.53327e-05
0.000338757
-0.000144932
0.000733693
-0.000273415
0.000937079
-0.000414743
0.00102324
-0.000559957
0.00104621
-0.000704715
0.00103979
-0.000847262
0.00102223
-0.000987101
0.00100195
-0.00112425
0.000982267
-0.00125889
0.000964168
-0.00139126
0.000947797
-0.00152155
0.000933032
-0.00164995
0.000919701
-0.00177663
0.000907642
-0.00190174
0.000896717
-0.00202539
0.000886816
-0.00214772
0.000877845
-0.00226883
0.000869695
-0.00238882
0.000862238
0.000855544
-0.00250775
-4.36999e-05
0.000382457
-0.000140497
0.00083049
-0.000266077
0.00106266
-0.000404788
0.00116195
-0.000547718
0.00118914
-0.000690449
0.00118253
-0.000831142
0.00116292
-0.000969236
0.00114005
-0.00110471
0.00111774
-0.00123774
0.00109719
-0.00136852
0.00107858
-0.00149725
0.00106176
-0.00162411
0.00104656
-0.00174924
0.00103278
-0.0018728
0.00102027
-0.00199489
0.0010089
-0.00211562
0.000998581
-0.00223511
0.00098918
-0.00235342
0.000980553
0.000972766
-0.00247064
-4.18439e-05
0.000424301
-0.000135442
0.000924088
-0.000257696
0.00118491
-0.000393408
0.00129766
-0.000533725
0.00132945
-0.000674144
0.00132294
-0.000812728
0.00130151
-0.000948847
0.00127617
-0.00108244
0.00125133
-0.00121364
0.0012284
-0.00134264
0.00120758
-0.00146963
0.00118875
-0.00159476
0.00117169
-0.00171818
0.0011562
-0.00184001
0.0011421
-0.00196035
0.00112925
-0.00207932
0.00111754
-0.00219698
0.00110685
-0.00231344
0.00109701
0.00108806
-0.00242873
-3.97683e-05
0.000464069
-0.000129769
0.00101409
-0.000248272
0.00130342
-0.000380598
0.00142999
-0.000517968
0.00146682
-0.00065579
0.00146077
-0.000792015
0.00143773
-0.000925932
0.00141008
-0.00105743
0.00138283
-0.00118662
0.00135759
-0.00131367
0.00133463
-0.00143874
0.00131383
-0.00156199
0.00129494
-0.00168354
0.00127775
-0.00180349
0.00126205
-0.00192194
0.0012477
-0.00203897
0.00123457
-0.00215466
0.00122254
-0.00226907
0.00121142
0.00120123
-0.00238224
-3.74769e-05
0.000501546
-0.000123481
0.00110009
-0.000237803
0.00141774
-0.00036635
0.00155854
-0.000500435
0.00160091
-0.000635371
0.0015957
-0.000768988
0.00157135
-0.000900483
0.00154158
-0.00102969
0.00151204
-0.00115668
0.00148458
-0.00128161
0.00145956
-0.00140463
0.00143684
-0.00152586
0.00141617
-0.00164541
0.00139729
-0.00176336
0.00138
-0.0018798
0.00136413
-0.00199477
0.00134954
-0.00210834
0.00133611
-0.00222057
0.00132364
0.00131212
-0.00233145
-3.4974e-05
0.00053652
-0.000116582
0.0011817
-0.000226285
0.00152744
-0.000350651
0.0016829
-0.000481106
0.00173136
-0.000612864
0.00172746
-0.000743624
0.00170211
-0.000872479
0.00167043
-0.000999201
0.00163876
-0.00112383
0.00160921
-0.0012465
0.00158223
-0.00136732
0.00155767
-0.00148642
0.00153527
-0.00160388
0.00151475
-0.00171975
0.00149588
-0.0018341
0.00147847
-0.00194694
0.00146238
-0.00205831
0.00144749
-0.00216824
0.00143357
0.00142058
-0.00227671
-3.22642e-05
0.000568784
-0.000109076
0.00125851
-0.000213715
0.00163208
-0.000333485
0.00180267
-0.000459956
0.00185784
-0.000588238
0.00185574
-0.000715886
0.00182976
-0.000841885
0.00179643
-0.000965935
0.00176281
-0.00108804
0.00173132
-0.0012083
0.00170249
-0.00132683
0.0016762
-0.00144372
0.00165216
-0.00155902
0.00163006
-0.00167279
0.00160964
-0.00178502
0.0015907
-0.00189572
0.00157308
-0.00200488
0.00155665
-0.00211247
0.00154117
0.00152655
-0.00221844
-2.93533e-05
0.000598137
-0.000100967
0.00133013
-0.000200086
0.0017312
-0.000314836
0.00191742
-0.000436953
0.00197995
-0.00056145
0.00198024
-0.000685728
0.00195403
-0.000808647
0.00191935
-0.000929837
0.001884
-0.00104926
0.00185074
-0.00116699
0.00182022
-0.00128313
0.00179234
-0.00139774
0.00176677
-0.00151088
0.0017432
-0.00162255
0.00172131
-0.00173273
0.00170088
-0.00184137
0.00168172
-0.0019484
0.00166367
-0.00205373
0.0016465
0.00163003
-0.00215721
-2.6248e-05
0.000624385
-9.2261e-05
0.00139614
-0.000185396
0.00182434
-0.000294682
0.00202671
-0.000412061
0.00209733
-0.000532449
0.00210063
-0.000653084
0.00207467
-0.000772695
0.00203896
-0.000890827
0.00200213
-0.0010074
0.00196731
-0.00112248
0.0019353
-0.00123614
0.001906
-0.00134846
0.00187909
-0.00145945
0.00185419
-0.00156911
0.00183097
-0.00167738
0.00180915
-0.00178414
0.00178849
-0.00188927
0.0017688
-0.00199255
0.00174978
0.00173119
-0.00209371
-2.2957e-05
0.000647342
-8.29683e-05
0.00145615
-0.000169643
0.00191101
-0.000273004
0.00213007
-0.00038524
0.00220957
-0.000501177
0.00221657
-0.00061788
0.00219137
-0.000733934
0.00215502
-0.000848796
0.00211699
-0.000962346
0.00208086
-0.00107463
0.00204758
-0.00118572
0.00201709
-0.0012957
0.00198906
-0.00140459
0.00196308
-0.00151238
0.00193876
-0.00161898
0.00191575
-0.00172427
0.00189377
-0.00182798
0.00187252
-0.00192974
0.00185153
0.00183039
-0.00202894
-1.9491e-05
0.000666833
-7.3103e-05
0.00150976
-0.00015283
0.00199074
-0.000249787
0.00222702
-0.000356451
0.00231623
-0.000467571
0.00232769
-0.000580028
0.00230383
-0.000692251
0.00226724
-0.0008036
0.00222834
-0.000913909
0.00219117
-0.00102321
0.00215688
-0.00113161
0.00212549
-0.00123919
0.00209664
-0.00134601
0.00206991
-0.00145208
0.00204483
-0.00155733
0.002021
-0.0016616
0.00199805
-0.00176463
0.00197555
-0.00186577
0.00195266
0.00192856
-0.00196394
-1.58644e-05
0.000682698
-6.26863e-05
0.00155658
-0.000134972
0.00206302
-0.000225022
0.00231707
-0.000325662
0.00241687
-0.000431572
0.0024336
-0.000539442
0.0024117
-0.000647532
0.00237533
-0.000755095
0.0023359
-0.000861917
0.002298
-0.000968029
0.00226299
-0.00107355
0.00223101
-0.00117864
0.00220172
-0.0012834
0.00217467
-0.00138794
0.00214937
-0.00149226
0.00212532
-0.00159634
0.00210213
-0.00170013
0.00207933
-0.00180293
0.00205546
0.00202706
-0.00190142
-1.2095e-05
0.000694793
-5.17487e-05
0.00159624
-0.000116092
0.00212737
-0.000198717
0.0023997
-0.000292852
0.00251101
-0.000393129
0.00253387
-0.000496038
0.00251461
-0.000599649
0.00247894
-0.000703085
0.00243934
-0.000806067
0.00240098
-0.000908604
0.00236553
-0.00101083
0.00233324
-0.00111293
0.00230383
-0.00121513
0.00227687
-0.00131765
0.00225189
-0.0014207
0.00222836
-0.00152434
0.00220577
-0.0016288
0.0021838
-0.00173478
0.00216144
0.00213173
-0.00183945
-8.20481e-06
0.000702998
-4.03318e-05
0.00162836
-9.6232e-05
0.00218327
-0.000170896
0.00247436
-0.000258022
0.00259813
-0.000352215
0.00262807
-0.000449762
0.00261215
-0.00054852
0.0025777
-0.000647464
0.00253829
-0.000746241
0.00249975
-0.000844853
0.00246414
-0.000943492
0.00243188
-0.00104248
0.00240281
-0.00114226
0.00237665
-0.00124347
0.00235309
-0.00134691
0.00233181
-0.00145347
0.00231233
-0.00156354
0.00229386
-0.00167807
0.00227597
0.00226991
-0.00181624
-4.23274e-06
0.00070723
-2.85094e-05
0.00165264
-7.54774e-05
0.00223023
-0.000141633
0.00254052
-0.000221223
0.00267772
-0.000308858
0.0027157
-0.000400615
0.00270391
-0.000494114
0.0026712
-0.000588152
0.00263232
-0.000682259
0.00259386
-0.00077637
0.00255825
-0.000870629
0.00252614
-0.000965281
0.00249747
-0.00106061
0.00247198
-0.0011569
0.00244938
-0.00125434
0.00242925