/*--------------------------------*- C++ -*----------------------------------*\
  =========                 |
  \\      /  F ield         | OpenFOAM: The Open Source CFD Toolbox
   \\    /   O peration     | Website:  https://openfoam.org
    \\  /    A nd           | Version:  6.0
     \\/     M anipulation  |
\*---------------------------------------------------------------------------*/
FoamFile
{
    version     2.0;
    format      ascii;
    class       volVectorField;
    location    "33";
    object      U;
}
// * * * * * * * * * * * * * * * * * * * * * * * * * * * * * * * * * * * * * //

dimensions      [0 1 -1 0 0 0 0];

internalField   nonuniform List<vector> 
4000
(
(0.0912993 0.00720929 5.61111e-20)
(0.292172 0.0379504 -3.04788e-20)
(0.498154 0.0913981 3.58573e-20)
(0.692778 0.152912 -2.66667e-20)
(0.862472 0.212748 -1.19424e-20)
(0.999574 0.264849 3.61009e-21)
(1.10264 0.306063 -1.17064e-20)
(1.17482 0.335798 4.20763e-20)
(1.22168 0.355183 -3.49972e-20)
(1.24943 0.366166 8.20556e-21)
(1.26372 0.370856 -6.11676e-21)
(1.26914 0.371136 -3.97093e-20)
(1.2691 0.368507 3.84792e-20)
(1.26596 0.364068 1.46136e-20)
(1.26127 0.358578 -1.45388e-20)
(1.256 0.352533 3.40677e-20)
(1.25076 0.346231 -5.18145e-22)
(1.24592 0.339879 -3.29661e-20)
(1.24171 0.333878 2.43999e-20)
(1.23836 0.328186 7.65356e-21)
(0.105109 0.011933 -1.96602e-20)
(0.326131 0.0526189 5.7022e-20)
(0.544186 0.115006 6.58216e-20)
(0.742944 0.182694 -3.10155e-20)
(0.910017 0.245357 5.39678e-20)
(1.0399 0.29732 8.52845e-20)
(1.13354 0.336323 -4.68304e-21)
(1.19604 0.362752 -1.45775e-20)
(1.23426 0.378527 7.20915e-20)
(1.25499 0.386113 3.50984e-20)
(1.26399 0.387874 -6.33182e-21)
(1.26566 0.385766 5.21723e-20)
(1.26309 0.381251 -5.57948e-20)
(1.25832 0.375343 8.68244e-20)
(1.25261 0.368706 -1.44696e-20)
(1.24675 0.361754 4.12941e-20)
(1.24119 0.35472 7.38577e-21)
(1.2362 0.347778 2.94507e-20)
(1.23194 0.341324 -2.8046e-20)
(1.2286 0.335178 6.70159e-21)
(0.119175 0.0177322 -3.05895e-20)
(0.359579 0.0696429 7.27793e-20)
(0.588022 0.141207 5.40104e-20)
(0.788928 0.214555 -8.16297e-21)
(0.951725 0.279178 8.39129e-20)
(1.07345 0.330136 -6.25222e-20)
(1.1575 0.36628 -4.81533e-21)
(1.2108 0.389036 5.5166e-20)
(1.24123 0.401082 1.75291e-20)
(1.25592 0.405317 2.44279e-20)
(1.26059 0.404284 -3.60151e-20)
(1.25932 0.399946 9.36468e-20)
(1.25487 0.39369 1.73907e-20)
(1.24895 0.386426 -8.27086e-20)
(1.24259 0.378721 1.20431e-19)
(1.23638 0.370911 -1.41879e-19)
(1.23067 0.363172 -6.48787e-20)
(1.22566 0.355656 1.08098e-20)
(1.22143 0.34875 6.29152e-20)
(1.21815 0.342141 -1.18219e-19)
(0.133266 0.0246209 -6.90461e-20)
(0.391933 0.0889212 -1.62749e-19)
(0.628931 0.169724 -1.40573e-19)
(0.830097 0.248092 -1.91265e-19)
(0.987249 0.313785 -1.08344e-19)
(1.10023 0.362942 -2.24456e-19)
(1.17484 0.395691 2.85156e-20)
(1.21961 0.414517 -1.18783e-19)
(1.24317 0.422796 -1.30042e-20)
(1.2528 0.423775 1.94955e-20)
(1.254 0.420096 -4.27218e-20)
(1.25051 0.413679 5.31845e-20)
(1.24472 0.405807 9.45421e-20)
(1.23805 0.397278 -1.32936e-19)
(1.23131 0.388564 2.12133e-20)
(1.22495 0.379931 6.13483e-20)
(1.21923 0.371506 1.02516e-19)
(1.21429 0.363424 -8.84263e-20)
(1.21017 0.356065 -4.23253e-21)
(1.20703 0.348981 1.03405e-19)
(0.147143 0.0325838 -1.3027e-19)
(0.422628 0.110287 3.569e-19)
(0.666263 0.200217 -6.294e-20)
(0.865957 0.28287 8.32986e-20)
(1.0164 0.348757 -8.15264e-20)
(1.12036 0.395406 2.50048e-19)
(1.18594 0.424334 -3.96087e-20)
(1.22298 0.439074 2.35947e-20)
(1.2406 0.443612 -1.18161e-20)
(1.24609 0.44146 3.85167e-20)
(1.2446 0.435289 2.48519e-20)
(1.23951 0.426933 3.12191e-20)
(1.23284 0.417554 -8.88133e-20)
(1.22574 0.407834 1.29655e-19)
(1.21884 0.398158 -9.84459e-20)
(1.21249 0.388727 1.8512e-20)
(1.20688 0.379627 -6.28701e-20)
(1.20211 0.370986 1.33365e-20)
(1.19816 0.363172 1.49983e-20)
(1.19521 0.355606 -1.40198e-19)
(0.16056 0.041575 9.4887e-21)
(0.451133 0.133513 -1.79782e-19)
(0.699462 0.232294 9.91923e-20)
(0.89615 0.318434 -3.45991e-19)
(1.03911 0.383682 1.67435e-19)
(1.13407 0.427213 -2.86831e-19)
(1.19119 0.452005 -2.23621e-19)
(1.22136 0.462584 -8.52157e-21)
(1.23401 0.463464 -7.56268e-20)
(1.2362 0.458326 -2.34747e-19)
(1.23272 0.449815 -2.92206e-20)
(1.22654 0.439649 -2.23989e-19)
(1.21937 0.428856 4.06109e-20)
(1.21211 0.418008 -3.20868e-20)
(1.20525 0.407407 1.8785e-20)
(1.19905 0.397197 -1.48862e-19)
(1.19364 0.387434 7.99253e-21)
(1.18911 0.37824 2.98709e-20)
(1.1854 0.369968 -6.85869e-20)
(1.1827 0.361916 5.98879e-20)
(0.173275 0.0515184 -7.39149e-20)
(0.476964 0.158317 3.28912e-19)
(0.728078 0.265523 2.3543e-21)
(0.920444 0.35432 -2.84547e-19)
(1.05543 0.418157 2.14578e-19)
(1.14163 0.458067 9.00106e-20)
(1.191 0.478507 1.82763e-20)
(1.21523 0.484927 -1.5117e-19)
(1.22378 0.482266 2.4545e-19)
(1.22344 0.474302 -1.43189e-19)
(1.21858 0.4636 5.20231e-20)
(1.21177 0.451741 2.41041e-19)
(1.20441 0.439617 -2.16002e-19)
(1.19723 0.427695 2.36925e-19)
(1.19057 0.4162 -1.53512e-19)
(1.18463 0.40523 -3.01358e-20)
(1.17952 0.394816 3.62953e-20)
(1.1753 0.385076 4.54691e-20)
(1.17188 0.376347 6.24274e-20)
(1.1695 0.367814 3.76654e-20)
(0.185057 0.0623091 2.95637e-20)
(0.4997 0.184369 -2.95978e-19)
(0.751765 0.299447 5.25009e-20)
(0.938729 0.390065 6.86241e-19)
(1.06551 0.451798 -6.33302e-20)
(1.14337 0.487686 1.8962e-19)
(1.1858 0.503652 1.18075e-19)
(1.20497 0.505975 1.97152e-20)
(1.21028 0.499923 -1.36099e-19)
(1.2081 0.489298 2.22902e-19)
(1.20238 0.476549 -2.56227e-20)
(1.19533 0.463105 3.35435e-19)
(1.18807 0.449725 1.28435e-19)
(1.18115 0.436777 7.9983e-20)
(1.17483 0.42442 -1.66565e-19)
(1.16926 0.41271 3.50893e-20)
(1.16454 0.401657 1.2863e-19)
(1.1607 0.391382 3.27427e-20)
(1.15764 0.3822 -1.54882e-19)
(1.15564 0.373199 -3.85105e-20)
(0.195692 0.0738154 -1.64667e-19)
(0.518988 0.211302 5.30498e-19)
(0.770283 0.333589 -2.88686e-19)
(0.950995 0.42521 -2.65379e-19)
(1.06955 0.484234 -2.30681e-19)
(1.13965 0.515806 -1.94035e-19)
(1.17596 0.527256 -2.38416e-19)
(1.19097 0.525593 2.97858e-19)
(1.1938 0.516321 -2.11464e-19)
(1.19041 0.503204 -1.69059e-20)
(1.1843 0.488546 -1.93834e-21)
(1.17733 0.473619 -4.00962e-20)
(1.1704 0.459054 -1.02375e-19)
(1.16393 0.445127 -1.13233e-19)
(1.15808 0.43194 -6.05107e-21)
(1.15298 0.419512 -2.50922e-20)
(1.14872 0.407838 -6.08431e-20)
(1.14532 0.397042 -1.83283e-20)
(1.14268 0.387415 2.124e-20)
(1.14113 0.377969 -1.28055e-19)
(0.204988 0.0858821 2.88309e-19)
(0.534552 0.238724 2.97767e-19)
(0.783497 0.36747 -1.84722e-19)
(0.957325 0.459312 1.13791e-19)
(1.06782 0.515116 1.95842e-19)
(1.13082 0.542172 -3.99279e-20)
(1.16188 0.549138 4.81983e-20)
(1.17356 0.543642 5.33837e-20)
(1.17463 0.531336 8.85165e-20)
(1.17056 0.515897 -1.03143e-19)
(1.16446 0.499465 5.05705e-20)
(1.15786 0.483152 -3.38136e-20)
(1.15148 0.46747 1.52345e-19)
(1.1456 0.452612 6.4833e-20)
(1.14035 0.438629 -1.49509e-19)
(1.13582 0.42551 8.11588e-20)
(1.1321 0.413237 4.05881e-20)
(1.12921 0.401938 -7.18899e-20)
(1.12706 0.391881 1.95998e-19)
(1.12602 0.382022 -1.43038e-19)
(0.212781 0.0983341 -2.11975e-19)
(0.546191 0.266221 -2.74809e-19)
(0.791363 0.400611 1.91723e-19)
(0.957881 0.491944 -1.76965e-19)
(1.06064 0.544115 -1.66559e-20)
(1.11726 0.566545 -1.91747e-19)
(1.14392 0.569122 1.59731e-19)
(1.15305 0.559978 2.89792e-19)
(1.15299 0.544837 -4.02745e-19)
(1.14873 0.527246 2.07954e-20)
(1.14298 0.509168 1.53951e-20)
(1.13701 0.491563 -7.83623e-20)
(1.13137 0.474832 5.53901e-20)
(1.12624 0.459093 -2.24554e-20)
(1.1217 0.444354 1.45905e-19)
(1.11783 0.430574 -1.57188e-19)
(1.11473 0.417727 -5.20612e-20)
(1.11242 0.405944 1.38634e-19)
(1.11081 0.395475 -2.0062e-19)
(1.11035 0.385248 1.26801e-19)
(0.218937 0.110981 4.39551e-19)
(0.553782 0.293376 3.87808e-19)
(0.793928 0.432547 -6.52853e-20)
(0.95289 0.522706 -8.19316e-21)
(1.04835 0.570922 -1.96023e-19)
(1.09935 0.588702 8.35426e-20)
(1.12242 0.587035 4.02997e-19)
(1.12973 0.574456 -3.52946e-19)
(1.1291 0.556685 2.19147e-19)
(1.12507 0.537111 -1.86207e-20)
(1.11998 0.517514 1.30999e-19)
(1.11487 0.498709 -3.4522e-20)
(1.11014 0.480995 7.70975e-20)
(1.1059 0.464429 9.61747e-20)
(1.10219 0.448974 -5.61559e-20)
(1.09908 0.434567 6.34707e-20)
(1.09667 0.421175 -8.45844e-20)
(1.095 0.40893 2.18221e-19)
(1.09402 0.398067 -1.31127e-19)
(1.09421 0.38752 9.37675e-20)
(0.223355 0.123621 -2.13111e-19)
(0.557281 0.31977 -3.97401e-19)
(0.791316 0.462834 -2.74206e-19)
(0.942633 0.551221 -1.88233e-20)
(1.03131 0.595256 6.46212e-20)
(1.07746 0.608431 -3.55138e-20)
(1.09773 0.602714 -2.29049e-19)
(1.10386 0.586931 -9.81581e-20)
(1.10317 0.566743 -1.7596e-19)
(1.09973 0.545352 -8.07972e-20)
(1.09556 0.52436 4.11185e-20)
(1.0915 0.504445 -1.94714e-19)
(1.08785 0.485817 -4.18579e-20)
(1.08464 0.468476 -3.94038e-20)
(1.08188 0.452351 -1.28473e-19)
(1.07962 0.437355 5.64041e-20)
(1.07798 0.423446 4.71269e-21)
(1.07702 0.410755 4.78982e-20)
(1.07673 0.399507 -2.02592e-20)
(1.07764 0.38869 -6.09407e-20)
(0.22597 0.136047 4.92475e-19)
(0.556712 0.344994 4.28619e-19)
(0.783722 0.491052 5.26174e-19)
(0.92744 0.577146 -5.4815e-20)
(1.00991 0.616858 -1.84924e-19)
(1.05198 0.625542 5.53118e-19)
(1.07016 0.616004 -2.68444e-19)
(1.0757 0.597267 2.93276e-19)
(1.07539 0.574875 -5.19803e-20)
(1.07285 0.551835 1.73591e-19)
(1.06982 0.529568 2.00206e-20)
(1.06699 0.508631 7.40733e-20)
(1.06456 0.489155 -1.59758e-20)
(1.06251 0.471094 6.873e-20)
(1.06083 0.454344 -4.61278e-20)
(1.05953 0.438798 8.34453e-21)
(1.05874 0.424401 2.40485e-20)
(1.05855 0.411275 3.30145e-20)
(1.05903 0.399647 -5.99238e-22)
(1.06071 0.388611 8.48929e-21)
(0.226751 0.14805 -1.5054e-19)
(0.552168 0.368659 -4.19164e-19)
(0.7714 0.516814 -2.54307e-19)
(0.907675 0.600169 -4.40798e-19)
(0.984546 0.635497 4.67142e-19)
(1.02326 0.639861 -3.19151e-19)
(1.04002 0.626765 1.98527e-19)
(1.0455 0.605333 -7.17273e-20)
(1.04594 0.580955 -7.83476e-20)
(1.04457 0.55643 -5.40054e-20)
(1.04287 0.533008 2.87383e-20)
(1.04141 0.511135 2.72576e-20)
(1.04033 0.490875 1.24175e-20)
(1.03958 0.472144 -2.7947e-20)
(1.03909 0.454813 -6.19513e-21)
(1.03887 0.438754 2.34197e-20)
(1.03902 0.423897 -1.65044e-20)
(1.03968 0.410346 1.31889e-20)
(1.04098 0.398344 8.31492e-21)
(1.04345 0.387167 1.97891e-20)
(0.225704 0.159425 6.54801e-19)
(0.543805 0.390398 3.05035e-19)
(0.754659 0.539768 2.85608e-19)
(0.883734 0.620015 -1.66131e-19)
(0.955632 0.650972 1.85597e-20)
(0.991689 0.651236 2.30294e-19)
(1.00763 0.634868 2.67283e-20)
(1.0135 0.611013 4.83794e-20)
(1.015 0.584871 4.88859e-20)
(1.01501 0.559025 -5.65416e-21)
(1.0148 0.534567 1.13558e-20)
(1.01484 0.51184 -1.13023e-20)
(1.01521 0.490855 -1.59343e-20)
(1.01587 0.471497 2.54736e-21)
(1.01671 0.453617 7.1767e-21)
(1.01769 0.437075 4.49858e-21)
(1.0189 0.421776 -8.19872e-21)
(1.02049 0.4078 -8.77204e-22)
(1.02266 0.395429 4.02215e-20)
(1.02598 0.384206 -3.78474e-20)
(0.222866 0.169974 -4.6173e-19)
(0.53183 0.409876 -3.97126e-19)
(0.733851 0.559603 1.8497e-19)
(0.856034 0.636445 -2.22405e-19)
(0.92358 0.663109 -1.80611e-20)
(0.957624 0.659536 1.89779e-20)
(0.973272 0.640206 -3.1126e-20)
(0.979923 0.614209 -3.11122e-20)
(0.982757 0.586526 -3.86953e-20)
(0.98432 0.559527 -2.65917e-20)
(0.985713 0.534152 -2.78731e-20)
(0.987331 0.510654 3.0396e-20)
(0.989248 0.488998 -1.91831e-21)
(0.991406 0.469046 7.93738e-21)
(0.993699 0.450638 4.83397e-21)
(0.996043 0.433624 -6.01028e-20)
(0.99845 0.417888 -5.21492e-20)
(1.00108 0.403454 -5.62177e-20)
(1.00425 0.390634 -1.04021e-21)
(1.00867 0.379373 8.68592e-20)
(0.218309 0.179514 4.17393e-19)
(0.516503 0.426792 1.98376e-20)
(0.709364 0.576048 -4.36081e-20)
(0.825015 0.649256 4.97914e-20)
(0.888811 0.671765 1.35438e-19)
(0.921433 0.664655 -1.0558e-19)
(0.937263 0.642691 1.74007e-20)
(0.94502 0.61484 -3.66693e-20)
(0.949397 0.585844 -1.80343e-20)
(0.952642 0.557864 4.29033e-22)
(0.955713 0.531695 -5.00198e-20)
(0.958956 0.507508 -4.20111e-20)
(0.962452 0.485227 4.61311e-20)
(0.966171 0.4647 -1.71382e-20)
(0.970025 0.445762 -1.83353e-19)
(0.973892 0.428271 1.79868e-19)
(0.977694 0.412092 -1.07504e-19)
(0.981593 0.397119 -6.81467e-20)
(0.986154 0.383582 8.60454e-20)
(0.992151 0.37205 -1.06268e-19)
(0.212131 0.187873 -8.90227e-20)
(0.498122 0.440882 9.65113e-20)
(0.681616 0.588875 4.80623e-20)
(0.791125 0.658287 -7.0897e-20)
(0.851748 0.676829 2.31543e-20)
(0.883483 0.666511 -4.15166e-20)
(0.899899 0.642256 -1.51685e-20)
(0.909034 0.612849 1.79338e-20)
(0.915115 0.582779 -6.49269e-22)
(0.920129 0.553998 -1.09736e-19)
(0.924909 0.527165 2.81155e-20)
(0.92977 0.502371 8.15992e-21)
(0.934814 0.479497 1.30797e-19)
(0.940065 0.458367 -3.33122e-19)
(0.945489 0.438822 3.10205e-19)
(0.950968 0.420747 1.64792e-19)
(0.956367 0.404001 -3.31801e-20)
(0.961928 0.388272 2.69037e-20)
(0.968504 0.373573 2.955e-19)
(0.97638 0.361425 -1.23251e-19)
(0.204458 0.194901 -2.47142e-20)
(0.477021 0.451924 5.79888e-20)
(0.651046 0.597902 -5.17667e-20)
(0.754826 0.663411 6.73036e-20)
(0.812817 0.678217 -3.56042e-20)
(0.844142 0.665046 3.23207e-20)
(0.861492 0.638857 2.72408e-20)
(0.872223 0.608205 -7.47466e-20)
(0.880129 0.577315 7.47956e-20)
(0.886959 0.547938 5.2318e-20)
(0.89344 0.520603 2.63534e-20)
(0.899855 0.495318 4.21126e-21)
(0.906322 0.471907 1.05832e-19)
(0.912917 0.450144 -1.06645e-19)
(0.919674 0.429826 1.27075e-19)
(0.926526 0.410826 -2.6622e-19)
(0.933387 0.392954 2.97463e-19)
(0.940685 0.375599 -2.55496e-19)
(0.949371 0.358514 -1.72667e-19)
(0.958352 0.345082 2.94665e-19)
(0.19544 0.200468 1.62567e-20)
(0.453559 0.459737 -2.01186e-20)
(0.618112 0.602985 -1.1418e-20)
(0.716583 0.664536 -4.75293e-20)
(0.772446 0.675873 1.35716e-20)
(0.803783 0.660223 5.0473e-21)
(0.822358 0.632469 -1.67608e-19)
(0.834862 0.600893 1.11708e-19)
(0.844685 0.569455 1.11257e-19)
(0.853361 0.53972 -1.5548e-19)
(0.861523 0.512103 1.82011e-19)
(0.869415 0.486544 -6.96777e-20)
(0.877143 0.462812 1.36766e-19)
(0.884784 0.440619 -2.18527e-19)
(0.892384 0.419682 4.54655e-19)
(0.899908 0.399754 -1.02913e-19)
(0.907378 0.380438 -2.84281e-20)
(0.91545 0.360517 2.98803e-19)
(0.924902 0.338097 -1.45534e-19)
(0.930892 0.315623 6.40658e-20)
(0.185243 0.204467 -6.45905e-20)
(0.428116 0.464181 8.29734e-20)
(0.583278 0.604026 -3.29828e-20)
(0.676864 0.661605 4.94898e-20)
(0.73106 0.669768 -2.45359e-20)
(0.762776 0.652025 -1.6607e-19)
(0.782821 0.623079 2.54742e-19)
(0.797242 0.590903 1.7377e-20)
(0.809053 0.559198 -2.72003e-20)
(0.819607 0.529357 4.94682e-21)
(0.829456 0.501707 8.31216e-20)
(0.838809 0.476147 1.43194e-19)
(0.847749 0.452437 8.60638e-20)
(0.856311 0.430305 -2.04525e-19)
(0.864483 0.409505 -5.84772e-20)
(0.872201 0.389848 -1.04892e-20)
(0.879563 0.371075 3.82253e-20)
(0.887145 0.352516 5.06257e-21)
(0.894912 0.333473 4.37683e-19)
(0.898315 0.316025 -3.05606e-19)
(0.174045 0.206809 1.66673e-19)
(0.401083 0.465154 -2.71591e-20)
(0.547012 0.600962 -1.15325e-19)
(0.636131 0.654595 3.78103e-19)
(0.689079 0.659896 7.24922e-20)
(0.721489 0.640452 -2.25782e-19)
(0.743205 0.610685 2.11253e-19)
(0.759652 0.578232 -4.76327e-20)
(0.773509 0.546536 1.87415e-19)
(0.785969 0.516834 8.55629e-20)
(0.797525 0.489373 -4.13606e-19)
(0.808376 0.464022 -4.81212e-20)
(0.818607 0.44053 5.75799e-19)
(0.828252 0.418634 -7.04801e-19)
(0.83729 0.398097 6.51941e-19)
(0.845653 0.378725 2.25773e-19)
(0.853401 0.360247 -8.03424e-19)
(0.860924 0.342104 3.88016e-19)
(0.868057 0.323992 -7.98968e-20)
(0.87138 0.30824 9.31603e-20)
(0.162037 0.207431 -3.00898e-19)
(0.372859 0.462596 -3.1005e-19)
(0.509782 0.593771 2.11941e-19)
(0.594841 0.643511 -2.65542e-19)
(0.646916 0.646276 -7.25123e-19)
(0.680286 0.625523 -2.35739e-20)
(0.70383 0.595302 -2.14984e-19)
(0.722385 0.56289 1.1075e-20)
(0.738323 0.531476 -4.21428e-19)
(0.752703 0.502159 -4.28864e-19)
(0.765972 0.47512 -2.91295e-19)
(0.778322 0.450207 -1.20197e-20)
(0.789846 0.427174 -7.21933e-19)
(0.800592 0.405773 -5.37905e-21)
(0.810563 0.385797 3.51963e-19)
(0.819727 0.367086 -3.50191e-19)
(0.828154 0.349429 -2.69822e-19)
(0.836166 0.3324 2.59728e-19)
(0.843588 0.31582 -1.86435e-19)
(0.847619 0.301537 3.59181e-20)
(0.149418 0.206292 2.39834e-19)
(0.343845 0.456483 1.86347e-19)
(0.472048 0.582467 -6.79449e-21)
(0.553441 0.628392 -1.51355e-19)
(0.604971 0.628953 3.71076e-19)
(0.639519 0.607277 5.9499e-19)
(0.665009 0.576957 -6.15586e-20)
(0.685726 0.544891 1.1498e-20)
(0.703767 0.514021 1.16647e-19)
(0.720078 0.485318 2.64442e-19)
(0.735077 0.458909 3.83022e-19)
(0.748956 0.434627 -3.0963e-19)
(0.761825 0.41223 3.06351e-19)
(0.773747 0.391482 -1.04892e-19)
(0.784748 0.37219 3.56806e-19)
(0.794823 0.354202 -1.38802e-19)
(0.804074 0.337332 -3.44418e-19)
(0.812824 0.321246 2.07598e-19)
(0.820925 0.305875 -2.95807e-19)
(0.825932 0.292778 -3.36478e-19)
(0.136388 0.203372 1.05383e-19)
(0.314435 0.446832 1.92494e-19)
(0.434261 0.567102 -2.02706e-19)
(0.512361 0.609305 9.53186e-21)
(0.563633 0.607994 3.48351e-20)
(0.599529 0.585772 2.81177e-19)
(0.627044 0.555697 -4.16132e-19)
(0.649947 0.524269 3.95707e-19)
(0.67009 0.494192 -3.7899e-20)
(0.688327 0.466318 1.08348e-19)
(0.705052 0.440732 1.74476e-19)
(0.720472 0.417255 -3.32606e-19)
(0.734714 0.395652 1.59688e-19)
(0.747867 0.375701 1.51624e-19)
(0.75998 0.357221 5.59179e-20)
(0.77108 0.340069 -2.86811e-19)
(0.781296 0.324072 9.66192e-19)
(0.790943 0.308944 -5.40615e-19)
(0.799873 0.294652 9.82885e-19)
(0.805915 0.282484 -6.37558e-20)
(0.123147 0.198675 7.60422e-20)
(0.285019 0.43369 4.53511e-19)
(0.396855 0.54776 1.60761e-19)
(0.472017 0.586349 3.36304e-19)
(0.523272 0.583493 8.74766e-20)
(0.560641 0.561088 -5.3693e-19)
(0.590225 0.531586 8.32494e-19)
(0.615312 0.501072 4.31127e-19)
(0.637535 0.472021 1.80565e-20)
(0.657673 0.445179 5.58816e-19)
(0.67611 0.420591 9.01175e-20)
(0.693065 0.398073 5.8591e-20)
(0.708687 0.377398 3.34437e-19)
(0.723089 0.358353 -1.24957e-19)
(0.736346 0.340765 -1.32058e-19)
(0.748516 0.324497 7.79739e-19)
(0.759751 0.309386 -6.51864e-19)
(0.770357 0.295183 2.52928e-20)
(0.780177 0.281873 8.25135e-19)
(0.787281 0.270512 -7.89188e-22)
(0.109893 0.192223 -9.72103e-19)
(0.255971 0.417141 -1.64817e-19)
(0.360248 0.524559 -2.22576e-19)
(0.432805 0.559649 -1.69867e-19)
(0.484241 0.555568 -4.30374e-19)
(0.523167 0.533327 1.47365e-19)
(0.554827 0.504707 -2.06139e-19)
(0.582065 0.475369 5.93286e-20)
(0.606326 0.447563 -2.98371e-19)
(0.628323 0.421939 -2.82792e-19)
(0.648437 0.398511 5.85085e-20)
(0.666904 0.377094 -4.57562e-19)
(0.683894 0.357465 3.65235e-19)
(0.699545 0.339425 -1.31953e-19)
(0.713955 0.322806 4.14246e-19)
(0.727208 0.307476 -8.93816e-19)
(0.739472 0.29328 -1.69633e-19)
(0.75104 0.279996 -3.20848e-19)
(0.761752 0.267614 -8.62358e-19)
(0.769907 0.25699 -1.38946e-19)
(0.0968201 0.184058 1.58636e-19)
(0.227653 0.3973 -1.89272e-20)
(0.324836 0.497649 -2.44317e-19)
(0.395098 0.529359 8.62523e-20)
(0.446874 0.52436 -1.7441e-19)
(0.487398 0.502614 -2.30084e-21)
(0.521108 0.475167 2.37759e-19)
(0.550441 0.447248 -3.54789e-19)
(0.576673 0.420892 1.38608e-19)
(0.600468 0.396659 -8.01341e-20)
(0.622207 0.37454 2.16449e-20)
(0.642141 0.354349 -3.97312e-19)
(0.660466 0.335876 -4.83668e-19)
(0.677339 0.318927 -1.831e-20)
(0.692881 0.303345 5.39217e-19)
(0.707198 0.289001 2.5306e-20)
(0.720471 0.275747 6.82959e-19)
(0.732975 0.26339 -9.95401e-19)
(0.744556 0.251914 5.29886e-19)
(0.753735 0.242002 9.13008e-19)
(0.0841133 0.174242 -1.38096e-19)
(0.200406 0.374313 7.41954e-20)
(0.290993 0.467209 4.82627e-19)
(0.359249 0.49566 1.19134e-19)
(0.411482 0.490035 -1.60783e-19)
(0.453609 0.469092 1.26854e-19)
(0.48931 0.443091 4.99512e-19)
(0.520656 0.416818 -4.05277e-19)
(0.548773 0.3921 3.76811e-20)
(0.574285 0.369419 -1.48026e-19)
(0.597577 0.348746 5.35572e-19)
(0.618918 0.3299 3.82781e-19)
(0.638525 0.312679 -5.54944e-20)
(0.656574 0.296904 -5.81694e-19)
(0.673206 0.282424 3.07473e-20)
(0.688548 0.269115 -7.18782e-20)
(0.702787 0.256839 3.423e-19)
(0.71618 0.245425 5.5723e-19)
(0.728589 0.234852 4.87063e-19)
(0.738753 0.225652 -8.13679e-19)
(0.0719494 0.162854 -8.63547e-20)
(0.174552 0.348351 3.68595e-19)
(0.259068 0.433445 -3.5954e-19)
(0.325583 0.458759 4.99851e-19)
(0.378356 0.452782 -2.71983e-19)
(0.422054 0.432931 1.94965e-19)
(0.45966 0.408625 4.95543e-19)
(0.492911 0.384207 -5.95992e-19)
(0.522806 0.361301 2.71609e-19)
(0.549938 0.34032 3.44074e-19)
(0.574694 0.321219 -4.6791e-19)
(0.597364 0.303825 -3.33744e-20)
(0.618183 0.28795 -3.75976e-19)
(0.637345 0.273425 6.02963e-19)
(0.65501 0.260108 -3.27293e-19)
(0.671319 0.247883 3.51635e-19)
(0.686465 0.236622 -6.37543e-20)
(0.700689 0.226177 2.17517e-19)
(0.713876 0.216516 4.95896e-20)
(0.724974 0.208047 -1.27091e-19)
(0.0604944 0.14999 -2.64531e-19)
(0.15039 0.319614 -6.09031e-19)
(0.229384 0.396591 1.60311e-19)
(0.294402 0.418883 -5.14205e-19)
(0.347761 0.412812 -4.87113e-19)
(0.392968 0.394315 -3.50259e-19)
(0.432365 0.371936 2.73072e-19)
(0.467393 0.349563 2.10102e-19)
(0.498941 0.328629 -1.50216e-21)
(0.527577 0.309482 -1.83412e-19)
(0.553694 0.292069 -3.3091e-19)
(0.5776 0.276227 2.98628e-19)
(0.599546 0.261782 -1.02829e-19)
(0.619744 0.248577 -5.09381e-19)
(0.638369 0.236483 3.31914e-19)
(0.655577 0.22539 -2.49365e-19)
(0.671561 0.215185 -1.01706e-19)
(0.686548 0.205736 -2.84718e-19)
(0.700454 0.197006 -2.58112e-19)
(0.712426 0.189294 6.67535e-20)
(0.0499021 0.13576 2.31099e-19)
(0.128194 0.288327 1.19814e-19)
(0.202235 0.356905 1.83319e-19)
(0.265979 0.376286 -6.25315e-19)
(0.319941 0.370353 6.69929e-19)
(0.366563 0.353452 3.13849e-21)
(0.407613 0.333206 5.4678e-21)
(0.44427 0.313051 -4.08866e-19)
(0.47733 0.294233 3.81931e-19)
(0.507339 0.277043 -2.65746e-19)
(0.534701 0.261423 8.03435e-20)
(0.559736 0.247223 -3.56919e-19)
(0.582713 0.234284 -1.69952e-19)
(0.603858 0.222466 -8.12726e-20)
(0.62336 0.211651 6.12432e-19)
(0.641387 0.201737 -3.00746e-19)
(0.658132 0.192626 -2.71574e-19)
(0.673808 0.184204 2.79657e-19)
(0.688368 0.176427 -2.297e-19)
(0.701144 0.169507 1.79039e-19)
(0.0403128 0.120291 4.90715e-19)
(0.108213 0.254734 -2.96354e-19)
(0.177886 0.314665 4.44223e-20)
(0.24056 0.331238 5.19626e-19)
(0.295113 0.325654 2.06278e-19)
(0.343032 0.310563 2.56058e-19)
(0.385575 0.292636 2.55003e-19)
(0.423696 0.274852 5.41212e-19)
(0.458111 0.258279 -1.24141e-19)
(0.489351 0.243154 2.96476e-19)
(0.517826 0.229421 4.31172e-19)
(0.543874 0.216944 1.58955e-19)
(0.567774 0.205583 2.88085e-19)
(0.589767 0.195212 1.04619e-19)
(0.610054 0.185726 6.16465e-20)
(0.628812 0.177037 -4.46509e-20)
(0.646234 0.169057 3.58369e-19)
(0.662521 0.16169 2.21154e-19)
(0.677666 0.154889 -2.00984e-19)
(0.691167 0.148799 1.89596e-19)
(0.0318519 0.103719 -3.25762e-19)
(0.0906661 0.219101 3.68001e-20)
(0.156571 0.270173 -9.41826e-20)
(0.218363 0.284029 -2.86123e-19)
(0.27347 0.278981 -1.51766e-19)
(0.322543 0.265887 -2.75826e-19)
(0.3664 0.25044 1.28169e-19)
(0.405804 0.235162 -4.96444e-19)
(0.441405 0.220946 2.93281e-19)
(0.473721 0.207982 -4.05925e-19)
(0.503171 0.196219 -2.52282e-19)
(0.530103 0.185537 -3.34142e-19)
(0.554811 0.175814 7.65705e-20)
(0.577545 0.166944 -7.56062e-20)
(0.598517 0.158835 9.0564e-20)
(0.617912 0.15141 4.87896e-20)
(0.635922 0.144595 9.69872e-20)
(0.65274 0.138312 -8.11336e-19)
(0.668394 0.132511 4.03927e-19)
(0.682534 0.127286 -2.42187e-19)
(0.0246291 0.0861952 1.07611e-19)
(0.0757459 0.181713 2.174e-19)
(0.138495 0.223743 -1.41913e-19)
(0.199575 0.234964 3.5051e-19)
(0.255177 0.230611 -5.63857e-20)
(0.305242 0.219676 4.06245e-19)
(0.35022 0.206848 7.85332e-20)
(0.390713 0.19419 -8.26135e-20)
(0.427318 0.182425 3.00668e-19)
(0.460546 0.171706 2.30118e-19)
(0.490821 0.161983 8.54169e-20)
(0.518502 0.153157 1.12411e-19)
(0.543894 0.145127 5.6428e-20)
(0.567255 0.137804 -2.39629e-19)
(0.588807 0.131112 -3.34362e-20)
(0.608741 0.124986 2.50608e-19)
(0.627247 0.119367 -1.71311e-19)
(0.644511 0.114191 -7.88704e-21)
(0.660596 0.109412 -3.59341e-19)
(0.675281 0.105087 7.24053e-19)
(0.0187372 0.0678784 2.88484e-19)
(0.0636136 0.142866 -3.46625e-19)
(0.123827 0.175708 1.62584e-19)
(0.184355 0.184362 -2.30238e-19)
(0.240375 0.180837 2.03102e-19)
(0.291253 0.172193 -3.52956e-19)
(0.337143 0.162096 -2.58696e-19)
(0.378521 0.152153 1.93912e-20)
(0.415941 0.14292 -3.5312e-19)
(0.449907 0.134511 -2.20573e-19)
(0.480851 0.126887 -3.82316e-19)
(0.50914 0.119969 -1.29187e-20)
(0.535085 0.113676 -1.48723e-19)
(0.558954 0.107939 3.76488e-19)
(0.580975 0.102698 2.59777e-19)
(0.601346 0.0979017 -8.71901e-20)
(0.620252 0.0935043 -7.88635e-20)
(0.637875 0.0894564 -3.5053e-21)
(0.65431 0.0857186 9.73376e-21)
(0.669438 0.0823218 1.42964e-19)
(0.0142516 0.0489361 -7.21505e-20)
(0.0543993 0.102873 -2.4706e-19)
(0.112705 0.126412 -1.54137e-19)
(0.172828 0.132552 -9.65095e-20)
(0.229174 0.129959 -2.00151e-19)
(0.280674 0.12371 3.43284e-19)
(0.327258 0.116435 -3.67024e-20)
(0.369306 0.109279 -8.27288e-20)
(0.407343 0.102639 3.37568e-21)
(0.441869 0.096595 2.43575e-19)
(0.47332 0.091116 -2.31573e-19)
(0.502069 0.0861452 2.2671e-19)
(0.528434 0.081625 1.06548e-19)
(0.552688 0.0775049 -1.9435e-19)
(0.575064 0.0737414 4.25086e-20)
(0.595764 0.0702982 1.25227e-19)
(0.614973 0.0671425 4.37035e-20)
(0.632867 0.0642391 -3.02213e-20)
(0.649567 0.0615579 -2.63937e-19)
(0.665034 0.0591141 2.10217e-19)
(0.0112292 0.0295425 6.50686e-20)
(0.0482015 0.0620531 7.90335e-20)
(0.105232 0.0762074 2.22342e-20)
(0.16509 0.0798747 -1.67696e-20)
(0.22166 0.078288 4.77403e-20)
(0.27358 0.0745084 7.30984e-20)
(0.32063 0.0701172 2.77256e-20)
(0.363129 0.0658025 3.38477e-20)
(0.401581 0.0618007 -7.21996e-20)
(0.436483 0.0581587 1.35281e-19)
(0.468274 0.0548578 -3.19974e-20)
(0.497332 0.0518635 -2.60405e-21)
(0.523978 0.0491411 3.25509e-20)
(0.548491 0.0466599 3.67212e-20)
(0.571105 0.0443938 -9.88477e-20)
(0.592026 0.0423209 6.49766e-20)
(0.611438 0.0404215 4.2672e-20)
(0.629513 0.0386746 3.64636e-20)
(0.646391 0.0370613 7.83052e-20)
(0.662086 0.035588 3.24457e-20)
(0.00970844 0.00987623 -1.33247e-20)
(0.0450861 0.0207348 2.76973e-20)
(0.101479 0.0254556 -3.87768e-20)
(0.161205 0.0266736 2.43767e-20)
(0.217889 0.0261385 1.4333e-20)
(0.27002 0.024873 6.43364e-21)
(0.317305 0.0234046 1.51808e-20)
(0.360031 0.0219625 -4.35484e-20)
(0.398691 0.0206253 2.77878e-20)
(0.433782 0.0194085 9.70966e-21)
(0.465743 0.0183058 -5.88688e-22)
(0.494956 0.0173055 5.98917e-20)
(0.521744 0.0163961 -1.81635e-20)
(0.546386 0.0155673 -1.74232e-20)
(0.56912 0.0148104 -1.67758e-20)
(0.590152 0.0141181 2.59904e-21)
(0.609665 0.0134838 -2.24755e-20)
(0.627831 0.0129005 4.28252e-21)
(0.644799 0.0123619 8.46203e-22)
(0.660609 0.0118695 -2.85593e-21)
(0.00970847 -0.00988107 8.46394e-21)
(0.0450862 -0.0207499 -4.50516e-20)
(0.101479 -0.0254788 5.37334e-20)
(0.161205 -0.0267024 -4.03989e-20)
(0.217888 -0.0261707 -1.88807e-20)
(0.27002 -0.0249071 5.65369e-20)
(0.317305 -0.02344 4.72012e-21)
(0.36003 -0.0219988 1.32613e-21)
(0.39869 -0.0206625 2.65061e-20)
(0.433781 -0.0194464 1.3723e-20)
(0.465743 -0.0183444 -1.08215e-20)
(0.494955 -0.0173449 -3.80575e-20)
(0.521743 -0.0164362 3.59405e-21)
(0.546385 -0.0156081 -3.3411e-21)
(0.569119 -0.0148518 3.55787e-20)
(0.590152 -0.0141601 -2.14274e-20)
(0.609664 -0.0135264 2.94286e-20)
(0.627831 -0.0129436 -4.41255e-20)
(0.644799 -0.0124054 5.16104e-23)
(0.660609 -0.0119135 -9.30278e-21)
(0.0112293 -0.0295471 -2.81172e-20)
(0.0482016 -0.0620677 1.4188e-19)
(0.105232 -0.0762302 9.56639e-20)
(0.165089 -0.0799032 6.33488e-20)
(0.221659 -0.0783199 7.91588e-20)
(0.273579 -0.0745423 -1.91827e-20)
(0.320629 -0.0701524 8.78429e-20)
(0.363128 -0.0658387 1.80282e-20)
(0.40158 -0.0618377 -7.8161e-21)
(0.436482 -0.0581965 -6.27948e-20)
(0.468273 -0.0548964 6.52258e-20)
(0.49733 -0.0519029 -8.86484e-20)
(0.523976 -0.0491812 6.44751e-20)
(0.548489 -0.0467007 7.39358e-20)
(0.571103 -0.0444353 9.79206e-20)
(0.592024 -0.0423629 -6.42942e-20)
(0.611436 -0.0404641 1.82288e-20)
(0.629511 -0.0387177 6.81127e-20)
(0.646389 -0.0371049 -6.44161e-20)
(0.662084 -0.035632 4.86025e-20)
(0.0142517 -0.0489402 -2.71859e-19)
(0.0543994 -0.102887 -1.36614e-19)
(0.112705 -0.126434 -1.51976e-19)
(0.172827 -0.13258 -1.19914e-20)
(0.229173 -0.129991 -8.20353e-20)
(0.280673 -0.123744 -1.00631e-19)
(0.327256 -0.116469 1.77951e-19)
(0.369304 -0.109315 9.07737e-20)
(0.407341 -0.102676 1.11988e-19)
(0.441866 -0.0966327 -1.21634e-19)
(0.473317 -0.0911545 9.0212e-20)
(0.502066 -0.0861844 1.10229e-19)
(0.528431 -0.0816651 3.88837e-20)
(0.552685 -0.0775457 -3.69581e-20)
(0.575061 -0.0737828 8.00177e-21)
(0.595761 -0.0703403 -1.59267e-20)
(0.61497 -0.0671852 -1.56583e-19)
(0.632863 -0.0642823 2.42161e-20)
(0.649564 -0.0616017 1.52331e-19)
(0.66503 -0.0591582 -2.04656e-19)
(0.0187372 -0.0678818 -8.9509e-20)
(0.0636135 -0.142879 1.32591e-19)
(0.123826 -0.175729 3.07168e-20)
(0.184353 -0.184388 -5.73726e-20)
(0.240373 -0.180867 -1.62324e-19)
(0.291251 -0.172226 -3.48022e-19)
(0.33714 -0.162131 -3.31469e-19)
(0.378517 -0.152188 -2.39261e-20)
(0.415937 -0.142956 -1.93088e-19)
(0.449903 -0.134549 -2.88962e-19)
(0.480846 -0.126926 2.243e-19)
(0.509135 -0.120008 -3.30834e-19)
(0.53508 -0.113716 6.59891e-20)
(0.558949 -0.10798 -2.10157e-20)
(0.58097 -0.102739 -6.95541e-20)
(0.601341 -0.0979439 -8.80186e-20)
(0.620247 -0.0935471 1.42704e-19)
(0.63787 -0.0894997 1.14158e-19)
(0.654305 -0.0857625 1.96351e-19)
(0.669434 -0.0823661 -2.93835e-19)
(0.024629 -0.0861977 4.85459e-20)
(0.0757456 -0.181724 4.71841e-19)
(0.138494 -0.223762 1.35183e-19)
(0.199573 -0.234989 3.2694e-19)
(0.255174 -0.230641 -1.22217e-19)
(0.305239 -0.219708 1.88224e-19)
(0.350216 -0.206882 -5.92875e-20)
(0.390708 -0.194225 3.8215e-19)
(0.427313 -0.182461 -1.96739e-19)
(0.46054 -0.171743 2.31966e-19)
(0.490815 -0.162021 2.01499e-19)
(0.518496 -0.153196 2.15732e-19)
(0.543888 -0.145167 -1.93101e-19)
(0.567249 -0.137845 1.65901e-19)
(0.5888 -0.131153 -2.30641e-19)
(0.608735 -0.125028 -6.34975e-20)
(0.627241 -0.11941 -1.52204e-19)
(0.644504 -0.114235 -6.46749e-20)
(0.66059 -0.109456 2.56497e-19)
(0.675275 -0.105131 -4.24735e-19)
(0.0318515 -0.10372 -1.95372e-19)
(0.0906652 -0.21911 -2.26796e-20)
(0.156569 -0.27019 -7.78939e-20)
(0.21836 -0.284053 -2.73854e-19)
(0.273466 -0.279009 4.65398e-20)
(0.322538 -0.265918 -4.29178e-19)
(0.366395 -0.250473 -1.8059e-19)
(0.405798 -0.235197 -1.39924e-20)
(0.441398 -0.220981 -4.54562e-19)
(0.473714 -0.208019 -1.41289e-19)