/*--------------------------------*- C++ -*----------------------------------*\
  =========                 |
  \\      /  F ield         | OpenFOAM: The Open Source CFD Toolbox
   \\    /   O peration     | Website:  https://openfoam.org
    \\  /    A nd           | Version:  6.0
     \\/     M anipulation  |
\*---------------------------------------------------------------------------*/
FoamFile
{
    version     2.0;
    format      ascii;
    class       volScalarField;
    location    "12.1";
    object      p;
}
// * * * * * * * * * * * * * * * * * * * * * * * * * * * * * * * * * * * * * //

dimensions      [0 2 -2 0 0 0 0];

internalField   nonuniform List<scalar> 
8000
(
-0.293906
-0.295194
-0.296021
-0.296616
-0.297123
-0.297567
-0.297969
-0.298347
-0.298715
-0.299081
-0.299453
-0.299838
-0.300243
-0.300676
-0.301144
-0.301669
-0.302249
-0.302787
-0.30325
-0.30466
-0.294087
-0.295358
-0.296173
-0.296759
-0.297257
-0.297693
-0.298086
-0.298456
-0.298815
-0.299172
-0.299535
-0.29991
-0.300304
-0.300726
-0.301183
-0.301697
-0.302269
-0.302799
-0.303252
-0.304659
-0.294444
-0.295681
-0.296474
-0.297043
-0.297524
-0.297943
-0.298319
-0.298672
-0.299013
-0.299351
-0.299693
-0.300047
-0.300419
-0.300818
-0.301253
-0.301745
-0.302297
-0.30281
-0.303242
-0.304642
-0.29497
-0.296159
-0.296919
-0.297462
-0.297917
-0.29831
-0.298661
-0.298987
-0.299299
-0.299607
-0.299917
-0.300237
-0.300575
-0.300938
-0.301337
-0.301793
-0.302315
-0.3028
-0.303199
-0.304584
-0.295653
-0.296782
-0.297502
-0.298009
-0.29843
-0.298788
-0.299103
-0.299391
-0.299663
-0.299928
-0.300194
-0.300466
-0.300754
-0.301065
-0.301412
-0.301819
-0.302295
-0.30274
-0.303093
-0.304455
-0.296481
-0.297542
-0.298213
-0.298678
-0.299055
-0.299368
-0.299635
-0.299873
-0.300093
-0.300302
-0.300508
-0.300717
-0.300938
-0.30118
-0.301457
-0.301795
-0.302208
-0.302598
-0.302891
-0.304219
-0.297441
-0.29843
-0.299046
-0.29946
-0.299784
-0.300041
-0.300249
-0.300425
-0.300578
-0.300716
-0.300845
-0.300973
-0.301108
-0.301261
-0.301446
-0.301695
-0.302025
-0.302341
-0.302559
-0.30384
-0.298523
-0.299437
-0.299992
-0.300348
-0.30061
-0.300801
-0.300938
-0.301039
-0.301111
-0.301162
-0.301198
-0.301225
-0.301253
-0.301294
-0.301365
-0.301498
-0.30172
-0.301941
-0.302065
-0.303288
-0.299718
-0.300557
-0.301048
-0.301338
-0.301528
-0.301642
-0.301698
-0.30171
-0.301688
-0.301637
-0.301563
-0.301471
-0.301371
-0.301275
-0.301204
-0.301193
-0.301278
-0.301375
-0.301384
-0.302535
-0.301022
-0.301787
-0.302209
-0.302426
-0.302537
-0.302564
-0.302527
-0.302441
-0.302312
-0.302146
-0.301947
-0.301718
-0.301469
-0.301212
-0.30097
-0.300784
-0.300695
-0.300632
-0.300496
-0.301558
-0.302436
-0.303127
-0.303475
-0.303613
-0.303635
-0.303567
-0.303429
-0.303235
-0.302991
-0.3027
-0.302364
-0.301985
-0.30157
-0.30113
-0.300687
-0.300288
-0.299983
-0.299713
-0.299388
-0.300333
-0.303963
-0.30458
-0.30485
-0.3049
-0.304826
-0.304655
-0.304408
-0.3041
-0.303736
-0.303316
-0.302838
-0.302301
-0.301707
-0.301065
-0.300395
-0.299744
-0.299172
-0.298631
-0.298047
-0.298828
-0.305613
-0.306153
-0.306338
-0.306293
-0.306113
-0.305832
-0.305471
-0.305046
-0.304559
-0.30401
-0.303392
-0.302696
-0.30192
-0.301065
-0.300146
-0.299206
-0.298308
-0.297414
-0.296467
-0.296996
-0.3074
-0.307858
-0.307948
-0.307797
-0.307503
-0.307103
-0.306623
-0.306079
-0.305472
-0.304798
-0.304045
-0.303199
-0.302247
-0.301178
-0.299995
-0.298732
-0.297448
-0.2961
-0.294639
-0.294767
-0.309341
-0.309707
-0.309691
-0.309422
-0.309002
-0.308474
-0.307869
-0.307202
-0.306477
-0.305684
-0.304807
-0.303823
-0.302706
-0.301432
-0.299984
-0.298374
-0.296644
-0.294731
-0.292558
-0.292052
-0.311458
-0.311717
-0.31158
-0.311177
-0.310616
-0.309948
-0.309208
-0.308415
-0.30757
-0.306662
-0.30567
-0.304561
-0.303296
-0.301832
-0.300126
-0.298158
-0.295939
-0.293357
-0.290251
-0.288787
-0.313774
-0.313909
-0.313631
-0.313075
-0.312355
-0.31153
-0.310642
-0.309711
-0.30874
-0.307716
-0.306611
-0.305386
-0.303987
-0.302351
-0.300405
-0.29809
-0.295368
-0.292062
-0.28784
-0.285022
-0.316318
-0.316306
-0.315865
-0.315132
-0.31423
-0.313227
-0.312171
-0.311087
-0.309977
-0.308827
-0.307606
-0.306266
-0.304743
-0.302953
-0.300793
-0.298154
-0.294938
-0.290887
-0.285403
-0.280723
-0.319125
-0.318939
-0.318306
-0.31737
-0.316258
-0.315052
-0.313806
-0.312546
-0.311279
-0.309989
-0.308645
-0.307194
-0.305565
-0.303664
-0.301359
-0.29849
-0.29487
-0.290074
-0.283059
-0.275749
-0.322233
-0.321839
-0.320984
-0.319814
-0.318464
-0.317027
-0.315564
-0.314106
-0.312662
-0.311219
-0.309748
-0.308203
-0.306523
-0.304629
-0.302419
-0.299762
-0.296471
-0.292014
-0.284959
-0.276593
-0.325687
-0.325048
-0.323936
-0.322499
-0.32088
-0.319184
-0.317479
-0.315801
-0.314162
-0.312553
-0.310954
-0.309334
-0.307661
-0.305909
-0.304079
-0.302229
-0.300516
-0.299219
-0.299496
-0.307819
-0.329539
-0.32861
-0.327201
-0.325465
-0.323547
-0.321565
-0.319595
-0.317678
-0.315828
-0.314044
-0.312312
-0.310617
-0.308954
-0.307341
-0.305839
-0.304591
-0.303863
-0.304081
-0.306181
-0.31431
-0.333845
-0.332574
-0.330829
-0.328759
-0.326514
-0.324224
-0.321971
-0.319799
-0.317727
-0.315757
-0.313884
-0.312104
-0.310431
-0.308906
-0.307619
-0.306723
-0.306465
-0.307179
-0.309344
-0.315052
-0.338662
-0.336992
-0.334869
-0.332434
-0.329836
-0.327217
-0.324666
-0.322229
-0.319924
-0.317756
-0.315723
-0.313828
-0.312092
-0.31056
-0.309317
-0.308489
-0.308246
-0.308782
-0.31031
-0.313653
-0.344051
-0.341918
-0.339373
-0.336544
-0.33357
-0.330607
-0.327745
-0.32503
-0.322476
-0.320087
-0.317859
-0.315792
-0.313905
-0.312235
-0.310843
-0.309811
-0.309234
-0.309193
-0.309774
-0.311051
-0.350067
-0.347404
-0.344395
-0.341143
-0.337775
-0.334452
-0.331266
-0.328254
-0.325426
-0.322775
-0.320291
-0.317969
-0.315816
-0.313855
-0.312123
-0.310665
-0.309522
-0.308713
-0.308276
-0.307953
-0.35676
-0.353497
-0.349983
-0.346284
-0.342503
-0.338806
-0.335275
-0.331938
-0.328791
-0.325816
-0.322991
-0.320302
-0.317747
-0.315337
-0.313092
-0.311035
-0.309184
-0.307533
-0.306105
-0.304559
-0.364172
-0.360239
-0.356182
-0.352014
-0.347804
-0.343711
-0.339807
-0.336099
-0.332566
-0.329176
-0.325896
-0.322706
-0.319601
-0.316588
-0.313682
-0.310903
-0.308263
-0.305762
-0.303414
-0.300929
-0.372329
-0.36766
-0.363026
-0.358372
-0.353713
-0.349196
-0.344872
-0.340724
-0.336711
-0.332786
-0.328914
-0.325075
-0.321271
-0.317514
-0.31383
-0.310244
-0.306776
-0.30344
-0.300248
-0.296994
-0.381243
-0.375778
-0.37054
-0.365382
-0.360249
-0.355266
-0.350454
-0.345769
-0.34115
-0.336546
-0.331927
-0.327286
-0.322641
-0.318024
-0.313474
-0.30903
-0.304722
-0.300578
-0.296604
-0.292677
-0.390903
-0.384591
-0.378729
-0.373049
-0.367409
-0.361897
-0.356502
-0.351151
-0.345773
-0.340326
-0.334798
-0.329209
-0.323603
-0.318036
-0.312563
-0.307238
-0.302098
-0.297175
-0.29247
-0.287914
-0.401275
-0.394077
-0.387576
-0.381354
-0.375157
-0.36903
-0.362924
-0.356748
-0.350437
-0.343973
-0.337379
-0.330714
-0.324054
-0.317478
-0.311057
-0.30485
-0.298899
-0.29323
-0.287835
-0.282679
-0.412293
-0.404186
-0.397037
-0.390246
-0.383423
-0.376562
-0.369586
-0.362402
-0.354971
-0.347319
-0.339522
-0.331681
-0.323905
-0.316293
-0.308924
-0.301856
-0.295123
-0.288746
-0.282698
-0.276966
-0.423859
-0.414836
-0.407033
-0.399633
-0.392089
-0.384347
-0.376315
-0.367923
-0.359185
-0.350193
-0.341082
-0.331999
-0.323079
-0.314433
-0.306137
-0.298242
-0.290769
-0.283724
-0.277062
-0.270783
-0.435836
-0.425907
-0.417447
-0.409381
-0.400995
-0.392193
-0.382898
-0.373096
-0.362881
-0.352425
-0.341926
-0.33157
-0.32151
-0.311855
-0.302672
-0.293995
-0.285828
-0.278161
-0.270926
-0.26414
-0.448048
-0.437241
-0.428118
-0.419309
-0.409929
-0.399867
-0.389096
-0.377693
-0.365858
-0.353851
-0.341929
-0.330305
-0.319135
-0.308518
-0.298501
-0.289095
-0.280288
-0.272049
-0.264285
-0.257038
-0.460276
-0.448637
-0.438838
-0.429188
-0.41864
-0.407104
-0.394649
-0.381482
-0.367924
-0.354322
-0.34098
-0.328123
-0.315897
-0.304379
-0.29359
-0.283517
-0.274126
-0.265368
-0.257125
-0.249471
-0.472261
-0.459851
-0.449357
-0.438745
-0.426837
-0.413612
-0.399289
-0.384233
-0.368895
-0.353698
-0.338975
-0.324948
-0.311738
-0.299391
-0.2879
-0.277226
-0.267314
-0.258093
-0.249424
-0.241423
-0.483707
-0.470601
-0.459381
-0.447668
-0.434201
-0.41909
-0.40275
-0.38573
-0.368603
-0.351852
-0.33582
-0.320705
-0.306597
-0.293504
-0.281388
-0.270182
-0.259814
-0.250192
-0.241154
-0.232868
-0.494286
-0.480569
-0.468583
-0.455618
-0.440398
-0.423233
-0.404778
-0.38577
-0.366894
-0.348669
-0.331424
-0.315324
-0.300414
-0.286665
-0.274005
-0.262343
-0.251588
-0.241629
-0.232282
-0.223778
-0.503645
-0.489408
-0.476606
-0.462236
-0.445091
-0.425748
-0.405133
-0.38417
-0.363629
-0.344042
-0.325704
-0.308734
-0.293129
-0.278819
-0.265701
-0.253662
-0.242593
-0.232364
-0.222772
-0.21412
-0.511412
-0.49675
-0.483078
-0.467157
-0.447947
-0.426357
-0.403599
-0.380766
-0.358686
-0.337875
-0.318582
-0.300867
-0.28468
-0.269911
-0.256427
-0.244094
-0.232789
-0.22236
-0.21259
-0.203861
-0.517209
-0.502221
-0.487623
-0.470024
-0.448658
-0.424813
-0.399988
-0.375417
-0.351956
-0.330083
-0.309984
-0.291661
-0.275012
-0.259891
-0.246137
-0.233598
-0.222137
-0.211582
-0.201706
-0.192973
-0.520665
-0.505448
-0.489874
-0.470501
-0.446941
-0.420896
-0.394135
-0.368003
-0.343347
-0.32059
-0.299847
-0.281057
-0.264072
-0.24871
-0.234787
-0.222134
-0.210603
-0.199999
-0.190091
-0.181429
-0.521423
-0.506072
-0.489484
-0.468281
-0.44255
-0.414422
-0.385909
-0.358424
-0.332783
-0.309332
-0.288114
-0.269007
-0.251816
-0.23633
-0.222343
-0.209672
-0.198158
-0.187588
-0.177725
-0.169212
-0.51915
-0.50376
-0.486138
-0.463098
-0.43528
-0.405244
-0.375205
-0.346606
-0.320203
-0.29626
-0.274742
-0.255469
-0.238208
-0.222718
-0.208776
-0.196188
-0.184784
-0.17433
-0.164595
-0.156308
-0.513555
-0.498216
-0.479564
-0.454731
-0.424973
-0.393255
-0.36195
-0.332494
-0.305565
-0.281335
-0.259696
-0.240414
-0.22322
-0.207851
-0.194067
-0.181666
-0.170466
-0.160218
-0.150695
-0.142714
-0.504386
-0.489191
-0.469543
-0.443013
-0.411515
-0.378384
-0.3461
-0.316059
-0.288844
-0.264537
-0.242957
-0.223825
-0.206838
-0.191716
-0.178206
-0.166098
-0.155202
-0.14525
-0.136027
-0.12843
-0.49145
-0.476488
-0.455907
-0.42783
-0.394843
-0.3606
-0.327641
-0.297293
-0.270036
-0.245859
-0.224519
-0.205694
-0.189057
-0.17431
-0.161193
-0.149488
-0.138996
-0.129437
-0.120606
-0.113471
-0.474607
-0.45997
-0.438555
-0.409126
-0.374939
-0.33991
-0.30659
-0.276213
-0.249152
-0.225311
-0.204389
-0.186029
-0.169883
-0.155641
-0.143036
-0.131846
-0.121864
-0.112796
-0.104454
-0.0978616
-0.453784
-0.439563
-0.417442
-0.386901
-0.351832
-0.316356
-0.28299
-0.25286
-0.226229
-0.202923
-0.182592
-0.164849
-0.149333
-0.135725
-0.123752
-0.113191
-0.103827
-0.0953559
-0.0876048
-0.0816442
-0.42897
-0.415261
-0.392592
-0.361208
-0.325598
-0.290018
-0.256916
-0.227297
-0.20132
-0.178739
-0.159163
-0.142185
-0.127434
-0.114584
-0.103362
-0.0935432
-0.0849069
-0.0771433
-0.0700966
-0.0648631
-0.400222
-0.387119
-0.364086
-0.332156
-0.296355
-0.261011
-0.228472
-0.199616
-0.174502
-0.152822
-0.134156
-0.118081
-0.10422
-0.0922474
-0.0818907
-0.0729245
-0.0651257
-0.0581847
-0.0519619
-0.0475418
-0.36766
-0.35526
-0.332065
-0.299901
-0.264261
-0.229484
-0.197791
-0.16993
-0.145871
-0.125255
-0.107637
-0.0925883
-0.0797325
-0.0687469
-0.0593619
-0.0513549
-0.0445035
-0.0385055
-0.0332245
-0.0296707
-0.331465
-0.319865
-0.296726
-0.26465
-0.229514
-0.195617
-0.165032
-0.13838
-0.115548
-0.0961378
-0.0796895
-0.0657742
-0.0540203
-0.044114
-0.0357944
-0.0288452
-0.0230512
-0.0181203
-0.0138945
-0.0112496
-0.291877
-0.281174
-0.258317
-0.226648
-0.192349
-0.159625
-0.130386
-0.105133
-0.0836793
-0.0655965
-0.0504177
-0.0377195
-0.0271419
-0.0183854
-0.0112045
-0.00539551
-0.000755983
0.00298939
0.00602129
0.00758717
-0.249189
-0.239476
-0.217131
-0.186182
-0.153033
-0.121749
-0.0940719
-0.0703826
-0.0504358
-0.0337789
-0.0199455
-0.00852375
0.000828848
0.00838931
0.0143799
0.0189878
0.0223987
0.0248314
0.0264004
0.0264324
-0.203741
-0.195106
-0.173499
-0.143571
-0.111862
-0.0822614
-0.0563344
-0.034352
-0.0160159
-0.000857972
0.0115834
0.0217038
0.0298214
0.0361797
0.0409664
0.0443471
0.0464661
0.047363
0.0469187
0.0448408
-0.155912
-0.148438
-0.12779
-0.0991642
-0.0691606
-0.0414592
-0.0174476
0.00270674
0.0193485
0.0329583
0.0439931
0.0528346
0.0597773
0.0650299
0.0687425
0.071049
0.0719771
0.0711633
0.0681297
0.0639012
-0.106114
-0.0998765
-0.0803942
-0.0533315
-0.0252718
0.000338686
0.02229
0.04051
0.0553844
0.0674055
0.0770307
0.0846394
0.090523
0.0948888
0.0978997
0.0997074
0.100212
0.0985496
0.094011
0.089441
-0.0547869
-0.0498507
-0.0317252
-0.00646005
0.0194457
0.042799
0.0625632
0.0787531
0.0917876
0.102168
0.110352
0.116722
0.121585
0.125186
0.127774
0.129627
0.130717
0.130046
0.127356
0.131032
-0.00237722
0.00119942
0.0177948
0.0410554
0.0646268
0.0855822
0.103052
0.117127
0.128252
0.13693
0.143611
0.148672
0.152418
0.155106
0.157001
0.158368
0.159192
0.158995
0.158687
0.164534
0.0506486
0.05282
0.0677351
0.0888159
0.109905
0.12835
0.143439
0.155331
0.164487
0.171406
0.176529
0.180222
0.182784
0.184471
0.185535
0.186198
0.186442
0.185968
0.185699
0.190417
0.103823
0.104556
0.117666
0.136426
0.154918
0.170769
0.183416
0.193073
0.200213
0.205323
0.208829
0.211081
0.212365
0.212923
0.212988
0.212758
0.212227
0.211169
0.210342
0.21354
0.156679
0.155955
0.167163
0.183495
0.199313
0.212519
0.222688
0.230083
0.235178
0.238449
0.2403
0.241063
0.241003
0.240344
0.239292
0.238017
0.2365
0.234542
0.232841
0.234625
0.20876
0.206572
0.21581
0.229648
0.24275
0.25329
0.260974
0.266103
0.269149
0.27057
0.27075
0.269996
0.268556
0.266632
0.264407
0.262024
0.259448
0.256504
0.253853
0.254283
0.259619
0.255976
0.263206
0.274518
0.284899
0.292788
0.298009
0.300894
0.30191
0.301495
0.300009
0.297739
0.29491
0.291704
0.288284
0.284766
0.281108
0.27716
0.273555
0.272706
0.308823
0.303751
0.308965
0.317757
0.325448
0.330733
0.33354
0.334229
0.333258
0.331044
0.327923
0.324161
0.319962
0.31549
0.310887
0.306249
0.301529
0.296604
0.292071
0.290006
0.355962
0.349499
0.35272
0.359034
0.364101
0.366858
0.36733
0.365897
0.363005
0.35905
0.354347
0.349139
0.343611
0.337909
0.332158
0.326438
0.320698
0.314842
0.309421
0.306204
0.400642
0.392842
0.394123
0.398036
0.400579
0.400914
0.399155
0.395695
0.39097
0.385354
0.37914
0.37255
0.365753
0.358878
0.352034
0.345284
0.338583
0.331853
0.325591
0.321287
0.442498
0.43343
0.432849
0.434472
0.434619
0.432667
0.428803
0.423436
0.416985
0.409805
0.402168
0.394278
0.386287
0.378309
0.370438
0.362726
0.355131
0.347591
0.34054
0.335218
0.481188
0.470934
0.468598
0.468071
0.465981
0.461899
0.456081
0.448942
0.44089
0.432259
0.423303
0.414208
0.40511
0.396112
0.387291
0.378693
0.370277
0.361995
0.354216
0.347949
0.516399
0.505055
0.501095
0.498584
0.494442
0.488411
0.480807
0.472051
0.462538
0.452584
0.442425
0.432231
0.422126
0.412198
0.402515
0.393111
0.383954
0.375003
0.366558
0.359428
0.547848
0.535522
0.53009
0.525789
0.5198
0.512021
0.502818
0.492615
0.481794
0.470657
0.459421
0.448245
0.43724
0.426482
0.416029
0.405909
0.396094
0.38655
0.377509
0.369602
0.575284
0.562094
0.555362
0.549486
0.541878
0.532568
0.521966
0.510498
0.498536
0.486365
0.47419
0.462157
0.450366
0.438886
0.427763
0.417019
0.406633
0.396573
0.38701
0.378422
0.598487
0.584562
0.576721
0.569503
0.560519
0.549911
0.538124
0.525586
0.512657
0.499611
0.486642
0.473884
0.461429
0.449337
0.437648
0.426379
0.415512
0.405018
0.395012
0.385844
0.617275
0.602751
0.594005
0.585694
0.575591
0.563931
0.551184
0.537778
0.524066
0.510312
0.496699
0.483355
0.470362
0.457776
0.445628
0.433934
0.422679
0.411835
0.401468
0.391829
0.631497
0.616519
0.607083
0.597941
0.58699
0.574532
0.561057
0.546994
0.53269
0.518399
0.504299
0.49051
0.477111
0.46415
0.451656
0.439641
0.428093
0.416984
0.406343
0.396346
0.641042
0.625757
0.615857
0.606156
0.594635
0.581641
0.567677
0.553173
0.53847
0.523819
0.509392
0.495306
0.481634
0.468422
0.455696
0.443465
0.43172
0.420434
0.409609
0.39937
0.645835
0.630396
0.620262
0.61028
0.598472
0.585208
0.570999
0.556273
0.541371
0.526539
0.511948
0.497711
0.483903
0.470565
0.457722
0.445383
0.43354
0.422165
0.411247
0.400886
0.645837
0.630398
0.620264
0.610281
0.598473
0.585209
0.571
0.556274
0.541371
0.52654
0.511949
0.497712
0.483903
0.470565
0.457722
0.445383
0.43354
0.422165
0.411247
0.400887
0.641048
0.625763
0.615863
0.606161
0.59464
0.581645
0.567681
0.553176
0.538473
0.523822
0.509395
0.495308
0.481636
0.468424
0.455697
0.443466
0.431722
0.420435
0.40961
0.399371
0.631507
0.616528
0.607092
0.597949
0.586998
0.574539
0.561063
0.546999
0.532694
0.518403
0.504303
0.490514
0.477114
0.464153
0.451659
0.439643
0.428095
0.416986
0.406345
0.396347
0.617289
0.602765
0.594017
0.585705
0.575602
0.563941
0.551192
0.537785
0.524073
0.510318
0.496705
0.48336
0.470367
0.45778
0.445632
0.433937
0.422682
0.411838
0.40147
0.391831
0.598505
0.584579
0.576737
0.569518
0.560532
0.549923
0.538135
0.525595
0.512666
0.499619
0.486649
0.47389
0.461435
0.449342
0.437652
0.426383
0.415515
0.405021
0.395014
0.385846
0.575305
0.562114
0.555381
0.549504
0.541893
0.532582
0.521979
0.51051
0.498546
0.486374
0.474198
0.462165
0.450373
0.438891
0.427768
0.417024
0.406637
0.396577
0.387013
0.378425
0.547873
0.535546
0.530112
0.525809
0.519819
0.512037
0.502832
0.492628
0.481806
0.470667
0.45943
0.448254
0.437247
0.426489
0.416035
0.405915
0.396099
0.386554
0.377512
0.369605
0.516427
0.505082
0.50112
0.498607
0.494462
0.488429
0.480824
0.472066
0.462551
0.452596
0.442435
0.43224
0.422134
0.412205
0.402521
0.393117
0.383959
0.375008
0.366562
0.359431
0.481219
0.470964
0.468626
0.468096
0.466004
0.461919
0.456099
0.448958
0.440904
0.432272
0.423314
0.414218
0.405119
0.39612
0.387299
0.378699
0.370282
0.362
0.35422
0.347953
0.442531
0.433462
0.432879
0.434499
0.434644
0.432688
0.428823
0.423453
0.417
0.409818
0.40218
0.394289
0.386296
0.378317
0.370445
0.362733
0.355137
0.347596
0.340545
0.335222
0.400677
0.392876
0.394154
0.398065
0.400604
0.400937
0.399175
0.395713
0.390986
0.385368
0.379152
0.372561
0.365763
0.358887
0.352041
0.345291
0.338589
0.331859
0.325596
0.321291
0.355998
0.349534
0.352753
0.359064
0.364128
0.366882
0.367352
0.365916
0.363022
0.359065
0.35436
0.34915
0.343621
0.337918
0.332166
0.326445
0.320704
0.314847
0.309425
0.306208
0.308861
0.303787
0.308999
0.317788
0.325476
0.330757
0.333562
0.334249
0.333276
0.331059
0.327937
0.324173
0.319973
0.315499
0.310895
0.306256
0.301535
0.296609
0.292075
0.29001
0.259657
0.256013
0.263241
0.274549
0.284927
0.292814
0.298031
0.300913
0.301927
0.30151
0.300023
0.297751
0.29492
0.291713
0.288292
0.284773
0.281114
0.277165
0.27356
0.27271
0.208799
0.206609
0.215845
0.229679
0.242778
0.253316
0.260997
0.266123
0.269167
0.270586
0.270763
0.270008
0.268566
0.266641
0.264415
0.26203
0.259454
0.256509
0.253857
0.254286
0.156717
0.155991
0.167197
0.183527
0.199342
0.212544
0.22271
0.230102
0.235195
0.238464
0.240313
0.241074
0.241013
0.240352
0.239299
0.238023
0.236505
0.234546
0.232844
0.234628
0.10386
0.104591
0.117699
0.136456
0.154946
0.170794
0.183438
0.193092
0.200229
0.205337
0.208842
0.211092
0.212374
0.212931
0.212994
0.212763
0.212231
0.211172
0.210344
0.213542
0.0506843
0.0528541
0.0677673
0.0888455
0.109931
0.128373
0.14346
0.155349
0.164503
0.171419
0.17654
0.180232
0.182792
0.184478
0.185541
0.186203
0.186445
0.185971
0.185701
0.190418
-0.00234356
0.00123156
0.0178252
0.0410834
0.0646519
0.0856044
0.103071
0.117144
0.128267
0.136942
0.143621
0.148681
0.152425
0.155112
0.157006
0.158371
0.159194
0.158997
0.158687
0.164534
-0.0547558
-0.0498211
-0.0316971
-0.00643416
0.0194689
0.0428195
0.0625811
0.0787685
0.0918008
0.102179
0.110361
0.11673
0.121591
0.125191
0.127777
0.12963
0.130718
0.130047
0.127355
0.131031
-0.106087
-0.0998499
-0.0803689
-0.0533082
-0.0252509
0.000357103
0.0223059
0.0405236
0.0553959
0.0674151
0.0770386
0.0846458
0.090528
0.0948925
0.0979022
0.0997088
0.100212
0.098549
0.0940096
0.089439
-0.155888
-0.148415
-0.127768
-0.0991438
-0.0691423
-0.0414433
-0.0174339
0.00271824
0.019358
0.0329661
0.0439993
0.0528393
0.0597807
0.0650321
0.0687436
0.0710491
0.0719763
0.0711617
0.0681274
0.0638983
-0.203721
-0.195087
-0.173481
-0.143554
-0.111847
-0.0822482
-0.0563233
-0.0343429
-0.0160086
-0.000852326
0.0115875
0.0217066
0.029823
0.0361802
0.040966
0.0443458
0.046464
0.0473602
0.0469153
0.0448369
-0.249174
-0.239461
-0.217117
-0.186169
-0.153021
-0.121739
-0.0940637
-0.0703762
-0.050431
-0.0337756
-0.0199435
-0.00852298
0.000828533
0.00838802
0.0143777
0.0189849
0.0223951
0.0248272
0.0263957
0.0264272
-0.291866
-0.281164
-0.258308
-0.226639
-0.192341
-0.159618
-0.130381
-0.105129
-0.0836772
-0.0655957
-0.0504181
-0.037721
-0.0271443
-0.0183887
-0.0112085
-0.00540021
-0.000761283
0.00298358
0.00601505
0.00758048
-0.33146
-0.319861
-0.296722
-0.264646
-0.229511
-0.195615
-0.165031
-0.138379
-0.115549
-0.0961398
-0.0796925
-0.0657781
-0.054025
-0.0441194
-0.0358004
-0.0288518
-0.0230583
-0.0181278
-0.0139024
-0.0112579
-0.367661
-0.355262
-0.332066
-0.299902
-0.264262
-0.229485
-0.197793
-0.169933
-0.145875
-0.125259
-0.107642
-0.0925948
-0.0797396
-0.0687545
-0.0593701
-0.0513635
-0.0445125
-0.0385148
-0.0332341
-0.0296806
-0.400229
-0.387127
-0.364093
-0.332162
-0.29636
-0.261017
-0.228479
-0.199623
-0.174509
-0.15283
-0.134164
-0.11809
-0.104229
-0.0922575
-0.0819012
-0.0729353
-0.0651367
-0.0581959
-0.0519733
-0.0475535
-0.428984
-0.415275
-0.392605
-0.36122
-0.325609
-0.290029
-0.256927
-0.227308
-0.201331
-0.17875
-0.159175
-0.142197
-0.127446
-0.114597
-0.103375
-0.0935562
-0.0849201
-0.0771566
-0.07011
-0.0648766
-0.453804
-0.439584
-0.417462
-0.386918
-0.351848
-0.316371
-0.283005
-0.252874
-0.226244
-0.202938
-0.182607
-0.164864
-0.149348
-0.13574
-0.123767
-0.113206
-0.103842
-0.0953713
-0.0876201
-0.0816596
-0.474634
-0.459997
-0.43858
-0.40915
-0.37496
-0.33993
-0.306609
-0.276232
-0.249171
-0.22533
-0.204408
-0.186047
-0.169901
-0.155659
-0.143054
-0.131864
-0.121882
-0.112814
-0.104471
-0.097879
-0.491483
-0.476522
-0.45594
-0.42786
-0.39487
-0.360626
-0.327666
-0.297316
-0.270058
-0.245881
-0.224541
-0.205715
-0.189078
-0.174331
-0.161213
-0.149508
-0.139016
-0.129456
-0.120625
-0.11349
-0.504426
-0.489231
-0.469581
-0.443049
-0.411548
-0.378415
-0.346129
-0.316087
-0.288871
-0.264563
-0.242982
-0.223849
-0.206862
-0.191739
-0.178229
-0.166121
-0.155224
-0.145272
-0.136049
-0.128452
-0.513601
-0.498263
-0.479609
-0.454773
-0.425012
-0.393291
-0.361984
-0.332526
-0.305596
-0.281365
-0.259725
-0.240442
-0.223247
-0.207877
-0.194092
-0.181691
-0.170491
-0.160242
-0.150718
-0.142737
-0.519203
-0.503813
-0.486189
-0.463146
-0.435325
-0.405286
-0.375244
-0.346643
-0.320238
-0.296293
-0.274774
-0.2555
-0.238238
-0.222747
-0.208804
-0.196216
-0.184811
-0.174357
-0.164621
-0.156334
-0.521481
-0.50613
-0.489541
-0.468335
-0.4426
-0.414469
-0.385953
-0.358465
-0.332822
-0.30937
-0.28815
-0.269041
-0.251849
-0.236362
-0.222374
-0.209703
-0.198188
-0.187617
-0.177753
-0.169239
-0.52073
-0.505512
-0.489937
-0.470561
-0.446997
-0.420948
-0.394184
-0.368048
-0.343391
-0.320631
-0.299886
-0.281095
-0.264109
-0.248745
-0.234821
-0.222167
-0.210635
-0.200031
-0.190121
-0.181459
-0.517279
-0.50229
-0.487691
-0.470089
-0.448719
-0.42487
-0.400041
-0.375468
-0.352004
-0.330128
-0.310027
-0.291702
-0.275051
-0.259929
-0.246173
-0.233633
-0.222172
-0.211616
-0.201738
-0.193004
-0.511486
-0.496824
-0.48315
-0.467227
-0.448013
-0.426419
-0.403658
-0.380821
-0.358738
-0.337924
-0.318628
-0.300912
-0.284723
-0.269952
-0.256467
-0.244132
-0.232826
-0.222396
-0.212625
-0.203895
-0.503723
-0.489485
-0.476683
-0.46231
-0.445161
-0.425814
-0.405195
-0.384229
-0.363685
-0.344094
-0.325754
-0.308782
-0.293175
-0.278863
-0.265743
-0.253703
-0.242633
-0.232402
-0.222809
-0.214155
-0.494368
-0.48065
-0.468663
-0.455696
-0.440473
-0.423304
-0.404844
-0.385833
-0.366953
-0.348725
-0.331478
-0.315375
-0.300463
-0.286712
-0.27405
-0.262386
-0.25163
-0.241669
-0.23232
-0.223815
-0.483792
-0.470686
-0.459464
-0.44775
-0.434279
-0.419164
-0.402821
-0.385797
-0.368666
-0.351912
-0.335877
-0.32076
-0.306649
-0.293554
-0.281436
-0.270228
-0.259858
-0.250235
-0.241195
-0.232907
-0.472348
-0.459938
-0.449443
-0.438829
-0.426918
-0.41369
-0.399363
-0.384304
-0.368962
-0.353761
-0.339035
-0.325005
-0.311793
-0.299444
-0.287951
-0.277274
-0.26736
-0.258138
-0.249467
-0.241464
-0.460365
-0.448726
-0.438926
-0.429274
-0.418724
-0.407185
-0.394726
-0.381555
-0.367994
-0.354389
-0.341043
-0.328183
-0.315955
-0.304434
-0.293643
-0.283568
-0.274175
-0.265415
-0.25717
-0.249514
-0.448139
-0.437331
-0.428207
-0.419397
-0.410015
-0.399951
-0.389176
-0.37777
-0.365931
-0.353921
-0.341996
-0.330369
-0.319196
-0.308576
-0.298557
-0.289149
-0.280339
-0.272098
-0.264332
-0.257083
-0.435929
-0.425998
-0.417538
-0.40947
-0.401082
-0.392278
-0.382981
-0.373175
-0.362957
-0.352498
-0.341996
-0.331637
-0.321574
-0.311916
-0.302731
-0.294051
-0.285882
-0.278212
-0.270975
-0.264187
-0.423952
-0.414928
-0.407124
-0.399723
-0.392178
-0.384434
-0.376399
-0.368004
-0.359264
-0.350269
-0.341155
-0.332069
-0.323147
-0.314497
-0.306199
-0.298301
-0.290825
-0.283777
-0.277113
-0.270832
-0.412386
-0.404279
-0.397128
-0.390336
-0.383512
-0.37665
-0.369672
-0.362486
-0.355052
-0.347398
-0.339598
-0.331754
-0.323976
-0.31636
-0.308989
-0.301917
-0.295182
-0.288802
-0.282752
-0.277017
-0.401368
-0.39417
-0.387667
-0.381445
-0.375247
-0.369119
-0.363011
-0.356833
-0.350521
-0.344054
-0.337458
-0.330791
-0.324128
-0.317549
-0.311125
-0.304915
-0.298961
-0.293289
-0.287891
-0.282732
-0.390996
-0.384683
-0.37882
-0.37314
-0.367499
-0.361986
-0.35659
-0.351238
-0.345859
-0.34041
-0.33488
-0.329289
-0.32368
-0.31811
-0.312635
-0.307306
-0.302163
-0.297237
-0.292529
-0.28797
-0.381336
-0.37587
-0.370631
-0.365472
-0.360339
-0.355355
-0.350543
-0.345857
-0.341237
-0.336632
-0.332012
-0.327369
-0.322722
-0.318102
-0.313549
-0.309101
-0.304791
-0.300643
-0.296666
-0.292735
-0.372422
-0.367752
-0.363117
-0.358462
-0.353802
-0.349286
-0.344962
-0.340814
-0.3368
-0.332874
-0.329001
-0.325162
-0.321355
-0.317596
-0.313909
-0.310319
-0.306848
-0.303509
-0.300313
-0.297056
-0.364265
-0.360331
-0.356272
-0.352104
-0.347894
-0.343801
-0.339897
-0.336189
-0.332657
-0.329266
-0.325986
-0.322796
-0.319689
-0.316673
-0.313765
-0.310983
-0.308339
-0.305834
-0.303483
-0.300994
-0.356853
-0.353588
-0.350073
-0.346373
-0.342593
-0.338895
-0.335365
-0.33203
-0.328883
-0.325909
-0.323084
-0.320394
-0.317838
-0.315426
-0.313179
-0.311119
-0.309264
-0.30761
-0.306177
-0.304626
-0.350159
-0.347494
-0.344484
-0.341232
-0.337864
-0.334542
-0.331356
-0.328346
-0.325519
-0.32287
-0.320386
-0.318065
-0.315911
-0.313949
-0.312214
-0.310753
-0.309607
-0.308793
-0.308352
-0.308024
-0.344143
-0.342008
-0.339462
-0.336632
-0.333659
-0.330697
-0.327837
-0.325123
-0.322572
-0.320184
-0.317956
-0.315891
-0.314003
-0.312332
-0.310938
-0.309904
-0.309323
-0.309277
-0.309853
-0.311124
-0.338753
-0.337081
-0.334957
-0.332522
-0.329925
-0.327308
-0.324758
-0.322323
-0.320021
-0.317855
-0.315823
-0.313929
-0.312193
-0.310661
-0.309416
-0.308585
-0.308338
-0.30887
-0.310393
-0.313729
-0.333934
-0.332661
-0.330915
-0.328846
-0.326602
-0.324314
-0.322063
-0.319894
-0.317825
-0.315857
-0.313986
-0.312207
-0.310535
-0.30901
-0.30772
-0.306822
-0.306561
-0.307271
-0.30943
-0.315131
-0.329626
-0.328695
-0.327286
-0.32555
-0.323634
-0.321655
-0.319687
-0.317773
-0.315927
-0.314145
-0.312415
-0.310722
-0.30906
-0.307446
-0.305944
-0.304693
-0.303961
-0.304175
-0.30627
-0.314391
-0.325771
-0.32513
-0.324017
-0.322582
-0.320965
-0.319272
-0.31757
-0.315895
-0.31426
-0.312655
-0.311058
-0.30944
-0.307767
-0.306016
-0.304185
-0.302332
-0.300616
-0.299315
-0.299586
-0.307901
-0.322312
-0.321918
-0.321063
-0.319894
-0.318547
-0.317113
-0.315653
-0.3142
-0.312759
-0.31132
-0.309852
-0.308308
-0.30663
-0.304736
-0.302525
-0.299865
-0.296571
-0.29211
-0.285051
-0.27668
-0.319199
-0.319013
-0.318381
-0.317446
-0.316337
-0.315135
-0.313892
-0.312637
-0.311374
-0.310088
-0.308746
-0.307298
-0.305671
-0.303769
-0.301463
-0.298591
-0.294968
-0.290167
-0.283147
-0.275831
-0.316387
-0.316375
-0.315935
-0.315205
-0.314305
-0.313306
-0.312254
-0.311174
-0.310068
-0.308922
-0.307704
-0.306366
-0.304845
-0.303055
-0.300894
-0.298252
-0.295032
-0.290976
-0.285485
-0.280798
-0.313836
-0.313972
-0.313696
-0.313142
-0.312425
-0.311604
-0.31072
-0.309793
-0.308826
-0.307806
-0.306704
-0.305481
-0.304083
-0.302447
-0.300501
-0.298183
-0.295456
-0.292144
-0.287915
-0.285088
-0.311512
-0.311773
-0.311638
-0.311238
-0.31068
-0.310016
-0.309281
-0.308491
-0.30765
-0.306746
-0.305757
-0.304649
-0.303386
-0.301921
-0.300214
-0.298243
-0.296019
-0.293431
-0.290317
-0.288843
-0.309388
-0.309756
-0.309743
-0.309477
-0.30906
-0.308536
-0.307935
-0.307272
-0.30655
-0.305761
-0.304886
-0.303904
-0.302788
-0.301513
-0.300063
-0.29845
-0.296715
-0.294795
-0.292615
-0.292099
-0.307439
-0.3079
-0.307994
-0.307846
-0.307555
-0.307159
-0.306682
-0.306141
-0.305538
-0.304867
-0.304116
-0.303271
-0.302319
-0.301249
-0.300064
-0.298798
-0.297509
-0.296154
-0.294686
-0.294805
-0.305645
-0.306189
-0.306377
-0.306335
-0.306159
-0.30588
-0.305523
-0.305101
-0.304617
-0.304071
-0.303454
-0.302759
-0.301983
-0.301127
-0.300205
-0.299262
-0.298359
-0.297459
-0.296504
-0.297025
-0.303988
-0.304609
-0.304883
-0.304936
-0.304865
-0.304697
-0.304453
-0.304148
-0.303786
-0.303368
-0.302891
-0.302355
-0.301761
-0.301117
-0.300445
-0.29979
-0.299214
-0.298666
-0.298076
-0.298848
-0.302454
-0.30315
-0.303502
-0.303643
-0.303668
-0.303603
-0.303467
-0.303275
-0.303033
-0.302744
-0.302409
-0.302031
-0.301615
-0.301173
-0.300728
-0.300325
-0.300016
-0.29974
-0.299407
-0.300345
-0.301035
-0.301805
-0.30223
-0.302451
-0.302564
-0.302593
-0.302559
-0.302474
-0.302348
-0.302183
-0.301984
-0.301755
-0.301505
-0.301247
-0.301002
-0.300812
-0.30072
-0.300651
-0.300509
-0.301563
-0.299726