/*--------------------------------*- C++ -*----------------------------------*\
  =========                 |
  \\      /  F ield         | OpenFOAM: The Open Source CFD Toolbox
   \\    /   O peration     | Website:  https://openfoam.org
    \\  /    A nd           | Version:  6.0
     \\/     M anipulation  |
\*---------------------------------------------------------------------------*/
FoamFile
{
    version     2.0;
    format      ascii;
    class       surfaceScalarField;
    location    "0.4";
    object      phi;
}
// * * * * * * * * * * * * * * * * * * * * * * * * * * * * * * * * * * * * * //

dimensions      [0 3 -1 0 0 0 0];

internalField   nonuniform List<scalar> 
15760
(
-1.17688e-05
1.1762e-05
6.81228e-09
-1.85515e-05
6.7656e-06
1.71372e-08
-3.8063e-06
-1.4774e-05
2.87496e-08
4.02183e-05
-4.40654e-05
4.07847e-08
0.000115045
-7.48782e-05
5.11744e-08
0.000218181
-0.000103194
5.88424e-08
0.000344957
-0.000126839
6.30351e-08
0.00048992
-0.000145027
6.37379e-08
0.000647757
-0.000157898
6.13427e-08
0.00081381
-0.00016611
5.65078e-08
0.000984303
-0.000170543
5.01449e-08
0.00115636
-0.0001721
4.31888e-08
0.00132792
-0.000171593
3.6415e-08
0.00149758
-0.000169699
3.03685e-08
0.0016645
-0.00016694
2.53822e-08
0.00182818
-0.000163705
2.16141e-08
0.00198843
-0.000160262
1.9089e-08
0.0021452
-0.000156791
1.77615e-08
0.00229859
-0.000153405
1.74801e-08
-0.000150151
1.74926e-08
0.00244872
-1.14755e-05
2.32375e-05
-1.76771e-05
1.29672e-05
-2.23579e-06
-3.02153e-05
4.24899e-05
-8.87911e-05
0.000117947
-0.000150335
0.000221586
-0.000206834
0.000348705
-0.000253957
0.000493833
-0.000290155
0.000651657
-0.000315722
0.000817537
-0.00033199
0.000987722
-0.000340728
0.00115937
-0.000343746
0.00133044
-0.00034267
0.00149959
-0.000338848
0.00166598
-0.000333322
0.00182913
-0.000326861
0.00198887
-0.00032
0.00214517
-0.000313093
0.00229813
-0.000306359
-0.000299898
0.00244787
-1.08874e-05
3.41248e-05
-1.59289e-05
1.80087e-05
9.00834e-07
-4.7045e-05
4.70224e-05
-0.000134913
0.000123728
-0.00022704
0.000228358
-0.000311464
0.000356138
-0.000381738
0.000501569
-0.000435586
0.00065934
-0.000473494
0.000824848
-0.000497498
0.000994397
-0.000510277
0.00116521
-0.000514556
0.00133531
-0.000512777
0.00150342
-0.000506953
0.00166873
-0.000498637
0.00183084
-0.000488968
0.00198958
-0.000478735
0.00214494
-0.000468458
0.00229704
-0.000458456
-0.000448884
0.00244602
-1.00174e-05
4.41422e-05
-1.3338e-05
2.13293e-05
5.55112e-06
-6.59341e-05
5.37397e-05
-0.000183101
0.000132286
-0.000305587
0.000238366
-0.000417543
0.0003671
-0.000510472
0.000512944
-0.00058143
0.000670601
-0.00063115
0.00083552
-0.000662417
0.00100409
-0.000678847
0.00117363
-0.000684097
0.00134228
-0.000681423
0.00150882
-0.000673493
0.00167254
-0.000662358
0.00183308
-0.000649509
0.00199032
-0.000635975
0.00214429
-0.000622428
0.00229511
-0.000609277
-0.000596735
0.00244296
-8.8831e-06
5.30253e-05
-9.95177e-06
2.2398e-05
1.16355e-05
-8.75213e-05
6.25277e-05
-0.000233993
0.00014347
-0.000386529
0.000251416
-0.00052549
0.000381351
-0.000640407
0.000527674
-0.000727753
0.00068511
-0.000788586
0.000849188
-0.000826496
0.00101641
-0.000846073
0.00118424
-0.000851921
0.00135092
-0.000848108
0.00151538
-0.000837945
0.00167698
-0.00082396
0.00183544
-0.000807975
0.00199071
-0.000791238
0.00214283
-0.000774555
0.00229197
-0.000758414
-0.00074309
0.00243833
-7.50589e-06
6.05312e-05
-5.82944e-06
2.07215e-05
1.90492e-05
-0.0001124
7.32305e-05
-0.000288175
0.000157066
-0.000470364
0.000267232
-0.000635656
0.000398547
-0.000771722
0.000545353
-0.00087456
0.000702411
-0.000945644
0.000865357
-0.000989441
0.00103084
-0.00101156
0.00119649
-0.00101757
0.00136071
-0.00101233
0.00152256
-0.000999795
0.00168154
-0.000982931
0.00183743
-0.00096387
0.00199025
-0.000944053
0.00214009
-0.000924401
0.00228714
-0.000905467
-0.000887591
0.00243164
-5.91401e-06
6.64452e-05
-1.04863e-06
1.58561e-05
2.76554e-05
-0.000141104
8.56447e-05
-0.000346164
0.000172797
-0.000557517
0.000285459
-0.000748318
0.00041826
-0.000904522
0.000565484
-0.00102178
0.000721949
-0.00110211
0.000883428
-0.00115092
0.00104676
-0.00117489
0.00120976
-0.00118056
0.00137103
-0.0011736
0.00152977
-0.00115854
0.00168562
-0.00113878
0.00183846
-0.00111672
0.00198837
-0.00109396
0.00213551
-0.00107154
0.00228008
-0.00105004
-0.00102987
0.00242236
-4.13945e-06
7.05847e-05
4.30064e-06
7.41603e-06
3.72933e-05
-0.000174097
9.95295e-05
-0.0004084
0.000190336
-0.000648323
0.000305681
-0.000863664
0.000439986
-0.00103883
0.000587488
-0.00116929
0.000743088
-0.00125771
0.000902732
-0.00131057
0.00106348
-0.00133564
0.00122336
-0.00134044
0.00138118
-0.00133143
0.00153634
-0.0013137
0.00168859
-0.00129102
0.00183792
-0.00126605
0.00198448
-0.00124052
0.00212848
-0.00121553
0.00227016
-0.00119172
-0.00116956
0.00240984
-2.21677e-06
7.28015e-05
1.01191e-05
-4.91986e-06
4.77833e-05
-0.000211761
0.000114615
-0.000475232
0.000209315
-0.000743023
0.000327432
-0.000981781
0.00046317
-0.00117456
0.000610735
-0.00131685
0.000765145
-0.00141212
0.000922555
-0.00146798
0.00108027
-0.00149335
0.00123657
-0.00149675
0.0013905
-0.00148536
0.00154162
-0.00146481
0.00168981
-0.00143922
0.00183519
-0.00141143
0.00197797
-0.0013833
0.0021184
-0.00135596
0.00225676
-0.00133008
-0.00130622
0.00239342
-1.81403e-07
7.29829e-05
1.63029e-05
-2.14042e-05
5.89349e-05
-0.000254393
0.000130611
-0.000546908
0.000229341
-0.000841753
0.000350218
-0.00110266
0.000487228
-0.00131157
0.000634573
-0.0014642
0.000787424
-0.00156497
0.000942181
-0.00162273
0.00109643
-0.0016476
0.00124872
-0.00164904
0.00139832
-0.00163496
0.00154497
-0.00161146
0.00168871
-0.00158295
0.00182973
-0.00155245
0.00196829
-0.00152186
0.00210471
-0.00149238
0.00223929
-0.00146466
-0.00143938
0.00237245
1.93235e-06
7.10505e-05
2.27487e-05
-4.22205e-05
7.05559e-05
-0.0003022
0.000147226
-0.000623579
0.000250017
-0.000944543
0.000373542
-0.00122618
0.000511582
-0.00144961
0.000658364
-0.00161098
0.000809254
-0.00171586
0.000960934
-0.00177441
0.0011113
-0.00179796
0.00125917
-0.00179691
0.00140406
-0.00177985
0.00154588
-0.00175328
0.00168478
-0.00172186
0.00182105
-0.00168871
0.00195499
-0.00165581
0.00208695
-0.00162434
0.00221727
-0.00159498
-0.00156849
0.00234638
4.09312e-06
6.69574e-05
2.9359e-05
-6.74865e-05
8.24618e-05
-0.000355303
0.000164177
-0.000705294
0.00027096
-0.00105133
0.000396932
-0.00135216
0.000535685
-0.00158837
0.000681516
-0.00175681
0.000830023
-0.00186436
0.000978209
-0.0019226
0.00112429
-0.00194404
0.00126739
-0.00194001
0.00140723
-0.00191969
0.0015439
-0.00188995
0.00167765
-0.00185561
0.00180883
-0.00181989
0.00193778
-0.00178476
0.00206484
-0.00175141
0.00219036
-0.0017205
-0.00169297
0.00231484
6.27377e-06
6.06836e-05
3.6046e-05
-9.72587e-05
9.44828e-05
-0.000413739
0.000181201
-0.000792012
0.000291814
-0.00116194
0.000419951
-0.00148029
0.000559045
-0.00172746
0.000703503
-0.00190127
0.000849202
-0.00201006
0.000993496
-0.00206689
0.00113494
-0.00208549
0.00127295
-0.00207802
0.00140748
-0.00205421
0.00153874
-0.00202121
0.00166709
-0.00198397
0.0017929
-0.0019457
0.00191653
-0.00190839
0.00203831
-0.00187318
0.00215856
-0.00184075
-0.00181223
0.00227782
8.45203e-06
5.22316e-05
4.27336e-05
-0.00013154
0.000106469
-0.000477474
0.000198063
-0.000883606
0.000312264
-0.00127614
0.000442215
-0.00161024
0.00058123
-0.00186648
0.000723875
-0.00204391
0.00086635
-0.00215254
0.00100638
-0.00220693
0.00114289
-0.00222199
0.00127557
-0.0022107
0.00140457
-0.00218321
0.00153025
-0.0021469
0.00165303
-0.00210675
0.0017733
-0.00206596
0.00189138
-0.00202647
0.00200757
-0.00198937
0.00212217
-0.00195536
-0.00192582
0.00223577
1.06105e-05
4.16211e-05
4.93585e-05
-0.000170288
0.00011829
-0.000546406
0.000214558
-0.000979874
0.00033203
-0.00139361
0.000463388
-0.0017416
0.000601873
-0.00200496
0.00074226
-0.0021843
0.000881114
-0.00229139
0.00101656
-0.00234237
0.00114788
-0.00235331
0.00127504
-0.00233787
0.0013984
-0.00230657
0.00151842
-0.00226692
0.00163556
-0.00222389
0.0017502
-0.00218061
0.00186265
-0.00213892
0.00197315
-0.00209986
0.00208193
-0.00206414
-0.00203352
0.00218963
1.27359e-05
2.88852e-05
5.58683e-05
-0.000213421
0.000129835
-0.000620373
0.000230508
-0.00108055
0.000350873
-0.00151398
0.000483186
-0.00187391
0.000620666
-0.00214244
0.000758355
-0.00232199
0.000893215
-0.00242625
0.0010238
-0.00247295
0.00114973
-0.00247924
0.00127127
-0.00245941
0.00138893
-0.00242424
0.00150329
-0.00238128
0.00161484
-0.00233543
0.00172394
-0.00228971
0.00183086
-0.00224584
0.00193577
-0.00220477
0.00203886
-0.00216724
-0.00213543
0.00214077
1.48184e-05
1.40668e-05
6.222e-05
-0.000260822
0.00014101
-0.000699163
0.000245759
-0.0011853
0.000368585
-0.0016368
0.000501361
-0.00200669
0.000637349
-0.00227843
0.000771907
-0.00245655
0.000902435
-0.00255678
0.00102791
-0.00259843
0.00114833
-0.00259966
0.0012642
-0.00257528
0.00137621
-0.00253624
0.001485
-0.00249007
0.00159109
-0.00244153
0.00169485
-0.00239348
0.00179651
-0.0023475
0.00189619
-0.00230444
0.00199402
-0.00226507
-0.00223201
0.00209059
1.68502e-05
-2.78345e-06
6.83766e-05
-0.000312349
0.000151732
-0.000782519
0.000260174
-0.00129374
0.000384979
-0.00176161
0.000517698
-0.00213941
0.000651699
-0.00241243
0.00078271
-0.00258756
0.000908595
-0.00268267
0.00102878
-0.00271861
0.00114359
-0.00271448
0.0012538
-0.00268549
0.00136024
-0.00264268
0.00146361
-0.00259344
0.00156448
-0.00254239
0.0016632
-0.00249219
0.00175997
-0.00244427
0.00185491
-0.00239938
0.00194812
-0.00235829
-0.002324
0.00204011
1.88248e-05
-2.16083e-05
7.43054e-05
-0.000367829
0.000161924
-0.000870137
0.000273627
-0.00140544
0.00039989
-0.00188787
0.000532007
-0.00227152
0.000663522
-0.00254394
0.000790582
-0.00271462
0.000911542
-0.00280363
0.00102626
-0.00283333
0.00113543
-0.00282364
0.00124002
-0.00279008
0.001341
-0.00274366
0.00143918
-0.00269161
0.00153511
-0.00263832
0.00162916
-0.00258624
0.00172152
-0.00253663
0.00181225
-0.00249011
0.00190139
-0.00244743
-0.00241224
0.00198964
2.0736e-05
-4.23443e-05
7.99754e-05
-0.000427069
0.000171515
-0.000961677
0.000286003
-0.00151993
0.000413166
-0.00201503
0.000544117
-0.00240248
0.000672647
-0.00267248
0.00079537
-0.00283734
0.000911144
-0.0029194
0.00102027
-0.00294246
0.00112373
-0.00292711
0.00122274
-0.00288908
0.00131838
-0.0028393
0.00141151
-0.00278475
0.00150277
-0.00272959
0.0015926
-0.00267607
0.00168125
-0.00262528
0.00176875
-0.00257761
0.00185471
-0.00253339
-0.00249564
0.00193811
2.25813e-05
-6.49255e-05
8.53649e-05
-0.000489852
0.00018045
-0.00105676
0.000297211
-0.00163669
0.000424689
-0.00214251
0.000553902
-0.00253169
0.000678956
-0.00279753
0.00079697
-0.00295535
0.000907316
-0.00302975
0.00101071
-0.00304584
0.00110843
-0.00302483
0.00120185
-0.0029825
0.00129215
-0.0029296
0.00138025
-0.00287285
0.00146685
-0.00281618
0.00155246
-0.00276168
0.00163755
-0.00271037
0.00172269
-0.00266275
0.00180896
-0.00261966
-0.0025854
0.00189872
2.43474e-05
-8.92729e-05
9.04277e-05
-0.000555933
0.000188639
-0.00115497
0.000307116
-0.00175517
0.000434297
-0.00226969
0.000561192
-0.00265858
0.000682293
-0.00291863
0.000795253
-0.00306831
0.000899954
-0.00313445
0.000997499
-0.00314339
0.00108943
-0.00311676
0.00117725
-0.00307032
0.00126219
-0.00301454
0.00134517
-0.00295584
0.00142685
-0.00289787
0.00150769
-0.00284252
0.00158804
-0.00279072
0.00166826
-0.00274297
0.00174881
-0.00270021
-0.00266604
0.00182945
2.60304e-05
-0.000115303
9.51406e-05
-0.000625043
0.000196028
-0.00125586
0.00031564
-0.00187478
0.000441901
-0.00239595
0.000565906
-0.00278259
0.000682596
-0.00303532
0.000790185
-0.0031759
0.000889052
-0.00323332
0.000980663
-0.003235
0.00106677
-0.00320287
0.00114898
-0.00315253
0.00122855
-0.0030941
0.00130638
-0.00303366
0.00138307
-0.00297456
0.00145902
-0.00291847
0.0015345
-0.0028662
0.00160968
-0.00281815
0.00168458
-0.00277512
-0.00273994
0.00175849
2.76226e-05
-0.000142926
9.94727e-05
-0.000696893
0.000202557
-0.00135895
0.000322699
-0.00199492
0.000447409
-0.00252066
0.000567967
-0.00290315
0.000679819
-0.00314717
0.000781753
-0.00327784
0.000874632
-0.00332619
0.000960246
-0.00332061
0.00104053
-0.00328316
0.00111714
-0.00322915
0.00119135
-0.00316831
0.00126401
-0.00310632
0.00133567
-0.00304622
0.00140668
-0.00298949
0.00147724
-0.00293676
0.00154748
-0.00288838
0.00161738
-0.00284502
-0.00280911
0.00168656
2.91159e-05
-0.000172042
0.000103393
-0.00077117
0.000208169
-0.00146372
0.000328219
-0.00211497
0.000450753
-0.0026432
0.000567328
-0.00301972
0.000673948
-0.00325379
0.000769983
-0.00337387
0.000856752
-0.00341296
0.000936335
-0.0034002
0.0010108
-0.00335763
0.00108186
-0.00330021
0.00115075
-0.00323719
0.00121827
-0.00317384
0.00128494
-0.00311289
0.00135107
-0.00305561
0.00141681
-0.0030025
0.00148226
-0.00295383
0.00154743
-0.00291019
-0.00287361
0.00161193
3.05016e-05
-0.000202543
0.000106872
-0.00084754
0.00021281
-0.00156966
0.000332139
-0.0022343
0.000451883
-0.00276294
0.000563969
-0.00313181
0.000665002
-0.00335482
0.000754932
-0.0034638
0.000835505
-0.00349354
0.000909048
-0.00347374
0.00097774
-0.00342632
0.00104329
-0.00336576
0.00110691
-0.0033008
0.00116935
-0.00323629
0.00123109
-0.00317464
0.0012924
-0.00311691
0.00135342
-0.00306353
0.00141426
-0.00301467
0.00147493
-0.00297086
-0.00293379
0.00153511
3.1771e-05
-0.000234314
0.00010988
-0.00092565
0.000216434
-0.00167621
0.00033441
-0.00235228
0.000450771
-0.0028793
0.000557897
-0.00323893
0.00065303
-0.00344996
0.000736689
-0.00354746
0.00081101
-0.00356786
0.00087853
-0.00354126
0.000941495
-0.00348928
0.0010016
-0.00342587
0.00106001
-0.00335921
0.00111744
-0.00329372
0.00117431
-0.0032315
0.00123086
-0.00317347
0.00128724
-0.00311991
0.00134355
-0.00307098
0.0013998
-0.00302711
-0.00298968
0.00145568
3.29152e-05
-0.00026723
0.000112391
-0.00100513
0.000219002
-0.00178282
0.000335001
-0.00246827
0.000447409
-0.00299171
0.000549145
-0.00334067
0.000638108
-0.00353892
0.000715368
-0.00362472
0.000783412
-0.0036359
0.000844941
-0.00360279
0.000902239
-0.00354658
0.000956972
-0.0034806
0.00101024
-0.00341248
0.0010627
-0.00334618
0.00111475
-0.00328355
0.00116661
-0.00322532
0.00121841
-0.00317171
0.00127024
-0.00312281
0.00132213
-0.003079
-0.00304135
0.00137379
3.39252e-05
-0.000301155
0.00011438
-0.00108558
0.000220483
-0.00188893
0.000333891
-0.00258168
0.000441811
-0.00309963
0.000537769
-0.00343663
0.000620337
-0.00362149
0.000691104
-0.00369549
0.000752869
-0.00369767
0.000808457
-0.00365838
0.000860154
-0.00359828
0.000909576
-0.00353002
0.000957757
-0.00346066
0.00100531
-0.00339373
0.00105258
-0.00333083
0.00109978
-0.00327252
0.00114703
-0.00321895
0.00119441
-0.0031702
0.00124195
-0.00312653
-0.00308878
0.00128938
3.47924e-05
-0.000335947
0.000115825
-0.00116661
0.000220853
-0.00199395
0.000331077
-0.00269191
0.000434011
-0.00320257
0.000523849
-0.00352646
0.000599836
-0.00369748
0.000664052
-0.0037597
0.000719557
-0.00375317
0.000769261
-0.00370808
0.000815426
-0.00364444
0.000859603
-0.0035742
0.000902753
-0.00350381
0.000945437
-0.00343642
0.000987969
-0.00337336
0.00103053
-0.00331508
0.00107325
-0.00326167
0.00111619
-0.00321314
0.00115938
-0.00316972
-0.00313196
0.00120256
3.55083e-05
-0.000371456
0.000116707
-0.00124781
0.000220097
-0.00209734
0.000326569
-0.00279838
0.000424059
-0.00330006
0.000507479
-0.00360988
0.000576742
-0.00376674
0.000634376
-0.00381734
0.00068366
-0.00380246
0.000727545
-0.00375197
0.000768249
-0.00368515
0.00080724
-0.00361319
0.000845408
-0.00354198
0.000883259
-0.00347427
0.000921073
-0.00341117
0.000959017
-0.00335303
0.000997202
-0.00329985
0.0010357
-0.00325165
0.00107451
-0.00320853
-0.00317085
0.0011134
3.60653e-05
-0.000407521
0.000117012
-0.00132876
0.00021821
-0.00219854
0.000320392
-0.00290056
0.000412023
-0.00339169
0.000488772
-0.00368663
0.000551204
-0.00382917
0.000602252
-0.00386839
0.000645365
-0.00384557
0.000683505
-0.00379011
0.000718816
-0.00372046
0.00075268
-0.00364705
0.000785909
-0.00357521
0.000818956
-0.00350731
0.00085207
-0.00344429
0.000885402
-0.00338636
0.000919055
-0.00333351
0.000953091
-0.00328568
0.000987494
-0.00324293
-0.0032054
0.00102205
3.64559e-05
-0.000443977
0.000116727
-0.00140903
0.000215193
-0.00229701
0.00031258
-0.00299795
0.00039798
-0.00347709
0.000467849
-0.0037565
0.000523377
-0.0038847
0.000567858
-0.00391287
0.000604864
-0.00388258
0.000637334
-0.00382258
0.000667323
-0.00375045
0.000696114
-0.00367585
0.000724443
-0.00360354
0.000752712
-0.00353558
0.00078114
-0.00347272
0.000809862
-0.00341508
0.00083897
-0.00336261
0.000868517
-0.00331523
0.000898472
-0.00327289
-0.00323556
0.000928633
3.66736e-05
-0.00048065
0.000115846
-0.0014882
0.000211055
-0.00239222
0.000303177
-0.00309007
0.00038202
-0.00355593
0.000444839
-0.00381932
0.000493421
-0.00393328
0.000531371
-0.00395082
0.000562344
-0.00391355
0.000589223
-0.00384945
0.000613958
-0.00377518
0.000637731
-0.00369962
0.000661199
-0.003627
0.000684714
-0.0035591
0.000708467
-0.00349647
0.000732578
-0.00343919
0.000757126
-0.00338716
0.000782152
-0.00334025
0.000807614
-0.00329835
-0.00326127
0.000833322
3.67126e-05
-0.000517363
0.000114363
-0.00156585
0.000205813
-0.00248367
0.000292236
-0.00317649
0.000364235
-0.00362793
0.000419872
-0.00387496
0.000461493
-0.0039749
0.000492966
-0.00398229
0.000517986
-0.00393857
0.000539354
-0.00387082
0.000558906
-0.00379473
0.000577715
-0.00371843
0.000596361
-0.00364565
0.000615147
-0.00357788
0.000634237
-0.00351556
0.000653733
-0.00345869
0.000673702
-0.00340713
0.000694174
-0.00336073
0.000715094
-0.00331927
-0.00328246
0.000736286
3.65675e-05
-0.00055393
0.000112276
-0.00164156
0.000199487
-0.00257088
0.000279814
-0.00325682
0.000344722
-0.00369284
0.000393079
-0.00392331
0.000427745
-0.00400957
0.000452805
-0.00400735
0.000471956
-0.00395772
0.000487898
-0.00388676
0.000502336
-0.00380917
0.000516238
-0.00373233
0.000530104
-0.00365952
0.000544189
-0.00359197
0.000558629
-0.00353
0.000573507
-0.00347357
0.00058888
-0.0034225
0.000604761
-0.00337661
0.000621089
-0.0033356
-0.00329907
0.000637702
3.62334e-05
-0.000590164
0.000109586
-0.00171491
0.000192099
-0.00265339
0.000265968
-0.00333069
0.000323576
-0.00375045
0.000364581
-0.00396432
0.000392316
-0.0040373
0.000411037
-0.00402607
0.000424406
-0.00397109
0.000435003
-0.00389736
0.000444401
-0.00381857
0.000453454
-0.00374138
0.000462586
-0.00366865
0.000472003
-0.00360139
0.000481809
-0.00353981
0.00049207
-0.00348383
0.000502827
-0.00343326
0.000514083
-0.00338786
0.000525769
-0.00334729
-0.00331104
0.00053774
3.57059e-05
-0.00062587
0.000106294
-0.0017855
0.000183675
-0.00273077
0.000250758
-0.00339777
0.000300888
-0.00380058
0.000334493
-0.00399792
0.000355335
-0.00405815
0.000367791
-0.00403853
0.000375464
-0.00397876
0.000380797
-0.00390269
0.000385225
-0.003823
0.00038949
-0.00374565
0.000393939
-0.0036731
0.000398725
-0.00360617
0.000403921
-0.003545
0.000409568
-0.00348947
0.000415694
-0.00343939
0.000422289
-0.00339446
0.000429284
-0.00335428
-0.00331831
0.000436554
3.49807e-05
-0.00066085
0.000102402
-0.00185292
0.00017424
-0.00280261
0.00023424
-0.00345777
0.000276742
-0.00384308
0.000302918
-0.0040241
0.00031691
-0.00407214
0.000323176
-0.00404479
0.000325232
-0.00398082
0.000325375
-0.00390284
0.0003249
-0.00382252
0.000324438
-0.00374519
0.000324257
-0.00367292
0.000324455
-0.00360637
0.000325066
-0.00354561
0.000326108
-0.00349052
0.000327589
-0.00344087
0.000329492
-0.00339636
0.000331751
-0.00335654
-0.00332083
0.000334265
3.40535e-05
-0.000694904
9.79148e-05
-0.00191678
0.00016382
-0.00286852
0.000216468
-0.00351042
0.000251217
-0.00387783
0.000269949
-0.00404283
0.000277135
-0.00407932
0.000277277
-0.00404494
0.000273783
-0.00397732
0.000268798
-0.00389785
0.000263476
-0.0038172
0.000258342
-0.00374005
0.000253583
-0.00366816
0.000249235
-0.00360202
0.000245291
-0.00354167
0.000241738
-0.00348696
0.000238565
-0.00343769
0.000235748
-0.00339354
0.000233227
-0.00335402
-0.00331853
0.000230931
3.29299e-05
-0.000727834
9.28523e-05
-0.00197671
0.000152463
-0.00292813
0.000197519
-0.00355548
0.00022441
-0.00390472
0.00023569
-0.00405411
0.00023611
-0.00407974
0.000230179
-0.004039
0.000221181
-0.00396832
0.000211106
-0.00388778
0.000200976
-0.00380707
0.000191208
-0.00373028
0.00018191
-0.00365886
0.000173054
-0.00359317
0.000164581
-0.00353319
0.000156443
-0.00347882
0.000148607
-0.00342986
0.000141042
-0.00338598
0.000133701
-0.00334668
-0.00331138
0.000126546
3.15894e-05
-0.000759423
8.71879e-05
-0.0020323
0.000140153
-0.00298109
0.000177399
-0.00359272
0.000196344
-0.00392366
0.000200169
-0.00405794
0.000193854
-0.00407343
0.000181883
-0.00402703
0.000167401
-0.00395384
0.000152249
-0.00387263
0.000137318
-0.00379214
0.00012293
-0.0037159
0.000109112
-0.00364504
9.57689e-05
-0.00357982
8.27858e-05
-0.00352021
7.00693e-05
-0.00346611
5.75614e-05
-0.00341735
4.52254e-05
-0.00337364
3.30308e-05
-0.00333448
-0.00329932
2.0975e-05
3.00377e-05
-0.000789461
8.09445e-05
-0.00208321
0.000126943
-0.00302709
0.000156185
-0.00362196
0.000167113
-0.00393459
0.000163483
-0.00405431
0.000150454
-0.0040604
0.00013245
-0.00400903
0.00011247
-0.00393386
9.22074e-05
-0.00385236
7.24399e-05
-0.00377237
5.34001e-05
-0.00369686
3.50407e-05
-0.00362668
1.72002e-05
-0.00356198
-3.00187e-07
-0.00350271
-1.76032e-05
-0.00344881
-3.47978e-05
-0.00340016
-5.19279e-05
-0.00335651
-6.90063e-05
-0.0033174
-0.00328233
-8.59976e-05
2.82726e-05
-0.000817734
7.41335e-05
-0.00212907
0.000112869
-0.00306583
0.000133944
-0.00364304
0.000136801
-0.00393745
0.000125717
-0.00404322
0.000105979
-0.00404066
8.19228e-05
-0.00398497
5.63919e-05
-0.00390833
3.09403e-05
-0.00382691
6.24369e-06
-0.00374768
-1.75385e-05
-0.00367307
-4.05166e-05
-0.0036037
-6.29159e-05
-0.00353958
-8.49783e-05
-0.00348065
-0.000106901
-0.00342688
-0.00012881
-0.00337825
-0.000150758
-0.00333456
-0.000172743
-0.00329542
-0.00326038
-0.000194692
2.62945e-05
-0.000844028
6.67725e-05
-0.00216955
9.79792e-05
-0.00309703
0.000110751
-0.00365581
0.000105504
-0.0039322
8.6974e-05
-0.00402469
6.05245e-05
-0.00401421
3.0373e-05
-0.00395482
-7.98957e-07
-0.00387716
-3.15696e-05
-0.00379614
-6.13492e-05
-0.0037179
-9.00336e-05
-0.00364439
-0.00011778
-0.00357596
-0.000144864
-0.0035125
-0.000171587
-0.00345393
-0.000198199
-0.00340027
-0.000224866
-0.00335158
-0.000251658
-0.00330777
-0.00027856
-0.00326852
-0.00323347
-0.000305469
2.41068e-05
-0.000868135
5.88873e-05
-0.00220433
8.23343e-05
-0.00312048
8.67023e-05
-0.00366018
7.33411e-05
-0.00391884
4.73842e-05
-0.00399874
1.42191e-05
-0.00398105
-2.20834e-05
-0.00391852
-5.90127e-05
-0.00384023
-9.52731e-05
-0.00375988
-0.000130346
-0.00368282
-0.000164161
-0.00361057
-0.0001969
-0.00354322
-0.00022887
-0.00348053
-0.000260412
-0.00342238
-0.000291825
-0.00336886
-0.000323315
-0.00332009
-0.000354973
-0.00327611
-0.000386781
-0.00323671
-0.00320164
-0.000418611
2.17162e-05
-0.000889851
5.05133e-05
-0.00223313
6.60106e-05
-0.00313598
6.19133e-05
-0.00365608
4.04589e-05
-0.00389738
7.11419e-06
-0.00396539
-3.27593e-05
-0.00394117
-7.52652e-05
-0.00387601
-0.000118074
-0.00379742
-0.000160012
-0.00371794
-0.000200621
-0.00364221
-0.000239845
-0.00357135
-0.000277863
-0.0035052
-0.000314983
-0.00344341
-0.000351561
-0.00338581
-0.000387927
-0.00333249
-0.000424316
-0.0032837
-0.000460846
-0.00323958
-0.000497505
-0.00320005
-0.00316499
-0.000534159
1.91336e-05
-0.000908985
4.16966e-05
-0.00225569
4.91007e-05
-0.00314338
3.6521e-05
-0.0036435
7.03121e-06
-0.0038679
-3.36322e-05
-0.00392473
-8.01798e-05
-0.00389463
-0.000128915
-0.00382728
-0.0001777
-0.00374864
-0.000225486
-0.00367016
-0.000271866
-0.00359583
-0.000316783
-0.00352643
-0.000360387
-0.0034616
-0.000402952
-0.00340084
-0.000444815
-0.00334394
-0.0004863
-0.00329101
-0.000527661
-0.00324234
-0.000569036
-0.00319821
-0.000610429
-0.00315866
-0.0031237
-0.000651714
1.6374e-05
-0.000925359
3.24932e-05
-0.00227181
3.17114e-05
-0.0031426
1.06807e-05
-0.00362247
-2.67451e-05
-0.00383047
-7.4619e-05
-0.00387685
-0.000127764
-0.00384148
-0.000182705
-0.00377234
-0.000237503
-0.00369384
-0.000291239
-0.00361642
-0.000343558
-0.00354352
-0.000394394
-0.0034756
-0.000443847
-0.00341215
-0.000492122
-0.00335257
-0.000539494
-0.00329657
-0.000586249
-0.00324425
-0.000632625
-0.00319596
-0.000678768
-0.00315206
-0.000724701
-0.00311273
-0.00307807
-0.00077033
1.34563e-05
-0.000938815
2.29673e-05
-0.00228132
1.39603e-05
-0.00313359
-1.5441e-05
-0.00359307
-6.06595e-05
-0.00378525
-0.000115592
-0.00382192
-0.000175205
-0.00378187
-0.000236257
-0.00371128
-0.000297014
-0.00363308
-0.000356689
-0.00355674
-0.000414986
-0.00348522
-0.000471832
-0.00341875
-0.000527265
-0.00335671
-0.000581403
-0.00329843
-0.00063442
-0.00324355
-0.000686523
-0.00319215
-0.0007379
-0.00314459
-0.000788685
-0.00310128
-0.000838911
-0.0030625
-0.00302845
-0.000888538
1.04022e-05
-0.000949217
1.31879e-05
-0.00228411
-4.03092e-06
-0.00311637
-4.16757e-05
-0.00355543
-9.45023e-05
-0.00373242
-0.000156297
-0.00376013
-0.000222194
-0.00371597
-0.000289186
-0.00364429
-0.000355739
-0.00356653
-0.000421201
-0.00349128
-0.00048534
-0.00342108
-0.000548085
-0.00335601
-0.000609424
-0.00329537
-0.000669378
-0.00323848
-0.000728008
-0.00318492
-0.00078541
-0.00313475
-0.000841696
-0.0030883
-0.000896956
-0.00304602
-0.000951226
-0.00300823
-0.00297515
-0.00100452
7.23509e-06
-0.000956452
3.22588e-06
-0.0022801
-2.21427e-05
-0.003091
-6.78629e-05
-0.00350971
-0.000128079
-0.00367221
-0.000196508
-0.0036917
-0.000268459
-0.00364402
-0.000341154
-0.0035716
-0.000413244
-0.00349444
-0.000484201
-0.00342032
-0.000553863
-0.00335142
-0.000622174
-0.00328769
-0.000689092
-0.00322846
-0.000754564
-0.00317301
-0.000818547
-0.00312094
-0.000881029
-0.00307226
-0.000942027
-0.0030273
-0.00100157
-0.00298648
-0.00105968
-0.00295012
-0.00291844
-0.00111639
3.97888e-06
-0.000960431
-6.85037e-06
-0.00226927
-4.02636e-05
-0.00305759
-9.38595e-05
-0.00345611
-0.000161225
-0.00360484
-0.000236039
-0.00361688
-0.000313791
-0.00356627
-0.000391915
-0.00349347
-0.000469226
-0.00341713
-0.000545299
-0.00334425
-0.000620032
-0.00327669
-0.0006934
-0.00321433
-0.000765355
-0.0031565
-0.000835809
-0.00310255
-0.000904657
-0.00305209
-0.000971812
-0.00300511
-0.00103722
-0.0029619
-0.00110084
-0.00292285
-0.00116265
-0.00288831
-0.00285839
-0.0012227
6.56819e-07
-0.000961088
-1.6977e-05
-0.00225163
-5.82946e-05
-0.00301627
-0.000119544
-0.00339486
-0.000193809
-0.00353058
-0.000274757
-0.00353594
-0.000358063
-0.00348296
-0.000441349
-0.00341019
-0.000523567
-0.00333491
-0.000604371
-0.00326345
-0.000683703
-0.00319735
-0.000761565
-0.00313646
-0.000837926
-0.00308014
-0.000912705
-0.00302777
-0.000985793
-0.002979
-0.00105709
-0.00293381
-0.00112652
-0.00289247
-0.00119401
-0.00285537
-0.00125948
-0.00282284
-0.00279492
-0.00132295
-2.70907e-06
-0.000958379
-2.70962e-05
-0.00222725
-7.61493e-05
-0.00296722
-0.000144817
-0.00332619
-0.00022573
-0.00344966
-0.000312577
-0.00344909
-0.000401215
-0.00339432
-0.000489442
-0.00332196
-0.00057632
-0.00324803
-0.000661559
-0.00317821
-0.000745124
-0.00311379
-0.000827033
-0.00305455
-0.000907279
-0.00299989
-0.000985815
-0.00294924
-0.00106257
-0.00290224
-0.00113751
-0.00285888
-0.0012106
-0.00281937
-0.0012818
-0.00278417
-0.00135099
-0.00275365
-0.00272782
-0.00141809
-6.09804e-06
-0.000952281
-3.71556e-05
-0.00219619
-9.37526e-05
-0.00291062
-0.000169594
-0.00325035
-0.000256913
-0.00336234
-0.000349444
-0.00335656
-0.000443228
-0.00330054
-0.000536235
-0.00322895
-0.000627626
-0.00315664
-0.000717151
-0.00308868
-0.000804786
-0.00302615
-0.000890554
-0.00296879
-0.000974461
-0.00291599
-0.00105649
-0.00286721
-0.00113665
-0.00282209
-0.00121496
-0.00278056
-0.00129152
-0.00274281
-0.0013664
-0.00270929
-0.00143948
-0.00268058
-0.00265685
-0.00151045
-9.49051e-06
-0.00094279
-4.71073e-05
-0.00215857
-0.000111038
-0.00284669
-0.000193804
-0.00316759
-0.000287292
-0.00326886
-0.000385305
-0.00325854
-0.000484083
-0.00320176
-0.000581762
-0.00313128
-0.000677604
-0.0030608
-0.000771405
-0.00299488
-0.000863155
-0.0029344
-0.000952879
-0.00287906
-0.00104059
-0.00282828
-0.00112628
-0.00278151
-0.00120999
-0.00273838
-0.00129182
-0.00269873
-0.00137201
-0.00266263
-0.00145078
-0.00263052
-0.00152805
-0.00260331
-0.00258151
-0.00160338
-1.28676e-05
-0.000929923
-5.69066e-05
-0.00211453
-0.000127942
-0.00277566
-0.000217377
-0.00307815
-0.000316797
-0.00316944
-0.0004201
-0.00315524
-0.000523728
-0.00309813
-0.000625989
-0.00302902
-0.000726255
-0.00296053
-0.000824387
-0.00289675
-0.000920408
-0.00283838
-0.00101437
-0.0027851
-0.00110629
-0.00273635
-0.00119618
-0.00269162
-0.00128406
-0.00265051
-0.00137004
-0.00261275
-0.00145442
-0.00257824
-0.00153761
-0.00254733
-0.00161966
-0.00252126
-0.0025002
-0.00170097
-1.62112e-05
-0.000913711
-6.65113e-05
-0.00206423
-0.000144408
-0.00269776
-0.000240247
-0.00298231
-0.000345357
-0.00306433
-0.00045375
-0.00304685
-0.00056207
-0.00298981
-0.000668799
-0.00292229
-0.000773429
-0.0028559
-0.0008759
-0.00279428
-0.000976304
-0.00273798
-0.00107476
-0.00268665
-0.00117135
-0.00263976
-0.00126613
-0.00259684
-0.00135913
-0.00255751
-0.00145041
-0.00252147
-0.00154023
-0.00248842
-0.00162907
-0.00245849
-0.00171714
-0.00243319
-0.00240996
-0.00180739
-1.95039e-05
-0.000894208
-7.58816e-05
-0.00200786
-0.000160379
-0.00261326
-0.000262348
-0.00288034
-0.000372898
-0.00295378
-0.000486166
-0.00293358
-0.000598994
-0.00287698
-0.000710028
-0.00281125
-0.000818873
-0.00274706
-0.000925551
-0.0026876
-0.00103023
-0.0026333
-0.00113314
-0.00258375
-0.00123449
-0.00253841
-0.0013345
-0.00249683
-0.00143338
-0.00245863
-0.00153132
-0.00242352
-0.00162863
-0.00239111
-0.00172626
-0.00236086
-0.00182645
-0.00233299
-0.00231889
-0.00191752
-2.27144e-05
-0.000871493
-8.49576e-05
-0.00194561
-0.000175779
-0.00252244
-0.000283596
-0.00277253
-0.000399331
-0.00283804
-0.000517247
-0.00281567
-0.000634377
-0.00275986
-0.000749512
-0.00269612
-0.000862348
-0.00263422
-0.000972963
-0.00257699
-0.00108157
-0.00252469
-0.00118845
-0.00247687
-0.00129389
-0.00243297
-0.00139826
-0.00239246
-0.00150204
-0.00235485
-0.00160588