/*--------------------------------*- C++ -*----------------------------------*\
  =========                 |
  \\      /  F ield         | OpenFOAM: The Open Source CFD Toolbox
   \\    /   O peration     | Website:  https://openfoam.org
    \\  /    A nd           | Version:  6.0
     \\/     M anipulation  |
\*---------------------------------------------------------------------------*/
FoamFile
{
    version     2.0;
    format      ascii;
    class       surfaceScalarField;
    location    "11.9";
    object      phi;
}
// * * * * * * * * * * * * * * * * * * * * * * * * * * * * * * * * * * * * * //

dimensions      [0 3 -1 0 0 0 0];

internalField   nonuniform List<scalar> 
15760
(
-3.71334e-06
3.78859e-06
-7.5255e-08
-1.29969e-05
9.48472e-06
-2.01167e-07
-2.64958e-05
1.38058e-05
-3.06839e-07
-4.31684e-05
1.70672e-05
-3.94639e-07
-6.22162e-05
1.95148e-05
-4.67015e-07
-8.30415e-05
2.13519e-05
-5.26643e-07
-0.000105214
2.27486e-05
-5.76203e-07
-0.000128443
2.38473e-05
-6.18207e-07
-0.000152557
2.47687e-05
-6.54868e-07
-0.000177483
2.56146e-05
-6.88048e-07
-0.000203235
2.64709e-05
-7.19226e-07
-0.000229894
2.7409e-05
-7.49513e-07
-0.000257601
2.84867e-05
-7.79672e-07
-0.00028654
2.97489e-05
-8.10174e-07
-0.000316926
3.12273e-05
-8.41238e-07
-0.000348994
3.29411e-05
-8.72875e-07
-0.000382986
3.48965e-05
-9.04916e-07
-0.000419135
3.70863e-05
-9.37071e-07
-0.00045766
3.9494e-05
-9.68941e-07
4.21144e-05
-1.00024e-06
-0.000498774
-3.65444e-06
7.44304e-06
-1.2799e-05
1.86293e-05
-2.60955e-05
2.71022e-05
-4.25082e-05
3.34799e-05
-6.12388e-05
3.82454e-05
-8.16856e-05
4.17987e-05
-0.000103411
4.44739e-05
-0.000126115
4.65514e-05
-0.000149615
4.82683e-05
-0.000173826
4.9826e-05
-0.00019875
5.13945e-05
-0.000224457
5.31166e-05
-0.000251079
5.51088e-05
-0.000278793
5.74626e-05
-0.00030781
6.02446e-05
-0.000338366
6.34966e-05
-0.000370705
6.72352e-05
-0.000405067
7.1449e-05
-0.000441682
7.61082e-05
8.12023e-05
-0.00048077
-3.54257e-06
1.09856e-05
-1.2422e-05
2.75088e-05
-2.53309e-05
4.00111e-05
-4.1245e-05
4.9394e-05
-5.93661e-05
5.63664e-05
-7.90845e-05
6.15171e-05
-9.99484e-05
6.53379e-05
-0.00012164
6.82428e-05
-0.000143954
7.05823e-05
-0.000166783
7.26553e-05
-0.000190104
7.47159e-05
-0.000213967
7.69793e-05
-0.000238483
7.96242e-05
-0.000263814
8.27938e-05
-0.000290165
8.65955e-05
-0.00031777
9.11014e-05
-0.00034688
9.63456e-05
-0.000377752
0.00010232
-0.000410631
0.000108988
0.000116332
-0.000445761
-3.38631e-06
1.43719e-05
-1.18927e-05
3.60152e-05
-2.42536e-05
5.2372e-05
-3.94607e-05
6.46011e-05
-5.67159e-05
7.36217e-05
-7.53987e-05
8.01998e-05
-9.50378e-05
8.4977e-05
-0.000115289
8.84936e-05
-0.000135915
9.12088e-05
-0.000156775
9.35156e-05
-0.000177811
9.57511e-05
-0.000199036
9.82046e-05
-0.000220533
0.000101121
-0.000242441
0.000104702
-0.00026495
0.000109105
-0.000288293
0.000114444
-0.000312732
0.000120784
-0.000338544
0.000128132
-0.000366009
0.000136452
0.000145728
-0.000395405
-3.19728e-06
1.75692e-05
-1.12471e-05
4.4065e-05
-2.29331e-05
6.4058e-05
-3.72659e-05
7.8934e-05
-5.34485e-05
8.98043e-05
-7.08474e-05
9.75988e-05
-8.89681e-05
0.000103098
-0.000107434
0.000106959
-0.000125969
0.000109744
-0.000144386
0.000111933
-0.000162581
0.000113946
-0.000180521
0.000116145
-0.000198245
0.000118845
-0.000215859
0.000122316
-0.000233531
0.000126777
-0.000251486
0.0001324
-0.000269999
0.000139297
-0.000289379
0.000147512
-0.000309953
0.000157027
0.000167834
-0.000332059
-2.98882e-06
2.0558e-05
-1.0527e-05
5.16031e-05
-2.14495e-05
7.49806e-05
-3.47883e-05
9.22727e-05
-4.97482e-05
0.000104764
-6.56832e-05
0.000113534
-8.20739e-05
0.000119488
-9.85077e-05
0.000123393
-0.000114664
0.0001259
-0.000130303
0.000127573
-0.000145262
0.000128905
-0.000159449
0.000130332
-0.000172846
0.000132242
-0.000185511
0.000134981
-0.000197578
0.000138843
-0.000209256
0.000144078
-0.000220831
0.000150872
-0.00023265
0.000159331
-0.00024511
0.000169487
0.000181358
-0.000258634
-2.77445e-06
2.33325e-05
-9.77431e-06
5.8603e-05
-1.98838e-05
8.50901e-05
-3.21563e-05
0.000104545
-4.58009e-05
0.000118409
-6.01613e-05
0.000127894
-7.46943e-05
0.000134021
-8.89518e-05
0.00013765
-0.000102566
0.000139514
-0.000115239
0.000140246
-0.000126742
0.000140407
-0.000136911
0.000140501
-0.000145656
0.000140988
-0.000152969
0.000142293
-0.00015893
0.000144805
-0.000163722
0.00014887
-0.00016763
0.00015478
-0.000171047
0.000162748
-0.000174454
0.000172894
0.000185306
-0.000178402
-2.56628e-06
2.58988e-05
-9.02669e-06
6.50634e-05
-1.83076e-05
9.4371e-05
-2.94835e-05
0.000115721
-4.17701e-05
0.000130695
-5.45051e-05
0.000140629
-6.71266e-05
0.000146643
-7.9155e-05
0.000149679
-9.01771e-05
0.000150536
-9.98376e-05
0.000149907
-0.000107835
0.000148405
-0.000113926
0.000146591
-0.000117931
0.000144994
-0.000119757
0.000144118
-0.000119407
0.000144455
-0.000117011
0.000146474
-0.000112841
0.00015061
-0.000107325
0.000157232
-0.00010105
0.00016662
0.000178994
-9.47386e-05
-2.37359e-06
2.82723e-05
-8.31247e-06
7.10023e-05
-1.67742e-05
0.000102833
-2.68524e-05
0.000125799
-3.77723e-05
0.000141615
-4.88718e-05
0.000151728
-5.95783e-05
0.000157349
-6.93888e-05
0.000159489
-7.78531e-05
0.000159
-8.45628e-05
0.000156616
-8.91468e-05
0.000152989
-9.1275e-05
0.000148719
-9.06705e-05
0.000144389
-8.71303e-05
0.000140578
-8.05558e-05
0.000137881
-7.09897e-05
0.000136908
-5.86576e-05
0.000138277
-4.40078e-05
0.000142582
-2.77384e-05
0.00015035
0.000162049
-1.0793e-05
-2.20175e-06
3.04741e-05
-7.64727e-06
7.64478e-05
-1.5311e-05
0.000110496
-2.43018e-05
0.00013479
-3.38572e-05
0.000151171
-4.33218e-05
0.000161193
-5.21226e-05
0.00016615
-5.97456e-05
0.000167112
-6.57164e-05
0.000164971
-6.95859e-05
0.000160486
-7.09231e-05
0.000154326
-6.93164e-05
0.000147113
-6.43849e-05
0.000139458
-5.5803e-05
0.000131996
-4.33391e-05
0.000125417
-2.69102e-05
0.000120479
-6.64966e-06
0.000118017
1.70148e-05
0.000118918
4.32844e-05
0.000124081
0.000134388
7.09451e-05
-2.05171e-06
3.25258e-05
-7.0321e-06
8.14282e-05
-1.39154e-05
0.00011738
-2.18193e-05
0.000142694
-2.99941e-05
0.000159346
-3.77976e-05
0.000168997
-4.46663e-05
0.000173019
-5.00894e-05
0.000172535
-5.35855e-05
0.000168467
-5.46839e-05
0.000161584
-5.29128e-05
0.000152555
-4.77952e-05
0.000141995
-3.88555e-05
0.000130518
-2.56425e-05
0.000118783
-7.77171e-06
0.000107546
1.50062e-05
9.7701e-05
4.27079e-05
9.03152e-05
7.49891e-05
8.66366e-05
0.000110992
8.80783e-05
9.61814e-05
0.000149198
-1.92011e-06
3.44459e-05
-6.45335e-06
8.59615e-05
-1.2554e-05
0.00012348
-1.9339e-05
0.000149479
-2.60688e-05
0.000166075
-3.21164e-05
0.000175044
-3.69358e-05
0.000177838
-4.0032e-05
0.000175632
-4.09342e-05
0.000169369
-3.91736e-05
0.000159824
-3.42649e-05
0.000147646
-2.56951e-05
0.000133425
-1.29217e-05
0.000117745
4.6134e-06
0.000101248
2.74465e-05
8.47132e-05
5.60184e-05
6.91291e-05
9.0553e-05
5.57806e-05
0.000130874
4.63155e-05
0.000176146
4.28066e-05
4.77749e-05
0.000224552
-1.80002e-06
3.62459e-05
-5.88497e-06
9.00464e-05
-1.1167e-05
0.000128763
-1.67485e-05
0.00015506
-2.18913e-05
0.000171218
-2.59806e-05
0.000179133
-2.84888e-05
0.000180347
-2.89433e-05
0.000176086
-2.6898e-05
0.000167324
-2.1907e-05
0.000154833
-1.35026e-05
0.000139242
-1.17637e-06
0.000121099
1.56341e-05
0.000100934
3.75459e-05
7.93365e-05
6.5209e-05
5.705e-05
9.92446e-05
3.50935e-05
0.000140117
1.49086e-05
0.000187904
-1.47213e-06
0.000241921
-1.12099e-05
-1.04307e-05
0.000300126
-1.68214e-06
3.79281e-05
-5.29208e-06
9.36564e-05
-9.67522e-06
0.000133146
-1.39e-05
0.000159285
-1.7215e-05
0.000174533
-1.90051e-05
0.000180924
-1.87527e-05
0.000180094
-1.60039e-05
0.000173337
-1.03395e-05
0.00016166
-1.34961e-06
0.000145843
1.139e-05
0.000126502
2.83409e-05
0.000104148
5.00242e-05
7.92506e-05
7.70383e-05
5.23224e-05
0.000110062
2.40262e-05
0.000149825
-4.66887e-06
0.000197
-3.22671e-05
0.000251977
-5.64483e-05
0.000314372
-7.36052e-05
-7.81653e-05
0.000382106
-1.55621e-06
3.94843e-05
-4.63535e-06
9.67355e-05
-7.98866e-06
0.000136499
-1.06267e-05
0.000161923
-1.17618e-05
0.000175668
-1.07572e-05
0.000179919
-7.08478e-06
0.000176422
-2.90913e-07
0.000166543
1.00295e-05
0.000151339
2.42546e-05
0.000131618
4.27552e-05
0.000108002
6.59146e-05
8.09885e-05
9.41531e-05
5.10122e-05
0.000127956
1.85198e-05
0.000167902
-1.59202e-05
0.00021468
-5.1447e-05
0.000269045
-8.66321e-05
0.000331646
-0.000119049
0.000402536
-0.000144496
-0.000155541
0.000479911
-1.41218e-06
4.08965e-05
-3.87472e-06
9.9198e-05
-6.01503e-06
0.000138639
-6.75711e-06
0.000162665
-5.24789e-06
0.000174159
-7.98344e-07
0.000175469
7.16236e-06
0.000168461
1.91197e-05
0.000154586
3.54956e-05
0.000134963
5.6662e-05
0.000110451
8.29507e-05
8.17129e-05
0.000114662
4.92773e-05
0.000152078
1.35958e-05
0.000195489
-2.4891e-05
0.000245231
-6.56621e-05
0.000301743
-0.000107959
0.000365607
-0.000150497
0.000437512
-0.000190954
0.000517932
-0.000224915
-0.000243322
0.000605713
-1.24071e-06
4.21372e-05
-2.97136e-06
0.000100929
-3.66408e-06
0.000139332
-2.12469e-06
0.000161126
2.59898e-06
0.000169435
1.12851e-05
0.000166783
2.4587e-05
0.000155159
4.30653e-05
0.000136108
6.72032e-05
0.000110825
9.74108e-05
8.02434e-05
0.000134021
4.51028e-05
0.000177279
6.01891e-06
0.000227337
-3.64623e-05
0.000284254
-8.18074e-05
0.000348018
-0.000129426
0.000418612
-0.000178553
0.000496115
-0.000228
0.000580812
-0.00027565
0.000673208
-0.000317312
-0.000343203
0.000773089
-1.03286e-06
4.317e-05
-1.88711e-06
0.000101783
-8.47437e-07
0.000138292
3.43115e-06
0.000156847
1.20352e-05
0.000160831
2.58706e-05
0.000152948
4.57157e-05
0.000135314
7.22515e-05
0.000109572
0.000106072
7.70055e-05
0.000147676
3.86386e-05
0.000197455
-4.67546e-06
0.000255655
-5.21813e-05
0.00032235
-0.000103158
0.000397403
-0.000156861
0.000480445
-0.000212468
0.000570888
-0.000268996
0.000668018
-0.00032513
0.00077117
-0.000378802
0.00088002
-0.000426162
-0.000458546
0.000995364
-7.79015e-07
4.39491e-05
-5.81563e-07
0.000101585
2.52654e-06
0.000135184
1.00726e-05
0.000149301
2.3311e-05
0.000147593
4.33112e-05
0.000132948
7.10133e-05
0.000107612
0.000107257
7.33287e-05
0.000152784
3.14777e-05
0.00020823
-1.68074e-05
0.000274091
-7.05361e-05
0.000350685
-0.000128775
0.000438101
-0.000190574
0.000536134
-0.000254893
0.000644201
-0.000320535
0.000761264
-0.000386058
0.000885765
-0.000449631
0.00101564
-0.000508673
0.00114858
-0.000559103
-0.000595544
0.00128557
-4.67343e-07
4.44164e-05
9.92007e-07
0.000100126
6.56026e-06
0.000129616
1.79752e-05
0.000137886
3.66877e-05
0.00012888
6.39576e-05
0.000105678
0.000100911
7.06588e-05
0.000148562
2.56777e-05
0.000207814
-2.77751e-05
0.000279444
-8.84366e-05
0.000364067
-0.000155159
0.000462112
-0.00022682
0.000573783
-0.000302245
0.000699028
-0.000380138
0.000837491
-0.000458998
0.000988441
-0.000537009
0.0011506
-0.000611793
0.00132151
-0.000679578
0.00149491
-0.000732509
-0.000752276
0.00165164
-8.32636e-08
4.44997e-05
2.88906e-06
9.71538e-05
1.13719e-05
0.000121133
2.73364e-05
0.000121922
5.245e-05
0.000103767
8.81763e-05
6.99516e-05
0.000135826
2.30088e-05
0.000196573
-3.50691e-05
0.00027144
-0.000102642
0.000361278
-0.000178274
0.000466736
-0.000260617
0.000588249
-0.000348333
0.000726046
-0.000440043
0.000880209
-0.0005343
0.0010508
-0.000629594
0.00123816
-0.000724365
0.00144339
-0.000817018
0.00166964
-0.000905835
0.00192619
-0.000989052
-0.00106071
0.00223462
3.93855e-07
4.41058e-05
5.17934e-06
9.23683e-05
1.71021e-05
0.00010921
3.83817e-05
0.000100642
7.09104e-05
7.1238e-05
0.000116349
2.45132e-05
0.000176163
-3.68052e-05
0.00025162
-0.000110526
0.000343758
-0.000194781
0.000453347
-0.000287863
0.000580851
-0.000388122
0.00072642
-0.000493902
0.000889903
-0.000603525
0.00107092
-0.000715313
0.00126896
-0.000827641
0.00148363
-0.000939031
0.00171488
-0.00104827
0.00196359
-0.00115454
0.00223199
-0.00125745
-0.00134885
0.00252013
9.86174e-07
4.31196e-05
7.93808e-06
8.54164e-05
2.39003e-05
9.32482e-05
5.13452e-05
7.31975e-05
9.23812e-05
3.0202e-05
0.000148833
-3.19382e-05
0.000222252
-0.000110224
0.000313885
-0.00020216
0.000424617
-0.000305513
0.000554913
-0.000418158
0.000704772
-0.000537981
0.000873722
-0.000662852
0.00106084
-0.000790646
0.00126484
-0.000919308
0.00148413
-0.00104694
0.00171699
-0.00117189
0.00196163
-0.00129291
0.00221628
-0.00140919
0.00247911
-0.00152028
-0.00161821
0.00274847
1.71855e-06
4.14011e-05
1.12448e-05
7.58902e-05
3.19174e-05
7.25756e-05
6.645e-05
3.86649e-05
0.000117135
-2.04827e-05
0.000185892
-0.000100695
0.000274244
-0.000198576
0.000383246
-0.000311162
0.000513403
-0.00043567
0.0006646
-0.000569355
0.00083607
-0.000709451
0.00102641
-0.000853191
0.00123364
-0.000997882
0.00145534
-0.00114101
0.00168875
-0.00128034
0.0019309
-0.00141404
0.00217872
-0.00154074
0.00242908
-0.00165955
0.00267885
-0.00177005
-0.00186608
0.00292673
2.61549e-06
3.87856e-05
1.51742e-05
6.33314e-05
4.12863e-05
4.64636e-05
8.38731e-05
-3.92199e-06
0.000145346
-8.19552e-05
0.000227607
-0.000182957
0.000331979
-0.000302949
0.000459096
-0.000438278
0.000608804
-0.000585378
0.00078011
-0.000740661
0.000971193
-0.000900534
0.00117949
-0.00106149
0.00140184
-0.00122023
0.00163467
-0.00137384
0.00187422
-0.00151989
0.00211669
-0.00165651
0.00235841
-0.00178246
0.00259591
-0.00189704
0.00282602
-0.00200016
-0.00208782
0.00304776
3.69879e-06
3.50868e-05
1.97876e-05
4.72426e-05
5.21029e-05
1.41483e-05
0.00010371
-5.55294e-05
0.000177032
-0.000155277
0.000273789
-0.000279713
0.000394869
-0.000424029
0.000540202
-0.000583611
0.00070867
-0.000753846
0.000898116
-0.000930108
0.00110545
-0.00110787
0.00132685
-0.00128288
0.00155801
-0.0014514
0.00179448
-0.00161031
0.00203186
-0.00175727
0.00226609
-0.00189075
0.00249359
-0.00200996
0.00271134
-0.00211479
0.00291695
-0.00220577
-0.00228093
0.00311005
4.98549e-06
3.01013e-05
2.51255e-05
2.71026e-05
6.44096e-05
-2.51358e-05
0.000125946
-0.000117066
0.000212011
-0.000241342
0.000323914
-0.000391617
0.000461827
-0.000561942
0.000624655
-0.000746439
0.00081002
-0.000939212
0.00101439
-0.00113447
0.00123331
-0.00132679
0.00146179
-0.00151137
0.00169467
-0.00168428
0.00192701
-0.00184264
0.00215435
-0.00198461
0.00237297
-0.00210937
0.00257998
-0.00221697
0.00277335
-0.00230816
0.00295186
-0.00238427
-0.00244501
0.00311594
6.48649e-06
2.36148e-05
3.12018e-05
2.3873e-06
7.81816e-05
-7.21156e-05
0.000150429
-0.000189313
0.000249861
-0.000340774
0.000377094
-0.000518849
0.000531254
-0.000716102
0.000709911
-0.000925096
0.000909196
-0.0011385
0.00112411
-0.00134938
0.00134895
-0.00155163
0.00157786
-0.00174028
0.00180527
-0.00191169
0.00202631
-0.00206368
0.00223706
-0.00219535
0.00243466
-0.00230697
0.00261735
-0.00239966
0.00278435
-0.00247516
0.00293566
-0.00253559
-0.00258196
0.00307261
8.20561e-06
1.54092e-05
3.8e-05
-2.74071e-05
9.33188e-05
-0.000127434
0.000176863
-0.000272857
0.000289917
-0.000453829
0.000432078
-0.00066101
0.000601095
-0.000885119
0.000792945
-0.00111695
0.00100216
-0.00134771
0.00122238
-0.0015696
0.00144698
-0.00177623
0.00166971
-0.001963
0.00188515
-0.00212714
0.00208911
-0.00226764
0.00227868
-0.00238492
0.00245224
-0.00248053
0.0026093
-0.00255673
0.00275031
-0.00261617
0.00287635
-0.00266163
-0.002695
0.0029894
1.0139e-05
5.27019e-06
4.54704e-05
-6.27385e-05
0.00010964
-0.000191604
0.000204796
-0.000368013
0.000331273
-0.000580305
0.000487299
-0.000817036
0.000668954
-0.00106677
0.000870482
-0.00131847
0.0010849
-0.00156213
0.00130478
-0.00178949
0.00152308
-0.00199453
0.00173373
-0.00217365
0.00193209
-0.0023255
0.00211507
-0.00245062
0.00228109
-0.00255094
0.00242988
-0.00262931
0.00256214
-0.00268899
0.00267931
-0.00273333
0.00278321
-0.00276553
-0.00278797
0.00287618
1.22747e-05
-7.00455e-06
5.35287e-05
-0.000103993
0.000126884
-0.000264959
0.000233634
-0.000474763
0.000372812
-0.000719484
0.000540951
-0.000985175
0.000732268
-0.00125809
0.000939292
-0.0015255
0.0011538
-0.00177664
0.00136782
-0.00200351
0.00157446
-0.00220117
0.00176844
-0.00236763
0.00194633
-0.00250339
0.00210645
-0.00261073
0.00224859
-0.00269309
0.00237369
-0.00275441
0.00248341
-0.00279872
0.00257983
-0.00282975
0.00266514
-0.00285084
-0.00286458
0.00274175
1.4592e-05
-2.15966e-05
6.20551e-05
-0.000151456
0.000144707
-0.000347611
0.000262648
-0.000592705
0.000413258
-0.000870094
0.000591115
-0.00116303
0.000788516
-0.00145549
0.000996505
-0.00173349
0.00120609
-0.00198622
0.00140933
-0.00220675
0.0016001
-0.00239194
0.00177439
-0.00254192
0.00193022
-0.00265922
0.00206734
-0.00274786
0.00218681
-0.00281256
0.00229049
-0.00285809
0.00238064
-0.00288887
0.00245964
-0.00290875
0.00252975
-0.00292095
-0.00292803
0.0025932
1.70608e-05
-3.86574e-05
7.08947e-05
-0.000205289
0.000162695
-0.000439411
0.000291013
-0.000721022
0.000451253
-0.00103033
0.000635893
-0.00134767
0.000835444
-0.00165504
0.00103987
-0.00193791
0.00124
-0.00218635
0.00142855
-0.0023953
0.00160063
-0.00256403
0.00175376
-0.00269505
0.00188747
-0.00279292
0.0020028
-0.0028632
0.00210176
-0.00291152
0.0021868
-0.00294313
0.00226047
-0.00296253
0.00232514
-0.00297343
0.00238294
-0.00297875
-0.00298086
0.00243577
1.96418e-05
-5.82992e-05
7.98602e-05
-0.000265508
0.000180378
-0.000539929
0.00031784
-0.000858484
0.00048544
-0.00119793
0.000673563
-0.00153579
0.000871251
-0.00185273
0.00106794
-0.0021346
0.0012549
-0.00237331
0.00142602
-0.00256642
0.00157797
-0.00271597
0.00170982
-0.0028269
0.0018225
-0.0029056
0.00191804
-0.00295874
0.00199907
-0.00299254
0.0020683
-0.00301236
0.00212829
-0.00302252
0.00218125
-0.00302638
0.00222902
-0.00302651
-0.00302499
0.00227314
2.22864e-05
-8.05856e-05
8.87367e-05
-0.000331958
0.000197244
-0.000648436
0.000342234
-0.00100347
0.000514565
-0.00137027
0.000702714
-0.00172394
0.000894731
-0.00204475
0.00108014
-0.00232001
0.00125121
-0.00254438
0.00140336
-0.00271857
0.0015349
-0.00284751
0.00164638
-0.00293839
0.0017398
-0.00299902
0.0018179
-0.00303683
0.00188358
-0.00305822
0.00193957
-0.00306836
0.00198825
-0.0030712
0.00203155
-0.00306968
0.00207099
-0.00306595
-0.00306177
0.00210777
2.49376e-05
-0.000105523
9.72896e-05
-0.00040431
0.000212771
-0.000763917
0.000363347
-0.00115405
0.000537564
-0.00154448
0.000722345
-0.00190872
0.000905322
-0.00222773
0.0010767
-0.0024914
0.00123018
-0.00269785
0.00136285
-0.00285124
0.00147463
-0.00295929
0.00156726
-0.00303102
0.00164353
-0.00307529
0.00170653
-0.00309983
0.00175921
-0.0031109
0.00180413
-0.00311327
0.00184336
-0.00311043
0.00187853
-0.00310485
0.00191084
-0.00309826
-0.00309213
0.00194121
2.75323e-05
-0.000133055
0.000105275
-0.000482053
0.000226452
-0.000885094
0.000380434
-0.00130803
0.000553636
-0.00171768
0.000731912
-0.002087
0.000903083
-0.0023989
0.00105854
-0.00264685
0.00119363
-0.00283294
0.00130717
-0.00296478
0.00140041
-0.00305253
0.00147604
-0.00310665
0.00153729
-0.00313654
0.00158734
-0.00314988
0.001629
-0.00315256
0.00166454
-0.00314882
0.00169573
-0.00314162
0.00172386
-0.00313298
0.00174989
-0.00312429
-0.0031167
0.00177446
3.00031e-05
-0.000163059
0.00011245
-0.0005645
0.000237826
-0.00101047
0.0003929
-0.00146311
0.000562285
-0.00188707
0.00073133
-0.00225604
0.000888603
-0.00255617
0.00102703
-0.00278528
0.00114373
-0.00294964
0.00123903
-0.00306009
0.0013153
-0.0031288
0.00137582
-0.00316717
0.00142402
-0.00318473
0.00146296
-0.00318883
0.00149519
-0.00318479
0.00152266
-0.00317629
0.00154681
-0.00316577
0.00156866
-0.00315484
0.00158894
-0.00314456
-0.00313587
0.00160811
3.22813e-05
-0.00019534
0.000118588
-0.000650807
0.000246506
-0.00113839
0.000400331
-0.00161693
0.000563326
-0.00205006
0.000720915
-0.00241363
0.000862874
-0.00269813
0.000983866
-0.00290627
0.0010827
-0.00304848
0.00116103
-0.00313841
0.001222
-0.00318977
0.00126921
-0.00321438
0.00130606
-0.00322158
0.0013354
-0.00321816
0.00135942
-0.00320882
0.00137977
-0.00319663
0.00139759
-0.00318358
0.00141366
-0.00317092
0.00142854
-0.00315944
-0.00314987
0.00144254
3.43004e-05
-0.00022964
0.000123489
-0.000739995
0.000252196
-0.0012671
0.000402509
-0.00176725
0.000556866
-0.00220442
0.00070131
-0.00255808
0.000827153
-0.00282397
0.000930847
-0.00300996
0.00101273
-0.00313036
0.00107549
-0.00320117
0.00112278
-0.00323705
0.00115828
-0.00324989
0.00118522
-0.00324852
0.00120612
-0.00323907
0.00122286
-0.00322556
0.00123676
-0.00321053
0.00124871
-0.00319554
0.00125934
-0.00318154
0.00126902
-0.00316913
-0.00315885
0.001278
3.60024e-05
-0.000265643
0.000126994
-0.000830986
0.000254713
-0.00139481
0.000399419
-0.00191195
0.00054328
-0.00234828
0.000673406
-0.0026882
0.000782848
-0.00293341
0.000869777
-0.00309689
0.000935836
-0.00319642
0.000984451
-0.00324979
0.00101954
-0.00327214
0.00104469
-0.00327505
0.00106286
-0.00326668
0.00107623
-0.00325243
0.00108634
-0.00323567
0.00109425
-0.00321844
0.00110065
-0.00320194
0.00110602
-0.0031869
0.00111064
-0.00317375
-0.00316288
0.00111467
3.73264e-05
-0.000302969
0.000128967
-0.000922627
0.000253955
-0.0015198
0.000391184
-0.00204918
0.000523084
-0.00248018
0.000638188
-0.00280331
0.000731345
-0.00302657
0.000802298
-0.00316785
0.000853731
-0.00324785
0.000889555
-0.00328561
0.000913738
-0.00329632
0.000929671
-0.00329098
0.000939957
-0.00327697
0.00094645
-0.00325893
0.000950402
-0.00323963
0.000952636
-0.00322067
0.000953689
-0.003203
0.000953918
-0.00318713
0.000953543
-0.00317337
-0.00316201
0.000952674
3.82313e-05
-0.0003412
0.00012934
-0.00101374
0.000249949
-0.00164041
0.000378103
-0.00217733
0.000496972
-0.00259905
0.000596743
-0.00290308
0.000674031
-0.00310386
0.000729941
-0.00322375
0.000767937
-0.00328585
0.000792192
-0.00330987
0.00080657
-0.0033107
0.000814171
-0.00329858
0.000817255
-0.00328005
0.000817354
-0.00325903
0.000815466
-0.00323774
0.000812228
-0.00321744
0.000808054
-0.00319882
0.000803216
-0.00318229
0.000797883
-0.00316804
-0.00315626
0.000792132
3.86836e-05
-0.000379884
0.000128085
-0.00110314
0.000242806
-0.00175513
0.000360573
-0.0022951
0.000465697
-0.00270417
0.000550141
-0.00298752
0.000612174
-0.00316589
0.000654027
-0.00326561
0.000679707
-0.00331153
0.000693458
-0.00332362
0.000698933
-0.00331617
0.000698902
-0.00329855
0.000695285
-0.00327644
0.000689332
-0.00325307
0.000681822
-0.00323023
0.000673245
-0.00320886
0.000663918
-0.00318949
0.000654052
-0.00317243
0.000643779
-0.00315776
-0.00314564
0.000633157
3.86619e-05
-0.000418546
0.000125215
-0.00118969
0.000232712
-0.00186263
0.000339066
-0.00240146
0.000430041
-0.00279515
0.000499404
-0.00305689
0.000546911
-0.0032134
0.000575686
-0.00329438
0.000590063
-0.00332591
0.000594214
-0.00332777
0.000591511
-0.00331347
0.000584383
-0.00329142
0.000574435
-0.00326649
0.000562667
-0.00324131
0.000549681
-0.00321724
0.000535849
-0.00319503
0.000521413
-0.00317506
0.000506541
-0.00315755
0.000491338
-0.00314256
-0.00313016
0.000475852
3.81567e-05
-0.000456703
0.000120788
-0.00127232
0.000219908
-0.00196175
0.000314094
-0.00249564
0.000390772
-0.00287183
0.000445471
-0.00311159
0.000479235
-0.00324716
0.00049586
-0.00331101
0.000499826
-0.00332987
0.000495129
-0.00332307
0.000484822
-0.00330316
0.000470998
-0.0032776
0.000454984
-0.00325048
0.000437565
-0.00322389
0.000419201
-0.00319888
0.000400167
-0.00317599
0.000380649
-0.00315554
0.000360782
-0.00313769
0.000340657
-0.00312244
-0.00310981
0.000320315
3.717e-05
-0.000493873
0.000114891
-0.00135004
0.00020468
-0.00205154
0.000286183
-0.00257714
0.000348623
-0.00293427
0.000389186
-0.00315215
0.00041
-0.00326798
0.000415326
-0.00331633
0.00040965
-0.0033242
0.000396718
-0.00331014
0.00037925
-0.00328569
0.000359031
-0.00325738
0.000337137
-0.00322858
0.00031418
-0.00320093
0.000290501
-0.0031752
0.0002663
-0.00315179
0.000241717
-0.00313096
0.000216863
-0.00311283
0.000191821
-0.00309739
-0.00308463
0.000166633
3.57146e-05
-0.000529587
0.00010764
-0.00142197
0.000187334
-0.00213123
0.000255853
-0.00264566
0.000304272
-0.00298269
0.000331293
-0.00317917
0.000339926
-0.00327661
0.000334719
-0.00331113
0.000320051
-0.00330953
0.000299377
-0.00328947
0.000275088
-0.0032614
0.000248689
-0.00323098
0.000221045
-0.00320094
0.000192626
-0.00317251
0.000163674
-0.00314625
0.000134329
-0.00312245
0.000104693
-0.00310132
7.48594e-05
-0.003083
4.4907e-05
-0.00306744
-0.0030546
1.48854e-05
3.38123e-05
-0.0005634
9.91688e-05
-0.00148733
0.000168186
-0.00220025
0.000223601
-0.00270108
0.000258332
-0.00301742
0.000272438
-0.00319327
0.000269614
-0.00327379
0.000254549
-0.00329606
0.000231435
-0.00328642
0.000203409
-0.00326144
0.000172556
-0.00323055
0.000140129
-0.00319855
0.000106822
-0.00316763
7.29874e-05
-0.00313868
3.87905e-05
-0.00311205
4.31813e-06
-0.00308797
-3.03604e-05
-0.00306664
-6.5168e-05
-0.00304819
-0.000100021
-0.00303259
-0.00301977
-0.00013486
3.14928e-05
-0.000594892
8.96247e-05
-0.00154546
0.000147553
-0.00225818
0.000189892
-0.00274342
0.000211353
-0.00303888
0.000213176
-0.0031951
0.000199568
-0.00326018
0.000175234
-0.00327173
0.000144123
-0.00325531
0.000109054
-0.00322637
7.1823e-05
-0.00319332
3.34728e-05
-0.0031602
-5.4448e-06
-0.00312871
-4.46694e-05
-0.00309945
-8.40968e-05
-0.00307262
-0.000123687
-0.00304838
-0.000163401
-0.00302693
-0.000203176
-0.00300842
-0.00024292
-0.00299284
-0.00298013
-0.000282555
2.8792e-05
-0.000623684
7.91622e-05
-0.00159583
0.000125741
-0.00230476
0.000155156
-0.00277283
0.000163819
-0.00304754
0.00015398
-0.00318526
0.000130202
-0.0032364
9.71117e-05
-0.00323864
5.83764e-05
-0.00321657
1.6503e-05
-0.0031845
-2.69705e-05
-0.00314985
-7.11807e-05
-0.00311599
-0.000115687
-0.00308421
-0.000160296
-0.00305484
-0.000204954
-0.00302797
-0.00024966
-0.00300368
-0.000294411
-0.00298218
-0.000339156
-0.00296367
-0.000383789
-0.00294821
-0.00293571
-0.000428208
2.57512e-05
-0.000649435
6.79384e-05
-0.00163801
0.000103043
-0.00233986
0.000119783
-0.00278957
0.000116156
-0.00304391
9.52564e-05
-0.00316436
6.18686e-05
-0.00320301
2.04652e-05
-0.00319723
-2.55862e-05
-0.00317052
-7.40776e-05
-0.00313601
-0.000123701
-0.00310022
-0.000173741
-0.00306595
-0.00022384
-0.00303411
-0.000273854
-0.00300483
-0.000323761
-0.00297806
-0.0003736
-0.00295384
-0.000423403
-0.00293238
-0.00047314
-0.00291393
-0.000522689
-0.00289866
-0.00288649
-0.000571909
2.24149e-05
-0.00067185
5.61099e-05
-0.00167171
7.97344e-05
-0.00236348
8.41248e-05
-0.00279396
6.8737e-05
-0.00302853
3.73536e-05
-0.00313297
-5.13439e-06
-0.00316052
-5.44622e-05
-0.00314791
-0.000107571
-0.00311741
-0.000162533
-0.00308105
-0.000218244
-0.00304451
-0.000274111
-0.00301008
-0.000329836
-0.00297838
-0.0003853
-0.00294936
-0.000440503
-0.00292286
-0.000495515
-0.00289883
-0.000550411
-0.00287748
-0.000605194
-0.00285915
-0.000659729
-0.00284413
-0.00283241
-0.000713814
1.88304e-05
-0.000690681
4.38293e-05
-0.00169671
5.60714e-05
-0.00237573
4.84993e-05
-0.00278639
2.18909e-05
-0.00300192
-1.94256e-05
-0.00309166
-7.05456e-05
-0.0031094
-0.000127451
-0.003091
-0.000187392
-0.00305747
-0.000248704
-0.00301973
-0.000310461
-0.00298275
-0.000372172
-0.00294837
-0.000433582
-0.00291697
-0.000494577
-0.00288837
-0.000555157
-0.00286228
-0.000615412
-0.00283857
-0.000675466
-0.00281743
-0.000735372
-0.00279925
-0.000794993
-0.0027845
-0.00277337
-0.00085403
1.50465e-05
-0.000705727
3.12439e-05
-0.00171291
3.22905e-05
-0.00237677
1.31905e-05
-0.00276729
-2.40933e-05
-0.00296463
-7.48141e-05
-0.00304094
-0.00013413
-0.00305009
-0.000198295
-0.00302684
-0.000264862
-0.0029909
-0.00033241
-0.00295219
-0.00040018
-0.00291499
-0.000467767
-0.00288079
-0.000534945
-0.00284979
-0.000601592
-0.00282172
-0.000667682
-0.00279619
-0.000733299
-0.00277296
-0.000798609
-0.00275212
-0.000863729
-0.00273413
-0.000928537
-0.0027197
-0.00270932
-0.000992591
1.11123e-05
-0.00071684
1.84937e-05
-0.00172029
8.60813e-06
-0.00236689
-2.15473e-05
-0.00273714
-6.89595e-05
-0.00291722
-0.000128574
-0.00298132
-0.000195669
-0.00298299
-0.000266789
-0.00295572
-0.000339777
-0.00291792
-0.000413442
-0.00287852
-0.000487177
-0.00284125
-0.000560665
-0.0028073
-0.000633712
-0.00277675
-0.000706178
-0.00274926
-0.000777987
-0.00272438
-0.00084918
-0.00270176
-0.000919933
-0.00268136
-0.000990438
-0.00266362
-0.00106061
-0.00264953
-0.00264004
-0.00112989
7.07642e-06
-0.000723916
5.70995e-06
-0.00171892
-1.47795e-05
-0.0023464
-5.54886e-05
-0.00269643
-0.000112481
-0.00286023
-0.00018049
-0.00291331
-0.00025496
-0.00290852
-0.000332728
-0.00287795
-0.000411916
-0.00283873
-0.000491549
-0.00279889
-0.000571168
-0.00276163
-0.000650551
-0.00272791
-0.000729553
-0.00269775
-0.00080803
-0.00267078
-0.000885856
-0.00264655
-0.000962991
-0.00262463
-0.00103959
-0.00260477
-0.00111593
-0.00258727
-0.00119201
-0.00257345
-0.00256458
-0.00126746
2.98615e-06
-0.000726902
-6.98628e-06
-0.00170895
-3.7697e-05
-0.00231569
-8.84354e-05
-0.00264569
-0.000154461
-0.0027942
-0.000230371
-0.0028374
-0.000311809
-0.00282709
-0.000395903
-0.00279386
-0.000481039
-0.00275359
-0.000566444
-0.00271348
-0.000651806
-0.00267627
-0.000737016
-0.0026427
-0.000822009
-0.00261275
-0.000906687
-0.0025861
-0.0009909
-0.00256234
-0.00107454
-0.00254099
-0.0011577
-0.0025216
-0.00124079
-0.00250418
-0.00132403
-0.00249022
-0.00248062
-0.00140799
-1.11393e-06
-0.000725788
-1.94857e-05
-0.00169058
-5.99911e-05
-0.00227518
-0.000120218
-0.00258546
-0.000194729
-0.00271969
-0.000278049
-0.00275408
-0.000366038
-0.0027391
-0.000456106
-0.00270379
-0.000546883
-0.00266281
-0.000637785
-0.00262258
-0.000728645
-0.00258541
-0.000819491
-0.00255186
-0.000910399
-0.00252185
-0.0010014
-0.0024951
-0.00109245
-0.00247129
-0.00118343
-0.00245001
-0.00127435
-0.00243068
-0.00136558
-0.00241296
-0.00145768
-0.00239811
-0.00238489
-0.00155341
-5.18282e-06
-0.000720605
-3.16924e-05
-0.00166407
-8.15324e-05
-0.00222534
-0.000150698
-0.0025163
-0.000233149
-0.00263724
-0.000323389
-0.00266384
-0.000417499
-0.00264499
-0.000513149
-0.00260814
-0.000609188
-0.00256677
-0.000705188
-0.00252658
-0.000801112
-0.00248948
-0.000897123
-0.00245585
-0.000993479
-0.00242549
-0.00109048
-0.0023981
-0.0011884
-0.00237337
-0.00128745
-0.00235096
-0.00138774
-0.00233038
-0.00148986
-0.00231084
-0.0015961
-0.00229187
-0.0022851
-0.00169589
-9.17179e-06
-0.000711434
-4.35053e-05
-0.00162973
-0.000102193
-0.00216665
-0.000179746
-0.00243874
-0.000269603
-0.00254739
-0.000366281
-0.00256717