/*--------------------------------*- C++ -*----------------------------------*\
  =========                 |
  \\      /  F ield         | OpenFOAM: The Open Source CFD Toolbox
   \\    /   O peration     | Website:  https://openfoam.org
    \\  /    A nd           | Version:  6.0
     \\/     M anipulation  |
\*---------------------------------------------------------------------------*/
FoamFile
{
    version     2.0;
    format      ascii;
    class       surfaceScalarField;
    location    "7.6";
    object      phi;
}
// * * * * * * * * * * * * * * * * * * * * * * * * * * * * * * * * * * * * * //

dimensions      [0 3 -1 0 0 0 0];

internalField   nonuniform List<scalar> 
15760
(
-7.06734e-06
6.91755e-06
1.49788e-07
-2.42544e-05
1.6808e-05
3.79104e-07
-4.88922e-05
2.40823e-05
5.55447e-07
-7.90607e-05
2.94784e-05
6.90122e-07
-0.000113345
3.34924e-05
7.92313e-07
-0.000150708
3.64926e-05
8.69721e-07
-0.000190392
3.87556e-05
9.28548e-07
-0.000231857
4.04916e-05
9.73571e-07
-0.000274728
4.1863e-05
1.00829e-06
-0.00031876
4.29967e-05
1.03511e-06
-0.000363809
4.39929e-05
1.05558e-06
-0.000409811
4.49319e-05
1.07064e-06
-0.000456771
4.58784e-05
1.08086e-06
-0.000504742
4.68847e-05
1.08658e-06
-0.000553822
4.79923e-05
1.08806e-06
-0.000604141
4.92336e-05
1.08558e-06
-0.000655852
5.0631e-05
1.07943e-06
-0.000709114
5.21917e-05
1.06987e-06
-0.000764085
5.39145e-05
1.05721e-06
5.58342e-05
1.04202e-06
-0.000820961
-6.85162e-06
1.37692e-05
-2.3559e-05
3.35154e-05
-4.75439e-05
4.80672e-05
-7.69371e-05
5.88716e-05
-0.000110352
6.69069e-05
-0.000146761
7.29017e-05
-0.000185411
7.74056e-05
-0.000225757
8.08378e-05
-0.000267416
8.35222e-05
-0.000310132
8.57122e-05
-0.000353747
8.76085e-05
-0.000398187
8.93719e-05
-0.000443441
9.11328e-05
-0.000489553
9.29967e-05
-0.00053661
9.50487e-05
-0.000584732
9.73562e-05
-0.000634069
9.99674e-05
-0.000684778
0.000102901
-0.00073702
0.000106157
0.000109805
-0.00079099
-6.43168e-06
2.02009e-05
-2.2202e-05
4.92856e-05
-4.49083e-05
7.07735e-05
-7.27805e-05
8.67438e-05
-0.000104485
9.86114e-05
-0.000139019
0.000107436
-0.000175635
0.000114021
-0.00021378
0.000118983
-0.000253056
0.000122797
-0.000293184
0.000125841
-0.000333985
0.00012841
-0.000375359
0.000130745
-0.000417269
0.000133043
-0.000459737
0.000135464
-0.000502828
0.00013814
-0.000546651
0.000141178
-0.000591342
0.000144659
-0.00063706
0.000148619
-0.000683971
0.000153068
0.000158109
-0.000732276
-5.83478e-06
2.60356e-05
-2.02653e-05
6.37162e-05
-4.11358e-05
9.1644e-05
-6.68159e-05
0.000112424
-9.60491e-05
0.000127845
-0.000127869
0.000139256
-0.000161536
0.000147688
-0.000196489
0.000153936
-0.000232308
0.000158617
-0.000268688
0.00016222
-0.000305415
0.000165137
-0.000342354
0.000167684
-0.000379432
0.000170122
-0.000416638
0.00017267
-0.000454009
0.000175511
-0.00049163
0.0001788
-0.00052963
0.000182658
-0.000568166
0.000187155
-0.000607417
0.000192318
0.000198291
-0.000647598
-5.09916e-06
3.11348e-05
-1.7865e-05
7.6482e-05
-3.64395e-05
0.000110219
-5.93639e-05
0.000135348
-8.54778e-05
0.000153959
-0.000113861
0.00016764
-0.000143789
0.000177616
-0.000174692
0.000184838
-0.000206127
0.000190052
-0.000237755
0.000193848
-0.000269322
0.000196705
-0.00030065
0.000199011
-0.000331622
0.000201094
-0.000362184
0.000203232
-0.000392339
0.000205666
-0.000422144
0.000208605
-0.000451712
0.000212227
-0.000481209
0.000216652
-0.000510836
0.000221945
0.000228297
-0.000540843
-4.27107e-06
3.54059e-05
-1.51421e-05
8.7353e-05
-3.10815e-05
0.000126158
-5.08208e-05
0.000155088
-7.33096e-05
0.000176447
-9.76845e-05
0.000192015
-0.00012324
0.000203171
-0.000149401
0.000211
-0.000175704
0.000216355
-0.000201774
0.000219919
-0.000227315
0.000222245
-0.000252098
0.000223794
-0.000275956
0.000224952
-0.000298785
0.000226061
-0.000320543
0.000227424
-0.000341256
0.000229318
-0.000361022
0.000231993
-0.000380014
0.000235645
-0.000398474
0.000240405
0.000246533
-0.00041671
-3.40117e-06
3.8807e-05
-1.22532e-05
9.62051e-05
-2.53542e-05
0.000139259
-4.16322e-05
0.000171366
-6.0154e-05
0.000194969
-8.01199e-05
0.000211981
-0.000100851
0.000223903
-0.000121775
0.000231923
-0.000142408
0.000236987
-0.000162342
0.000239853
-0.000181239
0.000241142
-0.000198818
0.000241372
-0.000214856
0.00024099
-0.000229191
0.000240397
-0.00024173
0.000239963
-0.000252457
0.000240044
-0.000261448
0.000240985
-0.00026889
0.000243087
-0.000275077
0.000246591
0.00025187
-0.000280414
-2.54075e-06
4.13478e-05
-9.35864e-06
0.000103023
-1.95604e-05
0.000149461
-3.22629e-05
0.000184068
-4.66506e-05
0.000209357
-6.19928e-05
0.000227323
-7.76447e-05
0.000239555
-9.30417e-05
0.00024732
-0.00010769
0.000251635
-0.000121156
0.000253319
-0.000133059
0.000253046
-0.000143069
0.000251382
-0.000150904
0.000248825
-0.000156337
0.00024583
-0.000159211
0.000242837
-0.000159456
0.000240289
-0.000157117
0.000238645
-0.000152384
0.000238355
-0.000145621
0.000239828
0.000243618
-0.000137369
-1.73794e-06
4.30857e-05
-6.61101e-06
0.000107896
-1.39912e-05
0.000156841
-2.31639e-05
0.000193241
-3.34245e-05
0.000219617
-4.41126e-05
0.000238011
-5.46245e-05
0.000250067
-6.44135e-05
0.000257109
-7.29847e-05
0.000260206
-7.98878e-05
0.000260222
-8.47107e-05
0.000257869
-8.70759e-05
0.000253747
-8.6642e-05
0.000248391
-8.31125e-05
0.0002423
-7.62528e-05
0.000235977
-6.59192e-05
0.000229955
-5.21016e-05
0.000224827
-3.49807e-05
0.000221234
-1.49868e-05
0.000219834
0.000221478
7.15407e-06
-1.03433e-06
4.41201e-05
-4.14401e-06
0.000111006
-8.90451e-06
0.000161601
-1.47378e-05
0.000199074
-2.10367e-05
0.000225916
-2.72092e-05
0.000244183
-3.26975e-05
0.000255555
-3.69824e-05
0.000261394
-3.95803e-05
0.000262804
-4.00366e-05
0.000260679
-3.79191e-05
0.000255751
-3.28132e-05
0.000248641
-2.43225e-05
0.0002399
-1.20765e-05
0.000230054
4.24885e-06
0.000219652
2.48949e-05
0.000209309
4.99606e-05
0.000199762
7.93113e-05
0.000191883
0.000112465
0.00018668
0.000185469
0.000148473
-4.61986e-07
4.4582e-05
-2.06232e-06
0.000112606
-4.50426e-06
0.000164043
-7.30558e-06
0.000201875
-9.93614e-06
0.000228547
-1.18658e-05
0.000246113
-1.25847e-05
0.000256274
-1.16094e-05
0.000260419
-8.47924e-06
0.000259674
-2.74976e-06
0.000254949
6.01616e-06
0.000246985
1.82556e-05
0.000236402
3.44093e-05
0.000223746
5.49174e-05
0.000209546
8.02013e-05
0.000194368
0.000110624
0.000178887
0.000146413
0.000163973
0.000187535
0.00015076
0.000233503
0.000140712
0.000135848
0.000283125
-4.11819e-08
4.46232e-05
-4.33273e-07
0.000112998
-9.23136e-07
0.000164533
-1.07665e-06
0.000202029
-4.14552e-07
0.000227885
1.54381e-06
0.000244155
5.26276e-06
0.000252555
1.11866e-05
0.000254495
1.97438e-05
0.000251117
3.13561e-05
0.000243337
4.64493e-05
0.000231892
6.54646e-05
0.000217387
8.88682e-05
0.000200343
0.000117155
0.00018126
0.000150837
0.000160686
0.00019041
0.000139314
0.00023627
0.000118113
0.000288549
9.84814e-05
0.000346832
8.2429e-05
7.29775e-05
0.000409702
2.2114e-07
4.44021e-05
7.19182e-07
0.0001125
1.79106e-06
0.000163461
3.87472e-06
0.000199945
7.43035e-06
0.000224329
1.29078e-05
0.000238677
2.07363e-05
0.000244727
3.13243e-05
0.000243907
4.5067e-05
0.000237374
6.23565e-05
0.000226047
8.35947e-05
0.000210654
0.000109208
0.000191773
0.000139663
0.000169887
0.000175481
0.000145443
0.000217236
0.00011893
0.00026554
9.10092e-05
0.000320966
6.26868e-05
0.000383868
3.558e-05
0.000454003
1.22933e-05
-2.83098e-06
0.000529812
3.32173e-07
4.40699e-05
1.41788e-06
0.000111414
3.68339e-06
0.000161196
7.62435e-06
0.000196004
1.37188e-05
0.000218235
2.24124e-05
0.000229984
3.41186e-05
0.00023302
4.92254e-05
0.0002288
6.81049e-05
0.000218495
9.11242e-05
0.000203028
0.000118659
0.000183119
0.000151108
0.000159324
0.000188912
0.000132083
0.000232574
0.00010178
0.000282678
6.88265e-05
0.00033989
3.37973e-05
0.000404913
-2.33629e-06
0.000478325
-3.78319e-05
0.000560152
-6.95342e-05
-9.15237e-05
0.000648845
3.13194e-07
4.37567e-05
1.73266e-06
0.000109995
4.89323e-06
0.000158035
1.04019e-05
0.000190495
1.87962e-05
0.00020984
3.0552e-05
0.000218228
4.60983e-05
0.000217474
6.58307e-05
0.000209068
9.01235e-05
0.000194202
0.00011934
0.000173811
0.000153842
0.000148617
0.000194
0.000119166
0.00024021
8.5874e-05
0.000292909
4.90809e-05
0.000352608
9.12754e-06
0.000419915
-3.3509e-05
0.000495534
-7.79557e-05
0.00058017
-0.000122468
0.00067414
-0.000163505
-0.000193508
0.000776124
1.9852e-07
4.35582e-05
1.77712e-06
0.000108416
5.64809e-06
0.000154164
1.25816e-05
0.000183562
2.32195e-05
0.000199202
3.81105e-05
0.000203337
5.77407e-05
0.000197844
8.25548e-05
0.000184254
0.00011297
0.000163787
0.000149382
0.000137399
0.000192169
0.000105831
0.000241688
6.96466e-05
0.000298282
2.928e-05
0.000362283
-1.49199e-05
0.000434034
-6.2624e-05
0.000513932
-0.000113407
0.00060247
-0.000166493
0.000700237
-0.000220235
0.000807702
-0.00027097
-0.000309764
0.000923958
3.33685e-08
4.35248e-05
1.70126e-06
0.000106749
6.24914e-06
0.000149616
1.46583e-05
0.000175153
2.77217e-05
0.000186139
4.61089e-05
0.000184949
7.04124e-05
0.00017354
0.000101176
0.00015349
0.00013891
0.000126053
0.000184089
9.22204e-05
0.000237145
5.27749e-05
0.000298451
8.34076e-06
0.000368301
-4.05697e-05
0.000446893
-9.35117e-05
0.000534325
-0.000150057
0.000630625
-0.000209706
0.000735814
-0.000271683
0.000849998
-0.000334419
0.000973368
-0.00039434
-0.000441797
0.0011054
-1.29527e-07
4.36544e-05
1.68026e-06
0.000104939
7.04841e-06
0.000144248
1.72096e-05
0.000164992
3.31542e-05
0.000170194
5.57215e-05
0.000162382
8.56616e-05
0.0001436
0.000123668
0.000115483
0.000170391
7.93305e-05
0.000226425
3.61863e-05
0.000292291
-1.30918e-05
0.000368401
-6.77689e-05
0.000455009
-0.000127178
0.000552166
-0.000190669
0.000659675
-0.000257565
0.000777071
-0.000327103
0.000903677
-0.000398289
0.00103873
-0.000469471
0.0011815
-0.000537108
-0.000591772
0.00133147
-2.34387e-07
4.38888e-05
1.89969e-06
0.000102805
8.41903e-06
0.000137729
2.08465e-05
0.000152564
4.04112e-05
0.00015063
6.81669e-05
0.000134626
0.000105064
0.000106703
0.000151984
6.85631e-05
0.000209745
2.15699e-05
0.000279082
-3.31509e-05
0.000360614
-9.46243e-05
0.000454794
-0.000161948
0.000561843
-0.000234227
0.000681681
-0.000310507
0.000813839
-0.000389723
0.000957364
-0.000470628
0.00111077
-0.000551691
0.00127205
-0.000630752
0.00143886
-0.000703922
-0.000762859
0.00160995
-2.27543e-07
4.41163e-05
2.53887e-06
0.000100038
1.07218e-05
0.000129546
2.61571e-05
0.000137129
5.03449e-05
0.000126442
8.45848e-05
0.000100386
0.000130051
6.12367e-05
0.000187823
1.07912e-05
0.000258878
-4.94843e-05
0.00034406
-0.000118334
0.000444043
-0.000194607
0.000559273
-0.000277178
0.000689922
-0.000364876
0.000835839
-0.000456424
0.000996499
-0.000550383
0.00117093
-0.000645064
0.00135761
-0.000738363
0.00155391
-0.000827061
0.00175408
-0.000904082
-0.00094918
0.0019404
-6.32011e-08
4.41795e-05
3.75358e-06
9.62215e-05
1.42713e-05
0.000119028
3.36515e-05
0.000117749
6.3682e-05
9.64115e-05
0.000105918
5.81503e-05
0.000161751
5.40416e-06
0.000232419
-5.98775e-05
0.00031899
-0.000136055
0.000422311
-0.000221655
0.000542963
-0.000315259
0.000681218
-0.000415433
0.000837023
-0.000520681
0.00101003
-0.000629427
0.00119967
-0.000740024
0.00140539
-0.000850788
0.00162705
-0.000960026
0.00186596
-0.00106597
0.00212847
-0.0011666
-0.00125235
0.00243164
2.95374e-07
4.38841e-05
5.66777e-06
9.08491e-05
1.93154e-05
0.000105381
4.37229e-05
9.33412e-05
8.09622e-05
5.91722e-05
0.000132824
6.28855e-06
0.000200864
-6.26357e-05
0.000286391
-0.000145404
0.000390418
-0.000240082
0.000513599
-0.000344836
0.000656172
-0.000457832
0.000817924
-0.000577185
0.000998194
-0.000700951
0.00119593
-0.000827159
0.00140978
-0.000953875
0.00163829
-0.0010793
0.00188014
-0.00120187
0.00213459
-0.00132042
0.00240216
-0.00143416
-0.00153397
0.00268377
8.70033e-07
4.30141e-05
8.36055e-06
8.33585e-05
2.60133e-05
8.77278e-05
5.66158e-05
6.27386e-05
0.000102494
1.32942e-05
0.000165615
-5.68324e-05
0.000247599
-0.00014462
0.000349672
-0.000247477
0.000472584
-0.000362994
0.000616534
-0.000488786
0.000781114
-0.000622412
0.000965295
-0.000761367
0.00116747
-0.000903124
0.00138553
-0.00104522
0.00161701
-0.00118535
0.00185923
-0.00132152
0.00210944
-0.00145208
0.00236493
-0.00157592
0.00262312
-0.00169234
-0.00179377
0.00288291
1.67112e-06
4.1343e-05
1.18713e-05
7.31584e-05
3.44404e-05
6.51587e-05
7.24273e-05
2.47517e-05
0.000128349
-4.26275e-05
0.000204248
-0.000132731
0.000301653
-0.000242025
0.000421491
-0.000367315
0.000563986
-0.000505489
0.00072858
-0.000653381
0.000913915
-0.000807747
0.00111787
-0.000965319
0.00133766
-0.00112292
0.00157002
-0.00127758
0.00181138
-0.00142671
0.00205804
-0.00156818
0.00230636
-0.0017004
0.00255279
-0.00182235
0.00279405
-0.0019336
-0.00202896
0.00302924
2.69943e-06
3.86436e-05
1.6205e-05
5.96528e-05
4.45967e-05
3.67671e-05
9.11183e-05
-2.17699e-05
0.000158378
-0.000109887
0.000248339
-0.000222692
0.000362226
-0.000355912
0.000500399
-0.000505488
0.000662248
-0.000667338
0.000846158
-0.000837291
0.00104956
-0.00101115
0.00126906
-0.00118482
0.00150068
-0.00135454
0.0017401
-0.001517
0.00198294
-0.00166955
0.00222497
-0.00181021
0.00246233
-0.00193776
0.00269161
-0.00205163
0.00290994
-0.00215193
-0.00223578
0.00311676
3.95013e-06
3.46934e-05
2.13427e-05
4.22602e-05
5.64236e-05
1.68614e-06
0.000112535
-7.78817e-05
0.000192232
-0.000189584
0.000297192
-0.000327652
0.000428065
-0.000486785
0.00058433
-0.000661753
0.000764234
-0.000847242
0.000964841
-0.0010379
0.00118221
-0.00122852
0.0014117
-0.0014143
0.00164827
-0.00159111
0.00188692
-0.00175565
0.00212294
-0.00190557
0.00235219
-0.00203946
0.00257127
-0.00215684
0.00277757
-0.00225793
0.0029693
-0.00234366
-0.00241308
0.0031466
5.41635e-06
2.92771e-05
2.725e-05
2.04266e-05
6.9818e-05
-4.08819e-05
0.000136429
-0.000144493
0.000229389
-0.000282544
0.000349828
-0.000448091
0.000497503
-0.00063446
0.000670691
-0.00083494
0.000866215
-0.00104277
0.00107966
-0.00125135
0.00130574
-0.00145459
0.00153873
-0.00164729
0.00177296
-0.00182534
0.00200323
-0.00198592
0.0022251
-0.00212744
0.00243514
-0.0022495
0.00263092
-0.00235262
0.00281105
-0.00243806
0.00297499
-0.00250761
-0.00256183
0.00312374
7.09138e-06
2.21857e-05
3.38827e-05
-6.36474e-06
8.46395e-05
-9.16386e-05
0.000162461
-0.000222315
0.00026916
-0.000389243
0.000405001
-0.000583932
0.000568515
-0.000797973
0.000756471
-0.0010229
0.000964097
-0.00125039
0.0011855
-0.00147275
0.00141426
-0.00168335
0.001644
-0.00187703
0.00186894
-0.00205028
0.00208429
-0.00220127
0.00228646
-0.00232962
0.00247314
-0.00243618
0.00264321
-0.00252269
0.00279656
-0.00259141
0.00293388
-0.00264493
-0.00268486
0.00305692
8.96869e-06
1.3217e-05
4.11865e-05
-3.85825e-05
0.000100708
-0.00015116
0.000190202
-0.000311809
0.000310686
-0.000509726
0.000461219
-0.000734465
0.000638773
-0.000975528
0.000838403
-0.00122253
0.00105372
-0.00146571
0.00127756
-0.0016966
0.00150279
-0.00190858
0.00172294
-0.00209718
0.00193273
-0.00226008
0.00212833
-0.00239687
0.00230742
-0.0025087
0.00246903
-0.00259779
0.00261335
-0.00266701
0.00274143
-0.00271949
0.00285486
-0.00275836
-0.00278592
0.00295591
1.10402e-05
2.17686e-06
4.90908e-05
-7.66332e-05
0.000117795
-0.000219865
0.000219117
-0.000413131
0.000352942
-0.000643551
0.000516771
-0.000898294
0.000705763
-0.00116452
0.000913182
-0.00142995
0.00113119
-0.00168372
0.0013518
-0.0019172
0.00156771
-0.00212449
0.00177299
-0.00230246
0.0019634
-0.00245048
0.00213644
-0.00256992
0.00229123
-0.00266349
0.00242814
-0.0027347
0.00254846
-0.00278734
0.00265408
-0.00282511
0.00274714
-0.00285142
-0.00286888
0.00283011
1.32932e-05
-1.11163e-05
5.75021e-05
-0.000120842
0.000135611
-0.000297974
0.000248561
-0.000526081
0.000394745
-0.000789735
0.0005698
-0.00107335
0.000766929
-0.00136165
0.000977728
-0.00164074
0.0011933
-0.00189929
0.00140537
-0.00212927
0.00160713
-0.00232625
0.00179373
-0.00248905
0.00196232
-0.00261908
0.00211193
-0.00271952
0.00224301
-0.00279457
0.00235707
-0.00284875
0.00245618
-0.00288645
0.0025427
-0.00291163
0.00261896
-0.00292768
-0.00293726
0.00268734
1.57078e-05
-2.68241e-05
6.62963e-05
-0.000171431
0.000153798
-0.000385476
0.000277781
-0.000650064
0.000434798
-0.000946752
0.000618403
-0.00125695
0.000819873
-0.00156312
0.00102945
-0.00185033
0.00123774
-0.00210757
0.0014368
-0.00232834
0.00162089
-0.00251034
0.00178659
-0.00265475
0.00193264
-0.00276512
0.00205946
-0.00284635
0.00216868
-0.00290379
0.00226255
-0.00294262
0.0023436
-0.0029675
0.00241431
-0.00298234
0.00247696
-0.00299032
-0.00299396
0.00253366
1.82542e-05
-4.50784e-05
7.53155e-05
-0.000228492
0.000171933
-0.000482093
0.000305939
-0.000784069
0.000471754
-0.00111257
0.000660767
-0.00144597
0.000862551
-0.0017649
0.00106649
-0.00205427
0.0012633
-0.00230438
0.001446
-0.00251104
0.00161029
-0.00267463
0.00175437
-0.00279884
0.00187849
-0.00288924
0.00198426
-0.00295212
0.0020741
-0.00299362
0.00215069
-0.00301922
0.0022167
-0.00303351
0.00227451
-0.00304015
0.00232616
-0.00304197
-0.00304121
0.0023734
2.08926e-05
-6.59709e-05
8.43686e-05
-0.000291968
0.000189538
-0.000587263
0.000332155
-0.000926686
0.000504309
-0.00128472
0.000695312
-0.00163697
0.000893435
-0.00196303
0.00108781
-0.00224865
0.00126989
-0.00248646
0.00143407
-0.00267522
0.00157774
-0.00281829
0.00170068
-0.00292178
0.0018044
-0.00299296
0.00189138
-0.0030391
0.0019645
-0.00306674
0.00202659
-0.00308131
0.0020802
-0.00308712
0.00212746
-0.00308741
0.00217009
-0.0030846
-0.00308062
0.00220951
2.35726e-05
-8.95435e-05
9.3237e-05
-0.000361632
0.000206104
-0.00070013
0.000355556
-0.00107614
0.000531291
-0.00146046
0.000720809
-0.00182649
0.00091162
-0.00215384
0.00109323
-0.00243026
0.00125833
-0.00265155
0.00140301
-0.0028199
0.00152629
-0.00294158
0.00162937
-0.00302486
0.00171471
-0.0030783
0.00178533
-0.00310972
0.00184427
-0.00312568
0.00189425
-0.0031313
0.00193759
-0.00313046
0.0019761
-0.00312592
0.00201118
-0.00311968
-0.00311334
0.0020439
2.62358e-05
-0.000115779
0.000101684
-0.000437081
0.000221116
-0.000819562
0.000375339
-0.00123036
0.000551751
-0.00163687
0.000736465
-0.0020112
0.000916839
-0.00233421
0.00108333
-0.00259675
0.0012302
-0.00279843
0.00135531
-0.002945
0.0014592
-0.00304547
0.00154417
-0.00310983
0.00161331
-0.00314745
0.00166988
-0.00316629
0.00171683
-0.00317263
0.00175668
-0.00317115
0.00179139
-0.00316517
0.00182246
-0.00315699
0.001851
-0.00314822
-0.00314014
0.00187779
2.88174e-05
-0.000144597
0.000109467
-0.000517731
0.000234085
-0.00094418
0.000390819
-0.00138709
0.000565017
-0.00181107
0.000741943
-0.00218813
0.000909405
-0.00250167
0.00105925
-0.00274659
0.00118751
-0.00292669
0.0012937
-0.00305119
0.00137965
-0.00313142
0.00144843
-0.00317861
0.00150348
-0.00320249
0.00154802
-0.00321083
0.00158481
-0.00320942
0.00161604
-0.00320237
0.00164333
-0.00319246
0.0016679
-0.00318155
0.00169057
-0.00317089
-0.0031615
0.00171193
3.12494e-05
-0.000175846
0.000116349
-0.00060283
0.000244579
-0.00107241
0.000401476
-0.00154399
0.000570731
-0.00198032
0.000737344
-0.00235474
0.000890107
-0.00265444
0.00102254
-0.00287902
0.00113246
-0.00303662
0.00122085
-0.00313958
0.00129053
-0.0032011
0.00134502
-0.00323311
0.00138785
-0.00324532
0.00142207
-0.00324505
0.00145013
-0.00323748
0.00147386
-0.0032261
0.0014946
-0.0032132
0.00151328
-0.00320023
0.00153053
-0.00318815
-0.00317774
0.00154677
3.34638e-05
-0.00020931
0.000122112
-0.000691478
0.000252246
-0.00120255
0.000406978
-0.00169872
0.000568836
-0.00214218
0.000723139
-0.00250905
0.00086007
-0.00279137
0.000974957
-0.00299391
0.00106729
-0.00312895
0.00113926
-0.00321154
0.00119433
-0.00325617
0.00123628
-0.00327505
0.00126849
-0.00327753
0.00129375
-0.00327031
0.00131415
-0.00325788
0.00133121
-0.00324316
0.00134598
-0.00322797
0.00135918
-0.00321343
0.00137129
-0.00320026
-0.00318904
0.00138259
3.53956e-05
-0.000244705
0.000126568
-0.000782651
0.000256831
-0.00133281
0.000407187
-0.00184908
0.000559554
-0.00229455
0.000700081
-0.00264957
0.000820623
-0.00291191
0.000918312
-0.0030916
0.000994101
-0.00320474
0.00105109
-0.00326853
0.00109316
-0.00329824
0.00112406
-0.00330595
0.00114697
-0.00330043
0.00116431
-0.00328765
0.00117785
-0.00327142
0.0011888
-0.00325412
0.00119799
-0.00323716
0.00120597
-0.00322142
0.0012131
-0.00320738
-0.00319551
0.00121957
3.69898e-05
-0.000281695
0.000129578
-0.000875239
0.000258197
-0.00146143
0.000402164
-0.00199304
0.000543342
-0.00243572
0.000669134
-0.00277536
0.000773198
-0.00301597
0.000854364
-0.00317276
0.000914793
-0.00326517
0.000958227
-0.00331197
0.000988707
-0.00332872
0.00100983
-0.00332708
0.00102446
-0.00331506
0.00103467
-0.00329786
0.00104192
-0.00327866
0.00104715
-0.00325935
0.00105102
-0.00324103
0.00105393
-0.00322433
0.00105617
-0.00320961
-0.00319721
0.00105786
3.81889e-05
-0.000319884
0.000131022
-0.000968072
0.000256281
-0.00158668
0.00039209
-0.00212885
0.000520781
-0.00256442
0.00063131
-0.00288589
0.000719165
-0.00310383
0.000784686
-0.00323828
0.000830976
-0.00331146
0.000862167
-0.00334316
0.00088228
-0.00334884
0.000894655
-0.00333945
0.0009018
-0.00332221
0.000905462
-0.00330152
0.000906804
-0.00328
0.000906579
-0.00325913
0.000905276
-0.00323973
0.000903218
-0.00322227
0.000900605
-0.003207
-0.00319414
0.000897539
3.8956e-05
-0.00035884
0.000130851
-0.00105997
0.000251149
-0.00170698
0.000377314
-0.00225502
0.000492599
-0.0026797
0.000587703
-0.002981
0.000659868
-0.00317599
0.00071072
-0.00328913
0.000744051
-0.00334479
0.000764166
-0.00336327
0.000774929
-0.0033596
0.000779363
-0.00334389
0.000779624
-0.00332247
0.00077715
-0.00329905
0.000772861
-0.00327571
0.000767339
-0.00325361
0.000760961
-0.00323335
0.000753977
-0.00321529
0.000746539
-0.00319956
-0.00318632
0.000738724
3.92621e-05
-0.000398102
0.000129051
-0.00114976
0.000242941
-0.00182087
0.000358265
-0.00237034
0.000459564
-0.002781
0.000539363
-0.0030608
0.000596518
-0.00323315
0.000633703
-0.00332632
0.000655161
-0.00336625
0.000665205
-0.00337332
0.000667447
-0.00336184
0.000664566
-0.00334101
0.000658384
-0.00331629
0.000650064
-0.00329073
0.000640324
-0.00326597
0.000629609
-0.00324289
0.000618211
-0.00322195
0.000606324
-0.0032034
0.000594069
-0.00318731
-0.00317376
0.000581506
3.90901e-05
-0.000437192
0.000125655
-0.00123632
0.000231868
-0.00192709
0.000335432
-0.00247391
0.000422452
-0.00286802
0.000487275
-0.00312562
0.000530189
-0.00327606
0.000554676
-0.00335081
0.000565233
-0.00337681
0.00056605
-0.00337414
0.000560432
-0.00335622
0.000550713
-0.00333129
0.000538407
-0.00330398
0.000524442
-0.00327676
0.000509368
-0.0032509
0.000493525
-0.00322705
0.000477137
-0.00320556
0.000460357
-0.00318662
0.000443287
-0.00317024
-0.00315645
0.000425975
3.84348e-05
-0.000475627
0.00012073
-0.00131862
0.000218187
-0.00202454
0.000309333
-0.00256505
0.000382018
-0.00294071
0.000432339
-0.00317594
0.000461809
-0.00330553
0.000474504
-0.0033635
0.000475007
-0.00337731
0.000467292
-0.00336642
0.000454333
-0.00334326
0.000438131
-0.00331509
0.000419929
-0.00328578
0.000400455
-0.00325729
0.000380125
-0.00323057
0.000359193
-0.00320612
0.00033783
-0.0031842
0.000316161
-0.00316495
0.000294275
-0.00314835
-0.00313439
0.000272216
3.7302e-05
-0.000512929
0.000114375
-0.00139569
0.000202191
-0.00211236
0.000280491
-0.00264335
0.00033897
-0.00299919
0.000375353
-0.00321232
0.000392171
-0.00332235
0.000393897
-0.00336523
0.000385069
-0.00336848
0.000369386
-0.00335074
0.000349484
-0.00332336
0.00032706
-0.00329266
0.000303122
-0.00326184
0.00027823
-0.0032324
0.000252695
-0.00320504
0.000226697
-0.00318012
0.000200367
-0.00315787
0.000173811
-0.0031384
0.000147108
-0.00312165
-0.00310759
0.000120305
3.57074e-05
-0.000548637
0.00010671
-0.00146669
0.000184191
-0.00218984
0.000249415
-0.00270858
0.000293956
-0.00304373
0.000317016
-0.00323538
0.00032194
-0.00332728
0.000313429
-0.00335672
0.000295878
-0.00335093
0.000272678
-0.00332754
0.000246137
-0.00329682
0.000217679
-0.0032642
0.000188112
-0.00323227
0.000157863
-0.00320215
0.000127153
-0.00317432
9.61045e-05
-0.00314907
6.48143e-05
-0.00312658
3.33703e-05
-0.00310695
1.85248e-06
-0.00309013
-0.00307605
-2.96876e-05
3.36753e-05
-0.000582312
9.78751e-05
-0.00153089
0.0001645
-0.00225646
0.000216587
-0.00276066
0.000247561
-0.0030747
0.00025793
-0.00324575
0.000251668
-0.00332101
0.000233564
-0.00333861
0.000207797
-0.00332516
0.000177435
-0.00329718
0.000144481
-0.00326387
0.000110119
-0.00322984
7.4994e-05
-0.00319715
3.94247e-05
-0.00316658
3.55778e-06
-0.00313846
-3.25312e-05
-0.00311298
-6.87783e-05
-0.00309033
-0.000105109
-0.00307062
-0.000141438
-0.0030538
-0.00303978
-0.000177704
3.12374e-05
-0.000613549
8.8018e-05
-0.00158767
0.000143429
-0.00231188
0.000182455
-0.00279969
0.000200303
-0.00309255
0.000198613
-0.00324406
0.000181814
-0.00330421
0.000154675
-0.00331147
0.00012111
-0.0032916
8.38656e-05
-0.00325993
4.46623e-05
-0.00322466
4.48349e-06
-0.00318966
-3.61597e-05
-0.0031565
-7.70332e-05
-0.00312571
-0.000118048
-0.00309744
-0.000159174
-0.00307186
-0.000200376
-0.00304913
-0.000241592
-0.00302941
-0.000282729
-0.00301267
-0.0029988
-0.000323706
2.84307e-05
-0.00064198
7.72928e-05
-0.00163653
0.000121277
-0.00235586
0.000147429
-0.00282584
0.000152638
-0.00309776
0.000139504
-0.00323093
0.000112762
-0.00327747
7.70713e-05
-0.00327578
3.60526e-05
-0.00325058
-7.86002e-06
-0.00321602
-5.31959e-05
-0.00317933
-9.91422e-05
-0.00314372
-0.000145291
-0.00311035
-0.000191472
-0.00307953
-0.000237641
-0.00305127
-0.000283807
-0.00302569
-0.00032997
-0.00300297
-0.000376079
-0.0029833
-0.000422027
-0.00296672
-0.00295312
-0.000467709
2.5297e-05
-0.000667277
6.58546e-05
-0.00167709
9.8327e-05
-0.00238833
0.000111881
-0.0028394
0.000104966
-0.00309084
8.09777e-05
-0.00320694
4.48312e-05
-0.00324133
1.00754e-06
-0.00323196
-4.718e-05
-0.00320239
-9.75933e-05
-0.00316561
-0.000148984
-0.00312794
-0.000200678
-0.00309202
-0.000252346
-0.00305869
-0.000303858
-0.00302801
-0.000355207
-0.00299992
-0.000406435
-0.00297446
-0.000457581
-0.00295182
-0.000508611
-0.00293227
-0.000559403
-0.00291593
-0.00290271
-0.000609814
2.18811e-05
-0.000689158
5.38568e-05
-0.00170907
7.48443e-05
-0.00240932
7.61463e-05
-0.0028407
5.76378e-05
-0.00307234
2.33586e-05
-0.00317266
-2.17032e-05
-0.00319626
-7.3293e-05
-0.00318037
-0.00012841
-0.00314727
-0.000185192
-0.00310882
-0.000242587
-0.00307054
-0.000300035
-0.00303458
-0.00035726
-0.00300146
-0.000414158
-0.00297111
-0.000470737
-0.00294335
-0.000527073
-0.00291812
-0.000583246
-0.00289565
-0.000639259
-0.00287626
-0.000694973
-0.00286021
-0.0028475
-0.000750183
1.823e-05
-0.000707388
4.14483e-05
-0.00173229
5.1075e-05
-0.00241895
4.05247e-05
-0.00283015
1.09607e-05
-0.00304277
-3.30716e-05
-0.00312863
-8.6599e-05
-0.00314274
-0.000145627
-0.00312134
-0.000207464
-0.00308544
-0.000270506
-0.00304578
-0.000333873
-0.00300718
-0.0003971
-0.00297135
-0.000459949
-0.00293861
-0.000522318
-0.00290875
-0.000584213
-0.00288145
-0.000645731
-0.00285661
-0.000707004
-0.00283438
-0.000768081
-0.00281518
-0.000828823
-0.00279947
-0.0027874
-0.000888925
1.43919e-05
-0.00072178
2.8772e-05
-0.00174667
2.72458e-05
-0.00241742
5.28615e-06
-0.00280819
-3.4793e-05
-0.00300269
-8.8063e-05
-0.00307536
-0.000149636
-0.00308116
-0.0002158
-0.00305518
-0.000284164
-0.00301707
-0.000353363
-0.00297658
-0.000422674
-0.00293787
-0.000491718
-0.0029023
-0.000560281
-0.00287005
-0.000628247
-0.00284078
-0.000695597
-0.0028141
-0.000762422
-0.00278978
-0.000828894
-0.00276791
-0.000895133
-0.00274894
-0.000961009
-0.00273359
-0.00272234
-0.00102607
1.04151e-05
-0.000732195
1.59637e-05
-0.00175221
3.56398e-06
-0.00240502
-2.93281e-05
-0.0027753
-7.93818e-05
-0.00295264
-0.000141391
-0.00301335
-0.000210609
-0.00301195
-0.000283616
-0.00298217
-0.000358312
-0.00294238
-0.000433555
-0.00290134
-0.000508771
-0.00286265
-0.000583662
-0.00282741
-0.000658044
-0.00279567
-0.00073178
-0.00276704
-0.0008048
-0.00274108
-0.000877151
-0.00271743
-0.000949015
-0.00269604
-0.00102059
-0.00267737
-0.00109178
-0.00266241
-0.00265209
-0.00116202
6.34749e-06
-0.000738543
3.15039e-06
-0.00174902
-1.97825e-05
-0.00238209
-6.31038e-05
-0.00273197
-0.000122592
-0.00289315
-0.000192854
-0.00294309
-0.000269323
-0.00293548
-0.000348878
-0.00290262
-0.000429693
-0.00286156
-0.000510837
-0.0028202
-0.00059188
-0.00278161
-0.000672616
-0.00274668
-0.000752906
-0.00271538
-0.000832611
-0.00268734
-0.000911605
-0.00266209
-0.000989856
-0.00263918
-0.00106752
-0.00261838
-0.00114489
-0.00259999
-0.00122195
-0.00258535
-0.0025757
-0.00129835
2.23515e-06
-0.000740778
-9.55092e-06
-0.00173723
-4.26256e-05
-0.00234901
-9.58524e-05
-0.00267875
-0.000164234
-0.00282477
-0.000242267
-0.00286505
-0.000325593
-0.00285215
-0.000411381
-0.00281683
-0.000498069
-0.00277487
-0.000584922
-0.00273334
-0.000671653
-0.00269488
-0.000758167
-0.00266016
-0.000844407
-0.00262914
-0.000930275
-0.00260147
-0.00101562
-0.00257674
-0.00110034
-0.00255446
-0.00118455
-0.00253417
-0.00126864
-0.0025159
-0.00135284
-0.00250114
-0.00249078
-0.00143777
-1.87831e-06
-0.000738899
-2.20348e-05
-0.00171707
-6.48189e-05
-0.00230623
-0.000127413
-0.00261615
-0.000204148
-0.00274803
-0.00028947
-0.00277973
-0.000379244
-0.00276238
-0.000470922
-0.00272515
-0.00056318
-0.00268262
-0.000655468
-0.00264106
-0.000747643
-0.0026027
-0.000839746
-0.00256806
-0.000931858
-0.00253702
-0.00102402
-0.00250931
-0.00111618
-0.00248458
-0.00120822
-0.00246241
-0.00130017
-0.00244223
-0.00139239
-0.00242368
-0.00148548
-0.00240806
-0.00239407
-0.00158219
-5.95297e-06
-0.000732946
-3.42088e-05
-0.00168882
-8.62386e-05
-0.0022542
-0.000157653
-0.00254474
-0.000242206
-0.00266348
-0.000334335
-0.0026876
-0.000430134
-0.00266658
-0.000527314
-0.00262797
-0.000624765
-0.00258516
-0.000722091
-0.00254373
-0.000819273
-0.00250552
-0.000916489
-0.00247085
-0.001014
-0.00243951
-0.00111212
-0.00241119
-0.00121113
-0.00238557
-0.00131123
-0.00236232
-0.00141254
-0.00234091
-0.00151566
-0.00232055
-0.00162294
-0.00230078
-0.00229346
-0.00172355
-9.941e-06
-0.000723005
-4.59751e-05
-0.00165278
-0.000106762
-0.00219341
-0.00018645
-0.00246505
-0.000278293
-0.00257164
-0.000376756
-0.00258914
-0.000478153
-0.00256518
-0.000580429
-0.00252569
-0.000682645
-0.00248295
-0.000784509