/*--------------------------------*- C++ -*----------------------------------*\
  =========                 |
  \\      /  F ield         | OpenFOAM: The Open Source CFD Toolbox
   \\    /   O peration     | Website:  https://openfoam.org
    \\  /    A nd           | Version:  6.0
     \\/     M anipulation  |
\*---------------------------------------------------------------------------*/
FoamFile
{
    version     2.0;
    format      ascii;
    class       volScalarField;
    location    "7";
    object      p;
}
// * * * * * * * * * * * * * * * * * * * * * * * * * * * * * * * * * * * * * //

dimensions      [0 2 -2 0 0 0 0];

internalField   nonuniform List<scalar> 
12500
(
-0.321063
-0.323286
-0.324741
-0.325844
-0.326848
-0.327805
-0.328755
-0.329736
-0.330768
-0.331863
-0.333028
-0.334267
-0.33558
-0.336969
-0.338432
-0.339971
-0.341587
-0.34328
-0.345051
-0.34691
-0.34888
-0.350935
-0.352836
-0.35459
-0.358396
-0.321357
-0.323537
-0.324967
-0.326055
-0.327047
-0.327993
-0.328935
-0.329908
-0.330933
-0.332021
-0.33318
-0.334412
-0.335719
-0.337101
-0.338557
-0.340089
-0.341698
-0.343384
-0.345149
-0.347001
-0.348967
-0.351019
-0.352919
-0.354667
-0.358474
-0.321952
-0.324047
-0.325428
-0.326484
-0.32745
-0.328376
-0.329301
-0.330259
-0.33127
-0.332345
-0.333491
-0.334711
-0.336005
-0.337374
-0.338817
-0.340336
-0.341931
-0.343604
-0.345357
-0.347198
-0.349154
-0.351202
-0.353101
-0.354839
-0.358647
-0.322827
-0.324799
-0.326108
-0.327116
-0.328045
-0.32894
-0.329838
-0.330773
-0.331762
-0.332817
-0.333944
-0.335144
-0.336418
-0.337767
-0.33919
-0.340688
-0.342263
-0.343916
-0.345649
-0.347473
-0.349414
-0.351453
-0.35335
-0.355072
-0.358878
-0.323955
-0.325768
-0.326984
-0.327931
-0.32881
-0.329663
-0.330526
-0.331428
-0.332388
-0.333415
-0.334513
-0.335685
-0.336931
-0.338252
-0.339646
-0.341114
-0.342659
-0.344284
-0.345989
-0.347786
-0.349704
-0.351728
-0.353617
-0.355316
-0.359112
-0.325298
-0.326925
-0.328031
-0.328903
-0.32972
-0.330521
-0.331338
-0.332199
-0.333119
-0.334107
-0.335168
-0.336303
-0.337511
-0.338793
-0.340147
-0.341576
-0.343081
-0.344665
-0.346331
-0.34809
-0.349974
-0.351973
-0.353848
-0.355513
-0.359286
-0.326815
-0.328236
-0.329216
-0.330002
-0.330747
-0.331484
-0.332245
-0.333054
-0.333924
-0.334863
-0.335876
-0.336961
-0.33812
-0.339351
-0.340655
-0.342031
-0.343483
-0.345013
-0.346627
-0.348336
-0.350172
-0.352133
-0.353983
-0.355601
-0.359335
-0.328463
-0.329664
-0.330509
-0.331198
-0.33186
-0.332524
-0.333218
-0.333963
-0.334771
-0.335649
-0.3366
-0.337624
-0.338721
-0.339888
-0.341126
-0.342435
-0.343819
-0.345282
-0.346828
-0.34847
-0.350243
-0.352152
-0.353963
-0.355522
-0.359196
-0.330199
-0.331174
-0.331877
-0.332462
-0.333032
-0.333612
-0.334228
-0.334896
-0.335629
-0.336433
-0.337309
-0.338257
-0.339276
-0.340364
-0.341521
-0.342748
-0.344048
-0.345426
-0.346888
-0.348447
-0.350139
-0.351977
-0.353735
-0.355222
-0.358815
-0.331979
-0.332732
-0.333291
-0.333766
-0.334235
-0.334722
-0.335247
-0.335827
-0.336472
-0.337186
-0.337972
-0.338829
-0.339754
-0.340747
-0.341807
-0.342934
-0.344133
-0.345409
-0.346768
-0.348225
-0.349818
-0.351567
-0.353255
-0.354657
-0.358151
-0.333767
-0.334308
-0.334724
-0.335085
-0.335448
-0.335832
-0.336256
-0.336734
-0.337276
-0.337887
-0.338567
-0.339315
-0.340131
-0.341012
-0.341957
-0.342968
-0.344048
-0.345202
-0.34644
-0.347776
-0.349251
-0.350891
-0.352492
-0.353797
-0.357174
-0.335531
-0.335877
-0.336155
-0.336402
-0.336653
-0.336925
-0.337237
-0.337601
-0.338027
-0.338518
-0.339077
-0.339702
-0.340391
-0.341143
-0.341957
-0.342833
-0.343776
-0.344791
-0.345889
-0.347085
-0.348421
-0.349933
-0.351428
-0.352625
-0.355874
-0.337248
-0.33742
-0.33757
-0.337702
-0.337837
-0.337991
-0.33818
-0.338419
-0.338715
-0.339073
-0.339496
-0.339982
-0.34053
-0.341137
-0.341803
-0.342529
-0.343317
-0.344175
-0.345113
-0.346149
-0.347326
-0.348688
-0.350058
-0.351135
-0.354246
-0.338901
-0.338927
-0.338959
-0.338979
-0.338995
-0.339024
-0.339083
-0.339184
-0.339339
-0.339552
-0.339825
-0.340159
-0.340552
-0.341002
-0.341507
-0.342067
-0.342686
-0.34337
-0.34413
-0.344986
-0.345982
-0.34717
-0.34839
-0.349329
-0.352295
-0.340486
-0.340394
-0.34032
-0.34023
-0.340127
-0.340026
-0.339946
-0.339902
-0.339905
-0.339962
-0.340076
-0.340248
-0.340476
-0.340758
-0.341091
-0.341475
-0.341912
-0.342408
-0.342974
-0.343629
-0.344419
-0.345406
-0.346443
-0.347216
-0.350023
-0.342004
-0.341824
-0.341656
-0.341462
-0.341238
-0.341003
-0.340779
-0.340583
-0.340427
-0.34032
-0.340267
-0.34027
-0.340326
-0.340434
-0.34059
-0.340791
-0.341038
-0.341336
-0.341693
-0.342127
-0.342686
-0.343435
-0.344246
-0.344805
-0.347419
-0.34347
-0.343228
-0.34298
-0.342684
-0.342339
-0.341969
-0.341596
-0.341242
-0.340921
-0.340647
-0.340423
-0.340254
-0.340137
-0.340069
-0.340046
-0.340064
-0.340119
-0.340212
-0.340349
-0.340544
-0.340842
-0.341311
-0.341836
-0.342105
-0.34446
-0.344904
-0.344626
-0.344307
-0.343913
-0.343447
-0.342938
-0.342414
-0.341899
-0.341413
-0.340968
-0.340573
-0.340232
-0.339944
-0.339705
-0.339508
-0.339346
-0.339212
-0.339102
-0.339012
-0.338952
-0.338958
-0.339097
-0.339258
-0.339124
-0.341106
-0.346338
-0.346042
-0.34566
-0.345169
-0.344583
-0.343934
-0.343257
-0.34258
-0.341926
-0.341312
-0.340749
-0.340241
-0.339788
-0.339384
-0.339022
-0.33869
-0.338375
-0.338065
-0.337749
-0.337421
-0.337107
-0.33686
-0.336564
-0.335878
-0.337311
-0.347808
-0.347507
-0.347066
-0.346478
-0.345769
-0.34498
-0.344148
-0.343309
-0.34249
-0.34171
-0.340982
-0.340314
-0.339704
-0.339146
-0.33863
-0.338139
-0.337656
-0.337157
-0.336617
-0.336016
-0.335354
-0.334667
-0.333815
-0.332399
-0.33304
-0.349357
-0.349055
-0.348555
-0.347868
-0.347035
-0.346102
-0.345116
-0.344116
-0.343133
-0.342192
-0.341306
-0.340484
-0.339726
-0.339025
-0.338367
-0.337732
-0.337093
-0.336418
-0.335665
-0.33479
-0.333766
-0.332594
-0.331098
-0.328774
-0.328331
-0.351032
-0.350725
-0.350161
-0.34937
-0.348408
-0.34733
-0.346189
-0.345029
-0.343887
-0.342788
-0.34175
-0.340782
-0.339885
-0.339051
-0.338263
-0.337497
-0.336718
-0.335883
-0.334932
-0.333799
-0.332416
-0.330747
-0.328565
-0.325214
-0.323374
-0.352881
-0.352557
-0.351919
-0.351017
-0.34992
-0.348694
-0.347397
-0.346079
-0.344779
-0.343528
-0.342344
-0.341237
-0.340209
-0.339251
-0.338345
-0.337462
-0.336562
-0.335589
-0.334471
-0.333109
-0.331398
-0.329245
-0.326365
-0.321889
-0.318276
-0.354954
-0.354591
-0.353864
-0.35284
-0.351602
-0.350224
-0.348769
-0.347294
-0.345839
-0.344439
-0.343114
-0.341875
-0.340723
-0.339651
-0.33864
-0.33766
-0.336669
-0.335606
-0.334387
-0.332893
-0.330971
-0.328439
-0.324859
-0.318986
-0.312924
-0.357296
-0.356866
-0.356031
-0.354873
-0.353484
-0.351947
-0.350333
-0.3487
-0.347093
-0.345548
-0.344086
-0.342719
-0.341452
-0.340276
-0.339176
-0.338127
-0.337094
-0.336028
-0.334865
-0.333512
-0.331841
-0.329662
-0.326397
-0.320433
-0.313343
-0.359951
-0.35942
-0.358454
-0.357145
-0.355594
-0.353892
-0.352115
-0.350323
-0.348565
-0.346876
-0.345281
-0.343792
-0.342413
-0.341142
-0.339967
-0.338873
-0.337843
-0.336858
-0.335906
-0.334993
-0.334169
-0.333555
-0.333319
-0.334384
-0.342581
-0.362959
-0.362285
-0.361162
-0.359685
-0.357959
-0.356083
-0.354137
-0.352184
-0.350275
-0.348444
-0.346717
-0.345107
-0.343621
-0.342257
-0.341012
-0.33988
-0.338859
-0.337955
-0.337195
-0.336637
-0.336401
-0.336694
-0.337813
-0.340579
-0.349057
-0.366352
-0.365492
-0.364183
-0.362518
-0.360603
-0.358543
-0.356421
-0.354304
-0.352241
-0.350268
-0.348408
-0.346677
-0.345081
-0.343623
-0.342302
-0.34112
-0.340087
-0.339225
-0.338576
-0.338217
-0.338274
-0.338933
-0.340422
-0.343147
-0.349618
-0.370158
-0.369066
-0.367543
-0.365668
-0.363547
-0.361291
-0.358986
-0.3567
-0.354479
-0.35236
-0.350365
-0.348508
-0.346795
-0.34523
-0.343814
-0.342554
-0.341464
-0.340568
-0.339912
-0.339564
-0.33962
-0.340206
-0.34145
-0.343483
-0.347846
-0.374401
-0.373032
-0.371262
-0.369155
-0.366811
-0.364347
-0.36185
-0.359387
-0.357004
-0.354733
-0.352595
-0.350601
-0.348756
-0.34706
-0.345518
-0.344133
-0.342918
-0.341895
-0.341099
-0.340576
-0.340388
-0.3406
-0.341261
-0.342357
-0.344795
-0.379099
-0.377407
-0.37536
-0.373
-0.370416
-0.36773
-0.365031
-0.362383
-0.359828
-0.357396
-0.355102
-0.352952
-0.350948
-0.349089
-0.347372
-0.3458
-0.34438
-0.343127
-0.342062
-0.341212
-0.340606
-0.340267
-0.3402
-0.340332
-0.341174
-0.384269
-0.38221
-0.379856
-0.377221
-0.374379
-0.371458
-0.368546
-0.365702
-0.362965
-0.360356
-0.357884
-0.355551
-0.353352
-0.35128
-0.349329
-0.347498
-0.345786
-0.344202
-0.342756
-0.341459
-0.340321
-0.339343
-0.338511
-0.337739
-0.337302
-0.389923
-0.387455
-0.384767
-0.381837
-0.378721
-0.375551
-0.372414
-0.369361
-0.366424
-0.363615
-0.360937
-0.358381
-0.355937
-0.353593
-0.351338
-0.349166
-0.347075
-0.345067
-0.343146
-0.341318
-0.339583
-0.337936
-0.33636
-0.334776
-0.333337
-0.396072
-0.393156
-0.390107
-0.386864
-0.38346
-0.380028
-0.376651
-0.373372
-0.370212
-0.367172
-0.364245
-0.361415
-0.358665
-0.355977
-0.35334
-0.350744
-0.348189
-0.345677
-0.34321
-0.340795
-0.338432
-0.336119
-0.333846
-0.331545
-0.329316
-0.402722
-0.399322
-0.395889
-0.392317
-0.388612
-0.384905
-0.381272
-0.377743
-0.374327
-0.371015
-0.367786
-0.364618
-0.361487
-0.358377
-0.355273
-0.352173
-0.349077
-0.345993
-0.342929
-0.339895
-0.336897
-0.333939
-0.33102
-0.328087
-0.325218
-0.409877
-0.405958
-0.402124
-0.39821
-0.39419
-0.390193
-0.386282
-0.382474
-0.378761
-0.37512
-0.371523
-0.36794
-0.364347
-0.360728
-0.357076
-0.353394
-0.349692
-0.345984
-0.342288
-0.33862
-0.334994
-0.331421
-0.327905
-0.324407
-0.320999
-0.417533
-0.413067
-0.408814
-0.404549
-0.400203
-0.395897
-0.391681
-0.387553
-0.383488
-0.379451
-0.375407
-0.371323
-0.367178
-0.362963
-0.358683
-0.354352
-0.349991
-0.345624
-0.341278
-0.336976
-0.332737
-0.328579
-0.324509
-0.320498
-0.316616
-0.42568
-0.420641
-0.415959
-0.411333
-0.406648
-0.402012
-0.397455
-0.392954
-0.38847
-0.383957
-0.379374
-0.374695
-0.369907
-0.365014
-0.360035
-0.354999
-0.34994
-0.344892
-0.339891
-0.334963
-0.330134
-0.325421
-0.320835
-0.316349
-0.312033
-0.434298
-0.428666
-0.423546
-0.418553
-0.413514
-0.408518
-0.403573
-0.398636
-0.393652
-0.388569
-0.38335
-0.377978
-0.372457
-0.36681
-0.361073
-0.355291
-0.349509
-0.343772
-0.338121
-0.332585
-0.32719
-0.321952
-0.316881
-0.311953
-0.30723
-0.443354
-0.437115
-0.431554
-0.426187
-0.420774
-0.415381
-0.40999
-0.404539
-0.39896
-0.393205
-0.387248
-0.381088
-0.374752
-0.368286
-0.361745
-0.355188
-0.348673
-0.342252
-0.335964
-0.329842
-0.323908
-0.318175
-0.312648
-0.307303
-0.302194
-0.452805
-0.44595
-0.439946
-0.434197
-0.428386
-0.422548
-0.416641
-0.410584
-0.404308
-0.397773
-0.390973
-0.383936
-0.376715
-0.369378
-0.362001
-0.354658
-0.347413
-0.340319
-0.333417
-0.326735
-0.32029
-0.31409
-0.308135
-0.302395
-0.296922
-0.462588
-0.455117
-0.448673
-0.442533
-0.43629
-0.429948
-0.423441
-0.416677
-0.409592
-0.402168
-0.394429
-0.386435
-0.37827
-0.370027
-0.3618
-0.35367
-0.345707
-0.337963
-0.330473
-0.32326
-0.316333
-0.309695
-0.303338
-0.297226
-0.291411
-0.472629
-0.464548
-0.457668
-0.451122
-0.444406
-0.43749
-0.430288
-0.422705
-0.414697
-0.406278
-0.397512
-0.388497
-0.379347
-0.370179
-0.3611
-0.352198
-0.343539
-0.335171
-0.327124
-0.31941
-0.312031
-0.304983
-0.298252
-0.291791
-0.285658
-0.482832
-0.474156
-0.466847
-0.459876
-0.452637
-0.445065
-0.437061
-0.428544
-0.4195
-0.409991
-0.400124
-0.390038
-0.37988
-0.369784
-0.359866
-0.350213
-0.340888
-0.331929
-0.323357
-0.315174
-0.307375
-0.299947
-0.292867
-0.286081
-0.279656
-0.493087
-0.48384
-0.476108
-0.468688
-0.460864
-0.452543
-0.443626
-0.434058
-0.423874
-0.413189
-0.402165
-0.39098
-0.379807
-0.368795
-0.358061
-0.347689
-0.337732
-0.328219
-0.319157
-0.31054
-0.302351
-0.294572
-0.287172
-0.280086
-0.273397
-0.503267
-0.493479
-0.485331
-0.47743
-0.468952
-0.459781
-0.449836
-0.439106
-0.427688
-0.415762
-0.403542
-0.391246
-0.379069
-0.367165
-0.35565
-0.344598
-0.33405
-0.32402
-0.314505
-0.305487
-0.296942
-0.288843
-0.281151
-0.27379
-0.266867
-0.513228
-0.502938
-0.494378
-0.485958
-0.476747
-0.466621
-0.455536
-0.443541
-0.430813
-0.417598
-0.404166
-0.390767
-0.377611
-0.364853
-0.352599
-0.340911
-0.329814
-0.319308
-0.309378
-0.299996
-0.291127
-0.282739
-0.274785
-0.267177
-0.260052
-0.522812
-0.512063
-0.503096
-0.494111
-0.484084
-0.472898
-0.460565
-0.447219
-0.433122
-0.418594
-0.403954
-0.389478
-0.375382
-0.361817
-0.348873
-0.336597
-0.324996
-0.314058
-0.303753
-0.294042
-0.284884
-0.276239
-0.268053
-0.260226
-0.252932
-0.531847
-0.520691
-0.511317
-0.501718
-0.490785
-0.478436
-0.464763
-0.449998
-0.434497
-0.418653
-0.402827
-0.387316
-0.372332
-0.358015
-0.344436
-0.331624
-0.319569
-0.308242
-0.297603
-0.287601
-0.278189
-0.269321
-0.260934
-0.252918
-0.245488
-0.540153
-0.528644
-0.518862
-0.508593
-0.496669
-0.483063
-0.467971
-0.45174
-0.434824
-0.417683
-0.400716
-0.384225
-0.368415
-0.353407
-0.339254
-0.32596
-0.313501
-0.301832
-0.2909
-0.280647
-0.271018
-0.261961
-0.253405
-0.24523
-0.237699
-0.547541
-0.535737
-0.525544
-0.514548
-0.50155
-0.486606
-0.470037
-0.452317
-0.434
-0.415604
-0.397554
-0.380152
-0.363586
-0.347956
-0.33329
-0.319573
-0.306762
-0.294799
-0.283618
-0.273155
-0.263346
-0.254136
-0.245445
-0.237142
-0.229545
-0.553815
-0.541778
-0.531168
-0.51939
-0.505242
-0.488895
-0.470816
-0.451612
-0.431929
-0.41234
-0.393282
-0.375047
-0.357804
-0.341624
-0.326512
-0.312432
-0.299323
-0.287115
-0.275732
-0.265099
-0.25515
-0.245825
-0.237032
-0.228634
-0.221007
-0.558783
-0.546573
-0.535541
-0.522927
-0.507568
-0.489775
-0.470176
-0.449516
-0.428529
-0.407826
-0.387847
-0.368867
-0.351029
-0.334376
-0.318887
-0.304507
-0.291157
-0.278755
-0.267215
-0.256458
-0.246409
-0.237006
-0.228147
-0.219689
-0.212067
-0.562251
-0.549932
-0.538471
-0.524976
-0.508358
-0.489097
-0.467997
-0.445936
-0.423725
-0.402002
-0.381201
-0.361573
-0.343228
-0.326181
-0.310387
-0.29577
-0.282237
-0.269694
-0.258047
-0.247209
-0.237104
-0.227663
-0.218774
-0.210289
-0.202711
-0.564034
-0.551669
-0.539774
-0.52536
-0.507455
-0.486731
-0.464174
-0.440789
-0.417453
-0.394819
-0.373304
-0.353127
-0.334368
-0.31701
-0.300984
-0.286197
-0.272541
-0.259911
-0.248207
-0.237336
-0.227217
-0.217779
-0.208898
-0.200423
-0.192925
-0.563957
-0.551606
-0.539276
-0.523917
-0.504717
-0.48256
-0.458615
-0.434007
-0.409663
-0.386237
-0.364122
-0.343503
-0.324423
-0.306838
-0.290657
-0.275767
-0.262049
-0.249389
-0.237681
-0.226824
-0.216737
-0.207343
-0.198509
-0.190081
-0.1827
-0.561855
-0.549579
-0.536817
-0.520502
-0.500021
-0.476486
-0.451248
-0.425535
-0.400312
-0.376223
-0.353628
-0.332675
-0.313372
-0.295647
-0.279387
-0.264463
-0.250747
-0.238115
-0.226454
-0.215662
-0.205653
-0.196347
-0.1876
-0.179257
-0.172032
-0.557583
-0.54544
-0.532253
-0.514986
-0.493263
-0.468431
-0.442014
-0.415332
-0.38937
-0.364753
-0.341802
-0.320626
-0.301199
-0.283421
-0.26716
-0.252273
-0.238623
-0.226078
-0.21452
-0.203844
-0.19396
-0.184787
-0.176167
-0.167949
-0.160918
-0.551011
-0.539058
-0.525462
-0.507265
-0.48436
-0.458333
-0.430872
-0.40337
-0.376818
-0.351812
-0.328632
-0.307345
-0.287893
-0.270151
-0.253968
-0.23919
-0.225671
-0.213273
-0.201875
-0.191366
-0.181657
-0.172662
-0.164213
-0.15616
-0.14936
-0.542033
-0.530324
-0.516342
-0.497254
-0.473249
-0.446153
-0.417798
-0.389635
-0.362649
-0.337397
-0.314114
-0.292829
-0.273451
-0.255832
-0.239808
-0.225212
-0.21189
-0.199701
-0.188519
-0.178231
-0.168747
-0.159976
-0.151741
-0.143896
-0.137365
-0.530564
-0.519153
-0.504817
-0.484895
-0.459893
-0.431869
-0.402784
-0.374127
-0.346864
-0.321509
-0.298251
-0.277079
-0.257874
-0.240468
-0.224681
-0.210339
-0.197282
-0.185365
-0.174457
-0.164445
-0.155237
-0.146738
-0.138763
-0.131167
-0.124945
-0.516545
-0.505484
-0.490835
-0.470151
-0.444275
-0.41548
-0.385838
-0.356859
-0.329478
-0.304162
-0.281055
-0.260107
-0.241172
-0.224066
-0.208596
-0.194581
-0.181856
-0.170272
-0.159698
-0.150017
-0.141137
-0.132961
-0.125291
-0.117991
-0.112114
-0.499943
-0.48928
-0.474368
-0.453013
-0.426399
-0.397004
-0.366984
-0.337856
-0.310516
-0.28538
-0.262545
-0.241929
-0.22336
-0.20664
-0.191565
-0.177949
-0.165623
-0.154436
-0.144254
-0.134961
-0.126462
-0.118659
-0.111344
-0.104386
-0.098893
-0.480749
-0.470534
-0.455416
-0.433494
-0.406293
-0.376475
-0.346261
-0.317156
-0.290013
-0.265193
-0.24275
-0.22257
-0.20446
-0.188209
-0.173606
-0.16046
-0.1486
-0.137872
-0.128142
-0.119293
-0.111231
-0.103853
-0.096944
-0.0903771
-0.0853055
-0.458983
-0.449262
-0.434005
-0.411632
-0.384006
-0.353947
-0.323722
-0.294812
-0.268016
-0.243644
-0.221707
-0.202062
-0.1845
-0.168798
-0.154741
-0.142134
-0.130804
-0.120598
-0.11138
-0.103033
-0.0954628
-0.0885645
-0.0821151
-0.0759908
-0.0713788
-0.434688
-0.425508
-0.410186
-0.387488
-0.359605
-0.329491
-0.299437
-0.270887
-0.244583
-0.220783
-0.19946
-0.180445
-0.163515
-0.148438
-0.134997
-0.122995
-0.112258
-0.102634
-0.0939861
-0.0861987
-0.0791785
-0.072817
-0.0668852
-0.0612594
-0.0571474
-0.407936
-0.399339
-0.384033
-0.361144
-0.333177
-0.303193
-0.273487
-0.245455
-0.21978
-0.19667
-0.176062
-0.157765
-0.141545
-0.127165
-0.114405
-0.103069
-0.0929842
-0.0839993
-0.0759798
-0.0688102
-0.0623981
-0.0566335
-0.0512824
-0.0462186
-0.042655
-0.378821
-0.37085
-0.355644
-0.332705
-0.304828
-0.275156
-0.245968
-0.218605
-0.193689
-0.171377
-0.151576
-0.134078
-0.118638
-0.105018
-0.0929976
-0.0823834
-0.0730051
-0.0647137
-0.057377
-0.0508819
-0.0451372
-0.0400325
-0.0353322
-0.030906
-0.0279488
-0.347461
-0.340157
-0.325139
-0.302292
-0.274679
-0.245497
-0.216989
-0.190436
-0.166396
-0.144983
-0.126074
-0.109446
-0.0948489
-0.0820438
-0.0708139
-0.060969
-0.0523434
-0.0447924
-0.0381882
-0.0324213
-0.0274025
-0.0230235
-0.0190531
-0.0153531
-0.013057
-0.313997
-0.307397
-0.292658
-0.270049
-0.242869
-0.214345
-0.186671
-0.161058
-0.138004
-0.11758
-0.099637
-0.0839412
-0.07024
-0.0582957
-0.0478962
-0.0388571
-0.0310194
-0.0242452
-0.0184135
-0.0134205
-0.00918187
-0.00559564
-0.00244181
0.000438165
0.00203721
-0.278589
-0.272727
-0.25836
-0.236131
-0.20955
-0.181844
-0.155146
-0.130593
-0.108624
-0.089268
-0.0723567
-0.0576464
-0.0448839
-0.033835
-0.0242939
-0.016084
-0.00905499
-0.00307822
0.00195732
0.00614553
0.00956227
0.0122976
0.014553
0.0165175
0.0173571
-0.241414
-0.236324
-0.222419
-0.20071
-0.174884
-0.148147
-0.122556
-0.0991729
-0.0783764
-0.0601602
-0.0443364
-0.0306552
-0.0188641
-0.00873401
-6.66703e-05
0.00730523
0.0135214
0.0186982
0.0229319
0.0263013
0.02887
0.0307124
0.0319901
0.0328804
0.0327142
-0.202667
-0.198378
-0.185025
-0.16397
-0.139049
-0.11342
-0.0890566
-0.0669406
-0.0473952
-0.03038
-0.0156909
-0.00307343
0.00772311
0.0169224
0.0247148
0.0312575
0.0366777
0.0410752
0.0445239
0.0470775
0.048782
0.049682
0.0498181
0.0492141
0.047492
-0.162555
-0.159093
-0.146377
-0.126106
-0.102228
-0.0778359
-0.0548077
-0.034047
-0.0158221
-6.15599e-05
0.0134525
0.0249785
0.0347655
0.0430327
0.0499644
0.0557099
0.060386
0.0640756
0.0668253
0.0686561
0.069587
0.0695799
0.0683577
0.0655794
0.0617728
-0.121298
-0.118685
-0.106688
-0.087321
-0.0646142
-0.0415741
-0.0199784
-0.000650775
0.0161924
0.0306508
0.0429543
0.0533646
0.0621296
0.0694665
0.0755578
0.0805526
0.0845679
0.0876855
0.0899483
0.0913806
0.0920153
0.0917179
0.0897343
0.0853115
0.0805798
-0.0791256
-0.0773788
-0.0661767
-0.0478245
-0.0264044
-0.0048198
0.015258
0.0330843
0.048492
0.0616058
0.0726657
0.0819354
0.0896619
0.0960612
0.101317
0.105582
0.108985
0.111626
0.113584
0.11496
0.115914
0.116389
0.115431
0.112484
0.115155
-0.0362652
-0.0354003
-0.0250637
-0.00782854
0.0122012
0.0322394
0.0507253
0.0669917
0.0809172
0.0926488
0.102434
0.110538
0.117204
0.122646
0.127047
0.130562
0.133321
0.135436
0.137005
0.138158
0.139064
0.139696
0.13951
0.138961
0.143953
0.00704273
0.00701508
0.0164228
0.0324506
0.0509999
0.0694144
0.0862465
0.100904
0.113309
0.123626
0.13211
0.139022
0.144603
0.149065
0.152586
0.155321
0.157402
0.158943
0.160051
0.160855
0.1615
0.161955
0.161834
0.161664
0.166107
0.0505576
0.0496311
0.0580549
0.0727971
0.0897899
0.106517
0.121646
0.134657
0.145511
0.154388
0.161546
0.167244
0.171717
0.175171
0.17778
0.179693
0.181041
0.181935
0.182481
0.182799
0.18302
0.183118
0.182771
0.182404
0.185841
0.094039
0.0922118
0.0996053
0.112996
0.128371
0.143363
0.156752
0.168089
0.17737
0.18479
0.190605
0.195071
0.198416
0.200838
0.202505
0.20356
0.204126
0.204309
0.204205
0.203924
0.203576
0.203126
0.202281
0.201437
0.203921
0.137248
0.134523
0.140849
0.152837
0.166548
0.179769
0.191395
0.201043
0.20874
0.214693
0.219156
0.222379
0.224583
0.225956
0.226658
0.226825
0.226571
0.225995
0.225185
0.224236
0.22324
0.222151
0.2207
0.219278
0.220841
0.179949
0.176333
0.181564
0.192111
0.204126
0.215558
0.225411
0.233366
0.23948
0.243966
0.247077
0.249055
0.250112
0.250427
0.250151
0.249412
0.248315
0.24695
0.245396
0.243736
0.242047
0.240275
0.238175
0.236146
0.23683
0.221912
0.217416
0.221535
0.230616
0.240921
0.250558
0.258643
0.264914
0.269455
0.272484
0.274253
0.274992
0.274906
0.274164
0.272907
0.271256
0.269306
0.267139
0.264825
0.262438
0.260041
0.257574
0.254823
0.252186
0.252029
0.26291
0.257552
0.26055
0.268156
0.276751
0.284604
0.290937
0.295546
0.298535
0.30013
0.300573
0.30009
0.298874
0.297086
0.294857
0.292297
0.289497
0.286529
0.283455
0.28034
0.277238
0.274086
0.270698
0.267467
0.266503
0.302727
0.296527
0.298408
0.304543
0.311441
0.317535
0.322148
0.325127
0.326598
0.326788
0.325935
0.324256
0.321932
0.319117
0.315933
0.312481
0.308843
0.305086
0.301264
0.297435
0.293643
0.289827
0.285824
0.282018
0.280282
0.341152
0.334136
0.334912
0.339593
0.344826
0.3492
0.352136
0.35353
0.353525
0.352351
0.35024
0.347398
0.343999
0.340184
0.336071
0.33175
0.327298
0.322772
0.318224
0.313702
0.309243
0.30479
0.300202
0.295845
0.293367
0.377984
0.370181
0.369876
0.373135
0.376746
0.379452
0.380767
0.380631
0.379204
0.376716
0.373392
0.36943
0.364994
0.360218
0.355208
0.35005
0.344813
0.339548
0.3343
0.329114
0.324018
0.318959
0.313817
0.308934
0.305749
0.413032
0.404478
0.403123
0.405004
0.40705
0.408153
0.407914
0.406314
0.403529
0.399785
0.395302
0.390271
0.384844
0.379149
0.373283
0.367326
0.361339
0.355369
0.349456
0.343638
0.337939
0.332308
0.326646
0.321265
0.317406
0.446114
0.436847
0.434486
0.435045
0.435596
0.435173
0.433458
0.430471
0.426397
0.421464
0.415885
0.40984
0.403477
0.396911
0.390236
0.383522
0.376827
0.370191
0.363651
0.357238
0.350971
0.344806
0.338659
0.332808
0.328311
0.477062
0.467126
0.463807
0.463112
0.46225
0.460389
0.457287
0.452996
0.447714
0.441666
0.435059
0.428064
0.420822
0.413441
0.406007
0.398585
0.391227
0.383969
0.376842
0.369874
0.363079
0.356419
0.349822
0.343532
0.338436
0.505717
0.495158
0.490941
0.489072
0.48689
0.483689
0.479295
0.473794
0.467391
0.460308
0.452747
0.444873
0.436816
0.428679
0.420542
0.412464
0.404492
0.396658
0.388989
0.381509
0.374227
0.367111
0.360102
0.353405
0.347752
0.531933
0.520803
0.515755
0.512798
0.5094
0.504966
0.499388
0.492776
0.485345
0.477314
0.46888
0.460199
0.451396
0.442567
0.433786
0.425109
0.416575
0.408215
0.400052
0.392103
0.384378
0.376847
0.369464
0.362395
0.356229
0.555579
0.543931
0.538125
0.53418
0.529676
0.524126
0.517476
0.509861
0.5015
0.492614
0.483391
0.473982
0.464506
0.455053
0.445692
0.436473
0.427434
0.4186
0.409991
0.401621
0.393498
0.385595
0.377876
0.370471
0.363839
0.576534
0.564426
0.557943
0.553114
0.547626
0.541083
0.53348
0.524974
0.51579
0.506145
0.496222
0.486168
0.476095
0.466089
0.456213
0.446515
0.437027
0.427774
0.418771
0.410029
0.401553
0.393323
0.385308
0.377604
0.370557
0.594694
0.582185
0.575111
0.569512
0.563167
0.55576
0.54733
0.538052
0.528152
0.517849
0.50732
0.496706
0.486116
0.47563
0.465309
0.455196
0.44532
0.435704
0.426359
0.417295
0.408515
0.400002
0.391731
0.383768
0.37636
0.609967
0.597121
0.589547
0.583296
0.576227
0.568092
0.558966
0.549036
0.538536
0.527678
0.516639
0.505554
0.494529
0.48364
0.472945
0.462482
0.452281
0.442359
0.432727
0.423393
0.414357
0.405607
0.397123
0.38894
0.381227
0.622276
0.609158
0.601178
0.5944
0.586746
0.578023
0.568335
0.55788
0.546895
0.535591
0.52414
0.512677
0.501301
0.490087
0.479089
0.468345
0.457881
0.447714
0.437852
0.4283
0.419058
0.410117
0.40146
0.393102
0.385142
0.63156
0.618237
0.60995
0.602773
0.594676
0.58551
0.575397
0.564546
0.553195
0.541554
0.529793
0.518043
0.506403
0.494944
0.483718
0.472763
0.462101
0.451748
0.441711
0.431996
0.422599
0.413514
0.404728
0.396236
0.388089
0.637773
0.624312
0.61582
0.608374
0.599982
0.590517
0.58012
0.569004
0.557408
0.545541
0.533573
0.521632
0.509815
0.498192
0.486814
0.475716
0.464922
0.454445
0.444292
0.434466
0.424966
0.415786
0.406913
0.398331
0.390059
0.640884
0.627354
0.618758
0.611179
0.602637
0.593024
0.582485
0.571236
0.559517
0.547537
0.535465
0.523428
0.511522
0.499817
0.488363
0.477194
0.466333
0.455794
0.445584
0.435703
0.426151
0.416922
0.408006
0.399379
0.391044
0.640877
0.627347
0.618751
0.611172
0.602631
0.593018
0.582479
0.571231
0.559512
0.547533
0.535461
0.523424
0.511518
0.499813
0.488359
0.477191
0.46633
0.455791
0.44558
0.4357
0.426148
0.416919
0.408003
0.399377
0.391041
0.637752
0.624291
0.615799
0.608355
0.599963
0.5905
0.580104
0.568989
0.557393
0.545528
0.53356
0.52162
0.509803
0.49818
0.486803
0.475706
0.464911
0.454435
0.444283
0.434457
0.424957
0.415777
0.406904
0.398323
0.390051
0.631525
0.618202
0.609917
0.602741
0.594646
0.585481
0.57537
0.564521
0.55317
0.541531
0.529771
0.518022
0.506383
0.494925
0.4837
0.472745
0.462084
0.451731
0.441696
0.43198
0.422584
0.4135
0.404714
0.396222
0.388076
0.622227
0.609109
0.601131
0.594355
0.586704
0.577983
0.568297
0.557845
0.546861
0.535559
0.52411
0.512648
0.501273
0.49006
0.479064
0.468321
0.457858
0.447691
0.43783
0.428278
0.419037
0.410097
0.401441
0.393083
0.385124
0.609903
0.597058
0.589486
0.583238
0.576172
0.568041
0.558917
0.54899
0.538492
0.527637
0.516599
0.505517
0.494494
0.483606
0.472912
0.462451
0.45225
0.44233
0.432699
0.423366
0.414331
0.405582
0.397098
0.388916
0.381204
0.594617
0.582109
0.575038
0.569442
0.5631
0.555697
0.547271
0.537996
0.5281
0.517799
0.507272
0.49666
0.486072
0.475589
0.465269
0.455157
0.445283
0.435668
0.426325
0.417262
0.408483
0.399971
0.391701
0.383739
0.376332
0.576443
0.564336
0.557856
0.553032
0.547548
0.541009
0.533411
0.524909
0.515728
0.506085
0.496165
0.486114
0.476043
0.466039
0.456166
0.44647
0.436984
0.427732
0.41873
0.40999
0.401515
0.393286
0.385272
0.377569
0.370524
0.555474
0.543827
0.538025
0.534085
0.529586
0.524041
0.517396
0.509785
0.501429
0.492546
0.483326
0.47392
0.464447
0.454997
0.445638
0.436421
0.427384
0.418552
0.409944
0.401576
0.393454
0.385553
0.377835
0.370431
0.363801
0.531815
0.520686
0.515642
0.512691
0.509298
0.50487
0.499297
0.492691
0.485263
0.477237
0.468806
0.460129
0.451329
0.442503
0.433725
0.42505
0.416519
0.408161
0.399999
0.392052
0.384329
0.3768
0.369418
0.36235
0.356186
0.505585
0.495028
0.490816
0.488952
0.486776
0.483582
0.479194
0.473699
0.4673
0.460222
0.452666
0.444795
0.436741
0.428608
0.420474
0.412399
0.404429
0.396598
0.388931
0.381452
0.374173
0.367058
0.36005
0.353355
0.347704
0.476917
0.466983
0.463669
0.462981
0.462126
0.460271
0.457175
0.452891
0.447614
0.441572
0.434969
0.427979
0.420741
0.413363
0.405932
0.398513
0.391158
0.383902
0.376778
0.369812
0.363019
0.35636
0.349765
0.343477
0.338383
0.445957
0.436692
0.434335
0.434901
0.43546
0.435044
0.433337
0.430356
0.426288
0.421361
0.415787
0.409747
0.403388
0.396826
0.390154
0.383444
0.376751
0.370119
0.36358
0.35717
0.350905
0.344742
0.338597
0.332747
0.328253
0.412862
0.40431
0.402961
0.404849
0.406903
0.408014
0.407783
0.40619
0.403411
0.399673
0.395196
0.39017
0.384748
0.379057
0.373195
0.367241
0.361257
0.35529
0.34938
0.343565
0.337868
0.332239
0.326579
0.3212
0.317343
0.377802
0.370002
0.369702
0.372969
0.376588
0.379303
0.380626
0.380498
0.379078
0.376596
0.373278
0.369322
0.364891
0.360119
0.355113
0.349959
0.344725
0.339463
0.334219
0.329035
0.323942
0.318885
0.313745
0.308864
0.305682
0.340957
0.333944
0.334726
0.339415
0.344657
0.349041
0.351986
0.353387
0.353391
0.352223
0.350118
0.347282
0.343888
0.340078
0.335969
0.331653
0.327204
0.322682
0.318136
0.313618
0.309162
0.304711
0.300125
0.29577
0.293296
0.302521
0.296324
0.298211
0.304354
0.311262
0.317366
0.321989
0.324976
0.326455
0.326652
0.325806
0.324132
0.321815
0.319004
0.315825
0.312377
0.308743
0.304989
0.301171
0.297346
0.293556
0.289743
0.285742
0.281939
0.280205
0.262693
0.257337
0.260342
0.267957
0.276561
0.284425
0.290768
0.295386
0.298384
0.299986
0.300436
0.29996
0.29875
0.296966
0.294742
0.292187
0.289391
0.286427
0.283356
0.280246
0.277146
0.273998
0.270612
0.267383
0.266422
0.221683
0.217191
0.221316
0.230406
0.240722
0.25037
0.258465
0.264746
0.269295
0.272333
0.274108
0.274855
0.274774
0.274038
0.272787
0.27114
0.269194
0.267031
0.264721
0.262337
0.259944
0.25748
0.254732
0.252098
0.251943
0.17971
0.176097
0.181335
0.191891
0.203918
0.21536
0.225225
0.23319
0.239313
0.243807
0.246926
0.248911
0.249974
0.250295
0.250024
0.24929
0.248198
0.246837
0.245286
0.243631
0.241945
0.240176
0.23808
0.236053
0.236741
0.136998
0.134276
0.140609
0.152607
0.166329
0.179562
0.1912
0.200858
0.208565
0.214526
0.218998
0.222228
0.224438
0.225817
0.226525
0.226697
0.226448
0.225877
0.225071
0.224125
0.223133
0.222047
0.220599
0.21918
0.220747
0.0937792
0.0919553
0.099356
0.112757
0.128144
0.143148
0.156549
0.167897
0.177187
0.184616
0.19044
0.194913
0.198265
0.200694
0.202366
0.203426
0.203997
0.204184
0.204085
0.203808
0.203464
0.203017
0.202176
0.201335
0.203822
0.0502884
0.0493652
0.0577963
0.0725491
0.0895541
0.106294
0.121435
0.134457
0.145321
0.154208
0.161374
0.16708
0.17156
0.17502
0.177635
0.179554
0.180907
0.181806
0.182356
0.182678
0.182903
0.183005
0.182661
0.182297
0.185738
0.00676452
0.00674026
0.0161554
0.0321939
0.0507557
0.0691831
0.0860275
0.100697
0.113112
0.123439
0.131931
0.138851
0.14444
0.148909
0.152436
0.155176