1.275 	2.15223e-18 	-2.76991e-20 	-0.145261 	0.00446369 	-2.63695e-22
1.825 	2.15223e-18 	-1.39322e-20 	-0.273691 	0.0069055 	3.58566e-21
2.375 	2.15223e-18 	-2.66896e-23 	-0.401779 	0.011926 	-1.84455e-21
