1.275 	2.15223e-18 	-2.76991e-20 	-0.146602 	0.0063245 	-2.66611e-22
1.825 	2.15223e-18 	-1.39322e-20 	-0.282576 	0.0073536 	3.66372e-21
2.375 	2.15223e-18 	-2.66896e-23 	-0.418088 	0.00328072 	-1.90741e-21
