/*--------------------------------*- C++ -*----------------------------------*\
  =========                 |
  \\      /  F ield         | OpenFOAM: The Open Source CFD Toolbox
   \\    /   O peration     | Website:  https://openfoam.org
    \\  /    A nd           | Version:  6.0
     \\/     M anipulation  |
\*---------------------------------------------------------------------------*/
FoamFile
{
    version     2.0;
    format      ascii;
    class       surfaceScalarField;
    location    "78";
    object      phi;
}
// * * * * * * * * * * * * * * * * * * * * * * * * * * * * * * * * * * * * * //

dimensions      [0 3 -1 0 0 0 0];

internalField   nonuniform List<scalar> 
24700
(
-2.6936e-06
-9.53685e-05
9.80621e-05
-1.00486e-05
-0.000224844
0.000232199
-2.13496e-05
-0.000307371
0.000318672
-3.5851e-05
-0.000353986
0.000368487
-5.28203e-05
-0.000373859
0.000390828
-7.15778e-05
-0.000374423
0.00039318
-9.1511e-05
-0.000361488
0.000381421
-0.000112072
-0.000339432
0.000359993
-0.000132765
-0.000311429
0.000332122
-0.000153134
-0.000279682
0.000300052
-0.000172751
-0.000245643
0.00026526
-0.000191213
-0.0002102
0.000228662
-0.000208133
-0.000173847
0.000190767
-0.000223155
-0.0001368
0.000151822
-0.000235957
-9.91013e-05
0.000111904
-0.00024627
-6.06897e-05
7.10026e-05
-0.000253894
-2.14485e-05
2.90718e-05
-0.000258718
1.87568e-05
-1.39325e-05
-0.000260747
6.00535e-05
-5.8024e-05
-0.000260122
0.000102543
-0.000103169
-0.000257134
0.000146285
-0.000149273
-0.00025224
0.000191277
-0.00019617
-0.000246064
0.000237449
-0.000243626
-0.000239391
0.0002847
-0.000291373
0.000332869
-0.000339109
-0.000233151
-3.11796e-06
-9.22505e-05
-1.13645e-05
-0.000216597
-2.3755e-05
-0.000294981
-3.93683e-05
-0.000338372
-5.73691e-05
-0.000355858
-7.70268e-05
-0.000354765
-9.77135e-05
-0.000340801
-0.000118887
-0.000318259
-0.000140071
-0.000290245
-0.000160834
-0.00025892
-0.000180772
-0.000225705
-0.000199502
-0.00019147
-0.000216657
-0.000156691
-0.000231891
-0.000121566
-0.000244885
-8.61069e-05
-0.000255366
-5.02088e-05
-0.000263121
-1.36939e-05
-0.000268019
2.36553e-05
-0.000270038
6.20724e-05
-0.000269284
0.000101789
-0.000266014
0.000143015
-0.000260653
0.000185916
-0.0002538
0.000230596
-0.000246236
0.000277137
0.000325548
-0.000238915
-3.46565e-06
-8.87849e-05
-1.2424e-05
-0.000207639
-2.56535e-05
-0.000281751
-4.2078e-05
-0.000321948
-6.07717e-05
-0.000337164
-8.09603e-05
-0.000334576
-0.000102004
-0.000319758
-0.000123369
-0.000296894
-0.0001446
-0.000269015
-0.000165291
-0.000238228
-0.000185071
-0.000205925
-0.000203583
-0.000172958
-0.000220486
-0.000139789
-0.000235452
-0.0001066
-0.000248174
-7.33843e-05
-0.000258382
-4.00009e-05
-0.000265855
-6.22134e-06
-0.000270442
2.8243e-05
-0.00027209
6.37203e-05
-0.000270863
0.000100561
-0.000266969
0.000139121
-0.000260781
0.000179729
-0.000252856
0.000222671
-0.00024395
0.000268231
0.00031663
-0.000235032
-3.74427e-06
-8.50406e-05
-1.32558e-05
-0.000198127
-2.71064e-05
-0.000267901
-4.40838e-05
-0.00030497
-6.31823e-05
-0.000318065
-8.35887e-05
-0.00031417
-0.000104652
-0.000298695
-0.000125848
-0.000275698
-0.000146741
-0.000248122
-0.000166955
-0.000218014
-0.000186148
-0.000186731
-0.000203999
-0.000155107
-0.000220196
-0.000123592
-0.000234438
-9.23585e-05
-0.000246439
-6.13831e-05
-0.000255939
-3.05009e-05
-0.000262717
5.56464e-07
-0.000266609
3.21357e-05
-0.000267534
6.46449e-05
-0.000265513
9.85405e-05
-0.000260702
0.00013431
-0.000253415
0.000172442
-0.000244152
0.000213408
-0.000233633
0.000257711
0.000305821
-0.000222824
-3.96508e-06
-8.10755e-05
-1.3899e-05
-0.000188193
-2.81942e-05
-0.000253605
-4.55182e-05
-0.000287646
-6.47937e-05
-0.00029879
-8.51709e-05
-0.000293793
-0.000105988
-0.000277878
-0.000126726
-0.00025496
-0.000146969
-0.000227878
-0.000166367
-0.000198616
-0.000184612
-0.000168487
-0.000201413
-0.000138306
-0.000216496
-0.000108509
-0.00022959
-7.9264e-05
-0.000240438
-5.05353e-05
-0.000248798
-2.21408e-05
-0.000254459
6.21701e-06
-0.000257253
3.49298e-05
-0.000257079
6.44708e-05
-0.000253924
9.53861e-05
-0.000247897
0.000128282
-0.000239253
0.000163798
-0.000228434
0.000202589
-0.000216112
0.000245389
0.000292949
-0.00020324
-4.142e-06
-7.69335e-05
-1.44005e-05
-0.000177935
-2.90104e-05
-0.000238995
-4.65322e-05
-0.000270125
-6.58226e-05
-0.0002795
-8.59965e-05
-0.000273619
-0.000106378
-0.000257496
-0.000126452
-0.000234886
-0.000145816
-0.000208515
-0.000164142
-0.000180289
-0.000181152
-0.000151478
-0.000196588
-0.000122869
-0.000210209
-9.48883e-05
-0.00022178
-6.7693e-05
-0.000231073
-4.12417e-05
-0.000237874
-1.534e-05
-0.000241988
1.03307e-05
-0.000243254
3.61959e-05
-0.000241564
6.27806e-05
-0.000236883
9.07055e-05
-0.000229282
0.000120681
-0.000218971
0.000153486
-0.000206336
0.000189955
-0.000191999
0.000231052
0.000277838
-0.000176888
-4.29017e-06
-7.26434e-05
-1.48101e-05
-0.000167415
-2.96536e-05
-0.000224152
-4.72834e-05
-0.000252495
-6.64945e-05
-0.000260288
-8.6366e-05
-0.000253747
-0.000106206
-0.000237656
-0.000125495
-0.000215596
-0.000143841
-0.000190169
-0.000160933
-0.000163197
-0.000176515
-0.000135897
-0.000190358
-0.000109026
-0.000202253
-8.29939e-05
-0.000211995
-5.79505e-05
-0.000219389
-3.38476e-05
-0.000224248
-1.04815e-05
-0.000226399
1.24816e-05
-0.000225696
3.54934e-05
-0.000222036
5.912e-05
-0.000215374
8.40444e-05
-0.000205761
0.000111068
-0.000193372
0.000141097
-0.000178554
0.000175137
-0.000161882
0.00021438
0.000260203
-0.000144247
-4.42466e-06
-6.82187e-05
-1.51768e-05
-0.000156663
-3.02196e-05
-0.000209109
-4.79245e-05
-0.00023479
-6.70274e-05
-0.000241186
-8.65706e-05
-0.000234204
-0.000105842
-0.000218385
-0.000124316
-0.000197123
-0.0001416
-0.000172884
-0.000157396
-0.000147401
-0.000171463
-0.00012183
-0.000183593
-9.68952e-05
-0.000193601
-7.29863e-05
-0.000201309
-5.02426e-05
-0.000206547
-2.86095e-05
-0.000209153
-7.87567e-06
-0.000208976
1.23054e-05
-0.00020589
3.24068e-05
-0.000199799
5.30292e-05
-0.000190665
7.49098e-05
-0.000178528
9.89308e-05
-0.000163548
0.000126117
-0.000146047
0.000157637
-0.000126568
0.000194901
0.000239599
-0.000105964
-4.55912e-06
-6.36596e-05
-1.55444e-05
-0.000145678
-3.07933e-05
-0.00019386
-4.85905e-05
-0.000216993
-6.76139e-05
-0.000222162
-8.68686e-05
-0.000214949
-0.00010562
-0.000199634
-0.000123329
-0.000179413
-0.000139603
-0.000156611
-0.000154144
-0.00013286
-0.000166719
-0.000109255
-0.000177135
-8.64791e-05
-0.00018522
-6.49013e-05
-0.000190813
-4.46491e-05
-0.000193762
-2.56606e-05
-0.000193921
-7.71713e-06
-0.000191155
9.53903e-06
-0.000185348
2.66003e-05
-0.000176418
4.40996e-05
-0.000164333
6.28244e-05
-0.000149136
8.37342e-05
-0.000130987
0.000107967
-0.000110201
0.000136851
-8.73077e-05
0.000172008
0.000215427
-6.31352e-05
-4.70441e-06
-5.89552e-05
-1.59471e-05
-0.000134435
-3.1441e-05
-0.000178366
-4.93859e-05
-0.000199048
-6.84037e-05
-0.000203144
-8.74622e-05
-0.000195891
-0.000105802
-0.000181294
-0.000122871
-0.000162345
-0.000138265
-0.000141217
-0.000151686
-0.000119439
-0.000162902
-9.80391e-05
-0.000171722
-7.76582e-05
-0.000177982
-5.86421e-05
-0.000181524
-4.11064e-05
-0.000182203
-2.49825e-05
-0.000179874
-1.00461e-05
-0.000174405
4.0707e-06
-0.000165684
1.78787e-05
-0.000153627
3.2043e-05
-0.000138205
4.74027e-05
-0.000119468
6.49963e-05
-9.75796e-05
8.60792e-05
-7.28718e-05
0.000112143
-4.5886e-05
0.000145022
0.000186991
-1.74502e-05
-4.86736e-06
-5.40878e-05
-1.64061e-05
-0.000122896
-3.22024e-05
-0.00016257
-5.03736e-05
-0.000180876
-6.9487e-05
-0.000184031
-8.84746e-05
-0.000176903
-0.000106553
-0.000163216
-0.000123153
-0.000145745
-0.000137861
-0.000126509
-0.000150371
-0.000106929
-0.000160448
-8.79622e-05
-0.000167898
-7.02077e-05
-0.000172552
-5.39879e-05
-0.00017425
-3.94085e-05
-0.000172836
-2.63973e-05
-0.000168154
-1.47274e-05
-0.000160059
-4.02447e-06
-0.000148419
6.23853e-06
-0.000133135
1.67588e-05
-0.000114163
2.8431e-05
-9.1547e-05
4.23803e-05
-6.546e-05
5.99922e-05
-3.62575e-05
8.29405e-05
-4.52419e-06
0.000113288
0.000153598
2.88687e-05
-5.04969e-06
-4.90381e-05
-1.69257e-05
-0.00011102
-3.30852e-05
-0.00014641
-5.15648e-05
-0.000162397
-7.08803e-05
-0.000164715
-8.99302e-05
-0.000157853
-0.000107909
-0.000145237
-0.000124231
-0.000129422
-0.000138473
-0.000112267
-0.000150321
-9.50811e-05
-0.000159532
-7.87508e-05
-0.000165908
-6.38326e-05
-0.000169267
-5.06284e-05
-0.000169438
-3.92372e-05
-0.000166246
-2.95893e-05
-0.000159511
-2.14622e-05
-0.000149054
-1.44824e-05
-0.000134702
-8.1128e-06
-0.000116316
-1.62717e-06
-9.38121e-05
5.92682e-06
-6.72041e-05
1.57723e-05
-3.66576e-05
2.94457e-05
-2.55325e-06
4.88361e-05
3.44558e-05
7.62794e-05
0.000114656
7.33977e-05
-5.24738e-06
-4.37907e-05
-1.7492e-05
-9.87758e-05
-3.4061e-05
-0.000129841
-5.29133e-05
-0.000143545
-7.25172e-05
-0.000145112
-9.17412e-05
-0.000138629
-0.00010976
-0.000127218
-0.000125977
-0.000113206
-0.000139958
-9.82861e-05
-0.000151381
-8.36577e-05
-0.000159999
-7.01331e-05
-0.000165604
-5.82279e-05
-0.000168006
-4.82263e-05
-0.000167016
-4.02266e-05
-0.000162436
-3.41692e-05
-0.000154052
-2.98466e-05
-0.000141636
-2.68984e-05
-0.000124959
-2.47898e-05
-0.000103811
-2.27756e-05
-7.80347e-05
-1.9849e-05
-4.75809e-05
-1.46814e-05
-1.25746e-05
-5.56063e-06
2.65963e-05
9.6652e-06
6.91981e-05
3.36776e-05
6.97587e-05
0.000114095
-5.4504e-06
-3.83403e-05
-1.8072e-05
-8.61542e-05
-3.50644e-05
-0.000112849
-5.43136e-05
-0.000124295
-7.42451e-05
-0.00012518
-9.37021e-05
-0.000119172
-0.000111844
-0.000109077
-0.000128062
-9.69871e-05
-0.000141917
-8.44311e-05
-0.000153083
-7.2492e-05
-0.000161307
-6.19093e-05
-0.000166376
-5.31584e-05
-0.000168094
-4.65084e-05
-0.000166258
-4.20626e-05
-0.000160647
-3.97803e-05
-0.000151011
-3.9482e-05
-0.000137073
-4.08366e-05
-0.000118532
-4.33306e-05
-9.50893e-05
-4.62187e-05
-6.64837e-05
-4.84546e-05
-3.25588e-05
-4.86063e-05
6.64743e-06
-4.47669e-05
5.07804e-05
-3.44678e-05
9.90381e-05
-1.458e-05
1.87293e-05
0.000150067
-5.64318e-06
-3.26972e-05
-1.86151e-05
-7.31823e-05
-3.59956e-05
-9.54683e-05
-5.56049e-05
-0.000104686
-7.58311e-05
-0.000104954
-9.54958e-05
-9.95076e-05
-0.000113745
-9.08272e-05
-0.000129964
-8.07685e-05
-0.000143706
-7.06888e-05
-0.000154644
-6.15544e-05
-0.000162522
-5.40308e-05
-0.000167128
-4.85522e-05
-0.000168262
-4.53743e-05
-0.000165716
-4.46088e-05
-0.000159255
-4.62414e-05
-0.000148605
-5.01322e-05
-0.000133445
-5.59967e-05
-0.000113409
-6.33664e-05
-8.81041e-05
-7.15238e-05
-5.71469e-05
-7.94117e-05
-2.02374e-05
-8.55158e-05
2.27279e-05
-8.77322e-05
7.14914e-05
-8.32312e-05
0.000125229
-6.83177e-05
-3.83868e-05
0.000182345
-5.80566e-06
-2.68915e-05
-1.90567e-05
-5.99313e-05
-3.67275e-05
-7.77975e-05
-5.6582e-05
-8.48317e-05
-7.69762e-05
-8.45596e-05
-9.67131e-05
-7.97707e-05
-0.000114927
-7.26132e-05
-0.000130994
-6.47011e-05
-0.000144465
-5.72187e-05
-0.000155005
-5.10136e-05
-0.000162362
-4.66741e-05
-0.000166323
-4.45914e-05
-0.000166691
-4.50058e-05
-0.000163263
-4.80371e-05
-0.000155805
-5.36995e-05
-0.000144038
-6.18993e-05
-0.000127622
-7.24124e-05
-0.000106151
-8.48372e-05
-7.91583e-05
-9.85167e-05
-4.61456e-05
-0.000112424
-6.65403e-06
-0.000125007
3.96081e-05
-0.000133994
9.25575e-05
-0.000136181
0.000151436
-0.000127196
-0.000101384
0.000214432
-5.91513e-06
-2.09764e-05
-1.93238e-05
-4.65226e-05
-3.71163e-05
-6.00049e-05
-5.70118e-05
-6.49363e-05
-7.73396e-05
-6.42318e-05
-9.68849e-05
-6.02254e-05
-0.000114769
-5.47295e-05
-0.000130356
-4.91139e-05
-0.000143186
-4.43887e-05
-0.000152919
-4.12801e-05
-0.000159297
-4.02962e-05
-0.000162108
-4.17803e-05
-0.000161163
-4.59514e-05
-0.000156269
-5.29311e-05
-0.000147211
-6.27569e-05
-0.000133732
-7.53784e-05
-0.00011551
-9.06346e-05
-9.21435e-05
-0.000108204
-6.31425e-05
-0.000127518
-2.79394e-05
-0.000147628
1.406e-05
-0.000167007
6.33532e-05
-0.000183287
0.000120105
-0.000192932
0.000183747
-0.000190838
-0.000169999
0.000252362
-5.94853e-06
-1.50279e-05
-1.9342e-05
-3.31292e-05
-3.70151e-05
-4.23318e-05
-5.66555e-05
-4.52958e-05
-7.65705e-05
-4.43168e-05
-9.55262e-05
-4.12696e-05
-0.000112626
-3.76301e-05
-0.000127215
-3.45245e-05
-0.000138816
-3.2788e-05
-0.000147072
-3.30234e-05
-0.000151714
-3.56546e-05
-0.000152524
-4.09701e-05
-0.000149317
-4.91582e-05
-0.000141919
-6.03295e-05
-0.000130146
-7.45296e-05
-0.000113789
-9.17361e-05
-9.25853e-05
-0.000111838
-6.62005e-05
-0.000134589
-3.41981e-05
-0.00015952
3.97437e-06
-0.0001858
4.89712e-05
-0.000212004
0.00010146
-0.000235776
0.000161894
-0.000253366
0.000230041
-0.000258986
-0.000244039
0.000304081
-5.88521e-06
-9.14265e-06
-1.90441e-05
-1.99703e-05
-3.62898e-05
-2.50861e-05
-5.52935e-05
-2.62922e-05
-7.43439e-05
-2.52664e-05
-9.21856e-05
-2.34279e-05
-0.000107896
-2.19198e-05
-0.000120793
-2.16273e-05
-0.000130369
-2.32121e-05
-0.00013624
-2.71525e-05
-0.000138111
-3.37833e-05
-0.000135751
-4.33302e-05
-0.000128972
-5.59371e-05
-0.000117616
-7.16855e-05
-0.000101541
-9.06055e-05
-8.06025e-05
-0.000112674
-5.46411e-05
-0.000137799
-2.34476e-05
-0.000165782
1.32712e-05
-0.000196239
5.59384e-05
-0.000228467
0.000105142
-0.000261207
0.000161614
-0.000292248
0.000226068
-0.000317821
0.000298735
-0.000331653
-0.000323497
0.000378194
-5.70952e-06
-3.43313e-06
-1.83779e-05
-7.30197e-06
-3.48344e-05
-8.62958e-06
-5.27492e-05
-8.37732e-06
-7.03964e-05
-7.61926e-06
-8.64948e-05
-7.3295e-06
-0.000100088
-8.32661e-06
-0.000110455
-1.12604e-05
-0.000117045
-1.66216e-05
-0.000119435
-2.47631e-05
-0.000117292
-3.5926e-05
-0.000110359
-5.02631e-05
-9.84375e-05
-6.78586e-05
-8.13802e-05
-8.87429e-05
-5.90854e-05
-0.0001129
-3.149e-05
-0.000140269
1.44302e-06
-0.000170732
3.97476e-05
-0.000204087
8.34961e-05
-0.000239987
0.000132864
-0.000277836
0.000188217
-0.00031656
0.000250178
-0.000354208
0.000319596
-0.000387239
0.000397202
-0.00040926
-0.000408621
0.000482326
-5.41308e-06
1.97996e-06
-1.7313e-05
4.59792e-06
-3.25837e-05
6.64112e-06
-4.89104e-05
7.94943e-06
-6.45559e-05
8.02618e-06
-7.82096e-05
6.32429e-06
-8.88738e-05
2.3376e-06
-9.57784e-05
-4.3559e-06
-9.83208e-05
-1.40792e-05
-9.60247e-05
-2.70592e-05
-8.85132e-05
-4.34375e-05
-7.54932e-05
-6.32832e-05
-5.67477e-05
-8.66041e-05
-3.21352e-05
-0.000113355
-1.59169e-06
-0.000143444
3.4867e-05
-0.000176728
7.71467e-05
-0.000213012
0.000125087
-0.000252027
0.000178496
-0.000293396
0.000237215
-0.000336555
0.000301239
-0.000380584
0.000370869
-0.000423839
0.000446852
-0.000463222
0.000530304
-0.000492711
-0.000499891
0.000621575
-4.99609e-06
6.97604e-06
-1.5845e-05
1.54469e-05
-2.95217e-05
2.03178e-05
-4.37418e-05
2.21695e-05
-5.67607e-05
2.10451e-05
-6.72369e-05
1.68004e-05
-7.41257e-05
9.22643e-06
-7.66018e-05
-1.87981e-06
-7.40042e-05
-1.66768e-05
-6.58002e-05
-3.52632e-05
-5.15633e-05
-5.76744e-05
-3.09629e-05
-8.38836e-05
-3.76218e-06
-0.000113805
3.01768e-05
-0.000147294
7.08846e-05
-0.000184152
0.000118273
-0.000224117
0.000172128
-0.000266867
0.000232107
-0.000312006
0.000297754
-0.000359043
0.000368553
-0.000407354
0.000444042
-0.000456072
0.000524008
-0.000503805
0.000608772
-0.000547987
0.000699469
-0.000583407
-0.000597975
0.000797552
-4.46758e-06
1.14436e-05
-1.39966e-05
2.49759e-05
-2.56837e-05
3.20049e-05
-3.72886e-05
3.37743e-05
-4.70648e-05
3.08214e-05
-5.364e-05
2.33757e-05
-5.59218e-05
1.15082e-05
-5.30283e-05
-4.77325e-06
-4.42408e-05
-2.54644e-05
-2.89724e-05
-5.05316e-05
-6.75203e-06
-7.98947e-05
2.27819e-05
-0.000113417
5.98792e-05
-0.000150902
0.00010467
-0.000192085
0.000157151
-0.000236633
0.000217172
-0.000284138
0.000284421
-0.000334116
0.000358408
-0.000385993
0.000438466
-0.000439101
0.000523767
-0.000492655
0.000613392
-0.000545697
0.000706516
-0.000596928
0.000802742
-0.000644213
0.000902654
-0.000683319
-0.000704078
0.00100876
-3.84441e-06
1.5288e-05
-1.18146e-05
3.29461e-05
-2.11509e-05
4.13412e-05
-2.96691e-05
4.22925e-05
-3.56269e-05
3.67792e-05
-3.76247e-05
2.53735e-05
-3.45259e-05
8.40933e-06
-2.53974e-05
-1.39018e-05
-9.47008e-06
-4.13916e-05
1.38854e-05
-7.38871e-05
4.51708e-05
-0.00011118
8.47621e-05
-0.000153009
0.000132906
-0.000199046
0.000189709
-0.000248889
0.000255131
-0.000302055
0.000328968
-0.000357974
0.000410838
-0.000415986
0.000500172
-0.000475327
0.000596192
-0.000535122
0.000697899
-0.000594362
0.000804066
-0.000651864
0.000913303
-0.000706166
0.00102428
-0.000755188
0.00113638
-0.000795425
-0.000820709
0.00125301
-3.14912e-06
1.84371e-05
-9.3636e-06
3.91606e-05
-1.60399e-05
4.80175e-05
-2.10578e-05
4.73104e-05
-2.26862e-05
3.84076e-05
-1.95051e-05
2.21925e-05
-1.03421e-05
-7.5375e-07
5.77579e-06
-3.00196e-05
2.96522e-05
-6.52681e-05
6.19396e-05
-0.000106174
0.000103145
-0.000152386
0.000153633
-0.000203496
0.000213614
-0.000259027
0.000283149
-0.000318423
0.000362135
-0.000381041
0.00045031
-0.00044615
0.000547256
-0.000512931
0.000652402
-0.000580473
0.000765042
-0.000647762
0.000884334
-0.000713654
0.0010093
-0.000776825
0.00113874
-0.000835614
0.001271
-0.000887442
0.00140272
-0.000927145
-0.000944514
0.00152652
-2.40726e-06
2.08444e-05
-6.7184e-06
4.34717e-05
-1.04867e-05
5.17858e-05
-1.16609e-05
4.84846e-05
-8.52788e-06
3.52746e-05
3.42907e-07
1.33217e-05
1.61469e-05
-1.65578e-05
3.98791e-05
-5.37518e-05
7.23549e-05
-9.77439e-05
0.00011422
-0.00014804
0.000165954
-0.00020412
0.000227864
-0.000265406
0.000300083
-0.000331247
0.000382571
-0.000400911
0.000475116
-0.000473585
0.000577348
-0.000548382
0.000688769
-0.000624353
0.000808798
-0.000700502
0.000936842
-0.000775806
0.00107242
-0.000849235
0.00121538
-0.000919781
0.00136621
-0.000986448
0.00152694
-0.00104817
0.00170367
-0.00110387
-0.00115274
0.0019119
-1.64293e-06
2.24873e-05
-3.95187e-06
4.57806e-05
-4.62709e-06
5.2461e-05
-1.68694e-06
4.55445e-05
6.55694e-06
2.70307e-05
2.1534e-05
-1.65535e-06
4.44453e-05
-3.9469e-05
7.62846e-05
-8.55911e-05
0.000117849
-0.000139308
0.000169739
-0.00019993
0.000232359
-0.000266739
0.000305906
-0.000338953
0.000390373
-0.000415714
0.000485546
-0.000496084
0.00059102
-0.00057906
0.000706222
-0.000663584
0.000830446
-0.000748577
0.000962914
-0.00083297
0.00110285
-0.000915739
0.00124957
-0.000995956
0.00140263
-0.00107285
0.00156202
-0.00114584
0.00172845
-0.0012146
0.00190359
-0.00127901
-0.00133615
0.002087
-8.77213e-07
2.33645e-05
-1.1283e-06
4.60317e-05
1.41828e-06
4.99144e-05
8.67756e-06
3.82852e-05
2.23068e-05
1.34014e-05
4.37205e-05
-2.3069e-05
7.41041e-05
-6.98527e-05
0.000114421
-0.000125908
0.000165411
-0.000190298
0.000227585
-0.000262104
0.000301212
-0.000340367
0.000386318
-0.000424058
0.000482677
-0.000512073
0.000589826
-0.000603234
0.000707081
-0.000696315
0.000833571
-0.000790073
0.000968281
-0.000883287
0.00111011
-0.000974802
0.00125795
-0.00106358
0.00141073
-0.00114873
0.00156749
-0.0012296
0.00172742
-0.00130577
0.0018899
-0.00137708
0.00205425
-0.00144336
-0.00150099
0.0022191
-1.24651e-07
2.34892e-05
1.70591e-06
4.42012e-05
7.55977e-06
4.40605e-05
1.9291e-05
2.6554e-05
3.85193e-05
-5.82694e-06
6.66282e-05
-5.11779e-05
0.000104762
-0.000107986
0.000153817
-0.000174963
0.000214432
-0.000250913
0.000286966
-0.000334639
0.000371494
-0.000424895
0.000467792
-0.000520356
0.000575344
-0.000619625
0.00069336
-0.000721249
0.000820805
-0.00082376
0.000956448
-0.000925716
0.00109892
-0.00102576
0.00124676
-0.00112265
0.00139853
-0.00121534
0.00155279
-0.001303
0.00170821
-0.00138502
0.00186354
-0.0014611
0.00201758
-0.00153112
0.00216916
-0.00159494
-0.00164936
0.00231753
6.07907e-07
2.28813e-05
4.52613e-06
4.02829e-05
1.37464e-05
3.48403e-05
3.0068e-05
1.02324e-05
5.5066e-05
-3.08249e-05
9.00729e-05
-8.61849e-05
0.00013616
-0.000154073
0.000194114
-0.000232917
0.000264413
-0.000321212
0.000347205
-0.000417431
0.000442291
-0.000519981
0.000549125
-0.00062719
0.000666828
-0.000737327
0.00079422
-0.000848642
0.000929876
-0.000959416
0.00107218
-0.00106803
0.00121943
-0.001173
0.00136985
-0.00127308
0.00152175
-0.00136724
0.00167349
-0.00145474
0.0018236
-0.00153513
0.0019707
-0.00160821
0.00211359
-0.00167401
0.00225121
-0.00173256
-0.00178142
0.00238327
1.32147e-06
2.15598e-05
7.33035e-06
3.42741e-05
1.9967e-05
2.22036e-05
4.09809e-05
-1.07814e-05
7.18915e-05
-6.17356e-05
0.000113955
-0.000128249
0.000168131
-0.000208249
0.000235042
-0.000299828
0.000314942
-0.000401112
0.000407689
-0.000510178
0.000512736
-0.000625028
0.000629142
-0.000743596
0.000755607
-0.000863792
0.000890528
-0.000983563
0.00103208
-0.00110097
0.0011783
-0.00121425
0.0013272
-0.0013219
0.00147683
-0.0014227
0.00162536
-0.00151577
0.00177117
-0.00160055
0.00191284
-0.00167679
0.00204917
-0.00174454
0.00217922
-0.00180406
0.00230227
-0.00185561
-0.00189764
0.0024185
2.02389e-06
1.95359e-05
1.01362e-05
2.61617e-05
2.62451e-05
6.09481e-06
5.205e-05
-3.65864e-05
8.89988e-05
-9.86843e-05
0.000138239
-0.000177489
0.000200567
-0.000270577
0.000276378
-0.000375639
0.000365626
-0.00049036
0.0004678
-0.000612352
0.000581931
-0.000739159
0.000706625
-0.000868289
0.000840123
-0.000997291
0.000980403
-0.00112384
0.00112528
-0.00124584
0.00127252
-0.00136149
0.00141997
-0.00146935
0.00156564
-0.00156837
0.00170776
-0.00165789
0.00184486
-0.00173766
0.0019758
-0.00180773
0.00209971
-0.00186845
0.00221603
-0.00192038
0.00232449
-0.00196408
-0.00199877
0.00242561
2.72785e-06
1.68081e-05
1.29753e-05
1.59143e-05
3.26273e-05
-1.35572e-05
6.33262e-05
-6.72853e-05
0.000106423
-0.000141781
0.000162912
-0.000233978
0.000233368
-0.000341033
0.000317882
-0.000460154
0.000416028
-0.000588505
0.000526849
-0.000723173
0.000648889
-0.0008612
0.000780265
-0.000999665
0.000918767
-0.00113579
0.00106199
-0.00126707
0.00120748
-0.00139133
0.00135286
-0.00150687
0.00149595
-0.00161244
0.00163487
-0.00170729
0.00176809
-0.00179111
0.00189446
-0.00186403
0.0020132
-0.00192646
0.00212387
-0.00197912
0.00222634
-0.00202285
0.00232079
-0.00205852
-0.00208597
0.00240799
3.4484e-06
1.33597e-05
1.58856e-05
3.47709e-06
3.91697e-05
-3.68413e-05
7.4868e-05
-0.000102984
0.000124198
-0.000191111
0.000187948
-0.000297728
0.000266395
-0.00041948
0.000359248
-0.000553007
0.000465616
-0.000694873
0.00058403
-0.000841587
0.000712509
-0.00098968
0.000848681
-0.00113584
0.000989926
-0.00127704
0.00113355
-0.00141069
0.00127695
-0.00153473
0.00141776
-0.00164767
0.00155394
-0.00174862
0.00168388
-0.00183723
0.0018064
-0.00191364
0.00192077
-0.00197839
0.00202664
-0.00203233
0.00212401
-0.0020765
0.00221317
-0.00211201
0.00229463
-0.00213998
-0.00216072
0.00236939
4.20038e-06
9.1593e-06
1.89036e-05
-1.12261e-05
4.59231e-05
-6.38609e-05
8.67202e-05
-0.000143781
0.00014233
-0.000246721
0.000213266
-0.000368664
0.00029943
-0.000505644
0.00040006
-0.000653637
0.000513732
-0.000808545
0.000638416
-0.000966271
0.000771602
-0.00112287
0.000910468
-0.0012747
0.00105208
-0.00141865
0.00119358
-0.00155219
0.00133237
-0.00167353
0.00146625
-0.00178155
0.00159348
-0.00187585
0.00171282
-0.00195657
0.00182356
-0.00202437
0.00192541
-0.00208024
0.00201845
-0.00212538
0.00210309
-0.00216114
0.00217994
-0.00218886
0.00224977
-0.00220981
-0.00222463
0.00231368
4.99618e-06
4.16313e-06
2.20578e-05
-2.82877e-05
5.29203e-05
-9.47234e-05
9.88942e-05
-0.000189755
0.000160771
-0.000308598
0.000238709
-0.000446602
0.000332151
-0.000599085
0.000439787
-0.000761273
0.000559601
-0.00092836
0.000688992
-0.00109566
0.000824953
-0.00125883
0.000964302
-0.00141405
0.00110391
-0.00155826
0.00124093
-0.00168921
0.00137292
-0.00180552
0.00149799
-0.00190662
0.00161482
-0.00199267
0.00172264
-0.00206439
0.00182119
-0.00212293
0.00191063
-0.00216968
0.00199144
-0.00220619
0.00206434
-0.00223403
0.00213017
-0.00225469
0.00218985
-0.0022695
-0.00227929
0.00224451
5.84419e-06
-1.68106e-06
2.53637e-05
-4.78072e-05
6.01674e-05
-0.000129527
0.000111357
-0.000240944
0.000179404
-0.000376645
0.00026403
-0.000531228
0.00036413
-0.000699186
0.000477786
-0.000874929
0.000602364
-0.00105294
0.000734713
-0.00122801
0.000871411
-0.00139552
0.00100904
-0.00155168
0.00114444
-0.00169366
0.00127492
-0.00181969
0.00139836
-0.00192896
0.00151329
-0.00202156
0.00161888
-0.00209826
0.00171485
-0.00216036
0.00180139
-0.00220947
0.00187905
-0.00224734
0.00194861
-0.00227576
0.00201101
-0.00229643
0.00206722
-0.0023109
0.00211823
-0.00232051
-0.00232616
0.0021651
6.74805e-06
-8.42911e-06
2.88213e-05
-6.98804e-05
6.76399e-05
-0.000168346
0.000124024
-0.000297328
0.000198044
-0.000450665
0.000288894
-0.000622079
0.000394852
-0.000805144
0.000513346
-0.000993423
0.000641137
-0.00118073
0.00077459
-0.00136146
0.000909986
-0.00153092
0.00104383
-0.00168552
0.00117308
-0.00182292
0.00129537
-0.00194197
0.00140901
-0.0020426
0.00151303
-0.00212558
0.00160711
-0.00219233
0.00169142
-0.00224468
0.00176657
-0.00228461
0.00183339
-0.00231416
0.00189289
-0.00233525
0.00194611
-0.00234965
0.00199408
-0.00235887
0.00203777
-0.0023642
-0.00236654
0.00207815
7.70651e-06
-1.61356e-05
3.24149e-05
-9.45888e-05
7.52821e-05
-0.000211213
0.000136765
-0.000358811
0.000216443
-0.000530342
0.000312901
-0.000718537
0.000423742
-0.000915985
0.000545733
-0.00111541
0.000675077
-0.00131007
0.000807761
-0.00149415
0.000939918
-0.00166308
0.00106813
-0.00181374
0.00118967
-0.00194446
0.00130257
-0.00205487
0.00140566
-0.00214569
0.00149852
-0.00221843
0.00158127
-0.00227509
0.00165453
-0.00231794
0.00171918
-0.00234927
0.0017763
-0.00237127
0.00182698
-0.00238593
0.00187231
-0.00239498
0.0019133
-0.00239986
0.00195085
-0.00240175
-0.00240148
0.00198579
8.71384e-06
-2.48495e-05
3.61141e-05
-0.000121989
8.30106e-05
-0.00025811
0.000149408
-0.000425208
0.000234304
-0.000615238
0.000335605
-0.000819838
0.000450207
-0.00103059
0.000574242
-0.00123945
0.000703443
-0.00143927
0.000833559
-0.00162426
0.000960737
-0.00179025
0.00108181
-0.00193481
0.00119445
-0.0020571
0.00129722
-0.00215764
0.0013895
-0.00223797
0.00147134
-0.00230027
0.00154333
-0.00234708
0.00160637
-0.00238098
0.00166159
-0.00240449
0.00171016
-0.00241984
0.00175322
-0.002429
0.00179184
-0.0024336
0.00182694
-0.00243496
0.00185931
-0.00243413
-0.00243184
0.00188968
9.76062e-06
-3.46101e-05
3.98764e-05
-0.000152105
9.07199e-05
-0.000308953
0.00016175
-0.000496238
0.0002513
-0.000704788
0.000356545
-0.000925083
0.000473674
-0.00114772
0.000598248
-0.00136402
0.00072565
-0.00156668
0.000851551
-0.00175016
0.000972274
-0.00191098
0.00108504
-0.00204757
0.00118802
-0.00216008
0.00128035
-0.00224997
0.00136192
-0.00231954
0.00143324
-0.0023716
0.00149523
-0.00240907
0.00154905
-0.0024348
0.00159593
-0.00245136
0.00163707
-0.00246098
0.0016736
-0.00246553
0.0017065
-0.0024665
0.0017366
-0.00246506
0.00176459
-0.00246211
-0.00245828
0.00179102
1.08344e-05
-4.54445e-05
4.36502e-05
-0.000184921
9.82879e-05
-0.000363591
0.00017357
-0.00057152
0.000267094
-0.000798312
0.000375274
-0.00103326
0.000493628
-0.00126607
0.000617242
-0.00148764
0.0007413
-0.00169073
0.000861553
-0.00187042
0.000974654
-0.00202408
0.00107831
-0.00215122
0.00117126
-0.00225304
0.00125318
-0.00233189
0.00132445
-0.00239081
0.00138595
-0.0024331
0.00143886
-0.00246198
0.00148446
-0.0024804
0.00152403
-0.00249093
0.00155876
-0.00249572
0.0015897
-0.00249647
0.00161772
-0.00249452
0.00164354
-0.00249088
0.00166772
-0.0024863
-0.00248128
0.00169072
1.19207e-05
-5.73651e-05
4.73768e-05
-0.000220377
0.000105583
-0.000421797
0.00018464
-0.000650577
0.000281356
-0.000895028
0.000391385
-0.00114329
0.000509641
-0.00138433
0.000630864
-0.00160886
0.000750195
-0.00181007
0.000863625
-0.00198385
0.000968253
-0.00212871
0.00106234
-0.00224531
0.00114521
-0.00233591
0.00121704
-0.00240372
0.00127863
-0.0024524
0.00133113
-0.0024856
0.00137588
-0.00250673
0.00141424
-0.00251875
0.00144746
-0.00252415
0.00147666
-0.00252491
0.00150277
-0.00252258
0.00152657
-0.00251831
0.00154865
-0.00251296
0.00156949
-0.00250713
-0.00250121
0.00158941
1.30032e-05
-7.03683e-05
5.0994e-05
-0.000258368
0.00011247
-0.000483273
0.000194737
-0.000732844
0.000293781
-0.000994072
0.000404529
-0.00125404
0.000521391
-0.00150119
0.000638908
-0.00172638
0.000752335
-0.00192349
0.00085804
-0.00208955
0.000953654
-0.00222432
0.00103803
-0.00232968
0.00111103
-0.00240891
0.00117328
-0.00246598
0.00122591
-0.00250503
0.00127028
-0.00252996
0.00130779
-0.00254424
0.00133979
-0.00255075
0.00136747
-0.00255184
0.00139186
-0.0025493
0.00141377
-0.00254449
0.00143386
-0.0025384
0.00145263
-0.00253173
0.00147043
-0.00252493
-0.00251832
0.00148754
1.40648e-05
-8.44331e-05
5.44378e-05
-0.000298741
0.000118815
-0.00054765
0.00020365
-0.000817678
0.000304102
-0.00109452
0.000414436
-0.00136437
0.000528678
-0.00161543
0.000641325
-0.00183902
0.000747899
-0.00203007
0.000845246
-0.0021869
0.000931582
-0.00231066
0.00100634
-0.00240443
0.00106987
-0.00247244
0.0011232
-0.0025193
0.00116765
-0.00254948
0.00120472
-0.00256702
0.00123581
-0.00257534
0.00126224
-0.00257718
0.00128508
-0.00257468
0.00130524
-0.00256947
0.00132344
-0.00256269
0.0013402
-0.00255517
0.00135594
-0.00254747
0.00137095
-0.00253994
-0.00253278
0.00138541
1.50879e-05
-9.9521e-05
5.76445e-05
-0.000341297
0.000124492
-0.000614498
0.000211193
-0.000904379
0.000312104
-0.00119544
0.000420917
-0.00147319
0.000531418
-0.00172593
0.000638214
-0.00194582
0.000737214
-0.00212907
0.000825822
-0.00227551
0.000902853
-0.00238769
0.000968277
-0.00246986
0.00102289
-0.00252706
0.00106797
-0.00256438
0.00110503
-0.00258654
0.00113558
-0.00259757
0.001161
-0.00260076
0.0011825
-0.00259868
0.00120106
-0.00259324
0.00121747
-0.00258587
0.0012323
-0.00257753
0.00124603
-0.00256889
0.00125896
-0.0025604
0.00127131
-0.00255229
-0.00254471
0.00128325
1.60547e-05
-0.000115576
6.05533e-05
-0.000385796
0.000129385
-0.000683329
0.000217208
-0.000992202
0.000317626
-0.00129585
0.000423873
-0.00157943
0.000529644
-0.0018317
0.000629794
-0.00204597
0.000720725
-0.00222
0.000800434
-0.00235522
0.00086832
-0.00245557
0.000924837
-0.00252637
0.000971127
-0.00257335
0.00100868
-0.00260194
0.00103908
-0.00261694
0.00106381
-0.00262231
0.00108419
-0.00262114
0.00110131
-0.00261579
0.00111603
-0.00260797
0.00112902
-0.00259886
0.00114077
-0.00258928
0.00115165
-0.00257977
0.00116192
-0.00257066
0.00117173
-0.00256211
-0.00255419
0.00118121
1.69478e-05
-0.000132523
6.31075e-05
-0.000431956
0.000133394
-0.000753616
0.00022157
-0.00108038
0.000320566