1.22 	3.45254e-18 	-6.98323e-18 	-0.347591 	0.00940888 	-6.28438e-22
1.66 	3.45254e-18 	-6.96118e-18 	-0.597885 	0.000963999 	-5.18872e-23
2.1 	3.45254e-18 	-6.93894e-18 	-0.418127 	-0.00525512 	-1.40477e-21
2.54 	3.45254e-18 	-8.30431e-18 	-0.311373 	-0.00670079 	-7.06656e-24
2.98 	3.45254e-18 	-8.28171e-18 	-0.0300808 	-0.00751996 	1.90999e-22
3.42 	3.45254e-18 	-6.87115e-18 	0.145353 	-0.00631423 	-1.66517e-22
3.86 	3.45254e-18 	-6.84819e-18 	0.344989 	-0.00560268 	-6.3387e-23
4.3 	3.45254e-18 	-6.82504e-18 	0.481137 	-0.00425535 	-3.53745e-22
4.74 	3.45254e-18 	-5.41391e-18 	0.590226 	-0.00329019 	2.1248e-22
5.18 	3.45254e-18 	-2.61482e-18 	0.668277 	-0.00258703 	1.16252e-22
5.62 	3.45254e-18 	-1.2033e-18 	0.731897 	-0.00214255 	-4.9697e-23
6.06 	3.45254e-18 	-1.17937e-18 	0.784032 	-0.00179362 	-1.3085e-22
6.5 	3.45254e-18 	-1.15524e-18 	0.828212 	-0.00149716 	6.30928e-23
