/*--------------------------------*- C++ -*----------------------------------*\
  =========                 |
  \\      /  F ield         | OpenFOAM: The Open Source CFD Toolbox
   \\    /   O peration     | Website:  https://openfoam.org
    \\  /    A nd           | Version:  6.0
     \\/     M anipulation  |
\*---------------------------------------------------------------------------*/
FoamFile
{
    version     2.0;
    format      ascii;
    class       surfaceScalarField;
    location    "21.6";
    object      phi;
}
// * * * * * * * * * * * * * * * * * * * * * * * * * * * * * * * * * * * * * //

dimensions      [0 3 -1 0 0 0 0];

internalField   nonuniform List<scalar> 
15760
(
-2.88922e-06
2.7369e-06
1.52317e-07
-1.02078e-05
6.96514e-06
3.53476e-07
-2.08857e-05
1.01998e-05
4.7814e-07
-3.40507e-05
1.26191e-05
5.45895e-07
-4.90038e-05
1.43808e-05
5.72254e-07
-6.5198e-05
1.56249e-05
5.69346e-07
-8.22192e-05
1.64747e-05
5.46439e-07
-9.97677e-05
1.7038e-05
5.10435e-07
-0.000117643
1.74089e-05
4.66353e-07
-0.00013573
1.76689e-05
4.17747e-07
-0.000153985
1.78888e-05
3.67072e-07
-0.00017243
1.81288e-05
3.15985e-07
-0.000191135
1.84393e-05
2.6558e-07
-0.000210213
1.88613e-05
2.16576e-07
-0.000229809
1.94267e-05
1.69427e-07
-0.000250091
2.01578e-05
1.2441e-07
-0.000271241
2.10682e-05
8.16594e-08
-0.000293445
2.21625e-05
4.11895e-08
-0.000316887
2.3439e-05
3.03671e-09
2.48954e-05
-3.27506e-08
-0.000341749
-2.87476e-06
5.61166e-06
-1.01551e-05
1.42455e-05
-2.07715e-05
2.08162e-05
-3.38507e-05
2.56982e-05
-4.86909e-05
2.9221e-05
-6.47417e-05
3.16757e-05
-8.15841e-05
3.33171e-05
-9.89126e-05
3.43665e-05
-0.00011652
3.50164e-05
-0.000134284
3.54332e-05
-0.000152156
3.57605e-05
-0.000170148
3.61208e-05
-0.000188326
3.66172e-05
-0.000206798
3.73338e-05
-0.000225708
3.83362e-05
-0.000245222
3.96719e-05
-0.000265524
4.137e-05
-0.000286803
4.34417e-05
-0.000309249
4.58849e-05
4.86955e-05
-0.000333049
-2.84657e-06
8.45824e-06
-1.00519e-05
2.14507e-05
-2.05478e-05
3.13122e-05
-3.34589e-05
3.86093e-05
-4.80788e-05
4.3841e-05
-6.38502e-05
4.74472e-05
-8.03449e-05
4.98118e-05
-9.72464e-05
5.1268e-05
-0.000114335
5.21047e-05
-0.000131473
5.2572e-05
-0.000148599
5.28861e-05
-0.000165711
5.32327e-05
-0.000182863
5.37691e-05
-0.000200154
5.46253e-05
-0.000217723
5.59046e-05
-0.000235734
5.76834e-05
-0.000254375
6.0011e-05
-0.000273843
6.29091e-05
-0.000294336
6.63785e-05
7.04146e-05
-0.000316055
-2.80682e-06
1.12651e-05
-9.90465e-06
2.85486e-05
-2.02271e-05
4.16346e-05
-3.28956e-05
5.12778e-05
-4.71977e-05
5.81431e-05
-6.25668e-05
6.28162e-05
-7.85619e-05
6.58069e-05
-9.48506e-05
6.75567e-05
-0.000111194
6.84484e-05
-0.000127436
6.88138e-05
-0.000143491
6.89409e-05
-0.000159337
6.90789e-05
-0.00017501
6.94419e-05
-0.000190594
7.02096e-05
-0.000206218
7.15284e-05
-0.000222045
7.35104e-05
-0.000238266
7.62321e-05
-0.00025509
7.97328e-05
-0.000272733
8.40219e-05
8.90977e-05
-0.000291416
-2.75827e-06
1.40233e-05
-9.7216e-06
3.55119e-05
-1.98247e-05
5.17377e-05
-3.21856e-05
6.36387e-05
-4.60851e-05
7.20426e-05
-6.09456e-05
7.76767e-05
-7.6311e-05
8.11723e-05
-9.18297e-05
8.30754e-05
-0.000107239
8.38581e-05
-0.000122356
8.39307e-05
-0.000137067
8.36513e-05
-0.00015132
8.33327e-05
-0.000165126
8.32476e-05
-0.000178547
8.36306e-05
-0.000191697
8.46781e-05
-0.000204734
8.65471e-05
-0.000217853
8.93516e-05
-0.00023128
9.31595e-05
-0.000245257
9.79991e-05
0.000103877
-0.000260037
-2.70371e-06
1.6727e-05
-9.51075e-06
4.23189e-05
-1.93557e-05
6.15827e-05
-3.13532e-05
7.56362e-05
-4.47774e-05
8.54668e-05
-5.90398e-05
9.19391e-05
-7.36685e-05
9.58011e-05
-8.82903e-05
9.76972e-05
-0.000102616
9.81838e-05
-0.00011643
9.77449e-05
-0.000129584
9.68047e-05
-0.00014199
9.57385e-05
-0.000153621
9.48791e-05
-0.000164511
9.45204e-05
-0.00017475
9.49172e-05
-0.000184486
9.62831e-05
-0.000193919
9.87843e-05
-0.000203292
0.000102533
-0.000212886
0.000107592
0.000113991
-0.000222999
-2.64538e-06
1.93724e-05
-9.27814e-06
4.89517e-05
-1.88309e-05
7.11354e-05
-3.04153e-05
8.72206e-05
-4.33001e-05
9.83516e-05
-5.68875e-05
0.000105527
-7.06911e-05
0.000109605
-8.43162e-05
0.000111322
-9.74455e-05
0.000111313
-0.000109828
0.000110128
-0.000121275
0.000108251
-0.000131653
0.000106117
-0.000140892
0.000104118
-0.000148981
0.00010261
-0.00015598
0.000101916
-0.000162016
0.000102319
-0.000167287
0.000104056
-0.00017206
0.000107306
-0.00017666
0.000112193
0.000118787
-0.000181456
-2.58438e-06
2.19568e-05
-9.02598e-06
5.53933e-05
-1.8253e-05
8.03624e-05
-2.93747e-05
9.83424e-05
-4.1657e-05
0.000110634
-5.44962e-05
0.000118366
-6.73942e-05
0.000122503
-7.9938e-05
0.000123866
-9.17835e-05
0.000123159
-0.000102644
0.000120988
-0.000112286
0.000117893
-0.000120527
0.000114358
-0.00012724
0.000110831
-0.000132361
0.000107731
-0.000135901
0.000105455
-0.000137954
0.000104371
-0.000138708
0.00010481
-0.000138448
0.000107047
-0.000137556
0.000111301
0.000117724
-0.000136493
-2.52028e-06
2.44771e-05
-8.75111e-06
6.16241e-05
-1.76133e-05
8.92246e-05
-2.82146e-05
0.000108944
-3.98212e-05
0.00012224
-5.18277e-05
0.000130372
-6.37301e-05
0.000134405
-7.51025e-05
0.000135238
-8.55786e-05
0.000133635
-9.48399e-05
0.00013025
-0.000102609
0.000125662
-0.000108648
0.000120397
-0.000112769
0.000114951
-0.000114839
0.000109801
-0.000114804
0.00010542
-0.000112705
0.000102273
-0.000108703
0.000100807
-0.000103091
0.000101435
-9.63109e-05
0.000104521
0.000110357
-8.8944e-05
-2.45083e-06
2.69279e-05
-8.44429e-06
6.76176e-05
-1.689e-05
9.76703e-05
-2.68947e-05
0.000118948
-3.77274e-05
0.000133073
-4.87867e-05
0.000141431
-5.95691e-05
0.000145188
-6.96438e-05
0.000145313
-7.8631e-05
0.000142622
-8.61875e-05
0.000137806
-9.19982e-05
0.000131473
-9.5774e-05
0.000124173
-9.72586e-05
0.000116436
-9.62432e-05
0.000108786
-9.25897e-05
0.000101767
-8.62623e-05
9.59456e-05
-7.73651e-05
9.19098e-05
-6.61798e-05
9.02497e-05
-5.32024e-05
9.15435e-05
9.63151e-05
-3.91604e-05
-2.37215e-06
2.93001e-05
-8.09032e-06
7.33358e-05
-1.60482e-05
0.000105628
-2.53501e-05
0.00012825
-3.52702e-05
0.000142993
-4.52147e-05
0.000151376
-5.46882e-05
0.000154661
-6.32638e-05
0.000153889
-7.05595e-05
0.000149918
-7.62199e-05
0.000143467
-7.99045e-05
0.000135157
-8.12825e-05
0.000125551
-8.00366e-05
0.00011519
-7.58771e-05
0.000104626
-6.85694e-05
9.4459e-05
-5.79747e-05
8.53509e-05
-4.41061e-05
7.80413e-05
-2.71954e-05
7.3339e-05
-7.77028e-06
7.21183e-05
7.52657e-05
1.32791e-05
-2.27917e-06
3.15792e-05
-7.66945e-06
7.8726e-05
-1.50419e-05
0.000113001
-2.34949e-05
0.000136703
-3.23063e-05
0.000151805
-4.08925e-05
0.000159962
-4.87704e-05
0.000162539
-5.55256e-05
0.000160644
-6.07858e-05
0.000155178
-6.4199e-05
0.00014688
-6.54179e-05
0.000136376
-6.40895e-05
0.000124223
-5.98533e-05
0.000110954
-5.23508e-05
9.7124e-05
-4.12498e-05
8.3358e-05
-2.6291e-05
7.03921e-05
-7.35908e-06
5.91094e-05
1.54168e-05
5.05631e-05
4.1527e-05
4.60082e-05
4.68692e-05
6.99235e-05
-2.16641e-06
3.37457e-05
-7.15958e-06
8.37192e-05
-1.38185e-05
0.00011966
-2.1228e-05
0.000144113
-2.86646e-05
0.000159241
-3.55516e-05
0.000166849
-4.14187e-05
0.000168406
-4.5868e-05
0.000165093
-4.85459e-05
0.000157856
-4.91192e-05
0.000147453
-4.72554e-05
0.000134512
-4.26078e-05
0.000119575
-3.48055e-05
0.000103151
-2.34527e-05
8.57712e-05
-8.14398e-06
6.80493e-05
1.14958e-05
5.07523e-05
3.57343e-05
3.48709e-05
6.46039e-05
2.16935e-05
9.76943e-05
1.29178e-05
1.07143e-05
0.000133849
-2.02889e-06
3.57745e-05
-6.53912e-06
8.82294e-05
-1.23244e-05
0.000125445
-1.84433e-05
0.000150232
-2.41601e-05
0.000164958
-2.88955e-05
0.000171585
-3.21846e-05
0.000171695
-3.36422e-05
0.000166551
-3.2935e-05
0.000157148
-2.97573e-05
0.000144276
-2.3811e-05
0.000128566
-1.4787e-05
0.000110551
-2.34808e-06
9.07123e-05
1.38831e-05
6.954e-05
3.43269e-05
4.76056e-05
5.94264e-05
2.56527e-05
8.95856e-05
4.71173e-06
0.000125037
-1.37576e-05
0.000165574
-2.76197e-05
-3.37678e-05
0.000210056
-1.86301e-06
3.76376e-05
-5.78949e-06
9.21559e-05
-1.05097e-05
0.000130165
-1.50386e-05
0.000154761
-1.86102e-05
0.00016853
-2.0625e-05
0.000173599
-2.06067e-05
0.000171677
-1.81679e-05
0.000164112
-1.29842e-05
0.000151965
-4.77386e-06
0.000136065
6.71927e-06
0.000117073
2.17428e-05
9.55276e-05
4.05542e-05
7.19009e-05
6.34415e-05
4.66527e-05
9.07448e-05
2.03023e-05
0.000122868
-6.47005e-06
0.000160257
-3.26775e-05
0.000203313
-5.68138e-05
0.000252125
-7.64318e-05
-8.74182e-05
0.000305775
-1.66685e-06
3.93044e-05
-4.89644e-06
9.53855e-05
-8.33246e-06
0.000133601
-1.09229e-05
0.000157351
-1.18477e-05
0.000169455
-1.04617e-05
0.000172213
-6.25022e-06
0.000167465
1.20429e-06
0.000156658
1.22435e-05
0.000140925
2.71476e-05
0.000121161
4.61443e-05
9.80763e-05
6.94168e-05
7.22551e-05
9.71146e-05
4.42031e-05
0.000129371
1.43965e-05
0.000166332
-1.66585e-05
0.000208196
-4.83346e-05
0.000255254
-7.97355e-05
0.000307895
-0.000109454
0.000366475
-0.000135012
-0.000151477
0.000430533
-1.4399e-06
4.07443e-05
-3.84917e-06
9.77948e-05
-5.75683e-06
0.000135509
-6.01648e-06
0.000157611
-3.72497e-06
0.000167163
1.84018e-06
0.000166648
1.12676e-05
0.000158038
2.50431e-05
0.000142882
4.35668e-05
0.000122402
6.71588e-05
9.75691e-05
9.60576e-05
6.91776e-05
0.000130412
3.79006e-05
0.000170274
4.34077e-06
0.000215597
-3.09264e-05
0.000266247
-6.73077e-05
0.000322039
-0.000104127
0.000382813
-0.00014051
0.000448545
-0.000175186
0.000519487
-0.000205954
-0.000227779
0.000595789
-1.18179e-06
4.19261e-05
-2.63701e-06
9.925e-05
-2.7479e-06
0.00013562
-2.43531e-07
0.000155106
5.89417e-06
0.000161025
1.65002e-05
0.000156042
3.22759e-05
0.000142262
5.38196e-05
0.000121338
8.16385e-05
9.45828e-05
0.000116148
6.306e-05
0.000157656
2.76697e-05
0.000206341
-1.07848e-05
0.000262221
-5.15388e-05
0.000325112
-9.38178e-05
0.000394599
-0.000136795
0.000470016
-0.000179544
0.000550472
-0.000220966
0.000634963
-0.000259676
0.00072271
-0.000293701
-0.000319624
0.000814555
-8.90457e-07
4.28166e-05
-1.2439e-06
9.96034e-05
7.3857e-07
0.000133637
6.48338e-06
0.000149361
1.71554e-05
0.000150353
3.37363e-05
0.000139461
5.70775e-05
0.000118921
8.79298e-05
9.0486e-05
0.000126953
5.55592e-05
0.000174711
1.53022e-05
0.000231649
-2.9268e-05
0.000298062
-7.71978e-05
0.000374048
-0.000127525
0.00045944
-0.00017921
0.000553711
-0.000231066
0.000655852
-0.000281684
0.000764216
-0.000329331
0.000876342
-0.000371802
0.000989062
-0.000406422
-0.00043357
0.00110301
-5.59875e-07
4.33764e-05
3.57934e-07
9.86856e-05
4.76797e-06
0.000129227
1.42818e-05
0.000139848
3.02401e-05
0.000134395
5.37997e-05
0.000115902
8.59892e-05
8.67313e-05
0.000127737
4.87378e-05
0.000179881
3.41543e-06
0.000243158
-4.7975e-05
0.000318192
-0.000104302
0.00040547
-0.000164475
0.000505315
-0.000227371
0.000617861
-0.000291755
0.000742986
-0.000356191
0.00088021
-0.000418909
0.00102842
-0.000477537
0.00118495
-0.000528332
0.00134247
-0.000563943
-0.0005692
0.0014781
-1.7902e-07
4.35554e-05
2.21208e-06
9.62945e-05
9.43528e-06
0.000122004
2.33134e-05
0.00012597
4.53858e-05
0.000112323
7.70022e-05
8.42855e-05
0.000119376
4.43572e-05
0.00017361
-5.49552e-06
0.000240693
-6.36681e-05
0.000321499
-0.00012878
0.000416768
-0.000199571
0.000527115
-0.000274822
0.000653051
-0.000353306
0.000795052
-0.000433756
0.00095372
-0.000514859
0.00113007
-0.000595263
0.00132611
-0.000673573
0.00154608
-0.000748297
0.00180032
-0.00081819
-0.000880204
0.00211133
2.71666e-07
4.32838e-05
4.38433e-06
9.21818e-05
1.48735e-05
0.000111515
3.37935e-05
0.00010705
6.28964e-05
8.32198e-05
0.000103726
4.34562e-05
0.000157662
-9.57898e-06
0.000225932
-7.37658e-05
0.000309597
-0.000147333
0.000409529
-0.000228712
0.000526393
-0.000316435
0.000660647
-0.000409077
0.00081257
-0.000505229
0.000982327
-0.000603514
0.0011701
-0.000702633
0.00137629
-0.000801449
0.00160181
-0.000899099
0.00184863
-0.000995114
0.00211989
-0.00108945
-0.00117457
0.00241425
8.15712e-07
4.24681e-05
6.95387e-06
8.60437e-05
2.12404e-05
9.72283e-05
4.59727e-05
8.23172e-05
8.31153e-05
4.60772e-05
0.000134385
-7.81349e-06
0.000201278
-7.64715e-05
0.000285053
-0.000157541
0.000386697
-0.000248978
0.000506884
-0.000348899
0.000645939
-0.00045549
0.00080383
-0.000566968
0.00098019
-0.000681588
0.00117436
-0.000797688
0.00138549
-0.000913758
0.00161258
-0.00102854
0.0018546
-0.00114112
0.00211049
-0.00125101
0.00237897
-0.00135793
-0.00145338
0.00265779
1.48128e-06
4.09868e-05
1.00107e-05
7.75143e-05
2.87087e-05
7.85303e-05
6.01136e-05
5.09123e-05
0.000106382
-1.91553e-07
0.000169355
-7.07859e-05
0.000250548
-0.000157665
0.000351111
-0.000258104
0.000471758
-0.000369625
0.00061271
-0.000489851
0.000773661
-0.000616441
0.000953774
-0.000747081
0.00115172
-0.000879535
0.00136575
-0.00101172
0.00159377
-0.00114178
0.00183343
-0.0012682
0.00208216
-0.00138985
0.00233718
-0.00150603
0.00259554
-0.00161629
-0.00171343
0.00285559
2.2974e-06
3.86894e-05
1.36443e-05
6.61674e-05
3.74426e-05
5.4732e-05
7.64494e-05
1.19055e-05
0.000132966
-5.67079e-05
0.000208864
-0.000146684
0.000305538
-0.000254339
0.000423824
-0.00037639
0.000563912
-0.000509712
0.000725285
-0.000651224
0.000906713
-0.000797869
0.00110629
-0.000946661
0.00132155
-0.00109479
0.00154955
-0.00123972
0.00178707
-0.0013793
0.00203072
-0.00151185
0.00227704
-0.00163616
0.00252253
-0.00175152
0.00276388
-0.00185763
-0.00194932
0.00299977
3.29068e-06
3.53987e-05
1.79326e-05
5.15254e-05
4.75738e-05
2.50909e-05
9.51409e-05
-3.56616e-05
0.000162992
-0.000124559
0.000252891
-0.000236582
0.000365907
-0.000367356
0.000502305
-0.000512788
0.000661457
-0.000668864
0.000841818
-0.000831586
0.00104099
-0.000997038
0.00125584
-0.00116151
0.00148271
-0.00132166
0.00171764
-0.00147465
0.00195659
-0.00161825
0.00219561
-0.00175087
0.00243102
-0.00187157
0.00265948
-0.00197998
0.00287814
-0.0020763
-0.00215743
0.00308625
4.48258e-06
3.09161e-05
2.29323e-05
3.30757e-05
5.91807e-05
-1.11576e-05
0.000116239
-9.27202e-05
0.000196389
-0.000204709
0.000301085
-0.000341278
0.000430812
-0.000497083
0.000584963
-0.000666939
0.000761791
-0.000845692
0.000958475
-0.00102827
0.0011713
-0.00120986
0.00139591
-0.00138612
0.00162764
-0.0015534
0.00186184
-0.00170885
0.00209411
-0.00185052
0.00232058
-0.00197733
0.00253796
-0.00208896
0.0027437
-0.00218573
0.00293595
-0.00226854
-0.00233615
0.00311467
5.88753e-06
2.50286e-05
2.86715e-05
1.02918e-05
7.22723e-05
-5.47584e-05
0.000139658
-0.000160106
0.000232843
-0.000297894
0.000352718
-0.000461153
0.000498875
-0.00064324
0.000669519
-0.000837583
0.000861524
-0.0010377
0.00107065
-0.00123739
0.00129187
-0.00143108
0.00151983
-0.00161408
0.00174922
-0.00178279
0.00197518
-0.00193482
0.00219359
-0.00206893
0.00240116
-0.0021849
0.00259556
-0.00228336
0.00277539
-0.00236555
0.00294001
-0.00243316
-0.00248643
0.00309029
7.51202e-06
1.75166e-05
3.51457e-05
-1.73419e-05
8.67784e-05
-0.000106391
0.000165158
-0.000238486
0.000271786
-0.000404522
0.00040668
-0.000596047
0.000568212
-0.000804771
0.000753119
-0.00102249
0.000956732
-0.00124131
0.0011734
-0.00145406
0.00139704
-0.00165472
0.00162165
-0.00183869
0.00184183
-0.00200297
0.00205311
-0.0021461
0.00225213
-0.00226795
0.0024367
-0.00236947
0.0026057
-0.00245237
0.00275898
-0.00251882
0.00289706
-0.00257125
-0.00261098
0.00302161
9.35428e-06
8.16231e-06
4.2316e-05
-5.03036e-05
0.000102546
-0.000166621
0.000192342
-0.000328282
0.000312396
-0.000524576
0.000461515
-0.000745166
0.000636541
-0.000979798
0.00083255
-0.0012185
0.00104333
-0.00145209
0.00126204
-0.00167278
0.00148193
-0.0018746
0.00169694
-0.00205369
0.00190214
-0.00220817
0.00209397
-0.00233793
0.00227026
-0.00244424
0.00243011
-0.00252931
0.00257365
-0.00259591
0.00270182
-0.00264699
0.00281608
-0.0026855
-0.00271349
0.00291859
1.14042e-05
-3.24189e-06
5.01078e-05
-8.90071e-05
0.000119337
-0.00023585
0.000220662
-0.000429607
0.000353625
-0.000657539
0.000515491
-0.000907032
0.000701335
-0.00116564
0.000904525
-0.00142169
0.00111749
-0.00166506
0.00133263
-0.00188791
0.00154308
-0.00208505
0.0017433
-0.00225391
0.00192936
-0.00239423
0.00209899
-0.00250755
0.00225135
-0.0025966
0.00238682
-0.00266478
0.00250661
-0.0027157
0.00261246
-0.00275284
0.00270636
-0.00277941
-0.00279782
0.0027907
1.36431e-05
-1.6885e-05
5.84112e-05
-0.000133775
0.000136834
-0.000314273
0.000249431
-0.000542203
0.000394246
-0.000802354
0.000566713
-0.0010795
0.00076003
-0.00135896
0.000965993
-0.00162765
0.00117607
-0.00187514
0.00138244
-0.00209428
0.00157873
-0.00228134
0.00176044
-0.00243563
0.00192501
-0.0025588
0.00207157
-0.00265411
0.0022006
-0.00272563
0.00231352
-0.00277771
0.0024123
-0.00281448
0.00249914
-0.00283968
0.00257624
-0.0028565
-0.00286746
0.00264588
1.60435e-05
-3.29286e-05
6.70817e-05
-0.000184813
0.000154645
-0.000401836
0.000277852
-0.00066541
0.000432919
-0.000957422
0.000613259
-0.00125984
0.000810244
-0.00155594
0.00101443
-0.00183184
0.00121687
-0.00207757
0.00141011
-0.00228752
0.00158883
-0.00246007
0.00174994
-0.00259673
0.00189233
-0.0027012
0.00201651
-0.00277828
0.00212401
-0.00283314
0.00221701
-0.0028707
0.00229788
-0.00289535
0.00236896
-0.00291077
0.0024324
-0.00291993
-0.00292528
0.00249021
1.85688e-05
-5.14973e-05
7.59415e-05
-0.000242186
0.000172315
-0.00049821
0.000305054
-0.000798149
0.000468278
-0.00112065
0.000653325
-0.00144489
0.000849986
-0.00175261
0.00104807
-0.00202993
0.00123881
-0.00226831
0.00141571
-0.00246442
0.00157485
-0.00261921
0.00171469
-0.00273657
0.00183555
-0.00282206
0.00193904
-0.00288177
0.00202747
-0.00292156
0.0021034
-0.00294663
0.00216933
-0.00296129
0.00222751
-0.00296895
0.00227986
-0.00297228
-0.00297348
0.00232806
2.1173e-05
-7.26704e-05
8.47843e-05
-0.000305797
0.000189344
-0.00060277
0.000330138
-0.000938943
0.000499022
-0.00128953
0.000685374
-0.00163124
0.000877815
-0.00194505
0.001066
-0.00221811
0.00124192
-0.00244423
0.00140045
-0.00262296
0.00153928
-0.00275804
0.00165836
-0.00285565
0.00175922
-0.00292292
0.00184426
-0.00296681
0.00191622
-0.00299353
0.00197779
-0.0030082
0.00203136
-0.00301486
0.00207894
-0.00301653
0.00212216
-0.00301549
-0.00301366
0.00216234
2.38021e-05
-9.64725e-05
9.33814e-05
-0.000375377
0.000205213
-0.000714602
0.000352237
-0.00108597
0.000524013
-0.0014613
0.000708247
-0.00181547
0.000892924
-0.00212972
0.00106814
-0.00239333
0.00122714
-0.00260322
0.00136641
-0.00276222
0.00148522
-0.00287685
0.00158483
-0.00295527
0.00166767
-0.00300576
0.00173663
-0.00303577
0.0017946
-0.00305149
0.00184415
-0.00305775
0.00188744
-0.00305815
0.00192618
-0.00305527
0.00196169
-0.003051
-0.00304694
0.00199497
2.63947e-05
-0.000122867
0.000101491
-0.000450473
0.000219407
-0.000832518
0.000370565
-0.00123712
0.00054235
-0.00163309
0.00072123
-0.00199435
0.000895147
-0.00230364
0.00105518
-0.00255336
0.00119612
-0.00274416
0.00131613
-0.00288224
0.00141594
-0.00297666
0.00149782
-0.00303715
0.00156478
-0.00307271
0.0016199
-0.00309089
0.00166601
-0.0030976
0.00170544
-0.00309718
0.00174004
-0.00309275
0.00177122
-0.00308645
0.00180001
-0.00307979
-0.00307406
0.00182713
2.88846e-05
-0.000151752
0.00010887
-0.000530458
0.000231449
-0.000955097
0.000384472
-0.00139015
0.000553427
-0.00180204
0.000724076
-0.002165
0.000884889
-0.00246445
0.00102833
-0.00269681
0.00115091
-0.00286674
0.00125237
-0.0029837
0.00133461
-0.00305891
0.00140065
-0.00310318
0.00145376
-0.00312582
0.00149701
-0.00313415
0.00153301
-0.00313359
0.00156379
-0.00312796
0.00159087
-0.00311984
0.00161539
-0.00311097
0.00163811
-0.00310251
-0.00309553
0.00165958
3.12035e-05
-0.000182955
0.000115285
-0.00061454
0.000240923
-0.00108074
0.000393481
-0.00154271
0.000556951
-0.00196551
0.000716961
-0.00232501
0.000863008
-0.0026105
0.000989202
-0.002823
0.00109375
-0.00297128
0.00117778
-0.00306773
0.00124409
-0.00312522
0.00129612
-0.00315521
0.0013372
-0.0031669
0.00137023
-0.00316718
0.00139749
-0.00316085
0.0014207
-0.00315117
0.00144109
-0.00314024
0.00145954
-0.00312942
0.00147664
-0.00311961
-0.00311164
0.00149275
3.32838e-05
-0.000216239
0.000120526
-0.000701782
0.000247503
-0.00120771
0.000397306
-0.00169251
0.00055293
-0.00212114
0.00070042
-0.0024725
0.000830677
-0.00274076
0.000939562
-0.00293189
0.00102685
-0.00305857
0.00109481
-0.00313568
0.00114683
-0.00317725
0.00118653
-0.00319491
0.00121712
-0.0031975
0.00124122
-0.00319127
0.00126077
-0.00318041
0.0012772
-0.0031676
0.00129147
-0.00315451
0.00130425
-0.0031422
0.00131599
-0.00313134
-0.00312258
0.00132693
3.50656e-05
-0.000251305
0.000124423
-0.000791139
0.000250971
-0.00133426
0.000395869
-0.00183741
0.000541655
-0.00226692
0.000675272
-0.00260612
0.00078927
-0.00285476
0.000881235
-0.00302385
0.000952316
-0.00312965
0.00100561
-0.00318898
0.00104488
-0.00321651
0.0010737
-0.00322372
0.00109505
-0.00321885
0.00111122
-0.00320744
0.00112383
-0.00319302
0.00113402
-0.00317778
0.00114254
-0.00316303
0.00114991
-0.00314956
0.00115644
-0.00313787
-0.00312845
0.00116232
3.64859e-05
-0.000287791
0.000126827
-0.000881479
0.000251191
-0.00145863
0.000389237
-0.00197545
0.000523584
-0.00240127
0.000642461
-0.002725
0.000740174
-0.00295247
0.000815916
-0.00309959
0.00087196
-0.0031857
0.00091198
-0.003229
0.000939858
-0.00324439
0.000959006
-0.00324287
0.000972103
-0.00323195
0.000981091
-0.00321642
0.000987302
-0.00319923
0.000991623
-0.00318211
0.000994642
-0.00316605
0.000996745
-0.00315166
0.000998176
-0.0031393
-0.00312933
0.000999053
3.75002e-05
-0.000325291
0.000127653
-0.000971632
0.000248156
-0.00157913
0.000377664
-0.00210496
0.00049937
-0.00252298
0.000603061
-0.00282869
0.0006848
-0.00303421
0.000745201
-0.00316
0.000787399
-0.0032279
0.000815407
-0.00325701
0.000833062
-0.00326205
0.000843517
-0.00325333
0.000849113
-0.00323754
0.00085147
-0.00321878
0.000851656
-0.00319942
0.000850359
-0.00318081
0.000848029
-0.00316372
0.000844964
-0.0031486
0.000841346
-0.00313569
-0.00312524
0.000837257
3.80716e-05
-0.000363362
0.000126859
-0.00106042
0.000241949
-0.00169422
0.000361514
-0.00222453
0.000469747
-0.00263121
0.00055815
-0.00291709
0.000624459
-0.00310052
0.000670484
-0.00320602
0.000699979
-0.00325739
0.000717094
-0.00327412
0.000725496
-0.00327045
0.000728025
-0.00325586
0.000726687
-0.00323621
0.000722808
-0.0032149
0.000717226
-0.00319384
0.000710473
-0.00317406
0.000702893
-0.00315614
0.000694713
-0.00314042
0.000686077
-0.00312705
-0.00311621
0.000677043
3.8175e-05
-0.000401537
0.000124447
-0.00114669
0.000232732
-0.0018025
0.000341239
-0.00233303
0.000435492
-0.00272547
0.000508772
-0.00299037
0.000560338
-0.00315208
0.000592966
-0.00323865
0.000610805
-0.00327523
0.000617986
-0.0032813
0.000617921
-0.00327039
0.000613118
-0.00325105
0.000605264
-0.00322835
0.000595425
-0.00320506
0.000584252
-0.00318267
0.000572148
-0.00316195
0.000559376
-0.00314337
0.000546115
-0.00312716
0.000532479
-0.00311341
-0.00310224
0.000518514
3.77974e-05
-0.000439335
0.00012046
-0.00122935
0.000220734
-0.00190278
0.000317339
-0.00242964
0.000397382
-0.00280551
0.000455896
-0.00304888
0.000493485
-0.00318967
0.000513657
-0.00325882
0.000520772
-0.00328234
0.00051882
-0.00327935
0.000510915
-0.00326248
0.000499229
-0.00323937
0.000485161
-0.00321428
0.000469556
-0.00318946
0.000452909
-0.00316602
0.000435523
-0.00314457
0.000417597
-0.00312544
0.000399275
-0.00310884
0.000380652
-0.00309479
-0.00308336
0.000361768
3.69377e-05
-0.000476273
0.000114977
-0.00130739
0.000206226
-0.00199403
0.000290341
-0.00251375
0.000356166
-0.00287133
0.000400405
-0.00309312
0.000424801
-0.00321407
0.000433393
-0.00326741
0.000430592
-0.00327954
0.000420168
-0.00326893
0.000404909
-0.00324722
0.000386676
-0.00322114
0.00036661
-0.00319422
0.000345372
-0.00316822
0.000323331
-0.00314398
0.000300707
-0.00312194
0.000277652
-0.00310239
0.000254282
-0.00308547
0.000230682
-0.00307119
-0.00305957
0.000206893
3.56057e-05
-0.000511878
0.000108108
-0.0013799
0.000189511
-0.00207543
0.000260769
-0.00258501
0.000312541
-0.0029231
0.000343077
-0.00312366
0.000355056
-0.00322605
0.00035286
-0.00326522
0.000340832
-0.00326752
0.000322467
-0.00325056
0.00030023
-0.00322499
0.000275694
-0.0031966
0.000249782
-0.00316831
0.000223001
-0.00314144
0.000195618
-0.0031166
0.000167788
-0.00309411
0.000139621
-0.00307422
0.000111214
-0.00305706
8.26478e-05
-0.00304262
-0.00303089
5.39695e-05
3.38209e-05
-0.000545699
9.99818e-05
-0.00144606
0.000170904
-0.00214635
0.00022913
-0.00264324
0.000267146
-0.00296112
0.000284593
-0.00314111
0.000284893
-0.00322635
0.000272612
-0.00325293
0.000251935
-0.00324684
0.000226055
-0.00322468
0.000197124
-0.00319605
0.00016646
-0.00316594
0.000134804
-0.00313665
0.000102539
-0.00310917
6.98498e-05
-0.00308391
3.68355e-05
-0.0030611
3.57113e-06
-0.00304096
-2.98634e-05
-0.00302362
-6.33841e-05
-0.0030091
-0.00299734
-9.69325e-05
3.16111e-05
-0.00057731
9.07428e-05
-0.00150519
0.000150723
-0.00220633
0.000195902
-0.00268842
0.000220553
-0.00298577
0.000225542
-0.00314609
0.00021485
-0.00321566
0.0001931
-0.00323118
0.000164256
-0.00321799
0.000131195
-0.00319162
9.57805e-05
-0.00316064
5.91097e-05
-0.00312926
2.17736e-05
-0.00309931
-1.59419e-05
-0.00307146
-5.39166e-05
-0.00304593
-9.21008e-05
-0.00302291
-0.000130452
-0.0030026
-0.000168905
-0.00298517
-0.000207367
-0.00297064
-0.00295895
-0.000245764
2.90111e-05
-0.000606321
8.0545e-05
-0.00155672
0.000129282
-0.00225507
0.000161529
-0.00272066
0.000173271
-0.00299751
0.000166426
-0.00313925
0.000145375
-0.0031946
0.000114693
-0.0032005
7.80785e-05
-0.00318138
3.80992e-05
-0.00315164
-3.64642e-06
-0.00311889
-4.62479e-05
-0.00308666
-8.92321e-05
-0.00305633
-0.000132386
-0.0030283
-0.000175642
-0.00300268
-0.000218992
-0.00297956
-0.000262427
-0.00295917
-0.000305897
-0.0029417
-0.000349297
-0.00292724
-0.00291572
-0.000392526
2.6061e-05
-0.000632382
6.95463e-05
-0.00160021
0.000106878
-0.0022924
0.000126415
-0.0027402
0.000125747
-0.00299685
0.000107676
-0.00312118
7.68433e-05
-0.00316377
3.76957e-05
-0.00316135
-6.35875e-06
-0.00313732
-5.30523e-05
-0.00310495
-0.000101022
-0.00307092
-0.000149514
-0.00303817
-0.000198144
-0.0030077
-0.000246751
-0.0029797
-0.000295303
-0.00295412
-0.000343831
-0.00293104
-0.000392363
-0.00291064
-0.000440869
-0.0028932
-0.000489229
-0.00287888
-0.00286764
-0.000537304
2.28052e-05
-0.000655188
5.79047e-05
-0.00163531
8.37956e-05
-0.00231829
9.09279e-05
-0.00274733
7.83743e-05
-0.00298429
4.96628e-05
-0.00309247
9.57497e-06
-0.00312368
-3.76303e-05
-0.00311415
-8.88479e-05
-0.00308611
-0.000142094
-0.0030517
-0.000196216
-0.0030168
-0.000250586
-0.0029838
-0.000304888
-0.0029534
-0.00035899
-0.00292559
-0.00041288
-0.00290023
-0.000466623
-0.00287729
-0.000520289
-0.00285697
-0.000573881
-0.00283961
-0.000627267
-0.00282549
-0.00281466
-0.000680248
1.92907e-05
-0.000674478
4.57757e-05
-0.00166179
6.02973e-05
-0.00233281
5.53976e-05
-0.00274243
3.14974e-05
-0.00296039
-7.29349e-06
-0.00305368
-5.6152e-05
-0.00307482
-0.000111052
-0.00305925
-0.000169194
-0.00302797
-0.000228859
-0.00299204
-0.000289083
-0.00295658
-0.000349344
-0.00292354
-0.000409372
-0.00289337
-0.000469043
-0.00286592
-0.000528349
-0.00284093
-0.000587374
-0.00281827
-0.000646237
-0.00279811
-0.000704988
-0.00278085
-0.000763496
-0.00276699
-0.00275669
-0.000821465
1.55665e-05
-0.000690045
3.33092e-05
-0.00167953
3.66277e-05
-0.00233613
2.01206e-05
-0.00272592
-1.45792e-05
-0.00292569
-6.29104e-05
-0.00300534
-0.000120089
-0.00301765
-0.000182351
-0.00299699
-0.000247199
-0.00296312
-0.000313164
-0.00292607
-0.000379448
-0.0028903
-0.000445626
-0.00285736
-0.000511459
-0.00282754
-0.000576817
-0.00280056
-0.000641668
-0.00277608
-0.000706091
-0.00275385
-0.000770244
-0.00273395
-0.000834245
-0.00271685
-0.000897973
-0.00270326
-0.00269367
-0.000960997
1.16822e-05
-0.000701727
2.06485e-05
-0.0016885
1.30106e-05
-0.00232849
-1.46383e-05
-0.00269828
-5.9587e-05
-0.00288074
-0.000116937
-0.00294799
-0.000182008
-0.00295257
-0.000251316
-0.00292768
-0.000322656
-0.00289178
-0.000394793
-0.00285394
-0.000467087
-0.002818
-0.000539203
-0.00278525
-0.000610937
-0.0027558
-0.000682144
-0.00272936
-0.000752746
-0.00270547
-0.000822777
-0.00268382
-0.000892405
-0.00266433
-0.000961823
-0.00264744
-0.00103094
-0.00263414
-0.00262539
-0.00109922
7.68682e-06
-0.000709414
7.92785e-06
-0.00168874
-1.03512e-05
-0.00231021
-4.86437e-05
-0.00265998
-0.000103289
-0.0028261
-0.00016915
-0.00288213
-0.000241698
-0.00288003
-0.000317735
-0.00285164
-0.000395341
-0.00281417
-0.000473496
-0.00277578
-0.000551715
-0.00273978
-0.000629761
-0.0027072
-0.000707478
-0.00267809
-0.000784723
-0.00265211
-0.000861365
-0.00262883
-0.000937363
-0.00260782
-0.00101286
-0.00258883
-0.00108814
-0.00257216
-0.00116319
-0.00255909
-0.00255093
-0.00123764
3.62839e-06
-0.000713042
-4.72835e-06
-0.00168039
-3.32759e-05
-0.00228167
-8.16897e-05
-0.00261157
-0.000145478
-0.00276231
-0.000219349
-0.00280826
-0.000298957
-0.00280042
-0.000381396
-0.0027692
-0.000465009
-0.00273056
-0.000548985
-0.0026918
-0.000632987
-0.00265578
-0.000716892
-0.0026233
-0.000800628
-0.00259435
-0.000884094
-0.00256865
-0.000967141
-0.00254579
-0.00104966
-0.0025253
-0.00113173
-0.00250675
-0.00121376
-0.00249013
-0.00129596
-0.00247689
-0.00246799
-0.0013789
-4.47794e-07
-0.000712594
-1.72078e-05
-0.00166363
-5.56048e-05
-0.00224327
-0.000113599
-0.00255357
-0.000185979
-0.00268993
-0.00026736
-0.00272688
-0.000353605
-0.00271417
-0.000442087
-0.00268072
-0.000531398
-0.00264125
-0.000620918
-0.00260229
-0.000710459
-0.00256624
-0.000800035
-0.00253372
-0.000889712
-0.00250467
-0.000979524
-0.00247884
-0.00106941
-0.00245589
-0.00115927
-0.00243544
-0.0012491
-0.00241692
-0.00133925
-0.00239998
-0.00143029
-0.00238585
-0.00237334
-0.00152494
-4.49996e-06
-0.000708094
-2.94118e-05
-0.00163871
-7.72033e-05
-0.00219548
-0.000144228
-0.00248655
-0.000224648
-0.00260951
-0.000313042
-0.00263849
-0.000405487
-0.00262173
-0.000499618
-0.00258659
-0.000594246
-0.00254662
-0.000688912
-0.00250762
-0.000783561
-0.00247159
-0.000878342
-0.00243894
-0.000973504
-0.00240951
-0.00106934
-0.002383
-0.00116612
-0.00235911
-0.00126405
-0.00233751
-0.00136324
-0.00231772
-0.00146427
-0.00229895
-0.00156937
-0.00228076
-0.0022745
-0.00166822
-8.47873e-06
-0.000699616
-4.12368e-05
-0.00160596
-9.79397e-05
-0.00213878
-0.000173441
-0.00241105