/*--------------------------------*- C++ -*----------------------------------*\
  =========                 |
  \\      /  F ield         | OpenFOAM: The Open Source CFD Toolbox
   \\    /   O peration     | Website:  https://openfoam.org
    \\  /    A nd           | Version:  6.0
     \\/     M anipulation  |
\*---------------------------------------------------------------------------*/
FoamFile
{
    version     2.0;
    format      ascii;
    class       volScalarField;
    location    "69";
    object      p;
}
// * * * * * * * * * * * * * * * * * * * * * * * * * * * * * * * * * * * * * //

dimensions      [0 2 -2 0 0 0 0];

internalField   nonuniform List<scalar> 
8000
(
-0.363291
-0.364549
-0.365267
-0.365688
-0.365978
-0.366181
-0.366324
-0.36643
-0.366507
-0.366563
-0.366602
-0.366631
-0.36666
-0.366701
-0.36677
-0.366892
-0.36708
-0.367265
-0.367413
-0.368415
-0.363325
-0.364874
-0.365761
-0.366296
-0.366682
-0.366962
-0.367166
-0.367312
-0.367407
-0.367454
-0.367455
-0.367416
-0.367343
-0.367248
-0.367147
-0.367062
-0.367009
-0.366922
-0.366779
-0.367401
-0.363622
-0.365451
-0.366499
-0.367143
-0.367619
-0.367973
-0.368231
-0.368411
-0.368515
-0.368544
-0.368494
-0.368368
-0.368172
-0.367914
-0.367611
-0.367285
-0.366951
-0.366549
-0.366067
-0.36626
-0.364258
-0.366344
-0.36754
-0.368285
-0.368847
-0.36927
-0.369581
-0.369792
-0.369903
-0.369906
-0.369796
-0.36957
-0.369232
-0.368788
-0.368252
-0.367649
-0.366993
-0.366233
-0.365367
-0.365089
-0.365308
-0.367613
-0.368939
-0.369776
-0.370418
-0.370911
-0.371275
-0.371519
-0.371636
-0.371613
-0.371439
-0.371106
-0.370611
-0.369958
-0.369162
-0.368247
-0.367229
-0.366066
-0.364767
-0.363979
-0.366834
-0.36931
-0.370741
-0.37166
-0.372379
-0.372941
-0.373363
-0.373646
-0.373776
-0.373734
-0.373499
-0.373055
-0.372394
-0.371516
-0.370434
-0.369171
-0.367749
-0.366134
-0.36435
-0.363017
-0.368885
-0.371471
-0.372978
-0.373967
-0.374759
-0.375393
-0.375881
-0.376214
-0.376371
-0.376321
-0.376034
-0.375485
-0.374657
-0.373543
-0.372151
-0.370507
-0.368636
-0.366515
-0.364189
-0.362273
-0.37149
-0.374113
-0.375663
-0.376708
-0.377569
-0.37828
-0.378843
-0.379241
-0.379443
-0.379405
-0.379085
-0.378445
-0.377456
-0.376101
-0.374383
-0.372327
-0.369961
-0.367274
-0.364335
-0.361797
-0.374648
-0.377232
-0.378787
-0.379871
-0.380796
-0.381587
-0.382236
-0.382716
-0.382983
-0.382982
-0.382654
-0.381945
-0.380811
-0.379222
-0.37717
-0.374676
-0.37177
-0.368449
-0.364816
-0.361608
-0.378335
-0.380798
-0.382317
-0.383421
-0.3844
-0.38527
-0.386012
-0.38659
-0.386944
-0.387004
-0.386696
-0.385948
-0.384694
-0.382887
-0.380502
-0.377553
-0.374066
-0.370044
-0.365622
-0.361685
-0.382494
-0.384756
-0.386197
-0.387297
-0.388314
-0.389255
-0.390092
-0.390774
-0.39123
-0.391373
-0.391112
-0.390352
-0.389008
-0.387006
-0.384302
-0.380892
-0.376796
-0.372008
-0.366695
-0.361955
-0.387046
-0.389034
-0.390353
-0.391417
-0.392448
-0.393443
-0.394363
-0.395144
-0.395703
-0.395938
-0.395738
-0.394989
-0.393579
-0.391409
-0.388406
-0.384542
-0.379822
-0.374219
-0.367913
-0.362282
-0.391892
-0.393545
-0.394696
-0.395687
-0.396698
-0.397715
-0.398689
-0.399548
-0.400193
-0.400508
-0.400366
-0.39963
-0.398166
-0.395843
-0.392559
-0.388255
-0.382912
-0.376465
-0.369078
-0.362454
-0.396925
-0.398197
-0.399138
-0.400012
-0.400955
-0.401947
-0.402931
-0.403823
-0.404513
-0.404873
-0.404757
-0.404012
-0.402478
-0.399998
-0.396437
-0.391703
-0.385744
-0.378448
-0.369918
-0.362187
-0.402042
-0.402904
-0.403594
-0.4043
-0.405119
-0.406026
-0.406957
-0.407818
-0.408491
-0.408833
-0.408686
-0.407878
-0.40623
-0.40356
-0.399701
-0.394528
-0.387956
-0.379823
-0.37012
-0.361161
-0.407154
-0.407593
-0.407996
-0.408482
-0.409113
-0.409864
-0.410665
-0.411417
-0.411991
-0.412234
-0.411975
-0.411028
-0.409194
-0.406273
-0.402071
-0.39643
-0.389237
-0.380285
-0.36942
-0.35911
-0.412197
-0.412217
-0.412301
-0.412514
-0.41289
-0.413408
-0.413997
-0.414553
-0.414939
-0.414992
-0.414531
-0.413355
-0.411252
-0.408003
-0.403396
-0.397247
-0.389416
-0.379677
-0.367712
-0.355933
-0.41714
-0.416755
-0.416494
-0.416383
-0.41644
-0.41665
-0.416946
-0.417221
-0.41733
-0.417106
-0.416354
-0.414864
-0.412412
-0.408767
-0.403697
-0.396994
-0.388496
-0.377969
-0.364934
-0.351526
-0.42199
-0.42122
-0.420593
-0.420113
-0.419791
-0.419626
-0.419556
-0.419473
-0.41923
-0.418651
-0.417537
-0.415669
-0.412819
-0.408748
-0.403218
-0.395996
-0.386874
-0.375538
-0.361259
-0.34587
-0.426791
-0.425653
-0.424642
-0.423754
-0.423006
-0.422411
-0.421915
-0.421413
-0.420755
-0.419762
-0.418233
-0.415952
-0.412696
-0.408248
-0.402399
-0.394954
-0.385721
-0.374313
-0.359717
-0.343421
-0.431619
-0.430124
-0.428712
-0.427388
-0.426176
-0.425109
-0.424143
-0.423174
-0.422054
-0.420601
-0.418618
-0.415895
-0.412236
-0.407466
-0.401452
-0.394132
-0.385536
-0.375766
-0.365401
-0.35885
-0.436578
-0.43472
-0.432892
-0.431109
-0.429409
-0.427841
-0.426374
-0.424905
-0.423284
-0.421333
-0.418854
-0.415655
-0.411562
-0.406443
-0.400227
-0.39293
-0.384676
-0.375719
-0.366653
-0.360142
-0.441784
-0.439544
-0.437282
-0.435024
-0.432819
-0.430735
-0.428745
-0.426748
-0.424594
-0.422103
-0.419083
-0.415355
-0.410773
-0.405239
-0.398728
-0.391296
-0.383094
-0.37436
-0.36545
-0.357638
-0.447359
-0.444699
-0.441982
-0.439237
-0.436519
-0.433907
-0.431378
-0.428828
-0.426103
-0.423022
-0.4194
-0.415073
-0.409919
-0.403873
-0.396938
-0.38919
-0.380769
-0.371863
-0.362691
-0.353863
-0.453416
-0.450283
-0.447086
-0.443845
-0.440607
-0.437457
-0.434371
-0.431236
-0.427892
-0.424157
-0.419854
-0.414839
-0.409016
-0.402349
-0.394868
-0.386661
-0.377859
-0.368616
-0.359086
-0.349532
-0.460054
-0.456383
-0.452678
-0.44893
-0.445164
-0.441463
-0.437792
-0.434027
-0.429999
-0.425527
-0.42045
-0.414646
-0.40805
-0.40066
-0.392534
-0.383774
-0.374513
-0.36489
-0.355041
-0.345097
-0.467346
-0.463065
-0.458822
-0.454554
-0.450248
-0.445972
-0.441675
-0.437217
-0.432421
-0.427113
-0.421153
-0.414452
-0.406984
-0.398785
-0.389943
-0.380579
-0.37083
-0.360834
-0.350715
-0.340556
-0.475341
-0.470378
-0.465564
-0.460762
-0.455893
-0.451005
-0.446023
-0.440786
-0.435116
-0.428856
-0.421897
-0.414193
-0.405766
-0.396693
-0.387092
-0.377102
-0.366865
-0.356516
-0.346168
-0.335896
-0.484058
-0.478344
-0.47293
-0.467572
-0.462108
-0.456554
-0.450803
-0.444678
-0.43801
-0.430668
-0.422592
-0.41379
-0.404334
-0.394345
-0.383965
-0.373346
-0.362631
-0.351945
-0.341387
-0.331023
-0.493487
-0.486962
-0.480922
-0.474982
-0.468877
-0.462578
-0.455949
-0.448804
-0.440994
-0.432437
-0.423133
-0.413152
-0.40262
-0.391694
-0.380535
-0.369299
-0.35812
-0.347108
-0.336342
-0.325874
-0.50359
-0.496207
-0.489517
-0.482963
-0.476152
-0.469005
-0.46136
-0.45304
-0.443936
-0.434033
-0.423404
-0.412186
-0.400554
-0.388691
-0.376769
-0.364936
-0.353309
-0.341978
-0.330997
-0.320397
-0.514295
-0.506024
-0.498664
-0.491452
-0.483849
-0.475724
-0.466901
-0.457235
-0.446683
-0.435316
-0.423287
-0.410799
-0.398066
-0.385287
-0.372629
-0.360225
-0.348168
-0.336523
-0.325318
-0.314563
-0.525498
-0.516325
-0.508278
-0.500354
-0.491848
-0.482585
-0.472403
-0.461213
-0.449069
-0.43614
-0.422664
-0.4089
-0.395088
-0.381427
-0.368071
-0.355126
-0.34266
-0.33071
-0.319274
-0.308349
-0.53706
-0.526989
-0.51824
-0.509531
-0.499985
-0.489403
-0.477665
-0.46478
-0.450919
-0.43636
-0.421422
-0.406402
-0.39155
-0.377055
-0.363045
-0.349595
-0.336744
-0.324502
-0.312835
-0.301737
-0.548802
-0.537856
-0.528386
-0.518801
-0.508055
-0.495953
-0.482465
-0.46773
-0.452058
-0.435837
-0.419449
-0.403217
-0.387384
-0.372112
-0.357498
-0.343582
-0.330374
-0.317857
-0.305967
-0.294705
-0.560509
-0.548726
-0.538512
-0.52794
-0.515812
-0.501984
-0.486561
-0.469852
-0.452313
-0.434433
-0.41664
-0.399261
-0.382516
-0.366533
-0.351368
-0.33703
-0.323498
-0.310731
-0.298633
-0.287227
-0.571926
-0.55936
-0.548371
-0.53668
-0.522977
-0.507221
-0.489708
-0.47094
-0.45152
-0.432021
-0.412895
-0.394451
-0.376874
-0.36025
-0.344594
-0.329881
-0.316063
-0.303074
-0.290791
-0.279272
-0.582762
-0.569479
-0.557675
-0.54472
-0.529245
-0.511381
-0.49166
-0.470793
-0.449523
-0.428479
-0.408113
-0.388701
-0.370381
-0.35319
-0.337107
-0.32207
-0.30801
-0.294836
-0.282398
-0.270802
-0.592696
-0.578772
-0.566103
-0.551729
-0.534296
-0.514176
-0.492178
-0.469225
-0.446177
-0.423692
-0.402199
-0.381927
-0.362958
-0.345283
-0.328838
-0.313535
-0.299281
-0.285965
-0.273408
-0.26178
-0.60138
-0.586898
-0.573308
-0.557362
-0.537807
-0.515329
-0.491039
-0.466063
-0.441346
-0.417551
-0.395061
-0.374045
-0.354528
-0.336454
-0.319721
-0.304214
-0.289821
-0.276408
-0.263776
-0.252165
-0.608453
-0.5935
-0.578929
-0.561265
-0.539462
-0.514578
-0.488038
-0.461149
-0.434909
-0.409955
-0.386609
-0.364975
-0.345018
-0.326635
-0.309691
-0.294047
-0.279574
-0.266117
-0.253459
-0.241919
-0.613541
-0.598207
-0.582596
-0.56309
-0.53896
-0.511682
-0.482992
-0.454344
-0.426754
-0.400811
-0.376763
-0.354641
-0.334355
-0.315758
-0.298687
-0.282979
-0.268492
-0.255048
-0.242418
-0.231008
-0.616278
-0.600653
-0.583948
-0.56251
-0.536028
-0.50643
-0.475743
-0.445527
-0.416786
-0.390037
-0.365446
-0.342973
-0.322475
-0.303767
-0.286655
-0.270962
-0.256531
-0.243163
-0.23062
-0.219402
-0.616308
-0.600483
-0.582644
-0.559223
-0.530425
-0.498643
-0.466157
-0.434597
-0.404921
-0.377559
-0.352592
-0.329911
-0.309323
-0.290608
-0.273549
-0.257956
-0.243656
-0.230431
-0.21804
-0.207079
-0.613301
-0.597364
-0.578371
-0.552966
-0.521949
-0.488172
-0.454129
-0.421473
-0.391092
-0.363317
-0.338146
-0.315404
-0.294852
-0.27624
-0.259333
-0.243927
-0.229839
-0.21683
-0.20466
-0.194024
-0.60696
-0.590999
-0.570856
-0.543516
-0.510438
-0.474907
-0.43958
-0.406094
-0.375246
-0.347265
-0.322065
-0.299411
-0.279025
-0.260632
-0.24398
-0.228854
-0.215062
-0.202346
-0.190472
-0.180231
-0.597028
-0.581132
-0.559873
-0.530702
-0.495776
-0.458772
-0.422458
-0.388421
-0.35735
-0.329371
-0.304319
-0.281905
-0.261819
-0.243763
-0.227472
-0.212725
-0.199317
-0.186974
-0.175474
-0.165701
-0.583302
-0.567559
-0.54525
-0.514404
-0.47789
-0.439727
-0.402741
-0.368438
-0.337389
-0.30962
-0.284892
-0.262872
-0.243221
-0.225624
-0.209805
-0.195536
-0.182605
-0.170721
-0.159677
-0.150443
-0.565629
-0.55013
-0.526872
-0.494554
-0.456753
-0.417769
-0.380434
-0.346149
-0.315366
-0.288011
-0.263784
-0.242312
-0.223232
-0.206216
-0.190982
-0.177295
-0.164937
-0.153601
-0.143099
-0.134476
-0.54392
-0.528759
-0.504683
-0.471139
-0.432383
-0.392929
-0.355571
-0.321586
-0.291304
-0.264564
-0.24101
-0.220236
-0.201863
-0.185553
-0.171017
-0.15802
-0.146333
-0.13564
-0.125771
-0.117835
-0.518147
-0.50342
-0.478689
-0.4442
-0.404841
-0.365273
-0.328212
-0.294799
-0.265246
-0.239314
-0.216598
-0.196671
-0.179137
-0.163655
-0.149933
-0.137733
-0.126821
-0.116872
-0.107735
-0.100568
-0.488346
-0.474152
-0.448954
-0.413827
-0.37423
-0.334902
-0.298447
-0.265865
-0.237257
-0.212314
-0.190594
-0.171652
-0.155087
-0.140552
-0.127756
-0.116462
-0.10643
-0.0973309
-0.0890352
-0.0827285
-0.454615
-0.441057
-0.415602
-0.380163
-0.340693
-0.301949
-0.266393
-0.234884
-0.20742
-0.183634
-0.163056
-0.14523
-0.129752
-0.116277
-0.104516
-0.094233
-0.0851866
-0.0770493
-0.0697112
-0.0643465
-0.417117
-0.404297
-0.378812
-0.343394
-0.304411
-0.266578
-0.232196
-0.201982
-0.175843
-0.153365
-0.134058
-0.117463
-0.103179
-0.090866
-0.0802414
-0.0710707
-0.0631156
-0.0560574
-0.049792
-0.0454168
-0.376069
-0.36409
-0.338813
-0.30375
-0.265603
-0.228986
-0.196028
-0.167308
-0.142654
-0.121614
-0.103689
-0.0884217
-0.0754203
-0.064355
-0.0549532
-0.0469883
-0.04023
-0.0343718
-0.0292887
-0.0259384
-0.331745
-0.32071
-0.29588
-0.261502
-0.224518
-0.189399
-0.15809
-0.13104
-0.108008
-0.0885144
-0.0720588
-0.0581931
-0.046539
-0.0367835
-0.0286706
-0.0219876
-0.0165182
-0.0119749
-0.00820889
-0.00604662
-0.284469
-0.274475
-0.250333
-0.216955
-0.181439
-0.148073
-0.11861
-0.0933803
-0.0720826
-0.054221
-0.0392985
-0.0268819
-0.0166134
-0.00820478
-0.0014251
0.00392137
0.00803221
0.0111343
0.0133108
0.0138246
-0.234606
-0.225745
-0.202524
-0.170445
-0.136676
-0.105289
-0.0778438
-0.0545596
-0.0350853
-0.0189139
-0.00555735
0.00539799
0.0142824
0.0213481
0.0267891
0.0307787
0.0334689
0.0348974
0.0349112
0.0331733
-0.182557
-0.174915
-0.152837
-0.122332
-0.0905634
-0.0613535
-0.0360739
-0.014839
0.00274434
0.0171917
0.0289828
0.0385144
0.0460903
0.0519244
0.0561711
0.0589697
0.0603464
0.0599143
0.0571584
0.0531131
-0.128753
-0.122408
-0.10168
-0.0730006
-0.0434534
-0.0165942
0.00639333
0.0254894
0.0411245
0.0538222
0.0640602
0.0722308
0.0786329
0.0834779
0.0869326
0.0891531
0.0900253
0.0886333
0.0842384
0.0798095
-0.0736477
-0.0686643
-0.0494743
-0.0228439
0.00428846
0.0286492
0.0492356
0.0661129
0.0797418
0.090651
0.0993166
0.106134
0.111415
0.115412
0.118381
0.12061
0.122054
0.12165
0.119135
0.123309
-0.0177002
-0.0141359
0.00334858
0.0277366
0.0522918
0.0740321
0.0921271
0.106717
0.118283
0.127354
0.134396
0.139796
0.143865
0.146867
0.149074
0.150758
0.151893
0.151969
0.151948
0.158373
0.0386154
0.0407163
0.0563529
0.0783384
0.100187
0.119212
0.134747
0.146995
0.156453
0.16364
0.169012
0.172945
0.175743
0.177667
0.178975
0.179894
0.180393
0.180156
0.180157
0.185388
0.0948259
0.0954329
0.109106
0.128564
0.14761
0.163856
0.176785
0.186654
0.193967
0.199231
0.202884
0.205284
0.206721
0.207442
0.207684
0.207649
0.207323
0.206464
0.20587
0.20949
0.150463
0.14956
0.161183
0.178024
0.194209
0.207642
0.217945
0.225422
0.230575
0.233895
0.235799
0.236624
0.236639
0.236072
0.235132
0.233991
0.232622
0.230815
0.2293
0.23143
0.205067
0.202652
0.212169
0.226343
0.239645
0.250262
0.257948
0.263042
0.266041
0.267418
0.267564
0.266795
0.265359
0.26346
0.261286
0.258978
0.256496
0.253653
0.25114
0.251844
0.258194
0.254281
0.261666
0.27316
0.283591
0.291425
0.29653
0.299276
0.300152
0.299609
0.298013
0.295657
0.292766
0.289526
0.286099
0.282602
0.278985
0.275091
0.271578
0.270941
0.309415
0.304033
0.309292
0.318128
0.325739
0.330852
0.333442
0.333902
0.33271
0.330292
0.326994
0.323083
0.318764
0.314202
0.309541
0.304874
0.300148
0.295233
0.290749
0.288839
0.358322
0.351514
0.354684
0.360924
0.365797
0.368283
0.36845
0.36671
0.363526
0.359304
0.354364
0.348951
0.343252
0.337413
0.331558
0.325764
0.319977
0.314092
0.308682
0.30557
0.404529
0.396356
0.3975
0.401238
0.403492
0.403472
0.401335
0.397502
0.392426
0.386488
0.379986
0.373145
0.366132
0.359078
0.352089
0.345229
0.338444
0.331652
0.325366
0.321123
0.447674
0.43821
0.437423
0.438786
0.438567
0.436191
0.431889
0.426095
0.419243
0.411696
0.40373
0.395549
0.387305
0.379113
0.371064
0.363208
0.355498
0.347867
0.340764
0.335464
0.487425
0.476757
0.474158
0.473303
0.470786
0.466226
0.459923
0.452315
0.443824
0.434791
0.425471
0.416053
0.406673
0.397431
0.388405
0.379635
0.371079
0.362682
0.354826
0.348547
0.523474
0.511703
0.507436
0.504548
0.499932
0.493384
0.485261
0.476005
0.466024
0.45564
0.445092
0.434551
0.42414
0.413946
0.404035
0.394439
0.385121
0.376036
0.367494
0.360324
0.555545
0.542786
0.537017
0.532303
0.52581
0.517488
0.507743
0.49702
0.485712
0.474126
0.462485
0.450945
0.439616
0.428576
0.417879
0.40755
0.397559
0.387866
0.378711
0.370742
0.583396
0.569772
0.562685
0.556375
0.548246
0.538382
0.527228
0.51523
0.502771
0.490141
0.47755
0.465143
0.453018
0.441244
0.429866
0.418903
0.40833
0.398111
0.388422
0.379755
0.606814
0.592459
0.584256
0.576599
0.567092
0.555931
0.543592
0.530522
0.517096
0.50359
0.490201
0.477065
0.464273
0.451882
0.439932
0.428438
0.417377
0.406718
0.396578
0.38732
0.625623
0.610678
0.601576
0.592834
0.582221
0.570019
0.55673
0.542803
0.528601
0.514392
0.500364
0.486644
0.473316
0.460431
0.448023
0.436102
0.424651
0.41364
0.403135
0.393398
0.63968
0.624295
0.61452
0.604969
0.593533
0.580556
0.566561
0.551994
0.537215
0.522483
0.507978
0.493823
0.480095
0.466842
0.454092
0.441853
0.430112
0.418837
0.408059
0.397962
0.648881
0.633208
0.622996
0.612921
0.60095
0.587472
0.573019
0.558039
0.542885
0.527813
0.512999
0.498561
0.484573
0.47108
0.458106
0.445659
0.433728
0.422282
0.411323
0.400987
0.653155
0.637351
0.626943
0.616634
0.604426
0.590723
0.576066
0.560899
0.545577
0.530351
0.515397
0.500829
0.486722
0.473119
0.460042
0.447499
0.43548
0.423953
0.412909
0.402459
0.652471
0.636695
0.626334
0.616085
0.603936
0.590289
0.575681
0.560558
0.545273
0.530081
0.515157
0.500616
0.486532
0.472949
0.45989
0.447363
0.435358
0.423844
0.412811
0.402373
0.646835
0.631244
0.621174
0.611276
0.599485
0.586172
0.571868
0.557018
0.541979
0.527007
0.512282
0.497922
0.484003
0.470571
0.457651
0.445253
0.433364
0.421954
0.411029
0.400728
0.636289
0.621039
0.6115
0.602242
0.591103
0.578401
0.564652
0.550303
0.535713
0.521149
0.506792
0.492766
0.479153
0.466001
0.45334
0.441181
0.42951
0.418297
0.407575
0.397535
0.620913
0.606156
0.597381
0.589046
0.578847
0.567028
0.554082
0.540456
0.526519
0.512543
0.498719
0.48518
0.472011
0.459267
0.446984
0.435173
0.42382
0.412894
0.402467
0.392809
0.600824
0.586706
0.57892
0.57178
0.562801
0.552128
0.540226
0.527541
0.514452
0.501243
0.488116
0.47521
0.462621
0.45041
0.438619
0.427265
0.416328
0.405778
0.395735
0.386577
0.576174
0.562836
0.55625
0.550565
0.543073
0.5338
0.523174
0.511641
0.499591
0.487321
0.475045
0.462916
0.451038
0.43948
0.428294
0.417501
0.407077
0.396989
0.387418
0.37887
0.547151
0.534724
0.529536
0.525549
0.519798
0.512166
0.503037
0.492857
0.482027
0.47086
0.459587
0.448372
0.437329
0.426542
0.416069
0.405938
0.39612
0.386579
0.37756
0.369728
0.513977
0.502582
0.498972
0.496906
0.493132
0.487368
0.479945
0.471307
0.461869
0.451961
0.441832
0.43166
0.421574
0.411667
0.402009
0.392638
0.383517
0.374604
0.366215
0.359197
0.476907
0.466654
0.46478
0.464837
0.463256
0.459569
0.454046
0.447127
0.43924
0.430737
0.421884
0.412876
0.403858
0.394935
0.38619
0.37767
0.369332
0.361127
0.353438
0.347325
0.436226
0.427214
0.427213
0.429569
0.430373
0.428952
0.425506
0.420465
0.414276
0.40731
0.399854
0.392123
0.384275
0.376432
0.36869
0.361106
0.353635
0.346212
0.339291
0.334167
0.392253
0.384564
0.386548
0.391352
0.394707
0.395718
0.394505
0.391487
0.387126
0.381816
0.375866
0.36951
0.362924
0.356246
0.349589
0.343021
0.336493
0.329924
0.323832
0.319774
0.34533
0.339035
0.343089
0.350457
0.356502
0.360087
0.361241
0.36037
0.35795
0.354398
0.350046
0.34515
0.339906
0.334468
0.328965
0.323483
0.317969
0.312321
0.307114
0.304194
0.295829
0.290983
0.297163
0.307179
0.316022
0.322293
0.325925
0.327304
0.326918
0.325207
0.32253
0.319163
0.315324
0.311184
0.306894
0.302555
0.298116
0.29345
0.289178
0.287463
0.244146
0.240788
0.24912
0.261834
0.273547
0.28259
0.288784
0.29249
0.294209
0.294404
0.293456
0.291668
0.289278
0.286477
0.283437
0.280281
0.276964
0.273329
0.270034
0.269594
0.190698
0.188853
0.199332
0.214755
0.229376
0.241243
0.250055
0.256143
0.260015
0.262156
0.262972
0.26279
0.26187
0.260425
0.25865
0.256694
0.254522
0.251947
0.249658
0.250558
0.135924
0.135599
0.14819
0.166295
0.183825
0.198537
0.209995
0.218491
0.224539
0.228642
0.231232
0.232658
0.233201
0.233097
0.232565
0.231783
0.230731
0.2292
0.227915
0.230239
0.0802761
0.0814661
0.0960995
0.116822
0.137226
0.154768
0.16887
0.179777
0.187998
0.194057
0.198405
0.201413
0.203384
0.204574
0.205229
0.205558
0.205554
0.204979
0.204622
0.208433
0.0242226
0.0269058
0.0434841
0.0667213
0.0899243
0.110251
0.126967
0.140259
0.150631
0.158617
0.164687
0.16923
0.172563
0.174956
0.176677
0.17796
0.178782
0.178832
0.179072
0.184491
-0.0317611
-0.02762
-0.00922391
0.016387
0.0422795
0.0653127
0.084584
0.100215
0.112692
0.122557
0.130292
0.136297
0.140894
0.144359
0.146973
0.149015
0.150467
0.150827
0.151051
0.157677
-0.0871952
-0.0816447
-0.0615852
-0.0337766
-0.00533993
0.0202909
0.0420366
0.0599409
0.0744677
0.0861584
0.0955038
0.102913
0.10871
0.113158
0.116522
0.119101
0.120862
0.120748
0.118488
0.122867
-0.1416
-0.134701
-0.113158
-0.0833609
-0.0525589
-0.0244676
-0.000350663
0.0197467
0.0362564
0.0497138
0.0606105
0.0693526
0.0762513
0.0815286
0.0853614
0.0879169
0.0890933
0.0879716
0.0837807
0.0795371
-0.194512
-0.186335
-0.163506
-0.13196
-0.0990026
-0.0686141
-0.0422489
-0.0200504
-0.00162651
0.0135486
0.025968
0.0360413
0.0440836
0.0503185
0.0549079
0.0579998
0.0596297
0.0594044
0.0567744
0.0527981
-0.245474
-0.236098
-0.212202
-0.179174
-0.144302
-0.111805
-0.083333
-0.0591356
-0.0388662
-0.0220091
-0.00806424
0.00339398
0.0127064
0.0201339
0.025877
0.0301156
0.0330097
0.0345966
0.0347039
0.0329814
-0.294055
-0.283569
-0.258836
-0.224618
-0.1881
-0.153711
-0.123294
-0.0972149
-0.0751789
-0.0566837
-0.0412214
-0.0283479
-0.0176953
-0.00896681
-0.0019249
0.00363222
0.00790853
0.0111352
0.0133939
0.0139397
-0.339853
-0.32835
-0.303023
-0.267928
-0.23006
-0.194023
-0.161848
-0.134026
-0.110323
-0.0902587
-0.0733207
-0.0590514
-0.047063
-0.0370343
-0.0287023
-0.0218482
-0.0162503
-0.0116166
-0.00779037
-0.00558568
-0.382505
-0.370084
-0.344409
-0.308767
-0.269871
-0.232457
-0.198738
-0.169337
-0.144093
-0.122554
-0.104213
-0.0886041
-0.0753255
-0.0640402
-0.0544684
-0.0463774
-0.0395324
-0.033623
-0.0285153
-0.0251461
-0.421692
-0.408456
-0.382679
-0.346829
-0.307251
-0.268758
-0.233735
-0.202944
-0.176309
-0.153415
-0.133769
-0.116902
-0.102406
-0.0899328
-0.0791935
-0.0699479
-0.0619532
-0.0548876
-0.0486389
-0.0442858
-0.457149
-0.4432
-0.417559
-0.381847
-0.341949
-0.302699
-0.266639
-0.234672
-0.206817
-0.182711
-0.161879
-0.14386
-0.128242
-0.114673
-0.102859
-0.0925575
-0.0835236
-0.0754266
-0.0681482
-0.0628475
-0.488665
-0.474104
-0.448827
-0.413594
-0.373749
-0.334085
-0.297277
-0.264371
-0.23549
-0.210332
-0.188455
-0.169407
-0.152782
-0.138226
-0.125445
-0.114194
-0.104232
-0.0952251
-0.087035
-0.0808336
-0.516092
-0.50102
-0.476315
-0.441888
-0.402473
-0.362754
-0.325506
-0.291916
-0.262222
-0.236192
-0.213424
-0.193487
-0.175982
-0.16056
-0.146926
-0.134838
-0.124058
-0.114258
-0.105278
-0.0982623
-0.539347
-0.523861
-0.49991
-0.466598
-0.427984
-0.388575
-0.351211
-0.317211
-0.28693
-0.260221
-0.236731
-0.216053
-0.197804
-0.181643
-0.167277
-0.154465
-0.142979
-0.132499
-0.122845
-0.115113
-0.558412
-0.542605
-0.519563
-0.487642
-0.450185
-0.411454
-0.374306
-0.34018
-0.309553
-0.282369
-0.258332
-0.23707
-0.218219
-0.201449
-0.186473
-0.173054
-0.160972
-0.149919
-0.139697
-0.13134
-0.573336
-0.5573
-0.535287
-0.504994
-0.469026
-0.431329
-0.394734
-0.360775
-0.33005
-0.302602
-0.2782
-0.256515
-0.237207
-0.21996
-0.204496
-0.190584
-0.178013
-0.166489
-0.155797
-0.146897
-0.584233
-0.568056
-0.547159
-0.518684
-0.4845
-0.448178
-0.412467
-0.37897
-0.348402
-0.320905
-0.296324
-0.274379
-0.254759
-0.237166
-0.221336
-0.207043
-0.194085
-0.182188
-0.171119
-0.161754
-0.591279
-0.57505
-0.555318
-0.528799
-0.49665
-0.462014
-0.427505
-0.394765
-0.364606
-0.337279
-0.312707
-0.290665
-0.270877
-0.253069
-0.236991
-0.222426
-0.209183
-0.197004
-0.185649
-0.175899
-0.594708
-0.578515
-0.559966
-0.535483
-0.505563
-0.472887
-0.43988
-0.408179
-0.378684
-0.351743
-0.327366
-0.305388
-0.285575
-0.26768
-0.25147
-0.236739
-0.223307
-0.210936
-0.199381
-0.189326
-0.594804
-0.578734
-0.561356
-0.538934
-0.511377
-0.480889
-0.449651
-0.419258
-0.390671
-0.36433
-0.340332
-0.318577
-0.298879
-0.281021
-0.264791
-0.249997
-0.236469
-0.223993
-0.21232
-0.20204
-0.591893
-0.576038
-0.559792
-0.5394
-0.514276
-0.486145
-0.456907
-0.428069
-0.400622
-0.37509
-0.35165
-0.330274
-0.310826
-0.293125
-0.276983
-0.262224
-0.248691
-0.236191
-0.22448
-0.214052
-0.586335
-0.570786
-0.555619
-0.537176
-0.514488
-0.488822
-0.461767
-0.4347
-0.40861
-0.384083
-0.361375
-0.340529
-0.321461
-0.304033
-0.288082
-0.273453
-0.260001
-0.247555
-0.23588
-0.22538
-0.578511
-0.563362
-0.549208
-0.532593
-0.51228
-0.48912
-0.464378
-0.43926
-0.41472
-0.391383
-0.369573
-0.3494
-0.33084
-0.313795
-0.298135
-0.283724
-0.270435
-0.258117
-0.24655
-0.236052
-0.568812
-0.554157
-0.540947
-0.52601
-0.507954
-0.487274
-0.464913
-0.441879
-0.419054
-0.397073
-0.376316
-0.356955
-0.339022
-0.322466
-0.30719
-0.293083
-0.280035
-0.267915
-0.256524
-0.246097
-0.557633
-0.543564
-0.531231
-0.517803
-0.501839
-0.48355
-0.463575
-0.442708
-0.421725
-0.401246
-0.381684
-0.363263
-0.346072
-0.330105
-0.315303
-0.30158
-0.288846
-0.276992
-0.265838
-0.255553
-0.545355
-0.531959
-0.520444
-0.508352
-0.494281
-0.478235
-0.460588
-0.441915
-0.422863
-0.404002
-0.385759
-0.368399
-0.352057
-0.336775
-0.322531
-0.309268
-0.296917
-0.285391
-0.274535
-0.264457
-0.532336
-0.519693
-0.508948
-0.498023
-0.485628
-0.471633
-0.456198
-0.43969
-0.422607
-0.405449
-0.388628
-0.372434
-0.357042
-0.342535
-0.328929
-0.316198
-0.304295
-0.293157
-0.282653
-0.272845
-0.518909
-0.507088
-0.497075
-0.487165
-0.476223
-0.464058
-0.450667
-0.436235
-0.421112
-0.405702
-0.390381
-0.375444
-0.361091
-0.347442
-0.334549
-0.322418
-0.311026
-0.30033
-0.290231
-0.280751
-0.505366
-0.494423
-0.485119
-0.476091
-0.46639
-0.455816
-0.444263
-0.43177
-0.418544
-0.404884
-0.391109
-0.377497
-0.364262
-0.351548
-0.33944
-0.327972
-0.317148
-0.306948
-0.2973
-0.2882
-0.491964
-0.481939
-0.473326
-0.465073
-0.456421
-0.4472
-0.437255
-0.426521
-0.415081
-0.403128
-0.390908
-0.378666
-0.366609
-0.354897
-0.343639
-0.332895
-0.322694
-0.313039
-0.303883
-0.295212
-0.478911
-0.469828
-0.461898
-0.454335
-0.446568
-0.438478
-0.429904
-0.420718
-0.410909
-0.400575
-0.38988
-0.37902
-0.368182
-0.357527
-0.347176
-0.337213
-0.327686
-0.31862
-0.309996
-0.301794
-0.466376
-0.458242
-0.450989
-0.444054
-0.437036
-0.42988
-0.422446
-0.414584
-0.406222
-0.397374
-0.388133
-0.378634
-0.36903
-0.359469
-0.350074
-0.34094
-0.332135
-0.323702
-0.315644
-0.30794
-0.454484
-0.447291
-0.440707
-0.434356
-0.427982
-0.421593
-0.415089
-0.408328
-0.401206
-0.393683
-0.385785
-0.377588
-0.369203
-0.36075
-0.352344
-0.344083
-0.336043
-0.328282
-0.320823
-0.31364
-0.443324
-0.437046
-0.431121
-0.425323
-0.419513
-0.413756
-0.408001
-0.402133
-0.396043
-0.38966
-0.382961
-0.375972
-0.368756
-0.3614
-0.353998
-0.34664
-0.339403
-0.332352
-0.325524
-0.318878
-0.432948
-0.427549
-0.422268
-0.416996
-0.411692
-0.406465
-0.40131
-0.396151
-0.390894
-0.385458
-0.379794
-0.373885
-0.367755
-0.361454
-0.355047
-0.348607
-0.342203
-0.335898
-0.329739
-0.323648
-0.423385
-0.418816
-0.414156
-0.409388
-0.404545
-0.39977
-0.395099
-0.390495
-0.385893
-0.38122
-0.376414
-0.371437
-0.366279
-0.360956
-0.355507
-0.34998
-0.344429
-0.338905
-0.333463
-0.327966
-0.414642
-0.410847
-0.406776
-0.402485
-0.398069
-0.393687
-0.389412
-0.385243
-0.381147
-0.377068
-0.37295
-0.368743
-0.364419
-0.35997
-0.355408
-0.350762
-0.346066
-0.341356
-0.33669
-0.331864
-0.406714
-0.403627
-0.400105
-0.396264
-0.39224
-0.388208
-0.384263
-0.380439
-0.37673
-0.373104
-0.369516
-0.36592
-0.362278
-0.358571
-0.354793
-0.35096
-0.347096
-0.343223
-0.339406
-0.335415
-0.39959
-0.397138
-0.394118
-0.390692
-0.387029
-0.38331
-0.379648
-0.376101
-0.372689
-0.369402
-0.366212
-0.363079
-0.359967
-0.356852
-0.353723
-0.350594
-0.347491
-0.344444
-0.341534
-0.338624
-0.393253
-0.391359
-0.388788
-0.385738
-0.382403
-0.378966
-0.37555
-0.372233
-0.369054
-0.366022
-0.363122
-0.360326
-0.3576
-0.35492
-0.352277
-0.34969
-0.34721
-0.344908
-0.342914
-0.341481
-0.387686
-0.386268
-0.38409
-0.381375
-0.378336
-0.375152
-0.371954
-0.368833
-0.365842
-0.363004
-0.360317
-0.357757
-0.355293
-0.352897
-0.350557
-0.3483
-0.346205
-0.344412
-0.34317
-0.343549
-0.382868
-0.38184
-0.379998
-0.37758
-0.374805
-0.371849
-0.368847
-0.365898
-0.363066
-0.360383
-0.357854
-0.355457
-0.353158
-0.350917
-0.348704
-0.346526
-0.344463
-0.342699
-0.341687
-0.344125
-0.378772
-0.378051
-0.376489
-0.374328
-0.371789
-0.36904
-0.366218
-0.363426
-0.360735
-0.358183
-0.355777
-0.353499
-0.351302
-0.349124
-0.346895
-0.344564
-0.342126
-0.339644
-0.337587
-0.340723
-0.375364
-0.374866
-0.373532
-0.371595
-0.369267
-0.366709
-0.364056
-0.361411
-0.358851
-0.356417
-0.354119
-0.351935
-0.349809
-0.347648
-0.34532
-0.342647
-0.339387
-0.335042
-0.328265
-0.319848
-0.372598
-0.372248
-0.371094
-0.36935
-0.367213
-0.364834
-0.362342
-0.359842
-0.35741
-0.35509
-0.352896
-0.350807
-0.348765
-0.34667
-0.344372
-0.341665
-0.338293
-0.333819
-0.327151
-0.319606
-0.370416
-0.370148
-0.369133
-0.367555
-0.365593
-0.363384
-0.361051
-0.358696
-0.356394
-0.354192
-0.352107
-0.350122
-0.34819
-0.346225
-0.344099
-0.341649
-0.338697
-0.334923
-0.329507
-0.324287
-0.368752
-0.368511
-0.367601
-0.366168
-0.364367
-0.362322
-0.360148
-0.357941
-0.355776
-0.353698
-0.351727
-0.349855
-0.348047
-0.346235
-0.344321
-0.34219
-0.339725
-0.336668
-0.332384
-0.329065
-0.367534
-0.367278
-0.366445
-0.365139
-0.363488
-0.361604
-0.35959
-0.357538
-0.355517
-0.353572
-0.351727
-0.349979
-0.348304
-0.346654
-0.344962
-0.343153
-0.341168
-0.338807
-0.335612
-0.333864
-0.366684
-0.366387
-0.365609
-0.364417
-0.362909
-0.361182
-0.359331
-0.35744
-0.355574
-0.353776
-0.352071
-0.350463
-0.348938
-0.347468
-0.34601
-0.34453
-0.343014
-0.34132
-0.339124
-0.338609
-0.366126
-0.365773
-0.365039
-0.36395
-0.362578
-0.361007
-0.359323
-0.3576
-0.3559
-0.354263
-0.352717
-0.351269
-0.349916
-0.348645
-0.347437
-0.346286
-0.345213
-0.344116
-0.342754
-0.343139
-0.365788
-0.365377
-0.36468
-0.363688
-0.362447
-0.361031
-0.359515
-0.357968
-0.356444
-0.354983
-0.353612
-0.352344
-0.351184
-0.350131
-0.349181
-0.348352
-0.347683
-0.347094
-0.346386
-0.347394
-0.365601
-0.365142
-0.364483
-0.363584
-0.362472
-0.361209
-0.359863
-0.358494
-0.357154
-0.35588
-0.354697
-0.353624
-0.35267
-0.351844
-0.351154
-0.350628
-0.350314
-0.350143
-0.349928
-0.351355
-0.365507
-0.365018
-0.364402
-0.363596
-0.36261
-0.361498
-0.360321
-0.359133
-0.35798
-0.356896
-0.355909
-0.355036
-0.354293
-0.353692
-0.353249
-0.352999
-0.352989
-0.353149
-0.353298
-0.355007
-0.365454
-0.364961
-0.364397
-0.363685
-0.362824
-0.361862
-0.360851
-0.359841
-0.358872
-0.357978
-0.357183
-0.356507
-0.355968
-0.355581
-0.355364
-0.355354
-0.355594
-0.356012
-0.356427
-0.358328
-0.365402
-0.364935
-0.364435
-0.363821
-0.363084
-0.362267
-0.361418