/*--------------------------------*- C++ -*----------------------------------*\
  =========                 |
  \\      /  F ield         | OpenFOAM: The Open Source CFD Toolbox
   \\    /   O peration     | Website:  https://openfoam.org
    \\  /    A nd           | Version:  6.0
     \\/     M anipulation  |
\*---------------------------------------------------------------------------*/
FoamFile
{
    version     2.0;
    format      ascii;
    class       surfaceScalarField;
    location    "69";
    object      phi;
}
// * * * * * * * * * * * * * * * * * * * * * * * * * * * * * * * * * * * * * //

dimensions      [0 3 -1 0 0 0 0];

internalField   nonuniform List<scalar> 
15760
(
-3.66786e-06
-3.41842e-05
3.7852e-05
-1.28302e-05
-9.61537e-05
0.000105316
-2.60048e-05
-0.000151548
0.000164723
-4.19328e-05
-0.000200006
0.000215934
-5.95229e-05
-0.000241765
0.000259355
-7.78176e-05
-0.000277571
0.000295866
-9.59797e-05
-0.000308388
0.00032655
-0.000113291
-0.000335183
0.000352494
-0.000129158
-0.000358801
0.000374668
-0.00014312
-0.000379904
0.000393866
-0.000154853
-0.000398964
0.000410697
-0.000164175
-0.000416296
0.000425618
-0.000171038
-0.000432109
0.000438972
-0.000175523
-0.000446554
0.000451039
-0.000177826
-0.00045978
0.000462083
-0.000178243
-0.000471968
0.000472385
-0.000177154
-0.000483354
0.000482265
-0.000175007
-0.000494241
0.000492094
-0.000172315
-0.000505022
0.00050233
-0.000516235
0.000513586
-0.000169666
-4.60596e-06
-2.95782e-05
-1.59124e-05
-8.48472e-05
-3.20186e-05
-0.000135442
-5.1386e-05
-0.000180638
-7.27315e-05
-0.000220419
-9.49648e-05
-0.000255338
-0.000117155
-0.000286198
-0.000138514
-0.000313824
-0.000158395
-0.00033892
-0.000176295
-0.000362004
-0.000191857
-0.000383402
-0.000204876
-0.000403277
-0.000215297
-0.000421689
-0.000223205
-0.000438646
-0.000228819
-0.000454165
-0.000232474
-0.000468313
-0.000234598
-0.000481231
-0.000235691
-0.000493147
-0.000236312
-0.000504401
-0.000515477
-0.000237071
-5.52489e-06
-2.40533e-05
-1.89082e-05
-7.14639e-05
-3.78355e-05
-0.000116515
-6.05008e-05
-0.000157973
-8.54428e-05
-0.000195477
-0.000111452
-0.000229328
-0.000137515
-0.000260135
-0.000162779
-0.000288559
-0.000186546
-0.000315154
-0.000208262
-0.000340288
-0.000227526
-0.000364137
-0.000244093
-0.00038671
-0.000257877
-0.000407905
-0.000268949
-0.000427574
-0.000277531
-0.000445583
-0.000283982
-0.000461862
-0.000288772
-0.000476441
-0.000292458
-0.000489461
-0.000295657
-0.000501202
-0.000512112
-0.000299022
-6.37833e-06
-1.7675e-05
-2.16737e-05
-5.61685e-05
-4.31882e-05
-9.50004e-05
-6.88745e-05
-0.000132287
-9.71166e-05
-0.000167235
-0.000126606
-0.000199839
-0.000156259
-0.000230482
-0.000185172
-0.000259646
-0.000212595
-0.00028773
-0.000237923
-0.00031496
-0.000260698
-0.000341362
-0.000280616
-0.000366792
-0.000297536
-0.000390985
-0.000311488
-0.000413622
-0.000322672
-0.000434399
-0.000331449
-0.000453085
-0.000338323
-0.000469567
-0.000343907
-0.000483877
-0.000348887
-0.000496222
-0.000507017
-0.000353982
-7.11575e-06
-1.05593e-05
-2.40545e-05
-3.92298e-05
-4.77897e-05
-7.12652e-05
-7.60736e-05
-0.000104003
-0.000107167
-0.000136142
-0.000139685
-0.000167321
-0.000172497
-0.000197671
-0.000204659
-0.000227484
-0.000235378
-0.000257011
-0.000263997
-0.000286341
-0.000289993
-0.000315366
-0.000312986
-0.000343799
-0.000332756
-0.000371215
-0.00034926
-0.000397118
-0.000362645
-0.000421015
-0.000373246
-0.000442483
-0.00038158
-0.000461233
-0.000388308
-0.000477149
-0.000394194
-0.000490336
-0.000501159
-0.000400052
-7.68578e-06
-2.87347e-06
-2.58936e-05
-2.10221e-05
-5.13481e-05
-4.58106e-05
-8.16541e-05
-7.3697e-05
-0.000114986
-0.00010281
-0.000149912
-0.000132395
-0.000185274
-0.000162308
-0.000220107
-0.000192652
-0.000253587
-0.000223531
-0.000285011
-0.000254916
-0.000313789
-0.000286589
-0.000339453
-0.000318135
-0.000361683
-0.000348985
-0.00038033
-0.00037847
-0.00039545
-0.000405895
-0.000407315
-0.000430618
-0.00041642
-0.000452128
-0.000423459
-0.000470111
-0.000429278
-0.000484517
-0.000495625
-0.000434812
-8.04019e-06
5.16672e-06
-2.70439e-05
-2.0184e-06
-5.35874e-05
-1.92671e-05
-8.51894e-05
-4.2095e-05
-0.000119979
-6.8021e-05
-0.000156506
-9.5868e-05
-0.000193609
-0.000125205
-0.00023032
-0.00015594
-0.000265805
-0.000188046
-0.000299325
-0.000221396
-0.000330231
-0.000255683
-0.000357966
-0.000290401
-0.000382091
-0.00032486
-0.000402328
-0.000358234
-0.000418597
-0.000389626
-0.000431062
-0.000418153
-0.000440151
-0.000443038
-0.000446556
-0.000463706
-0.000451199
-0.000479874
-0.000491667
-0.000455157
-8.13915e-06
1.33059e-05
-2.73822e-05
1.72247e-05
-5.42717e-05
7.62238e-06
-8.63063e-05
-1.00604e-05
-0.00012161
-3.27174e-05
-0.000158742
-5.87354e-05
-0.00019656
-8.73871e-05
-0.000234115
-0.000118386
-0.000270578
-0.000151583
-0.000305201
-0.000186773
-0.00033729
-0.000223594
-0.000366208
-0.000261482
-0.000391401
-0.000299666
-0.000412439
-0.000337196
-0.000429074
-0.000372991
-0.000441306
-0.000405921
-0.000449438
-0.000434906
-0.000454109
-0.000459036
-0.000456286
-0.000477697
-0.000490743
-0.000457209
-7.95659e-06
2.12625e-05
-2.68248e-05
3.60928e-05
-5.32332e-05
3.40308e-05
-8.47263e-05
2.14327e-05
-0.00011946
2.0163e-06
-0.000156026
-2.21689e-05
-0.000193318
-5.00957e-05
-0.000230421
-8.12834e-05
-0.000266537
-0.000115466
-0.00030093
-0.00015238
-0.000332891
-0.000191633
-0.000361731
-0.000232643
-0.000386793
-0.000274604
-0.000407498
-0.00031649
-0.00042341
-0.00035708
-0.000434317
-0.000395014
-0.00044033
-0.000428892
-0.00044196
-0.000457407
-0.000440167
-0.00047949
-0.000494556
-0.000436355
-7.48519e-06
2.87476e-05
-2.53416e-05
5.39492e-05
-5.0399e-05
5.90882e-05
-8.03072e-05
5.1341e-05
-0.000113285
3.4994e-05
-0.000147972
1.25178e-05
-0.000183305
-1.47625e-05
-0.000218418
-4.617e-05
-0.00025256
-8.13243e-05
-0.000285031
-0.000119908
-0.000315141
-0.000161523
-0.000342186
-0.000205598
-0.000365448
-0.000251342
-0.000384227
-0.000297711
-0.000397903
-0.000343405
-0.000406027
-0.000386889
-0.000408456
-0.000426463
-0.000405486
-0.000460378
-0.000397986
-0.000486989
-0.00050505
-0.000387492
-6.73996e-06
3.54876e-05
-2.29673e-05
7.01766e-05
-4.58123e-05
8.19332e-05
-7.30788e-05
7.86075e-05
-0.00010307
6.49851e-05
-0.000134479
4.39273e-05
-0.000166291
1.70488e-05
-0.000197686
-1.47752e-05
-0.000227966
-5.10437e-05
-0.00025649
-9.13851e-05
-0.000282616
-0.000135397
-0.000305673
-0.000182541
-0.000324938
-0.000232077
-0.000339649
-0.000283
-0.000349043
-0.000334011
-0.000352452
-0.00038348
-0.000349445
-0.000429469
-0.000340021
-0.000469802
-0.000324849
-0.000502162
-0.000524375
-0.000305523
-5.75929e-06
4.12469e-05
-1.98057e-05
8.4223e-05
-3.96427e-05
0.00010177
-6.32625e-05
0.000102227
-8.90648e-05
9.07874e-05
-0.000115796
7.06583e-05
-0.000142476
4.37291e-05
-0.000168326
1.10749e-05
-0.000192697
-2.66728e-05
-0.000215008
-6.90742e-05
-0.000234691
-0.000115713
-0.000251149
-0.000166084
-0.000263715
-0.00021951
-0.000271646
-0.00027507
-0.000274127
-0.00033153
-0.000270337
-0.00038727
-0.000259583
-0.000440224
-0.000241523
-0.000487862
-0.000216508
-0.000527177
-0.000554808
-0.000186075
-4.60286e-06
4.58498e-05
-1.60242e-05
9.56444e-05
-3.21798e-05
0.000117926
-5.12671e-05
0.000121315
-7.17852e-05
0.000111305
-9.25246e-05
9.13977e-05
-0.000112527
6.37317e-05
-0.000131033
2.9581e-05
-0.000147426
-1.02803e-05
-0.000161176
-5.53239e-05
-0.000171793
-0.000105096
-0.000178778
-0.000159099
-0.000181579
-0.000216709
-0.000179553
-0.000277095
-0.00017195
-0.000339133
-0.000157922
-0.000401298
-0.000136617
-0.000461529
-0.000107389
-0.00051709
-7.01948e-05
-0.000564371
-0.000598648
-2.63543e-05
-3.34603e-06
4.91958e-05
-1.18399e-05
0.000104138
-2.3809e-05
0.000129895
-3.76553e-05
0.000135161
-5.19718e-05
0.000125622
-6.55809e-05
0.000105007
-7.75271e-05
7.56779e-05
-8.70468e-05
3.91008e-05
-9.35293e-05
-3.79788e-06
-9.64751e-05
-5.23781e-05
-9.54563e-05
-0.000106115
-9.00749e-05
-0.000164481
-7.99215e-05
-0.000226863
-6.4528e-05
-0.000292488
-4.33207e-05
-0.00036034
-1.55858e-05
-0.000429033
1.95089e-05
-0.000496623
6.27725e-05
-0.000560354
0.000114616
-0.000616215
-0.000658124
0.000174092
-2.07123e-06
5.1267e-05
-7.49441e-06
0.000109561
-1.4968e-05
0.000137368
-2.30796e-05
0.000143272
-3.05029e-05
0.000133045
-3.60787e-05
0.000110583
-3.88355e-05
7.84348e-05
-3.79827e-05
3.82479e-05
-3.28881e-05
-8.89246e-06
-2.3053e-05
-6.22132e-05
-8.08503e-06
-0.000121083
1.23287e-05
-0.000184894
3.84536e-05
-0.000252988
7.05483e-05
-0.000324583
0.000108921
-0.000398712
0.000153997
-0.000474109
0.000206372
-0.000548998
0.000266776
-0.000620757
0.00033582
-0.00068526
-0.000735285
0.000412982
-8.57459e-07
5.21245e-05
-3.22341e-06
0.000111927
-6.09028e-06
0.000140235
-8.19455e-06
0.000145377
-8.27138e-06
0.000133122
-5.16419e-06
0.000107475
2.12998e-06
7.11406e-05
1.44487e-05
2.59292e-05
3.24684e-05
-2.69121e-05
5.67139e-05
-8.64587e-05
8.75688e-05
-0.000151938
0.000125286
-0.000222612
0.000170004
-0.000297705
0.000221765
-0.000376344
0.000280567
-0.000457515
0.000346436
-0.000539978
0.000419529
-0.000622091
0.000500202
-0.000701431
0.000588955
-0.000774012
-0.000831866
0.000685536
2.30406e-07
5.18941e-05
7.75669e-07
0.000111382
2.45654e-06
0.000138554
6.43927e-06
0.000141394
1.39551e-05
0.000125606
2.6175e-05
9.52554e-05
4.41479e-05
5.31677e-05
6.87723e-05
1.3048e-06
0.000100784
-5.89242e-05
0.000140751
-0.000126426
0.000189064
-0.000200251
0.000245933
-0.000279481
0.000311378
-0.000363149
0.000385233
-0.0004502
0.000467171
-0.000539452
0.000556759
-0.000629566
0.000653576
-0.000718909
0.000757351
-0.000805206
0.000868036
-0.000884698
-0.000949106
0.000985276
1.15082e-06
5.07433e-05
4.37258e-06
0.00010816
1.04261e-05
0.000132501
2.0445e-05
0.000131375
3.56626e-05
0.000110389
5.72856e-05
7.36325e-05
8.64222e-05
2.40311e-05
0.000124041
-3.63138e-05
0.000170942
-0.000105825
0.000227735
-0.000183219
0.000294815
-0.000267331
0.000372337
-0.000357003
0.000460195
-0.000451007
0.000557999
-0.000548004
0.000665077
-0.00064653
0.000780504
-0.000744993
0.000903211
-0.000841615
0.00103216
-0.000934154
0.00116643
-0.00101897
-0.00108782
0.00130514
1.89162e-06
4.88516e-05
7.52416e-06
0.000102528
1.77332e-05
0.000122292
3.3693e-05
0.000115415
5.66822e-05
8.73996e-05
8.79676e-05
4.2347e-05
0.000128729
-1.67303e-05
0.000180005
-8.75894e-05
0.000242647
-0.000168468
0.000317283
-0.000257855
0.000404276
-0.000354323
0.000503685
-0.000456412
0.000615237
-0.000562559
0.000738293
-0.000671061
0.000871831
-0.000780068
0.00101443
-0.000887592
0.00116432
-0.000991501
0.00131951
-0.00108935
0.00147806
-0.00117752
-0.00124838
0.00163862
2.47195e-06
4.63797e-05
1.02818e-05
9.47181e-05
2.44696e-05
0.000108104
4.63262e-05
9.35588e-05
7.72221e-05
5.65037e-05
0.000118509
1.06029e-06
0.000171441
-6.96623e-05
0.000237108
-0.000153256
0.00031637
-0.00024773
0.000409805
-0.00035129
0.000517653
-0.000462171
0.000639783
-0.000578543
0.000775676
-0.000698452
0.000924425
-0.00081981
0.00108476
-0.000940401
0.00125506
-0.0010579
0.00143336
-0.0011698
0.00161705
-0.00127304
0.00180151
-0.00136198
-0.00142185
0.00197498
2.93886e-06
4.34408e-05
1.27834e-05
8.48735e-05
3.08906e-05
8.99968e-05
5.87385e-05
6.57109e-05
9.7832e-05
1.74101e-05
0.000149622
-5.07296e-05
0.00021542
-0.00013546
0.000296312
-0.000234148
0.000393072
-0.000344491
0.000506089
-0.000464306
0.000635307
-0.000591389
0.000780206
-0.000723442
0.000939817
-0.000858063
0.0011128
-0.000992789
0.00129757
-0.00112517
0.00149256
-0.00125288
0.00169654
-0.00137379
0.00190948
-0.00148598
0.00213522
-0.00158772
-0.00167349
0.00238687
3.36289e-06
4.0078e-05
1.52367e-05
7.29997e-05
3.73788e-05
6.78547e-05
7.15112e-05
3.15785e-05
0.000119301
-3.03796e-05
0.000182289
-0.000113718
0.000261791
-0.000214962
0.000358784
-0.00033114
0.000473792
-0.000459499
0.000606803
-0.000597318
0.000757211
-0.000741797
0.000923816
-0.000890046
0.00110488
-0.00103913
0.00129827
-0.00118618
0.0015016
-0.0013285
0.00171247
-0.00146375
0.00192871
-0.00159004
0.00214883
-0.00170609
0.00237246
-0.00181136
-0.00190137
0.00260034
3.82419e-06
3.62538e-05
1.78822e-05
5.89417e-05
4.43784e-05
4.13586e-05
8.53096e-05
-9.35274e-06
0.000142505
-8.75748e-05
0.000217548
-0.000188761
0.000311652
-0.000309067
0.000425515
-0.000445003
0.00055919
-0.000593173
0.000711991
-0.00075012
0.00088248
-0.000912285
0.00106851
-0.00107607
0.00126735
-0.00123797
0.00147589
-0.00139472
0.00169085
-0.00154346
0.001909
-0.0016819
0.00212737
-0.0018084
0.00234332
-0.00192204
0.00255452
-0.00202255
-0.00210665
0.00275979
4.40352e-06
3.18502e-05
2.09614e-05
4.23838e-05
5.23277e-05
9.99232e-06
0.000100769
-5.77945e-05
0.000168234
-0.00015504
0.000256248
-0.000276775
0.000365753
-0.000418572
0.000496936
-0.000576186
0.000649097
-0.000745334
0.000820597
-0.000921619
0.0010089
-0.00110059
0.00121074
-0.00127791
0.00142232
-0.00144955
0.00163961
-0.00161201
0.00185863
-0.00176248
0.00207568
-0.00189895
0.00228749
-0.00202022
0.00249136
-0.0021259
0.00268507
-0.00221627
-0.00228986
0.00286829
5.17069e-06
2.66796e-05
2.46813e-05
2.28732e-05
6.15913e-05
-2.69177e-05
0.000118387
-0.00011459
0.000197037
-0.000233689
0.000298845
-0.000378583
0.000424247
-0.000543974
0.000572635
-0.000724574
0.000742261
-0.00091496
0.000930271
-0.00110963
0.00113288
-0.0013032
0.00134566
-0.00149069
0.00156388
-0.00166777
0.00178287
-0.00183101
0.00199837
-0.00197798
0.00220671
-0.00210729
0.00240499
-0.0022185
0.00259109
-0.00231201
0.00276365
-0.00238882
-0.00244908
0.00292286
6.17669e-06
2.05029e-05
2.91888e-05
-1.3887e-07
7.2409e-05
-7.01379e-05
0.000138438
-0.00018062
0.000229107
-0.000324358
0.000345264
-0.00049474
0.000486553
-0.000685263
0.00065126
-0.000889281
0.000836321
-0.00110002
0.00103751
-0.00131082
0.00124977
-0.00151546
0.00146768
-0.0017086
0.0016859
-0.00188599
0.00189957
-0.00204469
0.00210467
-0.00218307
0.0022981
-0.00230072
0.00247781
-0.00239821
0.00264271
-0.00247691
0.00279255
-0.00253867
-0.00258487
0.00292835
7.44996e-06
1.30529e-05
3.45575e-05
-2.72464e-05
8.48695e-05
-0.00012045
0.00016094
-0.00025669
0.000264236
-0.000427653
0.000394864
-0.000625369
0.000551355
-0.000841753
0.000730602
-0.00106853
0.000928044
-0.00129746
0.00113806
-0.00152083
0.00135451
-0.00173192
0.00157134
-0.00192542
0.00178306
-0.00209771
0.00198517
-0.0022468
0.00217437
-0.00237227
0.00234858
-0.00247492
0.00250686
-0.0025565
0.00264928
-0.00261933
0.00277665
-0.00266604
-0.00269885
0.00289064
8.99698e-06
4.05593e-06
4.07877e-05
-5.90372e-05
9.89092e-05
-0.000178571
0.00018565
-0.000343431
0.00030183
-0.000543834
0.000446489
-0.000770027
0.000616727
-0.00101199
0.000807835
-0.00125964
0.00101371
-0.00150334
0.00122752
-0.00173464
0.00144239
-0.00194679
0.00165214
-0.00213517
0.00185169
-0.00229725
0.00203738
-0.0024325
0.00220704
-0.00254192
0.00235979
-0.00262768
0.0024959
-0.00269261
0.00261647
-0.0027399
0.00272315
-0.00277271
-0.0027938
0.00281809
1.08059e-05
-6.74999e-06
4.78151e-05
-9.60463e-05
0.000114329
-0.000245085
0.000212098
-0.0004412
0.000340969
-0.000672705
0.000498576
-0.000927634
0.000680335
-0.00119375
0.00087984
-0.00145914
0.00108959
-0.00171309
0.00130189
-0.00194693
0.00150967
-0.00215458
0.00170716
-0.00233265
0.0018902
-0.0024803
0.00205636
-0.00259865
0.00220473
-0.0026903
0.00233571
-0.00275865
0.00245059
-0.00280749
0.00255124
-0.00284055
0.00263984
-0.00286131
-0.00287272
0.00271876
1.28515e-05
-1.96015e-05
5.55242e-05
-0.000138719
0.00013082
-0.00032038
0.000239634
-0.000550015
0.000380492
-0.000813562
0.000549312
-0.00109645
0.000739671
-0.00138411
0.000943551
-0.00166302
0.00115238
-0.00192192
0.0013581
-0.00215266
0.00155403
-0.0023505
0.00173533
-0.00251395
0.00189912
-0.00264409
0.00204434
-0.00274388
0.0021714
-0.00281736
0.00228173
-0.00286898
0.0023774
-0.00290316
0.00246076
-0.00292391
0.00253418
-0.00293473
-0.00293855
0.00260001
1.50992e-05
-3.47006e-05
6.37621e-05
-0.000187382
0.000147991
-0.000404609
0.000267481
-0.000669505
0.000419086
-0.000965168
0.000596785
-0.00127415
0.000792306
-0.00157963
0.000996277
-0.00186699
0.00119954
-0.00212519
0.00139428
-0.00234739
0.0015747
-0.00253093
0.00173729
-0.00267653
0.00188063
-0.00278743
0.00200503
-0.00286828
0.00211198
-0.00292431
0.0022037
-0.00296071
0.00228271
-0.00298217
0.00235152
-0.00299272
0.00241248
-0.00299569
-0.00299377
0.00246771
1.75081e-05
-5.22087e-05
7.23473e-05
-0.000242221
0.000165392
-0.000497654
0.000294778
-0.000798891
0.000455389
-0.00112578
0.000639146
-0.00145791
0.000836094
-0.00177658
0.00103594
-0.00206684
0.00122952
-0.00231876
0.0014098
-0.00252767
0.00157232
-0.00269344
0.00171507
-0.00281929
0.00183809
-0.00291045
0.00194285
-0.00297303
0.00203165
-0.00301311
0.00210718
-0.00303624
0.00217213
-0.00304711
0.00222893
-0.00304953
0.00227973
-0.00304649
-0.00304039
0.00232634
2.0032e-05
-7.22407e-05
8.10772e-05
-0.000303266
0.000182535
-0.000599112
0.000320635
-0.000936991
0.000488071
-0.00129322
0.000674743
-0.00164458
0.000869353
-0.00197119
0.00106123
-0.00225872
0.00124178
-0.00249932
0.00140523
-0.00269112
0.00154867
-0.00283688
0.00167163
-0.00294225
0.00177539
-0.00301422
0.00186233
-0.00305996
0.00193526
-0.00308604
0.00199703
-0.00309801
0.00205026
-0.00310034
0.00209718
-0.00309645
0.00213963
-0.00308894
-0.00307986
0.0021791
2.26199e-05
-9.48606e-05
8.97328e-05
-0.000370379
0.000198911
-0.00070829
0.000344175
-0.00108225
0.000515925
-0.00146497
0.000702243
-0.0018309
0.000890962
-0.00215991
0.00107163
-0.00243938
0.00123673
-0.00266441
0.00138203
-0.00283643
0.00150626
-0.0029611
0.00161031
-0.0030463
0.00169647
-0.00310038
0.00176768
-0.00313118
0.00182698
-0.00314534
0.00187718
-0.00314821
0.00192066
-0.00314382
0.00195938
-0.00313517
0.00199483
-0.0031244
-0.00311321
0.00202819
2.52153e-05
-0.000120076
9.80836e-05
-0.000443248
0.000214011
-0.000824217
0.000364582
-0.00123283
0.000537939
-0.00163832
0.000720704
-0.00201366
0.000900403
-0.00233961
0.00106735
-0.00260633
0.00121549
-0.00281256
0.00134228
-0.00296322
0.00144794
-0.00306676
0.00153451
-0.00313287
0.00160497
-0.00317084
0.00166254
-0.00318875
0.00171026
-0.00319306
0.00175071
-0.00318866
0.001786
-0.00317911
0.00181774
-0.0031669
0.00184713
-0.00315379
-0.00314114
0.00187507
2.77578e-05
-0.000147834
0.000105895
-0.000521385
0.00022735
-0.000945672
0.000381145
-0.00138662
0.000553354
-0.00181053
0.000729616
-0.00218993
0.000897725
-0.00250772
0.00104923
-0.00275783
0.00117974
-0.00294307
0.00128837
-0.00307184
0.00137662
-0.00315502
0.0014474
-0.00320364
0.00150407
-0.00322751
0.00154991
-0.00323459
0.00158775
-0.0032309
0.00161992
-0.00322082
0.00164816
-0.00320736
0.0016738
-0.00319254
0.00169776
-0.00317776
-0.00316409
0.00172071
3.01834e-05
-0.000178017
0.000112936
-0.000604137
0.000238487
-0.00107122
0.000393296
-0.00154143
0.000561695
-0.00197893
0.000728885
-0.00235712
0.000883462
-0.00266229
0.00101852
-0.00289289
0.00113142
-0.00305597
0.00122274
-0.00316316
0.00129505
-0.00322732
0.00135176
-0.00326036
0.00139641
-0.00327216
0.00143213
-0.00327031
0.00146149
-0.00326026
0.00148646
-0.00324579
0.00150848
-0.00322938
0.0015286
-0.00321266
0.00154753
-0.00319669
-0.0031823
0.00156574
3.24276e-05
-0.000210445
0.000118991
-0.0006907
0.000247053
-0.00119929
0.000400639
-0.00169502
0.000562777
-0.00214107
0.000718793
-0.00251313
0.000858515
-0.00280202
0.000976767
-0.00301114
0.00107257
-0.00315177
0.00114776
-0.00323835
0.00120564
-0.00328521
0.00124993
-0.00330465
0.0012841
-0.00330633
0.00131102
-0.00329723
0.00133295
-0.00328219
0.00135152
-0.00326436
0.00136789
-0.00324575
0.00138287
-0.00322763
0.00139699
-0.00321081
-0.00319591
0.0014106
3.44272e-05
-0.000244872
0.000123867
-0.00078014
0.000252762
-0.00132818
0.000402956
-0.00184521
0.000556688
-0.0022948
0.000699922
-0.00265637
0.00082403
-0.00292612
0.000925605
-0.00311272
0.00100516
-0.00323133
0.00106553
-0.00329872
0.00111048
-0.00333016
0.00114381
-0.00333798
0.00116877
-0.00333129
0.00118795
-0.00331641
0.00120323
-0.00329747
0.00121595
-0.00327708
0.00122703
-0.00325683
0.00123709
-0.00323769
0.00124652
-0.00322025
-0.00320497
0.00125559
3.61233e-05
-0.000280995
0.000127405
-0.000871422
0.000255423
-0.0014562
0.000400209
-0.00199
0.000543743
-0.00243834
0.000673069
-0.00278569
0.000781283
-0.00303434
0.000866676
-0.00319811
0.000931032
-0.00329568
0.000977903
-0.00334559
0.0010113
-0.00336356
0.0010349
-0.00336158
0.00105169
-0.00334808
0.0010639
-0.00332861
0.00107309
-0.00330666
0.00108033
-0.00328433
0.00108635
-0.00326285
0.00109161
-0.00324295
0.00109642
-0.00322505
-0.00320949
0.00110094
3.74681e-05
-0.000318463
0.000129494
-0.000963448
0.000254961
-0.00158166
0.000392534
-0.00212757
0.000524456
-0.00257026
0.000639184
-0.00290042
0.000731601
-0.00312675
0.000801548
-0.00326806
0.000851827
-0.00334596
0.00088646
-0.00338022
0.000909497
-0.0033866
0.000924396
-0.00337648
0.000933806
-0.00335749
0.000939618
-0.00333442
0.000943107
-0.00331015
0.000945117
-0.00328634
0.000946199
-0.00326393
0.000946715
-0.00324347
0.000946891
-0.00322523
-0.00320945
0.000946852
3.84106e-05
-0.000356874
0.000130042
-0.00105508
0.000251358
-0.00170298
0.00038016
-0.00225637
0.000499416
-0.00268951
0.000599225
-0.00300023
0.000676221
-0.00320375
0.000731592
-0.00332343
0.000768909
-0.00338328
0.000792442
-0.00340376
0.000806134
-0.00340029
0.000813148
-0.00338349
0.000815785
-0.00336013
0.000815617
-0.00333425
0.000813664
-0.0033082
0.000810582
-0.00328326
0.000806796
-0.00326015
0.000802584
-0.00323926
0.000798118
-0.00322076
-0.00320482
0.000793488
3.89213e-05
-0.000395795
0.000129021
-0.00114518
0.000244718
-0.00181868
0.00036346
-0.00237511
0.000469334
-0.00279539
0.000554202
-0.0030851
0.000616342
-0.00326589
0.000658063
-0.00336515
0.00068347
-0.00340869
0.000696901
-0.00341719
0.000702084
-0.00340547
0.000701849
-0.00338326
0.00069816
-0.00335644
0.000692299
-0.00332839
0.00068507
-0.00330097
0.000676979
-0.00327517
0.000668353
-0.00325152
0.000659406
-0.00323031
0.000650272
-0.00321163
-0.00319557
0.000641018
3.89777e-05
-0.000434773
0.000126439
-0.00123264
0.000235203
-0.00192744
0.000342865
-0.00248277
0.000434935
-0.00288746
0.000505071
-0.00315523
0.000553035
-0.00331385
0.000582027
-0.00339414
0.000596479
-0.00342314
0.000600656
-0.00342136
0.000598003
-0.00340282
0.000591007
-0.00337626
0.000581313
-0.00334674
0.000569954
-0.00331703
0.000557552
-0.00328857
0.000544495
-0.00326211
0.000531033
-0.00323806
0.000517335
-0.00321661
0.000503505
-0.0031978
-0.00318166
0.000489597
3.85684e-05
-0.000473341
0.000122342
-0.00131641
0.000223034
-0.00202814
0.000318849
-0.00257859
0.00039694
-0.00296555
0.000452718
-0.00321101
0.00048724
-0.00334838
0.00050438
-0.00341128
0.000508721
-0.00342748
0.00050435
-0.00341699
0.000494393
-0.00339286
0.000480998
-0.00336287
0.000465529
-0.00333128
0.000448799
-0.0033003
0.000431287
-0.00327106
0.000413283
-0.0032441
0.000394978
-0.00321975
0.000376507
-0.00319814
0.000357957
-0.00317925
-0.00316308
0.000339372
3.76927e-05
-0.000511034
0.000116805
-0.00139553
0.000208469
-0.0021198
0.000291902
-0.00266202
0.000356036
-0.00302968
0.000397941
-0.00325292
0.000419768
-0.0033702
0.000425865
-0.00341738
0.000420823
-0.00342244
0.000408482
-0.00340465
0.000391632
-0.00337602
0.000372108
-0.00334334
0.00035102
-0.00331019
0.000329003
-0.00327829
0.000306415
-0.00324847
0.000283467
-0.00322116
0.000260308
-0.00319659
0.000237046
-0.00317488
0.000213756
-0.00315596
-0.0031398
0.000190479
3.63598e-05
-0.000547394
0.000109932
-0.0014691
0.00019179
-0.00220166
0.000262511
-0.00273274
0.000312865
-0.00308004
0.00034145
-0.0032815
0.00035131
-0.00338006
0.000347093
-0.00341316
0.000333287
-0.00340863
0.00031344
-0.0033848
0.000290011
-0.00335259
0.000264549
-0.00331788
0.000237948
-0.00328359
0.000210695
-0.00325103
0.000183047
-0.00322082
0.000155156
-0.00319326
0.000127131
-0.00316857
9.90602e-05
-0.00314681
7.10156e-05
-0.00312791
-0.00311182
4.30382e-05
3.45877e-05
-0.000581981
0.000101843
-0.00153635
0.000173293
-0.00227311
0.000231146
-0.0027906
0.000268013
-0.0031169
0.000283864
-0.00329735
0.000282447
-0.00337865
0.000268559
-0.00339928
0.000246507
-0.00338658
0.000219522
-0.00335782
0.00018975
-0.00332281
0.000158484
-0.00328661
0.000126438
-0.00325154
9.39763e-05
-0.00321857
6.12772e-05
-0.00318812
2.84384e-05
-0.00316043
-4.46341e-06
-0.00313567
-3.73536e-05
-0.00311392
-7.01618e-05
-0.00309511
-0.00307914
-0.000102841
3.2402e-05
-0.000614383
9.26737e-05
-0.00159662
0.000153273
-0.00233371
0.000198247
-0.00283557
0.000222004
-0.00314066
0.000225717
-0.00330106
0.000213662
-0.00336659
0.000190668
-0.00337628
0.000160798
-0.00335671
0.000126964
-0.00332398
9.10196e-05
-0.00328687
5.40382e-05
-0.00324963
1.65856e-05
-0.00321409
-2.10715e-05
-0.00318091
-5.88214e-05
-0.00315037
-9.66124e-05
-0.00312264
-0.000134398
-0.00309788
-0.000172116
-0.0030762
-0.000209691
-0.00305753
-0.00304177
-0.000247065
2.98344e-05
-0.000644218
8.25659e-05
-0.00164936
0.000132019
-0.00238316
0.000164225
-0.00286778
0.000175304
-0.00315174
0.000167465
-0.00329323
0.000145361
-0.00334449
0.000113748
-0.00334467
7.64138e-05
-0.00331938
3.59534e-05
-0.00328352
-6.04248e-06
-0.00324487
-4.8686e-05
-0.00320699
-9.15305e-05
-0.00317124
-0.000134385
-0.00313806
-0.000177192
-0.00310756
-0.000219942
-0.00307989
-0.000262618
-0.0030552
-0.000305169
-0.00303365
-0.000347511
-0.00301519
-0.00299971
-0.000389569
2.69214e-05
-0.000671139
7.16659e-05
-0.0016941
0.000109809
-0.0024213
0.000129452
-0.00288742
0.000128324
-0.00315061
0.000109503
-0.0032744
7.78824e-05
-0.00331287
3.80731e-05
-0.00330486
-6.436e-06
-0.00327487
-5.3352e-05
-0.00323661
-0.000101318
-0.00319691
-0.000149601
-0.00315871
-0.000197845
-0.003123
-0.000245916
-0.00308999
-0.000293797
-0.00305968
-0.000341518
-0.00303216
-0.000389096
-0.00300763
-0.000436491
-0.00298625
-0.000483606
-0.00296807
-0.00295297
-0.000530342
2.37037e-05
-0.000694843
6.01202e-05
-0.00173052
8.69044e-05
-0.00244809
9.42683e-05
-0.00289479
8.14253e-05
-0.00313777
5.21689e-05
-0.00324515
1.15158e-05
-0.00327221
-3.61233e-05
-0.00325722
-8.7568e-05
-0.00322342
-0.000140809
-0.00318337
-0.000194696
-0.00314302
-0.000248621
-0.00310478
-0.000302296
-0.00306932
-0.000355621
-0.00303666
-0.000408612
-0.00300669
-0.000461333
-0.00297944
-0.000513838
-0.00295512
-0.000566109
-0.00293398
-0.000618031
-0.00291615
-0.00290154
-0.000669467
2.02244e-05
-0.000715067
4.80731e-05
-0.00175837
6.35515e-05
-0.00246356
5.89811e-05
-0.00289021
3.49273e-05
-0.00311371
-4.24384e-06
-0.00320598
-5.34869e-05
-0.00322297
-0.000108633
-0.00320207
-0.000166812
-0.00316524
-0.000226276
-0.0031239
-0.000286058
-0.00308324
-0.00034565
-0.00304519
-0.000404811
-0.00301016
-0.000463457
-0.00297802
-0.000521618
-0.00294853
-0.00057939
-0.00292167
-0.000636874
-0.00289764
-0.000694082
-0.00287678
-0.000750887
-0.00285935
-0.00284533
-0.000807095
1.65287e-05
-0.000731596
3.56647e-05
-0.0017775
3.99788e-05
-0.00246788
2.38675e-05
-0.0028741
-1.0887e-05
-0.00307896
-5.94744e-05
-0.00315739
-0.000116899
-0.00316555
-0.000179263
-0.00313971
-0.000243997
-0.00310051
-0.0003096
-0.0030583
-0.000375264
-0.00301758
-0.000440567
-0.00297989
-0.000505295
-0.00294544
-0.00056936
-0.00291395
-0.000632789
-0.0028851
-0.000695698
-0.00285876
-0.000758235
-0.0028351
-0.000820467
-0.00281454
-0.000882265
-0.00279755
-0.00278426
-0.000943332
1.26626e-05
-0.000744259
2.30301e-05
-0.00178787
1.63982e-05
-0.00246125
-1.08219e-05
-0.00284688
-5.57644e-05
-0.00303402
-0.000113289
-0.00309987
-0.000178511
-0.00310032
-0.00024782
-0.0030704
-0.000318941
-0.00302939
-0.000390601
-0.00298664
-0.000462137
-0.00294604
-0.000533204
-0.00290882
-0.000603604
-0.00287504
-0.000673232
-0.00284432
-0.000742082
-0.00281625
-0.000810261
-0.00279058
-0.000877962
-0.0027674
-0.000945321
-0.00274718
-0.00101222
-0.00273065
-0.00271827
-0.00107822
8.67261e-06
-0.000752931
1.02974e-05
-0.00178949
-6.99596e-06
-0.00244395
-4.48614e-05
-0.00280902
-9.94778e-05
-0.0029794
-0.000165472
-0.00303387
-0.000238122
-0.00302767
-0.000314109
-0.00299441
-0.000391442
-0.00295206
-0.000469061
-0.00290902
-0.000546443
-0.00286866
-0.000623318
-0.00283194
-0.000699511
-0.00279884
-0.000774892
-0.00276894
-0.000849396
-0.00274175
-0.00092308
-0.0027169
-0.000996148
-0.00269433
-0.00106882
-0.00267452
-0.001141
-0.00265846
-0.00264712
-0.00121215
4.60464e-06
-0.000757536
-2.41283e-06
-0.00178248
-3.00263e-05
-0.00241634
-7.80485e-05
-0.002761
-0.000141823
-0.00291563
-0.000215829
-0.00295987
-0.000295538
-0.00294797
-0.000377928
-0.00291202
-0.000461276
-0.00286871
-0.000544722
-0.00282557
-0.000627882
-0.0027855
-0.000710573
-0.00274925
-0.000792664
-0.00271675
-0.000874015
-0.00268759
-0.000954497
-0.00266127
-0.00103408
-0.00263731
-0.00111294
-0.00261547
-0.00119139
-0.00259607
-0.00126942
-0.00258044
-0.00256984
-0.0013467
5.03097e-07
-0.000758039
-1.49891e-05
-0.00176698
-5.25335e-05
-0.0023788
-0.000110204
-0.00270333
-0.00018262
-0.00284321
-0.000264178
-0.00287831
-0.000350571
-0.00286157
-0.000439067
-0.00282353
-0.000528194
-0.00277958
-0.000617283
-0.00273648
-0.000706088
-0.00269669
-0.000794536
-0.00266081
-0.000882577
-0.00262871
-0.000970109
-0.00260006
-0.00105698
-0.0025744
-0.00114306
-0.00255122
-0.00122849
-0.00253005
-0.00131366
-0.00251089
-0.00139882
-0.00249528
-0.00248397
-0.00148469
-3.5901e-06
-0.000754449
-2.73309e-05
-0.00174324
-7.43778e-05
-0.00233175
-0.000141174
-0.00263653
-0.000221711
-0.00276267
-0.000310361
-0.00278966
-0.000403047
-0.00276889
-0.000497314
-0.00272926
-0.000591925
-0.00268497
-0.000686386
-0.00264202
-0.000780595
-0.00260248
-0.000874612
-0.00256679
-0.000968532
-0.00253479
-0.00106239
-0.0025062
-0.00115613
-0.00248066
-0.00124963
-0.00245773
-0.00134288
-0.0024368
-0.00143627
-0.0024175
-0.0015304
-0.00240115
-0.00238626
-0.00162811
-7.63652e-06
-0.000746812
-3.93498e-05
-0.00171153
-9.54413e-05
-0.00227566
-0.00017083
-0.00256114
-0.000258971
-0.00267453
-0.000354248
-0.00269438
-0.000452817
-0.00267032
-0.000552477
-0.0026296
-0.000652197
-0.00258525
-0.000751631
-0.00254259
-0.0008508
-0.00250331
-0.000949902
-0.00246768
-0.00104922
-0.00243547
-0.00114908
-0.00240634
-0.00124976
-0.00237998