/*--------------------------------*- C++ -*----------------------------------*\
  =========                 |
  \\      /  F ield         | OpenFOAM: The Open Source CFD Toolbox
   \\    /   O peration     | Website:  https://openfoam.org
    \\  /    A nd           | Version:  6.0
     \\/     M anipulation  |
\*---------------------------------------------------------------------------*/
FoamFile
{
    version     2.0;
    format      ascii;
    class       volVectorField;
    location    "69";
    object      U;
}
// * * * * * * * * * * * * * * * * * * * * * * * * * * * * * * * * * * * * * //

dimensions      [0 1 -1 0 0 0 0];

internalField   nonuniform List<vector> 
8000
(
(-0.000346305 -0.0145006 -4.79443e-21)
(-0.00260099 -0.0405557 2.56247e-20)
(-0.00721038 -0.0636857 -3.115e-20)
(-0.0129315 -0.0837788 2.3711e-20)
(-0.0190789 -0.100961 1.15299e-20)
(-0.0252219 -0.115556 -3.46361e-20)
(-0.031019 -0.12797 -3.05367e-21)
(-0.0362151 -0.138613 -1.07203e-21)
(-0.0406354 -0.147847 -1.79441e-20)
(-0.0441743 -0.155961 -9.71003e-21)
(-0.0467857 -0.163174 7.24777e-21)
(-0.0484754 -0.16964 2.74827e-20)
(-0.0492926 -0.175472 -2.06489e-21)
(-0.0493201 -0.180761 2.94058e-21)
(-0.0486677 -0.185591 -2.76539e-20)
(-0.0474744 -0.190059 1.7033e-20)
(-0.045894 -0.19428 -2.43922e-20)
(-0.0439657 -0.19839 3.6902e-20)
(-0.0415677 -0.202554 -4.08417e-23)
(-0.0396686 -0.207015 7.92611e-21)
(-4.5909e-05 -0.0128607 1.59256e-20)
(-0.00209342 -0.0365868 -8.14104e-20)
(-0.00704432 -0.0581849 -5.62378e-20)
(-0.0133714 -0.077362 -3.81567e-20)
(-0.0202571 -0.0941251 -4.90874e-20)
(-0.0272016 -0.108712 1.07567e-20)
(-0.0338117 -0.121457 -5.66195e-20)
(-0.039796 -0.132705 -1.26923e-20)
(-0.0449558 -0.142756 4.02972e-21)
(-0.0491703 -0.151841 4.21927e-20)
(-0.0523854 -0.160117 -4.60354e-20)
(-0.0546048 -0.16768 6.40112e-20)
(-0.0558807 -0.17459 -4.7905e-20)
(-0.0563035 -0.180884 -5.67386e-20)
(-0.0559945 -0.186605 -7.80576e-20)
(-0.0551062 -0.191814 4.98964e-20)
(-0.0538047 -0.196596 -1.60665e-20)
(-0.0521492 -0.201062 -5.85387e-20)
(-0.0500612 -0.205354 5.53645e-20)
(-0.0484572 -0.209724 -4.09211e-20)
(9.08531e-05 -0.0108485 1.55665e-19)
(-0.00196369 -0.0317959 8.07353e-20)
(-0.00737152 -0.0516168 9.08034e-20)
(-0.0143489 -0.0697564 7.56993e-21)
(-0.0219661 -0.086058 5.01943e-20)
(-0.0296688 -0.100645 6.24136e-20)
(-0.0370234 -0.113763 -1.13898e-19)
(-0.0437108 -0.12568 -6.01356e-20)
(-0.0495134 -0.13663 -7.84503e-20)
(-0.0542984 -0.146777 8.34501e-20)
(-0.0580048 -0.156216 -6.37579e-20)
(-0.0606338 -0.164983 -8.20997e-20)
(-0.0622395 -0.173075 -2.99727e-20)
(-0.0629186 -0.180475 2.83556e-20)
(-0.0628031 -0.187174 -7.75319e-21)
(-0.0620596 -0.193191 1.13797e-20)
(-0.0608692 -0.19858 1.30679e-19)
(-0.0593145 -0.203425 -1.84783e-20)
(-0.0573626 -0.207847 -1.32506e-19)
(-0.0558829 -0.212112 1.74449e-19)
(3.19808e-05 -0.00849191 5.42464e-20)
(-0.00226143 -0.0262515 -7.65118e-20)
(-0.00822064 -0.044071 -1.92569e-20)
(-0.0158558 -0.0610598 3.61402e-20)
(-0.0241554 -0.0768548 1.02319e-19)
(-0.03253 -0.0914399 2.23837e-19)
(-0.0405204 -0.104955 2.18743e-19)
(-0.0477893 -0.117586 1.82982e-20)
(-0.0541069 -0.129494 1.34052e-19)
(-0.0593315 -0.140779 2.0508e-19)
(-0.063396 -0.151471 -1.63331e-19)
(-0.0662983 -0.161542 2.42048e-19)
(-0.0680922 -0.170926 -5.47127e-20)
(-0.0688787 -0.179545 1.38617e-20)
(-0.0687988 -0.18733 5.6766e-20)
(-0.0680325 -0.19425 7.52215e-20)
(-0.0667775 -0.200317 -1.18735e-19)
(-0.0651434 -0.205585 -9.86567e-20)
(-0.0631444 -0.210155 -1.73981e-19)
(-0.0616131 -0.214312 2.53509e-19)
(-0.000246952 -0.00583906 -2.82736e-20)
(-0.00301801 -0.0200601 -2.90712e-19)
(-0.00959432 -0.0356812 -8.61808e-20)
(-0.0178521 -0.0514113 -2.10047e-19)
(-0.0267377 -0.0666452 7.95802e-20)
(-0.0356505 -0.081206 -1.25274e-19)
(-0.0441228 -0.0951171 4.34837e-20)
(-0.0518102 -0.108475 -2.6537e-19)
(-0.0584776 -0.12137 1.40274e-19)
(-0.0639783 -0.133838 -1.6679e-19)
(-0.0682398 -0.145849 -1.48058e-19)
(-0.0712556 -0.157311 -1.65874e-19)
(-0.0730768 -0.168094 1.50083e-19)
(-0.0738055 -0.178051 -1.3472e-19)
(-0.0735889 -0.187048 1.87126e-19)
(-0.072619 -0.194989 5.37074e-20)
(-0.0711105 -0.201835 1.3261e-19)
(-0.0692023 -0.207599 5.77183e-20)
(-0.0669577 -0.212359 -2.29156e-19)
(-0.0651893 -0.216414 3.73397e-19)
(-0.000759475 -0.00295919 1.25259e-19)
(-0.00424109 -0.0133682 9.308e-21)
(-0.0114647 -0.0266247 5.18479e-20)
(-0.0202636 -0.0409913 1.80858e-19)
(-0.0295887 -0.0555945 -2.72991e-20)
(-0.0388557 -0.0700813 2.94286e-19)
(-0.0476063 -0.0843503 1.31135e-19)
(-0.0555015 -0.0984086 1.12055e-20)
(-0.0623086 -0.112277 3.36331e-19)
(-0.0678798 -0.125933 1.10198e-19)
(-0.0721392 -0.139291 5.24403e-20)
(-0.0750748 -0.152202 1.65421e-19)
(-0.0767325 -0.164472 1.51272e-19)
(-0.0772116 -0.175883 2.75174e-19)
(-0.076662 -0.186227 -2.45862e-19)
(-0.0752849 -0.195331 3.44984e-19)
(-0.0733115 -0.203087 3.36207e-21)
(-0.0709108 -0.209451 -4.37719e-19)
(-0.0681974 -0.214465 5.64867e-19)
(-0.0659878 -0.218441 2.33443e-19)
(-0.00150531 5.98224e-05 -7.36106e-20)
(-0.00591092 -0.00635745 -1.34829e-19)
(-0.0137719 -0.0171186 -2.81095e-19)
(-0.0229828 -0.0300195 -8.50164e-21)
(-0.0325508 -0.0439045 4.85954e-20)
(-0.0419356 -0.0582356 -3.59671e-19)
(-0.0507075 -0.0727833 -2.67072e-19)
(-0.058546 -0.0874658 -3.81713e-20)
(-0.065229 -0.10224 -3.37752e-19)
(-0.0706126 -0.117034 -2.33905e-19)
(-0.0746197 -0.131717 -6.81338e-20)
(-0.0772331 -0.146089 -2.19092e-19)
(-0.0784916 -0.159899 -3.95577e-21)
(-0.0784884 -0.172859 -2.8982e-19)
(-0.0773714 -0.184679 1.20552e-19)
(-0.0753472 -0.1951 -1.37902e-19)
(-0.072662 -0.203923 1.04151e-19)
(-0.0695133 -0.211025 -1.34553e-19)
(-0.0660694 -0.216389 -3.78327e-19)
(-0.0631843 -0.220328 -1.15248e-19)
(-0.00246842 0.00311464 -2.78051e-20)
(-0.00797837 0.000761052 -3.0306e-20)
(-0.0164247 -0.00741548 2.36235e-19)
(-0.0258731 -0.0187526 -3.8579e-19)
(-0.0354388 -0.0318142 5.6348e-20)
(-0.0446535 -0.0458754 -2.24208e-19)
(-0.0531349 -0.0605789 1.05165e-19)
(-0.0605936 -0.0757575 4.75504e-19)
(-0.0668263 -0.0913115 -3.05828e-20)
(-0.0716996 -0.107129 -3.55003e-19)
(-0.0751387 -0.123045 6.33655e-20)
(-0.0771231 -0.138825 1.28629e-20)
(-0.077684 -0.154168 -7.23517e-20)
(-0.0769058 -0.168727 7.92385e-21)
(-0.0749305 -0.182127 6.31678e-19)
(-0.0719659 -0.194012 -9.00849e-20)
(-0.0682697 -0.204074 -1.73914e-19)
(-0.0640648 -0.212081 -3.08317e-19)
(-0.0595735 -0.217923 3.14662e-19)
(-0.0557333 -0.221894 1.35383e-19)
(-0.00361642 0.00609238 1.38261e-19)
(-0.0103657 0.00775639 -1.81879e-19)
(-0.0193044 0.0022062 2.57412e-19)
(-0.0287753 -0.0074791 2.60493e-19)
(-0.0380511 -0.019599 2.40069e-19)
(-0.0467604 -0.0332482 4.87419e-19)
(-0.0545856 -0.0479449 3.15873e-19)
(-0.06128 -0.0634411 -6.80215e-19)
(-0.0666685 -0.0795874 3.48423e-19)
(-0.0706342 -0.0962425 2.73814e-19)
(-0.0731103 -0.113221 -4.99341e-21)
(-0.0740767 -0.130269 3.06074e-19)
(-0.0735593 -0.147057 2.37072e-19)
(-0.0716332 -0.163187 -1.28921e-19)
(-0.0684317 -0.178212 4.31864e-19)
(-0.0641599 -0.191675 -5.34388e-19)
(-0.0590831 -0.203143 2.12202e-19)
(-0.0534437 -0.212238 2.69962e-19)
(-0.0475164 -0.218713 -6.16622e-20)
(-0.0423806 -0.222812 5.38256e-19)
(-0.00490171 0.00887812 2.80052e-19)
(-0.0129701 0.0143904 1.53194e-20)
(-0.0222714 0.0114529 -1.00537e-19)
(-0.0315184 0.00348909 -1.06088e-19)
(-0.0401829 -0.00756788 -4.96031e-19)
(-0.0480115 -0.0206449 7.09954e-20)
(-0.0547661 -0.0351427 1.99765e-19)
(-0.0602534 -0.0507369 -9.73742e-20)
(-0.0643344 -0.0672342 8.03772e-20)
(-0.066916 -0.0844726 -2.03341e-20)
(-0.0679459 -0.10226 -1.03947e-19)
(-0.0674104 -0.120341 1.00395e-19)
(-0.0653351 -0.138377 -4.26722e-19)
(-0.0617889 -0.155943 4.10854e-19)
(-0.0568965 -0.172541 -3.51956e-19)
(-0.0508582 -0.187619 1.08761e-19)
(-0.0439437 -0.200614 2.44108e-19)
(-0.036408 -0.210973 -5.13555e-20)
(-0.0285709 -0.218253 -1.66154e-19)
(-0.0217255 -0.222603 -1.12848e-19)
(-0.0062646 0.0113636 -3.51425e-19)
(-0.01567 0.0204325 -2.37723e-20)
(-0.0251739 0.0200309 7.43692e-20)
(-0.0339299 0.0138276 1.92155e-19)
(-0.0416399 0.00394412 -2.70624e-19)
(-0.0481843 -0.00839833 -2.37094e-19)
(-0.0534159 -0.0224919 5.54854e-19)
(-0.0572037 -0.0379403 -3.0691e-19)
(-0.0594514 -0.0545097 -1.98619e-19)
(-0.0600967 -0.072023 -2.85797e-19)
(-0.059109 -0.0902916 1.89135e-19)
(-0.0564891 -0.109073 -4.54812e-21)
(-0.05227 -0.128042 -3.52757e-19)
(-0.0465214 -0.146778 -5.72851e-19)
(-0.039364 -0.164755 4.36358e-19)
(-0.0309949 -0.181361 -3.49218e-19)
(-0.0216877 -0.195911 4.92552e-19)
(-0.0117033 -0.207659 -1.38663e-19)
(-0.00139342 -0.215905 2.76866e-19)
(0.00765569 -0.220643 -9.62083e-19)
(-0.00763811 0.0134562 -7.1814e-19)
(-0.0183339 0.0256755 4.71454e-19)
(-0.0278585 0.0276625 6.36312e-20)
(-0.0358474 0.0232147 1.26433e-20)
(-0.0422517 0.0145876 -2.92783e-19)
(-0.0470946 0.00312552 4.31104e-19)
(-0.0503279 -0.0103667 4.64691e-20)
(-0.0518891 -0.025425 -8.8265e-20)
(-0.0517306 -0.0417753 -2.87887e-19)
(-0.0498265 -0.0592266 3.10153e-19)
(-0.0461752 -0.0775975 7.87808e-19)
(-0.0408005 -0.0966686 -1.73211e-19)
(-0.033753 -0.116148 3.93854e-19)
(-0.0251141 -0.135644 -4.6139e-19)
(-0.0150097 -0.154646 -4.39823e-19)
(-0.00364064 -0.172519 2.63176e-19)
(0.00871014 -0.188495 4.24884e-19)
(0.0217796 -0.201643 -1.37502e-18)
(0.0352056 -0.210956 1.64976e-19)
(0.0470316 -0.216205 2.18001e-19)
(-0.00895404 0.0150871 5.33189e-19)
(-0.0208301 0.0299507 1.78658e-19)
(-0.0301789 0.0341039 9.1984e-19)
(-0.0371271 0.0313494 4.816e-20)
(-0.041879 0.0240168 -1.02688e-19)
(-0.0446044 0.0135442 -4.91662e-19)
(-0.0453586 0.000819406 4.17328e-19)
(-0.0441519 -0.0136296 7.55715e-19)
(-0.0409893 -0.0294878 5.03476e-19)
(-0.0358864 -0.0465464 3.6752e-19)
(-0.0288766 -0.0646289 3.18329e-19)
(-0.0200154 -0.0835408 -5.6415e-19)
(-0.00938226 -0.103032 -1.74118e-19)
(0.00291645 -0.122761 -1.30799e-19)
(0.0167354 -0.142269 1.38143e-18)
(0.0318577 -0.160949 -7.47784e-21)
(0.0479792 -0.178011 -3.37205e-19)
(0.0648297 -0.192385 -9.7047e-20)
(0.0820677 -0.202738 9.53006e-19)
(0.0973116 -0.208554 1.29756e-19)
(-0.0101496 0.0162176 -2.44641e-20)
(-0.0230361 0.0331413 -5.07104e-19)
(-0.032004 0.0391625 -7.57032e-19)
(-0.0376468 0.0379716 -2.12142e-19)
(-0.0404139 0.0319123 1.17826e-19)
(-0.0406195 0.0224847 2.45808e-20)
(-0.0384238 0.0106431 6.74902e-19)
(-0.0339125 -0.00302637 -8.36557e-19)
(-0.0271467 -0.018166 -3.19121e-19)
(-0.0181873 -0.0345429 -6.45752e-19)
(-0.00710821 -0.0519774 -5.50232e-19)
(0.00599546 -0.0702928 -4.89786e-19)
(0.0210042 -0.0892774 1.22796e-19)
(0.0377717 -0.10865 -1.59554e-19)
(0.0561161 -0.128024 6.74453e-19)
(0.0757867 -0.146867 -3.69792e-19)
(0.09644 -0.164441 -1.13731e-18)
(0.117782 -0.179621 -2.17731e-19)
(0.139528 -0.190777 5.49361e-19)
(0.158873 -0.197068 -4.67683e-19)
(-0.0111732 0.0168412 -8.48768e-20)
(-0.0248473 0.03519 6.26753e-19)
(-0.0332213 0.0427108 -7.99697e-19)
(-0.0373041 0.0428821 1.83888e-19)
(-0.0377705 0.0380073 -3.83287e-19)
(-0.0350725 0.0296159 8.57119e-19)
(-0.0294741 0.0187105 -6.14343e-19)
(-0.0211383 0.00592775 7.04682e-19)
(-0.0101851 -0.00833166 -6.71693e-19)
(0.00327543 -0.0238047 2.86824e-19)
(0.019123 -0.0402977 -1.39098e-19)
(0.0372151 -0.0576383 -3.52021e-19)
(0.0573808 -0.0756407 -4.34605e-19)
(0.0794183 -0.094074 4.30634e-19)
(0.103089 -0.112628 -3.59202e-19)
(0.128088 -0.130873 -7.75476e-19)
(0.154008 -0.148184 8.01793e-19)
(0.180502 -0.163486 -1.00934e-18)
(0.207375 -0.174936 4.43663e-19)
(0.23149 -0.181365 8.23476e-23)
(-0.011989 0.0169833 -7.87142e-19)
(-0.0261813 0.0361019 -8.4954e-19)
(-0.0337359 0.0446954 9.73498e-20)
(-0.0360065 0.0459597 -8.23462e-19)
(-0.0338655 0.0421125 -7.55033e-20)
(-0.0278924 0.0346832 -6.08534e-19)
(-0.0184523 0.0247034 -1.40547e-19)
(-0.0057865 0.01285 -4.1287e-19)
(0.00992265 -0.00043521 1.40446e-21)
(0.0285107 -0.0148548 -1.82411e-19)
(0.0498043 -0.0301912 1.24566e-20)
(0.0736037 -0.0462618 -5.24524e-19)
(0.0996739 -0.0628881 5.75799e-19)
(0.12774 -0.0798697 -8.18139e-19)
(0.157484 -0.096957 2.8663e-19)
(0.188522 -0.11382 8.29734e-21)
(0.220357 -0.129979 -4.50326e-19)
(0.252542 -0.144512 1.09672e-18)
(0.284985 -0.155475 -2.63871e-19)
(0.31444 -0.161382 -1.61007e-19)
(-0.0125784 0.016696 8.86463e-19)
(-0.0269783 0.0359397 4.77906e-19)
(-0.033465 0.0451398 4.45269e-19)
(-0.0336569 0.0471718 6.61862e-20)
(-0.0285922 0.0441372 6.03694e-19)
(-0.0189658 0.0375399 8.74148e-19)
(-0.00523939 0.0284219 7.20416e-19)
(0.0122664 0.0174892 6.42699e-20)
(0.0333027 0.00521971 5.31237e-19)
(0.0576431 -0.00805357 8.2365e-19)
(0.0850506 -0.0220823 -2.14969e-19)
(0.115255 -0.0366617 3.59639e-19)
(0.147939 -0.051603 2.90934e-19)
(0.182733 -0.0667135 2.96281e-19)
(0.219213 -0.0817783 1.73128e-18)
(0.256886 -0.0965416 -6.47815e-19)
(0.295141 -0.110665 -3.83334e-20)
(0.333377 -0.123444 7.25148e-19)
(0.371568 -0.132955 -4.05559e-19)
(0.406725 -0.137326 1.95212e-19)
(-0.0129391 0.0160501 -7.19352e-19)
(-0.0271969 0.034814 4.68326e-20)
(-0.0323267 0.0441388 -5.76769e-19)
(-0.0301346 0.0465786 -7.56455e-20)
(-0.0217921 0.0441025 4.24331e-19)
(-0.00809638 0.0381703 -1.26531e-18)
(0.0103988 0.0298187 -2.00714e-21)
(0.0332924 0.019771 5.9222e-19)
(0.0602621 0.00853463 5.60144e-19)
(0.0910082 -0.00352383 -2.4582e-19)
(0.125213 -0.016123 8.17677e-20)
(0.162516 -0.0290287 1.89305e-19)
(0.202491 -0.0420293 -9.02462e-20)
(0.244643 -0.0549208 -1.00026e-18)
(0.288407 -0.0674951 2.5384e-19)
(0.333143 -0.0795351 6.83337e-19)
(0.378086 -0.0908101 -9.68211e-19)
(0.42244 -0.100849 4.69553e-19)
(0.466178 -0.10782 1.22979e-19)
(0.507009 -0.109219 5.94461e-19)
(-0.01308 0.015125 -1.06875e-19)
(-0.0268051 0.032867 -5.04128e-19)
(-0.0302273 0.0418475 2.3203e-19)
(-0.0252761 0.0443273 1.43644e-21)
(-0.0132288 0.042143 -1.01624e-18)
(0.00502742 0.0366998 1.57942e-19)
(0.0288504 0.0290164 -3.0846e-20)
(0.0577546 0.0198228 2.07705e-19)
(0.0913326 0.0096473 -9.52634e-19)
(0.129192 -0.00111533 -6.78333e-20)
(0.170912 -0.0121537 -2.25132e-19)
(0.216006 -0.0232041 1.997e-19)
(0.263911 -0.0340278 6.73195e-19)
(0.313969 -0.044397 -1.04664e-19)
(0.365436 -0.0540863 4.06105e-20)
(0.417473 -0.0628746 2.57844e-19)
(0.469106 -0.0705724 -6.54836e-20)
(0.519266 -0.0768594 5.03542e-19)
(0.567764 -0.0799063 -3.03246e-19)
(0.613178 -0.0763039 -4.51188e-19)
(-0.0130152 0.013999 9.87821e-20)
(-0.025768 0.0302563 2.38779e-20)
(-0.0270457 0.0384634 2.02365e-19)
(-0.0188595 0.0406395 4.96457e-19)
(-0.00257141 0.0385003 2.79559e-19)
(0.0208484 0.0333928 2.97436e-20)
(0.0506685 0.0263093 -3.36168e-19)
(0.0863075 0.0179763 8.56644e-20)
(0.127251 0.00893283 4.56003e-19)
(0.172982 -0.000409411 -7.73479e-19)
(0.222936 -0.00972051 5.83946e-19)
(0.276464 -0.0187197 -4.40243e-19)
(0.332822 -0.0271529 3.71488e-19)
(0.39117 -0.0347763 -7.98736e-19)
(0.45058 -0.041343 8.7205e-19)
(0.510044 -0.0465995 -9.28362e-19)
(0.568421 -0.0503074 -2.36675e-19)
(0.624419 -0.0520639 7.25697e-19)
(0.677319 -0.0497935 -2.5108e-19)
(0.724542 -0.0399746 9.54332e-20)
(-0.0127549 0.0127402 -7.47875e-20)
(-0.0240339 0.0271372 7.05119e-19)
(-0.0226214 0.0342085 -2.58771e-21)
(-0.0105945 0.0357927 -4.38292e-19)
(0.0106083 0.0335049 -2.96056e-19)
(0.0399327 0.028636 5.42384e-19)
(0.0765464 0.0221466 -2.15051e-19)
(0.119746 0.0147492 -2.70518e-20)
(0.168871 0.00697943 4.52377e-19)
(0.223226 -0.00075218 -5.61435e-19)
(0.282041 -0.00812046 6.13383e-20)
(0.344441 -0.0148572 -7.29405e-19)
(0.409453 -0.0207304 3.81866e-19)
(0.476021 -0.0255263 -1.08669e-18)
(0.543057 -0.0290322 1.71478e-18)
(0.609482 -0.0310171 -3.17558e-19)
(0.67429 -0.0311909 3.10944e-19)
(0.736729 -0.0288979 -8.11191e-19)
(0.796779 -0.0220983 1.59766e-20)
(0.847135 -0.0125414 8.2562e-19)
(-0.0122975 0.0113999 -2.26292e-19)
(-0.0215223 0.0236494 1.94967e-19)
(-0.0167454 0.0293102 -7.19872e-19)
(-0.00012299 0.030099 1.06583e-18)
(0.0268222 0.0275528 -7.70709e-19)
(0.0629366 0.0229123 4.01522e-20)
(0.107257 0.0171013 -8.3597e-19)
(0.15891 0.0108064 5.98706e-19)
(0.217022 0.00454044 -8.49545e-20)
(0.280641 -0.00131261 -5.29108e-19)
(0.348704 -0.00646546 -3.08295e-19)
(0.420028 -0.0107035 3.28479e-19)
(0.493335 -0.0138673 2.14047e-19)
(0.567303 -0.0158388 -9.36521e-19)
(0.640632 -0.0165298 3.4083e-19)
(0.712126 -0.0158749 -4.89062e-19)
(0.780767 -0.0138224 5.95846e-20)
(0.845855 -0.0102455 -3.92694e-19)
(0.907433 -0.00455166 1.37341e-19)
(0.960655 0.00100988 -5.55923e-19)
(-0.0116222 0.0100104 6.43864e-19)
(-0.0181143 0.019909 -3.9022e-19)
(-0.00915849 0.0239871 3.21513e-19)
(0.012969 0.0238845 -4.06405e-19)
(0.0466346 0.021079 6.80923e-19)
(0.0905482 0.0167661 -1.13616e-20)
(0.14356 0.011826 -8.33696e-20)
(0.204551 0.00690221 -6.17683e-20)
(0.272339 0.00245955 3.81863e-19)
(0.345612 -0.00117834 6.50044e-19)
(0.422916 -0.00380125 -3.82076e-19)
(0.502678 -0.00529039 3.71813e-19)
(0.583263 -0.00560023 6.71837e-19)
(0.663059 -0.00474281 -4.70262e-19)
(0.740566 -0.00277452 -9.29899e-19)
(0.814478 0.000212567 1.68324e-18)
(0.883757 0.0040927 -3.01321e-19)
(0.947685 0.00871947 -9.246e-20)
(1.00609 0.0141623 9.44044e-19)
(1.0564 0.0197718 -2.1966e-19)
(-0.0106858 0.00858642 -1.04606e-18)
(-0.0136501 0.0160066 -6.95464e-19)
(0.00044196 0.0184408 -2.66984e-19)
(0.0291295 0.0174726 5.1582e-19)
(0.070617 0.0145311 -1.16654e-18)
(0.123414 0.0107666 6.06148e-19)
(0.186096 0.00700205 7.71107e-20)
(0.25719 0.00381283 7.91262e-20)
(0.335086 0.00158049 -7.96507e-19)
(0.418001 0.000526168 -2.80095e-19)
(0.504001 0.000738245 -4.9244e-19)
(0.591074 0.0021981 4.75265e-19)
(0.677233 0.00480514 1.30404e-19)
(0.760628 0.00840064 2.36855e-20)
(0.83965 0.0127888 5.87992e-19)
(0.913015 0.0177529 -6.03455e-19)
(0.979801 0.0230633 -2.27385e-20)
(1.03947 0.0284871 2.30333e-20)
(1.09191 0.0339216 8.67725e-20)
(1.13627 0.0397368 4.04622e-19)
(-0.00942122 0.00712927 3.32686e-19)
(-0.00793198 0.012012 8.55373e-19)
(0.0123887 0.0128544 6.8589e-19)
(0.0488093 0.0111747 -2.36937e-19)
(0.0992947 0.00835036 8.26633e-19)
(0.162055 0.0054758 -7.00271e-20)
(0.235273 0.00329289 -9.81716e-20)
(0.316983 0.00227165 5.93278e-20)
(0.405021 0.00266386 8.02931e-19)
(0.497029 0.00453812 4.72163e-19)
(0.590548 0.00781462 1.38715e-19)
(0.683144 0.0123023 1.05399e-20)
(0.772557 0.0177374 -8.89617e-19)
(0.856841 0.0238194 7.74369e-19)
(0.934455 0.0302422 1.2652e-19)
(1.00432 0.0367171 -2.14968e-19)
(1.06584 0.0429858 -8.81694e-19)
(1.11881 0.0488311 -6.4718e-20)
(1.16347 0.0541157 3.30598e-19)
(1.20021 0.0597885 -6.14963e-20)
(-0.00774133 0.00563387 -8.39982e-19)
(-0.000733119 0.00798421 3.51193e-19)
(0.0270248 0.00739818 -1.71705e-18)
(0.0724278 0.00528867 7.0499e-19)
(0.133093 0.00295971 -5.62756e-19)
(0.2068 0.00142536 4.14684e-19)
(0.291183 0.00130689 -6.46331e-19)
(0.383639 0.00291756 5.99492e-20)
(0.481328 0.00632242 -3.35384e-20)
(0.581264 0.0113841 1.73859e-19)
(0.680483 0.0178143 2.47592e-19)
(0.776233 0.0252301 -4.6703e-19)
(0.866158 0.0332093 2.49453e-19)
(0.948424 0.0413393 2.23948e-19)
(1.02179 0.0492528 9.3351e-19)
(1.08558 0.0566508 -4.12347e-19)
(1.13969 0.0633121 -2.55923e-19)
(1.18443 0.0690947 4.24403e-19)
(1.22045 0.0739292 2.06589e-19)
(1.24886 0.0789285 -4.20721e-19)
(-0.00554388 0.00409653 7.32991e-19)
(0.00818879 0.00398436 7.05707e-19)
(0.0446812 0.00224164 2.04928e-19)
(0.100338 0.000104622 8.61507e-19)
(0.172291 -0.00123812 4.24216e-19)
(0.257722 -0.000896719 -7.6639e-19)
(0.353548 0.0015721 1.16066e-18)
(0.456384 0.00625931 -5.70837e-19)
(0.56264 0.0129804 5.69025e-19)
(0.668719 0.0213439 7.32125e-19)
(0.77127 0.0308296 -4.18234e-19)
(0.867426 0.0408684 8.00344e-20)
(0.954977 0.0509139 4.33468e-19)
(1.03246 0.0604949 3.00296e-19)
(1.09914 0.0692481 6.73885e-19)
(1.15495 0.0769287 -2.78328e-19)
(1.20036 0.083407 -4.08732e-20)
(1.2362 0.0886507 3.93769e-19)
(1.26358 0.0927008 -8.85e-20)
(1.28401 0.0966308 -1.65119e-21)
(-0.00271875 0.00252219 -3.77844e-19)
(0.019076 8.91619e-05 -1.38695e-18)
(0.0656531 -0.00243326 3.27135e-19)
(0.132796 -0.00408487 -2.49343e-19)
(0.216982 -0.00385798 -5.76802e-19)
(0.314608 -0.0010526 -4.13653e-19)
(0.421701 0.00452062 -2.54721e-19)
(0.533989 0.0126549 6.18108e-19)
(0.647132 0.0228563 -3.66536e-19)
(0.757043 0.0344488 -3.77167e-19)
(0.860203 0.046685 -4.68551e-19)
(0.953905 0.0588487 -7.69451e-20)
(1.03637 0.070331 -5.65757e-20)
(1.10675 0.0806759 -1.04714e-18)
(1.16499 0.0895944 4.92836e-19)
(1.21172 0.0969541 -6.49906e-19)
(1.24798 0.102754 1.90259e-19)
(1.2751 0.107089 -1.45908e-18)
(1.29452 0.11012 4.42493e-19)
(1.3079 0.112777 5.3154e-19)
(0.000844894 0.000930002 -9.51906e-20)
(0.0321546 -0.00359756 6.73018e-19)
(0.0901777 -0.00641929 4.34515e-20)
(0.169933 -0.00697541 1.04082e-19)
(0.26705 -0.00452926 -2.11503e-19)
(0.376944 0.00134055 -4.35163e-21)
(0.494609 0.0104781 -5.24091e-21)
(0.614852 0.0223021 -1.27233e-19)
(0.732689 0.0359661 4.53816e-19)
(0.843769 0.050509 1.73368e-19)
(0.944711 0.0649985 7.82267e-19)
(1.03329 0.0786419 -2.11278e-19)
(1.10841 0.0908522 1.4491e-19)
(1.17004 0.101268 -1.58525e-20)
(1.21889 0.109738 3.9485e-19)
(1.25623 0.116282 2.34126e-19)
(1.28365 0.121044 5.45933e-19)
(1.30282 0.124241 -8.72511e-19)
(1.31537 0.126133 1.07549e-18)
(1.32299 0.127495 -3.39161e-19)
(0.00525196 -0.000643154 -8.72475e-19)
(0.047619 -0.0069374 -2.73938e-19)
(0.118413 -0.00947607 2.12931e-19)
(0.211733 -0.00824626 1.3448e-19)
(0.322155 -0.00289767 1.39824e-19)
(0.443929 0.00660263 1.39621e-19)
(0.570933 0.0196548 -3.52704e-19)
(0.697124 0.0352391 -1.4305e-19)
(0.817096 0.0521439 4.57535e-20)
(0.926561 0.069164 -4.25221e-19)
(1.02263 0.0852607 -1.89277e-19)
(1.10385 0.0996615 1.13828e-18)
(1.17003 0.111892 -2.94996e-19)
(1.22201 0.121757 -3.94428e-19)
(1.26126 0.129286 -1.79162e-19)
(1.28962 0.134666 1.28236e-19)
(1.30903 0.138181 1.46355e-19)
(1.32137 0.140147 -6.99035e-19)
(1.32832 0.140894 9.91421e-19)
(1.33147 0.141061 -8.54617e-19)
(0.0105958 -0.00214152 -9.68823e-20)
(0.0656176 -0.00975497 2.74593e-20)
(0.150421 -0.0113289 -3.65754e-20)
(0.258018 -0.00756379 5.26605e-19)
(0.381729 0.00136528 3.01707e-20)
(0.514501 0.0149783 1.93095e-19)
(0.64911 0.0321387 -4.03341e-19)
(0.778854 0.0513537 -1.4123e-20)
(0.898242 0.0710776 5.55237e-19)
(1.00344 0.0899446 7.57801e-20)
(1.09237 0.106919 -4.76122e-19)
(1.16462 0.121352 -4.21095e-20)
(1.22098 0.132967 -3.78427e-19)
(1.26314 0.141781 3.80306e-19)
(1.29322 0.148022 5.12541e-19)
(1.31345 0.15204 -5.58241e-20)
(1.32599 0.154229 -6.50755e-20)
(1.33274 0.154977 1.97901e-19)
(1.33533 0.154647 -6.20149e-19)
(1.3352 0.153782 5.51308e-19)
(0.0169535 -0.00349116 9.94012e-20)
(0.0862403 -0.0118404 -6.35047e-19)
(0.186147 -0.0116751 1.69587e-19)
(0.308435 -0.00459347 -5.29566e-19)
(0.44499 0.00854585 1.82691e-19)
(0.587394 0.0266222 -6.75421e-19)
(0.727458 0.0478937 2.72178e-19)
(0.858146 0.0704042 -8.72277e-20)
(0.974293 0.0923553 -3.8302e-21)
(1.0729 0.11234 8.66644e-20)
(1.15302 0.129447 -3.1332e-19)
(1.21535 0.143253 -4.42025e-19)
(1.26168 0.153731 -8.8047e-20)
(1.29443 0.161137 -3.95035e-20)
(1.31619 0.16589 -9.92693e-20)
(1.32942 0.16847 -3.1558e-20)
(1.33631 0.169353 -9.43482e-20)
(1.33869 0.16896 -8.08552e-20)
(1.33802 0.167665 -2.32989e-19)
(1.33557 0.16594 3.64349e-19)
(0.0243814 -0.00460207 2.3493e-19)
(0.109508 -0.0129561 -2.61117e-19)
(0.225413 -0.0101966 5.62537e-19)
(0.362457 0.000981721 -2.43881e-19)
(0.510965 0.0188681 6.51368e-19)
(0.661206 0.0415878 1.09056e-20)
(0.804299 0.0667666 3.25677e-19)
(0.933299 0.092051 -8.84913e-20)
(1.04381 0.115516 3.59919e-19)
(1.13402 0.135855 2.40586e-20)
(1.20426 0.152399 8.40217e-19)
(1.25637 0.165022 -5.76224e-19)
(1.29302 0.17398 7.89924e-20)
(1.31718 0.179761 1.47671e-19)
(1.33172 0.182941 7.44171e-19)
(1.33915 0.1841 -2.66259e-19)
(1.34157 0.183755 -5.17349e-20)
(1.34064 0.182328 -2.65413e-19)
(1.33763 0.180191 -2.52132e-20)
(1.3336 0.177761 1.30863e-19)
(0.0329116 -0.00537128 -1.1079e-19)
(0.135361 -0.0128468 3.22684e-19)
(0.267912 -0.00657692 -3.33508e-19)
(0.419395 0.00943971 1.30061e-19)
(0.578538 0.0324755 -1.58304e-19)
(0.734485 0.0598218 5.76457e-19)
(0.878066 0.0885041 -8.15606e-20)
(1.00291 0.115893 1.94152e-19)
(1.10582 0.140096 -1.15833e-19)
(1.18639 0.160051 -3.82953e-21)
(1.24629 0.175428 1.27425e-19)
(1.28842 0.186441 -9.81739e-20)
(1.31614 0.193629 2.52715e-19)
(1.33276 0.197681 -1.26542e-19)
(1.34125 0.199295 -5.40325e-19)
(1.34404 0.199103 5.33084e-19)
(1.34303 0.197634 -2.35637e-19)
(1.33967 0.195287 1.87338e-19)
(1.33503 0.19242 3.18109e-19)
(1.32996 0.189408 1.29622e-19)
(0.0425479 -0.00568664 2.76539e-19)
(0.163658 -0.0112519 -5.70207e-19)
(0.313202 -0.000520231 1.08373e-19)
(0.478414 0.0209985 -7.94028e-20)
(0.646505 0.049418 -3.22064e-19)
(0.805818 0.0811704 -2.51594e-19)
(0.947397 0.112778 -5.00262e-20)
(1.06595 0.141507 -4.44413e-19)
(1.15978 0.165669 -2.71313e-20)
(1.23004 0.184572 -8.17609e-20)
(1.27968 0.198293 -2.19587e-19)
(1.31247 0.207396 -4.91512e-20)
(1.33223 0.212678 -1.65376e-19)
(1.34246 0.214984 -2.70858e-19)
(1.34604 0.215091 2.73899e-19)
(1.34521 0.213647 3.52239e-20)
(1.34165 0.21116 7.00006e-20)
(1.33657 0.207993 -3.06148e-19)
(1.33082 0.204491 -9.11683e-21)
(1.32511 0.200982 -4.60089e-19)
(0.053263 -0.00543114 2.99747e-19)
(0.194169 -0.00791778 2.00613e-19)
(0.360723 0.00822985 -3.25688e-19)
(0.538577 0.0357994 5.07731e-19)
(0.713636 0.0696479 -5.55977e-20)
(0.873906 0.105392 1.89142e-19)
(1.0112 0.139215 6.54167e-20)
(1.12173 0.168476 2.2951e-19)
(1.20555 0.19186 -1.79752e-19)
(1.26536 0.209145 5.91356e-20)
(1.30522 0.220842 -5.6425e-20)
(1.32955 0.227849 -2.36756e-20)
(1.34246 0.231176 4.63315e-20)
(1.34742 0.23178 -8.39766e-20)
(1.34711 0.230467 -2.49821e-20)
(1.34354 0.227873 -7.69155e-20)
(1.33813 0.224464 -1.23807e-19)
(1.33185 0.220561 8.04112e-20)
(1.3254 0.216495 -1.06801e-19)
(1.3193 0.21254 4.63133e-19)
(0.0649962 -0.00448758 -1.48455e-19)
(0.226578 -0.00261177 -4.22951e-19)
(0.40981 0.0198737 -5.61288e-20)
(0.598878 0.0538963 -1.62649e-20)
(0.778741 0.0930233 -1.89797e-19)
(0.937629 0.132179 -3.11254e-19)
(1.06867 0.167422 1.01089e-19)
(1.16993 0.196416 -1.38831e-19)
(1.24331 0.218364 -1.53966e-19)
(1.29293 0.233574 8.51702e-20)
(1.32378 0.242993 -6.39179e-20)
(1.34069 0.24781 -1.27692e-19)
(1.34785 0.249199 -3.1182e-21)
(1.34856 0.248174 8.6353e-20)
(1.34525 0.245538 -8.59413e-20)
(1.33966 0.241887 1.19514e-19)
(1.33295 0.237635 3.26918e-20)
(1.32588 0.233055 7.96983e-20)
(1.31899 0.228474 1.51829e-19)
(1.31269 0.224099 -1.2953e-19)
(0.0776526 -0.00274356 1.41161e-19)
(0.26049 0.0048657 -1.13062e-20)
(0.459717 0.0345426 6.44487e-20)
(0.658294 0.075251 -8.64848e-20)
(0.840724 0.119319 7.93829e-21)
(0.996077 0.161177 2.99513e-19)
(1.11928 0.197007 -1.95858e-19)
(1.21051 0.224983 8.26056e-20)
(1.27344 0.244933 7.25711e-20)
(1.31347 0.257726 -2.01662e-19)
(1.33624 0.26471 1.88461e-19)
(1.34681 0.267315 1.83344e-21)
(1.34926 0.26682 -1.30371e-19)
(1.34663 0.264255 1.56639e-19)
(1.34107 0.260386 -6.14031e-20)
(1.33402 0.255757 4.66886e-20)
(1.32641 0.25072 -5.24633e-20)
(1.31885 0.245505 -2.12966e-20)
(1.31172 0.24044 -1.77662e-19)
(1.30535 0.235647 5.4432e-20)
(0.0911033 -9.65839e-05 -4.67719e-20)
(0.295442 0.0146697 1.2713e-19)
(0.509647 0.0522895 2.01183e-20)
(0.715826 0.099736 8.32377e-20)
(0.898625 0.148241 3.98504e-20)
(1.04857 0.192004 1.87208e-20)
(1.16279 0.227597 1.04887e-19)
(1.24363 0.253879 -1.26136e-20)
(1.29648 0.271376 4.58035e-20)
(1.32772 0.281509 7.30539e-20)
(1.34344 0.285981 3.49189e-20)
(1.3487 0.286402 2.49129e-20)
(1.34737 0.284101 1.00555e-19)
(1.34218 0.280084 -9.71684e-20)
(1.33497 0.275063 2.07063e-20)
(1.32691 0.269514 -1.90872e-20)
(1.31873 0.263732 2.97255e-20)
(1.31088 0.257908 2.47559e-20)
(1.30366 0.252373 5.08238e-20)
(1.2973 0.247153 1.95821e-21)
(0.105188 0.00354099 2.78172e-20)
(0.330916 0.0269015 2.53254e-20)
(0.558784 0.0730848 -3.51717e-20)
(0.770541 0.127141 2.19772e-20)
(0.951645 0.179444 1.23801e-20)
(1.09464 0.224271 -3.86341e-20)
(1.19913 0.258844 1.26398e-20)
(1.26963 0.282847 2.40721e-21)
(1.313 0.297541 2.16075e-20)
(1.33638 0.304861 -5.79151e-20)
(1.34608 0.306806 -1.28276e-22)
(1.34702 0.3051 1.58001e-20)
(1.34274 0.301077 -1.25976e-20)
(1.33564 0.295692 1.27431e-20)
(1.32725 0.289582 3.28569e-20)
(1.31852 0.283159 -1.85618e-20)
(1.31 0.276656 5.2572e-21)
(1.30204 0.270236 2.00823e-20)
(1.29483 0.264236 -3.28464e-20)
(1.28854 0.258569 1.58662e-20)
(0.119717 0.0082374 7.61853e-20)
(0.366356 0.0416016 -4.17044e-20)
(0.606319 0.096816 4.92439e-20)
(0.821601 0.157183 -3.66477e-20)
(0.999156 0.212542 -1.63896e-20)
(1.13403 0.257589 5.04863e-21)
(1.22843 0.290425 -1.60078e-20)
(1.28893 0.311665 5.73529e-20)
(1.32361 0.323301 -4.76414e-20)
(1.34013 0.327731 1.12127e-20)
(1.3448 0.327177 -8.31914e-21)
(1.34228 0.323421 -5.3688e-20)
(1.33575 0.317762 5.19351e-20)
(1.32727 0.311079 1.96294e-20)
(1.3181 0.303932 -1.94768e-20)
(1.30896 0.296663 4.54935e-20)
(1.30029 0.289454 -7.62041e-22)
(1.29234 0.282444 -4.36318e-20)
(1.28522 0.275975 3.21025e-20)
(1.27906 0.269837 1.00312e-20)
(0.134481 0.0140377 -2.67771e-20)
(0.401188 0.0587461 7.70332e-20)
(0.651483 0.123292 8.93006e-20)
(0.868285 0.189519 -4.22743e-20)
(1.0407 0.24713 7.32815e-20)
(1.16663 0.291577 1.15829e-19)
(1.25092 0.322045 -6.52719e-21)
(1.30199 0.340139 -1.98776e-20)
(1.32888 0.348549 9.75478e-20)
(1.33954 0.350069 4.74855e-20)
(1.34011 0.347075 -8.53681e-21)
(1.3349 0.341355 7.04805e-20)
(1.32672 0.33414 -7.5154e-20)
(1.3173 0.326219 1.1698e-19)
(1.30764 0.318072 -1.94292e-20)
(1.29831 0.309976 5.53808e-20)
(1.28964 0.302067 9.83992e-21)
(1.28178 0.294468 3.91238e-20)
(1.27482 0.287523 -3.71981e-20)
(1.26885 0.280891 9.10613e-21)
(0.149249 0.0209603 -4.15189e-20)
(0.434833 0.0782443 9.64866e-20)
(0.693565 0.152249 7.19186e-20)
(0.909998 0.223758 -1.09371e-20)
(1.07597 0.282786 1.1247e-19)
(1.19247 0.325869 -8.50897e-20)
(1.26691 0.353432 -6.44619e-21)
(1.30929 0.368089 7.40482e-20)
(1.32935 0.373181 2.32678e-20)
(1.3351 0.371817 3.29126e-20)
(1.33241 0.366463 -4.86122e-20)
(1.32518 0.358866 1.26351e-19)
(1.31585 0.350167 2.34446e-20)
(1.30585 0.341059 -1.1146e-19)
(1.29595 0.331942 1.62453e-19)
(1.2866 0.323032 -1.91044e-19)
(1.27803 0.314425 -8.71715e-20)
(1.27036 0.306235 1.47914e-20)
(1.26361 0.298806 8.40228e-20)
(1.25788 0.29166 -1.5887e-19)
(0.16378 0.0289949 -9.14797e-20)
(0.466735 0.0999408 -2.16509e-19)
(0.731937 0.183358 -1.88366e-19)