/*--------------------------------*- C++ -*----------------------------------*\
  =========                 |
  \\      /  F ield         | OpenFOAM: The Open Source CFD Toolbox
   \\    /   O peration     | Website:  https://openfoam.org
    \\  /    A nd           | Version:  6.0
     \\/     M anipulation  |
\*---------------------------------------------------------------------------*/
FoamFile
{
    version     2.0;
    format      ascii;
    class       surfaceScalarField;
    location    "88";
    object      phi;
}
// * * * * * * * * * * * * * * * * * * * * * * * * * * * * * * * * * * * * * //

dimensions      [0 3 -1 0 0 0 0];

internalField   nonuniform List<scalar> 
7840
(
3.92187e-05
-0.000373297
0.000132742
-0.00110394
0.000256346
-0.00178133
0.00038716
-0.00235832
0.000507737
-0.00280774
0.000608075
-0.00312767
0.000684937
-0.00333469
0.000739732
-0.00345382
0.000776251
-0.00351055
0.000798933
-0.00352646
0.000811832
-0.00351772
0.000818173
-0.00349536
0.000820292
-0.0034664
0.000819774
-0.00343502
0.000817649
-0.00340361
0.000814576
-0.0033735
0.000810985
-0.0033454
0.000807155
-0.00331972
0.000803262
-0.0032966
-0.00327618
0.000799412
3.97743e-05
-0.000413071
0.00013186
-0.00119603
0.000249958
-0.00189943
0.000370851
-0.00247922
0.000478241
-0.00291513
0.000563911
-0.00321333
0.000626262
-0.00339704
0.000667806
-0.00349536
0.000692843
-0.00353559
0.000705857
-0.00353948
0.000710673
-0.00352253
0.000710175
-0.00349486
0.000706357
-0.00346258
0.000700516
-0.00342918
0.000693467
-0.00339656
0.000685723
-0.00336575
0.000677613
-0.00333729
0.000669355
-0.00331146
0.000661084
-0.00328833
-0.00326797
0.000652879
3.98896e-05
-0.00045296
0.00012946
-0.0012856
0.000240774
-0.00201074
0.000350759
-0.0025892
0.000444558
-0.00300893
0.000515763
-0.00328454
0.000564255
-0.00344553
0.000593425
-0.00352453
0.000607878
-0.00355004
0.000612012
-0.00354361
0.000609359
-0.00351988
0.000602453
-0.00348795
0.00059297
-0.00345309
0.000581955
-0.00341816
0.000570044
-0.00338465
0.000557631
-0.00335334
0.00054497
-0.00332463
0.000532232
-0.00329872
0.000519524
-0.00327562
-0.00325535
0.000506905
3.95536e-05
-0.000492514
0.000125585
-0.00137163
0.000229
-0.00211416
0.000327327
-0.00268753
0.000407361
-0.00308896
0.00046446
-0.00334164
0.000499798
-0.00348087
0.000517429
-0.00354216
0.000522097
-0.00355471
0.000518013
-0.00353953
0.000508379
-0.00351024
0.00049539
-0.00347496
0.000480432
-0.00343814
0.000464338
-0.00340207
0.000447595
-0.00336791
0.000430501
-0.00333625
0.000413253
-0.00330738
0.000395985
-0.00328145
0.000378784
-0.00325842
-0.00323827
0.000361699
3.87645e-05
-0.000531278
0.000120303
-0.00145317
0.000214876
-0.00220873
0.000301011
-0.00277367
0.000367293
-0.00315525
0.000410748
-0.00338509
0.000433646
-0.00350377
0.000440508
-0.00354902
0.00043608
-0.00355028
0.000424314
-0.00352776
0.000408074
-0.003494
0.000389233
-0.00345612
0.000368928
-0.00341783
0.000347807
-0.00338095
0.000326237
-0.00334634
0.00030444
-0.00331445
0.000282567
-0.00328551
0.000260725
-0.00325961
0.000238988
-0.00323668
-0.00321668
0.000217397
3.75294e-05
-0.000568808
0.000113707
-0.00152934
0.000198665
-0.00229369
0.000272272
-0.00284727
0.000324961
-0.00320793
0.000355298
-0.00341543
0.000366453
-0.00351492
0.000363241
-0.00354581
0.000350301
-0.00353734
0.000331287
-0.00350875
0.000308726
-0.00347144
0.000284201
-0.0034316
0.000258628
-0.00339226
0.000232507
-0.00335483
0.000206105
-0.00331994
0.000179582
-0.00328793
0.00015305
-0.00325898
0.000126598
-0.00323316
0.000100289
-0.00321037
-0.00319056
7.41648e-05
3.58637e-05
-0.000604672
0.000105909
-0.00159939
0.000180643
-0.00236842
0.00024155
-0.00290818
0.000280917
-0.0032473
0.000298695
-0.00343321
0.000298765
-0.00351499
0.000286094
-0.00353314
0.000265133
-0.00351638
0.000239213
-0.00348283
0.000210541
-0.00344277
0.000180444
-0.0034015
0.000149652
-0.00336147
0.00011854
-0.00332371
8.72946e-05
-0.00328869
5.60218e-05
-0.00325665
2.48031e-05
-0.00322776
-6.28944e-06
-0.00320207
-3.71945e-05
-0.00317947
-0.00315988
-6.78712e-05
3.37894e-05
-0.000638461
9.70332e-05
-0.00166263
0.000161088
-0.00243248
0.000209262
-0.00295635
0.000235657
-0.0032737
0.000241444
-0.00343899
0.000231044
-0.00350459
0.000209451
-0.00351155
0.000180872
-0.0034878
0.000148314
-0.00345027
0.000113686
-0.00340814
7.80895e-05
-0.0033659
4.21017e-05
-0.00332548
5.99633e-06
-0.00328761
-3.01076e-05
-0.00325259
-6.615e-05
-0.00322061
-0.000102078
-0.00319183
-0.000137833
-0.00316631
-0.000173353
-0.00314395
-0.00312464
-0.00020859
3.13349e-05
-0.000669796
8.72108e-05
-0.00171851
0.00014027
-0.00248554
0.000175796
-0.00299188
0.000189625
-0.00328752
0.000183982
-0.00343335
0.000163672
-0.00348428
0.000133623
-0.0034815
9.77598e-05
-0.00345194
5.87685e-05
-0.00341128
1.82902e-05
-0.00336767
-2.27652e-05
-0.00332485
-6.39446e-05
-0.0032843
-0.000105055
-0.0032465
-0.000146035
-0.00321161
-0.000186864
-0.00317978
-0.00022752
-0.00315118
-0.000267953
-0.00312588
-0.000308097
-0.0031038
-0.00308484
-0.000347895
2.85329e-05
-0.000698329
7.65781e-05
-0.00176656
0.000118452
-0.00252741
0.000141507
-0.00301494
0.000143211
-0.00328923
0.000126681
-0.00341682
9.6972e-05
-0.00345457
5.88679e-05
-0.00344339
1.5992e-05
-0.00340906
-2.92769e-05
-0.00336601
-7.55363e-05
-0.00332141
-0.000122036
-0.00327835
-0.00016842
-0.00323792
-0.000214558
-0.00320036
-0.000260434
-0.00316573
-0.000306068
-0.00313415
-0.000351465
-0.00310578
-0.000396589
-0.00308075
-0.000441363
-0.00305903
-0.00304049
-0.000485716
2.54202e-05
-0.000723749
6.52717e-05
-0.00180641
9.58814e-05
-0.00255802
0.000106719
-0.00302577
9.67614e-05
-0.00327927
6.98649e-05
-0.00338992
3.12182e-05
-0.00341592
-1.45946e-05
-0.00339758
-6.42621e-05
-0.00335939
-0.000115693
-0.00331458
-0.000167695
-0.0032694
-0.000219647
-0.0032264
-0.000271267
-0.0031863
-0.000322468
-0.00314916
-0.000373271
-0.00311493
-0.000423732
-0.00308368
-0.000473891
-0.00305562
-0.000523724
-0.00303092
-0.00057314
-0.00300961
-0.00299159
-0.000622045
2.20362e-05
-0.000745785
5.34274e-05
-0.0018378
7.27924e-05
-0.00257739
7.17233e-05
-0.0030247
5.05805e-05
-0.00325813
1.38132e-05
-0.00335316
-3.33518e-05
-0.00336876
-8.65722e-05
-0.00334436
-0.000142848
-0.00330312
-0.000200355
-0.00325707
-0.000258084
-0.00321168
-0.000315519
-0.00316896
-0.000372427
-0.00312939
-0.000428748
-0.00309284
-0.000484526
-0.00305915
-0.000539854
-0.00302836
-0.000594809
-0.00300066
-0.000649388
-0.00297634
-0.000703486
-0.00295552
-0.0029381
-0.000756971
1.84225e-05
-0.000764208
4.11775e-05
-0.00186055
4.94036e-05
-0.00258561
3.67882e-05
-0.00301209
4.94049e-06
-0.00322628
-4.12254e-05
-0.00330699
-9.65251e-05
-0.00331346
-0.000156886
-0.003284
-0.000219615
-0.00324039
-0.000283134
-0.00319355
-0.000346592
-0.00314822
-0.000409558
-0.003106
-0.00047183
-0.00306712
-0.000533354
-0.00303131
-0.000594184
-0.00299832
-0.000654443
-0.0029681
-0.000714255
-0.00294085
-0.000773651
-0.00291695
-0.000832516
-0.00289665
-0.00287996
-0.000890658
1.4622e-05
-0.00077883
2.86506e-05
-0.00187458
2.59186e-05
-0.00258288
2.15549e-06
-0.00298833
-3.99141e-05
-0.00318421
-9.50265e-05
-0.00325188
-0.000158104
-0.00325038
-0.000225362
-0.00321674
-0.000294404
-0.00317135
-0.000363878
-0.00312408
-0.000433078
-0.00307902
-0.000501638
-0.00303744
-0.000569376
-0.00299938
-0.000636223
-0.00296447
-0.000702221
-0.00293232
-0.000767511
-0.00290281
-0.000832269
-0.0028761
-0.000896581
-0.00285263
-0.00096033
-0.0028329
-0.00281706
-0.00102322
1.06784e-05
-0.000789508
1.59701e-05
-0.00187987
2.52707e-06
-0.00256944
-3.1954e-05
-0.00295384
-8.37614e-05
-0.0031324
-0.000147383
-0.00318826
-0.000217899
-0.00317987
-0.000291821
-0.00314282
-0.000367037
-0.00309613
-0.000442408
-0.00304871
-0.000517357
-0.00300407
-0.000591585
-0.00296321
-0.000664914
-0.00292605
-0.000737249
-0.00289213
-0.000808591
-0.00286098
-0.000879068
-0.00283233
-0.000948897
-0.00280627
-0.00101824
-0.00278329
-0.001087
-0.00276415
-0.00274935
-0.00115471
6.63568e-06
-0.000796144
3.25394e-06
-0.00187649
-2.05958e-05
-0.00254559
-6.53388e-05
-0.0029091
-0.000126399
-0.00307134
-0.000198101
-0.00311655
-0.000275721
-0.00310225
-0.000356072
-0.00306247
-0.000437311
-0.00301489
-0.000518498
-0.00296752
-0.000599186
-0.00292338
-0.00067914
-0.00288325
-0.000758201
-0.00284699
-0.000836237
-0.0028141
-0.000913184
-0.00278404
-0.00098911
-0.0027564
-0.00106424
-0.00273114
-0.00113881
-0.00270871
-0.00121277
-0.0026902
-0.00267657
-0.00128555
2.53712e-06
-0.000798681
-9.38694e-06
-0.00186457
-4.3289e-05
-0.00251169
-9.78163e-05
-0.00285457
-0.000167641
-0.00300152
-0.000246999
-0.0030372
-0.000331387
-0.00301786
-0.000417914
-0.00297594
-0.000504996
-0.00292781
-0.000591881
-0.00288063
-0.000678248
-0.00283701
-0.000763948
-0.00279755
-0.00084886
-0.00276208
-0.000932839
-0.00273012
-0.00101575
-0.00270113
-0.00109755
-0.0026746
-0.00117845
-0.00265025
-0.00125876
-0.0026284
-0.0013385
-0.00261046
-0.00259767
-0.0014174
-1.57528e-06
-0.000797106
-2.18495e-05
-0.00184429
-6.54073e-05
-0.00246813
-0.000129223
-0.00279076
-0.00020732
-0.00292342
-0.000293905
-0.00295061
-0.000384712
-0.00292705
-0.000477137
-0.00288352
-0.000569839
-0.00283511
-0.000662242
-0.00278823
-0.000754161
-0.0027451
-0.000845553
-0.00270616
-0.000936379
-0.00267125
-0.00102653
-0.00263996
-0.00111585
-0.00261182
-0.00120418
-0.00258626
-0.00129167
-0.00256276
-0.00137873
-0.00254134
-0.00146562
-0.00252357
-0.00251007
-0.00155321
-5.6619e-06
-0.000791444
-3.40407e-05
-0.00181591
-8.68225e-05
-0.00241535
-0.000159418
-0.00271816
-0.000245292
-0.00283755
-0.000338666
-0.00285724
-0.00043552
-0.0028302
-0.000533523
-0.00278551
-0.000631555
-0.00273708
-0.000729208
-0.00269058
-0.000826434
-0.00264787
-0.000923327
-0.00260927
-0.00102
-0.00257458
-0.00111649
-0.00254347
-0.00121273
-0.00251558
-0.00130857
-0.00249042
-0.00140401
-0.00246733
-0.00149943
-0.00244591
-0.00159543
-0.00242757
-0.00241049
-0.00169502
-9.68655e-06
-0.000781757
-4.58788e-05
-0.00177972
-0.000107427
-0.0023538
-0.000188284
-0.00263731
-0.000281437
-0.0027444
-0.000381157
-0.00275752
-0.000483663
-0.00272769
-0.000586874
-0.0026823
-0.000689863
-0.00263409
-0.00079236
-0.00258808
-0.000894437
-0.00254579
-0.000996327
-0.00250738
-0.00109834
-0.00247256
-0.00120082
-0.002441
-0.00130405
-0.00241234
-0.00140823
-0.00238623
-0.00151346
-0.0023621
-0.00162035
-0.00233903
-0.00173142
-0.0023165
-0.00230781
-0.0018341
-1.36042e-05
-0.000768153
-5.72744e-05
-0.00173605
-0.000127109
-0.00228396
-0.000215709
-0.00254871
-0.00031565
-0.00264445
-0.000421275
-0.00265189
-0.000529029
-0.00261994
-0.000637051
-0.00257428
-0.000744565
-0.00252657
-0.000851393
-0.00248125
-0.00095765
-0.00243954
-0.00106361
-0.00240142
-0.00116966
-0.00236651
-0.00127633
-0.00233433
-0.00138431
-0.00230437
-0.00149449
-0.00227605
-0.00160778
-0.00224881
-0.00172446
-0.00222235
-0.00184544
-0.00219552
-0.00216045
-0.00199281
-1.74109e-05
-0.000750742
-6.82121e-05
-0.00168525
-0.000145853
-0.00220632
-0.000241684
-0.00245287
-0.000347934
-0.0025382
-0.000459031
-0.0025408
-0.000571637
-0.00250733
-0.000684083
-0.00246183
-0.000795712
-0.00241494
-0.000906395
-0.00237057
-0.00101623
-0.0023297
-0.00112542
-0.00229223
-0.00123418
-0.00225775
-0.00134276
-0.00222575
-0.00145144
-0.00219569
-0.00156043
-0.00216706
-0.00166978
-0.00213946
-0.00177975
-0.00211238
-0.00189109
-0.00208417
-0.00205094
-0.0020006
-2.10719e-05
-0.00072967
-7.86298e-05
-0.00162769
-0.000163589
-0.00212136
-0.000266152
-0.00235031
-0.00037825
-0.00242611
-0.000494408
-0.00242464
-0.000611493
-0.00239025
-0.000728005
-0.00234532
-0.000843392
-0.00229956
-0.000957573
-0.00225639
-0.00107066
-0.00221661
-0.00118282
-0.00218007
-0.00129422
-0.00214634
-0.00140503
-0.00211494
-0.00151534
-0.00208538
-0.00162518
-0.00205723
-0.00173452
-0.00203012
-0.00184333
-0.00200357
-0.00195084
-0.00197667
-0.00194853
-0.00205325
-2.457e-05
-0.0007051
-8.84978e-05
-0.00156377
-0.000180294
-0.00202957
-0.000289105
-0.0022415
-0.000406611
-0.0023086
-0.000527445
-0.0023038
-0.00064866
-0.00226903
-0.000768907
-0.00222508
-0.000887719
-0.00218074
-0.00100504
-0.00213907
-0.00112097
-0.00210068
-0.00123565
-0.0020654
-0.00134919
-0.0020328
-0.00146167
-0.00200246
-0.0015731
-0.00197395
-0.0016834
-0.00194692
-0.00179244
-0.00192108
-0.00189992
-0.00189609
-0.00200514
-0.00187145
-0.00184672
-0.00210694
-2.78917e-05
-0.000677208
-9.77963e-05
-0.00149386
-0.000195955
-0.00193141
-0.00031055
-0.00212691
-0.000433052
-0.0021861
-0.000558203
-0.00217865
-0.000683234
-0.002144
-0.000806933
-0.00210138
-0.000928912
-0.00205877
-0.00104914
-0.00201883
-0.00116773
-0.0019821
-0.00128478
-0.00194835
-0.00140038
-0.0019172
-0.00151458
-0.00188826
-0.00162736
-0.00186116
-0.00173866
-0.00183563
-0.00184833
-0.00181141
-0.0019561
-0.00178831
-0.00206156
-0.001766
-0.00174421
-0.00216407
-3.1027e-05
-0.000646181
-0.000106513
-0.00141837
-0.000210572
-0.00182735
-0.000330507
-0.00200697
-0.000457613
-0.00205899
-0.000586748
-0.00204952
-0.000715307
-0.00201544
-0.000842204
-0.00197448
-0.000967122
-0.00193385
-0.00109006
-0.00189589
-0.00121113
-0.00186103
-0.00133044
-0.00182904
-0.00144807
-0.00179957
-0.00156406
-0.00177227
-0.0016784
-0.00174682
-0.00179104
-0.00172299
-0.00190187
-0.00170059
-0.00201074
-0.00167944
-0.00211744
-0.00165929
-0.00163997
-0.00222168
-3.39686e-05
-0.000612213
-0.000114642
-0.0013377
-0.000224151
-0.00171784
-0.000349001
-0.00188212
-0.000480344
-0.00192765
-0.000613151
-0.00191671
-0.000744974
-0.00188362
-0.000874842
-0.00184461
-0.0010025
-0.00180619
-0.00112799
-0.00177041
-0.00125142
-0.00173759
-0.00137292
-0.00170754
-0.00149257
-0.00167992
-0.00161042
-0.00165441
-0.0017265
-0.00163075
-0.00184078
-0.00160871
-0.00195322
-0.00158815
-0.00206375
-0.00156891
-0.00217229
-0.00155076
-0.00153359
-0.00227867
-3.67113e-05
-0.000575502
-0.000122181
-0.00125223
-0.000236701
-0.00160332
-0.000366059
-0.00175276
-0.000501289
-0.00179242
-0.000637475
-0.00178052
-0.000772315
-0.00174878
-0.000904944
-0.00171198
-0.00103517
-0.00167596
-0.00116306
-0.00164251
-0.00128875
-0.0016119
-0.00141238
-0.00158392
-0.00153404
-0.00155826
-0.00165381
-0.00153464
-0.00177173
-0.00151282
-0.00188783
-0.00149261
-0.00200211
-0.00147387
-0.00211458
-0.00145645
-0.0022252
-0.00144013
-0.00142486
-0.00233393
-3.92511e-05
-0.00053625
-0.000129129
-0.00116235
-0.000248233
-0.00148422
-0.000381707
-0.00161929
-0.00052049
-0.00165364
-0.000659776
-0.00164124
-0.000797397
-0.00161116
-0.000932586
-0.00157679
-0.00106521
-0.00154334
-0.00119536
-0.00151236
-0.00132321
-0.00148406
-0.00144888
-0.00145824
-0.00157252
-0.00143462
-0.00169422
-0.00141295
-0.00181404
-0.001393
-0.00193205
-0.0013746
-0.00204829
-0.00135763
-0.00216279
-0.00134194
-0.0022756
-0.00132733
-0.00131378
-0.00238669
-4.1585e-05
-0.000494665
-0.000135486
-0.00106845
-0.000258759
-0.00136094
-0.000395969
-0.00148208
-0.000537982
-0.00151162
-0.000680096
-0.00149912
-0.000820269
-0.00147098
-0.000957822
-0.00143924
-0.00109267
-0.00140849
-0.00122495
-0.00138008
-0.00135482
-0.00135418
-0.00148247
-0.0013306
-0.00160802
-0.00130907
-0.00173161
-0.00128936
-0.00185332
-0.00127128
-0.00197324
-0.00125468
-0.00209144
-0.00123943
-0.002208
-0.00122539
-0.00232296
-0.00121236
-0.00120039
-0.00243635
-4.37101e-05
-0.000450955
-0.000141252
-0.000970911
-0.000268285
-0.00123391
-0.000408863
-0.0013415
-0.000553792
-0.00136669
-0.00069847
-0.00135445
-0.000840968
-0.00132849
-0.000980686
-0.00129952
-0.00111759
-0.00127158
-0.00125183
-0.00124584
-0.00138362
-0.0012224
-0.00151312
-0.00120109
-0.0016405
-0.00118168
-0.0017659
-0.00116396
-0.00188944
-0.00114775
-0.00201121
-0.00113291
-0.00213132
-0.00111932
-0.00224985
-0.00110686
-0.00236688
-0.00109534
-0.00108482
-0.00248245
-4.56241e-05
-0.000405331
-0.000146429
-0.000870106
-0.00027682
-0.00110352
-0.000420404
-0.00119792
-0.00056794
-0.00121916
-0.00071492
-0.00120747
-0.000859515
-0.00118389
-0.0010012
-0.00115784
-0.00113997
-0.00113281
-0.00127603
-0.00110979
-0.00140957
-0.00108886
-0.00154079
-0.00106987
-0.00166988
-0.00105259
-0.00179699
-0.00103686
-0.00192224
-0.00102249
-0.00204577
-0.00100938
-0.00216767
-0.000997414
-0.00228806
-0.000986466
-0.00240702
-0.00097638
-0.000967227
-0.00252461
-4.73246e-05
-0.000358007
-0.000151014
-0.000766417
-0.000284368
-0.000970165
-0.000430601
-0.00105168
-0.00058044
-0.00106932
-0.00072946
-0.00105845
-0.000875924
-0.00103743
-0.00101936
-0.0010144
-0.00115983
-0.000992347
-0.00129751
-0.000972105
-0.00143264
-0.000953729
-0.00156544
-0.000937068
-0.0016961
-0.000921941
-0.00182477
-0.000908183
-0.00195161
-0.000895654
-0.00207675
-0.000884243
-0.00220031
-0.000873855
-0.0023224
-0.000864373
-0.00244312
-0.000855661
-0.000847799
-0.00256255
-4.88091e-05
-0.000309197
-0.000155006
-0.00066022
-0.00029093
-0.000834241
-0.000439461
-0.000903152
-0.0005913
-0.00091748
-0.0007421
-0.000907647
-0.000890198
-0.000889329
-0.00103518
-0.000869411
-0.00117713
-0.000850401
-0.00131626
-0.000832975
-0.00145282
-0.000817174
-0.00158702
-0.000802864
-0.00171907
-0.000789888
-0.00184915
-0.000778104
-0.00197741
-0.000767392
-0.002104
-0.000757656
-0.00222904
-0.000748811
-0.00235266
-0.000740755
-0.00247495
-0.00073337
-0.00072674
-0.00259601
-5.00754e-05
-0.000259122
-0.000158404
-0.000551891
-0.000296507
-0.000696139
-0.000446986
-0.000752672
-0.000600525
-0.000763942
-0.00075284
-0.000755332
-0.000902337
-0.000739832
-0.00104865
-0.000723099
-0.00119188
-0.000707174
-0.00133225
-0.000692596
-0.00147004
-0.000679389
-0.00160546
-0.000667439
-0.00173874
-0.000656615
-0.00187004
-0.000646798
-0.00199955
-0.000637888
-0.0021274
-0.000629804
-0.00225374
-0.000622474
-0.00237868
-0.00061581
-0.00250234
-0.000609714
-0.000604266
-0.00262481
-5.1121e-05
-0.000208001
-0.000161204
-0.000441808
-0.000301097
-0.000556245
-0.000453178
-0.000600592
-0.000608115
-0.000609005
-0.00076168
-0.000601767
-0.000912335
-0.000589178
-0.00105975
-0.000575687
-0.00120404
-0.000562881
-0.00134546
-0.000551173
-0.00148428
-0.000540573
-0.00162073
-0.00053099
-0.00175502
-0.000522318
-0.00188736
-0.00051446
-0.00201791
-0.000507338
-0.00214683
-0.000500886
-0.00227426
-0.000495046
-0.00240032
-0.000489747
-0.00252513
-0.000484909
-0.000480603
-0.00264879
-5.19441e-05
-0.000156057
-0.000163404
-0.000330349
-0.0003047
-0.000414948
-0.000458035
-0.000447257
-0.000614069
-0.000452971
-0.000768617
-0.000447218
-0.000920184
-0.000437611
-0.00106847
-0.000427404
-0.00121361
-0.000417743
-0.00135586
-0.00040892
-0.00149549
-0.000400937
-0.00163276
-0.000393723
-0.00176788
-0.000387199
-0.00190105
-0.000381294
-0.00203244
-0.000375948
-0.00216221
-0.000371113
-0.00229051
-0.000366743
-0.00241747
-0.000362786
-0.0025432
-0.000359181
-0.000355986
-0.00266782
-5.25427e-05
-0.000103514
-0.000165001
-0.000217891
-0.000307313
-0.000272636
-0.000461556
-0.000293014
-0.000618384
-0.000296143
-0.000773647
-0.000291956
-0.000925878
-0.000285379
-0.0010748
-0.000278485
-0.00122055
-0.000271986
-0.00136342
-0.000266058
-0.00150366
-0.000260696
-0.00164153
-0.000255852
-0.00177726
-0.000251473
-0.00191104
-0.000247514
-0.00204305
-0.000243934
-0.00217346
-0.000240702
-0.00230242
-0.000237788
-0.00243005
-0.000235155
-0.00255646
-0.000232765
-0.000230656
-0.00268179
-5.29154e-05
-5.05989e-05
-0.000165992
-0.000104814
-0.000308934
-0.000129694
-0.000463738
-0.00013821
-0.000621058
-0.000138823
-0.000776764
-0.00013625
-0.00092941
-0.000132734
-0.00107873
-0.000129167
-0.00122487
-0.00012584
-0.00136812
-0.000122811
-0.00150875
-0.000120071
-0.001647
-0.000117595
-0.00178312
-0.000115359
-0.00191729
-0.000113339
-0.00204971
-0.000111517
-0.00218053
-0.000109878
-0.00230991
-0.000108408
-0.00243798
-0.000107088
-0.00256485
-0.000105897
-0.000104856
-0.00269065
-5.30611e-05
2.46216e-06
-0.000166378
8.50277e-06
-0.00030956
1.34888e-05
-0.000464579
1.6808e-05
-0.000622087
1.86862e-05
-0.000777964
1.96265e-05
-0.000930772
2.0074e-05
-0.00108025
2.03076e-05
-0.00122655
2.04633e-05
-0.00136995
2.05936e-05
-0.00151074
2.07131e-05
-0.00164916
2.08234e-05
-0.00178544
2.09223e-05
-0.00191978
2.10076e-05
-0.00205238
2.10773e-05
-0.00218339
2.11296e-05
-0.00231296
2.11632e-05
-0.00244122
2.11787e-05
-0.0025683
2.11791e-05
2.11636e-05
-0.00269432
-5.29794e-05
5.54416e-05
-0.000166155
0.000121678
-0.000309191
0.000156525
-0.000464077
0.000171694
-0.00062147
0.000176079
-0.000777245
0.000175402
-0.000929961
0.00017279
-0.00107935
0.000169698
-0.00122558
0.000166688
-0.00136891
0.000163925
-0.00150962
0.000161429
-0.00164798
0.000159179
-0.0017842
0.000157145
-0.00191849
0.000155299
-0.00205104
0.000153621
-0.002182
0.00015209
-0.00231153
0.000150691
-0.00243975
0.000149406
-0.00256679
0.000148218
0.000147149
-0.00269278
-5.26703e-05
0.000108112
-0.000165325
0.000234333
-0.000307826
0.000299026
-0.000462231
0.000326099
-0.000619204
0.000333052
-0.000774604
0.000330801
-0.000926975
0.00032516
-0.00107604
0.000318763
-0.00122195
0.0003126
-0.00136498
0.000306954
-0.0015054
0.000301851
-0.00164347
0.000297246
-0.00177941
0.000293083
-0.00191342
0.000289311
-0.00204569
0.000285886
-0.00217637
0.000282773
-0.00230562
0.000279941
-0.00243357
0.000277353
-0.00256032
0.000274975
0.000272847
-0.00268602
-5.21339e-05
0.000160246
-0.000163886
0.000346084
-0.000305462
0.000440603
-0.000459039
0.000479676
-0.000615288
0.000489301
-0.000770039
0.000485553
-0.000921811
0.000476932
-0.00107031
0.00046726
-0.00121568
0.000457967
-0.00135817
0.000449453
-0.00149808
0.000441754
-0.00163563
0.000434802
-0.00177106
0.000428516
-0.00190457
0.000422819
-0.00203633
0.000417648
-0.00216651
0.00041295
-0.00229525
0.00040868
-0.00242268
0.000404783
-0.00254891
0.000401208
0.000398009
-0.00267407
-5.13712e-05
0.000211617
-0.000161839
0.000456553
-0.000302102
0.000580865
-0.000454501
0.000632076
-0.000609719
0.000644519
-0.00076355
0.000639384
-0.000914472
0.000627854
-0.00106216
0.000614952
-0.00120675
0.000602556
-0.00134849
0.000591195
-0.00148766
0.000580914
-0.00162448
0.000571627
-0.00175919
0.000563222
-0.00189197
0.000555602
-0.002023
0.000548683
-0.00215245
0.000542395
-0.00228045
0.00053668
-0.00240713
0.000531464
-0.0025326
0.000526678
0.00052239
-0.00265698
-5.03835e-05
0.000262001
-0.000159187
0.000565356
-0.000297744
0.000719422
-0.000448616
0.000782947
-0.000602499
0.000798402
-0.000755137
0.000792023
-0.000904958
0.000777675
-0.00105161
0.0007616
-0.00119519
0.000746141
-0.00133596
0.000731959
-0.00147416
0.000719116
-0.00161004
0.000707504
-0.0017438
0.000696989
-0.00187565
0.000687448
-0.00200574
0.000678776
-0.00213424
0.000670891
-0.00226127
0.000663717
-0.00238698
0.000657168
-0.00251145
0.000651153
0.00064575
-0.00263481
-4.91724e-05
0.000311173
-0.000155931
0.000672114
-0.00029239
0.000855882
-0.000441382
0.000931939
-0.000593624
0.000950644
-0.0007448
0.000943199
-0.000893273
0.000926148
-0.00103865
0.000906974
-0.00118101
0.000888499
-0.00132058
0.000871531
-0.00145761
0.000856149
-0.00159233
0.000842228
-0.00172495
0.00082961
-0.00185566
0.000818149
-0.0019846
0.00080772
-0.00211193
0.000798225
-0.00223779
0.000789578
-0.0023623
0.000781675
-0.00248556
0.000774408
0.000767857
-0.00260766
-4.774e-05
0.000358913
-0.000152072
0.000776446
-0.000286039
0.000989849
-0.000432798
0.0010787
-0.000583092
0.00110094
-0.000732536
0.00109264
-0.000879418
0.00107303
-0.00102329
0.00105085
-0.00116421
0.00102941
-0.00130238
0.0010097
-0.00143804
0.00099181
-0.00157141
0.000975601
-0.00170269
0.00096089
-0.00183205
0.00094751
-0.00195965
0.000935318
-0.00208562
0.0009242
-0.0022101
0.000914057
-0.0023332
0.000904775
-0.00245502
0.000896224
0.000888485
-0.00257564
-4.60886e-05
0.000405002
-0.000147613
0.000877971
-0.000278691
0.00112093
-0.00042286
0.00122287
-0.0005709
0.00124898
-0.000718343
0.00124009
-0.000863393
0.00121808
-0.00100554
0.00119299
-0.0011448
0.00116868
-0.00128137
0.00114627
-0.00141547
0.00112591
-0.0015473
0.00110743
-0.00167706
0.00109065
-0.0018049
0.00107535
-0.00193097
0.00106139
-0.0020554
0.00104863
-0.00217831
0.00103696
-0.0022998
0.00102627
-0.00241997
0.0010164
0.00100742
-0.00253891
-4.42206e-05
0.000449222
-0.000142555
0.000976306
-0.000270344
0.00124872
-0.000411562
0.00136408
-0.000557038
0.00139445
-0.000702214
0.00138526
-0.000845194
0.00136106
-0.0009854
0.0013332
-0.00112281
0.00130609
-0.00125759
0.00128105
-0.00138994
0.00125826
-0.00152007
0.00123756
-0.00164813
0.00121871
-0.00177429
0.00120151
-0.00189867
0.00118577
-0.00202138
0.00117134
-0.00214255
0.00115813
-0.00226226
0.00114598
-0.00238059
0.00113474
0.00112445
-0.00249763
-4.21385e-05
0.000491361
-0.000136901
0.00107107
-0.000260994
0.00137281
-0.000398897
0.00150199
-0.000541496
0.00153705
-0.000684136
0.0015279
-0.000824812
0.00150173
-0.000962866
0.00147125
-0.00109823
0.00144145
-0.00123104
0.00141386
-0.00136149
0.00138871
-0.00148975
0.00136582
-0.00161597
0.00134494
-0.0017403
0.00132584
-0.00186285
0.00130831
-0.00198371
0.00129221
-0.00210298
0.0012774
-0.00222075
0.00126375
-0.00233709
0.00125107
0.0012394
-0.00245203
-3.9845e-05
0.000531206
-0.000130649
0.00116187
-0.000250636
0.0014928
-0.000384851
0.0016362
-0.000524255
0.00167646
-0.000664091
0.00166774
-0.000802229
0.00163987
-0.000937926
0.00160695
-0.00107106
0.00157459
-0.00120174
0.00154454
-0.00133012
0.00151709
-0.00145638
0.00149207
-0.00158064
0.0014692
-0.00170303
0.00144822
-0.00182364
0.00142892
-0.00194254
0.00141111
-0.0020598
0.00139467
-0.00217551
0.00137945
-0.0022897
0.00136526
0.0013521
-0.0024024
-3.73431e-05
0.000568549
-0.000123802
0.00124833
-0.000239263
0.00160826
-0.000369408
0.00176635
-0.000505294
0.00181234
-0.000642051
0.0018045
-0.000777419
0.00177524
-0.000910555
0.00174009
-0.00104128
0.00170531
-0.00116967
0.00167293
-0.00129586
0.00164329
-0.00142
0.00161621
-0.0015422
0.00159141
-0.00166257
0.00156859
-0.00178116
0.00154751
-0.00189803
0.00152798
-0.00201323
0.00150987
-0.0021268
0.00149302
-0.00223875
0.00147722
0.00146243
-0.00234908
-3.46359e-05
0.000603184
-0.000116358
0.00133005
-0.000226866
0.00171877
-0.000352549
0.00189203
-0.000484581
0.00194437
-0.000617981
0.0019379
-0.000750342
0.0019076
-0.000880715
0.00187046
-0.00100886
0.00183345
-0.0011348
0.00179887
-0.00125868
0.00176716
-0.00138061
0.00173814
-0.00150068
0.00171148
-0.00161898
0.00168688
-0.00173554
0.00166407
-0.00185038
0.00164282
-0.00196351
0.00162299
-0.00207493
0.00160443
-0.00218461
0.0015869
0.00157032
-0.0022925
-3.17273e-05
0.000634912
-0.000108319
0.00140664
-0.000213434
0.00182388
-0.000334249
0.00201285
-0.00046208
0.0020722
-0.000591832
0.00206765
-0.000720944
0.00203671
-0.000848348
0.00199786
-0.000973732
0.00195884
-0.0010971
0.00192224
-0.00121854
0.00188861
-0.00133818
0.00185777
-0.00145608
0.00182939
-0.00157231
0.00180311
-0.00168687
0.00177863
-0.00179975
0.00175571
-0.00191091
0.00173415
-0.00202027
0.0017138
-0.00212776
0.00169439
0.00167579
-0.00223323
-2.8622e-05
0.000663534
-9.96861e-05
0.00147771
-0.000198957
0.00192315
-0.000314482
0.00212837
-0.000437747
0.00219547
-0.000563548
0.00219345
-0.000689155
0.00216232
-0.000813376
0.00212208
-0.00093582
0.00208128
-0.00105645
0.00204287
-0.00117536
0.00200751
-0.00129263
0.00197505
-0.00140835
0.00194511
-0.00152255
0.00191731
-0.00163521
0.0018913
-0.00174629
0.00186678
-0.00185568
0.00184354
-0.00196324
0.00182135
-0.00206876
0.00179992
0.001779
-0.00217197
-2.53266e-05
0.00068886
-9.04638e-05
0.00154285
-0.000183427
0.00201611
-0.000293219
0.00223816
-0.000411535
0.00231379
-0.000533062
0.00231498
-0.000654894
0.00228415
-0.000775697
0.00224289
-0.000895003
0.00220059
-0.00101274
0.00216061
-0.00112897
0.00212375
-0.00124381
0.00208988
-0.00135732
0.00205862
-0.00146955
0.00202954
-0.00158048
0.00200223
-0.00169003
0.00197634
-0.00179807
0.00195158
-0.00190435
0.00192763
-0.00200845
0.00190402
0.00188033
-0.00210978
-2.18494e-05
0.00071071
-8.06602e-05
0.00160166
-0.000166838
0.00210229
-0.000270435
0.00234176
-0.000383396
0.00242675
-0.000500303
0.00243188
-0.000618062
0.00240191
-0.00073519
0.00236002
-0.000851127
0.00231652
-0.000965763
0.00227524
-0.00107916
0.00223715
-0.00119144
0.00220216
-0.0013027
0.00216988
-0.00141302
0.00213985
-0.00152238
0.00211159
-0.00163072
0.00208468
-0.00173791
0.00205876
-0.00184364
0.00203337
-0.00194726
0.00200764
0.00198074
-0.00204767
-1.82018e-05
0.000728912
-7.029e-05
0.00165374
-0.000149195
0.0021812
-0.000246112
0.00243868
-0.000353285
0.00253392
-0.0004652
0.0025438
-0.000578565
0.00251528
-0.000691731
0.00247318
-0.000804041
0.00242883
-0.000915345
0.00238654
-0.00102571
0.00234751
-0.00113529
0.00231174
-0.00124423
0.00227882
-0.00135267
0.00224829
-0.00146069
0.00221962
-0.00156832
0.00219231
-0.00167552
0.00216596
-0.00178226
0.00214011
-0.0018878
0.00211318
0.00208155
-0.0019886
-1.4399e-05
0.000743311
-5.93759e-05
0.00169872
-0.000130509
0.00225233
-0.000220244
0.00252841
-0.000321169
0.00263485
-0.00042769
0.00265032
-0.000536305
0.00262389
-0.000645177
0.00258206
-0.000753531
0.00253719
-0.000861158
0.00249417
-0.000968113
0.00245447
-0.00107455
0.00241818
-0.00118068
0.00238495
-0.00128672
0.00235432
-0.0013929
0.0023258
-0.00149943
0.00229883
-0.00160636
0.0022729
-0.00171394
0.00224768
-0.00182287
0.00222211
0.00218885
-0.00193017
-1.046e-05
0.000753771
-4.79511e-05
0.00173621
-0.000110812
0.00231519
-0.000192839
0.00261044
-0.000287033
0.00272904
-0.000387732
0.00275102
-0.000491213
0.00272737
-0.000595432
0.00268627
-0.000699475
0.00264123
-0.00080307
0.00259777
-0.000906275
0.00255767
-0.00100931
0.00252122
-0.00111253
0.00248817
-0.00121639
0.00245819
-0.00132154
0.00243095
-0.0014288
0.0024061
-0.00153905
0.00238314
-0.00165265
0.00236128
-0.00177062
0.00234008
0.00233146
-0.00191323
-6.42121e-06
0.000760192
-3.60815e-05
0.00176587
-9.01738e-05
0.00236928
-0.000163957
0.00268422
-0.000250914
0.002816
-0.000345338
0.00284544
-0.000443278
0.00282531
-0.000542453
0.00278545
-0.00064178
0.00274056
-0.000740887
0.00269687
-0.000839772
0.00265656
-0.000938622
0.00262007
-0.00103771
0.00258726
-0.00113735
0.00255782
-0.00123784
0.00253143
-0.00133939
0.00250766
-0.00144218