/*--------------------------------*- C++ -*----------------------------------*\
  =========                 |
  \\      /  F ield         | OpenFOAM: The Open Source CFD Toolbox
   \\    /   O peration     | Website:  https://openfoam.org
    \\  /    A nd           | Version:  6.0
     \\/     M anipulation  |
\*---------------------------------------------------------------------------*/
FoamFile
{
    version     2.0;
    format      ascii;
    class       volVectorField;
    location    "88";
    object      U;
}
// * * * * * * * * * * * * * * * * * * * * * * * * * * * * * * * * * * * * * //

dimensions      [0 1 -1 0 0 0 0];

internalField   nonuniform List<vector> 
4000
(
(0.141332 0.00893493 9.38062e-20)
(0.422331 0.0440067 -5.15579e-20)
(0.686662 0.0999524 6.09911e-20)
(0.915371 0.158768 -4.54046e-20)
(1.09654 0.210324 -2.02995e-20)
(1.22795 0.250104 6.29792e-21)
(1.3149 0.277182 -1.98259e-20)
(1.3665 0.292961 7.10232e-20)
(1.39251 0.2999 -5.90749e-20)
(1.40142 0.300566 1.39325e-20)
(1.39975 0.297146 -1.032e-20)
(1.39208 0.291283 -6.69453e-20)
(1.38137 0.284108 6.48683e-20)
(1.36941 0.276343 2.46247e-20)
(1.35727 0.268424 -2.44271e-20)
(1.34553 0.260603 5.72503e-20)
(1.33452 0.253 -9.0524e-22)
(1.32442 0.245724 -5.51682e-20)
(1.3153 0.239092 4.06559e-20)
(1.30724 0.232794 1.28821e-20)
(0.156678 0.0155414 -3.30114e-20)
(0.45743 0.0630027 9.46757e-20)
(0.73066 0.128593 1.09981e-19)
(0.959048 0.193118 -5.2182e-20)
(1.13354 0.246644 9.03121e-20)
(1.25515 0.285643 1.42892e-19)
(1.33189 0.310357 -8.13863e-21)
(1.37452 0.323154 -2.46791e-20)
(1.39349 0.327124 1.20733e-19)
(1.39737 0.325158 5.89123e-20)
(1.39238 0.319546 -1.06941e-20)
(1.38268 0.31191 8.7869e-20)
(1.37082 0.303307 -9.41471e-20)
(1.35831 0.294376 1.46726e-19)
(1.34596 0.285488 -2.44111e-20)
(1.33424 0.27684 7.00929e-20)
(1.32338 0.268516 1.26418e-20)
(1.31351 0.260617 4.98354e-20)
(1.30465 0.253471 -4.73375e-20)
(1.29688 0.246629 1.18094e-20)
(0.17184 0.023298 -5.11299e-20)
(0.490877 0.0843392 1.17501e-19)
(0.771026 0.159631 8.78087e-20)
(0.997336 0.229261 -1.34019e-20)
(1.16412 0.283954 1.37916e-19)
(1.27576 0.321466 -1.05105e-19)
(1.34275 0.34333 -8.09812e-21)
(1.37725 0.352886 9.12011e-20)
(1.39016 0.353794 2.85807e-20)
(1.38992 0.3492 4.0818e-20)
(1.38235 0.341439 -6.04697e-20)
(1.37119 0.332079 1.57936e-19)
(1.3586 0.322085 2.96029e-20)
(1.3458 0.312013 -1.40079e-19)
(1.33345 0.302163 2.05512e-19)
(1.32187 0.292686 -2.42374e-19)
(1.31126 0.283635 -1.11433e-19)
(1.30169 0.275109 1.87313e-20)
(1.29314 0.267438 1.07715e-19)
(1.2857 0.26003 -2.05657e-19)
(0.186578 0.0321775 -1.11346e-19)
(0.522147 0.107825 -2.64182e-19)
(0.807209 0.19271 -2.30641e-19)
(1.02988 0.266758 -3.11787e-19)
(1.18821 0.321822 -1.78136e-19)
(1.28995 0.35721 -3.68665e-19)
(1.34784 0.375831 4.70067e-20)
(1.37511 0.381964 -1.96723e-19)
(1.38289 0.379774 -2.20488e-20)
(1.37935 0.372588 3.25395e-20)
(1.36987 0.362739 -7.19065e-20)
(1.35773 0.351709 9.05175e-20)
(1.34476 0.340363 1.61738e-19)
(1.33193 0.32917 -2.26841e-19)
(1.31973 0.318369 3.73739e-20)
(1.30842 0.308064 1.06445e-19)
(1.29814 0.298283 1.78401e-19)
(1.28892 0.289127 -1.53848e-19)
(1.28074 0.280924 -7.3922e-21)
(1.27367 0.272934 1.82498e-19)
(0.200651 0.0421231 -2.07717e-19)
(0.550754 0.133213 5.74545e-19)
(0.838756 0.227425 -1.00093e-19)
(1.05645 0.305145 1.35369e-19)
(1.20586 0.359822 -1.31282e-19)
(1.29798 0.392531 4.07161e-19)
(1.34752 0.407601 -6.48857e-20)
(1.36849 0.410201 3.82588e-20)
(1.37205 0.404922 -2.03797e-20)
(1.36597 0.395205 6.40697e-20)
(1.35516 0.383336 4.1725e-20)
(1.34247 0.370693 5.39548e-20)
(1.32942 0.358034 -1.5207e-19)
(1.31675 0.345743 2.24586e-19)
(1.30485 0.334 -1.71141e-19)
(1.29391 0.32287 3.36712e-20)
(1.28403 0.312361 -1.10886e-19)
(1.27523 0.302578 2.43749e-20)
(1.26745 0.293838 2.7819e-20)
(1.26081 0.285258 -2.54194e-19)
(0.213828 0.0530496 1.2891e-20)
(0.57627 0.160205 -2.86457e-19)
(0.865308 0.263336 1.6056e-19)
(1.07691 0.343954 -5.5512e-19)
(1.21718 0.397534 2.70809e-19)
(1.30014 0.427096 -4.62786e-19)
(1.34215 0.438392 -3.63884e-19)
(1.35776 0.437412 -1.38827e-20)
(1.35793 0.429092 -1.24555e-19)
(1.34999 0.416925 -3.93905e-19)
(1.33836 0.403115 -5.05548e-20)
(1.32549 0.388919 -3.85285e-19)
(1.3126 0.374986 6.89349e-20)
(1.30028 0.361621 -5.68423e-20)
(1.28881 0.34895 3.37341e-20)
(1.27833 0.337004 -2.68568e-19)
(1.26893 0.325773 1.11865e-20)
(1.26061 0.315369 5.24372e-20)
(1.25328 0.306093 -1.285e-19)
(1.24712 0.296924 1.11606e-19)
(0.225889 0.0648447 -1.16642e-19)
(0.598324 0.188462 5.20051e-19)
(0.886604 0.299977 6.07345e-21)
(1.09122 0.38271 -4.50157e-19)
(1.22235 0.434552 3.44558e-19)
(1.29674 0.460587 1.45946e-19)
(1.33209 0.467964 2.99259e-20)
(1.34322 0.463413 -2.49635e-19)
(1.34079 0.452133 4.07331e-19)
(1.3316 0.437612 -2.43589e-19)
(1.31961 0.421944 8.56927e-20)
(1.30688 0.406257 4.19011e-19)
(1.29438 0.391094 -3.81581e-19)
(1.28257 0.376684 4.22346e-19)
(1.27164 0.363104 -2.74904e-19)
(1.26171 0.350355 -5.34821e-20)
(1.25286 0.338414 6.60977e-20)
(1.24508 0.3274 8.65686e-20)
(1.23825 0.317592 1.21137e-19)
(1.23263 0.307847 7.22728e-20)
(0.236636 0.0773711 4.48894e-20)
(0.616615 0.217609 -4.62248e-19)
(0.902474 0.33687 8.27898e-20)
(1.09944 0.420947 1.08453e-18)
(1.22159 0.470483 -9.95125e-20)
(1.28811 0.492699 3.04304e-19)
(1.31769 0.496086 1.92424e-19)
(1.3252 0.488021 3.1854e-20)
(1.32087 0.473886 -2.29137e-19)
(1.31099 0.45712 3.77153e-19)
(1.29902 0.439684 -4.76435e-20)
(1.2867 0.422572 5.9173e-19)
(1.2748 0.406227 2.33342e-19)
(1.26365 0.390805 1.49427e-19)
(1.25338 0.37634 -3.11659e-19)
(1.24408 0.362808 6.64606e-20)
(1.23585 0.350174 2.47236e-19)
(1.22866 0.338567 6.72892e-20)
(1.22238 0.328239 -3.06859e-19)
(1.21736 0.317938 -7.80125e-20)
(0.245891 0.0904694 -2.56194e-19)
(0.630915 0.247248 8.25461e-19)
(0.912842 0.373529 -4.49533e-19)
(1.10169 0.45821 -4.15486e-19)
(1.21519 0.504954 -3.65106e-19)
(1.27458 0.523144 -3.10937e-19)
(1.29927 0.522535 -3.88917e-19)
(1.30396 0.511053 4.93288e-19)
(1.29838 0.494192 -3.58634e-19)
(1.28828 0.4753 -3.0234e-20)
(1.27669 0.456189 -1.8378e-21)
(1.26504 0.437723 -7.09102e-20)
(1.25392 0.420246 -1.8801e-19)
(1.24356 0.403853 -2.15167e-19)
(1.23405 0.388535 -1.15791e-20)
(1.22548 0.374245 -4.88188e-20)
(1.21794 0.360943 -1.25453e-19)
(1.21139 0.348763 -4.1145e-20)
(1.20573 0.33793 4.02667e-20)
(1.20136 0.327107 -2.80331e-19)
(0.253505 0.103962 4.40924e-19)
(0.641062 0.276967 4.61458e-19)
(0.917709 0.409472 -2.86918e-19)
(1.09816 0.494059 1.77889e-19)
(1.20344 0.537609 3.09934e-19)
(1.2565 0.551647 -6.73997e-20)
(1.27714 0.547093 7.70073e-20)
(1.27976 0.532327 9.19072e-20)
(1.27353 0.512886 1.54147e-19)
(1.26363 0.491994 -1.84835e-19)
(1.25272 0.471308 8.98291e-20)
(1.24196 0.451563 -6.66682e-20)
(1.2318 0.433013 2.94531e-19)
(1.22236 0.415692 1.37141e-19)
(1.21372 0.39956 -3.03561e-19)
(1.20596 0.384544 1.72289e-19)
(1.19917 0.370603 8.52369e-20)
(1.19333 0.357877 -1.66819e-19)
(1.18834 0.346562 4.50556e-19)
(1.18468 0.335262 -3.38356e-19)
(0.259357 0.117657 -3.23439e-19)
(0.64697 0.306343 -4.22071e-19)
(0.917156 0.44423 3.00821e-19)
(1.08908 0.528078 -2.7636e-19)
(1.18668 0.568115 -2.41328e-20)
(1.23422 0.57795 -3.17003e-19)
(1.25163 0.569555 2.60775e-19)
(1.25286 0.551666 5.05644e-19)
(1.24648 0.529806 -7.06653e-19)
(1.23717 0.507048 3.66627e-20)
(1.22721 0.48489 3.05479e-20)
(1.21755 0.463944 -1.52901e-19)
(1.20849 0.444382 1.00902e-19)
(1.20011 0.426188 -4.72291e-20)
(1.19245 0.409284 3.29608e-19)
(1.18559 0.393582 -3.56127e-19)
(1.17962 0.379036 -1.32871e-19)
(1.17454 0.365791 3.37163e-19)
(1.17028 0.354023 -5.2974e-19)
(1.1674 0.342302 3.35345e-19)
(0.263359 0.131351 6.73831e-19)
(0.648619 0.334958 6.01747e-19)
(0.911331 0.477351 -1.00646e-19)
(1.07475 0.559876 -1.31747e-20)
(1.16527 0.596165 -3.14378e-19)
(1.20807 0.601813 1.33669e-19)
(1.22301 0.589727 6.91412e-19)
(1.22347 0.568902 -6.13097e-19)
(1.21741 0.544794 4.0673e-19)
(1.20902 0.520308 -3.88032e-20)
(1.20025 0.496784 2.63776e-19)
(1.19186 0.47472 -5.7778e-20)
(1.18407 0.454213 1.65748e-19)
(1.17689 0.4352 2.28983e-19)
(1.17031 0.417575 -1.17693e-19)
(1.16443 0.401229 1.63683e-19)
(1.15935 0.386114 -2.51795e-19)
(1.15511 0.372381 6.37192e-19)
(1.15164 0.360185 -4.17692e-19)
(1.1496 0.348107 3.03361e-19)
(0.265454 0.144835 -3.31436e-19)
(0.646056 0.3624 -6.2098e-19)
(0.900442 0.508407 -4.30716e-19)
(1.05549 0.589091 -3.42447e-20)
(1.13956 0.621476 1.06702e-19)
(1.17841 0.623017 -5.70509e-20)
(1.19159 0.607426 -3.89721e-19)
(1.19184 0.583871 -1.79013e-19)
(1.1865 0.557696 -3.42243e-19)
(1.17931 0.531625 -1.88224e-19)
(1.17194 0.506844 9.23284e-20)
(1.165 0.483746 -4.46092e-19)
(1.15861 0.462363 -1.18316e-19)
(1.15274 0.442592 -1.23071e-19)
(1.14738 0.424298 -3.81703e-19)
(1.14257 0.407356 1.7075e-19)
(1.13846 0.39171 -8.78e-21)
(1.1351 0.377511 1.74883e-19)
(1.13251 0.364905 -7.33518e-20)
(1.13137 0.352531 -2.98572e-19)
(0.265619 0.1579 7.65379e-19)
(0.639387 0.388277 6.68144e-19)
(0.884755 0.537002 8.44994e-19)
(1.03166 0.615395 -8.74712e-20)
(1.10994 0.643793 -3.26307e-19)
(1.14559 0.641362 9.51649e-19)
(1.15765 0.622487 -4.97218e-19)
(1.15819 0.596425 5.67531e-19)
(1.15392 0.568372 -1.11357e-19)
(1.14818 0.540861 3.71537e-19)
(1.14239 0.514933 3.98979e-20)
(1.13703 0.490886 2.08215e-19)
(1.13218 0.468697 -4.88683e-20)
(1.12776 0.448229 2.28839e-19)
(1.12372 0.429321 -2.15584e-19)
(1.1201 0.411829 -1.82295e-21)
(1.11703 0.395689 1.07196e-19)
(1.11462 0.381042 1.87921e-19)
(1.11296 0.368036 -4.07889e-20)
(1.11276 0.355433 1.26926e-19)
(0.263866 0.170338 -2.36265e-19)
(0.628777 0.412215 -6.7374e-19)
(0.864578 0.562772 -4.12505e-19)
(1.00364 0.638494 -7.33851e-19)
(1.0768 0.662892 8.08851e-19)
(1.10995 0.656673 -6.00053e-19)
(1.12148 0.634762 3.93175e-19)
(1.12273 0.606431 -1.30724e-19)
(1.11983 0.576693 -1.85508e-19)
(1.11574 0.547892 -1.35506e-19)
(1.11167 0.520928 6.90038e-20)
(1.10803 0.496016 1.172e-19)
(1.10483 0.473087 1.18042e-19)
(1.10198 0.451978 -1.36113e-19)
(1.09939 0.432507 -1.29708e-19)
(1.09707 0.414512 4.14247e-19)
(1.09515 0.397912 -1.7208e-20)
(1.09376 0.382831 -2.10999e-19)
(1.09308 0.369441 -5.40857e-21)
(1.09384 0.356699 -7.61198e-20)
(0.260235 0.181947 1.067e-18)
(0.61444 0.433873 5.07527e-19)
(0.840263 0.585392 4.74816e-19)
(0.971855 0.65813 -2.90093e-19)
(1.04054 0.678579 3.95868e-20)
(1.07183 0.668799 4.29303e-19)
(1.08336 0.644125 6.63504e-20)
(1.08569 0.613772 1.5809e-19)
(1.08441 0.582551 1.84784e-19)
(1.08213 0.552612 3.659e-20)
(1.07991 0.524724 1.29942e-19)
(1.07807 0.49903 -5.05876e-21)
(1.07662 0.475422 -4.52108e-20)
(1.07545 0.453718 -2.37228e-19)
(1.07445 0.433723 4.66905e-20)
(1.07357 0.415261 3.24509e-21)
(1.0729 0.398227 -4.069e-22)
(1.07262 0.382718 1.64692e-20)
(1.07297 0.368955 -7.12424e-20)
(1.07473 0.356189 9.66079e-20)
(0.254799 0.19254 -7.77481e-19)
(0.596637 0.45294 -6.77207e-19)
(0.812195 0.604578 3.37169e-19)
(0.936718 0.674084 -4.28986e-19)
(1.00155 0.690691 -2.82739e-20)
(1.03158 0.677614 8.4657e-20)
(1.04356 0.65047 -7.7648e-20)
(1.0473 0.618355 -5.37404e-20)
(1.04784 0.585858 -1.74836e-19)
(1.0475 0.554939 -1.06011e-19)
(1.0472 0.526244 1.74036e-20)
(1.04722 0.499849 -1.65e-19)
(1.04758 0.475619 4.27035e-20)
(1.04819 0.453356 -5.81854e-20)
(1.0489 0.432859 1.85569e-20)
(1.04963 0.413947 8.11028e-20)
(1.05037 0.396491 4.49745e-20)
(1.0513 0.380522 3.95027e-20)
(1.05284 0.36631 5.56874e-21)
(1.05587 0.353547 -4.90068e-20)
(0.247659 0.201939 7.4847e-19)
(0.575667 0.469141 1.4785e-20)
(0.780787 0.620088 -6.3248e-20)
(0.89867 0.686175 7.89189e-20)
(0.960255 0.699098 3.41966e-19)
(0.989561 0.68302 -2.34578e-19)
(1.00239 0.653716 1.55551e-19)
(1.00778 0.62011 -1.86383e-19)
(1.01029 0.586552 9.88389e-20)
(1.01198 0.554816 -6.38996e-20)
(1.01365 0.525435 4.11457e-20)
(1.01555 0.498421 2.16218e-20)
(1.01774 0.473614 -3.61144e-20)
(1.02016 0.450809 -8.42029e-22)
(1.0227 0.429809 3.83718e-20)
(1.0252 0.410447 -5.21154e-20)
(1.02758 0.392565 7.87499e-21)
(1.03001 0.376051 -2.87839e-21)
(1.03315 0.361113 -1.86065e-20)
(1.03798 0.348136 1.68689e-20)
(0.238941 0.209989 -1.54638e-19)
(0.551863 0.482242 1.61336e-19)
(0.746472 0.631721 1.48278e-19)
(0.858162 0.69426 -2.28775e-19)
(0.917056 0.703702 1.28712e-19)
(0.946115 0.684945 -2.24178e-19)
(0.960129 0.653809 -1.06955e-20)
(0.967383 0.618993 -2.82137e-20)
(0.971983 0.584601 -2.76268e-20)
(0.975741 0.552226 9.80288e-21)
(0.979369 0.522286 -3.33026e-20)
(0.983119 0.494734 -3.72672e-20)
(0.987074 0.469377 -4.08401e-21)
(0.99125 0.445995 -4.31744e-20)
(0.9956 0.424402 3.96773e-20)
(0.999974 0.404465 3.09564e-20)
(1.00421 0.386019 -2.332e-20)
(1.00858 0.368716 -1.38365e-22)
(1.01405 0.35256 5.2023e-20)
(1.02101 0.339035 -1.87988e-20)
(0.228794 0.216551 -5.29207e-20)
(0.525584 0.492049 1.38939e-19)
(0.709703 0.639323 -1.82654e-19)
(0.815649 0.698234 2.49794e-19)
(0.872369 0.704433 3.14296e-20)
(0.901601 0.683345 -1.05202e-19)
(0.917081 0.650718 -2.176e-20)
(0.926362 0.614989 2.15981e-20)
(0.933123 0.58001 -1.97035e-20)
(0.938963 0.547199 -1.46321e-21)
(0.944511 0.516867 1.31024e-20)
(0.950007 0.488899 -7.1647e-21)
(0.955561 0.463047 3.6869e-20)
(0.961254 0.439044 -4.54775e-20)
(0.967123 0.416665 4.7747e-20)
(0.973077 0.395767 -9.21641e-20)
(0.979012 0.376126 1.12865e-19)
(0.985407 0.357048 -9.99373e-20)
(0.993306 0.338288 -5.3365e-20)
(1.0015 0.323487 1.09348e-19)
(0.217387 0.22151 1.0786e-19)
(0.497212 0.498409 3.87416e-20)
(0.670942 0.642777 6.00232e-20)
(0.771592 0.698025 4.58411e-20)
(0.826612 0.701253 -5.46043e-20)
(0.856382 0.678196 1.53111e-20)
(0.873561 0.644431 -1.36471e-20)
(0.884995 0.6081 7.78305e-21)
(0.893967 0.572804 2.41346e-20)
(0.901889 0.5398 -5.07613e-20)
(0.909311 0.509308 7.93326e-20)
(0.916446 0.481156 -2.59673e-20)
(0.923397 0.455048 7.01131e-20)
(0.930251 0.430655 -1.0782e-19)
(0.937061 0.407663 2.30162e-19)
(0.943782 0.385804 -4.56186e-20)
(0.950441 0.364627 -1.23707e-20)
(0.957773 0.342755 1.6638e-19)
(0.966587 0.318126 -7.89897e-20)
(0.97141 0.293583 4.76028e-20)
(0.204902 0.224774 4.62092e-20)
(0.467139 0.501212 -1.72395e-19)
(0.630657 0.64201 -2.05309e-20)
(0.72645 0.693597 -4.34495e-20)
(0.780199 0.694146 9.21838e-21)
(0.810821 0.669494 -6.78251e-20)
(0.82989 0.63495 9.45815e-20)
(0.843574 0.598331 1.00128e-20)
(0.854797 0.562996 -1.24411e-20)
(0.864806 0.530057 6.7248e-21)
(0.87409 0.499665 5.02843e-20)
(0.882834 0.471625 8.99744e-20)
(0.89112 0.44564 5.00393e-20)
(0.898987 0.421406 -1.24161e-19)
(0.906425 0.398656 -4.23433e-20)
(0.913373 0.377192 2.85999e-21)
(0.919958 0.356731 2.98017e-20)
(0.926843 0.33652 6.91897e-21)
(0.933941 0.315803 2.90354e-19)
(0.936154 0.296913 -2.00868e-19)
(0.191531 0.226269 -2.11905e-20)
(0.435766 0.500379 5.73397e-20)
(0.589314 0.636985 -6.23127e-20)
(0.680678 0.684944 1.08134e-19)
(0.733541 0.683124 6.75981e-20)
(0.76528 0.657255 -1.2565e-19)
(0.786389 0.622289 1.32683e-19)
(0.802394 0.585696 -4.08676e-20)
(0.815893 0.550595 1.29259e-19)
(0.827997 0.517968 6.97696e-20)
(0.83915 0.487905 -2.73257e-19)
(0.849534 0.46019 -2.80365e-20)
(0.859237 0.434525 3.99189e-19)
(0.868298 0.410617 -4.92614e-19)
(0.876696 0.38821 4.55638e-19)
(0.88436 0.367095 1.62996e-19)
(0.891375 0.346973 -5.66781e-19)
(0.898197 0.327217 2.81456e-19)
(0.90463 0.307516 -5.37882e-20)
(0.906854 0.29051 6.67649e-20)
(0.177475 0.225948 -1.18448e-19)
(0.403499 0.495878 -1.31545e-19)
(0.547377 0.627701 8.77419e-20)
(0.634724 0.672092 -1.40378e-19)
(0.68704 0.66822 -4.41087e-19)
(0.720114 0.641511 -2.98766e-20)
(0.743377 0.606477 -1.35552e-19)
(0.761748 0.57022 -5.43462e-21)
(0.777534 0.535626 -3.04615e-19)
(0.791726 0.503561 -3.1055e-19)
(0.804735 0.474068 -2.22521e-19)
(0.816746 0.446921 -1.06089e-20)
(0.827856 0.421834 -5.34894e-19)
(0.838121 0.398536 -1.35924e-20)
(0.847547 0.376805 2.64963e-19)
(0.856104 0.356471 -2.61215e-19)
(0.863883 0.337301 -2.08362e-19)
(0.871254 0.318817 2.01457e-19)
(0.878013 0.300823 -1.42494e-19)
(0.881043 0.285393 2.74558e-20)
(0.162939 0.223783 1.34363e-19)
(0.37074 0.487708 1.03055e-19)
(0.505302 0.614196 -1.28281e-20)
(0.589023 0.655095 -1.22292e-19)
(0.641089 0.649493 2.44751e-19)
(0.675672 0.622316 4.34661e-19)
(0.701166 0.587556 -4.89001e-20)
(0.721927 0.551931 3.08217e-23)
(0.739997 0.518103 7.61972e-20)
(0.756273 0.48683 1.96977e-19)
(0.771146 0.458119 2.93172e-19)
(0.784806 0.431738 -2.44978e-19)
(0.79737 0.407411 2.31938e-19)
(0.80891 0.384881 -8.73746e-20)
(0.819456 0.363941 2.77396e-19)
(0.82901 0.344433 -1.09081e-19)
(0.837695 0.326151 -2.78455e-19)
(0.845878 0.308723 1.62861e-19)
(0.853388 0.29208 -2.39909e-19)
(0.857504 0.277963 -2.70079e-19)
(0.148129 0.219771 8.90639e-20)
(0.337883 0.475907 1.46681e-19)
(0.463529 0.59654 -1.5144e-19)
(0.543997 0.634038 -2.08714e-21)
(0.596065 0.627026 2.64802e-20)
(0.632286 0.599742 2.3214e-19)
(0.660056 0.565585 -3.34703e-19)
(0.683202 0.530876 3.15184e-19)
(0.703536 0.49806 -3.53741e-20)
(0.721874 0.467797 8.49324e-20)
(0.738595 0.440063 1.43426e-19)
(0.753909 0.414627 -2.74489e-19)
(0.767951 0.391223 1.26255e-19)
(0.78082 0.369611 1.21982e-19)
(0.792573 0.3496 4.58921e-20)
(0.803243 0.331038 -2.33808e-19)
(0.81298 0.313738 7.86815e-19)
(0.822143 0.297381 -4.45456e-19)
(0.830558 0.281935 8.01799e-19)
(0.83581 0.268842 -5.22209e-20)
(0.133248 0.213926 7.36319e-20)
(0.305314 0.460543 3.72636e-19)
(0.422486 0.574835 1.39856e-19)
(0.50005 0.609035 2.71896e-19)
(0.552329 0.600925 7.63784e-20)
(0.590278 0.573881 -4.48246e-19)
(0.620335 0.540642 6.99113e-19)
(0.645838 0.507119 3.6737e-19)
(0.668395 0.475544 1.65411e-20)
(0.688757 0.446492 4.74981e-19)
(0.707301 0.419914 8.18028e-20)
(0.724252 0.395578 4.90805e-20)
(0.739772 0.373231 2.82813e-19)
(0.753984 0.352646 -1.0787e-19)
(0.766971 0.33364 -1.09e-19)
(0.7788 0.31607 6.59839e-19)
(0.789643 0.299757 -5.47102e-19)
(0.799847 0.284428 2.06066e-20)
(0.809231 0.270069 6.95282e-19)
(0.815642 0.257865 -8.18078e-22)
(0.118496 0.206283 -8.24162e-19)
(0.273402 0.44172 -1.22933e-19)
(0.38258 0.549218 -1.80539e-19)
(0.457566 0.580224 -1.42179e-19)
(0.510226 0.571321 -3.69517e-19)
(0.549952 0.544849 1.26261e-19)
(0.582272 0.512825 -1.7962e-19)
(0.610079 0.480739 5.80971e-20)
(0.634799 0.450621 -2.6041e-19)
(0.65713 0.422966 -2.39613e-19)
(0.677452 0.397704 5.70525e-20)
(0.69601 0.37461 -3.93992e-19)
(0.712989 0.353442 3.1984e-19)
(0.728538 0.333983 -1.15973e-19)
(0.742763 0.31606 3.55173e-19)
(0.755758 0.299533 -7.67173e-19)
(0.767714 0.284234 -1.46695e-19)
(0.778959 0.269921 -2.76003e-19)
(0.789309 0.256586 -7.37225e-19)
(0.796861 0.245191 -1.19667e-19)
(0.104064 0.196897 1.31782e-19)
(0.242501 0.419567 -1.13238e-20)
(0.344195 0.519853 -2.16298e-19)
(0.416908 0.547775 7.6996e-20)
(0.470079 0.53837 -1.5542e-19)
(0.511593 0.512782 -1.29917e-21)
(0.546125 0.482251 2.08793e-19)
(0.576157 0.451839 -3.13914e-19)
(0.602958 0.423377 1.20192e-19)
(0.627185 0.39729 -7.02485e-20)
(0.649222 0.373494 2.07601e-20)
(0.669334 0.351768 -3.50121e-19)
(0.687731 0.331884 -4.23547e-19)
(0.704582 0.313638 -1.65187e-20)
(0.720018 0.296863 4.71047e-19)
(0.734156 0.281426 2.08528e-20)
(0.747198 0.267166 5.94258e-19)
(0.759451 0.253872 -8.68331e-19)
(0.770738 0.241532 4.59465e-19)
(0.779399 0.230916 7.96842e-19)
(0.0901367 0.185839 -1.24505e-19)
(0.212944 0.394246 6.67724e-20)
(0.307695 0.486932 4.36181e-19)
(0.378416 0.51188 1.08768e-19)
(0.432191 0.502248 -1.45036e-19)
(0.47547 0.477837 1.15353e-19)
(0.51213 0.449059 4.50745e-19)
(0.544287 0.420539 -3.67398e-19)
(0.573068 0.393918 3.38116e-20)
(0.599097 0.369557 -1.33645e-19)
(0.622768 0.347362 4.81709e-19)
(0.644364 0.327121 3.43965e-19)
(0.664118 0.30862 -5.00449e-20)
(0.682218 0.291666 -5.18191e-19)
(0.698817 0.276104 2.82971e-20)
(0.714051 0.261802 -6.39817e-20)
(0.728128 0.248615 3.03991e-19)
(0.741336 0.236354 4.93194e-19)
(0.753514 0.225002 4.29297e-19)
(0.763238 0.215161 -7.19862e-19)
(0.076888 0.173198 -8.01942e-20)
(0.185045 0.365942 3.40785e-19)
(0.273416 0.450675 -3.29823e-19)
(0.342404 0.472756 4.63053e-19)
(0.396843 0.463155 -2.48717e-19)
(0.441829 0.440194 1.81717e-19)
(0.48051 0.413407 4.54849e-19)
(0.514667 0.38698 -5.49045e-19)
(0.545308 0.362369 2.5001e-19)
(0.57303 0.339879 3.15111e-19)
(0.598236 0.319409 -4.26317e-19)
(0.62123 0.300761 -2.836e-20)
(0.642262 0.283732 -3.38949e-19)
(0.661541 0.268146 5.46345e-19)
(0.679237 0.253855 -2.946e-19)
(0.695503 0.240737 3.15854e-19)
(0.710549 0.228657 -5.59736e-20)
(0.724646 0.217452 1.9583e-19)
(0.737657 0.207094 4.52584e-20)
(0.748387 0.198046 -1.13598e-19)
(0.0644801 0.159076 -2.49895e-19)
(0.159092 0.334866 -5.68812e-19)
(0.24167 0.411327 1.49549e-19)
(0.309164 0.430643 -4.78925e-19)
(0.364291 0.421313 -4.54204e-19)
(0.410898 0.400049 -3.26737e-19)
(0.451466 0.375472 2.5388e-19)
(0.48748 0.351321 1.94609e-19)
(0.519842 0.328875 -7.91885e-22)
(0.549132 0.308387 -1.68948e-19)
(0.575761 0.289756 -3.06329e-19)
(0.60005 0.272797 2.75056e-19)
(0.622267 0.257324 -9.46113e-20)
(0.64264 0.243174 -4.65173e-19)
(0.661353 0.230213 3.01643e-19)
(0.678573 0.218326 -2.26332e-19)
(0.694513 0.207392 -9.17804e-20)
(0.709423 0.19727 -2.57512e-19)
(0.723203 0.187922 -2.31422e-19)
(0.734872 0.179693 6.018e-20)
(0.0530625 0.143592 2.17887e-19)
(0.13535 0.301252 1.11968e-19)
(0.212738 0.369155 1.72223e-19)
(0.278957 0.385802 -5.91667e-19)
(0.334769 0.37696 6.32006e-19)
(0.382884 0.35762 1.0665e-21)
(0.425183 0.335449 4.51851e-21)
(0.462891 0.313738 -3.82629e-19)
(0.496822 0.293596 3.5656e-19)
(0.527539 0.27523 -2.48695e-19)
(0.555463 0.25854 7.32783e-20)
(0.580932 0.243358 -3.30221e-19)
(0.604231 0.229516 -1.56877e-19)
(0.6256 0.216868 -7.4509e-20)
(0.645239 0.205291 5.62035e-19)
(0.663327 0.19468 -2.75226e-19)
(0.680075 0.184929 -2.48484e-19)
(0.695718 0.175917 2.53837e-19)
(0.710196 0.1676 -2.08401e-19)
(0.722727 0.160225 1.6264e-19)
(0.0427707 0.126877 4.69932e-19)
(0.114057 0.265355 -2.84066e-19)
(0.186874 0.324447 4.21872e-20)
(0.252019 0.338514 4.95057e-19)
(0.308487 0.330355 1.97189e-19)
(0.357971 0.313138 2.43041e-19)
(0.401825 0.293547 2.4162e-19)
(0.441048 0.274424 5.11019e-19)
(0.47638 0.25671 -1.16554e-19)
(0.508371 0.24057 2.78789e-19)
(0.537452 0.225913 4.03729e-19)
(0.563976 0.212588 1.48381e-19)
(0.588241 0.200445 2.6763e-19)
(0.6105 0.189357 9.68467e-20)
(0.630966 0.179212 5.61283e-20)
(0.649827 0.169921 -4.08855e-20)
(0.667292 0.16139 3.29127e-19)
(0.683584 0.153516 2.02234e-19)
(0.698682 0.146251 -1.83949e-19)
(0.711991 0.139766 1.73907e-19)
(0.0337254 0.109075 -3.13126e-19)
(0.0954222 0.227448 3.45458e-20)
(0.164302 0.277511 -9.01747e-20)
(0.228556 0.289077 -2.74398e-19)
(0.285629 0.28177 -1.44148e-19)
(0.336322 0.266852 -2.62926e-19)
(0.381538 0.249993 1.22993e-19)
(0.422083 0.233584 -4.71353e-19)
(0.458636 0.218405 2.78452e-19)
(0.491737 0.204585 -3.83596e-19)
(0.521827 0.19204 -2.37317e-19)
(0.549269 0.18064 -3.1356e-19)
(0.574376 0.170257 7.18137e-20)
(0.59741 0.16078 -7.07259e-20)
(0.618596 0.152114 8.37191e-20)
(0.63813 0.14418 4.49788e-20)
(0.656217 0.136901 8.92654e-20)
(0.673069 0.130191 -7.48705e-19)
(0.688708 0.124001 3.72286e-19)
(0.702701 0.118444 -2.23357e-19)
(0.0260313 0.09034 1.04252e-19)
(0.0796282 0.187821 2.10174e-19)
(0.145213 0.22867 -1.36894e-19)
(0.208747 0.237802 3.38245e-19)
(0.266351 0.231494 -5.34601e-20)
(0.318077 0.219021 3.90275e-19)
(0.364447 0.205024 7.58964e-20)
(0.406109 0.191437 -7.87206e-20)
(0.443692 0.178884 2.86967e-19)
(0.47773 0.167461 2.18401e-19)
(0.50867 0.157097 8.10416e-20)
(0.536889 0.147682 1.05949e-19)
(0.562706 0.139109 5.29229e-20)
(0.586395 0.131288 -2.25112e-19)
(0.608188 0.124139 -3.10341e-20)
(0.628288 0.117597 2.33619e-19)
(0.646898 0.111599 -1.59587e-19)
(0.66422 0.106077 -7.91368e-21)
(0.680316 0.100982 -3.32615e-19)
(0.694892 0.0963858 6.69867e-19)
(0.0197761 0.0708346 2.80903e-19)
(0.0668266 0.146777 -3.35993e-19)
(0.129769 0.178262 1.57908e-19)
(0.19274 0.185015 -2.22279e-19)
(0.250786 0.179824 1.96604e-19)
(0.303351 0.169919 -3.40236e-19)
(0.350655 0.158887 -2.48698e-19)
(0.393219 0.14821 1.86546e-20)
(0.431633 0.138357 -3.3764e-19)
(0.466427 0.129397 -2.1019e-19)
(0.498054 0.121269 -3.62673e-19)
(0.526899 0.113886 -1.18547e-20)
(0.553289 0.107167 -1.40416e-19)
(0.577507 0.101039 3.54915e-19)
(0.59979 0.0954392 2.43786e-19)
(0.620348 0.0903174 -8.20758e-20)
(0.639379 0.0856248 -7.4122e-20)
(0.657079 0.0813086 -3.50904e-21)
(0.673543 0.0773275 9.16388e-21)
(0.688596 0.0737219 1.32959e-19)
(0.0150304 0.0507296 -7.02707e-20)
(0.0571386 0.104632 -2.40718e-19)
(0.118096 0.126634 -1.49921e-19)
(0.180653 0.131052 -9.37071e-20)
(0.239038 0.127069 -1.93862e-19)
(0.292239 0.119824 3.31486e-19)
(0.340245 0.111838 -3.59085e-20)
(0.383488 0.104139 -7.9614e-20)
(0.422527 0.0970444 3.1113e-21)
(0.45789 0.0905954 2.32727e-19)
(0.490034 0.0847466 -2.20778e-19)
(0.519351 0.0794353 2.15516e-19)
(0.546174 0.0746021 1.00771e-19)
(0.57079 0.0701951 -1.83644e-19)
(0.593444 0.0661704 4.01572e-20)
(0.614346 0.0624908 1.17527e-19)
(0.633694 0.0591223 4.05935e-20)
(0.651678 0.0560275 -2.86425e-20)
(0.668421 0.0531742 -2.46143e-19)
(0.683838 0.0505834 1.96047e-19)
(0.0118464 0.0302017 6.35836e-20)
(0.0506542 0.0617095 7.70014e-20)
(0.11029 0.0741467 2.16101e-20)
(0.172573 0.0762579 -1.62519e-20)
(0.231184 0.0735455 4.64623e-20)
(0.284807 0.0690251 7.08842e-20)
(0.33328 0.0641418 2.68581e-20)
(0.376972 0.0594677 3.27707e-20)
(0.416426 0.0551713 -6.9255e-20)
(0.452166 0.0512684 1.2973e-19)
(0.484654 0.0477289 -3.05861e-20)
(0.514284 0.0445148 -2.42517e-21)
(0.541395 0.0415907 3.0888e-20)
(0.566277 0.0389255 3.47987e-20)
(0.589177 0.0364931 -9.3308e-20)
(0.61031 0.0342714 6.15094e-20)
(0.62987 0.0322402 4.01928e-20)
(0.648044 0.0303772 3.42926e-20)
(0.664973 0.0286617 7.33043e-20)
(0.680637 0.0271032 3.02813e-20)
(0.0102581 0.00943151 -1.3035e-20)
(0.0474312 0.0183411 2.70854e-20)
(0.106411 0.0211627 -3.78601e-20)
(0.168556 0.0209813 2.37843e-20)
(0.227275 0.0195744 1.39173e-20)
(0.281101 0.0178145 6.19857e-21)
(0.329798 0.0160651 1.46886e-20)
(0.373707 0.0144427 -4.20512e-20)
(0.413361 0.0129672 2.67948e-20)
(0.449285 0.01163 9.368e-21)
(0.48194 0.0104169 -5.12962e-22)
(0.511724 0.00931503 5.71864e-20)
(0.538976 0.00831293 -1.73735e-20)
(0.563989 0.00740094 -1.65941e-20)
(0.587011 0.00657081 -1.59148e-20)
(0.608258 0.00581563 2.47935e-21)
(0.627923 0.00512908 -2.11663e-20)
(0.646191 0.00450364 4.07997e-21)
(0.663214 0.00393135 7.92929e-22)
(0.679006 0.00341505 -2.67573e-21)
(0.0102805 -0.0113977 8.28267e-21)
(0.0474957 -0.025139 -4.40799e-20)
(0.106487 -0.0319496 5.25023e-20)
(0.168627 -0.034424 -3.94341e-20)
(0.227333 -0.0345199 -1.836e-20)
(0.281141 -0.0335125 5.49755e-20)
(0.329818 -0.0321214 4.56203e-21)
(0.373709 -0.0306862 1.24396e-21)
(0.413348 -0.0293356 2.55307e-20)
(0.449259 -0.0281028 1.31581e-20)
(0.481904 -0.0269856 -1.043e-20)
(0.51168 -0.0259721 -3.63879e-20)
(0.538926 -0.0250493 3.49874e-21)
(0.563934 -0.0242057 -3.1385e-21)
(0.586954 -0.0234315 3.37895e-20)
(0.608199 -0.0227183 -2.03089e-20)
(0.627862 -0.0220588 2.77738e-20)
(0.646129 -0.0214459 -4.16212e-20)
(0.663149 -0.0208741 4.92076e-23)
(0.678948 -0.0203453 -8.74476e-21)
(0.0119096 -0.0321021 -2.75307e-20)
(0.0508409 -0.0683953 1.38838e-19)
(0.11051 -0.0848213 9.34716e-20)
(0.172781 -0.0896041 6.17549e-20)
(0.231353 -0.0884126 7.69868e-20)
(0.28492 -0.0846599 -1.87608e-20)
(0.333335 -0.0801465 8.51156e-20)
(0.376974 -0.0756687 1.73132e-20)
(0.416383 -0.0715047 -7.69958e-21)
(0.452086 -0.0677126 -6.05316e-20)
(0.484544 -0.0642747 6.26285e-20)
(0.514151 -0.0611541 -8.49434e-20)
(0.541244 -0.0583139 6.16228e-20)
(0.566112 -0.0557213 7.04404e-20)
(0.589003 -0.0533485 9.29279e-20)
(0.61013 -0.051172 -6.11755e-20)
(0.629686 -0.049171 1.71581e-20)
(0.647854 -0.0473235 6.41772e-20)
(0.664779 -0.0456113 -6.06835e-20)
(0.680463 -0.0440416 4.58057e-20)
(0.0151228 -0.0524993 -2.66116e-19)
(0.0574279 -0.111094 -1.33477e-19)
(0.118439 -0.137085 -1.48389e-19)
(0.180979 -0.144207 -1.16673e-20)
(0.2393 -0.14178 -7.99529e-20)
(0.292411 -0.135333 -9.77971e-20)
(0.340323 -0.127741 1.72828e-19)
(0.383478 -0.120256 8.77811e-20)
(0.422443 -0.113309 1.07858e-19)
(0.457745 -0.106983 -1.17167e-19)
(0.48984 -0.101247 8.67062e-20)
(0.519119 -0.0960396 1.05541e-19)
(0.545913 -0.0912995 3.72053e-20)
(0.570507 -0.0869733 -3.52787e-20)
(0.593146 -0.0830156 7.4305e-21)
(0.614039 -0.079388 -1.52566e-20)
(0.633381 -0.0760557 -1.48126e-19)
(0.651357 -0.0729823 2.31494e-20)
(0.668092 -0.0701379 1.43569e-19)
(0.683544 -0.0675385 -1.92908e-19)
(0.0198786 -0.0724093 -8.7335e-20)
(0.0671855 -0.152906 1.29752e-19)
(0.130201 -0.188378 2.99067e-20)
(0.193152 -0.197883 -5.59103e-20)
(0.251114 -0.194302 -1.58014e-19)
(0.303559 -0.18524 -3.38057e-19)
(0.350733 -0.174637 -3.2128e-19)
(0.393177 -0.164202 -2.29606e-20)
(0.431489 -0.154519 -1.86283e-19)
(0.4662 -0.145701 -2.78228e-19)
(0.497761 -0.137703 2.15267e-19)
(0.526554 -0.13044 -3.17524e-19)
(0.552905 -0.123827 6.27309e-20)
(0.577094 -0.117792 -2.03197e-20)
(0.599358 -0.112271 -6.60454e-20)
(0.619905 -0.107211 -8.32316e-20)
(0.638929 -0.102563 1.35399e-19)
(0.656618 -0.0982774 1.07936e-19)
(0.673073 -0.0943135 1.85057e-19)
(0.688175 -0.0907033 -2.77194e-19)
(0.0261169 -0.0916573 4.7463e-20)
(0.0800108 -0.193509 4.5992e-19)
(0.145686 -0.238344 1.31538e-19)
(0.209202 -0.250291 3.17933e-19)
(0.266706 -0.245665 -1.18808e-19)
(0.318285 -0.234097 1.82502e-19)
(0.364494 -0.220575 -5.71978e-20)
(0.406008 -0.207266 3.69218e-19)
(0.443464 -0.194912 -1.89798e-19)
(0.477398 -0.183658 2.23371e-19)
(0.508256 -0.173446 1.9358e-19)
(0.536411 -0.16417 2.06567e-19)
(0.56218 -0.155722 -1.84575e-19)
(0.585835 -0.14801 1.58114e-19)
(0.607606 -0.140954 -2.19624e-19)
(0.627695 -0.134488 -6.02056e-20)
(0.646298 -0.128547 -1.43934e-19)
(0.663609 -0.123067 -6.08961e-20)
(0.679694 -0.118 2.41971e-19)
(0.694335 -0.113405 -4.00623e-19)
(0.0337598 -0.110075 -1.89798e-19)
(0.0957695 -0.23259 -2.25885e-20)
(0.164754 -0.286637 -7.55502e-20)
(0.228996 -0.301097 -2.65872e-19)
(0.285961 -0.295563 4.54678e-20)
(0.336487 -0.281624 -4.15639e-19)
(0.381517 -0.265299 -1.74235e-19)
(0.421887 -0.249214 -1.3431e-20)
(0.45829 -0.234271 -4.37547e-19)
(0.49127 -0.220651 -1.35377e-19)
(0.521264 -0.208287 -6.17974e-20)
(0.548633 -0.197051 -2.01964e-19)
(0.573686 -0.186815 -1.79242e-19)