/*--------------------------------*- C++ -*----------------------------------*\
  =========                 |
  \\      /  F ield         | OpenFOAM: The Open Source CFD Toolbox
   \\    /   O peration     | Website:  https://openfoam.org
    \\  /    A nd           | Version:  6.0
     \\/     M anipulation  |
\*---------------------------------------------------------------------------*/
FoamFile
{
    version     2.0;
    format      ascii;
    class       volScalarField;
    location    "9.6";
    object      p;
}
// * * * * * * * * * * * * * * * * * * * * * * * * * * * * * * * * * * * * * //

dimensions      [0 2 -2 0 0 0 0];

internalField   nonuniform List<scalar> 
8000
(
-0.307168
-0.308798
-0.309841
-0.310608
-0.31129
-0.311924
-0.312537
-0.313154
-0.313787
-0.314447
-0.315141
-0.315874
-0.316651
-0.31748
-0.318369
-0.319346
-0.320401
-0.321349
-0.322167
-0.324654
-0.307424
-0.309021
-0.310044
-0.310798
-0.311468
-0.312091
-0.312695
-0.313301
-0.313925
-0.314575
-0.315257
-0.315979
-0.316745
-0.317561
-0.318438
-0.319404
-0.32045
-0.321391
-0.322198
-0.32468
-0.307921
-0.309454
-0.310439
-0.311166
-0.311812
-0.312413
-0.312996
-0.313582
-0.314184
-0.314812
-0.315472
-0.316169
-0.316911
-0.317701
-0.318554
-0.319495
-0.320521
-0.321446
-0.322229
-0.3247
-0.308643
-0.310084
-0.311013
-0.3117
-0.31231
-0.312877
-0.313427
-0.313981
-0.31455
-0.315143
-0.315767
-0.316426
-0.317128
-0.317878
-0.318689
-0.319592
-0.320584
-0.321483
-0.322227
-0.324675
-0.309565
-0.310892
-0.31175
-0.312384
-0.312946
-0.313467
-0.313971
-0.314479
-0.315001
-0.315545
-0.316117
-0.316722
-0.317367
-0.318059
-0.318811
-0.319656
-0.320598
-0.321456
-0.322145
-0.324556
-0.310659
-0.311856
-0.312631
-0.3132
-0.313701
-0.314163
-0.314608
-0.315055
-0.315515
-0.315993
-0.316495
-0.317027
-0.317595
-0.318208
-0.318881
-0.319647
-0.320519
-0.321317
-0.321933
-0.324287
-0.311896
-0.312953
-0.313636
-0.31413
-0.314558
-0.314946
-0.315318
-0.315688
-0.316067
-0.316461
-0.316874
-0.317312
-0.317782
-0.318293
-0.318861
-0.319523
-0.3203
-0.321018
-0.321539
-0.323814
-0.313246
-0.314162
-0.314746
-0.315155
-0.315498
-0.3158
-0.316081
-0.316358
-0.316639
-0.316929
-0.317232
-0.317554
-0.317901
-0.318284
-0.31872
-0.319251
-0.319905
-0.320515
-0.32092
-0.323092
-0.314686
-0.315464
-0.315944
-0.316261
-0.316507
-0.316709
-0.316886
-0.317052
-0.317217
-0.317384
-0.317556
-0.317739
-0.317939
-0.318167
-0.318442
-0.31881
-0.319307
-0.319779
-0.320041
-0.322088
-0.316196
-0.316844
-0.31722
-0.317436
-0.317575
-0.317664
-0.317722
-0.317764
-0.317796
-0.317822
-0.317845
-0.317867
-0.317896
-0.317942
-0.318026
-0.318195
-0.318499
-0.318794
-0.318882
-0.320778
-0.317764
-0.318294
-0.318566
-0.318675
-0.318699
-0.318663
-0.31859
-0.318492
-0.318378
-0.31825
-0.318107
-0.317952
-0.31779
-0.317629
-0.317491
-0.317426
-0.317492
-0.317563
-0.317431
-0.319144
-0.319389
-0.319814
-0.319982
-0.319979
-0.319877
-0.319707
-0.319492
-0.319246
-0.318977
-0.318684
-0.318367
-0.318024
-0.317655
-0.317268
-0.31688
-0.316543
-0.316322
-0.316107
-0.315688
-0.317167
-0.321079
-0.32141
-0.321473
-0.321351
-0.321117
-0.320804
-0.320439
-0.320038
-0.319608
-0.319149
-0.318654
-0.318119
-0.317539
-0.316914
-0.316255
-0.315609
-0.315046
-0.314467
-0.31366
-0.314813
-0.322849
-0.323094
-0.323052
-0.322803
-0.322427
-0.321964
-0.321443
-0.320883
-0.320292
-0.319668
-0.319001
-0.31828
-0.317493
-0.316628
-0.315686
-0.314702
-0.313739
-0.312699
-0.31136
-0.312034
-0.324725
-0.324889
-0.324735
-0.324351
-0.323824
-0.323202
-0.322519
-0.321799
-0.321048
-0.320264
-0.319434
-0.31854
-0.317558
-0.316464
-0.315238
-0.313894
-0.312477
-0.310872
-0.308812
-0.308767
-0.326742
-0.326821
-0.326545
-0.326014
-0.325325
-0.324534
-0.323683
-0.322798
-0.321889
-0.320952
-0.31997
-0.318917
-0.317758
-0.316452
-0.314953
-0.313242
-0.311332
-0.309066
-0.306079
-0.304986
-0.328939
-0.328922
-0.32851
-0.327817
-0.326951
-0.325979
-0.324951
-0.323896
-0.322827
-0.321739
-0.320613
-0.319413
-0.318095
-0.316597
-0.314846
-0.31278
-0.310366
-0.307391
-0.303318
-0.300784
-0.331363
-0.33123
-0.330663
-0.329788
-0.328727
-0.327559
-0.326341
-0.325107
-0.323872
-0.322631
-0.321362
-0.320024
-0.31856
-0.31689
-0.314913
-0.312518
-0.309609
-0.305906
-0.300628
-0.296176
-0.334065
-0.333788
-0.333039
-0.33196
-0.330683
-0.3293
-0.327876
-0.32645
-0.32504
-0.32364
-0.322227
-0.32076
-0.319173
-0.317376
-0.315242
-0.312612
-0.309296
-0.304868
-0.298153
-0.291081
-0.337099
-0.33664
-0.335679
-0.334368
-0.332851
-0.331233
-0.329586
-0.327954
-0.326356
-0.324792
-0.323239
-0.321662
-0.320006
-0.318196
-0.316132
-0.313684
-0.310665
-0.306551
-0.29983
-0.291738
-0.340523
-0.339836
-0.338625
-0.337052
-0.33527
-0.333395
-0.331507
-0.329654
-0.327858
-0.326123
-0.324434
-0.322768
-0.321096
-0.319395
-0.317658
-0.31593
-0.314348
-0.313152
-0.313349
-0.321162
-0.344392
-0.343424
-0.341924
-0.340057
-0.337982
-0.335829
-0.333682
-0.331595
-0.329591
-0.327678
-0.32585
-0.324096
-0.322411
-0.32081
-0.319345
-0.318139
-0.317429
-0.317597
-0.319472
-0.326937
-0.348765
-0.347454
-0.345621
-0.343427
-0.341034
-0.338582
-0.336162
-0.333828
-0.331607
-0.329508
-0.327531
-0.325676
-0.323953
-0.322397
-0.321086
-0.320153
-0.319816
-0.320374
-0.322251
-0.327321
-0.353698
-0.351978
-0.349766
-0.347212
-0.344475
-0.341705
-0.338997
-0.336405
-0.333956
-0.331657
-0.32951
-0.327518
-0.325697
-0.324085
-0.322754
-0.321812
-0.321405
-0.321701
-0.322893
-0.325646
-0.359242
-0.357044
-0.354406
-0.351461
-0.348356
-0.34525
-0.342241
-0.339377
-0.33668
-0.334153
-0.331794
-0.329602
-0.32759
-0.325787
-0.324243
-0.323026
-0.322216
-0.321878
-0.322095
-0.322856
-0.365446
-0.362698
-0.359588
-0.356222
-0.352727
-0.349269
-0.345941
-0.342783
-0.339807
-0.337006
-0.334368
-0.331886
-0.329561
-0.327411
-0.325464
-0.323759
-0.322327
-0.321182
-0.320366
-0.319593
-0.372353
-0.368983
-0.365359
-0.361544
-0.357639
-0.353809
-0.350139
-0.346653
-0.343347
-0.3402
-0.337189
-0.334297
-0.331519
-0.328862
-0.326343
-0.323984
-0.321799
-0.319787
-0.317972
-0.316021
-0.379996
-0.375934
-0.371757
-0.367471
-0.363136
-0.35891
-0.354861
-0.350994
-0.347282
-0.343689
-0.340184
-0.336743
-0.33336
-0.330043
-0.326809
-0.32368
-0.320671
-0.317787
-0.315047
-0.312181
-0.388398
-0.383579
-0.378815
-0.374037
-0.36925
-0.364594
-0.360115
-0.355787
-0.351565
-0.347399
-0.343253
-0.339109
-0.334971
-0.330858
-0.326798
-0.322822
-0.318956
-0.31522
-0.31163
-0.308
-0.397564
-0.39193
-0.386553
-0.381266
-0.375998
-0.370864
-0.365877
-0.360982
-0.356114
-0.351221
-0.346274
-0.341272
-0.336241
-0.331218
-0.326251
-0.321386
-0.316659
-0.3121
-0.307722
-0.303413
-0.407481
-0.400985
-0.394975
-0.389159
-0.383372
-0.377691
-0.37209
-0.366489
-0.360813
-0.35502
-0.349107
-0.343103
-0.337061
-0.331047
-0.325126
-0.319356
-0.31378
-0.308432
-0.303316
-0.298371
-0.418108
-0.410715
-0.404058
-0.397692
-0.391331
-0.385007
-0.378655
-0.372178
-0.365511
-0.358642
-0.351606
-0.344475
-0.337337
-0.330282
-0.323389
-0.31672
-0.310321
-0.304221
-0.298411
-0.292858
-0.429378
-0.421066
-0.413755
-0.406808
-0.399798
-0.392702
-0.38543
-0.377885
-0.370035
-0.361918
-0.353625
-0.345275
-0.336987
-0.328871
-0.321013
-0.313473
-0.306287
-0.299475
-0.293009
-0.286877
-0.441183
-0.43195
-0.42398
-0.416407
-0.408646
-0.400621
-0.392234
-0.383415
-0.374193
-0.364679
-0.355025
-0.345396
-0.33594
-0.326773
-0.317979
-0.309606
-0.301678
-0.294197
-0.287118
-0.280438
-0.453382
-0.443241
-0.434608
-0.426348
-0.417704
-0.408564
-0.398847
-0.388549
-0.377788
-0.366757
-0.355676
-0.344748
-0.334134
-0.32395
-0.314264
-0.305108
-0.296487
-0.288387
-0.280736
-0.273552
-0.46579
-0.454772
-0.445468
-0.436439
-0.426754
-0.416289
-0.405025
-0.393059
-0.380621
-0.367995
-0.355461
-0.343246
-0.331512
-0.320362
-0.309841
-0.29996
-0.290702
-0.282034
-0.27386
-0.26622
-0.478181
-0.466335
-0.456345
-0.446441
-0.435533
-0.423525
-0.410505
-0.396712
-0.382501
-0.368246
-0.354271
-0.340812
-0.328019
-0.315968
-0.304679
-0.294135
-0.2843
-0.275119
-0.266472
-0.258433
-0.490289
-0.477678
-0.466979
-0.456074
-0.443744
-0.429976
-0.415019
-0.399282
-0.38325
-0.367376
-0.352007
-0.337373
-0.323597
-0.310722
-0.298738
-0.287599
-0.27725
-0.267615
-0.258549
-0.250172
-0.50181
-0.48851
-0.477068
-0.465017
-0.451062
-0.435337
-0.418303
-0.400554
-0.382704
-0.36526
-0.348577
-0.332857
-0.318188
-0.304574
-0.291972
-0.280312
-0.269515
-0.259488
-0.250062
-0.241412
-0.512409
-0.498506
-0.486277
-0.472924
-0.45715
-0.439305
-0.420101
-0.40033
-0.380711
-0.361786
-0.343891
-0.327192
-0.31173
-0.29747
-0.284334
-0.272227
-0.261055
-0.250701
-0.240976
-0.23212
-0.521727
-0.507312
-0.494245
-0.479433
-0.461669
-0.441587
-0.420181
-0.398429
-0.377136
-0.356849
-0.337869
-0.32031
-0.304163
-0.289354
-0.275773
-0.263301
-0.251826
-0.241213
-0.231255
-0.222263
-0.529388
-0.514558
-0.500593
-0.484177
-0.464289
-0.44191
-0.41833
-0.394693
-0.37186
-0.350357
-0.330432
-0.312142
-0.295427
-0.280173
-0.266238
-0.253485
-0.241787
-0.230986
-0.220863
-0.211808
-0.535013
-0.519864
-0.504945
-0.486799
-0.464701
-0.440029
-0.414361
-0.388984
-0.364777
-0.342224
-0.321509
-0.302626
-0.285465
-0.269873
-0.255683
-0.242739
-0.230899
-0.219985
-0.209768
-0.200724
-0.538227
-0.522856
-0.506933
-0.486964
-0.462628
-0.435729
-0.408118
-0.381184
-0.355796
-0.332376
-0.311036
-0.291705
-0.274226
-0.258409
-0.244066
-0.231023
-0.219127
-0.208179
-0.197943
-0.188986
-0.538676
-0.523177
-0.506211
-0.48437
-0.45783
-0.428833
-0.399471
-0.371198
-0.344844
-0.320753
-0.298959
-0.27933
-0.261664
-0.245741
-0.231351
-0.218307
-0.206443
-0.195543
-0.185368
-0.176574
-0.536029
-0.520495
-0.502468
-0.478755
-0.450106
-0.419198
-0.388321
-0.358954
-0.331863
-0.307303
-0.285233
-0.26546
-0.247744
-0.231837
-0.21751
-0.204566
-0.192828
-0.18206
-0.172027
-0.163476
-0.529996
-0.514519
-0.495439
-0.469905
-0.439305
-0.406722
-0.374599
-0.344401
-0.316811
-0.291992
-0.269826
-0.250068
-0.232441
-0.216674
-0.202525
-0.189785
-0.178269
-0.167722
-0.157917
-0.149688
-0.520334
-0.505003
-0.484907
-0.45766
-0.425319
-0.391339
-0.358264
-0.327512
-0.299667
-0.2748
-0.25272
-0.233136
-0.215739
-0.200241
-0.186385
-0.173957
-0.162763
-0.152529
-0.143041
-0.135213
-0.506852
-0.491757
-0.470715
-0.441912
-0.408091
-0.373024
-0.339306
-0.308282
-0.280427
-0.255721
-0.233909
-0.214658
-0.197635
-0.182535
-0.169092
-0.157087
-0.146315
-0.13649
-0.12741
-0.120061
-0.48942
-0.474651
-0.452766
-0.422612
-0.387609
-0.351787
-0.317745
-0.28673
-0.259107
-0.234769
-0.213404
-0.194644
-0.178137
-0.163564
-0.150655
-0.139184
-0.12894
-0.119625
-0.11105
-0.104262
-0.467969
-0.45362
-0.431025
-0.399767
-0.36391
-0.327677
-0.293629
-0.262899
-0.235743
-0.211973
-0.191228
-0.173114
-0.157261
-0.143345
-0.13109
-0.120268
-0.110662
-0.101961
-0.0939949
-0.0878558
-0.442498
-0.428663
-0.405522
-0.373439
-0.337072
-0.300777
-0.267036
-0.236858
-0.210392
-0.18738
-0.167421
-0.150099
-0.135036
-0.121902
-0.110419
-0.100361
-0.0915009
-0.0835256
-0.0762824
-0.0708883
-0.413069
-0.399845
-0.376347
-0.34374
-0.30722
-0.271205
-0.238072
-0.208698
-0.183132
-0.161055
-0.142035
-0.125644
-0.111497
-0.099264
-0.0886689
-0.0794834
-0.0714806
-0.0643464
-0.0579454
-0.0533824
-0.37981
-0.367294
-0.343646
-0.310835
-0.274518
-0.239115
-0.206872
-0.178535
-0.154061
-0.133081
-0.11514
-0.0998029
-0.0866862
-0.0754637
-0.0658624
-0.0576568
-0.050621
-0.0444485
-0.0390074
-0.0353273
-0.34291
-0.3312
-0.307625
-0.274934
-0.239166
-0.204691
-0.173601
-0.146513
-0.123303
-0.103562
-0.0868201
-0.0726428
-0.0606531
-0.0505333
-0.0420192
-0.034892
-0.0289332
-0.0238465
-0.0194783
-0.0167225
-0.302615
-0.291808
-0.268535
-0.236289
-0.201404
-0.168149
-0.13845
-0.112801
-0.0910051
-0.072623
-0.0571797
-0.044246
-0.0334571
-0.0245099
-0.0171559
-0.0111894
-0.00640442
-0.00252207
0.000634375
0.0022944
-0.259225
-0.249415
-0.226676
-0.19519
-0.161502
-0.129735
-0.101641
-0.0775949
-0.0573402
-0.0404149
-0.0263449
-0.0147131
-0.00517266
0.00255651
0.00869912
0.0134446
0.0169817
0.0195319
0.021205
0.0213088
-0.213083
-0.20436
-0.182386
-0.151961
-0.11976
-0.0897223
-0.0634211
-0.0411195
-0.0225087
-0.00711173
0.00553964
0.0158461
0.0241292
0.0306353
0.0355541
0.0390533
0.0412796
0.042273
0.0419067
0.039873
-0.164575
-0.157023
-0.136034
-0.106953
-0.0765047
-0.0484118
-0.0240667
-0.00362904
0.0132558
0.0270767
0.0382967
0.0473019
0.05439
0.0597718
0.0635991
0.066008
0.0670268
0.0662876
0.063303
0.059099
-0.114118
-0.107811
-0.0880163
-0.0605411
-0.0320824
-0.00612396
0.0161217
0.0345908
0.0496782
0.061884
0.0716712
0.0794233
0.0854345
0.0899142
0.0930273
0.0949274
0.0955132
0.0939117
0.0894064
0.08487
-0.062153
-0.0571583
-0.0387494
-0.0131134
0.0131466
0.0368058
0.0568272
0.0732333
0.0864524
0.0969921
0.105316
0.111811
0.116785
0.120487
0.123167
0.125108
0.126277
0.125668
0.123019
0.126797
-0.00913193
-0.00550722
0.0113424
0.0349328
0.0588152
0.0800366
0.0977279
0.111988
0.123271
0.132084
0.138884
0.144051
0.147892
0.150667
0.152643
0.154087
0.154984
0.154849
0.154602
0.160564
0.044477
0.0466859
0.0618262
0.0831969
0.104556
0.123228
0.138506
0.150553
0.159841
0.166873
0.172094
0.175876
0.178517
0.180278
0.181411
0.182141
0.182448
0.18203
0.181819
0.186638
0.0982038
0.098964
0.112271
0.131282
0.150005
0.166048
0.178851
0.188636
0.195882
0.201084
0.20467
0.206993
0.208341
0.208959
0.209081
0.208907
0.208429
0.20742
0.206644
0.209927
0.151581
0.150873
0.16225
0.178798
0.19481
0.208173
0.218468
0.225965
0.231144
0.234485
0.236398
0.237215
0.237205
0.236592
0.235585
0.234354
0.23288
0.230961
0.229302
0.231158
0.20415
0.201969
0.211349
0.225367
0.238628
0.249295
0.257077
0.262283
0.265391
0.266863
0.267086
0.266372
0.264967
0.263076
0.260884
0.258534
0.255991
0.253076
0.250458
0.250946
0.255463
0.251818
0.259165
0.270624
0.281131
0.289118
0.294411
0.29735
0.298408
0.298025
0.296567
0.294321
0.291514
0.288329
0.28493
0.281434
0.277798
0.27387
0.27029
0.269488
0.305088
0.300004
0.305311
0.31422
0.322007
0.327362
0.330218
0.33094
0.329992
0.327794
0.324685
0.320933
0.316743
0.31228
0.307687
0.303061
0.298353
0.29344
0.288923
0.286894
0.352613
0.346129
0.349421
0.355824
0.36096
0.363762
0.364261
0.362841
0.359955
0.356
0.351295
0.346084
0.340553
0.33485
0.3291
0.323381
0.317645
0.311793
0.30638
0.30319
0.397645
0.389817
0.391148
0.395125
0.397711
0.398068
0.396315
0.392852
0.388117
0.382487
0.376258
0.369653
0.362843
0.355957
0.349103
0.342347
0.335642
0.328908
0.322647
0.318361
0.439819
0.430715
0.430166
0.43183
0.431998
0.430047
0.426172
0.420784
0.414309
0.407102
0.399439
0.391524
0.383509
0.375511
0.367623
0.359897
0.35229
0.344739
0.337684
0.332372
0.478794
0.468497
0.466177
0.465669
0.46358
0.459481
0.453636
0.446462
0.438373
0.429704
0.420711
0.411581
0.402452
0.393425
0.38458
0.37596
0.367526
0.359228
0.351438
0.345174
0.514257
0.502864
0.498904
0.496395
0.492235
0.486172
0.478526
0.469723
0.460162
0.45016
0.439954
0.429717
0.419572
0.409609
0.399894
0.390463
0.381282
0.37231
0.36385
0.356715
0.545925
0.533545
0.528099
0.523784
0.517763
0.509937
0.50068
0.490419
0.47954
0.468345
0.457056
0.44583
0.434778
0.423979
0.413489
0.403336
0.393492
0.383922
0.374861
0.366944
0.573547
0.560299
0.553543
0.547639
0.539984
0.530617
0.51995
0.508415
0.496387
0.484151
0.471915
0.459826
0.447983
0.436455
0.42529
0.41451
0.40409
0.394001
0.384414
0.375812
0.596906
0.582919
0.575044
0.567786
0.558745
0.54807
0.53621
0.523597
0.510595
0.497478
0.484442
0.471623
0.459111
0.446968
0.435233
0.423922
0.413019
0.402493
0.392459
0.383273
0.615817
0.601229
0.592441
0.584081
0.573914
0.562178
0.549351
0.535864
0.522073
0.508243
0.49456
0.48115
0.468097
0.455456
0.443259
0.431521
0.420226
0.409347
0.398951
0.38929
0.630132
0.615087
0.605605
0.596407
0.585385
0.572845
0.559285
0.545136
0.530749
0.516379
0.502205
0.488347
0.474885
0.461867
0.449322
0.43726
0.425671
0.414525
0.403852
0.393831
0.63974
0.624387
0.614436
0.604675
0.593078
0.579998
0.565946
0.551353
0.536565
0.521833
0.507329
0.493172
0.479435
0.466164
0.453385
0.441106
0.429319
0.417995
0.407136
0.396872
0.644564
0.629056
0.61887
0.608826
0.59694
0.583589
0.569289
0.554473
0.539484
0.52457
0.509901
0.495593
0.481718
0.46832
0.455423
0.443036
0.43115
0.419736
0.408784
0.398398
0.644568
0.62906
0.618874
0.608829
0.596943
0.583592
0.569292
0.554476
0.539487
0.524572
0.509904
0.495595
0.48172
0.468323
0.455426
0.443038
0.431152
0.419738
0.408786
0.3984
0.639751
0.624397
0.614447
0.604685
0.593087
0.580007
0.565955
0.551362
0.536573
0.52184
0.507337
0.493179
0.479442
0.466171
0.453391
0.441113
0.429326
0.418001
0.407143
0.396878
0.63015
0.615105
0.605622
0.596424
0.5854
0.57286
0.559299
0.54515
0.530762
0.516392
0.502217
0.48836
0.474897
0.461879
0.449333
0.437271
0.425681
0.414536
0.403863
0.393841
0.615842
0.601253
0.592465
0.584104
0.573936
0.562199
0.549371
0.535883
0.522092
0.508262
0.494577
0.481167
0.468114
0.455472
0.443275
0.431536
0.420242
0.409362
0.398965
0.389304
0.596938
0.582951
0.575075
0.567815
0.558773
0.548097
0.536236
0.523622
0.510619
0.497501
0.484465
0.471645
0.459133
0.446989
0.435253
0.423942
0.413038
0.402512
0.392478
0.383292
0.573587
0.560338
0.553581
0.547674
0.540019
0.53065
0.519982
0.508446
0.496416
0.484179
0.471943
0.459853
0.448009
0.436481
0.425315
0.414534
0.404114
0.394025
0.384437
0.375834
0.545971
0.53359
0.528144
0.523826
0.517803
0.509976
0.500717
0.490454
0.479575
0.468379
0.457088
0.445861
0.434809
0.424009
0.413518
0.403365
0.39352
0.383949
0.374888
0.366971
0.514311
0.502917
0.498955
0.496443
0.492282
0.486216
0.478569
0.469764
0.460202
0.450198
0.439991
0.429754
0.419608
0.409643
0.399928
0.390496
0.381315
0.372342
0.363881
0.356746
0.478855
0.468557
0.466234
0.465724
0.463633
0.459532
0.453684
0.446509
0.438418
0.429748
0.420753
0.411622
0.402492
0.393464
0.384618
0.375997
0.367562
0.359264
0.351473
0.345208
0.439887
0.430782
0.430231
0.431891
0.432057
0.430103
0.426226
0.420836
0.414359
0.407151
0.399486
0.39157
0.383554
0.375555
0.367665
0.359938
0.35233
0.34478
0.337724
0.33241
0.39772
0.38989
0.391219
0.395193
0.397776
0.398131
0.396375
0.392909
0.388172
0.382541
0.37631
0.369704
0.362892
0.356005
0.34915
0.342393
0.335687
0.328953
0.322691
0.318404
0.352694
0.346209
0.349499
0.355899
0.361031
0.36383
0.364326
0.362904
0.360015
0.356059
0.351352
0.34614
0.340607
0.334903
0.329151
0.323432
0.317695
0.311841
0.306428
0.303236
0.305177
0.300091
0.305396
0.314301
0.322085
0.327436
0.330289
0.331008
0.330058
0.327857
0.324747
0.320993
0.316802
0.312338
0.307743
0.303116
0.298407
0.293492
0.288975
0.286945
0.255559
0.251912
0.259256
0.270711
0.281214
0.289198
0.294487
0.297423
0.298479
0.298094
0.296634
0.294386
0.291577
0.288391
0.28499
0.281493
0.277856
0.273927
0.270346
0.269542
0.204253
0.20207
0.211447
0.225461
0.238717
0.24938
0.257159
0.262362
0.265467
0.266937
0.267158
0.266442
0.265035
0.263142
0.260949
0.258597
0.256052
0.253137
0.250518
0.251004
0.151691
0.150981
0.162355
0.178898
0.194905
0.208264
0.218556
0.226049
0.231226
0.234564
0.236475
0.23729
0.237277
0.236663
0.235654
0.234422
0.232946
0.231026
0.229366
0.23122
0.09832
0.0990786
0.112382
0.131388
0.150106
0.166145
0.178944
0.188726
0.195969
0.201168
0.204751
0.207072
0.208418
0.209034
0.209155
0.208979
0.2085
0.207489
0.206712
0.209993
0.0445998
0.0468071
0.0619434
0.0833092
0.104663
0.123331
0.138604
0.150648
0.159932
0.166961
0.172181
0.17596
0.178599
0.180358
0.181489
0.182218
0.182522
0.182103
0.181891
0.186708
-0.00900257
-0.00537959
0.011466
0.0350512
0.0589284
0.0801449
0.0978319
0.112089
0.123368
0.132178
0.138975
0.14414
0.147979
0.150752
0.152726
0.154168
0.155063
0.154926
0.154679
0.160638
-0.0620172
-0.0570243
-0.0386195
-0.0129889
0.0132656
0.0369198
0.0569366
0.0733387
0.0865542
0.0970908
0.105412
0.111904
0.116876
0.120576
0.123254
0.125193
0.126361
0.12575
0.123101
0.126876
-0.113976
-0.107671
-0.0878803
-0.0604106
-0.0319577
-0.00600453
0.0162364
0.0347013
0.049785
0.0619876
0.0717719
0.0795214
0.0855302
0.0900078
0.0931189
0.0950173
0.0956016
0.0939989
0.0894928
0.0849561
-0.164427
-0.156876
-0.135891
-0.106817
-0.0763743
-0.0482869
-0.0239467
-0.00351347
0.0133675
0.027185
0.038402
0.0474045
0.0544902
0.0598698
0.0636952
0.0661024
0.0671198
0.0663793
0.0633938
0.0591895
-0.212929
-0.204208
-0.182238
-0.151819
-0.119624
-0.0895921
-0.063296
-0.0409989
-0.0223922
-0.00699874
0.00564949
0.0159531
0.0242337
0.0307376
0.0356544
0.0391519
0.0413766
0.0423686
0.0420011
0.0399668
-0.259064
-0.249257
-0.226523
-0.195042
-0.16136
-0.129599
-0.101511
-0.0774695
-0.057219
-0.0402973
-0.0262306
-0.0146017
-0.00506392
0.0026629
0.00880341
0.013547
0.0170823
0.019631
0.0213028
0.0214057
-0.302449
-0.291645
-0.268376
-0.236136
-0.201257
-0.168008
-0.138315
-0.112671
-0.0908793
-0.072501
-0.0570612
-0.0441305
-0.0333443
-0.0243995
-0.0170478
-0.0110833
-0.00630017
-0.00241953
0.000735372
0.0023943
-0.342739
-0.331031
-0.30746
-0.274776
-0.239014
-0.204545
-0.173461
-0.146378
-0.123173
-0.103435
-0.0866973
-0.0725232
-0.0605364
-0.0504192
-0.0419074
-0.0347824
-0.0288255
-0.0237406
-0.0193741
-0.0166196
-0.379634
-0.36712
-0.343476
-0.310672
-0.274361
-0.238965
-0.206728
-0.178396
-0.153926
-0.132951
-0.115013
-0.0996794
-0.0865657
-0.0753459
-0.0657471
-0.0575437
-0.0505101
-0.0443395
-0.0389002
-0.0352215
-0.412888
-0.399666
-0.376172
-0.343572
-0.307059
-0.27105
-0.237923
-0.208554
-0.182993
-0.160921
-0.141905
-0.125517
-0.111373
-0.0991426
-0.0885501
-0.079367
-0.0713664
-0.0642343
-0.0578352
-0.0532737
-0.442312
-0.428479
-0.405343
-0.373266
-0.336906
-0.300617
-0.266883
-0.23671
-0.21025
-0.187242
-0.167286
-0.149968
-0.134908
-0.121777
-0.110297
-0.100241
-0.0913836
-0.0834105
-0.0761693
-0.0707768
-0.467779
-0.453432
-0.430842
-0.39959
-0.363739
-0.327513
-0.293472
-0.262748
-0.235597
-0.211831
-0.19109
-0.172979
-0.15713
-0.143217
-0.130964
-0.120145
-0.110541
-0.101842
-0.0938789
-0.0877416
-0.489226
-0.47446
-0.452578
-0.42243
-0.387435
-0.351619
-0.317583
-0.286574
-0.258957
-0.234624
-0.213262
-0.194507
-0.178002
-0.163433
-0.150526
-0.139058
-0.128817
-0.119504
-0.110931
-0.104145
-0.506655
-0.491562
-0.470523
-0.441726
-0.407912
-0.372852
-0.339141
-0.308122
-0.280273
-0.255572
-0.233764
-0.214517
-0.197498
-0.1824
-0.16896
-0.156958
-0.146189
-0.136366
-0.127289
-0.119942
-0.520134
-0.504804
-0.484712
-0.457471
-0.425137
-0.391163
-0.358095
-0.327349
-0.29951
-0.274647
-0.252571
-0.232991
-0.215598
-0.200103
-0.186251
-0.173826
-0.162634
-0.152402
-0.142916
-0.13509
-0.529794
-0.514318
-0.495241
-0.469713
-0.439119
-0.406542
-0.374426
-0.344235
-0.31665
-0.291836
-0.269674
-0.249921
-0.232297
-0.216534
-0.202387
-0.18965
-0.178137
-0.167593
-0.157791
-0.149564
-0.535824
-0.520292
-0.502268
-0.47856
-0.449917
-0.419016
-0.388145
-0.358785
-0.331699
-0.307144
-0.285078
-0.26531
-0.247597
-0.231694
-0.21737
-0.204429
-0.192694
-0.181928
-0.171898
-0.163349
-0.538469
-0.522972
-0.506009
-0.484173
-0.457638
-0.428648
-0.399292
-0.371026
-0.344677
-0.320591
-0.298801
-0.279176
-0.261514
-0.245595
-0.231208
-0.218167
-0.206306
-0.195408
-0.185236
-0.176444
-0.53802
-0.52265
-0.506729
-0.486765
-0.462434
-0.435542
-0.407936
-0.381008
-0.355626
-0.332211
-0.310876
-0.291549
-0.274073
-0.258261
-0.243921
-0.23088
-0.218987
-0.208042
-0.197809
-0.188853
-0.534804
-0.519657
-0.504741
-0.486598
-0.464505
-0.439839
-0.414177
-0.388806
-0.364604
-0.342056
-0.321346
-0.302467
-0.28531
-0.269722
-0.255535
-0.242594
-0.230756
-0.219846
-0.209631
-0.200589
-0.529179
-0.51435
-0.500388
-0.483975
-0.464091
-0.441718
-0.418143
-0.394513
-0.371685
-0.350186
-0.330266
-0.31198
-0.29527
-0.280018
-0.266087
-0.253337
-0.241642
-0.230844
-0.220724
-0.211671
-0.521518
-0.507105
-0.494039
-0.479231
-0.461471
-0.441394
-0.419993
-0.398247
-0.376959
-0.356676
-0.337701
-0.320145
-0.304003
-0.289198
-0.275619
-0.26315
-0.251679
-0.241068
-0.231113
-0.222123
-0.512201
-0.498299
-0.486072
-0.472722
-0.456951
-0.43911
-0.419912
-0.400145
-0.380531
-0.36161
-0.343721
-0.327026
-0.311567
-0.297311
-0.284178
-0.272075
-0.260905
-0.250553
-0.240832
-0.231978
-0.501603
-0.488304
-0.476864
-0.464815
-0.450863
-0.435142
-0.418112
-0.400368
-0.382522
-0.365083
-0.348404
-0.332688
-0.318022
-0.304412
-0.291814
-0.280156
-0.269363
-0.259338
-0.249915
-0.241267
-0.490083
-0.477474
-0.466775
-0.455872
-0.443545
-0.42978
-0.414827
-0.399094
-0.383067
-0.367197
-0.351832
-0.337202
-0.323429
-0.310558
-0.298576
-0.287441
-0.277095
-0.267463
-0.2584
-0.250025
-0.477977
-0.466132
-0.456143
-0.446241
-0.435335
-0.423329
-0.410313
-0.396524
-0.382316
-0.368065
-0.354094
-0.340638
-0.327849
-0.315801
-0.304515
-0.293975
-0.284142
-0.274964
-0.26632
-0.258283
-0.465587
-0.454571
-0.445267
-0.43624
-0.426557
-0.416094
-0.404832
-0.39287
-0.380434
-0.367812
-0.355282
-0.34307
-0.33134
-0.320192
-0.309675
-0.299797
-0.290542
-0.281876
-0.273705
-0.266068
-0.453181
-0.443041
-0.434409
-0.426151
-0.417508
-0.40837
-0.398655
-0.38836
-0.377601
-0.366573
-0.355495
-0.34457
-0.333959
-0.323778
-0.314095
-0.304942
-0.296324
-0.288226
-0.280578
-0.273397
-0.440984
-0.431752
-0.423784
-0.416212
-0.408451
-0.400428
-0.392042
-0.383225
-0.374006
-0.364493
-0.354842
-0.345216
-0.335763
-0.326599
-0.317807
-0.309437
-0.301511
-0.294033
-0.286956
-0.28028
-0.429181
-0.42087
-0.413561
-0.406614
-0.399605
-0.39251
-0.38524
-0.377696
-0.369847
-0.361732
-0.353441
-0.345092
-0.336807
-0.328694
-0.320838
-0.313301
-0.306117
-0.299308
-0.292845
-0.286715
-0.417914
-0.410521
-0.403866
-0.397501
-0.391141
-0.384817
-0.378466
-0.371989
-0.365323
-0.358455
-0.351421
-0.344291
-0.337155
-0.330102
-0.323211
-0.316545
-0.310148
-0.30405
-0.298242
-0.292693
-0.407288
-0.400793
-0.394784
-0.388969
-0.383183
-0.377503
-0.371902
-0.366301
-0.360625
-0.354833
-0.34892
-0.342917
-0.336876
-0.330864
-0.324945
-0.319176
-0.313602
-0.308257
-0.303144
-0.298202
-0.397373
-0.391741
-0.386365
-0.381079
-0.375811
-0.370678
-0.365691
-0.360796
-0.355928
-0.351034
-0.346086
-0.341085
-0.336054
-0.331032
-0.326066
-0.321202
-0.316477
-0.311921
-0.307545
-0.303239
-0.388209
-0.383391
-0.378629
-0.373852
-0.369065
-0.36441
-0.35993
-0.355602
-0.351379
-0.347212
-0.343065
-0.33892
-0.334782
-0.330668
-0.326609
-0.322634
-0.31877
-0.315036
-0.311448
-0.307821
-0.379809
-0.375748
-0.371573
-0.367287
-0.362953
-0.358728
-0.354679
-0.35081
-0.347096
-0.343502
-0.339995
-0.336552
-0.333168
-0.32985
-0.326617
-0.323488
-0.32048
-0.317598
-0.31486
-0.311997
-0.372167
-0.368798
-0.365176
-0.361362
-0.357459
-0.353629
-0.349958
-0.34647
-0.343162
-0.340013
-0.337
-0.334105
-0.331325
-0.328666
-0.326147
-0.323787
-0.321603
-0.319592
-0.317779
-0.315832
-0.365261
-0.362515
-0.359407
-0.356042
-0.352548
-0.34909
-0.345761
-0.342602
-0.339623
-0.336819
-0.334178
-0.331692
-0.329365
-0.327212
-0.325263
-0.323556
-0.322125
-0.320981
-0.320167
-0.319398
-0.359058
-0.356862
-0.354225
-0.351281
-0.348177
-0.345072
-0.342061
-0.339196
-0.336496
-0.333966
-0.331603
-0.329407
-0.327391
-0.325584
-0.324037
-0.322819
-0.322008
-0.32167
-0.321889
-0.322654
-0.353514
-0.351797
-0.349586
-0.347034
-0.344298
-0.341527
-0.338818
-0.336225
-0.333772
-0.331469
-0.329318
-0.32732
-0.325495
-0.323879
-0.322544
-0.321598
-0.32119
-0.321486
-0.322679
-0.325437
-0.348582
-0.347274
-0.345442
-0.34325
-0.340857
-0.338404
-0.335983
-0.333647
-0.331422
-0.329319
-0.327337
-0.325476
-0.323748
-0.322187
-0.32087
-0.319933
-0.319593
-0.32015
-0.322029
-0.327104
-0.34421
-0.343244
-0.341746
-0.33988
-0.337806
-0.335652
-0.333503
-0.331413
-0.329406
-0.327488
-0.325654
-0.323894
-0.322203
-0.320595
-0.319124
-0.317913
-0.317199
-0.317365
-0.31924
-0.32671
-0.340341
-0.339657
-0.338448
-0.336876
-0.335094
-0.333218
-0.331327
-0.329471
-0.327671
-0.325931
-0.324236
-0.322563
-0.320885
-0.319176
-0.317433
-0.315699
-0.314111
-0.312911
-0.313106
-0.320923
-0.336919
-0.336463
-0.335503
-0.334193
-0.332676
-0.331056
-0.329406
-0.327771
-0.326168
-0.324598
-0.323039
-0.321455
-0.319791
-0.317974
-0.315903
-0.313447
-0.310422
-0.306301
-0.299573
-0.291476
-0.333887
-0.333613
-0.332866
-0.331787
-0.330509
-0.329124
-0.327697
-0.326267
-0.324851
-0.323445
-0.322026
-0.32055
-0.318956
-0.317151
-0.31501
-0.312372
-0.30905
-0.304616
-0.297894
-0.290818
-0.331188
-0.331058
-0.330492
-0.329618
-0.328556
-0.327385
-0.326163
-0.324925
-0.323684
-0.322437
-0.32116
-0.319814
-0.318342
-0.316665
-0.314681
-0.312278
-0.309362
-0.305654
-0.300371
-0.295917
-0.328768
-0.328754
-0.328343
-0.32765
-0.326783
-0.325808
-0.324775
-0.323716
-0.322641
-0.321546
-0.320412
-0.319205
-0.317879
-0.316372
-0.314614
-0.312542
-0.310121
-0.307141
-0.303064
-0.300528
-0.326576
-0.326658
-0.326383
-0.325852
-0.325161
-0.324367
-0.323512
-0.322621
-0.321706
-0.320762
-0.319773
-0.318712
-0.317545
-0.316231
-0.314725
-0.313008
-0.311092
-0.308821
-0.305831
-0.304736
-0.324567
-0.324733
-0.324579
-0.324194
-0.323665
-0.32304
-0.322353
-0.321627
-0.32087
-0.320079
-0.319242
-0.31834
-0.317351
-0.316249
-0.315016
-0.313666
-0.312243
-0.310634
-0.308572
-0.308524
-0.322698
-0.322946
-0.322903
-0.322653
-0.322275
-0.321809
-0.321283
-0.320718
-0.320121
-0.31949
-0.318816
-0.318088
-0.317293
-0.316421
-0.315473
-0.314482
-0.313514
-0.31247
-0.311128
-0.311799
-0.320937
-0.321269
-0.321333
-0.321209
-0.320972
-0.320656
-0.320287
-0.319881
-0.319445
-0.318979
-0.318478
-0.317936
-0.317349
-0.316717
-0.316052
-0.3154
-0.314832
-0.314249
-0.313438
-0.314588
-0.319258
-0.319683
-0.31985
-0.319845
-0.319741
-0.319568
-0.319349
-0.319098
-0.318823
-0.318524
-0.318201
-0.317851
-0.317476
-0.317082
-0.316688
-0.316346
-0.31612
-0.315901
-0.315478
-0.316952
-0.317643
-0.318173
-0.318444
-0.318551
-0.318572
-0.318534
-0.318456
-0.318354
-0.318235
-0.318101
-0.317952
-0.317791
-0.317622
-0.317456
-0.317312
-0.317242
-0.317303
-0.31737
-0.317234
-0.318943
-0.316086
-0.316733
-0.317108
-0.317322
-0.317459
-0.317545
-0.3176
-0.317637
-0.317664
-0.317685
-0.317702
-0.317719
-0.317742
-0.317782
-0.317861
-0.318025
-0.318324
-0.318616
-0.318699
-0.32059
-0.314587
-0.315364
-0.315843
-0.316158