/*--------------------------------*- C++ -*----------------------------------*\
  =========                 |
  \\      /  F ield         | OpenFOAM: The Open Source CFD Toolbox
   \\    /   O peration     | Website:  https://openfoam.org
    \\  /    A nd           | Version:  6.0
     \\/     M anipulation  |
\*---------------------------------------------------------------------------*/
FoamFile
{
    version     2.0;
    format      ascii;
    class       surfaceScalarField;
    location    "9.6";
    object      phi;
}
// * * * * * * * * * * * * * * * * * * * * * * * * * * * * * * * * * * * * * //

dimensions      [0 3 -1 0 0 0 0];

internalField   nonuniform List<scalar> 
15760
(
-4.72212e-06
4.76801e-06
-4.58901e-08
-1.64173e-05
1.17861e-05
-9.09591e-08
-3.3368e-05
1.70529e-05
-1.02247e-07
-5.42936e-05
2.10157e-05
-8.99938e-08
-7.82283e-05
2.3997e-05
-6.23507e-08
-0.000104453
2.62501e-05
-2.5497e-08
-0.000132446
2.79768e-05
1.60894e-08
-0.000161846
2.93407e-05
5.93154e-08
-0.000192424
3.0476e-05
1.02161e-07
-0.000224061
3.1494e-05
1.43405e-07
-0.000256731
3.24876e-05
1.82399e-07
-0.000290485
3.35343e-05
2.18878e-07
-0.000325435
3.46973e-05
2.5281e-07
-0.000361746
3.60267e-05
2.84305e-07
-0.000399619
3.756e-05
3.13558e-07
-0.000439282
3.93221e-05
3.40794e-07
-0.000480973
4.13247e-05
3.66249e-07
-0.000524926
4.35631e-05
3.90136e-07
-0.000571361
4.60217e-05
4.12706e-07
4.87068e-05
4.34257e-07
-0.000620502
-4.61319e-06
9.38119e-06
-1.60583e-05
2.32312e-05
-3.26562e-05
3.36508e-05
-5.3146e-05
4.15055e-05
-7.65699e-05
4.74209e-05
-0.00010221
5.18898e-05
-0.000129539
5.53066e-05
-0.00015819
5.79912e-05
-0.000187921
6.02075e-05
-0.000218603
6.21755e-05
-0.000250195
6.40796e-05
-0.000282735
6.60743e-05
-0.000316325
6.82872e-05
-0.000351119
7.0821e-05
-0.000387313
7.37535e-05
-0.000425129
7.71384e-05
-0.000464808
8.10034e-05
-0.000506588
8.53434e-05
-0.000550697
9.01306e-05
9.53785e-05
-0.000597369
-4.40246e-06
1.37837e-05
-1.53619e-05
3.41906e-05
-3.12732e-05
4.95622e-05
-5.09131e-05
6.11454e-05
-7.334e-05
6.98478e-05
-9.78377e-05
7.63875e-05
-0.000123872
8.1341e-05
-0.000151059
8.51778e-05
-0.000179137
8.82861e-05
-0.000207953
9.09912e-05
-0.000237441
9.35672e-05
-0.000267612
9.62458e-05
-0.000298546
9.92212e-05
-0.000330377
0.000102652
-0.000363287
0.000106663
-0.000397491
0.000111343
-0.000433232
0.000116744
-0.000470759
0.000122871
-0.000510319
0.00012969
0.000137223
-0.000552163
-4.1046e-06
1.78882e-05
-1.43736e-05
4.44596e-05
-2.93051e-05
6.44937e-05
-4.77285e-05
7.95688e-05
-6.87257e-05
9.0845e-05
-9.1584e-05
9.92458e-05
-0.000115758
0.000105515
-0.000140843
0.000110263
-0.000166549
0.000113992
-0.000192687
0.000117129
-0.000219155
0.000120035
-0.000245926
0.000123017
-0.000273044
0.000126339
-0.000300613
0.000130221
-0.000328792
0.000134843
-0.000357789
0.00014034
-0.000387848
0.000146802
-0.000419235
0.000154258
-0.000452227
0.000162682
0.00017211
-0.000487113
-3.73996e-06
2.16282e-05
-1.31566e-05
5.38763e-05
-2.68715e-05
7.82085e-05
-4.37784e-05
9.64756e-05
-6.29887e-05
0.000110055
-8.37949e-05
0.000120052
-0.00010564
0.000127361
-0.000128094
0.000132716
-0.000150831
0.000136729
-0.000173619
0.000139918
-0.000196308
0.000142724
-0.000218823
0.000145532
-0.00024116
0.000148675
-0.00026338
0.000152442
-0.000285614
0.000157076
-0.00030805
0.000162776
-0.000330937
0.000169689
-0.000354567
0.000177888
-0.000379261
0.000187376
0.000198219
-0.000405371
-3.33277e-06
2.4961e-05
-1.17864e-05
6.233e-05
-2.4116e-05
9.05381e-05
-3.92864e-05
0.000111646
-5.64432e-05
0.000127212
-7.4887e-05
0.000138496
-9.40498e-05
0.000146524
-0.000113474
0.00015214
-0.000132796
0.000156051
-0.000151734
0.000158856
-0.000170083
0.000161073
-0.000187706
0.000163155
-0.00020454
0.000165509
-0.000220592
0.000168495
-0.000235949
0.000172433
-0.000250776
0.000177603
-0.00026532
0.000184233
-0.000279905
0.000192473
-0.000294919
0.00020239
0.000214102
-0.000310802
-2.90886e-06
2.78698e-05
-1.0344e-05
6.97651e-05
-2.11929e-05
0.000101387
-3.44935e-05
0.000124947
-4.94287e-05
0.000142147
-6.53107e-05
0.000154378
-8.15631e-05
0.000162776
-9.77035e-05
0.00016828
-0.000113329
0.000171677
-0.000128108
0.000173635
-0.000141772
0.000174736
-0.000154116
0.000175499
-0.000165003
0.000176396
-0.000174374
0.000177865
-0.000182254
0.000180313
-0.000188771
0.00018412
-0.000194163
0.000189625
-0.000198789
0.000197099
-0.00020312
0.000206721
0.00021871
-0.000207728
-2.4935e-06
3.03633e-05
-8.90861e-06
7.61802e-05
-1.82538e-05
0.000110732
-2.96368e-05
0.00013633
-4.2279e-05
0.00015479
-5.55085e-05
0.000167607
-6.87459e-05
0.000176013
-8.14894e-05
0.000181024
-9.33019e-05
0.000183489
-0.000103801
0.000184134
-0.000112656
0.000183591
-0.000119588
0.000182431
-0.000124376
0.000181184
-0.000126875
0.000180364
-0.000127033
0.000180471
-0.000124917
0.000182004
-0.000120739
0.000185448
-0.000114886
0.000191245
-0.000107927
0.000199762
0.000211398
-0.000100614
-2.1091e-06
3.24725e-05
-7.55107e-06
8.16221e-05
-1.54339e-05
0.000118615
-2.49267e-05
0.000145822
-3.52893e-05
0.000165152
-4.58698e-05
0.000178188
-5.60933e-05
0.000186237
-6.54473e-05
0.000190378
-7.34689e-05
0.000191511
-7.97342e-05
0.0001904
-8.38534e-05
0.00018771
-8.54718e-05
0.000184049
-8.42798e-05
0.000179992
-8.00307e-05
0.000176115
-7.25704e-05
0.000173011
-6.18761e-05
0.00017131
-4.81053e-05
0.000171677
-3.16498e-05
0.00017479
-1.31838e-05
0.000181296
0.000191902
6.31184e-06
-1.77337e-06
3.42458e-05
-6.3271e-06
8.61759e-05
-1.2839e-05
0.000125127
-2.05267e-05
0.00015351
-2.86855e-05
0.000173311
-3.66873e-05
0.00018619
-4.39701e-05
0.00019352
-5.00223e-05
0.00019643
-5.43683e-05
0.000195857
-5.65558e-05
0.000192587
-5.61477e-05
0.000187302
-5.27218e-05
0.000180623
-4.58781e-05
0.000173149
-3.52591e-05
0.000165496
-2.05858e-05
0.000158338
-1.71025e-06
0.000152434
2.13095e-05
0.000148657
4.8116e-05
0.000147983
7.79473e-05
0.000151465
0.000160301
0.000109548
-1.49783e-06
3.57436e-05
-5.2726e-06
8.99506e-05
-1.05357e-05
0.00013039
-1.65359e-05
0.00015951
-2.25976e-05
0.000179373
-2.81187e-05
0.000191711
-3.25576e-05
0.000197958
-3.54159e-05
0.000199288
-3.62209e-05
0.000196662
-3.451e-05
0.000190876
-2.98184e-05
0.000182611
-2.16731e-05
0.000172478
-9.59588e-06
0.000161071
6.88017e-06
0.00014902
2.81739e-05
0.000137044
5.45921e-05
0.000126016
8.62303e-05
0.000117019
0.000122829
0.000111385
0.000163585
0.000110708
0.000116942
0.000206945
-1.28704e-06
3.70307e-05
-4.4005e-06
9.30641e-05
-8.54458e-06
0.000134534
-1.29772e-05
0.000163943
-1.70418e-05
0.000183437
-2.01599e-05
0.000194829
-2.18145e-05
0.000199613
-2.153e-05
0.000199004
-1.8852e-05
0.000193984
-1.33277e-05
0.000185352
-4.48905e-06
0.000173772
8.1601e-06
0.000159829
2.51494e-05
0.000144082
4.70347e-05
0.000127135
7.43689e-05
0.00010971
0.000107637
9.27476e-05
0.000147139
7.75171e-05
0.000192794
6.57294e-05
0.000243847
5.96555e-05
6.23304e-05
0.000298458
-1.13836e-06
3.8169e-05
-3.69983e-06
9.56256e-05
-6.83777e-06
0.000137672
-9.79328e-06
0.000166898
-1.19129e-05
0.000185557
-1.26333e-05
0.000195549
-1.14595e-05
0.000198439
-7.94211e-06
0.000195487
-1.65394e-06
0.000187696
7.83114e-06
0.000175867
2.09592e-05
0.000160644
3.8215e-05
0.000142573
6.01379e-05
0.000122159
8.73275e-05
9.9945e-05
0.000120432
7.66052e-05
0.000160099
5.30812e-05
0.000206854
3.07618e-05
0.000260877
1.17066e-05
0.000321584
-1.05201e-06
-3.02851e-06
0.000386943
-1.04242e-06
3.92115e-05
-3.13676e-06
9.77199e-05
-5.3409e-06
0.000139876
-6.84897e-06
0.000168406
-6.98856e-06
0.000185696
-5.19478e-06
0.000193756
-9.82325e-07
0.000194227
6.08054e-06
0.000188424
1.63955e-05
0.000177381
3.03558e-05
0.000161906
4.83677e-05
0.000142632
7.08718e-05
0.000120069
9.83657e-05
9.46652e-05
0.000131425
6.68861e-05
0.000170712
3.73175e-05
0.000216962
6.83095e-06
0.000270891
-2.31671e-05
0.000332972
-5.0374e-05
0.00040294
-7.10205e-05
-7.88532e-05
0.000478765
-9.84044e-07
4.01955e-05
-2.65748e-06
9.93933e-05
-3.93873e-06
0.000141157
-3.94141e-06
0.000168409
-1.94558e-06
0.000183701
2.64124e-06
0.000189169
1.03191e-05
0.000186549
2.15239e-05
0.000177219
3.66503e-05
0.000162255
5.60693e-05
0.000142487
8.0146e-05
0.000118556
0.000109256
9.09582e-05
0.00014381
6.01113e-05
0.000184278
2.64185e-05
0.000231222
-9.62651e-06
0.000285321
-4.72679e-05
0.000347343
-8.51889e-05
0.000417989
-0.00012102
0.000497418
-0.000150449
-0.000165348
0.000583912
-9.43441e-07
4.11389e-05
-2.1922e-06
0.000100642
-2.48338e-06
0.000141449
-8.14291e-07
0.00016674
3.61675e-06
0.000179269
1.14645e-05
0.000181321
2.32792e-05
0.000174734
3.95373e-05
0.000160961
6.0661e-05
0.000141131
8.703e-05
0.000116118
0.000118989
8.65966e-05
0.000156853
5.30938e-05
0.00020092
1.60451e-05
0.000251485
-2.41469e-05
0.000308885
-6.70264e-05
0.000373548
-0.000111931
0.000446049
-0.000157689
0.000527081
-0.000202052
0.000617168
-0.000240537
-0.000263436
0.000715257
-8.97574e-07
4.20365e-05
-1.65959e-06
0.000101404
-8.03649e-07
0.000140593
2.82563e-06
0.000163111
1.01496e-05
0.000171946
2.19257e-05
0.000169545
3.8798e-05
0.000157862
6.13292e-05
0.000138429
9.00161e-05
0.000112444
0.000125293
8.08416e-05
0.000167525
4.43642e-05
0.000216998
3.62093e-06
0.000273904
-4.08607e-05
0.000338338
-8.85812e-05
0.000410317
-0.000139005
0.000489831
-0.000191445
0.000576951
-0.000244809
0.000671937
-0.000297039
0.000775266
-0.000343866
-0.000374922
0.000886752
-8.2138e-07
4.28579e-05
-9.71082e-07
0.000101554
1.2859e-06
0.000138336
7.29271e-06
0.000157104
1.81289e-05
0.000161109
3.46969e-05
0.000152977
5.77796e-05
0.000134779
8.80732e-05
0.000108136
0.000126198
7.43198e-05
0.000172691
3.43485e-05
0.000227988
-1.09329e-05
0.000292391
-6.07819e-05
0.000366029
-0.000114499
0.00044882
-0.000171373
0.000540442
-0.000230627
0.00064034
-0.000291344
0.000747818
-0.000352287
0.000862213
-0.000411433
0.000983144
-0.000464798
-0.000502971
0.00111119
-6.88852e-07
4.35467e-05
-3.47609e-08
0.0001009
3.97681e-06
0.000134324
1.29084e-05
0.000148172
2.80337e-05
0.000145984
5.0438e-05
0.000130573
8.10821e-05
0.000104135
0.000120833
6.83852e-05
0.000170469
2.46835e-05
0.000230667
-2.58492e-05
0.000301968
-8.22343e-05
0.000384739
-0.000143552
0.000479111
-0.000208872
0.000584919
-0.00027718
0.000701612
-0.00034732
0.000828176
-0.000417908
0.000963087
-0.000487198
0.00110434
-0.000552684
0.0012497
-0.000610157
-0.000652889
0.00139962
-4.73982e-07
4.40207e-05
1.24118e-06
9.91846e-05
7.45945e-06
0.000128106
1.99889e-05
0.000135643
4.03262e-05
0.000125647
6.97682e-05
0.000101131
0.000109476
6.44273e-05
0.000160501
1.73597e-05
0.000223785
-3.86004e-05
0.000300136
-0.0001022
0.000390195
-0.000172293
0.000494401
-0.000247759
0.00061295
-0.00032742
0.000745756
-0.000409987
0.00089241
-0.000493974
0.00105211
-0.000577605
0.0012235
-0.000658589
0.00140411
-0.000733299
0.0015879
-0.000793939
-0.000821144
0.00175615
-1.52363e-07
4.41731e-05
2.94408e-06
9.60881e-05
1.19148e-05
0.000119135
2.88317e-05
0.000118726
5.54327e-05
9.90457e-05
9.32373e-05
6.33261e-05
0.000143604
1.40609e-05
0.000207744
-4.67805e-05
0.000286709
-0.000117565
0.000381357
-0.000196848
0.000492322
-0.000283258
0.000619985
-0.000375422
0.000764485
-0.00047192
0.000925754
-0.000571256
0.00110365
-0.000671872
0.00129821
-0.000772166
0.00151014
-0.000870513
0.00174201
-0.000965176
0.00200234
-0.00105427
-0.00113036
0.00231156
3.007e-07
4.38724e-05
5.15802e-06
9.12308e-05
1.75122e-05
0.000106781
3.97073e-05
9.65309e-05
7.37261e-05
6.50269e-05
0.000121298
1.57542e-05
0.00018394
-4.85811e-05
0.00026295
-0.00012579
0.000359369
-0.000213985
0.000473935
-0.000311414
0.000607041
-0.000416364
0.000758713
-0.000527094
0.000928626
-0.000641833
0.00111617
-0.000758796
0.00132054
-0.000876251
0.00154099
-0.000992611
0.00177703
-0.00110655
0.002029
-0.00121715
0.00229861
-0.00132388
-0.00141811
0.00258637
9.05524e-07
4.29669e-05
7.95437e-06
8.4182e-05
2.4395e-05
9.03404e-05
5.28386e-05
6.80873e-05
9.54957e-05
2.23698e-05
0.000154263
-4.30135e-05
0.000230736
-0.000125054
0.000326169
-0.000221222
0.000441408
-0.000329224
0.000576833
-0.000446839
0.000732305
-0.000571835
0.000907156
-0.000701945
0.00110022
-0.0008349
0.00130993
-0.000968498
0.00153437
-0.0011007
0.0017715
-0.00122973
0.00201917
-0.00135422
0.00227528
-0.00147327
0.00253775
-0.00158635
-0.00168554
0.00280518
1.68027e-06
4.12866e-05
1.13937e-05
7.44686e-05
3.2678e-05
6.90561e-05
6.83895e-05
3.23757e-05
0.000120923
-3.01637e-05
0.000192262
-0.000114353
0.000283949
-0.000216741
0.000397004
-0.000334278
0.000531843
-0.000464063
0.000688196
-0.000603193
0.000865087
-0.000748726
0.00106085
-0.000897712
0.00127323
-0.00104728
0.00149948
-0.00119475
0.00173655
-0.00133776
0.0019812
-0.00147438
0.00223014
-0.00160317
0.00248008
-0.0017232
0.0027278
-0.00183407
-0.00192992
0.00297218
2.63989e-06
3.86467e-05
1.55222e-05
6.15863e-05
4.24399e-05
4.21384e-05
8.64492e-05
-1.16336e-05
0.000150051
-9.37655e-05
0.000235188
-0.000199489
0.00034316
-0.000324713
0.000474514
-0.000465631
0.000628936
-0.000618485
0.00080521
-0.000779467
0.00100124
-0.000944757
0.00121416
-0.00111063
0.0014405
-0.00127362
0.00167641
-0.00143066
0.00191788
-0.00157924
0.00216096
-0.00171746
0.00240186
-0.00184408
0.00263713
-0.00195847
0.00286369
-0.00206062
-0.00214693
0.0030807
3.79613e-06
3.48506e-05
2.03706e-05
4.50118e-05
5.37174e-05
8.79158e-06
0.000107018
-6.49337e-05
0.000182757
-0.000169505
0.000282656
-0.000299388
0.000407526
-0.000449583
0.00055714
-0.000615245
0.00073015
-0.000791495
0.000924111
-0.000973428
0.00113561
-0.00115626
0.00136052
-0.00133554
0.00159425
-0.00150735
0.00183212
-0.00166853
0.00206961
-0.00181672
0.00230261
-0.00195046
0.00252758
-0.00206905
0.00274165
-0.00217254
0.00294262
-0.0022616
-0.00233464
0.00313033
5.15751e-06
2.96931e-05
2.59522e-05
2.42171e-05
6.64995e-05
-3.17557e-05
0.000129992
-0.000128427
0.000218732
-0.000258244
0.000333972
-0.000414628
0.000475739
-0.000591351
0.00064271
-0.000782216
0.00083221
-0.000980995
0.00104037
-0.00118159
0.00126241
-0.0013783
0.00149306
-0.00156619
0.00172695
-0.00174124
0.00195901
-0.00190059
0.00218479
-0.0020425
0.00240065
-0.00216631
0.00260387
-0.00227227
0.00279263
-0.0023613
0.00296598
-0.00243495
-0.00249322
0.00312457
6.72903e-06
2.2964e-05
3.22611e-05
-1.31504e-06
8.0721e-05
-8.02156e-05
0.000155157
-0.000202863
0.000257457
-0.000360544
0.000388115
-0.000545286
0.00054604
-0.000749276
0.000728502
-0.000964678
0.000931284
-0.00118378
0.00114904
-0.00139934
0.00137578
-0.00160505
0.00160544
-0.00179584
0.00183233
-0.00196814
0.00205161
-0.00211987
0.00225946
-0.00225036
0.00245324
-0.00236009
0.0026314
-0.00245043
0.00279343
-0.00252333
0.0029396
-0.00258111
-0.00262501
0.00307139
8.51147e-06
1.44526e-05
3.92686e-05
-3.20722e-05
9.62554e-05
-0.000137202
0.000182168
-0.000288775
0.000298199
-0.000476576
0.000443748
-0.000690835
0.000616272
-0.0009218
0.000811393
-0.0011598
0.00102328
-0.00139567
0.00124525
-0.00162131
0.00147047
-0.00183026
0.00169257
-0.00201794
0.00190619
-0.00218175
0.00210724
-0.00232092
0.00229303
-0.00243615
0.0024622
-0.00252926
0.00261453
-0.00260276
0.00275069
-0.00265949
0.00287196
-0.00270239
-0.00273351
0.00298046
1.05002e-05
3.9524e-06
4.69193e-05
-6.84913e-05
0.000112907
-0.00020319
0.000210547
-0.000386416
0.00034001
-0.000606039
0.00049925
-0.000850075
0.000683992
-0.00110654
0.000888093
-0.0013639
0.00110422
-0.0016118
0.00132472
-0.00184181
0.00154242
-0.00204796
0.00175129
-0.00222681
0.00194682
-0.00237729
0.00212616
-0.00250026
0.00228799
-0.00259798
0.00243228
-0.00267355
0.00256
-0.00273047
0.00267274
-0.00277223
0.00277246
-0.00280212
-0.00282262
0.00286158
1.26834e-05
-8.73103e-06
5.51268e-05
-0.000110935
0.000130404
-0.000278467
0.000239681
-0.000495693
0.000381749
-0.000748107
0.000552795
-0.00102112
0.000746636
-0.00130038
0.000955423
-0.00157269
0.00117065
-0.00182703
0.00138421
-0.00205537
0.00158921
-0.00225297
0.00178054
-0.00241813
0.00195498
-0.00255173
0.00211112
-0.0026564
0.00224903
-0.00273589
0.00236986
-0.00279439
0.00247547
-0.00283608
0.00256803
-0.00286479
0.00264981
-0.00288389
-0.00289602
0.00272321
1.50411e-05
-2.37722e-05
6.37704e-05
-0.000159664
0.000148401
-0.000363098
0.000268835
-0.000616126
0.000422132
-0.000901404
0.000602466
-0.00120146
0.000801725
-0.00149964
0.00101062
-0.00178158
0.00121997
-0.00203637
0.00142182
-0.00225722
0.00161018
-0.00244132
0.00178125
-0.00258921
0.00193334
-0.00270382
0.00206649
-0.00278955
0.00218197
-0.00285136
0.0022818
-0.00289422
0.00236837
-0.00292265
0.0024441
-0.00294053
0.00251127
-0.00295106
-0.0029568
0.00257206
1.75435e-05
-4.13156e-05
7.26941e-05
-0.000214815
0.00016648
-0.000456884
0.000297175
-0.000746821
0.000459799
-0.00106403
0.000646393
-0.00138805
0.00084708
-0.00170033
0.00105157
-0.00198607
0.00125063
-0.00223543
0.00143707
-0.00244366
0.00160622
-0.00261048
0.00175588
-0.00273887
0.00188586
-0.0028338
0.00199744
-0.00290113
0.0020928
-0.00294672
0.00217449
-0.00297592
0.00224511
-0.00299327
0.00230706
-0.00300247
0.00236241
-0.00300641
-0.00300742
0.00241302
2.01506e-05
-6.14663e-05
8.17088e-05
-0.000276373
0.000184164
-0.000559339
0.000323814
-0.000886471
0.000493413
-0.00123363
0.000682905
-0.00157754
0.000881006
-0.00189843
0.00107701
-0.00218207
0.00126222
-0.00242064
0.00143074
-0.00261218
0.0015795
-0.00275924
0.00170788
-0.00286724
0.00181702
-0.00294294
0.00190916
-0.00299327
0.00198703
-0.00302459
0.00205341
-0.00304229
0.00211084
-0.0030507
0.00216152
-0.00305315
0.00220723
-0.00305212
-0.00304965
0.00224947
2.28133e-05
-8.42795e-05
9.05974e-05
-0.000344157
0.000200943
-0.000669685
0.000347863
-0.00103339
0.000521745
-0.00140751
0.00071066
-0.00176646
0.000902415
-0.00209018
0.00108651
-0.00236617
0.00125535
-0.00258949
0.00140462
-0.00276145
0.00153293
-0.00288755
0.00164109
-0.0029754
0.00173128
-0.00303314
0.00180638
-0.00306837
0.00186935
-0.00308756
0.00192292
-0.00309587
0.00196945
-0.00309723
0.00201082
-0.00309451
0.00204849
-0.0030898
-0.00308479
0.00208363
2.54736e-05
-0.000109753
9.91236e-05
-0.000417807
0.000216294
-0.000786855
0.000368488
-0.00118558
0.000543776
-0.0015828
0.000728736
-0.00195142
0.000910864
-0.00227231
0.00108045
-0.00253575
0.00123139
-0.00274043
0.00136111
-0.00289117
0.00146975
-0.0029962
0.00155932
-0.00306496
0.00163272
-0.00310654
0.00169312
-0.00312877
0.00174348
-0.00313792
0.00178634
-0.00313873
0.00182374
-0.00313463
0.00185725
-0.00312802
0.00188803
-0.00312058
-0.00311371
0.00191694
2.80675e-05
-0.000137821
0.000107043
-0.000496782
0.000229717
-0.00090953
0.000384965
-0.00134083
0.000558754
-0.00175659
0.000736675
-0.00212934
0.000906518
-0.00244216
0.00105984
-0.00268907
0.00119227
-0.00287286
0.00130289
-0.00300179
0.00139322
-0.00308652
0.00146608
-0.00313783
0.00152481
-0.00316527
0.00157262
-0.00317658
0.0016123
-0.00317759
0.00164608
-0.00317251
0.00167568
-0.00316423
0.00170235
-0.00315469
0.00172701
-0.00314523
-0.00313696
0.00175026
3.05271e-05
-0.000168348
0.000114114
-0.000580369
0.000240761
-0.00103618
0.000396729
-0.0014968
0.000566236
-0.00192609
0.000734466
-0.00229757
0.000890054
-0.00259774
0.00102616
-0.00282517
0.00114017
-0.00298688
0.00123271
-0.00309433
0.00130631
-0.00316012
0.00136438
-0.0031959
0.00141038
-0.00321127
0.0014474
-0.00321359
0.00147792
-0.00320811
0.00150385
-0.00319845
0.0015266
-0.00318698
0.00154715
-0.00317524
0.00156618
-0.00316426
-0.00315491
0.00158413
3.27838e-05
-0.000201131
0.000120113
-0.000667698
0.00024905
-0.00116511
0.000403396
-0.00165115
0.000566091
-0.00208879
0.000722493
-0.00245397
0.000862524
-0.00273777
0.000981112
-0.00294376
0.00107735
-0.00308311
0.0011531
-0.00317008
0.00121167
-0.00321869
0.00125673
-0.00324096
0.00129167
-0.00324622
0.00131933
-0.00324124
0.00134187
-0.00323065
0.00136086
-0.00321744
0.00137741
-0.00320353
0.0013923
-0.00319013
0.00140602
-0.00317798
-0.00316778
0.00141889
3.47714e-05
-0.000235903
0.000124844
-0.00075777
0.000254305
-0.00129458
0.000404782
-0.00180162
0.000558475
-0.00224248
0.000701448
-0.00259694
0.000825221
-0.00286155
0.000926522
-0.00304506
0.00100595
-0.00316254
0.00106635
-0.00323049
0.0011115
-0.00326384
0.00114511
-0.00327457
0.00117039
-0.00327149
0.00118982
-0.00326067
0.00120523
-0.00324606
0.00121791
-0.00323011
0.00122871
-0.00321434
0.00123823
-0.00319964
0.00124684
-0.00318659
-0.0031757
0.00125476
3.6433e-05
-0.000272336
0.000128155
-0.000849492
0.000256361
-0.00142278
0.000400903
-0.00194617
0.000543798
-0.00238538
0.000672256
-0.0027254
0.000779568
-0.00296886
0.000864178
-0.00312967
0.000927946
-0.00322631
0.000974436
-0.00327698
0.00100762
-0.00329702
0.00103111
-0.00329806
0.00104781
-0.00328819
0.00105987
-0.00327273
0.00106878
-0.00325498
0.00107558
-0.00323691
0.00108092
-0.00321968
0.00108525
-0.00320398
0.00108886
-0.0031902
-0.00317873
0.00109189
3.77089e-05
-0.000310045
0.000129919
-0.000941702
0.000255133
-0.001548
0.000391907
-0.00208294
0.000522605
-0.00251608
0.000635917
-0.00283871
0.000726952
-0.00305989
0.000795699
-0.00319842
0.000845025
-0.00327563
0.000878938
-0.00331089
0.000901434
-0.00331952
0.000915887
-0.00331251
0.000924864
-0.00329717
0.000930175
-0.00327804
0.000933033
-0.00325784
0.000934232
-0.00323811
0.00093429
-0.00321974
0.000933548
-0.00320323
0.000932217
-0.00318887
-0.00317692
0.000930404
3.85598e-05
-0.000348604
0.000130072
-0.00103321
0.000250664
-0.00166859
0.000378115
-0.00221039
0.000495607
-0.00263357
0.000593525
-0.00293663
0.000668744
-0.00313511
0.000722585
-0.00325226
0.000758658
-0.00331171
0.000781196
-0.00333343
0.000794068
-0.00333239
0.000800346
-0.00331879
0.000802246
-0.00329907
0.000801264
-0.00327706
0.000798363
-0.00325494
0.000794158
-0.0032339
0.000789046
-0.00321462
0.00078329
-0.00319748
0.000777052
-0.00318263
-0.00317028
0.000770407
3.89537e-05
-0.000387558
0.000128594
-0.00112285
0.000243077
-0.00178307
0.000359938
-0.00232725
0.000463566
-0.0027372
0.000546147
-0.00301921
0.000606193
-0.00319516
0.000646124
-0.00329219
0.000670054
-0.00333563
0.000682259
-0.00334564
0.000686381
-0.00333651
0.000685153
-0.00331756
0.000680455
-0.00329437
0.000673501
-0.00327011
0.000665045
-0.00324648
0.000655556
-0.00322441
0.000645342
-0.00320441
0.000634605
-0.00318674
0.000623473
-0.0031715
-0.00315881
0.000612003
3.88711e-05
-0.000426429
0.000125506
-0.00120949
0.000232568
-0.00189013
0.000337858
-0.00243254
0.000427265
-0.0028266
0.00049479
-0.00308673
0.000540412
-0.00324078
0.000567411
-0.00331919
0.000580196
-0.00334842
0.00058295
-0.00334839
0.000579021
-0.00333258
0.000570799
-0.00330934
0.000559852
-0.00328342
0.00054715
-0.0032574
0.000533272
-0.0032326
0.000518577
-0.00320972
0.000503298
-0.00318913
0.000487598
-0.00317104
0.00047158
-0.00315548
-0.00314252
0.000455291
3.83042e-05
-0.000464733
0.00012087
-0.00129206
0.000219388
-0.00198865
0.000312391
-0.00252554
0.000387468
-0.00290168
0.000440379
-0.00313965
0.00047237
-0.00327277
0.000487359
-0.00333418
0.000489874
-0.00335093
0.000483906
-0.00334242
0.000472477
-0.00332116
0.000457645
-0.00329451
0.000440699
-0.00326648
0.000422401
-0.0032391
0.000403192
-0.00321339
0.000383338
-0.00318986
0.000363018
-0.00316881
0.000342364
-0.00315039
0.000321464
-0.00313458
-0.00312142
0.000300362
3.72568e-05
-0.00050199
0.000114778
-0.00136958
0.000203826
-0.0020777
0.000284063
-0.00260578
0.000344899
-0.00296251
0.000383743
-0.00317849
0.000402897
-0.00329193
0.000406716
-0.003338
0.000399713
-0.00334393
0.000385617
-0.00332833
0.000367115
-0.00330265
0.000345955
-0.00327335
0.000323185
-0.00324371
0.000299396
-0.00321532
0.000274914
-0.00318891
0.000249932
-0.00316488
0.000224586
-0.00314346
0.000198983
-0.00312478
0.000173205
-0.00310881
-0.00309551
0.000147297
3.57427e-05
-0.000537733
0.000107348
-0.00144118
0.000186189
-0.00215654
0.00025339
-0.00267298
0.000300226
-0.00300935
0.000325607
-0.00320387
0.00033269
-0.00329901
0.000326093
-0.0033314
0.000310205
-0.00332804
0.000288457
-0.00330658
0.000263207
-0.0032774
0.000235925
-0.00324606
0.000207453
-0.00321524
0.000178242
-0.0031861
0.000148525
-0.00315919
0.000118435
-0.00313479
8.80713e-05
-0.0031131
5.75243e-05
-0.00309424
2.68742e-05
-0.00307816
-0.0030648
-3.82911e-06
3.37849e-05
-0.000571518
9.87174e-05
-0.00150611
0.000166796
-0.00222462
0.000220866
-0.00272705
0.000254051
-0.00304253
0.000266601
-0.00321642
0.000262332
-0.00329474
0.000245982
-0.00331505
0.000221739
-0.0033038
0.000192716
-0.00327756
0.000160961
-0.00324565
0.0001277
-0.0032128
9.36064e-05
-0.00318114
5.90167e-05
-0.00315151
2.4089e-05
-0.00312427
-1.10948e-05
-0.00309961
-4.64677e-05
-0.00307773
-8.19537e-05
-0.00305875
-0.000117469
-0.00304264
-0.00302932
-0.000152952
3.14141e-05
-0.000602932
8.90336e-05
-0.00156373
0.00014596
-0.00228154
0.000186948
-0.00276804
0.000206911
-0.0030625
0.000207263
-0.00321677
0.000192307
-0.00327979
0.000166781
-0.00328952
0.000134622
-0.00327164
9.86187e-05
-0.00324155
6.05374e-05
-0.00320757
2.13949e-05
-0.00317366
-1.82739e-05
-0.00314147
-5.82201e-05
-0.00311157
-9.83462e-05
-0.00308414
-0.000138616
-0.00305934
-0.000178992
-0.00303735
-0.000219413
-0.00301833
-0.000259786
-0.00300227
-0.00298908
-0.000300031
2.86667e-05
-0.000631599
7.84514e-05
-0.00161352
0.000123985
-0.00232708
0.000152058
-0.00279611
0.000159281
-0.00306972
0.000148054
-0.00320555
0.000123018
-0.00325475
8.8817e-05
-0.00325532
4.91014e-05
-0.00323192
6.34838e-06
-0.0031988
-3.79322e-05
-0.00316329
-8.28984e-05
-0.00312869
-0.000128123
-0.00309625
-0.000173424
-0.00306627
-0.000218751
-0.00303881
-0.000264107
-0.00301398
-0.00030949
-0.00299197
-0.000354849
-0.00297297
-0.000400079
-0.00295704
-0.00294408
-0.000445076
2.55844e-05
-0.000657183
6.71276e-05
-0.00165506
0.000101161
-0.00236111
0.000116581
-0.00281153
0.000111574
-0.00306471
8.93669e-05
-0.00318334
5.48024e-05
-0.00322019
1.23604e-05
-0.00321288
-3.46124e-05
-0.00318495
-8.39368e-05
-0.00314948
-0.00013433
-0.00311289
-0.000185094
-0.00307793
-0.000235883
-0.00304546
-0.00028656
-0.00301559
-0.000337108
-0.00298827
-0.000387569
-0.00296352
-0.000437976
-0.00294156
-0.000488299
-0.00292265
-0.000538416
-0.00290692
-0.00289431
-0.000588183
2.22118e-05
-0.000679395
5.52176e-05
-0.00168807
7.77591e-05
-0.00238365
8.08609e-05
-0.00281464
6.41563e-05
-0.00304801
3.15403e-05
-0.00315072
-1.20509e-05
-0.00317659
-6.2354e-05
-0.00316258
-0.000116333
-0.00313097
-0.000172088
-0.00309372
-0.000228536
-0.00305645
-0.000285098
-0.00302137
-0.000341487
-0.00298907
-0.000397588
-0.00295949
-0.000453406
-0.00293245
-0.000509013
-0.00290791
-0.000564488
-0.00288609
-0.00061983
-0.0028673
-0.000674906
-0.00285185
-0.00283971
-0.000729512
1.85963e-05
-0.000697991
4.28728e-05
-0.00171234
5.40319e-05
-0.00239481
4.52091e-05
-0.00280581
1.73466e-05
-0.00302015
-2.51317e-05
-0.00310824
-7.72885e-05
-0.00312444
-0.000135114
-0.00310475
-0.00019588
-0.00307021
-0.000257949
-0.00303165
-0.000320414
-0.00299398
-0.000382795
-0.00295899
-0.000444845
-0.00292702
-0.000506454
-0.00289788
-0.000567625
-0.00287128
-0.00062845
-0.00284709
-0.000689059
-0.00282548
-0.000749501
-0.00280686
-0.000809639
-0.00279171
-0.00278017
-0.00086917
1.47864e-05
-0.000712778
3.02388e-05
-0.0017278
3.0212e-05
-0.00239478
9.90378e-06
-0.0027855
-2.85725e-05
-0.00298167
-8.03892e-05
-0.00305643
-0.000140682
-0.00306414
-0.000205717
-0.00303972
-0.00027307
-0.00300285
-0.000341344
-0.00296338
-0.000409794
-0.00292553
-0.000478029
-0.00289075
-0.000545826
-0.00285922
-0.000613065
-0.00283064
-0.000679724
-0.00280462
-0.00074589
-0.00278092
-0.00081173
-0.00275964
-0.000877365
-0.00274123
-0.000942667
-0.00272641
-0.00271565
-0.00100719
1.08311e-05
-0.000723609
1.74541e-05
-0.00173442
6.51219e-06
-0.00238384
-2.48062e-05
-0.00275419
-7.33511e-05
-0.00293313
-0.000134
-0.00299578
-0.000202018
-0.00299613
-0.000273963
-0.00296777
-0.000347701
-0.00292912
-0.000422063
-0.00288902
-0.000496456
-0.00285114
-0.00057057
-0.00281664
-0.000644216
-0.00278558
-0.000717256
-0.0027576
-0.000789615
-0.00273226
-0.000861336
-0.0027092
-0.000932598
-0.00268838
-0.0010036
-0.00267023
-0.00107424
-0.00265576
-0.00264592
-0.00114397
6.77864e-06
-0.000730387
4.64832e-06
-0.00173229
-1.68745e-05
-0.00236232
-5.87e-05
-0.00271236
-0.000116768
-0.00287506
-0.000185755
-0.00292679
-0.000261098
-0.00292078
-0.00033965
-0.00288922
-0.000419556
-0.00284921
-0.00049986
-0.00280871
-0.000580114
-0.00277088
-0.000660104
-0.00273665
-0.000739687
-0.00270599
-0.000818721
-0.00267857
-0.00089708
-0.0026539
-0.000974727
-0.00263155
-0.00105182
-0.00261128
-0.00112864
-0.00259341
-0.00120518
-0.00257923
-0.00257002
-0.00128107
2.67597e-06
-0.000733063
-8.05909e-06
-0.00172155
-3.97759e-05
-0.0023306
-9.15834e-05
-0.00266055
-0.000158629
-0.00280801
-0.000235465
-0.00284996
-0.000317731
-0.00283852
-0.000402572
-0.00280438
-0.000488396
-0.00276338
-0.000574446
-0.00272266
-0.000660422
-0.00268491
-0.000746219
-0.00265085
-0.000831777
-0.00262044
-0.000916998
-0.00259335
-0.00100173
-0.00256917
-0.00108587
-0.00254741
-0.00116952
-0.00252764
-0.00125308
-0.00250985
-0.00133676
-0.00249554
-0.0024856
-0.00142118
-1.43272e-06
-0.000731631
-2.05603e-05
-0.00170243
-6.20413e-05
-0.00228912
-0.000123291
-0.0025993
-0.000198769
-0.00273253
-0.000282966
-0.00276576
-0.000371742
-0.00274974
-0.000462522
-0.0027136
-0.000553959
-0.00267195
-0.00064548
-0.00263114
-0.000736932
-0.00259346
-0.000828347
-0.00255944
-0.000919803
-0.00252898
-0.00101134
-0.00250181
-0.0011029
-0.00247761
-0.00119437
-0.00245594
-0.00128577
-0.00243624
-0.00137746
-0.00241815
-0.00147004
-0.00240297
-0.00238941
-0.00156623
-5.50686e-06
-0.000726124
-3.2761e-05
-0.00167517
-8.35438e-05
-0.00223834
-0.000153686
-0.00252916
-0.000237055
-0.00264916
-0.000328126
-0.00267469
-0.000422983
-0.00265489
-0.000519314
-0.00261727
-0.000615983
-0.00257528
-0.000712579
-0.00253455
-0.000809071
-0.00249696
-0.000905629
-0.00246288
-0.00100251
-0.00243209
-0.00110003
-0.0024043
-0.00119845
-0.00237918
-0.00129799
-0.0023564
-0.00139877
-0.00233546
-0.00150136
-0.00231556
-0.00160809
-0.00229624
-0.00228922
-0.00170828
-9.49805e-06
-0.000716626
-4.45613e-05
-0.00164011
-0.000104158
-0.00217874
-0.000182642
-0.00245068
-0.000273371
-0.00255844
-0.000370837
-0.00257722