/*--------------------------------*- C++ -*----------------------------------*\
  =========                 |
  \\      /  F ield         | OpenFOAM: The Open Source CFD Toolbox
   \\    /   O peration     | Website:  https://openfoam.org
    \\  /    A nd           | Version:  6.0
     \\/     M anipulation  |
\*---------------------------------------------------------------------------*/
FoamFile
{
    version     2.0;
    format      ascii;
    class       volScalarField;
    location    "63";
    object      p;
}
// * * * * * * * * * * * * * * * * * * * * * * * * * * * * * * * * * * * * * //

dimensions      [0 2 -2 0 0 0 0];

internalField   nonuniform List<scalar> 
4000
(
-0.514308
-0.500028
-0.486977
-0.472091
-0.454197
-0.433946
-0.412339
-0.390357
-0.368808
-0.348242
-0.328965
-0.311094
-0.294626
-0.279488
-0.265573
-0.252766
-0.240956
-0.230009
-0.21972
-0.210401
-0.521286
-0.506585
-0.492637
-0.47616
-0.456169
-0.433658
-0.409916
-0.386092
-0.363044
-0.341303
-0.321122
-0.302561
-0.285564
-0.27002
-0.255792
-0.242742
-0.230747
-0.219649
-0.209231
-0.199884
-0.526245
-0.51122
-0.496321
-0.478132
-0.455963
-0.431198
-0.405412
-0.379888
-0.355507
-0.332756
-0.311824
-0.292708
-0.275303
-0.259458
-0.24501
-0.231804
-0.219701
-0.208525
-0.198046
-0.188741
-0.528817
-0.513564
-0.497666
-0.477679
-0.453308
-0.426358
-0.39867
-0.37163
-0.346108
-0.322528
-0.301006
-0.281477
-0.263788
-0.247753
-0.233185
-0.219913
-0.207785
-0.196604
-0.186136
-0.176947
-0.528652
-0.513266
-0.496335
-0.474503
-0.447966
-0.418959
-0.389561
-0.361221
-0.334769
-0.310552
-0.288611
-0.268817
-0.250974
-0.234864
-0.220279
-0.207034
-0.194967
-0.183861
-0.17348
-0.16448
-0.525428
-0.510001
-0.492022
-0.468348
-0.439741
-0.408862
-0.377987
-0.348589
-0.321433
-0.296781
-0.274594
-0.254688
-0.236823
-0.220756
-0.206262
-0.193143
-0.181227
-0.170278
-0.160063
-0.151329
-0.518858
-0.503483
-0.484465
-0.459001
-0.428479
-0.395963
-0.363877
-0.333682
-0.306058
-0.281176
-0.258922
-0.239058
-0.221308
-0.205408
-0.191115
-0.178225
-0.166553
-0.155847
-0.145881
-0.137488
-0.508701
-0.493468
-0.47345
-0.446303
-0.414077
-0.380198
-0.347192
-0.316471
-0.288621
-0.263717
-0.241575
-0.221909
-0.204414
-0.188805
-0.174828
-0.16227
-0.150939
-0.140566
-0.130935
-0.122961
-0.494769
-0.479769
-0.458822
-0.430149
-0.396475
-0.36154
-0.327919
-0.296952
-0.269117
-0.244398
-0.222547
-0.203236
-0.186136
-0.170944
-0.157399
-0.145283
-0.134393
-0.124445
-0.115239
-0.10776
-0.476934
-0.462258
-0.440484
-0.410488
-0.375662
-0.339998
-0.306077
-0.275142
-0.24756
-0.22323
-0.201846
-0.183046
-0.166479
-0.151833
-0.138839
-0.127273
-0.116927
-0.107503
-0.0988165
-0.0919121
-0.455126
-0.440868
-0.418401
-0.387326
-0.35167
-0.315619
-0.281713
-0.251083
-0.223986
-0.200242
-0.179495
-0.161357
-0.145462
-0.131488
-0.119163
-0.10826
-0.0985643
-0.0897679
-0.0817027
-0.075459
-0.429344
-0.415599
-0.392602
-0.360723
-0.324579
-0.288484
-0.254903
-0.22484
-0.198449
-0.175478
-0.155532
-0.138201
-0.12311
-0.109932
-0.0983918
-0.0882645
-0.0793274
-0.0712677
-0.0639355
-0.0584463
-0.399649
-0.386514
-0.363173
-0.33079
-0.29451
-0.258711
-0.22575
-0.196504
-0.171026
-0.149003
-0.13001
-0.113621
-0.0994577
-0.0871925
-0.0765514
-0.0673083
-0.0592384
-0.0520297
-0.0455488
-0.0409
-0.366167
-0.35374
-0.33026
-0.297688
-0.261624
-0.226448
-0.194389
-0.16619
-0.141814
-0.120898
-0.102994
-0.0876703
-0.0745476
-0.0633026
-0.0536651
-0.0454115
-0.0383179
-0.0320796
-0.0265676
-0.0228122
-0.329085
-0.317463
-0.294066
-0.261626
-0.226121
-0.19188
-0.160981
-0.134038
-0.110935
-0.0912661
-0.0745696
-0.0604142
-0.048427
-0.0382932
-0.0297513
-0.0225843
-0.0165755
-0.0114309
-0.00700098
-0.00418108
-0.288646
-0.277927
-0.25484
-0.222852
-0.188236
-0.15522
-0.125717
-0.100218
-0.0785341
-0.0602309
-0.0448393
-0.0319343
-0.0211547
-0.0122006
-0.00482565
0.00117402
0.00600263
0.00993629
0.0131468
0.0148664
-0.245147
-0.235424
-0.212877
-0.181655
-0.148238
-0.116712
-0.0888156
-0.064923
-0.0447837
-0.0279416
-0.013928
-0.00233015
0.00719527
0.0149257
0.0210835
0.0258566
0.0294318
0.0320282
0.0337528
0.0339238
-0.19893
-0.190293
-0.168514
-0.138354
-0.106425
-0.0766279
-0.0505233
-0.0283759
-0.0098822
0.00542888
0.0180204
0.0282889
0.0365525
0.0430549
0.0479835
0.0515042
0.0537617
0.0547957
0.0544821
0.0525223
-0.150377
-0.142909
-0.122116
-0.0933007
-0.0631211
-0.0352652
-0.0111144
0.00917017
0.0259379
0.0396719
0.0508301
0.0597946
0.0668595
0.0722331
0.0760646
0.0784873
0.0795278
0.0788207
0.0758826
0.0717263
-0.099901
-0.0936782
-0.0740786
-0.0468649
-0.01867
0.00705665
0.0291122
0.047431
0.0624029
0.0745222
0.0842472
0.0919573
0.0979434
0.102412
0.105525
0.107433
0.108033
0.106455
0.101978
0.0974434
-0.0479431
-0.0430303
-0.0248141
0.000565863
0.0265694
0.0500039
0.0698408
0.0861011
0.0992076
0.109663
0.117925
0.124378
0.129327
0.133017
0.135697
0.137645
0.138831
0.138246
0.135623
0.139412
0.00504854
0.0085936
0.0252546
0.0485966
0.0722317
0.0932369
0.110751
0.124871
0.136045
0.144777
0.151518
0.156644
0.160461
0.163224
0.165199
0.166652
0.167565
0.167456
0.167237
0.173218
0.0586077
0.0607396
0.0756969
0.0968285
0.117951
0.136417
0.151526
0.16344
0.172624
0.179578
0.184744
0.188487
0.191106
0.192856
0.193989
0.194728
0.195052
0.19466
0.194479
0.19932
0.112266
0.112953
0.126083
0.144866
0.163365
0.179212
0.191856
0.201515
0.208665
0.213794
0.217327
0.219615
0.220943
0.221552
0.221675
0.22151
0.221051
0.220068
0.219323
0.222628
0.165559
0.164781
0.17599
0.192321
0.208121
0.221302
0.231448
0.238827
0.243916
0.247191
0.249056
0.249841
0.249813
0.249193
0.24819
0.24697
0.245515
0.243624
0.241995
0.243873
0.218028
0.215781
0.225002
0.238817
0.251879
0.262377
0.270021
0.275118
0.278144
0.279556
0.279737
0.278994
0.277575
0.27568
0.273493
0.271156
0.268633
0.265746
0.263159
0.26367
0.269228
0.265521
0.272719
0.283989
0.294313
0.302143
0.30731
0.31015
0.311134
0.310698
0.309202
0.306933
0.304115
0.300929
0.297538
0.294057
0.290443
0.286544
0.282995
0.282216
0.318728
0.313586
0.318755
0.32749
0.335109
0.340321
0.343063
0.343697
0.342684
0.340438
0.337299
0.333529
0.329332
0.324872
0.320289
0.31568
0.310995
0.306111
0.301626
0.299622
0.366116
0.35958
0.362745
0.36899
0.373973
0.376647
0.377044
0.375547
0.372604
0.36861
0.363881
0.358657
0.353124
0.347427
0.341689
0.33599
0.330279
0.324457
0.319077
0.315912
0.411003
0.403127
0.404343
0.408177
0.410627
0.410871
0.40903
0.4055
0.400717
0.395056
0.388808
0.382197
0.375389
0.368512
0.361675
0.354941
0.348263
0.341561
0.335334
0.331074
0.453022
0.443876
0.443224
0.444761
0.44481
0.442761
0.43881
0.433367
0.426854
0.419624
0.411949
0.404033
0.396025
0.388041
0.380172
0.372471
0.364893
0.357376
0.350356
0.345072
0.491834
0.481501
0.47909
0.478472
0.476281
0.472099
0.466191
0.458974
0.450857
0.442173
0.433175
0.42405
0.414933
0.405924
0.397102
0.388509
0.380107
0.371845
0.364091
0.357857
0.527127
0.515704
0.511666
0.509063
0.504819
0.498688
0.490993
0.482158
0.472578
0.462569
0.452367
0.442141
0.432013
0.422072
0.412385
0.402984
0.393837
0.384903
0.376481
0.369378
0.558619
0.546214
0.540705
0.536313
0.530223
0.522346
0.513053
0.502771
0.491884
0.480692
0.469412
0.458203
0.447174
0.436402
0.425943
0.415824
0.406017
0.396487
0.387466
0.379584
0.58606
0.572793
0.565987
0.560022
0.552317
0.542913
0.532224
0.520681
0.508654
0.496428
0.484211
0.472145
0.46033
0.448834
0.437704
0.426961
0.416581
0.406535
0.39699
0.388424
0.609232
0.595233
0.587321
0.58002
0.570945
0.560249
0.548381
0.53577
0.52278
0.509683
0.496672
0.483883
0.471405
0.459299
0.447602
0.436333
0.425473
0.414991
0.405002
0.395856
0.627953
0.613359
0.604548
0.596162
0.585977
0.574236
0.561414
0.547941
0.534173
0.520371
0.50672
0.493347
0.480334
0.467734
0.455581
0.443888
0.432639
0.421808
0.411458
0.40184
0.642076
0.627031
0.617538
0.608331
0.597308
0.584778
0.571237
0.557115
0.542759
0.528426
0.514292
0.500478
0.487061
0.47409
0.461593
0.44958
0.43804
0.426944
0.416321
0.406345
0.651488
0.636142
0.626194
0.61644
0.604859
0.591804
0.577784
0.563229
0.548483
0.533796
0.519341
0.505233
0.491548
0.478329
0.465602
0.453376
0.441642
0.43037
0.419564
0.409349
0.656115
0.640622
0.630451
0.62043
0.608576
0.595265
0.58101
0.566244
0.551307
0.536447
0.521834
0.507582
0.493765
0.480424
0.467584
0.455253
0.443423
0.432066
0.421169
0.410834
0.655922
0.640435
0.630277
0.620271
0.608433
0.595136
0.580895
0.56614
0.551212
0.536361
0.521756
0.507511
0.493699
0.480363
0.467528
0.455201
0.443374
0.43202
0.421126
0.410794
0.650908
0.635582
0.625672
0.615965
0.604431
0.591419
0.577438
0.562916
0.5482
0.533539
0.519106
0.505018
0.49135
0.478146
0.465433
0.453219
0.441495
0.430233
0.419435
0.409229
0.641113
0.626101
0.616671
0.607541
0.596597
0.584139
0.570662
0.556595
0.542289
0.527999
0.513902
0.500121
0.486733
0.473787
0.461312
0.449319
0.437796
0.426716
0.416107
0.406147
0.626612
0.612063
0.603339
0.595061
0.584986
0.573346
0.560613
0.547219
0.533518
0.519776
0.506177
0.492849
0.479876
0.467312
0.45519
0.443525
0.432301
0.42149
0.411159
0.401563
0.60752
0.593578
0.585777
0.578614
0.569679
0.559112
0.547358
0.534847
0.521944
0.508923
0.495979
0.483248
0.470822
0.458761
0.447105
0.435871
0.425041
0.414586
0.404621
0.395503
0.583984
0.570787
0.564114
0.558318
0.550782
0.541535
0.530985
0.519563
0.507642
0.495509
0.483372
0.471377
0.459625
0.448184
0.437102
0.426402
0.41606
0.406045
0.39653
0.387998
0.556191
0.543867
0.538514
0.534318
0.528427
0.520734
0.511603
0.501464
0.490701
0.479617
0.468433
0.457307
0.44635
0.435643
0.425241
0.415172
0.405409
0.395916
0.386929
0.379086
0.524359
0.513027
0.509167
0.506788
0.502771
0.49685
0.489341
0.480669
0.471231
0.461346
0.451252
0.441121
0.431077
0.421209
0.411586
0.402243
0.393146
0.384255
0.375871
0.368812
0.48874
0.478509
0.476296
0.475928
0.473991
0.470045
0.464346
0.457311
0.449353
0.440808
0.431931
0.422913
0.413889
0.404962
0.396213
0.387684
0.379338
0.371123
0.363412
0.357226
0.44962
0.440585
0.44015
0.441961
0.442291
0.440501
0.436781
0.431539
0.425202
0.418125
0.410584
0.402785
0.39488
0.386987
0.379198
0.371567
0.36405
0.356586
0.349612
0.34438
0.40731
0.399554
0.401004
0.405136
0.407891
0.408418
0.406827
0.403517
0.398926
0.393431
0.38733
0.380846
0.37415
0.367372
0.360622
0.353964
0.347352
0.340708
0.33453
0.330326
0.362153
0.355745
0.359161
0.365725
0.371036
0.374014
0.374681
0.373421
0.370684
0.36687
0.362297
0.357211
0.351799
0.346208
0.340563
0.334946
0.329307
0.323546
0.318219
0.315113
0.314518
0.309512
0.314945
0.324018
0.331987
0.337523
0.340553
0.34144
0.340646
0.338593
0.335621
0.331997
0.327929
0.323581
0.319098
0.314576
0.309968
0.305149
0.300719
0.298776
0.264796
0.261231
0.268705
0.28033
0.291022
0.299195
0.304667
0.307775
0.308991
0.308758
0.30744
0.305325
0.302643
0.299576
0.296289
0.292901
0.289367
0.285536
0.282045
0.28133
0.213401
0.211301
0.220808
0.234993
0.248441
0.259297
0.267262
0.27264
0.27591
0.277534
0.2779
0.27732
0.276042
0.274272
0.272195
0.269954
0.267516
0.264701
0.262174
0.26275
0.160766
0.160139
0.171641
0.188356
0.204555
0.218109
0.228589
0.23626
0.241604
0.245099
0.247157
0.248111
0.24823
0.24774
0.246849
0.24573
0.244363
0.242546
0.24098
0.242925
0.107338
0.10818
0.121609
0.140783
0.159693
0.175927
0.188916
0.198877
0.206289
0.211647
0.215379
0.21784
0.219319
0.220061
0.220301
0.22024
0.219871
0.218966
0.218286
0.221659
0.0535784
0.0558677
0.0711256
0.0926556
0.114198
0.13306
0.148523
0.160747
0.170201
0.17739
0.182759
0.186679
0.189453
0.191338
0.19259
0.193434
0.19385
0.193537
0.193422
0.198333
-4.66475e-05
0.00365699
0.0206187
0.0443621
0.0684235
0.0898318
0.107707
0.122144
0.133592
0.142562
0.14951
0.154816
0.158789
0.161688
0.163783
0.165341
0.166346
0.166316
0.166165
0.17222
-0.0530667
-0.0479952
-0.0294809
-0.00369983
0.0227329
0.0465749
0.0667776
0.0833581
0.0967424
0.107438
0.115909
0.122542
0.127648
0.131474
0.134272
0.136326
0.137605
0.1371
0.134542
0.138401
-0.105014
-0.0986327
-0.0787406
-0.0511296
-0.022506
0.00362949
0.0260527
0.0446936
0.0599444
0.0723048
0.0822379
0.0901277
0.0962693
0.100872
0.104102
0.106112
0.106802
0.105299
0.100873
0.0963893
-0.155437
-0.147813
-0.126736
-0.0975304
-0.0669264
-0.0386633
-0.0141456
0.00646034
0.0235061
0.0374797
0.0488441
0.0579857
0.0652028
0.0707064
0.0746485
0.077165
0.0782853
0.0776405
0.0747377
0.0706012
-0.203895
-0.195105
-0.173052
-0.142514
-0.110168
-0.0799686
-0.0535007
-0.031035
-0.0122663
0.00328101
0.016075
0.0265165
0.0349276
0.0415548
0.046588
0.0501954
0.0525243
0.053614
0.0533343
0.0513841
-0.249973
-0.2401
-0.217293
-0.185706
-0.151885
-0.119966
-0.0917124
-0.0675072
-0.0470981
-0.030025
-0.0158142
-0.00404854
0.00561902
0.013469
0.0197264
0.0245811
0.0282225
0.0308712
0.0326328
0.0328232
-0.293288
-0.282422
-0.259091
-0.226758
-0.191753
-0.158356
-0.128505
-0.102702
-0.080756
-0.0622288
-0.0466468
-0.0335805
-0.0226652
-0.0135975
-0.00612862
-5.23282e-05
0.0048378
0.00881968
0.0120664
0.0138128
-0.333497
-0.321732
-0.298109
-0.265346
-0.229472
-0.194866
-0.163632
-0.136396
-0.11304
-0.0931569
-0.0762785
-0.0619701
-0.0498549
-0.0396148
-0.0309858
-0.0237485
-0.0176838
-0.0124964
-0.00803518
-0.00519054
-0.370303
-0.357737
-0.334051
-0.301182
-0.264772
-0.229251
-0.196873
-0.168395
-0.143779
-0.12266
-0.104584
-0.0891174
-0.0758759
-0.0645334
-0.0548169
-0.0465005
-0.039358
-0.0330834
-0.0275464
-0.0237732
-0.403463
-0.390194
-0.366667
-0.334016
-0.297418
-0.261296
-0.228038
-0.198529
-0.172826
-0.150613
-0.131461
-0.11494
-0.100669
-0.0883164
-0.0776056
-0.0683086
-0.0601981
-0.0529605
-0.0464613
-0.0418015
-0.43279
-0.418916
-0.395755
-0.36364
-0.327209
-0.290819
-0.256963
-0.226657
-0.200059
-0.176914
-0.156823
-0.139374
-0.124187
-0.110932
-0.0993339
-0.0891624
-0.080194
-0.0721141
-0.0647709
-0.0592772
-0.458161
-0.443778
-0.421171
-0.389892
-0.353984
-0.317668
-0.283515
-0.252664
-0.22538
-0.20148
-0.180605
-0.162363
-0.146387
-0.13235
-0.119978
-0.109043
-0.0993258
-0.0905189
-0.0824516
-0.0762109
-0.479515
-0.464718
-0.442827
-0.412663
-0.377621
-0.341728
-0.307589
-0.276459
-0.248713
-0.224247
-0.202753
-0.183867
-0.167235
-0.15254
-0.139513
-0.127927
-0.117572
-0.108149
-0.0994705
-0.0925784
-0.496859
-0.48174
-0.460698
-0.431893
-0.398044
-0.362916
-0.32911
-0.297977
-0.270002
-0.24517
-0.22323
-0.203852
-0.186704
-0.17148
-0.157917
-0.145795
-0.13491
-0.124975
-0.11579
-0.108335
-0.510262
-0.494914
-0.474821
-0.447578
-0.415218
-0.381187
-0.34803
-0.317176
-0.289214
-0.264221
-0.242013
-0.222301
-0.204777
-0.189154
-0.175175
-0.162628
-0.151317
-0.140972
-0.131375
-0.123438
-0.519859
-0.504371
-0.485297
-0.459772
-0.429158
-0.396531
-0.364334
-0.334038
-0.306332
-0.281389
-0.259094
-0.239205
-0.221448
-0.205554
-0.191278
-0.178416
-0.166781
-0.156119
-0.146202
-0.137861
-0.525842
-0.510305
-0.492286
-0.468583
-0.439925
-0.408978
-0.378032
-0.348569
-0.321364
-0.296679
-0.274477
-0.254572
-0.236722
-0.220683
-0.206226
-0.193155
-0.181294
-0.170407
-0.160258
-0.151591
-0.528457
-0.512963
-0.496006
-0.474174
-0.447627
-0.418594
-0.389166
-0.360799
-0.334331
-0.310113
-0.288185
-0.268418
-0.250614
-0.234554
-0.220029
-0.206853
-0.194861
-0.183836
-0.17354
-0.164625
-0.527998
-0.512638
-0.496725
-0.476763
-0.452419
-0.425485
-0.397808
-0.37078
-0.345278
-0.321728
-0.300249
-0.280775
-0.263151
-0.247191
-0.232707
-0.219525
-0.207493
-0.196415
-0.186053
-0.176969
-0.524792
-0.509663
-0.494754
-0.476611
-0.454502
-0.429794
-0.404059
-0.378587
-0.354261
-0.331574
-0.310715
-0.291682
-0.27437
-0.258627
-0.244287
-0.231196
-0.219213
-0.208161
-0.197811
-0.188633
-0.519196
-0.504394
-0.49044
-0.474023
-0.454119
-0.4317
-0.40805
-0.384315
-0.361359
-0.339716
-0.319639
-0.301191
-0.284316
-0.2689
-0.254807
-0.241898
-0.230047
-0.219099
-0.208834
-0.199637
-0.511584
-0.497205
-0.48415
-0.469334
-0.451548
-0.43142
-0.409939
-0.388083
-0.366661
-0.346227
-0.327087
-0.309359
-0.293042
-0.278061
-0.264309
-0.251669
-0.240031
-0.22926
-0.21915
-0.210006
0.0799899
0.0513307
0.0306441
0.0208267
0.0119174
-0.000143035
-0.0136438
-0.0266592
-0.0389029
-0.0507943
-0.062573
-0.0742065
-0.0855971
-0.0966994
-0.107517
-0.118071
-0.128381
-0.138467
-0.148359
-0.158095
0.0262073
0.0123869
0.000794147
-0.00632199
-0.0118464
-0.0182897
-0.0257109
-0.0331259
-0.0399932
-0.0463787
-0.0524996
-0.058445
-0.064188
-0.0696834
-0.0749126
-0.0798782
-0.0845865
-0.0890389
-0.0932323
-0.0971618
0.0158486
0.00999965
0.00527938
0.00109456
-0.00295114
-0.00712216
-0.0114695
-0.0158556
-0.0201415
-0.0242999
-0.0283783
-0.032421
-0.0364392
-0.0404258
-0.0443753
-0.0482899
-0.0521761
-0.0560411
-0.059891
-0.0637317
0.0111035
0.00759182
0.00456626
0.00135367
-0.00204408
-0.00544013
-0.00876228
-0.0120241
-0.0152387
-0.0184018
-0.0215086
-0.0245603
-0.0275596
-0.0305064
-0.0333995
-0.0362382
-0.0390228
-0.0417546
-0.0444347
-0.0470643
0.00771195
0.00492619
0.00270183
0.000504389
-0.00184085
-0.00423388
-0.00657325
-0.00884407
-0.0110711
-0.0132714
-0.0154475
-0.0175974
-0.0197213
-0.0218217
-0.0239014
-0.025963
-0.0280088
-0.0300413
-0.0320627
-0.0340754
0.00532701
0.00311901
0.00148042
-4.40559e-05
-0.00168553
-0.00340985
-0.00512775
-0.00680572
-0.00845471
-0.0100912
-0.0117208
-0.0133422
-0.0149533
-0.0165537
-0.0181441
-0.0197253
-0.0212978
-0.0228619
-0.024418
-0.0259663
0.00421666
0.00252689
0.0013091
0.000194232
-0.00101395
-0.00230049
-0.00359665
-0.0048704
-0.00612544
-0.00737352
-0.00862002
-0.0098645
-0.0111051
-0.0123411
-0.0135725
-0.0147999
-0.0160235
-0.0172438
-0.018461
-0.0196753
0.00386373
0.00258508
0.00163192
0.000747588
-0.000201673
-0.00120823
-0.00222647
-0.00323317
-0.00422897
-0.00522105
-0.00621322
-0.00720543
-0.00819643
-0.00918541
-0.0101722
-0.0111571
-0.01214
-0.0131211
-0.0141005
-0.0150781
0.00384807
0.00290158
0.00213167
0.00138965
0.000608714
-0.0002038
-0.00102311
-0.00183673
-0.00264458
-0.0034502
-0.0042556
-0.00506081
-0.00586514
-0.00666811
-0.00746957
-0.00826955
-0.00906809
-0.00986525
-0.0106611
-0.0114556
0.00388279
0.00320334
0.00257709
0.00193795
0.00127685
0.00060621
-6.40421e-05
-0.000731071
-0.00139571
-0.00205918
-0.00272192
-0.00338383
-0.00404463
-0.00470416
-0.00536236
-0.00601924
-0.00667481
-0.00732913
-0.00798223
-0.00863411
0.00384995
0.00337573
0.00287205
0.00232485
0.00176409
0.00120823
0.000658874
0.000112245
-0.000433867
-0.00097958
-0.00152437
-0.00206793
-0.00261022
-0.00315132
-0.0036913
-0.00423019
-0.00476805
-0.00530493
-0.00584092
-0.00637603
0.00373267
0.00340957
0.00301326
0.00255651
0.00208928
0.00163388
0.00118831
0.000745472
0.000302139
-0.000141498
-0.000584492
-0.00102642
-0.00146738
-0.00190757
-0.00234715
-0.00278624
-0.0032249
-0.00366322
-0.00410132
-0.00453922
0.00358826
0.00338445
0.00308686
0.00271959
0.00234195
0.00197869
0.0016267
0.00127743
0.000927027
0.000575626
0.00022426
-0.000126646
-0.000477252
-0.000827878
-0.00117878
-0.00153011
-0.00188201
-0.0022346
-0.00258802
-0.00294234
0.00346128
0.00336847
0.00316607
0.00288399
0.00259003
0.00231224
0.00204705
0.00178465
0.00152041
0.00125425
0.000987158
0.000719494
0.000450976
0.00018115
-9.03459e-05
-0.00036376
-0.00063928
-0.000917074
-0.0011973
-0.00148003
0.00338115
0.00342309
0.00333408
0.00314765
0.0029449
0.00276039
0.00259044
0.00242299
0.0022519
0.00207654
0.00189785
0.00171611
0.00153091
0.00134162
0.00114778
0.000949061
0.000745274
0.000536265
0.00032193
0.000102249
0.00322999
0.00339585
0.00345817
0.00342635
0.00336708
0.00331466
0.00326932
0.00322098
0.00316323
0.00309468
0.00301591
0.00292732
0.00282877
0.0027199
0.0026005
0.00247052
0.00233006
0.00217929
0.00201847
0.0018479
0.00353204
0.00379165
0.00410616
0.00438695
0.00460874
0.00478259
0.00492299
0.00503607
0.00512202
0.00517997
0.00521011
0.00521368
0.00519218
0.00514703
0.00507953
0.00499094
0.00488251
0.00475551
0.00461121
0.00445087
0.00624865
0.00678976
0.00736073
0.00782855
0.00818582
0.00846171
0.00867751
0.00884166
0.00895688
0.00902532
0.00905005
0.00903468
0.00898281
0.00889774
0.00878249
0.00863985
0.00847246
0.00828276
0.00807306
0.00784552
0.017859
0.0215907
0.0229308
0.0223501
0.021335
0.0205779
0.0200684
0.0196189
0.0191302
0.0185985
0.0180494
0.0174992
0.0169514
0.0164043
0.0158571
0.0153104
0.0147656
0.0142239
0.013686
0.0131528
0.0298709
0.0421112
0.0458779
0.0433278
0.0395836
0.0368938
0.0351611
0.0337403
0.0322964
0.0308097
0.0293542
0.0279734
0.0266696
0.0254299
0.0242445
0.0231088
0.0220211
0.0209793
0.0199811
0.019024
0.129193
0.129688
0.130701
0.132223
0.134254
0.136807
0.139902
0.14356
0.147796
0.152611
0.157988
0.163866
0.170129
0.176535
0.182658
0.187673
0.190031
0.186612
0.17069
0.127007
0.120538
0.120897
0.121574
0.122588
0.123902
0.125537
0.127425
0.129596
0.131921
0.134425
0.136857
0.139212
0.141001
0.142126
0.141609
0.139075
0.132464
0.120438
0.0978522
0.0587071
0.110333
0.110519
0.110844
0.11132
0.111913
0.112617
0.113357
0.114103
0.114726
0.115162
0.115187
0.114666
0.113221
0.110575
0.106097
0.0992632
0.0891353
0.0749953
0.0561495
0.032579
0.0992416
0.0992649
0.0992836
0.0992976
0.0992854
0.0992178
0.0990342
0.0986692
0.0980221
0.0969851
0.0954061
0.0931148
0.0898951
0.085501
0.0796851
0.0721887
0.0628981
0.051672
0.038451
0.0221911
0.0879323
0.0878362
0.0876314
0.087313
0.0868684
0.0862635
0.0854538
0.0843713
0.0829469
0.0810834
0.078695
0.0756573
0.0718863
0.0672523
0.0617245
0.0552032
0.0477213
0.0390655
0.0289742
0.0164066
0.0769536
0.0767867
0.0764471
0.0759297
0.0752278
0.0743141
0.0731588
0.0717103
0.0699272
0.0677446
0.0651235
0.0619963
0.0583438
0.054105
0.0492903
0.0438201
0.0376757
0.030625
0.0224186
0.0122988
0.0666792
0.0664802
0.066079
0.0654716
0.0646552
0.063612
0.0623249
0.0607614
0.0588999
0.0567032
0.0541561
0.0512225
0.0478995
0.044147
0.0399665
0.03529
0.030095
0.0242309
0.01756
0.00959685
0.0573123
0.0571073
0.0566952
0.0560729
0.0552396
0.0541851
0.0529014
0.0513697
0.0495801
0.0475111
0.0451563
0.0424929
0.0395197
0.0362082
0.0325613
0.02854
0.0241502
0.0193208
0.0140001
0.00789224
0.0489243
0.0487283
0.0483352
0.0477418
0.0469479
0.045948
0.0447391
0.0433111
0.0416599
0.0397724
0.0376464
0.0352668
0.0326355
0.0297362
0.0265801
0.0231518
0.0194766
0.0155313
0.0113305
0.00676444
0.0414992
0.0413197
0.04096
0.0404166
0.0396892
0.0387746
0.0376727
0.0363782
0.034891
0.0332036
0.0313178
0.0292249
0.0269313
0.024429
0.0217341
0.0188423
0.0157869
0.0125731
0.00927042
0.00592536
0.0349724
0.034812
0.0344908
0.0340051
0.0333542
0.032536
0.0315522
0.0304007
0.0290843
0.0276002
0.0259535
0.0241412
0.0221728
0.0200453
0.0177757
0.0153639
0.0128458
0.0102436
0.007662
0.00524272
0.0292581
0.0291166
0.0288337
0.0284056
0.0278315
0.0271101
0.0262445
0.0252346
0.0240855
0.022797
0.0213768
0.0198254
0.0181553
0.0163676
0.0144813
0.0124987
0.0104561
0.00838109
0.00638961
0.00466085
0.0242686
0.0241437
0.0238947
0.0235179
0.0230132
0.0223804
0.0216241
0.0207463
0.0197536
0.018647
0.0174347
0.0161181
0.0147108
0.0132176
0.0116624
0.0100544
0.00843244
0.00682437
0.00534007
0.00416149
0.0199274
0.0198146
0.0195906
0.0192524
0.0188007
0.0182372
0.0175691
0.0168015
0.0159438
0.0149993
0.0139767
0.0128757
0.0117064
0.0104707
0.00919301
0.00789087
0.00661753
0.0054151
0.00439289
0.00371039
0.0161799
0.0160726
0.0158609
0.0155418
0.0151173
0.0145907
0.0139722
0.013271
0.0125026
0.0116769
0.0108101
0.00990526
0.00897156
0.00799932
0.0069969
0.0059656
0.00496359
0.00406231
0.00342577
0.00325096
0.0129996
0.0128907
0.0126764
0.0123536
0.0119248
0.011393
0.0107703
0.0100671
0.00930567
0.0085039
0.00769562
0.00690234
0.00615916
0.0054651
0.00482361
0.00418303
0.00354332
0.00292379
0.00255966
0.00278801
0.0103894
0.010273
0.0100433
0.00969645
0.00923439
0.00865765
0.00797596
0.00719565
0.00633757
0.00541903
0.00448432
0.00357607
0.00277937
0.00216247
0.00182026
0.00174682
0.00189658
0.00207243
0.0022857
0.0029512
0.00837473
0.00824973
0.00799743
0.00761541
0.00710239
0.00645761
0.00568173
0.00477573
0.00374353
0.00259227
0.0013403
2.37898e-05
-0.00128137
-0.00243951
-0.00322308
-0.00332285
-0.00242233
-0.00042687
0.00226484
0.00479761
0.00699675
0.00686443
0.00659027
0.00617437
0.00561125
0.00490002
0.00402993
0.00299774
0.00178449
0.000383767
-0.0012348
-0.00307632
-0.00516955
-0.00746237
-0.00984806
-0.0119051
-0.0128414
-0.0111092
-0.00487652
0.00711301
0.0062982
0.00615885
0.00587153
0.00543439
0.00484185
0.00408866
0.00316218
0.00204958
0.000726048
-0.000835477
-0.0026836
-0.00487613
-0.00751056
-0.0107041
-0.0146191
-0.0193547
-0.0247197
-0.0293114
-0.0280827
-0.00512595
0.138974
0.139518
0.140739
0.142541
0.145069
0.148222
0.152243
0.156988
0.162836
0.169574
0.177795
0.187179
0.198668
0.211759
0.22804
0.246657
0.270488
0.297924
0.334474
0.376707
0.138944
0.139489
0.140709
0.14251
0.145037
0.148189
0.152208
0.15695
0.162794
0.169528
0.177742
0.187116
0.198589
0.211659
0.227903
0.246469
0.270208
0.297508
0.333826
0.375666
0.13888
0.139424
0.140644
0.142444
0.144968
0.148117
0.152133
0.156869
0.162706
0.16943
0.177628
0.186982
0.198423
0.21145
0.227618
0.246082
0.269637
0.296664
0.332514
0.373564
0.138781
0.139325
0.140543
0.142341
0.144863
0.148007
0.152016
0.156745
0.16257
0.169279
0.177455
0.186779
0.198171
0.211134
0.227189
0.2455
0.268779
0.295398
0.330543
0.370411
0.138648
0.139192
0.140408
0.142203
0.14472
0.147859
0.15186
0.156578
0.162388
0.169077
0.177223
0.186506
0.197834
0.210711
0.226617
0.244725
0.267636
0.293717
0.327923
0.366224
0.138481
0.139024
0.140238
0.14203
0.144542
0.147674
0.151665
0.156369
0.16216
0.168823
0.176933
0.186165
0.197414
0.210184
0.225906
0.243762
0.266217
0.291631
0.324665
0.361024
0.13828
0.138823
0.140034
0.141822
0.144327
0.147451
0.15143
0.156118
0.161887
0.168519
0.176585
0.185758
0.196913
0.209555
0.22506
0.242615
0.264527
0.289153
0.320782
0.354837
0.138046
0.138588
0.139797
0.14158
0.144078
0.147192
0.151157
0.155827
0.16157
0.168167
0.176183
0.185284
0.196333
0.208826
0.224082
0.24129
0.262577
0.286298
0.316292
0.347697
0.137778
0.138321
0.139526
0.141304
0.143794
0.146897
0.150846
0.155495
0.16121
0.167766
0.175726
0.184747
0.195678
0.208
0.222978
0.239793
0.260377
0.28308
0.311213
0.339641
0.137478
0.13802
0.139222
0.140995
0.143476
0.146567
0.150499
0.155124
0.160807
0.167318
0.175217
0.184148
0.194948
0.20708
0.221755
0.23813
0.257938
0.279517
0.305566
0.330711
0.137145
0.137688
0.138886
0.140654
0.143124
0.146202
0.150116
0.154715
0.160363
0.166825
0.174657
0.183489
0.194149
0.20607
0.220417
0.23631
0.255276
0.275628
0.299376
0.320955
0.136781
0.137324
0.138519
0.140281
0.142741
0.145805
0.149697
0.154269
0.15988
0.166288
0.174048
0.182772
0.193282
0.204973
0.218973
0.234338
0.252404
0.27143
0.292669
0.310425
0.136385
0.13693
0.138121
0.139877
0.142326
0.145375
0.149246
0.153788
0.159358
0.165709
0.173392
0.181999
0.192352
0.203793
0.217429
0.232222
0.24934
0.266943
0.285478
0.299175
0.135958
0.136505
0.137693
0.139443
0.14188
0.144914
0.148761
0.153272
0.1588
0.165089
0.172692
0.181175
0.191361
0.202536
0.215792
0.229973
0.246103
0.262184
0.277838
0.28726
0.135502
0.136051
0.137236
0.13898
0.141405
0.144422
0.148245
0.152723
0.158206
0.164431
0.171947
0.1803
0.190312
0.201204
0.214068
0.227597
0.242713
0.257171
0.269793
0.274724
0.135015
0.135568
0.13675
0.138488
0.1409
0.1439
0.147697
0.152141
0.157575
0.163732
0.171158
0.179372
0.189203
0.199796
0.212258
0.225096
0.239181
0.251919
0.261398
0.261608
0.1345
0.135058
0.136238
0.13797
0.140369
0.143351
0.14712
0.151528
0.156912
0.162999
0.17033
0.178399
0.188041
0.198322
0.21037
0.222484
0.235529
0.246442
0.252714
0.247943
0.133958
0.134521
0.135701
0.137429
0.139818
0.142785
0.14653
0.150905
0.156244
0.162263
0.169506
0.177432
0.186891
0.196853
0.208492
0.219847
0.231849
0.240794
0.243783
0.233619
0.133386
0.133958
0.135141
0.136869
0.139251
0.142208
0.145935
0.150285
0.155586
0.161549
0.168713
0.176508
0.185793
0.195442
0.206676
0.217246
0.228201
0.23501
0.234617
0.217923
0.132784
0.133358
0.134534
0.136251
0.138608
0.141537
0.145215
0.149512
0.154727
0.16059
0.167599
0.175206
0.184205
0.193479
0.204169
0.21394
0.223779
0.228635
0.225344
0.201188
0.132589
0.133162
0.134337
0.136052
0.138404
0.141326
0.144996
0.14928
0.154483
0.160329
0.167321
0.174903
0.183879
0.19312
0.203774
0.213504
0.223277
0.228096
0.224677
0.200512
0.133202
0.133773
0.134955
0.13668
0.139057
0.142008
0.145727
0.150066
0.155356
0.161302
0.16845
0.176222
0.185485
0.195103
0.206302
0.216833
0.227722
0.234496
0.233965
0.217235
0.133783
0.134346
0.135525
0.13725
0.139635
0.142595
0.146334
0.150698
0.156027
0.162031
0.169259
0.177164
0.186602
0.196537
0.208142
0.219463
0.2314
0.240308
0.243153
0.232917
0.134336
0.134892
0.136071
0.1378
0.140196
0.143172
0.146935
0.151333
0.156708
0.16278
0.170098
0.178148
0.18777
0.198025
0.210042
0.222124
0.235106
0.245981
0.252109
0.24725
0.134861
0.135413
0.136594
0.138328
0.140737
0.143732
0.147522
0.151957
0.157383
0.163526
0.170941
0.179136
0.188949
0.199518
0.211949
0.224759
0.238783
0.251483
0.260822
0.260932
0.135357
0.135906
0.137089
0.13883
0.141252
0.144264
0.148081
0.152551
0.158026
0.164238
0.171744
0.180079
0.190075
0.200944
0.21378
0.227281
0.24234
0.256759
0.269248
0.274068
0.135824
0.13637
0.137556
0.139303
0.141738
0.144766
0.148609
0.153112
0.158633
0.16491
0.172502
0.18097
0.19114
0.202295
0.215524
0.22968
0.245756
0.261797
0.277324
0.28663
0.13626
0.136804
0.137994
0.139747
0.142194
0.145238
0.149104
0.15364
0.159203
0.165543
0.173217
0.18181
0.192147
0.203571
0.217181
0.231951
0.249018
0.266582
0.284997
0.298576
0.136666
0.137209
0.138402
0.140161
0.142619
0.145679
0.149568
0.154133
0.159737
0.166135
0.173886
0.182597
0.193095
0.204769
0.218745
0.234088
0.252108
0.271095
0.292222
0.30986
0.13704
0.137583
0.138779
0.140545
0.143013
0.146087
0.149997
0.15459
0.160233
0.166686
0.17451
0.18333
0.193978
0.205884
0.22021
0.236082
0.255005
0.275319
0.298963
0.320428
0.137383
0.137925
0.139125
0.140897
0.143375
0.146463
0.150391
0.155011
0.160689
0.167192
0.175084
0.184004
0.194794
0.206912
0.221567
0.237924
0.257693
0.279236
0.305189
0.330224
0.137693
0.138235
0.139439
0.141216
0.143704
0.146804
0.15075
0.155394
0.161104
0.167653
0.175607
0.184619