/*--------------------------------*- C++ -*----------------------------------*\
  =========                 |
  \\      /  F ield         | OpenFOAM: The Open Source CFD Toolbox
   \\    /   O peration     | Website:  https://openfoam.org
    \\  /    A nd           | Version:  6.0
     \\/     M anipulation  |
\*---------------------------------------------------------------------------*/
FoamFile
{
    version     2.0;
    format      ascii;
    class       volScalarField;
    location    "12.7";
    object      p;
}
// * * * * * * * * * * * * * * * * * * * * * * * * * * * * * * * * * * * * * //

dimensions      [0 2 -2 0 0 0 0];

internalField   nonuniform List<scalar> 
8000
(
-0.291391
-0.292641
-0.293444
-0.294022
-0.294512
-0.294938
-0.29532
-0.295677
-0.296019
-0.296357
-0.296698
-0.297048
-0.297414
-0.297804
-0.298226
-0.298697
-0.299219
-0.29971
-0.300139
-0.301372
-0.29156
-0.292795
-0.293588
-0.294157
-0.294639
-0.295057
-0.295431
-0.295779
-0.296112
-0.296441
-0.296772
-0.297112
-0.297468
-0.297847
-0.298258
-0.298718
-0.299231
-0.299713
-0.300132
-0.301361
-0.291898
-0.293103
-0.293875
-0.294428
-0.294894
-0.295295
-0.295653
-0.295984
-0.2963
-0.29661
-0.296921
-0.29724
-0.297574
-0.29793
-0.298318
-0.298757
-0.29925
-0.299715
-0.300113
-0.301335
-0.292398
-0.293559
-0.294303
-0.294831
-0.295272
-0.295649
-0.295981
-0.296286
-0.296574
-0.296855
-0.297134
-0.29742
-0.29772
-0.298041
-0.298394
-0.298798
-0.29926
-0.299697
-0.300062
-0.30127
-0.293049
-0.294158
-0.294864
-0.29536
-0.295768
-0.296111
-0.296409
-0.296676
-0.296926
-0.297165
-0.2974
-0.29764
-0.297891
-0.298162
-0.298464
-0.298818
-0.299236
-0.299632
-0.299953
-0.301138
-0.293843
-0.294892
-0.295553
-0.296009
-0.296375
-0.296675
-0.296926
-0.297146
-0.297344
-0.297528
-0.297706
-0.297883
-0.298069
-0.298272
-0.298506
-0.298793
-0.299149
-0.29949
-0.299753
-0.300906
-0.294769
-0.295752
-0.296363
-0.296771
-0.297087
-0.297333
-0.297527
-0.297686
-0.29782
-0.297935
-0.298038
-0.298137
-0.298239
-0.298355
-0.2985
-0.2987
-0.298974
-0.299242
-0.299431
-0.300543
-0.295817
-0.296733
-0.297288
-0.29764
-0.297896
-0.298079
-0.298205
-0.298291
-0.298347
-0.298378
-0.29839
-0.298391
-0.29839
-0.298397
-0.29843
-0.298518
-0.298687
-0.298861
-0.298959
-0.300017
-0.296981
-0.297829
-0.298323
-0.298613
-0.298801
-0.298909
-0.298957
-0.298958
-0.298922
-0.298855
-0.298761
-0.298646
-0.29852
-0.298395
-0.298289
-0.298238
-0.298273
-0.298324
-0.298311
-0.299303
-0.298259
-0.299038
-0.299467
-0.299688
-0.299799
-0.299824
-0.299782
-0.299688
-0.29955
-0.299371
-0.299156
-0.298909
-0.298638
-0.298357
-0.298085
-0.297862
-0.297728
-0.297622
-0.297467
-0.298378
-0.299651
-0.300361
-0.30072
-0.300864
-0.30089
-0.300823
-0.300684
-0.300486
-0.300237
-0.299938
-0.299591
-0.299199
-0.298766
-0.298306
-0.297839
-0.297409
-0.297063
-0.296754
-0.296414
-0.297218
-0.301163
-0.301802
-0.302085
-0.302145
-0.302077
-0.301911
-0.301667
-0.30136
-0.300994
-0.300571
-0.300087
-0.299542
-0.298936
-0.298279
-0.297591
-0.296915
-0.296308
-0.295732
-0.295139
-0.295789
-0.302804
-0.303368
-0.303567
-0.303534
-0.303364
-0.303091
-0.302737
-0.302317
-0.301834
-0.301286
-0.300667
-0.299968
-0.299186
-0.298321
-0.297389
-0.29643
-0.295504
-0.294582
-0.293634
-0.294045
-0.304587
-0.305068
-0.305174
-0.305037
-0.304756
-0.304368
-0.303899
-0.303364
-0.302765
-0.302097
-0.301347
-0.300503
-0.299549
-0.298476
-0.297286
-0.296011
-0.294706
-0.293339
-0.291887
-0.291916
-0.306529
-0.306916
-0.306916
-0.306662
-0.306257
-0.305745
-0.305154
-0.304501
-0.303788
-0.303005
-0.302136
-0.301157
-0.300043
-0.29877
-0.29732
-0.295705
-0.293963
-0.292041
-0.289892
-0.289313
-0.308648
-0.308926
-0.308805
-0.308419
-0.307875
-0.307225
-0.306503
-0.305727
-0.304897
-0.304003
-0.303022
-0.301922
-0.300664
-0.299204
-0.297502
-0.295536
-0.293315
-0.290736
-0.287671
-0.28617
-0.310967
-0.311118
-0.310857
-0.310318
-0.309617
-0.308812
-0.307944
-0.307033
-0.30608
-0.305072
-0.303982
-0.302768
-0.301379
-0.299752
-0.297814
-0.295507
-0.292793
-0.289502
-0.28534
-0.282529
-0.313514
-0.313515
-0.313089
-0.312374
-0.311492
-0.310511
-0.309477
-0.308414
-0.307325
-0.306193
-0.304989
-0.303664
-0.302153
-0.300375
-0.298228
-0.295603
-0.292405
-0.288381
-0.282971
-0.278345
-0.316319
-0.316144
-0.315526
-0.314608
-0.313517
-0.312334
-0.311111
-0.309874
-0.308628
-0.307359
-0.306033
-0.304598
-0.302985
-0.301099
-0.29881
-0.295962
-0.292368
-0.287608
-0.280674
-0.273452
-0.319422
-0.319037
-0.318196
-0.317044
-0.315716
-0.314302
-0.312862
-0.311428
-0.310007
-0.308585
-0.307134
-0.305607
-0.303945
-0.302071
-0.299883
-0.297253
-0.293997
-0.289585
-0.282611
-0.274348
-0.322865
-0.322234
-0.321136
-0.319717
-0.31812
-0.316447
-0.314765
-0.31311
-0.311494
-0.309908
-0.30833
-0.306731
-0.30508
-0.303354
-0.301555
-0.299745
-0.298088
-0.29687
-0.297277
-0.305816
-0.326699
-0.325779
-0.324385
-0.322667
-0.32077
-0.318811
-0.316864
-0.31497
-0.313143
-0.311381
-0.309672
-0.308001
-0.306365
-0.304782
-0.30332
-0.302123
-0.301464
-0.301776
-0.304013
-0.312363
-0.330982
-0.329721
-0.327992
-0.32594
-0.323716
-0.321448
-0.319217
-0.317068
-0.315019
-0.313073
-0.311224
-0.309471
-0.30783
-0.306344
-0.305103
-0.304269
-0.30409
-0.304908
-0.307207
-0.313118
-0.33577
-0.334113
-0.332006
-0.32959
-0.327013
-0.324415
-0.321886
-0.319471
-0.31719
-0.315047
-0.313041
-0.311178
-0.30948
-0.307994
-0.306808
-0.306051
-0.305897
-0.306543
-0.308205
-0.311732
-0.341125
-0.339008
-0.336481
-0.333671
-0.330718
-0.327776
-0.324936
-0.322243
-0.319715
-0.317353
-0.315156
-0.313127
-0.311285
-0.309669
-0.308343
-0.307392
-0.306911
-0.306984
-0.307696
-0.309133
-0.347102
-0.344459
-0.34147
-0.338238
-0.334891
-0.331589
-0.328425
-0.325437
-0.322636
-0.320016
-0.31757
-0.315292
-0.313192
-0.311295
-0.309639
-0.308269
-0.307228
-0.306533
-0.306221
-0.306038
-0.353754
-0.350514
-0.347022
-0.343344
-0.339585
-0.335909
-0.332402
-0.329091
-0.325974
-0.323035
-0.320254
-0.317618
-0.315126
-0.312789
-0.310629
-0.308667
-0.30692
-0.305383
-0.304075
-0.302652
-0.361121
-0.357215
-0.353182
-0.349036
-0.344848
-0.340779
-0.3369
-0.333222
-0.329724
-0.326377
-0.32315
-0.320023
-0.316991
-0.31406
-0.311247
-0.308568
-0.306034
-0.303645
-0.301412
-0.299038
-0.369231
-0.364593
-0.359985
-0.355354
-0.350718
-0.346227
-0.341932
-0.337819
-0.333848
-0.329975
-0.326165
-0.3224
-0.318678
-0.315013
-0.311427
-0.307945
-0.304586
-0.301359
-0.298277
-0.295128
-0.378097
-0.372666
-0.367455
-0.362322
-0.357214
-0.35226
-0.347482
-0.342838
-0.33827
-0.333729
-0.329183
-0.324626
-0.320074
-0.315556
-0.31111
-0.306772
-0.302573
-0.298537
-0.294669
-0.290841
-0.387708
-0.381433
-0.375599
-0.369946
-0.364333
-0.358855
-0.3535
-0.348199
-0.342884
-0.33751
-0.332067
-0.326572
-0.321067
-0.315605
-0.310241
-0.305023
-0.299991
-0.295174
-0.290572
-0.286114
-0.398031
-0.390872
-0.384401
-0.378207
-0.372042
-0.365953
-0.359896
-0.353781
-0.347545
-0.341166
-0.334668
-0.328107
-0.321555
-0.315088
-0.308778
-0.302681
-0.296835
-0.29127
-0.285975
-0.280914
-0.409001
-0.400935
-0.393816
-0.387056
-0.380269
-0.373455
-0.366539
-0.359428
-0.352083
-0.34453
-0.336839
-0.329109
-0.321447
-0.313948
-0.30669
-0.29973
-0.293103
-0.286827
-0.280876
-0.275237
-0.420521
-0.411539
-0.403769
-0.396402
-0.388901
-0.381215
-0.373254
-0.364949
-0.356311
-0.347429
-0.338433
-0.329467
-0.320665
-0.312133
-0.303949
-0.29616
-0.28879
-0.281844
-0.275277
-0.269089
-0.432456
-0.422568
-0.414142
-0.406114
-0.397778
-0.389043
-0.379834
-0.370131
-0.360029
-0.349692
-0.339316
-0.329082
-0.319141
-0.309601
-0.300529
-0.291957
-0.283891
-0.27632
-0.269177
-0.262479
-0.44463
-0.433864
-0.424776
-0.41601
-0.406691
-0.396709
-0.386036
-0.374747
-0.363036
-0.351157
-0.339363
-0.327863
-0.316814
-0.306311
-0.296403
-0.287101
-0.278391
-0.270245
-0.262571
-0.25541
-0.456826
-0.445228
-0.435466
-0.425866
-0.41539
-0.403947
-0.391605
-0.378564
-0.365139
-0.351672
-0.338461
-0.32573
-0.313625
-0.302219
-0.291537
-0.281565
-0.27227
-0.263602
-0.255445
-0.247874
-0.468787
-0.456418
-0.445963
-0.435409
-0.423584
-0.410467
-0.39627
-0.381352
-0.366155
-0.351097
-0.336507
-0.322606
-0.309515
-0.297279
-0.285893
-0.275316
-0.265497
-0.256364
-0.247778
-0.239856
-0.480219
-0.467152
-0.455975
-0.444329
-0.430958
-0.415968
-0.399767
-0.382894
-0.365913
-0.349304
-0.333406
-0.318416
-0.304424
-0.291441
-0.279426
-0.268315
-0.258037
-0.2485
-0.239542
-0.231333
-0.490795
-0.477114
-0.465175
-0.452287
-0.437177
-0.420146
-0.40184
-0.382986
-0.36426
-0.346178
-0.329066
-0.313089
-0.298294
-0.28465
-0.272089
-0.260519
-0.249851
-0.239974
-0.230704
-0.222274
-0.500162
-0.485959
-0.47321
-0.458927
-0.441903
-0.422706
-0.40225
-0.381445
-0.361056
-0.341611
-0.323405
-0.306555
-0.291061
-0.276854
-0.263832
-0.251882
-0.240897
-0.230746
-0.221229
-0.212647
-0.507949
-0.49332
-0.479706
-0.463882
-0.444806
-0.423372
-0.400779
-0.378107
-0.356178
-0.335507
-0.316342
-0.298745
-0.282666
-0.267997
-0.254605
-0.242358
-0.231134
-0.220781
-0.211083
-0.202421
-0.51378
-0.498823
-0.484288
-0.466797
-0.445575
-0.421894
-0.397237
-0.372828
-0.349518
-0.327781
-0.307808
-0.289598
-0.273054
-0.258028
-0.244363
-0.231907
-0.220524
-0.210042
-0.200235
-0.191565
-0.517282
-0.502095
-0.48659
-0.467335
-0.443927
-0.418052
-0.391461
-0.365489
-0.340981
-0.318357
-0.297735
-0.279055
-0.262171
-0.246901
-0.233063
-0.22049
-0.209032
-0.198499
-0.188656
-0.180055
-0.5181
-0.502778
-0.486265
-0.465188
-0.439616
-0.411661
-0.383317
-0.355991
-0.330493
-0.307171
-0.28607
-0.267068
-0.249973
-0.234575
-0.22067
-0.208075
-0.196632
-0.186128
-0.176328
-0.167872
-0.5159
-0.500538
-0.482996
-0.460089
-0.432435
-0.402573
-0.372701
-0.344256
-0.317992
-0.294172
-0.272766
-0.253594
-0.236424
-0.221019
-0.207154
-0.194639
-0.183302
-0.172912
-0.163236
-0.155003
-0.510389
-0.495079
-0.476512
-0.451816
-0.422225
-0.39068
-0.359538
-0.330231
-0.303434
-0.279323
-0.25779
-0.238605
-0.221498
-0.206208
-0.192498
-0.180165
-0.169029
-0.158841
-0.149374
-0.141443
-0.501317
-0.48615
-0.466589
-0.440202
-0.408871
-0.375909
-0.343783
-0.313885
-0.286797
-0.262602
-0.241123
-0.222081
-0.205178
-0.190131
-0.176691
-0.164647
-0.153811
-0.143916
-0.134746
-0.127196
-0.488487
-0.473552
-0.453063
-0.42513
-0.392308
-0.35823
-0.325423
-0.29521
-0.268073
-0.244002
-0.222758
-0.204018
-0.187459
-0.172784
-0.159732
-0.148087
-0.137652
-0.128145
-0.119364
-0.112272
-0.47176
-0.457149
-0.435827
-0.406543
-0.372517
-0.337647
-0.304471
-0.274223
-0.247276
-0.223535
-0.202702
-0.184422
-0.168349
-0.154174
-0.141629
-0.130496
-0.120567
-0.111548
-0.103252
-0.0966992
-0.45106
-0.436865
-0.414839
-0.384439
-0.349528
-0.314203
-0.280974
-0.250964
-0.224439
-0.201227
-0.180978
-0.163311
-0.147863
-0.134316
-0.1224
-0.111892
-0.102576
-0.0941511
-0.0864427
-0.0805179
-0.426376
-0.412692
-0.390117
-0.358872
-0.323413
-0.287976
-0.255003
-0.225497
-0.199618
-0.177123
-0.157624
-0.140716
-0.126027
-0.113235
-0.102065
-0.0922947
-0.0837032
-0.0759818
-0.0689743
-0.063773
-0.397762
-0.384683
-0.361743
-0.329947
-0.29429
-0.259082
-0.226662
-0.19791
-0.172887
-0.151288
-0.132692
-0.116681
-0.102878
-0.0909579
-0.0806491
-0.071727
-0.063969
-0.0570666
-0.0508793
-0.046488
-0.365337
-0.352961
-0.329856
-0.297822
-0.262317
-0.227666
-0.196084
-0.168319
-0.144343
-0.123801
-0.106248
-0.091258
-0.0784548
-0.0675168
-0.0581754
-0.0502082
-0.0433939
-0.0374307
-0.0321816
-0.0286531
-0.329281
-0.317705
-0.294653
-0.262699
-0.227691
-0.193911
-0.163427
-0.136863
-0.114107
-0.0947643
-0.0783753
-0.0645129
-0.0528066
-0.0429433
-0.0346628
-0.0277494
-0.0219885
-0.0170887
-0.0128912
-0.0102686
-0.289834
-0.279152
-0.256379
-0.224826
-0.190645
-0.158028
-0.128882
-0.103709
-0.0823247
-0.0643025
-0.0491772
-0.0365267
-0.0259918
-0.0172738
-0.0101277
-0.00435041
0.000259969
0.00397801
0.00698515
0.00853213
-0.247286
-0.237592
-0.215326
-0.184486
-0.151446
-0.12026
-0.092667
-0.0690501
-0.0491657
-0.0325634
-0.0187779
-0.00739869
0.0019159
0.00944228
0.0154022
0.0199824
0.0233681
0.0257773
0.0273257
0.0273434
-0.201976
-0.193359
-0.171827
-0.141999
-0.11039
-0.0808773
-0.0550263
-0.0331089
-0.0148287
0.000280697
0.0126794
0.0227621
0.030846
0.0371744
0.0419345
0.0452913
0.0473888
0.0482665
0.0478069
0.0457203
-0.154283
-0.146825
-0.126246
-0.0977124
-0.0677991
-0.0401774
-0.0162336
0.00386289
0.0204551
0.0340219
0.0450189
0.0538271
0.0607403
0.0659667
0.069656
0.0719419
0.0728518
0.0720231
0.0689801
0.0647468
-0.104617
-0.098394
-0.0789751
-0.0519963
-0.0240178
0.00152176
0.0234129
0.041582
0.0564128
0.0683962
0.0779883
0.0855677
0.0914253
0.0957679
0.098758
0.100547
0.101035
0.0993606
0.0948157
0.090239
-0.053418
-0.0484943
-0.0304265
-0.00523692
0.0205965
0.0438871
0.0635987
0.0797441
0.0927408
0.103088
0.111243
0.117588
0.122428
0.126009
0.128578
0.130413
0.131487
0.130804
0.128105
0.131761
-0.00113163
0.0024346
0.018978
0.0421713
0.0656788
0.0865796
0.104004
0.118041
0.129134
0.137783
0.14444
0.149479
0.153205
0.155876
0.157754
0.159105
0.159914
0.159705
0.159384
0.165208
0.0517763
0.0539394
0.0688083
0.0898296
0.110863
0.129261
0.144311
0.156171
0.1653
0.172195
0.177298
0.180973
0.183518
0.18519
0.18624
0.186889
0.18712
0.186635
0.186355
0.191052
0.104838
0.105565
0.118635
0.137343
0.155787
0.171599
0.184213
0.193844
0.200961
0.206052
0.209542
0.211779
0.21305
0.213595
0.213648
0.213406
0.212864
0.211796
0.210959
0.21414
0.157589
0.15686
0.168033
0.184321
0.200099
0.213272
0.223414
0.230788
0.235866
0.239122
0.24096
0.241711
0.241641
0.240972
0.239911
0.238627
0.237101
0.235135
0.233425
0.235195
0.20957
0.20738
0.216588
0.230388
0.243457
0.253971
0.261635
0.266747
0.26978
0.27119
0.27136
0.270599
0.269151
0.267219
0.264988
0.262598
0.260016
0.257065
0.254407
0.254825
0.260335
0.256693
0.263898
0.275179
0.285533
0.293402
0.298608
0.30148
0.302488
0.302065
0.300574
0.298299
0.295465
0.292254
0.28883
0.285307
0.281645
0.277692
0.274083
0.273224
0.309454
0.304383
0.309578
0.318345
0.326015
0.331285
0.334082
0.334763
0.333787
0.331569
0.328446
0.324681
0.32048
0.316006
0.3114
0.30676
0.302037
0.297109
0.292573
0.290501
0.356512
0.350053
0.353259
0.359554
0.364606
0.367353
0.367819
0.366382
0.363489
0.359533
0.35483
0.349622
0.344095
0.338393
0.332642
0.326921
0.321181
0.315324
0.309901
0.306679
0.40112
0.393325
0.394595
0.398495
0.401027
0.401357
0.399596
0.396136
0.391413
0.385799
0.379588
0.373001
0.366206
0.359333
0.352491
0.345742
0.339042
0.332313
0.32605
0.321743
0.44291
0.433848
0.43326
0.434874
0.435017
0.433063
0.429201
0.423837
0.417391
0.410215
0.402583
0.394698
0.386712
0.378738
0.37087
0.363161
0.355569
0.348031
0.340981
0.335657
0.48154
0.471294
0.468955
0.468423
0.466332
0.462253
0.45644
0.449307
0.441262
0.432639
0.42369
0.414601
0.40551
0.396517
0.387702
0.379108
0.370696
0.362417
0.35464
0.348373
0.516699
0.505364
0.501403
0.498892
0.494752
0.488727
0.481131
0.472384
0.462881
0.452936
0.442786
0.432601
0.422503
0.412583
0.402906
0.393508
0.384356
0.375409
0.366968
0.359838
0.548101
0.535785
0.530355
0.526057
0.520075
0.512304
0.503111
0.49292
0.482111
0.470985
0.45976
0.448594
0.437598
0.426849
0.416404
0.40629
0.396481
0.386941
0.377905
0.37
0.575497
0.562318
0.555591
0.549721
0.542121
0.532823
0.522234
0.510779
0.498831
0.486672
0.47451
0.462488
0.450708
0.439236
0.428122
0.417386
0.407007
0.396953
0.387395
0.37881
0.598667
0.584754
0.57692
0.569709
0.560736
0.550142
0.53837
0.525847
0.512933
0.499901
0.486945
0.4742
0.461756
0.449675
0.437995
0.426734
0.415875
0.405388
0.395387
0.386223
0.617428
0.602917
0.594179
0.585877
0.575788
0.564143
0.551412
0.538022
0.524327
0.510587
0.496989
0.483658
0.470678
0.458103
0.445965
0.43428
0.423033
0.412196
0.401836
0.392201
0.631629
0.616664
0.607238
0.598107
0.587171
0.574729
0.561271
0.547226
0.532938
0.518663
0.504578
0.490804
0.477418
0.464469
0.451985
0.43998
0.42844
0.417339
0.406705
0.396712
0.64116
0.625889
0.615999
0.60631
0.594805
0.581827
0.567882
0.553395
0.53871
0.524076
0.509665
0.495593
0.481934
0.468735
0.456019
0.443798
0.432063
0.420784
0.409966
0.399732
0.645944
0.63052
0.620396
0.610427
0.598635
0.585389
0.571198
0.556491
0.541606
0.526791
0.512216
0.497995
0.484199
0.470874
0.458042
0.445713
0.433879
0.422512
0.411601
0.401246
0.645945
0.63052
0.620396
0.610427
0.598635
0.585389
0.571198
0.55649
0.541606
0.526791
0.512216
0.497994
0.484199
0.470873
0.458042
0.445713
0.433879
0.422512
0.411601
0.401246
0.641161
0.62589
0.615999
0.606311
0.594805
0.581827
0.567881
0.553395
0.53871
0.524075
0.509664
0.495592
0.481933
0.468733
0.456018
0.443797
0.432061
0.420783
0.409964
0.399731
0.63163
0.616665
0.607238
0.598108
0.587171
0.574729
0.561271
0.547225
0.532937
0.518662
0.504577
0.490802
0.477416
0.464466
0.451983
0.439977
0.428437
0.417336
0.406702
0.396709
0.617429
0.602918
0.594179
0.585878
0.575788
0.564142
0.551411
0.538021
0.524325
0.510585
0.496987
0.483655
0.470675
0.458099
0.445962
0.434277
0.423029
0.412193
0.401832
0.392197
0.598669
0.584756
0.57692
0.56971
0.560736
0.550141
0.538369
0.525844
0.51293
0.499898
0.486942
0.474196
0.461753
0.449671
0.437991
0.42673
0.41587
0.405383
0.395382
0.386218
0.575499
0.56232
0.555592
0.549721
0.54212
0.532821
0.522232
0.510777
0.498827
0.486668
0.474505
0.462484
0.450703
0.439231
0.428116
0.41738
0.407001
0.396947
0.387389
0.378803
0.548103
0.535786
0.530355
0.526057
0.520073
0.512302
0.503109
0.492916
0.482107
0.47098
0.459755
0.448588
0.437592
0.426842
0.416397
0.406283
0.396474
0.386934
0.377897
0.369992
0.5167
0.505364
0.501402
0.498891
0.49475
0.488724
0.481128
0.47238
0.462876
0.452931
0.44278
0.432594
0.422496
0.412575
0.402898
0.3935
0.384347
0.3754
0.366959
0.359829
0.481541
0.471294
0.468954
0.468421
0.466329
0.462249
0.456435
0.449301
0.441256
0.432632
0.423682
0.414593
0.405502
0.396508
0.387693
0.379098
0.370686
0.362407
0.35463
0.348362
0.442909
0.433847
0.433258
0.434871
0.435012
0.433058
0.429195
0.42383
0.417383
0.410207
0.402574
0.394689
0.386702
0.378728
0.37086
0.36315
0.355557
0.348019
0.34097
0.335645
0.401118
0.393322
0.394591
0.39849
0.401021
0.40135
0.399588
0.396128
0.391404
0.385789
0.379577
0.372989
0.366194
0.359321
0.352478
0.34573
0.33903
0.3323
0.326037
0.32173
0.356508
0.350048
0.353253
0.359548
0.364599
0.367345
0.36781
0.366372
0.363478
0.359522
0.354818
0.349609
0.344081
0.33838
0.332628
0.326907
0.321166
0.315309
0.309886
0.306664
0.309447
0.304376
0.30957
0.318336
0.326006
0.331275
0.334071
0.334751
0.333775
0.331556
0.328432
0.324667
0.320465
0.31599
0.311384
0.306744
0.302021
0.297093
0.292556
0.290485
0.260326
0.256683
0.263888
0.275168
0.285522
0.29339
0.298594
0.301466
0.302473
0.30205
0.300557
0.298282
0.295447
0.292237
0.288812
0.285289
0.281626
0.277674
0.274064
0.273206
0.209558
0.207367
0.216575
0.230375
0.243443
0.253956
0.261619
0.26673
0.269763
0.271172
0.271342
0.27058
0.269131
0.2672
0.264968
0.262577
0.259995
0.257045
0.254386
0.254805
0.157573
0.156844
0.168016
0.184305
0.200082
0.213254
0.223396
0.230768
0.235846
0.239101
0.240939
0.24169
0.241619
0.24095
0.239889
0.238604
0.237078
0.235112
0.233402
0.235172
0.104818
0.105545
0.118614
0.137322
0.155767
0.171577
0.184191
0.193821
0.200938
0.206029
0.209518
0.211755
0.213025
0.213571
0.213623
0.213381
0.212839
0.211771
0.210934
0.214115
0.0517519
0.0539144
0.0687836
0.0898052
0.110839
0.129236
0.144286
0.156145
0.165274
0.172169
0.177271
0.180946
0.183491
0.185163
0.186212
0.186862
0.187092
0.186607
0.186327
0.191024
-0.00116098
0.00240475
0.0189487
0.0421425
0.0656502
0.086551
0.103975
0.118012
0.129104
0.137753
0.14441
0.149449
0.153175
0.155845
0.157723
0.159074
0.159884
0.159674
0.159353
0.165178
-0.0534528
-0.0485295
-0.030461
-0.00527051
0.0205634
0.0438543
0.0635659
0.0797112
0.0927078
0.103055
0.11121
0.117555
0.122395
0.125976
0.128544
0.13038
0.131453
0.13077
0.128071
0.131727
-0.104658
-0.098435
-0.0790152
-0.0520351
-0.0240556
0.00148442
0.0233759
0.0415451
0.056376
0.0683594
0.0779515
0.0855309
0.0913885
0.0957311
0.0987213
0.10051
0.100998
0.0993235
0.0947783
0.0902013
-0.15433
-0.146872
-0.126292
-0.0977567
-0.0678421
-0.0402195
-0.0162752
0.00382168
0.0204141
0.0339811
0.0449784
0.0537867
0.0607
0.0659265
0.0696159
0.0719018
0.0728117
0.071983
0.0689398
0.0647062
-0.20203
-0.193413
-0.171879
-0.142049
-0.110438
-0.0809246
-0.0550727
-0.0331546
-0.0148739
0.000235883
0.0126349
0.0227179
0.0308021
0.0371308
0.041891
0.045248
0.0473456
0.0482235
0.047764
0.0456773
-0.247347
-0.237653
-0.215385
-0.184542
-0.1515
-0.120312
-0.0927184
-0.0691006
-0.0492155
-0.0326124
-0.0188264
-0.00744675
0.00186826
0.00939503
0.0153553
0.0199358
0.0233218
0.0257313
0.02728
0.0272978
-0.289902
-0.27922
-0.256445
-0.224889
-0.190705
-0.158086
-0.128939
-0.103764
-0.0823791
-0.064356
-0.04923
-0.0365788
-0.0260432
-0.0173247
-0.0101781
-0.00440038
0.000210445
0.00392894
0.00693653
0.00848368
-0.329357
-0.31778
-0.294726
-0.262769
-0.227758
-0.193975
-0.163489
-0.136923
-0.114167
-0.0948224
-0.0784324
-0.0645691
-0.052862
-0.042998
-0.0347169
-0.0278028
-0.0220413
-0.0171409
-0.0129429
-0.0103199
-0.36542
-0.353044
-0.329937
-0.297899
-0.26239
-0.227736
-0.196151
-0.168385
-0.144407
-0.123863
-0.106309
-0.0913185
-0.0785142
-0.0675754
-0.0582331
-0.0502651
-0.04345
-0.0374861
-0.0322363
-0.0287074
-0.397853
-0.384774
-0.361831
-0.330031
-0.29437
-0.259158
-0.226736
-0.197981
-0.172956
-0.151355
-0.132758
-0.116746
-0.102941
-0.0910203
-0.0807105
-0.0717874
-0.0640286
-0.0571253
-0.0509371
-0.0465452
-0.426475
-0.41279
-0.390212
-0.358963
-0.3235
-0.288059
-0.255082
-0.225573
-0.199692
-0.177196
-0.157695
-0.140785
-0.126095
-0.113301
-0.102131
-0.0923588
-0.0837662
-0.0760439
-0.0690354
-0.0638334
-0.451167
-0.436972
-0.414942
-0.384538
-0.349621
-0.314292
-0.281059
-0.251046
-0.224519
-0.201304
-0.181054
-0.163384
-0.147935
-0.134387
-0.122469
-0.111959
-0.102643
-0.0942165
-0.086507
-0.0805815
-0.471874
-0.457263
-0.435938
-0.406649
-0.372618
-0.337743
-0.304563
-0.274311
-0.24736
-0.223617
-0.202782
-0.1845
-0.168425
-0.154248
-0.141702
-0.130568
-0.120637
-0.111617
-0.103319
-0.0967659
-0.488609
-0.473674
-0.453181
-0.425243
-0.392415
-0.358332
-0.32552
-0.295304
-0.268163
-0.244089
-0.222842
-0.204101
-0.18754
-0.172862
-0.159808
-0.148163
-0.137726
-0.128218
-0.119435
-0.112342
-0.501446
-0.486278
-0.466714
-0.440321
-0.408985
-0.376018
-0.343887
-0.313984
-0.286892
-0.262694
-0.241213
-0.222168
-0.205263
-0.190214
-0.176771
-0.164727
-0.153888
-0.143992
-0.134821
-0.127269
-0.510525
-0.495214
-0.476643
-0.451943
-0.422346
-0.390794
-0.359647
-0.330335
-0.303535
-0.27942
-0.257885
-0.238696
-0.221587
-0.206295
-0.192583
-0.180248
-0.169111
-0.158921
-0.149452
-0.14152
-0.516042
-0.500679
-0.483134
-0.460222
-0.432562
-0.402694
-0.372816
-0.344366
-0.318097
-0.294274
-0.272865
-0.25369
-0.236518
-0.22111
-0.207243
-0.194726
-0.183387
-0.172995
-0.163317
-0.155083
-0.518247
-0.502925
-0.486409
-0.465327
-0.439749
-0.411787
-0.383438
-0.356106
-0.330604
-0.307278
-0.286173
-0.267168
-0.250071
-0.23467
-0.220762
-0.208166
-0.19672
-0.186214
-0.176413
-0.167955
-0.517435
-0.502247
-0.48674
-0.46748
-0.444066
-0.418184
-0.391587
-0.36561
-0.341097
-0.318469
-0.297843
-0.27916
-0.262273
-0.247
-0.23316
-0.220584
-0.209125
-0.198589
-0.188744
-0.180142
-0.513937
-0.49898
-0.484442
-0.466947
-0.445719
-0.422032
-0.397368
-0.372954
-0.349638
-0.327898
-0.30792
-0.289707
-0.27316
-0.258131
-0.244464
-0.232005
-0.22062
-0.210135
-0.200326
-0.191655
-0.50811
-0.49348
-0.479864
-0.464036
-0.444955
-0.423515
-0.400915
-0.378237
-0.356304
-0.335628
-0.316459
-0.298859
-0.282776
-0.268104
-0.25471
-0.24246
-0.231233
-0.220878
-0.211178
-0.202514
-0.500326
-0.486122
-0.473371
-0.459084
-0.442056
-0.422853
-0.40239
-0.38158
-0.361186
-0.341736
-0.323526
-0.306672
-0.291175
-0.276965
-0.26394
-0.251987
-0.241
-0.230847
-0.221328
-0.212743
-0.490962
-0.47728
-0.465339
-0.452448
-0.437333
-0.420297
-0.401985
-0.383126
-0.364394
-0.346307
-0.329191
-0.31321
-0.298411
-0.284765
-0.2722
-0.260628
-0.249957
-0.240078
-0.230806
-0.222373
-0.480388
-0.467319
-0.456141
-0.444492
-0.431117
-0.416122
-0.399916
-0.383037
-0.366051
-0.349438
-0.333535
-0.318541
-0.304546
-0.291559
-0.279541
-0.268428
-0.258147
-0.248608
-0.239648
-0.231436
-0.468958
-0.456586
-0.44613
-0.435573
-0.423745
-0.410624
-0.396422
-0.381499
-0.366296
-0.351234
-0.33664
-0.322735
-0.30964
-0.297401
-0.286012
-0.275433
-0.26561
-0.256475
-0.247887
-0.239963
-0.456997
-0.445397
-0.435634
-0.426032
-0.415552
-0.404106
-0.391759
-0.378714
-0.365284
-0.351813
-0.338598
-0.325863
-0.313754
-0.302345
-0.29166
-0.281685
-0.272387
-0.263717
-0.255558
-0.247984
-0.444801
-0.434034
-0.424944
-0.416177
-0.406855
-0.396869
-0.386193
-0.3749
-0.363184
-0.351301
-0.339503
-0.328
-0.316947
-0.306441
-0.29653
-0.287224
-0.278513
-0.270364
-0.262687
-0.255523
-0.432627
-0.422737
-0.41431
-0.40628
-0.397942
-0.389205
-0.379992
-0.370286
-0.360179
-0.349839
-0.339459
-0.329222
-0.319278
-0.309735
-0.30066
-0.292085
-0.284016
-0.276443
-0.269297
-0.262596
-0.420692
-0.411708
-0.403936
-0.396568
-0.389066
-0.381377
-0.373414
-0.365105
-0.356464
-0.347578
-0.338579
-0.329611
-0.320805
-0.31227
-0.304083
-0.296292
-0.288919
-0.28197
-0.2754
-0.26921
-0.409171
-0.401102
-0.393983
-0.387221
-0.380433
-0.373617
-0.366698
-0.359585
-0.352238
-0.344682
-0.336988
-0.329256
-0.32159
-0.314089
-0.306828
-0.299866
-0.293236
-0.286957
-0.281004
-0.275362
-0.398199
-0.391038
-0.384566
-0.378371
-0.372205
-0.366115
-0.360056
-0.353939
-0.347701
-0.34132
-0.33482
-0.328257
-0.321702
-0.315233
-0.308921
-0.302821
-0.296973
-0.291405
-0.286108
-0.281044
-0.387875
-0.381598
-0.375763
-0.370108
-0.364495
-0.359015
-0.353659
-0.348357
-0.343041
-0.337666
-0.332221
-0.326724
-0.321218
-0.315754
-0.310387
-0.305168
-0.300134
-0.295314
-0.290709
-0.286248
-0.378263
-0.37283
-0.367618
-0.362483
-0.357375
-0.352419
-0.347641
-0.342997
-0.338428
-0.333886
-0.32934
-0.324782
-0.320228
-0.315708
-0.311261
-0.306921
-0.30272
-0.298681
-0.294811
-0.290981
-0.369396
-0.364756
-0.360146
-0.355514
-0.350877
-0.346385
-0.34209
-0.337977
-0.334006
-0.330134
-0.326324
-0.322558
-0.318835
-0.31517
-0.311583
-0.3081
-0.304738
-0.301509
-0.298425
-0.295273
-0.361284
-0.357377
-0.353342
-0.349195
-0.345006
-0.340936
-0.337058
-0.33338
-0.329883
-0.326537
-0.32331
-0.320184
-0.317152
-0.314221
-0.311407
-0.308727
-0.306192
-0.303801
-0.301565
-0.299189
-0.353916
-0.350675
-0.347181
-0.343501
-0.339742
-0.336066
-0.332559
-0.329249
-0.326134
-0.323196
-0.320417
-0.317782
-0.315291
-0.312954
-0.310794
-0.308832
-0.307084
-0.305545
-0.304234
-0.302808
-0.347264
-0.344618
-0.341628
-0.338394
-0.335047
-0.331745
-0.328582
-0.325595
-0.322796
-0.320178
-0.317734
-0.315458
-0.31336
-0.311465
-0.309809
-0.308439
-0.307397
-0.3067
-0.306387
-0.306201
-0.341285
-0.339166
-0.336638
-0.333826
-0.330873
-0.327932
-0.325093
-0.322402
-0.319876
-0.317516
-0.315322
-0.313296
-0.311456
-0.309843
-0.308518
-0.307568
-0.307087
-0.307158
-0.307868
-0.309302
-0.33593
-0.33427
-0.332162
-0.329745
-0.327167
-0.324571
-0.322043
-0.31963
-0.317352
-0.315212
-0.31321
-0.31135
-0.309654
-0.308172
-0.306987
-0.306232
-0.306078
-0.306724
-0.308384
-0.311907
-0.33114
-0.329877
-0.328146
-0.326094
-0.32387
-0.321603
-0.319374
-0.317228
-0.315182
-0.31324
-0.311394
-0.309646
-0.308008
-0.306525
-0.305288
-0.304455
-0.304278
-0.305096
-0.307393
-0.3133
-0.326856
-0.325933
-0.324538
-0.322819
-0.320923
-0.318966
-0.317021
-0.31513
-0.313307
-0.311549
-0.309844
-0.308178
-0.306546
-0.304967
-0.303508
-0.302314
-0.301657
-0.30197
-0.304206
-0.312551
-0.323019
-0.322386
-0.321286
-0.319868
-0.318272
-0.316601
-0.314922
-0.313271
-0.311659
-0.310077
-0.308504
-0.30691
-0.305263
-0.303542
-0.301746
-0.299939
-0.298285
-0.297069
-0.297476
-0.306011
-0.319573
-0.319186
-0.318345
-0.317193
-0.315866
-0.314455
-0.313018
-0.311588
-0.310172
-0.308755
-0.307309
-0.305787
-0.304131
-0.302261
-0.300077
-0.297451
-0.294198
-0.289789
-0.282818
-0.274558
-0.316467
-0.316289
-0.315671
-0.314753
-0.313665
-0.312484
-0.311265
-0.310033
-0.308792
-0.307529
-0.306208
-0.304779
-0.303171
-0.301289
-0.299005
-0.29616
-0.292569
-0.287812
-0.280879
-0.273658
-0.313656
-0.313655
-0.313229
-0.312516
-0.311636
-0.310658
-0.309629
-0.30857
-0.307486
-0.306361
-0.305162
-0.303843
-0.302338
-0.300565
-0.298421
-0.2958
-0.292604
-0.288582
-0.283172
-0.278544
-0.311103
-0.311253
-0.310992
-0.310454
-0.309756
-0.308955
-0.308091
-0.307185
-0.306238
-0.305236
-0.304152
-0.302944
-0.301561
-0.299938
-0.298004
-0.295701
-0.292988
-0.289698
-0.285534
-0.282721
-0.308776
-0.309054
-0.308934
-0.308549
-0.308009
-0.307363
-0.306645
-0.305874
-0.30505
-0.304162
-0.303187
-0.302092
-0.300839
-0.299385
-0.297686
-0.295723
-0.293503
-0.290924
-0.287857
-0.286353
-0.306649
-0.307036
-0.307038
-0.306786
-0.306384
-0.305876
-0.305289
-0.304642
-0.303934
-0.303157
-0.302293
-0.30132
-0.300212
-0.298942
-0.297496
-0.295883
-0.294143
-0.292221
-0.290069
-0.289487
-0.304699
-0.30518
-0.305288
-0.305153
-0.304875
-0.304491
-0.304026
-0.303496
-0.302903
-0.30224
-0.301496
-0.300657
-0.299707
-0.298639
-0.297452
-0.296179
-0.294876
-0.293508
-0.292054
-0.292081
-0.302907
-0.303472
-0.303673
-0.303642
-0.303475
-0.303206
-0.302856
-0.302441
-0.301963
-0.30142
-0.300806
-0.300112
-0.299334
-0.298473
-0.297544
-0.296587
-0.295662
-0.29474
-0.29379
-0.294199
-0.301256
-0.301897
-0.302182
-0.302244
-0.302179
-0.302017
-0.301777
-0.301474
-0.301113
-0.300695
-0.300215
-0.299674
-0.299073
-0.298419
-0.297733
-0.297059
-0.296453
-0.295878
-0.295284
-0.295932
-0.299734
-0.300447
-0.300808
-0.300955
-0.300983
-0.30092
-0.300785
-0.300591
-0.300346
-0.300051
-0.299708
-0.29932
-0.298891
-0.298434
-0.297969
-0.29754
-0.297196
-0.296887
-0.296546
-0.297349
-0.298332
-0.299115
-0.299546
-0.299769
-0.299883
-0.299911
-0.299873
-0.299783
-0.299648
-0.299473
-0.299262
-0.299018
-0.298751
-0.298472
-0.298202
-0.29798
-0.297847
-0.297742
-0.297587
-0.298497
-0.297045
-0.297896
-0.298393
-0.298686
-0.298876
-0.298987
-0.299038