/*--------------------------------*- C++ -*----------------------------------*\
  =========                 |
  \\      /  F ield         | OpenFOAM: The Open Source CFD Toolbox
   \\    /   O peration     | Website:  https://openfoam.org
    \\  /    A nd           | Version:  6.0
     \\/     M anipulation  |
\*---------------------------------------------------------------------------*/
FoamFile
{
    version     2.0;
    format      ascii;
    class       volVectorField;
    location    "12.7";
    object      U;
}
// * * * * * * * * * * * * * * * * * * * * * * * * * * * * * * * * * * * * * //

dimensions      [0 1 -1 0 0 0 0];

internalField   nonuniform List<vector> 
8000
(
(-0.000617727 0.000701602 -3.84808e-21)
(-0.00331703 0.00173249 2.05701e-20)
(-0.00826348 0.00246428 -2.50249e-20)
(-0.0143266 0.00297529 1.90584e-20)
(-0.020939 0.00332132 9.28391e-21)
(-0.0277946 0.00354602 -2.78796e-20)
(-0.0346803 0.00368544 -2.46552e-21)
(-0.0414636 0.0037693 -8.77117e-22)
(-0.0480763 0.0038221 -1.44874e-20)
(-0.0544963 0.003864 -7.85421e-21)
(-0.0607342 0.00391148 5.85217e-21)
(-0.0668238 0.00397776 2.22806e-20)
(-0.0728138 0.00407311 -1.65871e-21)
(-0.078761 0.00420505 2.39798e-21)
(-0.0847274 0.00437844 -2.24826e-20)
(-0.0907874 0.00459543 1.38627e-20)
(-0.0970115 0.00485574 -1.98933e-20)
(-0.103342 0.00515907 3.01134e-20)
(-0.109591 0.00550607 -3.34607e-23)
(-0.11661 0.00587823 6.56642e-21)
(-0.000719275 0.00208859 1.27787e-20)
(-0.00354648 0.00514081 -6.53159e-20)
(-0.00854796 0.00729049 -4.51251e-20)
(-0.0146155 0.00877483 -3.06512e-20)
(-0.0211931 0.00976329 -3.944e-20)
(-0.0279812 0.0103881 8.67254e-21)
(-0.0347713 0.0107579 -4.55451e-20)
(-0.0414339 0.0109621 -1.02394e-20)
(-0.0479025 0.0110739 3.22132e-21)
(-0.0541562 0.0111534 3.40613e-20)
(-0.0602065 0.01125 -3.71815e-20)
(-0.0660875 0.0114032 5.17415e-20)
(-0.0718488 0.0116438 -3.87692e-20)
(-0.0775486 0.0119947 -4.60125e-20)
(-0.0832503 0.0124709 -6.34859e-20)
(-0.0890304 0.0130793 4.05055e-20)
(-0.0949625 0.0138197 -1.31587e-20)
(-0.100991 0.0146917 -4.78808e-20)
(-0.106926 0.0156979 4.52843e-20)
(-0.113622 0.0167827 -3.38402e-20)
(-0.00091993 0.00343827 1.24939e-19)
(-0.00400143 0.00846307 6.47238e-20)
(-0.0091147 0.011998 7.27961e-20)
(-0.0151943 0.0144313 6.05973e-21)
(-0.0217063 0.0160418 4.02413e-20)
(-0.0283643 0.0170476 5.02341e-20)
(-0.0349687 0.0176282 -9.13039e-20)
(-0.0413958 0.0179311 -4.83724e-20)
(-0.0475828 0.0180774 -6.30324e-20)
(-0.0535111 0.0181672 6.72857e-20)
(-0.0591933 0.0182825 -5.14141e-20)
(-0.064665 0.0184898 -6.61975e-20)
(-0.0699773 0.0188415 -2.41117e-20)
(-0.0751904 0.0193773 2.29126e-20)
(-0.080371 0.020124 -6.41863e-21)
(-0.0855998 0.0210949 9.16772e-21)
(-0.0909567 0.0222914 1.06665e-19)
(-0.0963914 0.0237143 -1.4917e-20)
(-0.101707 0.0253702 -1.08654e-19)
(-0.107768 0.0271654 1.44145e-19)
(-0.00121492 0.00472889 4.34986e-20)
(-0.00467367 0.011648 -6.14096e-20)
(-0.00995738 0.0165152 -1.54138e-20)
(-0.016061 0.0198576 2.88174e-20)
(-0.0224828 0.0220568 8.18296e-20)
(-0.0289552 0.0234125 1.79186e-19)
(-0.035292 0.0241718 1.75127e-19)
(-0.0413785 0.0245381 1.45656e-20)
(-0.0471572 0.0246793 1.07451e-19)
(-0.0526126 0.0247342 1.6452e-19)
(-0.0577593 0.0248178 -1.31542e-19)
(-0.0626343 0.0250245 1.94664e-19)
(-0.067291 0.02543 -4.41738e-20)
(-0.0717924 0.0260929 1.10948e-20)
(-0.0762097 0.0270546 4.61737e-20)
(-0.0806301 0.028338 6.14452e-20)
(-0.0851428 0.0299488 -9.65867e-20)
(-0.0897065 0.0318918 -8.07297e-20)
(-0.0941165 0.0341806 -1.43106e-19)
(-0.0992511 0.0366829 2.09409e-19)
(-0.00159773 0.00594251 -2.27197e-20)
(-0.00555172 0.0146521 -2.32633e-19)
(-0.0110666 0.0207799 -6.88202e-20)
(-0.0172118 0.0249769 -1.67712e-19)
(-0.0235263 0.0277193 6.33974e-20)
(-0.0297672 0.0293826 -1.00006e-19)
(-0.035766 0.0302773 3.44074e-20)
(-0.0414197 0.0306598 -2.119e-19)
(-0.0466782 0.030742 1.11808e-19)
(-0.0515298 0.0307005 -1.33369e-19)
(-0.0559914 0.0306832 -1.18658e-19)
(-0.0601019 0.0308131 -1.32934e-19)
(-0.0639163 0.0311913 1.20726e-19)
(-0.0675014 0.0318983 -1.08466e-19)
(-0.0709339 0.0329944 1.51081e-19)
(-0.0743092 0.0345165 4.37445e-20)
(-0.0777295 0.036479 1.08368e-19)
(-0.0811665 0.0388953 4.76535e-20)
(-0.084409 0.0417914 -1.88616e-19)
(-0.0883525 0.0449962 3.08913e-19)
(-0.00206077 0.00706594 1.00237e-19)
(-0.00662152 0.0174411 7.68785e-21)
(-0.0124298 0.0247412 4.1287e-20)
(-0.0186397 0.0297253 1.44051e-19)
(-0.0248378 0.0329546 -2.20458e-20)
(-0.0308116 0.0348739 2.33963e-19)
(-0.0364146 0.0358517 1.03872e-19)
(-0.0415584 0.036193 8.72829e-21)
(-0.046202 0.036151 2.67196e-19)
(-0.0503386 0.035938 8.76e-20)
(-0.0539877 0.0357335 4.15638e-20)
(-0.0571892 0.0356899 1.31935e-19)
(-0.0599999 0.0359359 1.21004e-19)
(-0.06249 0.0365778 2.2107e-19)
(-0.0647421 0.0376995 -1.97608e-19)
(-0.0668614 0.0393587 2.79752e-19)
(-0.0689664 0.0415852 3.86633e-21)
(-0.0710473 0.044408 -3.58054e-19)
(-0.0728899 0.0478732 4.64608e-19)
(-0.0754118 0.0517738 1.93926e-19)
(-0.00259605 0.008091 -5.90702e-20)
(-0.00786717 0.019991 -1.07255e-19)
(-0.014031 0.0283614 -2.23132e-19)
(-0.0203324 0.0340537 -6.6119e-21)
(-0.0264118 0.0377048 3.80895e-20)
(-0.0320922 0.0398211 -2.84941e-19)
(-0.0372532 0.0408234 -2.11424e-19)
(-0.0418246 0.04106 -3.02351e-20)
(-0.0457762 0.040821 -2.67527e-19)
(-0.0491074 0.0403512 -1.85292e-19)
(-0.0518399 0.0398601 -5.40092e-20)
(-0.0540143 0.0395292 -1.7397e-19)
(-0.0556882 0.0395159 -2.79845e-21)
(-0.0569339 0.0399565 -2.3122e-19)
(-0.0578398 0.0409649 9.74072e-20)
(-0.0585218 0.0426272 -1.11106e-19)
(-0.0591176 0.0449988 8.53145e-20)
(-0.0596417 0.0481344 -1.08354e-19)
(-0.0598845 0.0521129 -3.10281e-19)
(-0.0607926 0.0566972 -9.44767e-20)
(-0.0031957 0.00901423 -2.1773e-20)
(-0.00927136 0.0222875 -2.36317e-20)
(-0.01585 0.0316151 1.87098e-19)
(-0.0222704 0.0379279 -3.04482e-19)
(-0.028232 0.0419289 4.46695e-20)
(-0.0335983 0.0441793 -1.75887e-19)
(-0.0382798 0.0451451 8.31204e-20)
(-0.0422274 0.0452119 3.73668e-19)
(-0.0454247 0.0447013 -2.39423e-20)
(-0.0478781 0.043886 -2.78854e-19)
(-0.0496118 0.0430021 5.06884e-20)
(-0.0506665 0.0422581 9.79914e-21)
(-0.0510985 0.0418409 -5.73526e-20)
(-0.0509809 0.0419196 5.71771e-21)
(-0.050406 0.0426444 5.03956e-19)
(-0.0495004 0.0441399 -7.1733e-20)
(-0.0484231 0.0464996 -1.40137e-19)
(-0.0472191 0.0498194 -2.51735e-19)
(-0.0456945 0.054229 2.56762e-19)
(-0.0448373 0.0594737 1.11083e-19)
(-0.00385232 0.00983598 1.0982e-19)
(-0.0108155 0.0243244 -1.43704e-19)
(-0.0178614 0.0344881 2.03142e-19)
(-0.0244241 0.041327 2.04462e-19)
(-0.0302666 0.0456025 1.88464e-19)
(-0.0352978 0.0479235 3.8216e-19)
(-0.0394639 0.0487942 2.47146e-19)
(-0.0427411 0.0486307 -5.31105e-19)
(-0.0451293 0.0477797 2.71645e-19)
(-0.046644 0.0465356 2.13197e-19)
(-0.0473124 0.0451555 -2.99135e-21)
(-0.0471742 0.043871 2.38745e-19)
(-0.046283 0.0428967 1.86239e-19)
(-0.0447097 0.0424352 -1.01293e-19)
(-0.0425481 0.0426787 3.4258e-19)
(-0.0399336 0.0438004 -4.24745e-19)
(-0.0370473 0.0459478 1.70134e-19)
(-0.0339707 0.0492788 2.19026e-19)
(-0.0305403 0.054 -5.12513e-20)
(-0.0278063 0.0598624 4.41087e-19)
(-0.00455908 0.0105592 2.20818e-19)
(-0.0124794 0.0261015 1.14297e-20)
(-0.0200333 0.0369746 -7.92236e-20)
(-0.026751 0.0442409 -8.36541e-20)
(-0.0324631 0.0487148 -3.87359e-19)
(-0.0371295 0.0510461 5.48462e-20)
(-0.0407365 0.0517708 1.55415e-19)
(-0.0432904 0.0513284 -7.47324e-20)
(-0.0448109 0.0500832 6.16465e-20)
(-0.0453249 0.0483436 -1.63619e-20)
(-0.0448642 0.0463806 -8.05656e-20)
(-0.0434674 0.0444418 7.64325e-20)
(-0.0411837 0.042764 -3.32743e-19)
(-0.0380787 0.0415813 3.18898e-19)
(-0.0342444 0.0411296 -2.76424e-19)
(-0.0298214 0.04164 8.53984e-20)
(-0.0250116 0.0433306 1.94454e-19)
(-0.0199381 0.0464482 -4.05013e-20)
(-0.0144851 0.0513127 -1.34761e-19)
(-0.00979758 0.057718 -9.15711e-20)
(-0.00530944 0.0111878 -2.75067e-19)
(-0.0142404 0.0276214 -1.80345e-20)
(-0.0223258 0.0390735 5.7908e-20)
(-0.0291929 0.0466668 1.48801e-19)
(-0.0347442 0.0512644 -2.10089e-19)
(-0.0389959 0.0535527 -1.83304e-19)
(-0.0419797 0.0540931 4.27835e-19)
(-0.0437363 0.0533422 -2.364e-19)
(-0.0443097 0.0516739 -1.52491e-19)
(-0.0437417 0.0494026 -2.18803e-19)
(-0.0420711 0.0468036 1.44854e-19)
(-0.0393366 0.0441309 -3.94199e-21)
(-0.0355826 0.0416339 -2.70534e-19)
(-0.0308673 0.0395707 -4.42685e-19)
(-0.0252763 0.0382175 3.37246e-19)
(-0.0189515 0.0378668 -2.73378e-19)
(-0.0121123 0.0388228 3.87745e-19)
(-0.00492539 0.0414507 -1.08656e-19)
(0.00265862 0.0462328 2.29239e-19)
(0.00935211 0.0530623 -7.7442e-19)
(-0.00609671 0.0117256 -5.57105e-19)
(-0.0160725 0.028887 3.65166e-19)
(-0.0246891 0.0407849 4.9662e-20)
(-0.0316732 0.0486037 9.59918e-21)
(-0.0370039 0.0532541 -2.24983e-19)
(-0.0407582 0.0554552 3.30826e-19)
(-0.0430185 0.0557899 3.61283e-20)
(-0.0438647 0.0547257 -6.78456e-20)
(-0.0433695 0.0526399 -2.1764e-19)
(-0.0415942 0.0498443 2.35292e-19)
(-0.0385885 0.0466086 5.9649e-19)
(-0.0343943 0.0431814 -1.31815e-19)
(-0.029053 0.0398115 2.9769e-19)
(-0.0226152 0.0367668 -3.51732e-19)
(-0.0151577 0.034352 -3.37232e-19)
(-0.00681861 0.0329159 2.02898e-19)
(0.00216925 0.0328555 3.3552e-19)
(0.0115966 0.0346828 -1.0869e-18)
(0.021432 0.0391009 1.27528e-19)
(0.0301794 0.0461831 1.72754e-19)
(-0.00691345 0.0121744 4.12538e-19)
(-0.0179453 0.0298982 1.35603e-19)
(-0.0270626 0.0421062 7.06284e-19)
(-0.0340958 0.0500488 3.63065e-20)
(-0.039105 0.0546846 -7.85219e-20)
(-0.0422332 0.0567647 -3.73818e-19)
(-0.0436171 0.0568903 3.17921e-19)
(-0.0433801 0.0555365 5.70184e-19)
(-0.0416284 0.0530792 3.79893e-19)
(-0.0384474 0.0498211 2.74117e-19)
(-0.0339032 0.0460174 2.36227e-19)
(-0.0280468 0.0418996 -4.24494e-19)
(-0.0209215 0.0376998 -1.33053e-19)
(-0.012574 0.0336766 -9.78084e-20)
(-0.00307327 0.0301419 1.04909e-18)
(0.00744793 0.0274815 -3.65695e-21)
(0.0187479 0.0261762 -2.61488e-19)
(0.030579 0.0269004 -8.25741e-20)
(0.0428243 0.0306405 7.5051e-19)
(0.0537002 0.0377541 9.66173e-20)
(-0.00775087 0.0125343 -2.03967e-20)
(-0.0198226 0.0306509 -3.90028e-19)
(-0.0293733 0.0430299 -5.80016e-19)
(-0.0363437 0.0509932 -1.61311e-19)
(-0.0408795 0.0555499 8.90579e-20)
(-0.0431927 0.0574838 1.91991e-20)
(-0.0434781 0.057414 5.08491e-19)
(-0.0419055 0.0558221 -6.30661e-19)
(-0.0386179 0.0530804 -2.39863e-19)
(-0.03373 0.0494799 -4.83309e-19)
(-0.0273305 0.0452562 -4.11627e-19)
(-0.0194873 0.0406145 -3.64307e-19)
(-0.0102549 0.035756 9.10653e-20)
(0.000314273 0.0309087 -1.18162e-19)
(0.0121513 0.0263627 5.0641e-19)
(0.0251248 0.022506 -2.77795e-19)
(0.0389838 0.0198701 -8.70185e-19)
(0.0534486 0.0192797 -1.75551e-19)
(0.0683306 0.0220546 4.29341e-19)
(0.0814794 0.0289554 -3.72878e-19)
(-0.00859838 0.0128027 -6.58167e-20)
(-0.0216619 0.0311361 4.76812e-19)
(-0.0315359 0.043542 -6.07972e-19)
(-0.0382794 0.0514203 1.40561e-19)
(-0.0421282 0.0558343 -2.89303e-19)
(-0.0433662 0.0576024 6.44288e-19)
(-0.0422471 0.0573635 -4.60427e-19)
(-0.0389888 0.055607 5.26721e-19)
(-0.0337733 0.0527036 -4.99276e-19)
(-0.0267481 0.048934 2.13023e-19)
(-0.018031 0.0445149 -1.034e-19)
(-0.0077164 0.0396228 -2.5941e-19)
(0.00411662 0.0344206 -3.20404e-19)
(0.0173941 0.0290888 3.19321e-19)
(0.0320299 0.023866 -2.6732e-19)
(0.047879 0.0190972 -5.84251e-19)
(0.064671 0.0153049 6.08295e-19)
(0.0820964 0.0134073 -7.75438e-19)
(0.0999352 0.0150681 3.49275e-19)
(0.115625 0.0215575 1.07524e-20)
(-0.00944331 0.012975 -5.96216e-19)
(-0.0234133 0.0313406 -6.43504e-19)
(-0.0334513 0.0436231 7.41799e-20)
(-0.0397445 0.0513065 -6.20187e-19)
(-0.042623 0.0555124 -5.50834e-20)
(-0.0424438 0.0570972 -4.5609e-19)
(-0.0395194 0.056722 -1.04598e-19)
(-0.0341151 0.0548879 -3.05628e-19)
(-0.0264519 0.0519687 2.81777e-21)
(-0.0167126 0.0482413 -1.33656e-19)
(-0.00504924 0.0439103 9.49564e-21)
(0.00840715 0.039131 -3.85134e-19)
(0.0235372 0.0340313 4.2444e-19)
(0.0402231 0.0287405 -6.01947e-19)
(0.0583343 0.023428 2.13205e-19)
(0.0776836 0.0183539 7.99177e-21)
(0.0979542 0.0139552 -3.38982e-19)
(0.118793 0.0111362 8.40643e-19)
(0.140012 0.011838 -2.00259e-19)
(0.158691 0.0178867 -1.30059e-19)
(-0.0102707 0.0130457 6.69059e-19)
(-0.025019 0.0312482 3.61177e-19)
(-0.0350065 0.0432502 3.35881e-19)
(-0.0405594 0.0506245 5.014e-20)
(-0.0421068 0.0545545 4.54031e-19)
(-0.0400789 0.0559377 6.54295e-19)
(-0.0348459 0.0554606 5.35529e-19)
(-0.026718 0.0536401 4.79656e-20)
(-0.0159539 0.05086 3.92108e-19)
(-0.00277195 0.0474026 6.05753e-19)
(0.012637 0.0434731 -1.57046e-19)
(0.0300963 0.0392203 2.6366e-19)
(0.0494301 0.0347548 2.12909e-19)
(0.070452 0.0301697 2.16637e-19)
(0.0929523 0.0255709 1.27971e-18)
(0.116661 0.0211174 -4.79607e-19)
(0.141168 0.0170961 -2.90951e-20)
(0.166029 0.0142524 5.54808e-19)
(0.191151 0.0146387 -3.14344e-19)
(0.213489 0.0205833 1.55397e-19)
(-0.0110631 0.0130084 -5.4085e-19)
(-0.0264123 0.0308422 3.45479e-20)
(-0.0360718 0.0424012 -4.3262e-19)
(-0.0405207 0.0493496 -5.62774e-20)
(-0.0402916 0.0529352 3.16595e-19)
(-0.0358884 0.0540987 -9.42518e-19)
(-0.0277365 0.0535541 -7.03281e-22)
(-0.0161887 0.051838 4.38566e-19)
(-0.00153951 0.0493502 4.11923e-19)
(0.0159567 0.0463876 -1.81419e-19)
(0.036067 0.0431704 5.97798e-20)
(0.0585606 0.0398607 1.38653e-19)
(0.0831903 0.0365783 -6.57228e-20)
(0.109676 0.0334143 -7.3592e-19)
(0.137692 0.0304495 1.86331e-19)
(0.166831 0.027774 5.11951e-19)
(0.196524 0.0255182 -7.29132e-19)
(0.226143 0.0241544 3.55283e-19)
(0.255696 0.0256367 9.50608e-20)
(0.282515 0.0326505 4.80058e-19)
(-0.0118 0.0128574 -7.97209e-20)
(-0.0275152 0.0301077 -3.78722e-19)
(-0.0364986 0.0410589 1.74289e-19)
(-0.0393978 0.0474671 8.34294e-22)
(-0.0368553 0.050645 -7.59215e-19)
(-0.0294491 0.0515768 1.18509e-19)
(-0.0176591 0.0510048 -2.24887e-20)
(-0.00187942 0.0494861 1.53209e-19)
(0.0175592 0.0474398 -7.01259e-19)
(0.0403644 0.0451841 -4.91262e-20)
(0.0662566 0.0429635 -1.64674e-19)
(0.0949442 0.040971 1.46538e-19)
(0.126098 0.0393629 4.94433e-19)
(0.15933 0.0382732 -7.64758e-20)
(0.194167 0.0378265 2.96253e-20)
(0.230008 0.0381431 1.94185e-19)
(0.266022 0.0393205 -4.81225e-20)
(0.301206 0.0416668 3.90297e-19)
(0.33542 0.0470949 -2.27704e-19)
(0.36691 0.0584276 -3.55598e-19)
(-0.0124569 0.0125869 7.40309e-20)
(-0.0282363 0.0290329 1.81272e-20)
(-0.0361149 0.0392158 1.51821e-19)
(-0.0369281 0.0449805 3.71787e-19)
(-0.0314358 0.0477028 2.08614e-19)
(-0.0202936 0.0484089 2.17503e-20)
(-0.00403769 0.0478668 -2.48967e-19)
(0.0168928 0.0466528 6.38327e-20)
(0.0421252 0.0452031 3.35632e-19)
(0.0713206 0.0438548 -5.68716e-19)
(0.104144 0.0428765 4.29103e-19)
(0.140238 0.0424929 -3.23286e-19)
(0.179194 0.0429056 2.74229e-19)
(0.220536 0.0443146 -5.913e-19)
(0.263689 0.0469432 6.50118e-19)
(0.307931 0.0510557 -6.95097e-19)
(0.352252 0.0569563 -1.80391e-19)
(0.39526 0.0652746 5.64757e-19)
(0.435882 0.0785331 -1.9148e-19)
(0.470963 0.0992016 8.42963e-20)
(-0.0130042 0.012192 -5.59755e-20)
(-0.0284678 0.0276112 5.28322e-19)
(-0.0347213 0.0368776 -2.21539e-21)
(-0.0328118 0.0419179 -3.27972e-19)
(-0.0236275 0.044166 -2.20515e-19)
(-0.00790814 0.0446865 4.04031e-19)
(0.0137447 0.0442685 -1.60028e-19)
(0.0408344 0.0435006 -2.01581e-20)
(0.0729277 0.0428278 3.33495e-19)
(0.109616 0.0425939 -4.14324e-19)
(0.150483 0.0430728 4.53929e-20)
(0.195081 0.0444948 -5.38486e-19)
(0.242915 0.0470698 2.83409e-19)
(0.293443 0.051014 -8.10573e-19)
(0.346082 0.0565852 1.29008e-18)
(0.400226 0.0641286 -2.36615e-19)
(0.45528 0.0741782 2.44919e-19)
(0.510907 0.0879773 -6.36481e-19)
(0.567458 0.108632 5.87532e-21)
(0.616614 0.133419 7.09038e-19)
(-0.0134046 0.0116676 -1.69489e-19)
(-0.0280815 0.0258414 1.46384e-19)
(-0.0320876 0.0340662 -5.39403e-19)
(-0.02671 0.0383369 7.97857e-19)
(-0.0129808 0.0401381 -5.76044e-19)
(0.00826224 0.0405664 2.9744e-20)
(0.0363332 0.0404244 -6.21262e-19)
(0.0706499 0.0403031 4.44205e-19)
(0.11068 0.0406417 -6.34758e-20)
(0.155898 0.0417694 -3.92034e-19)
(0.205746 0.0439349 -2.28702e-19)
(0.259622 0.0473289 2.41721e-19)
(0.316874 0.0521028 1.59682e-19)
(0.376814 0.058385 -7.06068e-19)
(0.438749 0.0662978 2.55117e-19)
(0.502033 0.0759695 -3.75153e-19)
(0.56613 0.0875513 4.53455e-20)
(0.63081 0.101387 -3.16354e-19)
(0.6967 0.118612 1.26324e-19)
(0.756918 0.136353 -4.69129e-19)
(-0.0136123 0.0110087 4.82544e-19)
(-0.0269268 0.0237294 -2.92343e-19)
(-0.0279511 0.0308217 2.40876e-19)
(-0.0182463 0.0343278 -3.04101e-19)
(0.00099039 0.0357709 5.09663e-19)
(0.0287985 0.0362717 -8.8969e-21)
(0.0643734 0.0366352 -6.20733e-20)
(0.106999 0.0374405 -4.60403e-20)
(0.155983 0.0391016 2.83291e-19)
(0.210603 0.0419074 4.81682e-19)
(0.270078 0.0460481 -2.84521e-19)
(0.333558 0.0516349 2.76526e-19)
(0.400136 0.0587142 5.04616e-19)
(0.468874 0.0672793 -3.53868e-19)
(0.538851 0.0772783 -7.16516e-19)
(0.609212 0.0886135 1.30839e-18)
(0.679224 0.101129 -2.33855e-19)
(0.748353 0.114641 -7.5437e-20)
(0.816616 0.129394 8.04367e-19)
(0.879473 0.145196 -1.7261e-19)
(-0.0135706 0.0102112 -7.85293e-19)
(-0.0248295 0.0212895 -5.22738e-19)
(-0.022019 0.0272042 -2.00667e-19)
(-0.00701358 0.0300142 3.87219e-19)
(0.0187927 0.0312645 -8.74353e-19)
(0.0542778 0.032087 4.52923e-19)
(0.0984634 0.0332739 5.74137e-20)
(0.150427 0.0353719 5.80718e-20)
(0.209227 0.0387439 -5.93479e-19)
(0.273847 0.0436062 -2.09576e-19)
(0.343179 0.0500539 -3.69304e-19)
(0.416031 0.0580807 3.56538e-19)
(0.491157 0.0675947 1.00859e-19)
(0.56731 0.0784327 1.93962e-20)
(0.643297 0.0903713 4.61928e-19)
(0.718037 0.103132 -4.68637e-19)
(0.790606 0.116379 -1.9176e-20)
(0.860276 0.129732 1.29543e-20)
(0.926636 0.142973 6.50063e-20)
(0.987466 0.157989 3.5503e-19)
(-0.0132122 0.00927274 2.49985e-19)
(-0.0215929 0.0185469 6.43776e-19)
(-0.0139735 0.0232966 5.16604e-19)
(0.00741161 0.0255542 -1.78128e-19)
(0.0409273 0.0268635 6.19765e-19)
(0.0852308 0.0283487 -5.22129e-20)
(0.13909 0.0307657 -7.3581e-20)
(0.201276 0.0345996 4.38035e-20)
(0.270484 0.0401257 5.99504e-19)
(0.345292 0.0474471 3.52261e-19)
(0.424166 0.056522 1.02895e-19)
(0.505496 0.0671894 6.45582e-21)
(0.587663 0.0791937 -6.80812e-19)
(0.669117 0.0922091 5.91554e-19)
(0.748448 0.105861 1.00871e-19)
(0.824445 0.119746 -1.66791e-19)
(0.896138 0.133439 -7.1774e-19)
(0.962819 0.146533 -5.93061e-20)
(1.02399 0.158564 2.81206e-19)
(1.07936 0.172668 -5.62344e-20)
(-0.0124588 0.00819459 -6.3394e-19)
(-0.0170012 0.0155417 2.6524e-19)
(-0.00348206 0.0192076 -1.29532e-18)
(0.0254501 0.021142 5.30719e-19)
(0.0678568 0.0228545 -4.23325e-19)
(0.12209 0.0254341 3.12151e-19)
(0.186554 0.0295658 -4.85126e-19)
(0.259588 0.0356303 4.45313e-20)
(0.339399 0.0437675 -2.50232e-20)
(0.424047 0.0539171 1.30503e-19)
(0.511496 0.0658556 1.88287e-19)
(0.5997 0.079235 -3.55785e-19)
(0.686704 0.093623 1.88527e-19)
(0.770748 0.108542 1.72707e-19)
(0.850348 0.123503 7.428e-19)
(0.92435 0.138038 -3.23391e-19)
(0.991941 0.151715 -2.12889e-19)
(1.05266 0.164186 3.57067e-19)
(1.10625 0.174951 1.87862e-19)
(1.1536 0.187604 -3.57275e-19)
(-0.0112229 0.00698428 5.55006e-19)
(-0.0108255 0.0123333 5.35105e-19)
(0.00978982 0.0150762 1.54515e-19)
(0.0474959 0.0170089 6.50762e-19)
(0.0999662 0.0195623 3.19893e-19)
(0.165133 0.0237494 -5.7677e-19)
(0.240901 0.0301345 8.73832e-19)
(0.325033 0.0389368 -4.30066e-19)
(0.415121 0.0501005 4.29363e-19)
(0.508628 0.0633467 5.55373e-19)
(0.603003 0.0782295 -3.17355e-19)
(0.695816 0.0941955 6.03402e-20)
(0.784906 0.110644 3.35387e-19)
(0.868484 0.126979 2.35828e-19)
(0.945209 0.142657 5.41282e-19)
(1.0142 0.157214 -2.17546e-19)
(1.07503 0.170284 -2.76163e-20)
(1.12766 0.181627 3.37734e-19)
(1.17227 0.190872 -7.30922e-20)
(1.21041 0.20152 1.67211e-23)
(-0.00940978 0.00565801 -2.8644e-19)
(-0.00283181 0.00900522 -1.05276e-18)
(0.0261618 0.011076 2.48002e-19)
(0.0738883 0.0134246 -1.88834e-19)
(0.137522 0.0173444 -4.36169e-19)
(0.214431 0.0237143 -3.1168e-19)
(0.301861 0.032911 -1.92577e-19)
(0.396854 0.0449198 4.67593e-19)
(0.496292 0.0594211 -2.77704e-19)
(0.597022 0.0758668 -2.84528e-19)
(0.696046 0.093564 -3.59349e-19)
(0.790708 0.111761 -5.93077e-20)
(0.878853 0.129727 -4.06088e-20)
(0.958912 0.146812 -8.2758e-19)
(1.02993 0.162491 3.99568e-19)
(1.09151 0.176381 -5.25768e-19)
(1.14376 0.188246 1.63518e-19)
(1.18717 0.197997 -1.24554e-18)
(1.22244 0.205476 3.75837e-19)
(1.25137 0.213773 4.71252e-19)
(-0.0069211 0.00424313 -7.19731e-20)
(0.00720855 0.00566949 5.13211e-19)
(0.0459203 0.00741817 3.29303e-20)
(0.104883 0.0106965 7.92297e-20)
(0.180632 0.0165825 -1.61114e-19)
(0.269802 0.0257439 -2.70826e-21)
(0.368811 0.0382841 -4.17475e-21)
(0.473865 0.0538714 -9.73374e-20)
(0.581101 0.0718576 3.45311e-19)
(0.686822 0.0913917 1.33377e-19)
(0.78776 0.111539 6.05138e-19)
(0.881279 0.131394 -1.64858e-19)
(0.965509 0.150165 1.14842e-19)
(1.03936 0.167234 -1.46111e-20)
(1.10248 0.18218 3.1728e-19)
(1.1551 0.194771 1.93341e-19)
(1.19793 0.204948 4.6378e-19)
(1.23199 0.212788 -7.47793e-19)
(1.25839 0.218361 9.38273e-19)
(1.27905 0.224237 -2.96832e-19)
(-0.00365812 0.00278001 -6.68395e-19)
(0.0195076 0.00246965 -2.08876e-19)
(0.0692972 0.00435225 1.63098e-19)
(0.140621 0.00916412 1.02874e-19)
(0.229209 0.0176692 1.05654e-19)
(0.330777 0.0302248 1.07013e-19)
(0.44077 0.0465611 -2.68057e-19)
(0.554493 0.0659454 -1.1072e-19)
(0.667404 0.0873533 3.4422e-20)
(0.77545 0.10963 -3.28088e-19)
(0.875362 0.131646 -1.48156e-19)
(0.964837 0.152421 8.94835e-19)
(1.04257 0.171204 -2.30981e-19)
(1.10819 0.1875 -3.17211e-19)
(1.16205 0.201068 -1.49676e-19)
(1.20509 0.211878 1.0412e-19)
(1.23856 0.220064 1.25844e-19)
(1.26389 0.225865 -6.02609e-19)
(1.28251 0.22954 8.69795e-19)
(1.29628 0.233156 -7.52888e-19)
(0.000473868 0.00132329 -7.5434e-20)
(0.0342477 -0.000418464 2.15763e-20)
(0.096449 0.00216331 -2.7706e-20)
(0.181101 0.00918977 4.03973e-19)
(0.282943 0.0209887 2.23966e-20)
(0.396594 0.0374888 1.48472e-19)
(0.516425 0.0579399 -3.08686e-19)
(0.636879 0.0811395 -1.1229e-20)
(0.752912 0.105673 4.28662e-19)
(0.860409 0.130128 5.96295e-20)
(0.956446 0.153268 -3.72898e-19)
(1.03937 0.17415 -3.27804e-20)
(1.10868 0.192167 -3.05134e-19)
(1.16484 0.207036 3.04222e-19)
(1.20897 0.218746 4.2085e-19)
(1.2426 0.227485 -4.63303e-20)
(1.26744 0.233571 -5.60807e-20)
(1.28517 0.237373 1.71044e-19)
(1.29737 0.239284 -5.47762e-19)
(1.30577 0.240941 4.83045e-19)
(0.00556097 -5.76519e-05 7.60086e-20)
(0.0515683 -0.00278822 -4.89632e-19)
(0.127436 0.00116512 1.30979e-19)
(0.226158 0.0111437 -4.06966e-19)
(0.341291 0.0268946 1.40009e-19)
(0.466213 0.0477855 -5.19993e-19)
(0.594209 0.0724885 2.09806e-19)
(0.719015 0.0992946 -6.68641e-20)
(0.835391 0.126435 -2.74887e-21)
(0.93953 0.152333 6.82369e-20)
(1.02921 0.175769 -2.48301e-19)
(1.10367 0.19596 -3.54017e-19)
(1.1634 0.21254 -7.23273e-20)
(1.20968 0.225492 -3.24619e-20)
(1.24433 0.235055 -8.2273e-20)
(1.26935 0.241622 -2.67213e-20)
(1.28669 0.245659 -7.99472e-20)
(1.29816 0.247621 -6.91994e-20)
(1.30531 0.247977 -2.0502e-19)
(1.30971 0.248023 3.24662e-19)
(0.0116757 -0.00127923 1.82304e-19)
(0.0715524 -0.00440648 -2.02534e-19)
(0.162204 0.0016893 4.36084e-19)
(0.275445 0.0153852 -1.88413e-19)
(0.403474 0.035684 5.03641e-19)
(0.538357 0.0612604 7.34026e-21)
(0.672398 0.0901378 2.53023e-19)
(0.798915 0.120115 -6.79403e-20)
(0.912864 0.149161 2.8262e-19)
(1.01115 0.175669 2.02546e-20)
(1.09254 0.198579 6.71433e-19)
(1.15737 0.217376 -4.63103e-19)
(1.20709 0.232003 6.25533e-20)
(1.24377 0.242734 1.19054e-19)
(1.26973 0.25004 6.2032e-19)
(1.28725 0.254483 -2.22773e-19)
(1.2984 0.256626 -4.40283e-20)
(1.30493 0.256969 -2.32336e-19)
(1.30828 0.256005 -2.41768e-20)
(1.30981 0.254771 1.16012e-19)
(0.018872 -0.00224493 -8.72795e-20)
(0.094214 -0.00502033 2.52474e-19)
(0.200569 0.00407098 -2.58971e-19)
(0.328429 0.0222409 1.02097e-19)
(0.46851 0.0475756 -1.22486e-19)
(0.611593 0.0779416 4.49147e-19)
(0.749246 0.110691 -6.27315e-20)
(0.874769 0.143206 1.53897e-19)
(0.983759 0.173335 -9.07925e-20)
(1.07418 0.199604 -2.48869e-21)
(1.14603 0.221241 1.03253e-19)
(1.20075 0.238087 -7.99617e-20)
(1.24069 0.250422 2.0722e-19)
(1.26851 0.258796 -1.03353e-19)
(1.28688 0.263876 -4.53379e-19)
(1.29817 0.266338 4.50322e-19)
(1.30439 0.266796 -2.02389e-19)
(1.30716 0.265751 1.61552e-19)
(1.30774 0.263696 2.79364e-19)
(1.30729 0.261463 1.14701e-19)
(0.0271798 -0.00284765 2.17292e-19)
(0.119488 -0.00436628 -4.47894e-19)
(0.242212 0.00863217 8.5637e-20)
(0.384405 0.031984 -6.22274e-20)
(0.535255 0.0626921 -2.51395e-19)
(0.684418 0.0977383 -1.97297e-19)
(0.823104 0.133845 -3.88537e-20)
(0.945072 0.168117 -3.51553e-19)
(1.04699 0.198461 -2.1457e-20)
(1.12814 0.223692 -6.52789e-20)
(1.18984 0.243439 -1.76986e-19)
(1.23458 0.257939 -3.93638e-20)
(1.26542 0.267803 -1.35215e-19)
(1.28544 0.273819 -2.25173e-19)
(1.29742 0.276795 2.30247e-19)
(1.3037 0.27747 3.14828e-20)
(1.30614 0.276462 6.27265e-20)
(1.30613 0.274246 -2.64298e-19)
(1.30475 0.271293 -6.7423e-21)
(1.30294 0.268276 -4.06612e-19)
(0.0366009 -0.00297281 2.37796e-19)
(0.147222 -0.00218119 1.58735e-19)
(0.286679 0.015664 -2.5633e-19)
(0.442518 0.0448148 4.00262e-19)
(0.602465 0.081051 -4.32616e-20)
(0.755358 0.120453 1.49611e-19)
(0.892533 0.159226 5.1816e-20)
(1.0087 0.194389 1.83421e-19)
(1.10194 0.224098 -1.4364e-19)
(1.17305 0.247599 4.78242e-20)
(1.22456 0.264986 -4.58656e-20)
(1.25989 0.2769 -2.00711e-20)
(1.28261 0.284248 3.82952e-20)
(1.29599 0.287998 -7.04415e-20)
(1.30278 0.289041 -2.15723e-20)
(1.30516 0.288132 -6.60669e-20)
(1.30476 0.285861 -1.07246e-19)
(1.30275 0.282654 6.92856e-20)
(1.30001 0.278959 -9.47506e-20)
(1.2973 0.275312 4.09621e-19)
(0.0471047 -0.00250238 -1.18595e-19)
(0.177176 0.00178549 -3.36392e-19)
(0.333387 0.0254099 -4.48068e-20)
(0.501798 0.0608479 -1.23141e-20)
(0.668867 0.102565 -1.50907e-19)
(0.823057 0.145799 -2.47864e-19)
(0.956371 0.186423 8.10942e-20)
(1.06492 0.221589 -1.11437e-19)
(1.14846 0.249887 -1.24753e-19)
(1.20927 0.271095 6.94692e-20)
(1.25103 0.285801 -5.24636e-20)
(1.27783 0.295021 -1.06047e-19)
(1.29354 0.299903 -3.48694e-21)
(1.30143 0.301531 7.1821e-20)
(1.30412 0.300829 -7.31265e-20)
(1.30353 0.298527 1.01475e-19)
(1.30105 0.295162 2.73485e-20)
(1.29764 0.291107 6.86828e-20)
(1.29399 0.286786 1.33584e-19)
(1.29068 0.282609 -1.14394e-19)
(0.0586262 -0.00131953 1.1321e-19)
(0.209018 0.00775902 -9.84418e-21)
(0.38165 0.0380499 5.09802e-20)
(0.561208 0.0801033 -6.90794e-20)
(0.733229 0.12705 5.77338e-21)
(0.886345 0.173429 2.3991e-19)
(1.01377 0.215019 -1.57527e-19)
(1.11339 0.249335 6.67485e-20)
(1.18671 0.275551 5.88593e-20)
(1.23745 0.294042 -1.652e-19)
(1.2702 0.305879 1.55203e-19)
(1.28951 0.312399 1.39351e-21)
(1.29933 0.314923 -1.09236e-19)
(1.30281 0.314597 1.31633e-19)
(1.30233 0.312329 -5.22147e-20)
(1.29953 0.308798 3.99051e-20)
(1.29557 0.304475 -4.46377e-20)
(1.2912 0.299676 -1.78984e-20)
(1.28694 0.294807 -1.55905e-19)
(1.28327 0.290159 4.77925e-20)
(0.0710642 0.000686269 -3.80654e-20)
(0.242338 0.0159271 1.02394e-19)
(0.430697 0.0536897 1.60059e-20)
(0.619693 0.102506 6.70416e-20)
(0.794419 0.154242 3.20323e-20)
(0.944277 0.202959 1.50213e-20)
(1.06419 0.244613 8.50574e-20)
(1.15404 0.2773 -1.0302e-20)
(1.21711 0.300889 3.75006e-20)
(1.25835 0.316372 6.02205e-20)
(1.28302 0.325257 2.90502e-20)
(1.29592 0.329141 2.08537e-20)
(1.30093 0.329451 8.45421e-20)
(1.30095 0.327337 -8.18407e-20)
(1.29807 0.323662 1.75575e-20)
(1.29368 0.319034 -1.64481e-20)
(1.28868 0.313853 2.5425e-20)
(1.28367 0.308382 2.13015e-20)
(1.27904 0.303018 4.44466e-20)
(1.27514 0.297926 1.83526e-21)
(0.0842827 0.00361398 2.25739e-20)
(0.276653 0.0264289 2.06205e-20)
(0.479708 0.0723525 -2.85733e-20)
(0.676228 0.12789 1.78589e-20)
(0.851449 0.183811 1.00976e-20)
(0.996151 0.233987 -3.14238e-20)
(1.10736 0.274836 1.03658e-20)
(1.18708 0.305215 1.8841e-21)
(1.24022 0.325759 1.78745e-20)
(1.27275 0.338055 -4.79507e-20)
(1.29039 0.343991 -1.49643e-22)
(1.29794 0.345347 1.32883e-20)
(1.2991 0.343594 -1.05912e-20)
(1.29647 0.339848 1.0713e-20)
(1.29182 0.334898 2.79611e-20)
(1.2863 0.329274 -1.59145e-20)
(1.28061 0.323305 4.42962e-21)
(1.27521 0.317211 1.74348e-20)
(1.27036 0.311379 -2.87234e-20)
(1.26634 0.305851 1.37981e-20)
(0.0981138 0.00754594 6.27586e-20)
(0.31143 0.0393459 -3.41829e-20)
(0.527843 0.0939763 4.02887e-20)
(0.729858 0.156009 -2.99888e-20)
(0.903505 0.215383 -1.34588e-20)
(1.0415 0.266116 4.07689e-21)
(1.14325 0.305354 -1.32127e-20)
(1.21286 0.33286 4.75177e-20)
(1.25668 0.350059 -3.9583e-20)
(1.28144 0.359086 9.29416e-21)
(1.29308 0.362134 -6.92305e-21)
(1.29628 0.361093 -4.514e-20)
(1.29442 0.357428 4.37988e-20)
(1.28981 0.352183 1.66882e-20)
(1.28391 0.346063 -1.65948e-20)
(1.27762 0.339517 3.898e-20)
(1.2715 0.332808 -5.69828e-22)
(1.26587 0.326119 -3.78271e-20)
(1.26094 0.319834 2.80163e-20)
(1.25688 0.313863 8.85183e-21)
(0.112361 0.0125433 -2.19976e-20)
(0.346094 0.0546961 6.37606e-20)
(0.57428 0.118416 7.37466e-20)
(0.779735 0.186548 -3.48298e-20)
(0.949956 0.248555 6.05821e-20)
(1.08007 0.298956 9.59354e-20)
(1.172 0.335869 -5.30203e-21)
(1.23182 0.360054 -1.65065e-20)
(1.26712 0.373713 8.14536e-20)
(1.28511 0.379464 3.97413e-20)
(1.29175 0.379723 -7.22605e-21)
(1.29149 0.376426 5.93123e-20)
(1.28735 0.370986 -6.36581e-20)
(1.2813 0.364355 9.91694e-20)
(1.27454 0.357147 -1.65434e-20)
(1.26778 0.349731 4.74758e-20)
(1.26142 0.342311 8.58219e-21)
(1.25571 0.335043 3.39905e-20)
(1.25077 0.328308 -3.23414e-20)
(1.24675 0.321882 7.83699e-21)
(0.126802 0.018642 -3.4239e-20)
(0.380058 0.0724299 8.09744e-20)
(0.618235 0.145446 6.02258e-20)
(0.825132 0.219135 -9.14408e-21)
(0.990348 0.282908 9.40325e-20)
(1.11176 0.332137 -7.04022e-20)
(1.19385 0.366112 -5.54879e-21)
(1.24448 0.386641 6.21067e-20)
(1.27215 0.396658 1.97158e-20)
(1.28437 0.399181 2.76575e-20)
(1.28696 0.396773 -4.08701e-20)
(1.28401 0.39136 1.06724e-19)
(1.2782 0.384266 1.99712e-20)
(1.27117 0.376342 -9.46249e-20)
(1.26387 0.368106 1.38494e-19)
(1.25684 0.359856 -1.63479e-19)
(1.2504 0.351743 -7.51625e-20)
(1.24471 0.343905 1.24592e-20)
(1.23985 0.336718 7.29929e-20)
(1.23594 0.329822 -1.37911e-19)
(0.141203 0.0258496 -7.67735e-20)
(0.412734 0.0924297 -1.81283e-19)
(0.658998 0.174771 -1.56952e-19)
(0.865463 0.253358 -2.13718e-19)
(1.02439 0.318016 -1.21417e-19)
(1.13665 0.365307 -2.51842e-19)
(1.20916 0.39584 3.20079e-20)
(1.25133 0.412481 -1.34006e-19)
(1.27234 0.418827 -1.47483e-20)
(1.27976 0.418213 2.20733e-20)