/*--------------------------------*- C++ -*----------------------------------*\
  =========                 |
  \\      /  F ield         | OpenFOAM: The Open Source CFD Toolbox
   \\    /   O peration     | Website:  https://openfoam.org
    \\  /    A nd           | Version:  6.0
     \\/     M anipulation  |
\*---------------------------------------------------------------------------*/
FoamFile
{
    version     2.0;
    format      ascii;
    class       volScalarField;
    location    "23.5";
    object      p;
}
// * * * * * * * * * * * * * * * * * * * * * * * * * * * * * * * * * * * * * //

dimensions      [0 2 -2 0 0 0 0];

internalField   nonuniform List<scalar> 
8000
(
-0.263171
-0.264188
-0.264852
-0.265331
-0.265731
-0.266067
-0.266354
-0.266606
-0.266831
-0.267036
-0.267226
-0.267406
-0.267581
-0.267753
-0.267929
-0.268116
-0.268317
-0.268495
-0.268632
-0.26913
-0.263289
-0.264303
-0.264963
-0.265437
-0.265832
-0.266162
-0.266443
-0.266688
-0.266906
-0.267104
-0.267287
-0.267459
-0.267625
-0.267789
-0.267956
-0.268135
-0.268327
-0.268497
-0.268626
-0.269119
-0.263529
-0.264534
-0.265186
-0.265651
-0.266034
-0.266353
-0.266621
-0.266853
-0.267057
-0.267239
-0.267406
-0.267563
-0.267712
-0.267859
-0.268009
-0.268171
-0.268348
-0.268503
-0.268615
-0.269098
-0.26389
-0.264882
-0.265521
-0.265972
-0.266339
-0.266639
-0.266887
-0.267098
-0.26728
-0.26744
-0.267583
-0.267714
-0.267838
-0.267958
-0.268082
-0.268218
-0.26837
-0.268502
-0.268589
-0.269057
-0.264372
-0.265347
-0.265968
-0.266399
-0.266743
-0.267019
-0.26724
-0.267422
-0.267574
-0.267702
-0.267812
-0.267908
-0.267996
-0.26808
-0.268166
-0.268266
-0.268384
-0.268482
-0.268536
-0.268984
-0.264973
-0.265927
-0.266526
-0.266932
-0.267248
-0.267491
-0.267678
-0.267823
-0.267936
-0.268023
-0.268089
-0.26814
-0.26818
-0.268215
-0.268252
-0.268303
-0.268375
-0.26843
-0.268439
-0.268861
-0.265695
-0.266624
-0.267197
-0.267572
-0.267851
-0.268055
-0.2682
-0.268299
-0.268364
-0.268399
-0.268411
-0.268405
-0.268385
-0.268358
-0.268331
-0.268319
-0.26833
-0.268327
-0.268279
-0.26867
-0.266538
-0.267439
-0.26798
-0.268318
-0.268555
-0.268711
-0.268805
-0.268851
-0.268857
-0.268831
-0.268778
-0.268701
-0.268607
-0.268502
-0.268396
-0.268303
-0.268237
-0.268159
-0.268039
-0.268391
-0.267505
-0.268372
-0.268876
-0.269171
-0.269358
-0.269459
-0.269494
-0.269477
-0.269417
-0.269319
-0.269189
-0.26903
-0.268847
-0.268648
-0.268443
-0.26825
-0.268084
-0.267911
-0.267699
-0.268001
-0.268599
-0.269429
-0.269889
-0.270132
-0.270262
-0.270301
-0.270269
-0.270181
-0.270046
-0.269868
-0.269651
-0.269397
-0.269111
-0.2688
-0.268476
-0.268158
-0.267868
-0.267572
-0.267239
-0.267479
-0.269827
-0.270611
-0.27102
-0.271205
-0.271269
-0.271238
-0.271132
-0.270966
-0.270749
-0.270483
-0.27017
-0.269811
-0.269409
-0.26897
-0.268505
-0.268037
-0.26759
-0.267134
-0.266645
-0.266799
-0.271195
-0.271925
-0.272273
-0.272391
-0.27238
-0.272271
-0.272084
-0.271835
-0.271531
-0.271172
-0.270758
-0.270287
-0.269758
-0.269175
-0.268548
-0.2679
-0.26726
-0.266598
-0.265899
-0.265932
-0.272712
-0.273376
-0.273654
-0.273693
-0.273598
-0.273402
-0.273128
-0.27279
-0.272394
-0.271939
-0.271422
-0.270835
-0.270174
-0.269437
-0.268629
-0.267773
-0.266898
-0.265973
-0.264989
-0.264844
-0.274386
-0.274971
-0.275166
-0.275115
-0.274925
-0.274632
-0.274262
-0.273829
-0.273339
-0.272787
-0.272166
-0.271464
-0.27067
-0.269773
-0.268771
-0.267681
-0.266529
-0.265275
-0.263907
-0.263493
-0.276228
-0.27672
-0.276815
-0.27666
-0.27636
-0.275958
-0.275482
-0.274948
-0.274359
-0.27371
-0.272987
-0.272174
-0.271249
-0.270193
-0.268992
-0.267648
-0.266179
-0.264524
-0.262646
-0.261824
-0.27825
-0.278631
-0.278611
-0.278332
-0.277907
-0.27738
-0.276785
-0.276139
-0.275444
-0.274694
-0.27387
-0.272949
-0.271901
-0.270693
-0.269295
-0.267691
-0.265877
-0.263755
-0.261227
-0.259804
-0.280468
-0.280718
-0.280562
-0.28014
-0.279567
-0.278896
-0.278164
-0.277391
-0.276579
-0.27572
-0.274792
-0.273765
-0.272601
-0.271255
-0.269674
-0.267819
-0.26566
-0.263047
-0.259756
-0.257479
-0.2829
-0.282997
-0.282682
-0.282092
-0.281347
-0.280508
-0.279617
-0.278697
-0.277751
-0.27677
-0.275731
-0.274599
-0.273327
-0.271858
-0.27012
-0.268041
-0.265555
-0.26245
-0.258282
-0.25475
-0.28557
-0.285491
-0.284989
-0.284204
-0.283258
-0.282224
-0.281148
-0.280058
-0.278958
-0.277841
-0.276683
-0.275449
-0.274091
-0.272542
-0.270714
-0.268496
-0.265752
-0.262123
-0.256752
-0.251178
-0.288511
-0.288227
-0.287509
-0.286498
-0.285322
-0.284062
-0.282774
-0.281488
-0.280215
-0.278949
-0.277673
-0.27636
-0.274976
-0.273479
-0.271809
-0.269892
-0.267602
-0.264471
-0.259267
-0.253072
-0.291761
-0.291239
-0.290273
-0.289004
-0.287565
-0.286051
-0.284524
-0.283021
-0.281556
-0.280131
-0.278741
-0.277378
-0.276043
-0.274753
-0.273566
-0.272615
-0.272158
-0.272615
-0.27552
-0.287805
-0.295368
-0.294569
-0.293319
-0.291759
-0.290027
-0.288231
-0.286442
-0.284702
-0.283032
-0.281442
-0.279939
-0.278535
-0.27726
-0.276179
-0.275413
-0.275181
-0.275846
-0.277949
-0.282658
-0.294608
-0.299385
-0.298265
-0.296693
-0.294809
-0.292756
-0.290655
-0.288586
-0.286595
-0.284712
-0.282954
-0.281338
-0.279892
-0.278669
-0.277758
-0.277303
-0.277528
-0.278757
-0.281407
-0.286062
-0.295255
-0.303872
-0.302378
-0.300443
-0.298205
-0.295806
-0.293381
-0.291017
-0.288769
-0.286667
-0.284736
-0.283001
-0.281499
-0.28029
-0.279465
-0.27916
-0.279555
-0.280879
-0.283379
-0.287307
-0.293779
-0.308889
-0.306961
-0.304624
-0.302002
-0.299234
-0.29647
-0.293803
-0.291289
-0.288962
-0.286848
-0.284972
-0.283372
-0.282103
-0.281242
-0.280892
-0.281173
-0.282213
-0.284117
-0.28697
-0.290977
-0.314495
-0.31207
-0.309287
-0.306254
-0.3031
-0.299985
-0.297005
-0.294216
-0.291648
-0.289324
-0.287265
-0.285498
-0.284066
-0.283022
-0.28243
-0.282355
-0.282848
-0.283924
-0.285606
-0.287629
-0.320745
-0.317753
-0.314485
-0.311017
-0.30746
-0.303981
-0.300676
-0.297594
-0.294756
-0.292176
-0.289863
-0.287834
-0.28611
-0.284724
-0.283706
-0.283082
-0.282858
-0.283011
-0.283536
-0.284012
-0.327682
-0.324054
-0.320263
-0.316338
-0.312364
-0.308506
-0.304857
-0.301448
-0.298291
-0.295382
-0.292719
-0.290304
-0.288146
-0.286257
-0.28465
-0.283332
-0.282293
-0.281503
-0.28095
-0.280238
-0.33534
-0.331008
-0.326659
-0.32226
-0.317852
-0.313596
-0.309567
-0.305781
-0.302227
-0.298889
-0.295753
-0.29281
-0.290064
-0.287521
-0.285191
-0.283076
-0.281169
-0.279452
-0.277912
-0.276248
-0.343735
-0.338638
-0.3337
-0.328811
-0.323949
-0.319263
-0.314803
-0.31056
-0.306506
-0.30261
-0.298853
-0.29523
-0.291747
-0.288417
-0.285257
-0.282277
-0.279482
-0.27687
-0.274426
-0.271953
-0.352866
-0.346947
-0.341399
-0.336004
-0.330663
-0.325497
-0.320528
-0.315721
-0.31103
-0.306423
-0.301888
-0.297431
-0.293075
-0.28885
-0.284785
-0.280903
-0.277222
-0.273749
-0.270469
-0.267267
-0.362704
-0.355922
-0.349747
-0.343829
-0.33797
-0.332253
-0.326669
-0.321157
-0.315668
-0.310182
-0.304707
-0.299276
-0.293935
-0.288736
-0.283722
-0.278928
-0.274377
-0.270083
-0.266023
-0.262138
-0.373197
-0.365521
-0.35871
-0.352247
-0.345813
-0.339447
-0.333108
-0.326725
-0.32026
-0.313721
-0.307156
-0.300633
-0.294226
-0.288005
-0.282028
-0.276333
-0.270944
-0.26587
-0.261079
-0.256546
-0.384258
-0.375676
-0.368224
-0.361184
-0.354096
-0.346952
-0.339689
-0.332245
-0.324618
-0.316866
-0.309084
-0.30138
-0.293858
-0.286602
-0.279673
-0.273106
-0.266918
-0.261111
-0.255635
-0.250491
-0.395765
-0.386281
-0.378185
-0.370522
-0.362675
-0.354593
-0.346214
-0.337512
-0.328545
-0.319439
-0.310345
-0.301411
-0.292759
-0.28448
-0.276629
-0.269233
-0.262295
-0.255805
-0.249692
-0.243981
-0.407555
-0.397193
-0.38845
-0.3801
-0.371361
-0.362156
-0.352454
-0.342299
-0.331837
-0.321271
-0.310808
-0.300627
-0.290862
-0.281595
-0.272871
-0.264698
-0.257066
-0.249946
-0.243248
-0.23702
-0.419428
-0.408228
-0.39883
-0.389708
-0.379919
-0.369387
-0.358157
-0.346375
-0.334295
-0.322203
-0.310354
-0.298945
-0.288106
-0.277907
-0.268369
-0.259481
-0.251214
-0.243522
-0.236292
-0.229603
-0.431141
-0.419159
-0.409094
-0.399093
-0.388073
-0.376007
-0.363056
-0.349507
-0.33573
-0.322089
-0.308874
-0.296285
-0.284436
-0.273371
-0.263088
-0.253551
-0.244714
-0.236511
-0.228805
-0.221719
-0.442413
-0.429721
-0.418965
-0.407959
-0.395518
-0.381716
-0.366884
-0.35147
-0.335966
-0.320796
-0.30627
-0.292573
-0.279792
-0.267942
-0.256989
-0.246876
-0.237535
-0.228884
-0.220763
-0.213346
-0.452931
-0.43961
-0.428131
-0.415979
-0.401927
-0.386213
-0.369381
-0.352057
-0.334841
-0.318204
-0.30245
-0.287738
-0.274118
-0.261569
-0.250028
-0.239413
-0.229642
-0.220609
-0.212136
-0.204456
-0.462352
-0.448494
-0.43625
-0.422804
-0.406965
-0.389202
-0.370304
-0.351077
-0.332213
-0.314203
-0.297329
-0.28171
-0.267354
-0.254201
-0.242158
-0.231123
-0.220994
-0.211648
-0.20289
-0.195018
-0.470315
-0.456016
-0.442957
-0.428074
-0.4103
-0.390399
-0.369427
-0.348358
-0.327952
-0.308694
-0.290829
-0.274424
-0.259442
-0.245785
-0.233333
-0.22196
-0.211553
-0.201967
-0.192991
-0.185001
-0.476449
-0.461808
-0.447883
-0.431434
-0.411619
-0.389548
-0.366552
-0.343753
-0.321947
-0.301591
-0.282877
-0.265818
-0.250328
-0.236273
-0.223507
-0.211885
-0.201281
-0.191529
-0.182409
-0.174374
-0.480384
-0.465501
-0.450662
-0.432544
-0.410631
-0.386421
-0.36151
-0.337136
-0.3141
-0.292816
-0.273409
-0.255835
-0.23996
-0.225619
-0.212639
-0.200861
-0.190144
-0.180305
-0.171115
-0.163112
-0.481764
-0.466736
-0.450944
-0.43109
-0.407081
-0.380824
-0.354158
-0.3284
-0.304334
-0.282304
-0.262369
-0.244425
-0.228295
-0.213782
-0.200693
-0.188854
-0.178114
-0.168269
-0.159088
-0.151193
-0.480254
-0.465177
-0.448409
-0.426795
-0.400754
-0.3726
-0.344384
-0.317466
-0.292582
-0.270002
-0.24971
-0.231547
-0.215295
-0.200731
-0.187641
-0.175842
-0.16517
-0.155404
-0.146312
-0.138606
-0.475554
-0.460522
-0.442776
-0.41943
-0.391476
-0.36163
-0.332106
-0.304275
-0.278801
-0.255871
-0.235398
-0.21717
-0.200933
-0.18644
-0.173462
-0.161806
-0.151297
-0.141698
-0.132782
-0.125342
-0.467405
-0.45251
-0.433811
-0.408811
-0.379124
-0.347833
-0.317274
-0.28879
-0.262961
-0.239887
-0.219412
-0.201275
-0.185192
-0.170896
-0.158145
-0.146738
-0.136492
-0.12715
-0.118498
-0.111403
-0.4556
-0.440934
-0.421337
-0.394812
-0.36362
-0.331168
-0.299866
-0.270999
-0.245054
-0.222041
-0.201742
-0.183853
-0.168066
-0.154094
-0.141688
-0.13064
-0.120756
-0.111768
-0.103469
-0.0967985
-0.43999
-0.425643
-0.405234
-0.377362
-0.344935
-0.311633
-0.279891
-0.250915
-0.225089
-0.202341
-0.182393
-0.164909
-0.149558
-0.13604
-0.124098
-0.113519
-0.104104
-0.0955678
-0.0877196
-0.0815531
-0.420484
-0.406549
-0.385445
-0.356445
-0.323087
-0.28926
-0.257386
-0.228572
-0.203097
-0.180811
-0.161387
-0.14446
-0.129683
-0.116747
-0.105389
-0.0953931
-0.0865531
-0.0785746
-0.0712796
-0.0657055
-0.397059
-0.383628
-0.361976
-0.332103
-0.298138
-0.264122
-0.232421
-0.20403
-0.179127
-0.157493
-0.138758
-0.122535
-0.108465
-0.0962353
-0.0855797
-0.0762804
-0.0681256
-0.0608146
-0.0541849
-0.0492985
-0.369754
-0.356922
-0.334894
-0.30443
-0.270196
-0.236323
-0.205091
-0.177373
-0.153252
-0.132446
-0.114555
-0.0991732
-0.0859377
-0.074533
-0.0646938
-0.0562017
-0.0488415
-0.0423127
-0.0364671
-0.0323556
-0.338676
-0.326537
-0.304325
-0.27357
-0.23941
-0.206006
-0.175523
-0.148712
-0.125565
-0.10575
-0.0888409
-0.0744258
-0.0621396
-0.0516695
-0.0427536
-0.0351752
-0.0287199
-0.0230933
-0.0181501
-0.0148688
-0.30399
-0.292641
-0.270452
-0.239716
-0.205969
-0.173344
-0.143872
-0.118181
-0.0961825
-0.0775015
-0.0616973
-0.0483558
-0.0371166
-0.0276748
-0.0197763
-0.0132107
-0.00777003
-0.00316961
0.000756778
0.0031624
-0.265924
-0.255456
-0.23351
-0.203106
-0.170098
-0.138544
-0.110323
-0.0859431
-0.0652454
-0.0478221
-0.0332242
-0.021042
-0.0109257
-0.00258384
0.00422306
0.00969308
0.014022
0.017478
0.0202494
0.0216131
-0.224756
-0.215262
-0.193781
-0.164014
-0.132056
-0.101841
-0.0750868
-0.0521874
-0.0329209
-0.0168562
-0.00354283
0.0074186
0.0163614
0.0235555
0.0292178
0.0335306
0.0366732
0.038859
0.0402129
0.040094
-0.180815
-0.17238
-0.151585
-0.122753
-0.0921333
-0.0635017
-0.0384055
-0.0171312
0.000596799
0.0152271
0.0272063
0.0369191
0.0446753
0.0507129
0.0552149
0.058342
0.0602336
0.06093
0.0603291
0.0581627
-0.134467
-0.127173
-0.10728
-0.0796616
-0.0506467
-0.0238168
-0.000547195
0.0189775
0.0350803
0.0482236
0.0588506
0.0673331
0.0739586
0.078931
0.0823963
0.0844841
0.0852204
0.0842536
0.0811274
0.0768509
-0.0861163
-0.0800378
-0.0612498
-0.0351045
-0.00793415
0.0168998
0.0381945
0.05586
0.0702613
0.0818737
0.091142
0.0984363
0.104041
0.10816
0.110951
0.112561
0.112893
0.111106
0.106507
0.101864
-0.0361925
-0.0313934
-0.0139001
0.0105376
0.0356511
0.0583194
0.0775089
0.093216
0.10584
0.115867
0.123742
0.12984
0.13446
0.137844
0.140231
0.141898
0.142818
0.14202
0.139243
0.142699
0.0148638
0.0183266
0.0343528
0.0568749
0.0797481
0.100106
0.11708
0.130741
0.141516
0.149893
0.156312
0.161141
0.16468
0.16718
0.168901
0.170102
0.170773
0.170446
0.170008
0.175606
0.0665931
0.0686742
0.0830832
0.103512
0.123994
0.141926
0.156593
0.168136
0.176999
0.183668
0.188573
0.192074
0.194463
0.195992
0.196907
0.197429
0.19754
0.196951
0.19656
0.201058
0.118532
0.119199
0.131865
0.150058
0.168029
0.183447
0.195742
0.205113
0.212014
0.216923
0.220254
0.222353
0.223497
0.223928
0.223871
0.223523
0.22288
0.221721
0.220788
0.223803
0.17022
0.169452
0.180278
0.196124
0.211503
0.224351
0.234235
0.241402
0.246311
0.249426
0.251144
0.25179
0.251624
0.250867
0.249722
0.248355
0.24675
0.244713
0.242925
0.244558
0.221201
0.218993
0.227907
0.241336
0.254076
0.26433
0.271792
0.276748
0.279657
0.280966
0.281051
0.280216
0.278702
0.276709
0.274418
0.271968
0.269329
0.266327
0.263609
0.263917
0.271031
0.267391
0.274353
0.285329
0.295421
0.30309
0.308147
0.310911
0.311835
0.311349
0.309806
0.307488
0.304616
0.30137
0.297909
0.29435
0.290651
0.286666
0.283015
0.282069
0.31928
0.314232
0.319232
0.327755
0.335225
0.340351
0.343049
0.343665
0.342646
0.340398
0.337255
0.333476
0.329263
0.324777
0.320158
0.315502
0.310762
0.30582
0.301259
0.299122
0.365537
0.359118
0.362175
0.368284
0.373193
0.375847
0.37626
0.374798
0.371897
0.367945
0.363251
0.358055
0.35254
0.346849
0.341106
0.335388
0.32965
0.323794
0.318363
0.315095
0.409411
0.401674
0.402837
0.406604
0.409045
0.409329
0.407556
0.404108
0.39941
0.39383
0.387654
0.381104
0.374344
0.367502
0.360686
0.35396
0.347278
0.340565
0.334309
0.329974
0.450535
0.441547
0.440891
0.442421
0.442519
0.440562
0.436726
0.431407
0.425016
0.417901
0.410329
0.402503
0.394571
0.386648
0.378824
0.371153
0.363594
0.356086
0.349055
0.34372
0.488567
0.478409
0.476037
0.475464
0.473372
0.469328
0.463575
0.456517
0.448554
0.440015
0.431148
0.422139
0.413121
0.404195
0.395439
0.386897
0.378532
0.370296
0.362549
0.356286
0.523195
0.511962
0.508
0.505486
0.501383
0.495426
0.487921
0.479275
0.469878
0.460038
0.44999
0.439901
0.429893
0.420054
0.410451
0.401118
0.392025
0.383131
0.374731
0.367618
0.554135
0.541932
0.536528
0.532262
0.526348
0.518676
0.509599
0.499532
0.48885
0.477847
0.466742
0.455688
0.444795
0.434141
0.423781
0.413745
0.404004
0.394527
0.385541
0.377665
0.581135
0.568079
0.561402
0.555592
0.548089
0.538914
0.528464
0.517154
0.505349
0.493331
0.481302
0.469405
0.45774
0.446375
0.435357
0.424707
0.414405
0.404422
0.394923
0.386376
0.603975
0.590193
0.582429
0.575303
0.56645
0.556001
0.544385
0.532023
0.519268
0.50639
0.493579
0.48097
0.468652
0.456686
0.445111
0.433944
0.423169
0.412759
0.402824
0.393707
0.622471
0.608099
0.599447
0.59125
0.581299
0.569815
0.557256
0.54404
0.530515
0.51694
0.503497
0.490311
0.477464
0.465012
0.452986
0.441401
0.430245
0.41949
0.409201
0.39962
0.636475
0.621653
0.612325
0.603313
0.592529
0.580261
0.566986
0.553125
0.539017
0.524914
0.510991
0.497368
0.484122
0.471301
0.458935
0.447034
0.435589
0.424574
0.414016
0.404082
0.645872
0.630748
0.620964
0.611404
0.600061
0.587266
0.57351
0.559215
0.544715
0.530259
0.516015
0.502098
0.488584
0.475516
0.462921
0.450808
0.439171
0.427981
0.417241
0.407069
0.650589
0.635312
0.625299
0.615463
0.603839
0.590779
0.576783
0.562269
0.547574
0.532939
0.518534
0.50447
0.490821
0.477629
0.46492
0.452701
0.440966
0.429689
0.418858
0.408567
0.650586
0.635309
0.625297
0.615461
0.603837
0.590777
0.576781
0.562268
0.547572
0.532938
0.518532
0.504469
0.49082
0.477628
0.464919
0.4527
0.440966
0.429688
0.418857
0.408566
0.645863
0.63074
0.620956
0.611397
0.600054
0.58726
0.573505
0.55921
0.544711
0.530254
0.516011
0.502095
0.48858
0.475513
0.462918
0.450806
0.439168
0.427979
0.417239
0.407068
0.63646
0.621639
0.612311
0.603301
0.592518
0.580251
0.566977
0.553116
0.539009
0.524907
0.510985
0.497362
0.484117
0.471296
0.45893
0.44703
0.435586
0.424571
0.414012
0.404079
0.622451
0.608079
0.599428
0.591233
0.581284
0.569801
0.557243
0.544029
0.530505
0.516931
0.503488
0.490303
0.477457
0.465005
0.45298
0.441395
0.430239
0.419485
0.409196
0.399615
0.603949
0.590168
0.582405
0.575282
0.566431
0.555983
0.544369
0.532008
0.519255
0.506378
0.493568
0.48096
0.468643
0.456677
0.445103
0.433937
0.423162
0.412753
0.402818
0.393702
0.581103
0.568048
0.561374
0.555566
0.548066
0.538893
0.528444
0.517136
0.505333
0.493316
0.481288
0.469393
0.457729
0.446365
0.435347
0.424698
0.414397
0.404414
0.394916
0.38637
0.554098
0.541896
0.536495
0.532232
0.52632
0.518651
0.509577
0.499511
0.488831
0.477831
0.466726
0.455674
0.444782
0.434129
0.42377
0.413734
0.403995
0.394518
0.385533
0.377657
0.523154
0.511922
0.507962
0.505452
0.501351
0.495398
0.487895
0.479252
0.469856
0.460019
0.449972
0.439885
0.429878
0.420041
0.410439
0.401107
0.392014
0.383121
0.374722
0.36761
0.488521
0.478365
0.475996
0.475426
0.473338
0.469296
0.463546
0.456491
0.448531
0.439994
0.431129
0.422121
0.413104
0.40418
0.395425
0.386884
0.37852
0.370285
0.362539
0.356276
0.450485
0.441499
0.440846
0.442379
0.442481
0.440528
0.436696
0.431379
0.424991
0.417877
0.410308
0.402484
0.394554
0.386631
0.378809
0.371139
0.363581
0.356074
0.349044
0.34371
0.409357
0.401622
0.402788
0.406559
0.409004
0.409292
0.407523
0.404078
0.399383
0.393805
0.387631
0.381083
0.374325
0.367485
0.36067
0.353945
0.347264
0.340553
0.334297
0.329963
0.36548
0.359063
0.362124
0.368237
0.37315
0.375808
0.376225
0.374766
0.371868
0.367919
0.363227
0.358033
0.35252
0.346831
0.341089
0.335372
0.329635
0.323781
0.31835
0.315084
0.319221
0.314174
0.319178
0.327706
0.33518
0.34031
0.343012
0.343631
0.342615
0.340371
0.33723
0.333453
0.329242
0.324758
0.32014
0.315485
0.310747
0.305806
0.301246
0.29911
0.27097
0.267332
0.274298
0.285277
0.295374
0.303048
0.308109
0.310876
0.311804
0.311321
0.30978
0.307464
0.304594
0.30135
0.297891
0.294333
0.290635
0.286651
0.283001
0.282057
0.221138
0.218932
0.22785
0.241283
0.254028
0.264286
0.271753
0.276712
0.279624
0.280936
0.281024
0.280191
0.27868
0.276689
0.274399
0.271951
0.269313
0.266312
0.263595
0.263904
0.170156
0.169391
0.180219
0.19607
0.211454
0.224307
0.234195
0.241366
0.246278
0.249396
0.251117
0.251765
0.251602
0.250846
0.249703
0.248337
0.246734
0.244698
0.242911
0.244544
0.118468
0.119137
0.131807
0.150003
0.16798
0.183402
0.195702
0.205076
0.211981
0.216893
0.220227
0.222327
0.223475
0.223907
0.223852
0.223505
0.222864
0.221706
0.220773
0.22379
0.0665293
0.0686127
0.0830249
0.103458
0.123944
0.141881
0.156552
0.168099
0.176966
0.183638
0.188546
0.192049
0.19444
0.195971
0.196888
0.197411
0.197524
0.196936
0.196546
0.201045
0.0148011
0.0182661
0.0342954
0.0568216
0.0796993
0.100062
0.11704
0.130705
0.141483
0.149863
0.156284
0.161116
0.164657
0.167159
0.168882
0.170084
0.170756
0.170431
0.169994
0.175593
-0.0362534
-0.0314521
-0.013956
0.0104856
0.0356034
0.0582762
0.0774698
0.0931807
0.105808
0.115838
0.123716
0.129816
0.134438
0.137823
0.140213
0.141881
0.142802
0.142005
0.13923
0.142687
-0.0861748
-0.0800942
-0.0613035
-0.0351547
-0.00798016
0.0168581
0.0381567
0.0558258
0.0702303
0.0818456
0.0911164
0.0984129
0.10402
0.10814
0.110933
0.112544
0.112877
0.111092
0.106494
0.101851
-0.134522
-0.127227
-0.107331
-0.0797093
-0.0506905
-0.0238566
-0.000583283
0.0189448
0.0350507
0.0481967
0.0588262
0.0673108
0.0739381
0.0789121
0.0823789
0.084468
0.0852054
0.0842394
0.0811138
0.0768377
-0.180866
-0.172429
-0.151632
-0.122797
-0.0921744
-0.0635392
-0.0384394
-0.0171619
0.000569007
0.0152019
0.0271833
0.0368981
0.044656
0.0506951
0.0551984
0.0583266
0.0602191
0.0609163
0.0603159
0.0581498
-0.224803
-0.215307
-0.193824
-0.164055
-0.132094
-0.101876
-0.0751182
-0.0522157
-0.0329466
-0.0168795
-0.00356405
0.00739919
0.0163435
0.023539
0.0292025
0.0335163
0.0366597
0.0388461
0.0402006
0.040082
-0.265966
-0.255496
-0.233549
-0.203143
-0.170132
-0.138575
-0.110351
-0.0859687
-0.0652686
-0.0478431
-0.0332434
-0.0210596
-0.0109418
-0.00259877
0.00420915
0.00968002
0.0140097
0.0174662
0.020238
0.0216021
-0.304026
-0.292675
-0.270485
-0.239748
-0.205998
-0.173372
-0.143897
-0.118204
-0.0962029
-0.07752
-0.0617142
-0.0483712
-0.0371308
-0.027688
-0.0197886
-0.0132223
-0.00778105
-0.0031802
0.000746503
0.00315248
-0.338705
-0.326565
-0.304352
-0.273596
-0.239435
-0.206029
-0.175544
-0.148731
-0.125583
-0.105766
-0.0888551
-0.0744389
-0.0621516
-0.0516807
-0.0427641
-0.0351851
-0.0287294
-0.0231025
-0.0181591
-0.0148775
-0.369777
-0.356944
-0.334915
-0.30445
-0.270215
-0.236342
-0.205108
-0.177389
-0.153266
-0.132459
-0.114566
-0.0991836
-0.0859473
-0.074542
-0.0647023
-0.0562098
-0.0488493
-0.0423203
-0.0364747
-0.032363
-0.397074
-0.383642
-0.36199
-0.332117
-0.298152
-0.264135
-0.232433
-0.204041
-0.179137
-0.157502
-0.138766
-0.122543
-0.108472
-0.0962418
-0.0855859
-0.0762865
-0.0681316
-0.0608206
-0.0541909
-0.0493045
-0.420491
-0.406555
-0.385452
-0.356453
-0.323094
-0.289268
-0.257393
-0.228578
-0.203103
-0.180816
-0.161392
-0.144465
-0.129687
-0.11675
-0.105393
-0.0953969
-0.0865571
-0.0785787
-0.0712839
-0.06571
-0.439989
-0.425641
-0.405233
-0.377362
-0.344937
-0.311634
-0.279892
-0.250917
-0.225091
-0.202342
-0.182395
-0.16491
-0.149559
-0.136041
-0.124099
-0.113521
-0.104106
-0.09557
-0.0877221
-0.0815559
-0.455592
-0.440924
-0.421328
-0.394805
-0.363615
-0.331164
-0.299862
-0.270996
-0.245051
-0.222038
-0.201739
-0.18385
-0.168064
-0.154093
-0.141687
-0.130639
-0.120756
-0.111768
-0.10347
-0.0967995
-0.467388
-0.452492
-0.433794
-0.408796
-0.379112
-0.347822
-0.317264
-0.288781
-0.262954
-0.23988
-0.219405
-0.201268
-0.185187
-0.170891
-0.158141
-0.146735
-0.136489
-0.127148
-0.118496
-0.111402
-0.475529
-0.460496
-0.442751
-0.419407
-0.391456
-0.361612
-0.332091
-0.304261
-0.278788
-0.255859
-0.235388
-0.21716
-0.200924
-0.186432
-0.173455
-0.161799
-0.151292
-0.141694
-0.132779
-0.125339
-0.480221
-0.465143
-0.448376
-0.426765
-0.400726
-0.372576
-0.344362
-0.317447
-0.292564
-0.269986
-0.249695
-0.231533
-0.215283
-0.200719
-0.187631
-0.175832
-0.165162
-0.155397
-0.146307
-0.138601
-0.481723
-0.466694
-0.450904
-0.431052
-0.407047
-0.380793
-0.354129
-0.328375
-0.30431
-0.282282
-0.262349
-0.244406
-0.228279
-0.213767
-0.200679
-0.188842
-0.178103
-0.16826
-0.15908
-0.151187
-0.480336
-0.465451
-0.450614
-0.432498
-0.410589
-0.386383
-0.361475
-0.337104
-0.314072
-0.292789
-0.273385
-0.255812
-0.23994
-0.2256
-0.212622
-0.200845
-0.19013
-0.180293
-0.171104
-0.163103
-0.476393
-0.461751
-0.447828
-0.431382
-0.41157
-0.389503
-0.366511
-0.343716
-0.321912
-0.301559
-0.282848
-0.265791
-0.250303
-0.236251
-0.223486
-0.211867
-0.201264
-0.191514
-0.182396
-0.174363
-0.470252
-0.455953
-0.442895
-0.428015
-0.410245
-0.390347
-0.369379
-0.348315
-0.327912
-0.308657
-0.290794
-0.274393
-0.259413
-0.245759
-0.233309
-0.221938
-0.211533
-0.201949
-0.192976
-0.184987
-0.462283
-0.448425
-0.436182
-0.422738
-0.406902
-0.389144
-0.37025
-0.351027
-0.332167
-0.31416
-0.29729
-0.281674
-0.26732
-0.25417
-0.24213
-0.231097
-0.220971
-0.211628
-0.202872
-0.195002
-0.452856
-0.439536
-0.428058
-0.415908
-0.401859
-0.386149
-0.369321
-0.352002
-0.33479
-0.318156
-0.302405
-0.287697
-0.27408
-0.261534
-0.249996
-0.239384
-0.229615
-0.220585
-0.212115
-0.204437
-0.442334
-0.429642
-0.418887
-0.407882
-0.395444
-0.381646
-0.366818
-0.351409
-0.335909
-0.320743
-0.306221
-0.292527
-0.27975
-0.267903
-0.256953
-0.246843
-0.237506
-0.228857
-0.22074
-0.213325
-0.431057
-0.419076
-0.409011
-0.399012
-0.387995
-0.375932
-0.362985
-0.34944
-0.335668
-0.322031
-0.30882
-0.296235
-0.284389
-0.273328
-0.263048
-0.253515
-0.24468
-0.23648
-0.228778
-0.221695
-0.419341
-0.408141
-0.398744
-0.389624
-0.379836
-0.369308
-0.358081
-0.346303
-0.334228
-0.322139
-0.310294
-0.298889
-0.288054
-0.277858
-0.268324
-0.25944
-0.251176
-0.243488
-0.236261
-0.229576
-0.407465
-0.397103
-0.38836
-0.380012
-0.371275
-0.362072
-0.352374
-0.342223
-0.331764
-0.321202
-0.310743
-0.300566
-0.290804
-0.281542
-0.272821
-0.264653
-0.257024
-0.249908
-0.243214
-0.236989
-0.395671
-0.386189
-0.378093
-0.370431
-0.362586
-0.354506
-0.34613
-0.33743
-0.328467
-0.319364
-0.310274
-0.301344
-0.292696
-0.284421
-0.276574
-0.269182
-0.262248
-0.255762
-0.249654
-0.243947
-0.384163
-0.375582
-0.36813
-0.361091
-0.354004
-0.346861
-0.339601
-0.33216
-0.324535
-0.316786
-0.309008
-0.301308
-0.29379
-0.286538
-0.279613
-0.27305
-0.266866
-0.261063
-0.255592
-0.250452
-0.3731
-0.365425
-0.358615
-0.352153
-0.345719
-0.339354
-0.333017
-0.326636
-0.320173
-0.313637
-0.307075
-0.300555
-0.294152
-0.287935
-0.281962
-0.276271
-0.270886
-0.265817
-0.26103
-0.256502
-0.362606
-0.355824
-0.34965
-0.343733
-0.337874
-0.332158
-0.326575
-0.321065
-0.315578
-0.310093
-0.304621
-0.299193
-0.293855
-0.288659
-0.283649
-0.27886
-0.274313
-0.270024
-0.265969
-0.262089
-0.352766
-0.346849
-0.341301
-0.335907
-0.330566
-0.3254
-0.320433
-0.315626
-0.310935
-0.30633
-0.301796
-0.297342
-0.292989
-0.288767
-0.284705
-0.280828
-0.277151
-0.273683
-0.270408
-0.267212
-0.343635
-0.338538
-0.333602
-0.328713
-0.323852
-0.319165
-0.314705
-0.310463
-0.306408
-0.302513
-0.298757
-0.295136
-0.291654
-0.288328
-0.28517
-0.282195
-0.279404
-0.276797
-0.274358
-0.271891
-0.335238
-0.330909
-0.32656
-0.322162
-0.317753
-0.313497
-0.309468
-0.305681
-0.302126
-0.298788
-0.295652
-0.29271
-0.289965
-0.287424
-0.285097
-0.282985
-0.281083
-0.279371
-0.277837
-0.276178
-0.32758
-0.323954
-0.320164
-0.31624
-0.312265
-0.308407
-0.304756
-0.301346
-0.298187
-0.295277
-0.292613
-0.290198
-0.28804
-0.286152
-0.284548
-0.283234
-0.282199
-0.281413
-0.280866
-0.280159
-0.320642
-0.317652
-0.314386
-0.310918
-0.307361
-0.30388
-0.300574
-0.297489
-0.294649
-0.292067
-0.289752
-0.287722
-0.285998
-0.284612
-0.283596
-0.282975
-0.282755
-0.282912
-0.283443
-0.283925
-0.314392
-0.311969
-0.309188
-0.306155
-0.303
-0.299883
-0.296901
-0.294109
-0.291538
-0.289211
-0.287149
-0.285381
-0.283948
-0.282904
-0.282313
-0.282239
-0.282735
-0.283816
-0.285503
-0.287532
-0.308786
-0.306861
-0.304525
-0.301902
-0.299134
-0.296367
-0.293697
-0.29118
-0.288849
-0.286731
-0.284852
-0.28325
-0.281979
-0.281117
-0.280767
-0.28105
-0.282092
-0.283999
-0.286858
-0.290871
-0.30377
-0.302279
-0.300345
-0.298106
-0.295705
-0.293277
-0.29091
-0.288657
-0.286551
-0.284616
-0.282877
-0.281372
-0.28016
-0.279334
-0.279027
-0.279423
-0.280749
-0.283252
-0.287184
-0.293664
-0.299286
-0.298168
-0.296596
-0.294711
-0.292656
-0.290551
-0.288477
-0.286482
-0.284594
-0.28283
-0.28121
-0.279761
-0.278535
-0.277621
-0.277165
-0.27739
-0.278619
-0.281271
-0.28593
-0.29513
-0.295271
-0.294475
-0.293225
-0.291663
-0.289928
-0.288128
-0.286334
-0.284588
-0.282912
-0.281317
-0.279808
-0.2784
-0.277122
-0.276038
-0.27527
-0.275037
-0.275702
-0.277806
-0.282518
-0.294475
-0.291669
-0.291149
-0.290183
-0.288911
-0.287468
-0.285949
-0.284417
-0.282907
-0.281435
-0.280005
-0.278609
-0.277242
-0.275902
-0.27461
-0.27342
-0.272467
-0.272009
-0.272466
-0.275371
-0.28766
-0.288426
-0.288143
-0.287424
-0.28641
-0.285229
-0.283963
-0.282669
-0.281376
-0.280096
-0.278823
-0.277541
-0.276223
-0.274835
-0.273334
-0.271662
-0.269743
-0.267451
-0.264318
-0.25911
-0.25291
-0.285493
-0.285414
-0.28491
-0.284122
-0.283171
-0.28213
-0.281047
-0.279949
-0.278843
-0.277718
-0.276554
-0.275315
-0.273952
-0.2724
-0.270569
-0.268349
-0.265604
-0.261973
-0.2566
-0.251023
-0.282832
-0.282929
-0.28261
-0.282017
-0.281266
-0.28042
-0.279522
-0.278594
-0.277641
-0.276653
-0.275607
-0.274469
-0.273193
-0.271721
-0.26998
-0.2679
-0.265413
-0.262309
-0.258143
-0.254613
-0.280411
-0.280659
-0.280499
-0.280073
-0.279493
-0.278816
-0.278077
-0.277295
-0.276476
-0.27561
-0.274676
-0.273643
-0.272475
-0.271126
-0.269543
-0.267688
-0.265529
-0.26292
-0.259635
-0.257364
-0.278206
-0.278582
-0.278558
-0.278274
-0.277842
-0.277309
-0.276707
-0.276053
-0.275351
-0.274594
-0.273764
-0.272837
-0.271786
-0.270576
-0.269177
-0.267573
-0.265761
-0.263645
-0.261127
-0.259713
-0.276196
-0.276681
-0.276772
-0.276611
-0.276306
-0.275897
-0.275414
-0.274873
-0.274277
-0.273621
-0.272893
-0.272075
-0.271147
-0.27009
-0.268888
-0.267547
-0.266082
-0.264433
-0.262567
-0.261757
-0.274366
-0.274944
-0.275133
-0.275076
-0.27488
-0.274581
-0.274204
-0.273765
-0.273268
-0.272711
-0.272085
-0.27138
-0.270583
-0.269685
-0.268684
-0.267597
-0.26645
-0.265205
-0.263849
-0.263447
-0.272703
-0.273359
-0.273631
-0.273664
-0.273564
-0.273362
-0.273081
-0.272737
-0.272336
-0.271876
-0.271355
-0.270765
-0.270103
-0.269365
-0.26856
-0.267707
-0.266839
-0.265923
-0.264952
-0.26482
-0.271198
-0.271918
-0.27226
-0.272371
-0.272355
-0.27224
-0.272048
-0.271794
-0.271484
-0.271122
-0.270704
-0.270231
-0.269702
-0.26912
-0.268496
-0.267853
-0.267219
-0.266567
-0.26588
-0.265926
-0.269839
-0.270612
-0.271014
-0.271194
-0.271252
-0.271216
-0.271106
-0.270936
-0.270714
-0.270445
-0.27013
-0.26977
-0.269368
-0.26893
-0.268468
-0.268005
-0.267566
-0.267119
-0.266643
-0.266809
-0.268618
-0.269437
-0.26989
-0.270128
-0.270253
-0.270288
-0.270252
-0.27016
-0.270021
-0.269841
-0.269622
-0.269367
-0.269082
-0.268774
-0.268453
-0.268141
-0.267858
-0.267571
-0.267251
-0.267503
-0.267529
-0.268386
-0.268883
-0.269173
-0.269355
-0.269453
-0.269484