/*--------------------------------*- C++ -*----------------------------------*\
  =========                 |
  \\      /  F ield         | OpenFOAM: The Open Source CFD Toolbox
   \\    /   O peration     | Website:  https://openfoam.org
    \\  /    A nd           | Version:  6.0
     \\/     M anipulation  |
\*---------------------------------------------------------------------------*/
FoamFile
{
    version     2.0;
    format      ascii;
    class       volVectorField;
    location    "23.5";
    object      U;
}
// * * * * * * * * * * * * * * * * * * * * * * * * * * * * * * * * * * * * * //

dimensions      [0 1 -1 0 0 0 0];

internalField   nonuniform List<vector> 
8000
(
(-0.00048337 0.000497196 -3.47417e-21)
(-0.00264275 0.00122675 1.85703e-20)
(-0.00663157 0.00172722 -2.25864e-20)
(-0.0115265 0.00205219 1.71991e-20)
(-0.0168466 0.00224257 8.37542e-21)
(-0.0223204 0.00233133 -2.51507e-20)
(-0.027754 0.00234629 -2.22301e-21)
(-0.0330217 0.00231071 -7.88935e-22)
(-0.038054 0.0022439 -1.30553e-20)
(-0.0428218 0.00216189 -7.07306e-21)
(-0.0473255 0.00207798 5.27478e-21)
(-0.051587 0.00200309 2.00535e-20)
(-0.0556428 0.00194602 -1.50174e-21)
(-0.0595386 0.00191365 2.14854e-21)
(-0.0633258 0.00191104 -2.01984e-20)
(-0.0670633 0.00194144 1.24454e-20)
(-0.0708101 0.00200645 -1.78313e-20)
(-0.0745675 0.00210717 2.69833e-20)
(-0.078265 0.00224497 -3.02093e-23)
(-0.082315 0.00241168 5.82695e-21)
(-0.000567446 0.00160245 1.15372e-20)
(-0.00284822 0.00397548 -5.896e-20)
(-0.00691527 0.00563181 -4.07228e-20)
(-0.0118537 0.00673634 -2.76552e-20)
(-0.0171885 0.0074154 -3.55771e-20)
(-0.0226525 0.00777152 7.82928e-21)
(-0.0280552 0.00789167 -4.10695e-20)
(-0.0332738 0.00784879 -9.22454e-21)
(-0.0382405 0.00770372 2.91475e-21)
(-0.0429277 0.0075071 3.06961e-20)
(-0.0473372 0.00730099 -3.34847e-20)
(-0.0514916 0.00711992 4.65781e-20)
(-0.0554285 0.00699178 -3.488e-20)
(-0.0591945 0.00693832 -4.13627e-20)
(-0.0628423 0.00697558 -5.69998e-20)
(-0.0664323 0.00711383 3.64026e-20)
(-0.0700254 0.0073581 -1.17727e-20)
(-0.0736244 0.00771165 -4.28659e-20)
(-0.0771584 0.00817839 4.05309e-20)
(-0.0810424 0.00873303 -3.01055e-20)
(-0.000736639 0.00269409 1.12781e-19)
(-0.00326098 0.00668944 5.84067e-20)
(-0.00748361 0.00948472 6.56851e-20)
(-0.0125073 0.0113545 5.46563e-21)
(-0.0178693 0.0125094 3.63044e-20)
(-0.0233112 0.0131206 4.53116e-20)
(-0.02865 0.0133336 -8.23431e-20)
(-0.0337682 0.0132702 -4.36056e-20)
(-0.0386021 0.0130323 -5.67902e-20)
(-0.0431271 0.0127048 6.06235e-20)
(-0.047347 0.0123586 -4.63038e-20)
(-0.0512865 0.012052 -5.9575e-20)
(-0.0549848 0.0118326 -2.16927e-20)
(-0.0584908 0.0117376 2.06079e-20)
(-0.0618594 0.0117951 -5.72856e-21)
(-0.0651542 0.0120232 8.26202e-21)
(-0.0684397 0.0124313 9.56156e-20)
(-0.071722 0.0130257 -1.34317e-20)
(-0.0749294 0.0138137 -9.7196e-20)
(-0.0784829 0.0147527 1.28117e-19)
(-0.000989483 0.00376294 3.92379e-20)
(-0.00387765 0.00934497 -5.5428e-20)
(-0.00833223 0.0132508 -1.3904e-20)
(-0.0134825 0.0158619 2.59932e-20)
(-0.018884 0.0174715 7.38094e-20)
(-0.0242923 0.0183182 1.616e-19)
(-0.0295352 0.0186041 1.57906e-19)
(-0.0345037 0.018499 1.31183e-20)
(-0.0391401 0.0181448 9.68316e-20)
(-0.0434242 0.0176603 1.48213e-19)
(-0.0473629 0.0171448 -1.18429e-19)
(-0.0509836 0.016681 1.75269e-19)
(-0.0543281 0.0163366 -3.96858e-20)
(-0.057448 0.0161659 1.00121e-20)
(-0.060402 0.0162101 4.14445e-20)
(-0.0632578 0.0164974 5.50735e-20)
(-0.0660861 0.0170429 -8.6674e-20)
(-0.0688978 0.0178575 -7.23344e-20)
(-0.071621 0.0189538 -1.28003e-19)
(-0.0746863 0.0202715 1.86324e-19)
(-0.00132383 0.00480074 -2.05004e-20)
(-0.00469302 0.0119201 -2.0985e-19)
(-0.00945404 0.0168971 -6.20714e-20)
(-0.014771 0.0202167 -1.51261e-19)
(-0.020224 0.0222526 5.71759e-20)
(-0.0255873 0.0233084 -9.01763e-20)
(-0.0307037 0.023641 3.10115e-20)
(-0.0354753 0.0234664 -1.90993e-19)
(-0.0398526 0.0229651 1.00758e-19)
(-0.0438211 0.0222887 -1.20157e-19)
(-0.0473919 0.0215645 -1.06858e-19)
(-0.0505954 0.0208997 -1.19647e-19)
(-0.0534765 0.0203835 1.08605e-19)
(-0.0560904 0.0200887 -9.75102e-20)
(-0.0584999 0.020072 1.35779e-19)
(-0.060779 0.020374 3.924e-20)
(-0.0630058 0.0210182 9.71282e-20)
(-0.0651991 0.0220229 4.2618e-20)
(-0.0672875 0.0234085 -1.6877e-19)
(-0.0697162 0.0250973 2.74738e-19)
(-0.00173695 0.00580028 9.0367e-20)
(-0.0057 0.0143952 6.95334e-21)
(-0.0108387 0.0203935 3.72282e-20)
(-0.01636 0.0243808 1.29903e-19)
(-0.0218746 0.0268081 -1.98878e-20)
(-0.0271809 0.0280413 2.10951e-19)
(-0.0321403 0.02839 9.3629e-20)
(-0.0366694 0.0281134 7.87122e-21)
(-0.040729 0.0274288 2.40758e-19)
(-0.0443115 0.0265187 7.88884e-20)
(-0.0474329 0.025538 3.7424e-20)
(-0.050127 0.0246183 1.18774e-19)
(-0.0524419 0.023871 1.08869e-19)
(-0.0544366 0.0233895 1.9875e-19)
(-0.056179 0.0232491 -1.77646e-19)
(-0.0577499 0.0235059 2.51103e-19)
(-0.0592377 0.0241964 3.28822e-21)
(-0.0606711 0.0253496 -3.20922e-19)
(-0.0619821 0.0269985 4.16009e-19)
(-0.0636368 0.0290488 1.72451e-19)
(-0.0022256 0.00675539 -5.32548e-20)
(-0.00688939 0.0167522 -9.66688e-20)
(-0.0124719 0.0237128 -2.01173e-19)
(-0.0182304 0.0283196 -5.9633e-21)
(-0.0238132 0.0310983 3.43284e-20)
(-0.0290473 0.0324742 -2.5689e-19)
(-0.0338177 0.0328057 -1.90585e-19)
(-0.0380586 0.0323928 -2.72628e-20)
(-0.0417431 0.0314861 -2.41072e-19)
(-0.0448722 0.0302973 -1.66912e-19)
(-0.0474671 0.0290069 -4.86443e-20)
(-0.0495654 0.0277703 -1.56632e-19)
(-0.051218 0.0267221 -2.55373e-21)
(-0.0524874 0.0259779 -2.08007e-19)
(-0.0534468 0.0256353 8.74953e-20)
(-0.054185 0.0257707 -9.98245e-20)
(-0.0548023 0.0264384 7.64652e-20)
(-0.0553406 0.027685 -9.73253e-20)
(-0.0557387 0.0295624 -2.78061e-19)
(-0.0564927 0.0319617 -8.4505e-20)
(-0.00278597 0.0076606 -1.95992e-20)
(-0.00824958 0.0189749 -2.12857e-20)
(-0.0143342 0.0268299 1.68667e-19)
(-0.0203556 0.0320021 -2.74475e-19)
(-0.0260059 0.0350887 4.02661e-20)
(-0.0311469 0.0365711 -1.58554e-19)
(-0.0356914 0.036853 7.49274e-20)
(-0.0395947 0.0362708 3.36782e-19)
(-0.0428449 0.0351053 -2.16037e-20)
(-0.0454529 0.0335936 -2.51246e-19)
(-0.0474461 0.0319394 4.56489e-20)
(-0.0488654 0.0303205 8.85204e-21)
(-0.0497644 0.0288943 -5.15876e-20)
(-0.0502081 0.0278006 5.21611e-21)
(-0.0502744 0.0271625 4.53199e-19)
(-0.0500607 0.0270825 -6.45274e-20)
(-0.0496806 0.0276401 -1.25883e-19)
(-0.0491925 0.0289078 -2.25833e-19)
(-0.0485472 0.0309668 2.30373e-19)
(-0.0482833 0.0336983 9.93799e-20)
(-0.00341358 0.00851077 9.89687e-20)
(-0.00976597 0.0210476 -1.29484e-19)
(-0.0164002 0.029721 1.83067e-19)
(-0.0226989 0.0353995 1.84294e-19)
(-0.0284052 0.0387488 1.69891e-19)
(-0.0334214 0.0403027 3.44512e-19)
(-0.0376932 0.0405062 2.22787e-19)
(-0.0412007 0.0397277 -4.7874e-19)
(-0.0439499 0.0382735 2.44842e-19)
(-0.0459636 0.0364019 1.92133e-19)
(-0.047276 0.0343358 -2.73101e-21)
(-0.0479318 0.0322725 2.15083e-19)
(-0.0479859 0.0303907 1.67686e-19)
(-0.0475051 0.0288548 -9.12113e-20)
(-0.0465707 0.0278165 3.08224e-19)
(-0.0452878 0.0274105 -3.82078e-19)
(-0.0437848 0.0277503 1.52934e-19)
(-0.0421396 0.0289464 1.96657e-19)
(-0.040321 0.0311242 -4.58158e-20)
(-0.0389276 0.0341638 3.95254e-19)
(-0.00410308 0.00930054 1.98871e-19)
(-0.0114203 0.0229545 1.03157e-20)
(-0.0186371 0.0323627 -7.13811e-20)
(-0.0252119 0.038484 -7.54019e-20)
(-0.0309464 0.0420503 -3.49192e-19)
(-0.0357895 0.0436443 4.94484e-20)
(-0.0397249 0.0437478 1.40106e-19)
(-0.042762 0.0427566 -6.73917e-20)
(-0.044928 0.040997 5.55921e-20)
(-0.0462598 0.0387432 -1.47367e-20)
(-0.0467999 0.0362322 -7.26164e-20)
(-0.046597 0.0336759 6.89516e-20)
(-0.0457071 0.0312706 -2.99766e-19)
(-0.0441971 0.0292039 2.87382e-19)
(-0.0421498 0.0276572 -2.48926e-19)
(-0.0396769 0.0268026 7.68886e-20)
(-0.0369213 0.0267977 1.74977e-19)
(-0.0339827 0.0278067 -3.63959e-20)
(-0.0308547 0.0300198 -1.21046e-19)
(-0.0282199 0.0333317 -8.23519e-20)
(-0.00484786 0.0100239 -2.47728e-19)
(-0.0131899 0.0246783 -1.63075e-20)
(-0.0210032 0.03473 5.21734e-20)
(-0.0278322 0.041227 1.34153e-19)
(-0.0335447 0.0449654 -1.89393e-19)
(-0.0381425 0.0465733 -1.65276e-19)
(-0.0416527 0.0465655 3.8578e-19)
(-0.0441184 0.0453602 -2.13171e-19)
(-0.0455919 0.0432983 -1.37515e-19)
(-0.0461271 0.0406639 -1.97325e-19)
(-0.0457775 0.0377014 1.30632e-19)
(-0.0445968 0.0346306 -3.52272e-21)
(-0.0426423 0.0316593 -2.43957e-19)
(-0.0399799 0.028993 -3.99104e-19)
(-0.0366921 0.026841 3.04063e-19)
(-0.0328945 0.0254155 -2.46382e-19)
(-0.0287435 0.0249271 3.49311e-19)
(-0.0243611 0.0256115 -9.78619e-20)
(-0.019772 0.0277526 2.05662e-19)
(-0.0157746 0.031284 -6.98607e-19)
(-0.0056398 0.0106738 -5.01723e-19)
(-0.015047 0.0261999 3.28995e-19)
(-0.0234473 0.0367955 4.47433e-20)
(-0.0304823 0.0435973 8.65581e-21)
(-0.0360933 0.0474634 -2.0288e-19)
(-0.0403412 0.0490654 2.98347e-19)
(-0.0433016 0.0489474 3.25659e-20)
(-0.0450563 0.0475454 -6.11795e-20)
(-0.0456865 0.0452103 -1.9639e-19)
(-0.0452674 0.0422297 2.12287e-19)
(-0.0438663 0.0388484 5.38249e-19)
(-0.0415451 0.0352857 -1.18904e-19)
(-0.0383639 0.0317516 2.68724e-19)
(-0.0343882 0.0284608 -3.17442e-19)
(-0.0296986 0.0256432 -3.04412e-19)
(-0.0244123 0.0235477 1.83016e-19)
(-0.0186968 0.0224426 3.02396e-19)
(-0.0126948 0.0226528 -9.79899e-19)
(-0.00646498 0.0245916 1.15057e-19)
(-0.000961339 0.0282685 1.56518e-19)
(-0.006469 0.0112422 3.71526e-19)
(-0.0169581 0.0274975 1.22228e-19)
(-0.025908 0.0385283 6.36725e-19)
(-0.0330684 0.0455589 3.27709e-20)
(-0.0384617 0.0495087 -7.08173e-20)
(-0.0422134 0.051091 -3.37243e-19)
(-0.0444527 0.0508764 2.8679e-19)
(-0.045304 0.0493161 5.14567e-19)
(-0.044882 0.0467667 3.42837e-19)
(-0.0432872 0.0435147 2.47533e-19)
(-0.0406057 0.0397983 2.13413e-19)
(-0.0369119 0.035828 -3.83213e-19)
(-0.0322733 0.0318051 -1.20043e-19)
(-0.0267578 0.02794 -8.84329e-20)
(-0.0204456 0.0244694 9.47591e-19)
(-0.0134543 0.0216671 -3.21816e-21)
(-0.00596014 0.0198536 -2.36193e-19)
(0.00187771 0.0194534 -7.44541e-20)
(0.00997081 0.0210492 6.77763e-19)
(0.0171637 0.0247756 8.88023e-20)
(-0.00732363 0.0117201 -1.83121e-20)
(-0.0188838 0.0285474 -3.51495e-19)
(-0.0283129 0.0398941 -5.22948e-19)
(-0.0354799 0.0470713 -1.45526e-19)
(-0.0404952 0.051059 8.03592e-20)
(-0.0435537 0.0526114 1.73015e-20)
(-0.0448417 0.0523249 4.58924e-19)
(-0.0445299 0.0506644 -5.69172e-19)
(-0.0427702 0.0479902 -2.16504e-19)
(-0.0396931 0.044585 -4.36344e-19)
(-0.0354086 0.0406766 -3.71666e-19)
(-0.0300106 0.0364597 -3.29128e-19)
(-0.0235811 0.0321161 8.22947e-20)
(-0.0161981 0.0278371 -1.06871e-19)
(-0.00794742 0.0238461 4.57953e-19)
(0.00104918 0.0204185 -2.50967e-19)
(0.0106067 0.0179057 -7.86951e-19)
(0.0205551 0.016825 -1.58778e-19)
(0.0307924 0.0179611 3.8844e-19)
(0.0399182 0.0216322 -3.38665e-19)
(-0.00819006 0.0120981 -5.92779e-20)
(-0.0207786 0.0293245 4.29934e-19)
(-0.0305788 0.040856 -5.48344e-19)
(-0.0375896 0.0480891 1.26739e-19)
(-0.042015 0.0520645 -2.61089e-19)
(-0.044123 0.053578 5.81583e-19)
(-0.0441596 0.0532515 -4.15671e-19)
(-0.0423439 0.051564 4.75575e-19)
(-0.0388675 0.0488808 -4.50932e-19)
(-0.0338943 0.0454814 1.92412e-19)
(-0.0275644 0.0415834 -9.33738e-20)
(-0.0199987 0.0373633 -2.34474e-19)
(-0.0113049 0.0329775 -2.89751e-19)
(-0.00158397 0.0285853 2.88735e-19)
(0.00905905 0.0243753 -2.41839e-19)
(0.0204864 0.0205922 -5.28896e-19)
(0.0324956 0.0175769 5.50649e-19)
(0.0449076 0.0159018 -7.02606e-19)
(0.0576404 0.0165612 3.1602e-19)
(0.0690269 0.0201053 8.29294e-21)
(-0.00905308 0.0123676 -5.37534e-19)
(-0.0225913 0.029804 -5.80431e-19)
(-0.0326116 0.0413763 6.68836e-20)
(-0.0392528 0.0485649 -5.59799e-19)
(-0.0428179 0.0524716 -4.98387e-20)
(-0.0436497 0.0539342 -4.11795e-19)
(-0.042055 0.0536016 -9.44748e-20)
(-0.0383016 0.0519689 -2.76118e-19)
(-0.0326212 0.0494098 2.44516e-21)
(-0.0252137 0.0462056 -1.20822e-19)
(-0.0162535 0.0425685 8.58367e-21)
(-0.00589727 0.0386623 -3.4819e-19)
(0.00570893 0.0346204 3.83813e-19)
(0.0184231 0.0305668 -5.44605e-19)
(0.0320984 0.0266407 1.93003e-19)
(0.0465566 0.0230254 7.3652e-21)
(0.061553 0.0199949 -3.07521e-19)
(0.0768856 0.0180998 7.62656e-19)
(0.0925395 0.0184945 -1.82239e-19)
(0.10662 0.021963 -1.1838e-19)
(-0.00989618 0.0125209 6.03437e-19)
(-0.0242645 0.0299631 3.25848e-19)
(-0.0343053 0.0414199 3.03116e-19)
(-0.0403068 0.0484536 4.52527e-20)
(-0.0426751 0.0522276 4.099e-19)
(-0.0418291 0.0536224 5.90836e-19)
(-0.0381352 0.0533153 4.83779e-19)
(-0.0319084 0.0518205 4.32919e-20)
(-0.0234194 0.0495251 3.543e-19)
(-0.0129039 0.0467193 5.47466e-19)
(-0.000573654 0.0436207 -1.42024e-19)
(0.0133724 0.0403925 2.3836e-19)
(0.0287371 0.0371591 1.92463e-19)
(0.0453171 0.0340213 1.95812e-19)
(0.0628946 0.0310743 1.15894e-18)
(0.0812132 0.0284268 -4.34419e-19)
(0.0999399 0.026236 -2.65759e-20)
(0.118799 0.0249198 5.04547e-19)
(0.13788 0.0256616 -2.86226e-19)
(0.155216 0.0293953 1.41676e-19)
(-0.0107016 0.0125524 -4.88026e-19)
(-0.0257341 0.0297831 3.12869e-20)
(-0.0355404 0.0409576 -3.90722e-19)
(-0.0405677 0.0477186 -5.0862e-20)
(-0.0413292 0.0512902 2.8603e-19)
(-0.03832 0.0525962 -8.51484e-19)
(-0.0319645 0.0523429 -6.18504e-22)
(-0.0226217 0.0510661 3.96268e-19)
(-0.0105987 0.0491708 3.72327e-19)
(0.00383453 0.0469647 -1.63925e-19)
(0.0204287 0.0446826 5.40577e-20)
(0.038938 0.0425048 1.25383e-19)
(0.0591045 0.0405706 -5.93565e-20)
(0.0806441 0.0389879 -6.66171e-19)
(0.103236 0.0378425 1.6865e-19)
(0.126496 0.0371993 4.64643e-19)
(0.149931 0.0370982 -6.6229e-19)
(0.173086 0.0377352 3.23125e-19)
(0.196129 0.0401596 8.68941e-20)
(0.217367 0.0452726 4.40913e-19)
(-0.0114501 0.0124582 -7.20836e-20)
(-0.0269278 0.0292507 -3.41999e-19)
(-0.0361807 0.0399705 1.57367e-19)
(-0.0398261 0.0463384 7.14451e-22)
(-0.0384889 0.0496383 -6.85925e-19)
(-0.0327403 0.050836 1.07037e-19)
(-0.0230606 0.0506663 -2.03258e-20)
(-0.00985047 0.0496866 1.38474e-19)
(0.0065495 0.0483228 -6.33852e-19)
(0.0258371 0.0469048 -4.44371e-20)
(0.0477263 0.0456944 -1.4893e-19)
(0.0719243 0.0449055 1.32474e-19)
(0.0981096 0.044719 4.47338e-19)
(0.125909 0.0452945 -6.915e-20)
(0.154872 0.0467779 2.68065e-20)
(0.184435 0.0492929 1.76347e-19)
(0.213827 0.0528961 -4.35109e-20)
(0.242189 0.0577081 3.56818e-19)
(0.269485 0.0647819 -2.06407e-19)
(0.29464 0.074682 -3.27824e-19)
(-0.01212 0.0122364 6.68472e-20)
(-0.0277624 0.028359 1.62924e-20)
(-0.0360691 0.038453 1.3715e-19)
(-0.0378419 0.0443142 3.3592e-19)
(-0.0338226 0.0472835 1.88499e-19)
(-0.02466 0.0483664 1.96682e-20)
(-0.0108903 0.0483228 -2.25034e-19)
(0.00704455 0.0477293 5.76894e-20)
(0.0287695 0.0470298 3.03388e-19)
(0.053949 0.0465746 -5.14111e-19)
(0.0822603 0.0466516 3.87958e-19)
(0.113369 0.0475102 -2.92341e-19)
(0.146906 0.0493833 2.48167e-19)
(0.182442 0.0525087 -5.35414e-19)
(0.21946 0.0571538 5.89396e-19)
(0.257294 0.0636292 -6.30597e-19)
(0.294984 0.0722833 -1.64226e-19)
(0.33121 0.0837413 5.1671e-19)
(0.364829 0.0999465 -1.74052e-19)
(0.392829 0.120811 7.84653e-20)
(-0.0126854 0.0118859 -5.06036e-20)
(-0.0281402 0.0271078 4.77526e-19)
(-0.0350227 0.0364157 -2.00721e-21)
(-0.0343379 0.0416753 -2.96434e-19)
(-0.0269526 0.04428 -1.99365e-19)
(-0.0135975 0.0452706 3.65228e-19)
(0.00513088 0.0454268 -1.4466e-19)
(0.0287418 0.0453374 -1.82245e-20)
(0.0568154 0.0454553 3.01454e-19)
(0.0889689 0.0461382 -3.745e-19)
(0.124829 0.0476812 4.10727e-20)
(0.164011 0.0503424 -4.86957e-19)
(0.206107 0.0543682 2.56537e-19)
(0.250678 0.060022 -7.34343e-19)
(0.297268 0.0676231 1.17074e-18)
(0.345412 0.0775979 -2.14386e-19)
(0.394672 0.0905999 2.24865e-19)
(0.444933 0.108061 -5.83539e-19)
(0.496695 0.132996 2.80519e-21)
(0.542059 0.161025 6.69232e-19)
(-0.0131145 0.0114061 -1.53327e-19)
(-0.0279449 0.0255029 1.32483e-19)
(-0.0328285 0.0338865 -4.87814e-19)
(-0.0289967 0.0384827 7.21494e-19)
(-0.0174535 0.0407306 -5.20879e-19)
(0.000978742 0.0417004 2.68762e-20)
(0.0256296 0.0421837 -5.6162e-19)
(0.0559397 0.0427711 4.01537e-19)
(0.0914155 0.0439096 -5.73681e-20)
(0.13159 0.0459432 -3.54351e-19)
(0.175992 0.0491421 -2.06817e-19)
(0.224134 0.0537256 2.18509e-19)
(0.275502 0.0598802 1.4461e-19)
(0.329575 0.0677769 -6.40369e-19)
(0.385847 0.077588 2.31063e-19)
(0.443877 0.0894986 -3.41538e-19)
(0.50335 0.103728 4.14307e-20)
(0.56431 0.120732 -2.91523e-19)
(0.627632 0.141684 1.21081e-19)
(0.686041 0.162458 -4.3983e-19)
(-0.0133667 0.0107955 4.36494e-19)
(-0.0270386 0.0235564 -2.64334e-19)
(-0.0292404 0.0309115 2.17812e-19)
(-0.02146 0.0348308 -2.74978e-19)
(-0.00485629 0.036789 4.60947e-19)
(0.0196381 0.0378777 -8.07628e-21)
(0.0512523 0.0388901 -5.6107e-20)
(0.0893206 0.0404052 -4.15976e-20)
(0.133225 0.0428455 2.56046e-19)
(0.182349 0.0465165 4.35382e-19)
(0.23605 0.0516315 -2.57194e-19)
(0.293645 0.0583312 2.50086e-19)
(0.354421 0.0666955 4.57074e-19)
(0.417652 0.0767537 -3.20479e-19)
(0.482637 0.0884886 -6.52142e-19)
(0.548744 0.101832 1.19353e-18)
(0.615452 0.116645 -2.13006e-19)
(0.682438 0.132767 -6.9471e-20)
(0.74994 0.150531 7.52385e-19)
(0.812675 0.168938 -1.58094e-19)
(-0.0133914 0.0100526 -7.10715e-19)
(-0.025259 0.0212872 -4.73132e-19)
(-0.0239799 0.0275557 -1.81626e-19)
(-0.0113345 0.0308468 3.50384e-19)
(0.0113375 0.0326567 -7.90968e-19)
(0.0429618 0.0340873 4.09577e-19)
(0.082623 0.0359192 5.1903e-20)
(0.129488 0.0387011 5.24722e-20)
(0.182739 0.0428076 -5.36396e-19)
(0.241523 0.0484759 -1.89428e-19)
(0.304927 0.055829 -3.33971e-19)
(0.37198 0.0648932 3.226e-19)
(0.441674 0.0756107 9.17107e-20)
(0.512995 0.0878502 1.80519e-20)
(0.584972 0.101412 4.21774e-19)
(0.656719 0.11603 -4.26898e-19)
(0.727469 0.131359 -1.78463e-20)
(0.796607 0.14699 1.04405e-20)
(0.863833 0.162777 5.81267e-20)
(0.926158 0.180226 3.34693e-19)
(-0.0131262 0.00917638 2.26309e-19)
(-0.0224201 0.0187229 5.82889e-19)
(-0.0167407 0.0239038 4.6777e-19)
(0.00179609 0.0266902 -1.61221e-19)
(0.0316322 0.0285791 5.60665e-19)
(0.0715028 0.0306662 -4.72345e-20)
(0.12028 0.0336988 -6.65342e-20)
(0.176879 0.0381688 3.96054e-20)
(0.24018 0.0443704 5.41862e-19)
(0.308987 0.0524354 3.18383e-19)
(0.382017 0.0623575 9.29658e-20)
(0.457928 0.0740139 5.6764e-21)
(0.535354 0.0871844 -6.1758e-19)
(0.612972 0.10157 5.36609e-19)
(0.689555 0.116811 9.22944e-20)
(0.764019 0.132497 -1.51691e-19)
(0.83546 0.148177 -6.60313e-19)
(0.903172 0.163389 -5.63648e-20)
(0.966628 0.177669 2.61715e-19)
(1.02495 0.194157 -5.37629e-20)
(-0.0124974 0.00816808 -5.74412e-19)
(-0.0183145 0.0159025 2.40333e-19)
(-0.0071973 0.0200631 -1.17325e-18)
(0.0183528 0.0225528 4.80457e-19)
(0.0565059 0.0248404 -3.83144e-19)
(0.105735 0.0279907 2.8246e-19)
(0.164604 0.032687 -4.38741e-19)
(0.231665 0.0393262 4.02782e-20)
(0.305377 0.0480782 -2.2608e-20)
(0.384092 0.0589228 1.17995e-19)
(0.466071 0.0716813 1.7048e-19)
(0.549549 0.0860489 -3.22231e-19)
(0.632812 0.101627 1.706e-19)
(0.714278 0.117957 1.56854e-19)
(0.792568 0.13455 6.78891e-19)
(0.866551 0.150911 -2.94578e-19)
(0.935373 0.166563 -1.9655e-19)
(0.998461 0.18109 3.30919e-19)
(1.05539 0.193919 1.77587e-19)
(1.10669 0.208941 -3.32683e-19)
(-0.011421 0.00703368 5.03253e-19)
(-0.0127191 0.0128814 4.85268e-19)
(0.00498278 0.0161671 1.39954e-19)
(0.0387385 0.0186595 5.89503e-19)
(0.0863726 0.0217594 2.89545e-19)
(0.145996 0.0264639 -5.2193e-19)
(0.215744 0.0333476 7.90455e-19)
(0.293669 0.04266 -3.88984e-19)
(0.377687 0.0543905 3.88295e-19)
(0.465603 0.0683136 5.02496e-19)
(0.55518 0.0840362 -2.87179e-19)
(0.644253 0.101048 5.45335e-20)
(0.730839 0.118774 3.04466e-19)
(0.813242 0.136622 2.14696e-19)
(0.890111 0.154025 4.95255e-19)
(0.960481 0.170472 -1.9779e-19)
(1.02376 0.185532 -2.40783e-20)
(1.07971 0.198892 3.13927e-19)
(1.12828 0.210057 -6.73331e-20)
(1.17078 0.222998 3.92438e-22)
(-0.00980479 0.0057867 -2.5981e-19)
(-0.00540259 0.0097363 -9.54939e-19)
(0.0201229 0.01238 2.24852e-19)
(0.0633104 0.0152702 -1.71164e-19)
(0.121541 0.0196849 -3.95043e-19)
(0.192435 0.0265015 -2.8197e-19)
(0.273552 0.0361244 -1.74188e-19)
(0.362303 0.0485883 4.23073e-19)
(0.455955 0.0636364 -2.51255e-19)
(0.551717 0.0807854 -2.5726e-19)
(0.646888 0.0993971 -3.25579e-19)
(0.73901 0.118755 -5.37468e-20)
(0.826007 0.138135 -3.62874e-20)
(0.906281 0.156866 -7.54124e-19)
(0.978745 0.174374 3.66185e-19)
(1.04282 0.19021 -4.81463e-19)
(1.09835 0.204056 1.51809e-19)
(1.1456 0.215745 -1.15554e-18)
(1.18497 0.224992 3.48155e-19)
(1.21818 0.235406 4.41895e-19)
(-0.00755156 0.00445091 -6.52253e-20)
(0.00386462 0.00657032 4.66005e-19)
(0.038519 0.00890103 2.98664e-20)
(0.0923518 0.0126791 7.18744e-20)
(0.162176 0.0189882 -1.46121e-19)
(0.244964 0.028515 -2.38574e-21)
(0.337539 0.0414138 -3.73792e-21)
(0.436547 0.0574248 -8.81281e-20)
(0.538543 0.0759787 3.12569e-19)
(0.640177 0.0962942 1.2089e-19)
(0.738405 0.117483 5.48948e-19)
(0.830684 0.138655 -1.49727e-19)
(0.915091 0.158997 1.04633e-19)
(0.990383 0.177841 -1.3702e-20)
(1.05596 0.194692 2.90071e-19)
(1.11181 0.209235 1.77779e-19)
(1.15834 0.221324 4.29179e-19)
(1.19631 0.230963 -6.93633e-19)
(1.22662 0.238117 8.73807e-19)
(1.25112 0.245848 -2.77023e-19)
(-0.00456289 0.00306255 -6.07622e-19)
(0.0152989 0.00351652 -1.89611e-19)
(0.0604197 0.00596603 1.48243e-19)
(0.126042 0.0112126 9.34499e-20)
(0.208257 0.020053 9.56824e-20)
(0.303218 0.0328913 9.7036e-20)
(0.406859 0.0495359 -2.42788e-19)
(0.514974 0.0693488 -1.00426e-19)
(0.623432 0.091394 3.11389e-20)
(0.728459 0.114581 -2.97496e-19)
(0.826899 0.137804 -1.34652e-19)
(0.916397 0.160067 8.13933e-19)
(0.995471 0.180565 -2.09933e-19)
(1.06347 0.198726 -2.89824e-19)
(1.12046 0.214214 -1.37858e-19)
(1.16705 0.226911 9.53117e-20)
(1.20425 0.236873 1.16643e-19)
(1.23327 0.244278 -5.59291e-19)
(1.25537 0.249319 8.102e-19)
(1.2724 0.254482 -7.02599e-19)
(-0.00074322 0.00167182 -6.88363e-20)
(0.0290909 0.000739802 1.97297e-20)
(0.0860048 0.00384646 -2.50986e-20)
(0.164426 0.0112208 3.66992e-19)
(0.259553 0.0232582 2.01718e-20)
(0.366541 0.0399675 1.3474e-19)
(0.48032 0.0607067 -2.79871e-19)
(0.59583 0.084385 -1.02096e-20)
(0.708384 0.109675 3.88836e-19)
(0.814026 0.135205 5.42301e-20)
(0.909799 0.159733 -3.38948e-19)
(0.993851 0.18226 -2.97638e-20)
(1.06539 0.202094 -2.78889e-19)
(1.12454 0.218853 2.77572e-19)
(1.17209 0.232427 3.86096e-19)
(1.20929 0.242922 -4.25814e-20)
(1.23763 0.250594 -5.20399e-20)
(1.25863 0.255773 1.58601e-19)
(1.27377 0.258823 -5.10608e-19)
(1.28482 0.261719 4.49576e-19)
(0.00399562 0.00034355 6.90425e-20)
(0.0453923 -0.00156389 -4.45647e-19)
(0.115364 0.00284393 1.19287e-19)
(0.207394 0.0130654 -3.6981e-19)
(0.315602 0.0289572 1.27139e-19)
(0.433993 0.0500051 -4.72163e-19)
(0.556448 0.075016 1.90436e-19)
(0.677162 0.102399 -6.06063e-20)
(0.791136 0.130454 -2.45023e-21)
(0.894573 0.157612 6.2074e-20)
(0.985057 0.182605 -2.26189e-19)
(1.06153 0.204557 -3.23085e-19)
(1.12407 0.222993 -6.63333e-20)
(1.17362 0.237791 -2.97814e-20)
(1.2117 0.249097 -7.55986e-20)
(1.24005 0.25724 -2.46545e-20)
(1.2605 0.262644 -7.38223e-20)
(1.27474 0.265753 -6.40497e-20)
(1.28432 0.267031 -1.90843e-19)
(1.29083 0.26804 3.03006e-19)
(0.00972957 -0.000843031 1.66233e-19)
(0.0643023 -0.00317099 -1.84593e-19)
(0.14848 0.0032806 3.97213e-19)
(0.254658 0.0171019 -1.71399e-19)
(0.375708 0.0374537 4.58074e-19)
(0.504384 0.0631667 6.48363e-21)
(0.633578 0.092417 2.3003e-19)
(0.756972 0.123112 -6.15668e-20)
(0.869612 0.153255 2.57132e-19)
(0.968238 0.181202 1.86297e-20)
(1.0513 0.205801 6.12567e-19)
(1.11873 0.226419 -4.22944e-19)
(1.17156 0.242877 5.69539e-20)
(1.21153 0.255348 1.08762e-19)
(1.24071 0.264231 5.7048e-19)
(1.26121 0.270044 -2.04992e-19)
(1.27501 0.273335 -4.06814e-20)
(1.28383 0.274608 -2.15737e-19)
(1.28914 0.274378 -2.27962e-20)
(1.29235 0.27388 1.08028e-19)
(0.0165173 -0.0017955 -7.98652e-20)
(0.0858553 -0.00383652 2.30589e-19)
(0.185209 0.00548585 -2.35942e-19)
(0.30575 0.0236589 9.32472e-20)
(0.438959 0.0489784 -1.11353e-19)
(0.576336 0.0794999 4.08856e-19)
(0.709972 0.112731 -5.69024e-20)
(0.833386 0.146135 1.40347e-19)
(0.942088 0.177548 -8.26034e-20)
(1.03373 0.205407 -2.14148e-21)
(1.10786 0.228817 9.44708e-20)
(1.16551 0.247481 -7.32078e-20)
(1.20861 0.261563 1.89944e-19)
(1.23955 0.27153 -9.4681e-20)
(1.26081 0.277997 -4.17343e-19)
(1.27467 0.281623 4.15052e-19)
(1.28311 0.283027 -1.87152e-19)
(1.28775 0.282727 1.49459e-19)
(1.2899 0.281249 2.59365e-19)
(1.29079 0.279575 1.06563e-19)
(0.0243952 -0.00241031 1.987e-19)
(0.110009 -0.00330265 -4.09434e-19)
(0.225275 0.00978011 7.83559e-20)
(0.360022 0.0330164 -5.68193e-20)
(0.504268 0.0636701 -2.29068e-19)
(0.648372 0.0989333 -1.79773e-19)
(0.783947 0.135668 -3.53219e-20)
(0.90479 0.171014 -3.20544e-19)
(1.0073 0.202811 -1.95084e-20)
(1.09034 0.229744 -5.95698e-20)
(1.1547 0.251291 -1.61769e-19)
(1.20246 0.267552 -3.59361e-20)
(1.23634 0.27904 -1.23881e-19)
(1.2592 0.286478 -2.06875e-19)
(1.2737 0.29065 2.1194e-19)
(1.28215 0.292297 2.92679e-20)
(1.28641 0.29206 5.83278e-20)
(1.28792 0.290438 -2.44402e-19)
(1.28782 0.287941 -6.09064e-21)
(1.28712 0.285355 -3.77362e-19)
(0.0333725 -0.00257576 2.17963e-19)
(0.136638 -0.00130929 1.45344e-19)
(0.268266 0.0164574 -2.3424e-19)
(0.416667 0.045387 3.65786e-19)
(0.570427 0.0815645 -3.94092e-20)
(0.719012 0.121285 1.36604e-19)
(0.853992 0.160857 4.72914e-20)
(0.969927 0.197276 1.67576e-19)
(1.06448 0.228577 -1.31214e-19)
(1.1379 0.253841 4.37401e-20)
(1.19226 0.273005 -4.19968e-20)
(1.23054 0.286583 -1.84997e-20)
(1.25606 0.295405 3.51502e-20)
(1.27195 0.300402 -6.4793e-20)
(1.28089 0.302463 -1.99259e-20)
(1.28508 0.302361 -6.09614e-20)
(1.28618 0.300717 -9.91331e-20)
(1.28542 0.297988 6.39968e-20)
(1.28374 0.29466 -8.78741e-20)
(1.28196 0.291352 3.79701e-19)
(0.0434277 -0.0021758 -1.08887e-19)
(0.165526 0.00239395 -3.0835e-19)
(0.313642 0.0257678 -4.10407e-20)
(0.474757 0.0608998 -1.11434e-20)
(0.636177 0.102592 -1.38072e-19)
(0.786862 0.146279 -2.2667e-19)
(0.918855 0.187884 7.42025e-20)
(1.02793 0.22447 -1.0196e-19)
(1.1133 0.254458 -1.14278e-19)
(1.17669 0.277444 6.36688e-20)
(1.22129 0.293862 -4.81253e-20)
(1.25086 0.304623 -9.74056e-20)
(1.26908 0.310822 -3.3059e-21)
(1.27915 0.31353 6.59777e-20)
(1.28365 0.313689 -6.73373e-20)
(1.28457 0.312058 9.34503e-20)
(1.28333 0.309209 2.51298e-20)
(1.28096 0.305546 6.33766e-20)
(1.2782 0.301528 1.23595e-19)
(1.27571 0.297629 -1.0589e-19)
(0.0545049 -0.00109456 1.04027e-19)
(0.196369 0.00803516 -9.23432e-21)
(0.360748 0.0379022 4.66329e-20)
(0.533277 0.0795917 -6.33148e-20)
(0.700274 0.126584 5.18815e-21)
(0.850693 0.173574 2.19646e-19)
(0.977583 0.216322 -1.44306e-19)
(1.07833 0.252193 6.11205e-20)
(1.15383 0.280157 5.38945e-20)
(1.20723 0.300401 -1.51544e-19)
(1.24271 0.313855 1.42427e-19)
(1.26455 0.32178 1.25841e-21)
(1.27658 0.325468 -1.00407e-19)
(1.28192 0.326074 1.2104e-19)
(1.28297 0.324535 -4.80448e-20)
(1.28143 0.321566 3.67476e-20)
(1.27852 0.317676 -4.11006e-20)
(1.27503 0.313209 -1.64281e-20)
(1.27156 0.308601 -1.43988e-19)
(1.2686 0.304193 4.40906e-20)
(0.0665132 0.000778678 -3.51021e-20)
(0.228782 0.0158077 9.41455e-20)
(0.408841 0.0529794 1.46691e-20)
(0.591182 0.101405 6.15511e-20)
(0.761559 0.153287 2.93582e-20)
(0.90949 0.202785 1.37606e-20)
(1.02954 0.24576 7.80333e-20)
(1.12097 0.280103 -9.47575e-21)
(1.1864 0.305458 3.44096e-20)
(1.23027 0.322635 5.52988e-20)
(1.25749 0.333028 2.66886e-20)
(1.27265 0.338179 1.91615e-20)
(1.27957 0.339512 7.77129e-20)
(1.28118 0.338203 -7.5225e-20)
(1.27959 0.335151 1.61498e-20)
(1.27626 0.331004 -1.51191e-20)
(1.27217 0.326196 2.34053e-20)
(1.26793 0.321017 1.96105e-20)
(1.26399 0.315885 4.09608e-20)
(1.26075 0.311012 1.73113e-21)
(0.0793262 0.00354424 2.08079e-20)
(0.262303 0.025859 1.90057e-20)
(0.457118 0.0710375 -2.63038e-20)
(0.647441 0.126189 1.64352e-20)
(0.819001 0.182382 9.28286e-21)
(0.962478 0.233509 -2.88762e-20)
(1.07437 0.275817 9.52963e-21)
(1.15596 0.307918 1.71578e-21)
(1.21153 0.330213 1.64365e-20)
(1.24657 0.344124 -4.40676e-20)
(1.26653 0.35145 -1.35742e-22)
(1.27608 0.353943 1.22134e-20)
(1.27888 0.353091 -9.73213e-21)
(1.2776 0.350044 9.84755e-21)
(1.27406 0.345635 2.56963e-20)
(1.26946 0.340432 -1.46187e-20)
(1.26456 0.334796 4.07039e-21)
(1.25984 0.328966 1.60179e-20)
(1.25562 0.323352 -2.64116e-20)
(1.25221 0.318031 1.26768e-20)
(0.092785 0.00728692 5.80388e-20)
(0.296415 0.0382809 -3.15543e-20)
(0.50475 0.0920303 3.71483e-20)
(0.701083 0.153711 -2.76381e-20)
(0.871736 0.213498 -1.23935e-20)
(1.00912 0.265342 3.74572e-21)
(1.11196 0.306152 -1.21634e-20)
(1.18361 0.335414 4.37452e-20)
(1.22983 0.354322 -3.64232e-20)
(1.25693 0.364872 8.54582e-21)
(1.27065 0.369192 -6.36905e-21)
(1.27559 0.36917 -4.1476e-20)
(1.27516 0.366301 4.0228e-20)
(1.2717 0.361673 1.53126e-20)
(1.26675 0.356032 -1.52351e-20)
(1.26127 0.349865 3.57569e-20)
(1.25585 0.343462 -5.27213e-22)
(1.25085 0.337023 -3.46835e-20)
(1.24649 0.330947 2.5694e-20)
(1.24301 0.32518 8.09414e-21)
(0.106701 0.0120714 -2.03367e-20)
(0.330556 0.0531031 5.89837e-20)
(0.550911 0.115828 6.81368e-20)
(0.75123 0.183668 -3.21372e-20)
(0.919083 0.246237 5.59212e-20)
(1.04909 0.297894 8.84785e-20)
(1.1424 0.336461 -4.86802e-21)
(1.20434 0.362406 -1.51799e-20)
(1.24193 0.377715 7.50114e-20)
(1.26207 0.38489 3.65669e-20)
(1.27056 0.386311 -6.62966e-21)
(1.27181 0.38393 5.44914e-20)
(1.2689 0.3792 -5.84153e-20)
(1.26385 0.373121 9.09488e-20)
(1.25793 0.366347 -1.51716e-20)
(1.25188 0.359282 4.34342e-20)
(1.24615 0.352152 7.81915e-21)
(1.24102 0.345126 3.1072e-20)
(1.23662 0.338598 -2.95803e-20)
(1.23314 0.332379 7.10727e-21)
(0.12086 0.0179379 -3.16497e-20)
(0.364145 0.0702886 7.51729e-20)
(0.594811 0.14222 5.58319e-20)
(0.797125 0.215697 -8.45558e-21)
(0.960535 0.280178 8.69434e-20)
(1.08225 0.330788 -6.48939e-20)
(1.16591 0.366472 -5.07319e-21)
(1.21864 0.388742 5.73076e-20)
(1.24847 0.400337 1.82096e-20)
(1.26263 0.404187 2.5455e-20)
(1.26684 0.40284 -3.75783e-20)
(1.26521 0.398254 9.79331e-20)
(1.26046 0.391802 1.82691e-20)
(1.2543 0.384382 -8.67099e-20)
(1.24774 0.376549 1.26607e-19)
(1.24136 0.368632 -1.49349e-19)
(1.2355 0.3608 -6.8517e-20)
(1.23036 0.353201 1.13627e-20)
(1.226 0.346223 6.6535e-20)
(1.2226 0.339539 -1.25334e-19)
(0.13503 0.0248989 -7.13018e-20)
(0.396597 0.0897325 -1.68164e-19)
(0.635723 0.170925 -1.4536e-19)
(0.838144 0.249393 -1.97918e-19)
(0.99576 0.314899 -1.12258e-19)
(1.10863 0.363672 -2.32755e-19)
(1.18281 0.395943 2.95715e-20)
(1.22702 0.414288 -1.23545e-19)
(1.25002 0.422134 -1.3556e-20)