/*--------------------------------*- C++ -*----------------------------------*\
  =========                 |
  \\      /  F ield         | OpenFOAM: The Open Source CFD Toolbox
   \\    /   O peration     | Website:  https://openfoam.org
    \\  /    A nd           | Version:  6.0
     \\/     M anipulation  |
\*---------------------------------------------------------------------------*/
FoamFile
{
    version     2.0;
    format      ascii;
    class       volVectorField;
    location    "41";
    object      U;
}
// * * * * * * * * * * * * * * * * * * * * * * * * * * * * * * * * * * * * * //

dimensions      [0 1 -1 0 0 0 0];

internalField   nonuniform List<vector> 
12500
(
(-0.000273589 0.00149528 -7.79522e-22)
(-0.00154252 0.00353546 1.12123e-20)
(-0.00396842 0.00484631 -1.63592e-20)
(-0.00706157 0.00560493 7.55159e-21)
(-0.0105546 0.00595223 4.53212e-22)
(-0.0142793 0.00600042 -9.3694e-22)
(-0.018101 0.00583842 -1.3931e-20)
(-0.0219194 0.00553571 7.67676e-21)
(-0.0256645 0.0051458 5.09659e-21)
(-0.0292904 0.00470926 5.18933e-21)
(-0.0327701 0.00425632 -8.80945e-21)
(-0.0360919 0.00380902 5.13648e-21)
(-0.0392558 0.00338299 -2.42459e-21)
(-0.0422713 0.00298884 4.12069e-21)
(-0.0451546 0.0026333 -1.05275e-20)
(-0.0479275 0.00231999 1.52282e-20)
(-0.0506148 0.0020501 -2.90302e-21)
(-0.0532439 0.00182282 -1.08062e-20)
(-0.0558426 0.00163565 5.54668e-21)
(-0.0584387 0.00148466 -5.29848e-21)
(-0.0610634 0.00136462 4.74219e-21)
(-0.0637475 0.00126913 6.2636e-21)
(-0.0664778 0.00119141 6.39791e-22)
(-0.0691811 0.00112507 -1.79662e-20)
(-0.0721585 0.00105648 1.00656e-20)
(-0.000349357 0.00211239 1.43195e-20)
(-0.0017281 0.00513988 -3.8329e-20)
(-0.00423016 0.00720811 1.13608e-20)
(-0.00737352 0.00853257 7.63695e-21)
(-0.0108965 0.00928582 -6.11701e-21)
(-0.0146352 0.00960774 -3.49252e-20)
(-0.0184583 0.0096126 1.04235e-20)
(-0.0222681 0.00939262 -1.97677e-20)
(-0.0259964 0.00902151 2.37247e-20)
(-0.0295989 0.00855768 -3.17647e-20)
(-0.0330495 0.00804709 1.69983e-20)
(-0.0363374 0.00752556 5.51926e-21)
(-0.0394633 0.00702074 -1.39072e-20)
(-0.0424371 0.00655365 -6.15029e-21)
(-0.045276 0.00613985 4.51472e-20)
(-0.0480019 0.00579041 -4.00132e-20)
(-0.0506407 0.00551252 9.59107e-21)
(-0.0532204 0.00531004 1.66011e-20)
(-0.0557697 0.00518384 -3.77661e-21)
(-0.0583175 0.00513206 2.67823e-20)
(-0.0608959 0.00515024 4.89151e-21)
(-0.063537 0.0052315 -1.76988e-21)
(-0.0662284 0.00536883 -3.39204e-20)
(-0.0688966 0.00555673 3.12219e-20)
(-0.0718446 0.00577131 -6.32659e-20)
(-0.000464079 0.00272428 4.59713e-20)
(-0.00201516 0.00673166 1.58315e-20)
(-0.00464107 0.00955169 -2.09077e-20)
(-0.007869 0.0114378 9.03886e-21)
(-0.0114443 0.0125935 8.48024e-21)
(-0.0152085 0.013186 3.23661e-20)
(-0.0190349 0.0133546 -4.12958e-20)
(-0.0228292 0.0132139 -6.76055e-21)
(-0.0265262 0.0128577 -2.78595e-20)
(-0.0300835 0.0123622 -2.33277e-20)
(-0.0334768 0.0117889 3.01751e-20)
(-0.0366965 0.0111874 -1.01327e-19)
(-0.0397443 0.0105976 -3.19356e-21)
(-0.0426313 0.0100511 -6.10929e-20)
(-0.0453753 0.00957247 -7.2106e-21)
(-0.0479995 0.00918055 8.68975e-21)
(-0.0505309 0.0088889 -4.76841e-20)
(-0.0529987 0.00870643 -2.98773e-20)
(-0.0554332 0.00863776 -3.53998e-20)
(-0.057865 0.0086835 5.55083e-20)
(-0.0603279 0.00884024 2.03022e-20)
(-0.062856 0.00910091 -9.04807e-20)
(-0.0654384 0.00945841 -4.36085e-20)
(-0.068001 0.00990852 -4.88339e-20)
(-0.07085 0.0104167 1.3966e-19)
(-0.000617433 0.00332891 -1.40816e-21)
(-0.00240272 0.00830467 -3.66414e-20)
(-0.00519953 0.0118673 -1.77419e-20)
(-0.00854568 0.0143072 1.10823e-20)
(-0.0121948 0.0158585 6.91332e-20)
(-0.0159954 0.0167151 -3.13013e-20)
(-0.0198264 0.0170409 6.70774e-20)
(-0.023598 0.0169728 6.41537e-20)
(-0.0272487 0.0166241 3.91754e-20)
(-0.0307389 0.0160886 -5.79323e-22)
(-0.0340464 0.0154433 7.94696e-20)
(-0.0371635 0.0147518 1.38042e-20)
(-0.0400932 0.0140659 6.09581e-20)
(-0.0428479 0.0134281 1.40486e-19)
(-0.0454468 0.0128725 -1.63313e-19)
(-0.0479143 0.012426 2.46045e-19)
(-0.050279 0.0121091 5.36274e-20)
(-0.0525719 0.0119363 -1.18548e-19)
(-0.0548254 0.0119166 -1.68267e-20)
(-0.0570723 0.0120537 4.31629e-20)
(-0.0593492 0.0123457 -2.17217e-20)
(-0.061693 0.0127858 -1.30635e-20)
(-0.0640951 0.0133672 -1.27291e-20)
(-0.0664803 0.0140874 -5.12151e-20)
(-0.0691597 0.0149009 1.90313e-19)
(-0.000809001 0.00392428 2.39959e-20)
(-0.00288956 0.00985301 -1.15585e-19)
(-0.00590334 0.0141451 1.41134e-19)
(-0.00940036 0.0171274 -5.64868e-20)
(-0.013144 0.019064 6.80419e-20)
(-0.0169909 0.0201751 5.5825e-20)
(-0.0208269 0.0206487 2.12907e-20)
(-0.024568 0.0206433 1.10249e-21)
(-0.028157 0.0202916 1.20754e-19)
(-0.0315578 0.0197044 8.39039e-20)
(-0.0347513 0.0189742 -3.36826e-20)
(-0.0377315 0.0181781 -2.17681e-20)
(-0.0405034 0.0173803 9.217e-20)
(-0.0430808 0.0166343 1.73896e-20)
(-0.0454844 0.015984 4.73708e-20)
(-0.0477403 0.0154649 1.13587e-19)
(-0.0498789 0.0151052 -9.82147e-20)
(-0.0519336 0.0149258 7.9397e-20)
(-0.0539392 0.0149409 -1.71653e-19)
(-0.0559315 0.015158 1.44489e-19)
(-0.0579506 0.0155777 9.59411e-22)
(-0.0600374 0.016194 -1.15648e-19)
(-0.0621863 0.017001 4.6503e-20)
(-0.0643209 0.0179986 1.05912e-19)
(-0.0667594 0.0191305 -1.6551e-19)
(-0.00103828 0.00450839 1.24216e-19)
(-0.00347403 0.0113706 -1.36888e-19)
(-0.00674957 0.0163753 -2.21178e-20)
(-0.0104287 0.0198853 2.81626e-20)
(-0.0142861 0.0221938 -6.10862e-20)
(-0.018188 0.023547 -9.57076e-20)
(-0.0220284 0.0241563 -8.00003e-20)
(-0.0257302 0.0242012 -1.9368e-20)
(-0.0292416 0.0238332 -1.38818e-19)
(-0.0325307 0.0231798 1.11156e-19)
(-0.0355817 0.0223484 -1.73072e-19)
(-0.0383911 0.0214296 8.7845e-20)
(-0.0409658 0.0204999 -2.91402e-20)
(-0.0433214 0.0196237 6.78939e-20)
(-0.0454801 0.0188554 -1.71205e-19)
(-0.0474699 0.0182397 8.33059e-20)
(-0.0493233 0.0178133 6.28761e-21)
(-0.0510762 0.0176044 3.70735e-20)
(-0.0527665 0.0176335 2.2451e-19)
(-0.0544337 0.0179133 4.99611e-20)
(-0.0561221 0.0184479 -4.45064e-21)
(-0.0578778 0.019233 1.43046e-20)
(-0.0596991 0.0202646 9.42768e-20)
(-0.0615086 0.0215462 2.6981e-20)
(-0.0636341 0.0230099 9.38463e-20)
(-0.00130465 0.00507931 -7.73883e-20)
(-0.004154 0.0128516 1.14051e-19)
(-0.00773432 0.0185483 7.21502e-21)
(-0.0116249 0.0225677 -1.41108e-19)
(-0.0156134 0.025232 2.98609e-19)
(-0.0195772 0.0268125 -9.70222e-20)
(-0.0234199 0.0275433 1.42431e-19)
(-0.0270724 0.0276243 1.30891e-19)
(-0.0304893 0.0272249 -1.08758e-19)
(-0.0336438 0.0264886 -1.5899e-19)
(-0.0365237 0.0255373 4.36992e-20)
(-0.0391285 0.0244745 -4.62571e-20)
(-0.0414672 0.0233889 -2.05228e-19)
(-0.0435571 0.0223563 2.50239e-19)
(-0.0454221 0.0214414 -1.20371e-19)
(-0.047092 0.0206991 -8.32072e-20)
(-0.0486013 0.0201752 8.53609e-22)
(-0.0499889 0.0199068 6.84464e-20)
(-0.0512962 0.019922 2.82436e-20)
(-0.0525668 0.0202401 -1.1083e-19)
(-0.0538503 0.0208703 1.27037e-19)
(-0.0551991 0.0218116 -2.20863e-19)
(-0.0566168 0.023063 1.35217e-19)
(-0.0580253 0.0246333 -1.0367e-19)
(-0.0597652 0.0264428 2.8737e-20)
(-0.00160734 0.00563508 1.12834e-19)
(-0.00492676 0.0142897 -9.00726e-20)
(-0.00885248 0.0206542 -5.76828e-20)
(-0.0129813 0.0251617 -1.02533e-19)
(-0.0171157 0.0281632 -1.88546e-19)
(-0.0211457 0.0299543 -1.40069e-19)
(-0.0249863 0.030791 8.78348e-20)
(-0.0285775 0.0308926 -1.33662e-19)
(-0.0318816 0.0304456 1.70392e-19)
(-0.0348775 0.0296087 -2.78531e-19)
(-0.0375573 0.0285172 1.24236e-19)
(-0.0399235 0.0272873 2.63368e-19)
(-0.0419875 0.0260193 -3.71391e-19)
(-0.0437684 0.0248001 5.32183e-20)
(-0.0452915 0.0237053 6.94974e-20)
(-0.0465882 0.0228005 6.73463e-20)
(-0.0476954 0.0221418 -7.24565e-20)
(-0.0486545 0.0217762 -1.77605e-20)
(-0.0495106 0.0217413 -5.36014e-20)
(-0.0503124 0.0220651 -4.47202e-20)
(-0.0511155 0.0227638 -2.4644e-19)
(-0.0519799 0.0238417 -1.67328e-20)
(-0.0529159 0.0253029 2.75107e-21)
(-0.0538459 0.0271638 -1.12075e-19)
(-0.0551269 0.0293329 1.2246e-19)
(-0.00194543 0.00617362 3.29839e-21)
(-0.00578882 0.0156788 3.68378e-20)
(-0.0100974 0.0226829 3.86709e-20)
(-0.0144878 0.0276544 2.25195e-20)
(-0.0187792 0.0309723 1.92052e-19)
(-0.0228765 0.0329557 1.81463e-19)
(-0.0267073 0.033882 -1.48234e-19)
(-0.0302226 0.0339887 -4.54207e-20)
(-0.0333931 0.0334781 -4.04697e-20)
(-0.0362043 0.0325228 2.09672e-19)
(-0.0386533 0.031271 7.56484e-20)
(-0.040746 0.0298503 -1.10408e-19)
(-0.0424964 0.0283719 -9.38727e-20)
(-0.0439249 0.0269337 2.26885e-19)
(-0.0450584 0.0256221 -5.61194e-20)
(-0.0459294 0.0245138 -6.82838e-20)
(-0.0465767 0.0236761 -9.55355e-20)
(-0.0470442 0.0231678 -7.46036e-20)
(-0.047381 0.0230378 -9.55289e-20)
(-0.0476409 0.023325 -6.26144e-20)
(-0.0478865 0.0240557 2.60715e-19)
(-0.0481869 0.0252421 -1.28722e-19)
(-0.048561 0.0268963 8.68516e-20)
(-0.048933 0.0290454 -2.31631e-19)
(-0.0496816 0.0315866 9.88509e-20)
(-0.0023177 0.00669271 -1.01459e-19)
(-0.00673572 0.0170119 -2.74757e-20)
(-0.0114606 0.0246239 -2.15838e-19)
(-0.0161314 0.0300324 -1.04154e-19)
(-0.0205865 0.0336441 -2.06752e-19)
(-0.0247473 0.0358011 -2.16807e-20)
(-0.0285564 0.0368007 1.12028e-19)
(-0.0319767 0.0368976 -6.86543e-20)
(-0.0349889 0.0363086 1.48517e-19)
(-0.0375862 0.0352191 -3.62504e-19)
(-0.039771 0.0337883 -1.05922e-20)
(-0.0415534 0.0321543 6.47608e-20)
(-0.0429496 0.0304383 -8.24492e-20)
(-0.0439816 0.0287482 7.53194e-20)
(-0.0446771 0.027181 -5.78002e-20)
(-0.0450699 0.0258245 -1.24257e-19)
(-0.0451996 0.0247584 2.27295e-19)
(-0.0451125 0.0240543 1.4141e-19)
(-0.0448613 0.0237748 -2.93665e-20)
(-0.0445052 0.0239729 9.38855e-20)
(-0.0441145 0.0246879 -1.85595e-19)
(-0.043769 0.0259438 2.6815e-19)
(-0.043498 0.027765 -3.66962e-19)
(-0.04323 0.0301936 7.56231e-20)
(-0.043372 0.0331166 -1.52395e-19)
(-0.00272263 0.00718981 5.52043e-21)
(-0.00776179 0.0182818 -9.39239e-20)
(-0.0129312 0.026466 1.39906e-19)
(-0.0178957 0.0322818 2.88799e-19)
(-0.0225151 0.0361632 -4.83542e-21)
(-0.0267299 0.0384747 3.31012e-20)
(-0.0304991 0.0395324 -1.2577e-19)
(-0.0337996 0.0396065 5.91014e-20)
(-0.0366234 0.0389273 4.09826e-19)
(-0.0389721 0.0376909 -9.33728e-20)
(-0.0408548 0.0360662 -1.10818e-19)
(-0.0422856 0.0342001 4.20298e-19)
(-0.0432837 0.0322224 1.37881e-19)
(-0.0438724 0.0302497 6.58609e-20)
(-0.04408 0.0283889 6.76882e-20)
(-0.0439404 0.0267386 1.84793e-19)
(-0.0434941 0.025391 -7.12193e-20)
(-0.0427887 0.0244319 1.89e-19)
(-0.0418799 0.0239399 2.56417e-19)
(-0.040832 0.023985 -2.19176e-19)
(-0.0397241 0.0246241 3.26582e-19)
(-0.0386478 0.0258978 1.17014e-19)
(-0.0376453 0.027848 -4.44551e-19)
(-0.0366523 0.0305386 6.44427e-19)
(-0.0361125 0.0338488 -5.52871e-19)
(-0.00315824 0.00766199 -2.5889e-19)
(-0.00885992 0.0194802 1.46338e-19)
(-0.0144959 0.0281969 -9.8936e-20)
(-0.0197603 0.0343877 -9.45301e-20)
(-0.0245374 0.0385136 -1.0278e-19)
(-0.0287887 0.0409606 -1.1209e-19)
(-0.0324921 0.0420626 3.08895e-20)
(-0.03564 0.0421041 2.95368e-19)
(-0.0382371 0.0413268 -6.34804e-20)
(-0.040295 0.0399362 -1.66264e-19)
(-0.04183 0.0381088 -1.02025e-19)
(-0.0428615 0.0359984 -4.18624e-20)
(-0.0434114 0.0337413 1.24598e-19)
(-0.0435046 0.0314614 -7.97184e-20)
(-0.0431698 0.0292735 -2.61142e-19)
(-0.0424405 0.0272862 -2.89185e-19)
(-0.0413568 0.0256041 1.15667e-19)
(-0.039967 0.0243276 -2.15892e-19)
(-0.0383289 0.0235534 1.88256e-19)
(-0.0365115 0.0233716 -5.32616e-19)
(-0.0346024 0.0238614 4.10396e-19)
(-0.0327068 0.0250861 -5.44129e-19)
(-0.0308819 0.0271127 -1.03148e-20)
(-0.0290746 0.0300361 -1.84209e-19)
(-0.0277767 0.0337317 5.72332e-19)
(-0.00362199 0.00810585 3.97361e-19)
(-0.0100213 0.0205977 6.04892e-20)
(-0.0161382 0.0298031 -4.00551e-20)
(-0.0217004 0.0363338 -1.6962e-20)
(-0.0266193 0.0406778 3.18128e-19)
(-0.0308803 0.043242 1.04117e-19)
(-0.0344817 0.0443767 9.49662e-20)
(-0.0374338 0.0443796 -7.6677e-20)
(-0.0397553 0.043502 2.97173e-19)
(-0.0414692 0.0419569 -1.46687e-19)
(-0.0426003 0.0399264 9.50194e-20)
(-0.0431737 0.037569 2.42954e-19)
(-0.0432153 0.0350254 -1.38217e-19)
(-0.0427516 0.0324238 1.50365e-19)
(-0.0418116 0.0298852 1.42493e-19)
(-0.0404281 0.0275261 4.88818e-20)
(-0.03864 0.0254619 -1.20916e-19)
(-0.036495 0.0238076 3.35359e-19)
(-0.0340517 0.0226785 -3.12833e-20)
(-0.031383 0.0221884 -3.62344e-20)
(-0.0285846 0.0224433 4.05044e-19)
(-0.0257762 0.0235364 -2.88974e-19)
(-0.0230325 0.0255699 4.87955e-19)
(-0.0203163 0.0286812 -4.05721e-19)
(-0.0181818 0.03275 5.51813e-19)
(-0.00411071 0.00851749 -1.92128e-19)
(-0.0112351 0.0216239 4.42577e-20)
(-0.0178384 0.0312694 -4.64665e-20)
(-0.0236863 0.0381021 -2.20988e-19)
(-0.0287206 0.0426366 1.29096e-20)
(-0.0329527 0.0453001 1.27435e-19)
(-0.0364036 0.0464585 -5.209e-19)
(-0.0391032 0.0464212 3.90878e-19)
(-0.041086 0.0454476 -3.82292e-19)
(-0.0423879 0.0437565 -2.42154e-19)
(-0.0430434 0.0415335 2.18209e-19)
(-0.0430849 0.0389394 -4.74156e-19)
(-0.0425427 0.0361163 4.00926e-19)
(-0.041446 0.0331946 -1.2785e-19)
(-0.0398244 0.0302976 -3.66642e-19)
(-0.0377097 0.0275472 9.08443e-20)
(-0.0351393 0.0250667 -8.54789e-20)
(-0.0321592 0.022984 3.23953e-20)
(-0.0288274 0.0214325 -1.15912e-19)
(-0.025219 0.020551 -3.8628e-19)
(-0.0214369 0.0204772 8.66556e-20)
(-0.0176158 0.0213417 -5.11073e-23)
(-0.01385 0.0232934 -4.01691e-19)
(-0.0101226 0.0265296 2.82749e-19)
(-0.00706916 0.030945 -2.58377e-19)
(-0.00462046 0.00889253 7.78206e-20)
(-0.0124885 0.0225474 1.48794e-19)
(-0.0195734 0.0325794 2.09582e-19)
(-0.0256835 0.0396728 1.08576e-19)
(-0.0307941 0.0443686 -1.07073e-19)
(-0.0349448 0.0471138 2.56955e-19)
(-0.0381816 0.0482893 1.91195e-19)
(-0.0405555 0.0482148 -6.98462e-20)
(-0.0421188 0.0471568 2.51053e-19)
(-0.0429215 0.0453379 -2.5937e-19)
(-0.0430095 0.0429458 -7.63549e-20)
(-0.0424237 0.0401409 7.78162e-20)
(-0.0412006 0.0370644 1.5497e-19)
(-0.0393731 0.0338451 1.81888e-21)
(-0.0369722 0.0306057 9.88255e-20)
(-0.0340297 0.0274687 1.82901e-19)
(-0.0305813 0.0245615 -3.12367e-19)
(-0.0266707 0.0220207 3.89492e-19)
(-0.0223539 0.0199955 1.32019e-19)
(-0.0177065 0.0186488 4.68553e-20)
(-0.0128371 0.0181525 -4.76676e-19)
(-0.00789439 0.018682 6.76079e-20)
(-0.00299386 0.0204461 1.05108e-19)
(0.00185659 0.0237229 -2.5354e-20)
(0.00591774 0.0284402 1.269e-19)
(-0.00514657 0.00922626 6.16857e-21)
(-0.0137667 0.0233558 -3.83342e-19)
(-0.0213166 0.0337151 -9.52341e-21)
(-0.0276525 0.0410239 -9.79937e-20)
(-0.0327859 0.0458497 -6.47997e-19)
(-0.0367867 0.0486588 5.62777e-19)
(-0.0397279 0.0498465 -4.0262e-19)
(-0.0416832 0.0497422 -2.0278e-20)
(-0.0427241 0.0486183 -1.92132e-19)
(-0.0429165 0.0467003 3.33754e-19)
(-0.042319 0.044176 -3.60778e-19)
(-0.0409829 0.0412041 -1.69629e-19)
(-0.0389524 0.0379223 3.67564e-21)
(-0.0362659 0.0344548 -3.69886e-19)
(-0.0329579 0.0309195 5.06333e-19)
(-0.0290616 0.0274348 -5.88609e-19)
(-0.024612 0.0241265 1.0803e-21)
(-0.0196508 0.021134 9.07341e-20)
(-0.0142316 0.0186162 -2.27814e-19)
(-0.0084285 0.0167563 2.21633e-19)
(-0.0023536 0.0157591 -3.15117e-19)
(0.00383152 0.015849 -2.08883e-19)
(0.00999097 0.0173083 3.90245e-19)
(0.0160896 0.0205216 -4.26704e-19)
(0.0212573 0.0254744 -8.79451e-21)
(-0.00568361 0.00951377 -3.12794e-19)
(-0.0150525 0.0240363 3.72394e-19)
(-0.023038 0.0346575 -1.15685e-19)
(-0.0295487 0.0421321 2.24248e-19)
(-0.0346351 0.0470534 2.43283e-19)
(-0.0383995 0.0499076 -2.15534e-19)
(-0.0409431 0.0511035 -1.43824e-19)
(-0.0423639 0.0509799 -1.72975e-19)
(-0.0427538 0.0498146 1.59083e-19)
(-0.0421959 0.0478355 -1.05965e-20)
(-0.0407631 0.0452298 2.33993e-19)
(-0.0385186 0.0421532 2.31585e-19)
(-0.0355165 0.0387382 -2.77766e-19)
(-0.0318033 0.035102 5.47495e-19)
(-0.0274195 0.0313541 -3.64312e-19)
(-0.0224022 0.027604 -6.289e-20)
(-0.0167885 0.0239695 7.14477e-19)
(-0.0106199 0.0205844 -3.31683e-19)
(-0.00394847 0.0176086 2.12132e-19)
(0.00315373 0.0152363 4.1552e-19)
(0.0105733 0.0136988 -2.70228e-19)
(0.0181385 0.0132678 2.8492e-20)
(0.0256954 0.0143085 -1.86932e-20)
(0.0331835 0.0173408 -1.11801e-19)
(0.0395724 0.0224404 2.21482e-19)
(-0.00622548 0.00975027 7.15385e-20)
(-0.0163269 0.024576 -2.36224e-19)
(-0.0247043 0.0353873 1.30077e-19)
(-0.0313229 0.0429726 -1.58186e-21)
(-0.0362746 0.0479514 9.91296e-20)
(-0.0396955 0.0508292 -1.71587e-19)
(-0.0417165 0.0520289 9.86826e-20)
(-0.0424608 0.0518983 2.70083e-19)
(-0.0420416 0.0507207 -8.24904e-21)
(-0.0405601 0.0487262 -1.39324e-19)
(-0.0381047 0.0461016 1.40721e-19)
(-0.0347523 0.0429996 -3.20773e-21)
(-0.0305688 0.0395469 -4.49052e-19)
(-0.0256116 0.0358527 1.67085e-19)
(-0.0199306 0.0320158 3.70677e-20)
(-0.013571 0.0281329 -6.55278e-20)
(-0.00657622 0.0243073 -1.17158e-19)
(0.00100799 0.0206588 4.50052e-19)
(0.00912807 0.0173362 1.10205e-19)
(0.0177123 0.0145307 -2.36493e-19)
(0.0266468 0.0124855 -2.85226e-20)
(0.0357523 0.0115085 3.27548e-19)
(0.0448624 0.0120478 -1.53237e-19)
(0.0539002 0.014785 6.60446e-20)
(0.0616482 0.0199256 4.68519e-20)
(-0.00676556 0.00993131 -1.433e-19)
(-0.0175691 0.0249624 1.47766e-19)
(-0.0262791 0.0358852 -8.39026e-20)
(-0.0329212 0.0435206 -2.71132e-19)
(-0.0376307 0.048514 -2.51108e-19)
(-0.0405787 0.0513909 -1.11901e-19)
(-0.0419267 0.0525879 -9.30756e-20)
(-0.0418237 0.0524624 -2.76813e-19)
(-0.0404045 0.0513034 -1.12324e-19)
(-0.0377889 0.0493442 1.02804e-19)
(-0.0340816 0.0467719 -1.47469e-19)
(-0.0293742 0.0437372 -1.56393e-19)
(-0.0237467 0.0403624 -1.47313e-19)
(-0.0172699 0.0367492 2.68591e-19)
(-0.0100071 0.0329856 -5.65868e-19)
(-0.00201678 0.029154 3.24299e-19)
(0.00664507 0.0253391 -5.56327e-19)
(0.0159216 0.021639 -8.60299e-20)
(0.0257508 0.018179 -3.07404e-19)
(0.0360556 0.0151296 -7.20497e-20)
(0.0467194 0.0127229 -8.80241e-20)
(0.0575566 0.011278 -2.94889e-19)
(0.0683948 0.0113088 -3.2478e-20)
(0.0791624 0.0136745 1.81429e-19)
(0.0884388 0.0187504 -4.9602e-19)
(-0.00729685 0.0100531 1.22986e-19)
(-0.0187567 0.0251844 1.66959e-19)
(-0.0277231 0.0361334 5.88766e-19)
(-0.034285 0.0437521 -1.04092e-19)
(-0.038623 0.0487123 2.49165e-19)
(-0.0409444 0.0515593 5.96969e-19)
(-0.0414415 0.0527441 -1.63558e-19)
(-0.0402891 0.0526337 2.22492e-19)
(-0.0376437 0.0515239 1.30421e-19)
(-0.0336434 0.049652 2.37383e-19)
(-0.0284095 0.0472073 -4.77954e-20)
(-0.0220487 0.0443408 3.2351e-20)
(-0.0146566 0.0411728 -8.42728e-20)
(-0.00631978 0.0378005 4.5681e-19)
(0.00288099 0.034304 5.8594e-20)
(0.0128685 0.0307531 4.26591e-19)
(0.0235665 0.0272142 -1.09475e-19)
(0.0348974 0.0237602 3.92531e-19)
(0.0467793 0.0204837 5.52922e-20)
(0.0591191 0.0175167 2.00646e-19)
(0.071788 0.0150525 -8.68592e-20)
(0.08459 0.0133813 -1.56381e-20)
(0.0973527 0.0130406 4.80446e-19)
(0.110046 0.0150562 2.96342e-19)
(0.121059 0.0200003 -1.29629e-19)
(-0.00781215 0.0101126 -2.98112e-19)
(-0.0198659 0.0252325 -3.13605e-19)
(-0.0289937 0.0361161 -3.30091e-19)
(-0.0353507 0.0436458 1.21763e-19)
(-0.0391644 0.0485197 -2.4603e-19)
(-0.0406788 0.0513036 -3.68625e-20)
(-0.0401173 0.0524627 -9.77177e-20)
(-0.0376803 0.0523743 -4.07339e-19)
(-0.0335452 0.0513416 -6.39176e-20)
(-0.0278678 0.0496075 1.05445e-19)
(-0.0207852 0.0473655 -3.32221e-19)
(-0.0124197 0.0447696 4.62224e-19)
(-0.00288237 0.0419421 -6.29963e-19)
(0.00772229 0.0389805 1.52217e-19)
(0.0192931 0.0359625 -3.88265e-19)
(0.0317289 0.0329516 -3.16079e-19)
(0.0449253 0.0300019 -1.80723e-20)
(0.0587727 0.0271648 -4.80859e-20)
(0.0731543 0.0244995 3.79562e-20)
(0.0879428 0.0220897 -1.82439e-19)
(0.102979 0.0200642 -1.2658e-19)
(0.118042 0.0186363 1.55985e-19)
(0.132953 0.0182941 -4.32399e-19)
(0.147773 0.0201719 1.40864e-19)
(0.160776 0.0250234 1.0523e-19)
(-0.00830409 0.010108 -5.29008e-20)
(-0.0208713 0.0250994 -9.11268e-20)
(-0.0300448 0.0358208 3.56444e-19)
(-0.0360488 0.0431843 1.33441e-19)
(-0.0391593 0.0479148 1.7769e-19)
(-0.0396576 0.0505986 -2.38684e-19)
(-0.0377982 0.0517152 3.87768e-22)
(-0.0338062 0.0516525 -1.95141e-19)
(-0.0278791 0.0507216 3.62346e-19)
(-0.0201894 0.0491721 1.18814e-19)
(-0.0108892 0.0472037 1.3388e-19)
(-0.000115018 0.0449766 -5.34207e-19)
(0.0120062 0.0426192 6.61353e-19)
(0.0253518 0.0402348 -1.99297e-19)
(0.0397987 0.0379066 -1.43139e-19)
(0.055218 0.0357013 4.29939e-19)
(0.0714709 0.0336725 1.92492e-19)
(0.0884055 0.0318634 -4.88449e-19)
(0.105854 0.0303119 -2.04579e-19)
(0.123633 0.0290602 6.18726e-19)
(0.141525 0.0281643 -4.73997e-19)
(0.159248 0.0277193 2.85688e-19)
(0.176591 0.0280654 1.60162e-19)
(0.193752 0.0303189 -2.06395e-19)
(0.209053 0.0353308 -2.0811e-19)
(-0.00876514 0.0100381 -1.94654e-19)
(-0.0217456 0.0247803 3.13922e-19)
(-0.030826 0.0352391 1.34622e-19)
(-0.0363028 0.0423564 -1.95697e-19)
(-0.0385023 0.0468839 -3.15128e-20)
(-0.0377439 0.0494288 -2.07642e-19)
(-0.034313 0.0504847 -8.31812e-20)
(-0.0284588 0.0504495 9.38068e-20)
(-0.0203979 0.0496428 -2.35139e-20)
(-0.0103185 0.0483214 1.78705e-19)
(0.00161387 0.0466925 -1.55866e-19)
(0.0152489 0.0449245 4.32919e-19)
(0.0304448 0.0431553 -5.38719e-19)
(0.0470616 0.0414995 3.37073e-19)
(0.064954 0.0400531 4.20355e-19)
(0.0839648 0.0388974 -6.09546e-19)
(0.103918 0.038101 -1.8614e-19)
(0.124614 0.0377206 3.14534e-19)
(0.145821 0.0378007 -1.94703e-19)
(0.167275 0.0383741 1.88613e-19)
(0.188664 0.0394533 -4.58208e-19)
(0.20959 0.041014 7.64436e-20)
(0.229735 0.0431663 3.00236e-19)
(0.249437 0.0468481 -4.84217e-19)
(0.267385 0.0528336 1.36102e-19)
(-0.00918734 0.00990292 -1.80078e-19)
(-0.022459 0.0242728 5.85771e-19)
(-0.0312814 0.0343672 1.13214e-19)
(-0.0360276 0.0411578 -3.07945e-19)
(-0.0370763 0.0454236 2.21909e-19)
(-0.0347862 0.0477923 1.13297e-19)
(-0.0294733 0.0487711 1.81934e-19)
(-0.0214112 0.0487674 -1.1933e-20)
(-0.0108346 0.0481084 -1.90674e-20)
(0.00205341 0.0470581 -4.01853e-20)
(0.0170738 0.0458311 -1.76439e-19)
(0.0340632 0.0446045 -6.07352e-21)
(0.0528659 0.0435273 4.15413e-19)
(0.0733253 0.0427276 -6.8392e-19)
(0.0952763 0.0423194 4.8816e-19)
(0.118536 0.0424071 9.91021e-20)
(0.142897 0.0430898 1.75807e-19)
(0.168114 0.0444629 -9.10312e-20)
(0.193892 0.0466198 8.09191e-19)
(0.219873 0.0496498 -5.02652e-19)
(0.245607 0.0536171 4.03163e-19)
(0.270486 0.0584983 9.5276e-20)
(0.293898 0.0642936 -2.97031e-19)
(0.316126 0.0718318 2.52246e-19)
(0.336603 0.0814077 4.05908e-19)
(-0.00956199 0.00970271 -5.23765e-20)
(-0.0229779 0.0235771 -2.06573e-19)
(-0.0313481 0.0332065 -3.5547e-19)
(-0.0351273 0.039593 -2.03886e-19)
(-0.0347499 0.043543 -2.86833e-20)
(-0.0306152 0.0457042 -8.1439e-20)
(-0.023071 0.0465963 -3.79342e-19)
(-0.0124148 0.0466351 6.31403e-20)
(0.00109936 0.0461542 -4.30329e-19)
(0.0172528 0.0454231 -3.35456e-20)
(0.0358521 0.0446623 -4.16211e-19)
(0.0567195 0.0440558 -1.48849e-19)
(0.0796841 0.0437611 8.57608e-20)
(0.104573 0.043918 -4.09551e-19)
(0.131204 0.0446564 3.70718e-21)
(0.159377 0.0461036 -3.55222e-19)
(0.188868 0.0483923 1.37624e-19)
(0.219415 0.05167 -4.99162e-19)
(0.250706 0.0561101 -8.58838e-20)
(0.282359 0.0619269 -1.19673e-20)
(0.313862 0.0693731 -8.51814e-20)
(0.344465 0.0787109 -8.75482e-20)
(0.373185 0.0903959 -4.39215e-20)
(0.399453 0.105813 -1.76523e-19)
(0.421823 0.123916 -3.9117e-19)
(-0.00987914 0.00943811 9.55558e-20)
(-0.0232645 0.0226949 2.61879e-19)
(-0.0309547 0.0317634 3.16918e-19)
(-0.0334937 0.0376756 -2.54908e-19)
(-0.0313757 0.041265 4.75738e-19)
(-0.0250427 0.0431988 -2.59735e-19)
(-0.014876 0.0440078 1.4177e-19)
(-0.00119925 0.0441142 2.22104e-19)
(0.0157125 0.0438559 2.03023e-19)
(0.0356214 0.0435052 9.91587e-20)
(0.0583152 0.0432851 1.60886e-19)
(0.0835965 0.0433818 9.39059e-20)
(0.111274 0.0439551 6.37173e-19)
(0.141153 0.0451477 -4.64665e-19)
(0.173031 0.0470933 5.32416e-19)
(0.206696 0.0499255 -2.21971e-19)
(0.241918 0.0537885 4.808e-19)
(0.278456 0.0588501 -2.2746e-20)
(0.316062 0.0653237 -1.0013e-19)
(0.354484 0.0734982 -1.84797e-20)
(0.393481 0.0837786 3.82856e-19)
(0.432866 0.0967903 -3.76408e-19)
(0.47282 0.113815 2.64357e-19)
(0.514013 0.136728 2.95019e-19)
(0.552947 0.159626 6.2793e-20)
(-0.0101268 0.00910951 6.61258e-20)
(-0.0232748 0.0216298 -3.74735e-19)
(-0.0300198 0.0300491 -1.3698e-19)
(-0.031005 0.0354286 1.25859e-19)
(-0.0267892 0.0386275 -3.90107e-19)
(-0.0178609 0.0403314 -7.73933e-20)
(-0.00463811 0.0410804 5.3935e-20)
(0.0125258 0.0413009 2.14086e-19)
(0.0333292 0.0413318 -5.44465e-19)
(0.0575079 0.0414448 4.15848e-20)
(0.0848219 0.0418604 -1.60499e-19)
(0.115043 0.0427599 -4.89686e-19)
(0.147945 0.0442963 3.34825e-19)
(0.183298 0.0466018 1.44142e-20)
(0.220864 0.0497958 -1.01498e-20)
(0.260397 0.0539912 3.41084e-19)
(0.301645 0.0593025 -6.04881e-19)
(0.344363 0.0658534 4.80486e-19)
(0.388325 0.0737878 -8.90019e-20)
(0.433349 0.0832796 2.82347e-19)
(0.479331 0.0945389 -4.6578e-19)
(0.5263 0.107842 2.68413e-19)
(0.574695 0.12374 -4.83228e-19)
(0.625388 0.142793 5.0161e-19)
(0.673438 0.158956 -1.59088e-19)
(-0.0102902 0.00871686 4.44942e-19)
(-0.0229572 0.0203864 -7.5308e-20)
(-0.0284506 0.0280799 5.58255e-19)
(-0.0275243 0.0328843 2.6e-19)
(-0.0208088 0.035683 2.09507e-20)
(-0.00884386 0.0371781 1.14781e-19)
(0.00791046 0.0379163 2.78386e-20)
(0.029064 0.0383254 4.72215e-19)
(0.0542793 0.038742 1.5276e-19)
(0.0832543 0.0394323 -2.05894e-20)
(0.115706 0.0406076 4.13736e-20)
(0.151356 0.0424371 1.59874e-19)
(0.189924 0.0450559 1.33928e-19)
(0.231119 0.0485732 2.87606e-19)
(0.274639 0.0530772 -3.28689e-19)
(0.320173 0.0586397 9.96014e-20)
(0.367409 0.0653205 3.03104e-20)
(0.416044 0.0731696 1.48341e-19)
(0.465802 0.0822288 4.03456e-19)
(0.516455 0.0925289 -2.63667e-19)
(0.567848 0.104077 2.28118e-20)
(0.619915 0.116848 -3.7637e-19)
(0.672809 0.130894 3.57718e-19)
(0.726941 0.146454 -3.48434e-19)
(0.77742 0.159672 3.33133e-20)
(-0.0103512 0.00825968 -3.71181e-19)
(-0.0222522 0.0189705 2.9443e-19)
(-0.0261426 0.0258766 -4.82473e-19)
(-0.0229009 0.0300844 4.18928e-20)
(-0.0132377 0.0324983 3.4357e-19)
(0.00224855 0.0338342 -5.75426e-19)
(0.0230475 0.0346427 4.58707e-19)
(0.0487214 0.035349 -7.31159e-19)
(0.0788831 0.0362824 1.46349e-19)
(0.113174 0.0376979 3.14156e-20)
(0.151247 0.0397908 2.4875e-19)
(0.192749 0.0427083 -8.29568e-19)
(0.237317 0.0465577 1.43751e-19)
(0.284568 0.0514124 1.52789e-19)
(0.334103 0.0573161 -9.19119e-20)
(0.385514 0.0642866 -5.71962e-19)
(0.438387 0.0723173 2.70027e-19)
(0.492323 0.0813781 5.07088e-19)
(0.546947 0.0914134 -5.36821e-19)
(0.60193 0.102337 3.90638e-19)
(0.656995 0.114021 -5.08564e-19)
(0.711925 0.126278 3.70723e-19)
(0.766595 0.138942 -1.03834e-19)
(0.821057 0.152216 5.9523e-19)
(0.871209 0.164114 -6.9253e-19)
(-0.010288 0.00773718 5.31545e-20)
(-0.0210917 0.0173895 4.34974e-20)
(-0.0229796 0.0234647 1.07259e-19)
(-0.0169715 0.0270794 3.84994e-19)
(-0.00386801 0.0291534 -1.21071e-20)
(0.0156637 0.0304133 8.70047e-20)
(0.0410506 0.0314087 3.89089e-19)
(0.0717913 0.0325573 1.57726e-19)
(0.107429 0.0341755 -5.21861e-20)
(0.147525 0.0364993 4.46134e-19)
(0.191638 0.0396987 -5.09991e-19)
(0.239312 0.0438891 7.85398e-19)
(0.290066 0.0491379 -3.12752e-19)
(0.343393 0.0554712 5.69518e-19)
(0.398768 0.0628774 -1.92921e-19)
(0.455652 0.0713109 7.05828e-20)
(0.51351 0.0806948 8.57742e-20)
(0.571824 0.0909222 -1.66464e-19)
(0.630107 0.101856 1.39656e-19)
(0.687921 0.113326 9.01431e-20)
(0.74488 0.125125 1.24932e-19)
(0.800651 0.136997 2.66469e-19)
(0.854954 0.148693 -2.21684e-20)
(0.907667 0.160388 -1.22566e-19)
(0.955776 0.171523 3.78003e-19)
(-0.0100747 0.00714856 -3.10765e-19)
(-0.0193986 0.0156527 3.40767e-20)
(-0.0188354 0.0208754 -6.16961e-19)
(-0.00956309 0.0239288 -1.48277e-19)
(0.00751428 0.0257411 -2.79137e-19)
(0.0316473 0.0270441 -6.02065e-20)
(0.062183 0.028381 -3.02034e-19)
(0.0985347 0.0301548 -1.81306e-19)
(0.140149 0.0326606 2.41139e-19)
(0.186476 0.0361058 -4.04156e-19)
(0.236947 0.0406243 -1.12701e-19)
(0.290966 0.0462867 4.47728e-21)
(0.347902 0.0531085 -7.67357e-19)
(0.407095 0.0610563 3.27349e-19)
(0.467866 0.0700534 -4.79535e-19)
(0.529534 0.0799854 -1.5037e-20)
(0.591433 0.0907048 9.53841e-20)
(0.65293 0.102036 -1.5497e-19)
(0.713445 0.113777 -1.36351e-19)
(0.772461 0.125704 6.86282e-20)
(0.829533 0.137573 7.71905e-20)
(0.884286 0.149114 -5.00945e-19)
(0.9364 0.160065 2.8648e-19)
(0.98571 0.170562 1.46067e-19)
(1.03027 0.181048 4.18127e-20)
(-0.00968124 0.00649365 3.18032e-19)
(-0.0170882 0.0137729 -3.52119e-19)
(-0.0135752 0.0181459 4.97132e-19)
(-0.000497573 0.0207015 7.77367e-20)
(0.0211217 0.0223662 -2.39976e-20)
(0.0504325 0.0238696 -1.70003e-19)
(0.0866786 0.0257402 2.57046e-20)
(0.12916 0.0283571 2.60929e-19)
(0.177191 0.0319831 -3.61541e-19)
(0.230076 0.0367844 3.81249e-19)
(0.28708 0.0428446 -4.04222e-20)
(0.347432 0.0501756 1.78695e-20)
(0.410319 0.0587269 5.01423e-19)
(0.474906 0.0683939 6.74506e-19)
(0.54035 0.079027 -2.64719e-19)
(0.605829 0.0904399 4.72276e-19)
(0.670562 0.102418 2.41139e-19)
(0.733832 0.114727 -1.47594e-19)
(0.795007 0.127121 4.70655e-19)
(0.853552 0.139347 -1.73663e-20)
(0.909032 0.151153 -4.56204e-19)
(0.961109 0.162289 4.83923e-19)
(1.00952 0.172518 7.09062e-20)
(1.05417 0.181948 -3.03211e-19)
(1.094 0.191658 9.60407e-20)
(-0.00907414 0.00577362 -4.4269e-19)
(-0.0140694 0.0117676 4.80065e-19)
(-0.00705943 0.0153215 -3.06755e-19)
(0.0104033 0.017477 -9.63986e-20)
(0.0371571 0.0191456 -2.16805e-19)
(0.0722276 0.0210447 3.8544e-19)
(0.114725 0.023677 -2.2486e-19)
(0.1638 0.027385 -1.03496e-19)
(0.218597 0.0323848 -2.97588e-19)
(0.278229 0.0387855 7.73489e-21)
(0.341761 0.0466037 -1.17352e-19)
(0.408209 0.0557765 5.73609e-20)
(0.476561 0.0661732 -6.05879e-19)
(0.545796 0.0776082 1.73195e-19)
(0.614919 0.0898536 -2.09962e-19)
(0.682987 0.102652 -1.69983e-19)
(0.749144 0.115731 5.25616e-20)
(0.812644 0.128812 -2.50198e-19)
(0.872868 0.141625 -1.08498e-19)
(0.929332 0.153911 3.11932e-19)
(0.981687 0.165437 1.3344e-19)
(1.02971 0.175994 -5.6786e-19)
(1.07328 0.185397 4.19912e-19)
(1.11243 0.193749 -7.98365e-20)
(1.14679 0.202458 -1.67484e-19)
(-0.00821679 0.00499184 -1.61506e-19)
(-0.0102465 0.00966043 -8.96465e-20)
(0.000853212 0.012457 -1.8067e-20)
(0.0233115 0.0143464 1.32743e-19)
(0.0558046 0.0162086 1.4525e-19)
(0.0972035 0.0187352 1.27163e-19)
(0.146448 0.0223886 1.58898e-19)
(0.202497 0.0274579 2.43661e-19)
(0.264279 0.0340945 3.73963e-19)
(0.330676 0.0423309 3.71444e-19)
(0.400512 0.0520979 1.96862e-19)
(0.472575 0.0632411 -5.30529e-20)
(0.545642 0.0755372 1.3315e-20)
(0.618521 0.0887123 -1.83286e-20)
(0.69009 0.10246 1.58052e-19)
(0.759339 0.116461 -4.26629e-20)
(0.825398 0.130396 4.7313e-19)
(0.887562 0.143964 -2.12229e-19)