/*--------------------------------*- C++ -*----------------------------------*\
  =========                 |
  \\      /  F ield         | OpenFOAM: The Open Source CFD Toolbox
   \\    /   O peration     | Website:  https://openfoam.org
    \\  /    A nd           | Version:  6.0
     \\/     M anipulation  |
\*---------------------------------------------------------------------------*/
FoamFile
{
    version     2.0;
    format      ascii;
    class       volVectorField;
    location    "42";
    object      U;
}
// * * * * * * * * * * * * * * * * * * * * * * * * * * * * * * * * * * * * * //

dimensions      [0 1 -1 0 0 0 0];

internalField   nonuniform List<vector> 
12500
(
(-0.000272761 0.00142735 -5.31988e-22)
(-0.00154274 0.00362054 7.35703e-21)
(-0.00397208 0.00528531 -1.0656e-20)
(-0.0070728 0.00652817 4.88605e-21)
(-0.0105773 0.00743597 2.92004e-22)
(-0.0143179 0.00808124 -5.99781e-22)
(-0.0181601 0.00852476 -8.85754e-21)
(-0.0220041 0.00881688 4.85655e-21)
(-0.0257797 0.00899893 3.20792e-21)
(-0.0294412 0.00910447 3.25277e-21)
(-0.0329614 0.00916043 -5.49863e-21)
(-0.0363283 0.00918814 3.194e-21)
(-0.0395416 0.00920423 -1.50211e-21)
(-0.0426101 0.00922136 2.54386e-21)
(-0.0455495 0.00924894 -6.47903e-21)
(-0.0483806 0.00929361 9.34684e-21)
(-0.0511277 0.00935975 -1.77824e-21)
(-0.0538168 0.0094498 -6.59437e-21)
(-0.0564749 0.00956462 3.37465e-21)
(-0.0591288 0.00970369 -3.21618e-21)
(-0.0618085 0.00986526 2.87326e-21)
(-0.0645435 0.0100466 3.7898e-21)
(-0.0673207 0.0102449 3.85315e-22)
(-0.0700694 0.0104572 -1.0824e-20)
(-0.0730818 0.0106747 5.70789e-21)
(-0.000343925 0.00204113 9.74678e-21)
(-0.00171719 0.00521686 -2.51364e-20)
(-0.00421218 0.00763644 7.39935e-21)
(-0.00735062 0.00944472 4.93944e-21)
(-0.0108711 0.0107599 -3.93194e-21)
(-0.0146101 0.011682 -2.23153e-20)
(-0.0184369 0.0122968 6.62479e-21)
(-0.0222542 0.0126772 -1.24968e-20)
(-0.0259941 0.0128843 1.4929e-20)
(-0.0296123 0.0129693 -1.9901e-20)
(-0.0330828 0.0129747 1.06078e-20)
(-0.0363945 0.0129352 3.42705e-21)
(-0.0395477 0.0128793 -8.61268e-21)
(-0.0425519 0.0128297 -3.79809e-21)
(-0.0454233 0.0128044 2.77755e-20)
(-0.048183 0.0128172 -2.45409e-20)
(-0.0508559 0.0128784 5.86366e-21)
(-0.0534686 0.0129946 1.01255e-20)
(-0.0560485 0.0131701 -2.3035e-21)
(-0.0586233 0.0134062 1.62635e-20)
(-0.0612235 0.0137018 2.95957e-21)
(-0.0638797 0.0140538 -1.0634e-21)
(-0.0665794 0.0144589 -2.04582e-20)
(-0.069252 0.0149152 1.87994e-20)
(-0.0721893 0.0154037 -3.5843e-20)
(-0.000453433 0.00264424 3.12778e-20)
(-0.00199173 0.00678648 1.03805e-20)
(-0.00459982 0.00994892 -1.36021e-20)
(-0.00781044 0.0123135 5.83832e-21)
(-0.0113695 0.014029 5.45054e-21)
(-0.0151191 0.0152221 2.06712e-20)
(-0.0189332 0.0160032 -2.62267e-20)
(-0.0227179 0.0164671 -4.26523e-21)
(-0.0264085 0.0166947 -1.75168e-20)
(-0.0299627 0.0167544 -1.46035e-20)
(-0.0333565 0.0167039 1.88218e-20)
(-0.03658 0.0165915 -6.29341e-20)
(-0.0396348 0.0164573 -1.96932e-21)
(-0.0425311 0.0163343 -3.76704e-20)
(-0.0452862 0.0162493 -4.42995e-21)
(-0.047922 0.0162233 5.33061e-21)
(-0.0504643 0.0162726 -2.91294e-20)
(-0.0529409 0.0164089 -1.82009e-20)
(-0.0553803 0.0166395 -2.15164e-20)
(-0.0578114 0.0169683 3.36648e-20)
(-0.0602664 0.017395 1.22883e-20)
(-0.0627772 0.0179162 -5.4603e-20)
(-0.0653332 0.0185286 -2.62665e-20)
(-0.067863 0.0192315 -2.93434e-20)
(-0.0706595 0.0199956 7.90338e-20)
(-0.000600533 0.0032349 -9.66176e-22)
(-0.00236452 0.00832404 -2.40169e-20)
(-0.0051325 0.0122138 -1.15308e-20)
(-0.00844934 0.0151221 7.14997e-21)
(-0.0120695 0.0172272 4.43909e-20)
(-0.0158417 0.0186822 -1.99902e-20)
(-0.0196455 0.0196211 4.25886e-20)
(-0.023392 0.0201605 4.05177e-20)
(-0.0270198 0.0204003 2.46292e-20)
(-0.0304899 0.020426 -3.66643e-22)
(-0.0337805 0.0203104 4.95286e-20)
(-0.0368835 0.0201149 8.56611e-21)
(-0.039802 0.0198915 3.77002e-20)
(-0.0425477 0.0196835 8.65687e-20)
(-0.0451388 0.0195265 -1.00308e-19)
(-0.0475987 0.0194494 1.50649e-19)
(-0.0499544 0.0194748 3.27354e-20)
(-0.0522353 0.0196196 -7.21571e-20)
(-0.0544717 0.0198953 -1.02215e-20)
(-0.0566946 0.0203083 2.61605e-20)
(-0.0589381 0.0208599 -1.31154e-20)
(-0.0612369 0.0215468 -7.85449e-21)
(-0.0635822 0.0223658 -7.64499e-21)
(-0.0659024 0.0233178 -3.07305e-20)
(-0.0684924 0.0243632 1.07568e-19)
(-0.000784442 0.00381154 1.63113e-20)
(-0.00283359 0.00982461 -7.57056e-20)
(-0.00580734 0.0144228 9.17591e-20)
(-0.00926371 0.0178587 -3.6486e-20)
(-0.0129668 0.0203397 4.3658e-20)
(-0.0167733 0.022044 3.55985e-20)
(-0.0205693 0.0231293 1.35019e-20)
(-0.0242717 0.0237329 6.77206e-22)
(-0.0278238 0.0239735 7.58369e-20)
(-0.03119 0.023953 5.24455e-20)
(-0.0343515 0.023759 -2.0987e-20)
(-0.0373025 0.0234661 -1.35034e-20)
(-0.0400479 0.023138 5.69371e-20)
(-0.0426009 0.0228282 1.07095e-20)
(-0.0449812 0.0225818 2.90496e-20)
(-0.0472139 0.0224357 6.94711e-20)
(-0.0493276 0.0224195 -5.99283e-20)
(-0.0513538 0.0225561 4.83253e-20)
(-0.053325 0.0228615 -1.04134e-19)
(-0.0552749 0.0233458 8.74369e-20)
(-0.0572406 0.0240123 5.71593e-22)
(-0.05926 0.0248583 -6.96314e-20)
(-0.0613277 0.0258816 2.79764e-20)
(-0.063371 0.0270851 6.35376e-20)
(-0.065689 0.028419 -9.34852e-20)
(-0.00100436 0.00437284 8.44049e-20)
(-0.00339675 0.0112838 -8.95942e-20)
(-0.00662099 0.0165681 -1.43887e-20)
(-0.0102492 0.0205123 1.81664e-20)
(-0.0140562 0.0233522 -3.91839e-20)
(-0.0179077 0.0252907 -6.10433e-20)
(-0.021698 0.026508 -5.07323e-20)
(-0.0253504 0.0271618 -1.22204e-20)
(-0.0288137 0.0273888 -8.7183e-20)
(-0.0320567 0.0273069 6.94405e-20)
(-0.0350639 0.0270179 -1.07727e-19)
(-0.0378322 0.0266095 5.44402e-20)
(-0.0403685 0.0261567 -1.80257e-20)
(-0.0426879 0.0257238 4.17866e-20)
(-0.0448119 0.0253653 -1.05015e-19)
(-0.0467671 0.0251266 5.08968e-20)
(-0.0485843 0.0250453 3.80888e-21)
(-0.0502973 0.0251508 2.25389e-20)
(-0.0519415 0.0254649 1.36098e-19)
(-0.0535536 0.0260022 3.01694e-20)
(-0.0551746 0.026769 -2.71587e-21)
(-0.0568472 0.0277644 8.60189e-21)
(-0.0585694 0.0289874 5.66203e-20)
(-0.0602685 0.0304442 1.61474e-20)
(-0.0622497 0.0320745 5.29302e-20)
(-0.0012595 0.00491767 -5.25881e-20)
(-0.00405159 0.0126974 7.46482e-20)
(-0.00756945 0.0186425 4.68217e-21)
(-0.0114001 0.0230729 -9.10574e-20)
(-0.0153306 0.026252 1.91429e-19)
(-0.0192369 0.0284068 -6.18476e-20)
(-0.0230224 0.0297396 9.02673e-20)
(-0.0266181 0.0304273 8.25396e-20)
(-0.0299792 0.030624 -6.82628e-20)
(-0.0330797 0.0304631 -9.93237e-20)
(-0.0359078 0.0300599 2.71808e-20)
(-0.0384634 0.0295146 -2.86521e-20)
(-0.0407559 0.0289137 -1.26666e-19)
(-0.0428022 0.0283318 1.53855e-19)
(-0.0446255 0.0278333 -7.37596e-20)
(-0.0462543 0.027473 -5.08345e-20)
(-0.0477215 0.0272968 4.90665e-22)
(-0.0490635 0.0273419 4.15323e-20)
(-0.050319 0.0276371 1.71072e-20)
(-0.0515286 0.0282028 -6.69762e-20)
(-0.052738 0.0290499 7.65061e-20)
(-0.0539954 0.0301801 -1.32808e-19)
(-0.055304 0.0315952 8.11041e-20)
(-0.0565912 0.0333059 -6.20771e-20)
(-0.0581712 0.035241 1.62297e-20)
(-0.00154904 0.00544506 7.6602e-20)
(-0.0047954 0.0140619 -5.88999e-20)
(-0.0086479 0.0206394 -3.74511e-20)
(-0.0127097 0.025531 -6.61096e-20)
(-0.016781 0.0290271 -1.20817e-19)
(-0.0207496 0.0313784 -8.92339e-20)
(-0.0245295 0.0328082 5.56234e-20)
(-0.0280606 0.0335122 -8.42139e-20)
(-0.0313054 0.0336607 1.06849e-19)
(-0.0342434 0.0334015 -1.73862e-19)
(-0.0368676 0.0328632 7.72133e-20)
(-0.0391811 0.0321575 1.63032e-19)
(-0.0411956 0.0313819 -2.29025e-19)
(-0.0429302 0.0306215 3.26975e-20)
(-0.0444097 0.0299508 4.25423e-20)
(-0.0456644 0.0294342 4.11129e-20)
(-0.0467292 0.029127 -4.41382e-20)
(-0.0476434 0.0290754 -1.08209e-20)
(-0.0484492 0.0293169 -3.24249e-20)
(-0.0491916 0.0298792 -2.70162e-20)
(-0.0499218 0.0307796 -1.48362e-19)
(-0.050695 0.0320243 -1.00316e-20)
(-0.0515208 0.0336196 1.63332e-21)
(-0.052328 0.0355826 -6.70474e-20)
(-0.053443 0.0378315 6.89945e-20)
(-0.00187214 0.00595409 2.22445e-21)
(-0.00562502 0.0153734 2.4086e-20)
(-0.00985042 0.0225522 2.5089e-20)
(-0.0141687 0.0278773 1.45351e-20)
(-0.0183953 0.0316663 1.23014e-19)
(-0.022431 0.0341928 1.15522e-19)
(-0.0262019 0.0357003 -9.38658e-20)
(-0.0296579 0.0364023 -2.85845e-20)
(-0.0327701 0.0364842 -2.53624e-20)
(-0.0355246 0.0361074 1.30821e-19)
(-0.0379191 0.0354123 4.69688e-20)
(-0.0399605 0.0345217 -6.83326e-20)
(-0.0416633 0.0335433 -5.78449e-20)
(-0.0430482 0.0325726 1.39336e-19)
(-0.0441417 0.0316937 -3.43503e-20)
(-0.0449756 0.0309813 -4.16464e-20)
(-0.0455868 0.030501 -5.81018e-20)
(-0.0460172 0.0303095 -4.52291e-20)
(-0.0463125 0.0304542 -5.77407e-20)
(-0.0465228 0.0309729 -3.77522e-20)
(-0.0467057 0.0318914 1.56836e-19)
(-0.0469246 0.033223 -7.72372e-20)
(-0.0471972 0.0349809 5.20014e-20)
(-0.0474552 0.0371912 -1.38348e-19)
(-0.0480421 0.039762 5.57114e-20)
(-0.00222788 0.00644372 -6.88328e-20)
(-0.00653671 0.0166281 -1.79381e-20)
(-0.0111696 0.0243743 -1.40004e-19)
(-0.015766 0.030103 -6.70812e-20)
(-0.0201578 0.0341591 -1.32352e-19)
(-0.0242612 0.0368385 -1.37944e-20)
(-0.0280156 0.0384042 7.08976e-20)
(-0.0313827 0.0390862 -4.31984e-20)
(-0.0343429 0.0390842 9.30359e-20)
(-0.0368897 0.0385714 -2.26031e-19)
(-0.0390266 0.0376991 -6.55603e-21)
(-0.0407645 0.0365998 4.00454e-20)
(-0.0421206 0.0353909 -5.07919e-20)
(-0.0431175 0.0341769 4.62172e-20)
(-0.043783 0.0330518 -3.53387e-20)
(-0.0441499 0.0321007 -7.57156e-20)
(-0.0442569 0.0314001 1.38094e-19)
(-0.0441478 0.0310183 8.56509e-20)
(-0.0438722 0.0310151 -1.77446e-20)
(-0.0434852 0.0314406 5.65365e-20)
(-0.0430516 0.0323324 -1.11522e-19)
(-0.0426446 0.0337139 1.60742e-19)
(-0.0422917 0.0356089 -2.19516e-19)
(-0.0419299 0.0380565 4.51735e-20)
(-0.0419259 0.0409557 -8.57272e-20)
(-0.00261514 0.00691273 3.73867e-21)
(-0.00752586 0.0178216 -6.13038e-20)
(-0.0125963 0.0260984 9.07163e-20)
(-0.017487 0.0321988 1.85972e-19)
(-0.0220488 0.0364948 -3.07579e-21)
(-0.0262148 0.0393046 2.10529e-20)
(-0.0299397 0.0409097 -7.95303e-20)
(-0.0331984 0.0415554 3.7213e-20)
(-0.0359819 0.041454 2.56564e-19)
(-0.0382924 0.0407897 -5.82014e-20)
(-0.0401396 0.0397229 -6.87372e-20)
(-0.0415391 0.0383944 2.5971e-19)
(-0.0425109 0.0369295 8.48229e-20)
(-0.0430794 0.0354412 4.03704e-20)
(-0.0432734 0.0340325 4.13315e-20)
(-0.0431265 0.0327984 1.12557e-19)
(-0.042678 0.0318268 -4.32524e-20)
(-0.0419738 0.0311989 1.14377e-19)
(-0.0410663 0.0309887 1.54768e-19)
(-0.0400159 0.0312615 -1.31985e-19)
(-0.0388951 0.0320705 1.96141e-19)
(-0.0377882 0.0334538 7.00425e-20)
(-0.0367348 0.0354504 -2.65681e-19)
(-0.0356804 0.0381182 3.8428e-19)
(-0.0350226 0.0413488 -3.11086e-19)
(-0.00303254 0.00735949 -1.75444e-19)
(-0.00858674 0.0189487 9.55623e-20)
(-0.0141189 0.0277163 -6.41238e-20)
(-0.0193137 0.0341544 -6.08756e-20)
(-0.024043 0.0386625 -6.57234e-20)
(-0.0282592 0.0415804 -7.12674e-20)
(-0.0319341 0.0432073 1.95517e-20)
(-0.0350573 0.0438029 1.85772e-19)
(-0.0376322 0.0435908 -3.97715e-20)
(-0.0396704 0.0427641 -1.03596e-19)
(-0.0411891 0.0414906 -6.32684e-20)
(-0.0422089 0.0399179 -2.58702e-20)
(-0.0427532 0.0381776 7.6584e-20)
(-0.0428483 0.0363891 -4.88792e-20)
(-0.0425236 0.0346632 -1.59527e-19)
(-0.0418129 0.0331039 -1.76044e-19)
(-0.0407558 0.0318104 7.0194e-20)
(-0.0393988 0.0308774 -1.30648e-19)
(-0.0377969 0.0303949 1.13519e-19)
(-0.036015 0.0304465 -3.2049e-19)
(-0.0341339 0.031105 2.46292e-19)
(-0.0322501 0.0324288 -3.25759e-19)
(-0.0304177 0.0344791 -6.1286e-21)
(-0.0285941 0.0373398 -1.0975e-19)
(-0.0272186 0.0408994 3.22016e-19)
(-0.0034783 0.00778187 2.69233e-19)
(-0.00971223 0.0200031 3.94617e-20)
(-0.0157234 0.0292188 -2.59328e-20)
(-0.0212239 0.0359585 -1.0924e-20)
(-0.0261095 0.0406499 2.03377e-19)
(-0.030354 0.0436543 6.61412e-20)
(-0.0339485 0.0452878 5.99734e-20)
(-0.0368992 0.0458231 -4.81983e-20)
(-0.039223 0.0454938 1.85847e-19)
(-0.0409427 0.0445003 -9.13436e-20)
(-0.0420837 0.0430161 5.89357e-20)
(-0.0426726 0.0411931 1.49945e-19)
(-0.0427369 0.039167 -8.50062e-20)
(-0.0423049 0.0370619 9.20797e-20)
(-0.0414067 0.034994 8.69571e-20)
(-0.040076 0.0330748 2.97508e-20)
(-0.0383516 0.0314134 -7.33255e-20)
(-0.03628 0.0301178 2.02785e-19)
(-0.0339175 0.0292951 -1.88728e-20)
(-0.0313326 0.0290499 -2.17741e-20)
(-0.0286141 0.0294795 2.42939e-19)
(-0.0258719 0.0306687 -1.72877e-19)
(-0.0231766 0.0327094 2.91247e-19)
(-0.0205024 0.0357229 -2.41594e-19)
(-0.018343 0.0396006 3.10549e-19)
(-0.00395008 0.00817711 -1.30107e-19)
(-0.0108935 0.0209773 2.88434e-20)
(-0.0173924 0.0305945 -3.0066e-20)
(-0.0231906 0.0375978 -1.42152e-19)
(-0.0282107 0.0424431 8.25367e-21)
(-0.0324502 0.0455132 8.09244e-20)
(-0.0359216 0.0471406 -3.29041e-19)
(-0.0386495 0.04761 2.4559e-19)
(-0.0406661 0.0471634 -2.39039e-19)
(-0.0420065 0.0460071 -1.50724e-19)
(-0.0427059 0.0443181 1.35183e-19)
(-0.042798 0.0422507 -2.92507e-19)
(-0.0423153 0.0399423 2.46365e-19)
(-0.0412886 0.0375187 -7.83171e-20)
(-0.0397493 0.0350988 -2.23719e-19)
(-0.0377306 0.0327989 5.52612e-20)
(-0.0352703 0.0307357 -5.18667e-20)
(-0.0324138 0.0290289 1.95716e-20)
(-0.0292171 0.0278024 -6.99156e-20)
(-0.0257514 0.0271835 -2.3216e-19)
(-0.0221126 0.027298 5.19845e-20)
(-0.0184242 0.0282644 -6.85552e-23)
(-0.0147753 0.0302162 -2.39548e-19)
(-0.0111613 0.033326 1.68279e-19)
(-0.00814797 0.0374988 -1.45438e-19)
(-0.0044449 0.00854184 5.26811e-20)
(-0.0121197 0.0218621 9.69977e-20)
(-0.0191055 0.0318307 1.35663e-19)
(-0.0251821 0.0390569 6.97811e-20)
(-0.0303022 0.0440258 -6.83963e-20)
(-0.0344896 0.0471416 1.63152e-19)
(-0.03778 0.0487529 1.20704e-19)
(-0.0402183 0.0491555 -4.39164e-20)
(-0.0418538 0.0485988 1.56882e-19)
(-0.0427354 0.0472933 -1.61353e-19)
(-0.0429094 0.0454179 -4.73052e-20)
(-0.0424182 0.0431272 4.80115e-20)
(-0.0413002 0.0405577 9.51565e-20)
(-0.0395905 0.0378338 1.13045e-21)
(-0.0373222 0.0350739 6.02253e-20)
(-0.0345287 0.0323951 1.11145e-19)
(-0.0312469 0.0299181 -1.89242e-19)
(-0.0275202 0.0277709 2.35263e-19)
(-0.0234034 0.0260919 7.94381e-20)
(-0.0189686 0.0250306 2.80702e-20)
(-0.0143172 0.0247439 -2.85553e-19)
(-0.00958588 0.0253908 4.04068e-20)
(-0.00488345 0.0271584 6.2686e-20)
(-0.00023033 0.0302901 -1.50701e-20)
(0.00371417 0.0347191 7.14683e-20)
(-0.00495901 0.00887212 4.14629e-21)
(-0.0133779 0.0226473 -2.49875e-19)
(-0.0208382 0.0329124 -6.1959e-21)
(-0.0271611 0.0403179 -6.29854e-20)
(-0.0323323 0.0453788 -4.13805e-19)
(-0.0364041 0.0485209 3.57225e-19)
(-0.0394377 0.0501086 -2.5414e-19)
(-0.0414999 0.0504482 -1.27644e-20)
(-0.0426584 0.0497958 -1.20017e-19)
(-0.0429778 0.0483651 2.07496e-19)
(-0.0425169 0.0463355 -2.23311e-19)
(-0.0413284 0.0438601 -1.04546e-19)
(-0.0394583 0.041072 2.2215e-21)
(-0.0369476 0.0380917 -2.26174e-19)
(-0.033833 0.0350331 3.08566e-19)
(-0.0301495 0.0320097 -3.57497e-19)
(-0.0259338 0.0291409 6.84712e-22)
(-0.021228 0.0265575 5.47749e-20)
(-0.0160848 0.0244072 -1.37116e-19)
(-0.0105755 0.0228583 1.3304e-19)
(-0.00480493 0.0220982 -1.88721e-19)
(0.00107823 0.0223306 -1.24757e-19)
(0.00694623 0.0238087 2.32541e-19)
(0.0127512 0.0268697 -2.53744e-19)
(0.0177152 0.0314969 -4.90238e-21)
(-0.0054879 0.0091635 -2.11595e-19)
(-0.0146529 0.0233213 2.42682e-19)
(-0.0225629 0.033823 -7.48609e-20)
(-0.0290853 0.0413608 1.44093e-19)
(-0.034242 0.04648 1.55337e-19)
(-0.0381161 0.0496288 -1.36804e-19)
(-0.0407962 0.051187 -9.07113e-20)
(-0.0423723 0.0514716 -1.08554e-19)
(-0.042932 0.0507447 9.9367e-20)
(-0.0425568 0.0492228 -6.61326e-21)
(-0.0413196 0.0470852 1.44808e-19)
(-0.0392849 0.0444821 1.42714e-19)
(-0.0365087 0.0415421 -1.70466e-19)
(-0.0330397 0.038379 3.34741e-19)
(-0.0289211 0.0350988 -2.21966e-19)
(-0.024192 0.0318069 -3.81108e-20)
(-0.0188912 0.0286153 4.32428e-19)
(-0.0130613 0.02565 -2.00211e-19)
(-0.00675368 0.02306 1.27631e-19)
(-3.81216e-05 0.0210241 2.49335e-19)
(0.00697902 0.0197543 -1.61777e-19)
(0.0141399 0.0194981 1.70346e-20)
(0.0213003 0.0205841 -1.11406e-20)
(0.0283868 0.0234694 -6.64209e-20)
(0.0344755 0.0282167 1.24979e-19)
(-0.00602624 0.00941131 4.83735e-20)
(-0.0159274 0.0238719 -1.53871e-19)
(-0.0242478 0.0345446 8.41034e-20)
(-0.0309066 0.0421634 -1.02604e-21)
(-0.0359649 0.0473048 6.32689e-20)
(-0.0395385 0.0504393 -1.08846e-19)
(-0.0417446 0.051963 6.22579e-20)
(-0.0426978 0.0522032 1.69492e-19)
(-0.0425069 0.0514285 -5.14217e-21)
(-0.0412708 0.0498581 -8.6547e-20)
(-0.0390779 0.0476714 8.70107e-20)
(-0.0360062 0.0450157 -2.00619e-21)
(-0.0321237 0.0420143 -2.75473e-19)
(-0.0274898 0.0387733 1.02137e-19)
(-0.022157 0.0353887 2.25683e-20)
(-0.0161726 0.0319538 -3.97278e-20)
(-0.00958204 0.0285673 -7.08556e-20)
(-0.00243192 0.0253421 2.71499e-19)
(0.00522426 0.0224171 6.62451e-20)
(0.0133169 0.0199689 -1.41901e-19)
(0.0217391 0.0182209 -1.70697e-20)
(0.0303265 0.0174543 1.95532e-19)
(0.0389241 0.0180736 -9.12941e-20)
(0.047442 0.0206811 3.92586e-20)
(0.0547842 0.0254539 2.64801e-20)
(-0.006568 0.00961087 -9.68812e-20)
(-0.0171816 0.0242867 9.62599e-20)
(-0.0258578 0.0350587 -5.42531e-20)
(-0.032572 0.0427026 -1.74125e-19)
(-0.0374276 0.0478263 -1.60248e-19)
(-0.0405745 0.0509236 -7.0941e-20)
(-0.04216 0.0524069 -5.87006e-20)
(-0.0423241 0.0526147 -1.73637e-19)
(-0.0411967 0.0518222 -7.01121e-20)
(-0.0388953 0.0502524 6.38869e-20)
(-0.0355244 0.0480854 -9.12244e-20)
(-0.0311766 0.0454669 -9.63169e-20)
(-0.0259338 0.0425159 -9.03566e-20)
(-0.0198688 0.0393315 1.6408e-19)
(-0.0130476 0.0359993 -3.44573e-19)
(-0.0055306 0.0325991 1.9677e-19)
(0.00262442 0.029212 -3.36528e-19)
(0.0113596 0.0259304 -5.18707e-20)
(0.020613 0.0228713 -1.84861e-19)
(0.0303097 0.020192 -4.31955e-20)
(0.04034 0.0181058 -5.26715e-20)
(0.0505342 0.0169045 -1.76015e-19)
(0.0607338 0.0170536 -1.93283e-20)
(0.0708537 0.0193153 1.07817e-19)
(0.0796102 0.0240173 -2.8045e-19)
(-0.00710655 0.00975776 8.31263e-20)
(-0.0183939 0.0245535 1.0871e-19)
(-0.0273539 0.035347 3.8063e-19)
(-0.0340229 0.0429549 -6.68248e-20)
(-0.038549 0.0480171 1.58976e-19)
(-0.0411181 0.0510514 3.78582e-19)
(-0.0419078 0.0524868 -1.03153e-19)
(-0.041084 0.0526734 1.39571e-19)
(-0.038798 0.0518943 8.13992e-20)
(-0.0351853 0.0503771 1.47461e-19)
(-0.030367 0.0483047 -2.95352e-20)
(-0.0244509 0.0458231 1.99426e-20)
(-0.017534 0.0430498 -5.16196e-20)
(-0.00970527 0.0400793 2.79128e-19)
(-0.00104759 0.03699 3.57038e-20)
(0.00835974 0.0338494 2.58816e-19)
(0.0184389 0.0307212 -6.61914e-20)
(0.0291115 0.0276739 2.36688e-19)
(0.0402957 0.024793 3.32273e-20)
(0.0519008 0.0221996 1.20321e-19)
(0.0638052 0.0200695 -5.19472e-20)
(0.0758298 0.0186674 -9.30572e-21)
(0.0878194 0.0184798 2.86153e-19)
(0.099729 0.0204197 1.76124e-19)
(0.110099 0.0249888 -7.34188e-20)
(-0.00763472 0.0098481 -2.01485e-19)
(-0.0195405 0.0246612 -2.04197e-19)
(-0.0286932 0.0353922 -2.13377e-19)
(-0.035195 0.0428981 7.81778e-20)
(-0.0392406 0.0478511 -1.56951e-19)
(-0.0410532 0.0507933 -2.33744e-20)
(-0.0408415 0.0521708 -6.16203e-20)
(-0.0387966 0.0523459 -2.55452e-19)
(-0.0350909 0.0516102 -3.98545e-20)
(-0.0298776 0.0501978 6.54795e-20)
(-0.0232934 0.0482961 -2.0535e-19)
(-0.0154613 0.0460549 2.84565e-19)
(-0.00649407 0.0435934 -3.86264e-19)
(0.00350187 0.0410068 9.29667e-20)
(0.0144233 0.0383712 -2.36341e-19)
(0.0261672 0.0357484 -1.91731e-19)
(0.0386277 0.0331902 -1.09146e-20)
(0.0516944 0.0307445 -2.89724e-20)
(0.065251 0.0284648 2.28378e-20)
(0.0791725 0.0264251 -1.09405e-19)
(0.0933073 0.024739 -7.57267e-20)
(0.107451 0.0235962 9.31017e-20)
(0.121449 0.023434 -2.5755e-19)
(0.135345 0.0252602 8.3742e-20)
(0.147572 0.0297331 5.96163e-20)
(-0.00814492 0.00987871 -3.5754e-20)
(-0.0205955 0.0246003 -5.93324e-20)
(-0.0298291 0.0351796 2.30395e-19)
(-0.0360175 0.0425132 8.56664e-20)
(-0.0394051 0.0473057 1.13338e-19)
(-0.040253 0.0501241 -1.51342e-19)
(-0.0388013 0.0514314 2.54534e-22)
(-0.0352662 0.0516025 -1.22354e-19)
(-0.0298397 0.0509383 2.26106e-19)
(-0.0226919 0.0496807 7.3767e-20)
(-0.0139741 0.0480237 8.27051e-20)
(-0.00382347 0.0461235 -3.2887e-19)
(0.00763172 0.0441059 4.05476e-19)
(0.0202673 0.0420722 -1.2177e-19)
(0.0339584 0.0401041 -8.71185e-20)
(0.0485745 0.0382672 2.60816e-19)
(0.0639758 0.0366131 1.16377e-19)
(0.0800095 0.0351824 -2.94518e-19)
(0.0965085 0.0340081 -1.22989e-19)
(0.113291 0.0331241 3.71097e-19)
(0.130145 0.0325721 -2.83623e-19)
(0.146809 0.0324249 1.70564e-19)
(0.163097 0.0329724 9.54324e-20)
(0.179192 0.035192 -1.22743e-19)
(0.193576 0.0398095 -1.1848e-19)
(-0.00862909 0.00984718 -1.31552e-19)
(-0.0215307 0.024363 2.04365e-19)
(-0.0307098 0.0346973 8.70105e-20)
(-0.0364125 0.0417855 -1.25637e-19)
(-0.0389353 0.0463646 -2.01121e-20)
(-0.0385784 0.0490262 -1.31676e-19)
(-0.0356134 0.0502505 -5.24474e-20)
(-0.0302808 0.0504244 5.88211e-20)
(-0.0227918 0.0498585 -1.46984e-20)
(-0.0133317 0.0488031 1.10947e-19)
(-0.00206525 0.0474604 -9.63391e-20)
(0.0108573 0.0459953 2.66513e-19)
(0.0252935 0.0445434 -3.30289e-19)
(0.0411023 0.0432178 2.05942e-19)
(0.0581376 0.0421136 2.55856e-19)
(0.0762412 0.0413115 -3.69797e-19)
(0.0952368 0.040879 -1.12566e-19)
(0.114924 0.0408713 1.89675e-19)
(0.13507 0.0413294 -1.17115e-19)
(0.155415 0.0422792 1.13147e-19)
(0.175647 0.0437198 -2.7428e-19)
(0.195388 0.0456041 4.56524e-20)
(0.214345 0.0479896 1.78978e-19)
(0.232849 0.0516586 -2.88113e-19)
(0.249738 0.0572185 7.79296e-20)
(-0.00907856 0.00975184 -1.21716e-19)
(-0.0223149 0.023944 3.81378e-19)
(-0.0312777 0.0339379 7.31862e-20)
(-0.036293 0.0407069 -1.97708e-19)
(-0.0377122 0.0450204 1.41565e-19)
(-0.0358757 0.0474941 7.18245e-20)
(-0.0310871 0.0486246 1.14695e-19)
(-0.0236109 0.0488103 -7.52166e-21)
(-0.0136767 0.0483711 -1.19184e-20)
(-0.00148426 0.0475652 -2.49574e-20)
(0.0127889 0.0466032 -1.09057e-19)
(0.0289803 0.0456593 -3.68996e-21)
(0.0469345 0.0448807 2.54756e-19)
(0.0664953 0.0443948 -4.17773e-19)
(0.0874979 0.0443154 2.97221e-19)
(0.109761 0.0447472 6.01425e-20)
(0.133076 0.04579 1.0636e-19)
(0.157198 0.0475396 -5.48891e-20)
(0.181834 0.0500889 4.86813e-19)
(0.206626 0.0535239 -3.01692e-19)
(0.231123 0.0578993 2.41424e-19)
(0.254727 0.0631714 5.69413e-20)
(0.276847 0.0692862 -1.77142e-19)
(0.29776 0.0768958 1.50164e-19)
(0.31704 0.086052 2.33028e-19)
(-0.00948375 0.00959159 -3.54164e-20)
(-0.0229131 0.02334 -1.34505e-19)
(-0.0314684 0.0328982 -2.29798e-19)
(-0.0355619 0.0392768 -1.30923e-19)
(-0.0356032 0.0432768 -1.83098e-20)
(-0.031975 0.0455372 -5.16629e-20)
(-0.0250133 0.0465699 -2.39193e-19)
(-0.0150072 0.0467837 3.96119e-20)
(-0.00220483 0.0465059 -2.6852e-19)
(0.0131787 0.0460017 -2.0816e-20)
(0.0309525 0.0454882 -2.57348e-19)
(0.0509412 0.0451473 -9.16374e-20)
(0.0729757 0.0451355 5.25809e-20)
(0.0968859 0.0455924 -2.50263e-19)
(0.122492 0.0466488 2.26469e-21)
(0.149598 0.0484339 -2.15596e-19)
(0.177981 0.0510832 8.32605e-20)
(0.207385 0.0547475 -3.0122e-19)
(0.237501 0.0596051 -5.16904e-20)
(0.267944 0.0658743 -7.24714e-21)
(0.298202 0.0738101 -5.10676e-20)
(0.327523 0.0836714 -5.24199e-20)
(0.354931 0.0958828 -2.63021e-20)
(0.379834 0.111662 -1.05417e-19)
(0.400899 0.129599 -2.26454e-19)
(-0.0098338 0.00936579 6.45673e-20)
(-0.0232859 0.0225499 1.70539e-19)
(-0.0312092 0.0315805 2.04903e-19)
(-0.03411 0.0375035 -1.63712e-19)
(-0.0324605 0.0411507 3.03546e-19)
(-0.0266882 0.0431833 -1.64759e-19)
(-0.017163 0.0441267 8.94202e-20)
(-0.00420026 0.0443978 1.39309e-19)
(0.0119309 0.0443298 1.26708e-19)
(0.0309974 0.0441916 6.15842e-20)
(0.0527911 0.0442037 9.95073e-20)
(0.0771188 0.0445507 5.78413e-20)
(0.103793 0.0453923 3.9084e-19)
(0.132626 0.0468716 -2.84011e-19)
(0.163422 0.0491242 3.24277e-19)
(0.195973 0.052287 -1.34792e-19)
(0.230062 0.0565084 2.91028e-19)
(0.265455 0.0619629 -1.37746e-20)
(0.301913 0.0688728 -6.0293e-20)
(0.339196 0.0775389 -1.11917e-20)
(0.377073 0.0883818 2.29719e-19)
(0.415375 0.102047 -2.25809e-19)
(0.454318 0.119829 1.58049e-19)
(0.494608 0.143505 1.76703e-19)
(0.532995 0.166852 3.69717e-20)
(-0.0101159 0.00907373 4.46859e-20)
(-0.0233877 0.0215743 -2.44116e-19)
(-0.0304173 0.0299916 -8.85808e-20)
(-0.0318147 0.0354045 8.07993e-20)
(-0.0281201 0.0386732 -2.48968e-19)
(-0.0198086 0.0404799 -4.91104e-20)
(-0.00728778 0.0413609 3.40183e-20)
(0.00909724 0.0417392 1.34274e-19)
(0.0290516 0.0419504 -3.39925e-19)
(0.0523173 0.0422636 2.58229e-20)
(0.0786605 0.0428974 -9.93071e-20)
(0.10786 0.0440325 -3.01641e-19)
(0.139697 0.0458221 2.05484e-19)
(0.173952 0.0483997 8.78189e-21)
(0.210397 0.0518869 -6.1491e-21)
(0.248798 0.0564005 2.07111e-19)
(0.288919 0.0620598 -3.66338e-19)
(0.330531 0.0689952 2.90205e-19)
(0.373424 0.0773592 -5.35958e-20)
(0.417437 0.0873366 1.69965e-19)
(0.462487 0.0991505 -2.79713e-19)
(0.508634 0.113092 1.61114e-19)
(0.556361 0.129726 -2.90031e-19)
(0.606584 0.149545 3.01341e-19)
(0.654477 0.166224 -9.34501e-20)
(-0.0103145 0.00871461 3.00939e-19)
(-0.0231662 0.0204155 -4.91026e-20)
(-0.0289995 0.0281441 3.61102e-19)
(-0.0285398 0.0330069 1.67018e-19)
(-0.0224014 0.0358902 1.33405e-20)
(-0.0111125 0.0374948 7.28339e-20)
(0.00487683 0.0383655 1.756e-20)
(0.0251851 0.0389278 2.96343e-19)
(0.049483 0.0395161 9.53748e-20)
(0.0774764 0.0403949 -1.27803e-20)
(0.108891 0.0417748 2.56252e-20)
(0.143459 0.0438247 9.85643e-20)
(0.180913 0.0466807 8.2217e-20)
(0.220975 0.0504536 1.75845e-19)
(0.263358 0.0552343 -2.00333e-19)
(0.307771 0.0610985 6.05206e-20)
(0.35392 0.0681106 1.83251e-20)
(0.401524 0.0763263 8.96414e-20)
(0.450329 0.0857937 2.43373e-19)
(0.500132 0.0965506 -1.58556e-19)
(0.550801 0.108611 1.37978e-20)
(0.6023 0.121955 -2.26157e-19)
(0.654817 0.136644 2.14892e-19)
(0.708794 0.152877 -2.09621e-19)
(0.759359 0.16659 1.93128e-20)
(-0.0104113 0.00828752 -2.51094e-19)
(-0.0225613 0.0190779 1.91853e-19)
(-0.0268512 0.0260553 -3.12126e-19)
(-0.024135 0.0303473 2.69265e-20)
(-0.0151095 0.0328621 2.19335e-19)
(-0.000362608 0.0343158 -3.6518e-19)
(0.0196053 0.0352584 2.8944e-19)
(0.0443659 0.036114 -4.58935e-19)
(0.0735418 0.037211 9.14272e-20)
(0.106786 0.0388036 1.95116e-20)
(0.143762 0.0410869 1.53904e-19)
(0.184134 0.044209 -5.113e-19)
(0.227553 0.0482786 8.82713e-20)
(0.273657 0.0533715 9.34676e-20)
(0.322068 0.0595346 -5.60482e-20)
(0.372399 0.0667893 -3.47689e-19)
(0.424262 0.0751335 1.63668e-19)
(0.477279 0.0845414 3.06703e-19)
(0.531103 0.094962 -3.24067e-19)
(0.585424 0.106313 2.35386e-19)
(0.639991 0.118468 -3.06227e-19)
(0.694607 0.131241 2.2287e-19)
(0.749169 0.144466 -6.26082e-20)
(0.803746 0.158334 3.5831e-19)
(0.854196 0.170705 -4.12024e-19)
(-0.0103841 0.00779153 3.59896e-20)
(-0.0215047 0.0175676 2.83524e-20)
(-0.0238569 0.0237486 6.94579e-20)
(-0.0184384 0.0274724 2.47472e-19)
(-0.00603847 0.0296634 -7.71292e-21)
(0.012686 0.0310492 5.52612e-20)
(0.0371722 0.0321803 2.45612e-19)
(0.0669301 0.0334742 9.90301e-20)
(0.101515 0.0352474 -3.25833e-20)
(0.140503 0.0377361 2.77413e-19)
(0.183471 0.0411115 -3.15696e-19)
(0.22998 0.0454903 4.84225e-19)
(0.279572 0.0509427 -1.92071e-19)
(0.331766 0.0574977 3.48545e-19)
(0.38606 0.0651474 -1.17674e-19)
(0.441943 0.0738502 4.29261e-20)
(0.498905 0.0835332 5.20258e-20)
(0.556452 0.0940929 -1.00793e-19)
(0.614121 0.105395 8.43201e-20)
(0.67149 0.11727 5.43037e-20)
(0.728193 0.129511 7.52283e-20)
(0.783908 0.141857 1.60523e-19)
(0.838362 0.154057 -1.31168e-20)
(0.891438 0.166282 -7.36192e-20)
(0.940056 0.177877 2.25732e-19)
(-0.0102073 0.00722596 -2.10409e-19)
(-0.0199199 0.0158935 2.22259e-20)
(-0.019891 0.0212532 -3.99436e-19)
(-0.0112786 0.0244384 -9.53618e-20)
(0.00502387 0.0263822 -1.78315e-19)
(0.0282771 0.027818 -3.82545e-20)
(0.0578397 0.0292908 -1.90716e-19)
(0.0931389 0.0312047 -1.13843e-19)
(0.133637 0.033856 1.50698e-19)
(0.178804 0.0374536 -2.51414e-19)
(0.228093 0.0421334 -6.98021e-20)
(0.280934 0.0479691 2.72676e-21)
(0.336722 0.0549797 -4.71462e-19)
(0.394826 0.0631357 2.00422e-19)
(0.454597 0.072365 -2.9267e-19)
(0.515381 0.082557 -9.16022e-21)
(0.576537 0.093568 5.7931e-20)
(0.637454 0.105224 -9.38359e-20)
(0.697569 0.117326 -8.23743e-20)
(0.756378 0.129648 4.14852e-20)
(0.813443 0.141942 4.66443e-20)
(0.868389 0.153933 -3.01942e-19)
(0.920891 0.165352 1.72399e-19)
(0.970776 0.176334 8.81641e-20)
(1.01603 0.187276 2.54058e-20)
(-0.00985124 0.00659094 2.15416e-19)
(-0.0177231 0.0140684 -2.29778e-19)
(-0.0148201 0.0186053 3.21965e-19)
(-0.00247851 0.0213121 4.99371e-20)
(0.0182889 0.0231199 -1.53323e-20)
(0.0466433 0.0247606 -1.08023e-19)
(0.0818425 0.0267654 1.62419e-20)
(0.123203 0.0295156 1.63924e-19)
(0.170063 0.0332766 -2.26014e-19)
(0.221748 0.0382175 2.37195e-19)
(0.277553 0.0444254 -2.50179e-20)
(0.336738 0.0519168 1.10255e-20)
(0.398521 0.0606458 3.08252e-19)
(0.4621 0.0705132 4.1316e-19)
(0.526663 0.0813738 -1.61618e-19)
(0.591413 0.0930455 2.87602e-19)
(0.65559 0.105317 1.46574e-19)
(0.718495 0.117954 -8.94265e-20)
(0.779503 0.130711 2.84857e-19)
(0.838083 0.143331 -1.02898e-20)
(0.893794 0.155557 -2.75268e-19)
(0.946289 0.16713 2.91817e-19)
(0.995292 0.177805 4.29438e-20)
(1.04068 0.187688 -1.82718e-19)
(1.08134 0.197854 5.72925e-20)
(-0.00928304 0.00588804 -2.99987e-19)
(-0.0148241 0.0121098 3.13303e-19)
(-0.00850563 0.01585 -1.98759e-19)
(0.008139 0.0181717 -6.20828e-20)
(0.0339593 0.0199913 -1.38589e-19)
(0.0679942 0.022029 2.44893e-19)
(0.109372 0.0247912 -1.42079e-19)
(0.157264 0.0286241 -6.50344e-20)
(0.210844 0.0337478 -1.86101e-19)
(0.269255 0.040276 4.82233e-21)
(0.331594 0.0482307 -7.27212e-20)
(0.396917 0.057555 3.54041e-20)
(0.464245 0.0681243 -3.72564e-19)
(0.53259 0.0797588 1.06131e-19)
(0.600986 0.0922354 -1.28263e-19)
(0.668512 0.105301 -1.0361e-19)
(0.734326 0.118683 3.19869e-20)
(0.79769 0.132103 -1.5177e-19)
(0.857982 0.145288 -6.58101e-20)
(0.914709 0.157975 1.88571e-19)
(0.967507 0.169922 8.07253e-20)
(1.01613 0.18091 -3.42643e-19)
(1.06044 0.190743 2.53228e-19)
(1.10043 0.199521 -4.80824e-20)
(1.13569 0.208682 -1.00247e-19)
(-0.00846679 0.00512103 -1.09543e-19)
(-0.0111282 0.0100421 -5.85665e-20)
(-0.000807354 0.0130417 -1.1746e-20)
(0.0207458 0.0151076 8.53969e-20)
(0.0522203 0.0171244 9.28816e-20)
(0.0925042 0.0197874 8.08529e-20)
(0.14056 0.0235639 1.00417e-19)
(0.195374 0.0287484 1.53197e-19)
(0.255909 0.0354978 2.33934e-19)
(0.321085 0.0438516 2.31299e-19)
(0.389765 0.0537479 1.22038e-19)
(0.460777 0.0650394 -3.27406e-20)
(0.532934 0.0775101 8.22527e-21)
(0.605075 0.0908923 -1.12709e-20)
(0.676103 0.104884 9.6604e-20)
(0.74502 0.119167 -2.60809e-20)
(0.81096 0.133423 2.87812e-19)
(0.873214 0.147347 -1.28652e-19)