/*--------------------------------*- C++ -*----------------------------------*\
  =========                 |
  \\      /  F ield         | OpenFOAM: The Open Source CFD Toolbox
   \\    /   O peration     | Website:  https://openfoam.org
    \\  /    A nd           | Version:  6.0
     \\/     M anipulation  |
\*---------------------------------------------------------------------------*/
FoamFile
{
    version     2.0;
    format      ascii;
    class       surfaceScalarField;
    location    "7.2";
    object      phi;
}
// * * * * * * * * * * * * * * * * * * * * * * * * * * * * * * * * * * * * * //

dimensions      [0 3 -1 0 0 0 0];

internalField   nonuniform List<scalar> 
15760
(
-7.7502e-06
7.57677e-06
1.73424e-07
-2.65037e-05
1.83249e-05
4.2852e-07
-5.32971e-05
2.61776e-05
6.15827e-07
-8.60177e-05
3.1969e-05
7.51557e-07
-0.000123121
3.62543e-05
8.48562e-07
-0.000163478
3.94406e-05
9.17172e-07
-0.000206273
4.18298e-05
9.65374e-07
-0.00025092
4.36475e-05
9.99039e-07
-0.000297007
4.50644e-05
1.02223e-06
-0.000344255
4.62111e-05
1.03757e-06
-0.00039249
4.71885e-05
1.04662e-06
-0.000441616
4.80758e-05
1.05019e-06
-0.000491601
4.89361e-05
1.0487e-06
-0.000542464
4.98201e-05
1.04232e-06
-0.000594264
5.07687e-05
1.03119e-06
-0.000647094
5.1815e-05
1.01548e-06
-0.000701073
5.29832e-05
9.9549e-07
-0.000756328
5.42838e-05
9.7147e-07
-0.000812992
5.57205e-05
9.43769e-07
5.73357e-05
9.13019e-07
-0.000871241
-7.50231e-06
1.50791e-05
-2.57088e-05
3.65314e-05
-5.1763e-05
5.22319e-05
-8.36122e-05
6.38182e-05
-0.000119744
7.23857e-05
-0.000159045
7.87415e-05
-0.000200701
8.34862e-05
-0.000244123
8.70697e-05
-0.000288892
8.98333e-05
-0.000334719
9.20378e-05
-0.000381416
9.38854e-05
-0.000428875
9.55347e-05
-0.000477051
9.71124e-05
-0.000525952
9.87208e-05
-0.000575626
0.000100443
-0.000626159
0.000102348
-0.000677661
0.000104486
-0.000730259
0.000106882
-0.000784084
0.000109545
0.000112561
-0.00083931
-7.02004e-06
2.20991e-05
-2.41584e-05
5.36698e-05
-4.87656e-05
7.68392e-05
-7.89053e-05
9.39578e-05
-0.000113128
0.000106609
-0.000150351
0.000115964
-0.000189767
0.000122902
-0.00023078
0.000128083
-0.000272956
0.00013201
-0.000315987
0.000135068
-0.000359661
0.00013756
-0.000403847
0.00013972
-0.000448475
0.00014174
-0.000493529
0.000143775
-0.00053904
0.000145954
-0.000585075
0.000148382
-0.000631734
0.000151145
-0.00067914
0.000154288
-0.000727424
0.00015783
0.000161898
-0.000776761
-6.33478e-06
2.84339e-05
-2.19464e-05
6.92813e-05
-4.44754e-05
9.93683e-05
-7.21506e-05
0.000121633
-0.000103614
0.000138072
-0.000137825
0.000150175
-0.00017399
0.000159067
-0.000211506
0.000165599
-0.000249919
0.000170423
-0.000288894
0.000174043
-0.000328187
0.000176853
-0.000367633
0.000179166
-0.000407129
0.000181236
-0.000446626
0.000183273
-0.000486127
0.000185454
-0.000525676
0.000187931
-0.00056536
0.000190829
-0.000605297
0.000194225
-0.000645628
0.000198161
0.000202802
-0.000686532
-5.49055e-06
3.39244e-05
-1.9205e-05
8.29958e-05
-3.91347e-05
0.000119298
-6.371e-05
0.000146208
-9.16868e-05
0.000166048
-0.000122081
0.00018057
-0.000154119
0.000191104
-0.000187191
0.000198671
-0.000220823
0.000204055
-0.000254647
0.000207867
-0.000288383
0.000210589
-0.000321824
0.000212607
-0.000354824
0.000214236
-0.000387297
0.000215746
-0.000419209
0.000217366
-0.000450577
0.0002193
-0.000481474
0.000221726
-0.000512018
0.000224769
-0.000542365
0.000228508
0.000233157
-0.00057272
-4.54061e-06
3.84651e-05
-1.6096e-05
9.45512e-05
-3.30414e-05
0.000136243
-5.40318e-05
0.000167199
-7.79533e-05
0.00018997
-0.00010389
0.000206507
-0.000131094
0.000218308
-0.000158955
0.000226532
-0.000186979
0.000232079
-0.000214766
0.000235655
-0.000241996
0.000237819
-0.000268416
0.000239026
-0.000293834
0.000239654
-0.000318115
0.000240027
-0.000341186
0.000240436
-0.000363032
0.000241146
-0.000383708
0.000242402
-0.000403339
0.0002444
-0.000422111
0.00024728
0.000251324
-0.000440278
-3.54328e-06
4.20083e-05
-1.27987e-05
0.000103807
-2.65294e-05
0.000149974
-4.36222e-05
0.000184291
-6.31021e-05
0.00020945
-8.41301e-05
0.000227535
-0.000105992
0.00024017
-0.000128085
0.000248625
-0.0001499
0.000253894
-0.000171007
0.000256762
-0.000191046
0.000257859
-0.000209718
0.000257698
-0.000226779
0.000256715
-0.000242044
0.000255292
-0.000255388
0.000253781
-0.000266761
0.000252519
-0.000276196
0.000251837
-0.000283826
0.00025203
-0.000289885
0.000253339
0.000256147
-0.000294708
-2.55757e-06
4.45659e-05
-9.49708e-06
0.000110746
-1.99451e-05
0.000160422
-3.30115e-05
0.000197358
-4.78608e-05
0.000224299
-6.37363e-05
0.00024341
-7.99669e-05
0.000256401
-9.59634e-05
0.000264621
-0.00011121
0.00026914
-0.000125256
0.000270808
-0.000137705
0.000270308
-0.000148212
0.000268205
-0.000156481
0.000264984
-0.000162268
0.000261079
-0.000165392
0.000256905
-0.000165752
0.000252879
-0.000163351
0.000249435
-0.000158325
0.000247005
-0.00015097
0.000245983
0.000246923
-0.000141746
-1.63894e-06
4.62048e-05
-6.36685e-06
0.000115474
-1.36234e-05
0.000167679
-2.27178e-05
0.000206452
-3.29458e-05
0.000234527
-4.3635e-05
0.000254099
-5.41639e-05
0.00026693
-6.39676e-05
0.000274425
-7.25348e-05
0.000277707
-7.94018e-05
0.000277675
-8.41461e-05
0.000275052
-8.63822e-05
0.000270442
-8.5761e-05
0.000264363
-8.19758e-05
0.000257294
-7.47766e-05
0.000249706
-6.3995e-05
0.000242097
-4.95824e-05
0.000235023
-3.16653e-05
0.000229088
-1.06014e-05
0.000224919
0.000223345
1.2977e-05
-8.3528e-07
4.70401e-05
-3.56248e-06
0.000118201
-7.86274e-06
0.000171979
-1.32075e-05
0.000211797
-1.90079e-05
0.000240328
-2.46724e-05
0.000259764
-2.96344e-05
0.000271892
-3.33631e-05
0.000278154
-3.53635e-05
0.000279708
-3.51724e-05
0.000277484
-3.23524e-05
0.000272232
-2.64868e-05
0.000264576
-1.71784e-05
0.000255054
-4.05511e-06
0.00024417
1.32141e-05
0.000232437
3.48875e-05
0.000220424
6.10963e-05
0.000208814
9.17594e-05
0.000198425
0.000126472
0.000190207
0.000185428
0.000164388
-1.83675e-07
4.72238e-05
-1.20578e-06
0.000119223
-2.90173e-06
0.000173675
-4.85789e-06
0.000213753
-6.57699e-06
0.000242047
-7.54012e-06
0.000260727
-7.23709e-06
0.000271589
-5.17866e-06
0.000276095
-8.97975e-07
0.000275427
6.05382e-06
0.000270532
1.61146e-05
0.000262171
2.97186e-05
0.000250972
4.73008e-05
0.000237472
6.92955e-05
0.000222176
9.61222e-05
0.00020561
0.000128151
0.000188395
0.000165636
0.000171329
0.000208594
0.000155467
0.000256617
0.000142184
0.000133421
0.000308625
2.92211e-07
4.69316e-05
6.2357e-07
0.000118892
1.1008e-06
0.000173198
2.07736e-06
0.000212777
3.98925e-06
0.000240135
7.29712e-06
0.000257419
1.24588e-05
0.000266427
1.99189e-05
0.000268635
3.01081e-05
0.000265238
4.34492e-05
0.000257191
6.03659e-05
0.000245255
8.12935e-05
0.000230044
0.000106689
0.000212077
0.000137034
0.00019183
0.000172833
0.000169811
0.00021458
0.000146648
0.000262687
0.000123223
0.000317329
0.000100824
0.000378175
8.13393e-05
6.76735e-05
0.000443922
5.83876e-07
4.63477e-05
1.89501e-06
0.000117581
4.08162e-06
0.000171011
7.49598e-06
0.000209362
1.25489e-05
0.000235082
1.9664e-05
0.000250304
2.92587e-05
0.000256832
4.17375e-05
0.000256156
5.74952e-05
0.00024948
7.69233e-05
0.000237763
0.000100421
0.000221757
0.00012841
0.000202056
0.000161346
0.000179141
0.000199737
0.00015344
0.000244144
0.000125404
0.00029517
9.5622e-05
0.000353392
6.5e-05
0.000419199
3.50166e-05
0.000492425
8.11354e-06
-1.15233e-05
0.000571622
6.98881e-07
4.56488e-05
2.63112e-06
0.000115649
6.08281e-06
0.000167559
1.14654e-05
0.00020398
1.92054e-05
0.000227342
2.97189e-05
0.00023979
4.3404e-05
0.000243147
6.0642e-05
0.000238918
8.18033e-05
0.000228319
0.000107256
0.00021231
0.000137374
0.000191638
0.000172557
0.000166873
0.00021324
0.000138458
0.000259917
0.000106763
0.000313159
7.21614e-05
0.00037362
3.51612e-05
0.000441997
-3.37698e-06
0.000518884
-4.18702e-05
0.000604363
-7.73655e-05
-0.000104141
0.00069698
6.60827e-07
4.4988e-05
2.9081e-06
0.000113401
7.25397e-06
0.000163213
1.42283e-05
0.000197005
2.43187e-05
0.000217251
3.79707e-05
0.000226138
5.55962e-05
0.000225522
7.75834e-05
0.000216931
0.000104306
0.000201597
0.00013613
0.000180486
0.000173423
0.000154345
0.000216563
0.000123733
0.000265949
8.90715e-05
0.000322023
5.06886e-05
0.000385291
8.89406e-06
0.000456348
-3.58963e-05
0.000535886
-8.29153e-05
0.0006246
-0.000130583
0.000722821
-0.000175587
-0.0002106
0.000829281
5.0822e-07
4.44798e-05
2.85217e-06
0.000111057
7.84574e-06
0.00015822
1.61934e-05
0.000188658
2.84921e-05
0.000204953
4.52617e-05
0.000209369
6.69718e-05
0.000203812
9.40607e-05
0.000189842
0.000126947
0.000168711
0.000166034
0.000141399
0.000211713
0.000108666
0.000264359
7.10876e-05
0.000324331
2.90995e-05
0.000391978
-1.69586e-05
0.000467655
-6.67826e-05
0.000551754
-0.000119996
0.000644752
-0.000175913
0.000747201
-0.000233033
0.000859526
-0.000287913
-0.000331857
0.000980783
2.9204e-07
4.41877e-05
2.63129e-06
0.000108718
8.19342e-06
0.000152658
1.79086e-05
0.000178943
3.25326e-05
0.000190329
5.27104e-05
0.000189191
7.90206e-05
0.000177502
0.000112003
0.000156859
0.000152173
0.000128541
0.000200017
9.35547e-05
0.000255988
5.26956e-05
0.000320482
6.59357e-06
0.000393822
-4.42405e-05
0.000476234
-9.93713e-05
0.000567841
-0.00015839
0.000668679
-0.000220833
0.000778755
-0.000285989
0.000898125
-0.000352403
0.00102688
-0.000416669
-0.000469298
0.00116432
7.18345e-08
4.41159e-05
2.44214e-06
0.000106348
8.69053e-06
0.000146409
2.00172e-05
0.000167616
3.73853e-05
0.00017296
6.16161e-05
0.00016496
9.34501e-05
0.000145668
0.000133581
0.000116728
0.000182666
7.9456e-05
0.000241316
3.49044e-05
0.000310075
-1.60625e-05
0.000389377
-7.27087e-05
0.000479507
-0.000134371
0.000580545
-0.000200409
0.000692316
-0.000270161
0.00081437
-0.000342888
0.000946023
-0.000417642
0.00108647
-0.000492851
0.00123488
-0.000565076
-0.000624802
0.00139038
-8.95296e-08
4.42054e-05
2.49278e-06
0.000103766
9.75393e-06
0.000139148
2.31999e-05
0.00015417
4.40443e-05
0.000152116
7.33308e-05
0.000135674
0.000112006
0.000106992
0.000160955
6.77792e-05
0.000221005
1.94061e-05
0.000292905
-3.69958e-05
0.00037729
-0.000100447
0.000474626
-0.000170044
0.000585148
-0.000244893
0.000708782
-0.000324044
0.000845062
-0.00040644
0.000993027
-0.000490853
0.00115117
-0.000575788
0.00131748
-0.000659161
0.00148958
-0.000737169
-0.000800977
0.00166575
-1.31953e-07
4.43374e-05
2.98297e-06
0.000100651
1.17843e-05
0.000130347
2.81084e-05
0.000137846
5.34522e-05
0.000126772
8.9114e-05
0.000100012
0.000136271
5.98357e-05
0.000196005
8.04426e-06
0.000269302
-5.38907e-05
0.000357012
-0.000124705
0.000459804
-0.000203239
0.000578115
-0.000288356
0.000712093
-0.00037887
0.000861544
-0.000473495
0.00102588
-0.000570781
0.00120407
-0.000669042
0.00139448
-0.000766198
0.00159445
-0.000859125
0.00179825
-0.000940976
-0.000991423
0.0019887
-4.78193e-09
4.43422e-05
4.08412e-06
9.65617e-05
1.51268e-05
0.000119304
3.53009e-05
0.000117672
6.64032e-05
9.567e-05
0.000109995
5.64197e-05
0.000167474
2.35725e-06
0.000240082
-6.45636e-05
0.000328883
-0.000142692
0.000434712
-0.000230535
0.000558123
-0.00032665
0.00069934
-0.000429572
0.000858235
-0.000537765
0.00103435
-0.000649611
0.00122699
-0.000763418
0.0014354
-0.000877452
0.00165918
-0.000989979
0.00189925
-0.00109919
0.00216132
-0.00120304
-0.0012916
0.00246149
3.31375e-07
4.40108e-05
5.92897e-06
9.09641e-05
2.00463e-05
0.000105187
4.51971e-05
9.2521e-05
8.34718e-05
5.73953e-05
0.000136672
3.21902e-06
0.00020636
-6.73305e-05
0.00029384
-0.000152043
0.000400106
-0.000248958
0.000525777
-0.000356205
0.00067103
-0.000471903
0.000835565
-0.000594107
0.00101861
-0.000720806
0.00121895
-0.000849955
0.00143508
-0.000979544
0.00166531
-0.00110769
0.0019081
-0.00123276
0.0021624
-0.00135349
0.00242837
-0.00146902
-0.00157025
0.00270702
8.98603e-07
4.31122e-05
8.59797e-06
8.32647e-05
2.67047e-05
8.70802e-05
5.80445e-05
6.11813e-05
0.000104967
1.04729e-05
0.000169452
-6.12658e-05
0.000253118
-0.000150997
0.000357173
-0.000256097
0.000482326
-0.000374111
0.000628709
-0.000502589
0.000795822
-0.000639015
0.000982512
-0.000780798
0.00118702
-0.000925318
0.00140709
-0.00107002
0.00164006
-0.00121252
0.00188309
-0.00135072
0.00213325
-0.00148292
0.00238767
-0.00160792
0.00264365
-0.00172499
-0.00182676
0.00290016
1.70538e-06
4.14068e-05
1.21253e-05
7.28448e-05
3.51676e-05
6.40379e-05
7.39229e-05
2.24259e-05
0.000130933
-4.65369e-05
0.000208246
-0.000138579
0.000307377
-0.000250128
0.000429213
-0.000377933
0.000573907
-0.000518806
0.000740805
-0.000669487
0.00092842
-0.00082663
0.00113448
-0.000986858
0.00135605
-0.00114689
0.0015897
-0.00130367
0.0018317
-0.00145452
0.00207825
-0.00159726
0.00232559
-0.00173026
0.00257016
-0.00185249
0.00280867
-0.00196351
-0.00205839
0.0030403
2.74928e-06
3.86575e-05
1.65066e-05
5.90875e-05
4.54165e-05
3.5128e-05
9.27631e-05
-2.49206e-05
0.000161173
-0.000114947
0.000252603
-0.00023001
0.000368244
-0.000365769
0.000508387
-0.000518076
0.000672323
-0.000682741
0.000858304
-0.000855469
0.00106361
-0.00103193
0.00128469
-0.00120794
0.00151741
-0.00137961
0.00175733
-0.00154358
0.00199994
-0.00169714
0.00224099
-0.00183831
0.0024766
-0.00196587
0.00270339
-0.00207928
0.00291861
-0.00217872
-0.00226154
0.00312176
4.02173e-06
3.46358e-05
2.17113e-05
4.13979e-05
5.7371e-05
-5.31657e-07
0.000114376
-8.19255e-05
0.000195286
-0.000195857
0.000301755
-0.000336479
0.000434371
-0.000498384
0.000592514
-0.000676219
0.000774299
-0.000864526
0.000976635
-0.00105781
0.00119542
-0.00125072
0.00142586
-0.00143838
0.0016628
-0.00161655
0.00190114
-0.00178192
0.00213614
-0.00193214
0.00236369
-0.00206586
0.00258043
-0.00218261
0.00278388
-0.00228273
0.00297237
-0.00236721
-0.00243531
0.00314614
5.51243e-06
2.91234e-05
2.76944e-05
1.9216e-05
7.09067e-05
-4.3744e-05
0.000138477
-0.000149496
0.000232701
-0.000290081
0.000354655
-0.000458433
0.000504007
-0.000647736
0.000678901
-0.000851113
0.000876006
-0.00106163
0.00109074
-0.00127254
0.00131767
-0.00147765
0.00155094
-0.00167165
0.00178481
-0.00185043
0.00201406
-0.00201117
0.00223429
-0.00215237
0.00244211
-0.00227368
0.00263524
-0.00237574
0.0028124
-0.00245989
0.00297322
-0.00252803
-0.00258086
0.00311877
7.21197e-06
2.19114e-05
3.4403e-05
-7.97502e-06
8.58659e-05
-9.52069e-05
0.000164702
-0.000228332
0.000272686
-0.000398065
0.000410005
-0.000595752
0.000575062
-0.000812794
0.000764475
-0.00104053
0.000973299
-0.00127046
0.00119549
-0.00149474
0.0014245
-0.00170665
0.00165387
-0.00190102
0.00187782
-0.00207437
0.00209159
-0.00222494
0.00229168
-0.00235246
0.00247591
-0.0024579
0.00264326
-0.0025431
0.00279378
-0.00261041
0.00292826
-0.00266251
-0.00270114
0.00304855
9.11212e-06
1.27993e-05
4.17762e-05
-4.06391e-05
0.000102056
-0.000155486
0.000192597
-0.000318874
0.000314354
-0.000519822
0.000466273
-0.00074767
0.000645174
-0.000991695
0.00084594
-0.00124129
0.00106201
-0.00148653
0.00128611
-0.00171883
0.00151101
-0.00193155
0.00173023
-0.00212025
0.00193855
-0.00228269
0.00213222
-0.00241861
0.00230903
-0.00252927
0.00246815
-0.00261703
0.0026099
-0.00268485
0.00273543
-0.00273594
0.00284643
-0.0027735
-0.00279991
0.0029452
1.12038e-05
1.5955e-06
4.97397e-05
-7.9175e-05
0.000119238
-0.000224985
0.000221615
-0.000421251
0.000356658
-0.000654865
0.000521729
-0.00091274
0.000711811
-0.00118178
0.000919996
-0.00144948
0.00113831
-0.00170484
0.00135866
-0.00193919
0.00157375
-0.00214664
0.00177768
-0.00232417
0.0019663
-0.00247131
0.00213725
-0.00258956
0.00228976
-0.00268178
0.00242433
-0.00275159
0.00254235
-0.00280287
0.00264579
-0.00283938
0.00273682
-0.00286454
-0.00288102
0.00281793
1.34739e-05
-1.18784e-05
5.81975e-05
-0.000123899
0.000137118
-0.000303905
0.000251099
-0.000535232
0.000398406
-0.000802172
0.000574508
-0.00108884
0.000772426
-0.0013797
0.000983599
-0.00166065
0.00119903
-0.00192027
0.00141041
-0.00215056
0.00161097
-0.0023472
0.00179594
-0.00250915
0.00196261
-0.00263799
0.00211013
-0.00273708
0.00223908
-0.00281073
0.00235104
-0.00286356
0.00244818
-0.00290001
0.00253288
-0.00292407
0.00260749
-0.00293915
-0.00294792
0.00267439
1.59022e-05
-2.77806e-05
6.70238e-05
-0.00017502
0.000155334
-0.000392215
0.000280292
-0.00066019
0.000438296
-0.000960176
0.000622714
-0.00127326
0.000824649
-0.00158163
0.00103422
-0.00187022
0.00124197
-0.00212802
0.00144
-0.00234859
0.00162263
-0.00252983
0.00178658
-0.0026731
0.00193072
-0.00278213
0.00205559
-0.00286195
0.00216289
-0.00291803
0.00225496
-0.00295563
0.00233436
-0.00297941
0.00240359
-0.0029933
0.00246491
-0.00300047
-0.00300342
0.00252041
1.84588e-05
-4.62394e-05
7.60597e-05
-0.000232621
0.000173461
-0.000489616
0.000308356
-0.000795086
0.000474987
-0.00112681
0.000664554
-0.00146283
0.000866476
-0.00178355
0.00107006
-0.00207381
0.00126602
-0.00232398
0.00144745
-0.00253002
0.00161016
-0.00269254
0.0017525
-0.00281544
0.00187481
-0.00290444
0.00197882
-0.00296596
0.002067
-0.00300621
0.00214208
-0.00303071
0.00220674
-0.00304406
0.00226334
-0.0030499
0.0023139
-0.00305103
-0.0030497
0.00236018
2.11035e-05
-6.73428e-05
8.51133e-05
-0.000296631
0.00019102
-0.000595523
0.000334412
-0.000938477
0.000507186
-0.00129958
0.000698474
-0.00165411
0.000896431
-0.00198151
0.00109016
-0.00226754
0.00127116
-0.00250497
0.00143395
-0.00269281
0.00157602
-0.00283462
0.0016973
-0.00293672
0.00179938
-0.00300652
0.00188483
-0.0030514
0.00195655
-0.00307793
0.00201738
-0.00309155
0.00206988
-0.00309655
0.00211615
-0.00309617
0.0021579
-0.00309279
-0.00308831
0.00219651
2.37858e-05
-9.11286e-05
9.39657e-05
-0.000366811
0.000207504
-0.000709061
0.000357594
-0.00108857
0.000533738
-0.00147572
0.000723282
-0.00184366
0.000913662
-0.00217189
0.00109441
-0.00244829
0.00125829
-0.00266886
0.00140153
-0.00283604
0.00152328
-0.00295637
0.00162484
-0.00303827
0.00170874
-0.00309043
0.00177804
-0.00312071
0.00183581
-0.00313569
0.00188476
-0.0031405
0.00192718
-0.00313897
0.00196487
-0.00313386
0.00199921
-0.00312713
-0.00312035
0.00203126
2.6447e-05
-0.000117576
0.00010238
-0.000442744
0.000222398
-0.000829079
0.000377107
-0.00124328
0.000553717
-0.00165233
0.00073822
-0.00202816
0.000917949
-0.00235162
0.00108342
-0.00261376
0.00122902
-0.00281446
0.00135272
-0.00295974
0.00145519
-0.00305884
0.0015388
-0.00312188
0.0016067
-0.00315832
0.00166215
-0.00317616
0.00170813
-0.00318167
0.00174711
-0.00317949
0.00178106
-0.00317292
0.00181145
-0.00316425
0.00183936
-0.00315505
-0.00314657
0.00186558
2.90223e-05
-0.000146598
0.000110115
-0.000523837
0.000235221
-0.000954185
0.00039228
-0.00140034
0.000566475
-0.00182653
0.000742987
-0.00220467
0.000909646
-0.00251828
0.00105839
-0.0027625
0.00118538
-0.00294145
0.00129024
-0.0030646
0.0013749
-0.00314351
0.0014425
-0.00318948
0.00149648
-0.00321231
0.00154008
-0.00321977
0.00157606
-0.00321764
0.00160656
-0.00320999
0.00163321
-0.00319957
0.00165719
-0.00318823
0.00167932
-0.00317718
-0.00316742
0.00170017
3.14438e-05
-0.000178042
0.000116934
-0.000609327
0.000245544
-0.0010828
0.000402607
-0.0015574
0.000571675
-0.0019956
0.000737713
-0.00237071
0.000889568
-0.00267013
0.00102087
-0.0028938
0.00112957
-0.00305015
0.00121674
-0.00315178
0.00128527
-0.00321204
0.00133874
-0.00324294
0.00138066
-0.00325423
0.00141409
-0.0032532
0.00144145
-0.003245
0.00146457
-0.0032331
0.00148475
-0.00321976
0.00150292
-0.0032064
0.00151969
-0.00319396
-0.00318321
0.00153548
3.36438e-05
-0.000211686
0.000122623
-0.000698306
0.000253024
-0.0012132
0.000407768
-0.00171214
0.000569284
-0.00215711
0.000722891
-0.00252432
0.000858857
-0.0028061
0.000972631
-0.00300757
0.00106382
-0.00314133
0.00113468
-0.00322264
0.00118875
-0.00326611
0.00122981
-0.003284
0.00126125
-0.00328567
0.00128583
-0.00327778
0.00130564
-0.00326481
0.00132216
-0.00324963
0.00133645
-0.00323404
0.0013492
-0.00321915
0.00136088
-0.00320564
-0.00319411
0.00137177
3.55576e-05
-0.000247243
0.000126996
-0.000789745
0.000257412
-0.00134361
0.000407642
-0.00186237
0.000559538
-0.00230901
0.000699289
-0.00266407
0.000818849
-0.00292566
0.000915469
-0.00310419
0.000990199
-0.00321606
0.00104621
-0.00327865
0.0010874
-0.0033073
0.00111754
-0.00331414
0.00113978
-0.00330791
0.00115654
-0.00329454
0.00116956
-0.00327783
0.00118005
-0.00326011
0.00118881
-0.0032428
0.00119638
-0.00322672
0.00120312
-0.00321238
-0.00320021
0.00120922
3.71308e-05
-0.000284374
0.000129916
-0.00088253
0.000258579
-0.00147227
0.000402298
-0.00200609
0.00054291
-0.00244962
0.000667878
-0.00278904
0.000770974
-0.00302876
0.000851135
-0.00318435
0.000910603
-0.00327553
0.000953167
-0.00332121
0.000982884
-0.00333702
0.00100335
-0.0033346
0.0010174
-0.00332196
0.00102711
-0.00330424
0.0010339
-0.00328461
0.00103871
-0.00326493
0.00104219
-0.00324628
0.00104474
-0.00322927
0.00104662
-0.00321426
-0.00320156
0.00104797
3.83067e-05
-0.000322681
0.000131268
-0.000975491
0.000256469
-0.00159748
0.00039193
-0.00214155
0.000519985
-0.00257768
0.000629673
-0.00289873
0.000716594
-0.00311568
0.000781183
-0.00324894
0.000826609
-0.00332096
0.000857033
-0.00335164
0.00087648
-0.00335647
0.000888279
-0.0033464
0.000894921
-0.0033286
0.000898136
-0.00330746
0.00089907
-0.00328555
0.000898467
-0.00326433
0.000896808
-0.00324462
0.000894412
-0.00322687
0.000891475
-0.00321132
-0.00319818
0.000888097
3.90492e-05
-0.00036173
0.000131004
-0.00106745
0.000251154
-0.00171763
0.000376889
-0.00226729
0.000491495
-0.00269228
0.000585763
-0.002993
0.000657043
-0.00318696
0.000707042
-0.00329894
0.000739598
-0.00335351
0.000759037
-0.00337107
0.000769215
-0.00336665
0.000773142
-0.00335033
0.000772957
-0.00332842
0.000770082
-0.00330458
0.000765424
-0.00328089
0.000759556
-0.00325846
0.000752852
-0.00323791
0.000745556
-0.00321958
0.000737819
-0.00320359
-0.00319008
0.000729716
3.93299e-05
-0.00040106
0.000129115
-0.00115723
0.000242778
-0.00183129
0.000357611
-0.00238212
0.000458208
-0.00279288
0.000537193
-0.00307198
0.00059352
-0.00324328
0.000629927
-0.00333535
0.000650694
-0.00337428
0.000660139
-0.00338052
0.000661864
-0.00336837
0.000658534
-0.003347
0.000651951
-0.00332183
0.000643267
-0.0032959
0.000633189
-0.00327081
0.000622156
-0.00324743
0.000610456
-0.00322621
0.000598279
-0.0032074
0.000585747
-0.00319105
-0.00317725
0.000572918
3.91327e-05
-0.000440193
0.000125634
-0.00124373
0.000231555
-0.00193721
0.000334584
-0.00248515
0.000420898
-0.00287919
0.000484941
-0.00313602
0.000527085
-0.00328543
0.000550867
-0.00335913
0.000560806
-0.00338422
0.00056109
-0.0033808
0.000555012
-0.00336229
0.000544889
-0.00333688
0.00053222
-0.00330916
0.00051792
-0.0032816
0.000502535
-0.00325543
0.000486398
-0.00323129
0.000469728
-0.00320954
0.000452679
-0.00319035
0.000435351
-0.00317373
-0.00315969
0.000417793
3.84529e-05
-0.000478645
0.000120632
-0.00132591
0.000217744
-0.00203432
0.000308328
-0.00257574
0.000380316
-0.00295118
0.000429896
-0.0031856
0.000458656
-0.00331419
0.000470713
-0.00337119
0.000470662
-0.00338417
0.000462469
-0.00337261
0.000449096
-0.00334892
0.000432527
-0.00332031
0.000413992
-0.00329063
0.00039421
-0.00326182
0.000373591
-0.00323481
0.000352384
-0.00321008
0.000330759
-0.00318792
0.000308839
-0.00316843
0.000286713
-0.0031516
-0.0031374
0.000264425
3.72968e-05
-0.000515942
0.000114207
-0.00140282
0.000201638
-0.00212175
0.000279363
-0.00265346
0.000337162
-0.00300898
0.000372848
-0.00322129
0.000389015
-0.00333035
0.000390163
-0.00337233
0.000380834
-0.00337484
0.000364721
-0.0033565
0.000344443
-0.00332864
0.000321683
-0.00329755
0.000297437
-0.00326638
0.000272259
-0.00323664
0.000246453
-0.003209
0.000220199
-0.00318383
0.000193624
-0.00316134
0.000166833
-0.00314164
0.000139907
-0.00312467
-0.00311039
0.000112891
3.56807e-05
-0.000551623
0.000106482
-0.00147362
0.000183548
-0.00219882
0.000248194
-0.00271811
0.000292081
-0.00305287
0.000314489
-0.0032437
0.000318815
-0.00333468
0.000309779
-0.0033633
0.000291776
-0.00335684
0.000268185
-0.00333291
0.000241299
-0.00330176
0.00021253
-0.00326878
0.000182677
-0.00323653
0.000152161
-0.00320612
0.000121197
-0.00317804
8.99078e-05
-0.00315254
5.83879e-05
-0.00312982
2.67248e-05
-0.00310998
-5.00178e-06
-0.00309295
-0.00307865
-3.67398e-05
3.36292e-05
-0.000585252
9.75954e-05
-0.00153759
0.000163787
-0.00226501
0.000215301
-0.00276962
0.000245651
-0.00308322
0.000255413
-0.00325346
0.000248602
-0.00332787
0.00023002
-0.00334472
0.000203841
-0.00333066
0.000173121
-0.00330219
0.000139848
-0.00326848
0.000105198
-0.00323413
6.98049e-05
-0.00320114
3.39843e-05
-0.0031703
-2.12072e-06
-0.00314193
-3.84361e-05
-0.00311623
-7.48989e-05
-0.00309336
-0.000111434
-0.00307344
-0.000147959
-0.00305642
-0.0030422
-0.000184409
3.11739e-05
-0.000616426
8.76959e-05
-0.00159411
0.000142663
-0.00231998
0.000181129
-0.00280809
0.000198384
-0.00310047
0.000196131
-0.00325121
0.000178828
-0.00331057
0.000151252
-0.00331714
0.000117309
-0.00329671
7.97341e-05
-0.00326461
4.02351e-05
-0.00322898
-2.14287e-07
-0.00319368
-4.11091e-05
-0.00316024
-8.22192e-05
-0.00312919
-0.000123459
-0.00310069
-0.000164797
-0.00307489
-0.000206202
-0.00305196
-0.000247611
-0.00303203
-0.00028893
-0.0030151
-0.00300105
-0.000330079
2.83523e-05
-0.000644778
7.6937e-05
-0.00164269
0.000120473
-0.00236351
0.000146083
-0.0028337
0.000150732
-0.00310512
0.000137075
-0.00323755
0.00010987
-0.00328336
7.37776e-05
-0.00328105
3.24111e-05
-0.00325535
-1.18083e-05
-0.00322039
-5.74209e-05
-0.00318337
-0.000103622
-0.00314748
-0.000150008
-0.00311386
-0.000196412
-0.00308279
-0.000242793
-0.00305431
-0.00028916
-0.00302852
-0.000335514
-0.0030056
-0.000381804
-0.00298574
-0.000427923
-0.00296898
-0.00295521
-0.000473765
2.52061e-05
-0.000669985
6.54731e-05
-0.00168296
9.74996e-05
-0.00239554
0.000110532
-0.00284673
0.000103091
-0.00309768
7.86166e-05
-0.00321307
4.20429e-05
-0.00324679
-2.15054e-06
-0.00323686
-5.06605e-05
-0.00320684
-0.00010136
-0.00316969
-0.000153011
-0.00313172
-0.000204945
-0.00309554
-0.000256837
-0.00306196
-0.000308562
-0.00303106
-0.00036011
-0.00300276
-0.000411529
-0.0029771
-0.000462854
-0.00295428
-0.000514055
-0.00293454
-0.000565008
-0.00291803
-0.00290465
-0.000615569
2.17799e-05
-0.000691764
5.34568e-05
-0.00171464
7.40053e-05
-0.00241609
7.48079e-05
-0.00284753
5.58055e-05
-0.00307868
2.10758e-05
-0.00317834
-2.43806e-05
-0.00320133
-7.63129e-05
-0.00318492
-0.00013173
-0.00315142
-0.000188781
-0.00311264
-0.000246421
-0.00307408
-0.000304097
-0.00303787
-0.000361536
-0.00300453
-0.000418634
-0.00297397
-0.000475402
-0.002946
-0.000531918
-0.00292058
-0.000588262
-0.00289793
-0.000644435
-0.00287837
-0.0007003
-0.00286217
-0.0028493
-0.000755651
1.81208e-05
-0.000709885
4.10362e-05
-0.00173755
5.02343e-05
-0.00242529
3.92084e-05
-0.00283651
9.18173e-06
-0.00304865
-3.52688e-05
-0.00313389
-8.9162e-05
-0.00314744
-0.000148509
-0.00312558
-0.000210627
-0.0030893
-0.000273922
-0.00304935
-0.000337521
-0.00301048
-0.000400965
-0.00297442
-0.000464017
-0.00294147
-0.000526576
-0.00291141
-0.00058865
-0.00288392
-0.000650339
-0.0028589
-0.000711773
-0.0028365
-0.000773003
-0.00281714
-0.000833888
-0.00280128
-0.00278906
-0.000894122
1.42766e-05
-0.000724162
2.83535e-05
-0.00175163
2.64117e-05
-0.00242335
4.00082e-06
-0.00281409
-3.65114e-05
-0.00300814
-9.01703e-05
-0.00308023
-0.000152083
-0.00308552
-0.000218544
-0.00305912
-0.000287172
-0.00302067
-0.000356611
-0.00297991
-0.000426143
-0.00294095
-0.000495393
-0.00290517
-0.000564149
-0.00287272
-0.000632296
-0.00284326
-0.000699817
-0.0028164
-0.000766803
-0.00279191
-0.000833429
-0.00276987
-0.000899812
-0.00275076
-0.000965823
-0.00273527
-0.00272387
-0.00103101
1.02955e-05
-0.000734457
1.55437e-05
-0.00175688
2.74322e-06
-0.00241055
-3.05759e-05
-0.00278078
-8.10347e-05
-0.00295768
-0.000143406
-0.00301786
-0.000212941
-0.00301599
-0.000286226
-0.00298583
-0.000361171
-0.00294573
-0.000436641
-0.00290444
-0.000512067
-0.00286552
-0.000587155
-0.00283009
-0.00066172
-0.00279815
-0.00073563
-0.00276935
-0.000808813
-0.00274322
-0.000881317
-0.00271941
-0.000953326
-0.00269786
-0.00102504
-0.00267905
-0.00109636
-0.00266395
-0.00265351
-0.00116672
6.22527e-06
-0.000740683
2.7328e-06
-0.00175339
-2.05846e-05
-0.00238723
-6.43091e-05
-0.00273705
-0.000124176
-0.00289781
-0.000194775
-0.00294726
-0.000271541
-0.00293922
-0.000351357
-0.00290602
-0.000432407
-0.00286468
-0.000513766
-0.00282308
-0.000595009
-0.00278428
-0.000675933
-0.00274916
-0.000756399
-0.00271769
-0.00083627
-0.00268948
-0.00091542
-0.00266407
-0.000993816
-0.00264101
-0.00107162
-0.00262006
-0.00114912
-0.00260154
-0.00122631
-0.00258677
-0.002577
-0.00130281
2.11175e-06
-0.000742794
-9.9627e-06
-0.00174131
-4.3405e-05
-0.00235379
-9.70119e-05
-0.00268344
-0.000165748
-0.00282908
-0.000244096
-0.00286892
-0.000327699
-0.00285562
-0.000413733
-0.00281998
-0.000500643
-0.00277777
-0.000587701
-0.00273602
-0.000674622
-0.00269736
-0.000761316
-0.00266247
-0.000847725
-0.00263128
-0.000933752
-0.00260345
-0.00101925
-0.00257857
-0.00110411
-0.00255615
-0.00118845
-0.00253573
-0.00127267
-0.00251732
-0.00135699
-0.00250245
-0.00249196
-0.00144203
-2.00165e-06
-0.000740793
-2.2438e-05
-0.00172088
-6.55725e-05
-0.00231065
-0.000128524
-0.00262049
-0.000205592
-0.00275201
-0.000291208
-0.0027833
-0.000381242
-0.00276559
-0.00047315
-0.00272807
-0.000565619
-0.0026853
-0.000658101
-0.00264354
-0.000750459
-0.002605
-0.000842732
-0.00257019
-0.000935007
-0.002539
-0.00102732
-0.00251114
-0.00111962
-0.00248627
-0.0012118
-0.00246397
-0.00130388
-0.00244365
-0.00139622
-0.00242498
-0.00148943
-0.00240924
-0.00239514
-0.00158625
-6.07521e-06
-0.000734717
-3.46015e-05
-0.00169235
-8.69643e-05
-0.00225829
-0.000158716
-0.00254874
-0.000243579
-0.00266715
-0.000335984
-0.00269089
-0.000432027
-0.00266955
-0.000529425
-0.00263067
-0.000627075
-0.00258765
-0.000724585
-0.00254603
-0.000821941
-0.00250765
-0.000919319
-0.00247282
-0.00101699
-0.00244133
-0.00111525
-0.00241287
-0.0012144
-0.00238712
-0.00131463
-0.00236374
-0.00141607
-0.00234221
-0.00151931
-0.00232173
-0.00162671
-0.00230184
-0.00229444
-0.00172742
-1.00612e-05
-0.000724656
-4.63556e-05
-0.00165605
-0.000107459
-0.00219719
-0.000187463
-0.00246874
-0.000279598
-0.00257501
-0.000378319
-0.00259217
-0.000479945
-0.00256792
-0.000582427
-0.00252819
-0.000684831
-0.00248525