1.275 	2.15223e-18 	-2.76991e-20 	-0.151948 	0.00696001 	-2.81963e-22
1.825 	2.15223e-18 	-1.39322e-20 	-0.364157 	0.00683717 	4.22815e-21
2.375 	2.15223e-18 	-2.66896e-23 	-0.459259 	0.00191319 	-2.12109e-21
