1.275 	2.15223e-18 	-2.76991e-20 	-0.151946 	0.00703694 	-2.81963e-22
1.825 	2.15223e-18 	-1.39322e-20 	-0.364147 	0.00684778 	4.22822e-21
2.375 	2.15223e-18 	-2.66896e-23 	-0.459255 	0.00167924 	-2.12115e-21
