/*--------------------------------*- C++ -*----------------------------------*\
  =========                 |
  \\      /  F ield         | OpenFOAM: The Open Source CFD Toolbox
   \\    /   O peration     | Website:  https://openfoam.org
    \\  /    A nd           | Version:  6.0
     \\/     M anipulation  |
\*---------------------------------------------------------------------------*/
FoamFile
{
    version     2.0;
    format      ascii;
    class       surfaceScalarField;
    location    "8.6";
    object      phi;
}
// * * * * * * * * * * * * * * * * * * * * * * * * * * * * * * * * * * * * * //

dimensions      [0 3 -1 0 0 0 0];

internalField   nonuniform List<scalar> 
15760
(
-5.66882e-06
5.61288e-06
5.59447e-08
-1.96036e-05
1.3773e-05
1.6176e-07
-3.97167e-05
1.98519e-05
2.61239e-07
-6.44767e-05
2.44072e-05
3.52844e-07
-9.27386e-05
2.78262e-05
4.35671e-07
-0.000123653
3.04045e-05
5.09651e-07
-0.0001566
3.23715e-05
5.75294e-07
-0.000191141
3.39082e-05
6.33426e-07
-0.000226986
3.51596e-05
6.84979e-07
-0.00026396
3.62438e-05
7.30853e-07
-0.00030199
3.72574e-05
7.71852e-07
-0.000341079
3.82804e-05
8.08652e-07
-0.000381299
3.93782e-05
8.41789e-07
-0.000422774
4.06032e-05
8.71689e-07
-0.000465668
4.19961e-05
8.9871e-07
-0.000510177
4.35859e-05
9.23158e-07
-0.000556512
4.53893e-05
9.45294e-07
-0.000604884
4.74066e-05
9.65262e-07
-0.000655494
4.96273e-05
9.83252e-07
5.20694e-05
9.99617e-07
-0.000708563
-5.51686e-06
1.11297e-05
-1.91077e-05
2.73639e-05
-3.87442e-05
3.94883e-05
-6.2927e-05
4.85899e-05
-9.05272e-05
5.54264e-05
-0.000120701
6.05785e-05
-0.000152828
6.44984e-05
-0.000186464
6.7544e-05
-0.000221307
7.00029e-05
-0.000257173
7.21099e-05
-0.000293974
7.40581e-05
-0.000331701
7.60075e-05
-0.000370413
7.80901e-05
-0.000410222
8.04128e-05
-0.000451286
8.30595e-05
-0.000493792
8.60918e-05
-0.00053795
8.95474e-05
-0.000583974
9.34311e-05
-0.000632072
9.77252e-05
0.000102467
-0.00068247
-5.22133e-06
1.63511e-05
-1.81411e-05
4.02837e-05
-3.68453e-05
5.81926e-05
-5.98972e-05
7.16418e-05
-8.61998e-05
8.1729e-05
-0.000114921
8.93e-05
-0.000145439
9.5016e-05
-0.000177297
9.94022e-05
-0.000210177
0.000102882
-0.00024387
0.000105803
-0.000278264
0.000108452
-0.000313323
0.000111067
-0.000349083
0.000113849
-0.000385632
0.000116962
-0.00042311
0.000120538
-0.000461695
0.000124676
-0.000501592
0.000129445
-0.000543022
0.000134861
-0.000586206
0.000140909
0.000147645
-0.000631385
-4.80184e-06
2.11529e-05
-1.67638e-05
5.22457e-05
-3.4132e-05
7.55607e-05
-5.5558e-05
9.30678e-05
-7.9991e-05
0.000106162
-0.000106617
0.000115926
-0.000134811
0.00012321
-0.000164103
0.000128694
-0.000194148
0.000132927
-0.000224708
0.000136363
-0.000255631
0.000139376
-0.000286848
0.000142284
-0.000318354
0.000145355
-0.000350206
0.000148815
-0.000382518
0.000152849
-0.00041545
0.000157608
-0.000449205
0.0001632
-0.000484014
0.00016967
-0.000520121
0.000177016
0.000185321
-0.000557797
-4.28579e-06
2.54387e-05
-1.50599e-05
6.30198e-05
-3.07618e-05
9.12626e-05
-5.01507e-05
0.000112457
-7.22335e-05
0.000128245
-9.62195e-05
0.000139912
-0.000121484
0.000148475
-0.00014754
0.00015475
-0.000174012
0.0001594
-0.000200624
0.000162974
-0.000227181
0.000165932
-0.000253562
0.000168666
-0.000279718
0.000171511
-0.000305662
0.000174758
-0.000331471
0.000178659
-0.000357284
0.000183422
-0.000383299
0.000189214
-0.000409762
0.000196133
-0.000436957
0.00020421
0.000213569
-0.000465204
-3.70614e-06
2.91448e-05
-1.31316e-05
7.24453e-05
-2.69265e-05
0.000105057
-4.39699e-05
0.0001295
-6.33344e-05
0.000147609
-8.42584e-05
0.000160836
-0.00010612
0.000170337
-0.000128416
0.000177045
-0.000150741
0.000181725
-0.000172774
0.000185008
-0.000194272
0.00018743
-0.000215056
0.00018945
-0.00023502
0.000191474
-0.000254123
0.000193861
-0.000272396
0.000196932
-0.000289949
0.000200974
-0.000306969
0.000206235
-0.000323726
0.00021289
-0.000340557
0.000221041
0.000230877
-0.000357866
-3.09873e-06
3.22435e-05
-1.10905e-05
8.0437e-05
-2.28372e-05
0.000116804
-3.73411e-05
0.000144004
-5.37454e-05
0.000164014
-7.13224e-05
0.000178413
-8.94581e-05
0.000188472
-0.000107636
0.000195223
-0.000125421
0.00019951
-0.000142452
0.000202039
-0.000158429
0.000203407
-0.000173115
0.000204136
-0.000186334
0.000204693
-0.000197981
0.000205508
-0.000208029
0.00020698
-0.000216544
0.00020949
-0.0002237
0.00021339
-0.000229788
0.000218978
-0.000235218
0.000226471
0.000236173
-0.000240513
-2.49944e-06
3.4743e-05
-9.04932e-06
8.69869e-05
-1.87082e-05
0.000126463
-3.05964e-05
0.000155892
-4.39283e-05
0.000177346
-5.80146e-05
0.000192499
-7.22547e-05
0.000202713
-8.61254e-05
0.000209094
-9.91693e-05
0.000212554
-0.000110985
0.000213854
-0.000121221
0.000213643
-0.000129576
0.00021249
-0.000135801
0.000210918
-0.000139713
0.00020942
-0.000141211
0.000208479
-0.000140302
0.000208581
-0.000137127
0.000210216
-0.000131995
0.000213846
-0.0001254
0.000219876
0.000228804
-0.000118031
-1.94144e-06
3.66844e-05
-7.11312e-06
9.21586e-05
-1.47402e-05
0.00013409
-2.40477e-05
0.0001652
-3.4318e-05
0.000187616
-4.49027e-05
0.000203084
-5.52216e-05
0.000213031
-6.47539e-05
0.000218626
-7.3028e-05
0.000220828
-7.96125e-05
0.000220439
-8.41101e-05
0.00021814
-8.61569e-05
0.000214537
-8.5428e-05
0.000210189
-8.16521e-05
0.000205644
-7.46363e-05
0.000201463
-6.43018e-05
0.000198246
-5.07322e-05
0.000196646
-3.42324e-05
0.000197346
-1.53847e-05
0.000201028
0.000208509
4.91018e-06
-1.45259e-06
3.8137e-05
-5.37089e-06
9.60769e-05
-1.11039e-05
0.000139823
-1.79605e-05
0.000172056
-2.52833e-05
0.000194939
-3.24662e-05
0.000210267
-3.89556e-05
0.000219521
-4.42433e-05
0.000223914
-4.78563e-05
0.000224441
-4.93462e-05
0.000221929
-4.82816e-05
0.000217076
-4.42454e-05
0.000210501
-3.68387e-05
0.000202783
-2.56962e-05
0.000194501
-1.05147e-05
0.000186282
8.89898e-06
0.000178833
3.25586e-05
0.000172987
6.02017e-05
0.000169703
9.11758e-05
0.000170054
0.000175357
0.000124327
-1.05346e-06
3.91905e-05
-3.88845e-06
9.89119e-05
-7.92544e-06
0.00014386
-1.25299e-05
0.000176661
-1.70925e-05
0.000199501
-2.10469e-05
0.000214221
-2.38714e-05
0.000222345
-2.50805e-05
0.000225123
-2.42132e-05
0.000223574
-2.08204e-05
0.000218536
-1.44544e-05
0.00021071
-4.66087e-06
0.000200708
9.0206e-06
0.000189101
2.70463e-05
0.000176476
4.98397e-05
0.000163488
7.77372e-05
0.000150935
0.000110897
0.000139826
0.00014916
0.000131441
0.00019185
0.000127364
0.000129667
0.00023754
-7.55731e-07
3.99462e-05
-2.70302e-06
0.000100859
-5.27495e-06
0.000146432
-7.86093e-06
0.000179247
-9.88225e-06
0.000201522
-1.08062e-05
0.000215145
-1.01433e-05
0.000221683
-7.43766e-06
0.000222417
-2.25213e-06
0.000218388
5.84622e-06
0.000210437
1.73012e-05
0.000199255
3.25802e-05
0.000185429
5.21819e-05
0.000169499
7.66343e-05
0.000152023
0.000106475
0.000133648
0.000142197
0.000115213
0.000184148
9.78755e-05
0.000232344
8.32446e-05
0.000286172
7.35363e-05
7.18868e-05
0.000343952
-5.61342e-07
4.05076e-05
-1.81976e-06
0.000102118
-3.1589e-06
0.000147771
-3.9551e-06
0.000180043
-3.6379e-06
0.000201205
-1.69485e-06
0.000213202
2.33688e-06
0.000217651
8.88435e-06
0.00021587
1.8355e-05
0.000208918
3.1154e-05
0.000197638
4.77018e-05
0.000182707
6.84518e-05
0.000164679
9.39063e-05
0.000144045
0.000124627
0.000121303
0.000161228
9.70461e-05
0.000204345
7.20962e-05
0.00025453
4.76913e-05
0.000312042
2.57327e-05
0.000376447
9.13032e-06
2.4311e-06
0.000445903
-4.62272e-07
4.09698e-05
-1.21062e-06
0.000102866
-1.5172e-06
0.000148078
-7.05176e-07
0.000179231
1.81593e-06
0.000198684
6.55914e-06
0.000208459
1.39765e-05
0.000210233
2.44773e-05
0.000205369
3.84455e-05
0.000194949
5.62576e-05
0.000179826
7.82999e-05
0.000160665
0.000104988
0.00013799
0.000136789
0.000112244
0.00017424
8.3852e-05
0.000217966
5.33205e-05
0.000268669
2.13924e-05
0.000327066
-1.07049e-05
0.00039368
-4.08819e-05
0.000468383
-6.55721e-05
-7.85352e-05
0.000549349
-4.40954e-07
4.14108e-05
-8.15503e-07
0.00010324
-2.25192e-07
0.000147487
2.10193e-06
0.000176904
6.81027e-06
0.000193976
1.4443e-05
0.000200826
2.54685e-05
0.000199208
4.0303e-05
0.000190534
5.93286e-05
0.000175924
8.29087e-05
0.000156246
0.000111401
0.000132172
0.000145173
0.000104218
0.000184621
7.27961e-05
0.000230194
3.82789e-05
0.000282425
1.08939e-06
0.000341958
-3.81406e-05
0.000409536
-7.82821e-05
0.000485867
-0.000117213
0.000571196
-0.000150901
-0.000171336
0.000663996
-4.71358e-07
4.18821e-05
-5.45754e-07
0.000103315
8.99353e-07
0.000146042
4.77346e-06
0.00017303
1.18135e-05
0.000186936
2.26304e-05
0.000190009
3.7747e-05
0.000184091
5.76248e-05
0.000170657
8.26814e-05
0.000150867
0.0001133
0.000125627
0.000149836
9.56363e-05
0.000192618
6.14359e-05
0.000241956
2.34583e-05
0.000298155
-1.79203e-05
0.000361548
-6.23033e-05
0.000432543
-0.000109136
0.000511679
-0.000157418
0.000599612
-0.000205147
0.000696864
-0.000248152
-0.000276963
0.000802491
-5.20657e-07
4.24028e-05
-2.89792e-07
0.000103084
2.08485e-06
0.000143668
7.69145e-06
0.000167423
1.74009e-05
0.000177226
3.19355e-05
0.000175475
5.1918e-05
0.000164109
7.79029e-05
0.000144672
0.000110391
0.000118379
0.000149833
8.61854e-05
0.000196621
4.8849e-05
0.000251073
6.98311e-06
0.000313425
-3.88929e-05
0.00038381
-8.83059e-05
0.000462278
-0.000140771
0.000548829
-0.000195688
0.000643515
-0.000252104
0.000746534
-0.000308166
0.000858263
-0.000359881
-0.00039714
0.000978441
-5.51454e-07
4.29542e-05
7.94368e-08
0.000102453
3.59069e-06
0.000140156
1.12871e-05
0.000159727
2.42153e-05
0.000164298
4.32535e-05
0.000156436
6.91722e-05
0.00013819
0.000102667
0.000111177
0.00014437
7.66754e-05
0.000194845
3.57106e-05
0.000254563
-1.08692e-05
0.000323873
-6.2327e-05
0.00040296
-0.000117979
0.000491799
-0.000177145
0.000590124
-0.000239095
0.000697421
-0.000302984
0.000813006
-0.000367689
0.00093618
-0.00043134
0.00106643
-0.00049013
-0.000534648
0.00120394
-5.24431e-07
4.34787e-05
6.95618e-07
0.000101233
5.68932e-06
0.000135163
1.60109e-05
0.000149405
3.29206e-05
0.000147389
5.74937e-05
0.000131863
9.06886e-05
0.000104995
0.00013338
6.84856e-05
0.000186365
2.36908e-05
0.000250346
-2.82704e-05
0.000325901
-8.64243e-05
0.000413436
-0.000149863
0.000513129
-0.000217672
0.000624857
-0.000288873
0.000748114
-0.000362352
0.000881922
-0.000436793
0.00102478
-0.00051055
0.00117471
-0.000581265
0.00132942
-0.000644843
-0.000693895
0.00148867
-4.01227e-07
4.38799e-05
1.68957e-06
9.91423e-05
8.64703e-06
0.000128205
2.23002e-05
0.000135752
4.41533e-05
0.000125535
7.55082e-05
0.000100508
0.000117535
6.29686e-05
0.000171299
1.47214e-05
0.00023776
-4.277e-05
0.000317745
-0.000108256
0.000411916
-0.000180595
0.000520722
-0.000258669
0.00064436
-0.00034131
0.000782728
-0.000427242
0.000935386
-0.000515009
0.00110148
-0.000602885
0.00127959
-0.000688666
0.00146723
-0.000768903
0.00165844
-0.000836055
-0.000870263
0.00183481
-1.47945e-07
4.40278e-05
3.17901e-06
9.58153e-05
1.27042e-05
0.00011868
3.05471e-05
0.000117909
5.84735e-05
9.7609e-05
9.80229e-05
6.09589e-05
0.000150571
1.04202e-05
0.000217347
-5.20539e-05
0.000299411
-0.000124835
0.000397625
-0.00020647
0.000512609
-0.000295578
0.000644708
-0.000390768
0.000793993
-0.000490595
0.000960294
-0.000593543
0.00114331
-0.000698027
0.00134285
-0.000802425
0.00155928
-0.000905098
0.00179469
-0.00100431
0.00205675
-0.00109811
-0.00117805
0.00236454
2.65344e-07
4.37625e-05
5.26545e-06
9.08152e-05
1.80645e-05
0.000105881
4.10762e-05
9.48975e-05
7.63282e-05
6.23571e-05
0.000125582
1.17054e-05
0.000190376
-5.43737e-05
0.000272018
-0.000133696
0.000371546
-0.000224362
0.00048967
-0.000324594
0.000626728
-0.000432637
0.00078266
-0.000546699
0.000957013
-0.000664948
0.001149
-0.000785532
0.00135762
-0.000906649
0.00158183
-0.00102663
0.00182081
-0.00114408
0.00207447
-0.00125796
0.00234402
-0.00136767
-0.00146423
0.0026302
8.59437e-07
4.29031e-05
8.02315e-06
8.36515e-05
2.48776e-05
8.90265e-05
5.41188e-05
6.56563e-05
9.80138e-05
1.8462e-05
0.000158497
-4.87774e-05
0.00023718
-0.000133057
0.000335312
-0.000231829
0.000453711
-0.000342761
0.000592688
-0.000463572
0.000752005
-0.000591953
0.000930855
-0.000725549
0.0011279
-0.000861994
0.00134136
-0.000998986
0.0015691
-0.00113439
0.00180881
-0.00126634
0.0020581
-0.00139337
0.00231463
-0.00151449
0.00257607
-0.0016291
-0.00172936
0.00284119
1.64874e-06
4.12543e-05
1.15025e-05
7.37978e-05
3.32394e-05
6.72895e-05
6.98074e-05
2.90883e-05
0.000123661
-3.5392e-05
0.000196818
-0.000121934
0.000290822
-0.000227061
0.000406664
-0.000347671
0.000544689
-0.000480786
0.000704519
-0.000623402
0.000885027
-0.000772462
0.00108437
-0.000924893
0.00130008
-0.00107771
0.00152921
-0.00122811
0.00176847
-0.00137366
0.00201446
-0.00151233
0.00226371
-0.00164263
0.00251283
-0.0017636
0.00275854
-0.00187482
-0.00197065
0.00299982
2.64164e-06
3.86127e-05
1.57306e-05
6.07088e-05
4.31924e-05
3.98278e-05
8.81723e-05
-1.58916e-05
0.000153226
-0.000100445
0.000240313
-0.000209021
0.000350712
-0.00033746
0.000484901
-0.00048186
0.000642454
-0.000638338
0.000821998
-0.000802946
0.00102125
-0.000971712
0.00123713
-0.00114077
0.00146596
-0.00130653
0.00170369
-0.00146585
0.00194616
-0.00161613
0.00218929
-0.00175546
0.00242926
-0.0018826
0.0026626
-0.00199694
0.0028863
-0.00209852
-0.00218399
0.00309964
3.84225e-06
3.47704e-05
2.07153e-05
4.38358e-05
5.47294e-05
5.81366e-06
0.000109143
-7.03054e-05
0.000186481
-0.000177783
0.000288455
-0.000310995
0.00041582
-0.000464825
0.000568236
-0.000634276
0.000744195
-0.000814297
0.000941055
-0.000999806
0.00115519
-0.00118585
0.00138226
-0.00136784
0.00161749
-0.00154177
0.00185605
-0.00170441
0.00209334
-0.00185342
0.00232523
-0.00198734
0.00254821
-0.00210558
0.00275951
-0.00220823
0.00295707
-0.00229609
-0.00236778
0.00314086
5.25209e-06
2.95183e-05
2.64483e-05
2.26396e-05
6.77977e-05
-3.55358e-05
0.000132552
-0.000135059
0.000223023
-0.000268255
0.000340423
-0.000428396
0.000484678
-0.000609079
0.000654304
-0.000803902
0.000846427
-0.00100642
0.00105695
-0.00121033
0.0012809
-0.00140979
0.00151279
-0.00159973
0.00174714
-0.00177611
0.0019788
-0.00193607
0.00220333
-0.00207794
0.00241714
-0.00220115
0.00261762
-0.00230607
0.00280314
-0.00239375
0.00297289
-0.00246584
-0.00252256
0.00312766
6.87088e-06
2.26474e-05
3.29065e-05
-3.39602e-06
8.22986e-05
-8.49279e-05
0.000158127
-0.000210887
0.000262256
-0.000372384
0.000395095
-0.000561235
0.000555404
-0.000769388
0.000740252
-0.00098875
0.000945195
-0.00121136
0.00116466
-0.0014298
0.00139248
-0.00163761
0.00162243
-0.00182969
0.00184881
-0.00200248
0.00206675
-0.00215402
0.00227254
-0.00228373
0.00246366
-0.00239227
0.00263872
-0.00248113
0.00279738
-0.00255241
0.00294007
-0.00260853
-0.00265088
0.0030684
8.69627e-06
1.39512e-05
4.00499e-05
-3.47497e-05
9.80822e-05
-0.00014296
0.000185486
-0.000298292
0.000303392
-0.000490289
0.000451065
-0.000708908
0.000625767
-0.000944091
0.000822889
-0.00118587
0.00103637
-0.00142484
0.00125932
-0.00165275
0.00148477
-0.00186306
0.0017063
-0.00205122
0.00191858
-0.00221476
0.00211761
-0.00235305
0.00230084
-0.00246697
0.00246708
-0.0025585
0.00261625
-0.00263031
0.0027492
-0.00268536
0.00286734
-0.00272667
-0.00275639
0.00297285
1.07222e-05
3.22897e-06
4.78171e-05
-7.18445e-05
0.000114939
-0.000210082
0.00021413
-0.000397483
0.00034545
-0.000621609
0.000506672
-0.00087013
0.000693289
-0.00113071
0.000898913
-0.0013915
0.001116
-0.00164193
0.00133674
-0.00187349
0.0015539
-0.00208022
0.00176148
-0.00225881
0.00195509
-0.00240836
0.00213199
-0.00252995
0.00229105
-0.00262603
0.00243241
-0.00269986
0.00255716
-0.00275506
0.00266703
-0.00279523
0.00276405
-0.00282369
-0.002843
0.00285066
1.29368e-05
-9.70788e-06
5.6119e-05
-0.000115027
0.00013259
-0.000286553
0.00024343
-0.000508323
0.000387271
-0.00076545
0.000560077
-0.00104294
0.000755408
-0.00132604
0.000965182
-0.00160127
0.00118072
-0.00185747
0.00139384
-0.00208661
0.00159767
-0.00228405
0.0017872
-0.00244833
0.00195935
-0.00258052
0.0021129
-0.0026835
0.00224807
-0.0027612
0.00236617
-0.00281796
0.00246914
-0.00285803
0.00255924
-0.00288532
0.00263875
-0.00290321
-0.00291433
0.00271009
1.53203e-05
-2.50282e-05
6.4834e-05
-0.00016454
0.000150686
-0.000372405
0.000272645
-0.000630282
0.000427566
-0.000920371
0.000609366
-0.00122474
0.000809675
-0.00152635
0.001019
-0.0018106
0.00122806
-0.00206653
0.00142891
-0.00228745
0.00161563
-0.00247077
0.00178459
-0.00261729
0.00193427
-0.0027302
0.00206486
-0.0028141
0.00217779
-0.00287413
0.00227519
-0.00291535
0.0023595
-0.00294234
0.00243316
-0.00295899
0.00249846
-0.00296851
-0.00297343
0.00255755
1.7843e-05
-4.28712e-05
7.38057e-05
-0.000220503
0.000168806
-0.000467405
0.00030094
-0.000762415
0.00046498
-0.00108441
0.000652693
-0.00141245
0.000853966
-0.00172762
0.00105837
-0.002015
0.00125662
-0.00226478
0.00144162
-0.00247246
0.00160886
-0.00263801
0.00175628
-0.00276471
0.00188388
-0.0028578
0.00199309
-0.00292331
0.00208618
-0.00296722
0.00216577
-0.00299494
0.00223448
-0.00301105
0.00229471
-0.00301922
0.00234851
-0.00302231
-0.00302263
0.00239772
2.04652e-05
-6.33363e-05
8.28443e-05
-0.000282882
0.000186475
-0.000571036
0.00032743
-0.000903371
0.000498187
-0.00125517
0.000688422
-0.00160268
0.000886655
-0.00192585
0.0010821
-0.00221044
0.00126612
-0.0024488
0.00143292
-0.00263926
0.00157963
-0.00278472
0.0017058
-0.00289087
0.00181271
-0.00296471
0.00190273
-0.00301332
0.00197863
-0.00304312
0.00204323
-0.00305954
0.00209906
-0.00306689
0.00214831
-0.00306846
0.00219273
-0.00306673
-0.00306368
0.00223378
2.31371e-05
-8.64735e-05
9.17322e-05
-0.000351477
0.00020318
-0.000682483
0.000351231
-0.00105142
0.000525983
-0.00142992
0.000715259
-0.00179196
0.000906731
-0.00211733
0.00108989
-0.00239361
0.00125726
-0.00261617
0.00140468
-0.00278668
0.00153093
-0.00291097
0.001637
-0.00299694
0.00172519
-0.0030529
0.00179842
-0.00308656
0.00185971
-0.00310441
0.00191178
-0.00311162
0.00195697
-0.00311208
0.00199713
-0.00310863
0.00203371
-0.00310331
-0.00309779
0.00206783
2.58007e-05
-0.000112274
0.000100233
-0.000425909
0.000218403
-0.000800654
0.000371523
-0.00120454
0.000547376
-0.00160577
0.000732334
-0.00197692
0.000913825
-0.00229882
0.0010822
-0.00256198
0.00123151
-0.00276547
0.00135934
-0.00291451
0.00146602
-0.00301766
0.00155368
-0.0030846
0.00162531
-0.00312453
0.0016841
-0.00314535
0.00173303
-0.00315334
0.00177462
-0.00315321
0.00181089
-0.00314834
0.00184336
-0.0031411
0.00187319
-0.00313314
-0.00312579
0.00190119
2.83915e-05
-0.000140666
0.000108101
-0.000505619
0.000231647
-0.0009242
0.000387596
-0.00136049
0.000561647
-0.00177982
0.000739242
-0.00215451
0.000908169
-0.00246774
0.0010601
-0.0027139
0.00119083
-0.0028962
0.00129962
-0.00302331
0.00138813
-0.00310617
0.00145928
-0.00315576
0.00151647
-0.00318171
0.0015629
-0.00319178
0.00160136
-0.0031918
0.00163406
-0.00318591
0.00166268
-0.00317696
0.00168846
-0.00316688
0.00171226
-0.00315694
-0.00314823
0.00173469
3.08415e-05
-0.000171507
0.000115099
-0.000589876
0.00024247
-0.00105157
0.000398904
-0.00151692
0.000568389
-0.00194931
0.000736019
-0.00232214
0.000890487
-0.00262221
0.0010251
-0.00284851
0.00113743
-0.00300853
0.00122824
-0.00311412
0.0013002
-0.00317813
0.00135676
-0.00321232
0.00140143
-0.00322638
0.00143726
-0.00322761
0.00146673
-0.00322127
0.00149173
-0.00321091
0.00151362
-0.00319885
0.00153336
-0.00318662
0.00155162
-0.0031752
-0.00316543
0.00156883
3.30822e-05
-0.000204589
0.000121003
-0.000677797
0.000250504
-0.00118107
0.000405085
-0.00167151
0.000567504
-0.00211173
0.000723089
-0.00247773
0.000861868
-0.00276099
0.000978934
-0.00296558
0.00107355
-0.00310315
0.00114772
-0.00318828
0.00120481
-0.00323522
0.00124855
-0.00325607
0.00128234
-0.00326016
0.00130898
-0.00325425
0.0013306
-0.00324289
0.00134876
-0.00322907
0.00136455
-0.00321464
0.00137871
-0.00320078
0.00139173
-0.00318822
-0.00317761
0.00140391
3.50479e-05
-0.000239637
0.000125623
-0.000768372
0.00025548
-0.00131093
0.000405974
-0.001822
0.000559175
-0.00226493
0.000701172
-0.00261973
0.000823623
-0.00288344
0.000923425
-0.00306538
0.00100133
-0.00318105
0.00106029
-0.00324725
0.00110414
-0.00327907
0.0011366
-0.00328853
0.00116086
-0.00328443
0.0011794
-0.00327279
0.00119401
-0.0032575
0.00120594
-0.003241
0.00121605
-0.00322474
0.0012249
-0.00320962
0.00123285
-0.00319618
-0.00318489
0.00124013
3.66824e-05
-0.00027632
0.000128809
-0.000860499
0.000257246
-0.00143937
0.000401607
-0.00196636
0.000543834
-0.00240716
0.000671211
-0.0027471
0.000777181
-0.00298941
0.00086035
-0.00314855
0.000922712
-0.00324341
0.000967907
-0.00329245
0.000999943
-0.0033111
0.00102242
-0.00331101
0.00103823
-0.00330024
0.0010495
-0.00328405
0.00105769
-0.0032657
0.00106381
-0.00324712
0.00106851
-0.00322944
0.00107222
-0.00321334
0.00107522
-0.00319918
-0.00318733
0.00107766
3.79268e-05
-0.000314247
0.000130439
-0.000953011
0.000255725
-0.00156465
0.000392147
-0.00210278
0.000522044
-0.00253705
0.000634213
-0.00285927
0.000723923
-0.00307912
0.000791312
-0.00321594
0.000839352
-0.00329145
0.000872107
-0.0033252
0.000893585
-0.00333258
0.000907147
-0.00332457
0.000915335
-0.00330843
0.000919934
-0.00328865
0.000922134
-0.0032679
0.000922711
-0.00324769
0.000922171
-0.0032289
0.000920848
-0.00321201
0.000918947
-0.00319728
-0.00318496
0.000916572
3.87429e-05
-0.000352989
0.000130455
-0.00104472
0.000250971
-0.00168517
0.000377926
-0.00222974
0.000494523
-0.00265365
0.000591274
-0.00295602
0.000665211
-0.00315306
0.000717788
-0.00326852
0.000752693
-0.00332636
0.000774196
-0.00334671
0.000786163
-0.00334455
0.000791646
-0.00333005
0.000792838
-0.00330962
0.000791207
-0.00328702
0.0007877
-0.00326439
0.000782917
-0.00324291
0.000777246
-0.00322323
0.000770944
-0.00320571
0.000764169
-0.0031905
-0.00317778
0.000756996
3.90999e-05
-0.000392089
0.000128839
-0.00113446
0.000243115
-0.00179944
0.000359366
-0.00234599
0.000462037
-0.00275632
0.000543455
-0.00303744
0.000602281
-0.00321188
0.000641044
-0.00330728
0.000663917
-0.00334923
0.000675194
-0.00335798
0.000678506
-0.00334786
0.000676563
-0.00332811
0.00067122
-0.00330427
0.000663669
-0.00327947
0.000654649
-0.00325537
0.00064462
-0.00323288
0.000633879
-0.00321249
0.000622628
-0.00319446
0.00061099
-0.00317887
-0.00316582
0.000599025
3.89793e-05
-0.000431069
0.000125619
-0.0012211
0.000232359
-0.00190619
0.000336951
-0.00245058
0.000425367
-0.00284474
0.000491756
-0.00310383
0.000536228
-0.00325636
0.000562154
-0.00333321
0.000573982
-0.00336106
0.000575901
-0.0033599
0.000571241
-0.0033432
0.000562369
-0.00331924
0.000550828
-0.00329273
0.000537571
-0.00326621
0.000523166
-0.00324097
0.000507961
-0.00321768
0.000492187
-0.00319672
0.000476001
-0.00317827
0.000459507
-0.00316237
-0.00314906
0.000442751
3.83745e-05
-0.000469443
0.000120856
-0.00130358
0.000218958
-0.00200429
0.000311199
-0.00254282
0.000385275
-0.00291881
0.00043709
-0.00315564
0.000468006
-0.00328727
0.000482011
-0.00334721
0.000483658
-0.00336271
0.000476934
-0.00335318
0.00046484
-0.00333111
0.00044941
-0.00330381
0.000431913
-0.00327524
0.000413096
-0.00324739
0.00039339
-0.00322126
0.000373055
-0.00319734
0.000352266
-0.00317593
0.000331154
-0.00315716
0.000309805
-0.00314102
-0.00312752
0.000288264
3.72901e-05
-0.000506733
0.000114649
-0.00138094
0.000203202
-0.00209284
0.000282635
-0.00262226
0.000342479
-0.00297866
0.000380276
-0.00319344
0.000398429
-0.00330543
0.000401347
-0.00335013
0.000393553
-0.00335491
0.000378768
-0.00333839
0.000359655
-0.00331199
0.000337941
-0.00328209
0.000314656
-0.00325195
0.000290378
-0.00322312
0.000265426
-0.00319631
0.000239989
-0.0031719
0.000214199
-0.00315014
0.000188163
-0.00313112
0.000161962
-0.00311482
-0.0031012
0.000135641
3.57409e-05
-0.000542474
0.000107115
-0.00145232
0.0001854
-0.00217113
0.000251774
-0.00268863
0.000297638
-0.00302452
0.000322027
-0.00321783
0.000328181
-0.00331158
0.000320756
-0.0033427
0.000304146
-0.0033383
0.000281764
-0.00331601
0.000255948
-0.00328618
0.000228148
-0.00325429
0.000199191
-0.003223
0.000169518
-0.00319344
0.000139356
-0.00316615
0.000108835
-0.00314138
7.80511e-05
-0.00311935
4.70948e-05
-0.00310017
1.6046e-05
-0.00308377
-0.00307011
-1.50448e-05
3.37503e-05
-0.000576224
9.83919e-05
-0.00151696
0.00016587
-0.0022386
0.000219104
-0.00274186
0.000251348
-0.00305676
0.000262961
-0.00322944
0.000257831
-0.00330645
0.00024072
-0.00332559
0.000215812
-0.00331339
0.000186203
-0.0032864
0.00015392
-0.00325389
0.000120172
-0.00322054
8.562e-05
-0.00318844
5.05923e-05
-0.00315842
1.52423e-05
-0.0031308
-2.03511e-05
-0.00310579
-5.6122e-05
-0.00308358
-9.1995e-05
-0.00306429
-0.000127886
-0.00304788
-0.00303426
-0.000163734
3.13496e-05
-0.000607574
8.86291e-05
-0.00157424
0.000144923
-0.0022949
0.000185079
-0.00278202
0.000204137
-0.00307582
0.000203609
-0.00322891
0.000187854
-0.00329069
0.000161625
-0.00329936
0.00012885
-0.00328062
9.23013e-05
-0.00324985
5.37243e-05
-0.00321532
1.41218e-05
-0.00318094
-2.5982e-05
-0.00314834
-6.63443e-05
-0.00311805
-0.000106872
-0.00309027
-0.00014753
-0.00306513
-0.000188284
-0.00304283
-0.000229071
-0.00302351
-0.000269798
-0.00300716
-0.00299367
-0.000310385
2.85755e-05
-0.00063615
7.79807e-05
-0.00162364
0.000122862
-0.00233978
0.000150117
-0.00280928
0.000156474
-0.00308218
0.000144421
-0.00321686
0.000118643
-0.00326492
8.37902e-05
-0.00326451
4.35022e-05
-0.00324033
2.37476e-07
-0.00320659
-4.4511e-05
-0.00317057
-8.9914e-05
-0.00313554
-0.000135553
-0.0031027
-0.00018125
-0.00307236
-0.000226958
-0.00304456
-0.000272684
-0.0030194
-0.000318425
-0.00299709
-0.00036413
-0.0029778
-0.000409694
-0.00296159
-0.00294836
-0.000455012
2.54697e-05
-0.000661619
6.6603e-05
-0.00166478
9.99749e-05
-0.00237315
0.000114596
-0.0028239
0.000108765
-0.00307635
8.57835e-05
-0.00319388
5.05281e-05
-0.00322966
7.47978e-06
-0.00322146
-4.00285e-05
-0.00319282
-8.9835e-05
-0.00315678
-0.000140672
-0.00311973
-0.000191852
-0.00308436
-0.000243036
-0.00305152
-0.000294091
-0.0030213
-0.000345003
-0.00299365
-0.000395815
-0.00296859
-0.000446562
-0.00294634
-0.000497213
-0.00292715
-0.000547645
-0.00291116
-0.00289829
-0.000597714
2.20771e-05
-0.000683696
5.46504e-05
-0.00169735
7.65295e-05
-0.00239503
7.88566e-05
-0.00282622
6.13699e-05
-0.00305886
2.80285e-05
-0.00316054
-1.62072e-05
-0.00318543
-6.70767e-05
-0.00317059
-0.000121559
-0.00313834
-0.00017777
-0.00310057
-0.000234641
-0.00306286
-0.0002916
-0.0030274
-0.000348367
-0.00299475
-0.00040483
-0.00296484
-0.000460995
-0.00293748
-0.000516936
-0.00291265
-0.000572733
-0.00289054
-0.000628387
-0.0028715
-0.000683762
-0.00285578
-0.0028434
-0.000738652
1.84449e-05
-0.000702141
4.22735e-05
-0.00172118
5.27758e-05
-0.00240553
4.32062e-05
-0.00281665
1.46031e-05
-0.00303026
-2.85552e-05
-0.00311738
-8.13147e-05
-0.00313267
-0.000139671
-0.00311224
-0.000200913
-0.0030771
-0.000263415
-0.00303807
-0.000326284
-0.00299999
-0.000389046
-0.00296464
-0.000451458
-0.00293234
-0.000513412
-0.00290288
-0.000574914
-0.00287598
-0.000636059
-0.00285151
-0.000696975
-0.00282963
-0.000757712
-0.00281076
-0.000818134
-0.00279536
-0.0027836
-0.000877935
1.46214e-05
-0.000716763
2.96169e-05
-0.00173617
2.89441e-05
-0.00240486
7.91904e-06
-0.00279563
-3.12574e-05
-0.00299108
-8.37122e-05
-0.00306493
-0.00014457
-0.00307181
-0.000210105
-0.0030467
-0.000277908
-0.0030093
-0.000346595
-0.00296938
-0.000415433
-0.00293116
-0.000484032
-0.00289604
-0.000552177
-0.00286419
-0.000619748
-0.00283531
-0.000686724
-0.00280901
-0.000753193
-0.00278504
-0.000819327
-0.00276349
-0.000885244
-0.00274484
-0.000950815
-0.00272979
-0.00271882
-0.0010156
1.06555e-05
-0.000727418
1.68179e-05
-0.00174233
5.24504e-06
-0.00239329
-2.67592e-05
-0.00276362
-7.59654e-05
-0.00294187
-0.000137214
-0.00300368
-0.000205763
-0.00300326
-0.00027818
-0.00297428
-0.000352345
-0.00293513
-0.000427102
-0.00289462
-0.000501866
-0.00285639
-0.000576332
-0.00282157
-0.000650313
-0.00279021
-0.00072367
-0.00276196
-0.000796334
-0.00273634
-0.000868346
-0.00271302
-0.000939888
-0.00269195
-0.00101116
-0.00267357
-0.00108206
-0.00265889
-0.00264884
-0.00115203
6.59513e-06
-0.000734013
4.00494e-06
-0.00173974
-1.81307e-05
-0.00237115
-6.06105e-05
-0.00272114
-0.000119303
-0.00288318
-0.000188853
-0.00293413
-0.000264696
-0.00292742
-0.000343695
-0.00289529
-0.000424008
-0.00285482
-0.00050469
-0.00281394
-0.0005853
-0.00277578
-0.000665628
-0.00274124
-0.000745534
-0.00271031
-0.000824876
-0.00268261
-0.000903528
-0.00265769
-0.000981455
-0.0026351
-0.00105881
-0.00261459
-0.00113589
-0.00259649
-0.00121268
-0.00258211
-0.00257271
-0.00128881
2.48703e-06
-0.0007365
-8.70337e-06
-0.00172855
-4.10127e-05
-0.00233884
-9.34433e-05
-0.00266871
-0.000161078
-0.00281555
-0.000238445
-0.00285676
-0.000321182
-0.00284468
-0.000406447
-0.00281002
-0.000492659
-0.00276861
-0.000579071
-0.00272753
-0.000665388
-0.00268946
-0.000751511
-0.00265512
-0.000837381
-0.00262444
-0.0009229
-0.0025971
-0.00100792
-0.00257267
-0.00109233
-0.00255069
-0.00117623
-0.00253069
-0.00126004
-0.00251268
-0.00134398
-0.00249818
-0.00248805
-0.00142863
-1.62489e-06
-0.000734876
-2.12003e-05
-0.00170898
-6.32521e-05
-0.00229679
-0.000125094
-0.00260687
-0.000201128
-0.00273951
-0.000285825
-0.00277206
-0.000375046
-0.00275546
-0.000466228
-0.00271884
-0.000558035
-0.0026768
-0.000649903
-0.00263566
-0.000741683
-0.00259768
-0.000833411
-0.00256339
-0.000925168
-0.00253268
-0.00101699
-0.00250527
-0.00110883
-0.00248084
-0.00120057
-0.00245895
-0.00129222
-0.00243903
-0.00138417
-0.00242074
-0.00147698
-0.00240536
-0.00239161
-0.00157342
-5.70033e-06
-0.000729175
-3.33923e-05
-0.00168129
-8.47233e-05
-0.00224546
-0.000155428
-0.00253617
-0.000239322
-0.00265562
-0.000330865
-0.00268052
-0.000426143
-0.00266018
-0.000522855
-0.00262213
-0.000619877
-0.00257978
-0.000716803
-0.00253874
-0.000813609
-0.00250088
-0.000910467
-0.00246653
-0.00100764
-0.00243551
-0.00110543
-0.00240748
-0.00120413
-0.00238214
-0.00130393
-0.00235915
-0.00140496
-0.002338
-0.0015078
-0.0023179
-0.00161479
-0.00229837
-0.00229122
-0.00171518
-9.69111e-06
-0.000719484
-4.51804e-05
-0.0016458
-0.000105302
-0.00218534
-0.00018432
-0.00245715
-0.000275544
-0.00256439
-0.000373456
-0.00258261
-0.000474362
-0.00255927
-0.000576195
-0.00252029
-0.000678004