/*--------------------------------*- C++ -*----------------------------------*\
  =========                 |
  \\      /  F ield         | OpenFOAM: The Open Source CFD Toolbox
   \\    /   O peration     | Website:  https://openfoam.org
    \\  /    A nd           | Version:  6.0
     \\/     M anipulation  |
\*---------------------------------------------------------------------------*/
FoamFile
{
    version     2.0;
    format      ascii;
    class       volVectorField;
    location    "52";
    object      U;
}
// * * * * * * * * * * * * * * * * * * * * * * * * * * * * * * * * * * * * * //

dimensions      [0 1 -1 0 0 0 0];

internalField   nonuniform List<vector> 
8000
(
(-0.000432272 0.00217257 -3.24691e-21)
(-0.00229412 0.0054911 1.73578e-20)
(-0.00570095 0.00800464 -2.11069e-20)
(-0.00987437 0.00988638 1.60711e-20)
(-0.0144 0.0112775 7.82424e-21)
(-0.0190383 0.0122969 -2.34982e-20)
(-0.0236176 0.0130445 -2.07594e-21)
(-0.0280264 0.0136026 -7.35151e-22)
(-0.0322037 0.0140377 -1.21944e-20)
(-0.0361258 0.014402 -6.60531e-21)
(-0.0397965 0.0147363 4.92654e-21)
(-0.0432393 0.0150708 1.87201e-20)
(-0.0464919 0.015427 -1.40204e-21)
(-0.0496003 0.0158196 2.00645e-21)
(-0.0526159 0.0162566 -1.88544e-20)
(-0.0555984 0.0167413 1.16174e-20)
(-0.0586082 0.0172724 -1.6641e-20)
(-0.061636 0.0178464 2.51852e-20)
(-0.0645809 0.0184578 -2.82898e-23)
(-0.0679329 0.0190881 5.42869e-21)
(-0.000562934 0.00308004 1.07898e-20)
(-0.00260101 0.00777588 -5.51545e-20)
(-0.00610024 0.0112676 -3.80835e-20)
(-0.0103074 0.013808 -2.58521e-20)
(-0.0148228 0.0156046 -3.3258e-20)
(-0.0194173 0.0168333 7.31068e-21)
(-0.0239263 0.0176447 -3.83848e-20)
(-0.0282443 0.018165 -8.61817e-21)
(-0.0323142 0.0184985 2.72425e-21)
(-0.036115 0.0187299 2.86735e-20)
(-0.0396527 0.0189269 -3.12819e-20)
(-0.0429523 0.0191425 4.35136e-20)
(-0.0460531 0.0194167 -3.25854e-20)
(-0.0490022 0.0197786 -3.86389e-20)
(-0.0518527 0.020247 -5.32406e-20)
(-0.0546659 0.0208317 3.40037e-20)
(-0.0575043 0.0215348 -1.10029e-20)
(-0.060361 0.0223546 -4.00359e-20)
(-0.0631356 0.0232893 3.78519e-20)
(-0.0663162 0.0243001 -2.80587e-20)
(-0.000764887 0.00395945 1.05585e-19)
(-0.00309033 0.00999205 5.464e-20)
(-0.00676402 0.0144329 6.14454e-20)
(-0.0110595 0.0176106 5.11298e-21)
(-0.0155949 0.019796 3.39545e-20)
(-0.0201535 0.0212203 4.23468e-20)
(-0.0245812 0.022083 -7.70102e-20)
(-0.0287799 0.0225531 -4.07601e-20)
(-0.0326986 0.0227719 -5.30931e-20)
(-0.0363206 0.0228557 5.6651e-20)
(-0.0396549 0.0228994 -4.32741e-20)
(-0.0427295 0.0229789 -5.56875e-20)
(-0.045586 0.0231533 -2.02914e-20)
(-0.0482744 0.0234669 1.92612e-20)
(-0.0508508 0.0239502 -5.35229e-21)
(-0.0533797 0.0246211 7.71462e-21)
(-0.0559283 0.0254854 8.93558e-20)
(-0.0584938 0.026545 -1.25661e-20)
(-0.0609763 0.0278022 -9.08514e-20)
(-0.0638654 0.0291987 1.19511e-19)
(-0.001036 0.00480907 3.67598e-20)
(-0.00375708 0.0121322 -5.18674e-20)
(-0.00768569 0.0174862 -1.29949e-20)
(-0.0121234 0.021272 2.43472e-20)
(-0.0167085 0.023822 6.90703e-20)
(-0.0212397 0.0254203 1.51165e-19)
(-0.0255755 0.0263137 1.47695e-19)
(-0.0296282 0.0267125 1.22768e-20)
(-0.0333538 0.0267937 9.0549e-20)
(-0.0367415 0.0267048 1.38591e-19)
(-0.0398045 0.0265677 -1.10715e-19)
(-0.0425745 0.0264815 1.63866e-19)
(-0.0450965 0.0265253 -3.71248e-20)
(-0.0474245 0.0267599 9.3585e-21)
(-0.0496188 0.0272295 3.87524e-20)
(-0.0517494 0.0279615 5.15065e-20)
(-0.0538898 0.0289677 -8.10695e-20)
(-0.056044 0.0302547 -6.76763e-20)
(-0.058113 0.0318314 -1.19751e-19)
(-0.0605917 0.0336198 1.73977e-19)
(-0.00137443 0.00562796 -1.92103e-20)
(-0.00459628 0.0141906 -1.96517e-19)
(-0.00885777 0.0204151 -5.81024e-20)
(-0.0134896 0.0247732 -1.41569e-19)
(-0.0181526 0.0276565 5.35341e-20)
(-0.0226641 0.0294003 -8.43728e-20)
(-0.0268981 0.0302967 2.9036e-20)
(-0.0307786 0.0305953 -1.78675e-19)
(-0.0342711 0.0305077 9.42709e-20)
(-0.0373713 0.0302115 -1.12386e-19)
(-0.0400979 0.029855 -9.99356e-20)
(-0.0424866 0.0295612 -1.11908e-19)
(-0.0445869 0.0294303 1.01571e-19)
(-0.0464571 0.0295417 -9.12211e-20)
(-0.0481633 0.0299552 1.27002e-19)
(-0.0497824 0.0307106 3.67153e-20)
(-0.0513969 0.0318285 9.08942e-20)
(-0.0530198 0.033323 3.98771e-20)
(-0.0545543 0.0352122 -1.58002e-19)
(-0.0565058 0.0373995 2.5684e-19)
(-0.00177862 0.00641583 8.46979e-20)
(-0.00560278 0.0161625 6.50649e-21)
(-0.0102714 0.0232092 3.48692e-20)
(-0.0151456 0.0280974 1.21627e-19)
(-0.0199118 0.0312771 -1.85943e-20)
(-0.024409 0.0331325 1.97457e-19)
(-0.0285295 0.0339987 8.76386e-20)
(-0.0322117 0.0341628 7.36878e-21)
(-0.0354319 0.0338685 2.25272e-19)
(-0.0381937 0.0333222 7.38004e-20)
(-0.0405213 0.0326984 3.50138e-20)
(-0.0424555 0.032144 1.11109e-19)
(-0.0440499 0.0317812 1.0185e-19)
(-0.045368 0.0317103 1.8595e-19)
(-0.0464822 0.0320101 -1.66207e-19)
(-0.047478 0.0327364 2.35013e-19)
(-0.0484491 0.0339226 3.13675e-21)
(-0.0494206 0.0355943 -3.00459e-19)
(-0.0503002 0.0377833 3.89607e-19)
(-0.0516104 0.0403756 1.61411e-19)
(-0.00224728 0.00717263 -4.99231e-20)
(-0.00677086 0.0180439 -9.05882e-20)
(-0.0119152 0.025859 -1.88414e-19)
(-0.0170741 0.0312303 -5.57343e-21)
(-0.0219631 0.0346651 3.21481e-20)
(-0.0264468 0.0365947 -2.4049e-19)
(-0.0304387 0.0373946 -1.78385e-19)
(-0.0338942 0.0373865 -2.55158e-20)
(-0.036802 0.0368441 -2.25587e-19)
(-0.0391747 0.0360003 -1.56168e-19)
(-0.0410429 0.0350544 -4.5508e-20)
(-0.0424518 0.0341766 -1.46541e-19)
(-0.0434592 0.0335128 -2.38449e-21)
(-0.0441337 0.0331862 -1.9462e-19)
(-0.0445544 0.033298 8.18826e-20)
(-0.0448163 0.0339254 -9.34155e-20)
(-0.0450268 0.0351198 7.16192e-20)
(-0.0452263 0.0369247 -9.10871e-20)
(-0.0453305 0.0393921 -2.60445e-19)
(-0.0458881 0.0423934 -7.90393e-20)
(-0.00277917 0.00789813 -1.83662e-20)
(-0.0080936 0.0198301 -1.9944e-20)
(-0.0137743 0.0283551 1.57984e-19)
(-0.0192513 0.0341585 -2.57073e-19)
(-0.024274 0.0378045 3.7718e-20)
(-0.0287364 0.0397698 -1.48456e-19)
(-0.0325774 0.0404676 7.01398e-20)
(-0.035772 0.0402507 3.15207e-19)
(-0.0383234 0.0394192 -2.02337e-20)
(-0.0402542 0.0382299 -2.35103e-19)
(-0.0416016 0.0369042 4.27181e-20)
(-0.0424151 0.0356351 8.27912e-21)
(-0.0427562 0.0345918 -4.82741e-20)
(-0.0426976 0.0339227 4.86178e-21)
(-0.0423248 0.0337556 4.24129e-19)
(-0.0417429 0.0341948 -6.03699e-20)
(-0.041075 0.0353173 -1.17865e-19)
(-0.04038 0.0371932 -2.11565e-19)
(-0.0395871 0.039905 2.15796e-19)
(-0.0392837 0.0433139 9.30549e-20)
(-0.00337279 0.00859128 9.27487e-20)
(-0.0095619 0.0215152 -1.21329e-19)
(-0.0158285 0.0306868 1.71523e-19)
(-0.0216444 0.0368683 1.72635e-19)
(-0.0267983 0.0406812 1.59123e-19)
(-0.0312191 0.0426456 3.22591e-19)
(-0.0348747 0.0432091 2.0856e-19)
(-0.0377632 0.0427519 -4.48097e-19)
(-0.0399046 0.0415965 2.29135e-19)
(-0.0413331 0.0400193 1.79772e-19)
(-0.0420929 0.0382604 -2.55426e-21)
(-0.0422376 0.0365328 2.0122e-19)
(-0.0418313 0.035028 1.56884e-19)
(-0.0409494 0.0339206 -8.53397e-20)
(-0.0396827 0.0333689 2.8845e-19)
(-0.038146 0.0335107 -3.57584e-19)
(-0.0364794 0.0344582 1.43181e-19)
(-0.0347642 0.03632 1.84193e-19)
(-0.0329488 0.0392239 -4.29608e-20)
(-0.0316775 0.0430303 3.70284e-19)
(-0.00402593 0.0092496 1.86383e-19)
(-0.0111634 0.0230901 9.65136e-21)
(-0.0180504 0.0328404 -6.68825e-20)
(-0.0242089 0.0393442 -7.06321e-20)
(-0.0294733 0.0432809 -3.27016e-19)
(-0.033813 0.0452122 4.63228e-20)
(-0.0372298 0.0456171 1.31156e-19)
(-0.0397488 0.0448989 -6.30822e-20)
(-0.0414096 0.0433975 5.20239e-20)
(-0.0422598 0.0414037 -1.38037e-20)
(-0.0423519 0.0391714 -6.7944e-20)
(-0.0417434 0.0369287 6.44875e-20)
(-0.0405 0.0348867 -2.80427e-19)
(-0.0386983 0.0332452 2.68819e-19)
(-0.0364321 0.0321949 -2.32903e-19)
(-0.0338249 0.0319134 7.19407e-20)
(-0.0310341 0.0325588 1.6379e-19)
(-0.0281657 0.0342944 -3.4063e-20)
(-0.0251955 0.0373145 -1.13376e-19)
(-0.0228481 0.0414932 -7.71253e-20)
(-0.0047351 0.00986858 -2.32139e-19)
(-0.0128812 0.0245419 -1.52601e-20)
(-0.0204041 0.0347977 4.88816e-20)
(-0.0268864 0.0415666 1.25642e-19)
(-0.0322161 0.0455864 -1.77385e-19)
(-0.0364091 0.0474596 -1.54753e-19)
(-0.0395066 0.0476932 3.61117e-19)
(-0.0415645 0.0467093 -1.99556e-19)
(-0.042646 0.04486 -1.2869e-19)
(-0.0428147 0.0424444 -1.84602e-19)
(-0.0421332 0.0397235 1.22196e-19)
(-0.0406639 0.0369344 -3.32291e-21)
(-0.0384737 0.0343014 -2.28166e-19)
(-0.035639 0.032045 -3.73267e-19)
(-0.0322541 0.0303877 2.84371e-19)
(-0.0284489 0.0295505 -2.30482e-19)
(-0.0243968 0.0297479 3.26829e-19)
(-0.0202305 0.031217 -9.15586e-20)
(-0.0159597 0.0342475 1.92775e-19)
(-0.0124218 0.0387524 -6.54023e-19)
(-0.00549494 0.0104414 -4.70095e-19)
(-0.0146926 0.0258527 3.08247e-19)
(-0.0228433 0.0365348 4.19211e-20)
(-0.0296027 0.0435096 8.10812e-21)
(-0.0349211 0.0475752 -1.89988e-19)
(-0.0388675 0.0493737 2.79365e-19)
(-0.0415274 0.0494377 3.04756e-20)
(-0.0429928 0.0482043 -5.72649e-20)
(-0.0433541 0.0460326 -1.83733e-19)
(-0.0426949 0.0432239 1.98596e-19)
(-0.0410907 0.0400388 5.03375e-19)
(-0.0386115 0.0367146 -1.1122e-19)
(-0.0353266 0.0334798 2.51215e-19)
(-0.0313118 0.0305673 -2.96764e-19)
(-0.0266605 0.0282244 -2.84557e-19)
(-0.0215055 0.0267144 1.71139e-19)
(-0.0160343 0.0263145 2.82908e-19)
(-0.010405 0.0273554 -9.16632e-19)
(-0.00466616 0.0302601 1.07607e-19)
(0.000191946 0.0350171 1.46387e-19)
(-0.00629781 0.0109588 3.48099e-19)
(-0.0165684 0.0269995 1.14514e-19)
(-0.0253103 0.0380209 5.96495e-19)
(-0.0322664 0.0451399 3.06861e-20)
(-0.0374584 0.0492165 -6.63102e-20)
(-0.0410145 0.0509323 -3.15727e-19)
(-0.04307 0.0508441 2.68518e-19)
(-0.0437573 0.049401 4.81571e-19)
(-0.0431986 0.0469654 3.2074e-19)
(-0.0415018 0.0438351 2.31483e-19)
(-0.0387603 0.0402634 1.99489e-19)
(-0.0350556 0.0364784 -3.58298e-19)
(-0.0304636 0.0327012 -1.12238e-19)
(-0.0250621 0.0291635 -8.26007e-20)
(-0.0189438 0.0261242 8.8552e-19)
(-0.012243 0.0238778 -3.05296e-21)
(-0.00515827 0.0227619 -2.2074e-19)
(0.00213085 0.0232145 -6.96572e-20)
(0.00953951 0.0258346 6.33517e-19)
(0.0158767 0.0307393 8.2658e-20)
(-0.00713342 0.0114094 -1.71624e-20)
(-0.0184721 0.0279547 -3.29313e-19)
(-0.0277351 0.0392184 -4.89901e-19)
(-0.0347683 0.0464153 -1.36303e-19)
(-0.0396729 0.0504689 7.52723e-20)
(-0.0426421 0.0521012 1.62303e-20)
(-0.0438659 0.0518925 4.29583e-19)
(-0.0435206 0.050303 -5.32743e-19)
(-0.0417647 0.0476966 -2.02611e-19)
(-0.0387351 0.0443646 -4.08161e-19)
(-0.0345486 0.0405479 -3.47552e-19)
(-0.0293055 0.0364574 -3.07625e-19)
(-0.0230953 0.0322949 7.69075e-20)
(-0.016005 0.0282745 -9.98067e-20)
(-0.00813207 0.0246458 4.2768e-19)
(0.000385355 0.021712 -2.34508e-19)
(0.0093386 0.0198514 -7.34932e-19)
(0.018533 0.0196069 -1.48281e-19)
(0.027862 0.0217926 3.62673e-19)
(0.0358876 0.0267188 -3.16541e-19)
(-0.00798887 0.0117808 -5.55348e-20)
(-0.0203596 0.0286872 4.02816e-19)
(-0.0300357 0.0400846 -5.13734e-19)
(-0.036981 0.047286 1.18737e-19)
(-0.0413844 0.0512805 -2.44507e-19)
(-0.0435088 0.0528318 5.44608e-19)
(-0.0436016 0.0525448 -3.89132e-19)
(-0.0418864 0.050892 4.45069e-19)
(-0.0385605 0.0482393 -4.21925e-19)
(-0.0337945 0.0448722 1.79935e-19)
(-0.0277347 0.0410183 -8.73553e-20)
(-0.0205085 0.0368682 -2.19146e-19)
(-0.0122306 0.0325961 -2.70644e-19)
(-0.00301001 0.0283836 2.69692e-19)
(0.00703798 0.0244469 -2.25793e-19)
(0.0177606 0.0210639 -4.93601e-19)
(0.0289322 0.018612 5.13935e-19)
(0.0403475 0.0177053 -6.55407e-19)
(0.051911 0.0193881 2.95022e-19)
(0.0619128 0.0242248 8.30703e-21)
(-0.00884883 0.0120601 -5.03644e-19)
(-0.0221798 0.0291646 -5.43887e-19)
(-0.0321182 0.0405731 6.26614e-20)
(-0.0387598 0.0476966 -5.24458e-19)
(-0.0423887 0.0515907 -4.66654e-20)
(-0.0433405 0.0530629 -3.8564e-19)
(-0.0419218 0.0527449 -8.84518e-20)
(-0.0384043 0.0511236 -2.58418e-19)
(-0.0330254 0.0485712 2.30243e-21)
(-0.0259917 0.0453721 -1.1301e-19)
(-0.0174847 0.0417457 7.97079e-21)
(-0.00766802 0.0378661 -3.25425e-19)
(0.00330507 0.0338809 3.58524e-19)
(0.0152849 0.0299332 -5.08531e-19)
(0.0281154 0.0261878 1.80119e-19)
(0.0416055 0.022861 6.79278e-21)
(0.0554902 0.0202695 -2.86598e-19)
(0.0695431 0.0190203 7.10863e-19)
(0.0837314 0.0203452 -1.69567e-19)
(0.0961078 0.0250816 -1.10569e-19)
(-0.00969599 0.0122354 5.65466e-19)
(-0.0238745 0.0293555 3.05372e-19)
(-0.0338757 0.0406383 2.8403e-19)
(-0.0399415 0.047591 4.23997e-20)
(-0.0424567 0.0513363 3.84071e-19)
(-0.0418319 0.0527272 5.53423e-19)
(-0.0384324 0.0524241 4.53026e-19)
(-0.0325767 0.0509325 4.04658e-20)
(-0.0245415 0.0486363 3.31515e-19)
(-0.0145699 0.0458269 5.12104e-19)
(-0.00288145 0.0427261 -1.32778e-19)
(0.0103168 0.0395043 2.22836e-19)
(0.0248197 0.0362958 1.79928e-19)
(0.0404157 0.0332154 1.83015e-19)
(0.0568781 0.0303779 1.08131e-18)
(0.0739395 0.0279196 -4.05253e-19)
(0.09125 0.0260369 -2.46754e-20)
(0.108517 0.0252091 4.69666e-19)
(0.125814 0.0267206 -2.66305e-19)
(0.141118 0.0316093 1.32262e-19)
(-0.0105113 0.0122968 -4.57419e-19)
(-0.0253781 0.0292322 2.93938e-20)
(-0.0351883 0.0402397 -3.66267e-19)
(-0.0403428 0.0469193 -4.76372e-20)
(-0.0413329 0.0504608 2.68051e-19)
(-0.0386445 0.0517631 -7.97696e-19)
(-0.0327006 0.0515169 -4.4745e-22)
(-0.0238635 0.0502493 3.71021e-19)
(-0.0124464 0.048362 3.48453e-19)
(0.00127323 0.0461623 -1.53431e-19)
(0.0170376 0.043888 5.0518e-20)
(0.0345924 0.0417244 1.17222e-19)
(0.0536709 0.0398177 -5.55453e-20)
(0.0739803 0.0382854 -6.21927e-19)
(0.0951905 0.0372269 1.57462e-19)
(0.116907 0.0367251 4.32983e-19)
(0.138623 0.0368456 -6.16889e-19)
(0.159872 0.0378323 3.00815e-19)
(0.180827 0.0408331 8.07098e-20)
(0.199744 0.0468875 4.10652e-19)
(-0.0112741 0.0122366 -6.76493e-20)
(-0.0266167 0.0287727 -3.2068e-19)
(-0.0359199 0.0393463 1.47487e-19)
(-0.0397568 0.0456458 5.79358e-22)
(-0.0387305 0.0489261 -6.42918e-19)
(-0.0334031 0.0501315 1.00328e-19)
(-0.0242531 0.0499827 -1.9003e-20)
(-0.0116838 0.0490295 1.29658e-19)
(0.00395866 0.0476944 -5.93344e-19)
(0.0223653 0.0463073 -4.14623e-20)
(0.0432427 0.0451329 -1.39173e-19)
(0.0662906 0.0443899 1.23955e-19)
(0.0911799 0.0442663 4.17939e-19)
(0.117529 0.0449307 -6.46309e-20)
(0.144881 0.0465406 2.49915e-20)
(0.172659 0.0492333 1.64442e-19)
(0.200078 0.0530792 -4.05662e-20)
(0.226269 0.0582231 3.3148e-19)
(0.251221 0.0657746 -1.92469e-19)
(0.273875 0.0763713 -3.04773e-19)
(-0.0119613 0.0120497 6.26841e-20)
(-0.0275062 0.0279629 1.52171e-20)
(-0.0359147 0.0379416 1.28634e-19)
(-0.0379475 0.0437571 3.15002e-19)
(-0.0343258 0.0467261 1.7669e-19)
(-0.0256892 0.0478354 1.84135e-20)
(-0.0125714 0.0478328 -2.10848e-19)
(0.00458405 0.0472885 5.40794e-20)
(0.0253986 0.0466438 2.84022e-19)
(0.0495327 0.04625 -4.81196e-19)
(0.0766597 0.0463987 3.62977e-19)
(0.106443 0.0473464 -2.73394e-19)
(0.13851 0.0493355 2.31909e-19)
(0.172433 0.0526175 -5.00074e-19)
(0.207689 0.0574773 5.50018e-19)
(0.243604 0.0642473 -5.88297e-19)
(0.279205 0.0733015 -1.5297e-19)
(0.313152 0.0853011 4.80763e-19)
(0.344305 0.102204 -1.62193e-19)
(0.369794 0.123738 7.31657e-20)
(-0.0125464 0.0117333 -4.75076e-20)
(-0.0279488 0.0267967 4.48118e-19)
(-0.0349925 0.0360265 -1.93909e-21)
(-0.0346443 0.0412692 -2.78076e-19)
(-0.0277516 0.0438976 -1.86977e-19)
(-0.0150359 0.0449364 3.42477e-19)
(0.00290993 0.0451549 -1.35639e-19)
(0.0255962 0.0451368 -1.70944e-20)
(0.0526029 0.0453331 2.82284e-19)
(0.0835488 0.0461039 -3.50725e-19)
(0.118064 0.0477494 3.83766e-20)
(0.155772 0.0505365 -4.55561e-19)
(0.196273 0.0547246 2.39827e-19)
(0.239145 0.0605954 -6.86295e-19)
(0.283947 0.0684934 1.09359e-18)
(0.330236 0.0788795 -2.00132e-19)
(0.377598 0.0924575 2.09915e-19)
(0.425969 0.110737 -5.45004e-19)
(0.475885 0.136716 2.20858e-21)
(0.519824 0.165485 6.29949e-19)
(-0.0129972 0.0112854 -1.44062e-19)
(-0.0278296 0.0252759 1.24509e-19)
(-0.0329443 0.0336215 -4.57983e-19)
(-0.0295375 0.038232 6.77219e-19)
(-0.0185944 0.0405285 -4.88799e-19)
(-0.000927669 0.0415671 2.51702e-20)
(0.0227983 0.0421307 -5.26591e-19)
(0.0520289 0.0428055 3.76389e-19)
(0.0862768 0.044038 -5.38298e-20)
(0.125085 0.0461748 -3.31878e-19)
(0.167996 0.0494926 -1.93516e-19)
(0.214543 0.05422 2.04463e-19)
(0.26424 0.0605573 1.35218e-19)
(0.316595 0.0686933 -5.98778e-19)
(0.371144 0.0788228 2.16085e-19)
(0.427491 0.0911589 -3.19223e-19)
(0.485374 0.105957 3.85291e-20)
(0.544914 0.123728 -2.7304e-19)
(0.607059 0.145648 1.14932e-19)
(0.664545 0.1671 -4.13952e-19)
(-0.0132738 0.0107044 4.10072e-19)
(-0.0270126 0.0234105 -2.4816e-19)
(-0.029529 0.0307675 2.04469e-19)
(-0.022277 0.0347312 -2.58074e-19)
(-0.00639662 0.0367605 4.3272e-19)
(0.0171911 0.0379343 -7.67106e-21)
(0.047725 0.0390384 -5.26221e-20)
(0.0845504 0.0406483 -3.89992e-20)
(0.127064 0.0431872 2.39967e-19)
(0.174672 0.0469641 4.0777e-19)
(0.226759 0.0521996 -2.40919e-19)
(0.282679 0.0590446 2.34067e-19)
(0.34176 0.0675923 4.27625e-19)
(0.403325 0.0778878 -2.99907e-19)
(0.466726 0.0899314 -6.10222e-19)
(0.531387 0.103673 1.11688e-18)
(0.596846 0.118991 -1.99368e-19)
(0.662848 0.135746 -6.52487e-20)
(0.729702 0.154297 7.08115e-19)
(0.791952 0.173257 -1.47822e-19)
(-0.0133265 0.00998916 -6.68137e-19)
(-0.0253388 0.0212185 -4.44775e-19)
(-0.0244737 0.0275262 -1.70723e-19)
(-0.0124772 0.0308884 3.29217e-19)
(0.00933124 0.0327868 -7.42862e-19)
(0.0398924 0.0343121 3.84415e-19)
(0.0783068 0.0362388 4.86797e-20)
(0.123763 0.0391136 4.90956e-20)
(0.175469 0.043313 -5.02917e-19)
(0.232609 0.0490798 -1.77581e-19)
(0.294315 0.0565457 -3.1287e-19)
(0.35967 0.0657487 3.02067e-19)
(0.427719 0.0766446 8.58352e-20)
(0.497509 0.0891163 1.6782e-20)
(0.568127 0.102978 3.9502e-19)
(0.638741 0.117975 -3.99682e-19)
(0.708635 0.133767 -1.67904e-20)
(0.777235 0.149949 9.43991e-21)
(0.84429 0.166408 5.40628e-20)
(0.906588 0.18438 3.16139e-19)
(-0.0130945 0.00913919 2.12838e-19)
(-0.0226256 0.0187271 5.48213e-19)
(-0.0174769 0.0239805 4.39941e-19)
(0.000272512 0.0268591 -1.51537e-19)
(0.0290883 0.0288474 5.26618e-19)
(0.0677268 0.031031 -4.43258e-20)
(0.115086 0.034153 -6.24685e-20)
(0.170116 0.0387054 3.71495e-20)
(0.23174 0.0449871 5.08189e-19)
(0.298817 0.0531382 2.98403e-19)
(0.370128 0.0631639 8.70723e-20)
(0.444392 0.074955 5.30419e-21)
(0.520315 0.0883057 -5.78496e-19)
(0.596633 0.102931 5.02517e-19)
(0.672172 0.11848 8.65523e-20)
(0.74589 0.134549 -1.42065e-19)
(0.816912 0.150686 -6.1974e-19)
(0.884545 0.166419 -5.32522e-20)
(0.948275 0.181306 2.46316e-19)
(1.00702 0.198339 -5.10052e-20)
(-0.0125059 0.00815636 -5.40811e-19)
(-0.0186691 0.0159758 2.26256e-19)
(-0.00821723 0.0202365 -1.10395e-18)
(0.0163899 0.0228328 4.51776e-19)
(0.0533522 0.0252229 -3.6018e-19)
(0.101173 0.0284635 2.65511e-19)
(0.158459 0.0332362 -4.12058e-19)
(0.223812 0.0399416 3.78395e-20)
(0.295756 0.048758 -2.11636e-20)
(0.372716 0.0596776 1.10589e-19)
(0.45303 0.0725369 1.59795e-19)
(0.53501 0.0870467 -3.02085e-19)
(0.617007 0.102823 1.59803e-19)
(0.697494 0.119419 1.46974e-19)
(0.775127 0.13635 6.36724e-19)
(0.848794 0.153124 -2.76115e-19)
(0.91764 0.169255 -1.8476e-19)
(0.981074 0.184309 3.11226e-19)
(1.03865 0.197716 1.6782e-19)
(1.09073 0.213324 -3.13179e-19)
(-0.0114783 0.00704703 4.74239e-19)
(-0.0132492 0.0130197 4.57314e-19)
(0.00363513 0.0164267 1.31677e-19)
(0.0362773 0.0190325 5.54814e-19)
(0.0825417 0.0222299 2.72292e-19)
(0.140584 0.0270109 -4.90611e-19)
(0.208601 0.0339523 7.42725e-19)
(0.284717 0.0433125 -3.65415e-19)
(0.366934 0.0550943 3.64508e-19)
(0.453147 0.0690894 4.71516e-19)
(0.541205 0.0849231 -2.69382e-19)
(0.62902 0.102102 5.11427e-20)
(0.714664 0.120065 2.85553e-19)
(0.796473 0.138225 2.01398e-19)
(0.873107 0.156017 4.64857e-19)
(0.943585 0.172922 -1.85415e-19)
(1.00728 0.188494 -2.23807e-20)
(1.06392 0.2024 2.95504e-19)
(1.11338 0.214128 -6.32464e-20)
(1.1569 0.227682 4.40385e-22)
(-0.00992099 0.00582473 -2.44929e-19)
(-0.00613682 0.00993484 -9.00184e-19)
(0.0184026 0.0127139 2.11848e-19)
(0.0602952 0.0157159 -1.61213e-19)
(0.116976 0.0202151 -3.71799e-19)
(0.18613 0.0270882 -2.65011e-19)
(0.2654 0.0367475 -1.63658e-19)
(0.352294 0.0492427 3.97621e-19)
(0.444184 0.0643369 -2.3608e-19)
(0.538382 0.0815683 -2.41448e-19)
(0.63227 0.100319 -3.05651e-19)
(0.723453 0.119889 -5.04901e-20)
(0.809888 0.139561 -3.40159e-20)
(0.889977 0.158666 -7.07782e-19)
(0.962611 0.176621 3.43896e-19)
(1.02716 0.192961 -4.52151e-19)
(1.08342 0.207349 1.42903e-19)
(1.13157 0.219593 -1.08745e-18)
(1.17196 0.229381 3.27546e-19)
(1.20625 0.240403 4.1694e-19)
(-0.00773798 0.00451286 -6.14314e-20)
(0.00289629 0.00682297 4.39804e-19)
(0.0363826 0.00929511 2.81472e-20)
(0.0887333 0.0131751 6.77721e-20)
(0.156834 0.0195484 -1.37763e-19)
(0.237748 0.0291075 -2.16129e-21)
(0.328408 0.042022 -3.43643e-21)
(0.425577 0.0580548 -8.28171e-20)
(0.525932 0.0766624 2.93793e-19)
(0.626224 0.0970882 1.13683e-19)
(0.723479 0.118464 5.15589e-19)
(0.815189 0.139908 -1.40774e-19)
(0.89943 0.16061 9.8292e-20)
(0.974923 0.179892 -1.29177e-20)
(1.04101 0.197242 2.724e-19)
(1.09761 0.212321 1.67102e-19)
(1.14505 0.224962 4.03806e-19)
(1.18402 0.235145 -6.52835e-19)
(1.21535 0.242807 8.22922e-19)
(1.24087 0.251103 -2.61045e-19)
(-0.00483157 0.00314688 -5.74196e-19)
(0.0140666 0.00381503 -1.78898e-19)
(0.0578269 0.00640342 1.40053e-19)
(0.121781 0.0117335 8.82413e-20)
(0.202118 0.0206121 9.00526e-20)
(0.295108 0.0334571 9.14595e-20)
(0.396822 0.0501018 -2.28543e-19)
(0.503193 0.0699384 -9.45073e-20)
(0.61021 0.0920614 2.93426e-20)
(0.714186 0.115404 -2.79648e-19)
(0.812008 0.138876 -1.26462e-19)
(0.901319 0.161483 7.64954e-19)
(0.980594 0.182408 -1.97227e-19)
(1.04911 0.201061 -2.72411e-19)
(1.10686 0.217083 -1.29676e-19)
(1.15436 0.230328 8.9593e-20)
(1.19254 0.240828 1.09786e-19)
(1.22255 0.248741 -5.26443e-19)
(1.24559 0.25424 7.62951e-19)
(1.2635 0.259901 -6.61841e-19)
(-0.00110652 0.00177597 -6.52915e-20)
(0.0275661 0.00107327 1.87482e-20)
(0.0829215 0.00430707 -2.36341e-20)
(0.159497 0.0117388 3.46604e-19)
(0.252619 0.0237845 1.88793e-20)
(0.357588 0.0404774 1.27097e-19)
(0.469496 0.0612103 -2.63713e-19)
(0.583429 0.0849293 -9.59455e-21)
(0.694808 0.110338 3.66032e-19)
(0.799737 0.136086 5.09827e-20)
(0.895258 0.160934 -3.18863e-19)
(0.979476 0.183874 -2.79003e-20)
(1.05152 0.204193 -2.62224e-19)
(1.11142 0.221481 2.61016e-19)
(1.15987 0.235599 3.63124e-19)
(1.19803 0.246627 -4.00628e-20)
(1.22732 0.254801 -4.89745e-20)
(1.24922 0.260437 1.49251e-19)
(1.26518 0.263884 -4.8078e-19)
(1.27696 0.267199 4.23145e-19)
(0.00352552 0.000463737 6.52025e-20)
(0.0435493 -0.00120922 -4.21628e-19)
(0.111765 0.00330449 1.12919e-19)
(0.201789 0.0135509 -3.49367e-19)
(0.307901 0.0294201 1.2003e-19)
(0.424283 0.0504348 -4.45644e-19)
(0.544991 0.0754459 1.79599e-19)
(0.664359 0.102903 -5.70711e-20)
(0.777472 0.131135 -2.26942e-21)
(0.880545 0.158581 5.84004e-20)
(0.97112 0.183966 -2.13048e-19)
(1.04805 0.20639 -3.0408e-19)
(1.11131 0.22535 -6.23843e-20)
(1.16175 0.240689 -2.79981e-20)
(1.20077 0.252526 -7.11272e-20)
(1.23006 0.261167 -2.31965e-20)
(1.25137 0.267022 -6.94527e-20)
(1.2664 0.270524 -6.02722e-20)
(1.27664 0.272138 -1.79633e-19)
(1.28374 0.273488 2.85201e-19)
(0.00914117 -0.00071194 1.57543e-19)
(0.0621199 -0.00281178 -1.74861e-19)
(0.144349 0.00371512 3.76089e-19)
(0.248387 0.0175242 -1.62094e-19)
(0.367295 0.0378251 4.33115e-19)
(0.494032 0.0634982 5.98311e-21)
(0.621667 0.0927708 2.17242e-19)
(0.743995 0.12359 -5.79474e-20)
(0.856105 0.153977 2.42452e-19)
(0.9547 0.182286 1.75523e-20)
(1.03814 0.20734 5.77091e-19)
(1.10625 0.228472 -3.98451e-19)
(1.15993 0.245469 5.36856e-20)
(1.20082 0.258471 1.02438e-19)
(1.23092 0.267853 5.36867e-19)
(1.25227 0.274114 -1.92897e-19)
(1.26683 0.277796 -3.82836e-20)
(1.2763 0.279401 -2.02901e-19)
(1.28215 0.279449 -2.1402e-20)
(1.28581 0.279224 1.01586e-19)
(0.0158003 -0.00165996 -7.59114e-20)
(0.0833179 -0.003492 2.18829e-19)
(0.180544 0.00586645 -2.23445e-19)
(0.298842 0.023988 8.84964e-20)
(0.429917 0.0492344 -1.05226e-19)
(0.565484 0.0797224 3.86729e-19)
(0.697797 0.113014 -5.36467e-20)
(0.820452 0.146604 1.32644e-19)
(0.928947 0.178334 -7.79462e-20)
(1.02084 0.206622 -1.89737e-21)
(1.09558 0.230534 8.91519e-20)
(1.15404 0.249735 -6.8965e-20)
(1.19804 0.264351 1.78968e-19)
(1.22989 0.27482 -8.91597e-20)
(1.25198 0.281739 -3.92749e-19)
(1.26659 0.285758 3.90505e-19)
(1.27566 0.287494 -1.76014e-19)
(1.28082 0.28747 1.40525e-19)
(1.28341 0.286219 2.4379e-19)
(1.28466 0.284762 1.00052e-19)
(0.0235411 -0.00227801 1.88759e-19)
(0.107108 -0.00299412 -3.88838e-19)
(0.220086 0.0100782 7.44707e-20)
(0.352528 0.0332247 -5.39152e-20)
(0.4947 0.0637924 -2.16911e-19)
(0.637175 0.0990434 -1.70118e-19)
(0.771697 0.135891 -3.33716e-20)
(0.89209 0.171493 -3.0301e-19)
(0.994683 0.203677 -1.83151e-20)
(1.07821 0.231092 -5.62176e-20)
(1.14332 0.253171 -1.52627e-19)
(1.19195 0.269972 -3.39177e-20)
(1.22672 0.28197 -1.16785e-19)
(1.25042 0.28987 -1.94812e-19)
(1.26566 0.294442 1.99452e-19)
(1.27474 0.296428 2.74574e-20)
(1.27952 0.296469 5.46982e-20)
(1.28146 0.295075 -2.29695e-19)
(1.2817 0.292764 -5.7915e-21)
(1.28128 0.290351 -3.54058e-19)
(0.0323753 -0.00245546 2.07436e-19)
(0.133373 -0.00105936 1.38208e-19)
(0.26258 0.0166448 -2.22388e-19)
(0.408657 0.0454504 3.47262e-19)
(0.560452 0.081541 -3.7326e-20)
(0.707628 0.121285 1.29475e-19)
(0.84184 0.161033 4.47735e-20)
(0.957613 0.19778 1.58537e-19)
(1.05249 0.229529 -1.24109e-19)
(1.12657 0.255315 4.12811e-20)
(1.18175 0.275022 -3.96638e-20)
(1.22091 0.289124 -1.74578e-20)
(1.24727 0.298423 3.3125e-20)
(1.2639 0.303834 -6.10015e-20)
(1.27348 0.306244 -1.87055e-20)
(1.27819 0.306429 -5.7259e-20)
(1.27972 0.305018 -9.30775e-20)
(1.2793 0.302479 6.01153e-20)
(1.27789 0.299304 -8.23563e-20)
(1.27635 0.29614 3.55786e-19)
(0.0422837 -0.00207707 -1.03752e-19)
(0.161906 0.00256223 -2.9345e-19)
(0.307497 0.0258185 -3.90245e-20)
(0.466313 0.0607991 -1.05057e-20)
(0.625921 0.102417 -1.31142e-19)
(0.775443 0.146177 -2.15067e-19)
(0.906947 0.188025 7.0337e-20)
(1.01612 0.225007 -9.66184e-20)
(1.102 0.255493 -1.08198e-19)
(1.16614 0.279023 6.01935e-20)
(1.21159 0.295979 -4.54817e-20)
(1.24201 0.307237 -9.18915e-20)
(1.26098 0.313871 -3.0226e-21)
(1.2717 0.316946 6.21904e-20)
(1.27674 0.317406 -6.32777e-20)
(1.27809 0.316019 8.7847e-20)
(1.2772 0.313367 2.36531e-20)
(1.27511 0.309863 5.94832e-20)
(1.27258 0.305975 1.1576e-19)
(1.27029 0.302198 -9.9113e-20)
(0.053214 -0.00102745 9.91775e-20)
(0.192411 0.0080993 -8.93028e-21)
(0.354196 0.0377932 4.43083e-20)
(0.524494 0.0793133 -6.02329e-20)
(0.689866 0.126257 4.8875e-21)
(0.839376 0.173378 2.08508e-19)
(0.966036 0.216439 -1.36983e-19)
(1.06708 0.252765 5.78818e-20)
(1.14322 0.281262 5.09599e-20)
(1.19743 0.302056 -1.43345e-19)
(1.23375 0.316031 1.34549e-19)
(1.25636 0.324419 1.1615e-21)
(1.26906 0.328499 -9.45725e-20)
(1.27496 0.329427 1.13947e-19)
(1.27645 0.328148 -4.51328e-20)
(1.27528 0.325387 3.44982e-20)
(1.27265 0.321665 -3.86168e-20)
(1.26939 0.317335 -1.54328e-20)
(1.26611 0.312841 -1.34685e-19)
(1.26333 0.30854 4.11727e-20)
(0.0650782 0.000804007 -3.35433e-20)
(0.224512 0.0157468 8.97871e-20)
(0.401945 0.0526918 1.39606e-20)
(0.582161 0.100941 5.86109e-20)
(0.75112 0.152813 2.78975e-20)
(0.898393 0.202506 1.3072e-20)
(1.01844 0.24586 7.40935e-20)
(1.11032 0.280705 -9.02404e-21)
(1.17648 0.306615 3.25773e-20)
(1.22116 0.324337 5.23129e-20)
(1.24917 0.335224 2.51907e-20)
(1.26503 0.340799 1.80526e-20)
(1.27253 0.342483 7.31564e-20)
(1.27461 0.341457 -7.07908e-20)
(1.2734 0.33863 1.5177e-20)
(1.27037 0.334663 -1.4139e-20)
(1.26651 0.330002 2.19611e-20)
(1.26247 0.324944 1.83715e-20)
(1.25871 0.319915 3.82551e-20)
(1.25562 0.31514 1.63287e-21)
(0.0777535 0.0035179 1.98796e-20)
(0.257755 0.0256544 1.81534e-20)
(0.449949 0.0705574 -2.50987e-20)
(0.638283 0.125536 1.56759e-20)
(0.808644 0.181767 8.83325e-21)
(0.951694 0.233156 -2.74768e-20)
(1.06376 0.275903 9.05297e-21)
(1.14593 0.308542 1.62467e-21)
(1.20226 0.331399 1.55785e-20)
(1.23809 0.345839 -4.17045e-20)
(1.25877 0.353628 -1.12509e-22)
(1.26893 0.356507 1.15078e-20)
(1.27224 0.355968 -9.16882e-21)
(1.27136 0.35317 9.2736e-21)
(1.26813 0.348958 2.41075e-20)
(1.26378 0.343914 -1.36788e-20)
(1.25908 0.33841 3.82901e-21)
(1.25454 0.332692 1.49363e-20)
(1.25048 0.327172 -2.46027e-20)
(1.24721 0.321945 1.18109e-20)
(0.0910842 0.00719973 5.55549e-20)
(0.291629 0.0379174 -3.01665e-20)
(0.497382 0.091349 3.54797e-20)
(0.691884 0.152873 -2.63806e-20)
(0.861557 0.212752 -1.18051e-20)
(0.998717 0.264923 3.57018e-21)
(1.10189 0.306221 -1.15622e-20)
(1.17418 0.336045 4.15394e-20)
(1.22116 0.355513 -3.45266e-20)
(1.249 0.366569 8.09185e-21)
(1.26337 0.37132 -6.03261e-21)
(1.26885 0.371649 -3.90795e-20)
(1.26885 0.369059 3.78454e-20)
(1.26573 0.364651 1.43506e-20)
(1.26105 0.359187 -1.42749e-20)
(1.25579 0.353163 3.3413e-20)
(1.25055 0.346881 -5.19321e-22)
(1.2457 0.340546 -3.2276e-20)
(1.24148 0.334561 2.38715e-20)
(1.23814 0.328886 7.46646e-21)
(0.104885 0.0119152 -1.94649e-20)
(0.325579 0.0525693 5.64559e-20)
(0.543422 0.114942 6.51473e-20)
(0.742083 0.182651 -3.06834e-20)
(0.909162 0.24537 5.33864e-20)
(1.03912 0.297413 8.43042e-20)
(1.13287 0.336509 -4.62547e-21)
(1.19549 0.36303 -1.43769e-20)
(1.23382 0.378888 7.11268e-20)
(1.25464 0.386543 3.46004e-20)
(1.2637 0.388361 -6.22164e-21)
(1.26542 0.386298 5.13489e-20)
(1.26288 0.381819 -5.48247e-20)
(1.25812 0.375939 8.52916e-20)
(1.25243 0.369325 -1.42035e-20)
(1.24656 0.362393 4.04553e-20)
(1.241 0.355377 7.20507e-21)
(1.23601 0.348452 2.87881e-20)
(1.23174 0.342012 -2.74193e-20)
(1.22839 0.335883 6.53401e-21)
(0.118944 0.017706 -3.02833e-20)
(0.359025 0.0695772 7.20945e-20)
(0.587275 0.141131 5.34851e-20)
(0.788111 0.214511 -8.07531e-21)
(0.950937 0.279202 8.29955e-20)
(1.07275 0.330251 -6.17872e-20)
(1.15692 0.366494 -4.71331e-21)
(1.21034 0.389343 5.44774e-20)
(1.24086 0.40147 1.73091e-20)
(1.25564 0.405772 2.40772e-20)
(1.26035 0.404791 -3.54684e-20)
(1.25913 0.400494 9.21043e-20)
(1.25469 0.39427 1.70547e-20)
(1.24879 0.387032 -8.12099e-20)
(1.24243 0.379348 1.18052e-19)
(1.23622 0.371557 -1.38952e-19)
(1.2305 0.363835 -6.34061e-20)
(1.22549 0.356334 1.06023e-20)
(1.22126 0.349442 6.14211e-20)
(1.21798 0.342849 -1.15244e-19)
(0.133031 0.0245862 -6.84009e-20)
(0.391385 0.0888409 -1.61196e-19)
(0.628212 0.16964 -1.39192e-19)
(0.829333 0.248051 -1.89303e-19)
(0.986533 0.313824 -1.0716e-19)
(1.09961 0.363081 -2.21887e-19)
(1.17434 0.395932 2.81894e-20)
(1.21923 0.414852 -1.17212e-19)