/*--------------------------------*- C++ -*----------------------------------*\
  =========                 |
  \\      /  F ield         | OpenFOAM: The Open Source CFD Toolbox
   \\    /   O peration     | Website:  https://openfoam.org
    \\  /    A nd           | Version:  6.0
     \\/     M anipulation  |
\*---------------------------------------------------------------------------*/
FoamFile
{
    version     2.0;
    format      ascii;
    class       surfaceScalarField;
    location    "16.5";
    object      phi;
}
// * * * * * * * * * * * * * * * * * * * * * * * * * * * * * * * * * * * * * //

dimensions      [0 3 -1 0 0 0 0];

internalField   nonuniform List<scalar> 
15760
(
-3.1223e-06
3.09698e-06
2.53136e-08
-1.09968e-05
7.78271e-06
9.18141e-08
-2.24712e-05
1.13063e-05
1.68102e-07
-3.66241e-05
1.39043e-05
2.48522e-07
-5.27282e-05
1.57752e-05
3.28995e-07
-7.02243e-05
1.7089e-05
4.07055e-07
-8.86969e-05
1.79912e-05
4.81486e-07
-0.000107855
1.86057e-05
5.51954e-07
-0.000127512
1.90383e-05
6.18694e-07
-0.000147573
1.93792e-05
6.8226e-07
-0.000168021
1.9705e-05
7.43334e-07
-0.000188904
2.00797e-05
8.02603e-07
-0.00021032
2.05562e-05
8.60666e-07
-0.000232415
2.1176e-05
9.17986e-07
-0.00025536
2.19703e-05
9.74876e-07
-0.000279351
2.29594e-05
1.03149e-06
-0.000304592
2.41536e-05
1.08781e-06
-0.000331288
2.55528e-05
1.14372e-06
-0.000359638
2.71504e-05
1.19894e-06
2.89404e-05
1.25317e-06
-0.000389831
-3.09809e-06
6.19507e-06
-1.09124e-05
1.5597e-05
-2.22943e-05
2.26882e-05
-3.63221e-05
2.79321e-05
-5.22659e-05
3.1719e-05
-6.95618e-05
3.43849e-05
-8.77881e-05
3.62175e-05
-0.000106646
3.74633e-05
-0.00012594
3.8333e-05
-0.000145568
3.90071e-05
-0.000165503
3.96394e-05
-0.000185783
4.03597e-05
-0.000206502
4.12754e-05
-0.000227798
4.24721e-05
-0.000249842
4.40145e-05
-0.000272829
4.59464e-05
-0.000296966
4.82906e-05
-0.000322463
5.10494e-05
-0.000349523
5.42106e-05
5.77622e-05
-0.000378345
-3.05006e-06
9.24513e-06
-1.07441e-05
2.32911e-05
-2.19413e-05
3.38853e-05
-3.57196e-05
4.17104e-05
-5.13445e-05
4.73439e-05
-6.82432e-05
5.12836e-05
-8.59823e-05
5.39566e-05
-0.000104248
5.57289e-05
-0.000122829
5.69142e-05
-0.000141604
5.77822e-05
-0.000160529
5.85637e-05
-0.000179624
5.94553e-05
-0.00019897
6.06214e-05
-0.000218694
6.21957e-05
-0.00023896
6.42813e-05
-0.000259965
6.69505e-05
-0.000281918
7.02443e-05
-0.000305041
7.41722e-05
-0.000329551
7.87204e-05
8.38715e-05
-0.00035566
-2.98205e-06
1.22272e-05
-1.05039e-05
3.08129e-05
-2.14349e-05
4.48163e-05
-3.48533e-05
5.51289e-05
-5.00181e-05
6.25087e-05
-6.63448e-05
6.76103e-05
-8.33832e-05
7.0995e-05
-0.000100799
7.31443e-05
-0.000118356
7.44715e-05
-0.000135907
7.5333e-05
-0.000153379
7.60361e-05
-0.000170769
7.68454e-05
-0.000188133
7.79856e-05
-0.000205581
7.96437e-05
-0.000223268
8.19682e-05
-0.000241387
8.50688e-05
-0.000260156
8.90136e-05
-0.000279812
9.3828e-05
-0.000300595
9.95033e-05
0.00010602
-0.000322743
-2.89914e-06
1.51263e-05
-1.02072e-05
3.8121e-05
-2.0805e-05
5.54142e-05
-3.37714e-05
6.80953e-05
-4.83582e-05
7.70955e-05
-6.39672e-05
8.32192e-05
-8.01284e-05
8.71562e-05
-9.64812e-05
8.94972e-05
-0.00011276
9.07503e-05
-0.000128782
9.13548e-05
-0.000144438
9.16927e-05
-0.00015969
9.20968e-05
-0.00017456
9.28558e-05
-0.000189132
9.4216e-05
-0.000203545
9.63812e-05
-0.000217986
9.95098e-05
-0.000232683
0.000103711
-0.000247894
0.000109039
-0.000263894
0.000115503
0.000123087
-0.000280962
-2.80684e-06
1.79332e-05
-9.87073e-06
4.51849e-05
-2.00838e-05
6.56273e-05
-3.25257e-05
8.05372e-05
-4.64416e-05
9.10114e-05
-6.12193e-05
9.7997e-05
-7.63676e-05
0.000102305
-9.14977e-05
0.000104627
-0.000106308
0.000105561
-0.000120576
0.000105622
-0.000134146
0.000105263
-0.000146934
0.000104885
-0.000158919
0.00010484
-0.000170146
0.000105444
-0.000180729
0.000106964
-0.000190843
0.000109623
-0.000200723
0.000113591
-0.000210655
0.000118971
-0.000220962
0.00012581
0.000134111
-0.000231986
-2.71026e-06
2.06434e-05
-9.50976e-06
5.19844e-05
-1.93e-05
7.54175e-05
-3.11621e-05
9.23992e-05
-4.43361e-05
0.000104185
-5.8198e-05
0.000111859
-7.22364e-05
0.000116343
-8.60338e-05
0.000118425
-9.92518e-05
0.000118779
-0.000111621
0.000117991
-0.000122935
0.000116578
-0.000133053
0.000115002
-0.000141897
0.000113684
-0.000149461
0.000113008
-0.000155818
0.00011332
-0.000161121
0.000114926
-0.000165607
0.000118077
-0.000169593
0.000122957
-0.000173464
0.000129682
0.000138299
-0.000177652
-2.61318e-06
2.32566e-05
-9.13505e-06
5.85063e-05
-1.84732e-05
8.47557e-05
-2.9711e-05
0.000103637
-4.20864e-05
0.000116561
-5.4967e-05
0.000124739
-6.78252e-05
0.000129201
-8.02183e-05
0.000130818
-9.17721e-05
0.000130333
-0.00010217
0.00012839
-0.000111151
0.000125559
-0.000118507
0.000122358
-0.000124092
0.000119269
-0.000127832
0.000116748
-0.00012974
0.000115229
-0.000129931
0.000115116
-0.000128629
0.000116775
-0.000126181
0.00012051
-0.000123048
0.000126549
0.000135034
-0.000119783
-2.51735e-06
2.57739e-05
-8.75064e-06
6.47395e-05
-1.7609e-05
9.3614e-05
-2.81788e-05
0.000114207
-3.96993e-05
0.000128081
-5.15353e-05
0.000136575
-6.31498e-05
0.000140816
-7.40813e-05
0.000141749
-8.39253e-05
0.000140177
-9.23234e-05
0.000136788
-9.89569e-05
0.000132192
-0.000103549
0.00012695
-0.000105875
0.000121595
-0.000105775
0.000116649
-0.000103181
0.000112635
-9.81415e-05
0.000110077
-9.08487e-05
0.000109483
-8.16642e-05
0.000111325
-7.11317e-05
0.000116016
0.000123868
-5.99659e-05
-2.42207e-06
2.8196e-05
-8.3523e-06
7.06698e-05
-1.66956e-05
0.000101957
-2.65413e-05
0.000124052
-3.71336e-05
0.000138674
-4.78408e-05
0.000147283
-5.81247e-05
0.0001511
-6.75147e-05
0.000151139
-7.55871e-05
0.000148249
-8.19498e-05
0.00014315
-8.62351e-05
0.000136477
-8.80995e-05
0.000128815
-8.72332e-05
0.000120728
-8.33789e-05
0.000112794
-7.63635e-05
0.00010562
-6.61382e-05
9.98514e-05
-5.28274e-05
9.61718e-05
-3.67803e-05
9.52779e-05
-1.86185e-05
9.78543e-05
0.000104504
7.45623e-07
-2.32418e-06
3.05202e-05
-7.92734e-06
7.62729e-05
-1.57031e-05
0.000109733
-2.47418e-05
0.000133091
-3.42949e-05
0.000148227
-4.37399e-05
0.000156728
-5.25461e-05
0.000159906
-6.02453e-05
0.000158839
-6.6408e-05
0.000154412
-7.06241e-05
0.000147366
-7.24919e-05
0.000138345
-7.16131e-05
0.000127936
-6.75998e-05
0.000116715
-6.00927e-05
0.000105287
-4.87961e-05
9.43232e-05
-3.35317e-05
8.4587e-05
-1.43107e-05
7.69509e-05
8.5768e-06
7.23903e-05
3.44599e-05
7.19711e-05
7.6763e-05
6.22006e-05
-2.21853e-06
3.27387e-05
-7.45588e-06
8.15103e-05
-1.45852e-05
0.000116862
-2.26934e-05
0.000141199
-3.10385e-05
0.000156572
-3.90096e-05
0.000164699
-4.60901e-05
0.000166986
-5.18249e-05
0.000164573
-5.57934e-05
0.00015838
-5.75869e-05
0.00014916
-5.67918e-05
0.00013755
-5.29794e-05
0.000124123
-4.57052e-05
0.000109441
-3.45215e-05
9.41035e-05
-1.90092e-05
7.88109e-05
1.16234e-06
6.44155e-05
2.61421e-05
5.19711e-05
5.5765e-05
4.27674e-05
8.93709e-05
3.83653e-05
4.05379e-05
0.000125596
-2.09883e-06
3.48376e-05
-6.91344e-06
8.63249e-05
-1.32846e-05
0.000123234
-2.0287e-05
0.000148202
-2.71795e-05
0.000163465
-3.33606e-05
0.00017088
-3.83289e-05
0.000171954
-4.16481e-05
0.000167893
-4.29182e-05
0.00015965
-4.17505e-05
0.000147992
-3.77463e-05
0.000133546
-3.04806e-05
0.000116858
-1.94916e-05
9.84517e-05
-4.2816e-06
7.88935e-05
1.5663e-05
5.88663e-05
4.08193e-05
3.92591e-05
7.15271e-05
2.12633e-05
0.000107819
6.47577e-06
0.000149144
-2.95972e-06
-4.28427e-06
0.000193966
-1.95885e-06
3.67964e-05
-6.27439e-06
9.06404e-05
-1.17393e-05
0.000128699
-1.74025e-05
0.000153865
-2.25114e-05
0.000168573
-2.6464e-05
0.000174832
-2.87667e-05
0.000174257
-2.8999e-05
0.000168125
-2.67847e-05
0.000157436
-2.17664e-05
0.000142974
-1.35843e-05
0.000125364
-1.85439e-06
0.000105128
1.38491e-05
8.27482e-05
3.40082e-05
5.87344e-05
5.91616e-05
3.37129e-05
8.98766e-05
8.54418e-06
0.000126665
-1.5525e-05
0.000169805
-3.66643e-05
0.000218984
-5.21387e-05
-5.79353e-05
0.000272635
-1.79343e-06
3.85898e-05
-5.51524e-06
9.43622e-05
-9.89004e-06
0.000133073
-1.39211e-05
0.000157896
-1.68258e-05
0.000171478
-1.79827e-05
0.000175989
-1.68883e-05
0.000173163
-1.31223e-05
0.000164359
-6.32097e-06
0.000150635
3.84371e-06
0.000132809
1.7683e-05
0.000111524
3.55101e-05
8.73008e-05
5.7661e-05
6.05973e-05
8.45184e-05
3.18769e-05
0.000116536
1.69567e-06
0.000154245
-2.91656e-05
0.000198226
-5.95053e-05
0.000248968
-8.7407e-05
0.000306511
-0.000109682
-0.00012093
0.000369506
-1.59914e-06
4.0189e-05
-4.61675e-06
9.73798e-05
-7.68443e-06
0.000136141
-9.73519e-06
0.000159947
-9.93046e-06
0.000171673
-7.60247e-06
0.000173661
-2.20908e-06
0.000167769
6.69898e-06
0.000155451
1.95001e-05
0.000137834
3.65159e-05
0.000115793
5.80211e-05
9.0019e-05
8.42526e-05
6.10692e-05
0.000115422
2.94279e-05
0.000151737
-4.43832e-06
0.000193436
-4.00035e-05
0.000240832
-7.65615e-05
0.000294347
-0.00011302
0.000354494
-0.000147554
0.000421648
-0.000176835
-0.000194255
0.000494973
-1.3741e-06
4.15631e-05
-3.56361e-06
9.95693e-05
-5.0778e-06
0.000137655
-4.7505e-06
0.000159619
-1.65656e-06
0.000168579
4.95171e-06
0.000167053
1.56918e-05
0.000157029
3.10819e-05
0.000140061
5.15572e-05
0.000117358
7.74752e-05
8.98754e-05
0.000109113
5.83812e-05
0.00014666
2.35223e-05
0.000190211
-1.41228e-05
0.000239766
-5.39934e-05
0.00029525
-9.54883e-05
0.000356564
-0.000137875
0.000423659
-0.000180115
0.00049665
-0.000220545
0.000575882
-0.000256068
-0.00027963
0.000661258
-1.11681e-06
4.26799e-05
-2.34136e-06
0.000100794
-2.02778e-06
0.000137342
1.12061e-06
0.000156471
8.14852e-06
0.000161551
1.99199e-05
0.000155282
3.71678e-05
0.000139781
6.05236e-05
0.000116705
9.05284e-05
8.73534e-05
0.00012763
5.27742e-05
0.000172165
1.38455e-05
0.000224339
-2.8651e-05
0.000284186
-7.39702e-05
0.000351542
-0.000121349
0.000426011
-0.000169958
0.000506969
-0.000218832
0.000593612
-0.000266758
0.000685094
-0.000312027
0.000780837
-0.000351811
-0.000380381
0.000881588
-8.2429e-07
4.35042e-05
-9.30887e-07
0.0001009
1.51584e-06
0.000134895
7.97458e-06
0.000150012
1.96422e-05
0.000149884
3.75336e-05
0.00013739
6.25342e-05
0.000114781
9.54282e-05
8.38109e-05
0.000136906
4.58754e-05
0.000187555
2.12488e-06
0.000247837
-4.6436e-05
0.00031805
-9.88637e-05
0.000398281
-0.000154202
0.000488344
-0.000211412
0.000587686
-0.0002693
0.000695289
-0.000326435
0.000809556
-0.000381025
0.000928208
-0.000430679
0.00104848
-0.000472084
-0.000503052
0.00117115
-4.89781e-07
4.39939e-05
6.98098e-07
9.97126e-05
5.62317e-06
0.00012997
1.59359e-05
0.000139699
3.30144e-05
0.000132805
5.80523e-05
0.000112352
9.21133e-05
8.07199e-05
0.000136157
3.97672e-05
0.000191043
-9.01029e-06
0.000257518
-6.43506e-05
0.000336199
-0.000125116
0.000427541
-0.000190206
0.000531816
-0.000258477
0.000649074
-0.00032867
0.000779097
-0.000399323
0.000921306
-0.000468644
0.00107453
-0.000534249
0.00123623
-0.000592375
0.00139961
-0.00063547
-0.000646981
0.00154354
-1.0163e-07
4.40956e-05
2.59119e-06
9.70198e-05
1.0393e-05
0.000122168
2.51717e-05
0.000124921
4.85087e-05
0.000109468
8.17927e-05
7.90685e-05
0.000126271
3.62415e-05
0.000183069
-1.70307e-05
0.000253186
-7.91271e-05
0.00033748
-0.000148645
0.000436651
-0.000224288
0.000551237
-0.000304792
0.00068163
-0.000388869
0.000828142
-0.000475182
0.000991152
-0.000562333
0.00117139
-0.000648886
0.0013705
-0.000733356
0.00159227
-0.000814148
0.00184657
-0.000889772
-0.00095595
0.00215554
3.60247e-07
4.37353e-05
4.81576e-06
9.25643e-05
1.59609e-05
0.000111023
3.59005e-05
0.000104981
6.64317e-05
7.89372e-05
0.000109137
3.63635e-05
0.000165424
-2.00458e-05
0.000236532
-8.81384e-05
0.000323507
-0.000166103
0.000427179
-0.000252316
0.000548129
-0.000345238
0.000686688
-0.000443352
0.00084296
-0.000545142
0.00101689
-0.000649107
0.00120837
-0.000753815
0.00141746
-0.000857982
0.0016447
-0.000960595
0.00189158
-0.00106103
0.00216088
-0.00115907
-0.00124695
0.00245189
9.19716e-07
4.28156e-05
7.45184e-06
8.60322e-05
2.2486e-05
9.59888e-05
4.83735e-05
7.90937e-05
8.71246e-05
4.0186e-05
0.000140491
-1.70027e-05
0.000209984
-8.95391e-05
0.000296855
-0.00017501
0.000402048
-0.000271296
0.00052615
-0.000376418
0.000669358
-0.000488446
0.000831463
-0.000605457
0.00101188
-0.000725554
0.00120968
-0.000846912
0.00142372
-0.000967858
0.00165271
-0.00108697
0.00189529
-0.00120317
0.0021501
-0.00131584
0.00241562
-0.00142459
-0.00152118
0.00268985
1.60505e-06
4.12106e-05
1.05894e-05
7.70478e-05
3.01398e-05
7.64384e-05
6.28495e-05
4.6384e-05
0.000110918
-7.88271e-06
0.00017621
-8.22945e-05
0.00026024
-0.000173569
0.000364116
-0.000278886
0.00048847
-0.00039565
0.000633391
-0.000521339
0.00079839
-0.000653445
0.000982406
-0.000789473
0.00118385
-0.000927001
0.0014007
-0.00106376
0.00163059
-0.00119775
0.00187091
-0.00132729
0.00211889
-0.00145115
0.00237158
-0.00156853
0.00262595
-0.00167897
-0.00177573
0.0028805
2.44507e-06
3.87655e-05
1.43168e-05
6.51761e-05
3.90831e-05
5.16721e-05
7.95535e-05
5.91366e-06
0.000138063
-6.63923e-05
0.00021649
-0.000160722
0.000316199
-0.000273277
0.000437943
-0.00040063
0.000581779
-0.000539486
0.000747004
-0.000686565
0.000932156
-0.000838596
0.00113507
-0.000992385
0.00135299
-0.00114492
0.00158273
-0.00129351
0.00182085
-0.00143586
0.00206377
-0.00157021
0.00230794
-0.00169532
0.00254986
-0.00181045
0.00278627
-0.00191537
-0.00200544
0.00301598
3.46592e-06
3.52996e-05
1.87097e-05
4.99323e-05
4.94417e-05
2.09402e-05
9.86333e-05
-4.32779e-05
0.000168661
-0.00013642
0.000261267
-0.000253328
0.00037745
-0.00038946
0.000517343
-0.000540523
0.000680128
-0.00070227
0.00086402
-0.000870457
0.00106635
-0.00104092
0.0012837
-0.00120974
0.00151217
-0.00137339
0.00174758
-0.00152892
0.00198574
-0.00167402
0.00222264
-0.00180712
0.00245464
-0.00192731
0.00267851
-0.00203432
0.0028916
-0.00212846
-0.00220713
0.00309329
4.68833e-06
3.06112e-05
2.38217e-05
3.07989e-05
6.12857e-05
-1.65239e-05
0.000120123
-0.000102115
0.000202608
-0.000218905
0.000310137
-0.000360857
0.000443073
-0.000522396
0.00060062
-0.00069807
0.000780784
-0.000882435
0.000980464
-0.00107014
0.00119565
-0.00125611
0.00142174
-0.00143583
0.00165385
-0.00160551
0.00188721
-0.00176227
0.00211739
-0.0019042
0.00234055
-0.00203028
0.00255358
-0.00214034
0.00275412
-0.00223487
0.00294058
-0.00231492
-0.00237966
0.00311311
6.12583e-06
2.44854e-05
2.96769e-05
7.24787e-06
7.46143e-05
-6.14613e-05
0.000143916
-0.000171417
0.000239555
-0.000314545
0.000362316
-0.000483618
0.00051161
-0.00067169
0.000685395
-0.000871855
0.000880255
-0.00107729
0.00109165
-0.00128153
0.00131428
-0.00147874
0.00154258
-0.00166413
0.00177113
-0.00183406
0.00199506
-0.0019862
0.0022103
-0.00211944
0.00241374
-0.00223373
0.00260329
-0.00232988
0.00277776
-0.00240934
0.00293682
-0.00247398
-0.00252434
0.0030815
7.78392e-06
1.67015e-05
3.62666e-05
-2.12348e-05
8.93464e-05
-0.000114541
0.000169751
-0.000251821
0.000278897
-0.000423691
0.00041664
-0.000621361
0.000581109
-0.000836159
0.000768746
-0.00105949
0.000974568
-0.00128312
0.00119264
-0.0014996
0.00141665
-0.00170275
0.00164049
-0.00188797
0.00185875
-0.00205232
0.00206705
-0.0021945
0.0022622
-0.00231459
0.00244224
-0.00241377
0.00260631
-0.00249396
0.0027545
-0.00255753
0.00288757
-0.00260705
-0.00264409
0.00300732
9.65977e-06
7.0417e-06
4.35471e-05
-5.51221e-05
0.000105317
-0.000176311
0.000197209
-0.000343714
0.000319778
-0.000546259
0.000471605
-0.000773188
0.000649239
-0.00101379
0.000847428
-0.00125768
0.00105965
-0.00149534
0.00127884
-0.00171878
0.0014981
-0.00192201
0.00171136
-0.00210123
0.00191381
-0.00225476
0.00210205
-0.00238274
0.00227415
-0.00248669
0.00242946
-0.00256908
0.00256836
-0.00263286
0.00269199
-0.00268115
0.00280196
-0.00271702
-0.00274265
0.00290051
1.17422e-05
-4.70045e-06
5.1439e-05
-9.4819e-05
0.000122278
-0.00024715
0.000225722
-0.000447158
0.000361118
-0.000681656
0.000525449
-0.000937519
0.000713454
-0.0012018
0.000918169
-0.0014624
0.00113177
-0.00170894
0.00134648
-0.00193349
0.00155542
-0.00213095
0.00175315
-0.00229896
0.00193592
-0.00243754
0.00210169
-0.00254852
0.0022499
-0.0026349
0.00238113
-0.00270031
0.00249678
-0.00274851
0.00259875
-0.00278312
0.00268912
-0.00280738
-0.0028238
0.00277028
1.40112e-05
-1.87117e-05
5.98277e-05
-0.000140635
0.000139899
-0.000327221
0.000254583
-0.000561842
0.00040167
-0.000828743
0.000576261
-0.00111211
0.0007712
-0.00139674
0.000977982
-0.00166918
0.00118789
-0.00191884
0.00139303
-0.00213864
0.00158714
-0.00232506
0.00176588
-0.00247771
0.00192694
-0.00259859
0.00206968
-0.00269126
0.00219482
-0.00276004
0.00230397
-0.00280945
0.00239922
-0.00284376
0.00248285
-0.00286675
0.00255709
-0.00288162
-0.00289092
0.00262421
1.64382e-05
-3.51499e-05
6.85637e-05
-0.000192761
0.000157779
-0.000416436
0.000282984
-0.000687047
0.000440083
-0.000985842
0.000622124
-0.00129415
0.00082014
-0.00159475
0.00102445
-0.00187348
0.00122599
-0.00212039
0.00141739
-0.00233004
0.00159348
-0.00250115
0.00175139
-0.00263562
0.0018903
-0.00273749
0.0020109
-0.00281186
0.00211493
-0.00286408
0.00220469
-0.00289921
0.00228263
-0.0029217
0.00235111
-0.00293523
0.00241226
-0.00294277
-0.00294674
0.00246807
1.89853e-05
-5.41352e-05
7.74652e-05
-0.000251241
0.000175455
-0.000514426
0.000310044
-0.000821636
0.000474992
-0.00115079
0.000661265
-0.00148042
0.000858354
-0.00179184
0.00105592
-0.00207105
0.00124518
-0.00230965
0.0014198
-0.00250466
0.00157608
-0.00265743
0.00171273
-0.00277227
0.0018303
-0.00285507
0.00193058
-0.00291214
0.00201601
-0.00294951
0.00208923
-0.00297243
0.00215276
-0.00298523
0.00220883
-0.00299131
0.00225935
-0.00299329
-0.00299332
0.00230593
2.16055e-05
-7.57407e-05
8.63222e-05
-0.000315958
0.000192424
-0.000620528
0.000334865
-0.000964077
0.000505113
-0.00132104
0.000692192
-0.0016675
0.00088449
-0.00198414
0.0010716
-0.00225816
0.00124562
-0.00248367
0.00140163
-0.00266067
0.00153756
-0.00279336
0.0016536
-0.00288831
0.00175147
-0.00295294
0.00183371
-0.00299438
0.00190314
-0.00301894
0.00196247
-0.00303176
0.00201408
-0.00303684
0.00205995
-0.00303718
0.00210167
-0.00303501
-0.00303218
0.00214052
2.42435e-05
-9.99843e-05
9.49035e-05
-0.000386618
0.000208163
-0.000733787
0.000356586
-0.0011125
0.000529335
-0.00149379
0.000713806
-0.00185197
0.000897838
-0.00216817
0.00107157
-0.00243189
0.00122839
-0.00264049
0.00136505
-0.00279732
0.00148106
-0.00290937
0.00157788
-0.00298514
0.00165809
-0.00303314
0.00172466
-0.00306095
0.0017805
-0.00307478
0.00182819
-0.00307945
0.00186987
-0.00307851
0.0019072
-0.00307451
0.00194146
-0.00306927
-0.00306434
0.00197362
2.68373e-05
-0.000126822
0.000102966
-0.000462747
0.000222161
-0.000852982
0.000374436
-0.00126477
0.000546795
-0.00166615
0.000725461
-0.00203064
0.000898319
-0.00234103
0.00105656
-0.00259013
0.0011952
-0.00277913
0.00131265
-0.00291477
0.00140984
-0.00300656
0.00148923
-0.00306452
0.0015539
-0.00309781
0.00160699
-0.00311404
0.00165132
-0.00311911
0.00168921
-0.00311734
0.00172247
-0.00311177
0.00175246
-0.0031045
0.00178018
-0.00309699
-0.00309049
0.00180634
2.93202e-05
-0.000156142
0.000110268
-0.000543694
0.000233947
-0.000976661
0.000387787
-0.00141861
0.000556931
-0.00183529
0.000726971
-0.00220068
0.00088641
-0.00250047
0.00102789
-0.00273161
0.00114814
-0.00289938
0.00124717
-0.00301379
0.00132704
-0.00308643
0.00139087
-0.00312836
0.00144202
-0.00314896
0.00148356
-0.00315558
0.00151806
-0.00315361
0.00154754
-0.00314681
0.00157348
-0.00313771
0.00159697
-0.00312799
0.00161876
-0.00311879
-0.0031111
0.00163936
3.16238e-05
-0.000187766
0.000116577
-0.000628647
0.000243115
-0.0011032
0.000396185
-0.00157168
0.000559489
-0.00199859
0.000718568
-0.00235976
0.000863022
-0.00264492
0.000987174
-0.00285576
0.00108947
-0.00300167
0.00117124
-0.00309556
0.00123543
-0.00315062
0.00128554
-0.00317847
0.00132494
-0.00318837
0.00135651
-0.00318715
0.0013825
-0.0031796
0.00140459
-0.0031689
0.00142398
-0.00315711
0.00144153
-0.00314553
0.00145778
-0.00313504
-0.00312642
0.0014731
3.36808e-05
-0.000221446
0.000121687
-0.000716654
0.000249351
-0.00123086
0.000399371
-0.0017217
0.000554519
-0.00215374
0.000700829
-0.00250607
0.000829362
-0.00277346
0.000936207
-0.0029626
0.00102137
-0.00308683
0.00108726
-0.00316146
0.00113741
-0.00320077
0.00117544
-0.00321651
0.00120459
-0.00321751
0.00122743
-0.00320999
0.00124589
-0.00319806
0.00126133
-0.00318435
0.00127471
-0.00317049
0.00128667
-0.00315749
0.00129764
-0.00314601
-0.00313663
0.00130785
3.5432e-05
-0.000256878
0.000125433
-0.000806655
0.000252452
-0.00135788
0.000397292
-0.00186654
0.000542341
-0.00229879
0.000674603
-0.00263833
0.000786818
-0.00288567
0.000876803
-0.00305259
0.000945904
-0.00315593
0.00099735
-0.00321291
0.00103496
-0.00323838
0.00106234
-0.00324388
0.00108244
-0.00323761
0.00109751
-0.00322506
0.00110915
-0.0032097
0.00111846
-0.00319366
0.00112617
-0.0031782
0.00113278
-0.0031641
0.0011386
-0.00315182
-0.00314182
0.00114379
3.68154e-05
-0.000293694
0.000127671
-0.00089751
0.000252292
-0.0014825
0.000390036
-0.00200429
0.00052344
-0.0024322
0.000640848
-0.00275574
0.000736778
-0.0029816
0.000810637
-0.00312645
0.000864863
-0.00321016
0.000903227
-0.00325127
0.000929647
-0.00326481
0.00094753
-0.00326176
0.000959525
-0.00324961
0.000967541
-0.00323307
0.000972878
-0.00321504
0.000976399
-0.00319718
0.00097867
-0.00318047
0.000980065
-0.0031655
0.000980821
-0.00315258
-0.00314205
0.000981051
3.77877e-05
-0.000331481
0.000128322
-0.000988045
0.00024888
-0.00160306
0.000377874
-0.00213328
0.000498484
-0.0025528
0.000600646
-0.0028579
0.000680642
-0.0030616
0.000739277
-0.00318508
0.000779821
-0.0032507
0.00080635
-0.0032778
0.000822715
-0.00328117
0.000832051
-0.0032711
0.000836666
-0.00325422
0.000838147
-0.00323456
0.000837534
-0.00321442
0.000835495
-0.00319514
0.000832465
-0.00317744
0.000828731
-0.00316176
0.000824471
-0.00314832
-0.00313735
0.000819766
3.83132e-05
-0.000369795
0.000127349
-0.00107708
0.000242309
-0.00171802
0.000361186
-0.00225216
0.000468214
-0.00265983
0.000555072
-0.00294476
0.000619705
-0.00312623
0.000664091
-0.00322947
0.000692085
-0.0032787
0.000707877
-0.00329359
0.00071513
-0.00328842
0.000716658
-0.00327263
0.000714434
-0.003252
0.000709752
-0.00322987
0.00070343
-0.0032081
0.00069598
-0.00318769
0.000687737
-0.0031692
0.000678922
-0.00315295
0.000669672
-0.00313907
-0.00312772
0.000660047
3.83682e-05
-0.000408163
0.00012476
-0.00116347
0.000232751
-0.00182601
0.000340429
-0.00235984
0.000433409
-0.00275281
0.000505159
-0.00301651
0.000555135
-0.0031762
0.00058625
-0.00326058
0.000602728
-0.00329517
0.00060872
-0.00329958
0.000607623
-0.00328733
0.000601913
-0.00326692
0.000593246
-0.00324333
0.000582663
-0.00321929
0.000570794
-0.00319623
0.000558031
-0.00317493
0.000544627
-0.0031558
0.000530758
-0.00313908
0.000516533
-0.00312484
-0.00311319
0.000502
3.79412e-05
-0.000446104
0.000120601
-0.00124613
0.000220438
-0.00192585
0.00031611
-0.00245551
0.000394844
-0.00283155
0.000451867
-0.00307353
0.000487957
-0.00321229
0.000506737
-0.00327936
0.000512617
-0.00330105
0.000509589
-0.00329656
0.000500745
-0.00327848
0.000488228
-0.0032544
0.000473406
-0.00322851
0.000457102
-0.00320299
0.000439797
-0.00317893
0.000421781
-0.00315691
0.000403251
-0.00313727
0.000384344
-0.00312017
0.000365154
-0.00310565
-0.00309376
0.000345723
3.70324e-05
-0.000483136
0.000114958
-0.00132406
0.000205649
-0.00201654
0.000288753
-0.00253861
0.00035326
-0.00289605
0.000396062
-0.00311634
0.000419056
-0.00323529
0.000426367
-0.00328668
0.000422439
-0.00329713
0.000411034
-0.00328515
0.000394914
-0.00326236
0.000375908
-0.0032354
0.000355135
-0.00320774
0.000333235
-0.00318109
0.000310566
-0.00315626
0.000287339
-0.00313368
0.000263702
-0.00311363
0.000239769
-0.00309624
0.000215623
-0.00308151
-0.00306944
0.000191307
3.56524e-05
-0.000518789
0.00010794
-0.00139635
0.000188686
-0.00209729
0.000258883
-0.00260881
0.000309349
-0.00294652
0.000338511
-0.0031455
0.000349179
-0.00324596
0.000345803
-0.0032833
0.000332742
-0.00328406
0.000313475
-0.00326588
0.000290439
-0.00323933
0.000265179
-0.00321014
0.000238598
-0.00318115
0.000211185
-0.00315367
0.0001832
-0.00312827
0.00015479
-0.00310527
0.000126063
-0.0030849
9.7112e-05
-0.00306729
6.80194e-05
-0.00305242
-0.00304026
3.88325e-05
3.38219e-05
-0.000552611
9.96784e-05
-0.0014622
0.000169867
-0.00216747
0.000227002
-0.00266595
0.000263738
-0.00298326
0.000279879
-0.00316164
0.000278956
-0.00324503
0.000265585
-0.00326993
0.000243954
-0.00326243
0.000217237
-0.00323917
0.000187557
-0.00320965
0.00015621
-0.00317879
0.000123915
-0.00314886
9.10445e-05
-0.0031208
5.77757e-05
-0.00309501
2.4202e-05
-0.0030717
-9.60369e-06
-0.0030511
-4.35627e-05
-0.00303333
-7.75914e-05
-0.00301839
-0.00300622
-0.00011163
3.15693e-05
-0.00058418
9.03199e-05
-0.00152095
0.000149508
-0.00222666
0.000193584
-0.00271002
0.000216991
-0.00300666
0.000220742
-0.00316539
0.000208909
-0.0032332
0.000186148
-0.00324717
0.000156417
-0.0032327
0.000122573
-0.00320532
8.64518e-05
-0.00317353
4.91294e-05
-0.00314147
1.11813e-05
-0.00311091
-2.71168e-05
-0.0030825
-6.56512e-05
-0.00305647
-0.000104376
-0.00303298
-0.00014325
-0.00301222
-0.00018221
-0.00299437
-0.000221163
-0.00297943
-0.00296735
-0.000260033
2.893e-05
-0.00061311
8.00182e-05
-0.00157204
0.000127921
-0.00227457
0.000159067
-0.00274117
0.000169608
-0.0030172
0.000161592
-0.00315738
0.000139474
-0.00321108
0.00010785
-0.00321554
7.04063e-05
-0.00319526
2.96884e-05
-0.00316461
-1.27295e-05
-0.00313111
-5.59554e-05
-0.00309824
-9.95291e-05
-0.00306734
-0.000143246
-0.00303879
-0.000187043
-0.00301267
-0.000230916
-0.0029891
-0.000274857
-0.00296828
-0.000318817
-0.00295041
-0.000362691
-0.00293556
-0.00292366
-0.000406377
2.59444e-05
-0.000639055
6.89309e-05
-0.00161503
0.0001054
-0.00231103
0.000123849
-0.00275962
0.000122026
-0.00301538
0.000102849
-0.0031382
7.10166e-05
-0.00317925
3.09867e-05
-0.00317551
-1.38479e-05
-0.00315043
-6.12425e-05
-0.00311721
-0.000109856
-0.00308249
-0.000158949
-0.00304915
-0.000208149
-0.00301814
-0.000257301
-0.00298964
-0.000306377
-0.0029636
-0.000355411
-0.00294007
-0.000404434
-0.00291926
-0.000453415
-0.00290143
-0.000502234
-0.00288674
-0.00287514
-0.00055075
2.2657e-05
-0.000661712
5.72155e-05
-0.00164959
8.22277e-05
-0.00233605
8.82924e-05
-0.00276568
7.46322e-05
-0.00300172
4.48758e-05
-0.00310844
3.8489e-06
-0.00313822
-4.41865e-05
-0.00312748
-9.61427e-05
-0.00309847
-0.000150058
-0.0030633
-0.000204799
-0.00302775
-0.000259751
-0.00299419
-0.000314606
-0.00296328
-0.000369236
-0.00293501
-0.000423635
-0.0029092
-0.000477869
-0.00288584
-0.000532012
-0.00286511
-0.000586065
-0.00284738
-0.000639896
-0.00283291
-0.00282174
-0.000693304
1.9115e-05
-0.000680827
4.50264e-05
-0.0016755
5.86632e-05
-0.00234968
5.27222e-05
-0.00275974
2.77643e-05
-0.00297676
-1.20145e-05
-0.00306866
-6.17579e-05
-0.00308848
-0.000117442
-0.00307179
-0.000176287
-0.00303963
-0.000236595
-0.00300299
-0.000297416
-0.00296693
-0.000358242
-0.00293337
-0.000418807
-0.00290272
-0.000478993
-0.00287482
-0.000538794
-0.0028494
-0.000598296
-0.00282633
-0.000657622
-0.00280579
-0.000716821
-0.00278818
-0.000775761
-0.00277397
-0.00276335
-0.000834146
1.53673e-05
-0.000696194
3.25125e-05
-0.00169264
3.49482e-05
-0.00235212
1.74302e-05
-0.00274222
-1.82793e-05
-0.00294105
-6.75453e-05
-0.0030194
-0.00012556
-0.00303046
-0.000188567
-0.00300879
-0.000254087
-0.00297411
-0.000320669
-0.0029364
-0.000387533
-0.00290007
-0.00045426
-0.00286664
-0.000520617
-0.00283636
-0.000586478
-0.00280896
-0.000651811
-0.00278406
-0.000716699
-0.00276145
-0.000781302
-0.00274119
-0.000845739
-0.00272374
-0.000909887
-0.00270982
-0.00269993
-0.000973313
1.14631e-05
-0.000707657
1.98157e-05
-0.00170099
1.13037e-05
-0.00234361
-1.7323e-05
-0.0027136
-6.32347e-05
-0.00289514
-0.000121471
-0.00296116
-0.000187334
-0.0029646
-0.000257351
-0.00293877
-0.000329335
-0.00290212
-0.000402069
-0.00286367
-0.000474926
-0.00282721
-0.000547577
-0.00279399
-0.000619824
-0.00276411
-0.000691522
-0.00273726
-0.000762595
-0.00271299
-0.00083308
-0.00269096
-0.000903147
-0.00267112
-0.000972989
-0.0026539
-0.00104252
-0.00264029
-0.00263126
-0.00111119
7.45165e-06
-0.000715109
7.06938e-06
-0.00170061
-1.20701e-05
-0.00232447
-5.13059e-05
-0.00267436
-0.000106869
-0.00283958
-0.000173571
-0.00289446
-0.000246871
-0.0028913
-0.000323586
-0.00286205
-0.00040181
-0.0028239
-0.000480544
-0.00278494
-0.00055931
-0.00274845
-0.000637878
-0.00271542
-0.000716098
-0.0026859
-0.000793824
-0.00265954
-0.000870929
-0.00263589
-0.000947372
-0.00261452
-0.0010233
-0.00259519
-0.001099
-0.0025782
-0.00117445
-0.00256484
-0.00255641
-0.00124929
3.38044e-06
-0.000718489
-5.60353e-06
-0.00169163
-3.49938e-05
-0.00229508
-8.43155e-05
-0.00262504
-0.000148979
-0.00277491
-0.000223649
-0.00281979
-0.000303974
-0.00281098
-0.00038706
-0.00277897
-0.00047127
-0.00273969
-0.000555805
-0.0027004
-0.000640339
-0.00266391
-0.000724754
-0.00263101
-0.000808983
-0.00260167
-0.000892923
-0.00257559
-0.000976427
-0.00255238
-0.00105938
-0.00253156
-0.00114189
-0.00251269
-0.00122433
-0.00249576
-0.00130693
-0.00248224
-0.00247307
-0.00139028
-7.05426e-07
-0.000717784
-1.80918e-05
-0.00167424
-5.73109e-05
-0.00225586
-0.000116178
-0.00256617
-0.000189391
-0.0027017
-0.000271532
-0.00273765
-0.000358461
-0.00272405
-0.000447564
-0.00268986
-0.000537449
-0.0026498
-0.00062751
-0.00261034
-0.000717568
-0.00257385
-0.000807642
-0.00254093
-0.000897801
-0.00251151
-0.00098808
-0.00248532
-0.00107843
-0.00246204
-0.00116872
-0.00244126
-0.00125898
-0.00242243
-0.00134956
-0.00240518
-0.00144102
-0.00239078
-0.00237799
-0.00153609
-4.76448e-06
-0.000713019
-3.02979e-05
-0.00164871
-7.88888e-05
-0.00220727
-0.000146751
-0.00249831
-0.000227966
-0.00262049
-0.000317083
-0.00264853
-0.000410181
-0.00263095
-0.000504908
-0.00259514
-0.000600088
-0.00255462
-0.000695277
-0.00251515
-0.000790426
-0.0024787
-0.00088569
-0.00244567
-0.00098132
-0.00241588
-0.00107761
-0.00238903
-0.00117484
-0.00236481
-0.00127321
-0.00234289
-0.00137284
-0.0023228
-0.0014743
-0.00230373
-0.00157984
-0.00228523
-0.00227877
-0.00167906
-8.74759e-06
-0.000704272
-4.21192e-05
-0.00161534
-9.95972e-05
-0.00214979
-0.000175901
-0.002422
-0.00026458
-0.00253181
-0.000360189
-0.00255292