/*--------------------------------*- C++ -*----------------------------------*\
  =========                 |
  \\      /  F ield         | OpenFOAM: The Open Source CFD Toolbox
   \\    /   O peration     | Website:  https://openfoam.org
    \\  /    A nd           | Version:  6.0
     \\/     M anipulation  |
\*---------------------------------------------------------------------------*/
FoamFile
{
    version     2.0;
    format      ascii;
    class       volVectorField;
    location    "41";
    object      U;
}
// * * * * * * * * * * * * * * * * * * * * * * * * * * * * * * * * * * * * * //

dimensions      [0 1 -1 0 0 0 0];

internalField   nonuniform List<vector> 
8000
(
(-0.000416132 0.000390371 -3.22738e-21)
(-0.00230102 0.000912422 1.7251e-20)
(-0.00580292 0.0012128 -2.09796e-20)
(-0.0101097 0.00134679 1.59748e-20)
(-0.0147915 0.00135754 7.77844e-21)
(-0.0196013 0.00127928 -2.33583e-20)
(-0.0243617 0.00114007 -2.06424e-21)
(-0.028958 0.000962704 -7.32048e-22)
(-0.0333268 0.000765637 -1.21224e-20)
(-0.0374426 0.000563872 -6.56678e-21)
(-0.0413078 0.000369633 4.89789e-21)
(-0.0449451 0.000192833 1.86156e-20)
(-0.0483909 4.13737e-05 -1.39493e-21)
(-0.0516904 -7.86672e-05 1.99378e-21)
(-0.0548939 -0.000162958 -1.87467e-20)
(-0.0580612 -0.000208999 1.15503e-20)
(-0.0612526 -0.000216042 -1.65458e-20)
(-0.0644504 -0.00018352 2.50377e-20)
(-0.067537 -0.000109796 -2.80096e-23)
(-0.0710628 -6.21904e-06 5.39995e-21)
(-0.000490839 0.00135402 1.07185e-20)
(-0.00249058 0.00332761 -5.47736e-20)
(-0.006078 0.00465416 -3.78273e-20)
(-0.010443 0.00547855 -2.56867e-20)
(-0.0151586 0.00591622 -3.30436e-20)
(-0.0199806 0.00606225 7.27168e-21)
(-0.0247345 0.00599787 -3.81419e-20)
(-0.0293076 0.00579151 -8.56531e-21)
(-0.0336383 0.00550035 2.70817e-21)
(-0.0377028 0.00517212 2.85032e-20)
(-0.0415045 0.00484647 -3.10904e-20)
(-0.0450674 0.00455598 4.32455e-20)
(-0.0484293 0.00432689 -3.23824e-20)
(-0.0516365 0.00417959 -3.83974e-20)
(-0.0547412 0.00412888 -5.29074e-20)
(-0.0578048 0.00418378 3.37916e-20)
(-0.06089 0.00434798 -1.09255e-20)
(-0.0639806 0.00462455 -3.97741e-20)
(-0.0669582 0.00501919 3.76082e-20)
(-0.0703777 0.00549789 -2.78892e-20)
(-0.000642525 0.00231434 1.04778e-19)
(-0.00287347 0.0057311 5.42541e-20)
(-0.00662822 0.00807415 6.10139e-20)
(-0.0111031 0.00957863 5.07653e-21)
(-0.0158781 0.0104325 3.37211e-20)
(-0.0207156 0.0107916 4.20839e-20)
(-0.0254467 0.0107902 -7.64806e-20)
(-0.0299634 0.0105419 -4.04964e-20)
(-0.0342079 0.0101425 -5.27376e-20)
(-0.0381593 0.00967238 5.62947e-20)
(-0.0418236 0.0091987 -4.2996e-20)
(-0.0452271 0.00877707 -5.53155e-20)
(-0.04841 0.00845267 -2.01432e-20)
(-0.0514212 0.00826097 1.91329e-20)
(-0.0543159 0.00822812 -5.31533e-21)
(-0.0571591 0.00837061 7.6705e-21)
(-0.0600178 0.0086959 8.87478e-20)
(-0.0628791 0.00921038 -1.24802e-20)
(-0.0656236 0.00992474 -9.02061e-20)
(-0.0688134 0.010782 1.18791e-19)
(-0.00087124 0.00326686 3.6446e-20)
(-0.0034491 0.00810956 -5.14924e-20)
(-0.00745178 0.011451 -1.2914e-20)
(-0.0120869 0.0136174 2.41441e-20)
(-0.0169455 0.0148693 6.85578e-20)
(-0.0218004 0.015423 1.50096e-19)
(-0.0264918 0.0154652 1.4666e-19)
(-0.0309189 0.0151542 1.21828e-20)
(-0.0350294 0.0146238 8.99265e-20)
(-0.0388069 0.0139867 1.37638e-19)
(-0.0422612 0.0133377 -1.09969e-19)
(-0.0454218 0.0127559 1.6275e-19)
(-0.048332 0.0123063 -3.68461e-20)
(-0.0510448 0.0120408 9.29888e-21)
(-0.0536194 0.0119984 3.84755e-20)
(-0.0561261 0.0122047 5.1125e-20)
(-0.0586383 0.0126725 -8.0468e-20)
(-0.0611488 0.0134128 -6.71469e-20)
(-0.0635371 0.0144432 -1.18803e-19)
(-0.0663756 0.0156836 1.72824e-19)
(-0.00117685 0.00420722 -1.90435e-20)
(-0.00421598 0.0104498 -1.94919e-19)
(-0.00854497 0.0147634 -5.76542e-20)
(-0.0133879 0.0175661 -1.40497e-19)
(-0.018352 0.0191911 5.31068e-20)
(-0.0232246 0.0199149 -8.37562e-20)
(-0.0278581 0.0199752 2.88028e-20)
(-0.0321617 0.0195741 -1.77384e-19)
(-0.0360908 0.0188825 9.35773e-20)
(-0.0396349 0.0180449 -1.11587e-19)
(-0.0428082 0.0171835 -9.92308e-20)
(-0.0456442 0.0164015 -1.11101e-19)
(-0.0481904 0.0157848 1.00842e-19)
(-0.0505039 0.0154033 -9.05379e-20)
(-0.0526498 0.0153113 1.26066e-19)
(-0.0547049 0.0155458 3.64312e-20)
(-0.0567514 0.0161275 9.01713e-20)
(-0.05879 0.0170745 3.95487e-20)
(-0.0607001 0.0184139 -1.56673e-19)
(-0.0630686 0.0200426 2.55092e-19)
(-0.00155898 0.00513116 8.39189e-20)
(-0.0051713 0.0127387 6.46322e-21)
(-0.00990136 0.0179902 3.4576e-20)
(-0.0149958 0.0213968 1.20655e-19)
(-0.0200831 0.0233647 -1.84734e-20)
(-0.0249701 0.0242291 1.95932e-19)
(-0.029525 0.0242777 8.69601e-20)
(-0.0336699 0.0237548 7.31099e-21)
(-0.03737 0.0228666 2.23594e-19)
(-0.0406216 0.0217883 7.32572e-20)
(-0.0434446 0.0206692 3.47515e-20)
(-0.0458766 0.0196369 1.10292e-19)
(-0.0479694 0.0187993 1.0109e-19)
(-0.0497853 0.0182466 1.84538e-19)
(-0.0513952 0.0180511 -1.64942e-19)
(-0.0528846 0.0182649 2.3314e-19)
(-0.0543466 0.0189199 3.04721e-21)
(-0.0557923 0.0200453 -2.97931e-19)
(-0.0571029 0.021682 3.86193e-19)
(-0.0588856 0.0237043 1.60252e-19)
(-0.00201688 0.00603429 -4.94536e-20)
(-0.00631048 0.0149628 -8.97665e-20)
(-0.0115107 0.0211101 -1.8684e-19)
(-0.0168939 0.0250826 -5.54092e-21)
(-0.0221162 0.0273588 3.18829e-20)
(-0.0270085 0.0283318 -2.38599e-19)
(-0.0314596 0.0283371 -1.77011e-19)
(-0.0354072 0.0276586 -2.53225e-20)
(-0.0388284 0.0265361 -2.23888e-19)
(-0.0417279 0.0251735 -1.55004e-19)
(-0.0441315 0.0237461 -4.51722e-20)
(-0.0460814 0.0224055 -1.45447e-19)
(-0.0476335 0.0212829 -2.37296e-21)
(-0.0488549 0.0204908 -1.93138e-19)
(-0.0498232 0.0201231 8.12376e-20)
(-0.0506332 0.0202516 -9.26848e-20)
(-0.0513912 0.0209248 7.09929e-20)
(-0.0521221 0.0221884 -9.03822e-20)
(-0.0527115 0.0241034 -2.5813e-19)
(-0.0537949 0.026524 -7.84495e-20)
(-0.0025492 0.00691176 -1.81912e-20)
(-0.00762637 0.0171075 -1.97642e-20)
(-0.0133577 0.0241013 1.56647e-19)
(-0.0190577 0.0285966 -2.5492e-19)
(-0.0244172 0.0311443 3.73955e-20)
(-0.0292972 0.0321933 -1.47266e-19)
(-0.0336111 0.0321247 6.9591e-20)
(-0.0373162 0.0312589 3.12786e-19)
(-0.0404034 0.0298661 -2.007e-20)
(-0.0428875 0.0281763 -2.33324e-19)
(-0.0448007 0.0263886 4.23937e-20)
(-0.0461896 0.0246778 8.22216e-21)
(-0.0471137 0.0231984 -4.78949e-20)
(-0.0476443 0.0220875 4.84897e-21)
(-0.0478653 0.0214643 4.20787e-19)
(-0.0478815 0.021426 -5.99132e-20)
(-0.0478141 0.0220445 -1.16879e-19)
(-0.0477053 0.0233903 -2.09653e-19)
(-0.0474493 0.0255545 2.13859e-19)
(-0.0477207 0.0283747 9.23694e-20)
(-0.00315369 0.00775784 9.18988e-20)
(-0.0091084 0.0191565 -1.20231e-19)
(-0.0154202 0.0269401 1.69999e-19)
(-0.0214523 0.0319113 1.71165e-19)
(-0.0269382 0.0346928 1.57795e-19)
(-0.0317748 0.0357876 3.19989e-19)
(-0.0359057 0.0356189 2.06924e-19)
(-0.0393112 0.0345403 -4.44646e-19)
(-0.0419992 0.0328482 2.27395e-19)
(-0.043996 0.030795 1.78428e-19)
(-0.0453409 0.0286003 -2.53887e-21)
(-0.0460848 0.0264594 1.99716e-19)
(-0.04629 0.0245495 1.5569e-19)
(-0.0460308 0.0230333 -8.46937e-20)
(-0.0453964 0.0220588 2.8617e-19)
(-0.0445009 0.0217549 -3.54741e-19)
(-0.0434825 0.0222257 1.41991e-19)
(-0.0424035 0.023578 1.82577e-19)
(-0.0411717 0.0259469 -4.25568e-20)
(-0.0405169 0.0291618 3.67571e-19)
(-0.00382677 0.00856549 1.84615e-19)
(-0.0107416 0.021091 9.59262e-21)
(-0.0176681 0.0296001 -6.62799e-20)
(-0.0240305 0.0349969 -7.00276e-20)
(-0.0296134 0.0379755 -3.24342e-19)
(-0.034357 0.0390903 4.59363e-20)
(-0.03824 0.0388036 1.30133e-19)
(-0.0412704 0.0374978 -6.26009e-20)
(-0.0434762 0.0354908 5.16366e-20)
(-0.0448973 0.0330524 -1.36899e-20)
(-0.0455814 0.0304178 -6.74369e-20)
(-0.0455838 0.0277988 6.40312e-20)
(-0.0449688 0.0253923 -2.78326e-19)
(-0.0438122 0.0233854 2.66826e-19)
(-0.0422066 0.0219577 -2.31105e-19)
(-0.0402744 0.0212752 7.13882e-20)
(-0.0381708 0.0214847 1.6244e-19)
(-0.0359809 0.022744 -3.38119e-20)
(-0.0336323 0.0252528 -1.12359e-19)
(-0.031931 0.0288459 -7.65665e-20)
(-0.00456305 0.00932596 -2.29987e-19)
(-0.0125053 0.0228885 -1.51785e-20)
(-0.0200613 0.032051 4.84497e-20)
(-0.0267301 0.0378202 1.24623e-19)
(-0.032357 0.0409608 -1.75928e-19)
(-0.0369322 0.0420768 -1.53535e-19)
(-0.0404758 0.0416658 3.58357e-19)
(-0.0430278 0.0401343 -1.98026e-19)
(-0.0446402 0.0378169 -1.27736e-19)
(-0.0453695 0.0349948 -1.83268e-19)
(-0.0452738 0.0319127 1.21316e-19)
(-0.0444138 0.0287926 -3.28748e-21)
(-0.0428555 0.0258453 -2.26532e-19)
(-0.0406751 0.0232787 -3.70531e-19)
(-0.0379662 0.0213026 2.82286e-19)
(-0.0348574 0.0201242 -2.2871e-19)
(-0.0315197 0.0199426 3.24259e-19)
(-0.0280625 0.0209848 -9.08719e-20)
(-0.0244385 0.0235431 1.90939e-19)
(-0.0215581 0.0274801 -6.49382e-19)
(-0.00535491 0.0100287 -4.65828e-19)
(-0.0143726 0.0245228 3.0554e-19)
(-0.0225491 0.0342574 4.1549e-20)
(-0.0294731 0.0403425 8.0441e-21)
(-0.0350605 0.0436124 -1.88495e-19)
(-0.0393588 0.0447185 2.77198e-19)
(-0.0424349 0.0441905 3.02387e-20)
(-0.044366 0.0424553 -5.68297e-20)
(-0.0452325 0.0398588 -1.82451e-19)
(-0.045111 0.0366876 1.97198e-19)
(-0.0440734 0.0331888 4.99901e-19)
(-0.042188 0.0295864 -1.10434e-19)
(-0.0395243 0.0260965 2.49514e-19)
(-0.0361582 0.0229397 -2.94695e-19)
(-0.0321829 0.0203499 -2.82541e-19)
(-0.0277305 0.0185742 1.69893e-19)
(-0.0229856 0.0178703 2.80662e-19)
(-0.0180805 0.0185529 -9.09312e-19)
(-0.0129961 0.0210429 1.06808e-19)
(-0.00878274 0.0252654 1.45342e-19)
(-0.00619215 0.0106614 3.44958e-19)
(-0.0163095 0.025964 1.13586e-19)
(-0.0250687 0.0361791 5.91614e-19)
(-0.0321642 0.042519 3.0472e-20)
(-0.0375916 0.0458864 -6.57993e-20)
(-0.0414623 0.046979 -3.13398e-19)
(-0.0438959 0.0463562 2.66511e-19)
(-0.0450115 0.0444618 4.7819e-19)
(-0.044922 0.0416489 3.18522e-19)
(-0.0437292 0.0382045 2.29982e-19)
(-0.0415228 0.034371 1.98238e-19)
(-0.0383835 0.0303658 -3.55896e-19)
(-0.0343878 0.0263991 -1.11444e-19)
(-0.0296144 0.0226913 -8.20772e-20)
(-0.0241561 0.019488 8.79497e-19)
(-0.018147 0.0170659 -3.05194e-21)
(-0.0117825 0.0157386 -2.19135e-19)
(-0.00521393 0.0159216 -6.89466e-20)
(0.00155355 0.0182055 6.28566e-19)
(0.00728846 0.0226273 8.19804e-20)
(-0.00706193 0.0112106 -1.69474e-20)
(-0.0182748 0.027179 -3.26529e-19)
(-0.0275458 0.0377707 -4.85944e-19)
(-0.0346907 0.0442977 -1.35277e-19)
(-0.0397937 0.0477303 7.4719e-20)
(-0.0430359 0.0488115 1.60875e-20)
(-0.0445938 0.0481287 4.26566e-19)
(-0.0446328 0.0461414 -5.2901e-19)
(-0.0433027 0.0432078 -2.01221e-19)
(-0.0407347 0.039612 -4.05456e-19)
(-0.0370425 0.0355869 -3.45268e-19)
(-0.0323257 0.0313356 -3.05686e-19)
(-0.0266749 0.0270513 7.64302e-20)
(-0.0201784 0.0229387 -9.92069e-20)
(-0.0129344 0.019235 4.24958e-19)
(-0.00508075 0.0162251 -2.32967e-19)
(0.00317721 0.0142597 -7.29973e-19)
(0.0116747 0.0138525 -1.47084e-19)
(0.0203977 0.0158011 3.60091e-19)
(0.0278956 0.0203154 -3.14554e-19)
(-0.00794891 0.0116625 -5.50341e-20)
(-0.02022 0.0281334 3.99627e-19)
(-0.0298943 0.0389837 -5.09759e-19)
(-0.036923 0.0456211 1.17786e-19)
(-0.0414867 0.0490827 -2.42755e-19)
(-0.0438401 0.0501562 5.40822e-19)
(-0.0442207 0.0494574 -3.8649e-19)
(-0.0428424 0.0474613 4.42111e-19)
(-0.0398949 0.0445317 -4.19236e-19)
(-0.0355435 0.0409502 1.78796e-19)
(-0.0299317 0.0369395 -8.67984e-20)
(-0.0231864 0.032685 -2.17843e-19)
(-0.0154231 0.0283555 -2.69061e-19)
(-0.00675237 0.0241254 2.68056e-19)
(0.00270962 0.0202009 -2.24428e-19)
(0.0128106 0.0168424 -4.90541e-19)
(0.0233286 0.0143984 5.10662e-19)
(0.034089 0.0134474 -6.51178e-19)
(0.0451011 0.0150082 2.92926e-19)
(0.0546783 0.019522 8.44181e-21)
(-0.0088357 0.0120042 -4.99673e-19)
(-0.0220903 0.0287933 -5.39732e-19)
(-0.032017 0.0397685 6.21618e-20)
(-0.0387149 0.0464286 -5.20746e-19)
(-0.0424671 0.049876 -4.64368e-20)
(-0.0436053 0.0509433 -3.83034e-19)
(-0.0424288 0.0502754 -8.78869e-20)
(-0.0392012 0.0483646 -2.56838e-19)
(-0.0341536 0.0455839 2.20232e-21)
(-0.0274877 0.0422163 -1.1238e-19)
(-0.0193822 0.0384792 7.90355e-21)
(-0.00999991 0.0345443 -3.2356e-19)
(0.000505264 0.0305565 3.56418e-19)
(0.0119825 0.0266549 -5.0566e-19)
(0.0242757 0.0229971 1.79055e-19)
(0.0371948 0.0197853 6.74529e-21)
(0.0504789 0.0173076 -2.84997e-19)
(0.0639323 0.0161324 7.0654e-19)
(0.0776351 0.0174567 -1.68685e-19)
(0.0897081 0.0219728 -1.10108e-19)
(-0.00970342 0.0122243 5.61173e-19)
(-0.0238247 0.0291276 3.03091e-19)
(-0.0338054 0.0400787 2.81972e-19)
(-0.0399031 0.0466616 4.20914e-20)
(-0.0425084 0.0500424 3.81404e-19)
(-0.0420314 0.051099 5.49733e-19)
(-0.0388327 0.0505062 4.50195e-19)
(-0.0332247 0.0487765 4.01824e-20)
(-0.0254786 0.0462968 3.2954e-19)
(-0.015833 0.0433595 5.09152e-19)
(-0.00450475 0.0401862 -1.32076e-19)
(0.00830027 0.0369473 2.21584e-19)
(0.0223771 0.0337767 1.78932e-19)
(0.0375142 0.0307882 1.81967e-19)
(0.0534858 0.028093 1.07539e-18)
(0.0700271 0.0258171 -4.03023e-19)
(0.0867935 0.0241326 -2.45843e-20)
(0.10352 0.0234799 4.67124e-19)
(0.120398 0.0251028 -2.64875e-19)
(0.135518 0.0298792 1.31689e-19)
(-0.0105321 0.0123145 -4.54101e-19)
(-0.0253563 0.0291109 2.92477e-20)
(-0.0351387 0.0398749 -3.63813e-19)
(-0.0403054 0.0462698 -4.73523e-20)
(-0.0413584 0.0495234 2.66357e-19)
(-0.0387863 0.0505582 -7.92689e-19)
(-0.0330096 0.0500791 -4.51935e-22)
(-0.0243861 0.0486213 3.68788e-19)
(-0.0132246 0.0465907 3.46504e-19)
(0.000201172 0.044297 -1.52515e-19)
(0.0156363 0.0419795 5.02512e-20)
(0.0328283 0.0398246 1.16602e-19)
(0.0515116 0.0379801 -5.52295e-20)
(0.0713952 0.0365643 -6.1864e-19)
(0.0921515 0.0356759 1.56637e-19)
(0.113391 0.0353919 4.30734e-19)
(0.134613 0.0357592 -6.13703e-19)
(0.155376 0.0369867 2.99328e-19)
(0.175962 0.0401817 8.03413e-20)
(0.194789 0.0462242 4.09159e-19)
(-0.0113009 0.0122695 -6.72427e-20)
(-0.0266108 0.0287252 -3.18484e-19)
(-0.0358814 0.0391296 1.46474e-19)
(-0.039717 0.0452195 5.69888e-22)
(-0.0387347 0.0482816 -6.38831e-19)
(-0.0335014 0.0492808 9.96565e-20)
(-0.0244953 0.0489513 -1.89049e-20)
(-0.0121169 0.0478512 1.28925e-19)
(0.00329125 0.0464077 -5.90048e-19)
(0.0214233 0.0449541 -4.1252e-20)
(0.0419887 0.0437571 -1.38442e-19)
(0.0646899 0.0430375 1.23306e-19)
(0.0892002 0.0429855 4.15753e-19)
(0.115142 0.0437713 -6.42924e-20)
(0.142062 0.0455538 2.48524e-20)
(0.169389 0.0484672 1.63619e-19)
(0.196348 0.0525699 -4.03405e-20)
(0.222089 0.057979 3.29985e-19)
(0.24669 0.0657703 -1.91423e-19)
(0.26929 0.0764433 -3.035e-19)
(-0.0119872 0.0120868 6.22566e-20)
(-0.0275052 0.0279611 1.50747e-20)
(-0.0358798 0.037831 1.2778e-19)
(-0.0379052 0.0435014 3.12971e-19)
(-0.0343181 0.0463134 1.75587e-19)
(-0.0257649 0.0472711 1.83254e-20)
(-0.0127801 0.0471344 -2.09647e-19)
(0.00419404 0.0464811 5.37477e-20)
(0.0247816 0.0457576 2.82475e-19)
(0.0486458 0.0453186 -4.78623e-19)
(0.0754637 0.0454584 3.61074e-19)
(0.104902 0.0464354 -2.7197e-19)
(0.136592 0.0484948 2.30716e-19)
(0.17011 0.0518899 -4.97503e-19)
(0.204942 0.0569078 5.47208e-19)
(0.240421 0.063881 -5.85301e-19)
(0.275579 0.0731782 -1.52225e-19)
(0.309086 0.0854475 4.78589e-19)
(0.339856 0.102629 -1.6137e-19)
(0.365218 0.12434 7.33755e-20)
(-0.0125655 0.0117665 -4.72099e-20)
(-0.0279439 0.026818 4.45268e-19)
(-0.0349566 0.0359863 -1.90964e-21)
(-0.0346031 0.0411372 -2.76336e-19)
(-0.0277465 0.0436604 -1.85891e-19)
(-0.0151156 0.0445944 3.40458e-19)
(0.00269465 0.0447187 -1.34852e-19)
(0.0251949 0.0446236 -1.69993e-20)
(0.0519676 0.0447651 2.80768e-19)
(0.0826345 0.0455065 -3.48854e-19)
(0.11683 0.0471508 3.81864e-20)
(0.154183 0.0499672 -4.53207e-19)
(0.194299 0.0542174 2.38599e-19)
(0.236765 0.0601855 -6.82793e-19)
(0.281151 0.0682185 1.08807e-18)
(0.327022 0.0787794 -1.9911e-19)
(0.37398 0.0925743 2.08989e-19)
(0.421976 0.111116 -5.42541e-19)
(0.471556 0.137376 2.0148e-21)
(0.515291 0.166306 6.28248e-19)
(-0.0130054 0.0113096 -1.43194e-19)
(-0.027815 0.0253039 1.2377e-19)
(-0.0329065 0.033623 -4.55193e-19)
(-0.029505 0.0381834 6.73132e-19)
(-0.0186106 0.0404168 -4.85902e-19)
(-0.00104261 0.0413891 2.50207e-20)
(0.0225316 0.0418909 -5.23638e-19)
(0.051558 0.0425144 3.74301e-19)
(0.0855517 0.0437102 -5.3527e-20)
(0.124059 0.0458283 -3.30123e-19)
(0.166631 0.0491479 -1.92517e-19)
(0.212805 0.0539 2.03405e-19)
(0.262105 0.060287 1.34528e-19)
(0.314053 0.0684997 -5.9573e-19)
(0.368194 0.0787348 2.14979e-19)
(0.424148 0.0912064 -3.17638e-19)
(0.48167 0.106171 3.83565e-20)
(0.540899 0.124142 -2.71839e-19)
(0.602794 0.146282 1.14658e-19)
(0.660111 0.167881 -4.12587e-19)
(-0.0132688 0.0107173 4.07573e-19)
(-0.026986 0.0234343 -2.46621e-19)
(-0.0294923 0.030789 2.03213e-19)
(-0.0222649 0.0347338 -2.56518e-19)
(-0.00645606 0.0367321 4.30158e-19)
(0.0170069 0.0378692 -7.63805e-21)
(0.0473607 0.0389364 -5.23374e-20)
(0.0839518 0.0405141 -3.87916e-20)
(0.126181 0.043029 2.38664e-19)
(0.173459 0.0467933 4.05611e-19)
(0.225181 0.0520305 -2.39634e-19)
(0.280709 0.0588935 2.32847e-19)
(0.339386 0.067478 4.25416e-19)
(0.400547 0.0778308 -2.98346e-19)
(0.463559 0.0899536 -6.07152e-19)
(0.527863 0.103796 1.11137e-18)
(0.593012 0.119238 -1.98359e-19)
(0.658767 0.136138 -6.49419e-20)
(0.72545 0.154857 7.05494e-19)
(0.787576 0.173936 -1.47143e-19)
(-0.013308 0.00999049 -6.64132e-19)
(-0.0253015 0.0212323 -4.42099e-19)
(-0.0244447 0.0275529 -1.6971e-19)
(-0.0124999 0.0309177 3.27271e-19)
(0.0092044 0.0328081 -7.38497e-19)
(0.0396046 0.0343179 3.822e-19)
(0.0778007 0.0362253 4.84066e-20)
(0.122984 0.0390806 4.88423e-20)
(0.174368 0.043264 -5.0015e-19)
(0.231147 0.049021 -1.76603e-19)
(0.292465 0.0564865 -3.11182e-19)
(0.357416 0.0657011 3.00468e-19)
(0.425062 0.0766232 8.53913e-20)
(0.494467 0.0891376 1.67281e-20)
(0.564733 0.10306 3.93045e-19)
(0.635043 0.118135 -3.97658e-19)
(0.704695 0.134023 -1.67222e-20)
(0.773126 0.150316 9.32872e-21)
(0.840094 0.166906 5.372e-20)
(0.902345 0.184982 3.15065e-19)
(-0.0130641 0.00913058 2.1157e-19)
(-0.0225821 0.0187296 5.4494e-19)
(-0.0174654 0.0240039 4.37323e-19)
(0.000198337 0.0268984 -1.50639e-19)
(0.0288696 0.0288933 5.23544e-19)
(0.0673032 0.031075 -4.40662e-20)
(0.1144 0.0341887 -6.21108e-20)
(0.169113 0.0387293 3.69435e-20)
(0.230379 0.0449989 5.05363e-19)
(0.297067 0.0531409 2.96778e-19)
(0.367973 0.0631641 8.66095e-20)
(0.441836 0.0749624 5.27804e-21)
(0.517375 0.088333 -5.75408e-19)
(0.593347 0.102993 4.99858e-19)
(0.66859 0.118593 8.61157e-20)
(0.742077 0.13473 -1.4132e-19)
(0.81294 0.150949 -6.16765e-19)
(0.880491 0.166776 -5.30848e-20)
(0.944223 0.181773 2.45259e-19)
(1.00301 0.198908 -5.08786e-20)
(-0.0124666 0.00814044 -5.3762e-19)
(-0.0186266 0.0159685 2.24919e-19)
(-0.00823524 0.0202533 -1.0974e-18)
(0.0162465 0.0228721 4.4911e-19)
(0.0530183 0.0252767 -3.58065e-19)
(0.100586 0.0285224 2.63956e-19)
(0.157561 0.0332922 -4.09679e-19)
(0.222556 0.0399892 3.76225e-20)
(0.294109 0.0487949 -2.10514e-20)
(0.370661 0.0597056 1.09982e-19)
(0.450571 0.0725615 1.58913e-19)
(0.532167 0.0870774 -3.00411e-19)
(0.613822 0.102873 1.58936e-19)
(0.694021 0.119503 1.46189e-19)
(0.771433 0.136485 6.33431e-19)
(0.844954 0.153324 -2.74656e-19)
(0.913731 0.169534 -1.83866e-19)
(0.977171 0.184678 3.09796e-19)
(1.03482 0.198184 1.67189e-19)
(1.08702 0.213897 -3.11858e-19)
(-0.0114341 0.0070269 4.71451e-19)
(-0.0132166 0.0130062 4.54612e-19)
(0.00357419 0.0164372 1.30895e-19)
(0.0360472 0.0190672 5.51531e-19)
(0.0820717 0.0222813 2.70689e-19)
(0.139811 0.0270694 -4.87738e-19)
(0.207471 0.0340091 7.38393e-19)
(0.283192 0.0433612 -3.63287e-19)
(0.364995 0.0551323 3.6241e-19)
(0.450797 0.0691189 4.68822e-19)
(0.538468 0.084951 -2.67858e-19)
(0.625938 0.10214 5.08524e-20)
(0.711298 0.120125 2.83968e-19)
(0.792894 0.138326 2.00298e-19)
(0.869392 0.156173 4.62409e-19)
(0.939813 0.173149 -1.84401e-19)
(1.00353 0.188804 -2.22203e-20)
(1.06025 0.202799 2.9413e-19)
(1.10984 0.21462 -6.29346e-20)
(1.15353 0.228284 4.55793e-22)
(-0.00987651 0.00580344 -2.43493e-19)
(-0.00612428 0.00991957 -8.9487e-19)
(0.0182849 0.0127206 2.10594e-19)
(0.0599619 0.0157448 -1.60258e-19)
(0.116352 0.0202589 -3.69596e-19)
(0.185154 0.0271371 -2.63455e-19)
(0.264026 0.0367925 -1.62697e-19)
(0.350499 0.0492781 3.95282e-19)
(0.441967 0.0643616 -2.34694e-19)
(0.535767 0.0815866 -2.40061e-19)
(0.629304 0.100341 -3.03887e-19)
(0.720199 0.119927 -5.0193e-20)
(0.806423 0.139632 -3.38058e-20)
(0.886382 0.158786 -7.03885e-19)
(0.958965 0.176806 3.4208e-19)
(1.02353 0.193224 -4.49735e-19)
(1.07988 0.207698 1.42208e-19)
(1.12816 0.220033 -1.08222e-18)
(1.16872 0.22991 3.25945e-19)
(1.2032 0.241039 4.1516e-19)
(-0.00769787 0.00449301 -6.10686e-20)
(0.00287851 0.00681 4.37212e-19)
(0.0361944 0.00930091 2.79816e-20)
(0.0882818 0.0131986 6.73688e-20)
(0.156043 0.0195819 -1.36939e-19)
(0.236561 0.0291411 -2.1537e-21)
(0.326791 0.0420476 -3.41746e-21)
(0.423525 0.0580685 -8.23265e-20)
(0.523466 0.0766661 2.92057e-19)
(0.623391 0.0970897 1.13006e-19)
(0.720347 0.118476 5.12597e-19)
(0.811839 0.139947 -1.39942e-19)
(0.895947 0.160693 9.77346e-20)
(0.971391 0.180036 -1.28556e-20)
(1.03751 0.19746 2.70921e-19)
(1.09418 0.212624 1.66221e-19)
(1.14176 0.225353 4.01764e-19)
(1.18089 0.235624 -6.4961e-19)
(1.21241 0.243369 8.18969e-19)
(1.23811 0.251765 -2.59847e-19)
(-0.00480037 0.00313041 -5.70827e-19)
(0.0140084 0.00380749 -1.77836e-19)
(0.0575554 0.00641079 1.39227e-19)
(0.121198 0.0117521 8.77178e-20)
(0.201149 0.0206334 8.95184e-20)
(0.293706 0.0334716 9.09066e-20)
(0.39497 0.0501032 -2.27177e-19)
(0.500906 0.0699261 -9.39388e-20)
(0.607534 0.0920413 2.91636e-20)
(0.711191 0.115388 -2.77996e-19)
(0.808779 0.138881 -1.25734e-19)
(0.897946 0.161527 7.60522e-19)
(0.977165 0.182509 -1.96086e-19)
(1.0457 0.201233 -2.70878e-19)
(1.10353 0.217336 -1.28982e-19)
(1.15116 0.230668 8.90948e-20)
(1.1895 0.241255 1.09223e-19)
(1.21968 0.249251 -5.23813e-19)
(1.24289 0.254825 7.59212e-19)
(1.26097 0.260573 -6.58715e-19)
(-0.00108846 0.00176408 -6.49112e-20)
(0.0274579 0.0010729 1.86391e-20)
(0.0825549 0.00431697 -2.34922e-20)
(0.158772 0.011752 3.44533e-19)
(0.251467 0.0237914 1.87658e-20)
(0.355975 0.0404694 1.26328e-19)
(0.467425 0.061184 -2.62124e-19)
(0.58094 0.0848887 -9.5372e-21)
(0.69197 0.110294 3.63835e-19)
(0.796638 0.136056 5.06839e-20)
(0.891996 0.160936 -3.16978e-19)
(0.976143 0.183927 -2.77437e-20)
(1.0482 0.204313 -2.60739e-19)
(1.10817 0.22168 2.59516e-19)
(1.15674 0.235882 3.61113e-19)
(1.19506 0.246996 -3.98406e-20)
(1.22451 0.255252 -4.87296e-20)
(1.24657 0.260962 1.48477e-19)
(1.26269 0.264474 -4.78405e-19)
(1.2746 0.267862 4.21057e-19)
(0.00352657 0.000456879 6.48163e-20)
(0.0433825 -0.00120225 -4.19142e-19)
(0.111293 0.00331602 1.12256e-19)
(0.200914 0.0135563 -3.47275e-19)
(0.306564 0.029409 1.19311e-19)
(0.422468 0.0504005 -4.42951e-19)
(0.542726 0.0753894 1.78513e-19)
(0.661707 0.102834 -5.67269e-20)
(0.774522 0.131069 -2.25659e-21)
(0.8774 0.158539 5.80553e-20)
(0.96788 0.183968 -2.11784e-19)
(1.0448 0.206455 -3.0231e-19)
(1.10813 0.225489 -6.20364e-20)
(1.15868 0.240911 -2.78438e-20)
(1.19784 0.252832 -7.0733e-20)
(1.22728 0.261552 -2.30707e-20)
(1.24875 0.267481 -6.90833e-20)
(1.26392 0.271047 -5.99579e-20)
(1.2743 0.272716 -1.78728e-19)
(1.28151 0.274125 2.83805e-19)
(0.0091217 -0.000713943 1.56625e-19)
(0.0618868 -0.00279882 -1.73832e-19)
(0.143764 0.0037255 3.73856e-19)
(0.247357 0.0175177 -1.61125e-19)
(0.365777 0.0377912 4.30512e-19)
(0.492032 0.0634336 5.94732e-21)
(0.619236 0.0926818 2.15925e-19)
(0.741221 0.123492 -5.75969e-20)
(0.853092 0.153891 2.40992e-19)
(0.951557 0.182234 1.74526e-20)
(1.03497 0.207343 5.73687e-19)
(1.10312 0.228546 -3.96114e-19)
(1.1569 0.245623 5.33627e-20)
(1.19792 0.258707 1.01838e-19)
(1.22816 0.268167 5.3388e-19)
(1.24966 0.274501 -1.91826e-19)
(1.26436 0.278248 -3.80786e-20)
(1.27396 0.279907 -2.01843e-19)
(1.27991 0.28 -2.12996e-20)
(1.28368 0.279822 1.01074e-19)
(0.0157571 -0.00165785 -7.54721e-20)
(0.0830117 -0.00347574 2.17549e-19)
(0.179838 0.00587122 -2.22117e-19)
(0.297657 0.023964 8.79726e-20)
(0.428226 0.0491723 -1.0459e-19)
(0.563318 0.0796235 3.84392e-19)
(0.695233 0.112891 -5.33205e-20)
(0.817596 0.146478 1.31844e-19)
(0.925913 0.17823 -7.74749e-20)
(1.01774 0.206562 -1.88703e-21)
(1.0925 0.230539 8.86266e-20)
(1.15103 0.249815 -6.85658e-20)
(1.19516 0.264511 1.77936e-19)
(1.22714 0.275058 -8.86491e-20)
(1.24938 0.282051 -3.90562e-19)
(1.26412 0.286134 3.8835e-19)
(1.27331 0.287924 -1.75066e-19)
(1.27858 0.287945 1.39769e-19)
(1.28126 0.286731 2.42508e-19)
(1.28259 0.285312 9.95308e-20)
(0.0234714 -0.00227297 1.87664e-19)
(0.106724 -0.00297834 -3.86568e-19)
(0.219258 0.0100716 7.40335e-20)
(0.351188 0.0331766 -5.35958e-20)
(0.492848 0.0636963 -2.15608e-19)
(0.634867 0.0989064 -1.6909e-19)
(0.769033 0.135732 -3.31686e-20)
(0.889189 0.171339 -3.01182e-19)
(0.991665 0.203555 -1.82061e-20)
(1.07517 0.231025 -5.58819e-20)
(1.14034 0.253174 -1.51725e-19)
(1.18908 0.270051 -3.37155e-20)
(1.22398 0.282128 -1.16107e-19)
(1.24781 0.2901 -1.93704e-19)
(1.26318 0.294737 1.98334e-19)
(1.27238 0.296778 2.73128e-20)
(1.27727 0.296865 5.44104e-20)
(1.27929 0.295508 -2.28447e-19)
(1.27961 0.293228 -5.7573e-21)
(1.27926 0.290846 -3.52192e-19)
(0.0322764 -0.00244907 2.06242e-19)
(0.132906 -0.00104868 1.37403e-19)
(0.261626 0.0166203 -2.21073e-19)
(0.407169 0.0453711 3.45201e-19)
(0.558455 0.0814052 -3.7102e-20)
(0.705204 0.121107 1.28696e-19)
(0.839108 0.160838 4.45037e-20)
(0.954701 0.197598 1.57587e-19)
(1.04951 0.229389 -1.23365e-19)
(1.12362 0.255236 4.10372e-20)
(1.17888 0.275017 -3.943e-20)
(1.21816 0.289195 -1.73578e-20)
(1.24465 0.298567 3.29346e-20)
(1.26141 0.304044 -6.06549e-20)
(1.27111 0.306511 -1.86029e-20)
(1.27592 0.306744 -5.69403e-20)
(1.27753 0.305372 -9.25676e-20)
(1.27719 0.302864 5.97845e-20)
(1.27585 0.299716 -8.19127e-20)
(1.27437 0.296576 3.53886e-19)
(0.0421536 -0.00207122 -1.03158e-19)
(0.161353 0.00256259 -2.91744e-19)
(0.30642 0.025769 -3.87921e-20)
(0.464687 0.0606819 -1.04413e-20)
(0.623798 0.102236 -1.30361e-19)
(0.77293 0.145954 -2.13779e-19)
(0.904177 0.187793 6.99164e-20)
(1.01322 0.224798 -9.60406e-20)
(1.09908 0.255333 -1.07556e-19)
(1.16328 0.27893 5.98386e-20)
(1.20883 0.29596 -4.52147e-20)
(1.23937 0.307292 -9.13586e-20)
(1.25847 0.313993 -3.00943e-21)
(1.2693 0.317128 6.18323e-20)
(1.27445 0.317637 -6.29187e-20)
(1.27588 0.31629 8.73507e-20)
(1.27507 0.313671 2.35177e-20)
(1.27305 0.310194 5.91516e-20)
(1.27057 0.306329 1.15125e-19)
(1.26833 0.302574 -9.85765e-20)
(0.0530508 -0.00102426 9.861e-20)
(0.191773 0.00808374 -8.88415e-21)
(0.353 0.0377116 4.40463e-20)
(0.522743 0.0791517 -5.98779e-20)
(0.687638 0.126027 4.85724e-21)
(0.8368 0.17311 2.07264e-19)
(0.963253 0.216169 -1.36167e-19)
(1.06422 0.252527 5.75372e-20)
(1.14038 0.28108 5.06579e-20)
(1.19466 0.301944 -1.42502e-19)
(1.23109 0.315992 1.33762e-19)
(1.25382 0.324448 1.15557e-21)
(1.26664 0.32859 -9.40271e-20)
(1.27264 0.32957 1.13293e-19)
(1.27422 0.328334 -4.48741e-20)
(1.27313 0.325609 3.43021e-20)
(1.27056 0.321916 -3.83977e-20)
(1.26737 0.31761 -1.53431e-20)
(1.26414 0.313136 -1.33935e-19)
(1.2614 0.308855 4.09436e-20)
(0.0648808 0.000802202 -3.33537e-20)
(0.223788 0.0157095 8.92704e-20)
(0.400636 0.0525712 1.38789e-20)
(0.580298 0.100729 5.82666e-20)
(0.748809 0.15253 2.77315e-20)
(0.895777 0.20219 1.2994e-20)
(1.01566 0.245551 7.36542e-20)
(1.10751 0.280436 -8.97079e-21)
(1.17371 0.306407 3.23853e-20)
(1.21848 0.324199 5.20059e-20)
(1.2466 0.335156 2.50438e-20)
(1.26257 0.340796 1.79478e-20)
(1.27018 0.342536 7.27334e-20)
(1.27235 0.341555 -7.03803e-20)
(1.27122 0.338766 1.50897e-20)
(1.26826 0.334831 -1.40569e-20)
(1.26447 0.330196 2.18359e-20)
(1.26048 0.32516 1.82667e-20)
(1.25676 0.320151 3.8038e-20)
(1.25372 0.315393 1.62534e-21)
(0.0775212 0.00350865 1.97676e-20)
(0.256948 0.0255898 1.80496e-20)
(0.448535 0.0703915 -2.49534e-20)
(0.636323 0.125269 1.55847e-20)
(0.806269 0.181429 8.78119e-21)
(0.949059 0.232791 -2.73148e-20)
(1.06101 0.275553 8.99969e-21)
(1.14317 0.308239 1.6148e-21)
(1.19956 0.33116 1.54871e-20)
(1.23549 0.34567 -4.14599e-20)
(1.25628 0.353526 -1.11951e-22)
(1.26655 0.356465 1.14404e-20)
(1.26996 0.355975 -9.115e-21)
(1.26916 0.353219 9.21979e-21)
(1.266 0.349041 2.39674e-20)
(1.26172 0.344026 -1.3599e-20)
(1.25707 0.338545 3.80674e-21)
(1.25257 0.332848 1.48494e-20)
(1.24856 0.327348 -2.44605e-20)
(1.24534 0.322138 1.17426e-20)
(0.090817 0.00718051 5.52435e-20)
(0.290742 0.0378198 -2.99946e-20)
(0.495874 0.091132 3.5275e-20)
(0.689846 0.152547 -2.62274e-20)
(0.859139 0.212357 -1.1736e-20)
(0.996081 0.264508 3.54921e-21)
(1.09917 0.30583 -1.14944e-20)
(1.17149 0.335705 4.12957e-20)
(1.21854 0.355239 -3.4324e-20)
(1.24649 0.366364 8.04453e-21)
(1.26096 0.371177 -5.99717e-21)
(1.26654 0.371561 -3.88494e-20)
(1.26662 0.369017 3.76222e-20)
(1.26358 0.364647 1.42656e-20)
(1.25896 0.359213 -1.4191e-20)
(1.25376 0.353217 3.32154e-20)
(1.24856 0.346957 -5.16355e-22)
(1.24376 0.340643 -3.20851e-20)
(1.23959 0.334676 2.37307e-20)
(1.23629 0.329018 7.42207e-21)
(0.104583 0.0118835 -1.93563e-20)
(0.324616 0.0524336 5.61351e-20)
(0.54183 0.114669 6.47727e-20)
(0.739982 0.182262 -3.05055e-20)
(0.906717 0.244916 5.30763e-20)
(1.0365 0.296947 8.38119e-20)
(1.1302 0.336073 -4.59838e-21)
(1.19286 0.36265 -1.42924e-20)
(1.23127 0.378575 7.07086e-20)
(1.25219 0.386296 3.43963e-20)
(1.26136 0.388174 -6.18463e-21)
(1.26316 0.386161 5.10442e-20)
(1.2607 0.381724 -5.4499e-20)
(1.25601 0.375879 8.47812e-20)
(1.25037 0.369294 -1.41189e-20)
(1.24457 0.362387 4.02102e-20)
(1.23905 0.355394 7.16034e-21)
(1.2341 0.348488 2.86139e-20)
(1.22988 0.342067 -2.72541e-20)
(1.22657 0.335956 6.4924e-21)
(0.118608 0.0176593 -3.01113e-20)
(0.357994 0.0693988 7.16909e-20)
(0.585612 0.140798 5.31803e-20)
(0.785962 0.214058 -8.02817e-21)
(0.948481 0.278687 8.25134e-20)
(1.07015 0.329732 -6.14264e-20)
(1.1543 0.366011 -4.68415e-21)
(1.20777 0.38892 5.41572e-20)
(1.23838 0.401113 1.72058e-20)
(1.25326 0.405479 2.39347e-20)
(1.25807 0.404554 -3.52588e-20)
(1.25692 0.400305 9.15479e-20)
(1.25256 0.394119 1.69504e-20)
(1.24671 0.386914 -8.07199e-20)
(1.24041 0.379258 1.17327e-19)
(1.23425 0.371491 -1.38098e-19)
(1.22858 0.363792 -6.30125e-20)
(1.22361 0.356311 1.05357e-20)
(1.21942 0.349439 6.10415e-20)
(1.21618 0.342863 -1.14524e-19)
(0.132664 0.0245221 -6.8021e-20)
(0.390292 0.0886154 -1.60287e-19)
(0.626491 0.169243 -1.38399e-19)
(0.827152 0.247531 -1.8821e-19)
(0.984081 0.313248 -1.06537e-19)
(1.09705 0.362508 -2.20592e-19)