/*--------------------------------*- C++ -*----------------------------------*\
  =========                 |
  \\      /  F ield         | OpenFOAM: The Open Source CFD Toolbox
   \\    /   O peration     | Website:  https://openfoam.org
    \\  /    A nd           | Version:  6.0
     \\/     M anipulation  |
\*---------------------------------------------------------------------------*/
FoamFile
{
    version     2.0;
    format      ascii;
    class       volScalarField;
    location    "35";
    object      p;
}
// * * * * * * * * * * * * * * * * * * * * * * * * * * * * * * * * * * * * * //

dimensions      [0 2 -2 0 0 0 0];

internalField   nonuniform List<scalar> 
4000
(
-0.248729
-0.249648
-0.250254
-0.250694
-0.25106
-0.251367
-0.251627
-0.251852
-0.252051
-0.25223
-0.252394
-0.252548
-0.252696
-0.252842
-0.25299
-0.25315
-0.253323
-0.253456
-0.253521
-0.254082
-0.248854
-0.24977
-0.250372
-0.250807
-0.251169
-0.25147
-0.251724
-0.251943
-0.252135
-0.252308
-0.252465
-0.252613
-0.252754
-0.252894
-0.253036
-0.253191
-0.25336
-0.253489
-0.25355
-0.254109
-0.249082
-0.249992
-0.250588
-0.251015
-0.251367
-0.251657
-0.251898
-0.252104
-0.252284
-0.252442
-0.252586
-0.252718
-0.252845
-0.25297
-0.253099
-0.253241
-0.253398
-0.253516
-0.253566
-0.254119
-0.249411
-0.250316
-0.250902
-0.251317
-0.251653
-0.251926
-0.25215
-0.252336
-0.252494
-0.252631
-0.252752
-0.252861
-0.252965
-0.253067
-0.253172
-0.253292
-0.25343
-0.25353
-0.25356
-0.254103
-0.249845
-0.250741
-0.251315
-0.251713
-0.252029
-0.252279
-0.252477
-0.252636
-0.252765
-0.252871
-0.252961
-0.253038
-0.253108
-0.253177
-0.253249
-0.253337
-0.253445
-0.253519
-0.25352
-0.254048
-0.250383
-0.25127
-0.251828
-0.252205
-0.252495
-0.252715
-0.25288
-0.253004
-0.253096
-0.253162
-0.25321
-0.253245
-0.253271
-0.253294
-0.253321
-0.253365
-0.253433
-0.253469
-0.253431
-0.253937
-0.25103
-0.251905
-0.252444
-0.252795
-0.253053
-0.253236
-0.253361
-0.25344
-0.253486
-0.253503
-0.253499
-0.253478
-0.253447
-0.253412
-0.25338
-0.253366
-0.25338
-0.253365
-0.253275
-0.253754
-0.251789
-0.25265
-0.253165
-0.253484
-0.253704
-0.253843
-0.253919
-0.253947
-0.253936
-0.253894
-0.253826
-0.253738
-0.253636
-0.253527
-0.25342
-0.253332
-0.253274
-0.253191
-0.253034
-0.253476
-0.252667
-0.253509
-0.253996
-0.254277
-0.254451
-0.254539
-0.254559
-0.254526
-0.25445
-0.254339
-0.254196
-0.254028
-0.25384
-0.25364
-0.253439
-0.253255
-0.253105
-0.252933
-0.252688
-0.253083
-0.253671
-0.254489
-0.254941
-0.255176
-0.255297
-0.255326
-0.255282
-0.255182
-0.255033
-0.254842
-0.254615
-0.254354
-0.254065
-0.253757
-0.25344
-0.253137
-0.252867
-0.252579
-0.252219
-0.252552
-0.25481
-0.255596
-0.256004
-0.256187
-0.256247
-0.256209
-0.256095
-0.255919
-0.25569
-0.255413
-0.255091
-0.254726
-0.254322
-0.253887
-0.253432
-0.252982
-0.252562
-0.25212
-0.251607
-0.251855
-0.256093
-0.256836
-0.257192
-0.257313
-0.257304
-0.257192
-0.257
-0.256742
-0.256428
-0.256059
-0.255636
-0.255158
-0.254628
-0.254049
-0.253433
-0.252806
-0.252197
-0.251557
-0.250837
-0.250963
-0.25753
-0.258219
-0.258511
-0.258559
-0.258471
-0.258277
-0.258
-0.257656
-0.257252
-0.256787
-0.25626
-0.255665
-0.255
-0.254265
-0.253467
-0.252632
-0.251791
-0.250895
-0.249897
-0.249845
-0.259132
-0.259751
-0.259966
-0.25993
-0.259751
-0.259465
-0.259096
-0.25866
-0.258163
-0.257601
-0.256969
-0.256256
-0.255454
-0.254554
-0.253559
-0.252488
-0.251371
-0.250151
-0.248778
-0.248461
-0.260911
-0.261443
-0.261566
-0.26143
-0.261147
-0.260756
-0.260286
-0.259751
-0.259156
-0.258497
-0.257761
-0.256933
-0.255995
-0.254931
-0.25373
-0.252401
-0.250967
-0.249352
-0.247482
-0.246765
-0.262879
-0.263304
-0.263316
-0.263063
-0.262659
-0.262149
-0.261564
-0.260921
-0.260223
-0.259462
-0.258624
-0.257684
-0.256618
-0.255396
-0.253991
-0.252395
-0.250614
-0.24854
-0.246037
-0.244733
-0.265049
-0.265346
-0.265226
-0.264835
-0.264289
-0.263641
-0.262924
-0.262158
-0.261346
-0.260479
-0.259535
-0.258488
-0.257302
-0.255935
-0.254342
-0.252491
-0.250364
-0.247807
-0.244563
-0.242426
-0.267439
-0.267585
-0.267309
-0.266755
-0.266043
-0.265233
-0.264363
-0.263455
-0.262513
-0.261526
-0.260473
-0.259319
-0.258024
-0.256532
-0.254779
-0.252704
-0.250255
-0.247222
-0.24313
-0.239763
-0.270071
-0.270039
-0.26958
-0.268836
-0.26793
-0.26693
-0.265881
-0.264808
-0.263717
-0.262598
-0.261428
-0.260175
-0.258794
-0.257223
-0.255382
-0.25317
-0.25047
-0.246927
-0.241661
-0.236274
-0.272972
-0.272735
-0.272063
-0.271098
-0.269966
-0.268746
-0.267491
-0.266229
-0.264969
-0.263705
-0.262422
-0.261095
-0.259693
-0.25818
-0.256504
-0.254603
-0.252363
-0.249323
-0.244244
-0.238279
-0.276178
-0.275703
-0.274786
-0.273567
-0.272178
-0.270709
-0.26922
-0.267745
-0.266298
-0.264881
-0.26349
-0.26212
-0.260778
-0.259489
-0.258321
-0.257426
-0.257086
-0.257754
-0.261071
-0.27408
-0.279733
-0.278983
-0.277784
-0.276278
-0.274601
-0.272855
-0.271108
-0.2694
-0.267753
-0.266176
-0.264678
-0.263277
-0.262008
-0.260947
-0.260228
-0.260088
-0.260917
-0.26329
-0.268452
-0.281169
-0.283689
-0.282619
-0.281102
-0.279276
-0.277281
-0.275233
-0.273209
-0.271255
-0.269399
-0.267659
-0.266057
-0.264627
-0.263427
-0.262558
-0.262179
-0.262532
-0.263965
-0.266921
-0.272027
-0.281946
-0.288102
-0.286662
-0.284786
-0.282609
-0.280271
-0.277901
-0.275586
-0.273377
-0.271308
-0.269403
-0.267693
-0.266221
-0.265056
-0.264301
-0.264105
-0.264666
-0.26623
-0.269066
-0.273444
-0.280582
-0.293033
-0.291164
-0.28889
-0.286332
-0.283627
-0.280921
-0.278305
-0.275835
-0.273546
-0.271467
-0.26963
-0.26808
-0.266881
-0.266121
-0.265915
-0.266397
-0.267707
-0.269964
-0.273257
-0.277852
-0.298539
-0.29618
-0.293465
-0.290499
-0.28741
-0.284354
-0.281429
-0.278688
-0.276167
-0.273891
-0.271889
-0.270196
-0.268863
-0.267953
-0.26754
-0.267696
-0.268482
-0.269916
-0.272018
-0.274547
-0.304675
-0.301758
-0.298563
-0.295165
-0.291675
-0.288258
-0.285012
-0.281985
-0.279205
-0.276691
-0.274458
-0.27253
-0.270939
-0.26972
-0.268913
-0.268547
-0.268631
-0.269138
-0.270061
-0.27097
-0.311487
-0.307944
-0.30423
-0.300378
-0.296474
-0.292683
-0.289097
-0.285755
-0.282671
-0.27985
-0.277294
-0.275013
-0.273021
-0.271334
-0.269968
-0.268929
-0.268206
-0.267763
-0.267583
-0.26725
-0.319011
-0.314773
-0.310506
-0.306183
-0.301848
-0.297664
-0.293708
-0.290003
-0.286544
-0.28332
-0.280323
-0.277549
-0.275004
-0.272696
-0.270632
-0.268813
-0.267226
-0.265848
-0.264659
-0.263336
-0.327263
-0.322268
-0.317418
-0.312608
-0.307825
-0.303218
-0.298845
-0.294703
-0.290768
-0.287018
-0.283437
-0.280019
-0.276772
-0.273706
-0.270833
-0.268161
-0.265687
-0.263404
-0.261293
-0.259138
-0.336245
-0.330438
-0.324982
-0.31967
-0.314414
-0.309339
-0.304475
-0.299793
-0.295254
-0.290829
-0.286506
-0.282291
-0.278202
-0.274265
-0.270504
-0.266938
-0.263577
-0.260425
-0.257463
-0.254563
-0.345932
-0.339269
-0.33319
-0.32736
-0.321595
-0.315985
-0.310529
-0.305174
-0.299874
-0.294608
-0.289383
-0.284227
-0.279181
-0.274289
-0.269591
-0.265116
-0.260882
-0.256901
-0.253146
-0.249552
-0.356273
-0.348723
-0.342012
-0.335644
-0.329316
-0.323078
-0.316897
-0.310706
-0.304469
-0.29819
-0.291911
-0.285693
-0.279602
-0.273704
-0.26805
-0.262674
-0.257597
-0.252828
-0.248331
-0.244081
-0.367186
-0.358735
-0.351386
-0.344449
-0.337485
-0.330496
-0.323426
-0.316214
-0.308856
-0.301402
-0.293938
-0.286565
-0.279377
-0.272452
-0.265848
-0.259598
-0.253717
-0.248207
-0.243016
-0.238145
-0.378552
-0.369202
-0.361214
-0.353666
-0.345965
-0.33807
-0.329923
-0.321496
-0.312839
-0.304066
-0.295318
-0.286733
-0.278426
-0.270483
-0.262958
-0.255875
-0.249238
-0.243035
-0.237199
-0.231753
-0.390215
-0.379988
-0.371357
-0.363137
-0.354571
-0.34559
-0.336164
-0.326327
-0.316213
-0.30601
-0.295916
-0.286097
-0.276683
-0.267754
-0.259353
-0.251488
-0.244149
-0.23731
-0.230879
-0.224907
-0.401977
-0.390911
-0.381633
-0.372659
-0.363074
-0.352808
-0.341897
-0.330475
-0.318778
-0.307074
-0.295609
-0.284572
-0.274087
-0.264224
-0.255004
-0.246418
-0.238437
-0.231017
-0.224046
-0.217605
-0.413601
-0.401752
-0.391814
-0.381984
-0.371204
-0.359447
-0.34686
-0.333709
-0.320343
-0.30711
-0.29429
-0.282076
-0.27058
-0.259848
-0.249877
-0.240636
-0.232076
-0.224137
-0.216682
-0.209835
-0.424812
-0.412249
-0.40163
-0.390821
-0.37866
-0.365212
-0.350785
-0.335802
-0.320731
-0.305982
-0.291856
-0.278535
-0.266105
-0.254581
-0.243934
-0.234108
-0.225038
-0.216643
-0.208765
-0.201577
-0.435299
-0.422104
-0.410774
-0.398849
-0.385118
-0.369801
-0.353411
-0.336544
-0.319778
-0.303569
-0.288216
-0.273877
-0.260603
-0.248374
-0.237132
-0.226797
-0.217287
-0.208502
-0.200265
-0.192805
-0.434851
-0.42166
-0.410334
-0.398413
-0.384687
-0.369376
-0.352992
-0.336133
-0.319373
-0.30317
-0.287823
-0.273488
-0.260218
-0.247992
-0.236753
-0.22642
-0.216912
-0.208127
-0.199891
-0.192432
-0.424374
-0.411815
-0.4012
-0.390394
-0.378237
-0.364794
-0.350372
-0.335395
-0.320329
-0.305586
-0.291465
-0.278147
-0.26572
-0.2542
-0.243555
-0.23373
-0.224661
-0.216266
-0.208389
-0.201201
-0.413174
-0.401329
-0.391394
-0.381567
-0.37079
-0.359037
-0.346454
-0.333307
-0.319946
-0.306717
-0.293901
-0.28169
-0.270197
-0.259467
-0.249498
-0.240257
-0.231698
-0.223759
-0.216304
-0.209456
-0.401561
-0.390499
-0.381224
-0.372252
-0.36267
-0.352406
-0.341499
-0.33008
-0.318386
-0.306686
-0.295224
-0.284189
-0.273706
-0.263844
-0.254625
-0.246039
-0.238058
-0.230638
-0.223666
-0.217223
-0.38981
-0.379587
-0.370959
-0.362741
-0.354177
-0.345197
-0.335773
-0.325939
-0.315827
-0.305627
-0.295534
-0.285718
-0.276305
-0.267377
-0.258976
-0.251111
-0.243771
-0.23693
-0.230498
-0.224524
-0.378158
-0.368812
-0.360827
-0.35328
-0.345581
-0.337687
-0.329542
-0.321115
-0.31246
-0.303688
-0.294942
-0.286357
-0.278051
-0.270108
-0.262583
-0.255499
-0.24886
-0.242657
-0.236818
-0.231369
-0.366802
-0.358355
-0.351009
-0.344074
-0.337111
-0.330123
-0.323053
-0.315843
-0.308485
-0.301031
-0.293568
-0.286194
-0.279006
-0.272081
-0.265476
-0.259225
-0.253342
-0.247829
-0.242635
-0.237762
-0.3559
-0.348353
-0.341645
-0.335278
-0.328952
-0.322715
-0.316534
-0.310343
-0.304106
-0.297827
-0.291547
-0.285328
-0.279237
-0.273337
-0.267681
-0.262304
-0.257225
-0.252453
-0.247953
-0.243698
-0.345569
-0.338908
-0.332832
-0.327005
-0.321241
-0.315632
-0.310176
-0.304821
-0.299519
-0.294253
-0.289026
-0.283869
-0.278821
-0.273927
-0.269227
-0.26475
-0.260513
-0.256529
-0.25277
-0.249172
-0.335891
-0.330087
-0.324633
-0.319324
-0.314069
-0.308995
-0.304132
-0.299449
-0.294909
-0.290483
-0.286158
-0.281941
-0.277849
-0.27391
-0.270146
-0.266577
-0.263212
-0.260057
-0.25709
-0.254186
-0.326919
-0.321926
-0.317078
-0.312271
-0.30749
-0.302884
-0.298511
-0.294369
-0.290433
-0.286682
-0.283098
-0.279677
-0.276426
-0.273357
-0.270481
-0.267805
-0.265328
-0.263041
-0.260925
-0.258766
-0.318675
-0.314439
-0.310174
-0.305853
-0.301521
-0.297338
-0.293384
-0.289679
-0.286219
-0.282993
-0.279993
-0.277216
-0.274667
-0.272355
-0.270287
-0.268464
-0.266873
-0.265491
-0.264298
-0.262971
-0.311159
-0.307617
-0.303905
-0.300057
-0.296155
-0.292366
-0.288782
-0.285441
-0.282356
-0.279533
-0.276974
-0.27469
-0.272693
-0.271001
-0.269631
-0.268588
-0.267861
-0.267414
-0.26723
-0.266892
-0.304353
-0.301437
-0.298244
-0.29485
-0.291364
-0.28795
-0.284705
-0.28168
-0.2789
-0.276383
-0.274148
-0.272216
-0.27062
-0.269396
-0.268584
-0.268213
-0.268293
-0.268797
-0.269716
-0.270623
-0.298223
-0.295864
-0.293152
-0.29019
-0.287105
-0.284053
-0.28113
-0.278391
-0.275871
-0.273594
-0.271588
-0.269891
-0.268553
-0.267638
-0.267219
-0.26737
-0.268152
-0.269584
-0.271683
-0.274211
-0.292721
-0.290853
-0.288581
-0.286028
-0.283328
-0.280626
-0.278014
-0.275546
-0.273258
-0.271178
-0.269339
-0.267784
-0.26658
-0.265814
-0.265602
-0.266079
-0.267386
-0.26964
-0.272932
-0.277529
-0.287793
-0.286353
-0.284481
-0.282309
-0.279976
-0.277612
-0.275301
-0.273096
-0.271027
-0.269122
-0.267409
-0.265933
-0.264762
-0.264002
-0.2638
-0.264355
-0.265916
-0.268751
-0.273129
-0.280272
-0.28338
-0.282311
-0.280798
-0.278978
-0.276989
-0.274947
-0.272929
-0.270979
-0.269124
-0.267384
-0.26578
-0.264345
-0.26314
-0.262265
-0.26188
-0.262228
-0.263658
-0.266613
-0.271722
-0.281649
-0.279422
-0.278674
-0.277481
-0.275981
-0.274311
-0.272571
-0.270831
-0.269128
-0.267482
-0.265906
-0.264406
-0.263
-0.261726
-0.260658
-0.259933
-0.259789
-0.260616
-0.26299
-0.26816
-0.280888
-0.275863
-0.275393
-0.274481
-0.273269
-0.271887
-0.270426
-0.268944
-0.267474
-0.26603
-0.264614
-0.26322
-0.261847
-0.260499
-0.259204
-0.25803
-0.257132
-0.256791
-0.257464
-0.260794
-0.273822
-0.272652
-0.272421
-0.271756
-0.270798
-0.269674
-0.268463
-0.267215
-0.265958
-0.264701
-0.263438
-0.262153
-0.260823
-0.259416
-0.257897
-0.256216
-0.254311
-0.252071
-0.249038
-0.243972
-0.23803
-0.269744
-0.269721
-0.269269
-0.268534
-0.267636
-0.266644
-0.265602
-0.264535
-0.263448
-0.26233
-0.261159
-0.259903
-0.258517
-0.256941
-0.255094
-0.252879
-0.250179
-0.246642
-0.241385
-0.236015
-0.267105
-0.267261
-0.266993
-0.266449
-0.265746
-0.264943
-0.264081
-0.263179
-0.262241
-0.261256
-0.260201
-0.259045
-0.257745
-0.256248
-0.25449
-0.25241
-0.249958
-0.246925
-0.242833
-0.239468
-0.264708
-0.265017
-0.264907
-0.264525
-0.263988
-0.263348
-0.262639
-0.261879
-0.26107
-0.260204
-0.25926
-0.25821
-0.257019
-0.255646
-0.254047
-0.252189
-0.250055
-0.247491
-0.244234
-0.242086
-0.262531
-0.26297
-0.262993
-0.262749
-0.262354
-0.261853
-0.261275
-0.260637
-0.259942
-0.259183
-0.258343
-0.257401
-0.25633
-0.255101
-0.253687
-0.252081
-0.250289
-0.2482
-0.245675
-0.244348
-0.260558
-0.261106
-0.26124
-0.261114
-0.26084
-0.260457
-0.259993
-0.259463
-0.258872
-0.258213
-0.257475
-0.256643
-0.2557
-0.254628
-0.253416
-0.252074
-0.250623
-0.248987
-0.247087
-0.24634
-0.258776
-0.259413
-0.259641
-0.259614
-0.259444
-0.259165
-0.258802
-0.25837
-0.257874
-0.257313
-0.256678
-0.255961
-0.255151
-0.254242
-0.253233
-0.252146
-0.251008
-0.249763
-0.248355
-0.248003
-0.257173
-0.257882
-0.258187
-0.258245
-0.258165
-0.257978
-0.257706
-0.257365
-0.256962
-0.256496
-0.255965
-0.255365
-0.254691
-0.253944
-0.253131
-0.252277
-0.251413
-0.250487
-0.249452
-0.249363
-0.25574
-0.256505
-0.256874
-0.257004
-0.257002
-0.256897
-0.256709
-0.256454
-0.256139
-0.255768
-0.25534
-0.254856
-0.254315
-0.253723
-0.25309
-0.252443
-0.251808
-0.251136
-0.250378
-0.250465
-0.254466
-0.255273
-0.255695
-0.255887
-0.255954
-0.255922
-0.25581
-0.255636
-0.255406
-0.255126
-0.254798
-0.254425
-0.25401
-0.25356
-0.253087
-0.252615
-0.252168
-0.251694
-0.251142
-0.25135
-0.25334
-0.254179
-0.254644
-0.254888
-0.255015
-0.255049
-0.255008
-0.254908
-0.254757
-0.254563
-0.254328
-0.254058
-0.253758
-0.253434
-0.253098
-0.252773
-0.252476
-0.252155
-0.251757
-0.252052
-0.252354
-0.253217
-0.253716
-0.254005
-0.254185
-0.254276
-0.254298
-0.254265
-0.254188
-0.254071
-0.253922
-0.253744
-0.253544
-0.253328
-0.253108
-0.252902
-0.252725
-0.252521
-0.25224
-0.252598
-0.251498
-0.252379
-0.252906
-0.253233
-0.253457
-0.2536
-0.253677
-0.253704
-0.253691
-0.253644
-0.253569
-0.253471
-0.253357
-0.253232
-0.253107
-0.252997
-0.252913
-0.2528
-0.252609
-0.253016
-0.250766
-0.25166
-0.25221
-0.252567
-0.25283
-0.253016
-0.253141
-0.25322
-0.253262
-0.253274
-0.253263
-0.253233
-0.25319
-0.25314
-0.253091
-0.253057
-0.253047
-0.253004
-0.252883
-0.25333
-0.250152
-0.251055
-0.251623
-0.252006
-0.2523
-0.252522
-0.252687
-0.252809
-0.252898
-0.25296
-0.253001
-0.253027
-0.253042
-0.253052
-0.253063
-0.25309
-0.253136
-0.253147
-0.253081
-0.253559
-0.249649
-0.25056
-0.251142
-0.251545
-0.251864
-0.252116
-0.252313
-0.252471
-0.252597
-0.2527
-0.252783
-0.252853
-0.252914
-0.25297
-0.253029
-0.253102
-0.253192
-0.253244
-0.253221
-0.253725
-0.249256
-0.250171
-0.250764
-0.251183
-0.251522
-0.251796
-0.252019
-0.252204
-0.25236
-0.252493
-0.252609
-0.252713
-0.252808
-0.252901
-0.252995
-0.253103
-0.253225
-0.253309
-0.253319
-0.253843
-0.248968
-0.249887
-0.250487
-0.250918
-0.251271
-0.251562
-0.251803
-0.252008
-0.252186
-0.252342
-0.252481
-0.252609
-0.252731
-0.252849
-0.252969
-0.253102
-0.253248
-0.253354
-0.253389
-0.253929
-0.248786
-0.249706
-0.250311
-0.250748
-0.251111
-0.251412
-0.251666
-0.251884
-0.252076
-0.252247
-0.252402
-0.252546
-0.252684
-0.25282
-0.252957
-0.253106
-0.253268
-0.25339
-0.253442
-0.253993
-0.248706
-0.249627
-0.250233
-0.250674
-0.25104
-0.251347
-0.251607
-0.251832
-0.252031
-0.252209
-0.252373
-0.252526
-0.252672
-0.252817
-0.252963
-0.253122
-0.253293
-0.253423
-0.253485
-0.254043
-0.273894
-0.257954
-0.306
-0.298914
-0.237449
-0.169949
-0.106891
-0.0631181
-0.0333405
-0.0100041
0.000223148
0.008701
0.0109226
0.0126149
0.0118288
0.0111108
0.00914612
0.00761441
0.00457894
0.00274975
-0.274071
-0.258371
-0.306561
-0.298966
-0.236784
-0.169234
-0.106613
-0.0633439
-0.0338842
-0.0105731
-0.000167316
0.00850801
0.0109339
0.0127513
0.0120006
0.0112948
0.00924944
0.00767957
0.00457699
0.00270676
-0.274342
-0.258827
-0.307267
-0.299318
-0.236412
-0.168736
-0.106492
-0.0636648
-0.0345003
-0.0111819
-0.000587699
0.00829061
0.0109236
0.0128678
0.0121564
0.0114657
0.00934301
0.00773691
0.00457036
0.00265997
-0.274687
-0.259305
-0.308086
-0.299947
-0.236329
-0.168463
-0.106533
-0.0640798
-0.0351827
-0.0118248
-0.00103371
0.00805061
0.0108916
0.0129625
0.0122941
0.0116209
0.00942533
0.00778527
0.00455874
0.0026098
-0.275086
-0.259786
-0.308975
-0.300813
-0.236524
-0.168418
-0.106741
-0.0645879
-0.0359257
-0.0124974
-0.001502
0.00778899
0.0108376
0.0130336
0.0124119
0.011758
0.00949503
0.00782353
0.00454193
0.00255668
-0.275509
-0.260247
-0.309886
-0.301868
-0.236978
-0.168599
-0.107116
-0.0651875
-0.0367235
-0.0131968
-0.0019902
0.00750597
0.0107608
0.0130793
0.0125079
0.0118748
0.00955091
0.00785073
0.00451981
0.00250099
-0.275928
-0.260663
-0.310763
-0.303059
-0.237663
-0.168999
-0.107657
-0.0658762
-0.0375709
-0.0139214
-0.00249691
0.00720102
0.0106603
0.0130979
0.0125807
0.0119696
0.00959201
0.00786608
0.0044924
0.00244313
-0.276314
-0.261012
-0.311552
-0.30433
-0.238553
-0.169609
-0.108361
-0.0666511
-0.0384627
-0.0146704
-0.00302158
0.00687302
0.0105347
0.0130879
0.0126288
0.0120408
0.00961763
0.00786899
0.0044598
0.00238342
-0.276639
-0.261274
-0.312204
-0.305628
-0.239616
-0.170416
-0.109223
-0.0675083
-0.0393942
-0.0154441
-0.00356431
0.00652051
0.0103828
0.013048
0.0126512
0.0120875
0.00962735
0.0078591
0.00442224
0.00232219
-0.27688
-0.261433
-0.312673
-0.306903
-0.240825
-0.171407
-0.110235
-0.0684432
-0.0403607
-0.0162429
-0.00412562
0.00614183
0.0102032
0.0129771
0.0126471
0.012109
0.009621
0.00783626
0.00438006
0.00225972
-0.277018
-0.261475
-0.312923
-0.308113
-0.242151
-0.172567
-0.11139
-0.0694506
-0.0413575
-0.0170673
-0.00470621
0.00573541
0.00999487
0.0128746
0.0126161
0.0121051
0.00959871
0.00780056
0.0043337
0.00219628
-0.27704
-0.261394
-0.312924
-0.309223
-0.243572
-0.173883
-0.112678
-0.070525
-0.0423801
-0.0179178
-0.00530681
0.00529987
0.00975669
0.0127402
0.012558
0.012076
0.0095608
0.00775227
0.00428363
0.00213209
-0.276939
-0.261187
-0.312652
-0.310205
-0.24507
-0.175342
-0.114092
-0.0716613
-0.0434248
-0.0187945
-0.00592814
0.00483412
0.00948802
0.0125739
0.012473
0.0120222
0.00950782
0.00769184
0.0042304
0.00206734
-0.276712
-0.260855
-0.312091
-0.311036
-0.246632
-0.176936
-0.115625
-0.072855
-0.0444879
-0.0196976
-0.0065707
0.00433747
0.00918844
0.0123759
0.0123615
0.0119446
0.00944045
0.00761987
0.00417458
0.0020022
-0.276352
-0.260396
-0.311223
-0.311684
-0.248237
-0.178647
-0.117263
-0.0740977
-0.045562
-0.0206241
-0.00723314
0.00381028
0.00885806
0.0121468
0.0122241
0.0118441
0.00935943
0.00753698
0.00411673
0.00193682
-0.275844
-0.25981
-0.310036
-0.312109
-0.24984
-0.180432
-0.118973
-0.0753694
-0.0466322
-0.0215654
-0.00791078
0.00325523
0.00849823
0.0118879
0.0120615
0.0117216
0.00926549
0.00744379
0.00405729
0.00187128
-0.275215
-0.259126
-0.308548
-0.312331
-0.251445
-0.182286
-0.120749
-0.0766675
-0.0477038
-0.022523
-0.00860556
0.00267391
0.00811091
0.0116021
0.0118759
0.0115795
0.00915974
0.0073416
0.00399661
0.0018057
-0.274539
-0.258428
-0.306776
-0.312526
-0.25333
-0.184448
-0.122772
-0.0781063
-0.0488724
-0.0235538
-0.00935262
0.0020519
0.00769201
0.0112918
0.011671
0.011423
0.00904483
0.00723352
0.00393549
0.00174029
-0.273216
-0.257549
-0.304445
-0.31255
-0.255736
-0.187221
-0.125282
-0.0798356
-0.0502126
-0.024718
-0.0101847
0.00136136
0.00722556
0.0109474
0.0114434
0.0112506
0.00892276
0.00711974
0.00387624
0.00167502
-0.268943
-0.255554
-0.300964
-0.310627
-0.256871
-0.189177
-0.127223
-0.0811717
-0.0510922
-0.0256563
-0.0108741
0.000680617
0.0067263
0.0105408
0.0111652
0.0110272
0.00878113
0.0069792
0.00381968
0.00160828
-0.228948
-0.23635
-0.276255
-0.2874
-0.251015
-0.190471
-0.130863
-0.0838191
-0.0514752
-0.0282991
-0.0131409
-0.00270805
0.00383099
0.00782659
0.00919797
0.00933678
0.0077995
0.00595338
0.0034946
0.00122432
-0.18882
-0.217291
-0.239565
-0.246029
-0.224936
-0.179606
-0.12872
-0.0845007
-0.052252
-0.0309453
-0.0169837
-0.00794731
-0.00172633
0.00244741
0.004612
0.00549828
0.00502589
0.00390839
0.00239959
0.000621347
-0.169642
-0.192453
-0.20527
-0.206635
-0.191308
-0.15915
-0.119423
-0.0821121
-0.0530702
-0.0334762
-0.0209053
-0.0127769
-0.00697303
-0.00267061
0.000142046
0.00175692
0.00228067
0.00205831
0.00137622
0.000338899
-0.141254
-0.16433
-0.173087
-0.171743
-0.159645
-0.137047
-0.108232
-0.0793618
-0.0549648
-0.0370372
-0.0250208
-0.0170409
-0.0112651
-0.00679101
-0.00352003
-0.00134953
-8.73424e-05
0.000439463
0.000463676
0.000149457
-0.11743
-0.138107
-0.145621
-0.143938
-0.134687
-0.118978
-0.0988968
-0.0773275
-0.0570596
-0.0404552
-0.028493
-0.0203501
-0.0145174
-0.00999531
-0.00650131
-0.00396829
-0.00217806
-0.0010239
-0.000353369
-9.25796e-05
-0.0976059
-0.115876
-0.123121
-0.122476
-0.116081
-0.105229
-0.0909811
-0.0745079
-0.0575632
-0.042482
-0.0308789
-0.0226965
-0.0168316
-0.0123119
-0.00872624
-0.00597591
-0.00383876
-0.00221296
-0.00101548
-0.000246053
-0.0821892
-0.0979247
-0.105139
-0.105925
-0.101992
-0.0943054
-0.0835733
-0.0705845
-0.0565579
-0.0433272
-0.0324589
-0.0243867
-0.0185186
-0.0140379
-0.0104618
-0.00761997
-0.00527427
-0.00329981
-0.00168971
-0.000509784
-0.0702428
-0.0837559
-0.0908434
-0.0927887
-0.0906109
-0.084959
-0.076552
-0.0661949
-0.0547018
-0.0433154
-0.0333742
-0.0256132
-0.0198624
-0.0154799
-0.0119494
-0.00904641
-0.00652416
-0.00426103
-0.00229631
-0.000710724
-0.0609892
-0.0726131
-0.0793716
-0.0819833
-0.0809643
-0.0768034
-0.0702023
-0.0618883
-0.0524246
-0.0426979
-0.0338229
-0.0265923
-0.0210612
-0.0167611
-0.0132155
-0.0102084
-0.00750697
-0.00501365
-0.00276868
-0.000848096
-0.053736
-0.0637614
-0.070024
-0.0729267
-0.0727242
-0.0697715
-0.0646155
-0.0578636
-0.050015
-0.0417773
-0.0340146
-0.0273945
-0.0220875
-0.0178143
-0.0141992
-0.0110674
-0.00821877
-0.00557261
-0.00314146
-0.000979592
-0.0479485
-0.0566223
-0.0623343
-0.0653405
-0.065745
-0.0637477
-0.0597308
-0.0542266
-0.0477182
-0.0407715
-0.0340106
-0.0279564
-0.0228559
-0.0185989
-0.0149142
-0.0116785
-0.00873897
-0.00601012
-0.00346598
-0.00112032
-0.0432394
-0.0507882
-0.0559935
-0.0590228
-0.0598658
-0.0586036
-0.0555131
-0.0510507
-0.0456435
-0.0397387
-0.0338006
-0.0282508
-0.0233644
-0.0191502
-0.0154274
-0.0121351
-0.00915807
-0.00638657
-0.00375453
-0.00124116
-0.039323
-0.0459721
-0.0507613
-0.05378
-0.0549412
-0.0542593
-0.0519331
-0.0483217
-0.0437838
-0.0386897
-0.0334193
-0.028324
-0.0236646
-0.01953
-0.015819
-0.012521
-0.00952813
-0.00671039
-0.00397783
-0.00131578
-0.0359953
-0.041962
-0.0464432
-0.0494538
-0.0508639
-0.0506432
-0.0489224
-0.0459797
-0.0421211
-0.0376649
-0.0329404
-0.0282465
-0.0238209
-0.0198054
-0.0161553
-0.0128684
-0.00983952
-0.00694907
-0.00411683
-0.00135767
-0.033082
-0.0385979
-0.0428928
-0.0459231
-0.0475336
-0.0476649
-0.0464063
-0.0439839
-0.0406606
-0.0367145
-0.0324361
-0.0280926
-0.0238992
-0.0200242
-0.016448
-0.0131519
-0.0100596
-0.00709315
-0.00419977
-0.00139654
-0.0304775
-0.0357747
-0.0400126
-0.0430919
-0.0448558
-0.0452463
-0.0443389
-0.0423207
-0.0394182
-0.035881
-0.0319682
-0.0279283
-0.0239468
-0.0201952
-0.0166662
-0.0133417
-0.0101933
-0.00718554
-0.0042713
-0.00143908
-0.0280857
-0.0334351
-0.0377336
-0.0408771
-0.042752
-0.043332
-0.0426896
-0.0409825
-0.0384104
-0.0351972
-0.0315757
-0.0277846
-0.0239756
-0.0203066
-0.0167942
-0.0134498
-0.0102822
-0.00727219
-0.0043434
-0.00146822
-0.0259481
-0.03158
-0.0360219
-0.0392274
-0.0411774
-0.0418921
-0.0414431
-0.0399707
-0.0376526
-0.0346843
-0.0312765
-0.0276649
-0.0239771
-0.0203594
-0.0168631
-0.0135232
-0.0103593
-0.0073516
-0.00439608
-0.00148004
-0.0241855
-0.0302576
-0.0348654
-0.0381154
-0.0401092
-0.0409116
-0.0405958
-0.0392875
-0.0371446
-0.0343429
-0.0310743
-0.0275692
-0.0239486
-0.0203703
-0.0169116
-0.0135924
-0.0104235
-0.0073944
-0.00441313
-0.0014844
-0.0230763
-0.0295522
-0.0342724
-0.0375431
-0.0395556
-0.0404022
-0.0401588
-0.0389376
-0.0368839
-0.0341679
-0.0309699
-0.027511
-0.0239157
-0.020364
-0.0169431
-0.0136419
-0.0104592
-0.00740119
-0.00440805
-0.00148534
-0.153358
-0.163373
-0.173518
-0.183886
-0.194581
-0.205718
-0.217425
-0.229833
-0.243071
-0.257251
-0.272425
-0.288556
-0.305389
-0.322441
-0.338712
-0.353031
-0.363421
-0.369105
-0.367989
-0.36474
-0.0941951
-0.0975776
-0.100644
-0.103377
-0.105755
-0.107753
-0.109345
-0.110504
-0.111207
-0.111437
-0.111191
-0.110502
-0.10944
-0.10818
-0.106951
-0.106216
-0.106373
-0.108309
-0.11233
-0.120495
-0.0706235
-0.0749073
-0.0792255
-0.0835885
-0.0880075
-0.0924946
-0.0970619
-0.101722
-0.106487
-0.111367
-0.116367
-0.121486
-0.126704
-0.131986
-0.137251
-0.142392
-0.147217
-0.151543
-0.155049
-0.157524
-0.0577743
-0.0606922
-0.0635669
-0.0663991
-0.069189
-0.0719365
-0.0746413
-0.0773027
-0.0799197
-0.0824917
-0.0850182
-0.0875005
-0.0899423
-0.092353
-0.0947501
-0.0971639
-0.099646
-0.102271
-0.105188
-0.108614
-0.0481987
-0.0505767
-0.0529572
-0.0553423
-0.0577344
-0.060136
-0.0625493
-0.0649767
-0.0674206
-0.0698833
-0.072367
-0.0748731
-0.077403
-0.0799557
-0.0825298
-0.0851176
-0.0877144
-0.0902948
-0.0928693
-0.0953772
-0.0423963
-0.044272
-0.0461447
-0.0480148
-0.0498828
-0.0517495
-0.0536153
-0.055481
-0.0573472
-0.0592146
-0.0610841
-0.0629565
-0.0648331
-0.0667148
-0.0686046
-0.070503
-0.0724196
-0.0743522
-0.0763439
-0.0783861
-0.0377736
-0.0392838
-0.0407946
-0.0423065
-0.0438201
-0.0453358
-0.0468542
-0.0483759
-0.0499013
-0.0514311
-0.0529658
-0.0545058
-0.0560518
-0.0576038
-0.059163
-0.060728
-0.0623029
-0.0638804
-0.0654862
-0.0670922
-0.034364
-0.0355973
-0.0368307
-0.0380643
-0.0392981
-0.0405324
-0.0417674
-0.0430034
-0.0442405
-0.045479
-0.0467192
-0.0479613
-0.0492057
-0.0504525
-0.0517025
-0.0529551
-0.0542137
-0.0554734
-0.0567556
-0.0580378
-0.0316324
-0.0326502
-0.033668
-0.0346857
-0.0357036
-0.0367218
-0.0377402
-0.0387592
-0.0397787
-0.040799
-0.0418201
-0.0428421
-0.0438653
-0.0448895
-0.0459153
-0.0469418
-0.0479716
-0.0490004
-0.0500439
-0.051083
-0.0294749
-0.0303227
-0.0311702
-0.0320176
-0.0328648
-0.033712
-0.0345591
-0.0354063
-0.0362535
-0.0371008
-0.0379483
-0.038796
-0.0396439
-0.0404919
-0.0413404
-0.0421888
-0.0430387
-0.0438871
-0.0447456
-0.0455999
-0.0277112
-0.0284196
-0.0291279
-0.0298364
-0.0305449
-0.0312535
-0.0319622
-0.032671
-0.03338
-0.0340891
-0.0347983
-0.0355077
-0.0362171
-0.0369265
-0.037636
-0.0383452
-0.0390552
-0.0397636
-0.0404793
-0.0411918
-0.0262393
-0.0268319
-0.027425
-0.0280188
-0.0286131
-0.0292081
-0.0298036
-0.0303997
-0.0309963
-0.0315934
-0.0321909
-0.0327887
-0.0333868
-0.033985
-0.0345833
-0.0351814
-0.0357799
-0.0363774
-0.0369799
-0.0375811
-0.0249109
-0.0254052
-0.025901
-0.0263985
-0.0268975
-0.0273981
-0.0279001
-0.0284036
-0.0289084
-0.0294144
-0.0299216
-0.0304297
-0.0309387
-0.0314484
-0.0319586
-0.0324692
-0.0329804
-0.0334911
-0.0340059
-0.034521
-0.0236459
-0.0240577
-0.0244726
-0.0248905
-0.0253113
-0.025735
-0.0261615
-0.0265905
-0.0270218
-0.0274554
-0.027891
-0.0283284
-0.0287673
-0.0292075
-0.0296489
-0.030091
-0.030534
-0.0309771
-0.0314234
-0.0318716
-0.0222038
-0.0225463
-0.0228944
-0.023248
-0.0236067
-0.0239703
-0.0243386
-0.0247113
-0.0250881
-0.0254686
-0.0258526
-0.0262395
-0.0266293
-0.0270213
-0.0274154
-0.0278112
-0.0282084
-0.0286067
-0.0290079
-0.0294125
-0.0205598
-0.0208515
-0.0211522
-0.0214613
-0.0217783
-0.0221027
-0.0224339
-0.0227713
-0.0231144
-0.0234626
-0.0238155
-0.0241723
-0.0245327
-0.024896
-0.0252619
-0.0256297
-0.0259993
-0.02637
-0.0267431
-0.0271202
-0.0180503
-0.0183345
-0.0186317
-0.0189407
-0.0192603
-0.0195895
-0.0199272
-0.0202726
-0.0206247
-0.0209827
-0.0213456
-0.0217128
-0.0220836
-0.0224571
-0.0228329
-0.0232103
-0.0235887
-0.023968
-0.0243483
-0.0247323
-0.0147814
-0.0151292
-0.0154898
-0.0158614
-0.0162427
-0.0166322
-0.0170286
-0.0174308
-0.0178378
-0.0182484
-0.018662
-0.0190776
-0.0194944
-0.0199119
-0.0203294
-0.0207464
-0.0211623
-0.0215771
-0.0219903
-0.022405
-0.00976912
-0.0103805
-0.010986
-0.0115854
-0.0121782
-0.012764
-0.0133428
-0.0139142
-0.0144781
-0.0150343
-0.0155828
-0.0161235
-0.0166563
-0.0171812
-0.0176981
-0.0182072
-0.0187084
-0.0192019
-0.0196875
-0.0201685
-0.0042651
-0.00523695
-0.00617456
-0.00707984
-0.00795459
-0.0088005
-0.00961916
-0.0104121
-0.0111806
-0.0119261
-0.0126497
-0.0133527
-0.014036
-0.0147007
-0.0153478
-0.0159781
-0.0165923
-0.0171915
-0.0177759
-0.0183488
-0.004207
-0.00517964
-0.00611805
-0.00702414
-0.0078997
-0.00874642
-0.0095659
-0.0103596
-0.011129
-0.0118753
-0.0125998
-0.0133036
-0.0139878
-0.0146534
-0.0153013
-0.0159324
-0.0165475
-0.0171476
-0.0177329
-0.0183066
-0.00971041
-0.0103226
-0.0109289
-0.0115291
-0.0121227
-0.0127094
-0.013289
-0.0138612
-0.014426
-0.0149831
-0.0155324
-0.016074
-0.0166076
-0.0171334
-0.0176512
-0.0181612
-0.0186632
-0.0191576
-0.0196441
-0.020126
-0.0147213
-0.0150699
-0.0154313
-0.0158038
-0.0161859
-0.0165762
-0.0169735
-0.0173766
-0.0177844
-0.018196
-0.0186104
-0.0190269
-0.0194446
-0.019863
-0.0202815
-0.0206993
-0.0211162