/*--------------------------------*- C++ -*----------------------------------*\
  =========                 |
  \\      /  F ield         | OpenFOAM: The Open Source CFD Toolbox
   \\    /   O peration     | Website:  https://openfoam.org
    \\  /    A nd           | Version:  6.0
     \\/     M anipulation  |
\*---------------------------------------------------------------------------*/
FoamFile
{
    version     2.0;
    format      ascii;
    class       volScalarField;
    location    "7";
    object      p;
}
// * * * * * * * * * * * * * * * * * * * * * * * * * * * * * * * * * * * * * //

dimensions      [0 2 -2 0 0 0 0];

internalField   nonuniform List<scalar> 
4000
(
-0.32507
-0.327762
-0.329447
-0.330712
-0.331906
-0.333103
-0.334347
-0.335666
-0.337071
-0.33856
-0.340128
-0.341768
-0.34347
-0.345226
-0.347038
-0.348919
-0.350837
-0.352574
-0.354176
-0.357591
-0.325565
-0.32818
-0.329825
-0.331065
-0.33224
-0.333421
-0.334652
-0.335959
-0.337354
-0.338833
-0.340392
-0.342022
-0.343714
-0.345461
-0.347263
-0.349135
-0.351045
-0.352777
-0.354365
-0.357771
-0.326539
-0.329005
-0.330569
-0.331759
-0.332895
-0.334045
-0.335249
-0.336533
-0.337906
-0.339365
-0.340904
-0.342514
-0.344186
-0.345914
-0.347695
-0.349548
-0.351444
-0.353164
-0.354725
-0.358111
-0.327944
-0.330196
-0.331643
-0.332759
-0.333837
-0.334938
-0.3361
-0.337347
-0.338685
-0.340111
-0.341617
-0.343195
-0.344835
-0.34653
-0.348279
-0.3501
-0.351969
-0.353669
-0.355188
-0.358537
-0.329713
-0.331697
-0.332995
-0.334016
-0.335015
-0.33605
-0.337153
-0.338346
-0.339633
-0.34101
-0.342468
-0.343997
-0.34559
-0.347236
-0.348936
-0.350708
-0.352536
-0.354204
-0.355664
-0.358956
-0.331765
-0.333444
-0.334567
-0.335471
-0.336372
-0.33732
-0.338345
-0.339465
-0.340682
-0.34199
-0.34338
-0.344843
-0.346367
-0.347945
-0.349576
-0.35128
-0.353048
-0.354666
-0.356049
-0.359258
-0.334013
-0.335365
-0.336294
-0.337063
-0.337846
-0.338687
-0.339612
-0.340636
-0.34176
-0.342977
-0.344277
-0.345648
-0.347082
-0.348568
-0.350107
-0.351719
-0.353403
-0.354952
-0.356239
-0.359338
-0.336374
-0.337393
-0.338117
-0.338735
-0.33938
-0.340092
-0.340894
-0.341797
-0.342802
-0.343901
-0.345084
-0.346338
-0.347654
-0.349023
-0.350443
-0.351936
-0.35351
-0.354968
-0.356139
-0.359103
-0.338767
-0.339465
-0.339981
-0.340435
-0.340925
-0.341485
-0.342137
-0.342893
-0.343752
-0.344705
-0.345742
-0.346851
-0.348021
-0.349243
-0.350515
-0.351861
-0.353296
-0.354637
-0.355675
-0.358482
-0.341129
-0.341531
-0.341842
-0.342123
-0.34244
-0.342827
-0.343306
-0.343887
-0.344571
-0.34535
-0.346212
-0.347146
-0.348141
-0.349187
-0.350283
-0.351451
-0.352717
-0.353912
-0.354796
-0.357429
-0.343412
-0.343557
-0.343671
-0.343772
-0.343903
-0.344097
-0.344378
-0.344759
-0.345241
-0.345817
-0.346478
-0.347211
-0.348004
-0.348847
-0.349738
-0.350699
-0.351762
-0.352776
-0.353481
-0.355925
-0.34559
-0.345522
-0.345455
-0.345372
-0.345304
-0.345287
-0.345349
-0.345507
-0.345764
-0.346116
-0.346553
-0.347063
-0.347632
-0.348249
-0.348909
-0.349634
-0.350459
-0.351251
-0.351736
-0.353964
-0.347659
-0.347428
-0.347194
-0.346926
-0.346649
-0.346407
-0.346233
-0.346149
-0.346164
-0.346275
-0.346474
-0.346747
-0.347078
-0.347454
-0.347864
-0.348325
-0.348874
-0.349391
-0.34959
-0.351546
-0.349639
-0.34929
-0.348904
-0.348451
-0.347958
-0.347479
-0.347057
-0.34672
-0.346481
-0.346343
-0.346297
-0.346329
-0.346419
-0.346547
-0.346696
-0.346871
-0.347104
-0.347279
-0.347087
-0.348659
-0.351571
-0.351144
-0.350618
-0.349977
-0.349263
-0.34854
-0.347862
-0.347265
-0.34677
-0.346381
-0.346093
-0.345888
-0.345743
-0.345629
-0.345514
-0.345387
-0.345264
-0.345015
-0.344285
-0.345275
-0.353516
-0.353037
-0.352379
-0.351548
-0.350607
-0.349635
-0.348698
-0.347841
-0.347091
-0.346457
-0.345936
-0.345507
-0.34514
-0.344794
-0.344422
-0.343984
-0.343468
-0.342712
-0.341271
-0.341386
-0.35555
-0.355032
-0.35424
-0.353214
-0.352042
-0.350819
-0.349622
-0.348507
-0.347509
-0.34664
-0.345897
-0.345259
-0.344686
-0.344126
-0.343506
-0.342756
-0.341819
-0.340494
-0.338191
-0.337068
-0.357763
-0.3572
-0.356264
-0.355034
-0.353626
-0.352149
-0.350695
-0.349328
-0.34809
-0.346997
-0.346046
-0.345212
-0.344449
-0.343688
-0.342833
-0.341769
-0.340382
-0.338418
-0.335105
-0.332305
-0.360249
-0.359616
-0.358518
-0.357072
-0.35542
-0.353688
-0.35198
-0.350368
-0.348898
-0.347592
-0.346446
-0.345433
-0.344502
-0.343571
-0.342523
-0.341195
-0.339393
-0.336728
-0.33212
-0.326983
-0.363104
-0.362357
-0.36107
-0.359391
-0.357486
-0.355497
-0.353537
-0.351686
-0.349994
-0.348485
-0.347158
-0.345987
-0.344927
-0.343905
-0.342819
-0.341526
-0.339829
-0.337246
-0.332385
-0.326128
-0.366417
-0.365498
-0.363985
-0.362053
-0.359883
-0.357633
-0.355423
-0.353338
-0.351429
-0.349724
-0.348224
-0.34691
-0.345751
-0.344706
-0.343737
-0.342832
-0.342034
-0.341449
-0.341674
-0.34786
-0.370269
-0.369107
-0.367326
-0.365114
-0.362665
-0.360147
-0.357685
-0.355367
-0.353244
-0.351343
-0.349666
-0.3482
-0.346926
-0.345825
-0.344897
-0.344183
-0.3438
-0.343969
-0.345201
-0.350543
-0.374729
-0.373244
-0.371146
-0.368626
-0.365878
-0.363082
-0.360364
-0.357809
-0.355467
-0.353361
-0.351491
-0.349846
-0.348411
-0.347177
-0.346157
-0.345402
-0.345014
-0.345157
-0.346086
-0.349127
-0.379852
-0.377959
-0.375493
-0.372632
-0.369565
-0.366477
-0.363493
-0.360692
-0.358118
-0.355785
-0.353687
-0.35181
-0.350134
-0.348652
-0.347371
-0.346322
-0.345565
-0.345172
-0.34526
-0.346195
-0.385683
-0.383296
-0.380408
-0.377174
-0.373764
-0.370366
-0.367101
-0.364036
-0.361203
-0.358602
-0.356219
-0.354029
-0.352007
-0.350136
-0.348414
-0.346851
-0.345468
-0.344279
-0.343338
-0.342527
-0.392254
-0.389291
-0.385931
-0.382289
-0.378511
-0.374782
-0.371213
-0.367854
-0.364717
-0.361787
-0.359034
-0.356423
-0.353924
-0.351515
-0.349186
-0.346937
-0.344771
-0.342686
-0.340717
-0.338589
-0.399592
-0.395974
-0.392093
-0.388014
-0.383843
-0.379758
-0.375851
-0.37215
-0.368641
-0.365291
-0.362057
-0.358895
-0.355776
-0.352679
-0.3496
-0.346542
-0.343512
-0.340512
-0.337574
-0.33443
-0.407714
-0.403369
-0.398926
-0.394382
-0.389791
-0.385316
-0.381024
-0.376909
-0.372934
-0.369046
-0.365192
-0.361333
-0.357446
-0.353525
-0.349582
-0.345635
-0.341706
-0.337814
-0.333989
-0.330034
-0.416627
-0.411492
-0.406453
-0.401419
-0.396379
-0.391468
-0.38672
-0.382095
-0.377527
-0.372954
-0.368325
-0.363613
-0.358819
-0.35396
-0.349071
-0.344191
-0.339358
-0.334608
-0.329968
-0.325316
-0.426325
-0.420345
-0.414684
-0.409139
-0.403612
-0.398203
-0.392903
-0.387637
-0.382322
-0.376895
-0.371324
-0.365611
-0.359788
-0.353904
-0.348018
-0.342189
-0.336469
-0.3309
-0.325505
-0.320214
-0.436781
-0.429915
-0.423613
-0.417535
-0.411472
-0.405477
-0.399498
-0.39343
-0.387187
-0.380726
-0.37405
-0.367204
-0.360256
-0.353291
-0.346388
-0.339618
-0.333039
-0.326692
-0.320588
-0.314691
-0.447945
-0.440164
-0.43321
-0.42657
-0.419904
-0.413207
-0.406389
-0.399331
-0.391965
-0.38429
-0.376362
-0.368276
-0.360142
-0.35207
-0.344155
-0.336471
-0.329071
-0.321988
-0.315217
-0.308738
-0.459735
-0.451026
-0.443412
-0.436173
-0.428812
-0.421266
-0.413419
-0.405163
-0.396476
-0.387422
-0.378122
-0.368725
-0.359375
-0.350201
-0.341302
-0.332743
-0.324567
-0.316792
-0.309394
-0.302361
-0.472033
-0.4624
-0.454121
-0.446228
-0.438053
-0.429481
-0.420392
-0.410723
-0.40053
-0.389959
-0.379203
-0.368458
-0.357896
-0.347649
-0.337808
-0.328425
-0.319523
-0.311104
-0.30312
-0.295568
-0.484682
-0.474144
-0.465193
-0.456574
-0.447437
-0.437633
-0.427078
-0.415791
-0.403932
-0.391743
-0.379487
-0.367395
-0.355651
-0.344379
-0.333653
-0.323502
-0.31393
-0.304917
-0.296391
-0.288362
-0.497482
-0.486077
-0.476443
-0.467002
-0.456728
-0.44547
-0.433226
-0.420138
-0.406491
-0.392627
-0.378864
-0.365458
-0.352587
-0.340354
-0.328807
-0.317951
-0.307766
-0.298213
-0.289191
-0.280738
-0.510193
-0.497974
-0.487636
-0.477255
-0.465647
-0.452709
-0.43857
-0.423534
-0.408025
-0.392472
-0.377237
-0.362576
-0.348649
-0.335529
-0.323234
-0.31174
-0.301005
-0.290967
-0.281501
-0.27268
-0.522534
-0.509568
-0.498497
-0.487036
-0.473886
-0.45905
-0.442846
-0.425764
-0.408365
-0.391154
-0.374512
-0.358679
-0.343782
-0.32986
-0.316893
-0.304831
-0.293609
-0.283146
-0.273292
-0.264164
-0.534188
-0.520553
-0.508709
-0.496014
-0.481113
-0.464189
-0.445794
-0.42662
-0.407356
-0.388557
-0.370601
-0.353696
-0.337927
-0.323291
-0.309734
-0.297179
-0.285539
-0.274713
-0.264528
-0.255158
-0.54481
-0.530592
-0.517923
-0.50383
-0.486985
-0.46782
-0.447163
-0.425908
-0.404849
-0.384568
-0.365415
-0.347554
-0.331019
-0.315765
-0.301704
-0.288732
-0.276747
-0.265624
-0.255169
-0.245626
-0.544924
-0.530705
-0.518035
-0.50394
-0.487093
-0.467925
-0.447264
-0.426006
-0.404944
-0.38466
-0.365503
-0.34764
-0.331103
-0.315846
-0.301783
-0.28881
-0.276822
-0.265697
-0.255241
-0.245697
-0.534299
-0.520662
-0.508817
-0.49612
-0.481218
-0.464291
-0.445894
-0.426717
-0.407449
-0.388648
-0.370689
-0.353782
-0.338011
-0.323372
-0.309814
-0.297256
-0.285615
-0.274787
-0.264601
-0.25523
-0.522641
-0.509673
-0.498602
-0.48714
-0.473988
-0.45915
-0.442944
-0.425859
-0.408457
-0.391244
-0.374598
-0.358764
-0.343865
-0.32994
-0.316972
-0.304908
-0.293685
-0.283221
-0.273365
-0.264236
-0.510296
-0.498076
-0.487737
-0.477355
-0.465746
-0.452806
-0.438665
-0.423627
-0.408115
-0.39256
-0.377322
-0.36266
-0.348731
-0.33561
-0.323313
-0.311818
-0.301081
-0.291041
-0.281575
-0.272753
-0.497582
-0.486176
-0.47654
-0.467099
-0.456823
-0.445565
-0.433318
-0.420228
-0.40658
-0.392713
-0.378949
-0.365541
-0.352668
-0.340434
-0.328886
-0.318029
-0.307843
-0.298288
-0.289266
-0.280812
-0.484778
-0.474239
-0.465287
-0.456667
-0.447529
-0.437725
-0.427168
-0.41588
-0.404019
-0.391828
-0.37957
-0.367477
-0.355732
-0.344459
-0.333731
-0.32358
-0.314006
-0.304992
-0.296465
-0.288436
-0.472126
-0.462491
-0.454211
-0.446318
-0.438142
-0.429569
-0.420479
-0.410809
-0.400614
-0.390042
-0.379285
-0.368539
-0.357976
-0.347728
-0.337886
-0.328503
-0.3196
-0.31118
-0.303196
-0.295643
-0.459824
-0.451114
-0.443499
-0.436259
-0.428897
-0.421351
-0.413503
-0.405246
-0.396558
-0.387503
-0.378203
-0.368804
-0.359454
-0.35028
-0.341379
-0.332821
-0.324644
-0.316869
-0.309471
-0.302437
-0.448031
-0.440249
-0.433294
-0.426653
-0.419986
-0.413289
-0.40647
-0.399411
-0.392044
-0.384369
-0.37644
-0.368354
-0.36022
-0.352148
-0.344233
-0.336549
-0.329148
-0.322065
-0.315295
-0.308815
-0.436864
-0.429997
-0.423694
-0.417615
-0.411552
-0.405556
-0.399576
-0.393507
-0.387264
-0.380803
-0.374127
-0.36728
-0.360333
-0.353367
-0.346465
-0.339696
-0.333116
-0.32677
-0.320666
-0.314769
-0.426405
-0.420424
-0.414762
-0.409217
-0.403689
-0.398279
-0.392978
-0.387711
-0.382396
-0.376969
-0.371398
-0.365686
-0.359862
-0.353979
-0.348094
-0.342267
-0.336547
-0.330979
-0.325584
-0.320294
-0.416704
-0.411568
-0.406528
-0.401494
-0.396452
-0.391541
-0.386792
-0.382166
-0.377598
-0.373025
-0.368396
-0.363685
-0.358892
-0.354034
-0.349147
-0.344268
-0.339437
-0.334688
-0.330049
-0.325398
-0.407788
-0.403443
-0.398999
-0.394454
-0.389862
-0.385386
-0.381092
-0.376977
-0.373002
-0.369113
-0.36526
-0.361402
-0.357517
-0.353598
-0.349657
-0.345712
-0.341785
-0.337895
-0.334071
-0.330118
-0.399664
-0.396045
-0.392164
-0.388084
-0.383911
-0.379825
-0.375917
-0.372215
-0.368706
-0.365356
-0.362122
-0.358962
-0.355845
-0.352751
-0.349674
-0.346619
-0.343591
-0.340594
-0.337659
-0.334516
-0.392324
-0.389361
-0.386
-0.382357
-0.378577
-0.374847
-0.371276
-0.367916
-0.364778
-0.361848
-0.359096
-0.356488
-0.353991
-0.351585
-0.349259
-0.347014
-0.344852
-0.34277
-0.340804
-0.338679
-0.385751
-0.383364
-0.380476
-0.37724
-0.373828
-0.370428
-0.367161
-0.364095
-0.361261
-0.358661
-0.356279
-0.354091
-0.352071
-0.350205
-0.348487
-0.346929
-0.34555
-0.344365
-0.343429
-0.342621
-0.37992
-0.378027
-0.375559
-0.372697
-0.369628
-0.366537
-0.363551
-0.360748
-0.358173
-0.35584
-0.353744
-0.351869
-0.350197
-0.34872
-0.347444
-0.346401
-0.345649
-0.345262
-0.345355
-0.346293
-0.374796
-0.373311
-0.371212
-0.36869
-0.36594
-0.363141
-0.36042
-0.357863
-0.35552
-0.353414
-0.351546
-0.349903
-0.348472
-0.347243
-0.34623
-0.345482
-0.345101
-0.345251
-0.346187
-0.349231
-0.370337
-0.369175
-0.367392
-0.365178
-0.362726
-0.360205
-0.35774
-0.355419
-0.353295
-0.351394
-0.349718
-0.348256
-0.346986
-0.345891
-0.34497
-0.344265
-0.343892
-0.344069
-0.345308
-0.350656
-0.366487
-0.365568
-0.364053
-0.362118
-0.359945
-0.357692
-0.355478
-0.35339
-0.35148
-0.349775
-0.348276
-0.346965
-0.345811
-0.344773
-0.343813
-0.342917
-0.34213
-0.341557
-0.341792
-0.347985
-0.363177
-0.362429
-0.361139
-0.359457
-0.357549
-0.355556
-0.353593
-0.351739
-0.350046
-0.348536
-0.34721
-0.346043
-0.344989
-0.343974
-0.342897
-0.341615
-0.339931
-0.337363
-0.332518
-0.326278
-0.360326
-0.35969
-0.35859
-0.357141
-0.355484
-0.353749
-0.352037
-0.350422
-0.348951
-0.347645
-0.346501
-0.345491
-0.344566
-0.343643
-0.342605
-0.341289
-0.339501
-0.336852
-0.332262
-0.327143
-0.357844
-0.357278
-0.356339
-0.355106
-0.353693
-0.352213
-0.350755
-0.349386
-0.348146
-0.347053
-0.346104
-0.345274
-0.344517
-0.343765
-0.34292
-0.341868
-0.340496
-0.338548
-0.335254
-0.332472
-0.355637
-0.355115
-0.354319
-0.353289
-0.352113
-0.350886
-0.349686
-0.348569
-0.347569
-0.346701
-0.345961
-0.345326
-0.34476
-0.344208
-0.343599
-0.342862
-0.34194
-0.340631
-0.338348
-0.337243
-0.353608
-0.353124
-0.352461
-0.351626
-0.350682
-0.349706
-0.348766
-0.347907
-0.347156
-0.346524
-0.346005
-0.345581
-0.34522
-0.344884
-0.344522
-0.344098
-0.343596
-0.342858
-0.341436
-0.341568
-0.351668
-0.351235
-0.350704
-0.35006
-0.349341
-0.348615
-0.347935
-0.347336
-0.346841
-0.346454
-0.346169
-0.345969
-0.345832
-0.345726
-0.345623
-0.345509
-0.345401
-0.345169
-0.344458
-0.345464
-0.349741
-0.349385
-0.348994
-0.348536
-0.34804
-0.347558
-0.347134
-0.346796
-0.346558
-0.346422
-0.34638
-0.346417
-0.346515
-0.346653
-0.346813
-0.347001
-0.34725
-0.347441
-0.347267
-0.348855
-0.347765
-0.347526
-0.347286
-0.347014
-0.346734
-0.346489
-0.346314
-0.34623
-0.346245
-0.346359
-0.346562
-0.346842
-0.347181
-0.347567
-0.347988
-0.348462
-0.349027
-0.34956
-0.349777
-0.351748
-0.345699
-0.345622
-0.345549
-0.345463
-0.345391
-0.345372
-0.345433
-0.345591
-0.345849
-0.346205
-0.346647
-0.347164
-0.347741
-0.348368
-0.34904
-0.349778
-0.350617
-0.351426
-0.351928
-0.35417
-0.343522
-0.343657
-0.343767
-0.343864
-0.343991
-0.344183
-0.344464
-0.344845
-0.345329
-0.34591
-0.346576
-0.347316
-0.348117
-0.34897
-0.349873
-0.350847
-0.351924
-0.352954
-0.353676
-0.356132
-0.341238
-0.341631
-0.341936
-0.342213
-0.342528
-0.342914
-0.343392
-0.343975
-0.344661
-0.345444
-0.346312
-0.347253
-0.348256
-0.349313
-0.35042
-0.351601
-0.352881
-0.35409
-0.35499
-0.357636
-0.338874
-0.339562
-0.340073
-0.340523
-0.34101
-0.34157
-0.342223
-0.34298
-0.343842
-0.344799
-0.345842
-0.346958
-0.348136
-0.349367
-0.350651
-0.352009
-0.353458
-0.354813
-0.355865
-0.358684
-0.336476
-0.337486
-0.338205
-0.338819
-0.339463
-0.340174
-0.340976
-0.341881
-0.342889
-0.343993
-0.345181
-0.346442
-0.347766
-0.349144
-0.350574
-0.352079
-0.353665
-0.355137
-0.356322
-0.359297
-0.334108
-0.335451
-0.336376
-0.337142
-0.337923
-0.338763
-0.339689
-0.340715
-0.341842
-0.343063
-0.344368
-0.345746
-0.347187
-0.348682
-0.350231
-0.351853
-0.353549
-0.35511
-0.35641
-0.359519
-0.33185
-0.333521
-0.33464
-0.335541
-0.336441
-0.337389
-0.338415
-0.339537
-0.340756
-0.342068
-0.343463
-0.344932
-0.346463
-0.348049
-0.349689
-0.351402
-0.35318
-0.354809
-0.356203
-0.359421
-0.329786
-0.331764
-0.333058
-0.334077
-0.335075
-0.336109
-0.337214
-0.338408
-0.339698
-0.341078
-0.34254
-0.344075
-0.345673
-0.347326
-0.349033
-0.350814
-0.352651
-0.354327
-0.355797
-0.359097
-0.328004
-0.33025
-0.331694
-0.332809
-0.333886
-0.334987
-0.33615
-0.337398
-0.338738
-0.340167
-0.341676
-0.343258
-0.344904
-0.346604
-0.348358
-0.350186
-0.352062
-0.35377
-0.355297
-0.358653
-0.326583
-0.329045
-0.330607
-0.331796
-0.332931
-0.334081
-0.335286
-0.336571
-0.337945
-0.339406
-0.340948
-0.342561
-0.344237
-0.345968
-0.347754
-0.349612
-0.351513
-0.353238
-0.354806
-0.358196
-0.325592
-0.328205
-0.329848
-0.331087
-0.332262
-0.333443
-0.334674
-0.335983
-0.337378
-0.338859
-0.340419
-0.34205
-0.343745
-0.345495
-0.347299
-0.349174
-0.351088
-0.352823
-0.354415
-0.357824
-0.325079
-0.32777
-0.329455
-0.330719
-0.331914
-0.33311
-0.334354
-0.335674
-0.337079
-0.338569
-0.340137
-0.341777
-0.34348
-0.345237
-0.34705
-0.348933
-0.350851
-0.352589
-0.354193
-0.357609
-0.432209
-0.320995
-0.143352
-0.0204872
0.0311083
0.0534428
0.0451038
0.0379038
0.0304185
0.0240644
0.0182558
0.0136927
0.0102749
0.00771598
0.00575184
0.0042358
0.00302034
0.00203862
0.00116079
0.000411188
-0.433072
-0.32209
-0.144136
-0.0209236
0.0308147
0.0532624
0.0449997
0.0378343
0.0303807
0.0240432
0.0182435
0.0136854
0.0102708
0.00771386
0.00575064
0.00423505
0.00301987
0.00203831
0.00116065
0.000411081
-0.43472
-0.324222
-0.145677
-0.021784
0.0302385
0.0529051
0.0447928
0.0376959
0.0303054
0.0240008
0.0182188
0.0136707
0.0102628
0.00770964
0.00574825
0.00423355
0.00301893
0.00203769
0.00116038
0.000410868
-0.436961
-0.327249
-0.14792
-0.0230588
0.0293893
0.0523718
0.0444836
0.0374894
0.0301933
0.0239379
0.0181822
0.0136489
0.0102509
0.00770332
0.00574466
0.00423131
0.00301752
0.00203676
0.00115997
0.000410548
-0.439545
-0.330981
-0.150795
-0.0247341
0.0282805
0.0516646
0.044073
0.0372162
0.0300458
0.0238552
0.0181339
0.01362
0.010235
0.00769493
0.00573989
0.00422831
0.00301563
0.00203551
0.00115942
0.000410121
-0.442203
-0.33521
-0.154226
-0.0267915
0.0269289
0.0507863
0.0435623
0.0368779
0.0298643
0.0237538
0.0180744
0.0135843
0.0102154
0.00768452
0.00573395
0.00422456
0.00301326
0.00203394
0.00115873
0.000409587
-0.444675
-0.33973
-0.158136
-0.0292092
0.0253536
0.0497413
0.0429528
0.0364761
0.0296503
0.0236346
0.0180044
0.0135421
0.010192
0.00767212
0.00572686
0.00422007
0.00301041
0.00203205
0.0011579
0.000408946
-0.446738
-0.344357
-0.162454
-0.0319628
0.0235752
0.0485358
0.0422466
0.036013
0.0294056
0.0234991
0.0179244
0.0134935
0.0101651
0.00765778
0.00571864
0.00421484
0.00300709
0.00202985
0.00115692
0.000408199
-0.448218
-0.348934
-0.167116
-0.0350263
0.021616
0.0471774
0.0414463
0.0354906
0.029132
0.0233484
0.0178352
0.0134389
0.0101347
0.00764155
0.00570931
0.00420889
0.0030033
0.00202733
0.00115579
0.000407348
-0.448997
-0.353341
-0.172069
-0.0383736
0.0194985
0.0456763
0.040555
0.0349112
0.0288312
0.023184
0.0177375
0.0133787
0.010101
0.0076235
0.00569891
0.00420223
0.00299903
0.00202449
0.00115451
0.000406393
-0.449012
-0.357487
-0.177263
-0.0419782
0.0172459
0.0440444
0.0395768
0.0342771
0.0285048
0.023007
0.0176319
0.0133131
0.010064
0.0076037
0.00568747
0.00419486
0.00299429
0.00202133
0.00115309
0.000405335
-0.448252
-0.361313
-0.182659
-0.0458163
0.01488
0.0422952
0.0385163
0.0335909
0.0281544
0.0228188
0.0175193
0.0132425
0.0100241
0.0075822
0.005675
0.00418681
0.00298908
0.00201786
0.00115151
0.000404174
-0.446742
-0.36479
-0.188233
-0.0498727
0.0124183
0.0404425
0.037379
0.0328551
0.0277815
0.0226207
0.0174006
0.0131674
0.00998123
0.00755908
0.00566156
0.00417807
0.00298341
0.00201407
0.00114978
0.000402914
-0.44453
-0.367908
-0.193975
-0.054141
0.00987519
0.038501
0.036171
0.0320726
0.0273873
0.0224138
0.0172764
0.013088
0.00993572
0.00753445
0.00564718
0.00416868
0.00297728
0.00200997
0.0011479
0.000401554
-0.441655
-0.370613
-0.199812
-0.058581
0.00728548
0.0364943
0.0348999
0.0312453
0.0269725
0.0221989
0.0171473
0.0130047
0.00988755
0.00750829
0.00563186
0.00415863
0.00297068
0.00200554
0.00114585
0.000400094
-0.438145
-0.372776
-0.205543
-0.0630671
0.00471974
0.0344576
0.0335767
0.030376
0.0265372
0.0219759
0.017013
0.0129172
0.00983649
0.00748043
0.00561547
0.00414781
0.00296354
0.00200074
0.00114362
0.000398527
-0.434047
-0.374531
-0.211213
-0.0675987
0.0021471
0.0323857
0.032209
0.0294735
0.026086
0.0217476
0.0168756
0.0128266
0.0097832
0.00745123
0.00559821
0.00413635
0.00295593
0.00199563
0.00114121
0.000396861
-0.429257
-0.376815
-0.218001
-0.0728992
-0.000838487
0.0301446
0.0307869
0.0285542
0.0256347
0.0215272
0.0167455
0.0127402
0.0097323
0.00742356
0.00558189
0.00412539
0.00294855
0.00199063
0.00113887
0.000395195
-0.422739
-0.379604
-0.226877
-0.0797804
-0.00446924
0.0277065
0.0292983
0.0275956
0.025175
0.021318
0.0166281
0.0126619
0.0096864
0.00739937
0.00556791
0.00411588
0.00294201
0.00198611
0.00113682
0.000393586
-0.413061
-0.37654
-0.231672
-0.084657
-0.00645034
0.0259908
0.0278296
0.0264569
0.0245775
0.0210236
0.0164484
0.0125376
0.00961024
0.00735655
0.00554239
0.00409886
0.00293078
0.0019785
0.00113318
0.000391175
-0.350578
-0.324011
-0.221608
-0.089107
-0.00338051
0.0228868
0.0206006
0.0191313
0.0202131
0.0186167
0.0148375
0.0113807
0.00887355
0.00692018
0.0052747
0.0039212
0.00281579
0.00190164
0.00109438
0.000368899
-0.260634
-0.25578
-0.187563
-0.0851811
-0.00871436
0.012118
0.00751646
0.0072439
0.0122294
0.0138291
0.0116254
0.00904124
0.00727455
0.00589116
0.00460178
0.00346461
0.00250999
0.00170555
0.000986062
0.000326767
-0.200018
-0.197344
-0.151641
-0.0813741
-0.0220442
0.000229289
-0.00021178
0.000708787
0.00676644
0.0101569
0.00922083
0.00724943
0.00591922
0.0049305
0.00393653
0.00299642
0.00218539
0.00149295
0.000868042
0.000289646
-0.148379
-0.150363
-0.123014
-0.0774217
-0.0307976
-0.00567431
-0.00242964
-0.00254284
0.00210742
0.00615722
0.00644776
0.00520857
0.00432959
0.00375481
0.0031113
0.00242145
0.0017893
0.00123401
0.000722399
0.000240711
-0.111459
-0.116462
-0.101356
-0.0708036
-0.0345534
-0.0107528
-0.00557079
-0.00583171
-0.00210016
0.0024579
0.00394282
0.00346912
0.00296341
0.00268976
0.00232915
0.00186031
0.00139272
0.000969032
0.000571749
0.000191662
-0.0851991
-0.0916842
-0.0831205
-0.0624342
-0.0356817
-0.0152618
-0.00847711
-0.00781693
-0.00482831
-0.000492362
0.00165624
0.00181736
0.00164718
0.00162484
0.00152032
0.00127234
0.000976032
0.000689813
0.00041184
0.000138526
-0.0663701
-0.0729151
-0.068187
-0.0545011
-0.035388
-0.0186038
-0.0109182
-0.00917746
-0.00672049
-0.00290187
-0.000409883
0.000307308
0.000465621
0.000651525
0.000755989
0.000704146
0.00056857
0.000414014
0.000252576
8.58871e-05
-0.0525878
-0.0587132
-0.0564815
-0.0475325
-0.0339488
-0.0205512
-0.0128468
-0.0102508
-0.00804888
-0.00478069
-0.00220175
-0.00106685
-0.000609499
-0.000243564
3.39087e-05
0.000155975
0.000171599
0.00014379
9.56634e-05
3.3725e-05
-0.042541
-0.0480841
-0.0473847
-0.0415016
-0.0318424
-0.0214356
-0.0143316
-0.0111776
-0.00900721
-0.00619548
-0.00369396
-0.00228505
-0.00157147
-0.00104699
-0.00062761
-0.000357138
-0.000204521
-0.000113799
-5.46141e-05
-1.63016e-05
-0.0352793
-0.0401181
-0.0402761
-0.0364082
-0.0295368
-0.0215843
-0.0153575
-0.011947
-0.00971879
-0.00724749
-0.00490613
-0.00334654
-0.00242816
-0.00176363
-0.00122571
-0.000829887
-0.000555346
-0.00035548
-0.000196197
-6.35669e-05
-0.0300253
-0.0341246
-0.0347276
-0.0322041
-0.0272913
-0.0212463
-0.0159626
-0.0125538
-0.0102702
-0.00803243
-0.00586965
-0.00424958
-0.00318015
-0.00239548
-0.00175778
-0.00125727
-0.000876555
-0.000578207
-0.000327143
-0.000107325
-0.0262026
-0.0296045
-0.0304044
-0.0287755
-0.0252336
-0.0206312
-0.016235
-0.0130015
-0.0107057
-0.00862355
-0.00662415
-0.00500193
-0.00383068
-0.00294706
-0.00222512
-0.00163745
-0.00116573
-0.000780072
-0.000446212
-0.000147149
-0.0233893
-0.0261848
-0.027039
-0.0260041
-0.0234255
-0.019896
-0.0162692
-0.0133023
-0.0110464
-0.00907303
-0.0072092
-0.00561665
-0.0043837
-0.00342242
-0.00262998
-0.00197005
-0.00142144
-0.000959782
-0.000552563
-0.000182737
-0.0212894
-0.0235893
-0.0244256
-0.0237849
-0.0218854
-0.019145
-0.016151
-0.01348
-0.0113064
-0.00941711
-0.00766003
-0.00611024
-0.00484501
-0.00382575
-0.0029754
-0.0022559
-0.0016432
-0.00111666
-0.000645715
-0.000213925
-0.0197043
-0.0216194
-0.0224086
-0.0220289
-0.0206085
-0.0184437
-0.0159508
-0.0135642
-0.0114973
-0.00967991
-0.00800493
-0.00649953
-0.00522157
-0.00416118
-0.00326446
-0.00249644
-0.0018312
-0.00125046
-0.000725431
-0.000240628
-0.0185099
-0.0201359
-0.020872
-0.0206644
-0.0195802
-0.0178308
-0.0157223
-0.013585
-0.0116315
-0.00987803
-0.00826561
-0.00680013
-0.00552091
-0.00443279
-0.00350014
-0.00269341
-0.00198605
-0.00136124
-0.000791648
-0.000262822
-0.0176276
-0.0190421
-0.0197305
-0.019635
-0.0187832
-0.017328
-0.0155039
-0.0135694
-0.0117208
-0.0100234
-0.008458
-0.00702523
-0.00575035
-0.0046445
-0.0036851
-0.00284856
-0.00210856
-0.00144927
-0.000844411
-0.000280515
-0.0170045
-0.0182715
-0.0189224
-0.0188978
-0.0182012
-0.0169461
-0.0153216
-0.0135391
-0.0117767
-0.0101247
-0.00859349
-0.00718527
-0.00591633
-0.00479981
-0.00382166
-0.00296343
-0.00219957
-0.00151488
-0.000883824
-0.000293734
-0.0166054
-0.0177798
-0.018405
-0.0184222
-0.0178207
-0.0166901
-0.0151924
-0.0135104
-0.0118085
-0.0101887
-0.0086798
-0.00728787
-0.00602401
-0.0049016
-0.00391162
-0.00303927
-0.00225979
-0.00155838
-0.000910004
-0.000302499
-0.0164099
-0.0175399
-0.0181522
-0.0181887
-0.0176327
-0.016562
-0.0151258
-0.0134938
-0.0118228
-0.0102196
-0.0087218
-0.00733797
-0.00607696
-0.00495196
-0.00395627
-0.00307695
-0.00228977
-0.00158003
-0.000923055
-0.000306815
-0.1907
-0.200455
-0.210242
-0.220136
-0.230224
-0.240598
-0.251363
-0.26263
-0.274515
-0.287132
-0.300571
-0.314892
-0.330029
-0.34583
-0.361745
-0.377181
-0.390633
-0.401589
-0.40764
-0.412346
-0.124644
-0.128645
-0.132432
-0.135997
-0.139331
-0.142423
-0.145258
-0.147822
-0.150099
-0.152078
-0.153749
-0.155125
-0.156234
-0.157176
-0.158074
-0.159257
-0.161019
-0.164185
-0.169279
-0.178613
-0.0858025
-0.0897733
-0.0937719
-0.0978073
-0.101889
-0.106027
-0.110232
-0.114517
-0.118893
-0.123372
-0.127964
-0.132678
-0.137511
-0.142455
-0.147473
-0.152512
-0.157461
-0.162217
-0.166625
-0.17074
-0.0648366
-0.0674791
-0.0700925
-0.0726783
-0.0752377
-0.0777721
-0.0802828
-0.0827713
-0.0852387
-0.0876864
-0.0901162
-0.0925306
-0.0949336
-0.0973327
-0.0997409
-0.10218
-0.104695
-0.107355
-0.110339
-0.113963
-0.0476127
-0.0496697
-0.0517319
-0.0538007
-0.0558771
-0.0579628
-0.0600593
-0.0621685
-0.0642919
-0.0664313
-0.0685885
-0.0707651
-0.0729626
-0.0751816
-0.0774227
-0.0796831
-0.0819656
-0.0842627
-0.0866228
-0.0891007
-0.0363452
-0.0379919
-0.0396341
-0.0412718
-0.0429046
-0.044533
-0.0461573
-0.047778
-0.0493959
-0.0510118
-0.0526267
-0.0542417
-0.0558582
-0.0574776
-0.0591025
-0.0607343
-0.0623819
-0.0640486
-0.065786
-0.0676423
-0.0275935
-0.0289624
-0.0303239
-0.0316782
-0.0330255
-0.0343665
-0.0357018
-0.0370321
-0.0383582
-0.0396809
-0.041001
-0.0423194
-0.0436369
-0.0449543
-0.0462728
-0.0475924
-0.0489176
-0.0502462
-0.0516093
-0.0530204
-0.0218683
-0.0230174
-0.0241538
-0.025278
-0.0263905
-0.027492
-0.0285833
-0.0296651
-0.0307383
-0.0318037
-0.0328619
-0.033914
-0.0349606
-0.0360026
-0.0370412
-0.0380765
-0.0391122
-0.0401465
-0.0412016
-0.0422807
-0.018481
-0.0194044
-0.0203153
-0.0212144
-0.0221026
-0.0229805
-0.0238489
-0.0247086
-0.0255603
-0.0264046
-0.0272422
-0.0280738
-0.0289
-0.0297212
-0.0305384
-0.0313515
-0.0321629
-0.0329709
-0.0337902
-0.0346178
-0.0168284
-0.0175354
-0.0182339
-0.0189242
-0.019607
-0.0202827
-0.0209518
-0.0216147
-0.0222718
-0.0229235
-0.0235703
-0.0242124
-0.0248502
-0.0254841
-0.0261146
-0.0267415
-0.0273665
-0.0279881
-0.0286163
-0.0292462
-0.0160111
-0.0165375
-0.0170596
-0.0175773
-0.0180911
-0.018601
-0.0191073
-0.0196101
-0.0201096
-0.0206059
-0.0210992
-0.0215897
-0.0220775
-0.0225626
-0.0230454
-0.0235258
-0.0240046
-0.0244808
-0.0249611
-0.025441
-0.0155752
-0.0159661
-0.0163554
-0.0167429
-0.0171288
-0.017513
-0.0178955
-0.0182764
-0.0186555
-0.0190329
-0.0194087
-0.0197828
-0.0201553
-0.0205261
-0.0208954
-0.0212629
-0.0216294
-0.0219938
-0.0223607
-0.0227268
-0.0152573
-0.015551
-0.0158447
-0.016138
-0.016431
-0.0167236
-0.0170156
-0.017307
-0.0175977
-0.0178877
-0.0181767
-0.0184648
-0.018752
-0.019038
-0.0193231
-0.0196069
-0.0198898
-0.0201712
-0.0204542
-0.0207365
-0.0149133
-0.0151438
-0.0153745
-0.0156054
-0.0158364
-0.0160672
-0.0162979
-0.0165282
-0.016758
-0.0169873
-0.0172159
-0.0174437
-0.0176707
-0.0178968
-0.0181219
-0.0183459
-0.018569
-0.0187908
-0.0190131
-0.019235
-0.0145189
-0.0147117
-0.0149043
-0.0150967
-0.0152887
-0.0154804
-0.0156715
-0.015862
-0.0160517
-0.0162407
-0.0164288
-0.0166159
-0.016802
-0.016987
-0.0171709
-0.0173535
-0.017535
-0.0177151
-0.017895
-0.0180744
-0.0141601
-0.0143279
-0.014495
-0.0146614
-0.014827
-0.0149918
-0.0151558
-0.0153188
-0.0154807
-0.0156416
-0.0158014
-0.0159601
-0.0161175
-0.0162736
-0.0164284
-0.0165819
-0.016734
-0.0168846
-0.0170345
-0.0171836
-0.0138954
-0.0140427
-0.0141893
-0.0143351
-0.01448
-0.014624
-0.0147671
-0.0149092
-0.0150502
-0.0151901
-0.0153289
-0.0154664
-0.0156027
-0.0157377
-0.0158714
-0.0160036
-0.0161345
-0.0162639
-0.0163922
-0.0165196
-0.0137077
-0.0138395
-0.0139707
-0.0141012
-0.0142309
-0.0143598
-0.0144877
-0.0146148
-0.0147408
-0.0148658
-0.0149896
-0.0151123
-0.0152338
-0.015354
-0.0154729
-0.0155905
-0.0157066
-0.0158214
-0.0159348
-0.0160473
-0.0135655
-0.0136889
-0.0138116
-0.0139335
-0.0140546
-0.0141749
-0.0142942
-0.0144125
-0.0145299
-0.0146461
-0.0147612
-0.0148752
-0.014988
-0.0150995
-0.0152097
-0.0153185
-0.015426
-0.0155321
-0.0156367
-0.0157403
-0.0134828
-0.0136028
-0.0137219
-0.0138402
-0.0139576
-0.0140741
-0.0141895
-0.014304
-0.0144174
-0.0145297
-0.0146409
-0.0147509
-0.0148598
-0.0149674
-0.0150738
-0.0151789
-0.0152827
-0.0153852
-0.0154862
-0.0155862
-0.0134959
-0.0136162
-0.0137357
-0.0138542
-0.0139718
-0.0140885
-0.0142042
-0.0143188
-0.0144324
-0.0145449
-0.0146562
-0.0147664
-0.0148754
-0.0149832
-0.0150897
-0.0151949
-0.0152988
-0.0154013
-0.0155024
-0.0156024
-0.013573
-0.0136975
-0.0138211
-0.0139439
-0.0140658
-0.0141868
-0.0143067
-0.0144256
-0.0145435
-0.0146602
-0.0147757
-0.0148901
-0.0150031
-0.0151149
-0.0152254
-0.0153344
-0.0154421
-0.0155484
-0.0156531
-0.0157568
-0.0137246
-0.013857
-0.0139887
-0.0141196