/*--------------------------------*- C++ -*----------------------------------*\
  =========                 |
  \\      /  F ield         | OpenFOAM: The Open Source CFD Toolbox
   \\    /   O peration     | Website:  https://openfoam.org
    \\  /    A nd           | Version:  6.0
     \\/     M anipulation  |
\*---------------------------------------------------------------------------*/
FoamFile
{
    version     2.0;
    format      ascii;
    class       volScalarField;
    location    "57";
    object      p;
}
// * * * * * * * * * * * * * * * * * * * * * * * * * * * * * * * * * * * * * //

dimensions      [0 2 -2 0 0 0 0];

internalField   nonuniform List<scalar> 
4000
(
-0.257652
-0.258517
-0.25909
-0.259508
-0.259856
-0.260147
-0.260393
-0.260606
-0.260794
-0.260964
-0.26112
-0.261269
-0.261414
-0.261559
-0.261711
-0.261876
-0.262057
-0.26221
-0.26231
-0.262824
-0.257898
-0.258787
-0.259375
-0.259802
-0.260159
-0.260459
-0.260713
-0.260934
-0.261131
-0.261309
-0.261475
-0.261632
-0.261786
-0.26194
-0.2621
-0.262274
-0.262465
-0.262626
-0.262731
-0.263266
-0.25824
-0.259153
-0.259753
-0.260187
-0.260547
-0.260849
-0.261105
-0.261327
-0.261525
-0.261703
-0.261869
-0.262027
-0.26218
-0.262335
-0.262494
-0.262669
-0.262861
-0.263023
-0.263125
-0.263678
-0.258684
-0.25962
-0.260228
-0.260664
-0.261023
-0.26132
-0.261571
-0.261787
-0.261977
-0.262147
-0.262304
-0.262452
-0.262596
-0.262739
-0.262889
-0.263055
-0.26324
-0.263394
-0.263485
-0.264053
-0.259238
-0.260192
-0.260805
-0.261237
-0.261589
-0.261876
-0.262113
-0.262314
-0.262488
-0.262641
-0.262779
-0.262906
-0.263028
-0.26315
-0.263278
-0.263423
-0.26359
-0.263727
-0.263797
-0.264376
-0.259907
-0.260875
-0.261489
-0.261912
-0.262249
-0.262518
-0.262734
-0.262912
-0.26306
-0.263185
-0.263293
-0.263387
-0.263475
-0.263561
-0.263653
-0.263764
-0.2639
-0.264007
-0.264044
-0.264629
-0.2607
-0.261677
-0.262284
-0.262692
-0.263008
-0.263251
-0.263438
-0.263583
-0.263695
-0.263781
-0.263846
-0.263895
-0.263933
-0.263967
-0.264006
-0.264065
-0.264154
-0.264216
-0.264204
-0.264788
-0.261624
-0.262603
-0.263197
-0.263582
-0.263868
-0.264078
-0.264227
-0.26433
-0.264396
-0.264432
-0.264441
-0.264429
-0.264401
-0.264364
-0.26433
-0.264316
-0.264335
-0.26433
-0.264249
-0.264822
-0.26269
-0.263659
-0.264232
-0.264586
-0.264835
-0.265002
-0.265105
-0.265157
-0.265168
-0.265141
-0.265082
-0.264993
-0.264881
-0.264753
-0.264621
-0.264507
-0.26443
-0.26433
-0.264151
-0.264698
-0.263905
-0.264853
-0.265395
-0.265709
-0.265912
-0.266028
-0.266076
-0.266069
-0.266015
-0.265916
-0.265775
-0.265594
-0.265379
-0.265137
-0.26488
-0.264636
-0.264427
-0.264195
-0.263881
-0.264378
-0.265277
-0.26619
-0.266689
-0.266953
-0.267101
-0.267158
-0.267144
-0.26707
-0.266942
-0.266762
-0.266529
-0.266243
-0.265907
-0.265527
-0.265116
-0.264704
-0.264322
-0.26391
-0.263408
-0.263822
-0.266814
-0.267675
-0.268118
-0.268322
-0.268405
-0.268394
-0.268309
-0.268161
-0.267954
-0.267686
-0.267353
-0.266951
-0.266479
-0.265939
-0.265344
-0.264725
-0.264119
-0.263466
-0.262707
-0.262985
-0.268523
-0.269312
-0.269685
-0.269816
-0.269822
-0.269734
-0.269571
-0.269343
-0.269052
-0.268692
-0.268254
-0.267729
-0.267109
-0.266392
-0.265585
-0.264718
-0.263833
-0.262867
-0.261756
-0.261821
-0.270407
-0.271106
-0.271392
-0.271435
-0.271352
-0.271174
-0.270924
-0.27061
-0.27023
-0.269776
-0.269231
-0.26858
-0.267808
-0.266902
-0.265861
-0.264711
-0.263489
-0.262126
-0.260545
-0.260279
-0.272472
-0.273058
-0.27324
-0.273178
-0.272989
-0.272709
-0.27236
-0.271951
-0.271477
-0.270924
-0.270272
-0.269497
-0.268572
-0.267474
-0.266187
-0.264723
-0.263114
-0.261268
-0.259072
-0.258308
-0.274722
-0.275174
-0.27523
-0.275044
-0.27473
-0.27433
-0.273867
-0.27335
-0.272772
-0.272116
-0.271355
-0.270456
-0.269383
-0.268096
-0.266562
-0.264772
-0.262737
-0.260332
-0.257368
-0.255878
-0.277163
-0.277459
-0.277367
-0.277033
-0.276571
-0.276028
-0.27543
-0.274787
-0.274092
-0.273322
-0.272446
-0.271424
-0.270208
-0.268744
-0.266975
-0.264866
-0.262401
-0.259408
-0.255558
-0.253055
-0.279805
-0.279923
-0.279658
-0.27915
-0.278512
-0.277799
-0.277041
-0.276249
-0.275415
-0.274516
-0.273516
-0.272369
-0.271016
-0.26939
-0.267413
-0.265011
-0.262134
-0.258553
-0.253708
-0.24976
-0.282665
-0.282582
-0.282117
-0.281406
-0.280561
-0.279646
-0.278698
-0.27773
-0.276734
-0.275687
-0.274553
-0.273282
-0.271814
-0.270071
-0.267955
-0.265352
-0.262135
-0.257934
-0.251777
-0.245589
-0.285769
-0.285459
-0.284765
-0.283817
-0.282732
-0.281584
-0.280414
-0.27924
-0.278059
-0.276848
-0.275577
-0.274205
-0.272684
-0.270958
-0.268956
-0.266598
-0.263757
-0.25995
-0.25385
-0.24685
-0.289151
-0.288585
-0.287631
-0.286414
-0.285055
-0.28364
-0.282219
-0.280813
-0.279424
-0.278037
-0.276632
-0.275186
-0.273685
-0.272134
-0.270575
-0.269129
-0.268038
-0.267691
-0.269557
-0.280448
-0.292857
-0.292003
-0.290753
-0.289233
-0.287568
-0.285857
-0.284158
-0.282498
-0.280885
-0.279312
-0.27777
-0.276257
-0.274789
-0.273417
-0.272249
-0.271491
-0.271489
-0.272764
-0.27646
-0.287112
-0.296943
-0.295759
-0.294177
-0.292323
-0.290323
-0.288291
-0.286293
-0.284364
-0.282515
-0.280749
-0.279068
-0.277486
-0.276041
-0.274809
-0.273924
-0.273599
-0.274147
-0.275973
-0.279654
-0.287662
-0.301469
-0.299908
-0.297957
-0.295738
-0.293378
-0.291005
-0.288694
-0.286484
-0.284392
-0.282426
-0.280596
-0.278926
-0.277461
-0.276285
-0.275521
-0.275343
-0.275973
-0.277654
-0.280633
-0.28601
-0.306502
-0.304508
-0.302149
-0.299536
-0.296795
-0.294066
-0.291431
-0.288931
-0.286586
-0.284406
-0.282402
-0.280599
-0.27904
-0.277795
-0.276958
-0.276647
-0.276988
-0.278087
-0.280029
-0.28304
-0.312105
-0.309615
-0.306808
-0.303777
-0.300637
-0.29754
-0.294571
-0.29177
-0.289154
-0.28673
-0.284506
-0.282498
-0.28074
-0.279279
-0.278176
-0.277496
-0.277293
-0.27759
-0.278407
-0.279527
-0.318335
-0.315283
-0.31199
-0.308517
-0.304963
-0.301485
-0.298168
-0.295046
-0.292127
-0.28941
-0.286893
-0.284584
-0.282499
-0.280666
-0.279118
-0.277883
-0.276976
-0.276382
-0.276099
-0.275757
-0.32524
-0.321557
-0.31774
-0.313806
-0.309823
-0.30595
-0.302264
-0.298786
-0.295511
-0.292427
-0.28952
-0.286786
-0.284233
-0.281873
-0.279725
-0.277799
-0.276097
-0.274598
-0.273295
-0.271837
-0.332855
-0.328473
-0.324099
-0.319686
-0.315258
-0.310968
-0.306878
-0.302989
-0.299281
-0.295727
-0.292306
-0.28901
-0.285841
-0.28281
-0.279933
-0.277222
-0.274678
-0.272294
-0.270061
-0.267715
-0.341196
-0.336053
-0.331092
-0.326184
-0.321292
-0.316551
-0.312002
-0.307622
-0.303374
-0.299223
-0.295146
-0.291138
-0.287211
-0.283384
-0.279681
-0.276122
-0.272721
-0.269484
-0.266402
-0.263305
-0.350261
-0.344302
-0.338731
-0.333312
-0.327927
-0.322685
-0.317598
-0.312618
-0.307695
-0.302796
-0.297907
-0.293042
-0.288229
-0.283505
-0.278908
-0.274471
-0.270218
-0.266163
-0.262296
-0.258521
-0.36002
-0.353202
-0.347006
-0.341057
-0.335139
-0.329322
-0.323588
-0.317868
-0.312112
-0.3063
-0.300446
-0.29459
-0.288787
-0.283094
-0.277566
-0.272244
-0.267157
-0.262323
-0.257724
-0.253313
-0.370419
-0.362712
-0.355879
-0.349377
-0.342868
-0.336376
-0.329855
-0.32323
-0.316465
-0.309574
-0.302611
-0.295654
-0.288787
-0.282086
-0.275617
-0.269424
-0.263533
-0.257961
-0.252675
-0.24766
-0.381368
-0.37276
-0.365285
-0.358196
-0.351014
-0.343718
-0.336242
-0.328525
-0.32057
-0.312445
-0.304255
-0.296117
-0.288144
-0.280425
-0.273028
-0.265994
-0.25934
-0.253073
-0.247144
-0.241558
-0.392743
-0.383239
-0.375118
-0.367395
-0.359433
-0.351172
-0.34255
-0.333547
-0.324232
-0.31474
-0.305235
-0.295873
-0.286784
-0.278064
-0.269772
-0.261939
-0.254571
-0.247656
-0.241128
-0.235012
-0.404382
-0.394005
-0.385233
-0.376809
-0.367934
-0.358524
-0.348554
-0.338077
-0.327252
-0.316295
-0.305424
-0.294827
-0.284642
-0.274958
-0.265821
-0.257242
-0.249211
-0.241701
-0.234622
-0.228023
-0.416081
-0.404871
-0.395441
-0.386231
-0.376283
-0.365522
-0.354001
-0.341882
-0.329433
-0.316951
-0.304704
-0.292894
-0.281657
-0.271065
-0.261142
-0.251877
-0.243242
-0.235192
-0.227612
-0.220585
-0.427599
-0.415612
-0.405508
-0.395404
-0.384204
-0.371888
-0.35863
-0.344735
-0.330588
-0.316565
-0.302966
-0.289996
-0.277771
-0.26634
-0.255698
-0.245813
-0.236637
-0.228103
-0.220078
-0.212681
-0.438653
-0.425961
-0.41516
-0.404034
-0.391394
-0.377326
-0.362176
-0.346414
-0.330544
-0.315005
-0.300112
-0.286056
-0.272924
-0.260732
-0.249447
-0.239012
-0.22936
-0.220406
-0.211992
-0.204291
-0.448931
-0.435615
-0.424084
-0.411797
-0.39753
-0.381538
-0.364384
-0.346715
-0.329145
-0.312155
-0.296054
-0.281004
-0.267058
-0.254192
-0.242345
-0.231434
-0.221375
-0.212065
-0.203323
-0.195384
-0.440796
-0.427517
-0.416075
-0.403967
-0.389969
-0.374314
-0.357535
-0.340254
-0.323068
-0.306447
-0.290698
-0.275982
-0.262351
-0.249787
-0.238227
-0.227592
-0.217799
-0.208745
-0.200254
-0.192553
-0.430304
-0.417657
-0.406936
-0.395967
-0.38357
-0.369814
-0.355023
-0.339643
-0.324159
-0.308998
-0.294469
-0.280761
-0.267962
-0.256088
-0.245109
-0.234968
-0.2256
-0.216922
-0.208776
-0.201332
-0.41907
-0.407135
-0.397104
-0.387135
-0.376149
-0.364117
-0.351195
-0.337668
-0.323902
-0.310259
-0.297032
-0.284423
-0.272546
-0.261449
-0.251131
-0.241558
-0.232684
-0.224446
-0.216708
-0.209589
-0.407406
-0.396254
-0.38689
-0.377796
-0.368032
-0.357524
-0.34631
-0.334537
-0.322456
-0.31035
-0.298478
-0.287038
-0.276161
-0.265918
-0.256335
-0.247401
-0.239088
-0.231351
-0.224079
-0.21735
-0.395591
-0.385278
-0.376568
-0.368243
-0.359523
-0.350331
-0.340635
-0.330476
-0.319998
-0.309406
-0.298907
-0.288682
-0.278865
-0.269543
-0.260761
-0.25253
-0.24484
-0.237665
-0.230914
-0.224635
-0.383864
-0.37443
-0.366367
-0.358727
-0.350895
-0.342818
-0.334434
-0.325714
-0.316719
-0.307572
-0.298427
-0.289434
-0.280716
-0.272367
-0.264445
-0.256976
-0.249967
-0.243407
-0.23723
-0.231457
-0.372425
-0.363892
-0.356473
-0.349456
-0.34238
-0.335235
-0.327958
-0.320485
-0.312816
-0.305008
-0.297159
-0.28938
-0.281775
-0.274433
-0.267414
-0.260759
-0.254483
-0.248592
-0.243035
-0.237816
-0.361434
-0.353805
-0.347029
-0.340589
-0.334165
-0.327795
-0.321434
-0.315012
-0.308491
-0.301883
-0.295234
-0.288616
-0.282108
-0.275782
-0.269697
-0.263895
-0.258399
-0.253223
-0.248334
-0.243709
-0.351011
-0.344273
-0.338134
-0.33224
-0.326392
-0.320668
-0.315058
-0.309499
-0.303943
-0.298371
-0.292795
-0.287251
-0.281789
-0.276463
-0.271319
-0.266397
-0.26172
-0.257303
-0.253125
-0.249128
-0.341239
-0.335364
-0.329852
-0.324483
-0.319154
-0.313981
-0.308983
-0.304122
-0.299354
-0.294648
-0.289994
-0.285405
-0.280906
-0.276531
-0.272313
-0.268279
-0.264447
-0.260829
-0.257408
-0.254074
-0.332173
-0.327117
-0.322216
-0.317355
-0.312508
-0.307815
-0.303324
-0.299022
-0.294882
-0.290874
-0.286984
-0.283209
-0.27956
-0.276056
-0.272717
-0.269559
-0.266588
-0.263804
-0.261195
-0.258566
-0.323835
-0.319545
-0.315233
-0.310864
-0.306472
-0.302211
-0.29815
-0.294302
-0.290655
-0.287195
-0.28391
-0.280797
-0.277863
-0.275121
-0.272585
-0.270263
-0.268152
-0.266236
-0.264503
-0.262658
-0.316226
-0.312641
-0.308889
-0.304997
-0.30104
-0.297179
-0.293496
-0.290023
-0.286767
-0.283727
-0.280902
-0.278299
-0.275931
-0.273818
-0.271978
-0.270423
-0.269149
-0.26813
-0.267355
-0.266438
-0.30933
-0.306383
-0.303157
-0.299723
-0.296185
-0.292702
-0.289363
-0.286213
-0.283272
-0.280552
-0.278066
-0.275833
-0.27388
-0.272245
-0.270966
-0.270074
-0.269583
-0.269475
-0.269747
-0.269995
-0.303113
-0.300736
-0.297998
-0.295
-0.291865
-0.288744
-0.285729
-0.282869
-0.280193
-0.277722
-0.275479
-0.273495
-0.271815
-0.270499
-0.269617
-0.269243
-0.269435
-0.270216
-0.271609
-0.273382
-0.297531
-0.295659
-0.293367
-0.29078
-0.28803
-0.285258
-0.282552
-0.279962
-0.277522
-0.275253
-0.273185
-0.271354
-0.269821
-0.268667
-0.268
-0.26795
-0.268652
-0.270222
-0.272751
-0.276485
-0.292534
-0.291103
-0.289217
-0.287011
-0.284625
-0.282187
-0.279779
-0.277449
-0.275227
-0.273134
-0.271197
-0.269453
-0.267965
-0.266827
-0.266179
-0.26621
-0.267159
-0.269283
-0.272846
-0.279018
-0.288068
-0.28702
-0.285496
-0.283641
-0.281596
-0.279474
-0.277351
-0.275271
-0.273258
-0.27133
-0.269503
-0.267806
-0.26629
-0.265047
-0.264226
-0.264055
-0.264867
-0.267092
-0.271339
-0.280194
-0.284078
-0.283361
-0.282159
-0.280621
-0.278888
-0.277061
-0.275207
-0.273365
-0.271556
-0.269786
-0.268063
-0.266397
-0.264818
-0.26339
-0.262236
-0.261577
-0.261783
-0.263406
-0.267655
-0.279218
-0.280512
-0.28008
-0.279159
-0.277905
-0.276454
-0.274895
-0.27329
-0.271672
-0.270055
-0.268439
-0.266819
-0.265185
-0.263536
-0.261887
-0.260294
-0.258891
-0.257934
-0.257847
-0.260205
-0.271976
-0.277326
-0.277136
-0.27646
-0.275455
-0.274252
-0.272934
-0.271552
-0.270136
-0.268696
-0.267227
-0.26571
-0.264117
-0.262412
-0.260548
-0.258462
-0.256074
-0.253251
-0.249513
-0.243629
-0.236747
-0.274479
-0.274495
-0.274029
-0.273238
-0.272253
-0.271144
-0.269958
-0.268721
-0.26744
-0.266107
-0.264698
-0.263177
-0.261493
-0.259578
-0.257338
-0.25466
-0.251404
-0.247203
-0.241211
-0.235021
-0.27194
-0.272129
-0.27184
-0.271232
-0.270433
-0.269504
-0.268487
-0.267405
-0.266264
-0.265055
-0.263755
-0.26233
-0.260733
-0.258903
-0.256768
-0.254255
-0.251295
-0.24768
-0.24299
-0.238953
-0.26968
-0.270012
-0.269872
-0.26942
-0.268779
-0.268003
-0.26713
-0.266181
-0.265162
-0.264064
-0.262869
-0.261547
-0.26006
-0.258363
-0.256405
-0.254147
-0.25156
-0.248505
-0.244791
-0.242109
-0.26768
-0.268126
-0.26811
-0.267788
-0.267282
-0.266638
-0.265889
-0.265056
-0.264144
-0.263149
-0.262054
-0.260838
-0.259474
-0.25793
-0.256179
-0.254207
-0.252015
-0.249519
-0.246656
-0.244907
-0.265919
-0.266456
-0.26654
-0.266329
-0.265938
-0.265408
-0.264769
-0.26404
-0.263229
-0.262331
-0.261338
-0.260235
-0.259005
-0.257631
-0.256103
-0.254428
-0.252629
-0.250659
-0.248517
-0.247425
-0.26438
-0.264984
-0.265151
-0.265033
-0.264741
-0.264313
-0.263774
-0.263143
-0.262429
-0.261631
-0.260745
-0.259763
-0.258677
-0.257482
-0.256181
-0.254794
-0.253354
-0.251834
-0.250251
-0.249605
-0.263045
-0.263699
-0.263931
-0.263893
-0.263689
-0.263352
-0.262907
-0.26237
-0.261753
-0.261058
-0.260284
-0.25943
-0.258495
-0.257482
-0.256401
-0.255279
-0.254151
-0.252999
-0.251833
-0.251482
-0.261898
-0.262584
-0.26287
-0.2629
-0.262774
-0.262522
-0.262165
-0.261721
-0.261201
-0.26061
-0.259952
-0.25923
-0.258446
-0.257609
-0.256734
-0.255848
-0.254984
-0.254122
-0.253262
-0.253107
-0.26092
-0.261627
-0.261956
-0.262045
-0.26199
-0.261815
-0.261542
-0.261189
-0.260765
-0.260279
-0.259737
-0.259144
-0.258506
-0.257835
-0.257145
-0.256462
-0.255814
-0.25518
-0.254545
-0.254524
-0.260094
-0.260814
-0.261178
-0.261319
-0.261327
-0.261224
-0.261031
-0.260763
-0.260433
-0.26005
-0.259619
-0.259148
-0.258647
-0.258125
-0.257597
-0.257086
-0.256615
-0.256158
-0.25569
-0.255768
-0.259403
-0.260132
-0.260525
-0.260711
-0.260776
-0.26074
-0.260621
-0.260434
-0.260193
-0.259905
-0.259578
-0.259221
-0.258843
-0.258453
-0.258064
-0.257697
-0.257368
-0.257049
-0.256711
-0.256864
-0.258834
-0.259569
-0.259987
-0.260213
-0.260329
-0.260353
-0.260302
-0.26019
-0.26003
-0.25983
-0.259599
-0.259343
-0.259073
-0.258796
-0.258525
-0.258276
-0.258064
-0.257855
-0.257617
-0.257833
-0.258373
-0.259115
-0.259555
-0.259817
-0.259978
-0.260056
-0.260066
-0.260022
-0.259935
-0.259814
-0.259666
-0.2595
-0.259323
-0.259143
-0.25897
-0.258819
-0.2587
-0.258579
-0.258422
-0.258692
-0.25801
-0.258761
-0.259222
-0.259515
-0.259717
-0.259843
-0.259907
-0.259922
-0.259899
-0.259847
-0.259773
-0.259683
-0.259585
-0.259486
-0.259395
-0.259324
-0.259281
-0.25923
-0.25914
-0.259458
-0.257738
-0.258501
-0.258982
-0.259303
-0.259541
-0.259708
-0.259819
-0.259886
-0.259919
-0.259925
-0.259913
-0.259887
-0.259856
-0.259824
-0.2598
-0.259795
-0.259813
-0.25982
-0.259783
-0.260144
-0.257552
-0.25833
-0.258831
-0.259177
-0.259446
-0.259649
-0.2598
-0.25991
-0.25999
-0.260046
-0.260085
-0.260113
-0.260136
-0.26016
-0.26019
-0.260238
-0.260307
-0.260359
-0.260366
-0.260765
-0.25745
-0.258246
-0.258767
-0.259135
-0.25943
-0.259663
-0.259847
-0.259994
-0.260112
-0.260209
-0.26029
-0.260362
-0.260429
-0.260497
-0.260571
-0.260661
-0.26077
-0.260859
-0.260901
-0.261334
-0.257432
-0.258249
-0.258788
-0.259176
-0.259492
-0.25975
-0.259962
-0.260137
-0.260286
-0.260415
-0.26053
-0.260635
-0.260737
-0.26084
-0.260948
-0.261071
-0.261212
-0.261329
-0.261398
-0.261862
-0.257498
-0.258339
-0.258895
-0.259299
-0.259634
-0.259911
-0.260143
-0.260341
-0.260513
-0.260666
-0.260806
-0.260937
-0.261065
-0.261193
-0.261327
-0.261475
-0.261639
-0.261778
-0.261866
-0.262357
-0.280084
-0.275784
-0.291042
-0.287654
-0.262287
-0.213247
-0.184262
-0.140535
-0.0870584
-0.0495886
-0.0453615
-0.0512706
-0.0434928
-0.0232343
-0.0143136
-0.0101336
-0.00713332
-0.0206025
-0.0189991
-0.00206308
-0.281225
-0.274059
-0.281327
-0.276107
-0.260897
-0.221407
-0.194311
-0.145453
-0.087376
-0.0458897
-0.0400251
-0.0468136
-0.0411336
-0.0227613
-0.0149951
-0.0123787
-0.00974073
-0.0219855
-0.0200025
-0.00213347
-0.282498
-0.272463
-0.271591
-0.264506
-0.259332
-0.229295
-0.203546
-0.149845
-0.0874738
-0.0421533
-0.0346556
-0.0421027
-0.0385173
-0.0221542
-0.0156113
-0.0145448
-0.0123004
-0.0232617
-0.0209008
-0.00218731
-0.283902
-0.27104
-0.261964
-0.252987
-0.257602
-0.236865
-0.211969
-0.153761
-0.0873905
-0.0384198
-0.0292736
-0.037136
-0.0356223
-0.0214047
-0.0161599
-0.0166305
-0.0148006
-0.024441
-0.0217021
-0.00222907
-0.28543
-0.269831
-0.252569
-0.241675
-0.255724
-0.244074
-0.219608
-0.157252
-0.0871662
-0.0347331
-0.0238987
-0.0319187
-0.032432
-0.0205065
-0.0166406
-0.0186366
-0.0172308
-0.0255327
-0.022415
-0.00226305
-0.287063
-0.268866
-0.243515
-0.230674
-0.253715
-0.250878
-0.22651
-0.160368
-0.0868413
-0.031139
-0.0185517
-0.0264651
-0.0289371
-0.0194568
-0.0170554
-0.020566
-0.0195813
-0.0265448
-0.0230475
-0.00229326
-0.288775
-0.268168
-0.234898
-0.220071
-0.251588
-0.257233
-0.232729
-0.163158
-0.0864551
-0.0276826
-0.013256
-0.0207987
-0.0251377
-0.0182554
-0.0174077
-0.0224226
-0.0218437
-0.0274842
-0.0236071
-0.00232337
-0.290529
-0.267749
-0.226802
-0.209928
-0.24935
-0.263092
-0.238318
-0.165666
-0.0860455
-0.0244062
-0.00803877
-0.0149527
-0.0210448
-0.016906
-0.0177027
-0.0242107
-0.0240108
-0.0283561
-0.0241006
-0.00235665
-0.292279
-0.267614
-0.21929
-0.200287
-0.246997
-0.26841
-0.243327
-0.167935
-0.0856474
-0.0213472
-0.00293215
-0.00896982
-0.016682
-0.0154157
-0.0179468
-0.0259343
-0.0260765
-0.0291642
-0.0245336
-0.00239591
-0.293968
-0.267755
-0.212414
-0.191172
-0.24452
-0.273151
-0.247799
-0.169999
-0.0852925
-0.0185367
0.00202754
-0.00290086
-0.0120852
-0.0137959
-0.0181469
-0.0275967
-0.028036
-0.029911
-0.024911
-0.00244355
-0.295535
-0.268156
-0.20621
-0.182594
-0.241906
-0.277287
-0.251771
-0.171889
-0.0850079
-0.0159988
0.00680052
0.00319588
-0.00730235
-0.0120617
-0.0183101
-0.0292
-0.0298853
-0.0305975
-0.0252368
-0.00250155
-0.296911
-0.268793
-0.2007
-0.174557
-0.239143
-0.280806
-0.255277
-0.173633
-0.0848184
-0.0137513
0.0113451
0.00925643
-0.00239183
-0.0102318
-0.0184435
-0.0307451
-0.0316215
-0.0312241
-0.0255141
-0.00257148
-0.298029
-0.269633
-0.1959
-0.167068
-0.236224
-0.283711
-0.258349
-0.175259
-0.0847495
-0.0118076
0.0156193
0.0152131
0.00258032
-0.00832847
-0.018553
-0.0322317
-0.0332426
-0.0317904
-0.0257455
-0.00265455
-0.298822
-0.270638
-0.191819
-0.160135
-0.233148
-0.286018
-0.261023
-0.176791
-0.0848208
-0.0101764
0.0195828
0.0209966
0.00754339
-0.00637673
-0.0186437
-0.033658
-0.0347477
-0.0322955
-0.025933
-0.00275189
-0.299226
-0.27174
-0.188448
-0.153773
-0.229918
-0.287758
-0.263326
-0.178224
-0.0850158
-0.00884816
0.0232023
0.0265382
0.0124251
-0.00440396
-0.0187196
-0.0350211
-0.0361368
-0.0327381
-0.0260779
-0.00286472
-0.299181
-0.272833
-0.185752
-0.148006
-0.226553
-0.288977
-0.26526
-0.1795
-0.0852667
-0.00778218
0.026458
0.0317715
0.0171542
-0.00243982
-0.018784
-0.0363173
-0.0374108
-0.0331171
-0.0261807
-0.00299319
-0.29868
-0.273924
-0.183746
-0.142866
-0.223074
-0.289713
-0.266849
-0.18066
-0.0856137
-0.00696723
0.0293334
0.0366371
0.0216656
-0.000512635
-0.0188374
-0.0375419
-0.0385671
-0.0334331
-0.026244
-0.0031328
-0.297735
-0.275411
-0.182752
-0.138376
-0.219418
-0.28993
-0.268305
-0.182198
-0.0865488
-0.00661281
0.0317614
0.0410932
0.0259175
0.00136777
-0.0188644
-0.0386854
-0.0395988
-0.0336918
-0.0262782
-0.00327721
-0.295661
-0.277172
-0.183073
-0.134491
-0.215407
-0.289579
-0.269998
-0.184677
-0.0886029
-0.00707553
0.0336148
0.0451096
0.0298878
0.00319284
-0.0188476
-0.0397354
-0.040527
-0.0338937
-0.0262882
-0.00345272
-0.290426
-0.275532
-0.18268
-0.13115
-0.211779
-0.289266
-0.27123
-0.185978
-0.0896927
-0.00754449
0.0350684
0.0485929
0.0334064
0.00468365
-0.018981
-0.0407242
-0.0414737
-0.0339915
-0.026213
-0.00376018
-0.246603
-0.242958
-0.170784
-0.114147
-0.195412
-0.289702
-0.272965
-0.180666
-0.0842704
-0.00643947
0.0421921
0.0652377
0.050553
0.00923421
-0.0223763
-0.0462138
-0.0474535
-0.033825
-0.0251493
-0.00626194
-0.187735
-0.199378
-0.161502
-0.128984
-0.189214
-0.259692
-0.23764
-0.149947
-0.063483
0.000697449
0.0373613
0.0524638
0.0392258
0.00242321
-0.0247176
-0.0421992
-0.0419252
-0.0278666
-0.019076
-0.00642045
-0.157324
-0.169569
-0.158606
-0.142401
-0.167826
-0.200189
-0.182631
-0.119587
-0.0549895
-0.00771242
0.019851
0.0304592
0.0234253
0.000412347
-0.0187005
-0.0297385
-0.0300493
-0.0206612
-0.0131573
-0.00564287
-0.127631
-0.145463
-0.145447
-0.13351
-0.13343
-0.146935
-0.144184
-0.106254
-0.055394
-0.0157192
0.00727385
0.0165542
0.015509
0.00266756
-0.0117607
-0.0202833
-0.021566
-0.0164524
-0.0100228
-0.00388865
-0.104982
-0.122441
-0.125156
-0.114816
-0.108947
-0.118892
-0.121016
-0.0940033
-0.0528589
-0.0203392
-0.00177412
0.00613316
0.00710078
5.85711e-06
-0.00997537
-0.0157226
-0.0160762
-0.0123373
-0.00691431
-0.0027274
-0.0859823
-0.10145
-0.104901
-0.099749
-0.097162
-0.10214
-0.100716
-0.0808225
-0.0501593
-0.0247801
-0.0102142
-0.00355646
-0.00121579
-0.00325989
-0.00833907
-0.0118491
-0.0119101
-0.00933292
-0.0054109
-0.00221748
-0.0709436
-0.0842657
-0.0893399
-0.0891503
-0.0877209
-0.0873667
-0.0838538
-0.0706737
-0.0492572
-0.0294424
-0.0167989
-0.00973808
-0.00578579
-0.00491831
-0.00742009
-0.0100128
-0.00998297
-0.00783325
-0.00451312
-0.00164926
-0.059373
-0.0712641
-0.077439
-0.0791217
-0.0776444
-0.0755318
-0.0723989
-0.0638285
-0.0482737
-0.0316807
-0.0198688
-0.0129778
-0.00911796
-0.00743068
-0.0081776
-0.00936436
-0.00879158
-0.00668345
-0.00375255
-0.00132392
-0.0505937
-0.0611921
-0.0672898
-0.069493
-0.0688209
-0.0671912
-0.0645392
-0.0578668
-0.0456007
-0.0318462
-0.0218211
-0.0160433
-0.01245
-0.00985498
-0.00885478
-0.00879384
-0.00795702
-0.0059922
-0.0034196
-0.00124096
-0.0437386
-0.0529991
-0.0586702
-0.0613416
-0.0617418
-0.060692
-0.0579071
-0.0520357
-0.0425573
-0.0320104
-0.0238538
-0.0185117
-0.0145728
-0.0113208
-0.00942939
-0.00869856
-0.00766053
-0.00574453
-0.00329916
-0.00113275
-0.0382399
-0.0463214
-0.0516413
-0.0546633
-0.0556765
-0.0548375
-0.0520795
-0.0472787
-0.0403101
-0.0322004
-0.0250557
-0.0197592
-0.0157908
-0.0125489
-0.0102939
-0.00895806
-0.00756689
-0.0055834
-0.00317954
-0.0010484
-0.0337762
-0.0408985
-0.0458948
-0.0490081
-0.0502534
-0.0496837
-0.0474754
-0.0437845
-0.0384093
-0.0317473
-0.0254019
-0.0205134
-0.0168453
-0.0136934
-0.011083
-0.00918113
-0.00747602
-0.00546264
-0.00314975
-0.00105177
-0.0300818
-0.0364304
-0.0410981
-0.0441698
-0.0456052
-0.0454846
-0.0439073
-0.0409177
-0.0364567
-0.0309343
-0.0255493
-0.0211812
-0.0176651
-0.0144582
-0.0116063
-0.00938165
-0.00748823
-0.0054688
-0.00320135
-0.00106406
-0.0269409
-0.0326844
-0.0370809
-0.0401409
-0.0418062
-0.0420779
-0.0409201
-0.038398
-0.0346939
-0.030202
-0.0256372
-0.0215932
-0.0181064
-0.0149125
-0.0120355
-0.00966047
-0.00760274
-0.00551564
-0.00323698
-0.00106628
-0.0241755
-0.0295183
-0.0337625
-0.0368662
-0.0387127
-0.0392295
-0.0383838
-0.0363229
-0.0332889
-0.0295502
-0.0255305
-0.0217275
-0.0183493
-0.0152738
-0.0124346
-0.00993438
-0.00770585
-0.00553737
-0.00326626
-0.00108657
-0.0216867
-0.0268504
-0.0310672
-0.0342306
-0.0361917
-0.0368887
-0.036341
-0.0346993
-0.0321483
-0.0288988
-0.0252921
-0.0217667
-0.0185496
-0.0155655
-0.012727
-0.0101298
-0.00778499
-0.00557228
-0.00331453
-0.00111207
-0.0193841
-0.0246297
-0.0289229
-0.0321494
-0.0341976
-0.0350542
-0.0347572
-0.0334216
-0.0311995
-0.0283146
-0.0250681
-0.0217963
-0.0186895
-0.0157407
-0.0129098
-0.0102812
-0.00787606
-0.00562359
-0.00335445
-0.00112537
-0.0173106
-0.0228576
-0.0273022
-0.0305928
-0.0327105
-0.0336893
-0.033568
-0.032446
-0.0304741
-0.0278768
-0.0248994
-0.0217962
-0.0187515
-0.0158357
-0.01304
-0.0104125
-0.00796149
-0.00565989
-0.00337493
-0.00113565
-0.0155885
-0.0215872
-0.026204
-0.0295441
-0.0317042
-0.0327589
-0.0327536
-0.0317865
-0.0299967
-0.0275855
-0.0247659
-0.0217666
-0.0187777
-0.0159008
-0.013131
-0.0104977
-0.00801157
-0.00567945
-0.00338988
-0.00114509
-0.0144987
-0.0209074
-0.0256403
-0.0290037
-0.0311814
-0.0322724
-0.0323312
-0.0314527
-0.0297579
-0.0274297
-0.02468
-0.0217394
-0.0187931
-0.0159388
-0.0131727
-0.0105293
-0.00802882
-0.00569063
-0.00340096
-0.0011468
-0.15233
-0.16217
-0.172107
-0.182227
-0.19263
-0.203425
-0.214731
-0.226676
-0.239383
-0.252962
-0.267471
-0.28289
-0.299005
-0.315401
-0.331182
-0.34529
-0.355892
-0.36223
-0.362344
-0.360563
-0.0909343
-0.0942632
-0.0972846
-0.099983
-0.10234
-0.104333
-0.105941
-0.107141
-0.107912
-0.108241
-0.108128
-0.107603
-0.106733
-0.105679
-0.104654
-0.10409
-0.104365
-0.106336
-0.110356
-0.118514
-0.0646632
-0.0687527
-0.0728648
-0.0770088
-0.0811945
-0.0854324
-0.0897331
-0.0941074
-0.0985651
-0.103115
-0.10776
-0.112498
-0.117311
-0.122165
-0.126987
-0.13168
-0.136071
-0.139999
-0.143189
-0.145534
-0.0506233
-0.053381
-0.0560912
-0.0587543
-0.0613706
-0.0639401
-0.0664627
-0.0689379
-0.0713649
-0.0737434
-0.0760732
-0.0783557
-0.0805946
-0.0827985
-0.0849836
-0.0871775
-0.0894279
-0.0918039
-0.0944523
-0.0975923
-0.0403566
-0.042605
-0.0448529
-0.0471028
-0.0493567
-0.0516169
-0.0538854
-0.0561644
-0.0584561
-0.0607623
-0.0630847
-0.0654247
-0.0677829
-0.0701582
-0.0725489
-0.0749475
-0.07735
-0.0797324
-0.0821101
-0.0844301
-0.0341493
-0.0359197
-0.0376853
-0.0394467
-0.0412044
-0.042959
-0.0447111
-0.0464614
-0.0482105
-0.0499593
-0.0517086
-0.0534592
-0.0552126
-0.0569697
-0.0587334
-0.0605043
-0.0622918
-0.0640935
-0.0659536
-0.0678647
-0.0292957
-0.0307199
-0.0321435
-0.033567
-0.0349908
-0.0364156
-0.0378417
-0.0392696
-0.0406999
-0.0421332
-0.0435698
-0.0450103
-0.0464553
-0.0479047
-0.0493597
-0.050819
-0.0522868
-0.053756
-0.0552533
-0.0567525
-0.0257742
-0.0269378
-0.0281006
-0.0292625
-0.0304238
-0.0315847
-0.0327453
-0.0339058
-0.0350665
-0.0362274
-0.037389
-0.0385513
-0.0397147
-0.0408794
-0.042046
-0.0432139
-0.0443865
-0.0455589
-0.0467526
-0.0479457
-0.0230088
-0.0239708
-0.0249321
-0.025893
-0.0268534
-0.0278135
-0.0287734
-0.0297332
-0.030693
-0.0316529
-0.0326131
-0.0335736
-0.0345345
-0.0354959
-0.036458
-0.0374202
-0.0383849
-0.0393477
-0.0403243
-0.0412954
-0.0208557
-0.0216584
-0.0224606
-0.0232622
-0.0240634
-0.0248642
-0.0256646
-0.0264648
-0.0272647
-0.0280644
-0.028864
-0.0296634
-0.0304627
-0.0312619
-0.0320612
-0.03286
-0.0336601
-0.0344583
-0.0352662
-0.0360691
-0.0191168
-0.0197885
-0.0204599
-0.0211312
-0.0218023
-0.0224733
-0.0231443
-0.0238151
-0.0244859
-0.0251566
-0.0258272
-0.0264976
-0.027168
-0.0278381
-0.0285082
-0.0291777
-0.0298477
-0.0305161
-0.0311912
-0.0318627
-0.0176817
-0.0182444
-0.0188074
-0.0193709
-0.0199349
-0.0204994
-0.0210643
-0.0216297
-0.0221954
-0.0227615
-0.0233279
-0.0238944
-0.0244611
-0.0250277
-0.0255943
-0.0261606
-0.0267272
-0.0272924
-0.0278625
-0.0284307
-0.0163957
-0.0168656
-0.0173369
-0.0178098
-0.0182842
-0.0187601
-0.0192374
-0.0197161
-0.0201961
-0.0206773
-0.0211595
-0.0216427
-0.0221267
-0.0226113
-0.0230965
-0.0235819
-0.0240679
-0.0245534
-0.0250426
-0.025532
-0.0151732
-0.015565
-0.0159598
-0.0163577
-0.0167584
-0.0171621
-0.0175684
-0.0179774
-0.0183887
-0.0188023
-0.0192179
-0.0196353
-0.0200543
-0.0204747
-0.0208962
-0.0213185
-0.0217416
-0.022165
-0.0225913
-0.0230197
-0.0137701
-0.014096
-0.0144275
-0.0147644
-0.0151065
-0.0154536
-0.0158055
-0.0161618
-0.0165222
-0.0168864
-0.0172541
-0.0176249
-0.0179985
-0.0183746
-0.0187527
-0.0191326
-0.0195141
-0.0198967
-0.020282
-0.0206711
-0.0121597
-0.0124374
-0.012724
-0.0130192
-0.0133223
-0.0136328
-0.0139502
-0.014274
-0.0146035
-0.0149383
-0.0152777
-0.0156212
-0.0159683
-0.0163186
-0.0166714
-0.0170264
-0.0173831
-0.0177413
-0.0181015
-0.0184663
-0.00967705
-0.00994923
-0.0102344
-0.0105313
-0.010839
-0.0111564
-0.0114825
-0.0118162
-0.0121568
-0.0125034
-0.0128551
-0.0132111
-0.0135707
-0.0139334
-0.0142983
-0.0146651
-0.015033
-0.0154019
-0.0157717
-0.0161458
-0.00642772
-0.00676484
-0.00711474
-0.00747581
-0.00784661
-0.00822573
-0.00861191
-0.009004
-0.00940092
-0.0098017
-0.0102055
-0.0106114
-0.0110188
-0.0114269
-0.0118352
-0.0122431
-0.0126501
-0.0130561
-0.0134604
-0.013867
-0.00142717
-0.00202878
-0.00262467
-0.00321442
-0.0037977
-0.00437421
-0.0049437
-0.00550595
-0.00606081
-0.00660815
-0.00714786
-0.00767988
-0.00820416
-0.00872068
-0.00922942
-0.00973045
-0.0102237
-0.0107095
-0.0111873
-0.0116612
0.00407268
0.00311001
0.00218151
0.00128526
0.000419438
-0.000417654
-0.0012276
-0.0020119
-0.00277195
-0.00350906
-0.00422447
-0.00491931
-0.00559467
-0.00625156
-0.0068909
-0.00751363
-0.00812042
-0.00871251
-0.00928951
-0.00985595
0.00337848
0.00242398
0.00150377
0.000615953
-0.0002413
-0.00106968
-0.00187078
-0.00264608
-0.00339699
-0.00412482
-0.0048308
-0.00551608
-0.00618172
-0.00682875
-0.00745809
-0.00807067
-0.00866716
-0.00924882
-0.00981521
-0.010371
-0.00212926
-0.00272307
-0.00331101
-0.00389265
-0.00446766
-0.00503575
-0.00559665
-0.00615016
-0.00669613
-0.00723441
-0.00776492
-0.0082876
-0.00880238
-0.00930926
-0.00980821
-0.0102993
-0.0107824
-0.0112581
-0.0117255
-0.012189
-0.00715334
-0.007483
-0.00782529
-0.00817858
-0.00854142
-0.00891242