/*--------------------------------*- C++ -*----------------------------------*\
  =========                 |
  \\      /  F ield         | OpenFOAM: The Open Source CFD Toolbox
   \\    /   O peration     | Website:  https://openfoam.org
    \\  /    A nd           | Version:  6.0
     \\/     M anipulation  |
\*---------------------------------------------------------------------------*/
FoamFile
{
    version     2.0;
    format      ascii;
    class       volScalarField;
    location    "20";
    object      p;
}
// * * * * * * * * * * * * * * * * * * * * * * * * * * * * * * * * * * * * * //

dimensions      [0 2 -2 0 0 0 0];

internalField   nonuniform List<scalar> 
4000
(
-0.471205
-0.457276
-0.444931
-0.43132
-0.415247
-0.3972
-0.377991
-0.358449
-0.339279
-0.320979
-0.303836
-0.287967
-0.27338
-0.260013
-0.247772
-0.23655
-0.226247
-0.216738
-0.207826
-0.199809
-0.479138
-0.464772
-0.451602
-0.436533
-0.418502
-0.398296
-0.377
-0.355609
-0.334897
-0.315353
-0.297225
-0.280579
-0.265374
-0.251512
-0.238868
-0.227318
-0.216745
-0.207003
-0.197881
-0.189754
-0.485218
-0.470512
-0.456466
-0.439811
-0.419716
-0.397324
-0.373995
-0.350873
-0.328762
-0.308127
-0.289158
-0.271866
-0.256162
-0.24191
-0.228961
-0.21717
-0.206408
-0.196508
-0.187249
-0.179085
-0.489073
-0.474127
-0.459155
-0.440811
-0.418601
-0.394058
-0.368809
-0.344113
-0.32078
-0.299224
-0.279571
-0.261772
-0.245693
-0.231163
-0.218009
-0.206069
-0.195202
-0.185222
-0.1759
-0.167775
-0.490347
-0.475257
-0.459322
-0.439224
-0.414903
-0.388305
-0.361301
-0.335227
-0.31087
-0.288578
-0.268407
-0.250248
-0.233922
-0.21923
-0.205974
-0.193982
-0.183099
-0.173121
-0.163814
-0.155806
-0.488704
-0.473568
-0.456645
-0.434773
-0.408409
-0.379911
-0.35136
-0.324134
-0.29897
-0.276138
-0.25562
-0.237251
-0.220813
-0.206078
-0.192831
-0.180886
-0.170079
-0.160186
-0.150977
-0.143163
-0.483847
-0.468757
-0.450847
-0.42723
-0.398948
-0.368758
-0.338907
-0.310777
-0.285034
-0.261864
-0.241176
-0.222752
-0.206339
-0.191684
-0.178557
-0.166763
-0.156127
-0.146409
-0.137381
-0.129841
-0.475518
-0.460567
-0.441695
-0.416416
-0.386398
-0.354769
-0.323892
-0.29512
-0.269035
-0.245733
-0.225053
-0.206732
-0.190482
-0.176033
-0.163142
-0.151606
-0.141239
-0.131786
-0.123028
-0.11584
-0.463512
-0.44879
-0.429014
-0.402205
-0.370684
-0.337902
-0.306294
-0.277153
-0.250965
-0.227736
-0.207244
-0.189181
-0.173237
-0.159122
-0.146585
-0.135415
-0.125419
-0.116325
-0.107929
-0.101172
-0.447681
-0.43328
-0.412687
-0.384529
-0.351779
-0.318157
-0.286123
-0.256888
-0.230833
-0.207882
-0.187754
-0.170107
-0.154608
-0.140956
-0.128891
-0.1182
-0.108679
-0.100045
-0.092106
-0.0858607
-0.427939
-0.41395
-0.39266
-0.363376
-0.329702
-0.29557
-0.26342
-0.234361
-0.208671
-0.186195
-0.166603
-0.149525
-0.13461
-0.121549
-0.110077
-0.0999768
-0.0910399
-0.0829705
-0.0755914
-0.0699456
-0.404263
-0.39078
-0.368941
-0.338789
-0.30452
-0.270213
-0.238252
-0.209632
-0.18453
-0.162719
-0.143828
-0.127464
-0.113268
-0.100922
-0.0901617
-0.0807661
-0.0725221
-0.0651275
-0.0584208
-0.05347
-0.376697
-0.363814
-0.3416
-0.310865
-0.27634
-0.242194
-0.210718
-0.182788
-0.158482
-0.137513
-0.119477
-0.103966
-0.090614
-0.0791037
-0.0691682
-0.0605881
-0.0531466
-0.0465415
-0.0406263
-0.0364573
-0.345349
-0.333162
-0.310767
-0.279751
-0.245315
-0.211656
-0.180946
-0.153939
-0.130622
-0.110656
-0.0936148
-0.0790815
-0.066689
-0.0561228
-0.0471196
-0.0394614
-0.0329326
-0.0272371
-0.0222315
-0.0188994
-0.310389
-0.298991
-0.276627
-0.245642
-0.211635
-0.178773
-0.149092
-0.123221
-0.101066
-0.082248
-0.0663232
-0.0528742
-0.0415388
-0.0320102
-0.0240331
-0.017396
-0.0118897
-0.00722794
-0.00324615
-0.000795788
-0.272044
-0.261531
-0.239416
-0.208776
-0.175526
-0.143753
-0.11534
-0.0907964
-0.0699567
-0.0524094
-0.0377024
-0.0254234
-0.0152206
-0.00680111
7.57272e-05
0.00560901
0.00999584
0.0135056
0.0163252
0.0177267
-0.230597
-0.221061
-0.199418
-0.169431
-0.137249
-0.106834
-0.0799053
-0.0568569
-0.0374622
-0.0212858
-0.00787454
0.00317352
0.0121933
0.0194562
0.0251801
0.0295481
0.0327407
0.0349724
0.0363662
0.0362755
-0.186378
-0.177905
-0.156958
-0.127921
-0.097096
-0.0682816
-0.0430284
-0.0216202
-0.00377718
0.0109529
0.0230194
0.0328091
0.0406335
0.0467315
0.0512869
0.0544616
0.0563958
0.0571295
0.0565575
0.0544075
-0.139757
-0.132429
-0.112393
-0.0845859
-0.0553843
-0.0283895
-0.00497921
0.0146649
0.03087
0.0441018
0.0548061
0.0633566
0.0700421
0.0750674
0.0785795
0.0807085
0.0814808
0.0805425
0.0774334
0.0731659
-0.0911388
-0.0850293
-0.0661105
-0.0397921
-0.0124533
0.0125281
0.0339477
0.0517188
0.0662102
0.0779004
0.0872366
0.0945906
0.100249
0.104414
0.107247
0.108894
0.109259
0.107496
0.102908
0.0982789
-0.0409544
-0.0361285
-0.0185157
0.00607866
0.0313427
0.0541416
0.0734408
0.0892402
0.101943
0.112037
0.119971
0.126121
0.130788
0.134213
0.136638
0.13834
0.139292
0.138519
0.135759
0.139257
0.0103538
0.0138391
0.0299732
0.0526357
0.075642
0.0961146
0.113183
0.126924
0.137766
0.1462
0.15267
0.157544
0.161122
0.163658
0.165412
0.166645
0.167345
0.167043
0.16663
0.172275
0.062325
0.0644242
0.0789296
0.0994831
0.120081
0.138111
0.15286
0.16447
0.17339
0.180107
0.185055
0.188592
0.191015
0.192574
0.193518
0.194067
0.194203
0.193636
0.193268
0.197808
0.114495
0.115176
0.127927
0.146228
0.1643
0.179801
0.192165
0.201591
0.208539
0.213486
0.216852
0.21898
0.220152
0.220607
0.220573
0.220248
0.219627
0.218487
0.217574
0.220624
0.166402
0.165644
0.176543
0.192483
0.207947
0.220864
0.230804
0.238015
0.242961
0.246107
0.247851
0.24852
0.248375
0.247637
0.24651
0.24516
0.243572
0.24155
0.239779
0.241441
0.21759
0.215387
0.224364
0.237871
0.250682
0.260992
0.268498
0.273488
0.276425
0.277756
0.27786
0.277041
0.275542
0.273563
0.271285
0.268848
0.266221
0.26323
0.260525
0.260856
0.267614
0.263975
0.270989
0.28203
0.292179
0.299892
0.304982
0.30777
0.308713
0.308242
0.30671
0.304402
0.301539
0.298301
0.294849
0.291298
0.287607
0.283629
0.279987
0.27906
0.316044
0.310992
0.316034
0.32461
0.332124
0.337282
0.340003
0.340634
0.339625
0.337385
0.334247
0.330473
0.326263
0.32178
0.317164
0.312512
0.307776
0.302837
0.298282
0.296159
0.362468
0.356042
0.359132
0.365282
0.370222
0.372898
0.373324
0.371868
0.36897
0.365019
0.360324
0.355127
0.34961
0.343918
0.338173
0.332455
0.326717
0.320861
0.315432
0.312174
0.406496
0.398748
0.399934
0.403731
0.406193
0.406489
0.40472
0.401271
0.39657
0.390983
0.384801
0.378244
0.371478
0.364631
0.357809
0.351079
0.344394
0.337678
0.33142
0.327092
0.447759
0.438757
0.438117
0.439666
0.439775
0.437821
0.433982
0.428654
0.422253
0.415126
0.407543
0.399706
0.391763
0.38383
0.375998
0.368319
0.360753
0.353239
0.346206
0.340873
0.485918
0.475743
0.473379
0.472816
0.470726
0.466676
0.460912
0.45384
0.445861
0.437306
0.428423
0.419397
0.410365
0.401426
0.392658
0.384105
0.375731
0.367486
0.359734
0.35347
0.520658
0.509404
0.505444
0.502932
0.498823
0.492854
0.485331
0.476665
0.467247
0.457387
0.447318
0.43721
0.427184
0.417328
0.40771
0.398364
0.389259
0.380354
0.371946
0.36483
0.551696
0.53947
0.534062
0.529791
0.523864
0.516173
0.507073
0.496981
0.486274
0.475246
0.464116
0.45304
0.442126
0.431452
0.421076
0.411023
0.401269
0.391779
0.382783
0.3749
0.578781
0.5657
0.559014
0.553192
0.54567
0.536471
0.525993
0.514653
0.50282
0.490773
0.478717
0.466795
0.455106
0.443719
0.432681
0.422014
0.411696
0.401698
0.392187
0.383632
0.601692
0.587883
0.580105
0.572963
0.564086
0.553607
0.54196
0.529565
0.516778
0.503868
0.491028
0.478391
0.466047
0.454057
0.44246
0.431274
0.420482
0.410056
0.400107
0.39098
0.620246
0.605845
0.597175
0.588957
0.578979
0.567462
0.554868
0.541616
0.528056
0.514448
0.500972
0.487756
0.474882
0.462404
0.450355
0.43875
0.427575
0.416803
0.406499
0.396907
0.634293
0.619442
0.610093
0.601057
0.590243
0.577939
0.564626
0.550727
0.536582
0.522443
0.508487
0.494833
0.481557
0.46871
0.456319
0.444397
0.432932
0.421899
0.411325
0.401379
0.643721
0.628566
0.61876
0.609174
0.597797
0.584964
0.57117
0.556834
0.542297
0.527803
0.513524
0.499575
0.486031
0.472936
0.460316
0.448181
0.436522
0.425314
0.414558
0.404373
0.648454
0.633147
0.623111
0.613247
0.601588
0.588489
0.574453
0.559899
0.545164
0.530491
0.516051
0.501954
0.488274
0.475055
0.46232
0.450078
0.438323
0.427027
0.416179
0.405874
0.648454
0.633147
0.623111
0.613247
0.601588
0.588489
0.574452
0.559898
0.545163
0.530491
0.51605
0.501954
0.488274
0.475054
0.462319
0.450077
0.438322
0.427026
0.416178
0.405874
0.643721
0.628567
0.618761
0.609174
0.597797
0.584964
0.571169
0.556833
0.542296
0.527802
0.513523
0.499574
0.486029
0.472934
0.460314
0.448179
0.436521
0.425312
0.414556
0.404371
0.634294
0.619442
0.610093
0.601057
0.590242
0.577938
0.564625
0.550725
0.53658
0.522441
0.508485
0.49483
0.481555
0.468707
0.456316
0.444394
0.432929
0.421896
0.411322
0.401376
0.620247
0.605845
0.597175
0.588957
0.578978
0.567461
0.554866
0.541614
0.528054
0.514444
0.500969
0.487752
0.474878
0.4624
0.450351
0.438745
0.42757
0.416798
0.406494
0.396902
0.601693
0.587884
0.580105
0.572962
0.564084
0.553605
0.541958
0.529562
0.516774
0.503864
0.491023
0.478386
0.466042
0.454052
0.442454
0.431268
0.420476
0.41005
0.400101
0.390974
0.578781
0.5657
0.559013
0.553191
0.545668
0.536468
0.525989
0.514649
0.502815
0.490768
0.478711
0.466789
0.4551
0.443713
0.432674
0.422007
0.411689
0.40169
0.392179
0.383625
0.551697
0.53947
0.534061
0.529789
0.523861
0.516169
0.507069
0.496976
0.486268
0.47524
0.46411
0.453033
0.442118
0.431444
0.421067
0.411015
0.40126
0.39177
0.382774
0.374891
0.520658
0.509403
0.505442
0.50293
0.498819
0.492849
0.485325
0.476659
0.46724
0.457379
0.44731
0.437201
0.427175
0.417319
0.4077
0.398354
0.389248
0.380344
0.371935
0.364819
0.485917
0.475741
0.473376
0.472812
0.470721
0.46667
0.460905
0.453832
0.445853
0.437297
0.428413
0.419387
0.410354
0.401415
0.392647
0.384094
0.375719
0.367474
0.359722
0.353458
0.447757
0.438754
0.438113
0.439661
0.439769
0.437814
0.433974
0.428645
0.422243
0.415116
0.407532
0.399694
0.391751
0.383817
0.375985
0.368306
0.36074
0.353226
0.346192
0.340859
0.406492
0.398743
0.399929
0.403725
0.406186
0.40648
0.404711
0.401261
0.396558
0.390971
0.384788
0.378231
0.371464
0.364616
0.357795
0.351064
0.344379
0.337663
0.331405
0.327076
0.362463
0.356035
0.359125
0.365274
0.370213
0.372887
0.373312
0.371856
0.368957
0.365005
0.36031
0.355112
0.349594
0.343902
0.338157
0.332439
0.3267
0.320844
0.315415
0.312157
0.316037
0.310984
0.316025
0.3246
0.332113
0.33727
0.339989
0.34062
0.33961
0.337369
0.334231
0.330455
0.326245
0.321762
0.317146
0.312493
0.307758
0.302818
0.298263
0.29614
0.267604
0.263964
0.270978
0.282018
0.292166
0.299877
0.304966
0.307753
0.308696
0.308223
0.306692
0.304383
0.301519
0.298281
0.294828
0.291277
0.287586
0.283608
0.279965
0.279038
0.217577
0.215373
0.224349
0.237856
0.250666
0.260975
0.26848
0.273469
0.276405
0.277735
0.277839
0.27702
0.27552
0.27354
0.271262
0.268825
0.266198
0.263207
0.260502
0.260832
0.166386
0.165627
0.176525
0.192465
0.207928
0.220844
0.230783
0.237994
0.242939
0.246084
0.247828
0.248496
0.24835
0.247612
0.246485
0.245135
0.243547
0.241525
0.239753
0.241415
0.114475
0.115154
0.127905
0.146206
0.164277
0.179778
0.192141
0.201566
0.208513
0.213461
0.216826
0.218953
0.220125
0.220579
0.220546
0.22022
0.219599
0.218459
0.217546
0.220596
0.0623003
0.0643989
0.0789042
0.0994576
0.120055
0.138085
0.152833
0.164442
0.173362
0.180078
0.185025
0.188563
0.190985
0.192544
0.193488
0.194036
0.194172
0.193605
0.193237
0.197777
0.0103243
0.013809
0.0299433
0.0526059
0.0756121
0.0960844
0.113152
0.126893
0.137734
0.146168
0.152637
0.157511
0.161089
0.163625
0.165379
0.166612
0.167311
0.16701
0.166596
0.172242
-0.0409891
-0.0361637
-0.0185505
0.00604431
0.0313085
0.0541073
0.0734062
0.0892053
0.101908
0.112002
0.119936
0.126086
0.130752
0.134176
0.136602
0.138304
0.139256
0.138482
0.135722
0.13922
-0.0911791
-0.0850701
-0.0661506
-0.0398315
-0.0124922
0.0124894
0.0339089
0.0516799
0.0661712
0.0778613
0.0871974
0.0945513
0.100209
0.104375
0.107207
0.108855
0.109219
0.107456
0.102868
0.0982385
-0.139804
-0.132476
-0.112439
-0.0846306
-0.0554282
-0.0284329
-0.00502242
0.0146218
0.030827
0.0440588
0.0547632
0.0633137
0.0699993
0.0750247
0.0785368
0.0806658
0.0814382
0.0804999
0.0773907
0.0731229
-0.186431
-0.177958
-0.15701
-0.127971
-0.0971453
-0.0683301
-0.0430763
-0.0216678
-0.00382444
0.0109059
0.0229726
0.0327625
0.0405871
0.0466853
0.0512409
0.0544158
0.0563501
0.0570841
0.0565123
0.0543623
-0.230657
-0.221121
-0.199477
-0.169488
-0.137304
-0.106887
-0.0799582
-0.0569091
-0.0375139
-0.021337
-0.00792534
0.0031231
0.0121433
0.0194065
0.0251307
0.029499
0.0326921
0.0349241
0.0363182
0.0362277
-0.272111
-0.261599
-0.239481
-0.208839
-0.175587
-0.143812
-0.115398
-0.0908536
-0.070013
-0.052465
-0.0377574
-0.0254778
-0.0152744
-0.00685439
2.2957e-05
0.00555673
0.00994404
0.0134543
0.0162745
0.0176762
-0.310463
-0.299066
-0.276699
-0.245711
-0.211702
-0.178838
-0.149155
-0.123283
-0.101127
-0.0823081
-0.0663824
-0.0529327
-0.0415965
-0.0320672
-0.0240894
-0.0174517
-0.0119446
-0.00728224
-0.00329977
-0.000849025
-0.345431
-0.333244
-0.310847
-0.279828
-0.245389
-0.211727
-0.181016
-0.154006
-0.130688
-0.110721
-0.0936785
-0.0791442
-0.0667507
-0.0561836
-0.0471794
-0.0395205
-0.0329908
-0.0272945
-0.0222881
-0.0189554
-0.376788
-0.363905
-0.341688
-0.310949
-0.276421
-0.242272
-0.210794
-0.182861
-0.158553
-0.137583
-0.119545
-0.104033
-0.0906797
-0.0791683
-0.0692318
-0.0606506
-0.0532081
-0.0466021
-0.0406859
-0.0365162
-0.404361
-0.390878
-0.369037
-0.338881
-0.304607
-0.270297
-0.238333
-0.209711
-0.184606
-0.162793
-0.1439
-0.127535
-0.113337
-0.100991
-0.090229
-0.0808322
-0.0725871
-0.0651913
-0.0584835
-0.0535318
-0.428045
-0.414056
-0.392763
-0.363475
-0.329797
-0.295661
-0.263507
-0.234445
-0.208753
-0.186275
-0.166681
-0.1496
-0.134684
-0.121622
-0.110148
-0.100047
-0.0911084
-0.0830376
-0.0756573
-0.0700105
-0.447795
-0.433394
-0.412798
-0.384636
-0.351881
-0.318255
-0.286217
-0.256978
-0.23092
-0.207967
-0.187836
-0.170187
-0.154686
-0.141033
-0.128966
-0.118273
-0.108751
-0.100116
-0.0921751
-0.0859287
-0.463634
-0.448912
-0.429133
-0.402319
-0.370793
-0.338006
-0.306394
-0.277249
-0.251057
-0.227826
-0.207331
-0.189267
-0.17332
-0.159203
-0.146664
-0.135492
-0.125495
-0.116399
-0.108001
-0.101243
-0.475648
-0.460696
-0.441821
-0.416537
-0.386514
-0.35488
-0.323998
-0.295222
-0.269134
-0.245828
-0.225145
-0.206821
-0.19057
-0.176118
-0.163225
-0.151687
-0.141319
-0.131863
-0.123104
-0.115915
-0.483984
-0.468894
-0.450981
-0.427359
-0.399071
-0.368876
-0.33902
-0.310885
-0.285138
-0.261965
-0.241273
-0.222847
-0.206431
-0.191773
-0.178644
-0.166848
-0.15621
-0.14649
-0.13746
-0.129919
-0.488848
-0.473712
-0.456786
-0.434909
-0.408539
-0.380035
-0.351479
-0.324248
-0.29908
-0.276244
-0.255722
-0.23735
-0.22091
-0.206172
-0.192922
-0.180975
-0.170166
-0.160271
-0.15106
-0.143244
-0.490497
-0.475407
-0.459469
-0.439367
-0.41504
-0.388436
-0.361426
-0.335346
-0.310985
-0.288689
-0.268514
-0.250352
-0.234023
-0.219328
-0.20607
-0.194075
-0.18319
-0.173209
-0.1639
-0.15589
-0.48923
-0.474283
-0.459309
-0.44096
-0.418744
-0.394195
-0.36894
-0.344238
-0.3209
-0.29934
-0.279683
-0.261881
-0.245798
-0.231265
-0.218108
-0.206166
-0.195296
-0.185314
-0.17599
-0.167863
-0.48538
-0.470673
-0.456625
-0.439965
-0.419865
-0.397467
-0.374132
-0.351004
-0.328888
-0.308249
-0.289276
-0.271979
-0.256272
-0.242017
-0.229065
-0.217271
-0.206506
-0.196604
-0.187342
-0.179176
-0.479305
-0.464937
-0.451766
-0.436693
-0.418656
-0.398444
-0.377142
-0.355746
-0.335028
-0.31548
-0.297347
-0.280697
-0.265489
-0.251623
-0.238977
-0.227423
-0.216847
-0.207103
-0.197978
-0.189849
-0.471375
-0.457446
-0.445098
-0.431484
-0.415406
-0.397354
-0.378139
-0.358591
-0.339415
-0.321111
-0.303963
-0.28809
-0.273499
-0.260129
-0.247884
-0.236659
-0.226354
-0.216842
-0.207927
-0.199907
0.0800037
0.0519326
0.0312762
0.0214509
0.0126719
0.000800463
-0.0125297
-0.0254047
-0.0375263
-0.0493078
-0.0609915
-0.07255
-0.0838901
-0.0949702
-0.105798
-0.116398
-0.126796
-0.137017
-0.147097
-0.157081
0.0229701
0.00906109
-0.00313568
-0.0105376
-0.0160651
-0.0224982
-0.0299955
-0.0375364
-0.0445344
-0.0510464
-0.0572979
-0.063385
-0.0692817
-0.0749412
-0.0803434
-0.08549
-0.0903863
-0.0950324
-0.0994236
-0.103552
0.00884072
0.00270727
-0.00279056
-0.00740926
-0.0115771
-0.0158497
-0.0203987
-0.0250502
-0.0296099
-0.0340353
-0.0383831
-0.0427074
-0.0470223
-0.0513197
-0.0555931
-0.0598447
-0.0640823
-0.0683138
-0.0725465
-0.0767873
0.000527317
-0.00327418
-0.00699243
-0.0106544
-0.0142519
-0.0178125
-0.0213698
-0.0249203
-0.0284345
-0.0318913
-0.0352906
-0.0386413
-0.041949
-0.0452132
-0.0484315
-0.0516027
-0.0547275
-0.0578072
-0.0608432
-0.0638368
-0.00586718
-0.00893135
-0.0117266
-0.0143258
-0.0168935
-0.0194765
-0.022051
-0.0245949
-0.0271047
-0.0295845
-0.0320385
-0.0344697
-0.0368807
-0.0392738
-0.0416512
-0.044015
-0.0463678
-0.0487119
-0.05105
-0.0533845
-0.010667
-0.0131265
-0.0152123
-0.0170691
-0.0189221
-0.020834
-0.0227675
-0.0246864
-0.0265837
-0.0284672
-0.0303431
-0.0322131
-0.0340767
-0.0359337
-0.0377844
-0.0396293
-0.0414691
-0.0433042
-0.045135
-0.0469621
-0.0136373
-0.0155444
-0.0171028
-0.0184826
-0.0198788
-0.0213378
-0.0228238
-0.0243034
-0.0257698
-0.027229
-0.0286866
-0.030144
-0.0316002
-0.0330546
-0.0345069
-0.0359577
-0.0374072
-0.0388558
-0.0403038
-0.0417516
-0.0153697
-0.0168369
-0.0180516
-0.0191457
-0.0202564
-0.0214158
-0.0225982
-0.0237793
-0.0249531
-0.0261235
-0.0272945
-0.0284669
-0.02964
-0.0308131
-0.0319858
-0.0331582
-0.0343303
-0.0355022
-0.036674
-0.0378457
-0.0163876
-0.0174971
-0.0184748
-0.0193876
-0.0203074
-0.0212541
-0.0222155
-0.0231782
-0.0241376
-0.0250953
-0.0260533
-0.0270122
-0.0279718
-0.0289314
-0.0298908
-0.03085
-0.0318089
-0.0327676
-0.0337261
-0.0346845
-0.0170997
-0.017913
-0.0187057
-0.0194879
-0.020271
-0.0210602
-0.0218541
-0.0226493
-0.0234441
-0.0242383
-0.0250322
-0.0258262
-0.0266201
-0.0274138
-0.0282071
-0.029
-0.0297925
-0.0305846
-0.0313763
-0.0321677
-0.0177052
-0.0182889
-0.0189267
-0.0195945
-0.0202623
-0.0209224
-0.021579
-0.0222358
-0.0228936
-0.0235515
-0.024209
-0.0248658
-0.0255222
-0.0261781
-0.0268336
-0.0274887
-0.0281435
-0.0287979
-0.029452
-0.0301059
-0.0182652
-0.0186807
-0.0191862
-0.0197437
-0.0203031
-0.0208489
-0.0213867
-0.0219238
-0.0224624
-0.0230019
-0.0235412
-0.0240799
-0.0246183
-0.0251565
-0.0256947
-0.0262329
-0.0267712
-0.0273096
-0.0278483
-0.0283873
-0.0187462
-0.0190314
-0.0194191
-0.01987
-0.020326
-0.0207669
-0.0211981
-0.0216281
-0.0220601
-0.0224935
-0.0229274
-0.0233613
-0.0237955
-0.0242302
-0.0246656
-0.0251019
-0.0255392
-0.0259776
-0.0264171
-0.026858
-0.019112
-0.0192772
-0.0195555
-0.0199084
-0.0202699
-0.0206154
-0.0209497
-0.0212824
-0.0216176
-0.0219552
-0.0222941
-0.0226341
-0.0229754
-0.0233185
-0.0236636
-0.024011
-0.0243608
-0.0247131
-0.0250681
-0.025426
-0.0193528
-0.0193705
-0.0195236
-0.0197735
-0.0200384
-0.020285
-0.0205178
-0.0207487
-0.0209838
-0.0212235
-0.0214669
-0.0217137
-0.0219642
-0.022219
-0.0224787
-0.0227434
-0.0230133
-0.0232887
-0.0235694
-0.0238556
-0.0196149
-0.0194939
-0.0194854
-0.0195766
-0.0196962
-0.019808
-0.0199121
-0.0200193
-0.0201362
-0.0202641
-0.0204025
-0.0205507
-0.0207089
-0.0208776
-0.0210568
-0.0212466
-0.0214469
-0.0216575
-0.0218781
-0.0221085
-0.0194209
-0.0192011
-0.0189355
-0.0187104
-0.0185459
-0.0184282
-0.0183429
-0.0182845
-0.0182533
-0.0182501
-0.0182747
-0.0183258
-0.0184018
-0.0185014
-0.0186233
-0.0187661
-0.0189287
-0.0191098
-0.019308
-0.0195222
-0.016767
-0.0162983
-0.0157926
-0.0153773
-0.0150675
-0.0148394
-0.014673
-0.0145588
-0.0144934
-0.0144744
-0.014499
-0.0145635
-0.0146645
-0.0147987
-0.0149629
-0.0151544
-0.0153707
-0.0156091
-0.0158674
-0.0161435
-0.00525909
-0.00165598
-0.000402811
-0.00102622
-0.00207075
-0.00286154
-0.00341081
-0.00390252
-0.00443342
-0.00500681
-0.0055975
-0.00618946
-0.00677942
-0.00736887
-0.00795862
-0.00854796
-0.00913556
-0.00972023
-0.0103011
-0.0108775
0.0065404
0.018694
0.0224133
0.0198382
0.0160699
0.0133503
0.011584
0.0101286
0.00864999
0.00712825
0.00563715
0.00422017
0.00287956
0.00160266
0.000379527
-0.000794217
-0.00192046
-0.00300103
-0.00403828
-0.00503476
0.118738
0.119262
0.120335
0.121949
0.124102
0.12681
0.130092
0.133971
0.138463
0.143571
0.14928
0.155532
0.162216
0.169094
0.175751
0.181384
0.18448
0.182006
0.167368
0.125631
0.109547
0.109932
0.110659
0.11175
0.113167
0.114931
0.116976
0.11933
0.121868
0.124614
0.127318
0.129979
0.132108
0.133615
0.133522
0.131475
0.125412
0.114044
0.092267
0.0543344
0.0986834
0.0988891
0.0992526
0.0997863
0.100456
0.101257
0.102112
0.102993
0.103769
0.104378
0.104593
0.104283
0.103061
0.100661
0.0964326
0.089875
0.0800119
0.0661913
0.0477171
0.0248684
0.0868374
0.0868732
0.0869163
0.0869673
0.0870039
0.0869976
0.0868854
0.0866032
0.0860461
0.0851087
0.0836322
0.0814498
0.0783333
0.0740434
0.0683114
0.0608929
0.051645
0.0404691
0.0273043
0.0112879
0.0747086
0.0746183
0.0744246
0.0741232
0.0737006
0.0731227
0.072343
0.0712928
0.0699002
0.068067
0.0657023
0.0626813
0.0589108
0.0542616
0.0486882
0.0420952
0.0344962
0.0256981
0.015436
0.00278088
0.0628782
0.0627113
0.0623712
0.061853
0.0611496
0.0602326
0.0590709
0.0576113
0.0558097
0.0535994
0.0509374
0.0477535
0.0440225
0.0396808
0.0347288
0.0290856
0.0227181
0.0154
0.00687546
-0.00355137
0.0517494
0.0515457
0.0511344
0.0505118
0.0496743
0.0486033
0.04728
0.0456706
0.043751
0.0414818
0.0388449
0.0358013
0.0323435
0.0284283
0.0240503
0.0191382
0.0136591
0.00746051
0.000392837
-0.00801034
0.0415498
0.0413364
0.040907
0.0402584
0.0393891
0.038288
0.0369458
0.0353424
0.0334657
0.0312922
0.0288133
0.0260034
0.0228579
0.0193454
0.0154641
0.0111719
0.0064676
0.00127743
-0.00446239
-0.01105
0.0323698
0.0321628
0.0317472
0.0311195
0.0302791
0.0292196
0.0279369
0.0264195
0.0246619
0.022649
0.0203768
0.0178278
0.0150016
0.0118793
0.00846879
0.00475218
0.000750315
-0.00356156
-0.0081724
-0.0131831
0.0242073
0.0240151
0.0236294
0.0230466
0.022266
0.0212835
0.0200982
0.0187038
0.0170988
0.0152744
0.0132304
0.0109566
0.00845735
0.00572274
0.0027667
-0.000416579
-0.0037958
-0.00736486
-0.0110523
-0.0147983
0.0170071
0.0168329
0.0164838
0.0159557
0.0152477
0.0143569
0.0132847
0.012028
0.0105888
0.00896305
0.00715476
0.00515911
0.00298442
0.000625913
-0.00190038
-0.00459557
-0.00742344
-0.01036
-0.013297
-0.0160826
0.010689
0.0105332
0.0102215
0.00974963
0.00911664
0.00832081
0.00736484
0.00624819
0.00497542
0.00354555
0.0019657
0.000235112
-0.0016344
-0.0036433
-0.0057732
-0.00802266
-0.0103548
-0.0127409
-0.0150609
-0.0171273
0.00516763
0.00502838
0.00475053
0.00432998
0.00376628
0.00305908
0.0022128
0.00122911
0.000114359
-0.00113071
-0.002498
-0.00398673
-0.00558322
-0.00728366
-0.00906451
-0.0109179
-0.0128048
-0.0146977
-0.0164836
-0.0179748
0.00036692
0.000240069
-1.21367e-05
-0.000393312
-0.000902879
-0.00153927
-0.00229541
-0.00316644
-0.00414295
-0.00522167
-0.00639378
-0.00765949
-0.00900809
-0.0104378
-0.0119239
-0.0134496
-0.0149618
-0.0164197
-0.0177125
-0.0186771
-0.00376911
-0.00388975
-0.0041288
-0.00448947
-0.00497002
-0.00556717
-0.0062707
-0.00707164
-0.00795442
-0.00890919
-0.0099197
-0.0109824
-0.0120872
-0.0132432
-0.0144405
-0.0156777
-0.0168959
-0.0180247
-0.018899
-0.0193232
-0.00726876
-0.00739043
-0.00763095
-0.00799379
-0.00847653
-0.00907614
-0.00978054
-0.0105793
-0.0114501
-0.0123753
-0.0133209
-0.0142654
-0.0151728
-0.0160429
-0.0168697
-0.0177032
-0.0185416
-0.0193674
-0.0199447
-0.0199314
-0.0101313
-0.01026
-0.010515
-0.0109005
-0.0114145
-0.0120566
-0.0128168
-0.0136888
-0.0146516
-0.0156879
-0.0167535
-0.017806
-0.0187601
-0.019547
-0.0200692
-0.0203282
-0.0203631
-0.0203682
-0.0203396
-0.019887
-0.0123325
-0.0124702
-0.0127473
-0.0131669
-0.0137303
-0.0144384
-0.0152903
-0.0162851
-0.0174184
-0.0186831
-0.0200604
-0.0215147
-0.0229697
-0.0242909
-0.0252504
-0.0255373
-0.0248261
-0.0230059
-0.0204551
-0.0180404
-0.0138339
-0.013979
-0.0142777
-0.0147305
-0.015343
-0.0161163
-0.0170608
-0.01818
-0.0194922
-0.0210039
-0.0227447
-0.0247198
-0.0269569
-0.0294043
-0.0319557
-0.0341932
-0.0353269
-0.0338016
-0.0277278
-0.0156942
-0.0145949
-0.0147459
-0.0150574
-0.0155311
-0.0161728
-0.0169874
-0.0179877
-0.0191863
-0.020608
-0.0222794
-0.0242491
-0.0265739
-0.0293506
-0.0326947
-0.0367654
-0.0416569
-0.0471716
-0.0519035
-0.0508289
-0.0281898
0.129149
0.129722
0.131003
0.132895
0.135544
0.13885
0.143055
0.148015
0.154111
0.16113
0.169664
0.179392
0.191255
0.204746
0.221448
0.240494
0.264744
0.292564
0.32941
0.371799
0.129113
0.129686
0.130966
0.132858
0.135506
0.13881
0.143013
0.147971
0.154062
0.161077
0.169603
0.179321
0.191168
0.204638
0.221301
0.240296
0.264455
0.292138
0.328751
0.370746
0.12904
0.129613
0.130892
0.132783
0.135428
0.13873
0.142928
0.147881
0.153965
0.160969
0.16948
0.179179
0.190993
0.20442
0.221009
0.239902
0.263877
0.29129
0.327438
0.368648
0.128932
0.129504
0.130782
0.13267
0.135313
0.13861
0.142802
0.147747
0.153819
0.160808
0.169297
0.178965
0.190732
0.204095
0.220572
0.239314
0.263016
0.290025
0.325476
0.365515
0.128787
0.129359
0.130635
0.13252
0.135158
0.13845
0.142635
0.147568
0.153626
0.160595
0.169054
0.178682
0.190385
0.203664
0.219994
0.238534
0.261874
0.28835
0.322873
0.361363
0.128606
0.129178
0.130451
0.132334
0.134967
0.138251
0.142426
0.147346
0.153386
0.160329
0.168752
0.17833
0.189955
0.203128
0.219276
0.237568
0.260457
0.286275
0.319643
0.356214
0.12839
0.128961
0.130232
0.132111
0.134737
0.138014
0.142177
0.147081
0.153099
0.160012
0.168392
0.17791
0.189444
0.20249
0.218424
0.236419
0.258774
0.283814
0.315798
0.350096
0.128138
0.12871
0.129978
0.131852
0.134471
0.137738
0.141887
0.146774
0.152766
0.159644
0.167975
0.177424
0.188853
0.201752
0.217441
0.235093
0.256834
0.28098
0.311355
0.34304
0.127852
0.128423
0.129688
0.131558
0.134169
0.137425
0.141559
0.146425
0.152389
0.159228
0.167504
0.176874
0.188186
0.200917
0.216333
0.233597
0.254646
0.277789
0.306334
0.335084
0.127531
0.128103
0.129364
0.131229
0.133831
0.137076
0.141193
0.146036
0.151969
0.158763
0.166979
0.17626
0.187445
0.199988
0.215105
0.231937
0.252223
0.274258
0.300755
0.326271
0.127177
0.127749
0.129007
0.130866
0.133459
0.136691
0.14079
0.145607
0.151507
0.158253
0.166403
0.175587
0.186633
0.198969
0.213764
0.230121
0.249579
0.270406
0.294642
0.316649
0.126788
0.127361
0.128616
0.13047
0.133053
0.136271
0.14035
0.145141
0.151003
0.157697
0.165777
0.174854
0.185754
0.197863
0.212317
0.228154
0.246728
0.26625
0.288024
0.30627
0.126367
0.126942
0.128194
0.130041
0.132613
0.135818
0.139875
0.144637
0.150461
0.157098
0.165103
0.174067
0.18481
0.196675
0.210771
0.226046
0.243688
0.26181
0.280931
0.295188
0.125914
0.12649
0.127739
0.129581
0.132142
0.135332
0.139367
0.144099
0.149881
0.156458
0.164384
0.173226
0.183806
0.195409
0.209132
0.223806
0.240478
0.257104
0.2734
0.283457
0.125429
0.126008
0.127254
0.129091
0.13164
0.134814
0.138825
0.143525
0.149263
0.155778
0.163621
0.172334
0.182744
0.194069
0.207407
0.22144
0.237116
0.252149
0.265474
0.271124
0.124912
0.125495
0.12674
0.12857
0.131108
0.134265
0.138251
0.142917
0.148609
0.155058
0.162812
0.171389
0.181622
0.192654
0.205596
0.218951
0.233616
0.246961
0.257207
0.25823
0.124366
0.124954
0.126196
0.128022
0.130547
0.133687
0.137647
0.142279
0.147921
0.154301
0.161963
0.170399
0.180446
0.191172
0.203708
0.216353
0.229996
0.241554
0.248659
0.244805
0.123789
0.124384
0.125628
0.127451
0.129966
0.133092
0.137028
0.141629
0.147228
0.153543
0.161118
0.169415
0.179283
0.189697
0.201831
0.213731
0.226352
0.235983
0.239877
0.230749
0.123183
0.123787
0.125035
0.126858
0.129367
0.132485
0.136405
0.140983
0.146546
0.152808
0.160307
0.168477
0.178176
0.188284
0.200022
0.211152
0.222748
0.230291
0.230882
0.215395
0.122544
0.123151
0.124392
0.126205
0.12869
0.13178
0.135652
0.140177
0.145656
0.15182
0.159167
0.167151
0.176569
0.186307
0.197512
0.207858
0.218361
0.223997
0.221757
0.199034
0.122541
0.123147
0.124388
0.126201
0.128686
0.131775
0.135647
0.140172
0.14565
0.151813
0.159159
0.167142
0.176559
0.186296
0.197499
0.207843
0.218344
0.223976
0.221732
0.199003
0.12318
0.123784
0.125031
0.126854
0.129363
0.13248
0.1364
0.140977
0.14654
0.152801
0.1603
0.168469
0.178167
0.188273
0.200009
0.211138
0.222731
0.230271
0.230859
0.215366
0.123786
0.124381
0.125624
0.127447
0.129962
0.133087
0.137024
0.141624
0.147222
0.153537
0.161111
0.169408
0.179274
0.189687
0.201819
0.213718
0.226336
0.235964
0.239855
0.230723
0.124362
0.12495
0.126193
0.128018
0.130543
0.133683
0.137642
0.142274
0.147916
0.154295
0.161956
0.170392
0.180438
0.191162
0.203697
0.21634
0.229981
0.241536
0.248639
0.24478
0.124909
0.125492
0.126736
0.128567
0.131104
0.134261
0.138246
0.142913
0.148604
0.155052
0.162805
0.171382
0.181614
0.192645
0.205586
0.218939
0.233602
0.246945
0.257188
0.258207
0.125426
0.126005
0.127251
0.129088
0.131637
0.13481
0.138821
0.143521
0.149259
0.155773
0.163615
0.172327
0.182737
0.194061
0.207398
0.221428
0.237103
0.252134
0.265456
0.271103
0.125911
0.126488
0.127737
0.129578
0.132139
0.135328
0.139363
0.144095
0.149876
0.156453
0.164379
0.17322
0.1838
0.195401
0.209123
0.223795
0.240466
0.257089
0.273384
0.283438
0.126365
0.126939
0.128191
0.130039
0.132611
0.135814
0.139872
0.144634
0.150457
0.157094
0.165098
0.174061
0.184804
0.196668
0.210762
0.226037
0.243677
0.261797
0.280916
0.295171
0.126786
0.127359
0.128614
0.130467
0.13305
0.136268
0.140347
0.145137
0.151
0.157693
0.165772
0.174849
0.185748
0.197856
0.212309
0.228145
0.246718
0.266238
0.28801
0.306254
0.127174
0.127746
0.129005
0.130863
0.133456
0.136688
0.140787
0.145604
0.151503
0.158249
0.166399
0.175582
0.186627
0.198963
0.213757
0.230112
0.249569
0.270395
0.29463
0.316635
0.127529
0.128101
0.129362
0.131227
0.133829
0.137073
0.14119
0.146033
0.151966
0.15876
0.166975
0.176256
0.18744
0.199982
0.215099
0.23193
0.252214
0.274248
0.300743
0.326259
0.12785
0.128422
0.129686
0.131556
0.134167
0.137423