/*--------------------------------*- C++ -*----------------------------------*\
  =========                 |
  \\      /  F ield         | OpenFOAM: The Open Source CFD Toolbox
   \\    /   O peration     | Website:  https://openfoam.org
    \\  /    A nd           | Version:  6.0
     \\/     M anipulation  |
\*---------------------------------------------------------------------------*/
FoamFile
{
    version     2.0;
    format      ascii;
    class       volVectorField;
    location    "11";
    object      U;
}
// * * * * * * * * * * * * * * * * * * * * * * * * * * * * * * * * * * * * * //

dimensions      [0 1 -1 0 0 0 0];

internalField   nonuniform List<vector> 
8000
(
(-0.000696969 0.000829674 -3.95068e-21)
(-0.00371504 0.002028 2.11197e-20)
(-0.00922818 0.00286851 -2.56993e-20)
(-0.0159833 0.00344982 1.95746e-20)
(-0.0233594 0.00384037 9.53881e-21)
(-0.0310254 0.00409237 -2.86459e-20)
(-0.0387509 0.00424787 -2.53463e-21)
(-0.0463915 0.00434077 -9.03708e-22)
(-0.0538719 0.00439849 -1.49012e-20)
(-0.0611656 0.00444324 -8.08329e-21)
(-0.0682808 0.00449298 6.01831e-21)
(-0.0752503 0.004562 2.29398e-20)
(-0.082123 0.0046614 -1.70005e-21)
(-0.0889563 0.0047993 2.47722e-21)
(-0.0958141 0.004981 -2.31787e-20)
(-0.10278 0.00520876 1.42988e-20)
(-0.109931 0.00548233 -2.05387e-20)
(-0.117146 0.0058023 3.10961e-20)
(-0.124134 0.00617073 -3.43456e-23)
(-0.132232 0.00656003 6.8184e-21)
(-0.000809046 0.00238324 1.31194e-20)
(-0.00395851 0.00582717 -6.70669e-20)
(-0.0095127 0.00824201 -4.63473e-20)
(-0.0162497 0.00991162 -3.14887e-20)
(-0.0235639 0.0110325 -4.05276e-20)
(-0.0311324 0.0117544 8.90404e-21)
(-0.0387305 0.012198 -4.68185e-20)
(-0.0462173 0.0124605 -1.05352e-20)
(-0.0535194 0.0126211 3.30077e-21)
(-0.0606114 0.012744 3.50324e-20)
(-0.0675021 0.0128816 -3.82654e-20)
(-0.074225 0.0130761 5.32679e-20)
(-0.0808294 0.0133602 -3.99313e-20)
(-0.0873735 0.0137586 -4.74206e-20)
(-0.0939228 0.0142877 -6.54838e-20)
(-0.100563 0.0149548 4.17535e-20)
(-0.107374 0.0157601 -1.36029e-20)
(-0.114238 0.0167061 -4.9468e-20)
(-0.120857 0.0178003 4.67938e-20)
(-0.128572 0.01896 -3.5072e-20)
(-0.00102797 0.00388503 1.28286e-19)
(-0.00443603 0.00950954 6.64778e-20)
(-0.0100735 0.013458 7.4777e-20)
(-0.0167782 0.0161878 6.22722e-21)
(-0.0239737 0.0180175 4.13446e-20)
(-0.0313535 0.0191902 5.1623e-20)
(-0.0387036 0.0199026 -9.38436e-20)
(-0.0458902 0.0203139 -4.97402e-20)
(-0.0528437 0.0205534 -6.48487e-20)
(-0.059541 0.0207272 6.92205e-20)
(-0.065992 0.0209218 -5.29124e-20)
(-0.072231 0.0212079 -6.81703e-20)
(-0.0783086 0.0216411 -2.48389e-20)
(-0.0842846 0.0222638 2.36071e-20)
(-0.0902274 0.0231053 -6.64767e-21)
(-0.0962264 0.0241801 9.43177e-21)
(-0.102369 0.0254903 1.10135e-19)
(-0.108542 0.0270422 -1.53714e-20)
(-0.114437 0.0288511 -1.12331e-19)
(-0.121402 0.0307793 1.49566e-19)
(-0.00134675 0.00530485 4.46879e-20)
(-0.00513598 0.0130057 -6.30628e-20)
(-0.0109024 0.0184216 -1.58398e-20)
(-0.0175672 0.0221654 2.96084e-20)
(-0.0245963 0.0246678 8.40881e-20)
(-0.0317065 0.0262598 1.84167e-19)
(-0.0386998 0.0272095 1.80038e-19)
(-0.0454525 0.027735 1.49914e-20)
(-0.0519011 0.0280143 1.10526e-19)
(-0.0580257 0.0281938 1.69278e-19)
(-0.0638379 0.0283946 -1.35418e-19)
(-0.0693729 0.028716 2.00393e-19)
(-0.0746828 0.0292383 -4.55577e-20)
(-0.0798302 0.0300241 1.14003e-20)
(-0.084887 0.0311185 4.76423e-20)
(-0.0899488 0.0325464 6.3462e-20)
(-0.0951131 0.034315 -9.96825e-20)
(-0.100278 0.0364376 -8.33921e-20)
(-0.105119 0.0389424 -1.47963e-19)
(-0.110991 0.0416361 2.17207e-19)
(-0.00175592 0.00661803 -2.33337e-20)
(-0.00604228 0.0162573 -2.39e-19)
(-0.0119873 0.0230508 -7.07205e-20)
(-0.0186141 0.0277451 -1.72354e-19)
(-0.025441 0.0308706 6.51515e-20)
(-0.0322147 0.0328381 -1.02805e-19)
(-0.0387582 0.033982 3.53858e-20)
(-0.0449612 0.0345748 -2.17924e-19)
(-0.0507682 0.0348403 1.15008e-19)
(-0.0561634 0.0349639 -1.37222e-19)
(-0.0611605 0.0351004 -1.22133e-19)
(-0.0657959 0.0353788 -1.369e-19)
(-0.0701231 0.0359058 1.24376e-19)
(-0.0742075 0.0367673 -1.11811e-19)
(-0.0781259 0.0380281 1.5577e-19)
(-0.0819818 0.039729 4.51595e-20)
(-0.0858868 0.0418869 1.11938e-19)
(-0.0897545 0.0445277 4.92682e-20)
(-0.093243 0.0476992 -1.95018e-19)
(-0.0977182 0.0511548 3.20738e-19)
(-0.00224446 0.00780682 1.03016e-19)
(-0.00713569 0.0192193 7.88047e-21)
(-0.0133131 0.0272803 4.24324e-20)
(-0.0199136 0.0328454 1.48048e-19)
(-0.0265157 0.0365315 -2.26549e-20)
(-0.0329022 0.03882 2.40516e-19)
(-0.0389214 0.0401044 1.06816e-19)
(-0.0444797 0.0407068 8.97284e-21)
(-0.0495318 0.040893 2.74889e-19)
(-0.0540669 0.0408847 9.01763e-20)
(-0.0581011 0.0408691 4.27964e-20)
(-0.0616715 0.0410052 1.35857e-19)
(-0.0648329 0.0414278 1.24665e-19)
(-0.0676534 0.0422498 2.27904e-19)
(-0.070215 0.0435616 -2.03729e-19)
(-0.0726304 0.0454258 2.88742e-19)
(-0.0750293 0.0478771 4.12994e-21)
(-0.0773464 0.0509612 -3.69861e-19)
(-0.0792266 0.0547567 4.80227e-19)
(-0.082045 0.0589684 2.01505e-19)
(-0.00280091 0.0088609 -6.07031e-20)
(-0.00839514 0.0218621 -1.10259e-19)
(-0.0148616 0.0310633 -2.29356e-19)
(-0.0214562 0.0374054 -6.79952e-21)
(-0.0278238 0.0415781 3.91725e-20)
(-0.033788 0.0441236 -2.9295e-19)
(-0.039227 0.0454869 -2.17408e-19)
(-0.0440672 0.0460335 -3.10817e-20)
(-0.0482755 0.0460661 -2.75218e-19)
(-0.0518476 0.045839 -1.90695e-19)
(-0.054802 0.0455694 -5.55941e-20)
(-0.0571764 0.0454456 -1.79138e-19)
(-0.0590255 0.045632 -2.85e-21)
(-0.0604192 0.046272 -2.38279e-19)
(-0.0614444 0.0474874 1.00489e-19)
(-0.0622241 0.0493715 -1.14602e-19)
(-0.0629087 0.0519868 8.81487e-20)
(-0.0634616 0.0554106 -1.11826e-19)
(-0.063521 0.0597675 -3.20587e-19)
(-0.0644744 0.0647242 -9.77758e-20)
(-0.00341431 0.0097773 -2.24041e-20)
(-0.00979892 0.024171 -2.43081e-20)
(-0.0166113 0.0343716 1.92334e-19)
(-0.0232266 0.0413852 -3.13033e-19)
(-0.0293594 0.0459611 4.59219e-20)
(-0.034879 0.0486928 -1.80856e-19)
(-0.0396974 0.0500686 8.5472e-20)
(-0.0437649 0.0504904 3.84352e-19)
(-0.047063 0.0502915 -2.45902e-20)
(-0.0495954 0.0497537 -2.86958e-19)
(-0.0513834 0.0491204 5.2163e-20)
(-0.0524643 0.0486069 1.00611e-20)
(-0.0528918 0.0484067 -5.91443e-20)
(-0.0527357 0.0486967 5.79904e-21)
(-0.0520863 0.0496361 5.19628e-19)
(-0.0510763 0.051359 -7.39215e-20)
(-0.049879 0.0539689 -1.44636e-19)
(-0.0484938 0.0575911 -2.60025e-19)
(-0.0465648 0.0624178 2.65172e-19)
(-0.0454984 0.0680967 1.15061e-19)
(-0.00407498 0.0105593 1.12906e-19)
(-0.0113254 0.0261445 -1.47766e-19)
(-0.0185371 0.0371946 2.08866e-19)
(-0.0252006 0.0447651 2.10214e-19)
(-0.0311025 0.0496543 1.9376e-19)
(-0.0361615 0.0524977 3.92934e-19)
(-0.0403283 0.0538191 2.54158e-19)
(-0.0435806 0.0540489 -5.46246e-19)
(-0.0459176 0.0535441 2.79442e-19)
(-0.0473531 0.0526073 2.19385e-19)
(-0.0479119 0.0515022 -3.05402e-21)
(-0.0476306 0.0504661 2.45829e-19)
(-0.0465599 0.0497198 1.91901e-19)
(-0.044767 0.0494735 -1.04326e-19)
(-0.0423431 0.049929 3.5323e-19)
(-0.0394287 0.0512712 -4.37999e-19)
(-0.0362205 0.0536607 1.75569e-19)
(-0.0327605 0.0572924 2.26166e-19)
(-0.0287152 0.0624568 -5.30394e-20)
(-0.0255273 0.068813 4.56725e-19)
(-0.00477485 0.0112151 2.27122e-19)
(-0.0129534 0.0277917 1.17479e-20)
(-0.0206093 0.039536 -8.14668e-20)
(-0.0273425 0.0475428 -8.60061e-20)
(-0.0330129 0.0526515 -3.98274e-19)
(-0.0375929 0.0555326 5.63807e-20)
(-0.0410759 0.0567371 1.59825e-19)
(-0.0434714 0.0567165 -7.6843e-20)
(-0.0448 0.0558438 6.33969e-20)
(-0.0450881 0.0544343 -1.68208e-20)
(-0.0443657 0.0527639 -8.2902e-20)
(-0.042669 0.051085 7.8629e-20)
(-0.040044 0.0496392 -3.42723e-19)
(-0.0365525 0.0486671 3.28417e-19)
(-0.0322829 0.0484143 -2.84906e-19)
(-0.0273798 0.0491245 8.80062e-20)
(-0.022062 0.0510325 2.00606e-19)
(-0.0164191 0.0544303 -4.17842e-20)
(-0.0101604 0.0597467 -1.39117e-19)
(-0.00479496 0.0667003 -9.4633e-20)
(-0.0055075 0.0117556 -2.82932e-19)
(-0.0146612 0.0291288 -1.85111e-20)
(-0.0227918 0.0414096 5.95526e-20)
(-0.0296017 0.049729 1.52983e-19)
(-0.0350254 0.054963 -2.16001e-19)
(-0.0390931 0.0578112 -1.88461e-19)
(-0.0418452 0.058846 4.39919e-19)
(-0.0433272 0.0585327 -2.43059e-19)
(-0.0435856 0.0572522 -1.56812e-19)
(-0.0426627 0.055324 -2.25062e-19)
(-0.0405966 0.0530269 1.49029e-19)
(-0.0374241 0.050618 -4.01935e-21)
(-0.0331867 0.0483496 -2.78416e-19)
(-0.0279384 0.0464842 -4.55899e-19)
(-0.0217606 0.0453065 3.47334e-19)
(-0.0147976 0.0451218 -2.81785e-19)
(-0.00728597 0.0462531 3.99766e-19)
(0.00063425 0.0491195 -1.1205e-19)
(0.00919003 0.0543404 2.36943e-19)
(0.0167579 0.0617626 -7.99055e-19)
(-0.00626769 0.0121924 -5.73055e-19)
(-0.0164263 0.0301744 3.75536e-19)
(-0.0250402 0.0428342 5.10721e-20)
(-0.0319096 0.0513418 9.86725e-21)
(-0.0370449 0.0566088 -2.31282e-19)
(-0.0405376 0.0593609 3.40082e-19)
(-0.0424793 0.0601871 3.71646e-20)
(-0.0429562 0.0595609 -6.9764e-20)
(-0.0420444 0.0578645 -2.23736e-19)
(-0.039807 0.0554131 2.41925e-19)
(-0.0362939 0.0524785 6.13449e-19)
(-0.0315459 0.0493104 -1.3558e-19)
(-0.0256018 0.0461579 3.06238e-19)
(-0.0185077 0.043291 -3.62033e-19)
(-0.0103353 0.0410202 -3.47244e-19)
(-0.00122369 0.0397052 2.08973e-19)
(0.00857744 0.0397624 3.4595e-19)
(0.0188791 0.0417649 -1.12055e-18)
(0.0298272 0.0465842 1.31402e-19)
(0.039617 0.0542889 1.77749e-19)
(-0.00705062 0.0125361 4.24347e-19)
(-0.0182233 0.0309462 1.39413e-19)
(-0.0273002 0.0438287 7.26089e-19)
(-0.0341772 0.052401 3.73007e-20)
(-0.0389427 0.0576123 -8.07153e-20)
(-0.0417525 0.060214 -3.842e-19)
(-0.0427531 0.0608094 3.26759e-19)
(-0.0420746 0.0598766 5.85956e-19)
(-0.0398275 0.0577945 3.90491e-19)
(-0.0360999 0.0548678 2.81691e-19)
(-0.0309588 0.0513526 2.42761e-19)
(-0.0244545 0.0474795 -4.36505e-19)
(-0.0166279 0.0434788 -1.36958e-19)
(-0.00752133 0.039608 -1.00584e-19)
(0.00280217 0.0361809 1.07968e-18)
(0.0142107 0.0335908 -3.67904e-21)
(0.026446 0.0323355 -2.69338e-19)
(0.0392745 0.0331546 -8.51862e-20)
(0.0527543 0.0372345 7.73205e-19)
(0.0648196 0.0449842 9.82959e-20)
(-0.00785108 0.0127945 -2.10229e-20)
(-0.0200221 0.0314571 -4.01037e-19)
(-0.0295052 0.0444079 -5.96243e-19)
(-0.0362932 0.0529227 -1.65769e-19)
(-0.0405545 0.0579938 9.15039e-20)
(-0.0425123 0.0603999 1.97358e-20)
(-0.0423702 0.0607588 5.22476e-19)
(-0.0403048 0.0595528 -6.48036e-19)
(-0.0364635 0.0571556 -2.46464e-19)
(-0.0309641 0.0538589 -4.96644e-19)
(-0.0238963 0.0498982 -4.23077e-19)
(-0.0153274 0.0454767 -3.74413e-19)
(-0.00530977 0.040792 9.35798e-20)
(0.00610893 0.0360681 -1.21427e-19)
(0.0188661 0.0315928 5.20821e-19)
(0.0328326 0.0277568 -2.85762e-19)
(0.0477414 0.025103 -8.9567e-19)
(0.0633199 0.0245206 -1.80854e-19)
(0.0795513 0.0275575 4.42066e-19)
(0.0940324 0.0350954 -3.83619e-19)
(-0.00866247 0.0129721 -6.77023e-20)
(-0.0217867 0.0317139 4.90104e-19)
(-0.031575 0.0445793 -6.24833e-19)
(-0.0381221 0.0529158 1.44488e-19)
(-0.04168 0.0577658 -2.9723e-19)
(-0.042541 0.0599389 6.61841e-19)
(-0.0409662 0.06007 -4.72954e-19)
(-0.0371793 0.0586472 5.41061e-19)
(-0.0313664 0.0560413 -5.12761e-19)
(-0.0236774 0.0525332 2.18841e-19)
(-0.0142308 0.0483386 -1.06208e-19)
(-0.00311991 0.0436317 -2.66421e-19)
(0.0095789 0.0385711 -3.29118e-19)
(0.0237964 0.0333312 3.28157e-19)
(0.0394528 0.0281454 -2.74761e-19)
(0.0564064 0.023356 -6.0083e-19)
(0.0743707 0.0194893 6.25743e-19)
(0.0930346 0.0175207 -7.97764e-19)
(0.112346 0.0193633 3.59653e-19)
(0.129531 0.0264894 1.25425e-20)
(-0.00947593 0.0130696 -6.12847e-19)
(-0.0234729 0.0317158 -6.61299e-19)
(-0.0334137 0.0443421 7.62511e-20)
(-0.039504 0.0523809 -6.37073e-19)
(-0.0420836 0.0569317 -5.64919e-20)
(-0.0415143 0.0588404 -4.68429e-19)
(-0.0381143 0.0587621 -1.07399e-19)
(-0.0321529 0.0571954 -3.13762e-19)
(-0.0238541 0.0545131 3.00967e-21)
(-0.0134015 0.0509917 -1.37148e-19)
(-0.000946925 0.046835 9.81713e-21)
(0.0133808 0.0421956 -3.95394e-19)
(0.0294657 0.0371976 4.3598e-19)
(0.047195 0.0319642 -6.18116e-19)
(0.0664442 0.0266579 2.19109e-19)
(0.0870293 0.0215327 8.2778e-21)
(0.108617 0.0170221 -3.48322e-19)
(0.130841 0.0140747 8.64477e-19)
(0.153678 0.0148917 -2.0575e-19)
(0.174058 0.0215929 -1.34047e-19)
(-0.0102795 0.013084 6.87556e-19)
(-0.0250266 0.0314554 3.71113e-19)
(-0.0349078 0.0436883 3.45063e-19)
(-0.040253 0.0513115 5.15122e-20)
(-0.041494 0.0554885 4.66336e-19)
(-0.0390632 0.0571058 6.71911e-19)
(-0.0333332 0.0568434 5.49772e-19)
(-0.0246166 0.0552147 4.93012e-20)
(-0.0131728 0.0526017 4.025e-19)
(0.000780284 0.0492857 6.21722e-19)
(0.017054 0.045471 -1.611e-19)
(0.0354747 0.0413044 2.70606e-19)
(0.0558707 0.036893 2.1849e-19)
(0.0780602 0.0323247 2.22425e-19)
(0.101839 0.0276993 1.31397e-18)
(0.126939 0.0231691 -4.92503e-19)
(0.152935 0.0190135 -2.98203e-20)
(0.179357 0.0160074 5.7011e-19)
(0.206261 0.0164626 -3.2306e-19)
(0.230566 0.0231079 1.59891e-19)
(-0.0110575 0.0130098 -5.55641e-19)
(-0.026382 0.03092 3.54206e-20)
(-0.0359242 0.0426053 -4.44239e-19)
(-0.040155 0.0496988 -5.77601e-20)
(-0.0396045 0.0534329 3.25005e-19)
(-0.0347755 0.0547387 -9.6755e-19)
(-0.0260935 0.0543239 -7.35581e-22)
(-0.0139109 0.0527209 4.50146e-19)
(0.00147873 0.0503272 4.22643e-19)
(0.0198232 0.0474382 -1.8622e-19)
(0.0408925 0.0442726 6.13323e-20)
(0.0644591 0.0409903 1.4223e-19)
(0.0902794 0.0377079 -6.7453e-20)
(0.118077 0.0345121 -7.55143e-19)
(0.147527 0.0314784 1.91174e-19)
(0.178226 0.0286913 5.25615e-19)
(0.209591 0.0262739 -7.48764e-19)
(0.240957 0.0247154 3.64812e-19)
(0.272458 0.0262185 9.76344e-20)
(0.301548 0.0340091 4.93168e-19)
(-0.0117895 0.0128393 -8.18081e-20)
(-0.0274591 0.0300938 -3.88934e-19)
(-0.036307 0.0410799 1.78996e-19)
(-0.0389653 0.0475379 8.6881e-22)
(-0.0360703 0.0507717 -7.79399e-19)
(-0.0281965 0.0517586 1.21695e-19)
(-0.0158213 0.0512351 -2.30692e-20)
(0.000663455 0.0497547 1.57197e-19)
(0.0209293 0.0477335 -7.19464e-19)
(0.0446861 0.0454871 -5.03912e-20)
(0.0716564 0.0432577 -1.68925e-19)
(0.10155 0.0412349 1.50287e-19)
(0.134037 0.0395708 5.07199e-19)
(0.16873 0.0383933 -7.84447e-20)
(0.205151 0.0378202 3.04309e-20)
(0.242703 0.0379644 1.99219e-19)
(0.280542 0.0389138 -4.94238e-20)
(0.317633 0.040978 4.00838e-19)
(0.353923 0.0462913 -2.33796e-19)
(0.387947 0.0584114 -3.64233e-19)
(-0.0124493 0.0125633 7.60257e-20)
(-0.0281619 0.0289607 1.8658e-20)
(-0.0358744 0.0391027 1.55885e-19)
(-0.0364053 0.0448351 3.81687e-19)
(-0.0305065 0.0475321 2.14138e-19)
(-0.0188282 0.0482162 2.23019e-20)
(-0.00190265 0.0476517 -2.55451e-19)
(0.019834 0.0464111 6.55176e-20)
(0.0460108 0.0449276 3.44304e-19)
(0.0762889 0.0435348 -5.8336e-19)
(0.110331 0.0424973 4.40111e-19)
(0.147774 0.0420344 -3.31576e-19)
(0.188203 0.0423406 2.81252e-19)
(0.23113 0.0436062 -6.0649e-19)
(0.275969 0.0460414 6.66924e-19)
(0.321989 0.0498943 -7.13105e-19)
(0.368172 0.0554453 -1.85136e-19)
(0.413107 0.0632922 5.79639e-19)
(0.455792 0.0761012 -1.96526e-19)
(0.493449 0.0972122 8.72771e-20)
(-0.013004 0.012172 -5.74532e-20)
(-0.028375 0.0275063 5.42327e-19)
(-0.0344159 0.0366731 -2.28437e-21)
(-0.0321596 0.041615 -3.36649e-19)
(-0.0224869 0.0437717 -2.26278e-19)
(-0.00613196 0.0442078 4.14618e-19)
(0.0163076 0.0437107 -1.64213e-19)
(0.0443368 0.042866 -2.06812e-20)
(0.0775205 0.0421154 3.42091e-19)
(0.115444 0.0417982 -4.24999e-19)
(0.157681 0.042183 4.65433e-20)
(0.203766 0.0434926 -5.52256e-19)
(0.253183 0.0459269 2.90637e-19)
(0.305363 0.0496885 -8.31226e-19)
(0.35969 0.0550166 1.32292e-18)
(0.415527 0.0622316 -2.427e-19)
(0.472238 0.0718296 2.51045e-19)
(0.52943 0.084989 -6.5235e-19)
(0.587424 0.104832 6.31688e-21)
(0.637807 0.129153 7.23494e-19)
(-0.0134127 0.0116553 -1.7392e-19)
(-0.0279622 0.0257202 1.50198e-19)
(-0.0316899 0.033803 -5.53575e-19)
(-0.0258758 0.0379264 8.18806e-19)
(-0.0115469 0.0395868 -5.91139e-19)
(0.0104628 0.0398851 3.05227e-20)
(0.0394688 0.0396238 -6.37428e-19)
(0.0748858 0.0393919 4.5574e-19)
(0.116173 0.0396249 -6.51367e-20)
(0.162788 0.040647 -4.02136e-19)
(0.21415 0.0427001 -2.34553e-19)
(0.269626 0.0459662 2.4791e-19)
(0.328524 0.0505852 1.63744e-19)
(0.390111 0.0566719 -7.23951e-19)
(0.453647 0.064332 2.61596e-19)
(0.518432 0.0736745 -3.84568e-19)
(0.583875 0.0848273 4.65389e-20)
(0.649678 0.098096 -3.23867e-19)
(0.716409 0.114592 1.28477e-19)
(0.777346 0.131876 -4.78765e-19)
(-0.0136248 0.0110039 4.95192e-19)
(-0.0267644 0.0235992 -3.00047e-19)
(-0.0274239 0.0305212 2.47216e-19)
(-0.0171674 0.0338472 -3.12087e-19)
(0.00280802 0.0351171 5.23009e-19)
(0.0315415 0.0354588 -9.12458e-21)
(0.068224 0.0356791 -6.36855e-20)
(0.112128 0.0363554 -4.72373e-20)
(0.16254 0.0378978 2.90633e-19)
(0.218709 0.0405889 4.94097e-19)
(0.279813 0.0446108 -2.91867e-19)
(0.344954 0.0500641 2.83611e-19)
(0.413169 0.0569834 5.17452e-19)
(0.483465 0.0653488 -3.62876e-19)
(0.55486 0.0750943 -7.34371e-19)
(0.626445 0.08611 1.3407e-18)
(0.697433 0.0982301 -2.39641e-19)
(0.767241 0.111258 -7.71681e-20)
(0.835832 0.125404 8.21542e-19)
(0.898917 0.140799 -1.76693e-19)
(-0.0135797 0.0102099 -8.05773e-19)
(-0.0246 0.0211494 -5.36376e-19)
(-0.0213175 0.0268767 -2.05897e-19)
(-0.0056221 0.0294879 3.97328e-19)
(0.0210853 0.0305477 -8.97205e-19)
(0.0576749 0.0311973 4.64755e-19)
(0.103154 0.0322314 5.89094e-20)
(0.156576 0.0341951 5.95627e-20)
(0.216961 0.037446 -6.08918e-19)
(0.283247 0.0421924 -2.15027e-19)
(0.354268 0.0485192 -3.78839e-19)
(0.428765 0.0564077 3.65686e-19)
(0.505428 0.0657531 1.03376e-19)
(0.582946 0.0763793 1.98186e-20)
(0.660068 0.0880519 4.73226e-19)
(0.735667 0.100485 -4.80245e-19)
(0.808783 0.113339 -1.95941e-20)
(0.878668 0.126237 1.34847e-20)
(0.944885 0.138931 6.68041e-20)
(1.00546 0.153508 3.619e-19)
(-0.0132068 0.00926889 2.56487e-19)
(-0.0212664 0.0183909 6.6052e-19)
(-0.0130484 0.0229437 5.30038e-19)
(0.00918463 0.0249954 -1.82773e-19)
(0.0437808 0.0261094 6.35956e-19)
(0.0893782 0.0274205 -5.35742e-20)
(0.144716 0.0296869 -7.5505e-20)
(0.208523 0.0333904 4.49421e-20)
(0.279438 0.0387994 6.15129e-19)
(0.355973 0.0460058 3.61405e-19)
(0.436516 0.0549549 1.05558e-19)
(0.519382 0.0654716 6.64719e-21)
(0.602883 0.0772866 -6.98055e-19)
(0.685408 0.0900623 6.06532e-19)
(0.765504 0.103417 1.03302e-19)
(0.841934 0.116942 -1.70951e-19)
(0.913719 0.130219 -7.34469e-19)
(0.980163 0.142851 -6.04245e-20)
(1.04078 0.154361 2.87281e-19)
(1.09547 0.167971 -5.7222e-20)
(-0.0124256 0.00818173 -6.50326e-19)
(-0.0165442 0.0153608 2.72099e-19)
(-0.002282 0.0188257 -1.32892e-18)
(0.0276708 0.0205556 5.44536e-19)
(0.0713463 0.0220786 -4.3436e-19)
(0.127062 0.024493 3.203e-19)
(0.193174 0.0284847 -4.9781e-19)
(0.267957 0.0344286 4.56963e-20)
(0.349541 0.0424538 -2.56706e-20)
(0.435898 0.0524858 1.33888e-19)
(0.524906 0.0642852 1.93125e-19)
(0.614439 0.0774884 -3.64916e-19)
(0.702478 0.09165 1.93378e-19)
(0.787221 0.106284 1.77055e-19)
(0.867165 0.120898 7.60763e-19)
(0.941159 0.135028 -3.31379e-19)
(1.00842 0.14825 -2.17699e-19)
(1.06852 0.160233 3.64964e-19)
(1.12125 0.170486 1.91447e-19)
(1.16763 0.182596 -3.64864e-19)
(-0.0111474 0.0069565 5.69276e-19)
(-0.0102028 0.0121189 5.48856e-19)
(0.0113155 0.0146601 1.58523e-19)
(0.0502246 0.0163966 6.67634e-19)
(0.104153 0.0187743 3.28234e-19)
(0.170977 0.0228128 -5.91822e-19)
(0.248531 0.0290741 8.96673e-19)
(0.33449 0.0377672 -4.4131e-19)
(0.426344 0.0488209 4.40567e-19)
(0.521457 0.0619386 5.69781e-19)
(0.617186 0.0766563 -3.25569e-19)
(0.711032 0.0924053 6.19122e-20)
(0.800788 0.108575 3.43858e-19)
(0.884654 0.124566 2.41663e-19)
(0.9613 0.13984 5.54237e-19)
(1.02989 0.153941 -2.22973e-19)
(1.09004 0.166519 -2.84813e-20)
(1.14178 0.177355 3.44976e-19)
(1.18536 0.186098 -7.47675e-20)
(1.2224 0.196184 -4.08413e-23)
(-0.00927756 0.00561096 -2.93788e-19)
(-0.00200845 0.00875109 -1.07977e-18)
(0.0280611 0.0106225 2.54389e-19)
(0.0771773 0.0127891 -1.93708e-19)
(0.142449 0.0165535 -4.47495e-19)
(0.221167 0.0227968 -3.19831e-19)
(0.310476 0.031888 -1.97611e-19)
(0.407307 0.0437965 4.79795e-19)
(0.508424 0.0581825 -2.84944e-19)
(0.610568 0.0744768 -2.9196e-19)
(0.710659 0.0919685 -3.6858e-19)
(0.805996 0.109894 -6.08234e-20)
(0.894409 0.127519 -4.17523e-20)
(0.974352 0.144197 -8.47913e-19)
(1.04492 0.159416 4.09005e-19)
(1.10578 0.17281 -5.38229e-19)
(1.15712 0.184163 1.67015e-19)
(1.19951 0.193406 -1.27249e-18)
(1.2337 0.200405 3.84039e-19)
(1.26155 0.208161 4.80613e-19)
(-0.00671788 0.00417445 -7.38334e-20)
(0.00826618 0.00537363 5.26267e-19)
(0.0482364 0.00692883 3.37759e-20)
(0.108774 0.0100446 8.1262e-20)
(0.186325 0.0158006 -1.65256e-19)
(0.277418 0.0248603 -2.79264e-21)
(0.378343 0.0373119 -4.28767e-21)
(0.485172 0.0528012 -9.98571e-20)
(0.593917 0.0706554 3.54282e-19)
(0.700784 0.0900015 1.36803e-19)
(0.802446 0.10989 6.20529e-19)
(0.896256 0.12941 -1.69011e-19)
(0.98037 0.147776 1.17658e-19)
(1.05376 0.164383 -1.48909e-20)
(1.11614 0.178828 3.24887e-19)
(1.16785 0.190903 1.97767e-19)
(1.20966 0.200571 4.73884e-19)
(1.24266 0.207925 -7.6384e-19)
(1.26805 0.213058 9.5777e-19)
(1.28774 0.218444 -3.02926e-19)
(-0.00337039 0.00268951 -6.85238e-19)
(0.0208305 0.00213491 -2.14202e-19)
(0.0720672 0.00383467 1.67212e-19)
(0.145143 0.00850863 1.05483e-19)
(0.23567 0.0169128 1.08401e-19)
(0.339229 0.0293914 1.09764e-19)
(0.451109 0.0456506 -2.75013e-19)
(0.566469 0.0649288 -1.13546e-19)
(0.680647 0.0861745 3.53301e-20)
(0.789515 0.108214 -3.36473e-19)
(0.889785 0.12991 -1.51861e-19)
(0.979183 0.150286 9.1707e-19)
(1.05647 0.168607 -2.3676e-19)
(1.12136 0.184401 -3.24801e-19)
(1.17432 0.197451 -1.53028e-19)
(1.21635 0.20775 1.06573e-19)
(1.2488 0.215452 1.28516e-19)
(1.27314 0.220809 -6.15379e-19)
(1.29087 0.224096 8.87632e-19)
(1.30382 0.227293 -7.68195e-19)
(0.000858687 0.00121287 -7.72721e-20)
(0.0358631 -0.000784263 2.20917e-20)
(0.0997018 0.00163141 -2.84253e-20)
(0.186268 0.00854958 4.14214e-19)
(0.290152 0.0202784 2.30053e-20)
(0.405806 0.0367225 1.52263e-19)
(0.527427 0.0570988 -3.16629e-19)
(0.64931 0.080171 -1.1507e-20)
(0.766313 0.104499 4.39603e-19)
(0.874285 0.128657 6.1111e-20)
(0.970327 0.151414 -3.82217e-19)
(1.05285 0.171841 -3.36115e-20)
(1.12147 0.189357 -3.124e-19)
(1.17674 0.203706 3.11563e-19)
(1.21988 0.214903 4.3055e-19)
(1.25252 0.223159 -4.73751e-20)
(1.27641 0.228805 -5.72705e-20)
(1.29328 0.232219 1.74627e-19)
(1.30472 0.233798 -5.58822e-19)
(1.31245 0.235109 4.92974e-19)
(0.00605435 -0.000184235 7.7938e-20)
(0.0534991 -0.00317272 -5.0184e-19)
(0.13119 0.00063842 1.34226e-19)
(0.231966 0.0105425 -4.17257e-19)
(0.3492 0.026253 1.43571e-19)
(0.476078 0.047102 -5.33211e-19)
(0.605702 0.0717201 2.15149e-19)
(0.731675 0.0983638 -6.85877e-20)
(0.848696 0.125244 -2.82886e-21)
(0.952969 0.150784 6.9928e-20)
(1.04234 0.17378 -2.54372e-19)
(1.11617 0.193474 -3.62524e-19)
(1.17504 0.209533 -7.39899e-20)
(1.22036 0.221971 -3.3209e-20)
(1.25404 0.231048 -8.4132e-20)
(1.27813 0.237176 -2.73005e-20)
(1.29464 0.240826 -8.16848e-20)
(1.30537 0.24246 -7.06775e-20)
(1.31191 0.24254 -2.09176e-19)
(1.31578 0.242308 3.31084e-19)
(0.0122878 -0.00141658 1.86775e-19)
(0.0738155 -0.0047935 -2.0752e-19)
(0.166467 0.00119155 4.46879e-19)
(0.28187 0.0148494 -1.93131e-19)
(0.412013 0.0351338 5.16268e-19)
(0.548746 0.0606719 7.57502e-21)
(0.684198 0.0894408 2.59372e-19)
(0.811585 0.119208 -6.96941e-20)
(0.925854 0.147934 2.89625e-19)
(1.02396 0.174026 2.06962e-20)
(1.10481 0.19645 6.8759e-19)
(1.16884 0.214728 -4.74128e-19)
(1.21763 0.228837 6.40798e-20)
(1.25336 0.239077 1.2187e-19)
(1.27841 0.24594 6.34147e-19)
(1.29511 0.249995 -2.277e-19)
(1.30555 0.251808 -4.49748e-20)
(1.31147 0.251877 -2.37066e-19)
(1.31432 0.250689 -2.45875e-20)
(1.31544 0.249235 1.18332e-19)
(0.0196112 -0.00238628 -8.93472e-20)
(0.0968199 -0.00539079 2.58567e-19)
(0.205334 0.00362854 -2.65368e-19)
(0.335431 0.0217975 1.0456e-19)
(0.477586 0.0471369 -1.25567e-19)
(0.622358 0.0774557 4.60299e-19)
(0.761165 0.110059 -6.43403e-20)
(0.887253 0.142309 1.57624e-19)
(0.99626 0.172059 -9.3047e-20)
(1.08626 0.197862 -2.58547e-21)
(1.15739 0.218986 1.05657e-19)
(1.21123 0.23531 -8.18172e-20)
(1.25023 0.247146 2.11957e-19)
(1.27716 0.255067 -1.05744e-19)
(1.29471 0.259752 -4.63336e-19)
(1.3053 0.26188 4.60093e-19)
(1.31093 0.262062 -2.06652e-19)
(1.31321 0.260793 1.64928e-19)
(1.31339 0.258554 2.85008e-19)
(1.31259 0.256146 1.17005e-19)
(0.0280526 -0.00298507 2.22474e-19)
(0.12244 -0.00469912 -4.58607e-19)
(0.247461 0.00827227 8.76656e-20)
(0.391924 0.0316582 -6.37323e-20)
(0.544757 0.0623807 -2.57587e-19)
(0.695407 0.0973578 -2.02143e-19)
(0.83497 0.133271 -3.98296e-20)
(0.957208 0.167219 -3.60087e-19)
(1.05888 0.19713 -2.19896e-20)
(1.13943 0.221861 -6.68433e-20)
(1.20031 0.241084 -1.81153e-19)
(1.24414 0.255074 -4.03005e-20)
(1.2741 0.264473 -1.38316e-19)
(1.2933 0.270081 -2.30187e-19)
(1.30458 0.272713 2.35274e-19)
(1.31027 0.273104 3.20968e-20)
(1.31222 0.271867 6.39464e-20)
(1.31181 0.269466 -2.69802e-19)
(1.3101 0.266363 -6.92623e-21)
(1.30801 0.263205 -4.14804e-19)
(0.0376113 -0.00309751 2.43331e-19)
(0.150514 -0.00245437 1.62468e-19)
(0.292377 0.0154132 -2.62477e-19)
(0.450478 0.0446287 4.09849e-19)
(0.612274 0.0808776 -4.4332e-20)
(0.766421 0.120176 1.53208e-19)
(0.904194 0.158702 5.30642e-20)
(1.02037 0.193484 1.87773e-19)
(1.11317 0.222717 -1.47051e-19)
(1.18354 0.245697 4.89407e-20)
(1.23419 0.262565 -4.69219e-20)
(1.26865 0.273995 -2.04933e-20)
(1.29055 0.280918 3.91549e-20)
(1.30322 0.284307 -7.19796e-20)
(1.30941 0.285055 -2.2022e-20)
(1.3113 0.283907 -6.74543e-20)
(1.31049 0.281444 -1.09467e-19)
(1.30815 0.278083 7.07336e-20)
(1.30514 0.274264 -9.66323e-20)
(1.30219 0.2705 4.1788e-19)
(0.0482539 -0.00260498 -1.21306e-19)
(0.180795 0.00159401 -3.44211e-19)
(0.33949 0.0252925 -4.58534e-20)
(0.510112 0.0608189 -1.26394e-20)
(0.67886 0.102535 -1.54468e-19)
(0.834056 0.145622 -2.53725e-19)
(0.967706 0.185942 8.29904e-20)
(1.07604 0.220677 -1.14042e-19)
(1.15899 0.248468 -1.27619e-19)
(1.219 0.269149 7.10503e-20)
(1.25991 0.283353 -5.36425e-20)
(1.28589 0.292125 -1.08387e-19)
(1.30087 0.296623 -3.53213e-21)
(1.30815 0.297936 7.34076e-20)
(1.31033 0.296981 -7.46864e-20)
(1.30933 0.294477 1.03648e-19)
(1.30651 0.290951 2.79491e-20)
(1.30282 0.286765 7.01193e-20)
(1.29894 0.282337 1.36286e-19)
(1.29543 0.27806 -1.16714e-19)
(0.0599124 -0.00139038 1.15774e-19)
(0.212942 0.00767032 -1.00156e-20)
(0.388101 0.038087 5.21903e-20)
(0.569782 0.0802438 -7.06826e-20)
(0.743286 0.127166 5.93874e-21)
(0.897161 0.173348 2.45507e-19)
(1.02469 0.214578 -1.61171e-19)
(1.12392 0.248422 6.82899e-20)
(1.19656 0.274113 6.02152e-20)
(1.24648 0.292085 -1.68915e-19)
(1.27842 0.303445 1.58671e-19)
(1.29698 0.309554 1.43401e-21)
(1.30616 0.311738 -1.11617e-19)
(1.30912 0.311137 1.34492e-19)
(1.30821 0.308651 -5.33307e-20)
(1.30507 0.304947 4.07516e-20)
(1.30082 0.300486 -4.55912e-20)
(1.29621 0.295573 -1.82903e-20)
(1.29175 0.290611 -1.59089e-19)
(1.28788 0.285873 4.87812e-20)
(0.0724824 0.000656701 -3.88923e-20)
(0.246537 0.0159604 1.04695e-19)
(0.437433 0.0538983 1.63788e-20)
(0.62843 0.102823 6.85666e-20)
(0.804431 0.154501 3.27714e-20)
(0.954815 0.202968 1.53697e-20)
(1.07464 0.244213 8.69871e-20)
(1.16397 0.276396 -1.05292e-20)
(1.22631 0.299455 3.83419e-20)
(1.26674 0.314434 6.15547e-20)
(1.29067 0.322875 2.96868e-20)
(1.3029 0.326386 2.13085e-20)
(1.30735 0.326394 8.63753e-20)
(1.30693 0.324041 -8.36111e-20)
(1.30369 0.320177 1.79344e-20)
(1.299 0.315399 -1.67971e-20)
(1.29376 0.310096 2.5965e-20)
(1.28853 0.304524 2.17517e-20)
(1.28372 0.299074 4.5367e-20)
(1.27964 0.293899 1.86632e-21)
(0.085825 0.00363477 2.3067e-20)
(0.281092 0.0266007 2.10704e-20)
(0.486658 0.0727449 -2.92047e-20)
(0.685034 0.128387 1.82545e-20)
(0.861319 0.184209 1.0322e-20)
(1.00634 0.234083 -3.21262e-20)
(1.1173 0.27448 1.05944e-20)
(1.19642 0.304335 1.93089e-21)
(1.24882 0.324353 1.82642e-20)
(1.28059 0.336168 -4.90006e-20)
(1.29754 0.341694 -1.52588e-22)
(1.30451 0.342713 1.3575e-20)
(1.30518 0.340694 -1.08199e-20)
(1.30217 0.336737 1.09449e-20)
(1.29722 0.33162 2.85616e-20)
(1.29144 0.325863 -1.62552e-20)
(1.28553 0.319784 4.52558e-21)
(1.27993 0.313596 1.78043e-20)
(1.27492 0.307685 -2.93258e-20)
(1.27073 0.302077 1.40932e-20)
(0.0997694 0.00762533 6.40736e-20)
(0.316067 0.0396696 -3.49147e-20)
(0.534937 0.0945598 4.11615e-20)
(0.738647 0.156684 -3.06408e-20)
(0.913154 0.215915 -1.37517e-20)
(1.05129 0.266295 4.16908e-21)
(1.15267 0.305048 -1.34989e-20)
(1.22163 0.332021 4.85418e-20)
(1.26472 0.348706 -4.04366e-20)
(1.28877 0.357279 9.49662e-21)
(1.2998 0.359949 -7.07225e-21)
(1.30249 0.358606 -4.61148e-20)
(1.30023 0.354703 4.47457e-20)
(1.29528 0.349271 1.70497e-20)
(1.28911 0.343002 -1.69527e-20)
(1.2826 0.336334 3.98221e-20)
(1.27628 0.329522 -5.82676e-22)
(1.27048 0.322745 -3.86402e-20)
(1.26538 0.316383 2.86145e-20)
(1.26117 0.310335 9.04434e-21)
(0.114116 0.0126885 -2.24609e-20)
(0.350885 0.0551814 6.50881e-20)
(0.581446 0.119193 7.53023e-20)
(0.788427 0.187396 -3.55741e-20)
(0.959319 0.249214 6.18671e-20)
(1.08942 0.299219 9.79766e-20)
(1.18089 0.335621 -5.42165e-21)
(1.24006 0.359273 -1.68642e-20)
(1.27466 0.372435 8.31878e-20)
(1.292 0.377761 4.05913e-20)
(1.29811 0.377674 -7.38289e-21)
(1.2974 0.374104 6.05911e-20)
(1.29291 0.368449 -6.50382e-20)
(1.28657 0.36165 1.01326e-19)
(1.27957 0.354304 -1.69026e-20)
(1.2726 0.346775 4.85193e-20)
(1.26606 0.339257 8.7741e-21)
(1.26019 0.331904 3.47351e-20)
(1.25509 0.325095 -3.30465e-20)
(1.25093 0.318591 8.02052e-21)
(0.128643 0.0188586 -3.49595e-20)
(0.384956 0.0730823 8.25825e-20)
(0.625406 0.146415 6.14412e-20)
(0.833659 0.220149 -9.33267e-21)
(0.999377 0.283687 9.59716e-20)
(1.12066 0.332483 -7.19084e-20)
(1.20225 0.365931 -5.66805e-21)
(1.25222 0.385932 6.34008e-20)
(1.27924 0.395474 2.01176e-20)
(1.29088 0.397601 2.82449e-20)
(1.29299 0.394876 -4.17456e-20)
(1.28966 0.389214 1.09034e-19)
(1.28354 0.381925 2.04118e-20)
(1.27626 0.373846 -9.66915e-20)
(1.26874 0.365482 1.41564e-19)
(1.26153 0.357124 -1.67112e-19)
(1.25492 0.348916 -7.68506e-20)
(1.24908 0.340995 1.2743e-20)
(1.24406 0.333734 7.46229e-20)
(1.24001 0.32676 -1.41079e-19)
(0.143111 0.0261419 -7.82909e-20)
(0.417692 0.093251 -1.84919e-19)
(0.666111 0.175927 -1.60164e-19)
(0.873766 0.254528 -2.18062e-19)
(1.03305 0.318908 -1.23923e-19)
(1.14509 0.365736 -2.57031e-19)
(1.21707 0.395734 3.26711e-20)
(1.25862 0.411858 -1.36809e-19)
(1.27903 0.417753 -1.50685e-20)
(1.28593 0.41677 2.25415e-20)
(1.28489 0.411538 -4.96609e-20)