/*--------------------------------*- C++ -*----------------------------------*\
  =========                 |
  \\      /  F ield         | OpenFOAM: The Open Source CFD Toolbox
   \\    /   O peration     | Website:  https://openfoam.org
    \\  /    A nd           | Version:  6.0
     \\/     M anipulation  |
\*---------------------------------------------------------------------------*/
FoamFile
{
    version     2.0;
    format      ascii;
    class       volVectorField;
    location    "24.2";
    object      U;
}
// * * * * * * * * * * * * * * * * * * * * * * * * * * * * * * * * * * * * * //

dimensions      [0 1 -1 0 0 0 0];

internalField   nonuniform List<vector> 
8000
(
(-0.000479234 0.000530148 -3.45804e-21)
(-0.00261989 0.00130466 1.84841e-20)
(-0.00657456 0.00183426 -2.24814e-20)
(-0.0114282 0.00217622 1.71191e-20)
(-0.0167037 0.00237449 8.33641e-21)
(-0.0221313 0.00246453 -2.50337e-20)
(-0.0275182 0.00247615 -2.21263e-21)
(-0.0327394 0.0024341 -7.85189e-22)
(-0.0377256 0.00235883 -1.29946e-20)
(-0.0424477 0.00226721 -7.04009e-21)
(-0.0469061 0.00217314 5.25021e-21)
(-0.0511226 0.00208793 1.99597e-20)
(-0.0551332 0.00202069 -1.49471e-21)
(-0.0589834 0.00197847 2.13854e-21)
(-0.0627244 0.00196645 -2.01039e-20)
(-0.0664152 0.00198797 1.23872e-20)
(-0.070115 0.00204463 -1.77476e-20)
(-0.0738217 0.00213758 2.68568e-20)
(-0.0774576 0.00226833 -3.00659e-23)
(-0.0814598 0.0024282 5.79937e-21)
(-0.000564051 0.00162485 1.14839e-20)
(-0.00282732 0.00402881 -5.8688e-20)
(-0.0068614 0.00570509 -4.05346e-20)
(-0.0117596 0.00682056 -2.7527e-20)
(-0.0170509 0.00750351 -3.54124e-20)
(-0.0224698 0.00785827 7.79261e-21)
(-0.0278271 0.00797324 -4.08792e-20)
(-0.0330005 0.00792251 -9.18173e-21)
(-0.0379227 0.00776777 2.90117e-21)
(-0.0425662 0.00756031 3.05533e-20)
(-0.0469325 0.00734263 -3.33292e-20)
(-0.0510443 0.0071496 4.63619e-20)
(-0.0549387 0.0070093 -3.47182e-20)
(-0.0586622 0.00694366 -4.11707e-20)
(-0.0622672 0.00696881 -5.6735e-20)
(-0.0658143 0.00709512 3.62336e-20)
(-0.0693645 0.00732764 -1.17183e-20)
(-0.0729173 0.0076699 -4.26657e-20)
(-0.0763943 0.00812628 4.03417e-20)
(-0.0802356 0.00867014 -2.99615e-20)
(-0.000733337 0.00270629 1.12263e-19)
(-0.00324091 0.00671896 5.81373e-20)
(-0.00743203 0.00952529 6.53822e-20)
(-0.0124174 0.0114001 5.44046e-21)
(-0.0177379 0.0125552 3.61368e-20)
(-0.0231371 0.0131626 4.51014e-20)
(-0.028433 0.0133688 -8.19635e-20)
(-0.033509 0.0132965 -4.34039e-20)
(-0.0383018 0.013048 -5.65283e-20)
(-0.0427868 0.0127088 6.03426e-20)
(-0.0469677 0.01235 -4.60897e-20)
(-0.0508692 0.0120303 -5.93004e-20)
(-0.0545303 0.0117972 -2.15935e-20)
(-0.0579996 0.0116882 2.05129e-20)
(-0.0613318 0.0117313 -5.70205e-21)
(-0.0645905 0.0119449 8.22346e-21)
(-0.0678406 0.0123383 9.51736e-20)
(-0.0710847 0.0129183 -1.33715e-20)
(-0.0742436 0.0136931 -9.67472e-20)
(-0.0777632 0.0146179 1.27521e-19)
(-0.000985687 0.00376561 3.90583e-20)
(-0.00385737 0.00935218 -5.51728e-20)
(-0.00828212 0.0132606 -1.38396e-20)
(-0.0133965 0.0158714 2.58744e-20)
(-0.0187595 0.0174777 7.34702e-20)
(-0.0241285 0.0183184 1.60856e-19)
(-0.0293325 0.0185963 1.57179e-19)
(-0.0342632 0.0184815 1.30585e-20)
(-0.0388632 0.0181163 9.63859e-20)
(-0.0431126 0.0176198 1.47531e-19)
(-0.0470185 0.0170913 -1.17883e-19)
(-0.0506079 0.0166136 1.74463e-19)
(-0.0539225 0.0162547 -3.95049e-20)
(-0.0570139 0.0160688 9.96577e-21)
(-0.0599404 0.0160973 4.12544e-20)
(-0.06277 0.0163681 5.48215e-20)
(-0.0655733 0.0168968 -8.62782e-20)
(-0.0683581 0.0176946 -7.20042e-20)
(-0.0710446 0.0187754 -1.27416e-19)
(-0.0740882 0.0200761 1.85468e-19)
(-0.00131905 0.00479484 -2.04067e-20)
(-0.00467163 0.0119072 -2.08888e-19)
(-0.00940468 0.0168791 -6.17866e-20)
(-0.0146887 0.0201934 -1.50567e-19)
(-0.0201069 0.0222229 5.69141e-20)
(-0.0254353 0.0232709 -8.97623e-20)
(-0.0305175 0.0235947 3.08702e-20)
(-0.0352568 0.0234101 -1.90117e-19)
(-0.0396039 0.0228979 1.00297e-19)
(-0.0435445 0.0222095 -1.19606e-19)
(-0.0470899 0.0214727 -1.06368e-19)
(-0.0502705 0.0207944 -1.191e-19)
(-0.053131 0.0202637 1.08108e-19)
(-0.0557266 0.0199534 -9.70661e-20)
(-0.0581199 0.0199205 1.3516e-19)
(-0.0603848 0.0202052 3.90615e-20)
(-0.0625998 0.0208313 9.66872e-20)
(-0.0647803 0.0218176 4.24219e-20)
(-0.0668467 0.0231863 -1.68005e-19)
(-0.0692686 0.024856 2.73517e-19)
(-0.00173082 0.00578698 8.99542e-20)
(-0.00567679 0.0143646 6.92118e-21)
(-0.0107895 0.0203511 3.70579e-20)
(-0.0162811 0.0243287 1.29309e-19)
(-0.0217652 0.0267469 -1.9796e-20)
(-0.0270414 0.0279711 2.09985e-19)
(-0.0319723 0.0283104 9.32015e-20)
(-0.0364754 0.0280241 7.8354e-21)
(-0.0405117 0.0273291 2.39658e-19)
(-0.0440741 0.0264082 7.85285e-20)
(-0.0471788 0.025416 3.72538e-20)
(-0.0498596 0.0244839 1.18232e-19)
(-0.0521647 0.0237234 1.08374e-19)
(-0.0541528 0.0232275 1.97848e-19)
(-0.0558919 0.0230716 -1.76839e-19)
(-0.0574628 0.0233115 2.49968e-19)
(-0.058954 0.0239837 3.27581e-21)
(-0.0603909 0.0251181 -3.19471e-19)
(-0.061697 0.0267496 4.14132e-19)
(-0.0633619 0.0287797 1.71707e-19)
(-0.00221787 0.00673597 -5.30114e-20)
(-0.00686388 0.016707 -9.62273e-20)
(-0.0124223 0.0236499 -2.00253e-19)
(-0.0181547 0.0282433 -5.93608e-21)
(-0.0237114 0.0310107 3.41722e-20)
(-0.0289209 0.0323766 -2.55716e-19)
(-0.033669 0.0326988 -1.89714e-19)
(-0.0378906 0.0322769 -2.71381e-20)
(-0.0415595 0.0313612 -2.39972e-19)
(-0.0446768 0.0301634 -1.66151e-19)
(-0.0472644 0.0288635 -4.84226e-20)
(-0.0493598 0.027617 -1.5592e-19)
(-0.0510142 0.026558 -2.54175e-21)
(-0.0522899 0.025802 -2.07064e-19)
(-0.0532601 0.0254461 8.70995e-20)
(-0.0540136 0.0255666 -9.93728e-20)
(-0.054651 0.0262175 7.61222e-20)
(-0.0552107 0.027446 -9.68895e-20)
(-0.0556224 0.0293067 -2.7681e-19)
(-0.0564051 0.0316856 -8.41276e-20)
(-0.00277653 0.0076364 -1.95097e-20)
(-0.00822151 0.018918 -2.11888e-20)
(-0.014284 0.0267506 1.67897e-19)
(-0.0202829 0.0319063 -2.73223e-19)
(-0.0259118 0.0349801 4.00823e-20)
(-0.0310337 0.036452 -1.57832e-19)
(-0.0355623 0.036725 7.45854e-20)
(-0.0394533 0.0361351 3.35249e-19)
(-0.0426957 0.0349626 -2.15049e-20)
(-0.0453007 0.0334444 -2.50104e-19)
(-0.0472962 0.031784 4.54402e-20)
(-0.0487234 0.0301588 8.8115e-21)
(-0.049636 0.0287257 -5.13565e-20)
(-0.0500993 0.0276243 5.1896e-21)
(-0.0501911 0.026977 4.5116e-19)
(-0.0500088 0.026886 -6.42343e-20)
(-0.0496663 0.0274299 -1.25321e-19)
(-0.0492184 0.0286821 -2.24826e-19)
(-0.0486062 0.0307265 2.29343e-19)
(-0.0483898 0.0334387 9.89531e-20)
(-0.00340244 0.0084831 9.85169e-20)
(-0.0097353 0.0209822 -1.28893e-19)
(-0.0163493 0.0296296 1.82232e-19)
(-0.022629 0.0352892 1.83455e-19)
(-0.0283186 0.0386246 1.69117e-19)
(-0.0333213 0.040168 3.42943e-19)
(-0.0375835 0.0403634 2.21773e-19)
(-0.0410859 0.039579 -4.76564e-19)
(-0.0438351 0.0381203 2.4373e-19)
(-0.0458545 0.0362455 1.91262e-19)
(-0.0471787 0.0341772 -2.71931e-21)
(-0.047853 0.0321124 2.14112e-19)
(-0.0479326 0.0302292 1.66932e-19)
(-0.0474846 0.0286915 -9.07991e-20)
(-0.0465903 0.0276501 3.06845e-19)
(-0.0453549 0.027239 -3.80369e-19)
(-0.0439072 0.0275706 1.52255e-19)
(-0.0423212 0.0287559 1.95784e-19)
(-0.0405551 0.0309229 -4.56131e-20)
(-0.0392278 0.0339455 3.9359e-19)
(-0.00409034 0.00927065 1.97963e-19)
(-0.0113872 0.0228834 1.02692e-20)
(-0.0185855 0.032263 -7.10553e-20)
(-0.0251448 0.038364 -7.50579e-20)
(-0.0308672 0.0419158 -3.47603e-19)
(-0.0357023 0.0434996 4.92238e-20)
(-0.0396343 0.0435963 1.39469e-19)
(-0.0426733 0.0426012 -6.70863e-20)
(-0.0448469 0.0408401 5.53403e-20)
(-0.0461927 0.038587 -1.46688e-20)
(-0.046754 0.0360787 -7.22877e-20)
(-0.0465798 0.0335267 6.86409e-20)
(-0.0457268 0.0311268 -2.98419e-19)
(-0.0442623 0.0290657 2.86091e-19)
(-0.0422693 0.0275241 -2.47815e-19)
(-0.0398595 0.0266727 7.65439e-20)
(-0.0371764 0.0266676 1.74204e-19)
(-0.0343155 0.0276727 -3.62332e-20)
(-0.031259 0.029881 -1.20507e-19)
(-0.0287075 0.03318 -8.20035e-20)
(-0.00483372 0.00999291 -2.46597e-19)
(-0.0131547 0.0246043 -1.62343e-20)
(-0.0209512 0.0346258 5.19358e-20)
(-0.0277681 0.0411017 1.33544e-19)
(-0.0334729 0.0448254 -1.88532e-19)
(-0.0380681 0.0464239 -1.64526e-19)
(-0.0415809 0.0464108 3.8403e-19)
(-0.0440553 0.0452038 -2.12204e-19)
(-0.0455438 0.0431437 -1.36892e-19)
(-0.0461011 0.0405143 -1.96433e-19)
(-0.0457815 0.0375598 1.30042e-19)
(-0.0446393 0.0344998 -3.50422e-21)
(-0.0427325 0.0315416 -2.42859e-19)
(-0.0401276 0.0288898 -3.97319e-19)
(-0.0369074 0.0267529 3.02704e-19)
(-0.0331877 0.0253412 -2.45292e-19)
(-0.0291254 0.024863 3.47766e-19)
(-0.0248385 0.0255532 -9.74304e-20)
(-0.0203387 0.027698 2.04768e-19)
(-0.0164397 0.0312225 -6.95647e-19)
(-0.00562452 0.0106427 -4.99434e-19)
(-0.0150102 0.0261252 3.27497e-19)
(-0.0233956 0.0366901 4.45394e-20)
(-0.0304216 0.0434706 8.61664e-21)
(-0.0360293 0.0473226 -2.0196e-19)
(-0.0402797 0.0489161 2.96994e-19)
(-0.0432489 0.0487944 3.24179e-20)
(-0.0450187 0.0473932 -6.09022e-20)
(-0.0456712 0.045063 -1.95502e-19)
(-0.0452821 0.0420917 2.11328e-19)
(-0.0439196 0.0387237 5.35822e-19)
(-0.0416462 0.0351786 -1.18367e-19)
(-0.0385231 0.0316658 2.67517e-19)
(-0.0346162 0.0283993 -3.16023e-19)
(-0.0300067 0.0256079 -3.03059e-19)
(-0.0248123 0.0235386 1.82201e-19)
(-0.0192007 0.0224567 3.01065e-19)
(-0.0133107 0.022685 -9.75586e-19)
(-0.00718656 0.0246387 1.14546e-19)
(-0.00179393 0.0283168 1.55838e-19)
(-0.00645285 0.0112117 3.69832e-19)
(-0.0169203 0.0274242 1.21674e-19)
(-0.0258571 0.0384247 6.33837e-19)
(-0.0330117 0.0454346 3.26232e-20)
(-0.0384061 0.049371 -7.04964e-20)
(-0.0421656 0.050946 -3.35717e-19)
(-0.0444196 0.0507294 2.85492e-19)
(-0.0452928 0.0491722 5.12241e-19)
(-0.0449005 0.0466308 3.41288e-19)
(-0.0433437 0.0433919 2.46417e-19)
(-0.0407094 0.039694 2.12452e-19)
(-0.0370729 0.0357475 -3.81487e-19)
(-0.0325025 0.0317537 -1.19505e-19)
(-0.0270669 0.0279226 -8.80381e-20)
(-0.0208469 0.0244897 9.4337e-19)
(-0.0139607 0.0217269 -3.19754e-21)
(-0.00658487 0.0199511 -2.35154e-19)
(0.00112552 0.0195837 -7.41269e-20)
(0.0090979 0.0212079 6.74772e-19)
(0.0161699 0.0249458 8.83586e-20)
(-0.00730693 0.0116908 -1.82268e-20)
(-0.0188457 0.0284771 -3.49899e-19)
(-0.0282636 0.0397948 -5.20578e-19)
(-0.0354283 0.0469524 -1.44869e-19)
(-0.0404491 0.0509279 7.99966e-20)
(-0.0435208 0.0524744 1.72232e-20)
(-0.0448298 0.0521877 4.5685e-19)
(-0.044547 0.0505323 -5.666e-19)
(-0.0428248 0.0478688 -2.15526e-19)
(-0.0397942 0.0444801 -4.34374e-19)
(-0.0355662 0.0405944 -3.6999e-19)
(-0.0302354 0.0364067 -3.27646e-19)
(-0.0238848 0.032099 8.19243e-20)
(-0.0165933 0.0278625 -1.06391e-19)
(-0.0084473 0.0239198 4.5591e-19)
(0.000430994 0.0205444 -2.49844e-19)
(0.0098562 0.018084 -7.83476e-19)
(0.0196623 0.0170516 -1.58082e-19)
(0.0297647 0.0182315 3.86736e-19)
(0.0387622 0.0219262 -3.3724e-19)
(-0.00817313 0.0120707 -5.90076e-20)
(-0.020741 0.0292586 4.27989e-19)
(-0.0305323 0.0407631 -5.45866e-19)
(-0.0375442 0.0479782 1.26165e-19)
(-0.04198 0.0519431 -2.59911e-19)
(-0.0441069 0.0534523 5.78962e-19)
(-0.0441713 0.0531273 -4.13796e-19)
(-0.0423923 0.0514469 4.73429e-19)
(-0.0389619 0.0487767 -4.48898e-19)
(-0.0340449 0.0453965 1.91544e-19)
(-0.0277818 0.0415243 -9.29523e-20)
(-0.0202946 0.0373373 -2.33417e-19)
(-0.0116918 0.0329925 -2.88446e-19)
(-0.00207519 0.0286493 2.87438e-19)
(0.00844969 0.0244958 -2.40755e-19)
(0.0197447 0.0207755 -5.26546e-19)
(0.0316071 0.0178255 5.48211e-19)
(0.0438619 0.0162135 -6.99509e-19)
(0.0564456 0.0169317 3.1464e-19)
(0.0676977 0.0205123 8.35095e-21)
(-0.00903622 0.0123422 -5.35101e-19)
(-0.0225549 0.0297435 -5.77812e-19)
(-0.032569 0.0412915 6.65808e-20)
(-0.0392154 0.0484643 -5.57281e-19)
(-0.0427959 0.0523625 -4.96169e-20)
(-0.0436531 0.0538226 -4.09942e-19)
(-0.0420936 0.0534934 -9.40498e-20)
(-0.0383855 0.0518696 -2.74875e-19)
(-0.0327609 0.0493254 2.43339e-21)
(-0.0254204 0.0461423 -1.20277e-19)
(-0.016539 0.0425333 8.54509e-21)
(-0.00627427 0.0386628 -3.46618e-19)
(0.00522706 0.034665 3.82084e-19)
(0.0178223 0.0306643 -5.42149e-19)
(0.0313642 0.0268001 1.92139e-19)
(0.0456743 0.0232546 7.33672e-21)
(0.0605082 0.0202985 -3.06153e-19)
(0.0756679 0.0184779 7.59293e-19)
(0.0911574 0.018944 -1.81436e-19)
(0.105097 0.0224608 -1.17919e-19)
(-0.00987966 0.0124979 6.00715e-19)
(-0.0242302 0.0299088 3.24381e-19)
(-0.034268 0.0413444 3.01753e-19)
(-0.0402791 0.0483651 4.50492e-20)
(-0.0426686 0.0521329 4.0806e-19)
(-0.041855 0.0535275 5.88182e-19)
(-0.0382048 0.0532257 4.81607e-19)
(-0.0320331 0.0517417 4.30951e-20)
(-0.023611 0.0494627 3.52704e-19)
(-0.0131748 0.0466796 5.44997e-19)
(-0.000936988 0.0436106 -1.41382e-19)
(0.0129029 0.0404196 2.37283e-19)
(0.028147 0.0372318 1.91593e-19)
(0.0445915 0.0341487 1.94928e-19)
(0.0620185 0.0312659 1.15372e-18)
(0.0801718 0.0286913 -4.32464e-19)
(0.0987189 0.02658 -2.64577e-20)
(0.117389 0.0253447 5.02324e-19)
(0.136288 0.0261654 -2.84978e-19)
(0.153476 0.0299554 1.41108e-19)
(-0.0106857 0.0125318 -4.85833e-19)
(-0.0257027 0.0297356 3.11515e-20)
(-0.0355097 0.0408925 -3.88977e-19)
(-0.0405518 0.0476435 -5.06344e-20)
(-0.0413412 0.0512117 2.84752e-19)
(-0.0383725 0.0525199 -8.47671e-19)
(-0.0320701 0.0522741 -6.11331e-22)
(-0.0227934 0.0510098 3.94488e-19)
(-0.0108497 0.0491327 3.70651e-19)
(0.00349047 0.0469506 -1.63188e-19)
(0.0199772 0.0446991 5.38128e-20)
(0.0383642 0.0425594 1.24815e-19)
(0.0583932 0.0406714 -5.90885e-20)
(0.0797799 0.0391438 -6.63156e-19)
(0.102203 0.0380631 1.67886e-19)
(0.125281 0.0374938 4.62562e-19)
(0.148519 0.0374736 -6.59341e-19)
(0.171467 0.0381939 3.21693e-19)
(0.194312 0.0406989 8.65164e-20)
(0.215391 0.0458698 4.39171e-19)
(-0.011435 0.0124401 -7.17665e-20)
(-0.0269002 0.0292103 -3.40473e-19)
(-0.0361583 0.0399164 1.56662e-19)
(-0.0398246 0.0462778 7.07164e-22)
(-0.0385228 0.0495773 -6.82865e-19)
(-0.0328239 0.0507799 1.06559e-19)
(-0.0232081 0.0506198 -2.02337e-20)
(-0.0100761 0.0496546 1.37853e-19)
(0.00623087 0.0483104 -6.31004e-19)
(0.0254105 0.0469177 -4.42337e-20)
(0.0471763 0.0457388 -1.48255e-19)
(0.0712354 0.0449885 1.31877e-19)
(0.0972663 0.0448486 4.45312e-19)
(0.124896 0.0454795 -6.88364e-20)
(0.153676 0.0470281 2.66849e-20)
(0.18304 0.0496181 1.75558e-19)
(0.212222 0.0533047 -4.33124e-20)
(0.240362 0.0582042 3.55271e-19)
(0.267441 0.0653629 -2.05477e-19)
(0.292422 0.0753219 -3.26452e-19)
(-0.0121059 0.0122208 6.65491e-20)
(-0.0277396 0.0283258 1.62157e-20)
(-0.0360569 0.0384103 1.36541e-19)
(-0.0378576 0.0442687 3.34427e-19)
(-0.0338825 0.0472407 1.87659e-19)
(-0.02478 0.0483311 1.95801e-20)
(-0.0110861 0.0482993 -2.2403e-19)
(0.00675695 0.0477222 5.74328e-20)
(0.0283742 0.0470437 3.02025e-19)
(0.05343 0.0466147 -5.11798e-19)
(0.081602 0.0467238 3.86208e-19)
(0.112556 0.0476214 -2.9102e-19)
(0.145924 0.0495413 2.47044e-19)
(0.181278 0.0527227 -5.32994e-19)
(0.218102 0.0574344 5.8674e-19)
(0.255731 0.0639885 -6.27765e-19)
(0.293205 0.0727343 -1.63501e-19)
(0.329206 0.0842969 5.1449e-19)
(0.362594 0.100615 -1.73277e-19)
(0.390399 0.121566 7.82591e-20)
(-0.0126727 0.0118728 -5.03813e-20)
(-0.0281232 0.0270818 4.75419e-19)
(-0.0350229 0.0363844 -2.00041e-21)
(-0.0343742 0.0416449 -2.95122e-19)
(-0.0270433 0.0442554 -1.98483e-19)
(-0.01376 0.0452561 3.63609e-19)
(0.00487904 0.0454262 -1.44018e-19)
(0.0283836 0.0453546 -1.81439e-20)
(0.0563338 0.0454944 3.00102e-19)
(0.0883478 0.046204 -3.72821e-19)
(0.124053 0.0477791 4.08861e-20)
(0.163068 0.0504788 -4.8476e-19)
(0.204984 0.0545508 2.5538e-19)
(0.249367 0.0602601 -7.31043e-19)
(0.295764 0.0679281 1.16552e-18)
(0.343714 0.077984 -2.13418e-19)
(0.392783 0.0910853 2.23937e-19)
(0.442862 0.10867 -5.81111e-19)
(0.494455 0.133752 2.70452e-21)
(0.539692 0.161896 6.6713e-19)
(-0.0131034 0.0113953 -1.52661e-19)
(-0.0279352 0.025484 1.31909e-19)
(-0.0328436 0.0338665 -4.85677e-19)
(-0.0290576 0.0384672 7.18326e-19)
(-0.0175804 0.0407238 -5.18588e-19)
(0.000766592 0.0417059 2.67555e-20)
(0.0253133 0.0422046 -5.59128e-19)
(0.0555012 0.0428107 3.99751e-19)
(0.0908377 0.0439714 -5.71149e-20)
(0.130857 0.0460311 -3.52762e-19)
(0.175092 0.0492611 -2.05885e-19)
(0.223055 0.0538814 2.17523e-19)
(0.274239 0.0600797 1.4396e-19)
(0.328125 0.0680287 -6.37518e-19)
(0.384215 0.0779023 2.30026e-19)
(0.442072 0.0898878 -3.4005e-19)
(0.50139 0.104207 4.12503e-20)
(0.56222 0.12132 -2.9037e-19)
(0.625446 0.1424 1.20777e-19)
(0.683787 0.16328 -4.38353e-19)
(-0.0133577 0.0107871 4.34594e-19)
(-0.0270376 0.0235446 -2.63174e-19)
(-0.0292733 0.0309026 2.16856e-19)
(-0.0215501 0.0348295 -2.73769e-19)
(-0.00502558 0.0367989 4.58927e-19)
(0.0193687 0.0379015 -8.04503e-21)
(0.0508628 0.0389303 -5.58584e-20)
(0.0887925 0.0404641 -4.14123e-20)
(0.132542 0.0429261 2.54904e-19)
(0.181497 0.0466219 4.33431e-19)
(0.235019 0.0517661 -2.56043e-19)
(0.292431 0.0584999 2.48962e-19)
(0.353024 0.0669047 4.55032e-19)
(0.416078 0.0770109 -3.19048e-19)
(0.4809 0.0888025 -6.49315e-19)
(0.546864 0.102212 1.18843e-18)
(0.613456 0.117103 -2.12088e-19)
(0.68036 0.133314 -6.9199e-20)
(0.747824 0.151181 7.49823e-19)
(0.810541 0.169678 -1.57427e-19)
(-0.0133849 0.0100465 -7.07646e-19)
(-0.0252686 0.0212824 -4.71089e-19)
(-0.0240341 0.0275574 -1.80842e-19)
(-0.0114589 0.0308588 3.48864e-19)
(0.0111191 0.0326817 -7.87519e-19)
(0.0426271 0.0341272 4.07778e-19)
(0.0821514 0.0359757 5.16733e-20)
(0.128862 0.0387757 5.22347e-20)
(0.181943 0.0429025 -5.34012e-19)
(0.240547 0.0485939 -1.88585e-19)
(0.303767 0.0559737 -3.32481e-19)
(0.370638 0.0650694 3.21159e-19)
(0.440158 0.0758243 9.1311e-20)
(0.511321 0.0881082 1.79801e-20)
(0.583163 0.101723 4.19992e-19)
(0.654804 0.116401 -4.25064e-19)
(0.725483 0.131798 -1.77826e-20)
(0.794589 0.147506 1.0347e-20)
(0.861828 0.16338 5.78345e-20)
(0.924187 0.18091 3.33653e-19)
(-0.0131229 0.00917273 2.25336e-19)
(-0.0224425 0.0187249 5.80387e-19)
(-0.0168201 0.0239155 4.65763e-19)
(0.00163204 0.0267144 -1.60525e-19)
(0.031358 0.0286174 5.58223e-19)
(0.0710951 0.0307196 -4.70272e-20)
(0.119719 0.033768 -6.62427e-20)
(0.176147 0.0382548 3.94305e-20)
(0.239267 0.044475 5.39461e-19)
(0.307888 0.052561 3.16964e-19)
(0.380736 0.0625077 9.25482e-20)
(0.456473 0.0741937 5.64661e-21)
(0.533745 0.0873998 -6.14869e-19)
(0.611234 0.101829 5.34249e-19)
(0.687719 0.11712 9.19134e-20)
(0.762121 0.132864 -1.51034e-19)
(0.83354 0.148608 -6.57702e-19)
(0.90127 0.16389 -5.62031e-20)
(0.964784 0.178245 2.60784e-19)
(1.02318 0.194812 -5.3624e-20)
(-0.0124982 0.00816688 -5.71978e-19)
(-0.0183522 0.0159112 2.39314e-19)
(-0.00730585 0.0200841 -1.16825e-18)
(0.0181435 0.0225877 4.7839e-19)
(0.0561691 0.0248898 -3.81491e-19)
(0.105247 0.0280546 2.81239e-19)
(0.163947 0.0327653 -4.36826e-19)
(0.230825 0.0394195 4.01029e-20)
(0.304349 0.0481881 -2.2506e-20)
(0.382878 0.0590519 1.1747e-19)
(0.464684 0.071834 1.69728e-19)
(0.548009 0.0862306 -3.20813e-19)
(0.631146 0.101845 1.69841e-19)
(0.71252 0.118218 1.56172e-19)
(0.790755 0.134862 6.7607e-19)
(0.864724 0.151281 -2.93323e-19)
(0.93357 0.166997 -1.958e-19)
(0.996721 0.18159 3.29696e-19)
(1.05375 0.194487 1.77053e-19)
(1.10515 0.209587 -3.31504e-19)
(-0.0114267 0.00703497 5.01145e-19)
(-0.0127747 0.0128964 4.83238e-19)
(0.00484073 0.0161965 1.39357e-19)
(0.0384784 0.0187036 5.86994e-19)
(0.0859672 0.0218175 2.88299e-19)
(0.145423 0.0265351 -5.19674e-19)
(0.214988 0.0334313 7.8702e-19)
(0.292722 0.0427568 -3.8729e-19)
(0.376552 0.0545022 3.86592e-19)
(0.46429 0.0684438 5.00289e-19)
(0.553713 0.0841902 -2.85915e-19)
(0.64266 0.101233 5.42914e-20)
(0.729158 0.118997 3.03148e-19)
(0.811511 0.136891 2.13783e-19)
(0.888372 0.154347 4.93224e-19)
(0.958771 0.170855 -1.96938e-19)
(1.02212 0.185978 -2.39402e-20)
(1.07816 0.199403 3.12799e-19)
(1.12684 0.210632 -6.70704e-20)
(1.16948 0.223648 4.03725e-22)
(-0.00981652 0.00579048 -2.58727e-19)
(-0.0054789 0.00975736 -9.50957e-19)
(0.019943 0.0124168 2.23908e-19)
(0.0629944 0.0153214 -1.70442e-19)
(0.121062 0.0197488 -3.93361e-19)
(0.191774 0.0265766 -2.80748e-19)
(0.272697 0.0362099 -1.73431e-19)
(0.361255 0.0486852 4.2124e-19)
(0.454725 0.0637475 -2.50163e-19)
(0.550328 0.0809155 -2.56128e-19)
(0.645372 0.0995531 -3.24165e-19)
(0.737404 0.118945 -5.35147e-20)
(0.824354 0.138367 -3.61153e-20)
(0.904622 0.157148 -7.50948e-19)
(0.977119 0.174714 3.64704e-19)
(1.04126 0.190611 -4.79505e-19)
(1.09689 0.204521 1.51258e-19)
(1.14424 0.216273 -1.15132e-18)
(1.18374 0.225578 3.46865e-19)
(1.21709 0.236062 4.40443e-19)
(-0.00757044 0.00445713 -6.495e-20)
(0.00376464 0.00659681 4.64092e-19)
(0.0382973 0.00894384 2.97416e-20)
(0.0919756 0.0127354 7.15756e-20)
(0.16162 0.0190552 -1.45512e-19)
(0.244213 0.0285907 -2.37098e-21)
(0.336591 0.0414979 -3.71787e-21)
(0.43541 0.0575192 -8.7747e-20)
(0.537239 0.0760878 3.11219e-19)
(0.638739 0.0964246 1.20374e-19)
(0.736874 0.117644 5.46589e-19)
(0.829103 0.138853 -1.49093e-19)
(0.913505 0.159243 1.04195e-19)
(0.988831 0.178142 -1.36562e-20)
(1.05448 0.195053 2.8888e-19)
(1.11041 0.209657 1.7708e-19)
(1.15705 0.221808 4.27577e-19)
(1.19514 0.231506 -6.91095e-19)
(1.22558 0.238713 8.7072e-19)
(1.2502 0.246506 -2.76066e-19)
(-0.00459011 0.00307105 -6.05171e-19)
(0.0151724 0.00354761 -1.88829e-19)
(0.0601526 0.00601318 1.47643e-19)
(0.125602 0.0112713 9.30689e-20)
(0.207623 0.02012 9.52747e-20)
(0.302381 0.0329645 9.66301e-20)
(0.405825 0.0496159 -2.41756e-19)
(0.513764 0.0694392 -1.00001e-19)
(0.622078 0.0915012 3.10068e-20)
(0.727003 0.114713 -2.96223e-19)
(0.825387 0.137971 -1.34079e-19)
(0.914875 0.160279 8.10504e-19)
(0.993981 0.180829 -2.09042e-19)
(1.06204 0.199047 -2.88636e-19)
(1.11912 0.214597 -1.37324e-19)
(1.16582 0.227354 9.49258e-20)
(1.20314 0.237374 1.16213e-19)
(1.23227 0.244832 -5.57253e-19)
(1.25448 0.249918 8.07335e-19)
(1.27161 0.255134 -7.00159e-19)
(-0.000779953 0.00168233 -6.85735e-20)
(0.0289353 0.000774385 1.96566e-20)
(0.0856892 0.00389594 -2.49922e-20)
(0.163921 0.0112793 3.65498e-19)
(0.258843 0.023322 2.00794e-20)
(0.365625 0.0400353 1.34183e-19)
(0.479214 0.0607806 -2.78697e-19)
(0.594567 0.0844708 -1.01664e-20)
(0.707006 0.109781 3.87195e-19)
(0.812581 0.135342 5.40019e-20)
(0.908336 0.159911 -3.37525e-19)
(0.992414 0.182488 -2.96347e-20)
(1.06402 0.202378 -2.77751e-19)
(1.12325 0.219196 2.76428e-19)
(1.17091 0.232829 3.8456e-19)
(1.20822 0.243381 -4.24144e-20)
(1.23666 0.251105 -5.18497e-20)
(1.25776 0.25633 1.58016e-19)
(1.273 0.259418 -5.08808e-19)
(1.28413 0.262357 4.47969e-19)
(0.00394823 0.000355677 6.87613e-20)
(0.0452052 -0.00152722 -4.4388e-19)
(0.114998 0.00289339 1.18818e-19)
(0.206824 0.0131207 -3.68312e-19)
(0.314819 0.0290148 1.26619e-19)
(0.433007 0.0500651 -4.70226e-19)
(0.555287 0.0750826 1.89647e-19)
(0.675868 0.10248 -6.03503e-20)
(0.78976 0.130561 -2.43752e-21)
(0.893166 0.157756 6.18148e-20)
(0.983667 0.182795 -2.2526e-19)
(1.06019 0.204801 -3.21765e-19)
(1.12281 0.223296 -6.60686e-20)
(1.17247 0.238152 -2.96625e-20)
(1.21065 0.249514 -7.53016e-20)
(1.23911 0.257708 -2.45602e-20)
(1.25965 0.263158 -7.35416e-20)
(1.27398 0.266304 -6.38107e-20)
(1.28363 0.267614 -1.90161e-19)
(1.29021 0.268656 3.01942e-19)
(0.00967048 -0.000829824 1.65591e-19)
(0.0640821 -0.00313392 -1.83875e-19)
(0.148063 0.00332746 3.95655e-19)
(0.254024 0.017151 -1.70715e-19)
(0.374858 0.0375023 4.5624e-19)
(0.50334 0.0632169 6.44798e-21)
(0.63238 0.0924759 2.29096e-19)
(0.755669 0.12319 -6.13053e-20)
(0.868261 0.153365 2.56079e-19)
(0.96689 0.181354 1.85574e-20)
(1.05 0.206005 6.10078e-19)
(1.1175 0.226679 -4.21236e-19)
(1.17043 0.243195 5.67205e-20)
(1.21049 0.255721 1.08322e-19)
(1.23977 0.264656 5.68254e-19)
(1.26037 0.270513 -2.04194e-19)
(1.27425 0.273843 -4.05276e-20)
(1.28315 0.275147 -2.14944e-19)
(1.28851 0.274942 -2.27198e-20)
(1.29178 0.27447 1.07638e-19)
(0.0164456 -0.00178187 -7.9571e-20)
(0.0856005 -0.00380097 2.29717e-19)
(0.18474 0.00552735 -2.3502e-19)
(0.305056 0.0236988 9.28948e-20)
(0.438051 0.0490157 -1.10904e-19)
(0.575248 0.0795393 4.07232e-19)
(0.708754 0.112783 -5.66653e-20)
(0.832096 0.146211 1.39791e-19)
(0.940782 0.177662 -8.22671e-20)
(1.03245 0.205569 -2.12558e-21)
(1.10665 0.229034 9.40985e-20)
(1.16438 0.247754 -7.29163e-20)
(1.20758 0.261892 1.89194e-19)
(1.23862 0.27191 -9.43044e-20)
(1.25997 0.278423 -4.15722e-19)
(1.27391 0.282087 4.1345e-19)
(1.28242 0.283522 -1.86444e-19)
(1.28712 0.283248 1.48893e-19)
(1.28932 0.281789 2.58404e-19)
(1.29026 0.280135 1.06167e-19)
(0.0243101 -0.00239703 1.97961e-19)
(0.109719 -0.00327074 -4.07905e-19)
(0.224757 0.00981343 7.80669e-20)
(0.359273 0.0330444 -5.66039e-20)
(0.503313 0.0636942 -2.28172e-19)
(0.647256 0.0989614 -1.79065e-19)
(0.782728 0.135713 -3.51791e-20)
(0.90353 0.17109 -3.19274e-19)
(1.00605 0.20293 -1.94253e-20)
(1.08914 0.229915 -5.93315e-20)
(1.15358 0.251518 -1.61127e-19)
(1.20144 0.267835 -3.57927e-20)
(1.23541 0.279374 -1.23393e-19)
(1.25835 0.286858 -2.06065e-19)
(1.27294 0.29107 2.11116e-19)
(1.28146 0.29275 2.91582e-20)
(1.28577 0.292538 5.8109e-20)
(1.28734 0.290936 -2.4347e-19)
(1.28727 0.288455 -6.0663e-21)
(1.28661 0.285883 -3.75938e-19)
(0.0332737 -0.00256369 2.17178e-19)
(0.136313 -0.00128323 1.44813e-19)
(0.267701 0.0164798 -2.33361e-19)
(0.415871 0.0454007 3.64412e-19)
(0.569436 0.081574 -3.92552e-20)
(0.717883 0.121301 1.3608e-19)
(0.852789 0.160896 4.71077e-20)
(0.96871 0.197352 1.66924e-19)
(1.0633 0.228701 -1.30702e-19)
(1.13679 0.25402 4.35674e-20)
(1.19123 0.273239 -4.1833e-20)
(1.22961 0.286871 -1.84298e-20)
(1.25522 0.29574 3.50127e-20)
(1.27118 0.300777 -6.45406e-20)
(1.28019 0.302872 -1.98485e-20)
(1.28443 0.302797 -6.07239e-20)
(1.28558 0.301174 -9.87502e-20)
(1.28486 0.298462 6.37495e-20)
(1.28321 0.295146 -8.75366e-20)
(1.28147 0.29185 3.78238e-19)
(0.0433148 -0.00216588 -1.08503e-19)
(0.165168 0.00241193 -3.0724e-19)
(0.313033 0.0257767 -4.08909e-20)
(0.473921 0.0608973 -1.10965e-20)
(0.635163 0.102586 -1.37559e-19)
(0.785734 0.146285 -2.25816e-19)
(0.91768 0.187918 7.39214e-20)
(1.02677 0.224547 -1.01573e-19)
(1.11219 0.254586 -1.13843e-19)
(1.17565 0.277628 6.3424e-20)
(1.22034 0.294101 -4.79406e-20)
(1.25 0.304911 -9.70289e-20)
(1.2683 0.311152 -3.29216e-21)
(1.27843 0.313896 6.57211e-20)
(1.28299 0.314083 -6.70722e-20)
(1.28396 0.312474 9.3084e-20)
(1.28276 0.309643 2.50309e-20)
(1.28043 0.305993 6.3128e-20)
(1.2777 0.301985 1.2311e-19)
(1.27523 0.298096 -1.05475e-19)
(0.0543781 -0.00108776 1.03665e-19)
(0.19598 0.00804289 -9.21094e-21)
(0.360102 0.0378954 4.64601e-20)
(0.532412 0.0795717 -6.30856e-20)
(0.699249 0.126563 5.1654e-21)
(0.849579 0.17357 2.18829e-19)
(0.976448 0.216351 -1.43771e-19)
(1.07722 0.25227 6.08879e-20)
(1.15279 0.280288 5.36864e-20)
(1.20627 0.300587 -1.50967e-19)
(1.24184 0.314093 1.4188e-19)
(1.26376 0.322063 1.25225e-21)
(1.27585 0.325789 -1.00015e-19)
(1.28125 0.326425 1.20567e-19)
(1.28235 0.32491 -4.78541e-20)
(1.28085 0.32196 3.66017e-20)
(1.27797 0.318085 -4.09385e-20)
(1.27451 0.313629 -1.63619e-20)
(1.27106 0.309029 -1.4341e-19)
(1.26813 0.304629 4.39101e-20)
(0.0663728 0.000781388 -3.49853e-20)
(0.228363 0.0158032 9.38197e-20)
(0.408164 0.0529551 1.46163e-20)
(0.590297 0.101366 6.13326e-20)
(0.760534 0.153251 2.92506e-20)
(0.908401 0.202771 1.37099e-20)
(1.02845 0.245785 7.77468e-20)
(1.11992 0.280179 -9.44247e-21)
(1.18543 0.30559 3.42798e-20)
(1.22938 0.32282 5.50896e-20)
(1.25668 0.333261 2.65858e-20)
(1.27191 0.338453 1.90867e-20)
(1.27889 0.33982 7.74079e-20)
(1.28055 0.338537 -7.49288e-20)
(1.279 0.335506 1.60858e-20)
(1.27571 0.331374 -1.50563e-20)
(1.27164 0.326579 2.33118e-20)
(1.26743 0.32141 1.95311e-20)
(1.26351 0.316286 4.07918e-20)
(1.26029 0.311419 1.7256e-21)
(0.0791729 0.00354192 2.07383e-20)
(0.261859 0.0258405 1.8942e-20)
(0.456417 0.0709943 -2.62139e-20)
(0.646545 0.126131 1.63787e-20)
(0.817986 0.182331 9.24991e-21)
(0.961422 0.233486 -2.87735e-20)
(1.07333 0.275839 9.49522e-21)
(1.15498 0.307993 1.70904e-21)
(1.21062 0.330343 1.63759e-20)
(1.24574 0.344305 -4.39022e-20)
(1.26577 0.351675 -1.34617e-22)
(1.27538 0.354205 1.21658e-20)
(1.27824 0.353382 -9.69405e-21)
(1.277 0.350359 9.80901e-21)
(1.27349 0.345967 2.55923e-20)
(1.26892 0.340778 -1.45581e-20)
(1.26404 0.335153 4.05428e-21)
(1.25934 0.329333 1.59497e-20)
(1.25515 0.323725 -2.62988e-20)
(1.25176 0.318411 1.26226e-20)
(0.0926198 0.00727872 5.78527e-20)
(0.295948 0.0382469 -3.14505e-20)
(0.504031 0.0919675 3.70238e-20)
(0.700184 0.153635 -2.75446e-20)
(0.870742 0.213433 -1.23503e-20)
(1.0081 0.265311 3.73261e-21)
(1.11097 0.306169 -1.21201e-20)
(1.18269 0.335485 4.35878e-20)
(1.22898 0.354447 -3.62895e-20)
(1.25615 0.365046 8.51401e-21)
(1.26994 0.369407 -6.34547e-21)
(1.27493 0.369418 -4.13138e-20)
(1.27455 0.366575 4.00682e-20)
(1.27113 0.361967 1.52494e-20)
(1.26621 0.356342 -1.51724e-20)
(1.26075 0.350187 3.56058e-20)
(1.25535 0.343794 -5.26045e-22)
(1.25037 0.337363 -3.45317e-20)
(1.24603 0.331294 2.55804e-20)
(1.24257 0.325535 8.05587e-21)
(0.106525 0.0120566 -2.02713e-20)
(0.330073 0.0530527 5.87947e-20)
(0.550182 0.115745 6.7914e-20)
(0.750339 0.183573 -3.20295e-20)
(0.918114 0.246158 5.57341e-20)
(1.04811 0.297853 8.81744e-20)
(1.14146 0.336472 -4.85037e-21)
(1.20347 0.362472 -1.51235e-20)
(1.24114 0.377834 7.47381e-20)
(1.26134 0.385055 3.64303e-20)
(1.26989 0.386513 -6.60259e-21)
(1.27118 0.384162 5.42782e-20)
(1.26831 0.379455 -5.81772e-20)
(1.2633 0.373394 9.05744e-20)
(1.2574 0.366634 -1.51083e-20)
(1.25137 0.35958 4.32429e-20)
(1.24566 0.35246 7.78114e-21)
(1.24055 0.345442 3.09291e-20)
(1.23617 0.338921 -2.94452e-20)
(1.2327 0.332708 7.0714e-21)
(0.120675 0.0179158 -3.15475e-20)
(0.363649 0.0702209 7.4943e-20)
(0.594079 0.142117 5.56572e-20)
(0.796248 0.215586 -8.42768e-21)
(0.959599 0.280087 8.6655e-20)
(1.08132 0.33074 -6.46685e-20)
(1.16503 0.366477 -5.05017e-21)
(1.21783 0.388802 5.71063e-20)
(1.24772 0.400447 1.81459e-20)
(1.26194 0.404339 2.53597e-20)
(1.2662 0.403027 -3.7434e-20)
(1.26461 0.398468 9.75403e-20)
(1.2599 0.392037 1.81899e-20)
(1.25377 0.384633 -8.63473e-20)
(1.24723 0.376814 1.26051e-19)
(1.24087 0.368907 -1.48681e-19)
(1.23503 0.361084 -6.81945e-20)
(1.2299 0.353494 1.13124e-20)
(1.22556 0.346522 6.62163e-20)
(1.22217 0.339845 -1.24709e-19)
(0.134838 0.0248691 -7.1085e-20)
(0.396093 0.0896474 -1.67644e-19)
(0.634994 0.170802 -1.449e-19)
(0.837287 0.249265 -1.97283e-19)
(0.99486 0.314797 -1.11886e-19)
(1.10775 0.363615 -2.31969e-19)
(1.18198 0.395941 2.94714e-20)