/*--------------------------------*- C++ -*----------------------------------*\
  =========                 |
  \\      /  F ield         | OpenFOAM: The Open Source CFD Toolbox
   \\    /   O peration     | Website:  https://openfoam.org
    \\  /    A nd           | Version:  6.0
     \\/     M anipulation  |
\*---------------------------------------------------------------------------*/
FoamFile
{
    version     2.0;
    format      ascii;
    class       surfaceScalarField;
    location    "0.1";
    object      phi;
}
// * * * * * * * * * * * * * * * * * * * * * * * * * * * * * * * * * * * * * //

dimensions      [0 3 -1 0 0 0 0];

internalField   nonuniform List<scalar> 
15760
(
2.90956e-05
-2.91299e-05
3.4311e-08
0.000126019
-9.69768e-05
5.32455e-08
0.000268815
-0.000142838
4.25036e-08
0.000434022
-0.000165233
2.53063e-08
0.000606754
-0.000172742
1.09562e-08
0.000779524
-0.000172774
4.15722e-09
0.000949163
-0.000169639
7.04886e-11
0.0011146
-0.000165429
-6.12825e-09
0.00127566
-0.000161062
-4.94652e-09
0.00143255
-0.000156884
-1.86229e-09
0.00158556
-0.000153006
1.02095e-09
0.001735
-0.000149442
2.21852e-09
0.00188116
-0.000146169
3.96812e-09
0.00202431
-0.00014316
8.51911e-09
0.00216469
-0.000140389
1.46638e-08
0.00230249
-0.000137831
2.43214e-08
0.00243791
-0.000135457
3.56524e-08
0.00257112
-0.000133246
4.39229e-08
0.00270226
-0.000131197
5.26528e-08
-0.000129263
6.56232e-08
0.00283146
2.91926e-05
-5.83224e-05
0.00012618
-0.000193964
0.000268922
-0.00028558
0.000433965
-0.000330276
0.000606461
-0.000345239
0.000778964
-0.000345277
0.000948326
-0.000339001
0.00111349
-0.000330594
0.0012743
-0.000321871
0.00143095
-0.000313529
0.00158372
-0.000305784
0.00173295
-0.000298665
0.00187891
-0.00029213
0.00202187
-0.000286122
0.00216206
-0.000280582
0.00229969
-0.000275459
0.00243494
-0.000270702
0.00256796
-0.000266275
0.00269893
-0.000262165
-0.000258275
0.00282794
2.93857e-05
-8.77081e-05
0.000126495
-0.000291073
0.000269123
-0.000428208
0.000433835
-0.000494988
0.000605863
-0.000517267
0.000777832
-0.000517246
0.000946641
-0.000507809
0.00111126
-0.000495214
0.00127155
-0.00048216
0.00142771
-0.000469685
0.00158003
-0.000458108
0.00172883
-0.000447467
0.0018744
-0.000437697
0.00201699
-0.00042871
0.00215683
-0.000420421
0.00229411
-0.000412747
0.00242903
-0.000405616
0.00256173
-0.000398974
0.00269236
-0.000392797
-0.000386952
0.00282104
2.96659e-05
-0.000117374
0.000126953
-0.00038836
0.000269406
-0.000570662
0.00043362
-0.000659202
0.00060494
-0.000688587
0.000776102
-0.000688408
0.000944078
-0.000675785
0.00110788
-0.000659018
0.00126739
-0.000641672
0.00142282
-0.000625113
0.00157447
-0.000609752
0.00172264
-0.000595635
0.00186761
-0.000582673
0.00200965
-0.000570749
0.00214897
-0.00055974
0.00228576
-0.000549535
0.00242019
-0.000540047
0.00255242
-0.000531204
0.00268258
-0.00052296
-0.000515166
0.0028108
3.00336e-05
-0.000147408
0.00012755
-0.000485877
0.000269761
-0.000712873
0.0004333
-0.000822741
0.000603667
-0.000858953
0.000773743
-0.000858484
0.000940601
-0.000842644
0.00110331
-0.000821731
0.00126179
-0.00080015
0.00141625
-0.00077957
0.00156699
-0.000760494
0.00171432
-0.000742967
0.00185852
-0.000726874
0.00199983
-0.000712061
0.00213847
-0.000698377
0.00227462
-0.000685683
0.00240844
-0.000673866
0.00254007
-0.00066283
0.00266963
-0.00065252
-0.00064279
0.00279725
3.0493e-05
-0.000177901
0.000128281
-0.000583665
0.000270168
-0.000854759
0.000432838
-0.000985411
0.000601994
-0.00102811
0.000770702
-0.00102719
0.000936158
-0.0010081
0.0010975
-0.000983075
0.00125468
-0.000957328
0.00140792
-0.000932814
0.00155754
-0.00091011
0.00170383
-0.000889257
0.00184707
-0.000870113
0.0019875
-0.000852489
0.00212531
-0.000836192
0.00226069
-0.000821057
0.00239377
-0.00080695
0.00252469
-0.00079375
0.00265356
-0.000781388
-0.000769737
0.0027805
3.10409e-05
-0.000208942
0.00012913
-0.000681755
0.000270591
-0.00099622
0.000432187
-0.00114701
0.000599867
-0.00119579
0.000766914
-0.00119424
0.000930674
-0.00117186
0.00109037
-0.00114277
0.00124598
-0.00111294
0.00139776
-0.0010846
0.00154603
-0.00105838
0.00169108
-0.00103431
0.00183318
-0.00101222
0.00197256
-0.000991871
0.00210942
-0.000973048
0.00224392
-0.000955551
0.00237618
-0.000939213
0.00250632
-0.000923888
0.00263442
-0.000909494
-0.000895951
0.00276064
3.16632e-05
-0.000240605
0.000130067
-0.000780159
0.000270989
-0.00113714
0.000431292
-0.00130731
0.000597215
-0.00136171
0.000762302
-0.00135933
0.000924064
-0.00133362
0.00108182
-0.00130052
0.0012356
-0.00126672
0.00138567
-0.00123467
0.00153236
-0.00120506
0.00167596
-0.00117791
0.00181675
-0.001153
0.00195494
-0.00113006
0.00209072
-0.00110883
0.00222424
-0.00108907
0.00235561
-0.00107058
0.00248493
-0.0010532
0.00261225
-0.00103682
-0.00102143
0.00273774
3.23485e-05
-0.000272953
0.000131058
-0.000878868
0.000271304
-0.00127739
0.000430083
-0.00146609
0.000593963
-0.00152559
0.000756777
-0.00152214
0.000916231
-0.00149307
0.00107175
-0.00145604
0.00122341
-0.00141838
0.00137151
-0.00138277
0.00151638
-0.00134993
0.00165833
-0.00131986
0.00179763
-0.0012923
0.00193448
-0.00126692
0.00206907
-0.00124342
0.00220154
-0.00122154
0.00233199
-0.00120103
0.00246049
-0.0011817
0.00258707
-0.0011634
-0.00114624
0.00271188
3.30862e-05
-0.000306039
0.000132073
-0.000977855
0.000271487
-0.0014168
0.000428488
-0.00162309
0.000590022
-0.00168713
0.000750244
-0.00168236
0.000907069
-0.0016499
0.00106003
-0.00160901
0.00120928
-0.00156763
0.00135514
-0.00152863
0.00149794
-0.00149274
0.00163801
-0.00145993
0.00177561
-0.0014299
0.00191097
-0.00140228
0.00204427
-0.00137672
0.00217564
-0.00135291
0.00230516
-0.00133056
0.00243288
-0.00130942
0.00255882
-0.00128933
-0.00127053
0.0026831
3.38713e-05
-0.000339911
0.000133086
-0.00107707
0.000271486
-0.0015552
0.000426434
-0.00177804
0.000585303
-0.001846
0.000742599
-0.00183966
0.000896463
-0.00180376
0.00104656
-0.0017591
0.00119308
-0.00171416
0.00133639
-0.00167194
0.00147684
-0.00163319
0.00161477
-0.00159786
0.00175046
-0.00156559
0.00188415
-0.00153597
0.00201603
-0.0015086
0.00214623
-0.00148311
0.00227484
-0.00145917
0.00240189
-0.00143647
0.00252738
-0.00141481
-0.00139458
0.00265142
3.46918e-05
-0.000374602
0.000134059
-0.00117644
0.000271239
-0.00169238
0.000423842
-0.00193064
0.000579712
-0.00200187
0.000733742
-0.00199369
0.000884304
-0.00195433
0.00103118
-0.00190598
0.00117465
-0.00185762
0.00131508
-0.00181237
0.00145286
-0.00177098
0.00158836
-0.00173335
0.00172186
-0.00169909
0.00185364
-0.00166775
0.00198393
-0.00163888
0.00211287
-0.00161205
0.00224059
-0.00158688
0.00236711
-0.001563
0.00249242
-0.00154012
-0.00151879
0.00261664
3.55271e-05
-0.00041013
0.000134941
-0.00127585
0.000270672
-0.00182811
0.000420625
-0.00208059
0.000573162
-0.0021544
0.000723577
-0.0021441
0.000870485
-0.00210123
0.0010138
-0.00204929
0.00115384
-0.00199766
0.00129102
-0.00194955
0.00142577
-0.00190573
0.00155846
-0.00186603
0.00168942
-0.00183006
0.00181898
-0.00179731
0.0019474
-0.0017673
0.00207492
-0.00173957
0.00220169
-0.00171365
0.00232781
-0.00168911
0.00245327
-0.00166559
-0.00164371
0.00257819
3.63549e-05
-0.000446484
0.00013568
-0.00137518
0.00026971
-0.00196214
0.000416703
-0.00222759
0.000565569
-0.00230327
0.000712022
-0.00229056
0.000854921
-0.00224413
0.000994297
-0.00218867
0.00113053
-0.00213389
0.00126407
-0.00208309
0.00139534
-0.002037
0.00152476
-0.00199545
0.00165272
-0.00195802
0.00177959
-0.00192418
0.00190573
-0.00189344
0.00203147
-0.00186531
0.00215708
-0.00183927
0.00228279
-0.00181482
0.0024087
-0.00179149
-0.00176991
0.0025349
3.7155e-05
-0.000483639
0.000136227
-0.00147425
0.00026829
-0.00209421
0.000412006
-0.0023713
0.000556871
-0.00244814
0.000699026
-0.00243271
0.000837567
-0.00238267
0.000972638
-0.00232374
0.00110466
-0.00226592
0.0012341
-0.00221253
0.0013614
-0.0021643
0.00148701
-0.00212106
0.00161135
-0.00208236
0.00173487
-0.0020477
0.00185803
-0.00201661
0.00198131
-0.00198859
0.00210519
-0.00196315
0.00223014
-0.00193976
0.00235651
-0.00191786
-0.00189776
0.00248436
3.79075e-05
-0.000521547
0.000136539
-0.00157288
0.000266357
-0.00222402
0.000406486
-0.00251143
0.000547034
-0.00258868
0.00068457
-0.00257025
0.000818421
-0.00251652
0.000948824
-0.00245414
0.00107623
-0.00239332
0.0012011
-0.0023374
0.00132389
-0.00228709
0.00144503
-0.0022422
0.001565
-0.00220232
0.00168428
-0.00216698
0.00180343
-0.00213576
0.0019231
-0.00210826
0.00204402
-0.00208408
0.00216706
-0.0020628
0.00229302
-0.00204382
-0.00202675
0.00242201
3.85945e-05
-0.000560142
0.000136578
-0.00167086
0.000263871
-0.00235132
0.000400117
-0.00264768
0.000536055
-0.00272462
0.000668683
-0.00270288
0.00079754
-0.00264538
0.00092294
-0.00257954
0.00104534
-0.00251572
0.00116519
-0.00245725
0.00128289
-0.0024048
0.00139888
-0.00235819
0.00151359
-0.00231703
0.00162752
-0.00228092
0.00174128
-0.00224952
0.00185561
-0.00222259
0.00197146
-0.00219992
0.00209006
-0.0021814
0.00221269
-0.00216646
-0.00215386
0.0023398
3.91997e-05
-0.000599341
0.000136316
-0.00176798
0.000260809
-0.00247581
0.000392895
-0.00277976
0.000523965
-0.00285569
0.000651437
-0.00283035
0.000775047
-0.00276899
0.000895165
-0.00269966
0.00101223
-0.00263279
0.00112665
-0.00257166
0.00123876
-0.0025169
0.00134889
-0.00246832
0.0014574
-0.00242553
0.00156469
-0.00238821
0.00167129
-0.00235612
0.00177787
-0.00232917
0.00188538
-0.00230744
0.00199506
-0.00229107
0.0021081
-0.00227951
-0.00227082
0.00222507
3.97093e-05
-0.00063905
0.000135733
-0.001864
0.000257161
-0.00259724
0.000384842
-0.00290744
0.000510829
-0.00298168
0.000632951
-0.00295247
0.000751126
-0.00288717
0.000865766
-0.0028143
0.000977284
-0.00274431
0.001086
-0.00268038
0.00119216
-0.00262306
0.00129595
-0.00257211
0.00139753
-0.00252711
0.00149704
-0.00248772
0.00159464
-0.00245372
0.00169058
-0.00242511
0.0017853
-0.00240216
0.00187944
-0.0023852
0.0019736
-0.00237367
-0.00236469
0.00206746
4.01134e-05
-0.000679164
0.000134818
-0.00195871
0.000252937
-0.00271536
0.000375999
-0.00303051
0.000496732
-0.00310241
0.000613368
-0.0030691
0.000725995
-0.00299979
0.000835062
-0.00292336
0.00094095
-0.0028502
0.00104391
-0.00278334
0.00114408
-0.00272324
0.00124151
-0.00266954
0.00133615
-0.00262175
0.00142782
-0.00257938
0.00151616
-0.00254206
0.00160059
-0.00250955
0.00168019
-0.00248176
0.00175357
-0.00245859
0.00182013
-0.00244023
-0.00243253
0.00188797
4.04227e-05
-0.000719587
0.000133599
-0.00205188
0.000248185
-0.00282994
0.000366447
-0.00314877
0.000481797
-0.00321776
0.000592861
-0.00318017
0.000699893
-0.00310683
0.000803379
-0.00302685
0.00090368
-0.0029505
0.001001
-0.00288066
0.00109543
-0.00281766
0.00118694
-0.00276106
0.0012754
-0.00271022
0.00136054
-0.00266452
0.00144187
-0.00262339
0.00151855
-0.00258623
0.00158915
-0.00255235
0.0016516
-0.00252104
0.00170406
-0.00249269
-0.0024687
0.00174024
4.06082e-05
-0.000760195
0.000132032
-0.00214331
0.000242875
-0.00294079
0.000356183
-0.00326208
0.000466056
-0.00332763
0.000571507
-0.00328562
0.00067295
-0.00320827
0.000770914
-0.00312481
0.000865751
-0.00304534
0.00095765
-0.00297256
0.00104668
-0.00290669
0.00113281
-0.00284719
0.00121595
-0.00279335
0.00129591
-0.00274448
0.00137242
-0.00269991
0.00144518
-0.00265898
0.00151387
-0.00262105
0.00157835
-0.00258552
0.0016379
-0.00255224
-0.00252236
0.00169156
4.06832e-05
-0.000800878
0.000130149
-0.00223277
0.000237056
-0.00304769
0.000345278
-0.0033703
0.000449605
-0.00343196
0.000549428
-0.00338544
0.000645316
-0.00330416
0.000737842
-0.00321734
0.000827364
-0.00313486
0.000914071
-0.00305927
0.000998038
-0.00299066
0.00107927
-0.00292842
0.0011577
-0.00287179
0.00123323
-0.00282001
0.0013057
-0.00277237
0.00137491
-0.0027282
0.00144069
-0.00268682
0.00150284
-0.00264767
0.00156135
-0.00261075
-0.00257815
0.00161713
4.06473e-05
-0.000841525
0.000127956
-0.00232008
0.00023075
-0.00315049
0.00033377
-0.00347332
0.000432497
-0.00353069
0.00052669
-0.00347963
0.000617065
-0.00339453
0.00070424
-0.00330451
0.000788588
-0.00321921
0.000870306
-0.00314099
0.000949496
-0.00306985
0.0010262
-0.00300512
0.00110043
-0.00294602
0.00117218
-0.00289176
0.00124144
-0.00284164
0.00130825
-0.002795
0.00137265
-0.00275122
0.00143479
-0.00270982
0.00149501
-0.00267097
-0.00263702
0.00155388
4.05001e-05
-0.000882025
0.000125457
-0.00240504
0.000223969
-0.003249
0.000321681
-0.00357103
0.000414762
-0.00362377
0.000503324
-0.0035682
0.000588223
-0.00347943
0.00067012
-0.00338641
0.000749401
-0.00329849
0.000826279
-0.00321786
0.000900878
-0.00314445
0.000973279
-0.00307752
0.00104355
-0.00301628
0.00111174
-0.00295996
0.00117795
-0.00290784
0.00124226
-0.00285931
0.00130486
-0.00281382
0.00136598
-0.00277095
0.00142602
-0.002731
-0.00269632
0.00148532
4.02402e-05
-0.000922265
0.000122654
-0.00248745
0.000216721
-0.00334307
0.000309023
-0.00366333
0.000396412
-0.00371116
0.000479339
-0.00365112
0.000558786
-0.00355888
0.000635451
-0.00346308
0.000709732
-0.00337277
0.000781856
-0.00328999
0.000851967
-0.00321456
0.000920175
-0.00314573
0.000986583
-0.00308269
0.0010513
-0.00302467
0.00111446
-0.002971
0.00117621
-0.00292107
0.00123676
-0.00287437
0.00129637
-0.00283056
0.00135538
-0.00279001
-0.00275499
0.00141405
3.98658e-05
-0.000962131
0.000119545
-0.00256713
0.000209005
-0.00343253
0.000295798
-0.00375012
0.000377446
-0.00379281
0.000454723
-0.0037284
0.000528723
-0.00363288
0.000600174
-0.00353453
0.000669482
-0.00344208
0.000736881
-0.00335739
0.000802527
-0.0032802
0.000866549
-0.00320975
0.000929073
-0.00314522
0.00099023
-0.00308583
0.00105017
-0.00303093
0.00110906
-0.00297995
0.0011671
-0.00293241
0.00122455
-0.00288801
0.00128169
-0.00284714
-0.00281201
0.0013387
3.93748e-05
-0.00100151
0.000116127
-0.00264388
0.000200821
-0.00351722
0.000282002
-0.00383131
0.000357856
-0.00386866
0.000429455
-0.0038
0.000497994
-0.00370142
0.000564222
-0.00360076
0.000628546
-0.0035064
0.000691202
-0.00342004
0.000752351
-0.00334135
0.00081213
-0.00326953
0.000870673
-0.00320376
0.000928118
-0.00314328
0.000984613
-0.00308743
0.00104033
-0.00303567
0.00109544
-0.00298753
0.00115019
-0.00294276
0.0012048
-0.00290175
-0.00286663
0.00125942
3.87639e-05
-0.00104027
0.000112394
-0.00271751
0.00019216
-0.00359698
0.000267627
-0.00390677
0.000337626
-0.00393866
0.000403511
-0.00386588
0.00046656
-0.00376447
0.000527534
-0.00366173
0.000586836
-0.00356571
0.000644697
-0.0034779
0.000701276
-0.00339793
0.000756711
-0.00332497
0.000811132
-0.00325818
0.000864674
-0.00319682
0.000917478
-0.00314023
0.000969695
-0.00308788
0.00102149
-0.00303933
0.00107306
-0.00299433
0.00112461
-0.0029533
-0.00291828
0.00117627
3.80287e-05
-0.0010783
0.000108339
-0.00278782
0.000183015
-0.00367166
0.000252664
-0.00397642
0.000316745
-0.00400274
0.000376869
-0.00392601
0.000434386
-0.00382198
0.000490059
-0.0037174
0.000544281
-0.00361993
0.000597272
-0.00353089
0.000649186
-0.00344984
0.000700151
-0.00337593
0.000750292
-0.00330832
0.000799731
-0.00324626
0.000848598
-0.0031891
0.000897024
-0.00313631
0.000945157
-0.00308746
0.000993165
-0.00304233
0.00104123
-0.00300137
-0.0029665
0.00108945
3.71641e-05
-0.00111546
0.000103954
-0.00285461
0.00017338
-0.00374109
0.000237107
-0.00404015
0.000295204
-0.00406084
0.000349516
-0.00398032
0.00040145
-0.00387392
0.000451764
-0.00376772
0.000500835
-0.003669
0.00054887
-0.00357893
0.00059601
-0.00349698
0.000642373
-0.0034223
0.000688071
-0.00335402
0.000733214
-0.0032914
0.000777914
-0.0032338
0.000822287
-0.00318068
0.00086646
-0.00313163
0.000910582
-0.00308646
0.000954816
-0.0030456
-0.00301094
0.00099925
3.6165e-05
-0.00115163
9.92332e-05
-0.00291768
0.00016325
-0.0038051
0.000220954
-0.00409785
0.000272999
-0.00411288
0.000321447
-0.00402877
0.000367743
-0.00392021
0.000412634
-0.00381261
0.000456479
-0.00371284
0.000499466
-0.00362192
0.000541722
-0.00353924
0.00058335
-0.00346393
0.00062445
-0.00339512
0.000665117
-0.00333207
0.000705446
-0.00327413
0.000745536
-0.00322077
0.000785499
-0.00317159
0.000825468
-0.00312643
0.000865591
-0.00308573
-0.00305129
0.000905947
3.50273e-05
-0.00118665
9.4172e-05
-0.00297683
0.000152625
-0.00386356
0.000204208
-0.00414944
0.000250138
-0.00415881
0.000292668
-0.0040713
0.000333271
-0.00396081
0.000372676
-0.00385201
0.000411217
-0.00375138
0.000449065
-0.00365976
0.000486329
-0.0035765
0.0005231
-0.0035007
0.000559459
-0.00343148
0.000595488
-0.0033681
0.000631267
-0.00330991
0.000666879
-0.00325639
0.000702422
-0.00320714
0.000738019
-0.00316202
0.000773806
-0.00312151
-0.00308734
0.000809851
3.3748e-05
-0.0012204
8.87696e-05
-0.00303185
0.000141509
-0.00391629
0.00018688
-0.00419481
0.000226635
-0.00419857
0.000263196
-0.00410786
0.000298052
-0.00399567
0.000331909
-0.00388587
0.000365075
-0.00378455
0.000397699
-0.00369239
0.000429873
-0.00360868
0.000461673
-0.0035325
0.000493165
-0.00346297
0.000524416
-0.00339935
0.000555491
-0.00334098
0.000586462
-0.00328736
0.000617414
-0.00323809
0.00064846
-0.00319307
0.000679727
-0.00315278
-0.00311889
0.000711276
3.23253e-05
-0.00125273
8.30278e-05
-0.00308255
0.000129912
-0.00396318
0.000168985
-0.00423388
0.000202511
-0.00423209
0.000233058
-0.00413841
0.000262119
-0.00402473
0.000290372
-0.00391412
0.000318096
-0.00381228
0.000345419
-0.00371971
0.000372417
-0.00363568
0.000399148
-0.00355923
0.000425665
-0.00348949
0.00045202
-0.0034257
0.000478266
-0.00336723
0.00050446
-0.00331355
0.000530681
-0.00326431
0.000557033
-0.00321942
0.000583635
-0.00317938
-0.00314579
0.00061054
3.07585e-05
-0.00128349
7.69517e-05
-0.00312874
0.000117848
-0.00400408
0.000150548
-0.00426658
0.000177798
-0.00425934
0.000202291
-0.0041629
0.000225516
-0.00404796
0.000248115
-0.00393672
0.00027034
-0.0038345
0.000292299
-0.00374167
0.000314047
-0.00365743
0.000335628
-0.00358081
0.000357081
-0.00351094
0.000378443
-0.00344706
0.000399756
-0.00338854
0.000421067
-0.00333486
0.000442446
-0.00328569
0.000463993
-0.00324097
0.000485816
-0.00320121
-0.00316794
0.00050796
2.90475e-05
-0.00131253
7.05492e-05
-0.00317025
0.000105337
-0.00403886
0.000131597
-0.00429284
0.000152533
-0.00428028
0.000170942
-0.00418131
0.000188296
-0.00406531
0.000205201
-0.00395363
0.000221883
-0.00385118
0.000238423
-0.00375821
0.000254863
-0.00367387
0.00027123
-0.00359717
0.000287548
-0.00352726
0.000303843
-0.00346336
0.000320143
-0.00340484
0.000336489
-0.00335121
0.000352943
-0.00330214
0.0003696
-0.00325763
0.000386559
-0.00321816
-0.00318523
0.000403854
2.71938e-05
-0.00133973
6.38313e-05
-0.00320688
9.24001e-05
-0.00406743
0.000112168
-0.00431261
0.000126762
-0.00429487
0.000139064
-0.00419361
0.000150522
-0.00407677
0.000161705
-0.00396481
0.000172808
-0.00386229
0.000183892
-0.0037693
0.00019498
-0.00368495
0.000206085
-0.00360828
0.000217217
-0.00353839
0.000228389
-0.00347453
0.000239619
-0.00341607
0.000250941
-0.00336253
0.000262411
-0.00331361
0.000274119
-0.00326933
0.000286153
-0.0032302
-0.00319761
0.000298535
2.51998e-05
-0.00136493
5.68116e-05
-0.0032385
7.90658e-05
-0.00408969
9.22986e-05
-0.00432584
0.000100532
-0.00430311
0.000106715
-0.00419979
0.000112263
-0.00408231
0.000117706
-0.00397025
0.000123208
-0.00386779
0.000128812
-0.0037749
0.000134521
-0.00369066
0.000140332
-0.00361409
0.000146245
-0.0035443
0.000152258
-0.00348054
0.000158383
-0.0034222
0.000164642
-0.00336879
0.00017109
-0.00332006
0.00017781
-0.00327605
0.00018488
-0.00323727
-0.00320504
0.000192308
2.30693e-05
-0.001388
4.95065e-05
-0.00326493
6.53636e-05
-0.00410554
7.20308e-05
-0.00433251
7.38963e-05
-0.00430497
7.39576e-05
-0.00419986
7.35916e-05
-0.00408195
7.32885e-05
-0.00396995
7.31832e-05
-0.00386768
7.32952e-05
-0.00377501
7.36124e-05
-0.00369098
7.41176e-05
-0.0036146
7.47952e-05
-0.00354498
7.56347e-05
-0.00348138
7.66349e-05
-0.0034232
7.78144e-05
-0.00336997
7.92215e-05
-0.00332147
8.09324e-05
-0.00327776
8.30155e-05
-0.00323935
-0.00320749
8.54612e-05
2.0824e-05
-0.00140882
4.19607e-05
-0.00328607
5.1355e-05
-0.00411494
5.14373e-05
-0.00433259
4.69361e-05
-0.00430047
4.08817e-05
-0.0041938
3.4608e-05
-0.00407568
2.85633e-05
-0.0039639
2.28536e-05
-0.00386197
1.74773e-05
-0.00376963
1.24056e-05
-0.00368591
7.60662e-06
-0.0036098
3.0518e-06
-0.00354042
-1.28136e-06
-0.00347705
-5.4033e-06
-0.00341907
-9.30259e-06
-0.00336607
-1.29369e-05
-0.00331783
-1.62373e-05
-0.00327446
-1.91481e-05
-0.00323644
-0.00320494
-2.16976e-05
1.8441e-05
-0.00142726
3.41459e-05
-0.00330177
3.70189e-05
-0.00411781
3.05088e-05
-0.00432608
1.96545e-05
-0.00428962
7.50361e-06
-0.00418165
-4.65825e-06
-0.00406351
-1.64251e-05
-0.00395214
-2.77196e-05
-0.00385068
-3.8564e-05
-0.00375879
-4.90035e-05
-0.00367547
-5.90846e-05
-0.00359972
-6.88492e-05
-0.00353066
-7.83314e-05
-0.00346757
-8.75512e-05
-0.00340985
-9.65047e-05
-0.00335712
-0.000105156
-0.00330918
-0.000113444
-0.00326618
-0.000121328
-0.00322856
-0.00319741
-0.000128856
1.5942e-05
-0.0014432
2.61069e-05
-0.00331194
2.24171e-05
-0.00411412
9.31859e-06
-0.00431298
-7.86645e-06
-0.00427243
-2.60866e-05
-0.00416343
-4.41082e-05
-0.00404549
-6.15678e-05
-0.00393468
-7.8416e-05
-0.00383383
-9.46953e-05
-0.00374251
-0.000110467
-0.0036597
-0.000125792
-0.00358439
-0.000140727
-0.00351573
-0.000155316
-0.00345298
-0.00016959
-0.00339558
-0.000183553
-0.00334315
-0.000197176
-0.00329556
-0.000210407
-0.00325294
-0.000223223
-0.00321574
-0.00318494
-0.000235694
1.33342e-05
-0.00145654
1.78655e-05
-0.00331647
7.58494e-06
-0.00410384
-1.20877e-05
-0.00429331
-3.55724e-05
-0.00424895
-5.9826e-05
-0.00413918
-8.36697e-05
-0.00402165
-0.000106782
-0.00391157
-0.000129141
-0.00381147
-0.000150807
-0.00372084
-0.00017186
-0.00363864
-0.000192374
-0.00356388
-0.000212419
-0.00349568
-0.000232054
-0.00343335
-0.000251317
-0.00337632
-0.000270223
-0.00332425
-0.000288752
-0.00327703
-0.000306862
-0.00323483
-0.000324548
-0.00319806
-0.00316758
-0.000341904
1.06252e-05
-0.00146716
9.44299e-06
-0.00331529
-7.44439e-06
-0.00408695
-3.36673e-05
-0.00426709
-6.34127e-05
-0.0042192
-9.36562e-05
-0.00410893
-0.000123276
-0.00399203
-0.00015199
-0.00388285
-0.000179805
-0.00378366
-0.000206799
-0.00369385
-0.000233066
-0.00361238
-0.000258697
-0.00353825
-0.000283775
-0.0034706
-0.000308371
-0.00340875
-0.000332538
-0.00335215
-0.000356299
-0.00330049
-0.000379643
-0.00325369
-0.000402544
-0.00321193
-0.000425014
-0.00317559
-0.00314542
-0.000447176
7.82253e-06
-0.00147499
8.59565e-07
-0.00330833
-2.26395e-05
-0.00406345
-5.53808e-05
-0.00423435
-9.13415e-05
-0.00418324
-0.000127525
-0.00407275
-0.000162867
-0.00395669
-0.000197126
-0.00384859
-0.000230331
-0.00375045
-0.000262579
-0.0036616
-0.00029398
-0.00358098
-0.000324638
-0.00350759
-0.000354651
-0.00344059
-0.000384104
-0.0033793
-0.000413064
-0.00332319
-0.000441565
-0.00327198
-0.00046961
-0.00322564
-0.000497187
-0.00318436
-0.000524331
-0.00314844
-0.00311855
-0.000551195
4.93348e-06
-0.00147992
-7.86564e-06
-0.00329553
-3.79718e-05
-0.00403335
-7.7193e-05
-0.00419512
-0.000119318
-0.00414112
-0.000161387
-0.00403068
-0.000202392
-0.00391568
-0.00024213
-0.00380885
-0.000280653
-0.00371193
-0.000318072
-0.00362418
-0.000354511
-0.00354454
-0.00039009
-0.00347201
-0.000424921
-0.00340576
-0.000459104
-0.00334511
-0.000492719
-0.00328958
-0.000525818
-0.00323889
-0.000558419
-0.00319304
-0.000590527
-0.00315225
-0.000622204
-0.00311677
-0.00308712
-0.000653637
1.96514e-06
-0.00148188
-1.67149e-05
-0.00327685
-5.34154e-05
-0.00399665
-9.90733e-05
-0.00414947
-0.00014731
-0.00409288
-0.000195207
-0.00398278
-0.000241813
-0.00386908
-0.000286961
-0.00376371
-0.000330722
-0.00366817
-0.000373221
-0.00358168
-0.000414593
-0.00350316
-0.000454971
-0.00343163
-0.000494482
-0.00336625
-0.000533242
-0.00330635
-0.000571347
-0.00325147
-0.000608869
-0.00320136
-0.000645844
-0.00315607
-0.000682303
-0.00311579
-0.000718337
-0.00308073
-0.00305129
-0.00075417
-1.07571e-06
-0.00148081
-2.56722e-05
-0.00325225
-6.89477e-05
-0.00395337
-0.000120996
-0.00409742
-0.000175289
-0.00403859
-0.000228956
-0.00392912
-0.000281102
-0.00381693
-0.000331591
-0.00371322
-0.000380509
-0.00361925
-0.000427992
-0.0035342
-0.000474185
-0.00345697
-0.000519229
-0.00338659
-0.000563263
-0.00332221
-0.00060642
-0.0032632
-0.000648815
-0.00320907
-0.000690544
-0.00315964
-0.000731672
-0.00311494
-0.000772259
-0.0030752
-0.000812433
-0.00304056
-0.00301126
-0.000852461
-4.18298e-06
-0.00147663
-3.47228e-05
-0.00322171
-8.4549e-05
-0.00390355
-0.000142938
-0.00403903
-0.000203233
-0.00397829
-0.000262615
-0.00386973
-0.000320244
-0.0037593
-0.000376009
-0.00365745
-0.000430008
-0.00356525
-0.000482384
-0.00348182
-0.000533283
-0.00340607
-0.000582852
-0.00333702
-0.000631238
-0.00327383
-0.000678585
-0.00321585
-0.000725034
-0.00316263
-0.000770708
-0.00311396
-0.000815712
-0.00306993
-0.00086015
-0.00303076
-0.000904201
-0.00299651
-0.00296729
-0.000948175
-7.35094e-06
-0.00146927
-4.38536e-05
-0.00318521
-0.000100201
-0.0038472
-0.000164882
-0.00397435
-0.000231127
-0.00391205
-0.000296174
-0.00380469
-0.000359235
-0.00369624
-0.000420223
-0.00359646
-0.000479241
-0.00350623
-0.000536431
-0.00342463
-0.000591933
-0.00335057
-0.00064589
-0.00328306
-0.000698448
-0.00322127
-0.00074976
-0.00316454
-0.000799985
-0.0031124
-0.000849287
-0.00306466
-0.000897827
-0.00302139
-0.000945778
-0.00298281
-0.000993386
-0.0029489
-0.00291966
-0.00104101
-1.05741e-05
-0.0014587
-5.30515e-05
-0.00314273
-0.000115886
-0.00378436
-0.000186808
-0.00390343
-0.000258955
-0.0038399
-0.000329625
-0.00373402
-0.000398082
-0.00362778
-0.000464257
-0.00353029
-0.000528256
-0.00344224
-0.000590208
-0.00336268
-0.000650239
-0.00329054
-0.000708472
-0.00322483
-0.000765037
-0.00316471
-0.00082008
-0.00310949
-0.000873775
-0.00305871
-0.000926335
-0.0030121
-0.000978004
-0.00296972
-0.00102906
-0.00293175
-0.00107987
-0.00289809
-0.00286869
-0.00113084
-1.3847e-05
-0.00144485
-6.23028e-05
-0.00309427
-0.000131585
-0.00371508
-0.000208696
-0.00382632
-0.000286698
-0.0037619
-0.00036296
-0.00365776
-0.000436793
-0.00355395
-0.000508147
-0.00345893
-0.000577123
-0.00337326
-0.000643832
-0.00329597
-0.000708372
-0.003226
-0.000770828
-0.00316237
-0.000831289
-0.00310424
-0.000889868
-0.00305092
-0.000946737
-0.00300184
-0.00100216
-0.00295668
-0.0010565
-0.00291538
-0.00111023
-0.00287802
-0.00116388
-0.00284443
-0.00281464
-0.00121793
-1.71633e-05
-0.00142769
-7.1591e-05
-0.00303985
-0.000147273
-0.0036394
-0.000230517
-0.00374307
-0.000314331
-0.00367808
-0.00039616
-0.00357593
-0.000475367
-0.00347474
-0.000551922
-0.00338238
-0.00062592
-0.00329926
-0.00069745
-0.00322444
-0.000766571
-0.00315688
-0.000833309
-0.00309563
-0.000897682
-0.00303987
-0.000959729
-0.00298887
-0.00101958
-0.00294199
-0.00107752
-0.00289873
-0.00113409
-0.00285881
-0.00119005
-0.00282207
-0.00124624
-0.00278825
-0.00275771
-0.00130316
-2.05151e-05
-0.00140718
-8.08952e-05
-0.00297947
-0.000162918
-0.00355738
-0.00025223
-0.00365376
-0.00034181
-0.0035885
-0.000429186
-0.00348855
-0.000513781
-0.00339015
-0.000595589
-0.00330057
-0.000674707
-0.00322014
-0.000751207
-0.00314794
-0.000825109
-0.00308298
-0.000896373
-0.00302437
-0.000964917
-0.00297133
-0.00103066
-0.00292313
-0.00109361
-0.00287903
-0.00115404
-0.0028383
-0.00121263
-0.00280023
-0.00127052
-0.00276417
-0.00132898
-0.00272979
-0.0026981
-0.0013886
-2.3892e-05
-0.00138328
-9.01883e-05
-0.00291317
-0.000178475
-0.00346909
-0.00027378
-0.00355845
-0.000369068
-0.00349322
-0.000461966
-0.00339565
-0.000551965
-0.00330015
-0.000639095
-0.00321344
-0.000723473
-0.00313577
-0.000805177
-0.00306624
-0.00088421
-0.00300394
-0.000960487
-0.00294809
-0.00103384
-0.00289798
-0.00110404
-0.00285293
-0.00117092
-0.00281215
-0.00123462
-0.00277461
-0.00129585
-0.00273899
-0.00135617
-0.00270385
-0.00141728
-0.00266868
-0.00263542
-0.00147996
-2.72806e-05
-0.001356
-9.94358e-05
-0.00284102
-0.000193892
-0.00337463
-0.000295091
-0.00345726
-0.00039601
-0.0033923
-0.000494385
-0.00329728
-0.000589785
-0.00320475
-0.000682296
-0.00312093
-0.00077208
-0.00304598
-0.00085926
-0.00297906
-0.00094388
-0.00291932
-0.00102589
-0.00286608
-0.0011051
-0.00281876
-0.00118125
-0.00277678
-0.00125401
-0.00273939
-0.0013233
-0.00270533
-0.00138977
-0.00267252
-0.00145515
-0.00263847
-0.00152137
-0.00260247
-0.00256758
-0.0015892
-3.06644e-05
-0.00132534
-0.000108596
-0.00276308
-0.000209098
-0.00327413
-0.000316068
-0.00335029
-0.00042251
-0.00328585
-0.000526278
-0.00319351
-0.00062703
-0.003104
-0.000724923
-0.00302304
-0.000820194
-0.00295071
-0.000913056
-0.0028862
-0.00100368
-0.0028287
-0.00109215
-0.00277761
-0.00117848
-0.00273243
-0.00126255
-0.00269271
-0.00134413
-0.00265781
-0.00142309
-0.00262637
-0.00149985
-0.00259575
-0.00157572
-0.00256259
-0.00165191
-0.00252628
-0.00249068
-0.00172882
-3.40246e-05
-0.00129131
-0.000117623
-0.00267948
-0.000224021
-0.00316773
-0.000336603
-0.0032377
-0.000448421
-0.00317404
-0.000557443
-0.00308449
-0.000663421
-0.00299802
-0.000766586
-0.00291987
-0.000867262
-0.00285004
-0.000965783
-0.00278767
-0.00106249
-0.002732
-0.00115773
-0.00268237
-0.00125186
-0.0026383
-0.00134521
-0.00259936
-0.00143802
-0.002565
-0.00153039
-0.002534
-0.00162247
-0.00250368
-0.0017142
-0.00247086
-0.00180454
-0.00243594
-0.00239804
-0.00189718
-3.73414e-05
-0.00125397
-0.000126468
-0.00259036
-0.000238581
-0.00305562
-0.000356588
-0.0031197
-0.000473589
-0.00305704
-0.000587669
-0.00297041
-0.000698657
-0.00288703
-0.000806843
-0.00281169
-0.000912617
-0.00274426
-0.0010164
-0.00268389
-0.00111865
-0.00262974
-0.00121993
-0.00258109
-0.0013209
-0.00253733
-0.00142232
-0.00249793
-0.00152498
-0.00246234
-0.00162941
-0.00242957
-0.00173553
-0.00239755
-0.00184306
-0.00236333
-0.00195259
-0.00232642
-0.00230112
-0.00204951
-4.05754e-05
-0.0012134
-0.000135055
-0.00249588
-0.000252677
-0.002938
-0.000375894
-0.00299648
-0.00049786
-0.00293507
-0.00061676
-0.00285151
-0.000732483
-0.00277131
-0.000845349
-0.00269882
-0.000955762
-0.00263385
-0.00106414
-0.00257551
-0.00117093
-0.00252295
-0.00127664
-0.00247539
-0.00138183
-0.00243214
-0.00148718
-0.00239258
-0.00159349
-0.00235604
-0.0017014
-0.00232165
-0.0018105
-0.00228845
-0.00191781
-0.00225602