1.45 	0 	0 	-0.318759
2.35 	0 	0 	-0.00760543
