/*--------------------------------*- C++ -*----------------------------------*\
  =========                 |
  \\      /  F ield         | OpenFOAM: The Open Source CFD Toolbox
   \\    /   O peration     | Website:  https://openfoam.org
    \\  /    A nd           | Version:  6.0
     \\/     M anipulation  |
\*---------------------------------------------------------------------------*/
FoamFile
{
    version     2.0;
    format      ascii;
    class       volScalarField;
    location    "77";
    object      p;
}
// * * * * * * * * * * * * * * * * * * * * * * * * * * * * * * * * * * * * * //

dimensions      [0 2 -2 0 0 0 0];

internalField   nonuniform List<scalar> 
12500
(
-0.433563
-0.435162
-0.435944
-0.436245
-0.436301
-0.436191
-0.435985
-0.435742
-0.435498
-0.435277
-0.435095
-0.434959
-0.434876
-0.434849
-0.43488
-0.434973
-0.435126
-0.435337
-0.435599
-0.435908
-0.436264
-0.436655
-0.436938
-0.436999
-0.438151
-0.43052
-0.431672
-0.432167
-0.432248
-0.432097
-0.431791
-0.431397
-0.430975
-0.430568
-0.430205
-0.429906
-0.429687
-0.429557
-0.429525
-0.429596
-0.429774
-0.43006
-0.430451
-0.430941
-0.431521
-0.432193
-0.432941
-0.433624
-0.434111
-0.435699
-0.427741
-0.428454
-0.428668
-0.428536
-0.428188
-0.427694
-0.427121
-0.426528
-0.425962
-0.425456
-0.425037
-0.424725
-0.424535
-0.424479
-0.424565
-0.4248
-0.425185
-0.42572
-0.426398
-0.427211
-0.428156
-0.429221
-0.430268
-0.431147
-0.433131
-0.425148
-0.425444
-0.425391
-0.425056
-0.424521
-0.42385
-0.423104
-0.422344
-0.421618
-0.420966
-0.420419
-0.420001
-0.419733
-0.419629
-0.419704
-0.419964
-0.420414
-0.421055
-0.421882
-0.422886
-0.424064
-0.425405
-0.426776
-0.428013
-0.430354
-0.422671
-0.422587
-0.422286
-0.421761
-0.421051
-0.420209
-0.419296
-0.41837
-0.417482
-0.416676
-0.415988
-0.415448
-0.41508
-0.414905
-0.414937
-0.41519
-0.415669
-0.416377
-0.417312
-0.418465
-0.419834
-0.42141
-0.423066
-0.424623
-0.427281
-0.420253
-0.419835
-0.419313
-0.418614
-0.41774
-0.416736
-0.415659
-0.414565
-0.413509
-0.412538
-0.411694
-0.411011
-0.41052
-0.410244
-0.410204
-0.410414
-0.410884
-0.41162
-0.412621
-0.413882
-0.4154
-0.417168
-0.419069
-0.420911
-0.423849
-0.417849
-0.417153
-0.416439
-0.415585
-0.414559
-0.4134
-0.412161
-0.410897
-0.409664
-0.408515
-0.407497
-0.40665
-0.406009
-0.405603
-0.405456
-0.405587
-0.40601
-0.406733
-0.407759
-0.409085
-0.410711
-0.412631
-0.414736
-0.416826
-0.420011
-0.415428
-0.414515
-0.413644
-0.412656
-0.411491
-0.410184
-0.408783
-0.407345
-0.405926
-0.404586
-0.403374
-0.402339
-0.401521
-0.400953
-0.400665
-0.400681
-0.401017
-0.401687
-0.402696
-0.404045
-0.405736
-0.407767
-0.410038
-0.412344
-0.415746
-0.412974
-0.411908
-0.410917
-0.409815
-0.408526
-0.407078
-0.405517
-0.4039
-0.402286
-0.400738
-0.399315
-0.398068
-0.397045
-0.396285
-0.395822
-0.395685
-0.395896
-0.396471
-0.397422
-0.398753
-0.400469
-0.402572
-0.404971
-0.407462
-0.41106
-0.410483
-0.409329
-0.408256
-0.407062
-0.405663
-0.404081
-0.402362
-0.400562
-0.398744
-0.396976
-0.395323
-0.393842
-0.392588
-0.391607
-0.390937
-0.390612
-0.39066
-0.391102
-0.391954
-0.393225
-0.394926
-0.397063
-0.399556
-0.402206
-0.405988
-0.407962
-0.406786
-0.405667
-0.404404
-0.402908
-0.401201
-0.399325
-0.397339
-0.395311
-0.393312
-0.391414
-0.389682
-0.388176
-0.386947
-0.386041
-0.385497
-0.385347
-0.385618
-0.386332
-0.387505
-0.389151
-0.391285
-0.39384
-0.396627
-0.40059
-0.405434
-0.404296
-0.403165
-0.401853
-0.400274
-0.398449
-0.39642
-0.394249
-0.392006
-0.389771
-0.387619
-0.385622
-0.383847
-0.382352
-0.381187
-0.380397
-0.38002
-0.380087
-0.380628
-0.381664
-0.383218
-0.385313
-0.387895
-0.3908
-0.394951
-0.402928
-0.401883
-0.400773
-0.399429
-0.397779
-0.395844
-0.393667
-0.391312
-0.388857
-0.386383
-0.383974
-0.381708
-0.379657
-0.377884
-0.376446
-0.375392
-0.374765
-0.374603
-0.37494
-0.375804
-0.377229
-0.379247
-0.38182
-0.384817
-0.389164
-0.400487
-0.399583
-0.398519
-0.397159
-0.395448
-0.393409
-0.39109
-0.388559
-0.385896
-0.383189
-0.380528
-0.377996
-0.375671
-0.37362
-0.371906
-0.370581
-0.369693
-0.369285
-0.369394
-0.370058
-0.371318
-0.373217
-0.375736
-0.378783
-0.38332
-0.398163
-0.397437
-0.396438
-0.395073
-0.393309
-0.391175
-0.388721
-0.386022
-0.383162
-0.380235
-0.377335
-0.374551
-0.371964
-0.369648
-0.367667
-0.366078
-0.364931
-0.364272
-0.364142
-0.364583
-0.365644
-0.367378
-0.369781
-0.372809
-0.377494
-0.396016
-0.395493
-0.394572
-0.393208
-0.391397
-0.389174
-0.386596
-0.383741
-0.3807
-0.377573
-0.374456
-0.371443
-0.36862
-0.366063
-0.36384
-0.362008
-0.360619
-0.359719
-0.35935
-0.359557
-0.360389
-0.361906
-0.364114
-0.367006
-0.371736
-0.394116
-0.393808
-0.392969
-0.391607
-0.389753
-0.387448
-0.384756
-0.381761
-0.378562
-0.375259
-0.371955
-0.368747
-0.365724
-0.362964
-0.360535
-0.358496
-0.356897
-0.355781
-0.355189
-0.355158
-0.355737
-0.356982
-0.358893
-0.361482
-0.366072
-0.392537
-0.39244
-0.391679
-0.390318
-0.388421
-0.386041
-0.383248
-0.380134
-0.376801
-0.373355
-0.369901
-0.366539
-0.36336
-0.360443
-0.357857
-0.355657
-0.353892
-0.352598
-0.351807
-0.351546
-0.351852
-0.352764
-0.354262
-0.356335
-0.360511
-0.391356
-0.391452
-0.390756
-0.389389
-0.387451
-0.385002
-0.382123
-0.378912
-0.375475
-0.371921
-0.368359
-0.36489
-0.361606
-0.358585
-0.355894
-0.353587
-0.351703
-0.350273
-0.349312
-0.348832
-0.348843
-0.349361
-0.350319
-0.351637
-0.355059
-0.390649
-0.390903
-0.390253
-0.388871
-0.38689
-0.38438
-0.381432
-0.378148
-0.374638
-0.371016
-0.367389
-0.363861
-0.360523
-0.35745
-0.354708
-0.352343
-0.350388
-0.348857
-0.347751
-0.347055
-0.346746
-0.346801
-0.347097
-0.347436
-0.349736
-0.390488
-0.390852
-0.390221
-0.388811
-0.386784
-0.384221
-0.381219
-0.377887
-0.374337
-0.370684
-0.367036
-0.363495
-0.36015
-0.357074
-0.354326
-0.351945
-0.349951
-0.348345
-0.347103
-0.346182
-0.345519
-0.345045
-0.344578
-0.343769
-0.344619
-0.390932
-0.391346
-0.390702
-0.38925
-0.387172
-0.384562
-0.381522
-0.378164
-0.374604
-0.370955
-0.367324
-0.36381
-0.360498
-0.357456
-0.354735
-0.352365
-0.350351
-0.348676
-0.347294
-0.346127
-0.345074
-0.344019
-0.342726
-0.340701
-0.339873
-0.392027
-0.392423
-0.39173
-0.390216
-0.388081
-0.385427
-0.382361
-0.378998
-0.375453
-0.371836
-0.368252
-0.364795
-0.361544
-0.358561
-0.355886
-0.353537
-0.351507
-0.349758
-0.348219
-0.346785
-0.345312
-0.343636
-0.341482
-0.338227
-0.335574
-0.393803
-0.394109
-0.393327
-0.39173
-0.389527
-0.386828
-0.383744
-0.380388
-0.376875
-0.37331
-0.369793
-0.366412
-0.363238
-0.360323
-0.357698
-0.35537
-0.353317
-0.351488
-0.349794
-0.348105
-0.346243
-0.343988
-0.340984
-0.336419
-0.331719
-0.396273
-0.396415
-0.395501
-0.393797
-0.391512
-0.388761
-0.385659
-0.382317
-0.378843
-0.37534
-0.3719
-0.3686
-0.365505
-0.362655
-0.360072
-0.357753
-0.355668
-0.353761
-0.351945
-0.350096
-0.348055
-0.345608
-0.34234
-0.337216
-0.331417
-0.399434
-0.399342
-0.398253
-0.396413
-0.394026
-0.391212
-0.388084
-0.384753
-0.381319
-0.377877
-0.37451
-0.371287
-0.368259
-0.365458
-0.362895
-0.360559
-0.358418
-0.356421
-0.354499
-0.352573
-0.350571
-0.34844
-0.346131
-0.3438
-0.344967
-0.403271
-0.402881
-0.401573
-0.399568
-0.397054
-0.394158
-0.390992
-0.38766
-0.384257
-0.380866
-0.377561
-0.374396
-0.371413
-0.368631
-0.36605
-0.363654
-0.36141
-0.35927
-0.357183
-0.355101
-0.352993
-0.350869
-0.348775
-0.346915
-0.347553
-0.407763
-0.407016
-0.405449
-0.403246
-0.400579
-0.397578
-0.394354
-0.391005
-0.387616
-0.384258
-0.380992
-0.377859
-0.374886
-0.37208
-0.369431
-0.366916
-0.364499
-0.362141
-0.359799
-0.357444
-0.355064
-0.352678
-0.350334
-0.348109
-0.347266
-0.412886
-0.411734
-0.409869
-0.407435
-0.404585
-0.401454
-0.39815
-0.394762
-0.391364
-0.388015
-0.384757
-0.381618
-0.378609
-0.375722
-0.37294
-0.370231
-0.367561
-0.364892
-0.362192
-0.359441
-0.356632
-0.35378
-0.350911
-0.348031
-0.345867
-0.418618
-0.417019
-0.414821
-0.412125
-0.409065
-0.405778
-0.402369
-0.398918
-0.395484
-0.39211
-0.388821
-0.385627
-0.382522
-0.379487
-0.376492
-0.373504
-0.370488
-0.367413
-0.364255
-0.361003
-0.357656
-0.354225
-0.350726
-0.34714
-0.343879
-0.424944
-0.422863
-0.420301
-0.417316
-0.414018
-0.410551
-0.407012
-0.40347
-0.399968
-0.396529
-0.393159
-0.389848
-0.386575
-0.383307
-0.38001
-0.376649
-0.373193
-0.369622
-0.365922
-0.362094
-0.358144
-0.354091
-0.34995
-0.345707
-0.341607
-0.431854
-0.429262
-0.42631
-0.423012
-0.419454
-0.415783
-0.412089
-0.408426
-0.404816
-0.401262
-0.397748
-0.394245
-0.390716
-0.387122
-0.383425
-0.379594
-0.375609
-0.371462
-0.367155
-0.362702
-0.358124
-0.353446
-0.348693
-0.343859
-0.339106
-0.439346
-0.436216
-0.432853
-0.429224
-0.425387
-0.42149
-0.417615
-0.413795
-0.41003
-0.406299
-0.402565
-0.39878
-0.394897
-0.390873
-0.386674
-0.38228
-0.377685
-0.372897
-0.367939
-0.362837
-0.357628
-0.352346
-0.347025
-0.34167
-0.336399
-0.447422
-0.443731
-0.43994
-0.435964
-0.431834
-0.427691
-0.423605
-0.419585
-0.415606
-0.411623
-0.407577
-0.403407
-0.399062
-0.3945
-0.389699
-0.384655
-0.379382
-0.373909
-0.368272
-0.362517
-0.35669
-0.350835
-0.344991
-0.33917
-0.333466
-0.456082
-0.45181
-0.447578
-0.443246
-0.438808
-0.434398
-0.430066
-0.425794
-0.42153
-0.417204
-0.412741
-0.408073
-0.403151
-0.397944
-0.392448
-0.386681
-0.380678
-0.374488
-0.368164
-0.361765
-0.355343
-0.348947
-0.342619
-0.336375
-0.33029
-0.465327
-0.460452
-0.455771
-0.451077
-0.446319
-0.441616
-0.436995
-0.432406
-0.427771
-0.422998
-0.418002
-0.412716
-0.407101
-0.401148
-0.394876
-0.388327
-0.381558
-0.374637
-0.36763
-0.360604
-0.353614
-0.34671
-0.339931
-0.333295
-0.326859
-0.475148
-0.469654
-0.464518
-0.459457
-0.454363
-0.449337
-0.444372
-0.439388
-0.434281
-0.428943
-0.42329
-0.417263
-0.410847
-0.404058
-0.396942
-0.389569
-0.382015
-0.374363
-0.366687
-0.359057
-0.351529
-0.344147
-0.336945
-0.32994
-0.323171
-0.485525
-0.479398
-0.473805
-0.468372
-0.462925
-0.457534
-0.45216
-0.446688
-0.440993
-0.434965
-0.428526
-0.421641
-0.414323
-0.406622
-0.398614
-0.39039
-0.382047
-0.373674
-0.365351
-0.357145
-0.349107
-0.341275
-0.333674
-0.326318
-0.319228
-0.496427
-0.489657
-0.483608
-0.477798
-0.471972
-0.466165
-0.460299
-0.454232
-0.447825
-0.440973
-0.433622
-0.425769
-0.417465
-0.408794
-0.39986
-0.390777
-0.381652
-0.372579
-0.363635
-0.354882
-0.346362
-0.338106
-0.330129
-0.322437
-0.315038
-0.507805
-0.500389
-0.493885
-0.487689
-0.481452
-0.475165
-0.468712
-0.461929
-0.454676
-0.446867
-0.438484
-0.429568
-0.42021
-0.410528
-0.400655
-0.390717
-0.380828
-0.371081
-0.361546
-0.352276
-0.343303
-0.334647
-0.326314
-0.318302
-0.310607
-0.519593
-0.511534
-0.504581
-0.497986
-0.491294
-0.484448
-0.477299
-0.469669
-0.461432
-0.452539
-0.443018
-0.432959
-0.422497
-0.411784
-0.400972
-0.390196
-0.37957
-0.36918
-0.359086
-0.34933
-0.339931
-0.330899
-0.322231
-0.313913
-0.305939
-0.531708
-0.523015
-0.515618
-0.508605
-0.501404
-0.493908
-0.485942
-0.477328
-0.467973
-0.457877
-0.447125
-0.435864
-0.42427
-0.412522
-0.400786
-0.389199
-0.377868
-0.366869
-0.35625
-0.346037
-0.33624
-0.326856
-0.317873
-0.309267
-0.301031
-0.544048
-0.534739
-0.526904
-0.519447
-0.51167
-0.50342
-0.494505
-0.484769
-0.474167
-0.462764
-0.450712
-0.438211
-0.425474
-0.412703
-0.40007
-0.387706
-0.375709
-0.364137
-0.353026
-0.342388
-0.332219
-0.322506
-0.313231
-0.304355
-0.295878
-0.55649
-0.546592
-0.538323
-0.530388
-0.521958
-0.512838
-0.50284
-0.491847
-0.479882
-0.467088
-0.453685
-0.439926
-0.426056
-0.41229
-0.398795
-0.385695
-0.373071
-0.360965
-0.349397
-0.338364
-0.32785
-0.317835
-0.308289
-0.299162
-0.290468
-0.568897
-0.558442
-0.549743
-0.541288
-0.532116
-0.522004
-0.510788
-0.498412
-0.484985
-0.470737
-0.455957
-0.440943
-0.425965
-0.411241
-0.39693
-0.383139
-0.36993
-0.35733
-0.34534
-0.333943
-0.323114
-0.312822
-0.303029
-0.293671
-0.284786
-0.581111
-0.57014
-0.561012
-0.551986
-0.541975
-0.530746
-0.518181
-0.504311
-0.489345
-0.473603
-0.457442
-0.441197
-0.42515
-0.409516
-0.394439
-0.380006
-0.366259
-0.353205
-0.340828
-0.329101
-0.317985
-0.307443
-0.297428
-0.287863
-0.278813
-0.592961
-0.58152
-0.571961
-0.562306
-0.551354
-0.538883
-0.52485
-0.509394
-0.492835
-0.475585
-0.45806
-0.440624
-0.423561
-0.407074
-0.391287
-0.376264
-0.362025
-0.348558
-0.335833
-0.323808
-0.312436
-0.301672
-0.291461
-0.281713
-0.272529
-0.604263
-0.592404
-0.582409
-0.57206
-0.560062
-0.54623
-0.530625
-0.513514
-0.495335
-0.476588
-0.457737
-0.439164
-0.421149
-0.403872
-0.387435
-0.371877
-0.357194
-0.343358
-0.330322
-0.318034
-0.306438
-0.295483
-0.285104
-0.275197
-0.265909
-0.614821
-0.602598
-0.592159
-0.581049
-0.5679
-0.552602
-0.535342
-0.516533
-0.496733
-0.476521
-0.456402
-0.436762
-0.417865
-0.399868
-0.382844
-0.366806
-0.351731
-0.33757
-0.324264
-0.31175
-0.299963
-0.288848
-0.278329
-0.268292
-0.258932
-0.624433
-0.611903
-0.60101
-0.589067
-0.574672
-0.557815
-0.538842
-0.518319
-0.496923
-0.475303
-0.453989
-0.433362
-0.413663
-0.395019
-0.377474
-0.361016
-0.3456
-0.33116
-0.317626
-0.304923
-0.292982
-0.281739
-0.271111
-0.260973
-0.251573
-0.63289
-0.620115
-0.608754
-0.595909
-0.58018
-0.561695
-0.540976
-0.518751
-0.49581
-0.472858
-0.450437
-0.428912
-0.408496
-0.389282
-0.371286
-0.354468
-0.338765
-0.324096
-0.310377
-0.297526
-0.285466
-0.274131
-0.263426
-0.253216
-0.243811
-0.639983
-0.627024
-0.61518
-0.601369
-0.584235
-0.564074
-0.541606
-0.517721
-0.493309
-0.469118
-0.44569
-0.423365
-0.402321
-0.382619
-0.364242
-0.347128
-0.331194
-0.316345
-0.302487
-0.28953
-0.277391
-0.266
-0.255252
-0.245002
-0.235626
-0.645508
-0.632425
-0.620085
-0.605251
-0.586657
-0.564801
-0.54061
-0.515131
-0.489344
-0.464023
-0.439698
-0.416677
-0.3951
-0.374992
-0.356308
-0.338963
-0.322855
-0.307878
-0.293929
-0.28091
-0.268733
-0.257324
-0.246566
-0.23631
-0.226999
-0.649265
-0.636118
-0.62327
-0.607368
-0.587281
-0.563737
-0.537877
-0.510897
-0.483849
-0.45752
-0.432416
-0.408808
-0.386795
-0.366367
-0.347451
-0.329941
-0.313721
-0.298671
-0.28468
-0.271644
-0.259472
-0.248084
-0.237353
-0.227126
-0.217917
-0.651065
-0.637914
-0.62455
-0.607546
-0.585958
-0.560761
-0.533313
-0.504947
-0.476769
-0.449565
-0.423807
-0.399724
-0.377374
-0.356715
-0.337644
-0.320039
-0.303766
-0.288699
-0.274718
-0.261713
-0.24959
-0.238265
-0.227599
-0.217435
-0.208366
-0.650733
-0.637636
-0.623752
-0.60563
-0.582556
-0.555771
-0.526843
-0.497224
-0.46806
-0.440121
-0.413839
-0.389396
-0.366812
-0.346009
-0.326863
-0.309232
-0.292972
-0.277946
-0.264028
-0.251103
-0.239075
-0.227854
-0.217292
-0.207231
-0.198339
-0.648111
-0.635123
-0.620722
-0.601485
-0.576966
-0.548683
-0.518404
-0.487684
-0.457689
-0.42916
-0.402487
-0.377802
-0.355087
-0.334231
-0.31509
-0.297506
-0.281323
-0.266397
-0.252597
-0.239803
-0.227917
-0.216845
-0.206428
-0.196508
-0.187831
-0.643058
-0.630234
-0.615328
-0.594995
-0.569098
-0.539432
-0.507952
-0.476295
-0.445631
-0.416665
-0.389734
-0.364927
-0.342183
-0.321367
-0.302312
-0.284847
-0.268808
-0.254044
-0.240418
-0.227807
-0.216112
-0.205235
-0.195003
-0.185265
-0.176842
-0.635457
-0.62285
-0.607458
-0.586071
-0.558886
-0.527974
-0.49546
-0.463041
-0.431876
-0.402625
-0.375573
-0.350761
-0.328093
-0.307407
-0.28852
-0.271249
-0.255422
-0.240881
-0.227487
-0.215114
-0.203659
-0.193023
-0.183021
-0.173505
-0.165376
-0.625213
-0.612875
-0.597028
-0.574645
-0.546285
-0.514285
-0.480916
-0.447917
-0.416422
-0.387041
-0.360002
-0.335303
-0.312814
-0.292351
-0.273714
-0.256712
-0.241164
-0.226911
-0.213807
-0.201726
-0.190563
-0.180215
-0.170488
-0.161238
-0.153441
-0.612258
-0.600239
-0.583977
-0.560677
-0.531274
-0.498358
-0.464324
-0.430932
-0.39928
-0.36992
-0.343029
-0.318559
-0.296351
-0.276202
-0.257898
-0.241239
-0.22604
-0.212137
-0.199384
-0.18765
-0.176832
-0.166822
-0.157415
-0.148475
-0.141049
-0.596548
-0.584897
-0.568271
-0.54415
-0.513855
-0.480208
-0.445705
-0.412109
-0.38047
-0.351283
-0.324669
-0.300542
-0.278717
-0.258971
-0.241081
-0.22484
-0.210059
-0.196571
-0.184228
-0.172899
-0.162479
-0.152857
-0.143818
-0.135234
-0.128217
-0.578067
-0.566833
-0.549903
-0.525073
-0.494049
-0.459867
-0.425095
-0.391482
-0.360025
-0.331156
-0.304946
-0.281274
-0.259929
-0.240675
-0.22328
-0.20753
-0.193235
-0.180227
-0.168354
-0.157486
-0.147519
-0.138337
-0.129716
-0.121537
-0.114969
-0.556826
-0.546055
-0.528891
-0.503478
-0.471903
-0.437385
-0.402544
-0.369099
-0.337987
-0.309578
-0.283895
-0.260784
-0.240014
-0.221336
-0.204513
-0.189327
-0.175587
-0.163121
-0.151779
-0.141431
-0.131972
-0.123284
-0.115132
-0.107408
-0.101327
-0.532862
-0.522602
-0.505282
-0.479423
-0.44748
-0.412829
-0.378117
-0.345021
-0.314411
-0.286596
-0.261556
-0.239107
-0.219002
-0.200983
-0.184807
-0.170255
-0.157134
-0.145274
-0.134524
-0.124754
-0.11586
-0.10772
-0.100094
-0.0928759
-0.0873204
-0.506239
-0.496534
-0.479145
-0.452985
-0.420864
-0.386283
-0.351893
-0.319318
-0.289359
-0.262266
-0.237979
-0.216288
-0.196933
-0.179649
-0.164191
-0.150339
-0.137901
-0.126707
-0.116608
-0.107475
-0.0992035
-0.09167
-0.0846281
-0.0779745
-0.0729851
-0.477047
-0.467941
-0.450573
-0.424267
-0.392158
-0.357846
-0.323965
-0.292076
-0.262907
-0.236656
-0.213223
-0.192379
-0.173852
-0.157373
-0.142698
-0.129608
-0.117913
-0.107444
-0.0980533
-0.0896148
-0.082025
-0.0751589
-0.0687654
-0.0627408
-0.0583672
-0.445397
-0.436934
-0.419684
-0.393387
-0.361481
-0.327633
-0.294439
-0.263388
-0.235142
-0.209841
-0.187355
-0.167438
-0.149809
-0.1342
-0.120367
-0.108094
-0.0971942
-0.0875032
-0.0788761
-0.071189
-0.0643405
-0.0582053
-0.0525318
-0.0472138
-0.0435162
-0.411427
-0.403648
-0.386615
-0.360486
-0.328969
-0.29577
-0.263431
-0.233364
-0.206158
-0.181908
-0.160453
-0.141533
-0.124864
-0.110179
-0.0972369
-0.0858278
-0.0757694
-0.0669028
-0.0590881
-0.0522055
-0.0461565
-0.0408183
-0.0359451
-0.0314244
-0.0284582
-0.375294
-0.368238
-0.351522
-0.325718
-0.294773
-0.2624
-0.231073
-0.20212
-0.176065
-0.152954
-0.132603
-0.114741
-0.0990843
-0.0853669
-0.0733545
-0.0628441
-0.0536609
-0.0456535
-0.0386895
-0.0326559
-0.0274594
-0.0229847
-0.0189987
-0.0153691
-0.0131647
-0.337174
-0.330876
-0.314579
-0.289255
-0.259055
-0.227674
-0.197504
-0.169787
-0.144979
-0.123086
-0.103902
-0.0871506
-0.0725462
-0.0598292
-0.0487725
-0.039182
-0.0308925
-0.0237626
-0.0176709
-0.012515
-0.00821067
-0.00465582
-0.00163739
0.00100943
0.00239823
-0.29726
-0.291756
-0.275976
-0.251281
-0.221992
-0.191758
-0.162876
-0.136503
-0.113029
-0.0924225
-0.0744607
-0.0588599
-0.0453384
-0.0336426
-0.0235544
-0.0148898
-0.00749533
-0.00124306
0.00397299
0.00823898
0.0116262
0.0142199
0.0161918
0.0176968
0.0180153
-0.25576
-0.25108
-0.235914
-0.211993
-0.183769
-0.154823
-0.127351
-0.102418
-0.0803546
-0.061094
-0.0443984
-0.0299805
-0.0175621
-0.00689641
0.00222568
0.00997679
0.0164968
0.0218958
0.0262557
0.0296362
0.0320902
0.0336716
0.0344249
0.0343458
0.0329989
-0.212895
-0.209067
-0.194608
-0.171595
-0.14458
-0.117052
-0.0910969
-0.0676906
-0.0471044
-0.0292408
-0.0138487
-0.000638686
0.0106648
0.0203027
0.0284771
0.035352
0.0410557
0.0456801
0.049278
0.0518749
0.053496
0.054108
0.053419
0.0510397
0.0474633
-0.168897
-0.165944
-0.152279
-0.130302
-0.104625
-0.0786323
-0.0542896
-0.0324853
-0.0134351
0.00298673
0.0170423
0.029023
0.0392021
0.0478176
0.055069
0.0611196
0.0660977
0.0700938
0.0731568
0.0753167
0.076615
0.076915
0.0754182
0.0713059
0.066783
-0.124008
-0.121948
-0.109157
-0.0883302
-0.0641105
-0.0397556
-0.017109
0.00302774
0.0204907
0.0354309
0.0481194
0.0588485
0.0678891
0.0754772
0.0818129
0.0870636
0.0913683
0.094837
0.097557
0.0996382
0.101253
0.102344
0.101893
0.0993057
0.102552
-0.0784632
-0.0773135
-0.0654721
-0.0459011
-0.0232433
-0.000615872
0.0202628
0.0386759
0.0545078
0.0679315
0.0792245
0.0886781
0.0965602
0.103103
0.108506
0.112936
0.116537
0.119427
0.121715
0.123541
0.125086
0.126319
0.126671
0.126622
0.132317
-0.0325134
-0.0322861
-0.0214603
-0.00323798
0.0177677
0.038592
0.0576434
0.0742873
0.088452
0.100329
0.110201
0.118357
0.125058
0.130534
0.134979
0.13856
0.141421
0.143686
0.145468
0.146907
0.148159
0.149187
0.14959
0.149922
0.155027
0.0135927
0.0128903
0.022643
0.039437
0.0587151
0.077675
0.0948526
0.109692
0.122162
0.13247
0.1409
0.147735
0.153233
0.157615
0.16107
0.16376
0.165826
0.167388
0.168559
0.16947
0.170259
0.1709
0.171058
0.171173
0.175208
0.0596075
0.0579727
0.0666039
0.0819035
0.0993939
0.116443
0.131713
0.144724
0.155482
0.164205
0.171177
0.176677
0.180952
0.184217
0.186652
0.188414
0.189634
0.190427
0.190897
0.19116
0.191335
0.191385
0.191007
0.190609
0.193634
0.105286
0.10272
0.110192
0.123945
0.139603
0.15471
0.168054
0.179224
0.18826
0.195392
0.2009
0.205054
0.208095
0.210226
0.21162
0.212423
0.212759
0.212734
0.212443
0.211987
0.211466
0.210831
0.209803
0.208788
0.210838
0.150386
0.146896
0.153179
0.165349
0.179147
0.192296
0.203706
0.213036
0.220354
0.225898
0.229943
0.232752
0.234554
0.235543
0.235883
0.23571
0.235138
0.234264
0.233172
0.231954
0.230689
0.229323
0.227602
0.225939
0.227058
0.194671
0.190269
0.195347
0.20591
0.217834
0.229024
0.23851
0.246012
0.251626
0.255595
0.258188
0.259661
0.26023
0.26008
0.259364
0.258208
0.256719
0.254983
0.253076
0.251078
0.249054
0.246945
0.244529
0.242217
0.242446
0.237913
0.232614
0.236479
0.245427
0.255482
0.264728
0.27231
0.27801
0.281945
0.284362
0.285526
0.28568
0.285032
0.283755
0.281992
0.27986
0.277457
0.274861
0.272138
0.26936
0.266582
0.263741
0.260643
0.257697
0.257073
0.279889
0.273713
0.276368
0.283709
0.291913
0.299244
0.304958
0.308892
0.311185
0.312085
0.31185
0.310714
0.308873
0.306491
0.3037
0.300609
0.297306
0.293863
0.290339
0.286795
0.283279
0.279727
0.275973
0.272414
0.270972
0.320384
0.313357
0.314818
0.320572
0.326959
0.332418
0.336312
0.338529
0.339227
0.338654
0.337061
0.334671
0.331672
0.328214
0.324423
0.320399
0.316221
0.311953
0.30765
0.303364
0.299134
0.294901
0.290522
0.286374
0.28415
0.359194
0.351347
0.351636
0.355838
0.360456
0.364101
0.366236
0.366796
0.365956
0.363964
0.361062
0.357465
0.353348
0.348854
0.344099
0.339175
0.334153
0.329092
0.324039
0.319041
0.314129
0.309248
0.304276
0.299567
0.296595
0.396124
0.387491
0.386644
0.389342
0.392254
0.394154
0.394602
0.393576
0.391265
0.387915
0.383763
0.379011
0.373826
0.368342
0.362666
0.356881
0.351054
0.345236
0.339468
0.333793
0.328235
0.322742
0.317214
0.311972
0.308288
0.43099
0.42161
0.419671
0.420925
0.422206
0.422444
0.421288
0.418757
0.41505
0.410414
0.405076
0.39923
0.393033
0.386611
0.380062
0.373462
0.366873
0.360339
0.353898
0.347584
0.341418
0.335353
0.329305
0.323561
0.319203
0.463619
0.453535
0.450557
0.45044
0.450177
0.448847
0.44618
0.442233
0.437216
0.431371
0.424919
0.418046
0.410899
0.403596
0.396228
0.388864
0.381561
0.374357
0.367285
0.360375
0.353642
0.347045
0.340515
0.334302
0.329311
0.493849
0.483109
0.479154
0.477749
0.476041
0.473247
0.469172
0.463907
0.45767
0.450701
0.443214
0.435386
0.427357
0.419236
0.411107
0.403035
0.395069
0.387244
0.379588
0.372126
0.36487
0.357784
0.350811
0.344162
0.338582
0.521531
0.510186
0.505324
0.502725
0.499681
0.495536
0.490165
0.483687
0.476328
0.468327
0.459889
0.451184
0.442344
0.433472
0.424645
0.415923
0.40735
0.398956
0.390766
0.382799
0.375066
0.367534
0.360157
0.353108
0.346986
0.546529
0.534635
0.528942
0.525253
0.52099
0.515617
0.509068
0.501489
0.493114
0.484176
0.474876
0.465377
0.455803
0.44625
0.436792
0.427482
0.418359
0.409451
0.400778
0.392357
0.384192
0.37626
0.36852
0.361109
0.354494
0.56872
0.556334
0.549895
0.545226
0.539873
0.5334
0.5258
0.517239
0.507956
0.498183
0.488115
0.477907
0.467679
0.457521
0.4475
0.437666
0.428055
0.41869
0.409589
0.400763
0.392217
0.383929
0.375869
0.368135
0.361081
0.587994
0.575177
0.568083
0.562553
0.556243
0.548808
0.540287
0.530867
0.520792
0.510289
0.499551
0.488725
0.477926
0.467239
0.456728
0.446438
0.4364
0.426638
0.417163
0.407986
0.399108
0.390513
0.382174
0.374159
0.366721
0.604255
0.591072
0.583417
0.577153
0.570026
0.561771
0.552467
0.542316
0.531566
0.520444
0.509135
0.497783
0.4865
0.475364
0.464437
0.45376
0.443362
0.433262
0.423472
0.413997
0.404839
0.395984
0.38741
0.379156
0.371393
0.617424
0.603939
0.595824
0.588955
0.581158
0.57223
0.562283
0.551534
0.540231
0.528601
0.516826
0.505045
0.493365
0.481863
0.470596
0.459603
0.448911
0.438536
0.428488
0.418772
0.409385
0.400319
0.391555
0.383106
0.375079
0.627432
0.613715
0.605242
0.597904
0.589587
0.580137
0.569693
0.558479
0.54675
0.534727
0.522591
0.510478
0.498491
0.486707
0.475177
0.463941
0.453022
0.442437
0.432191
0.422289
0.412728
0.4035
0.394589
0.385992
0.377764
0.634229
0.620348
0.611624
0.603956
0.595272
0.585455
0.57466
0.563121
0.55109
0.538792
0.526402
0.514057
0.501856
0.489873
0.478161
0.466755
0.455679
0.444946
0.434563
0.424532
0.414851
0.405511
0.3965
0.387799
0.379435
0.637778
0.623804
0.614936
0.607079
0.598186
0.588157
0.577161
0.565434
0.553232
0.540776
0.528242
0.515764
0.503442
0.491347
0.479532
0.468031
0.456866
0.446052
0.435593
0.425491
0.415743
0.406343
0.397276
0.38852
0.380084
0.638058
0.624062
0.615159
0.607256
0.59831
0.588228
0.577181
0.565407
0.553162
0.540667
0.528098
0.515589
0.503239
0.491119
0.479281
0.46776
0.456577
0.445746
0.435273
0.425158
0.415399
0.405988
0.396912
0.388147
0.379707
0.635062
0.621115
0.612288
0.604482
0.595641
0.585664
0.574716
0.563036
0.550877
0.538462
0.525969
0.513529
0.501244
0.489186
0.477406
0.465939
0.454809
0.444027
0.433601
0.423532
0.413816
0.404446
0.395406
0.38668
0.378302
0.6288
0.614972
0.60633
0.598763
0.590185
0.58047
0.569772
0.558325
0.546382
0.534167
0.521857
0.509589
0.497463
0.485552
0.473911
0.462574
0.451565
0.440898
0.430581
0.420614
0.410996
0.401718
0.39276
0.384121
0.375871
0.619296
0.605657
0.597307
0.59012
0.58196
0.572664
0.562365
0.551289
0.53969
0.527793
0.515776
0.503779
0.491904
0.480228
0.468804
0.457671
0.446854
0.436367
0.426219
0.416414
0.406949
0.397812
0.388982
0.380477
0.372419
0.60659
0.593209
0.585257
0.578588
0.570999
0.562274
0.552521
0.541954
0.530826
0.519362
0.507746
0.496119
0.484587
0.473229
0.462103
0.451247
0.44069
0.430448
0.42053
0.410943
0.401684
0.39274
0.384083
0.375757
0.367956
0.590736
0.57768
0.570228
0.564211
0.557343
0.54934
0.540276
0.530353
0.51982
0.508904
0.497794
0.486634
0.475535
0.46458
0.453828
0.443323
0.433093
0.423158
0.413531
0.404217
0.395219
0.386516
0.378078
0.369976
0.362493
0.571802
0.559137
0.552283
0.547048
0.541046
0.533911
0.525677
0.516529
0.506711
0.496456
0.485954
0.475357
0.464779
0.454308
0.444007
0.433922
0.424087
0.414522
0.405243
0.396259
0.387574
0.379162
0.370987
0.363152
0.356048
0.549873
0.537661
0.5315
0.527171
0.522173
0.516048
0.508779
0.500533
0.491549
0.482063
0.47227
0.462328
0.452357
0.442449
0.432672
0.423078
0.413701
0.404567
0.395693
0.387093
0.378772
0.370699
0.36283
0.355306
0.348638
0.525046
0.513348
0.507968
0.504661
0.500801
0.49582
0.489647
0.482425
0.474389
0.465776
0.456789
0.447591
0.438309
0.429042
0.419862
0.410824
0.401969
0.393324
0.384912
0.376748
0.368841
0.361156
0.353636
0.346463
0.340286
0.497433
0.486306
0.481789
0.479614
0.477016
0.473307
0.468354
0.462273
0.455294
0.447655
0.439566
0.431198
0.422686
0.414132
0.405617
0.397201
0.388927
0.38083
0.372932
0.365256
0.357812
0.35056
0.343432
0.33665
0.331015
0.467158
0.456655
0.453077
0.452136
0.450915
0.4486
0.444984
0.440155
0.434335
0.427765
0.420663
0.413207
0.405539
0.397769
0.389985
0.382251
0.374617
0.367121
0.359789
0.352651
0.345718
0.338944
0.33225
0.325895
0.320852
0.43436
0.424531
0.421959
0.422342
0.422607
0.421795
0.419626
0.416153
0.411589
0.406179
0.400147
0.393679
0.386926
0.380007
0.373015
0.366021
0.359082
0.352238
0.345522
0.338968
0.332591
0.326341
0.320121
0.31423
0.309823
0.399188
0.39008
0.388574
0.390362
0.392207
0.393002
0.39238
0.39036
0.387142
0.382974
0.378088
0.37268
0.366909
0.360902
0.354759
0.348561
0.342366
0.336224
0.33017
0.324244
0.318468
0.312783
0.307077
0.301685
0.297958
0.361805
0.353459
0.35307
0.356333
0.359844
0.362336
0.363353
0.362872
0.361083
0.358234
0.354565
0.350282
0.345553
0.340514
0.335274
0.329919
0.324517
0.31912
0.313771
0.308515
0.30338
0.298303
0.29315
0.288289
0.285283
0.322385
0.314839
0.315608
0.320404
0.325653
0.329922
0.332658
0.333796
0.333509
0.332048
0.329659
0.326559
0.322927
0.318906
0.314615
0.310148
0.305579
0.300968
0.296363
0.291815
0.287359
0.282929
0.278367
0.274067
0.271821
0.281111
0.274398
0.276358
0.282732
0.289778
0.295891
0.300417
0.303241
0.304522
0.304509
0.303457
0.301591
0.299102
0.296143
0.292842
0.2893
0.2856
0.281808
0.27798
0.274173
0.270431
0.266683
0.262749
0.25904
0.25759
0.23818
0.232328
0.2355
0.243483
0.252373
0.260384
0.266759
0.271327
0.27423
0.275716
0.276048
0.27546
0.274154
0.272293
0.270013
0.267427
0.264624
0.261678
0.258652
0.255613
0.252613
0.24958
0.246306
0.243215
0.2426
0.193794
0.188827
0.193224
0.202835
0.213598
0.22355
0.231817
0.238177
0.242747
0.245775
0.247529
0.248253
0.24816
0.247424
0.24619
0.24458
0.242694
0.240611
0.238405
0.23615
0.233912
0.231619
0.229032
0.226582
0.22684
0.148167
0.144105
0.149727
0.160969
0.173622
0.185541
0.195736
0.203922
0.210194
0.214795
0.217999
0.220062
0.221203
0.22161
0.221437
0.220814
0.219851
0.218638
0.217254
0.215789
0.214319
0.212779
0.210897
0.209104
0.210277
0.101521
0.0983768
0.105215
0.118079
0.132623
0.14652
0.158662
0.168698
0.176695
0.182892
0.187567
0.190983
0.193371
0.194929
0.19582
0.196184
0.19614
0.195787
0.195215
0.194524
0.19381
0.193014
0.191837
0.190702
0.192832
0.0540823
0.0518666
0.0599016
0.0743612
0.0907819
0.106656
0.120751
0.132648
0.142385
0.150189
0.156344
0.161121
0.16476
0.167467
0.169415
0.170753
0.171608
0.172088
0.172292
0.172336
0.172333
0.172238
0.171723
0.171217
0.174351
0.00608616
0.00480317
0.0140048
0.0300216
0.048289
0.0661234
0.0821649
0.0959235
0.107401
0.116817
0.124454
0.13059
0.135474
0.13932
0.142309
0.144597
0.146318
0.147586
0.14851
0.149219
0.149848
0.15036
0.150391
0.150405
0.154585
-0.0422294
-0.0425797
-0.0322515
-0.0147305
0.0053387
0.0251015
0.0430705
0.0586791
0.0718915
0.0829129
0.0920257
0.0995135
0.105632
0.110601