/*--------------------------------*- C++ -*----------------------------------*\
  =========                 |
  \\      /  F ield         | OpenFOAM: The Open Source CFD Toolbox
   \\    /   O peration     | Website:  https://openfoam.org
    \\  /    A nd           | Version:  6.0
     \\/     M anipulation  |
\*---------------------------------------------------------------------------*/
FoamFile
{
    version     2.0;
    format      ascii;
    class       volScalarField;
    location    "57";
    object      p;
}
// * * * * * * * * * * * * * * * * * * * * * * * * * * * * * * * * * * * * * //

dimensions      [0 2 -2 0 0 0 0];

internalField   nonuniform List<scalar> 
12500
(
-0.40304
-0.403827
-0.404274
-0.404509
-0.404646
-0.404737
-0.404822
-0.40493
-0.405078
-0.405271
-0.405511
-0.405797
-0.406125
-0.406496
-0.406908
-0.407364
-0.407866
-0.408419
-0.409027
-0.409696
-0.410444
-0.411274
-0.412062
-0.412712
-0.414577
-0.400671
-0.401758
-0.402384
-0.402736
-0.402965
-0.403122
-0.403252
-0.403383
-0.403531
-0.4037
-0.40389
-0.404099
-0.404325
-0.404565
-0.40482
-0.405092
-0.405385
-0.405703
-0.406052
-0.40644
-0.406886
-0.407394
-0.407837
-0.408129
-0.409628
-0.398389
-0.399778
-0.400581
-0.40105
-0.401367
-0.401589
-0.401759
-0.401908
-0.402049
-0.402186
-0.402317
-0.40244
-0.40255
-0.402645
-0.402726
-0.402794
-0.402855
-0.402913
-0.402977
-0.403054
-0.403167
-0.40332
-0.403385
-0.403284
-0.404378
-0.396259
-0.397947
-0.398924
-0.399505
-0.399907
-0.40019
-0.400397
-0.400559
-0.400688
-0.400787
-0.400852
-0.400879
-0.400862
-0.400799
-0.40069
-0.400536
-0.400344
-0.400119
-0.39987
-0.399608
-0.399358
-0.399123
-0.398778
-0.39825
-0.398902
-0.394351
-0.396326
-0.397468
-0.398157
-0.398641
-0.398982
-0.399223
-0.399395
-0.399509
-0.399565
-0.399559
-0.399483
-0.399331
-0.399098
-0.398785
-0.398392
-0.397926
-0.397394
-0.396806
-0.396177
-0.395532
-0.394879
-0.39409
-0.393104
-0.39328
-0.392734
-0.394976
-0.396274
-0.397063
-0.397625
-0.39802
-0.398294
-0.398474
-0.398572
-0.398584
-0.398504
-0.398321
-0.398027
-0.397616
-0.397086
-0.396439
-0.39568
-0.394819
-0.393866
-0.39284
-0.39177
-0.390664
-0.3894
-0.387924
-0.387593
-0.391476
-0.393958
-0.395395
-0.396278
-0.396911
-0.397359
-0.397665
-0.397855
-0.397937
-0.397907
-0.397753
-0.397462
-0.397024
-0.39643
-0.395675
-0.39476
-0.393691
-0.392478
-0.391134
-0.389682
-0.388153
-0.386562
-0.384789
-0.382791
-0.381924
-0.390639
-0.393325
-0.394883
-0.395849
-0.396551
-0.39705
-0.397388
-0.39759
-0.397661
-0.397593
-0.397369
-0.396975
-0.396395
-0.395616
-0.394631
-0.393439
-0.392045
-0.390459
-0.388699
-0.386789
-0.384768
-0.382654
-0.380334
-0.37778
-0.376348
-0.390278
-0.393123
-0.39478
-0.395819
-0.396583
-0.397132
-0.397506
-0.397726
-0.397793
-0.397694
-0.397411
-0.396922
-0.396206
-0.395247
-0.394033
-0.392559
-0.390829
-0.388854
-0.386652
-0.384253
-0.381703
-0.379025
-0.376117
-0.372967
-0.370937
-0.390433
-0.393388
-0.395118
-0.396217
-0.397038
-0.397638
-0.398051
-0.398296
-0.398369
-0.398253
-0.397924
-0.397353
-0.396515
-0.395386
-0.39395
-0.392196
-0.390125
-0.387746
-0.385081
-0.382163
-0.379043
-0.375757
-0.372211
-0.368418
-0.365755
-0.391133
-0.39414
-0.395916
-0.397062
-0.397934
-0.398583
-0.39904
-0.39932
-0.399412
-0.399295
-0.398936
-0.398304
-0.397362
-0.396081
-0.394437
-0.392412
-0.390002
-0.387214
-0.384068
-0.380601
-0.376874
-0.37293
-0.368691
-0.364196
-0.360858
-0.392387
-0.395386
-0.397176
-0.398355
-0.39927
-0.399969
-0.400476
-0.400799
-0.400924
-0.400823
-0.400456
-0.399784
-0.398764
-0.397355
-0.395525
-0.393248
-0.39051
-0.387315
-0.383678
-0.379639
-0.375267
-0.370615
-0.36562
-0.360353
-0.356291
-0.394187
-0.397116
-0.398888
-0.400083
-0.401033
-0.401778
-0.402338
-0.402714
-0.402885
-0.402817
-0.402464
-0.401778
-0.400706
-0.399199
-0.397211
-0.394708
-0.391664
-0.388073
-0.383947
-0.379323
-0.374275
-0.368867
-0.363051
-0.356934
-0.352091
-0.396504
-0.399302
-0.401024
-0.402215
-0.403189
-0.403976
-0.40459
-0.405024
-0.405251
-0.405231
-0.404911
-0.404234
-0.403138
-0.401562
-0.39945
-0.396753
-0.393433
-0.389471
-0.384869
-0.37966
-0.373918
-0.367716
-0.361017
-0.353965
-0.348278
-0.399295
-0.401904
-0.403542
-0.40471
-0.405692
-0.406512
-0.407174
-0.407667
-0.407956
-0.407993
-0.407719
-0.407069
-0.405972
-0.404356
-0.40215
-0.399293
-0.395731
-0.391432
-0.386381
-0.380603
-0.374166
-0.367148
-0.359517
-0.35145
-0.344854
-0.4025
-0.404868
-0.40639
-0.407511
-0.408483
-0.409322
-0.410022
-0.410565
-0.410912
-0.411007
-0.410784
-0.41017
-0.409085
-0.407447
-0.405173
-0.402186
-0.398417
-0.393817
-0.388354
-0.382037
-0.374924
-0.367092
-0.358505
-0.349358
-0.34179
-0.40605
-0.408133
-0.409507
-0.410557
-0.411496
-0.412331
-0.413051
-0.41363
-0.414021
-0.414163
-0.413984
-0.413402
-0.41233
-0.410676
-0.408345
-0.405247
-0.401298
-0.39643
-0.390594
-0.383779
-0.376028
-0.367407
-0.357868
-0.347604
-0.339009
-0.409868
-0.411632
-0.41283
-0.413781
-0.414659
-0.415464
-0.416179
-0.416768
-0.417179
-0.417346
-0.417189
-0.416622
-0.415549
-0.413868
-0.411476
-0.408269
-0.404152
-0.399038
-0.392862
-0.38559
-0.377247
-0.367884
-0.357432
-0.346047
-0.336382
-0.413878
-0.415299
-0.416295
-0.417118
-0.417905
-0.418648
-0.419323
-0.419889
-0.420287
-0.420445
-0.420279
-0.419694
-0.418589
-0.416855
-0.41438
-0.41105
-0.406757
-0.401403
-0.394905
-0.38721
-0.378321
-0.368274
-0.356969
-0.344496
-0.333729
-0.418008
-0.419073
-0.419846
-0.420512
-0.421173
-0.421817
-0.422414
-0.422916
-0.423259
-0.423366
-0.423147
-0.422503
-0.421325
-0.419499
-0.416904
-0.413421
-0.40893
-0.403324
-0.396506
-0.388408
-0.37901
-0.368332
-0.356247
-0.342742
-0.330847
-0.422197
-0.422904
-0.423434
-0.423916
-0.424416
-0.424921
-0.425395
-0.425788
-0.42603
-0.426038
-0.425718
-0.424966
-0.423668
-0.421703
-0.418946
-0.41527
-0.410551
-0.404672
-0.397528
-0.389035
-0.379157
-0.367898
-0.355108
-0.340649
-0.327597
-0.426397
-0.426751
-0.427025
-0.427294
-0.427598
-0.427923
-0.428232
-0.428469
-0.42856
-0.428421
-0.42795
-0.427041
-0.425574
-0.423424
-0.420463
-0.416558
-0.411582
-0.405412
-0.397937
-0.389064
-0.378739
-0.366951
-0.353546
-0.338235
-0.323979
-0.430578
-0.430591
-0.430597
-0.430629
-0.430704
-0.43081
-0.430909
-0.430944
-0.430839
-0.430504
-0.429836
-0.428723
-0.427044
-0.42467
-0.421471
-0.417313
-0.412067
-0.405607
-0.397817
-0.388595
-0.377865
-0.365598
-0.351628
-0.335489
-0.319873
-0.434726
-0.434414
-0.434145
-0.433917
-0.433732
-0.433583
-0.433433
-0.433224
-0.43288
-0.432306
-0.4314
-0.430045
-0.428118
-0.425492
-0.422036
-0.417621
-0.41212
-0.405413
-0.397387
-0.387928
-0.376934
-0.364316
-0.349787
-0.332569
-0.315127
-0.43885
-0.43823
-0.437679
-0.437172
-0.436701
-0.436264
-0.43583
-0.435341
-0.43472
-0.433872
-0.432692
-0.431063
-0.428864
-0.425968
-0.422251
-0.417595
-0.411889
-0.405035
-0.39695
-0.387556
-0.376783
-0.364534
-0.350389
-0.333242
-0.315152
-0.442974
-0.442058
-0.441221
-0.440419
-0.439639
-0.438888
-0.438142
-0.437343
-0.436415
-0.435263
-0.433782
-0.431854
-0.429361
-0.426183
-0.422206
-0.417328
-0.411467
-0.404563
-0.396593
-0.387575
-0.377595
-0.366809
-0.3554
-0.344262
-0.338243
-0.447136
-0.445935
-0.444806
-0.443696
-0.442589
-0.441504
-0.440422
-0.43929
-0.438031
-0.436552
-0.434746
-0.432499
-0.429694
-0.426221
-0.421978
-0.416884
-0.410881
-0.403949
-0.39611
-0.387443
-0.3781
-0.368317
-0.358411
-0.349257
-0.344139
-0.451386
-0.449903
-0.448477
-0.447047
-0.4456
-0.444167
-0.442733
-0.441249
-0.439641
-0.437815
-0.435664
-0.433077
-0.429942
-0.426156
-0.421632
-0.416307
-0.410149
-0.403164
-0.395408
-0.386986
-0.37807
-0.368891
-0.359724
-0.351084
-0.344959
-0.455784
-0.454012
-0.452282
-0.450524
-0.448728
-0.446935
-0.445138
-0.44329
-0.441317
-0.439126
-0.436611
-0.433662
-0.430172
-0.426048
-0.421215
-0.415627
-0.409272
-0.402175
-0.394407
-0.386081
-0.377351
-0.368409
-0.359448
-0.350741
-0.343574
-0.46039
-0.458316
-0.456272
-0.454179
-0.452027
-0.449868
-0.447699
-0.445476
-0.443125
-0.440551
-0.437649
-0.43431
-0.430435
-0.425937
-0.420756
-0.414859
-0.408249
-0.400966
-0.393085
-0.384715
-0.375988
-0.367054
-0.358045
-0.349101
-0.341075
-0.465264
-0.462867
-0.460496
-0.458062
-0.45555
-0.453019
-0.450473
-0.447865
-0.44512
-0.442142
-0.438825
-0.435064
-0.430764
-0.425849
-0.420269
-0.414008
-0.40708
-0.399535
-0.391451
-0.38293
-0.374086
-0.365038
-0.355885
-0.346708
-0.33809
-0.470461
-0.467713
-0.465002
-0.462221
-0.459344
-0.456438
-0.453507
-0.450501
-0.447344
-0.443935
-0.44017
-0.435945
-0.431173
-0.425789
-0.419756
-0.413071
-0.405763
-0.397889
-0.389531
-0.380785
-0.371756
-0.362542
-0.353226
-0.343867
-0.334873
-0.476028
-0.472895
-0.46983
-0.466694
-0.463448
-0.460163
-0.456837
-0.453419
-0.449824
-0.445952
-0.441696
-0.436959
-0.431661
-0.42575
-0.419206
-0.41204
-0.404295
-0.396039
-0.387356
-0.378341
-0.369092
-0.3597
-0.350237
-0.340755
-0.331551
-0.482002
-0.478448
-0.475011
-0.471514
-0.467895
-0.464222
-0.460489
-0.456636
-0.452573
-0.448195
-0.443397
-0.43809
-0.432207
-0.42571
-0.418598
-0.410899
-0.402671
-0.393992
-0.384951
-0.375645
-0.366166
-0.356598
-0.347011
-0.337453
-0.328148
-0.488407
-0.484395
-0.48057
-0.476704
-0.472704
-0.468632
-0.464474
-0.460157
-0.455584
-0.450649
-0.445252
-0.439312
-0.43278
-0.425638
-0.417905
-0.409629
-0.400882
-0.391753
-0.382338
-0.37273
-0.36302
-0.353287
-0.343595
-0.333991
-0.324647
-0.495254
-0.490749
-0.48652
-0.482278
-0.477887
-0.4734
-0.468789
-0.46397
-0.458836
-0.453284
-0.44722
-0.440581
-0.433336
-0.425493
-0.417093
-0.408205
-0.398915
-0.389322
-0.379524
-0.369615
-0.359679
-0.349791
-0.340006
-0.330371
-0.321015
-0.502542
-0.497512
-0.492865
-0.488237
-0.483443
-0.478519
-0.47342
-0.468049
-0.462294
-0.456055
-0.449252
-0.441843
-0.433825
-0.42523
-0.416126
-0.406601
-0.396754
-0.386691
-0.376512
-0.366306
-0.356153
-0.346115
-0.336244
-0.326579
-0.317215
-0.510256
-0.504672
-0.499596
-0.494573
-0.489358
-0.483966
-0.478335
-0.472352
-0.465905
-0.458902
-0.451284
-0.443037
-0.434187
-0.424799
-0.414964
-0.404786
-0.39438
-0.38385
-0.373296
-0.362802
-0.352437
-0.342256
-0.332298
-0.322597
-0.313218
-0.518366
-0.512207
-0.506693
-0.501264
-0.495605
-0.489708
-0.483488
-0.476823
-0.469603
-0.461752
-0.453243
-0.444092
-0.434363
-0.424149
-0.413565
-0.402732
-0.391769
-0.380783
-0.369866
-0.359093
-0.348524
-0.3382
-0.328153
-0.318407
-0.309001
-0.526828
-0.520081
-0.514122
-0.508275
-0.502144
-0.495693
-0.488817
-0.481388
-0.473307
-0.464525
-0.455048
-0.444936
-0.434287
-0.423226
-0.411888
-0.400406
-0.388899
-0.37747
-0.366204
-0.355164
-0.344396
-0.333933
-0.323793
-0.313991
-0.304548
-0.535585
-0.528243
-0.521836
-0.515555
-0.508917
-0.501853
-0.494244
-0.485961
-0.476926
-0.467127
-0.456615
-0.445493
-0.433897
-0.42198
-0.409893
-0.397774
-0.385741
-0.373889
-0.362289
-0.350994
-0.340036
-0.329435
-0.3192
-0.309333
-0.299843
-0.544562
-0.536627
-0.529772
-0.523039
-0.515849
-0.508105
-0.499675
-0.49044
-0.480357
-0.469461
-0.457854
-0.445686
-0.433129
-0.420358
-0.407536
-0.394802
-0.382266
-0.370012
-0.358097
-0.34656
-0.33542
-0.324685
-0.314354
-0.304415
-0.294874
-0.55367
-0.545153
-0.537849
-0.530642
-0.52285
-0.514346
-0.504998
-0.494712
-0.48349
-0.471426
-0.458677
-0.44544
-0.431919
-0.418309
-0.404776
-0.391454
-0.378442
-0.36581
-0.3536
-0.341835
-0.330522
-0.319658
-0.309233
-0.29922
-0.289628
-0.562805
-0.553723
-0.545974
-0.538264
-0.529809
-0.520459
-0.510092
-0.498655
-0.486211
-0.472918
-0.458994
-0.44468
-0.430209
-0.415784
-0.401571
-0.387693
-0.374235
-0.36125
-0.348765
-0.336789
-0.325314
-0.31433
-0.303814
-0.293727
-0.284089
-0.571846
-0.562224
-0.554032
-0.545787
-0.536601
-0.526311
-0.514822
-0.50214
-0.4884
-0.473834
-0.458719
-0.443336
-0.427938
-0.412732
-0.397876
-0.383479
-0.369608
-0.356298
-0.343561
-0.33139
-0.319768
-0.308672
-0.298073
-0.287917
-0.278241
-0.580656
-0.570529
-0.561896
-0.553076
-0.543083
-0.531756
-0.519046
-0.505033
-0.489939
-0.474073
-0.457768
-0.441338
-0.425049
-0.409105
-0.393649
-0.378772
-0.364523
-0.350918
-0.337953
-0.325606
-0.313852
-0.302658
-0.291985
-0.281766
-0.272065
-0.589086
-0.578494
-0.56942
-0.559981
-0.549101
-0.536639
-0.522615
-0.507201
-0.490713
-0.473537
-0.45606
-0.438621
-0.421487
-0.404853
-0.388845
-0.373531
-0.358941
-0.345072
-0.331903
-0.319403
-0.307534
-0.296256
-0.285523
-0.275251
-0.265541
-0.596974
-0.585961
-0.576446
-0.566338
-0.55449
-0.5408
-0.525381
-0.50851
-0.490608
-0.472135
-0.453521
-0.43512
-0.417198
-0.39993
-0.38342
-0.367715
-0.352822
-0.338721
-0.325378
-0.312747
-0.300783
-0.28944
-0.278661
-0.26835
-0.258649
-0.604147
-0.592764
-0.582805
-0.571976
-0.559077
-0.544075
-0.527193
-0.508833
-0.489518
-0.469778
-0.450077
-0.430777
-0.412128
-0.394286
-0.37733
-0.361281
-0.346126
-0.331829
-0.31834
-0.305605
-0.293568
-0.28218
-0.271373
-0.261038
-0.251368
-0.610425
-0.598726
-0.588318
-0.576713
-0.562688
-0.546301
-0.527909
-0.508048
-0.487342
-0.466385
-0.445663
-0.425534
-0.406229
-0.387878
-0.370531
-0.354188
-0.338815
-0.324358
-0.310756
-0.297944
-0.285861
-0.27445
-0.263634
-0.253295
-0.243677
-0.615623
-0.603664
-0.592802
-0.580369
-0.565147
-0.547317
-0.527391
-0.506041
-0.48399
-0.461882
-0.440216
-0.419338
-0.399453
-0.380661
-0.362984
-0.346399
-0.330851
-0.316274
-0.302593
-0.289735
-0.277632
-0.266223
-0.255422
-0.245099
-0.235558
-0.619551
-0.607392
-0.596069
-0.582758
-0.566282
-0.546973
-0.52551
-0.502707
-0.479376
-0.4562
-0.43368
-0.41214
-0.391755
-0.372593
-0.354649
-0.337875
-0.322201
-0.307544
-0.29382
-0.280949
-0.268856
-0.257477
-0.246714
-0.236431
-0.226995
-0.622026
-0.609725
-0.597936
-0.583703
-0.565931
-0.545126
-0.52215
-0.497953
-0.473427
-0.44928
-0.426005
-0.403895
-0.383094
-0.363636
-0.345489
-0.328584
-0.312831
-0.298138
-0.284411
-0.271562
-0.259512
-0.248192
-0.237494
-0.227276
-0.217972
-0.622865
-0.610483
-0.598223
-0.583033
-0.56394
-0.541648
-0.517206
-0.491697
-0.466077
-0.441069
-0.417144
-0.394563
-0.373433
-0.353756
-0.335473
-0.318493
-0.302715
-0.288031
-0.274342
-0.261552
-0.24958
-0.238351
-0.227747
-0.21762
-0.208477
-0.621896
-0.609491
-0.59676
-0.580589
-0.56017
-0.536423
-0.510588
-0.483868
-0.457272
-0.43152
-0.407059
-0.38411
-0.36274
-0.342922
-0.324571
-0.307578
-0.291827
-0.277201
-0.263593
-0.250902
-0.239043
-0.227939
-0.217459
-0.207453
-0.198503
-0.618956
-0.606588
-0.593389
-0.576227
-0.554497
-0.529353
-0.502219
-0.474409
-0.446966
-0.420599
-0.395718
-0.372505
-0.350989
-0.33111
-0.312761
-0.295816
-0.280147
-0.26563
-0.252148
-0.239599
-0.227892
-0.216947
-0.206624
-0.19677
-0.188043
-0.613899
-0.601624
-0.587966
-0.569819
-0.546816
-0.520356
-0.49204
-0.463275
-0.435124
-0.408275
-0.383096
-0.359726
-0.338156
-0.318298
-0.300023
-0.283191
-0.267662
-0.253304
-0.239997
-0.227632
-0.216118
-0.20537
-0.195237
-0.185569
-0.177098
-0.606595
-0.594469
-0.580367
-0.561256
-0.537042
-0.509368
-0.480005
-0.450433
-0.421723
-0.39453
-0.369176
-0.345756
-0.324227
-0.304473
-0.286345
-0.269691
-0.25436
-0.240216
-0.227132
-0.214997
-0.203718
-0.193207
-0.1833
-0.17385
-0.165668
-0.596932
-0.585011
-0.570487
-0.550452
-0.525107
-0.496345
-0.466084
-0.435865
-0.406749
-0.379352
-0.353947
-0.330587
-0.309193
-0.289626
-0.27172
-0.255309
-0.240238
-0.226362
-0.213552
-0.201694
-0.190694
-0.18046
-0.170817
-0.161622
-0.153762
-0.584821
-0.573158
-0.558245
-0.53734
-0.510968
-0.481258
-0.450264
-0.419563
-0.390199
-0.362739
-0.337408
-0.314215
-0.293052
-0.273755
-0.256145
-0.240045
-0.225294
-0.211744
-0.19926
-0.187728
-0.177052
-0.167136
-0.157796
-0.148894
-0.141389
-0.570196
-0.558842
-0.543581
-0.52188
-0.494601
-0.464101
-0.432545
-0.401535
-0.37208
-0.344698
-0.319564
-0.296646
-0.275807
-0.256864
-0.239624
-0.223904
-0.209535
-0.196367
-0.184264
-0.173107
-0.162802
-0.153249
-0.144252
-0.135682
-0.128567
-0.553014
-0.542022
-0.526461
-0.504052
-0.476003
-0.444881
-0.412944
-0.381798
-0.352412
-0.325247
-0.30043
-0.277892
-0.257469
-0.238962
-0.222167
-0.206895
-0.192971
-0.180244
-0.168575
-0.157845
-0.147958
-0.138813
-0.130203
-0.122006
-0.115314
-0.53326
-0.522678
-0.506876
-0.483861
-0.455194
-0.423629
-0.391494
-0.360386
-0.331222
-0.30441
-0.280028
-0.257973
-0.238057
-0.220067
-0.20379
-0.189032
-0.175616
-0.163388
-0.152208
-0.141957
-0.132539
-0.123848
-0.115671
-0.10789
-0.101656
-0.51094
-0.500817
-0.48484
-0.461337
-0.432211
-0.400387
-0.36824
-0.33734
-0.308551
-0.282224
-0.25839
-0.236916
-0.217594
-0.200199
-0.184512
-0.170335
-0.157489
-0.145818
-0.135183
-0.125464
-0.116565
-0.108378
-0.100681
-0.0933617
-0.087619
-0.48609
-0.476473
-0.460395
-0.436529
-0.407115
-0.375218
-0.343242
-0.312718
-0.28445
-0.258731
-0.235554
-0.214755
-0.196111
-0.179386
-0.164359
-0.150826
-0.138611
-0.127555
-0.117521
-0.108388
-0.100061
-0.0924283
-0.0852612
-0.0784525
-0.0732361
-0.458767
-0.449702
-0.433605
-0.409511
-0.379982
-0.3482
-0.316574
-0.286586
-0.258978
-0.233987
-0.211568
-0.191533
-0.173645
-0.157662
-0.143358
-0.130532
-0.119006
-0.108622
-0.0992434
-0.0907507
-0.0830491
-0.0760253
-0.0694437
-0.0631984
-0.0585452
-0.429055
-0.420588
-0.404556
-0.380375
-0.350908
-0.319426
-0.288323
-0.259025
-0.232206
-0.208055
-0.186488
-0.167298
-0.150238
-0.135062
-0.121543
-0.109481
-0.0986982
-0.0890408
-0.0803717
-0.072574
-0.0655535
-0.0591955
-0.0532598
-0.047639
-0.0435941
-0.397061
-0.389234
-0.373357
-0.349234
-0.320006
-0.289004
-0.25859
-0.230125
-0.204218
-0.181008
-0.160379
-0.142109
-0.125942
-0.111631
-0.0989505
-0.0877026
-0.0777139
-0.0688325
-0.0609245
-0.0538752
-0.0475923
-0.0419605
-0.0367388
-0.0318159
-0.0284344
-0.362915
-0.355767
-0.340139
-0.316221
-0.287404
-0.257055
-0.227487
-0.199988
-0.175105
-0.152928
-0.133315
-0.116029
-0.100812
-0.087416
-0.0756198
-0.0652295
-0.0560768
-0.0480148
-0.0409142
-0.0346641
-0.0291745
-0.0243327
-0.0199024
-0.0157645
-0.0130991
-0.326765
-0.320336
-0.305051
-0.281483
-0.253246
-0.223714
-0.195137
-0.168729
-0.14497
-0.123908
-0.105379
-0.0891346
-0.0749138
-0.0624728
-0.0515955
-0.0420947
-0.0338091
-0.0265991
-0.0203423
-0.0149344
-0.0102899
-0.00630305
-0.0027495
0.000510441
0.00242649
-0.28878
-0.283106
-0.268256
-0.245182
-0.217687
-0.189128
-0.161677
-0.136471
-0.113927
-0.0940536
-0.076666
-0.0615088
-0.0483214
-0.0368644
-0.026929
-0.0183361
-0.0109338
-0.00459229
0.00080038
0.00533855
0.00909879
0.0121745
0.0147708
0.0170588
0.0181682
-0.249146
-0.244259
-0.229938
-0.207497
-0.180897
-0.153453
-0.127253
-0.103349
-0.0820995
-0.063478
-0.0472809
-0.033248
-0.0211206
-0.0106654
-0.00168161
0.00599968
0.0125192
0.017994
0.0225209
0.0261786
0.0290313
0.0311561
0.0327168
0.0338751
0.0339351
-0.208062
-0.203992
-0.190289
-0.168614
-0.143053
-0.116857
-0.0920182
-0.0695067
-0.049623
-0.0323071
-0.0173408
-0.00446041
0.00659001
0.0160375
0.024074
0.0308577
0.0365163
0.0411496
0.0448313
0.0476145
0.0495459
0.0506711
0.0510296
0.050631
0.0490799
-0.165741
-0.162515
-0.149515
-0.128732
-0.104342
-0.0795146
-0.0561378
-0.0350981
-0.0166413
-0.000677156
0.013025
0.0247316
0.0346961
0.0431404
0.0502496
0.0561736
0.0610288
0.0648973
0.0678243
0.0698299
0.0709326
0.071092
0.0700214
0.0673651
0.0636522
-0.122407
-0.120046
-0.107831
-0.0880562
-0.0649594
-0.041608
-0.0197812
-0.000282778
0.0166937
0.0312657
0.0436748
0.0541896
0.0630619
0.0705106
0.076719
0.0818359
0.0859779
0.0892253
0.0916189
0.0931815
0.0939451
0.0937669
0.0918682
0.0874832
0.0828034
-0.0782932
-0.0768143
-0.0654577
-0.0467978
-0.0251028
-0.00332282
0.016877
0.0347741
0.0502241
0.0633684
0.0744578
0.083762
0.0915311
0.0979824
0.1033
0.107637
0.11112
0.11385
0.115904
0.117382
0.118446
0.119031
0.118151
0.115244
0.118098
-0.0336294
-0.0330476
-0.0226181
-0.00517012
0.0150265
0.0351527
0.0536599
0.0699051
0.0837893
0.0954752
0.10522
0.113294
0.119943
0.125382
0.129794
0.133333
0.136131
0.138296
0.139927
0.141153
0.142147
0.142873
0.142774
0.142321
0.147532
0.0113427
0.011017
0.020459
0.03661
0.0552258
0.0736293
0.0903905
0.104943
0.11723
0.127432
0.13581
0.142633
0.148143
0.152551
0.156037
0.158754
0.160833
0.162388
0.163526
0.164375
0.165082
0.165608
0.16556
0.165484
0.170126
0.0563812
0.0551426
0.0635451
0.0783269
0.0952935
0.111919
0.126893
0.139722
0.150388
0.159087
0.166082
0.171636
0.175988
0.179342
0.181872
0.183727
0.185037
0.185912
0.186456
0.186792
0.187049
0.187197
0.186907
0.186619
0.190215
0.101245
0.0990931
0.106413
0.119766
0.13503
0.149838
0.162996
0.174082
0.183113
0.190296
0.195895
0.200169
0.203347
0.205627
0.207175
0.208135
0.208628
0.20876
0.208626
0.208335
0.207997
0.207573
0.206766
0.205983
0.20859
0.145697
0.142634
0.148839
0.160718
0.174241
0.187204
0.198531
0.207866
0.215257
0.220921
0.225121
0.228108
0.230103
0.231295
0.231842
0.23188
0.231523
0.230866
0.229997
0.229012
0.228
0.226913
0.225478
0.224097
0.225751
0.189501
0.185537
0.190601
0.200975
0.212734
0.223841
0.233335
0.240922
0.24668
0.250832
0.253637
0.255339
0.25615
0.256249
0.255786
0.254887
0.253657
0.252184
0.250545
0.248824
0.247096
0.245302
0.243197
0.241188
0.241934
0.232427
0.227574
0.231486
0.240337
0.250324
0.259579
0.267251
0.273107
0.277248
0.279904
0.281329
0.281757
0.281392
0.280403
0.27893
0.277091
0.274982
0.272681
0.270259
0.267788
0.265328
0.262819
0.260042
0.257406
0.257282
0.274253
0.268528
0.271284
0.278609
0.286832
0.294253
0.300129
0.304282
0.306834
0.308019
0.308087
0.307263
0.305739
0.303676
0.301205
0.298433
0.29545
0.292326
0.289122
0.285903
0.282717
0.279503
0.27607
0.272822
0.271867
0.314761
0.308188
0.309795
0.315605
0.322087
0.327707
0.331824
0.334312
0.335314
0.335066
0.33381
0.331763
0.329107
0.325994
0.322545
0.318859
0.315018
0.311085
0.307114
0.303161
0.299268
0.295371
0.291308
0.287468
0.285717
0.353744
0.346349
0.346825
0.351144
0.355923
0.359788
0.362197
0.363072
0.362573
0.360937
0.358399
0.355168
0.351416
0.347284
0.342886
0.338314
0.33364
0.328921
0.324207
0.319545
0.314969
0.310419
0.305756
0.30135
0.298839
0.391003
0.382818
0.38219
0.385057
0.388183
0.390353
0.391117
0.39044
0.388499
0.38553
0.381762
0.377393
0.372587
0.367477
0.362167
0.356742
0.351268
0.345796
0.340368
0.335027
0.329801
0.324632
0.319402
0.314457
0.311221
0.426349
0.417409
0.415716
0.417181
0.418719
0.419266
0.418458
0.416303
0.412988
0.408749
0.403809
0.398357
0.392548
0.386505
0.380327
0.37409
0.367855
0.361666
0.355561
0.349577
0.343735
0.337984
0.332224
0.326768
0.322844
0.459603
0.44995
0.447236
0.447363
0.447391
0.446399
0.444104
0.440551
0.435939
0.430502
0.424455
0.417981
0.411226
0.404304
0.397307
0.390305
0.383351
0.376487
0.369746
0.363157
0.356739
0.350444
0.34419
0.338256
0.333681
0.490598
0.480276
0.476597
0.47546
0.474067
0.471631
0.467944
0.463083
0.457258
0.450702
0.443622
0.436194
0.428554
0.420811
0.413049
0.405332
0.397709
0.390217
0.382882
0.375731
0.368778
0.361981
0.35527
0.348889
0.343706
0.519178
0.508236
0.503656
0.50134
0.498626
0.49485
0.489874
0.483804
0.476859
0.469268
0.461235
0.452924
0.444468
0.435966
0.427498
0.419122
0.410882
0.402809
0.394928
0.38726
0.379816
0.372558
0.36543
0.358636
0.352888
0.545201
0.53369
0.52828
0.524881
0.520955
0.515954
0.509801
0.502627
0.49466
0.486126
0.477222
0.468108
0.458907
0.449714
0.440603
0.431626
0.422823
0.414223
0.405845
0.397707
0.389816
0.382141
0.374636
0.367466
0.3612
0.568535
0.556512
0.550351
0.545971
0.540953
0.534849
0.527637
0.519472
0.510587
0.501206
0.491521
0.481685
0.471816
0.462003
0.452314
0.442798
0.433491
0.424418
0.415595
0.407036
0.398746
0.390698
0.382857
0.375348
0.368614
0.589064
0.576588
0.569759
0.564512
0.558528
0.55145
0.543304
0.534267
0.524573
0.514446
0.504073
0.493602
0.483144
0.472785
0.462588
0.452598
0.442847
0.433357
0.424142
0.415213
0.406572
0.398199
0.390061
0.382253
0.375105
0.606685
0.593817
0.586412
0.580415
0.573599
0.565683
0.556735
0.546947
0.536558
0.525791
0.514828
0.50381
0.492847
0.482019
0.471384
0.460987
0.450854
0.441007
0.431456
0.422209
0.413267
0.404614
0.396223
0.388157
0.38065
0.621308
0.608113
0.600226
0.593604
0.586096
0.577484
0.56787
0.557458
0.546493
0.535193
0.523739
0.512268
0.500884
0.489666
0.478669
0.467932
0.457483
0.447338
0.437508
0.427997
0.418805
0.409919
0.401319
0.393038
0.38523
0.632859
0.619402
0.611133
0.604017
0.595961
0.586799
0.576658
0.565754
0.554333
0.542612
0.53077
0.51894
0.507224
0.495697
0.484412
0.473407
0.462707
0.452326
0.442274
0.432554
0.423164
0.414095
0.405328
0.396875
0.388827
0.641278
0.627628
0.619079
0.611603
0.603147
0.593585
0.58306
0.571797
0.560043
0.548016
0.535889
0.523797
0.511838
0.500085
0.48859
0.477388
0.466504
0.455951
0.445737
0.435863
0.426327
0.417123
0.408234
0.399654
0.391429
0.64652
0.632745
0.624022
0.616322
0.60762
0.597809
0.587046
0.57556
0.563598
0.551379
0.539075
0.526819
0.514707
0.502812
0.491184
0.479859
0.468859
0.458197
0.44788
0.437908
0.428281
0.418991
0.410024
0.401363
0.393025
0.648555
0.634726
0.625935
0.618151
0.609355
0.59945
0.588596
0.577023
0.564981
0.552687
0.540313
0.527991
0.515818
0.503866
0.492184
0.480808
0.46976
0.459054
0.448694
0.438683
0.429017
0.419691
0.410692
0.401996
0.393609
0.64737
0.633557
0.624805
0.617076
0.608342
0.598497
0.587699
0.576178
0.564183
0.55193
0.539594
0.527306
0.515164
0.50324
0.491584
0.480231
0.469205
0.458517
0.448176
0.438181
0.42853
0.419219
0.410232
0.401548
0.393177
0.642965
0.629238
0.620633
0.6131
0.604581
0.594952
0.584358
0.573026
0.561204
0.549111
0.53692
0.524765
0.512746
0.500935
0.489383
0.478128
0.467191
0.456588
0.446325
0.436404
0.426823
0.417575
0.408646
0.400021
0.391731
0.635356
0.621786
0.613434
0.606235
0.598086
0.588825
0.578583
0.567577
0.556056
0.544237
0.532299
0.520377
0.508572
0.496958
0.48559
0.474505
0.463727
0.453272
0.443147
0.433357
0.423899
0.414765
0.405938
0.397418
0.389275
0.624576
0.611231
0.603237
0.596509
0.58888
0.580141
0.570395
0.559851
0.548755
0.537327
0.525748
0.514156
0.502655
0.491324
0.480217
0.469375
0.458823
0.44858
0.438654
0.42905
0.419768
0.410797
0.402118
0.393748
0.385815
0.610671
0.59762
0.590085
0.583961
0.577002
0.568933
0.559826
0.549878
0.53933
0.528406
0.517291
0.506125
0.495018
0.484051
0.473283
0.462755
0.452497
0.442528
0.43286
0.423498
0.414445
0.405687
0.397198
0.389024
0.381362
0.593704
0.581012
0.574036
0.568645
0.562499
0.555246
0.546918
0.537695
0.527817
0.517508
0.506958
0.496314
0.485689
0.475167
0.464813
0.45467
0.444772
0.435139
0.425785
0.416721
0.407949
0.399451
0.391197
0.383262
0.375932
0.573751
0.561482
0.555159
0.550625
0.545432
0.539135
0.531722
0.523351
0.514259
0.504675
0.49479
0.484759
0.474701
0.464704
0.454837
0.445148
0.435673
0.426437
0.417455
0.408742
0.400302
0.392111
0.384136
0.376481
0.369542
0.550905
0.539119
0.533538
0.52998
0.525871
0.520667
0.514298
0.506902
0.498711
0.489954
0.480832
0.471504
0.462095
0.4527
0.443391
0.434223
0.425234
0.416453
0.407899
0.399589
0.391529
0.383694
0.376039
0.368706
0.362212
0.52527
0.514027
0.509271
0.506798
0.503901
0.499917
0.494717
0.488414
0.481231
0.473404
0.465137
0.456598
0.447917
0.439198
0.430517
0.421933
0.413491
0.405221
0.397148
0.389292
0.381662
0.374227
0.366934
0.359962
0.353966
0.496967
0.48632
0.482467
0.481182
0.479613
0.476971
0.473058
0.467959
0.46189
0.455087
0.447764
0.440095
0.43222
0.424246
0.416258
0.408321
0.400483
0.392779
0.385238
0.377885
0.370733
0.363743
0.356851
0.350278
0.344829
0.466127
0.45613
0.453248
0.453244
0.453112
0.451925
0.44941
0.445619
0.440761
0.435074
0.428778
0.422057
0.415058
0.407897
0.400665
0.393433
0.386254
0.379169
0.372209
0.365406
0.358775
0.352274
0.345825
0.339686
0.33483
0.432897
0.423597
0.421748
0.423109
0.424512
0.424883
0.423868
0.421484
0.417927
0.41344
0.40825
0.40255
0.396494
0.390208
0.383791
0.377318
0.37085
0.364431
0.3581
0.351891
0.345826
0.339856
0.333887
0.328217
0.323998
0.397436
0.388875
0.388114
0.390912
0.393936
0.395959
0.396538
0.395649
0.393477
0.390269
0.386256
0.381642
0.376592
0.371239
0.36569
0.360027
0.354317
0.348612
0.342952
0.33738
0.331922
0.326523
0.321073
0.315904
0.312362
0.359913
0.352132
0.352502
0.356797
0.361518
0.365275
0.36753
0.368217
0.367507
0.365646
0.362877
0.35941
0.355422
0.351053
0.34642
0.341613
0.336706
0.331754
0.326807
0.32191
0.317097
0.312309
0.307415
0.302776
0.299949
0.320511
0.313544
0.31508
0.32092
0.327401
0.332962
0.336965
0.339298
0.340117
0.339667
0.338198
0.335931
0.333053
0.329716
0.326042
0.322131
0.318064
0.313903
0.309703
0.305517
0.301385
0.297244
0.292941
0.288863
0.286787
0.279421
0.273299
0.276026
0.283446
0.291735
0.299157
0.30497
0.309009
0.311413
0.312427
0.312308
0.311288
0.309563
0.307295
0.304616
0.301635
0.298439
0.2951
0.291677
0.288232
0.284812
0.281352
0.277675
0.274183
0.272893
0.236846
0.231595
0.235527
0.244548
0.254679
0.264007
0.271678
0.277473
0.281509
0.284032
0.285304
0.285567
0.285028
0.28386
0.282204
0.280178
0.277879
0.275384
0.272761
0.27008
0.267398
0.264648
0.261627
0.258748
0.258278
0.192998
0.188639
0.193779
0.20441
0.216402
0.227664
0.237229
0.244817
0.250523
0.254588
0.257282
0.258857
0.259529
0.259483
0.258869
0.257816
0.256427
0.25479
0.252981
0.251078
0.249151
0.247134
0.244794
0.242548
0.242934
0.148097
0.144647
0.150989
0.163221
0.177079
0.190291
0.20177
0.211177
0.218578
0.22421
0.228348
0.231253
0.233153
0.23424
0.234678
0.234603
0.234129
0.233352
0.232356
0.231232
0.230064
0.22879
0.227147
0.225549
0.226829
0.102371
0.0998408
0.107369
0.12118
0.136892
0.152053
0.165456
0.176694
0.185805
0.193018
0.198612
0.202855
0.205988
0.208212
0.2097
0.210598
0.211029
0.211098
0.210901
0.210539
0.210113
0.209572
0.208623
0.207673
0.209888
0.056055
0.0544516
0.0631375
0.0784909
0.0960287
0.113124
0.128446
0.141516
0.152341
0.161137
0.168189
0.173772
0.178133
0.181487
0.184012
0.185865
0.187177
0.188061
0.188623
0.18898
0.189249
0.189394
0.189095
0.188763
0.191959
0.0093887
0.00871443
0.0185202
0.0353652
0.0546855
0.0736851
0.0909067
0.105797
0.118327
0.128702
0.137204
0.144117
0.149696
0.154162
0.157703
0.160481
0.162635
0.164286
0.165547
0.166549
0.167432
0.168168
0.168405
0.168585
0.172798
-0.0373839
-0.0371314
-0.0262533
-0.00798194
0.0130618
0.0339198
0.0530084
0.0696966
0.0839142
0.0958523
0.105791
0.114019
0.120797
0.126352
0.130879