/*--------------------------------*- C++ -*----------------------------------*\
  =========                 |
  \\      /  F ield         | OpenFOAM: The Open Source CFD Toolbox
   \\    /   O peration     | Website:  https://openfoam.org
    \\  /    A nd           | Version:  6.0
     \\/     M anipulation  |
\*---------------------------------------------------------------------------*/
FoamFile
{
    version     2.0;
    format      ascii;
    class       volVectorField;
    location    "57";
    object      U;
}
// * * * * * * * * * * * * * * * * * * * * * * * * * * * * * * * * * * * * * //

dimensions      [0 1 -1 0 0 0 0];

internalField   nonuniform List<vector> 
12500
(
(0.000159107 -0.0263367 -1.28444e-21)
(-0.000494042 -0.0698624 1.79787e-20)
(-0.00268737 -0.105737 -2.61836e-20)
(-0.00590605 -0.134945 1.20717e-20)
(-0.00980543 -0.158438 7.3227e-22)
(-0.0141099 -0.177155 -1.5197e-21)
(-0.0185584 -0.191973 -2.2219e-20)
(-0.0229202 -0.20367 1.22468e-20)
(-0.0270033 -0.212903 8.1028e-21)
(-0.0306562 -0.220202 8.26755e-21)
(-0.0337677 -0.225972 -1.40205e-20)
(-0.0362653 -0.230507 8.18256e-21)
(-0.038112 -0.234011 -3.86124e-21)
(-0.0393019 -0.236617 6.55573e-21)
(-0.0398555 -0.23841 -1.67724e-20)
(-0.0398138 -0.239445 2.43408e-20)
(-0.0392336 -0.239763 -4.67041e-21)
(-0.0381813 -0.239406 -1.72426e-20)
(-0.0367275 -0.238423 8.81331e-21)
(-0.0349441 -0.236877 -8.43334e-21)
(-0.0329143 -0.234852 7.5831e-21)
(-0.0307243 -0.232451 1.01101e-20)
(-0.0283114 -0.229796 1.01447e-21)
(-0.0253699 -0.227024 -2.89156e-20)
(-0.0229291 -0.224329 1.60932e-20)
(0.000822157 -0.0255225 2.27267e-20)
(0.000929816 -0.0676725 -6.10379e-20)
(-0.0011589 -0.102448 1.81574e-20)
(-0.00466105 -0.130818 1.21526e-20)
(-0.00908537 -0.15373 -9.75227e-21)
(-0.0140647 -0.172117 -5.54741e-20)
(-0.0192677 -0.186843 1.65796e-20)
(-0.0244123 -0.198667 -3.13212e-20)
(-0.0292706 -0.208221 3.76286e-20)
(-0.0336668 -0.216005 -5.03986e-20)
(-0.0374742 -0.222391 2.70101e-20)
(-0.0406112 -0.227638 8.68928e-21)
(-0.0430374 -0.231916 -2.20806e-20)
(-0.0447471 -0.235325 -9.81843e-21)
(-0.0457644 -0.237919 7.1713e-20)
(-0.0461366 -0.239727 -6.35346e-20)
(-0.0459285 -0.240768 1.51762e-20)
(-0.0452164 -0.241065 2.63588e-20)
(-0.0440813 -0.240657 -6.16164e-21)
(-0.0426058 -0.239601 4.27981e-20)
(-0.0408835 -0.237978 7.73166e-21)
(-0.0390081 -0.235894 -2.60209e-21)
(-0.0369204 -0.23347 -5.40397e-20)
(-0.0343291 -0.230834 4.99927e-20)
(-0.0322752 -0.228209 -1.00417e-19)
(0.00140709 -0.0244008 7.24941e-20)
(0.00214773 -0.0647691 2.51462e-20)
(6.48965e-05 -0.0981999 -3.29663e-20)
(-0.00378823 -0.125598 1.41755e-20)
(-0.00877595 -0.147871 1.34882e-20)
(-0.0144435 -0.165923 5.11853e-20)
(-0.0203938 -0.180589 -6.51932e-20)
(-0.0262976 -0.192596 -1.05245e-20)
(-0.031895 -0.202544 -4.38852e-20)
(-0.0369887 -0.210895 -3.67644e-20)
(-0.0414383 -0.217986 4.77628e-20)
(-0.0451547 -0.22404 -1.59891e-19)
(-0.0480938 -0.229189 -4.89308e-21)
(-0.0502502 -0.233498 -9.62452e-20)
(-0.0516506 -0.236988 -1.13192e-20)
(-0.0523479 -0.239658 1.38197e-20)
(-0.0524145 -0.241503 -7.49377e-20)
(-0.0519359 -0.242525 -4.6904e-20)
(-0.0510039 -0.242748 -5.57184e-20)
(-0.0497125 -0.242221 8.75468e-20)
(-0.048167 -0.241023 3.2137e-20)
(-0.0464704 -0.239263 -1.41802e-19)
(-0.0445698 -0.237061 -6.84296e-20)
(-0.0421905 -0.234541 -7.62427e-20)
(-0.0403827 -0.231964 2.19254e-19)
(0.00188885 -0.0229729 -2.49882e-21)
(0.00311043 -0.0611642 -5.78935e-20)
(0.00093306 -0.0930174 -2.76293e-20)
(-0.00332837 -0.119318 1.71726e-20)
(-0.00890178 -0.140901 1.08873e-19)
(-0.0152524 -0.158617 -4.94769e-20)
(-0.021924 -0.173253 1.05629e-19)
(-0.0285464 -0.185495 1.0083e-19)
(-0.0348321 -0.195901 6.16581e-20)
(-0.0405657 -0.204897 -9.9154e-22)
(-0.0455953 -0.212777 1.24941e-19)
(-0.049825 -0.219728 2.16278e-20)
(-0.0532073 -0.225843 9.57046e-20)
(-0.0557362 -0.23115 2.20106e-19)
(-0.0574403 -0.235637 -2.5572e-19)
(-0.0583765 -0.239268 3.84772e-19)
(-0.0586236 -0.24201 8.36473e-20)
(-0.0582756 -0.243842 -1.84577e-19)
(-0.0574348 -0.244769 -2.63042e-20)
(-0.0562074 -0.244828 6.76216e-20)
(-0.0547114 -0.244094 -3.34218e-20)
(-0.0530608 -0.242675 -1.95616e-20)
(-0.0512123 -0.240695 -1.92317e-20)
(-0.0489105 -0.238277 -7.84482e-20)
(-0.0472127 -0.235722 2.94354e-19)
(0.00224385 -0.0212492 3.73375e-20)
(0.0037737 -0.0568875 -1.80928e-19)
(0.0014038 -0.0869451 2.20783e-19)
(-0.00330924 -0.112034 -8.86288e-20)
(-0.0094712 -0.132879 1.06358e-19)
(-0.0164782 -0.150254 8.70243e-20)
(-0.0238245 -0.164886 3.31818e-20)
(-0.0311057 -0.177405 1.35241e-21)
(-0.0380121 -0.188325 1.88443e-19)
(-0.0443142 -0.198028 1.30664e-19)
(-0.0498508 -0.20677 -5.28226e-20)
(-0.0545201 -0.214699 -3.39951e-20)
(-0.0582713 -0.221869 1.43403e-19)
(-0.0610966 -0.228272 2.71259e-20)
(-0.0630252 -0.233858 7.32267e-20)
(-0.0641161 -0.238557 1.75899e-19)
(-0.064453 -0.242304 -1.52687e-19)
(-0.0641373 -0.245047 1.23536e-19)
(-0.0632811 -0.246769 -2.64925e-19)
(-0.0620028 -0.24749 2.22498e-19)
(-0.0604341 -0.247275 1.21071e-21)
(-0.0587025 -0.246232 -1.76297e-19)
(-0.0567769 -0.244486 7.19769e-20)
(-0.0544245 -0.242161 1.61698e-19)
(-0.052709 -0.239603 -2.53886e-19)
(0.00245124 -0.0192494 1.92245e-19)
(0.00410105 -0.0519886 -2.12332e-19)
(0.00144749 -0.0800509 -3.4813e-20)
(-0.00374298 -0.103821 4.36233e-20)
(-0.0104742 -0.123882 -9.52492e-20)
(-0.0180875 -0.140909 -1.49481e-19)
(-0.0260384 -0.15555 -1.24696e-19)
(-0.033897 -0.168375 -3.02388e-20)
(-0.0413377 -0.179846 -2.16648e-19)
(-0.0481204 -0.190303 1.7241e-19)
(-0.0540774 -0.199963 -2.69409e-19)
(-0.0591022 -0.208934 1.36302e-19)
(-0.0631403 -0.217237 -4.57484e-20)
(-0.0661816 -0.224826 1.05327e-19)
(-0.0682536 -0.231613 -2.65138e-19)
(-0.0694159 -0.237492 1.27901e-19)
(-0.0697548 -0.24236 9.14221e-21)
(-0.0693773 -0.246132 5.71619e-20)
(-0.0684042 -0.248759 3.43826e-19)
(-0.0669662 -0.250239 7.49651e-20)
(-0.0652095 -0.250621 -7.88146e-21)
(-0.0632766 -0.250006 2.14586e-20)
(-0.0611525 -0.248518 1.42621e-19)
(-0.0586305 -0.246286 3.98092e-20)
(-0.0567816 -0.243704 1.41041e-19)
(0.0024943 -0.0170031 -1.19851e-19)
(0.00406611 -0.0465366 1.76951e-19)
(0.00104884 -0.0724256 1.10895e-20)
(-0.00462439 -0.0947796 -2.19309e-19)
(-0.0118811 -0.11401 4.63194e-19)
(-0.020025 -0.130671 -1.50819e-19)
(-0.0284855 -0.14532 2.20938e-19)
(-0.0368165 -0.158461 2.03276e-19)
(-0.0446827 -0.1705 -1.68975e-19)
(-0.0518386 -0.181735 -2.46671e-19)
(-0.0581123 -0.192343 6.77042e-20)
(-0.063394 -0.202402 -7.1623e-20)
(-0.0676257 -0.211896 -3.17256e-19)
(-0.0707938 -0.220745 3.85526e-19)
(-0.0729228 -0.228827 -1.85002e-19)
(-0.0740707 -0.235995 -1.27668e-19)
(-0.0743239 -0.242106 8.17726e-22)
(-0.0737931 -0.247036 1.0359e-19)
(-0.0726061 -0.250697 4.2744e-20)
(-0.0709052 -0.253055 -1.68237e-19)
(-0.0688519 -0.254134 1.89614e-19)
(-0.0666052 -0.254024 -3.31295e-19)
(-0.0641698 -0.252838 2.01315e-19)
(-0.0613693 -0.25071 -1.54142e-19)
(-0.0592852 -0.248088 4.35241e-20)
(0.00236173 -0.0145497 1.72883e-19)
(0.0036548 -0.0406204 -1.38509e-19)
(0.000208891 -0.0641826 -8.91429e-20)
(-0.00592969 -0.0850316 -1.58373e-19)
(-0.0136425 -0.103381 -2.91586e-19)
(-0.0222143 -0.119647 -2.16841e-19)
(-0.0310626 -0.134288 1.3563e-19)
(-0.039735 -0.14773 -2.06552e-19)
(-0.0478936 -0.160329 2.63367e-19)
(-0.0552917 -0.172335 -4.30307e-19)
(-0.0617566 -0.183896 1.91713e-19)
(-0.0671768 -0.195056 4.05871e-19)
(-0.0714915 -0.205773 -5.71386e-19)
(-0.0746831 -0.215936 8.16601e-20)
(-0.0767718 -0.225387 1.06021e-19)
(-0.0778118 -0.233942 1.02456e-19)
(-0.0778876 -0.241416 -1.11341e-19)
(-0.0771106 -0.247639 -2.81809e-20)
(-0.0756141 -0.252477 -8.08547e-20)
(-0.0735505 -0.255852 -6.76979e-20)
(-0.0710966 -0.257755 -3.66384e-19)
(-0.06843 -0.258248 -2.39686e-20)
(-0.0655778 -0.257432 3.42601e-21)
(-0.0623993 -0.255437 -1.64581e-19)
(-0.0599919 -0.252763 1.79752e-19)
(0.00204885 -0.0119382 5.05207e-21)
(0.00286718 -0.034347 5.70521e-20)
(-0.00105388 -0.0554567 5.95328e-20)
(-0.00761642 -0.0747205 3.49635e-20)
(-0.0156895 -0.0921336 2.96221e-19)
(-0.0245595 -0.107964 2.79872e-19)
(-0.0336465 -0.122558 -2.28834e-19)
(-0.0425016 -0.136265 -6.98887e-20)
(-0.0507916 -0.149383 -6.24194e-20)
(-0.0582736 -0.162125 3.23381e-19)
(-0.0647774 -0.174606 1.16224e-19)
(-0.070192 -0.186847 -1.70165e-19)
(-0.0744549 -0.198782 -1.43823e-19)
(-0.077545 -0.210277 3.47552e-19)
(-0.0794775 -0.221144 -8.61338e-20)
(-0.0803011 -0.231164 -1.04022e-19)
(-0.0800961 -0.240106 -1.44695e-19)
(-0.0789726 -0.247752 -1.12353e-19)
(-0.0770666 -0.253915 -1.42289e-19)
(-0.0745392 -0.258463 -9.23397e-20)
(-0.0715816 -0.261337 3.84401e-19)
(-0.0683909 -0.262561 -1.88417e-19)
(-0.0650202 -0.262206 1.26528e-19)
(-0.0613691 -0.260393 -3.32102e-19)
(-0.0585603 -0.257672 1.45006e-19)
(0.00155851 -0.00922525 -1.54871e-19)
(0.0017185 -0.0278391 -4.21681e-20)
(-0.00270331 -0.0464014 -3.31273e-19)
(-0.00962435 -0.064009 -1.60056e-19)
(-0.0179365 -0.0804279 -3.18318e-19)
(-0.0269485 -0.0957661 -3.35162e-20)
(-0.0360973 -0.110256 1.72629e-19)
(-0.0449479 -0.124165 -1.05683e-19)
(-0.0531784 -0.137734 2.28806e-19)
(-0.0605548 -0.151138 -5.58218e-19)
(-0.0669133 -0.164469 -1.60925e-20)
(-0.0721459 -0.177729 9.94526e-20)
(-0.0761905 -0.190836 -1.26564e-19)
(-0.0790235 -0.203638 1.14653e-19)
(-0.0806555 -0.215924 -8.83409e-20)
(-0.0811293 -0.227446 -1.88213e-19)
(-0.0805195 -0.237932 3.42061e-19)
(-0.0789324 -0.247114 2.10783e-19)
(-0.0765042 -0.254745 -4.46425e-20)
(-0.073402 -0.260627 1.37058e-19)
(-0.0698307 -0.264637 -2.71042e-19)
(-0.0660072 -0.266744 3.86968e-19)
(-0.0620122 -0.266971 -5.27757e-19)
(-0.0577906 -0.265412 1.09136e-19)
(-0.0545047 -0.262662 -2.15717e-19)
(0.00090158 -0.00647388 8.52586e-21)
(0.000239579 -0.0212317 -1.43069e-19)
(-0.00468627 -0.0371854 2.14548e-19)
(-0.0118775 -0.053077 4.43482e-19)
(-0.0202842 -0.0684405 -7.33354e-21)
(-0.0292573 -0.0832196 5.0939e-20)
(-0.0382648 -0.0975281 -1.93735e-19)
(-0.0468951 -0.111551 9.0997e-20)
(-0.0548441 -0.125473 6.31363e-19)
(-0.0618918 -0.139435 -1.43784e-19)
(-0.0678842 -0.153506 -1.70255e-19)
(-0.0727199 -0.167676 6.45545e-19)
(-0.07634 -0.181857 2.10834e-19)
(-0.0787206 -0.195887 1.00003e-19)
(-0.0798692 -0.209542 1.02794e-19)
(-0.0798234 -0.222552 2.80158e-19)
(-0.0786517 -0.23461 -1.06492e-19)
(-0.0764549 -0.245401 2.82339e-19)
(-0.073367 -0.254615 3.79293e-19)
(-0.0695588 -0.261983 -3.2171e-19)
(-0.0652461 -0.267302 4.74438e-19)
(-0.0606652 -0.270462 1.64938e-19)
(-0.0559256 -0.271418 -6.30172e-19)
(-0.0510202 -0.270215 9.05104e-19)
(-0.0471714 -0.267479 -7.79671e-19)
(9.69557e-05 -0.00375057 -3.93251e-19)
(-0.00152388 -0.0146675 2.2389e-19)
(-0.0069345 -0.0279878 -1.51509e-19)
(-0.0142872 -0.0421176 -1.44988e-19)
(-0.0226236 -0.0563642 -1.57936e-19)
(-0.0313558 -0.0705079 -1.72597e-19)
(-0.0399953 -0.0845435 4.74232e-20)
(-0.0481625 -0.0985722 4.55131e-19)
(-0.0555774 -0.112724 -9.78007e-20)
(-0.0620383 -0.127106 -2.56269e-19)
(-0.067405 -0.141769 -1.57313e-19)
(-0.0715863 -0.156698 -6.43254e-20)
(-0.0745296 -0.171802 1.9134e-19)
(-0.0762141 -0.186921 -1.22469e-19)
(-0.0766474 -0.201828 -3.97809e-19)
(-0.0758637 -0.216241 -4.37249e-19)
(-0.0739267 -0.229833 1.74562e-19)
(-0.0709313 -0.242244 -3.21971e-19)
(-0.0670077 -0.25311 2.75988e-19)
(-0.0623272 -0.262082 -7.81e-19)
(-0.057114 -0.268869 5.93532e-19)
(-0.0516219 -0.273261 -7.77836e-19)
(-0.0459881 -0.275116 -1.10877e-20)
(-0.0402551 -0.274397 -2.53075e-19)
(-0.0357316 -0.271743 7.99277e-19)
(-0.000829061 -0.00112234 6.04228e-19)
(-0.00351287 -0.00829109 9.26683e-20)
(-0.00936728 -0.0189928 -6.13465e-20)
(-0.0167559 -0.0313321 -2.59975e-20)
(-0.0248418 -0.0444044 4.89422e-19)
(-0.0331142 -0.0578324 1.60768e-19)
(-0.0411394 -0.0714936 1.46944e-19)
(-0.0485775 -0.0854065 -1.18349e-19)
(-0.0551777 -0.0996462 4.59297e-19)
(-0.0607605 -0.114286 -2.26022e-19)
(-0.0652031 -0.129362 1.46742e-19)
(-0.0684278 -0.144855 3.75145e-19)
(-0.0703926 -0.160681 -2.12304e-19)
(-0.0710837 -0.176689 2.31042e-19)
(-0.0705124 -0.192659 2.18282e-19)
(-0.068714 -0.208313 7.43773e-20)
(-0.0657496 -0.223311 -1.79948e-19)
(-0.06171 -0.237271 5.02196e-19)
(-0.0567209 -0.249778 -4.55894e-20)
(-0.0509518 -0.260413 -4.89601e-20)
(-0.0446321 -0.268787 5.86078e-19)
(-0.0380305 -0.274576 -4.08929e-19)
(-0.0313091 -0.277509 6.84935e-19)
(-0.0245571 -0.277429 -5.57772e-19)
(-0.0192036 -0.274957 7.66402e-19)
(-0.00184395 0.00134665 -2.92356e-19)
(-0.00565766 -0.0022432 6.83788e-20)
(-0.011895 -0.0103824 -7.1224e-20)
(-0.0191816 -0.020924 -3.3959e-19)
(-0.0268264 -0.0327741 1.95902e-20)
(-0.034409 -0.0454079 1.96997e-19)
(-0.0415599 -0.058591 -8.04917e-19)
(-0.047985 -0.0722601 6.04863e-19)
(-0.0534668 -0.0864352 -5.91772e-19)
(-0.0578515 -0.101156 -3.74338e-19)
(-0.0610366 -0.116444 3.38197e-19)
(-0.0629613 -0.132279 -7.33048e-19)
(-0.0635975 -0.148584 6.19363e-19)
(-0.062943 -0.165224 -1.97314e-19)
(-0.061018 -0.181999 -5.61015e-19)
(-0.0578634 -0.198644 1.37813e-19)
(-0.0535426 -0.214828 -1.29477e-19)
(-0.0481457 -0.230159 4.62463e-20)
(-0.0417951 -0.244194 -1.73907e-19)
(-0.0346575 -0.256455 -5.63913e-19)
(-0.0269649 -0.266462 1.2755e-19)
(-0.0189977 -0.273768 4.5364e-22)
(-0.0109375 -0.277946 -5.54929e-19)
(-0.00291431 -0.278674 3.90289e-19)
(0.00348419 -0.276513 -3.54621e-19)
(-0.00291072 0.00359849 1.1851e-19)
(-0.0078811 0.00334613 2.28197e-19)
(-0.014423 -0.00233009 3.22303e-19)
(-0.0214618 -0.0110923 1.67571e-19)
(-0.0284704 -0.0216873 -1.65317e-19)
(-0.0351285 -0.0334579 3.97502e-19)
(-0.0411379 -0.0460642 2.96676e-19)
(-0.0462551 -0.0593646 -1.07532e-19)
(-0.0502995 -0.0733237 3.90052e-19)
(-0.053145 -0.0879469 -4.02892e-19)
(-0.0547121 -0.103238 -1.18078e-19)
(-0.0549592 -0.119174 1.20768e-19)
(-0.0538756 -0.13569 2.4139e-19)
(-0.0514748 -0.152667 2.58723e-21)
(-0.0477908 -0.169931 1.52497e-19)
(-0.0428759 -0.187243 2.78499e-19)
(-0.036802 -0.204294 -4.73112e-19)
(-0.0296634 -0.220706 5.85657e-19)
(-0.0215831 -0.236032 1.93809e-19)
(-0.0127264 -0.249757 6.31905e-20)
(-0.0033258 -0.261331 -6.89511e-19)
(0.00632924 -0.27019 9.94027e-20)
(0.0160431 -0.275737 1.48519e-19)
(0.0256575 -0.277431 -3.20437e-20)
(0.033386 -0.275734 1.73563e-19)
(-0.0039901 0.00558472 1.0223e-20)
(-0.0101025 0.00836343 -5.88789e-19)
(-0.016856 0.00500727 -1.41663e-20)
(-0.0234979 -0.00202369 -1.50983e-19)
(-0.0296762 -0.0113522 -1.00273e-18)
(-0.0351766 -0.0222063 8.72896e-19)
(-0.0397773 -0.0341512 -6.25498e-19)
(-0.0432888 -0.0469703 -3.07318e-20)
(-0.0455698 -0.0605735 -2.99706e-19)
(-0.046524 -0.0749296 5.21332e-19)
(-0.0460962 -0.0900225 -5.63701e-19)
(-0.0442661 -0.105824 -2.6494e-19)
(-0.0410428 -0.122275 7.12737e-21)
(-0.0364591 -0.139277 -5.7469e-19)
(-0.0305673 -0.15668 7.84878e-19)
(-0.023437 -0.174279 -9.05693e-19)
(-0.0151548 -0.1918 3.0884e-21)
(-0.00582645 -0.2089 1.39297e-19)
(0.00441846 -0.225148 -3.38923e-19)
(0.0154128 -0.240033 3.22386e-19)
(0.0269226 -0.252964 -4.60517e-19)
(0.0386507 -0.263287 -2.95091e-19)
(0.0503932 -0.270234 5.41014e-19)
(0.0619807 -0.273015 -5.81961e-19)
(0.0713937 -0.271934 -9.43173e-21)
(-0.00504291 0.00726888 -4.80479e-19)
(-0.0122419 0.0127173 5.73184e-19)
(-0.0191015 0.0114956 -1.7784e-19)
(-0.0251979 0.00611469 3.46821e-19)
(-0.0303571 -0.00196203 3.77003e-19)
(-0.0344736 -0.0118691 -3.3443e-19)
(-0.0374046 -0.0230885 -2.25196e-19)
(-0.0390173 -0.0353344 -2.70456e-19)
(-0.0392113 -0.048463 2.48566e-19)
(-0.0379216 -0.0624048 -1.56899e-20)
(-0.0351182 -0.0771203 3.66678e-19)
(-0.0308037 -0.0925708 3.62892e-19)
(-0.0250087 -0.1087 -4.33887e-19)
(-0.0177878 -0.125422 8.55015e-19)
(-0.0092155 -0.142612 -5.65916e-19)
(0.000616207 -0.160096 -9.67077e-20)
(0.0115994 -0.177645 1.09588e-18)
(0.0236095 -0.19496 -5.07655e-19)
(0.0365027 -0.211657 3.16281e-19)
(0.0501033 -0.227256 6.10811e-19)
(0.064173 -0.241172 -3.95677e-19)
(0.0784055 -0.252705 4.30178e-20)
(0.0925916 -0.26095 -2.41763e-20)
(0.106574 -0.26485 -1.48639e-19)
(0.118082 -0.264505 3.02402e-19)
(-0.00603252 0.00862825 1.10098e-19)
(-0.0142236 0.0163423 -3.6605e-19)
(-0.0210736 0.0170298 2.01778e-19)
(-0.026478 0.0131829 -2.13429e-21)
(-0.0304376 0.00631287 1.5422e-19)
(-0.0329545 -0.00264397 -2.68048e-19)
(-0.0339659 -0.0131 1.54257e-19)
(-0.0333973 -0.0247073 4.22799e-19)
(-0.0311905 -0.0372706 -1.27441e-20)
(-0.0273128 -0.0506814 -2.1958e-19)
(-0.0217609 -0.064873 2.22557e-19)
(-0.014561 -0.0797916 -4.96807e-21)
(-0.00576679 -0.0953768 -7.06193e-19)
(0.00454349 -0.111549 2.63306e-19)
(0.01627 -0.1282 5.89879e-20)
(0.0292943 -0.145187 -1.02055e-19)
(0.0434811 -0.162318 -1.77302e-19)
(0.0586795 -0.179347 6.90058e-19)
(0.0747224 -0.19595 1.64763e-19)
(0.0914175 -0.211708 -3.53589e-19)
(0.108515 -0.226087 -3.95265e-20)
(0.125697 -0.2384 4.66399e-19)
(0.142746 -0.247665 -2.1919e-19)
(0.159547 -0.252577 8.8366e-20)
(0.173584 -0.253006 6.37984e-20)
(-0.00692695 0.00965454 -2.2161e-19)
(-0.0159798 0.0192017 2.2827e-19)
(-0.0226945 0.0215378 -1.30255e-19)
(-0.0272631 0.0190742 -4.21632e-19)
(-0.0298511 0.0133336 -3.91199e-19)
(-0.0305643 0.00530002 -1.76205e-19)
(-0.0294192 -0.00438379 -1.45971e-19)
(-0.0264001 -0.0153164 -4.35738e-19)
(-0.0214925 -0.0272549 -1.7669e-19)
(-0.0146973 -0.040052 1.61319e-19)
(-0.00603908 -0.0536116 -2.32595e-19)
(0.00443106 -0.0678601 -2.47821e-19)
(0.0166349 -0.0827264 -2.32862e-19)
(0.0304684 -0.0981297 4.22036e-19)
(0.045804 -0.113971 -8.8985e-19)
(0.0624929 -0.130124 5.04345e-19)
(0.080367 -0.146433 -8.63734e-19)
(0.0992419 -0.162696 -1.31694e-19)
(0.118918 -0.178654 -4.64739e-19)
(0.139176 -0.193963 -1.05619e-19)
(0.159747 -0.208176 -1.30199e-19)
(0.180291 -0.22068 -4.22467e-19)
(0.20058 -0.230499 -4.01614e-20)
(0.220565 -0.236137 2.45691e-19)
(0.237545 -0.237237 -6.58367e-19)
(-0.00770055 0.0103534 1.90548e-19)
(-0.0174529 0.0212872 2.59198e-19)
(-0.0238964 0.0249829 9.16544e-19)
(-0.0274857 0.0237198 -1.6272e-19)
(-0.028536 0.0189994 3.89274e-19)
(-0.0272506 0.0118319 9.36061e-19)
(-0.0237231 0.00290002 -2.56661e-19)
(-0.0179968 -0.00735072 3.50306e-19)
(-0.0101018 -0.018635 2.06164e-19)
(-7.43983e-05 -0.0307684 3.75513e-19)
(0.0120313 -0.0436245 -7.63069e-20)
(0.0261371 -0.0571066 5.10259e-20)
(0.0421381 -0.0711279 -1.32806e-19)
(0.0599022 -0.085599 7.23637e-19)
(0.0792708 -0.10042 9.36458e-20)
(0.100061 -0.115475 6.69388e-19)
(0.122066 -0.130626 -1.69465e-19)
(0.14506 -0.145707 6.04548e-19)
(0.168803 -0.160514 8.1376e-20)
(0.193036 -0.174781 2.98617e-19)
(0.217459 -0.18816 -1.25214e-19)
(0.241701 -0.20016 -1.36063e-20)
(0.265508 -0.209898 6.78484e-19)
(0.288928 -0.215777 3.98124e-19)
(0.309176 -0.217255 -1.73641e-19)
(-0.00833491 0.0107431 -4.6377e-19)
(-0.0185967 0.022618 -4.8894e-19)
(-0.0246205 0.0273639 -5.15493e-19)
(-0.0270829 0.0270909 1.90008e-19)
(-0.0264301 0.0232529 -3.85482e-19)
(-0.0229548 0.0168666 -5.79592e-20)
(-0.0168245 0.00864007 -1.53775e-19)
(-0.008141 -0.000946846 -6.4378e-19)
(0.00301987 -0.0115726 -1.01688e-19)
(0.0165845 -0.0230188 1.67465e-19)
(0.0324665 -0.0351293 -5.2851e-19)
(0.0505579 -0.0477828 7.34823e-19)
(0.0707237 -0.0608731 -1.00112e-18)
(0.0927997 -0.0742969 2.41148e-19)
(0.116592 -0.0879463 -6.14408e-19)
(0.141878 -0.101704 -4.96241e-19)
(0.168407 -0.115441 -2.7067e-20)
(0.195905 -0.129011 -7.22242e-20)
(0.224079 -0.142247 6.04392e-20)
(0.252619 -0.154947 -2.72372e-19)
(0.281179 -0.166857 -1.85427e-19)
(0.309345 -0.177627 2.22178e-19)
(0.336812 -0.186539 -6.06628e-19)
(0.363739 -0.192001 1.94033e-19)
(0.387431 -0.193344 1.30785e-19)
(-0.00881908 0.0108518 -8.2615e-20)
(-0.0193762 0.0232369 -1.42815e-19)
(-0.024816 0.0287132 5.56753e-19)
(-0.0259928 0.0291994 2.09116e-19)
(-0.023464 0.0260827 2.79315e-19)
(-0.0176025 0.02037 -3.75602e-19)
(-0.00864542 0.0127816 1.40775e-22)
(0.00324787 0.00382171 -3.09368e-19)
(0.0179545 -0.0061586 5.74572e-19)
(0.0353611 -0.016911 1.89017e-19)
(0.0553457 -0.0282519 2.13285e-19)
(0.0777658 -0.0400352 -8.50762e-19)
(0.102452 -0.0521339 1.05208e-18)
(0.129201 -0.0644278 -3.17349e-19)
(0.157779 -0.0767959 -2.26383e-19)
(0.187915 -0.0891125 6.76515e-19)
(0.219309 -0.101246 2.98275e-19)
(0.251628 -0.113057 -7.55043e-19)
(0.284518 -0.124397 -3.06868e-19)
(0.317602 -0.135107 9.29418e-19)
(0.350479 -0.145003 -6.95859e-19)
(0.38267 -0.153866 4.15334e-19)
(0.413794 -0.161181 2.20697e-19)
(0.444103 -0.165456 -2.83552e-19)
(0.471224 -0.165917 -2.66076e-19)
(-0.00914882 0.0107146 -3.04501e-19)
(-0.0197661 0.0232056 4.90569e-19)
(-0.0244368 0.0290921 2.10687e-19)
(-0.0241502 0.0300951 -3.06439e-19)
(-0.0195549 0.0275235 -4.91585e-20)
(-0.0110945 0.0223616 -3.26663e-19)
(0.000928508 0.015331 -1.31457e-19)
(0.0162984 0.00695126 1.48635e-19)
(0.0348439 -0.00240417 -3.6807e-20)
(0.0564085 -0.012462 2.84734e-19)
(0.0808295 -0.023014 -2.48353e-19)
(0.107924 -0.0338914 6.89703e-19)
(0.137481 -0.0449469 -8.57206e-19)
(0.169251 -0.0560425 5.36418e-19)
(0.202949 -0.0670419 6.64657e-19)
(0.238251 -0.0778073 -9.58574e-19)
(0.274794 -0.0881971 -2.88201e-19)
(0.312179 -0.0980677 4.85758e-19)
(0.349979 -0.107274 -2.96597e-19)
(0.38774 -0.115668 2.79307e-19)
(0.424982 -0.123107 -6.72948e-19)
(0.461149 -0.129463 1.15001e-19)
(0.495744 -0.13442 4.18501e-19)
(0.529081 -0.136608 -6.56945e-19)
(0.55938 -0.135089 1.86639e-19)
(-0.00932515 0.0103706 -2.82105e-19)
(-0.019748 0.0225986 9.17037e-19)
(-0.0234378 0.0285858 1.77403e-19)
(-0.0214814 0.0298619 -4.83146e-19)
(-0.0146003 0.0276534 3.48638e-19)
(-0.00330018 0.0229141 1.78725e-19)
(0.0120557 0.0163575 2.87971e-19)
(0.0311956 0.00851054 -1.82181e-20)
(0.0538977 -0.000237502 -2.9854e-20)
(0.0799574 -0.00959386 -6.38977e-20)
(0.109164 -0.0193301 -2.81142e-19)
(0.141287 -0.0292583 -9.42233e-21)
(0.17606 -0.0392134 6.61056e-19)
(0.21318 -0.0490419 -1.08369e-18)
(0.252299 -0.0585941 7.72842e-19)
(0.293027 -0.0677198 1.571e-19)
(0.334934 -0.0762659 2.76178e-19)
(0.377549 -0.0840759 -1.3588e-19)
(0.420367 -0.0909907 1.2267e-18)
(0.462852 -0.0968479 -7.51409e-19)
(0.504425 -0.101492 5.90106e-19)
(0.544408 -0.10481 1.32691e-19)
(0.58212 -0.106564 -4.13893e-19)
(0.617791 -0.105346 3.45557e-19)
(0.650359 -0.100042 5.19889e-19)
(-0.00935233 0.00985905 -8.21729e-20)
(-0.0193064 0.0214976 -3.23285e-19)
(-0.0217709 0.0272964 -5.56576e-19)
(-0.0179002 0.0286116 -3.19789e-19)
(-0.00847399 0.0265899 -4.48715e-20)
(0.00594698 0.0221496 -1.28032e-19)
(0.0249418 0.0159903 -5.99582e-19)
(0.0481824 0.00863919 9.96737e-20)
(0.0753916 0.000494888 -6.83591e-19)
(0.10631 -0.00813629 -5.35937e-20)
(0.140668 -0.0170113 -6.62374e-19)
(0.178172 -0.0259281 -2.36483e-19)
(0.218491 -0.0347101 1.35932e-19)
(0.261248 -0.0431945 -6.48086e-19)
(0.306021 -0.0512248 6.31815e-21)
(0.352345 -0.0586458 -5.55306e-19)
(0.399718 -0.0652991 2.12789e-19)
(0.447604 -0.07102 -7.64295e-19)
(0.495444 -0.075632 -1.27066e-19)
(0.542661 -0.0789394 -1.44117e-20)
(0.588641 -0.0807278 -1.23342e-19)
(0.632657 -0.08078 -1.26125e-19)
(0.673877 -0.0786499 -6.50035e-20)
(0.711977 -0.072581 -2.41203e-19)
(0.745079 -0.0618693 -5.00807e-19)
(-0.00923537 0.00921671 1.49829e-19)
(-0.0184249 0.0199849 4.1007e-19)
(-0.0193801 0.0253359 4.96497e-19)
(-0.0133037 0.0264775 -3.99513e-19)
(-0.00102344 0.0244828 7.47623e-19)
(0.0168495 0.0202345 -4.08561e-19)
(0.0398374 0.0144137 2.23491e-19)
(0.0675525 0.00754231 3.51748e-19)
(0.0996548 2.20219e-05 3.221e-19)
(0.135817 -0.00783383 1.57711e-19)
(0.175697 -0.0157744 2.55612e-19)
(0.21892 -0.0235917 1.49644e-19)
(0.265065 -0.0311059 1.00981e-18)
(0.313665 -0.0381557 -7.33343e-19)
(0.364203 -0.0445908 8.37108e-19)
(0.416125 -0.0502668 -3.44752e-19)
(0.468848 -0.0550403 7.41539e-19)
(0.521779 -0.0587641 -3.79468e-20)
(0.574337 -0.0612781 -1.52284e-19)
(0.625973 -0.0623959 -2.33099e-20)
(0.676195 -0.0618874 5.49533e-19)
(0.724591 -0.0594184 -5.17538e-19)
(0.77102 -0.0541844 3.67377e-19)
(0.815692 -0.0444517 3.80237e-19)
(0.853842 -0.0330581 7.03413e-20)
(-0.00897743 0.0084756 1.03719e-19)
(-0.0170813 0.0181389 -5.85965e-19)
(-0.0161981 0.0228203 -2.14351e-19)
(-0.00757067 0.0236063 1.9791e-19)
(0.00792976 0.0215073 -6.12019e-19)
(0.0296422 0.0173713 -1.21575e-19)
(0.0570293 0.0118588 8.50626e-20)
(0.0896359 0.00548157 3.39234e-19)
(0.127047 -0.00136198 -8.61522e-19)
(0.168849 -0.00835874 6.61096e-20)
(0.214605 -0.0152586 -2.54611e-19)
(0.263833 -0.0218572 -7.75594e-19)
(0.315999 -0.0279834 5.29045e-19)
(0.370514 -0.0334907 2.34908e-20)
(0.426744 -0.0382509 -1.64714e-20)
(0.484022 -0.0421501 5.29161e-19)
(0.541671 -0.0450849 -9.28741e-19)
(0.599024 -0.0469598 7.28665e-19)
(0.655458 -0.0476831 -1.38539e-19)
(0.71042 -0.0471646 4.01445e-19)
(0.763466 -0.0453164 -6.67522e-19)
(0.814287 -0.042038 3.66052e-19)
(0.862871 -0.0370544 -6.38834e-19)
(0.909527 -0.0298357 6.29597e-19)
(0.94971 -0.023597 -2.11937e-19)
(-0.00857732 0.00766144 6.9537e-19)
(-0.0152439 0.0160306 -1.17174e-19)
(-0.0121432 0.0198637 8.72288e-19)
(-0.000560745 0.0201526 4.07064e-19)
(0.0185865 0.0178557 3.35407e-20)
(0.0445836 0.01379 1.80146e-19)
(0.0768254 0.00859335 4.38548e-20)
(0.114776 0.00276289 7.44703e-19)
(0.157926 -0.00331276 2.4163e-19)
(0.205751 -0.00932934 -3.26087e-20)
(0.25769 -0.0150476 6.59015e-20)
(0.313122 -0.0202788 2.53232e-19)
(0.371367 -0.0248735 2.11067e-19)
(0.431688 -0.0287146 4.49738e-19)
(0.493308 -0.0317117 -5.15161e-19)
(0.555429 -0.0337972 1.52981e-19)
(0.617267 -0.0349229 4.96711e-20)
(0.678074 -0.0350583 2.24247e-19)
(0.737173 -0.0341891 5.89618e-19)
(0.793991 -0.0323178 -3.92748e-19)
(0.848077 -0.0294696 2.47071e-20)
(0.899124 -0.025697 -5.13002e-19)
(0.947026 -0.0210055 4.68361e-19)
(0.991891 -0.015201 -4.3344e-19)
(1.03006 -0.0103175 5.64711e-20)
(-0.00802775 0.00679332 -5.79495e-19)
(-0.0128688 0.0137213 4.59716e-19)
(-0.00711774 0.0165746 -7.5324e-19)
(0.00788357 0.0162721 6.52579e-20)
(0.031164 0.0137301 5.38092e-19)
(0.0619439 0.00973783 -9.02161e-19)
(0.0995356 0.00490923 7.21146e-19)
(0.143302 -0.00027843 -1.15099e-18)
(0.19261 -0.00545426 2.30276e-19)
(0.246796 -0.010333 4.96784e-20)
(0.305136 -0.0146986 3.91737e-19)
(0.366837 -0.0183915 -1.3066e-18)
(0.431041 -0.021299 2.27042e-19)
(0.496836 -0.0233484 2.39022e-19)
(0.563286 -0.0245008 -1.42133e-19)
(0.62946 -0.0247465 -8.74059e-19)
(0.694467 -0.0241008 4.15138e-19)
(0.757493 -0.0226006 7.553e-19)
(0.81783 -0.0203024 -7.83916e-19)
(0.874902 -0.0172822 5.605e-19)
(0.928281 -0.0136388 -7.04126e-19)
(0.977687 -0.00950025 5.05781e-19)
(1.023 -0.00497501 -1.29646e-19)
(1.06429 6.12288e-05 7.3668e-19)
(1.09891 0.00447958 -8.24858e-19)
(-0.00731398 0.00588401 8.2474e-20)
(-0.00989818 0.0112623 6.77308e-20)
(-0.00100909 0.0130536 1.66089e-19)
(0.0179328 0.0121174 5.99717e-19)
(0.0458862 0.00933514 -1.93249e-20)
(0.081989 0.00547053 1.35396e-19)
(0.125448 0.00111072 6.09472e-19)
(0.175495 -0.00329338 2.47551e-19)
(0.231341 -0.00739845 -8.23199e-20)
(0.292139 -0.0109508 7.01315e-19)
(0.356967 -0.0137722 -8.01079e-19)
(0.424824 -0.015748 1.23216e-18)
(0.494646 -0.016818 -4.8941e-19)
(0.565334 -0.0169681 8.84221e-19)
(0.63579 -0.0162227 -2.99415e-19)
(0.704963 -0.0146372 1.08393e-19)
(0.771887 -0.0122916 1.30702e-19)
(0.835716 -0.00928453 -2.42971e-19)
(0.89576 -0.00572822 2.06311e-19)
(0.951493 -0.00174609 1.30618e-19)
(1.00257 0.0025278 1.74077e-19)
(1.04879 0.00694662 3.52816e-19)
(1.09013 0.0113846 -3.80213e-20)
(1.12672 0.0159461 -1.58684e-19)
(1.15689 0.0201257 4.39285e-19)
(-0.00641344 0.00494105 -4.82142e-19)
(-0.0062605 0.00869642 5.28349e-20)
(0.00630827 0.00939348 -9.5758e-19)
(0.0297643 0.00783597 -2.2999e-19)
(0.0629729 0.00487354 -4.3481e-19)
(0.104964 0.00124407 -9.34144e-20)
(0.154806 -0.00249703 -4.71803e-19)
(0.211562 -0.00593436 -2.84295e-19)
(0.274242 -0.00876478 3.77384e-19)
(0.341777 -0.0107816 -6.33204e-19)
(0.413005 -0.0118611 -1.76658e-19)
(0.486688 -0.0119511 6.57075e-21)
(0.561543 -0.0110594 -1.19275e-18)
(0.636284 -0.00924345 5.06386e-19)
(0.709675 -0.0065986 -7.34834e-19)
(0.780579 -0.00324775 -2.15176e-20)
(0.848005 0.000669033 1.39145e-19)
(0.911142 0.00500344 -2.31719e-19)
(0.969377 0.00960592 -2.0029e-19)
(1.02231 0.0143307 9.33302e-20)
(1.06972 0.0190386 1.01266e-19)
(1.11158 0.0235968 -6.61844e-19)
(1.14802 0.027902 3.74848e-19)
(1.1793 0.0320559 1.75076e-19)
(1.20452 0.0359266 3.51919e-20)
(-0.00529609 0.00396858 4.91823e-19)
(-0.00187215 0.00606016 -5.43701e-19)
(0.0149685 0.00568007 7.69436e-19)
(0.0435547 0.00356913 1.21817e-19)
(0.0826275 0.00054261 -3.73293e-20)
(0.131073 -0.00269135 -2.63455e-19)
(0.187782 -0.00561747 4.00024e-20)
(0.251602 -0.00786843 4.06913e-19)
(0.321294 -0.00919726 -5.64352e-19)
(0.395522 -0.00946241 5.95598e-19)
(0.472853 -0.00861392 -6.33233e-20)
(0.551795 -0.00667933 3.0137e-20)
(0.630847 -0.00374904 7.75991e-19)
(0.708564 3.91789e-05 1.03369e-18)
(0.783614 0.00451579 -4.06499e-19)
(0.854837 0.00949463 7.07108e-19)
(0.921288 0.0147863 3.49248e-19)
(0.982263 0.0202092 -2.18534e-19)
(1.0373 0.0255977 6.66476e-19)
(1.08618 0.030807 -3.47419e-20)
(1.12889 0.0357157 -6.21458e-19)
(1.16561 0.040225 6.39414e-19)
(1.19663 0.0442713 8.18503e-20)
(1.22238 0.0479636 -3.76531e-19)
(1.24254 0.0513767 1.20231e-19)
(-0.0039256 0.00296936 -6.81997e-19)
(0.00335955 0.00338745 7.40618e-19)
(0.0251092 0.0019956 -4.72928e-19)
(0.0594711 -0.000546452 -1.47691e-19)
(0.105024 -0.00346663 -3.35706e-19)
(0.160468 -0.00609513 5.98004e-19)
(0.224464 -0.00796965 -3.48737e-19)
(0.295591 -0.00878766 -1.60834e-19)
(0.372315 -0.00837801 -4.61872e-19)
(0.452991 -0.00668512 1.24104e-20)
(0.535896 -0.00375244 -1.82612e-19)
(0.619287 0.000296363 8.75285e-20)
(0.701472 0.00527777 -9.31179e-19)
(0.780894 0.0109698 2.66426e-19)
(0.856196 0.0171327 -3.17157e-19)
(0.926275 0.023528 -2.51062e-19)
(0.990315 0.0299337 7.63192e-20)
(1.04779 0.0361557 -3.5889e-19)
(1.09847 0.0420341 -1.45926e-19)
(1.14236 0.0474468 4.34173e-19)
(1.17968 0.0523079 1.74623e-19)
(1.21082 0.0565646 -7.47943e-19)
(1.23628 0.0602022 5.37351e-19)
(1.25664 0.0633442 -1.00246e-19)
(1.27196 0.0661533 -2.01256e-19)
(-0.00226106 0.00194692 -2.46817e-19)
(0.00953237 0.000713421 -1.3699e-19)
(0.0368648 -0.00157766 -2.69754e-20)
(0.0776625 -0.00437615 2.05393e-19)
(0.130298 -0.00696873 2.24142e-19)
(0.19323 -0.00873809 1.95811e-19)
(0.264836 -0.00929283 2.46061e-19)
(0.343369 -0.00841657 3.77066e-19)
(0.426955 -0.00603696 5.79475e-19)
(0.513615 -0.00220671 5.74309e-19)
(0.601332 0.00291854 3.03725e-19)