/*--------------------------------*- C++ -*----------------------------------*\
  =========                 |
  \\      /  F ield         | OpenFOAM: The Open Source CFD Toolbox
   \\    /   O peration     | Website:  https://openfoam.org
    \\  /    A nd           | Version:  6.0
     \\/     M anipulation  |
\*---------------------------------------------------------------------------*/
FoamFile
{
    version     2.0;
    format      ascii;
    class       volScalarField;
    location    "83";
    object      p;
}
// * * * * * * * * * * * * * * * * * * * * * * * * * * * * * * * * * * * * * //

dimensions      [0 2 -2 0 0 0 0];

internalField   nonuniform List<scalar> 
12500
(
-0.471426
-0.470651
-0.470028
-0.469414
-0.46885
-0.46846
-0.468335
-0.46853
-0.469069
-0.469951
-0.471163
-0.472686
-0.474498
-0.476577
-0.478904
-0.481459
-0.484225
-0.487182
-0.490312
-0.493591
-0.496995
-0.500497
-0.504098
-0.507804
-0.511299
-0.476073
-0.474881
-0.474003
-0.473217
-0.472518
-0.472022
-0.471821
-0.471972
-0.4725
-0.473409
-0.474689
-0.476321
-0.478283
-0.480552
-0.483106
-0.485922
-0.48898
-0.492258
-0.495731
-0.499376
-0.50316
-0.507055
-0.511066
-0.515215
-0.519075
-0.480281
-0.478714
-0.4776
-0.476649
-0.475814
-0.475207
-0.47492
-0.47501
-0.475508
-0.476421
-0.477743
-0.479454
-0.481535
-0.48396
-0.486705
-0.489746
-0.493058
-0.496615
-0.500391
-0.504357
-0.508478
-0.512718
-0.517088
-0.521623
-0.525813
-0.484012
-0.482118
-0.480789
-0.479681
-0.47871
-0.477986
-0.4776
-0.477611
-0.478056
-0.478947
-0.480279
-0.482038
-0.484202
-0.486747
-0.489646
-0.492872
-0.496398
-0.500194
-0.50423
-0.508474
-0.512887
-0.517428
-0.522107
-0.526972
-0.531458
-0.487247
-0.485076
-0.483555
-0.482298
-0.481192
-0.480343
-0.479843
-0.479756
-0.480122
-0.48096
-0.48227
-0.48404
-0.48625
-0.488874
-0.491886
-0.495256
-0.498953
-0.502945
-0.507199
-0.511677
-0.516338
-0.521136
-0.526077
-0.531219
-0.535971
-0.489983
-0.487588
-0.485899
-0.484502
-0.483261
-0.482278
-0.481648
-0.48144
-0.4817
-0.482453
-0.483704
-0.485446
-0.487659
-0.49032
-0.4934
-0.496869
-0.500692
-0.504836
-0.509261
-0.51393
-0.518795
-0.523807
-0.528965
-0.534336
-0.539328
-0.492231
-0.489666
-0.487836
-0.486308
-0.484931
-0.483807
-0.483031
-0.482678
-0.482801
-0.483433
-0.484586
-0.486256
-0.488428
-0.491078
-0.494179
-0.497698
-0.5016
-0.505846
-0.510397
-0.51521
-0.520236
-0.52542
-0.530755
-0.53631
-0.541521
-0.494014
-0.491333
-0.48939
-0.487743
-0.486232
-0.484957
-0.484018
-0.483495
-0.483451
-0.483925
-0.484938
-0.486492
-0.488574
-0.491165
-0.494235
-0.497753
-0.501682
-0.505981
-0.510608
-0.515518
-0.520659
-0.525975
-0.531447
-0.537147
-0.542563
-0.495368
-0.492626
-0.490598
-0.488844
-0.4872
-0.485768
-0.48465
-0.483934
-0.483691
-0.483971
-0.484803
-0.486194
-0.488138
-0.490618
-0.493606
-0.49707
-0.500972
-0.505271
-0.509922
-0.51488
-0.52009
-0.525495
-0.531067
-0.536878
-0.542488
-0.496336
-0.493586
-0.491503
-0.489656
-0.487884
-0.486288
-0.484977
-0.484047
-0.483577
-0.483629
-0.484239
-0.485424
-0.487182
-0.4895
-0.492354
-0.49571
-0.499532
-0.503778
-0.508402
-0.513356
-0.518587
-0.524036
-0.529669
-0.535558
-0.541353
-0.496971
-0.494265
-0.492155
-0.49023
-0.488334
-0.486573
-0.485059
-0.483896
-0.483176
-0.482969
-0.483323
-0.484262
-0.485791
-0.487902
-0.490572
-0.493771
-0.497461
-0.501601
-0.506144
-0.511043
-0.516245
-0.521691
-0.527342
-0.533267
-0.539234
-0.49733
-0.494718
-0.49261
-0.490621
-0.48861
-0.486683
-0.48496
-0.483553
-0.482564
-0.482076
-0.482145
-0.482805
-0.484069
-0.485933
-0.488378
-0.491375
-0.494887
-0.498873
-0.503286
-0.508078
-0.513197
-0.518586
-0.524202
-0.530109
-0.536217
-0.49748
-0.495007
-0.492928
-0.490889
-0.488771
-0.486682
-0.484748
-0.483091
-0.481824
-0.48104
-0.480806
-0.481165
-0.482138
-0.483726
-0.485913
-0.488673
-0.49197
-0.49576
-0.499997
-0.504631
-0.509611
-0.514882
-0.520393
-0.526202
-0.532383
-0.497491
-0.495198
-0.493169
-0.491096
-0.488879
-0.486634
-0.484493
-0.482588
-0.481042
-0.479957
-0.479413
-0.479462
-0.480131
-0.481425
-0.483335
-0.485835
-0.488888
-0.49245
-0.496471
-0.500899
-0.505681
-0.510761
-0.516078
-0.521667
-0.527802
-0.497439
-0.495358
-0.493399
-0.491302
-0.488998
-0.486606
-0.484267
-0.482122
-0.480304
-0.478927
-0.478078
-0.477818
-0.478183
-0.479182
-0.480808
-0.483036
-0.485829
-0.48914
-0.492913
-0.497089
-0.501609
-0.506412
-0.511421
-0.516627
-0.522527
-0.497406
-0.49556
-0.493683
-0.491572
-0.48919
-0.486663
-0.48414
-0.481771
-0.479698
-0.478045
-0.476908
-0.476356
-0.47643
-0.477144
-0.478493
-0.480452
-0.482979
-0.486023
-0.489519
-0.493398
-0.497588
-0.502016
-0.50658
-0.511198
-0.516605
-0.49748
-0.49588
-0.494092
-0.491972
-0.48952
-0.486871
-0.484182
-0.48161
-0.479308
-0.477406
-0.476009
-0.475192
-0.474999
-0.475451
-0.47654
-0.478239
-0.480502
-0.483268
-0.486461
-0.489995
-0.49378
-0.497723
-0.501687
-0.50549
-0.510093
-0.49775
-0.496395
-0.494693
-0.492566
-0.490053
-0.487296
-0.484461
-0.481714
-0.479214
-0.477098
-0.475477
-0.474429
-0.474005
-0.474222
-0.475074
-0.476528
-0.47853
-0.481006
-0.483866
-0.487002
-0.490298
-0.493637
-0.496842
-0.499609
-0.503078
-0.49831
-0.497182
-0.495558
-0.493422
-0.490853
-0.488004
-0.485046
-0.482155
-0.479492
-0.477202
-0.475397
-0.47416
-0.47354
-0.473555
-0.474193
-0.475414
-0.477153
-0.479321
-0.481807
-0.484481
-0.487198
-0.489812
-0.492107
-0.493655
-0.495692
-0.49925
-0.498318
-0.496754
-0.494604
-0.491984
-0.489057
-0.486002
-0.482998
-0.480212
-0.477789
-0.475843
-0.474457
-0.473677
-0.473518
-0.473959
-0.47495
-0.476413
-0.478241
-0.480301
-0.482438
-0.48448
-0.486252
-0.487512
-0.487726
-0.488115
-0.500658
-0.499875
-0.498347
-0.496174
-0.493506
-0.490515
-0.487386
-0.484302
-0.481429
-0.478913
-0.476865
-0.475366
-0.474455
-0.47414
-0.474391
-0.475143
-0.476301
-0.477741
-0.479309
-0.480828
-0.482102
-0.482935
-0.483077
-0.48193
-0.480573
-0.502609
-0.501917
-0.500394
-0.498185
-0.49547
-0.492427
-0.489246
-0.48611
-0.483184
-0.480609
-0.478492
-0.476906
-0.475883
-0.475417
-0.475467
-0.475953
-0.476763
-0.477753
-0.478752
-0.479569
-0.479993
-0.47982
-0.478814
-0.476369
-0.473314
-0.505167
-0.504497
-0.502943
-0.500683
-0.497917
-0.494831
-0.491615
-0.48845
-0.485497
-0.48289
-0.480725
-0.479066
-0.477933
-0.477307
-0.477129
-0.477306
-0.477707
-0.478174
-0.478524
-0.478555
-0.478055
-0.476826
-0.474667
-0.471007
-0.466405
-0.50838
-0.507657
-0.506031
-0.5037
-0.500875
-0.497749
-0.49451
-0.491332
-0.488369
-0.485742
-0.483538
-0.481805
-0.480549
-0.479734
-0.479287
-0.479097
-0.479021
-0.478891
-0.478517
-0.477696
-0.476219
-0.473892
-0.47052
-0.46554
-0.459473
-0.512277
-0.511424
-0.509683
-0.507257
-0.504361
-0.501191
-0.49793
-0.494746
-0.491777
-0.489133
-0.486884
-0.48506
-0.483651
-0.482605
-0.481832
-0.481209
-0.480585
-0.479792
-0.478646
-0.476957
-0.474537
-0.471201
-0.466692
-0.460353
-0.453254
-0.516872
-0.515812
-0.51391
-0.511362
-0.508378
-0.505153
-0.501865
-0.498669
-0.495688
-0.493015
-0.4907
-0.488754
-0.487149
-0.485814
-0.484648
-0.483518
-0.482276
-0.48076
-0.478809
-0.47627
-0.473007
-0.468912
-0.463866
-0.45782
-0.452837
-0.522162
-0.520824
-0.518716
-0.516015
-0.51292
-0.509623
-0.506294
-0.503071
-0.50006
-0.497333
-0.494918
-0.492805
-0.490945
-0.489254
-0.487618
-0.485905
-0.483971
-0.481673
-0.478878
-0.475475
-0.471381
-0.46655
-0.460974
-0.454749
-0.449146
-0.528138
-0.526455
-0.524097
-0.521212
-0.517978
-0.514587
-0.511194
-0.507921
-0.504853
-0.502035
-0.499473
-0.497135
-0.494951
-0.492824
-0.490637
-0.488259
-0.485561
-0.482426
-0.478753
-0.47447
-0.469539
-0.463958
-0.457756
-0.451012
-0.444484
-0.534782
-0.532697
-0.530049
-0.526946
-0.523545
-0.520031
-0.516548
-0.513195
-0.51003
-0.507074
-0.504306
-0.501671
-0.499083
-0.496435
-0.493609
-0.490487
-0.48696
-0.48294
-0.478363
-0.473195
-0.467434
-0.461108
-0.454267
-0.446981
-0.439753
-0.542077
-0.539541
-0.536564
-0.533213
-0.529614
-0.52595
-0.522344
-0.518871
-0.515563
-0.51241
-0.509364
-0.50635
-0.503267
-0.500005
-0.496453
-0.492511
-0.488099
-0.48316
-0.477669
-0.471626
-0.465062
-0.458025
-0.45058
-0.442796
-0.435019
-0.550006
-0.546978
-0.543639
-0.540011
-0.536187
-0.53234
-0.528576
-0.524939
-0.521429
-0.518008
-0.514601
-0.511113
-0.507436
-0.503463
-0.4991
-0.49427
-0.488928
-0.483052
-0.476652
-0.469762
-0.462436
-0.454742
-0.446751
-0.438541
-0.430362
-0.558557
-0.555001
-0.551273
-0.547343
-0.543268
-0.539207
-0.535242
-0.531388
-0.527609
-0.523835
-0.519969
-0.515902
-0.511526
-0.506747
-0.501492
-0.495719
-0.489416
-0.482599
-0.475312
-0.467614
-0.459577
-0.451282
-0.442803
-0.434222
-0.425723
-0.567718
-0.563605
-0.559466
-0.555214
-0.550861
-0.546553
-0.542343
-0.538207
-0.534077
-0.529854
-0.52542
-0.520662
-0.515479
-0.5098
-0.503583
-0.496823
-0.489545
-0.481799
-0.473655
-0.465195
-0.456503
-0.447661
-0.438746
-0.429838
-0.42107
-0.57748
-0.572785
-0.568218
-0.563626
-0.558973
-0.554381
-0.54987
-0.545379
-0.540804
-0.536019
-0.530898
-0.525331
-0.519236
-0.512573
-0.505337
-0.497561
-0.489307
-0.480655
-0.471696
-0.462524
-0.453227
-0.443889
-0.434577
-0.425371
-0.416359
-0.58783
-0.582532
-0.577525
-0.57258
-0.567601
-0.562683
-0.557808
-0.552874
-0.547744
-0.542277
-0.536342
-0.529848
-0.522742
-0.515021
-0.506723
-0.49792
-0.488703
-0.479178
-0.469449
-0.459614
-0.449762
-0.439968
-0.430292
-0.420807
-0.411562
-0.598749
-0.592832
-0.587375
-0.582065
-0.576734
-0.57144
-0.566125
-0.560646
-0.554841
-0.548559
-0.541683
-0.534147
-0.525941
-0.517105
-0.507719
-0.49789
-0.487737
-0.477378
-0.466925
-0.456476
-0.446112
-0.435898
-0.425883
-0.416131
-0.406657
-0.610208
-0.603659
-0.597749
-0.592061
-0.586345
-0.580617
-0.574773
-0.568634
-0.562021
-0.554788
-0.546844
-0.538164
-0.528784
-0.518792
-0.508308
-0.497469
-0.486411
-0.475263
-0.464134
-0.453116
-0.442279
-0.431675
-0.421341
-0.411331
-0.401629
-0.622169
-0.61498
-0.608614
-0.602533
-0.596393
-0.59016
-0.583684
-0.576758
-0.569198
-0.560878
-0.551747
-0.541831
-0.53122
-0.520049
-0.508472
-0.496649
-0.484728
-0.472837
-0.461078
-0.449532
-0.438256
-0.427289
-0.416654
-0.406393
-0.396466
-0.634574
-0.626744
-0.619921
-0.613431
-0.606818
-0.599996
-0.592772
-0.584922
-0.576271
-0.566732
-0.556307
-0.545083
-0.533203
-0.520846
-0.508196
-0.495425
-0.482686
-0.470098
-0.457753
-0.445718
-0.434035
-0.422727
-0.411807
-0.401303
-0.391157
-0.647353
-0.638885
-0.631606
-0.624683
-0.617539
-0.610031
-0.601933
-0.593014
-0.583131
-0.57225
-0.560441
-0.547854
-0.534687
-0.521154
-0.507461
-0.493786
-0.480275
-0.467037
-0.454149
-0.441661
-0.429599
-0.417972
-0.406783
-0.396044
-0.385688
-0.660414
-0.65132
-0.643587
-0.636202
-0.628457
-0.620154
-0.611043
-0.60091
-0.589659
-0.577329
-0.564065
-0.550082
-0.535627
-0.520943
-0.506248
-0.491716
-0.477483
-0.463641
-0.45025
-0.437341
-0.424927
-0.413003
-0.401561
-0.390598
-0.380043
-0.673651
-0.663949
-0.655762
-0.647877
-0.639451
-0.630232
-0.619966
-0.608475
-0.595734
-0.581865
-0.567096
-0.551704
-0.535978
-0.520181
-0.504531
-0.489194
-0.474288
-0.459887
-0.44603
-0.432734
-0.419993
-0.407794
-0.396115
-0.384941
-0.374204
-0.686937
-0.676652
-0.66801
-0.659582
-0.65038
-0.640117
-0.628553
-0.615568
-0.60123
-0.585755
-0.569453
-0.552661
-0.535697
-0.518834
-0.502283
-0.486195
-0.470666
-0.455748
-0.441464
-0.427811
-0.41477
-0.402317
-0.39042
-0.379048
-0.368147
-0.700128
-0.689293
-0.680193
-0.671167
-0.661089
-0.649649
-0.636645
-0.622045
-0.606023
-0.588899
-0.571059
-0.552892
-0.534737
-0.516864
-0.499471
-0.482687
-0.466584
-0.451194
-0.436518
-0.422539
-0.409224
-0.396539
-0.384445
-0.372891
-0.361848
-0.713065
-0.701717
-0.692154
-0.682469
-0.671406
-0.658654
-0.644079
-0.62776
-0.609991
-0.591197
-0.571839
-0.55234
-0.533051
-0.514232
-0.496058
-0.478634
-0.462008
-0.446188
-0.431158
-0.416883
-0.403322
-0.39043
-0.378158
-0.366442
-0.355279
-0.725571
-0.713755
-0.70372
-0.693307
-0.681147
-0.666953
-0.65069
-0.632569
-0.613016
-0.592559
-0.571719
-0.550947
-0.530592
-0.510895
-0.492005
-0.473999
-0.456899
-0.440692
-0.425344
-0.410807
-0.397028
-0.383954
-0.371528
-0.359669
-0.348412
-0.73746
-0.725224
-0.714705
-0.703491
-0.69012
-0.674363
-0.656314
-0.636335
-0.614987
-0.592895
-0.57063
-0.548657
-0.527311
-0.506809
-0.48727
-0.46874
-0.451217
-0.434668
-0.41904
-0.404273
-0.390305
-0.377077
-0.364522
-0.352543
-0.341219
-0.748534
-0.735929
-0.724912
-0.712819
-0.698129
-0.680702
-0.660791
-0.638923
-0.615798
-0.592122
-0.568506
-0.545414
-0.523161
-0.50193
-0.48181
-0.462816
-0.444922
-0.428074
-0.412205
-0.397244
-0.38312
-0.369766
-0.357107
-0.345032
-0.33367
-0.758588
-0.745669
-0.734135
-0.721087
-0.704975
-0.68579
-0.663968
-0.640211
-0.615349
-0.590163
-0.565284
-0.541165
-0.518092
-0.496213
-0.475581
-0.456184
-0.437971
-0.420871
-0.404803
-0.389684
-0.375436
-0.361987
-0.349253
-0.337108
-0.325739
-0.767413
-0.754235
-0.742166
-0.728087
-0.710466
-0.689457
-0.665702
-0.640084
-0.613552
-0.586946
-0.560904
-0.535858
-0.512057
-0.489611
-0.468539
-0.448802
-0.430325
-0.41302
-0.396795
-0.381557
-0.367221
-0.353711
-0.340929
-0.328743
-0.317399
-0.7748
-0.761421
-0.748796
-0.733616
-0.714414
-0.691541
-0.66586
-0.638436
-0.610324
-0.582405
-0.555312
-0.529445
-0.505011
-0.482083
-0.460645
-0.44063
-0.421945
-0.404485
-0.388148
-0.372831
-0.358444
-0.344907
-0.33211
-0.319911
-0.308627
-0.780541
-0.767017
-0.753817
-0.737477
-0.716641
-0.691891
-0.664323
-0.635174
-0.605592
-0.576481
-0.548457
-0.521878
-0.496911
-0.473587
-0.451858
-0.431631
-0.412795
-0.395233
-0.37883
-0.363477
-0.349079
-0.33555
-0.322771
-0.310591
-0.299399
-0.784436
-0.770823
-0.757033
-0.739485
-0.716985
-0.690373
-0.660985
-0.630217
-0.599292
-0.569122
-0.540292
-0.513118
-0.487719
-0.464086
-0.442142
-0.421771
-0.402845
-0.385233
-0.368812
-0.353468
-0.339099
-0.325617
-0.312891
-0.300762
-0.289699
-0.786294
-0.772648
-0.758255
-0.739466
-0.715298
-0.68687
-0.655755
-0.623495
-0.591369
-0.560282
-0.53078
-0.503128
-0.477398
-0.453547
-0.431467
-0.411021
-0.392065
-0.374459
-0.358071
-0.342782
-0.328486
-0.31509
-0.302451
-0.29041
-0.279512
-0.78594
-0.772314
-0.757312
-0.737266
-0.71145
-0.681279
-0.648557
-0.614952
-0.581781
-0.549925
-0.519886
-0.491875
-0.46592
-0.441942
-0.419804
-0.399353
-0.380431
-0.362889
-0.346587
-0.3314
-0.317221
-0.303952
-0.29144
-0.279521
-0.268826
-0.78321
-0.769659
-0.754049
-0.732749
-0.705332
-0.673519
-0.639331
-0.604543
-0.57049
-0.538021
-0.507583
-0.479335
-0.45326
-0.429246
-0.407132
-0.386748
-0.367925
-0.350505
-0.334343
-0.319309
-0.305293
-0.292195
-0.279847
-0.268088
-0.257634
-0.777965
-0.764539
-0.74833
-0.725799
-0.696854
-0.663524
-0.628031
-0.592237
-0.557474
-0.524549
-0.493851
-0.465488
-0.4394
-0.415442
-0.393434
-0.373191
-0.354533
-0.337295
-0.321328
-0.306499
-0.292694
-0.27981
-0.267668
-0.256108
-0.245933
-0.770081
-0.756831
-0.740044
-0.716324
-0.685949
-0.65125
-0.61463
-0.578013
-0.542717
-0.509497
-0.47868
-0.450322
-0.424326
-0.400518
-0.3787
-0.358671
-0.340245
-0.323252
-0.307538
-0.292965
-0.279421
-0.266797
-0.254901
-0.243582
-0.233724
-0.75946
-0.746437
-0.729101
-0.704256
-0.672571
-0.63667
-0.599113
-0.561866
-0.526217
-0.49286
-0.462063
-0.433833
-0.408035
-0.38447
-0.362923
-0.343184
-0.32506
-0.308374
-0.29297
-0.278709
-0.265476
-0.253158
-0.241552
-0.230514
-0.221013
-0.74603
-0.733281
-0.715437
-0.68955
-0.656697
-0.619777
-0.581482
-0.543802
-0.50798
-0.474645
-0.444006
-0.416023
-0.390527
-0.367298
-0.346106
-0.326732
-0.308978
-0.292664
-0.277629
-0.263734
-0.250864
-0.2389
-0.22763
-0.216916
-0.20781
-0.72974
-0.717315
-0.699015
-0.672186
-0.638323
-0.60058
-0.561756
-0.52384
-0.488022
-0.454866
-0.42452
-0.396901
-0.37181
-0.349008
-0.328254
-0.309322
-0.292007
-0.276129
-0.261524
-0.248051
-0.235595
-0.224035
-0.213146
-0.202803
-0.194131
-0.710568
-0.698515
-0.679821
-0.652169
-0.61747
-0.579109
-0.539965
-0.502011
-0.466373
-0.433547
-0.403626
-0.376486
-0.351901
-0.329616
-0.309381
-0.290965
-0.274159
-0.25878
-0.244665
-0.231672
-0.219685
-0.20858
-0.198121
-0.188193
-0.179994
-0.68852
-0.676885
-0.65787
-0.629526
-0.594177
-0.555409
-0.516157
-0.478357
-0.44307
-0.410721
-0.381352
-0.354801
-0.330819
-0.30914
-0.289505
-0.271678
-0.25545
-0.240636
-0.227071
-0.214615
-0.203152
-0.192553
-0.182574
-0.17311
-0.165424
-0.663624
-0.652455
-0.633201
-0.60431
-0.568504
-0.529543
-0.490391
-0.452935
-0.418162
-0.386432
-0.357736
-0.331879
-0.308595
-0.287606
-0.268648
-0.251482
-0.235899
-0.221713
-0.208761
-0.1969
-0.186016
-0.175977
-0.166531
-0.157583
-0.150447
-0.635937
-0.625281
-0.605878
-0.576593
-0.54053
-0.50159
-0.462741
-0.42581
-0.391709
-0.360731
-0.332822
-0.30776
-0.285263
-0.265044
-0.246837
-0.230402
-0.21553
-0.202035
-0.189754
-0.178548
-0.1683
-0.158878
-0.150021
-0.141641
-0.135095
-0.605542
-0.595444
-0.575988
-0.54647
-0.510352
-0.471643
-0.433294
-0.397062
-0.36378
-0.333679
-0.306665
-0.282491
-0.260863
-0.241491
-0.224104
-0.208466
-0.194367
-0.181624
-0.170075
-0.159581
-0.150029
-0.141281
-0.133073
-0.125319
-0.119404
-0.572543
-0.563049
-0.543641
-0.514056
-0.478084
-0.439812
-0.402151
-0.36678
-0.334454
-0.305347
-0.279326
-0.256126
-0.235444
-0.216986
-0.200484
-0.185703
-0.172436
-0.160502
-0.149742
-0.140019
-0.131222
-0.123212
-0.115718
-0.108658
-0.103425
-0.537069
-0.528224
-0.508969
-0.479485
-0.443857
-0.406218
-0.369423
-0.335065
-0.303823
-0.275815
-0.250877
-0.228727
-0.209058
-0.191576
-0.176016
-0.162145
-0.149762
-0.13869
-0.128774
-0.119879
-0.111897
-0.104689
-0.0979836
-0.0916973
-0.0872082
-0.499272
-0.491117
-0.472122
-0.442906
-0.407815
-0.370997
-0.335234
-0.30203
-0.271986
-0.245173
-0.221397
-0.200365
-0.181768
-0.165312
-0.15074
-0.137824
-0.126369
-0.116205
-0.10718
-0.0991664
-0.0920586
-0.08572
-0.0798859
-0.0744673
-0.0707798
-0.45932
-0.451896
-0.433269
-0.404485
-0.370116
-0.334296
-0.29972
-0.267797
-0.239056
-0.213521
-0.190976
-0.17112
-0.153641
-0.138253
-0.124703
-0.112774
-0.102278
-0.0930533
-0.084957
-0.0778688
-0.0716882
-0.0662868
-0.0614134
-0.0569592
-0.0541053
-0.417403
-0.410747
-0.392595
-0.364403
-0.330933
-0.296276
-0.263026
-0.2325
-0.205154
-0.180971
-0.159716
-0.141081
-0.124757
-0.110464
-0.0979594
-0.0870344
-0.0775124
-0.069242
-0.0620932
-0.0559568
-0.0507421
-0.0463346
-0.0425043
-0.0391098
-0.0371453
-0.373723
-0.36787
-0.350298
-0.322853
-0.290447
-0.257104
-0.22531
-0.196282
-0.170413
-0.147645
-0.127728
-0.11035
-0.0952063
-0.0820252
-0.0705729
-0.0606531
-0.0521016
-0.0447818
-0.0385804
-0.0334057
-0.0291807
-0.0258091
-0.0231058
-0.0209405
-0.0201334
-0.328498
-0.323481
-0.306588
-0.280036
-0.248848
-0.216959
-0.186735
-0.159298
-0.134975
-0.113677
-0.0951367
-0.0790423
-0.0650939
-0.0530273
-0.0426193
-0.033686
-0.0260782
-0.0196786
-0.0143999
-0.0101789
-0.00695872
-0.00467841
-0.00328772
-0.00282003
-0.00380002
-0.281958
-0.277804
-0.261687
-0.236165
-0.206337
-0.176027
-0.147476
-0.121709
-0.0989941
-0.07921
-0.0620791
-0.0472879
-0.0345409
-0.0235804
-0.0141914
-0.00619939
0.000532178
0.00610101
0.0105632
0.0139456
0.0162744
0.0175155
0.0173662
0.0154011
0.0120432
-0.23434
-0.231074
-0.215822
-0.191457
-0.163118
-0.134499
-0.10771
-0.0836839
-0.0626298
-0.0443995
-0.0287057
-0.0152341
-0.00369251
0.00617282
0.0145741
0.0216848
0.0276416
0.0325409
0.0364349
0.039356
0.0413476
0.0422671
0.0412842
0.037538
0.0332166
-0.185891
-0.183532
-0.169227
-0.146134
-0.119399
-0.0925696
-0.0676221
-0.0453958
-0.0260484
-0.00940683
0.00482406
0.016958
0.0272843
0.0360539
0.0434791
0.0497379
0.0549781
0.0593169
0.0628477
0.065688
0.0680217
0.0697917
0.0699403
0.0678257
0.0716732
-0.136854
-0.135418
-0.122136
-0.10042
-0.0753903
-0.0504356
-0.0273954
-0.00702003
0.0105818
0.0256043
0.0383478
0.0491242
0.0582184
0.0658775
0.0723118
0.0776997
0.0821928
0.0859177
0.0889897
0.0915574
0.0938145
0.095732
0.0967154
0.0972507
0.103728
-0.0874801
-0.0869806
-0.0747892
-0.0545409
-0.0313031
-0.00829366
0.0127853
0.0312691
0.047094
0.0604719
0.0717061
0.0811049
0.0889475
0.0954758
0.100896
0.105386
0.109097
0.11216
0.114697
0.116856
0.118801
0.120498
0.121522
0.122431
0.128297
-0.0380219
-0.038466
-0.0274223
-0.00871997
0.0126543
0.0336622
0.0527384
0.0693004
0.0833251
0.095039
0.104746
0.112748
0.119319
0.124691
0.129066
0.132615
0.135485
0.137807
0.139698
0.141299
0.142755
0.144041
0.144799
0.145468
0.150218
0.0112714
0.00988109
0.0197291
0.0368218
0.0562763
0.0752412
0.0922864
0.106907
0.119118
0.129156
0.137323
0.143916
0.149196
0.153391
0.156691
0.159261
0.16124
0.162751
0.163902
0.164818
0.165624
0.166284
0.16647
0.166593
0.170291
0.0601538
0.0578192
0.0664338
0.0818676
0.0993622
0.116258
0.131257
0.143929
0.154321
0.16268
0.169303
0.174479
0.17846
0.181461
0.183664
0.185225
0.186274
0.186923
0.187272
0.187431
0.187502
0.187438
0.186935
0.186403
0.189086
0.108384
0.105112
0.112466
0.126206
0.141716
0.156531
0.169483
0.180211
0.188791
0.195477
0.200561
0.204322
0.207
0.208801
0.209897
0.210431
0.210525
0.210281
0.209788
0.209143
0.208431
0.207594
0.206358
0.205143
0.206857
0.155726
0.151528
0.157605
0.169632
0.18315
0.195888
0.206805
0.215605
0.222392
0.227421
0.23098
0.233337
0.234721
0.235325
0.235312
0.234815
0.233945
0.232795
0.231444
0.229978
0.228467
0.226848
0.224877
0.222979
0.223766
0.201952
0.196844
0.201638
0.211948
0.223481
0.234161
0.243069
0.249971
0.254992
0.258392
0.260451
0.261424
0.26153
0.260952
0.259841
0.258319
0.25649
0.254436
0.252229
0.249943
0.247638
0.245247
0.242559
0.239995
0.239894
0.246841
0.240844
0.244362
0.252963
0.262534
0.27119
0.278129
0.283174
0.286469
0.288277
0.288868
0.288489
0.287345
0.285608
0.283418
0.28089
0.278118
0.275175
0.272125
0.269035
0.265954
0.262816
0.259436
0.256228
0.255277
0.290182
0.283322
0.285578
0.292496
0.300143
0.306823
0.311845
0.315085
0.316705
0.316968
0.316136
0.314442
0.312083
0.30922
0.305982
0.302476
0.298785
0.294977
0.291109
0.28724
0.283409
0.279554
0.275516
0.271691
0.269924
0.331773
0.324081
0.325102
0.330373
0.336149
0.340915
0.344084
0.345582
0.345589
0.344362
0.342158
0.339199
0.33567
0.33172
0.327472
0.323022
0.318446
0.313806
0.309151
0.304533
0.299987
0.29545
0.290789
0.286376
0.283829
0.371422
0.362933
0.362755
0.366432
0.370402
0.373327
0.37472
0.374551
0.373013
0.370363
0.366847
0.362678
0.358029
0.353042
0.347828
0.342475
0.337054
0.33162
0.326215
0.320886
0.31566
0.310481
0.305233
0.300262
0.296972
0.408948
0.399701
0.398371
0.400517
0.402761
0.403931
0.403634
0.401882
0.398878
0.394878
0.390118
0.384801
0.379092
0.37312
0.36699
0.360783
0.354562
0.348376
0.342264
0.336263
0.330398
0.324616
0.318822
0.313323
0.309329
0.444182
0.434222
0.431794
0.432484
0.433092
0.432605
0.430715
0.427472
0.42309
0.41782
0.411891
0.405495
0.398788
0.391892
0.384902
0.377893
0.370922
0.364031
0.357256
0.350628
0.344166
0.337824
0.331521
0.32553
0.320873
0.476968
0.466341
0.46288
0.4622
0.461275
0.459237
0.455861
0.451227
0.44556
0.439107
0.43209
0.42469
0.417055
0.409299
0.401509
0.393754
0.386086
0.378541
0.371151
0.363942
0.356928
0.350069
0.343299
0.33685
0.331573
0.507159
0.495918
0.491494
0.489542
0.487194
0.483723
0.478974
0.473058
0.466207
0.458665
0.450645
0.442321
0.433832
0.425284
0.416759
0.408318
0.400009
0.391864
0.38391
0.376167
0.368648
0.361318
0.354121
0.34725
0.341401
0.534624
0.522824
0.517517
0.514397
0.510749
0.505969
0.499968
0.492885
0.484957
0.476423
0.467491
0.458327
0.449062
0.439795
0.430602
0.421539
0.412648
0.403959
0.395493
0.387269
0.379293
0.371536
0.363954
0.356701
0.350328
0.559245
0.546944
0.540839
0.536665
0.531846
0.525889
0.518765
0.510635
0.50174
0.492319
0.482571
0.472655
0.462694
0.452784
0.442993
0.433374
0.423964
0.414789
0.405867
0.397211
0.388828
0.380693
0.372768
0.365172
0.35833
0.580916
0.568176
0.561364
0.556257
0.550403
0.543408
0.535294
0.526242
0.516499
0.506297
0.495831
0.485254
0.474683
0.464208
0.453893
0.443786
0.43392
0.424319
0.414997
0.405964
0.397225
0.388759
0.380535
0.372638
0.365381
0.599547
0.586431
0.57901
0.573096
0.566349
0.558461
0.549496
0.539652
0.529179
0.518307
0.507226
0.496082
0.484989
0.474029
0.463265
0.45274
0.442485
0.432519
0.422855
0.4135
0.404456
0.395708
0.387229
0.379074
0.371462
0.615061
0.601636
0.593705
0.587118
0.579626
0.570993
0.561319
0.550816
0.539737
0.528309
0.516716
0.505103
0.493576
0.482215
0.471079
0.460208
0.44963
0.439363
0.429416
0.419795
0.4105
0.401518
0.392829
0.384461
0.376554
0.627398
0.613731
0.605395
0.59827
0.590185
0.580959
0.570722
0.559697
0.548137
0.536269
0.524272
0.512286
0.500417
0.48874
0.47731
0.466166
0.455334
0.444829
0.43466
0.424829
0.415336
0.406171
0.397318
0.388782
0.380643
0.636509
0.62267
0.614035
0.606513
0.597989
0.588326
0.577674
0.566265
0.554352
0.542161
0.529868
0.517611
0.505491
0.493582
0.481939
0.470596
0.459579
0.448901
0.43857
0.428588
0.418951
0.409654
0.400681
0.392024
0.383716
0.642364
0.628422
0.619598
0.61182
0.603014
0.593071
0.582154
0.5705
0.558364
0.545967
0.533488
0.521059
0.508782
0.496729
0.484952
0.473485
0.462353
0.451568
0.441136
0.43106
0.421335
0.411955
0.402909
0.394177
0.385768
0.644945
0.630973
0.622068
0.614178
0.605247
0.595181
0.58415
0.572392
0.560161
0.54768
0.535123
0.522625
0.510284
0.498173
0.486342
0.474827
0.463649
0.452822
0.442352
0.43224
0.422481
0.413071
0.403996
0.395238
0.386792
0.644253
0.630319
0.621445
0.613584
0.604687
0.594657
0.583663
0.57194
0.559745
0.547297
0.534773
0.522306
0.509995
0.497913
0.486109
0.47462
0.463467
0.452664
0.442217
0.432127
0.422389
0.412998
0.403943
0.395205
0.386788
0.6403
0.626476
0.61774
0.610052
0.601346
0.591509
0.5807
0.569153
0.557121
0.544826
0.532444
0.520109
0.507922
0.495954
0.484258
0.47287
0.461812
0.451098
0.440735
0.430724
0.421063
0.411743
0.402751
0.394081
0.385759
0.633117
0.619472
0.610982
0.603606
0.595246
0.585757
0.575282
0.564049
0.552309
0.540284
0.528152
0.516049
0.504076
0.492309
0.4808
0.469587
0.458693
0.448133
0.437915
0.428042
0.41851
0.409311
0.400428
0.391874
0.383711
0.622746
0.609349
0.60121
0.594283
0.586421
0.577433
0.567439
0.556656
0.545333
0.533694
0.521918
0.510145
0.498479
0.486996
0.475753
0.464787
0.454126
0.443784
0.433771
0.424092
0.414744
0.405715
0.396988
0.388593
0.380653
0.609248
0.596166
0.588479
0.582135
0.574919
0.566581
0.557209
0.547009
0.536227
0.525087
0.513773
0.502427
0.491156
0.480041
0.46914
0.458494
0.448131
0.438071
0.428322
0.418893
0.409781
0.400972
0.392444
0.384255
0.376599
0.592697
0.579994
0.572857
0.567224
0.560797
0.553253
0.544643
0.535156
0.525035
0.514505
0.503754
0.492928
0.48214
0.471473
0.46099
0.450734
0.440736
0.431017
0.421591
0.412466
0.403643
0.395102
0.386817
0.378877
0.371564
0.57318
0.560918
0.554424
0.549625
0.544124
0.537513
0.529799
0.521151
0.511806
0.501994
0.491905
0.481691
0.47147
0.46133
0.451337
0.441539
0.43197
0.422653
0.413606
0.404838
0.396355
0.388129
0.380131
0.372481
0.365569
0.5508
0.539039
0.533276
0.529424
0.52498
0.519436
0.512746
0.505057
0.496601
0.487608
0.478277
0.468763
0.459191
0.449653
0.440221
0.430946
0.421868
0.413011
0.404397
0.396039
0.387944
0.380082
0.372412
0.365093
0.358636
0.525672
0.514469
0.509517
0.506721
0.503456
0.499104
0.49356
0.486945
0.479484
0.471411
0.462927
0.454198
0.445352
0.436489
0.427685
0.418998
0.410469
0.402128
0.394
0.386102
0.378443
0.370989
0.363689
0.35674
0.350789
0.497926
0.487334
0.483267
0.481626
0.479653
0.476611
0.472327
0.466894
0.46053
0.453469
0.44592
0.438055
0.430009
0.42189
0.413778
0.405738
0.397815
0.390044
0.382451
0.375062
0.367886
0.360884
0.353995
0.347453
0.342055
0.467705
0.457772
0.454657
0.454259
0.453681
0.452058
0.449141
0.444992
0.439819
0.433858
0.427324
0.420398
0.413222
0.40591
0.398552
0.391215
0.383951
0.376799
0.369791
0.362956
0.356307
0.349801
0.343362
0.337262
0.332463
0.435161
0.425934
0.423829
0.424751
0.425663
0.425556
0.424104
0.421332
0.417437
0.412657
0.407214
0.401295
0.395054
0.38861
0.38206
0.375479
0.368924
0.362439
0.35606
0.349822
0.343743
0.337773
0.331824
0.3262
0.322041
0.400461
0.391981
0.390935
0.393246
0.395728
0.397225
0.397325
0.396015
0.393478
0.389953
0.385669
0.380822
0.375573
0.370051
0.364361
0.358583
0.352782
0.347007
0.341299
0.335697
0.330228
0.324835
0.319413
0.314296
0.310818
0.363782
0.356086
0.356139
0.359893
0.364014
0.367192
0.368923
0.369149
0.368041
0.365837
0.362773
0.359053
0.354849
0.350298
0.345512
0.340581
0.335573
0.330546
0.325546
0.320618
0.315795
0.311017
0.306157
0.301578
0.298818
0.325313
0.318433
0.319615
0.324854
0.33067
0.335592
0.339019
0.340848
0.341231
0.340405
0.338614
0.336071
0.332957
0.329418
0.325576
0.321526
0.317346
0.3131
0.308839
0.304616
0.300471
0.296343
0.29208
0.288067
0.286061
0.285249
0.279214
0.281546
0.288298
0.295851
0.302568
0.307746
0.311231
0.313157
0.313758
0.313285
0.31196
0.309973
0.30748
0.304612
0.301472
0.298148
0.294707
0.29121
0.287718
0.284278
0.280829
0.277196
0.273774
0.272558
0.243798
0.238631
0.242123
0.250405
0.259722
0.26827
0.275241
0.280425
0.283935
0.286003
0.286883
0.286808
0.285977
0.284557
0.282685
0.280475
0.278023
0.275405
0.272687
0.269942
0.267226
0.26448
0.261501
0.258694
0.258303
0.201176
0.196895
0.201547
0.211358
0.222452
0.232854
0.241647
0.248562
0.253688
0.257251
0.259512
0.260709
0.261054
0.260722
0.259859
0.25859
0.257017
0.255226
0.253292
0.251296
0.24931
0.247278
0.244971
0.242793
0.243266
0.157603
0.154223
0.160024
0.171353
0.184219
0.196484
0.207114
0.21578
0.222542
0.22762
0.231277
0.233762
0.235292
0.236055
0.236205
0.235875
0.235176
0.234203
0.23304
0.23178
0.230512
0.229186
0.227548
0.226001
0.227377
0.11331
0.11084
0.11777
0.130588
0.145209
0.159329
0.171799
0.182223
0.19063
0.197232
0.202294
0.20607
0.208789
0.210644
0.211799
0.212395
0.21255
0.212368
0.211943
0.21138
0.210786
0.210124
0.209116
0.20817
0.210492
0.0685297
0.0669741
0.0750025
0.0892683
0.105611
0.121565
0.135864
0.148042
0.158093
0.166219
0.172684
0.177749
0.181649
0.184584
0.186728
0.188225
0.189202
0.189769
0.190026
0.190094
0.190098
0.190009
0.189521
0.189073
0.192375
0.0235001
0.0228594
0.0319456
0.0476043
0.0656194
0.0833718
0.0994753
0.113391
0.125076
0.134718
0.142577
0.148921
0.153989
0.157988
0.161096
0.163462
0.165217