/*--------------------------------*- C++ -*----------------------------------*\
  =========                 |
  \\      /  F ield         | OpenFOAM: The Open Source CFD Toolbox
   \\    /   O peration     | Website:  https://openfoam.org
    \\  /    A nd           | Version:  6.0
     \\/     M anipulation  |
\*---------------------------------------------------------------------------*/
FoamFile
{
    version     2.0;
    format      ascii;
    class       surfaceScalarField;
    location    "83";
    object      phi;
}
// * * * * * * * * * * * * * * * * * * * * * * * * * * * * * * * * * * * * * //

dimensions      [0 3 -1 0 0 0 0];

internalField   nonuniform List<scalar> 
24700
(
1.68935e-06
9.69049e-05
-9.85943e-05
4.63546e-06
0.000256351
-0.000259297
7.45479e-06
0.000386258
-0.000389077
9.35438e-06
0.000489719
-0.000491618
1.00228e-05
0.000569985
-0.000570654
9.52132e-06
0.000630533
-0.000630032
8.16752e-06
0.000674804
-0.00067345
6.42772e-06
0.000705974
-0.000704234
4.8265e-06
0.00072679
-0.000725189
3.87781e-06
0.000739494
-0.000738545
4.03757e-06
0.000745817
-0.000745977
5.67565e-06
0.000747026
-0.000748664
9.06352e-06
0.000743998
-0.000747385
1.4374e-05
0.000737311
-0.000742622
2.16892e-05
0.000727331
-0.000734646
3.10143e-05
0.000714281
-0.000723606
4.22943e-05
0.000698305
-0.000709585
5.54311e-05
0.000679512
-0.000692649
7.03016e-05
0.000658001
-0.000672871
8.67723e-05
0.000633876
-0.000650347
0.000104713
0.000607246
-0.000625187
0.00012401
0.000578215
-0.000597512
0.000144575
0.000546858
-0.000567422
0.000166349
0.00051316
-0.000534934
0.000476911
-0.00049989
0.000189328
2.44687e-06
9.44581e-05
7.32487e-06
0.000251473
1.29718e-05
0.000380611
1.83466e-05
0.000484344
2.2919e-05
0.000565413
2.65648e-05
0.000626887
2.94521e-05
0.000671917
3.19335e-05
0.000703492
3.44529e-05
0.00072427
3.74723e-05
0.000736475
4.142e-05
0.00074187
4.66581e-05
0.000741788
5.34668e-05
0.000737189
6.20409e-05
0.000728737
7.24956e-05
0.000716876
8.48775e-05
0.000701899
9.91795e-05
0.000684003
0.000115356
0.000663336
0.000133336
0.000640021
0.000153037
0.000614175
0.000174375
0.000585908
0.000197272
0.000555318
0.000221662
0.000522467
0.000247497
0.000487325
0.000449648
0.00027476
3.10255e-06
9.13555e-05
9.70558e-06
0.00024487
1.79358e-05
0.000372381
2.6549e-05
0.000475731
3.48231e-05
0.000557139
4.24612e-05
0.000619249
4.94858e-05
0.000664892
5.61337e-05
0.000696845
6.27637e-05
0.00071764
6.97812e-05
0.000729457
7.7583e-05
0.000734068
8.6521e-05
0.00073285
9.68826e-05
0.000726827
0.000108883
0.000716736
0.000122671
0.000703089
0.00013833
0.000686239
0.000155901
0.000666433
0.000175384
0.000643853
0.000196757
0.000618648
0.000219982
0.000590949
0.000245016
0.000560875
0.000271809
0.000528525
0.000300317
0.00049396
0.000330495
0.000457148
0.000417831
0.000362312
3.65187e-06
8.77036e-05
1.17554e-05
0.000236766
2.22945e-05
0.000361842
3.38703e-05
0.000464155
4.56003e-05
0.000545409
5.70333e-05
0.000607816
6.80539e-05
0.000653872
7.87845e-05
0.000686114
8.94961e-05
0.000706929
0.000100533
0.00071842
0.000112255
0.000722345
0.000125001
0.000720104
0.00013906
0.000712768
0.000154666
0.000701131
0.000171993
0.000685763
0.000191162
0.000667069
0.000212253
0.000645342
0.000235307
0.000620799
0.000260343
0.000593611
0.000287364
0.000563928
0.000316356
0.000531882
0.000347298
0.000497583
0.000380158
0.0004611
0.000414893
0.000422413
0.000381268
0.000451456
4.09245e-06
8.36112e-05
1.34592e-05
0.0002274
2.60079e-05
0.000349293
4.02352e-05
0.000449927
5.51338e-05
0.00053051
7.01207e-05
0.000592829
8.49546e-05
0.000639038
9.9648e-05
0.00067142
0.000114383
0.000692194
0.00012944
0.000703364
0.000145136
0.000706648
0.00016179
0.00070345
0.000179689
0.000694869
0.000199077
0.000681743
0.000220151
0.000664689
0.000243061
0.00064416
0.000267917
0.000620486
0.000294797
0.000593918
0.000323754
0.000564654
0.000354819
0.000532863
0.000388008
0.000498694
0.000423316
0.000462275
0.000460722
0.000423693
0.000500182
0.000382953
0.000339822
0.000541628
4.42376e-06
7.91874e-05
1.48073e-05
0.000217016
2.90461e-05
0.000335054
4.55825e-05
0.000433391
6.33223e-05
0.000512771
8.15768e-05
0.000574575
9.99949e-05
0.00062062
0.000118486
0.000652929
0.000137147
0.000673534
0.000156188
0.000684323
0.000175883
0.000686953
0.000196522
0.000682811
0.000218382
0.000673009
0.000241712
0.000658413
0.000266722
0.000639679
0.000293584
0.000617297
0.000322434
0.000591637
0.000353376
0.000562977
0.000386487
0.000531543
0.000421825
0.000497525
0.000459423
0.000461096
0.000499293
0.000422405
0.000541419
0.000381568
0.000585748
0.000338624
0.00029338
0.00063219
4.64655e-06
7.45409e-05
1.57951e-05
0.000205868
3.13882e-05
0.000319461
4.98634e-05
0.000414916
7.00783e-05
0.000492556
9.12677e-05
0.000553385
0.000112989
0.000598898
0.000135061
0.000630857
0.000157496
0.000651099
0.000180437
0.000661381
0.000204107
0.000663284
0.000228762
0.000658156
0.000254663
0.000647108
0.000282054
0.000631022
0.000311151
0.000610581
0.00034214
0.000586308
0.000375173
0.000558603
0.000410374
0.000527776
0.000447841
0.000494076
0.000487647
0.000457719
0.000529844
0.000418899
0.000574451
0.000377797
0.000621457
0.000334562
0.000670798
0.000289283
0.000241826
0.000722352
4.7627e-06
6.97782e-05
1.64218e-05
0.000194209
3.30214e-05
0.000302862
5.3041e-05
0.000394896
7.53292e-05
0.000470268
9.90736e-05
0.000529641
0.000123763
0.000574209
0.000149137
0.000605483
0.000175131
0.000625105
0.000201822
0.00063469
0.000229379
0.000635727
0.000258018
0.000629517
0.000287975
0.000617151
0.000319483
0.000599514
0.000352756
0.000577308
0.000387983
0.000551081
0.000425327
0.000521259
0.000464926
0.000488177
0.000506892
0.00045211
0.000551314
0.000413296
0.000598257
0.000371957
0.000647753
0.000328301
0.000699792
0.000282523
0.000754299
0.000234776
0.000185019
0.000811105
4.77493e-06
6.50033e-05
1.66905e-05
0.000182293
3.39413e-05
0.000285611
5.50919e-05
0.000373746
7.90189e-05
0.000446341
0.000104894
0.000503766
0.000132159
0.000546943
0.000160491
0.000577151
0.000189759
0.000595838
0.000219973
0.000604476
0.000251247
0.000604453
0.000283755
0.000597009
0.000317702
0.000583205
0.000353297
0.000563918
0.000390747
0.000539859
0.000430238
0.00051159
0.000471937
0.00047956
0.000515991
0.000444123
0.000562523
0.000405577
0.00061164
0.00036418
0.000663423
0.000320174
0.000717921
0.000273803
0.000775135
0.000225309
0.000834979
0.000174933
0.000122776
0.000897222
4.6867e-06
6.03166e-05
1.66081e-05
0.000170372
3.41522e-05
0.000268067
5.60075e-05
0.00035189
8.11134e-05
0.000421235
0.000108655
0.000476224
0.000138051
0.000517547
0.000168933
0.000546269
0.000201111
0.00056366
0.000234538
0.000571048
0.000269273
0.000569719
0.000305441
0.000560841
0.00034321
0.000545435
0.000382766
0.000524363
0.000424294
0.000498331
0.000467974
0.00046791
0.000513972
0.000433561
0.000562442
0.000395654
0.00061352
0.000354499
0.000667332
0.000310368
0.000723986
0.00026352
0.000783561
0.000214228
0.000846081
0.000162789
0.000911459
0.000109555
5.48529e-05
0.000979381
4.50225e-06
5.58143e-05
1.61856e-05
0.000158688
3.36689e-05
0.000250583
5.5798e-05
0.000329761
8.16065e-05
0.000395426
0.00011032
0.000447511
0.000141357
0.00048651
0.000174321
0.000513305
0.000208978
0.000529003
0.000245227
0.000534798
0.000283075
0.000531871
0.0003226
0.000521316
0.000363929
0.000504107
0.000407215
0.000481077
0.000452623
0.000452922
0.000500321
0.000420213
0.00055047
0.000383411
0.000603232
0.000342893
0.00065876
0.000298971
0.000717208
0.00025192
0.000778721
0.000202007
0.000843426
0.000149523
0.000911392
9.48236e-05
0.000982542
3.84052e-05
-1.90647e-05
0.00105646
4.2268e-06
5.15875e-05
1.54395e-05
0.000147476
3.25191e-05
0.000233504
5.44975e-05
0.000307783
8.05286e-05
0.000369395
0.000109903
0.000418136
0.000142063
0.000454351
0.000176598
0.000478769
0.000213245
0.000492357
0.000251859
0.000496184
0.000292399
0.00049133
0.000334898
0.000478817
0.000379442
0.000459563
0.000426152
0.000434367
0.000475168
0.000403906
0.000526645
0.000368736
0.000580744
0.000329312
0.000637635
0.000286002
0.000697496
0.00023911
0.000760517
0.000188899
0.000826895
0.000135629
0.000896819
7.95985e-05
0.000970421
2.12211e-05
0.00104765
-3.88276e-05
-9.93824e-05
0.00112797
3.86702e-06
4.77205e-05
1.43928e-05
0.00013695
3.07467e-05
0.00021715
5.21694e-05
0.00028636
7.79572e-05
0.000343607
0.000107487
0.000388606
0.000140242
0.000421596
0.00017582
0.000443191
0.000213939
0.000454238
0.000254424
0.000455699
0.000297193
0.000448561
0.000342241
0.000433769
0.000389617
0.000412187
0.000439411
0.000384573
0.000491746
0.000351571
0.000546767
0.000313716
0.000604638
0.000271441
0.000665544
0.000225096
0.000729695
0.000174959
0.000797324
0.00012127
0.000868688
6.42647e-05
0.000944046
4.24038e-06
0.0010236
-5.83351e-05
0.00110734
-0.000122567
-0.000186606
0.00119457
3.43168e-06
4.42888e-05
1.30776e-05
0.000127304
2.84165e-05
0.000201811
4.89149e-05
0.000265862
7.40285e-05
0.000318494
0.000103239
0.000359396
0.000136086
0.000388748
0.000172194
0.000407083
0.000211279
0.000415154
0.000253148
0.00041383
0.000297694
0.000404015
0.000344881
0.000386582
0.000394733
0.000362335
0.000447322
0.000331984
0.000502758
0.000296134
0.000561187
0.000255286
0.000622786
0.000209842
0.000687764
0.000160118
0.000756364
0.000106359
0.000828865
4.8769e-05
0.000905576
-1.24459e-05
0.000986814
-7.69973e-05
0.00107284
-0.000144359
0.00116365
-0.000213381
-0.000281331
0.00125838
2.93256e-06
4.13563e-05
1.15375e-05
0.000118699
2.56184e-05
0.00018773
4.48798e-05
0.0002466
6.89493e-05
0.000294424
9.74264e-05
0.000330919
0.000129927
0.000356248
0.000166115
0.000370895
0.000205723
0.000375546
0.000248559
0.000370993
0.000294507
0.000358067
0.00034352
0.000337569
0.000395611
0.000310244
0.00045085
0.000276746
0.000509351
0.000237633
0.000571275
0.000193363
0.00063682
0.000144297
0.000706224
9.07138e-05
0.000779762
3.28211e-05
0.000857741
-2.92107e-05
0.000940497
-9.52011e-05
0.00102836
-0.000164862
0.0011216
-0.000237599
0.00122019
-0.000311971
-0.000384188
0.00132305
2.38534e-06
3.89709e-05
9.82995e-06
0.000111254
2.24723e-05
0.000175088
4.02618e-05
0.000228811
6.30066e-05
0.00027168
9.04358e-05
0.000303489
0.000122255
0.000324429
0.000158188
0.000334962
0.000198004
0.00033573
0.000241532
0.000327465
0.000288669
0.000310929
0.000339379
0.000286859
0.00039369
0.000255933
0.000451686
0.000218749
0.000513509
0.000175811
0.000579343
0.000127528
0.000649417
7.42232e-05
0.000723994
1.61376e-05
0.000803359
-4.65445e-05
0.000887817
-0.000113668
0.00097767
-0.000185054
0.0010732
-0.000260388
0.00117458
-0.000338981
0.00128169
-0.000419085
-0.00049573
0.00139323
1.81035e-06
3.71606e-05
8.02806e-06
0.000105037
1.91303e-05
0.000163985
3.53136e-05
0.000212628
5.65722e-05
0.000250421
8.27752e-05
0.000277286
0.000113733
0.000293471
0.000149247
0.000299448
0.000189145
0.000295832
0.000233303
0.000283307
0.000281658
0.000262574
0.000334211
0.000234306
0.000391027
0.000199118
0.00045223
0.000157545
0.000517999
0.000110042
0.000588553
5.69745e-05
0.000664143
-1.36695e-06
0.000745035
-6.4754e-05
0.000831489
-0.000132999
0.000923744
-0.000205923
0.00102199
-0.000283301
0.00112635
-0.000364747
0.00123682
-0.000449449
0.00135308
-0.000535348
-0.00061627
0.00147362
1.23277e-06
3.59278e-05
6.2204e-06
0.000100049
1.57755e-05
0.00015443
3.03402e-05
0.000198063
5.0098e-05
0.000230663
7.50674e-05
0.000252317
0.000105178
0.00026336
0.00014033
0.000264297
0.000180433
0.000255729
0.000225437
0.000238303
0.000275345
0.000212666
0.00033022
0.000179431
0.000390186
0.000139152
0.000455421
9.23112e-05
0.000526142
3.93204e-05
0.000602596
-1.94787e-05
0.000685028
-8.37992e-05
0.000773664
-0.00015339
0.000868676
-0.000228012
0.000970157
-0.000307404
0.00107809
-0.000391234
0.00119234
-0.000478992
0.00131259
-0.000569706
0.00143828
-0.000661036
-0.000745685
0.0015677
6.81978e-07
3.52458e-05
4.50835e-06
9.62225e-05
1.26163e-05
0.000146322
2.56881e-05
0.000184991
4.40987e-05
0.000212253
6.80244e-05
0.000228391
9.75297e-05
0.000233855
0.000132632
0.000229194
0.000173349
0.000215012
0.000219726
0.000191926
0.000271856
0.000160537
0.000329881
0.000121406
0.000393994
7.50389e-05
0.000464421
2.18837e-05
0.000541407
-3.76659e-05
0.000625187
-0.000103258
0.000715952
-0.000174565
0.00081382
-0.000251258
0.000918794
-0.000332985
0.00103073
-0.000419339
0.00114931
-0.000509815
0.00127404
-0.000603724
0.00140426
-0.000699921
0.00153906
-0.000795839
-0.000883239
0.00167661
1.89942e-07
3.50559e-05
3.0004e-06
9.3412e-05
9.8741e-06
0.000139449
2.17252e-05
0.00017314
3.91202e-05
0.000194858
6.24012e-05
0.00020511
9.17814e-05
0.000204475
0.000127414
0.000193561
0.000169442
0.000172984
0.000218025
0.000143343
0.000273356
0.000105207
0.00033566
5.91018e-05
0.000405187
5.51169e-06
0.000482189
-5.51186e-05
0.000566893
-0.000122369
0.000659462
-0.000195827
0.000759961
-0.000275064
0.000868314
-0.000359611
0.000984265
-0.000448936
0.00110735
-0.000542425
0.00123689
-0.000639349
0.00137197
-0.000738809
0.00151154
-0.00083949
0.00165439
-0.00093869
-0.00102747
0.00179862
-2.11467e-07
3.52674e-05
1.8036e-06
9.1397e-05
7.76667e-06
0.000133486
1.88118e-05
0.000162095
3.56956e-05
0.000177974
5.89321e-05
0.000181874
8.88936e-05
0.000174513
0.000125882
0.000156573
0.000170173
0.000128692
0.000222047
9.14693e-05
0.00028179
4.54632e-05
0.000349694
-8.80162e-06
0.00042603
-7.08245e-05
0.000511024
-0.000140113
0.000604818
-0.000216163
0.000707424
-0.000298434
0.000818692
-0.000386331
0.000938262
-0.000479181
0.00106554
-0.000576217
0.00119969
-0.000676573
0.00133962
-0.000779274
0.00148401
-0.000883205
0.00163145
-0.000986924
0.00178047
-0.00108771
-0.00117617
0.00192917
-4.93741e-07
3.57611e-05
1.01335e-06
8.98899e-05
6.4875e-06
0.000128012
1.72675e-05
0.000151315
3.42955e-05
0.000160946
5.82597e-05
0.00015791
8.96954e-05
0.000143078
0.000129054
0.000117214
0.000176745
8.10014e-05
0.000233151
3.50633e-05
0.000298629
-2.00146e-05
0.000373491
-8.36633e-05
0.000457974
-0.000155308
0.000552205
-0.000234344
0.000656153
-0.000320111
0.000769594
-0.000411875
0.000892068
-0.000508806
0.00102286
-0.000609974
0.00116099
-0.000714344
0.0013052
-0.000820786
0.00145401
-0.000928087
0.00160577
-0.00103496
0.00175873
-0.00113989
0.00191129
-0.00124027
-0.0013265
0.00206161
-6.35049e-07
3.63962e-05
7.03271e-07
8.85516e-05
6.18639e-06
0.000122528
1.73389e-05
0.000140162
3.52802e-05
0.000143004
6.08677e-05
0.000132322
9.47946e-05
0.000109151
0.000137652
7.43564e-05
0.000189961
2.86929e-05
0.000252175
-2.71514e-05
0.000324673
-9.25124e-05
0.000407725
-0.000166715
0.000501456
-0.000249039
0.000605805
-0.000338693
0.000720482
-0.000434788
0.000844936
-0.000536328
0.00097833
-0.000642201
0.00111954
-0.000751186
0.00126717
-0.000861972
0.00141957
-0.000973186
0.00157491
-0.00108343
0.00173125
-0.0011913
0.00188669
-0.00129533
0.00203958
-0.00139316
-0.00147518
0.00218826
-6.22843e-07
3.7019e-05
9.17366e-07
8.70113e-05
6.95438e-06
0.000116491
1.9176e-05
0.000127941
3.88646e-05
0.000123316
6.70338e-05
0.000104153
0.000104518
7.16661e-05
0.000152023
2.68514e-05
0.000210143
-2.94263e-05
0.000279351
-9.636e-05
0.00035998
-0.000173142
0.000452179
-0.000258914
0.000555874
-0.000352734
0.000670727
-0.000453545
0.000796105
-0.000560166
0.000931062
-0.000671286
0.00107434
-0.000785483
0.0012244
-0.000901246
0.00137945
-0.00101701
0.00153748
-0.00113122
0.00169639
-0.00124234
0.00185405
-0.00134895
0.00200844
-0.00144972
0.00215801
-0.00154273
-0.00161881
0.00230165
-4.55092e-07
3.74741e-05
1.66637e-06
8.48899e-05
8.81683e-06
0.000109341
2.28212e-05
0.000113936
4.51038e-05
0.000101033
7.68127e-05
7.24439e-05
0.000118894
2.95846e-05
0.000172127
-2.63815e-05
0.000237125
-9.44242e-05
0.000314315
-0.00017355
0.000403902
-0.000262729
0.000505827
-0.000360839
0.000619727
-0.000466634
0.000744906
-0.000578724
0.000880323
-0.000695582
0.0010246
-0.000815563
0.00117605
-0.000936937
0.00133275
-0.00105794
0.00149258
-0.00117684
0.00165333
-0.00129197
0.00181276
-0.00140177
0.00196869
-0.00150488
0.00211897
-0.00159999
0.00226133
-0.00168509
-0.00175222
0.00239474
-1.40436e-07
3.76145e-05
2.92819e-06
8.18213e-05
1.17353e-05
0.000100534
2.82137e-05
9.74579e-05
5.39022e-05
7.53449e-05
9.00511e-05
3.6295e-05
0.000137677
-1.80415e-05
0.000197579
-8.62834e-05
0.000270323
-0.000167168
0.000356209
-0.000259436
0.000455228
-0.000361748
0.000567023
-0.000472634
0.000690861
-0.000590472
0.000825621
-0.000713484
0.000969811
-0.000839773
0.00112161
-0.000967364
0.00127895
-0.00109427
0.00143956
-0.00121856
0.00160114
-0.00133842
0.0017614
-0.00145223
0.00191825
-0.00155862
0.00206983
-0.00165646
0.00221472
-0.00174488
0.00235264
-0.00182302
-0.00188686
0.00248728
3.06277e-07
3.73082e-05
4.65801e-06
7.74695e-05
1.56239e-05
8.95679e-05
3.5213e-05
7.78688e-05
6.50455e-05
4.55124e-05
0.000106433
-5.09257e-06
0.000160411
-7.20192e-05
0.000227732
-0.000153605
0.000308839
-0.000248275
0.000403818
-0.000354414
0.000512358
-0.000470288
0.00063372
-0.000593997
0.000766731
-0.000723483
0.000909801
-0.000856554
0.00106097
-0.000990947
0.00121802
-0.00112441
0.00137851
-0.00125476
0.00153998
-0.00138003
0.00170001
-0.00149845
0.00185638
-0.0016086
0.00200715
-0.00170939
0.00215078
-0.00180009
0.00228623
-0.00188033
0.00241316
-0.00194996
-0.00200632
0.00253263
8.63881e-07
3.64444e-05
6.79243e-06
7.1541e-05
2.03612e-05
7.59991e-05
4.36227e-05
5.46074e-05
7.82396e-05
1.08955e-05
0.000125536
-5.23893e-05
0.000186505
-0.000132988
0.000261781
-0.000228881
0.000351597
-0.00033809
0.000455736
-0.000458554
0.0005735
-0.000588052
0.000703697
-0.000724193
0.000844662
-0.000864447
0.00099432
-0.00100621
0.00115028
-0.0011469
0.00130994
-0.00128407
0.00147066
-0.00141548
0.00162986
-0.00153922
0.00178516
-0.00165376
0.00193453
-0.00175797
0.0020763
-0.00185117
0.00220927
-0.00193306
0.0023327
-0.00200375
0.00244627
-0.00206353
-0.00211083
0.00255078
1.51096e-06
3.49334e-05
9.26424e-06
6.37877e-05
2.58153e-05
5.9448e-05
5.32261e-05
2.71965e-05
9.31587e-05
-2.9037e-05
0.000146894
-0.000106125
0.000215314
-0.000201408
0.000298851
-0.000312418
0.000397443
-0.000436682
0.000510481
-0.000571592
0.000636801
-0.000714372
0.000774702
-0.000862094
0.000922007
-0.00101175
0.00107618
-0.00116038
0.00123444
-0.00130516
0.00139394
-0.00144358
0.00155195
-0.00157348
0.00170592
-0.00169319
0.00185369
-0.00180153
0.00199353
-0.0018978
0.00212417
-0.00198181
0.00224484
-0.00205374
0.00235523
-0.00211414
0.00245542
-0.00216372
-0.00220189
0.00254648
2.22847e-06
3.27049e-05
1.20111e-05
5.40051e-05
3.18603e-05
3.95988e-05
6.38127e-05
-4.75583e-06
0.000109481
-7.47056e-05
0.000170042
-0.000166686
0.000246188
-0.000277553
0.000338065
-0.000404296
0.000445221
-0.000543838
0.000566576
-0.000692947
0.000700435
-0.000848231
0.000844557
-0.00100622
0.000996268
-0.00116346
0.00115262
-0.00131673
0.00131057
-0.00146311
0.00146716
-0.00160017
0.0016197
-0.00172602
0.00176587
-0.00183937
0.00190385
-0.00193951
0.00203233
-0.00202628
0.00215053
-0.00210001
0.00225817
-0.00216137
0.00235536
-0.00221134
0.00244261
-0.00225096
-0.00228038
0.0025211
3.00196e-06
2.9703e-05
1.49821e-05
4.20249e-05
3.83887e-05
1.61923e-05
7.51953e-05
-4.15625e-05
0.000126913
-0.000126423
0.000194543
-0.000234316
0.000278506
-0.000361516
0.00037857
-0.000504359
0.000493805
-0.000659073
0.000622586
-0.000821728
0.000762648
-0.000988294
0.000911216
-0.00115478
0.00106517
-0.00131742
0.00122126
-0.00147282
0.00137631
-0.00161816
0.00152741
-0.00175128
0.00167209
-0.0018707
0.00180841
-0.00197568
0.00193498
-0.00206608
0.00205102
-0.00214232
0.00215626
-0.00220525
0.00225087
-0.00225599
0.00233541
-0.00229587
0.00241068
-0.00232623
-0.0023477
0.00247799
3.82239e-06
2.58806e-05
1.81406e-05
2.77066e-05
4.53156e-05
-1.09827e-05
8.7217e-05
-8.34639e-05
0.000145194
-0.0001844
0.000219996
-0.000309118
0.00031168
-0.0004532
0.000419545
-0.000612224
0.000542104
-0.000781632
0.000677133
-0.000956756
0.00082179
-0.00113295
0.000972807
-0.0013058
0.00112672
-0.00147133
0.00128011
-0.00162621
0.00142983
-0.00176789
0.00157322
-0.00189466
0.00170815
-0.00200564
0.00183316
-0.00210069
0.00194742
-0.00218033
0.00205064
-0.00224554
0.00214304
-0.00229765
0.00222523
-0.00233818
0.00229807
-0.0023687
0.00236259
-0.00239075
-0.00240525
0.00242014
4.68566e-06
2.11949e-05
2.14628e-05
1.09296e-05
5.25769e-05
-4.20968e-05
9.97458e-05
-0.000130633
0.000164089
-0.000248744
0.00024602
-0.000391048
0.000345141
-0.000552321
0.000460189
-0.000727273
0.000589058
-0.000910501
0.000728901
-0.0010966
0.000876332
-0.00128038
0.00102768
-0.00145715
0.00117926
-0.00162291
0.00132767
-0.00177462
0.00146997
-0.00191019
0.00160386
-0.00202854
0.00172771
-0.00212949
0.00184061
-0.00221359
0.00194225
-0.00228198
0.00203287
-0.00233616
0.0021131
-0.00237788
0.00218386
-0.00240893
0.00224623
-0.00243107
0.00230138
-0.0024459
-0.00245448
0.00235061
5.5912e-06
1.56037e-05
2.49336e-05
-8.4128e-06
6.01212e-05
-7.72844e-05
0.000112664
-0.000183176
0.000183376
-0.000319457
0.000272243
-0.000479915
0.000378318
-0.000658396
0.000499706
-0.00084866
0.000633635
-0.00104443
0.000776656
-0.00123962
0.00092491
-0.00142864
0.00107445
-0.00160668
0.00122155
-0.00177001
0.00136298
-0.00191605
0.00149617
-0.00204338
0.0016193
-0.00215168
0.00173132
-0.00224151
0.00183187
-0.00231414
0.00192117
-0.00237127
0.00199986
-0.00241486
0.00206891
-0.00244693
0.00212946
-0.00246948
0.00218271
-0.00248432
0.00222984
-0.00249304
-0.00249674
0.0022721
6.53998e-06
9.06376e-06
2.85416e-05
-3.04144e-05
6.79007e-05
-0.000116644
0.000125854
-0.000241128
0.000202825
-0.000396428
0.000298278
-0.000575368
0.000410633
-0.000770752
0.000537302
-0.000975329
0.000674849
-0.00118198
0.000819274
-0.00138405
0.000966364
-0.00157573
0.00111206
-0.00175238
0.00125276
-0.00191072
0.00138558
-0.00204887
0.00150844
-0.00216624
0.00162009
-0.00226333
0.00172007
-0.00234149
0.00180854
-0.00240261
0.00188615
-0.00244889
0.0019539
-0.00248261
0.00201297
-0.00250601
0.00206461
-0.00252112
0.00211006
-0.00252976
0.00215045
-0.00253344
-0.0025332
0.00218691
7.53268e-06
1.53108e-06
3.22736e-05
-5.51554e-05
7.58619e-05
-0.000160232
0.000139185
-0.000304451
0.000222186
-0.000479429
0.000323716
-0.000676898
0.00044149
-0.000888525
0.0005722
-0.00110604
0.000711781
-0.00132156
0.000855782
-0.00152805
0.000999787
-0.00171973
0.0011398
-0.00189238
0.00127251
-0.00204344
0.00139552
-0.00217188
0.00150732
-0.00227804
0.00160727
-0.00236328
0.00169544
-0.00242966
0.00177246
-0.00247963
0.00183934
-0.00251576
0.00189729
-0.00254057
0.00194763
-0.00255634
0.00199163
-0.00256512
0.00203048
-0.00256861
0.00206525
-0.0025682
-0.00256485
0.0020969
8.56814e-06
-7.03706e-06
3.61103e-05
-8.26975e-05
8.39386e-05
-0.00020806
0.000152506
-0.000373019
0.000241184
-0.000568107
0.000348125
-0.000783838
0.00047029
-0.00101069
0.000603662
-0.00123941
0.00074362
-0.00146152
0.000885402
-0.00166983
0.00102456
-0.00185889
0.00115732
-0.00202515
0.00128085
-0.00216696
0.0013933
-0.00228432
0.00149376
-0.0023785
0.00158218
-0.0024517
0.00165912
-0.0025066
0.00172558
-0.00254609
0.00178281
-0.00257299
0.00183216
-0.00258992
0.00187498
-0.00259916
0.00191249
-0.00260264
0.00194581
-0.00260193
0.00197588
-0.00259827
-0.00259248
0.00200351
9.64252e-06
-1.66796e-05
4.00237e-05
-0.000113079
9.20485e-05
-0.000260085
0.000165645
-0.000446616
0.00025952
-0.000661982
0.00037106
-0.000895378
0.000496452
-0.00113608
0.000631018
-0.00137398
0.000769699
-0.0016002
0.000907579
-0.00180771
0.00104036
-0.00199166
0.00116466
-0.00214945
0.00127819
-0.00228049
0.00137972
-0.00238585
0.00146895
-0.00246774
0.00154635
-0.0025291
0.00161287
-0.00257312
0.00166979
-0.002603
0.00171849
-0.0026217
0.00176039
-0.00263182
0.00179678
-0.00263555
0.00182882
-0.00263468
0.00185749
-0.0026306
0.00188361
-0.00262439
-0.00261671
0.00190784
1.07489e-05
-2.74285e-05
4.39768e-05
-0.000146307
0.000100093
-0.000316201
0.000178407
-0.00052493
0.000276877
-0.000760452
0.000392077
-0.00101058
0.000519437
-0.00126344
0.000653703
-0.00150824
0.00078952
-0.00173602
0.000922002
-0.00194019
0.00104715
-0.00211681
0.00116212
-0.00226441
0.00126521
-0.00238359
0.00135584
-0.00247648
0.00143427
-0.00254617
0.00150137
-0.0025962
0.00155841
-0.00263016
0.00160683
-0.00265143
0.0016481
-0.00266297
0.00168359
-0.00266731
0.00171452
-0.00266647
0.00174192
-0.00266208
0.00176665
-0.00265534
0.00178939
-0.00264714
-0.00263801
0.00181069
1.18773e-05
-3.93057e-05
4.79239e-05
-0.000182353
0.000107959
-0.000376236
0.000190583
-0.000607554
0.000292935
-0.000862804
0.000410758
-0.0011284
0.000538774
-0.00139146
0.000671275
-0.00164074
0.000802781
-0.00186752
0.000928597
-0.00206601
0.00104518
-0.0022334
0.00115028
-0.00236951
0.00124285
-0.00247616
0.00132288
-0.00255651
0.00139111
-0.0026144
0.00144876
-0.00265385
0.00149731
-0.0026787
0.00153827
-0.00269239
0.0015731
-0.0026978
0.00160308
-0.00269729
0.00162934
-0.00269273
0.00165278
-0.00268552
0.00167413
-0.00267668
0.00169394
-0.00266695
-0.00265672
0.00171264
1.30152e-05
-5.2321e-05
5.18121e-05
-0.00022115
0.000115525
-0.00043995
0.000201959
-0.000693987
0.000307384
-0.000968229
0.000426725
-0.00124774
0.000554083
-0.00151882
0.000683443
-0.0017701
0.000809368
-0.00199345
0.000927514
-0.00218415
0.0010349
-0.00234078
0.00112991
-0.00246452
0.00121213
-0.00255839
0.00128208
-0.00262645
0.00134087
-0.00267319
0.00138998
-0.00270296
0.00143098
-0.00271971
0.00146542
-0.00272682
0.00149467
-0.00272705
0.00151993
-0.00272255
0.00154217
-0.00271497
0.00156217
-0.00270552
0.00158055
-0.00269505
0.00159774
-0.00268414
-0.00267307
0.00161409
1.41482e-05
-6.64692e-05
5.55839e-05
-0.000262586
0.000122664
-0.00050703
0.000212324
-0.000783647
0.00031994
-0.00107585
0.000439664
-0.00136747
0.000565091
-0.00164424
0.000690063
-0.00189508
0.000809349
-0.00211273
0.00091909
-0.00229389
0.00101693
-0.00243862
0.00110189
-0.00254949
0.00117415
-0.00263065
0.00123466
-0.00268696
0.00128483
-0.00272336
0.00132629
-0.00274442
0.00136065
-0.00275407
0.00138939
-0.00275557
0.00141381
-0.00275146
0.00143496
-0.0027437
0.00145369
-0.00273371
0.00147066
-0.00272249
0.00148637
-0.00271076
0.00150117
-0.00269894
-0.00268722
0.00151532
1.52604e-05
-8.17296e-05
5.91789e-05
-0.000306504
0.000129249
-0.000577101
0.00022148
-0.000875878
0.000330356
-0.00118472
0.000449331
-0.00148644
0.000571637
-0.00176655
0.000691136
-0.00201457
0.000802955
-0.00222455
0.000903807
-0.00239475
0.000991994
-0.00252681
0.00106717
-0.00262466
0.00113
-0.00269347
0.00118179
-0.00273875
0.00122416
-0.00276574
0.00125881
-0.00277906
0.00128732
-0.00278258
0.00131109
-0.00277934
0.00133128
-0.00277165
0.00134882
-0.00276124
0.00136443
-0.00274932
0.00137866
-0.00273672
0.00139191
-0.00272401
0.00140446
-0.0027115
-0.00269928
0.00141653
1.63349e-05
-9.80644e-05
6.25366e-05
-0.000352706
0.00013516
-0.000649724
0.000229251
-0.000969969
0.000338433
-0.0012939
0.000455566
-0.00160357
0.000573674
-0.00188466
0.000686797
-0.0021277
0.000790542
-0.0023283
0.000882259
-0.00248646
0.0009609
-0.00260545
0.00102669
-0.00269045
0.00108071
-0.0027475
0.00112453
-0.00278257
0.00115989
-0.0028011
0.00118849
-0.00280766
0.00121184
-0.00280593
0.00123123
-0.00279872
0.00124767
-0.0027881
0.00126198
-0.00277555
0.00127476
-0.0027621
0.00128646
-0.00274842
0.0012974
-0.00273495
0.00130781
-0.0027219
-0.00270931
0.00131783
1.73546e-05
-0.000115419
6.55984e-05
-0.00040095
0.000140286
-0.000724412
0.000235487
-0.00106517
0.000344024
-0.00140244
0.00045829
-0.00171784
0.000571258
-0.00199763
0.000677293
-0.00223373
0.000772569
-0.00242357
0.0008551
-0.00256899
0.000924459
-0.00267481
0.000981364
-0.00274736
0.00102724
-0.00279337
0.00106382
-0.00281915
0.0010929
-0.00283018
0.00111612
-0.00283088
0.00113489
-0.00282471
0.00115037
-0.0028142
0.00116346
-0.00280118
0.00117482
-0.00278692
0.00118498
-0.00277226
0.00119429
-0.00275773
0.00120302
-0.00274367
0.00121132
-0.00273021
-0.00271733
0.00121934
1.83029e-05
-0.000133722
6.83094e-05
-0.000450956
0.00014453
-0.000800633
0.000240072
-0.00116071
0.000347039
-0.00150941
0.000457503
-0.0018283
0.00056454
-0.00210466
0.000662956
-0.00233215
0.000749558
-0.00251017
0.000823016
-0.00264245
0.000883471
-0.00273526
0.000932056
-0.00279594
0.00097044
-0.00283175
0.00100047
-0.00284918
0.00102391
-0.00285362
0.00104233
-0.0028493
0.001057
-0.00283939
0.00106896
-0.00282616
0.00107898
-0.00281119
0.00108762
-0.00279556
0.0010953
-0.00277994
0.00110231
-0.00276475
0.00110887
-0.00275023
0.0011151
-0.00273645
-0.00272333
0.00112111
1.91636e-05
-0.000152886
7.06201e-05
-0.000502413
0.000147812
-0.000877825
0.000242923
-0.00125582
0.000347447
-0.00161393
0.000453281
-0.00193414
0.000553746
-0.00220513
0.000644187
-0.00242259
0.000722069
-0.00258806
0.00078669
-0.00270707
0.000838693
-0.00278726
0.000879544
-0.00283679
0.000911078
-0.00286329
0.000935174
-0.00287328
0.000953544
-0.00287199
0.000967636
-0.00286339
0.000978607
-0.00285036
0.000987343
-0.00283489
0.000994502
-0.00281835
0.00100056
-0.00280162
0.00100586
-0.00278523
0.00101063
-0.00276952
0.00101505
-0.00275464
0.00101922
-0.00274062
-0.00272733
0.00102321
1.99217e-05
-0.000172807
7.24878e-05
-0.000554979
0.000150072
-0.000955409
0.000243994
-0.00134974
0.000345266
-0.0017152
0.000445759
-0.00203463
0.000539162
-0.00229853
0.000621424
-0.00250485
0.000690671
-0.0026573
0.000746783
-0.00276318
0.000790828
-0.00283131
0.000824522
-0.00287049
0.000849799
-0.00288856
0.000868517
-0.00289199
0.000882296
-0.00288577
0.000892459
-0.00287356
0.000900028
-0.00285793
0.000905767
-0.00284063
0.000910229
-0.00282281
0.000913808
-0.00280519
0.000916782
-0.00278821
0.000919344
-0.00277209
0.000921628
-0.00275693
0.000923719
-0.00274271
-0.00272929
0.000925679
2.05637e-05
-0.000193371
7.38776e-05
-0.000608293
0.000151267
-0.0010328
0.000243274
-0.00144175
0.000340564
-0.00181249
0.000435124
-0.00212919
0.000521114
-0.00238452
0.000595125
-0.00257886
0.000655925
-0.0027181
0.000703914
-0.00281117
0.000740508
-0.0028679
0.000767599
-0.00289758
0.000787156
-0.00290812
0.000800976
-0.00290582
0.000810569
-0.00289536
0.00081712
-0.00288011
0.000821526
-0.00286233
0.000824435
-0.00284354
0.00082631
-0.00282469
0.000827477
-0.00280636
0.000828161
-0.00278889
0.000828521
-0.00277245