/*--------------------------------*- C++ -*----------------------------------*\
  =========                 |
  \\      /  F ield         | OpenFOAM: The Open Source CFD Toolbox
   \\    /   O peration     | Website:  https://openfoam.org
    \\  /    A nd           | Version:  6.0
     \\/     M anipulation  |
\*---------------------------------------------------------------------------*/
FoamFile
{
    version     2.0;
    format      ascii;
    class       volVectorField;
    location    "83";
    object      U;
}
// * * * * * * * * * * * * * * * * * * * * * * * * * * * * * * * * * * * * * //

dimensions      [0 1 -1 0 0 0 0];

internalField   nonuniform List<vector> 
12500
(
(-0.000343747 0.0489729 -9.92842e-22)
(-0.000191089 0.129178 1.42568e-20)
(0.00055855 0.194231 -2.06153e-20)
(0.00102722 0.245818 9.41781e-21)
(0.000931734 0.285688 5.4053e-22)
(0.000286777 0.315679 -1.13594e-21)
(-0.00075359 0.337584 -1.69676e-20)
(-0.00196178 0.353038 9.29455e-21)
(-0.00309041 0.363437 6.16007e-21)
(-0.0039112 0.369908 6.23311e-21)
(-0.00423746 0.373308 -1.05842e-20)
(-0.00393417 0.374252 6.15081e-21)
(-0.00291918 0.373159 -2.90844e-21)
(-0.00115887 0.370295 4.94192e-21)
(0.0013395 0.365821 -1.26552e-20)
(0.00453704 0.35983 1.83043e-20)
(0.00837262 0.352378 -3.4285e-21)
(0.0127718 0.343509 -1.30698e-20)
(0.0176542 0.333264 6.75704e-21)
(0.0229406 0.321691 -6.50514e-21)
(0.0285607 0.308845 5.81292e-21)
(0.0344578 0.294777 7.69207e-21)
(0.0405535 0.27953 8.68949e-22)
(0.046706 0.263101 -2.22617e-20)
(0.0530841 0.245391 1.16482e-20)
(-0.00167543 0.0479024 1.91875e-20)
(-0.00326744 0.127175 -4.91503e-20)
(-0.00317083 0.192121 1.43377e-20)
(-0.00261442 0.244078 9.55937e-21)
(-0.00210397 0.284528 -7.61564e-21)
(-0.00178791 0.315104 -4.30497e-20)
(-0.00164985 0.337463 1.27508e-20)
(-0.00157009 0.353159 -2.40809e-20)
(-0.00137977 0.363556 2.87694e-20)
(-0.000903671 0.369784 -3.83328e-20)
(1.28966e-05 0.372729 2.04613e-20)
(0.00148981 0.37305 6.712e-21)
(0.00360691 0.371211 -1.67486e-20)
(0.00640494 0.367529 -7.45723e-21)
(0.00989035 0.362206 5.43729e-20)
(0.0140421 0.355372 -4.83784e-20)
(0.0188192 0.34711 1.15505e-20)
(0.0241679 0.337484 2.00946e-20)
(0.0300278 0.326545 -4.62249e-21)
(0.0363373 0.314345 3.27103e-20)
(0.043042 0.300937 6.26468e-21)
(0.0500993 0.286366 -2.01376e-21)
(0.0574311 0.270662 -4.19681e-20)
(0.0648547 0.253804 3.91125e-20)
(0.0725975 0.235682 -7.36531e-20)
(-0.00293745 0.0464425 6.19879e-20)
(-0.00626071 0.124185 2.02699e-20)
(-0.0069106 0.188598 -2.67376e-20)
(-0.0063964 0.240646 1.14562e-20)
(-0.00540835 0.281521 1.0542e-20)
(-0.00423767 0.312634 4.00168e-20)
(-0.00299489 0.33548 -5.07988e-20)
(-0.00166443 0.35151 -8.3639e-21)
(-0.000156665 0.362039 -3.39439e-20)
(0.00164737 0.368182 -2.83577e-20)
(0.00386617 0.370839 3.64738e-20)
(0.00660008 0.370701 -1.22488e-19)
(0.00992248 0.368273 -4.01187e-21)
(0.0138775 0.363912 -7.40819e-20)
(0.0184819 0.357859 -8.95576e-21)
(0.0237292 0.350278 1.03823e-20)
(0.0295957 0.341277 -5.83481e-20)
(0.0360453 0.330938 -3.67662e-20)
(0.0430349 0.319324 -4.36916e-20)
(0.0505181 0.306495 6.84379e-20)
(0.0584535 0.292503 2.55224e-20)
(0.0668107 0.277393 -1.12969e-19)
(0.0755137 0.261191 -5.50892e-20)
(0.0843434 0.24386 -6.24808e-20)
(0.0935591 0.22529 1.6393e-19)
(-0.0041018 0.0446492 -1.82124e-21)
(-0.00910094 0.120318 -4.73355e-20)
(-0.0105667 0.183785 -2.26623e-20)
(-0.0102153 0.235629 1.43891e-20)
(-0.00887998 0.276746 8.66729e-20)
(-0.00697083 0.308311 -3.87311e-20)
(-0.00471085 0.331643 8.27143e-20)
(-0.00218178 0.348071 7.86739e-20)
(0.000628244 0.358839 4.77534e-20)
(0.00378015 0.365033 -7.25793e-22)
(0.00735267 0.367554 9.63769e-20)
(0.0114222 0.36711 1.67243e-20)
(0.0160513 0.36424 7.38591e-20)
(0.0212828 0.359333 1.70926e-19)
(0.0271397 0.352666 -1.98901e-19)
(0.0336264 0.344432 3.00495e-19)
(0.0407322 0.334763 6.64527e-20)
(0.0484356 0.32376 -1.45824e-19)
(0.0567073 0.311499 -2.11635e-20)
(0.0655131 0.298046 5.32352e-20)
(0.0748218 0.28346 -2.75056e-20)
(0.0846124 0.267791 -1.71446e-20)
(0.0948128 0.251063 -1.67255e-20)
(0.105173 0.233232 -6.61112e-20)
(0.115956 0.214196 2.25001e-19)
(-0.00514695 0.0425813 3.25982e-20)
(-0.0117303 0.115696 -1.50043e-19)
(-0.0140569 0.177821 1.81357e-19)
(-0.0139765 0.229157 -7.14895e-20)
(-0.0124224 0.270306 8.56964e-20)
(-0.00989692 0.302204 6.96711e-20)
(-0.00671845 0.325981 2.63417e-20)
(-0.00305653 0.342833 1.44454e-21)
(0.0010266 0.353916 1.4782e-19)
(0.00553356 0.360271 1.02436e-19)
(0.0105006 0.362785 -4.10704e-20)
(0.0159763 0.362174 -2.67738e-20)
(0.0220074 0.358996 1.11762e-19)
(0.0286312 0.35367 2.09898e-20)
(0.0358718 0.3465 5.77683e-20)
(0.0437399 0.337706 1.3937e-19)
(0.0522342 0.327445 -1.20543e-19)
(0.0613434 0.315834 9.80647e-20)
(0.0710485 0.302962 -2.12987e-19)
(0.0813244 0.288907 1.80577e-19)
(0.0921467 0.273735 1.56748e-21)
(0.103501 0.257504 -1.46775e-19)
(0.11532 0.240242 5.84951e-20)
(0.127328 0.221905 1.35781e-19)
(0.139767 0.202401 -1.96302e-19)
(-0.00605808 0.0402991 1.69318e-19)
(-0.0141046 0.110448 -1.78664e-19)
(-0.0173139 0.17086 -2.83994e-20)
(-0.0175985 0.22138 3.58044e-20)
(-0.0159487 0.262327 -7.69032e-20)
(-0.0129316 0.294402 -1.19323e-19)
(-0.00894203 0.318545 -9.89395e-20)
(-0.0042255 0.335806 -2.37152e-20)
(0.00108726 0.347243 -1.69992e-19)
(0.00694189 0.353838 1.35743e-19)
(0.0133306 0.356448 -2.1077e-19)
(0.0202706 0.355786 1.06685e-19)
(0.0277886 0.352421 -3.55845e-20)
(0.0359112 0.346792 8.28503e-20)
(0.0446592 0.339227 -2.09133e-19)
(0.0540448 0.329968 1.02173e-19)
(0.0640713 0.319193 7.88457e-21)
(0.0747338 0.307037 4.54224e-20)
(0.0860199 0.293604 2.79359e-19)
(0.0979102 0.278982 6.36484e-20)
(0.110384 0.263249 -4.54293e-21)
(0.123431 0.246472 1.82451e-20)
(0.136988 0.228692 1.20211e-19)
(0.150762 0.209866 3.48971e-20)
(0.164943 0.189917 1.11884e-19)
(-0.00682712 0.037863 -1.05483e-19)
(-0.0161941 0.104707 1.48804e-19)
(-0.0202875 0.163069 9.2812e-21)
(-0.0210155 0.212466 -1.7942e-19)
(-0.0193852 0.252956 3.76533e-19)
(-0.016001 0.285021 -1.21171e-19)
(-0.0113138 0.309408 1.76592e-19)
(-0.00563207 0.327022 1.61099e-19)
(0.000852364 0.338812 -1.33215e-19)
(0.00803103 0.345687 -1.94113e-19)
(0.0158517 0.348466 5.31011e-20)
(0.0242976 0.347845 -5.5936e-20)
(0.0333716 0.344395 -2.49748e-19)
(0.0430851 0.338567 3.04781e-19)
(0.0534505 0.330706 -1.47063e-19)
(0.0644769 0.321073 -1.02303e-19)
(0.0761681 0.309866 6.7198e-22)
(0.0885214 0.297236 8.44702e-20)
(0.101528 0.283302 3.56363e-20)
(0.11517 0.268163 -1.3854e-19)
(0.12943 0.251909 1.60731e-19)
(0.144296 0.234622 -2.80738e-19)
(0.159711 0.216357 1.72309e-19)
(0.175371 0.197081 -1.34381e-19)
(0.191388 0.176733 3.36061e-20)
(-0.00745271 0.0353329 1.54086e-19)
(-0.017984 0.0986098 -1.17627e-19)
(-0.0229454 0.154621 -7.4053e-20)
(-0.0241803 0.202596 -1.30368e-19)
(-0.0226746 0.242362 -2.37641e-19)
(-0.0190445 0.274197 -1.74877e-19)
(-0.0137767 0.298671 1.08786e-19)
(-0.00722868 0.316538 -1.64318e-19)
(0.000355347 0.328635 2.08504e-19)
(0.008817 0.335792 -3.39291e-19)
(0.0180604 0.338777 1.50976e-19)
(0.0280333 0.338261 3.20164e-19)
(0.0387115 0.334805 -4.51103e-19)
(0.050087 0.328864 6.45382e-20)
(0.0621595 0.320795 8.51074e-20)
(0.0749308 0.310875 8.34017e-20)
(0.0884008 0.299317 -8.82426e-20)
(0.102566 0.286286 -2.11005e-20)
(0.117416 0.271915 -6.56742e-20)
(0.132937 0.256318 -5.58095e-20)
(0.149109 0.239596 -3.11444e-19)
(0.165918 0.221847 -2.18142e-20)
(0.183312 0.203145 3.78657e-21)
(0.200985 0.183476 -1.44655e-19)
(0.218944 0.162796 1.45634e-19)
(-0.00793995 0.0327664 4.03311e-21)
(-0.0194746 0.0922918 4.74159e-20)
(-0.0252748 0.145695 4.95125e-20)
(-0.0270651 0.191963 2.88125e-20)
(-0.0257775 0.23073 2.42093e-19)
(-0.0220165 0.262093 2.26183e-19)
(-0.0162857 0.286457 -1.83559e-19)
(-0.00897745 0.304437 -5.56016e-20)
(-0.000378796 0.316754 -4.93941e-20)
(0.00930721 0.324153 2.54982e-19)
(0.0199431 0.327344 9.18316e-20)
(0.0314405 0.326962 -1.33511e-19)
(0.0437458 0.323552 -1.13958e-19)
(0.0568284 0.317564 2.75031e-19)
(0.0706716 0.309361 -6.74572e-20)
(0.0852658 0.29923 -8.26015e-20)
(0.100604 0.287395 -1.17067e-19)
(0.116678 0.274035 -9.1636e-20)
(0.133477 0.259295 -1.18706e-19)
(0.150985 0.2433 -7.92032e-20)
(0.169182 0.226165 3.2881e-19)
(0.188054 0.208004 -1.62714e-19)
(0.207552 0.188915 1.10266e-19)
(0.227374 0.168916 -2.99051e-19)
(0.247399 0.147985 1.16934e-19)
(-0.0083001 0.0302186 -1.38057e-19)
(-0.020681 0.0858862 -3.53522e-20)
(-0.0272814 0.13647 -2.77488e-19)
(-0.0296618 0.180769 -1.31917e-19)
(-0.0286727 0.21826 -2.59478e-19)
(-0.0248867 0.248891 -2.66313e-20)
(-0.0188075 0.272921 1.38283e-19)
(-0.0108485 0.290834 -8.39138e-20)
(-0.00133041 0.303242 1.8089e-19)
(0.00950535 0.310801 -4.39334e-19)
(0.0214826 0.314158 -1.29223e-20)
(0.0344775 0.313905 7.81717e-20)
(0.0484058 0.310563 -9.9291e-20)
(0.063212 0.30457 9.1676e-20)
(0.0788598 0.296287 -6.91051e-20)
(0.0953255 0.286006 -1.5056e-19)
(0.112592 0.273959 2.77794e-19)
(0.130646 0.260334 1.74596e-19)
(0.149475 0.245285 -3.48678e-20)
(0.169062 0.228947 1.17787e-19)
(0.189388 0.211449 -2.32256e-19)
(0.210438 0.192919 3.39872e-19)
(0.232171 0.173486 -4.66102e-19)
(0.254295 0.153211 9.65656e-20)
(0.276536 0.132115 -1.80727e-19)
(-0.00855015 0.0277411 7.22681e-21)
(-0.0216319 0.0795208 -1.21952e-19)
(-0.0289889 0.127124 1.79423e-19)
(-0.031981 0.169217 3.65986e-19)
(-0.0313557 0.205163 -5.93801e-21)
(-0.0276379 0.234791 4.11188e-20)
(-0.0213171 0.25824 -1.54257e-19)
(-0.0128157 0.275876 7.26383e-20)
(-0.00247869 0.288208 4.96732e-19)
(0.00942045 0.295806 -1.12785e-19)
(0.0226708 0.29925 -1.33355e-19)
(0.0371145 0.299086 5.04512e-19)
(0.0526369 0.295801 1.65609e-19)
(0.0691561 0.289817 7.97893e-20)
(0.0866151 0.281487 8.12734e-20)
(0.104974 0.271099 2.22712e-19)
(0.124206 0.25889 -8.75309e-20)
(0.14429 0.245051 2.29537e-19)
(0.165212 0.229743 3.15023e-19)
(0.186959 0.213108 -2.72085e-19)
(0.209515 0.195281 4.08068e-19)
(0.232869 0.176408 1.48971e-19)
(0.256988 0.156651 -5.64744e-19)
(0.281598 0.136134 8.22274e-19)
(0.306239 0.11495 -6.50631e-19)
(-0.00871217 0.0253813 -3.50998e-19)
(-0.0223682 0.0733153 1.89654e-19)
(-0.0304368 0.117827 -1.26745e-19)
(-0.0340492 0.157509 -1.20161e-19)
(-0.0338354 0.191656 -1.28422e-19)
(-0.0302619 0.220011 -1.38487e-19)
(-0.0237925 0.242617 3.85334e-20)
(-0.0148488 0.259742 3.59558e-19)
(-0.00379124 0.271799 -7.73184e-20)
(0.00908091 0.279281 -2.00077e-19)
(0.0235266 0.282699 -1.21841e-19)
(0.0393569 0.282548 -5.02034e-20)
(0.056428 0.279279 1.47771e-19)
(0.0746325 0.27329 -9.46768e-20)
(0.0938923 0.26492 -3.12683e-19)
(0.114152 0.254449 -3.48184e-19)
(0.135373 0.242111 1.38878e-19)
(0.157533 0.228096 -2.62822e-19)
(0.180616 0.212566 2.31001e-19)
(0.204614 0.195663 -6.54173e-19)
(0.229522 0.177528 5.09036e-19)
(0.255333 0.158317 -6.80214e-19)
(0.282029 0.138228 -1.55896e-20)
(0.309356 0.117474 -2.37376e-19)
(0.336634 0.0962693 6.69651e-19)
(-0.00881255 0.0231816 5.37161e-19)
(-0.0229409 0.0673791 7.76493e-20)
(-0.0316761 0.108739 -5.09703e-20)
(-0.035904 0.145841 -2.14986e-20)
(-0.0361288 0.177955 3.96123e-19)
(-0.0327524 0.204775 1.274e-19)
(-0.026206 0.226273 1.1489e-19)
(-0.016902 0.242638 -9.29146e-20)
(-0.00520938 0.254203 3.56668e-19)
(0.00855369 0.261386 -1.76018e-19)
(0.0241211 0.264634 1.13265e-19)
(0.0412773 0.264391 2.87496e-19)
(0.0598521 0.261068 -1.64405e-19)
(0.0797152 0.255034 1.77585e-19)
(0.10077 0.246608 1.68291e-19)
(0.122946 0.236057 5.81938e-20)
(0.1462 0.223606 -1.46915e-19)
(0.170504 0.209439 4.02806e-19)
(0.195849 0.193711 -3.86725e-20)
(0.222237 0.17656 -4.76877e-20)
(0.249672 0.158124 4.9757e-19)
(0.278158 0.138568 -3.60549e-19)
(0.307685 0.118124 6.10035e-19)
(0.338028 0.0971175 -5.14248e-19)
(0.36824 0.075951 6.3992e-19)
(-0.00888087 0.0211782 -2.58672e-19)
(-0.0234074 0.061808 5.57749e-20)
(-0.0327652 0.100004 -5.90081e-20)
(-0.0375875 0.134397 -2.77628e-19)
(-0.0382521 0.164275 1.65761e-20)
(-0.0350955 0.189314 1.55849e-19)
(-0.028512 0.209446 -6.33509e-19)
(-0.0188996 0.224799 4.71016e-19)
(-0.0066292 0.235643 -4.57819e-19)
(0.00796834 0.242327 -2.88805e-19)
(0.0246082 0.245242 2.57876e-19)
(0.0430535 0.244778 -5.59523e-19)
(0.0631133 0.241308 4.71546e-19)
(0.0846387 0.235167 -1.50278e-19)
(0.107519 0.22665 -4.33356e-19)
(0.131675 0.216006 1.08126e-19)
(0.157059 0.203445 -1.01982e-19)
(0.183646 0.189139 4.05964e-20)
(0.211433 0.173232 -1.38814e-19)
(0.240434 0.155851 -4.69821e-19)
(0.270665 0.137125 1.04827e-19)
(0.302134 0.11722 -1.73065e-21)
(0.334833 0.0964005 -5.01459e-19)
(0.368562 0.0751333 3.51547e-19)
(0.402061 0.0540834 -2.98909e-19)
(-0.00894841 0.0194004 1.04556e-19)
(-0.0238279 0.0566815 1.90159e-19)
(-0.0337628 0.0917485 2.64874e-19)
(-0.039138 0.123344 1.35175e-19)
(-0.0402112 0.150815 -1.32167e-19)
(-0.0372571 0.173856 3.14034e-19)
(-0.0306325 0.192381 2.30521e-19)
(-0.0207176 0.206482 -8.50651e-20)
(-0.00787973 0.216375 2.98596e-19)
(0.00754415 0.222357 -3.07102e-19)
(0.0252576 0.224764 -9.04504e-20)
(0.0450098 0.223939 9.14017e-20)
(0.0665961 0.220214 1.80152e-19)
(0.0898563 0.21389 2.40419e-21)
(0.114672 0.205234 1.15196e-19)
(0.14096 0.194474 2.15978e-19)
(0.168675 0.1818 -3.69498e-19)
(0.197795 0.167367 4.62305e-19)
(0.228326 0.151305 1.58561e-19)
(0.260288 0.133725 5.91218e-20)
(0.293703 0.114744 -5.76872e-19)
(0.32857 0.0945196 8.02228e-20)
(0.364859 0.0733468 1.28827e-19)
(0.402393 0.0518551 -3.32373e-20)
(0.439567 0.0310558 1.46406e-19)
(-0.00904628 0.0178689 7.09218e-21)
(-0.0242601 0.0520593 -4.88941e-19)
(-0.0347204 0.0840731 -1.27466e-20)
(-0.0405802 0.112824 -1.22627e-19)
(-0.0419897 0.13776 -7.97809e-19)
(-0.0391694 0.15862 6.85283e-19)
(-0.0324413 0.175328 -4.85832e-19)
(-0.0221654 0.187955 -2.50528e-20)
(-0.00870077 0.196685 -2.27365e-19)
(0.00761646 0.201769 3.92125e-19)
(0.0264864 0.203498 -4.21624e-19)
(0.047653 0.20217 -1.97398e-19)
(0.0709067 0.198078 3.02186e-21)
(0.0960845 0.19149 -4.29593e-19)
(0.123067 0.182644 5.87545e-19)
(0.151774 0.171743 -6.86048e-19)
(0.182162 0.158956 2.53543e-22)
(0.214214 0.14442 1.05378e-19)
(0.247936 0.128247 -2.70927e-19)
(0.283344 0.110532 2.66973e-19)
(0.320446 0.0913773 -3.77232e-19)
(0.359207 0.0709302 -2.54279e-19)
(0.399544 0.0495054 4.77934e-19)
(0.441288 0.0279144 -5.2581e-19)
(0.482487 0.00759428 -8.89287e-21)
(-0.00920302 0.0165945 -4.14105e-19)
(-0.024753 0.0479787 4.73261e-19)
(-0.0356738 0.0770512 -1.46189e-19)
(-0.0419147 0.102953 2.78479e-19)
(-0.043537 0.125269 2.98796e-19)
(-0.0407181 0.143808 -2.62417e-19)
(-0.0337491 0.158527 -1.71519e-19)
(-0.0229694 0.169496 -2.05206e-19)
(-0.00872493 0.176877 1.88039e-19)
(0.00865617 0.18089 -1.31498e-20)
(0.0288794 0.181786 2.72547e-19)
(0.0516928 0.179826 2.68519e-19)
(0.0768912 0.175266 -3.21836e-19)
(0.104316 0.168342 6.32301e-19)
(0.133853 0.159262 -4.21724e-19)
(0.165426 0.148206 -7.31026e-20)
(0.19899 0.135322 8.31832e-19)
(0.234524 0.120728 -3.86062e-19)
(0.272018 0.104521 2.51257e-19)
(0.31146 0.0867832 4.9522e-19)
(0.352815 0.0676047 -3.21982e-19)
(0.39598 0.0471199 3.36144e-20)
(0.440771 0.0256536 -2.40135e-20)
(0.487013 0.00420498 -1.36916e-19)
(0.532467 -0.0152894 2.49659e-19)
(-0.00944195 0.0155767 9.45134e-20)
(-0.0253414 0.0444515 -2.97107e-19)
(-0.0366351 0.0707242 1.62142e-19)
(-0.0431087 0.0938133 -2.33438e-21)
(-0.0447584 0.11347 1.21196e-19)
(-0.0417315 0.129599 -2.07007e-19)
(-0.0342937 0.142204 1.18218e-19)
(-0.0227636 0.151374 3.20625e-19)
(-0.0074699 0.157261 -9.64296e-21)
(0.0112745 0.160064 -1.61938e-19)
(0.0331888 0.160002 1.62257e-19)
(0.0580336 0.157307 -3.80944e-21)
(0.0856149 0.1522 -5.16576e-19)
(0.115783 0.144887 1.91132e-19)
(0.148427 0.135552 4.18731e-20)
(0.18347 0.124349 -7.53583e-20)
(0.220854 0.11141 -1.37841e-19)
(0.260532 0.0968389 5.22048e-19)
(0.302451 0.0807204 1.29609e-19)
(0.346537 0.0631302 -2.78169e-19)
(0.392674 0.0441514 -3.50704e-20)
(0.440648 0.0239089 3.93348e-19)
(0.490133 0.00272453 -1.83389e-19)
(0.540927 -0.0182271 8.10611e-20)
(0.590636 -0.0364388 5.15761e-20)
(-0.00977843 0.0148028 -1.87927e-19)
(-0.0260397 0.0414619 1.86803e-19)
(-0.037586 0.0650991 -1.04481e-19)
(-0.0440897 0.0854499 -3.3427e-19)
(-0.0455093 0.102456 -3.06414e-19)
(-0.0419764 0.116136 -1.33596e-19)
(-0.0337381 0.126558 -1.10771e-19)
(-0.0210923 0.13384 -3.26358e-19)
(-0.00434692 0.138138 -1.3158e-19)
(0.0162059 0.139637 1.20088e-19)
(0.0403049 0.138536 -1.70607e-19)
(0.0677279 0.135038 -1.79337e-19)
(0.0982931 0.12934 -1.68631e-19)
(0.131856 0.121619 3.08234e-19)
(0.168302 0.112038 -6.4689e-19)
(0.207533 0.100732 3.73569e-19)
(0.249456 0.0878174 -6.3994e-19)
(0.293965 0.0733896 -9.98147e-20)
(0.340929 0.0575295 -3.59017e-19)
(0.39017 0.0403123 -8.53992e-20)
(0.441447 0.0218223 -1.03749e-19)
(0.494402 0.00217851 -3.51866e-19)
(0.548537 -0.0183135 -4.04459e-20)
(0.603593 -0.0383392 2.19498e-19)
(0.65724 -0.0547451 -5.51452e-19)
(-0.0102173 0.014247 1.60998e-19)
(-0.0268379 0.0389667 2.09734e-19)
(-0.0384732 0.0601467 7.30072e-19)
(-0.0447419 0.0778673 -1.27369e-19)
(-0.0455943 0.0922776 3.0306e-19)
(-0.0411618 0.103523 7.16999e-19)
(-0.0316796 0.111749 -1.95099e-19)
(-0.0174269 0.117112 2.625e-19)
(0.001311 0.119781 1.52385e-19)
(0.0242646 0.119936 2.75354e-19)
(0.0511933 0.117762 -5.46911e-20)
(0.0818892 0.113443 3.72393e-20)
(0.116176 0.107152 -9.67586e-20)
(0.153899 0.0990469 5.20269e-19)
(0.194918 0.0892697 6.59571e-20)
(0.239087 0.0779434 4.87358e-19)
(0.286241 0.065174 -1.26135e-19)
(0.336177 0.0510535 4.52942e-19)
(0.38864 0.0356645 6.55902e-20)
(0.443311 0.0190882 2.35438e-19)
(0.49979 0.00141617 -1.02989e-19)
(0.557555 -0.0172336 -2.15868e-20)
(0.615922 -0.0365857 5.72989e-19)
(0.674555 -0.0552458 3.57606e-19)
(0.73145 -0.0693282 -1.42588e-19)
(-0.0107512 0.0138718 -3.8774e-19)
(-0.0276984 0.0368959 -3.91098e-19)
(-0.0392078 0.0558021 -4.07318e-19)
(-0.0449085 0.0710282 1.49473e-19)
(-0.0447742 0.0829397 -2.97936e-19)
(-0.0389512 0.0918171 -4.40855e-20)
(-0.027671 0.0978894 -1.16199e-19)
(-0.011198 0.101359 -4.78564e-19)
(0.0102022 0.102416 -7.3877e-20)
(0.0362795 0.101244 1.21927e-19)
(0.0668063 0.0980196 -3.81542e-19)
(0.101577 0.092911 5.28845e-19)
(0.140401 0.0860751 -7.1835e-19)
(0.183089 0.0776547 1.73466e-19)
(0.229439 0.0677775 -4.41623e-19)
(0.27922 0.056557 -3.60934e-19)
(0.332151 0.0440941 -2.1346e-20)
(0.387891 0.0304812 -5.63307e-20)
(0.446024 0.0158061 4.26513e-20)
(0.506057 0.000158731 -2.1321e-19)
(0.567414 -0.0163596 -1.48772e-19)
(0.62941 -0.0336299 1.85023e-19)
(0.691193 -0.0514185 -5.151e-19)
(0.752333 -0.0683316 1.68095e-19)
(0.811406 -0.0796639 1.16923e-19)
(-0.0113595 0.0136292 -6.83907e-20)
(-0.0285565 0.0351563 -1.12735e-19)
(-0.0396674 0.0519681 4.40064e-19)
(-0.0443985 0.0648557 1.62717e-19)
(-0.0427777 0.0744005 2.14293e-19)
(-0.0349821 0.081021 -2.85726e-19)
(-0.0212498 0.0850336 8.51671e-22)
(-0.00183824 0.0866921 -2.28631e-19)
(0.022998 0.0862118 4.22361e-19)
(0.0530159 0.0837844 1.37162e-19)
(0.0879841 0.079584 1.53405e-19)
(0.127675 0.0737703 -6.11106e-19)
(0.171852 0.0664885 7.54173e-19)
(0.220254 0.0578699 -2.26476e-19)
(0.272577 0.0480328 -1.63051e-19)
(0.328456 0.0370844 4.90075e-19)
(0.387456 0.0251234 2.21213e-19)
(0.449058 0.0122437 -5.60519e-19)
(0.512662 -0.00146201 -2.38192e-19)
(0.577586 -0.0158972 7.18148e-19)
(0.643084 -0.0309543 -5.54126e-19)
(0.708329 -0.0465162 3.35036e-19)
(0.77235 -0.0624024 1.90592e-19)
(0.834626 -0.0773058 -2.45433e-19)
(0.894481 -0.0856359 -2.29049e-19)
(-0.0120093 0.0134642 -2.51194e-19)
(-0.0293227 0.0336379 3.90695e-19)
(-0.0397025 0.0485213 1.65743e-19)
(-0.0429967 0.059237 -2.39027e-19)
(-0.0393178 0.0665745 -3.84524e-20)
(-0.0288901 0.0710872 -2.4886e-19)
(-0.0119719 0.0731792 -9.86328e-20)
(0.0111727 0.0731568 1.10026e-19)
(0.0402835 0.0712643 -2.7806e-20)
(0.0751029 0.0677056 2.06546e-19)
(0.115367 0.0626566 -1.79279e-19)
(0.160791 0.0562725 4.95614e-19)
(0.211052 0.0486912 -6.15064e-19)
(0.26577 0.0400361 3.83468e-19)
(0.324492 0.030419 4.78998e-19)
(0.386681 0.0199422 -6.95205e-19)
(0.451709 0.00870234 -2.13647e-19)
(0.518857 -0.00320712 3.60712e-19)
(0.58733 -0.0156926 -2.23859e-19)
(0.656267 -0.0286571 2.19332e-19)
(0.724775 -0.0419957 -5.32464e-19)
(0.791927 -0.0556034 8.82098e-20)
(0.856707 -0.0693663 3.53831e-19)
(0.918557 -0.0821237 -5.74234e-19)
(0.977526 -0.0874267 1.48864e-19)
(-0.0126569 0.0133189 -2.31838e-19)
(-0.0298872 0.0322214 7.26742e-19)
(-0.0391441 0.0453203 1.39006e-19)
(-0.0404758 0.0540333 -3.75047e-19)
(-0.0341081 0.0593405 2.68032e-19)
(-0.0203311 0.0619237 1.3519e-19)
(0.00055879 0.0622706 2.15189e-19)
(0.0282703 0.0607397 -1.48711e-20)
(0.062512 0.0576052 -2.2452e-20)
(0.10298 0.0530858 -4.61768e-20)
(0.149338 0.0473623 -2.02935e-19)
(0.201201 0.0405883 -7.1421e-21)
(0.25811 0.0328972 4.75379e-19)
(0.31952 0.0244061 -7.81989e-19)
(0.384788 0.0152205 5.5665e-19)
(0.453166 0.00543702 1.12587e-19)
(0.523815 -0.00485277 2.0026e-19)
(0.595812 -0.01556 -1.0562e-19)
(0.668176 -0.0265959 9.30455e-19)
(0.739899 -0.03787 -5.78618e-19)
(0.809978 -0.0492882 4.66328e-19)
(0.877435 -0.0607693 1.11517e-19)
(0.94127 -0.0722637 -3.48155e-19)
(1.001 -0.0827194 2.96723e-19)
(1.05703 -0.0852345 4.49292e-19)
(-0.0132512 0.0131372 -6.72682e-20)
(-0.0301267 0.0307873 -2.56394e-19)
(-0.0378128 0.0422179 -4.37252e-19)
(-0.0366076 0.0490911 -2.48383e-19)
(-0.0268778 0.0525545 -3.48167e-20)
(-0.00899978 0.0534069 -9.78349e-20)
(0.0166689 0.0522131 -4.4997e-19)
(0.0497812 0.0493808 7.4292e-20)
(0.0899802 0.0452135 -5.0275e-19)
(0.136873 0.0399455 -3.87402e-20)
(0.190007 0.0337636 -4.81072e-19)
(0.248842 0.0268213 -1.71808e-19)
(0.312738 0.019247 9.851e-20)
(0.380937 0.0111507 -4.69876e-19)
(0.452572 0.0026288 4.05362e-21)
(0.52667 -0.00623222 -4.06693e-19)
(0.602174 -0.015352 1.57689e-19)
(0.677978 -0.0246532 -5.71382e-19)
(0.752956 -0.0340589 -9.87459e-20)
(0.826007 -0.0434896 -1.26523e-20)
(0.896089 -0.0528636 -9.70183e-20)
(0.962229 -0.0621166 -9.81317e-20)
(1.02351 -0.0711914 -4.63373e-20)
(1.07957 -0.0790004 -1.96355e-19)
(1.12998 -0.0798651 -4.18112e-19)
(-0.0137369 0.0128691 1.23071e-19)
(-0.0299112 0.0292257 3.24455e-19)
(-0.0355267 0.0390726 3.89153e-19)
(-0.0311722 0.044257 -3.10725e-19)
(-0.0173804 0.046066 5.74561e-19)
(0.00536223 0.0454005 -3.11692e-19)
(0.0366078 0.0428933 1.68706e-19)
(0.0759178 0.0389962 2.61588e-19)
(0.122826 0.0340397 2.37965e-19)
(0.176804 0.0282724 1.15205e-19)
(0.237225 0.0218861 1.86814e-19)
(0.303348 0.015032 1.08063e-19)
(0.3743 0.00783083 7.34387e-19)
(0.449079 0.000380698 -5.3499e-19)
(0.526571 -0.00723783 6.11061e-19)
(0.605574 -0.0149569 -2.54789e-19)
(0.68484 -0.0227171 5.50404e-19)
(0.763119 -0.0304635 -2.54617e-20)
(0.839207 -0.0381417 -1.1422e-19)
(0.911994 -0.045693 -1.9188e-20)
(0.980502 -0.0530506 4.3139e-19)
(1.04391 -0.0601381 -4.13877e-19)
(1.10162 -0.0667833 2.96124e-19)
(1.1535 -0.0721005 3.1846e-19)
(1.19559 -0.0760099 6.05091e-20)
(-0.0140582 0.0124743 8.50804e-20)
(-0.0291094 0.0274444 -4.64589e-19)
(-0.0321078 0.0357613 -1.68345e-19)
(-0.0239627 0.0393941 1.52956e-19)
(-0.00539743 0.0397374 -4.72029e-19)
(0.0229646 0.0377773 -9.32239e-20)
(0.0605501 0.0342037 6.42598e-20)
(0.106786 0.0295052 2.52599e-19)
(0.161047 0.0240347 -6.41027e-19)
(0.222613 0.0180513 4.84678e-20)
(0.290631 0.0117474 -1.8704e-19)
(0.364106 0.00526674 -5.68767e-19)
(0.441895 -0.00128446 3.88226e-19)
(0.522727 -0.00782886 1.59787e-20)
(0.605241 -0.0143117 -1.12266e-20)
(0.688026 -0.0206949 3.91305e-19)
(0.769686 -0.0269521 -6.92063e-19)
(0.848891 -0.0330631 5.47696e-19)
(0.924433 -0.0390093 -1.01944e-19)
(0.995278 -0.044769 3.14263e-19)
(1.0606 -0.0503141 -5.1845e-19)
(1.11979 -0.0556065 2.92511e-19)
(1.17252 -0.0605593 -5.11897e-19)
(1.21886 -0.0647514 5.12573e-19)
(1.25655 -0.0682368 -1.66722e-19)
(-0.0141613 0.0119243 5.73396e-19)
(-0.027594 0.0253754 -9.35787e-20)
(-0.0273858 0.0321899 6.86808e-19)
(-0.0147876 0.0343957 3.17145e-19)
(0.00926272 0.033462 2.4919e-20)
(0.0439738 0.0304413 1.38122e-19)
(0.088606 0.0260675 3.29468e-20)
(0.142402 0.020857 5.61082e-19)
(0.204522 0.0151776 1.80151e-19)
(0.273995 0.00929132 -2.42257e-20)
(0.34969 0.00338346 4.81056e-20)
(0.430313 -0.00241941 1.86635e-19)
(0.514423 -0.00803646 1.55814e-19)
(0.600478 -0.013423 3.32884e-19)
(0.686886 -0.0185623 -3.79373e-19)
(0.772076 -0.0234577 1.14399e-19)
(0.854566 -0.0281259 3.52681e-20)
(0.933029 -0.0325893 1.6872e-19)
(1.00634 -0.0368704 4.52316e-19)
(1.07363 -0.0409869 -2.98132e-19)
(1.13429 -0.0449487 2.27089e-20)
(1.18798 -0.048758 -4.02752e-19)
(1.23461 -0.0523965 3.73274e-19)
(1.27444 -0.0556378 -3.4499e-19)
(1.30627 -0.0583251 4.26226e-20)
(-0.0139965 0.0112039 -4.78531e-19)
(-0.0252447 0.0229787 3.65304e-19)
(-0.0212001 0.0283013 -5.93894e-19)
(-0.00347003 0.0291978 5.13058e-20)
(0.0267682 0.0271795 4.16628e-19)
(0.06852 0.0233454 -6.93558e-19)
(0.120832 0.0184586 5.49276e-19)
(0.182708 0.0130514 -8.71098e-19)
(0.253033 0.00749509 1.73804e-19)
(0.330527 0.00204376 3.6979e-20)
(0.413731 -0.0031375 2.92595e-19)
(0.501019 -0.00795291 -9.71497e-19)
(0.590646 -0.0123616 1.67641e-19)
(0.680812 -0.0163654 1.77452e-19)
(0.769745 -0.0199977 -1.06259e-19)
(0.855781 -0.0233131 -6.56329e-19)
(0.937442 -0.0263763 3.09776e-19)
(1.0135 -0.0292539 5.72817e-19)
(1.08301 -0.0320065 -5.98879e-19)
(1.14534 -0.0346833 4.30688e-19)
(1.20017 -0.0373199 -5.46763e-19)
(1.24744 -0.0399389 3.94446e-19)
(1.28737 -0.042543 -1.02476e-19)
(1.3204 -0.0449812 5.84762e-19)
(1.34606 -0.0470466 -6.4284e-19)
(-0.0135191 0.01031 6.87536e-20)
(-0.0219491 0.0202435 5.41557e-20)
(-0.0133999 0.0240793 1.32591e-19)
(0.0101532 0.0237862 4.71285e-19)
(0.0472668 0.020886 -1.45511e-20)
(0.096702 0.0165035 1.05262e-19)
(0.15724 0.011414 4.67669e-19)
(0.227582 0.00615014 1.88798e-19)
(0.306276 0.00107162 -6.1911e-20)
(0.39168 -0.00359218 5.29071e-19)
(0.481965 -0.00771355 -6.02068e-19)
(0.57516 -0.0112452 9.23298e-19)
(0.669228 -0.0142024 -3.65819e-19)
(0.76216 -0.0166476 6.62986e-19)
(0.852074 -0.0186739 -2.23721e-19)
(0.937307 -0.0203911 8.13354e-20)
(1.01649 -0.0219115 9.8265e-20)
(1.08859 -0.0233397 -1.85887e-19)
(1.15294 -0.0247637 1.56648e-19)
(1.20922 -0.0262504 9.99825e-20)
(1.25741 -0.0278443 1.34646e-19)
(1.2978 -0.0295696 2.75862e-19)
(1.33084 -0.0314259 -2.82009e-20)
(1.3572 -0.0333007 -1.24429e-19)
(1.37694 -0.0349967 3.43307e-19)
(-0.0126886 0.00925014 -4.01625e-19)
(-0.0176029 0.0171867 4.23259e-20)
(-0.00384453 0.0195488 -7.6157e-19)
(0.0262319 0.0181985 -1.81922e-19)
(0.0708858 0.0146377 -3.39944e-19)
(0.128587 0.00999467 -7.30299e-20)
(0.19779 0.00503711 -3.63981e-19)
(0.276832 0.000278214 -2.17307e-19)
(0.363861 -0.00395431 2.88515e-19)
(0.456823 -0.00747715 -4.81069e-19)
(0.553498 -0.0102214 -1.33543e-19)
(0.651578 -0.0122079 4.81758e-21)
(0.748777 -0.0135245 -8.99983e-19)
(0.842953 -0.0143042 3.81796e-19)
(0.932214 -0.0147044 -5.55115e-19)
(1.01501 -0.0148873 -1.6746e-20)
(1.09019 -0.0150047 1.06722e-19)
(1.15701 -0.0151858 -1.75597e-19)
(1.21515 -0.0155303 -1.52449e-19)
(1.26464 -0.0161056 7.263e-20)
(1.3058 -0.0169482 7.92458e-20)
(1.3392 -0.0180678 -5.16147e-19)
(1.36556 -0.0194454 2.92566e-19)
(1.3857 -0.0209837 1.38678e-19)
(1.39998 -0.0225532 2.88605e-20)
(-0.0114678 0.00804057 4.11282e-19)
(-0.012109 0.0138495 -4.38509e-19)
(0.00759675 0.0147735 6.14304e-19)
(0.0449007 0.0125225 9.51346e-20)
(0.0977281 0.0085484 -2.91319e-20)
(0.164203 0.0039592 -2.07188e-19)
(0.242389 -0.000508866 3.08359e-20)
(0.33019 -0.0043866 3.14335e-19)
(0.4253 -0.00740406 -4.33431e-19)
(0.525219 -0.00944969 4.54855e-19)
(0.627337 -0.0105371 -4.77424e-20)
(0.729046 -0.0107745 2.14725e-20)
(0.82789 -0.0103345 5.89942e-19)
(0.921694 -0.00942545 7.85613e-19)
(1.00868 -0.0082649 -3.07685e-19)
(1.08752 -0.00705748 5.39005e-19)
(1.15738 -0.00597844 2.68573e-19)
(1.21791 -0.00516369 -1.66379e-19)
(1.26914 -0.00470596 5.12949e-19)
(1.31148 -0.00465598 -2.46797e-20)
(1.34557 -0.00502764 -4.81104e-19)
(1.37223 -0.00580543 4.97565e-19)
(1.39238 -0.0069445 6.57067e-20)
(1.40695 -0.00835299 -2.95917e-19)
(1.41646 -0.00997705 9.30964e-20)
(-0.00982155 0.00670395 -5.72809e-19)
(-0.00537683 0.0102939 5.98014e-19)
(0.0210428 0.00985073 -3.79393e-19)
(0.0662742 0.00688969 -1.18807e-19)
(0.127864 0.00278199 -2.65063e-19)
(0.203528 -0.00141144 4.68803e-19)
(0.29087 -0.00501421 -2.72842e-19)
(0.387296 -0.00763103 -1.25131e-19)
(0.49 -0.00908005 -3.58216e-19)
(0.596029 -0.00934975 9.21602e-21)
(0.702408 -0.0085595 -1.39751e-19)
(0.806308 -0.00691995 6.75347e-20)
(0.905205 -0.00469418 -7.11756e-19)
(0.997019 -0.00216172 2.02911e-19)
(1.08021 0.000411955 -2.42105e-19)
(1.15378 0.00279808 -1.92665e-19)
(1.21732 0.00481854 5.87949e-20)
(1.27086 0.00635139 -2.75851e-19)
(1.31486 0.00732927 -1.13796e-19)
(1.35004 0.00773293 3.34726e-19)
(1.37733 0.00758155 1.3624e-19)
(1.39776 0.00692226 -5.81693e-19)
(1.41235 0.00582862 4.19867e-19)
(1.42209 0.00439133 -7.85875e-20)
(1.42758 0.00259349 -1.57058e-19)
(-0.00771592 0.00526773 -2.0904e-19)
(0.00267727 0.00659806 -1.11766e-19)
(0.0365976 0.00490519 -2.25131e-20)
(0.0904403 0.00146691 1.63121e-19)
(0.16132 -0.00245876 1.7795e-19)
(0.246476 -0.00588915 1.55406e-19)
(0.342981 -0.00824106 1.92935e-19)
(0.447686 -0.00922797 2.94807e-19)
(0.557262 -0.00878942 4.50386e-19)
(0.668319 -0.00704206 4.45438e-19)
(0.77759 -0.0042301 2.34522e-19)
(0.882125 -0.000674601 -6.3007e-20)
(0.979466 0.00327472 1.61225e-20)
(1.06777 0.0072809 -1.91716e-20)
(1.14583 0.011051 1.84028e-19)
(1.21312 0.0143556 -4.58543e-20)
(1.26964 0.0170369 5.29201e-19)
(1.31587 0.0190069 -2.3893e-19)
(1.35263 0.0202392 2.06902e-21)
(1.38094 0.0207564 1.5799e-19)
(1.40194 0.0206163 -3.48089e-19)
(1.41678 0.0198994 5.65659e-19)
(1.42656 0.0187065 -4.54493e-19)
(1.43226 0.0171266 7.96371e-20)
(1.43448 0.0150916 -2.83544e-19)
(-0.00511755 0.003763 4.48506e-19)
(0.0121292 0.00285323 3.02135e-19)
(0.0543463 8.29084e-05 -1.93851e-19)
(0.117452 -0.00355264 8.56077e-19)
(0.198067 -0.00694493 -7.41474e-19)
(0.292882 -0.00922549 1.56815e-19)
(0.398369 -0.00994305 -1.17618e-19)
(0.510788 -0.00895829 -5.19005e-19)
(0.626288 -0.00636592 -5.35966e-20)
(0.741097 -0.00243507 -4.17564e-19)
(0.851757 0.00245364 9.21133e-21)
(0.955335 0.00787106 -4.3038e-19)
(1.04958 0.0133952 -3.02115e-19)
(1.13302 0.0186543 4.14644e-19)