/*--------------------------------*- C++ -*----------------------------------*\
  =========                 |
  \\      /  F ield         | OpenFOAM: The Open Source CFD Toolbox
   \\    /   O peration     | Website:  https://openfoam.org
    \\  /    A nd           | Version:  6.0
     \\/     M anipulation  |
\*---------------------------------------------------------------------------*/
FoamFile
{
    version     2.0;
    format      ascii;
    class       volScalarField;
    location    "43";
    object      p;
}
// * * * * * * * * * * * * * * * * * * * * * * * * * * * * * * * * * * * * * //

dimensions      [0 2 -2 0 0 0 0];

internalField   nonuniform List<scalar> 
4000
(
-0.24356
-0.24445
-0.245037
-0.245465
-0.245821
-0.246119
-0.246371
-0.246588
-0.246779
-0.24695
-0.247107
-0.247254
-0.247395
-0.247534
-0.247676
-0.247829
-0.247996
-0.248126
-0.248191
-0.248727
-0.243728
-0.244614
-0.245197
-0.245621
-0.245972
-0.246264
-0.246511
-0.246722
-0.246908
-0.247075
-0.247227
-0.24737
-0.247507
-0.247643
-0.247782
-0.247934
-0.248101
-0.248232
-0.248299
-0.248839
-0.243993
-0.244873
-0.24545
-0.245865
-0.246207
-0.246489
-0.246724
-0.246924
-0.247098
-0.247252
-0.247392
-0.247522
-0.247648
-0.247772
-0.247901
-0.248044
-0.248204
-0.248329
-0.24839
-0.248931
-0.244353
-0.245228
-0.245796
-0.2462
-0.246527
-0.246793
-0.24701
-0.247191
-0.247345
-0.247479
-0.247598
-0.247708
-0.247813
-0.247917
-0.248027
-0.248152
-0.248296
-0.248408
-0.248455
-0.248992
-0.244811
-0.245679
-0.246237
-0.246624
-0.246932
-0.247175
-0.247367
-0.247522
-0.247649
-0.247754
-0.247843
-0.247922
-0.247996
-0.24807
-0.24815
-0.248247
-0.248367
-0.248457
-0.24848
-0.249009
-0.245369
-0.24623
-0.246773
-0.24714
-0.247423
-0.247637
-0.247797
-0.247917
-0.248008
-0.248074
-0.248124
-0.248162
-0.248194
-0.248225
-0.248263
-0.24832
-0.248404
-0.248461
-0.24845
-0.248964
-0.24603
-0.246882
-0.247407
-0.247749
-0.248
-0.248178
-0.248299
-0.248377
-0.248421
-0.24844
-0.248438
-0.248423
-0.2484
-0.248375
-0.248356
-0.248359
-0.248392
-0.248403
-0.248346
-0.248838
-0.246799
-0.247639
-0.248143
-0.248454
-0.248668
-0.248803
-0.248876
-0.248902
-0.248892
-0.248851
-0.248787
-0.248706
-0.248613
-0.248516
-0.248424
-0.248355
-0.24832
-0.248267
-0.248147
-0.248609
-0.247682
-0.248508
-0.248985
-0.249259
-0.249428
-0.249512
-0.24953
-0.249496
-0.249422
-0.249312
-0.249174
-0.249013
-0.248835
-0.248648
-0.248464
-0.248301
-0.248176
-0.248037
-0.247834
-0.248255
-0.248688
-0.249493
-0.249937
-0.250168
-0.250285
-0.250311
-0.250266
-0.250165
-0.250017
-0.249829
-0.249605
-0.249351
-0.249073
-0.248777
-0.248478
-0.248197
-0.247954
-0.247701
-0.247385
-0.24775
-0.249827
-0.250604
-0.251006
-0.251186
-0.251243
-0.251204
-0.251088
-0.250912
-0.250684
-0.250409
-0.250091
-0.249732
-0.249338
-0.248915
-0.248476
-0.248048
-0.247655
-0.247249
-0.246783
-0.247067
-0.251108
-0.251846
-0.252199
-0.252317
-0.252306
-0.252194
-0.252001
-0.251744
-0.25143
-0.251063
-0.250643
-0.250171
-0.249647
-0.249079
-0.248477
-0.247869
-0.247285
-0.24668
-0.246008
-0.246174
-0.252544
-0.25323
-0.25352
-0.253568
-0.253479
-0.253285
-0.253009
-0.252665
-0.252262
-0.251799
-0.251273
-0.250682
-0.250021
-0.249292
-0.248505
-0.247685
-0.246865
-0.246
-0.245048
-0.245038
-0.254144
-0.254763
-0.254978
-0.254942
-0.254764
-0.254479
-0.254112
-0.253677
-0.253181
-0.25262
-0.251989
-0.251277
-0.250475
-0.249578
-0.248587
-0.247525
-0.246422
-0.245227
-0.243894
-0.243618
-0.255922
-0.256455
-0.256579
-0.256445
-0.256165
-0.255777
-0.255309
-0.254776
-0.254183
-0.253525
-0.252789
-0.251959
-0.251019
-0.249952
-0.248749
-0.24742
-0.245989
-0.244389
-0.242548
-0.241869
-0.257888
-0.258316
-0.258331
-0.258081
-0.257681
-0.257175
-0.256594
-0.255955
-0.25526
-0.2545
-0.253661
-0.252719
-0.251647
-0.250417
-0.249002
-0.247396
-0.245607
-0.243532
-0.241042
-0.239765
-0.260058
-0.260358
-0.260242
-0.259856
-0.259316
-0.258673
-0.257962
-0.257202
-0.256394
-0.255528
-0.254584
-0.253533
-0.252339
-0.25096
-0.24935
-0.24748
-0.245331
-0.242755
-0.2395
-0.237372
-0.262447
-0.262596
-0.262325
-0.261778
-0.261073
-0.26027
-0.259408
-0.258508
-0.257571
-0.256588
-0.255535
-0.254378
-0.253073
-0.251566
-0.249792
-0.247689
-0.245206
-0.242136
-0.238007
-0.234623
-0.265077
-0.26505
-0.264596
-0.26386
-0.262962
-0.261971
-0.260932
-0.259869
-0.258785
-0.257671
-0.256503
-0.255247
-0.253857
-0.25227
-0.250404
-0.248159
-0.245415
-0.241821
-0.236495
-0.231063
-0.267975
-0.267742
-0.267077
-0.26612
-0.264998
-0.26379
-0.262546
-0.261295
-0.260044
-0.258787
-0.257507
-0.256178
-0.254769
-0.25324
-0.25154
-0.249604
-0.247318
-0.244219
-0.239069
-0.233045
-0.271175
-0.270705
-0.269795
-0.268586
-0.267208
-0.265751
-0.264275
-0.262812
-0.261376
-0.259968
-0.258581
-0.257212
-0.255864
-0.254562
-0.253376
-0.252456
-0.252085
-0.252721
-0.256023
-0.269052
-0.274722
-0.273977
-0.272787
-0.271291
-0.269626
-0.267893
-0.26616
-0.264466
-0.26283
-0.261262
-0.25977
-0.258371
-0.257099
-0.25603
-0.255297
-0.255142
-0.255955
-0.258316
-0.263492
-0.276269
-0.278667
-0.277603
-0.276094
-0.27428
-0.272298
-0.270264
-0.268254
-0.266314
-0.26447
-0.262741
-0.261146
-0.259719
-0.258519
-0.257646
-0.257261
-0.257607
-0.259036
-0.261995
-0.267123
-0.27711
-0.283065
-0.281632
-0.279767
-0.277602
-0.275277
-0.272922
-0.270622
-0.268427
-0.26637
-0.264476
-0.262774
-0.261308
-0.260146
-0.259393
-0.259197
-0.25976
-0.261332
-0.264185
-0.268593
-0.2758
-0.287977
-0.286118
-0.283855
-0.28131
-0.27862
-0.275929
-0.273327
-0.270871
-0.268595
-0.266529
-0.264702
-0.263161
-0.261969
-0.261216
-0.261018
-0.261511
-0.262839
-0.265121
-0.26845
-0.273109
-0.293461
-0.291114
-0.288412
-0.28546
-0.282386
-0.279346
-0.276435
-0.273709
-0.271202
-0.26894
-0.266951
-0.265271
-0.26395
-0.263054
-0.262656
-0.262832
-0.263642
-0.265109
-0.26725
-0.269834
-0.299572
-0.29667
-0.293489
-0.290106
-0.286633
-0.283232
-0.280001
-0.27699
-0.274226
-0.271727
-0.269511
-0.2676
-0.266027
-0.264829
-0.264045
-0.263706
-0.263822
-0.264366
-0.26533
-0.266288
-0.306357
-0.302831
-0.299133
-0.295298
-0.29141
-0.287636
-0.284067
-0.280742
-0.277676
-0.274874
-0.27234
-0.270082
-0.268114
-0.266455
-0.26512
-0.264115
-0.263429
-0.263027
-0.26289
-0.262601
-0.31385
-0.309633
-0.305384
-0.301078
-0.296761
-0.292595
-0.288658
-0.284972
-0.281535
-0.278335
-0.275364
-0.27262
-0.270108
-0.267835
-0.265809
-0.264029
-0.262485
-0.26115
-0.260005
-0.258726
-0.322071
-0.317099
-0.312269
-0.307478
-0.302714
-0.298126
-0.293774
-0.289655
-0.285747
-0.282027
-0.278479
-0.275098
-0.27189
-0.268866
-0.266038
-0.263412
-0.260985
-0.258748
-0.256682
-0.254571
-0.331019
-0.325238
-0.319803
-0.314512
-0.309276
-0.304223
-0.299384
-0.29473
-0.290224
-0.285836
-0.281554
-0.277383
-0.273342
-0.269453
-0.265742
-0.262226
-0.258915
-0.255813
-0.252898
-0.250043
-0.340671
-0.334036
-0.327981
-0.322173
-0.31643
-0.310846
-0.30542
-0.300099
-0.294838
-0.289617
-0.284441
-0.279337
-0.274346
-0.269509
-0.264865
-0.260445
-0.256264
-0.252334
-0.248628
-0.245081
-0.350978
-0.343458
-0.336772
-0.330426
-0.324125
-0.317917
-0.311771
-0.305622
-0.299433
-0.293209
-0.286987
-0.280827
-0.274797
-0.268959
-0.263363
-0.258045
-0.253023
-0.248307
-0.243861
-0.239659
-0.361856
-0.353437
-0.346114
-0.339203
-0.332268
-0.325315
-0.318288
-0.311127
-0.303827
-0.296435
-0.289036
-0.281728
-0.274605
-0.267744
-0.261202
-0.255011
-0.249187
-0.243731
-0.238592
-0.233772
-0.37319
-0.363873
-0.355911
-0.348391
-0.340725
-0.332873
-0.324778
-0.316411
-0.307821
-0.299119
-0.290442
-0.281928
-0.273691
-0.265815
-0.258354
-0.251331
-0.244752
-0.238605
-0.232822
-0.227427
-0.384822
-0.374628
-0.366026
-0.357837
-0.349312
-0.340382
-0.331018
-0.321252
-0.311213
-0.301089
-0.291072
-0.281329
-0.271987
-0.263128
-0.254791
-0.246988
-0.239708
-0.232924
-0.226547
-0.220626
-0.396556
-0.385525
-0.376276
-0.367338
-0.357801
-0.347596
-0.336758
-0.325416
-0.313803
-0.302184
-0.290801
-0.279842
-0.269433
-0.259639
-0.250486
-0.241961
-0.234039
-0.226675
-0.219758
-0.213368
-0.408158
-0.396343
-0.386437
-0.376648
-0.365925
-0.354239
-0.341734
-0.328672
-0.315399
-0.302255
-0.289521
-0.277388
-0.265968
-0.255307
-0.245403
-0.236223
-0.227723
-0.219839
-0.212438
-0.205642
-0.419352
-0.406823
-0.396238
-0.385477
-0.373382
-0.360016
-0.345681
-0.330795
-0.315822
-0.301168
-0.28713
-0.273891
-0.261537
-0.250085
-0.239504
-0.22974
-0.220729
-0.212389
-0.204564
-0.197426
-0.42983
-0.416668
-0.405375
-0.393505
-0.379849
-0.364625
-0.348337
-0.331574
-0.314911
-0.298798
-0.283535
-0.269279
-0.256081
-0.243923
-0.232747
-0.222473
-0.213022
-0.204291
-0.196106
-0.188696
-0.428123
-0.414978
-0.4037
-0.391849
-0.37822
-0.363028
-0.346776
-0.33005
-0.313421
-0.297341
-0.282108
-0.267877
-0.254702
-0.242565
-0.231406
-0.221148
-0.21171
-0.202991
-0.194817
-0.187416
-0.417669
-0.405156
-0.394585
-0.38384
-0.371767
-0.358428
-0.344124
-0.329271
-0.31433
-0.299705
-0.285694
-0.27248
-0.260147
-0.248714
-0.23815
-0.2284
-0.219401
-0.211072
-0.203257
-0.196128
-0.406501
-0.394702
-0.384808
-0.375034
-0.364329
-0.352665
-0.340187
-0.327152
-0.313906
-0.30079
-0.28808
-0.27597
-0.26457
-0.253926
-0.244037
-0.23487
-0.226381
-0.218507
-0.211115
-0.204326
-0.394927
-0.383911
-0.374675
-0.36575
-0.356227
-0.34604
-0.335223
-0.323904
-0.312315
-0.300719
-0.289358
-0.278419
-0.268027
-0.258249
-0.249109
-0.240597
-0.232685
-0.225329
-0.218419
-0.212035
-0.383222
-0.373044
-0.364454
-0.356276
-0.347763
-0.338847
-0.329499
-0.319751
-0.309732
-0.299627
-0.289628
-0.279903
-0.270577
-0.261731
-0.253406
-0.245613
-0.238342
-0.231565
-0.225193
-0.219278
-0.371621
-0.36232
-0.35437
-0.34686
-0.339203
-0.331362
-0.323279
-0.314926
-0.30635
-0.297663
-0.289002
-0.280502
-0.272278
-0.264413
-0.256962
-0.249948
-0.243375
-0.237234
-0.231455
-0.226064
-0.360319
-0.351915
-0.344603
-0.337701
-0.330775
-0.32383
-0.316812
-0.309661
-0.30237
-0.294989
-0.287601
-0.280304
-0.273191
-0.266339
-0.259805
-0.25362
-0.247802
-0.24235
-0.237214
-0.232396
-0.349472
-0.341966
-0.335291
-0.328955
-0.322661
-0.31646
-0.31032
-0.304177
-0.297994
-0.291776
-0.285561
-0.279408
-0.273385
-0.267553
-0.261962
-0.256648
-0.25163
-0.246917
-0.242472
-0.238271
-0.339197
-0.332575
-0.326531
-0.320731
-0.314996
-0.309418
-0.303995
-0.298678
-0.29342
-0.288202
-0.283028
-0.277927
-0.272938
-0.268104
-0.263463
-0.259044
-0.254865
-0.250936
-0.247231
-0.243683
-0.329574
-0.323805
-0.318382
-0.313099
-0.307871
-0.302824
-0.297988
-0.293336
-0.288829
-0.28444
-0.280156
-0.275984
-0.271941
-0.268052
-0.26434
-0.260824
-0.257513
-0.254409
-0.251494
-0.248636
-0.320655
-0.315695
-0.310875
-0.306094
-0.301338
-0.296756
-0.292407
-0.288288
-0.284378
-0.280653
-0.2771
-0.273713
-0.270499
-0.267471
-0.264638
-0.262009
-0.25958
-0.257342
-0.255274
-0.25316
-0.312461
-0.308254
-0.304016
-0.299721
-0.295413
-0.291253
-0.287319
-0.283633
-0.280192
-0.276985
-0.274006
-0.271252
-0.268729
-0.266447
-0.264413
-0.262628
-0.26108
-0.259742
-0.258595
-0.257313
-0.304993
-0.301476
-0.297789
-0.293965
-0.290087
-0.286321
-0.282756
-0.279431
-0.27636
-0.273549
-0.271003
-0.268732
-0.26675
-0.265078
-0.263731
-0.262717
-0.262025
-0.261619
-0.26148
-0.261191
-0.298229
-0.295335
-0.292166
-0.288796
-0.285334
-0.281942
-0.278716
-0.275705
-0.272936
-0.270427
-0.268197
-0.266269
-0.264678
-0.263463
-0.262664
-0.262313
-0.26242
-0.26296
-0.263923
-0.264886
-0.292136
-0.289797
-0.287107
-0.284169
-0.281108
-0.278078
-0.275174
-0.272449
-0.269937
-0.267664
-0.265659
-0.263959
-0.262617
-0.261699
-0.261282
-0.261443
-0.262243
-0.263706
-0.265848
-0.268443
-0.286665
-0.284815
-0.282565
-0.280035
-0.27736
-0.27468
-0.272087
-0.269632
-0.267352
-0.265273
-0.26343
-0.261867
-0.260651
-0.259873
-0.259652
-0.260126
-0.261442
-0.263719
-0.267052
-0.27173
-0.281762
-0.28034
-0.278488
-0.27634
-0.274031
-0.27169
-0.269398
-0.267205
-0.265144
-0.263238
-0.261518
-0.260029
-0.25884
-0.258059
-0.257837
-0.258378
-0.259935
-0.262783
-0.267198
-0.274433
-0.277368
-0.276317
-0.274824
-0.273028
-0.271063
-0.269043
-0.267043
-0.265106
-0.263258
-0.261516
-0.259903
-0.258451
-0.257222
-0.256318
-0.255904
-0.256225
-0.257638
-0.260593
-0.265732
-0.275756
-0.273424
-0.272694
-0.271521
-0.270045
-0.268397
-0.26668
-0.264957
-0.263266
-0.261626
-0.260046
-0.258535
-0.25711
-0.255808
-0.254705
-0.253942
-0.25376
-0.254556
-0.256915
-0.26211
-0.274936
-0.269873
-0.269423
-0.268532
-0.267342
-0.265983
-0.264542
-0.263076
-0.261617
-0.260177
-0.258756
-0.25735
-0.255954
-0.254575
-0.25324
-0.252021
-0.251074
-0.250687
-0.251323
-0.254658
-0.26775
-0.266667
-0.266458
-0.265814
-0.264878
-0.263775
-0.262582
-0.261349
-0.260101
-0.258846
-0.257577
-0.256277
-0.254921
-0.253481
-0.251918
-0.250185
-0.248221
-0.245917
-0.242814
-0.237682
-0.231701
-0.263763
-0.263764
-0.263334
-0.262618
-0.261739
-0.260764
-0.259735
-0.258674
-0.257586
-0.25646
-0.255272
-0.25399
-0.252569
-0.250948
-0.249049
-0.246776
-0.244014
-0.240415
-0.235099
-0.22969
-0.261127
-0.26131
-0.261064
-0.260538
-0.259851
-0.259063
-0.25821
-0.257312
-0.256371
-0.255375
-0.254303
-0.25312
-0.251784
-0.250244
-0.248436
-0.246301
-0.243793
-0.240703
-0.236562
-0.233165
-0.258736
-0.259074
-0.258984
-0.25862
-0.258098
-0.257469
-0.256766
-0.256007
-0.255193
-0.254315
-0.253351
-0.252274
-0.251049
-0.249635
-0.247989
-0.246081
-0.243896
-0.241283
-0.237986
-0.235811
-0.256568
-0.257038
-0.257081
-0.256853
-0.25647
-0.255977
-0.255403
-0.254763
-0.254061
-0.253289
-0.252429
-0.25146
-0.250356
-0.249088
-0.247633
-0.245983
-0.244146
-0.242016
-0.239459
-0.238106
-0.254611
-0.25519
-0.255343
-0.255231
-0.254967
-0.25459
-0.254127
-0.253593
-0.252993
-0.252319
-0.251561
-0.250703
-0.249729
-0.248622
-0.247373
-0.245992
-0.244503
-0.242832
-0.240906
-0.240131
-0.252851
-0.253518
-0.253764
-0.253749
-0.253586
-0.253311
-0.252947
-0.25251
-0.252003
-0.251426
-0.250771
-0.250029
-0.249191
-0.24825
-0.247209
-0.246087
-0.244916
-0.24364
-0.242208
-0.241824
-0.251278
-0.252015
-0.252336
-0.252404
-0.252329
-0.252143
-0.251869
-0.251521
-0.251106
-0.250625
-0.250074
-0.24945
-0.248749
-0.247974
-0.247131
-0.246246
-0.245351
-0.244396
-0.243338
-0.243213
-0.249881
-0.250671
-0.251054
-0.251192
-0.251194
-0.251088
-0.250896
-0.250632
-0.250306
-0.249918
-0.249471
-0.248964
-0.248399
-0.24778
-0.247119
-0.246442
-0.245778
-0.245079
-0.244297
-0.244345
-0.248651
-0.249479
-0.249912
-0.250109
-0.250178
-0.250144
-0.250028
-0.249844
-0.249601
-0.249305
-0.248958
-0.248563
-0.248124
-0.247649
-0.24715
-0.24665
-0.246174
-0.245672
-0.245095
-0.245261
-0.247575
-0.248431
-0.248904
-0.249151
-0.249279
-0.249309
-0.249261
-0.249151
-0.248987
-0.248777
-0.248524
-0.248233
-0.247909
-0.247561
-0.247199
-0.246847
-0.246522
-0.246172
-0.245749
-0.245998
-0.246645
-0.247519
-0.248023
-0.248313
-0.248491
-0.248578
-0.248593
-0.248549
-0.248458
-0.248326
-0.248158
-0.247959
-0.247737
-0.247498
-0.247253
-0.24702
-0.246814
-0.246582
-0.246275
-0.246586
-0.24585
-0.246736
-0.247264
-0.24759
-0.247811
-0.247948
-0.248017
-0.248033
-0.248006
-0.247943
-0.24785
-0.247733
-0.247597
-0.247449
-0.247299
-0.247163
-0.247051
-0.246911
-0.246694
-0.247052
-0.245181
-0.246074
-0.246622
-0.246976
-0.247234
-0.247413
-0.247529
-0.247597
-0.247625
-0.247622
-0.247594
-0.247545
-0.247481
-0.247409
-0.247337
-0.247278
-0.24724
-0.247171
-0.247025
-0.247422
-0.244631
-0.245528
-0.246091
-0.246469
-0.246756
-0.246971
-0.247127
-0.247237
-0.247313
-0.24736
-0.247385
-0.247392
-0.247388
-0.247377
-0.247366
-0.247368
-0.247389
-0.247375
-0.247286
-0.247715
-0.244193
-0.245092
-0.245666
-0.246062
-0.246374
-0.246617
-0.246805
-0.246952
-0.247065
-0.247153
-0.247221
-0.247274
-0.247317
-0.247355
-0.247393
-0.247443
-0.247509
-0.247539
-0.247495
-0.247952
-0.243864
-0.244763
-0.245345
-0.245755
-0.246085
-0.246351
-0.246564
-0.246738
-0.246882
-0.247002
-0.247103
-0.247192
-0.247271
-0.247346
-0.247423
-0.24751
-0.247611
-0.247675
-0.247668
-0.248148
-0.243638
-0.244536
-0.245123
-0.245543
-0.245887
-0.246169
-0.246401
-0.246596
-0.246762
-0.246905
-0.247032
-0.247147
-0.247254
-0.247357
-0.247462
-0.247577
-0.247705
-0.247795
-0.247816
-0.248315
-0.243514
-0.24441
-0.244999
-0.245426
-0.245778
-0.24607
-0.246315
-0.246523
-0.246705
-0.246865
-0.247009
-0.247142
-0.247268
-0.247391
-0.247515
-0.24765
-0.247798
-0.247907
-0.24795
-0.248464
-0.243488
-0.244381
-0.244971
-0.2454
-0.245756
-0.246054
-0.246305
-0.246521
-0.246711
-0.24688
-0.247034
-0.247177
-0.247315
-0.247449
-0.247586
-0.247734
-0.247895
-0.248017
-0.248074
-0.248601
-0.267644
-0.254827
-0.285858
-0.294575
-0.252743
-0.183548
-0.117969
-0.0742699
-0.0436828
-0.0185762
-0.00666826
0.00439375
0.00808322
0.0110152
0.010063
0.00965302
0.00810752
0.00685276
0.00406105
0.00288644
-0.267984
-0.255744
-0.286645
-0.293669
-0.250228
-0.181273
-0.117188
-0.0750683
-0.0453539
-0.0201349
-0.00763046
0.00400535
0.00834437
0.0115925
0.0107246
0.0103063
0.00843431
0.00705037
0.00398934
0.00269938
-0.268417
-0.256697
-0.287512
-0.293017
-0.248031
-0.179241
-0.116556
-0.0759406
-0.0470565
-0.0216815
-0.00858551
0.00361314
0.00858815
0.0121453
0.0113736
0.0109511
0.00875731
0.00724306
0.0039167
0.00250856
-0.268925
-0.257668
-0.288442
-0.292619
-0.246177
-0.177487
-0.116091
-0.0768809
-0.0487736
-0.0232013
-0.0095242
0.00322143
0.00881253
0.0126675
0.0120028
0.0115786
0.0090717
0.00742703
0.00384267
0.00231603
-0.269483
-0.258637
-0.289409
-0.29246
-0.244679
-0.176034
-0.115808
-0.0778836
-0.0504907
-0.0246839
-0.0104401
0.00283248
0.00901481
0.0131533
0.0126051
0.0121804
0.00937267
0.00759861
0.00376674
0.00212373
-0.270062
-0.259582
-0.290385
-0.292513
-0.243536
-0.174897
-0.115717
-0.0789436
-0.0521956
-0.026123
-0.0113297
0.00244648
0.00919163
0.013597
0.0131736
0.0127481
0.0096556
0.00775438
0.00368847
0.00193351
-0.270632
-0.26048
-0.291334
-0.292744
-0.242734
-0.174079
-0.115827
-0.0800555
-0.0538785
-0.027516
-0.0121917
0.00206179
0.00933923
0.0139939
0.013702
0.0132747
0.00991633
0.00789131
0.00360757
0.00174703
-0.27116
-0.261311
-0.292224
-0.293111
-0.242251
-0.173577
-0.116138
-0.0812139
-0.0555317
-0.0288633
-0.0130274
0.00167523
0.00945357
0.0143396
0.0141847
0.0137539
0.0101513
0.00800691
0.00352392
0.00156578
-0.271615
-0.262053
-0.293021
-0.293569
-0.242057
-0.17338
-0.116647
-0.0824128
-0.0571491
-0.0301677
-0.0138394
0.00128255
0.00953063
0.0146309
0.014617
0.0141809
0.0103577
0.00809928
0.00343762
0.00139102
-0.27197
-0.262689
-0.293693
-0.294076
-0.242119
-0.173472
-0.117349
-0.0836461
-0.0587259
-0.0314332
-0.0146316
0.000878903
0.00956656
0.0148651
0.0149953
0.0145522
0.0105334
0.00816717
0.00334903
0.0012238
-0.2722
-0.263203
-0.294215
-0.294588
-0.242404
-0.173835
-0.118234
-0.0849073
-0.0602582
-0.0326646
-0.0154081
0.000459289
0.00955797
0.0150408
0.0153168
0.0148659
0.0106774
0.00820999
0.00325869
0.00106493
-0.272286
-0.263585
-0.29456
-0.295067
-0.242878
-0.17445
-0.119289
-0.0861899
-0.0617432
-0.033867
-0.0161735
1.89407e-05
0.00950206
0.0151571
0.0155801
0.0151212
0.0107891
0.00822775
0.00316739
0.000915033
-0.272214
-0.263826
-0.294709
-0.295478
-0.243508
-0.175296
-0.120504
-0.0874882
-0.0631788
-0.0350454
-0.0169323
-0.000446511
0.00939667
0.015214
0.0157844
0.0153187
0.0108691
0.00822107
0.00307605
0.000774504
-0.271976
-0.26392
-0.294644
-0.295788
-0.244266
-0.176358
-0.121867
-0.0887977
-0.064564
-0.0362044
-0.0176884
-0.000940767
0.00924032
0.0152124
0.0159301
0.01546
0.0109182
0.00819103
0.00298575
0.000643557
-0.271562
-0.263857
-0.294343
-0.295958
-0.245113
-0.17761
-0.123362
-0.0901122
-0.0658943
-0.0373452
-0.0184428
-0.00146545
0.00903265
0.0151535
0.016018
0.0155475
0.010938
0.00813901
0.00289763
0.000522251
-0.270958
-0.263627
-0.293792
-0.295946
-0.245989
-0.179007
-0.124961
-0.0914175
-0.0671585
-0.0384616
-0.0191917
-0.00201832
0.00877562
0.0150398
0.0160498
0.015584
0.0109302
0.00806653
0.00281275
0.000410505
-0.270192
-0.263255
-0.293
-0.295753
-0.246891
-0.180536
-0.126649
-0.0927101
-0.0683659
-0.0395596
-0.0199416
-0.00260031
0.00847175
0.0148756
0.0160293
0.015574
0.010897
0.00797612
0.00273162
0.000307961
-0.269332
-0.262851
-0.291991
-0.295497
-0.248061
-0.182402
-0.128556
-0.0940723
-0.069614
-0.0407129
-0.0207479
-0.00324042
0.00811209
0.014663
0.015963
0.0155262
0.0108424
0.00787275
0.00265459
0.000213776
-0.267788
-0.262216
-0.290574
-0.295079
-0.249623
-0.184839
-0.130883
-0.0956339
-0.0709761
-0.0420015
-0.0216583
-0.00398155
0.00766967
0.0143903
0.0158477
0.0154433
0.010772
0.00775815
0.00258597
0.000127786
-0.263362
-0.260115
-0.288237
-0.293189
-0.249726
-0.186466
-0.132842
-0.0969249
-0.0718273
-0.0430016
-0.0223387
-0.00466877
0.00718232
0.0140392
0.0156438
0.0152842
0.0106771
0.00760533
0.0025386
5.44752e-05
-0.222969
-0.238049
-0.270662
-0.273367
-0.237933
-0.186137
-0.138151
-0.100518
-0.0718388
-0.0454657
-0.0238152
-0.00760489
0.00438789
0.0115903
0.0138494
0.0137927
0.00994499
0.00642664
0.00241455
-0.00026051
-0.183392
-0.215809
-0.237668
-0.236367
-0.212106
-0.176388
-0.137926
-0.100774
-0.0695224
-0.0446194
-0.0249719
-0.011452
-0.00120297
0.00554815
0.00827624
0.00885309
0.00659382
0.00407729
0.00173171
-0.000232518
-0.165166
-0.189627
-0.203538
-0.201589
-0.184358
-0.157846
-0.126932
-0.0948557
-0.0660284
-0.0435368
-0.0269883
-0.0156365
-0.00716846
-0.000902425
0.00250288
0.0039325
0.0034764
0.0023232
0.0012091
4.45002e-05
-0.137745
-0.16154
-0.171542
-0.169913
-0.15678
-0.136071
-0.112564
-0.0883052
-0.0649249
-0.0451739
-0.0302478
-0.01971
-0.0119307
-0.00583043
-0.00188467
0.000215157
0.000915252
0.000767802
0.000432702
-1.73121e-05
-0.114724
-0.13587
-0.144421
-0.143273
-0.13331
-0.117963
-0.101345
-0.0838971
-0.0650763
-0.0471419
-0.0328294
-0.022676
-0.015382
-0.00965504
-0.00554185
-0.00300756
-0.0015434
-0.000836493
-0.000401811
-0.000160836
-0.095449
-0.114113
-0.122015
-0.121829
-0.115207
-0.10473
-0.0928706
-0.0794383
-0.0637501
-0.0477861
-0.0345167
-0.0249288
-0.0180217
-0.0125723
-0.00835167
-0.00544225
-0.0034345
-0.00205902
-0.00100899
-0.000241722
-0.0803558
-0.0964101
-0.104026
-0.105217
-0.101552
-0.0944209
-0.0851609
-0.0741093
-0.0611896
-0.0476525
-0.0357446
-0.0266559
-0.0199315
-0.0146355
-0.0103969
-0.00728283
-0.00496317
-0.00315413
-0.00167681
-0.000499006
-0.0685995
-0.0823875
-0.0898142
-0.0921858
-0.0904658
-0.0853281
-0.077811
-0.0687631
-0.0583189
-0.0469853
-0.0363454
-0.0277632
-0.0212791
-0.0161996
-0.0120624
-0.00885067
-0.00630704
-0.00417035
-0.00230999
-0.000720998
-0.0594852
-0.0713768
-0.0784784
-0.0814899
-0.0808996
-0.077194
-0.0712729
-0.0639433
-0.0553488
-0.0457607
-0.0363858
-0.0285236
-0.0224127
-0.0175434
-0.0134665
-0.010137
-0.00738765
-0.00498976
-0.00282033
-0.000892329
-0.0523515
-0.0626412
-0.0692363
-0.0724833
-0.0726609
-0.0701682
-0.0656137
-0.0595808
-0.0523546
-0.0442713
-0.0361961
-0.0291263
-0.0233559
-0.0186067
-0.0145421
-0.0111217
-0.00822072
-0.00563811
-0.00323661
-0.00102874
-0.0466638
-0.0555893
-0.0616135
-0.0649303
-0.0656974
-0.0641534
-0.0606437
-0.0556444
-0.049588
-0.0428207
-0.03588
-0.0294868
-0.0240063
-0.0193768
-0.0153614
-0.0118972
-0.00887714
-0.00614389
-0.00355554
-0.00113527
-0.0420355
-0.0498217
-0.055323
-0.0586493
-0.0598372
-0.0589815
-0.0563046
-0.0522276
-0.0471786
-0.0414435
-0.0353843
-0.0295785
-0.0244203
-0.0199542
-0.0160031
-0.0124988
-0.00937324
-0.00651678
-0.00379914
-0.00123579
-0.0381862
-0.0450604
-0.0501316
-0.0534361
-0.0549126
-0.0545825
-0.0526098
-0.049322
-0.0450635
-0.0401042
-0.0347617
-0.0295101
-0.0246873
-0.0203766
-0.016472
-0.0129388
-0.00974396
-0.00680801
-0.00400751
-0.00132926
-0.0349142
-0.0410949
-0.0458438
-0.0491254
-0.0508206
-0.0509123
-0.0495058
-0.0468347
-0.0431888
-0.0388566
-0.0341241
-0.0293571
-0.0248238
-0.0206481
-0.0167986
-0.0132715
-0.0100423
-0.00705248
-0.004183
-0.0013995
-0.0320454
-0.0377659
-0.0423138
-0.0455994
-0.0474731
-0.0478882
-0.0469071
-0.0447146
-0.0415735
-0.0377627
-0.0335206
-0.0291378
-0.0248495
-0.0208133
-0.017041
-0.0135412
-0.0102866
-0.00724595
-0.0043123
-0.00144436
-0.0294753
-0.0349695
-0.0394457
-0.0427677
-0.04478
-0.0454291
-0.0447684
-0.0429618
-0.0402356
-0.0368346
-0.0329658
-0.0288882
-0.0248201
-0.0209226
-0.0172276
-0.0137541
-0.0104762
-0.00738658
-0.0043967
-0.00147257
-0.0271088
-0.0326492
-0.0371737
-0.040551
-0.0426624
-0.043482
-0.0430698
-0.0415683
-0.0391622
-0.0360714
-0.0324893
-0.0286583
-0.0247774
-0.0209941
-0.0173598
-0.0139074
-0.0106146
-0.00748441
-0.00444893
-0.00149107
-0.0249882
-0.0308066
-0.0354663
-0.0388995
-0.0410772
-0.0420213
-0.0417954
-0.0405188
-0.0383468
-0.0354882
-0.0321231
-0.0284782
-0.0247364
-0.021035
-0.0174438
-0.014007
-0.0107059
-0.00754951
-0.00448677
-0.00150844
-0.0232354
-0.0294917
-0.0343121
-0.0377861
-0.0400042
-0.0410313
-0.0409308
-0.0398054
-0.0377935
-0.0350944
-0.0318756
-0.0283534
-0.0247018
-0.021055
-0.01749
-0.0140607
-0.0107535
-0.00758781
-0.00451922
-0.00152487
-0.0221305
-0.02879
-0.0337198
-0.0372128
-0.0394502
-0.0405191
-0.0404829
-0.0394367
-0.0375095
-0.0348922
-0.0317469
-0.0282859
-0.0246801
-0.0210616
-0.0175081
-0.0140803
-0.0107692
-0.00760394
-0.00453962
-0.00153265
-0.149594
-0.159581
-0.169698
-0.180037
-0.190703
-0.20181
-0.213485
-0.225861
-0.239064
-0.253205
-0.268334
-0.284409
-0.301169
-0.318124
-0.334267
-0.348419
-0.35861
-0.364063
-0.362731
-0.359269
-0.0907523
-0.0941102
-0.0971506
-0.0998554
-0.102203
-0.104169
-0.105728
-0.106852
-0.107518
-0.107711
-0.107426
-0.1067
-0.105602
-0.10431
-0.103055
-0.102301
-0.102442
-0.104368
-0.108356
-0.116477
-0.067565
-0.0718394
-0.0761469
-0.080498
-0.0849036
-0.0893757
-0.0939262
-0.0985678
-0.103312
-0.108168
-0.113142
-0.118231
-0.123416
-0.12866
-0.13388
-0.138972
-0.143741
-0.148009
-0.151447
-0.153861
-0.0550246
-0.0579413
-0.0608141
-0.0636434
-0.0664293
-0.0691717
-0.0718701
-0.0745238
-0.0771317
-0.0796929
-0.0822071
-0.0846752
-0.0871011
-0.0894941
-0.0918714
-0.0942636
-0.0967211
-0.0993183
-0.102201
-0.105583
-0.0457402
-0.0481248
-0.0505113
-0.052902
-0.0552992
-0.0577053
-0.0601226
-0.0625533
-0.0649997
-0.0674642
-0.0699487
-0.0724548
-0.0749834
-0.0775338
-0.0801042
-0.0826867
-0.0852763
-0.0878471
-0.0904078
-0.0928935
-0.0401743
-0.0420603
-0.043943
-0.0458229
-0.0477006
-0.0495765
-0.0514514
-0.0533258
-0.0552004
-0.0570758
-0.0589529
-0.0608325
-0.0627158
-0.0646037
-0.066499
-0.0684025
-0.0703232
-0.0722589
-0.0742513
-0.0762888
-0.0357448
-0.0372667
-0.038789
-0.0403124
-0.0418372
-0.043364
-0.0448933
-0.0464257
-0.0479616
-0.0495016
-0.0510463
-0.0525961
-0.0541516
-0.0557129
-0.057281
-0.0588547
-0.0604378
-0.062023
-0.0636352
-0.0652441
-0.0324919
-0.0337372
-0.0349823
-0.0362274
-0.0374728
-0.0387184
-0.0399647
-0.0412116
-0.0424596
-0.0437088
-0.0449594
-0.0462117
-0.0474661
-0.0487227
-0.0499823
-0.0512441
-0.0525117
-0.0537799
-0.0550697
-0.0563572
-0.0298915
-0.030921
-0.0319503
-0.0329795
-0.0340088
-0.0350381
-0.0360677
-0.0370977
-0.038128
-0.0391589
-0.0401905
-0.0412228
-0.0422561
-0.0432901
-0.0443255
-0.0453615
-0.0464003
-0.0474378
-0.0484892
-0.0495346
-0.0278445
-0.0287037
-0.0295625
-0.0304212
-0.0312797
-0.032138
-0.0329961
-0.0338543
-0.0347123
-0.0355704
-0.0364284
-0.0372865
-0.0381447
-0.0390029
-0.0398613
-0.0407194
-0.0415788
-0.0424364
-0.0433035
-0.0441651
-0.0261742
-0.0268936
-0.0276131
-0.0283326
-0.0290522
-0.0297717
-0.0304914
-0.0312111
-0.0319309
-0.0326507
-0.0333706
-0.0340904
-0.0348103
-0.03553
-0.0362497
-0.0369689
-0.0376887
-0.0384069
-0.0391317
-0.0398526
-0.024781
-0.0253844
-0.0259884
-0.0265929
-0.0271981
-0.0278038
-0.0284101
-0.0290169
-0.0296242
-0.0302319
-0.03084
-0.0314483
-0.0320568
-0.0326653
-0.0332739
-0.0338822
-0.0344907
-0.0350981
-0.0357101
-0.0363203
-0.0235189
-0.0240237
-0.0245301
-0.0250381
-0.0255477
-0.0260588
-0.0265714
-0.0270854
-0.0276008
-0.0281173
-0.0286349
-0.0291535
-0.0296729
-0.0301929
-0.0307135
-0.0312343
-0.0317556
-0.0322764
-0.0328008
-0.0333255
-0.0223092
-0.0227312
-0.0231564
-0.0235846
-0.0240158
-0.0244498
-0.0248866
-0.025326
-0.0257677
-0.0262117
-0.0266577
-0.0271055
-0.0275547
-0.0280053
-0.028457
-0.0289094
-0.0293626
-0.0298159
-0.030272
-0.0307302
-0.0209121
-0.0212646
-0.0216227
-0.0219862
-0.022355
-0.0227288
-0.0231073
-0.0234902
-0.0238772
-0.024268
-0.0246622
-0.0250595
-0.0254595
-0.0258619
-0.0262663
-0.0266723
-0.0270799
-0.0274884
-0.0278996
-0.0283145
-0.0193036
-0.019605
-0.0199154
-0.0202343
-0.0205611
-0.0208954
-0.0212365
-0.021584
-0.0219372
-0.0222955
-0.0226585
-0.0230256
-0.0233961
-0.0237697
-0.0241459
-0.024524
-0.0249038
-0.025285
-0.0256681
-0.0260557
-0.0168197
-0.0171134
-0.01742
-0.0177386
-0.0180678
-0.0184068
-0.0187543
-0.0191096
-0.0194717
-0.0198396
-0.0202127
-0.02059
-0.0209709
-0.0213546
-0.0217406
-0.0221283
-0.0225171
-0.0229068
-0.0232972
-0.0236919
-0.0135672
-0.0139243
-0.0142942
-0.0146754
-0.0150662
-0.0154653
-0.0158715
-0.0162835
-0.0167003
-0.017121
-0.0175445
-0.0179702
-0.0183972
-0.0188249
-0.0192527
-0.01968
-0.0201063
-0.0205315
-0.0209548
-0.0213804
-0.00856072
-0.00918157
-0.00979671
-0.0104057
-0.0110082
-0.0116039
-0.0121926
-0.0127739
-0.0133479
-0.0139142
-0.0144729
-0.0150237
-0.0155668
-0.016102
-0.0166294
-0.0171489
-0.0176605
-0.0181647
-0.0186606
-0.0191527
-0.00305416
-0.00403593
-0.00498352
-0.00589882
-0.00678365
-0.00763968
-0.00846851
-0.00927164
-0.0100505
-0.0108063
-0.0115403
-0.0122537
-0.0129475
-0.0136228
-0.0142805
-0.0149214
-0.0155463
-0.0161564
-0.0167513
-0.0173356
-0.00292615
-0.00391007
-0.00485983
-0.00577733
-0.00666435
-0.0075226
-0.00835366
-0.00915902
-0.00994009
-0.0106982
-0.0114345
-0.0121501
-0.0128463
-0.0135238
-0.0141838
-0.014827
-0.0154542
-0.0160667
-0.0166639
-0.0172505
-0.00843095
-0.00905401
-0.00967139
-0.0102826
-0.0108874
-0.0114854
-0.0120763
-0.01266
-0.0132362
-0.0138049
-0.0143659
-0.0149191
-0.0154645
-0.0160021
-0.0165318
-0.0170537
-0.0175676
-0.0180742
-0.0185725
-0.0190669
-0.013434
-0.0137934
-0.0141657
-0.0145492
-0.0149423
-0.0153438
-0.0157524
-0.0161668
-0.016586
-0.0170091
-0.0174351
-0.0178632
-0.0182927
-0.0187228