/*--------------------------------*- C++ -*----------------------------------*\
  =========                 |
  \\      /  F ield         | OpenFOAM: The Open Source CFD Toolbox
   \\    /   O peration     | Website:  https://openfoam.org
    \\  /    A nd           | Version:  6.0
     \\/     M anipulation  |
\*---------------------------------------------------------------------------*/
FoamFile
{
    version     2.0;
    format      ascii;
    class       volVectorField;
    location    "21";
    object      U;
}
// * * * * * * * * * * * * * * * * * * * * * * * * * * * * * * * * * * * * * //

dimensions      [0 1 -1 0 0 0 0];

internalField   nonuniform List<vector> 
8000
(
(-0.000501045 0.000541572 -3.53737e-21)
(-0.00273067 0.00135734 1.89081e-20)
(-0.0068422 0.00194168 -2.29978e-20)
(-0.0118838 0.00234737 1.75125e-20)
(-0.017362 0.00261437 8.52811e-21)
(-0.0229997 0.00277533 -2.56091e-20)
(-0.0285995 0.00285835 -2.26358e-21)
(-0.0340344 0.00288729 -8.03433e-22)
(-0.0392345 0.00288235 -1.32935e-20)
(-0.0441713 0.00286054 -7.20221e-21)
(-0.0488464 0.00283609 5.37101e-21)
(-0.0532829 0.00282075 2.04203e-20)
(-0.0575187 0.00282395 -1.52903e-21)
(-0.0616012 0.00285299 2.18801e-21)
(-0.065583 0.00291314 -2.05688e-20)
(-0.0695229 0.00300765 1.26738e-20)
(-0.0734794 0.00313791 -1.81598e-20)
(-0.0774667 0.00330436 2.7481e-20)
(-0.0814426 0.00350724 -3.07903e-23)
(-0.0857204 0.00373953 5.93607e-21)
(-0.000587745 0.00168248 1.17469e-20)
(-0.00294001 0.00418904 -6.00319e-20)
(-0.00712623 0.00596046 -4.14638e-20)
(-0.0122053 0.00716665 -2.81587e-20)
(-0.0176904 0.00793671 -3.62248e-20)
(-0.0233091 0.00837542 7.97217e-21)
(-0.028868 0.00857185 -4.18174e-20)
(-0.0342428 0.00860094 -9.39267e-21)
(-0.0393654 0.00852542 2.96779e-21)
(-0.044209 0.00839767 3.12559e-20)
(-0.048776 0.00826123 -3.40954e-20)
(-0.0530906 0.00815184 4.74279e-20)
(-0.0571917 0.00809827 -3.55167e-20)
(-0.0611274 0.0081228 -4.21187e-20)
(-0.0649519 0.00824163 -5.80438e-20)
(-0.0687253 0.00846492 3.70683e-20)
(-0.0725081 0.00879726 -1.19897e-20)
(-0.0763161 0.00924037 -4.36591e-20)
(-0.0801066 0.0097955 4.12803e-20)
(-0.0841963 0.0104417 -3.06778e-20)
(-0.00076151 0.00280626 1.1483e-19)
(-0.00335985 0.00697808 5.94696e-20)
(-0.00769673 0.00991702 6.68804e-20)
(-0.012852 0.0119077 5.56509e-21)
(-0.0183525 0.0131668 3.6965e-20)
(-0.0239353 0.0138701 4.61366e-20)
(-0.0294146 0.0141666 -8.38407e-20)
(-0.0346715 0.0141816 -4.43993e-20)
(-0.0396423 0.0140198 -5.78235e-20)
(-0.0443026 0.0137685 6.1728e-20)
(-0.0486573 0.0135006 -4.71474e-20)
(-0.0527321 0.0132762 -6.06601e-20)
(-0.0565676 0.0131438 -2.20869e-20)
(-0.0602142 0.0131415 2.09836e-20)
(-0.0637283 0.0132975 -5.83437e-21)
(-0.0671731 0.0136298 8.41267e-21)
(-0.0706131 0.0141472 9.73706e-20)
(-0.0740672 0.0148537 -1.36704e-20)
(-0.0774926 0.0157523 -9.89867e-20)
(-0.0812127 0.0168079 1.30499e-19)
(-0.00102043 0.00390256 3.99527e-20)
(-0.00398608 0.00969823 -5.64355e-20)
(-0.00854883 0.0137728 -1.41569e-20)
(-0.0138192 0.0165218 2.64664e-20)
(-0.0193441 0.0182472 7.51518e-20)
(-0.0248753 0.0191939 1.64539e-19)
(-0.0302382 0.0195693 1.60777e-19)
(-0.0353225 0.0195474 1.33564e-20)
(-0.0400704 0.019274 9.85924e-20)
(-0.0444617 0.0188707 1.50908e-19)
(-0.0485043 0.0184397 -1.20585e-19)
(-0.0522264 0.0180655 1.78458e-19)
(-0.0556711 0.0178175 -4.04079e-20)
(-0.0588914 0.017751 1.01941e-20)
(-0.0619474 0.0179076 4.22014e-20)
(-0.0649069 0.0183154 5.60808e-20)
(-0.0678403 0.0189889 -8.8255e-20)
(-0.0707719 0.019936 -7.36604e-20)
(-0.073659 0.0211634 -1.30364e-19)
(-0.0768365 0.0226213 1.89765e-19)
(-0.00136184 0.00496229 -2.08737e-20)
(-0.00481261 0.0123257 -2.13671e-19)
(-0.00967487 0.0174923 -6.32008e-20)
(-0.0150987 0.0209641 -1.54013e-19)
(-0.0206574 0.0231252 5.82162e-20)
(-0.0261225 0.0242871 -9.18155e-20)
(-0.0313345 0.0247131 3.15745e-20)
(-0.0361946 0.0246244 -1.94464e-19)
(-0.0406529 0.0242058 1.02589e-19)
(-0.0446948 0.0236126 -1.22341e-19)
(-0.048332 0.0229754 -1.08801e-19)
(-0.0515956 0.0224038 -1.21821e-19)
(-0.0545314 0.0219891 1.1058e-19)
(-0.057196 0.0218055 -9.92824e-20)
(-0.0596538 0.0219106 1.3825e-19)
(-0.0619788 0.022345 3.99557e-20)
(-0.0642493 0.0231322 9.89021e-20)
(-0.0664974 0.0242866 4.3409e-20)
(-0.0686823 0.0258215 -1.71866e-19)
(-0.071156 0.0276722 2.79684e-19)
(-0.00178243 0.00597778 9.20181e-20)
(-0.00583143 0.0148394 7.07918e-21)
(-0.0110639 0.0210438 3.79066e-20)
(-0.0166776 0.0251942 1.32268e-19)
(-0.0222788 0.0277536 -2.0249e-20)
(-0.0276635 0.0290969 2.14785e-19)
(-0.0326917 0.0295405 9.53294e-20)
(-0.037279 0.0293497 8.01388e-21)
(-0.0413855 0.0287465 2.45129e-19)
(-0.0450035 0.0279178 8.03195e-20)
(-0.048149 0.027022 3.81022e-20)
(-0.0508563 0.0261939 1.20929e-19)
(-0.0531742 0.0255476 1.10845e-19)
(-0.0551626 0.0251784 2.02358e-19)
(-0.0568911 0.0251631 -1.8087e-19)
(-0.0584411 0.0255588 2.55666e-19)
(-0.0599011 0.0264019 3.35459e-21)
(-0.0613137 0.0277179 -3.26788e-19)
(-0.0626431 0.029531 4.23632e-19)
(-0.0642653 0.0317624 1.75494e-19)
(-0.00227839 0.00694273 -5.42285e-20)
(-0.00703243 0.0172213 -9.84348e-20)
(-0.0127011 0.0243991 -2.04837e-19)
(-0.0185373 0.0291766 -6.07065e-21)
(-0.0241866 0.0320916 3.49519e-20)
(-0.029475 0.0335788 -2.61559e-19)
(-0.0342861 0.0340042 -1.94046e-19)
(-0.0385532 0.0336738 -2.77581e-20)
(-0.0422488 0.0328436 -2.45447e-19)
(-0.0453731 0.0317298 -1.69938e-19)
(-0.0479472 0.030517 -4.95261e-20)
(-0.0500084 0.0293644 -1.59471e-19)
(-0.0516081 0.0284097 -2.59947e-21)
(-0.0528095 0.0277715 -2.11775e-19)
(-0.0536873 0.0275497 8.90837e-20)
(-0.0543311 0.0278228 -1.01636e-19)
(-0.0548418 0.028646 7.78578e-20)
(-0.0552758 0.0300627 -9.90753e-20)
(-0.0556063 0.0321149 -2.83144e-19)
(-0.0562437 0.0347116 -8.60358e-20)
(-0.00284544 0.00785195 -1.99591e-20)
(-0.00840317 0.0194552 -2.16746e-20)
(-0.0145666 0.0275335 1.7174e-19)
(-0.020651 0.0328801 -2.79471e-19)
(-0.0263482 0.0361043 4.1e-20)
(-0.0315193 0.0376966 -1.61433e-19)
(-0.0360764 0.0380684 7.62881e-20)
(-0.0399739 0.0375624 3.42888e-19)
(-0.043199 0.0364645 -2.19966e-20)
(-0.0457616 0.0350166 -2.55794e-19)
(-0.0476882 0.033427 4.64794e-20)
(-0.0490192 0.0318775 9.01203e-21)
(-0.0498078 0.0305295 -5.25162e-20)
(-0.0501196 0.0295268 5.31416e-21)
(-0.0500338 0.0289959 4.61383e-19)
(-0.0496485 0.0290429 -6.56979e-20)
(-0.0490786 0.02975 -1.28154e-19)
(-0.0483979 0.0311876 -2.29931e-19)
(-0.0475946 0.0334262 2.34562e-19)
(-0.0471271 0.0363675 1.0112e-19)
(-0.00347874 0.00870086 1.00778e-19)
(-0.00992842 0.0215268 -1.3185e-19)
(-0.0166343 0.0304245 1.86409e-19)
(-0.0229823 0.0362774 1.8765e-19)
(-0.0287166 0.0397624 1.72981e-19)
(-0.0337398 0.0414222 3.50768e-19)
(-0.0379971 0.0417088 2.26826e-19)
(-0.0414678 0.0409969 -4.87412e-19)
(-0.044157 0.0395975 2.49272e-19)
(-0.0460857 0.0377739 1.95604e-19)
(-0.0472871 0.0357535 -2.77746e-21)
(-0.0478043 0.0337379 2.18958e-19)
(-0.0476915 0.0319106 1.70702e-19)
(-0.0470154 0.0304408 -9.28578e-20)
(-0.0458583 0.0294853 3.13765e-19)
(-0.0443261 0.0291842 -3.8895e-19)
(-0.042549 0.0296563 1.55679e-19)
(-0.0406211 0.0310122 2.00204e-19)
(-0.038553 0.0333667 -4.66484e-20)
(-0.0368706 0.0366235 4.02049e-19)
(-0.00417266 0.00948495 2.02518e-19)
(-0.0115894 0.0234216 1.04999e-20)
(-0.0188712 0.0330504 -7.26855e-20)
(-0.0254826 0.0393425 -7.67756e-20)
(-0.0312276 0.0430399 -3.55534e-19)
(-0.0360561 0.044733 5.03461e-20)
(-0.0399516 0.0449104 1.42644e-19)
(-0.042923 0.0439733 -6.8609e-20)
(-0.0449959 0.0422525 5.65948e-20)
(-0.0462056 0.0400267 -1.5007e-20)
(-0.0465928 0.0375371 -7.39265e-20)
(-0.0462039 0.0350001 7.0188e-20)
(-0.0450936 0.0326172 -3.05151e-19)
(-0.0433277 0.0305815 2.92536e-19)
(-0.0409897 0.0290813 -2.53383e-19)
(-0.0381919 0.0282966 7.82702e-20)
(-0.0350795 0.0283934 1.78099e-19)
(-0.0317696 0.0295394 -3.70481e-20)
(-0.0283031 0.0319162 -1.23237e-19)
(-0.0252997 0.0354462 -8.37657e-20)
(-0.0049205 0.0101991 -2.52266e-19)
(-0.0133632 0.0251245 -1.65958e-20)
(-0.0212353 0.0353886 5.31255e-20)
(-0.0280893 0.0420496 1.36586e-19)
(-0.0337963 0.0459115 -1.92831e-19)
(-0.0383595 0.0476097 -1.6827e-19)
(-0.0418064 0.0476644 3.92755e-19)
(-0.0441794 0.0464986 -2.17026e-19)
(-0.0455294 0.0444571 -1.39997e-19)
(-0.0459084 0.0418276 -2.00876e-19)
(-0.0453672 0.0388582 1.3298e-19)
(-0.0439569 0.0357729 -3.59606e-21)
(-0.0417324 0.0327844 -2.48333e-19)
(-0.038758 0.0301048 -4.06234e-19)
(-0.0351159 0.0279515 3.09489e-19)
(-0.0309223 0.0265469 -2.50756e-19)
(-0.0263359 0.0261143 3.5552e-19)
(-0.0214978 0.026898 -9.95923e-20)
(-0.0164867 0.0291767 2.09332e-19)
(-0.0120511 0.0329186 -7.10545e-19)
(-0.00571417 0.0108374 -5.10906e-19)
(-0.0152219 0.0266181 3.34997e-19)
(-0.0236751 0.0374145 4.55601e-20)
(-0.0307243 0.0443702 8.81237e-21)
(-0.0363149 0.0483501 -2.06551e-19)
(-0.0405098 0.0500316 3.03741e-19)
(-0.0433852 0.0499633 3.31556e-20)
(-0.0450221 0.0485851 -6.22848e-20)
(-0.0455006 0.0462507 -1.99918e-19)
(-0.0448934 0.0432504 2.16102e-19)
(-0.043265 0.0398317 5.47895e-19)
(-0.0406741 0.0362173 -1.2104e-19)
(-0.0371776 0.0326218 2.73516e-19)
(-0.0328384 0.0292662 -3.23088e-19)
(-0.0277362 0.0263895 -3.09799e-19)
(-0.0219883 0.0242532 1.86268e-19)
(-0.0157648 0.0231427 3.07745e-19)
(-0.00922883 0.0233978 -9.9723e-19)
(-0.00250093 0.0254328 1.17097e-19)
(0.00349667 0.0293015 1.59233e-19)
(-0.00654384 0.0113925 3.78325e-19)
(-0.017132 0.0278831 1.24445e-19)
(-0.0261287 0.0390998 6.48274e-19)
(-0.033293 0.0462718 3.33587e-20)
(-0.0386519 0.0503236 -7.20972e-20)
(-0.0423329 0.0519731 -3.43322e-19)
(-0.0444662 0.0517947 2.91963e-19)
(-0.0451756 0.0502421 5.23816e-19)
(-0.0445745 0.0476738 3.48994e-19)
(-0.042761 0.0443777 2.5196e-19)
(-0.0398182 0.0405938 2.17216e-19)
(-0.0358166 0.0365345 -3.90061e-19)
(-0.03082 0.0324046 -1.22184e-19)
(-0.0248931 0.0284201 -8.99933e-20)
(-0.0181143 0.0248268 9.64347e-19)
(-0.0106014 0.0219125 -3.30078e-21)
(-0.0025327 0.0200191 -2.40336e-19)
(0.00591052 0.0195933 -7.57845e-20)
(0.0145694 0.0212274 6.89712e-19)
(0.022296 0.0251144 9.05119e-20)
(-0.00739788 0.0118564 -1.86575e-20)
(-0.0190542 0.0288973 -3.57889e-19)
(-0.0285234 0.0404127 -5.32423e-19)
(-0.0356838 0.0477165 -1.48149e-19)
(-0.0406505 0.0517927 8.18049e-20)
(-0.0436204 0.0533993 1.76159e-20)
(-0.044781 0.0531352 4.6717e-19)
(-0.0443027 0.0514667 -5.794e-19)
(-0.0423359 0.0487554 -2.20391e-19)
(-0.0390086 0.045284 -4.44162e-19)
(-0.0344279 0.0412806 -3.78314e-19)
(-0.0286834 0.0369405 -3.34992e-19)
(-0.0218533 0.0324475 8.3759e-20)
(-0.0140119 0.0279969 -1.08761e-19)
(-0.00524289 0.0238198 4.66018e-19)
(0.00433231 0.0202062 -2.55416e-19)
(0.0145259 0.0175314 -8.00702e-19)
(0.0251448 0.0163422 -1.61548e-19)
(0.0360082 0.0174438 3.95185e-19)
(0.0456919 0.0212315 -3.44289e-19)
(-0.00826286 0.0122204 -6.03623e-20)
(-0.020943 0.0296373 4.37712e-19)
(-0.0307756 0.0413184 -5.58243e-19)
(-0.0377683 0.0486615 1.29033e-19)
(-0.0421297 0.0527108 -2.65781e-19)
(-0.0441299 0.0542646 5.92017e-19)
(-0.0440159 0.0539468 -4.23124e-19)
(-0.0420068 0.052237 4.84097e-19)
(-0.0382924 0.0495005 -4.58998e-19)
(-0.0330344 0.0460161 1.95852e-19)
(-0.0263697 0.0420004 -9.50455e-20)
(-0.0184153 0.0376291 -2.38651e-19)
(-0.00927494 0.0330586 -2.94893e-19)
(0.000954075 0.0284503 2.9385e-19)
(0.0121688 0.0239985 -2.46104e-19)
(0.0242314 0.0199609 -5.38136e-19)
(0.0369361 0.0167031 5.60245e-19)
(0.0500799 0.0148325 -7.14756e-19)
(0.0634946 0.0153759 3.21483e-19)
(0.0754512 0.0189819 8.13733e-21)
(-0.00912377 0.0124763 -5.47264e-19)
(-0.0227473 0.0300796 -5.90895e-19)
(-0.0327906 0.0417809 6.80944e-20)
(-0.0394004 0.0490617 -5.69834e-19)
(-0.042884 0.0530265 -5.0715e-20)
(-0.0435861 0.0545151 -4.19168e-19)
(-0.0418145 0.0541777 -9.61625e-20)
(-0.0378366 0.0525096 -2.81046e-19)
(-0.0318828 0.0498836 2.49834e-21)
(-0.0241504 0.0465794 -1.22975e-19)
(-0.0148108 0.0428077 8.73488e-21)
(-0.00401725 0.0387298 -3.54391e-19)
(0.0080879 0.0344779 3.90627e-19)
(0.0213657 0.0301757 -5.54258e-19)
(0.0356708 0.0259659 1.96394e-19)
(0.050824 0.0220416 7.46851e-21)
(0.0665761 0.0187002 -3.12835e-19)
(0.0827009 0.0165296 7.75753e-19)
(0.0990927 0.0167281 -1.85317e-19)
(0.113752 0.0201999 -1.20168e-19)
(-0.00996427 0.0126168 6.14319e-19)
(-0.0244097 0.0302021 3.31708e-19)
(-0.0344619 0.0417666 3.08556e-19)
(-0.040416 0.0488737 4.60645e-20)
(-0.042682 0.0526891 4.17232e-19)
(-0.0416805 0.0540953 6.01396e-19)
(-0.0377788 0.0537702 4.92406e-19)
(-0.0312913 0.0522278 4.40725e-20)
(-0.0224872 0.049854 3.60622e-19)
(-0.0115999 0.0469371 5.57229e-19)
(0.00116161 0.0436921 -1.44554e-19)
(0.0156013 0.0402794 2.42608e-19)
(0.0315249 0.0368207 1.95899e-19)
(0.0487308 0.0334151 1.99305e-19)
(0.0670017 0.0301586 1.17936e-18)
(0.0860791 0.0271668 -4.42059e-19)
(0.105624 0.0246166 -2.70183e-20)
(0.125337 0.0229627 5.13093e-19)
(0.145216 0.0234414 -2.91005e-19)
(0.163148 0.0271258 1.43866e-19)
(-0.0107667 0.0126364 -4.96784e-19)
(-0.0258662 0.0299869 3.18253e-20)
(-0.0356693 0.0412473 -3.97675e-19)
(-0.0406296 0.048062 -5.17648e-20)
(-0.0412638 0.0516579 2.91111e-19)
(-0.0380686 0.0529603 -8.66638e-19)
(-0.0314687 0.0526762 -6.41285e-22)
(-0.0218228 0.0513406 4.03327e-19)
(-0.00943622 0.0493573 3.78956e-19)
(0.00542298 0.0470316 -1.66846e-19)
(0.0225075 0.0445957 5.50219e-20)
(0.0415736 0.0422266 1.27617e-19)
(0.0623644 0.04006 -6.04204e-20)
(0.0845965 0.0382011 -6.77977e-19)
(0.107947 0.0367347 1.71644e-19)
(0.132029 0.0357294 4.72693e-19)
(0.156342 0.0352404 -6.73663e-19)
(0.180409 0.0354988 3.28616e-19)
(0.204315 0.0376138 8.83105e-20)
(0.226185 0.0426416 4.47425e-19)
(-0.0115119 0.0125313 -7.33474e-20)
(-0.0270439 0.0294207 -3.48085e-19)
(-0.0362754 0.0402046 1.60176e-19)
(-0.0398299 0.0466066 7.40524e-22)
(-0.0383354 0.0499134 -6.98101e-19)
(-0.0323644 0.0510927 1.08941e-19)
(-0.0223976 0.0508796 -2.06892e-20)
(-0.00883502 0.0498309 1.40935e-19)
(0.00798381 0.0483709 -6.45129e-19)
(0.0277579 0.0468272 -4.52339e-20)
(0.0502019 0.0454587 -1.51587e-19)
(0.0750233 0.0444756 1.34836e-19)
(0.1019 0.044055 4.55296e-19)
(0.130455 0.0443524 -7.03854e-20)
(0.160238 0.0455108 2.72823e-20)
(0.190676 0.047654 1.79397e-19)
(0.220995 0.0508482 -4.4289e-20)
(0.250318 0.0552421 3.62616e-19)
(0.278544 0.0619527 -2.10017e-19)
(0.304398 0.0717232 -3.32887e-19)
(-0.0121779 0.0122994 6.80373e-20)
(-0.0278591 0.0284969 1.65991e-20)
(-0.0361221 0.0386336 1.3958e-19)
(-0.0377748 0.0445095 3.41868e-19)
(-0.0335622 0.0474687 1.91841e-19)
(-0.0241343 0.0485189 2.00166e-20)
(-0.0100278 0.0484202 -2.29021e-19)
(0.00831545 0.0477487 5.87098e-20)
(0.0305206 0.0469467 3.08783e-19)
(0.0562516 0.046362 -5.23258e-19)
(0.0851842 0.0462794 3.94868e-19)
(0.116981 0.0469442 -2.9755e-19)
(0.151268 0.0485848 2.52575e-19)
(0.187611 0.0514334 -5.4489e-19)
(0.225484 0.0557511 5.99733e-19)
(0.264215 0.0618428 -6.41596e-19)
(0.302839 0.070054 -1.67e-19)
(0.340032 0.0810148 5.25048e-19)
(0.374629 0.0967111 -1.77031e-19)
(0.403448 0.11727 7.91506e-20)
(-0.0127388 0.0119396 -5.14906e-20)
(-0.0282133 0.0272149 4.85927e-19)
(-0.0350249 0.0365451 -2.03733e-21)
(-0.0341848 0.0418009 -3.01658e-19)
(-0.0265635 0.0443796 -2.02873e-19)
(-0.012893 0.0453245 3.71668e-19)
(0.00622889 0.0454156 -1.47211e-19)
(0.0303107 0.0452414 -1.85451e-20)
(0.0589305 0.0452529 3.06809e-19)
(0.0917025 0.0458056 -3.81151e-19)
(0.128248 0.0471912 4.18051e-20)
(0.168175 0.0496635 -4.95622e-19)
(0.211062 0.0534635 2.6108e-19)
(0.25646 0.0588479 -7.4727e-19)
(0.303895 0.0661271 1.19108e-18)
(0.352883 0.0757163 -2.18167e-19)
(0.402966 0.0882528 2.28358e-19)
(0.454 0.105143 -5.92731e-19)
(0.506461 0.129412 3.28273e-21)
(0.552355 0.156912 6.7661e-19)
(-0.0131622 0.0114508 -1.55989e-19)
(-0.0279893 0.0255806 1.34771e-19)
(-0.0327688 0.0339672 -4.96336e-19)
(-0.0287398 0.0385426 7.34119e-19)
(-0.0169106 0.0407505 -5.30007e-19)
(0.00189438 0.0416636 2.73549e-20)
(0.0270024 0.0420744 -5.71521e-19)
(0.0578512 0.0425729 4.08629e-19)
(0.0939422 0.0436046 -5.8377e-20)
(0.134801 0.0455111 -3.60643e-19)
(0.179946 0.0485593 -2.10495e-19)
(0.228874 0.0529644 2.22405e-19)
(0.281054 0.0589077 1.47159e-19)
(0.335942 0.0665542 -6.5152e-19)
(0.393009 0.076069 2.35132e-19)
(0.451785 0.0876291 -3.47298e-19)
(0.511924 0.101444 4.21099e-20)
(0.57343 0.117954 -2.95867e-19)
(0.637143 0.138329 1.22104e-19)
(0.695815 0.158617 -4.45185e-19)
(-0.0134071 0.0108314 4.44082e-19)
(-0.0270475 0.0236055 -2.6896e-19)
(-0.0291057 0.030946 2.21623e-19)
(-0.0210791 0.0348296 -2.79794e-19)
(-0.00413186 0.0367362 4.68996e-19)
(0.0207999 0.0377602 -8.20379e-21)
(0.0529409 0.0386958 -5.70953e-20)
(0.091619 0.0401213 -4.2334e-20)
(0.136207 0.0424581 2.60577e-19)
(0.186074 0.0460087 4.43113e-19)
(0.240562 0.0509834 -2.61754e-19)
(0.298965 0.0575184 2.54524e-19)
(0.360545 0.0656893 4.65102e-19)
(0.424548 0.0755201 -3.2611e-19)
(0.490242 0.086989 -6.63134e-19)
(0.556963 0.100023 1.21324e-18)
(0.624161 0.114483 -2.16574e-19)
(0.691479 0.130201 -7.05102e-20)
(0.759123 0.147501 7.61741e-19)
(0.8219 0.165498 -1.60643e-19)
(-0.0134221 0.0100795 -7.22977e-19)
(-0.0252243 0.0213084 -4.81291e-19)
(-0.0237553 0.0275465 -1.84759e-19)
(-0.0108072 0.0307897 3.56451e-19)
(0.0122731 0.0325394 -8.04721e-19)
(0.0444056 0.0339006 4.16742e-19)
(0.0846667 0.0356549 5.28164e-20)
(0.132213 0.0383503 5.34109e-20)
(0.186209 0.0423595 -5.45868e-19)
(0.245783 0.0479167 -1.92775e-19)
(0.309997 0.055141 -3.39871e-19)
(0.377851 0.0640543 3.2829e-19)
(0.448304 0.0745942 9.327e-20)
(0.520311 0.0866249 1.83084e-20)
(0.59287 0.0999439 4.28667e-19)
(0.665066 0.114283 -4.34028e-19)
(0.736108 0.129298 -1.80826e-20)
(0.80536 0.144585 1.08411e-20)
(0.872505 0.159988 5.92871e-20)
(0.934654 0.177064 3.38441e-19)
(-0.0131443 0.00919392 2.30196e-19)
(-0.0223322 0.0187165 5.92888e-19)
(-0.0164093 0.0238536 4.7579e-19)
(0.00249375 0.0265828 -1.64003e-19)
(0.0328093 0.0284063 5.70407e-19)
(0.0732628 0.030423 -4.80593e-20)
(0.122714 0.0333807 -6.76965e-20)
(0.180058 0.0377702 4.0301e-20)
(0.244154 0.043883 5.51413e-19)
(0.313777 0.0518466 3.24017e-19)
(0.387611 0.0616503 9.46212e-20)
(0.464276 0.0731657 5.79934e-21)
(0.542375 0.0861682 -6.28243e-19)
(0.620552 0.100355 5.45885e-19)
(0.697551 0.115364 9.37678e-20)
(0.77227 0.130787 -1.54258e-19)
(0.84379 0.146175 -6.70298e-19)
(0.911402 0.161075 -5.69251e-20)
(0.974579 0.175022 2.65185e-19)
(1.03252 0.191156 -5.42357e-20)
(-0.0124992 0.00817575 -5.84153e-19)
(-0.0181625 0.0158688 2.44411e-19)
(-0.00674107 0.0199746 -1.19327e-18)
(0.0192454 0.0224011 4.88714e-19)
(0.0579536 0.0246218 -3.89749e-19)
(0.107841 0.0277043 2.87338e-19)
(0.167453 0.0323317 -4.46384e-19)
(0.235313 0.0388985 4.09776e-20)
(0.30985 0.0475704 -2.30118e-20)
(0.389376 0.0583218 1.20077e-19)
(0.472114 0.070968 1.73457e-19)
(0.556261 0.0851981 -3.27841e-19)
(0.640069 0.100609 1.73602e-19)
(0.721928 0.116739 1.59532e-19)
(0.800443 0.1331 6.89841e-19)
(0.874475 0.1492 -2.99482e-19)
(0.943172 0.164568 -1.99408e-19)
(1.00597 0.178798 3.35532e-19)
(1.06247 0.191327 1.79501e-19)
(1.11324 0.206004 -3.37082e-19)
(-0.0114022 0.00703102 5.117e-19)
(-0.0124911 0.0128212 4.93405e-19)
(0.00558258 0.0160436 1.42343e-19)
(0.0398499 0.0184703 5.99539e-19)
(0.0881168 0.0215055 2.94524e-19)
(0.148472 0.0261482 -5.30941e-19)
(0.219021 0.0329712 8.0417e-19)
(0.29778 0.04222 -3.95748e-19)
(0.382624 0.0538778 3.9508e-19)
(0.471312 0.0677118 5.11268e-19)
(0.561565 0.0833217 -2.92196e-19)
(0.65118 0.100191 5.54969e-20)
(0.738148 0.117741 3.09664e-19)
(0.820757 0.135379 2.18276e-19)
(0.897653 0.152541 5.03148e-19)
(0.967878 0.168722 -2.01137e-19)
(1.03086 0.1835 -2.46481e-20)
(1.08638 0.196571 3.18167e-19)
(1.13442 0.207462 -6.83382e-20)
(1.17633 0.220071 3.37613e-22)
(-0.00976063 0.00577347 -2.64151e-19)
(-0.00508596 0.00965075 -9.70897e-19)
(0.0208849 0.0122258 2.28633e-19)
(0.0646627 0.0150512 -1.74053e-19)
(0.123603 0.0194068 -4.01777e-19)
(0.195293 0.0261703 -2.86852e-19)
(0.277254 0.035742 -1.77215e-19)
(0.366849 0.0481501 4.30395e-19)
(0.461295 0.0631293 -2.55611e-19)
(0.557753 0.0801871 -2.61768e-19)
(0.653478 0.098678 -3.31195e-19)
(0.745984 0.11788 -5.46707e-20)
(0.833182 0.137068 -3.69851e-20)
(0.913473 0.155573 -7.6658e-19)
(0.985782 0.172828 3.71928e-19)
(1.04955 0.188392 -4.89073e-19)
(1.10466 0.201959 1.53894e-19)
(1.1514 0.213373 -1.17151e-18)
(1.19021 0.222368 3.53052e-19)
(1.22284 0.232477 4.47252e-19)
(-0.00747702 0.0044272 -6.63278e-20)
(0.00428254 0.00646158 4.73682e-19)
(0.0394608 0.00872137 3.03666e-20)
(0.0939634 0.0124393 7.3073e-20)
(0.164568 0.0186982 -1.48564e-19)
(0.248205 0.0281823 -2.44247e-21)
(0.341646 0.041039 -3.81554e-21)
(0.441477 0.0569991 -8.96485e-20)
(0.5442 0.0754822 3.17962e-19)
(0.646417 0.0956975 1.22952e-19)
(0.74505 0.11675 5.58312e-19)
(0.83754 0.137746 -1.52247e-19)
(0.921967 0.157876 1.06358e-19)
(0.997105 0.176478 -1.38719e-20)
(1.06239 0.193065 2.94722e-19)
(1.11781 0.207336 1.80481e-19)
(1.16386 0.219156 4.35293e-19)
(1.2013 0.22854 -7.03261e-19)
(1.23107 0.235469 8.85412e-19)
(1.25504 0.242933 -2.806e-19)
(-0.00445278 0.0030289 -6.17471e-19)
(0.0158304 0.00338788 -1.92747e-19)
(0.061557 0.00576779 1.50653e-19)
(0.127926 0.0109621 9.49804e-20)
(0.210985 0.0197637 9.73143e-20)
(0.306829 0.0325703 9.86644e-20)
(0.41133 0.04918 -2.46924e-19)
(0.520216 0.0689421 -1.02124e-19)
(0.629302 0.0909082 3.16704e-20)
(0.734772 0.113978 -3.02565e-19)
(0.833452 0.137044 -1.36918e-19)
(0.922989 0.159109 8.27502e-19)
(1.00192 0.179375 -2.1346e-19)
(1.06963 0.19728 -2.94487e-19)
(1.12622 0.212503 -1.3992e-19)
(1.17234 0.224937 9.68205e-20)
(1.20904 0.234649 1.18283e-19)
(1.23755 0.241826 -5.67027e-19)
(1.25917 0.246673 8.20986e-19)
(1.27574 0.251614 -7.11733e-19)
(-0.000592387 0.00162932 -6.98968e-20)
(0.0297475 0.00059582 2.00256e-20)
(0.0873504 0.00363801 -2.55246e-20)
(0.166592 0.0109713 3.72994e-19)
(0.262612 0.0229828 2.05398e-20)
(0.370495 0.0396704 1.36978e-19)
(0.485099 0.0603781 -2.8458e-19)
(0.601298 0.0839996 -1.0381e-20)
(0.714353 0.109195 3.95395e-19)
(0.820284 0.134587 5.51345e-20)
(0.916133 0.158933 -3.44603e-19)
(1.00007 0.18124 -3.02721e-20)
(1.07134 0.200828 -2.83358e-19)
(1.13011 0.217328 2.82082e-19)
(1.17721 0.230643 3.92086e-19)
(1.21394 0.240892 -4.3232e-20)
(1.24179 0.248341 -5.27618e-20)
(1.26234 0.253325 1.60831e-19)
(1.27707 0.256212 -5.1738e-19)
(1.28774 0.25893 4.5564e-19)
(0.00419211 0.000293879 7.01727e-20)
(0.0461838 -0.00171729 -4.52759e-19)
(0.116927 0.0026351 1.21175e-19)
(0.209841 0.0128295 -3.75838e-19)
(0.318974 0.0287085 1.29229e-19)
(0.438249 0.0497423 -4.79948e-19)
(0.561467 0.0747197 1.936e-19)
(0.682759 0.102033 -6.16315e-20)
(0.797092 0.129974 -2.50041e-21)
(0.900662 0.156968 6.31035e-20)
(0.991074 0.181756 -2.2988e-19)
(1.0673 0.203471 -3.28305e-19)
(1.12949 0.221655 -6.73674e-20)
(1.17862 0.236199 -3.02447e-20)
(1.21624 0.247263 -7.67559e-20)
(1.24414 0.255184 -2.50193e-20)
(1.26416 0.260395 -7.49034e-20)
(1.27802 0.263341 -6.49652e-20)
(1.28725 0.264488 -1.93424e-19)
(1.29346 0.265359 3.06996e-19)
(0.00997621 -0.000897624 1.68822e-19)
(0.0652367 -0.00332665 -1.87487e-19)
(0.150265 0.00308245 4.0349e-19)
(0.25738 0.0168925 -1.74154e-19)
(0.379366 0.0372436 4.65457e-19)
(0.508888 0.062946 6.62491e-21)
(0.638757 0.0921549 2.33779e-19)
(0.762603 0.122762 -6.26131e-20)
(0.875455 0.152766 2.61343e-19)
(0.974071 0.180525 1.8913e-20)
(1.05694 0.2049 6.22445e-19)
(1.12404 0.225271 -4.29711e-19)
(1.17647 0.241479 5.78857e-20)
(1.216 0.25371 1.10503e-19)
(1.24475 0.262373 5.79156e-19)
(1.26484 0.267993 -2.08098e-19)
(1.27828 0.271122 -4.12737e-20)
(1.28678 0.272263 -2.18757e-19)
(1.29181 0.271929 -2.30748e-20)
(1.29478 0.271326 1.09496e-19)
(0.016818 -0.0018522 -8.10545e-20)
(0.0869378 -0.00398618 2.34109e-19)
(0.187215 0.00531024 -2.3966e-19)
(0.308731 0.0234886 9.46711e-20)
(0.442867 0.0488173 -1.13161e-19)
(0.581027 0.0793264 4.15395e-19)
(0.71523 0.112502 -5.78537e-20)
(0.838961 0.145796 1.42577e-19)
(0.947737 0.177043 -8.39499e-20)
(1.03924 0.204693 -2.20196e-21)
(1.11309 0.227866 9.59498e-20)
(1.17036 0.246283 -7.43576e-20)
(1.21305 0.260126 1.92899e-19)
(1.24357 0.269872 -9.61627e-20)
(1.26444 0.276145 -4.23653e-19)
(1.27794 0.279608 4.21268e-19)
(1.28608 0.280877 -1.8988e-19)
(1.29045 0.280472 1.51634e-19)
(1.29238 0.278912 2.63025e-19)
(1.29309 0.277159 1.08067e-19)
(0.024753 -0.00246581 2.01684e-19)
(0.111242 -0.00343723 -4.15614e-19)
(0.227495 0.00963916 7.9525e-20)
(0.363237 0.0328971 -5.76894e-20)
(0.50838 0.063566 -2.3268e-19)
(0.653185 0.0988095 -1.82622e-19)
(0.789208 0.13547 -3.58963e-20)
(0.910235 0.17068 -3.25637e-19)
(1.0127 0.202288 -1.98374e-20)
(1.09551 0.228996 -6.05206e-20)
(1.15953 0.2503 -1.64324e-19)
(1.20689 0.266322 -3.65081e-20)
(1.24037 0.277586 -1.25812e-19)
(1.26284 0.284826 -2.10048e-19)
(1.277 0.288831 2.15152e-19)
(1.28515 0.290342 2.96835e-20)
(1.28916 0.289995 5.91561e-20)
(1.29046 0.28829 -2.47991e-19)
(1.29018 0.285729 -6.19041e-21)
(1.28932 0.283081 -3.82775e-19)
(0.0337896 -0.00262633 2.21141e-19)
(0.13802 -0.00141926 1.47493e-19)
(0.270687 0.0163629 -2.37794e-19)
(0.420088 0.045329 3.71337e-19)
(0.574693 0.0815231 -4.00305e-20)
(0.723881 0.121211 1.38716e-19)
(0.859187 0.160686 4.80303e-20)
(0.975184 0.196944 1.70189e-19)
(1.06959 0.228036 -1.33265e-19)
(1.14272 0.253065 4.44268e-20)
(1.1967 0.271989 -4.2648e-20)
(1.2346 0.28534 -1.87748e-20)
(1.25974 0.293958 3.56914e-20)
(1.27529 0.298781 -6.57809e-20)
(1.28394 0.3007 -2.02244e-20)
(1.28787 0.300485 -6.18807e-20)
(1.28876 0.298752 -1.00607e-19)
(1.28783 0.295957 6.49513e-20)
(1.286 0.292577 -8.91592e-20)
(1.2841 0.289222 3.85268e-19)
(0.043905 -0.00221744 -1.10441e-19)
(0.167052 0.00231824 -3.12847e-19)
(0.316247 0.0257309 -4.16471e-20)
(0.478346 0.0609115 -1.13324e-20)
(0.640543 0.102616 -1.40145e-19)
(0.791726 0.146253 -2.30111e-19)
(0.923926 0.187736 7.53326e-20)
(1.03296 0.224139 -1.03517e-19)
(1.11811 0.253904 -1.16018e-19)
(1.18116 0.276652 6.4644e-20)
(1.22539 0.292838 -4.88597e-20)
(1.25459 0.303387 -9.88936e-20)
(1.27247 0.309403 -3.35357e-21)
(1.28224 0.311962 6.69882e-20)
(1.28649 0.312 -6.83696e-20)
(1.2872 0.310275 9.48766e-20)
(1.2858 0.307354 2.55175e-20)
(1.28328 0.303636 6.43374e-20)
(1.2804 0.299576 1.25451e-19)
(1.2778 0.295639 -1.07476e-19)
(0.0550421 -0.0011231 1.05497e-19)
(0.198033 0.00800303 -9.33049e-21)
(0.363514 0.0379325 4.73317e-20)
(0.536996 0.0796792 -6.42422e-20)
(0.704689 0.126676 5.28017e-21)
(0.855497 0.173595 2.22944e-19)
(0.982488 0.216196 -1.46465e-19)
(1.08311 0.251865 6.20527e-20)
(1.15833 0.279596 5.47248e-20)
(1.21139 0.299604 -1.53844e-19)
(1.24651 0.312838 1.446e-19)
(1.268 0.32057 1.28165e-21)
(1.27973 0.324097 -1.01948e-19)
(1.28482 0.324573 1.22897e-19)
(1.28566 0.322932 -4.87889e-20)
(1.28395 0.319885 3.73148e-20)
(1.28089 0.315935 -4.17316e-20)
(1.27728 0.311422 -1.66879e-20)
(1.2737 0.306777 -1.46206e-19)
(1.27065 0.302336 4.4782e-20)
(0.0671086 0.000767413 -3.55763e-20)
(0.23057 0.0158278 9.54667e-20)
(0.411742 0.0530848 1.48833e-20)
(0.59499 0.101572 6.24357e-20)
(0.765973 0.153446 2.97924e-20)
(0.91419 0.202849 1.39653e-20)
(1.03425 0.245655 7.91865e-20)
(1.12548 0.279781 -9.61037e-21)
(1.19061 0.3049 3.4928e-20)
(1.23413 0.321849 5.61318e-20)
(1.26101 0.332035 2.70951e-20)
(1.27587 0.337012 1.94564e-20)
(1.28253 0.338204 7.89107e-20)
(1.28392 0.336783 -7.63886e-20)
(1.28216 0.333644 1.64e-20)
(1.27868 0.32943 -1.53624e-20)
(1.27446 0.32457 2.37689e-20)
(1.27012 0.319351 1.9918e-20)
(1.26609 0.314187 4.16103e-20)
(1.26276 0.309284 1.75142e-21)
(0.0799769 0.00355426 2.10902e-20)
(0.264202 0.0259389 1.92646e-20)
(0.460125 0.0712241 -2.66685e-20)
(0.651296 0.126437 1.66644e-20)
(0.823371 0.182605 9.41592e-21)
(0.967039 0.233615 -2.92914e-20)
(1.07886 0.275735 9.66794e-21)
(1.16022 0.307608 1.74293e-21)
(1.21547 0.329669 1.66787e-20)
(1.25018 0.343361 -4.47263e-20)
(1.26982 0.350496 -1.39624e-22)
(1.2791 0.352833 1.24014e-20)
(1.28168 0.351856 -9.88236e-21)
(1.28022 0.348713 9.99915e-21)
(1.27653 0.344228 2.61023e-20)
(1.2718 0.338966 -1.48544e-20)
(1.26679 0.333285 4.13368e-21)
(1.26198 0.327419 1.62812e-20)
(1.25768 0.321775 -2.68453e-20)
(1.25418 0.316426 1.28854e-20)
(0.0934869 0.00732195 5.87952e-20)
(0.298407 0.0384269 -3.1976e-20)
(0.507832 0.092302 3.76535e-20)
(0.704946 0.15404 -2.80174e-20)
(0.876026 0.213784 -1.25676e-20)
(1.01351 0.265489 3.79888e-21)
(1.11623 0.306094 -1.23375e-20)
(1.18762 0.335122 4.43764e-20)
(1.23352 0.353801 -3.69572e-20)
(1.26031 0.364144 8.6726e-21)
(1.27375 0.36829 -6.46315e-21)
(1.27845 0.368128 -4.21165e-20)
(1.27783 0.365149 4.08572e-20)
(1.27422 0.360435 1.55597e-20)
(1.26914 0.354728 -1.548e-20)
(1.26355 0.348508 3.6345e-20)
(1.25803 0.342063 -5.32541e-22)
(1.25294 0.33559 -3.52697e-20)
(1.24851 0.329486 2.61316e-20)
(1.24495 0.323692 8.24038e-21)
(0.107449 0.0121347 -2.06024e-20)
(0.332624 0.0533199 5.97518e-20)
(0.554038 0.116187 6.90415e-20)
(0.755066 0.184077 -3.25736e-20)
(0.923261 0.246582 5.66794e-20)
(1.0533 0.298079 8.97056e-20)
(1.14644 0.336429 -4.93908e-21)
(1.20811 0.36214 -1.54049e-20)
(1.2454 0.377227 7.61037e-20)
(1.26525 0.384209 3.71109e-20)
(1.27349 0.38547 -6.73596e-21)
(1.27453 0.382963 5.53343e-20)
(1.27146 0.378135 -5.93497e-20)
(1.26627 0.37198 9.24183e-20)
(1.26023 0.365146 -1.54191e-20)
(1.25409 0.358032 4.4178e-20)
(1.24828 0.350862 7.96529e-21)
(1.24306 0.343804 3.16229e-20)
(1.23859 0.337248 -3.01013e-20)
(1.23504 0.331 7.24571e-21)
(0.121647 0.0180322 -3.20654e-20)
(0.366268 0.0705792 7.61084e-20)
(0.597954 0.142665 5.65426e-20)
(0.800903 0.216182 -8.56851e-21)
(0.964578 0.28058 8.81095e-20)
(1.08627 0.331012 -6.58027e-20)
(1.16973 0.366471 -5.16259e-21)
(1.22219 0.388508 5.81157e-20)
(1.25173 0.39989 1.84657e-20)
(1.26563 0.403559 2.58343e-20)
(1.26962 0.402067 -3.81501e-20)
(1.26781 0.397367 9.94844e-20)
(1.26292 0.390827 1.85786e-20)
(1.25664 0.383337 -8.81318e-20)
(1.24998 0.375449 1.28776e-19)
(1.24352 0.367486 -1.51952e-19)
(1.23758 0.359616 -6.9765e-20)
(1.23236 0.351985 1.15602e-20)
(1.22794 0.344978 6.7763e-20)
(1.22446 0.338265 -1.27738e-19)
(0.135851 0.0250263 -7.21836e-20)
(0.398755 0.0900984 -1.7028e-19)
(0.638853 0.171455 -1.4723e-19)
(0.841838 0.249951 -2.00496e-19)
(0.999652 0.315354 -1.13765e-19)
(1.11246 0.363935 -2.35924e-19)
(1.18642 0.395976 2.99753e-20)
(1.23037 0.414093 -1.25325e-19)