/*--------------------------------*- C++ -*----------------------------------*\
  =========                 |
  \\      /  F ield         | OpenFOAM: The Open Source CFD Toolbox
   \\    /   O peration     | Website:  https://openfoam.org
    \\  /    A nd           | Version:  6.0
     \\/     M anipulation  |
\*---------------------------------------------------------------------------*/
FoamFile
{
    version     2.0;
    format      ascii;
    class       surfaceScalarField;
    location    "9.2";
    object      phi;
}
// * * * * * * * * * * * * * * * * * * * * * * * * * * * * * * * * * * * * * //

dimensions      [0 3 -1 0 0 0 0];

internalField   nonuniform List<scalar> 
15760
(
-5.05005e-06
5.05773e-06
-7.68183e-09
-1.75246e-05
1.24687e-05
5.81394e-09
-3.55807e-05
1.80168e-05
3.92965e-08
-5.78529e-05
2.2187e-05
8.52312e-08
-8.33141e-05
2.53234e-05
1.3777e-07
-0.0001112
2.76935e-05
1.92749e-07
-0.000140956
2.95083e-05
2.47404e-07
-0.000172193
3.0937e-05
3.00047e-07
-0.00020466
3.21174e-05
3.49763e-07
-0.00023822
3.31632e-05
3.96169e-07
-0.000272828
3.41689e-05
4.39216e-07
-0.00030852
3.52128e-05
4.79055e-07
-0.000345395
3.63593e-05
5.15919e-07
-0.000383604
3.76596e-05
5.50081e-07
-0.000423339
3.91524e-05
5.81822e-07
-0.000464814
4.08643e-05
6.11403e-07
-0.000508262
4.2809e-05
6.39058e-07
-0.000553911
4.49833e-05
6.64954e-07
-0.000601973
4.73732e-05
6.89289e-07
4.99892e-05
7.1235e-07
-0.000652675
-4.92606e-06
9.98378e-06
-1.71175e-05
2.46602e-05
-3.4777e-05
3.56764e-05
-5.6563e-05
4.39729e-05
-8.14594e-05
5.02198e-05
-0.000108705
5.4939e-05
-0.000137741
5.85441e-05
-0.000168171
6.13676e-05
-0.000199735
6.36814e-05
-0.000232283
6.57106e-05
-0.000265757
6.76433e-05
-0.00030018
6.96361e-05
-0.00033564
7.18188e-05
-0.000372276
7.42961e-05
-0.000410273
7.71485e-05
-0.000449841
8.04328e-05
-0.000491213
8.41806e-05
-0.000534619
8.83901e-05
-0.000580283
9.30366e-05
9.81419e-05
-0.000628435
-4.68557e-06
1.46694e-05
-1.63259e-05
3.63005e-05
-3.32116e-05
5.2562e-05
-5.40472e-05
6.48086e-05
-7.78386e-05
7.40112e-05
-0.00010383
8.09304e-05
-0.000131457
8.61707e-05
-0.000160309
9.02199e-05
-0.000190106
9.34785e-05
-0.000220675
9.62792e-05
-0.000251933
9.89012e-05
-0.000283876
0.000101579
-0.000316568
0.000104511
-0.000350128
0.000107856
-0.000384724
0.000111745
-0.00042056
0.000116269
-0.000457867
0.000121488
-0.000496887
0.000127409
-0.000537856
0.000134006
0.000141313
-0.000581027
-4.34498e-06
1.90143e-05
-1.52003e-05
4.71558e-05
-3.09795e-05
6.83413e-05
-5.04524e-05
8.42814e-05
-7.26562e-05
9.6215e-05
-9.68434e-05
0.000105118
-0.000122442
0.000111769
-0.000149023
0.000116801
-0.000176279
0.000120734
-0.000204002
0.000124002
-0.000232073
0.000126973
-0.000260451
0.000129957
-0.000289162
0.000133222
-0.000318295
0.000136989
-0.000347994
0.000141443
-0.00037845
0.000146725
-0.000409894
0.000152932
-0.000442583
0.000160098
-0.000476784
0.000168206
0.00017731
-0.00051278
-3.9271e-06
2.29414e-05
-1.38115e-05
5.70402e-05
-2.82143e-05
8.2744e-05
-4.59847e-05
0.000102052
-6.61992e-05
0.00011643
-8.81224e-05
0.000127041
-0.000111174
0.000134821
-0.000134904
0.000140531
-0.00015897
0.0001448
-0.000183124
0.000148156
-0.000207201
0.000151049
-0.000231107
0.000153864
-0.000254824
0.000156938
-0.000278397
0.000160562
-0.000301937
0.000164983
-0.000325617
0.000170405
-0.000349667
0.000176982
-0.000374367
0.000184798
-0.000400027
0.000193866
0.000204271
-0.000426988
-3.45922e-06
2.64007e-05
-1.22442e-05
6.58252e-05
-2.50764e-05
9.55762e-05
-4.08929e-05
0.000117868
-5.88156e-05
0.000134352
-7.81245e-05
0.00014635
-9.82335e-05
0.00015493
-0.000118669
0.000160967
-0.000139053
0.000165185
-0.000159091
0.000168194
-0.000178563
0.00017052
-0.000197318
0.000172619
-0.000215275
0.000174896
-0.000232428
0.000177715
-0.000248841
0.000181397
-0.000264662
0.000186225
-0.000280117
0.000192437
-0.000295513
0.000200194
-0.000311222
0.000209575
0.000220725
-0.000327676
-2.97072e-06
2.93714e-05
-1.05904e-05
7.34449e-05
-2.17405e-05
0.000106726
-3.54486e-05
0.000131576
-5.08854e-05
0.000149789
-6.73504e-05
0.000162815
-8.42548e-05
0.000171835
-0.000101105
0.000177817
-0.000117487
0.000181567
-0.000133059
0.000183766
-0.00014754
0.000185001
-0.000160714
0.000185793
-0.000172432
0.000186613
-0.000182614
0.000187898
-0.000191271
0.000190053
-0.000198506
0.00019346
-0.000204536
0.000198468
-0.000209697
0.000205356
-0.000214443
0.00021432
0.000225614
-0.000219332
-2.49063e-06
3.1862e-05
-8.94136e-06
7.98957e-05
-1.83807e-05
0.000116166
-2.99228e-05
0.000143119
-4.27884e-05
0.000162655
-5.63005e-05
0.000176327
-6.98733e-05
0.000185407
-8.29983e-05
0.000190942
-9.52316e-05
0.0001938
-0.000106185
0.000194719
-0.000115519
0.000194335
-0.000122946
0.000193221
-0.000128237
0.000191904
-0.000131231
0.000190892
-0.000131859
0.000190681
-0.000130165
0.000191767
-0.000126338
0.00019464
-0.000120737
0.000199755
-0.00011391
0.000207493
0.000218295
-0.000106591
-2.04518e-06
3.39072e-05
-7.37998e-06
8.52305e-05
-1.51556e-05
0.000123941
-2.45626e-05
0.000152526
-3.487e-05
0.000172962
-4.54286e-05
0.000186885
-5.56625e-05
0.000195641
-6.50572e-05
0.000200337
-7.31473e-05
0.00020189
-7.95066e-05
0.000201078
-8.37427e-05
0.000198571
-8.54974e-05
0.000194975
-8.4455e-05
0.000190862
-8.03595e-05
0.000186796
-7.30419e-05
0.000183363
-6.2459e-05
0.000181184
-4.87419e-05
0.000180923
-3.2253e-05
0.000183266
-1.36373e-05
0.000188877
0.000198511
6.14634e-06
-1.65574e-06
3.55629e-05
-5.97398e-06
8.95487e-05
-1.21944e-05
0.000130162
-1.9568e-05
0.000159899
-2.74078e-05
0.000180802
-3.50949e-05
0.000194572
-4.2071e-05
0.000202617
-4.78268e-05
0.000206092
-5.18882e-05
0.000205952
-5.38049e-05
0.000202995
-5.31422e-05
0.000197909
-4.94794e-05
0.000191313
-4.24167e-05
0.000183799
-3.15929e-05
0.000175972
-1.67194e-05
0.00016849
2.36887e-06
0.000162096
2.56397e-05
0.000157653
5.27687e-05
0.000156137
8.30292e-05
0.000158617
0.000166346
0.000115195
-1.3371e-06
3.69e-05
-4.77004e-06
9.29816e-05
-9.58493e-06
0.000134977
-1.50725e-05
0.000165387
-2.05814e-05
0.000186311
-2.55232e-05
0.000199514
-2.93641e-05
0.000206458
-3.16113e-05
0.000208339
-3.1797e-05
0.000206138
-2.94642e-05
0.000200662
-2.41546e-05
0.000192599
-1.54022e-05
0.00018256
-2.73468e-06
0.000171131
1.43115e-05
0.000158926
3.61579e-05
0.000146643
6.3123e-05
0.00013513
9.53257e-05
0.00012545
0.000132541
0.000118921
0.00017401
0.000117148
0.000122142
0.000218213
-1.0964e-06
3.79964e-05
-3.78985e-06
9.56751e-05
-7.36571e-06
0.000138552
-1.11287e-05
0.00016915
-1.44503e-05
0.000189632
-1.67688e-05
0.000201833
-1.75778e-05
0.000207267
-1.64095e-05
0.000207171
-1.28166e-05
0.000202545
-6.35412e-06
0.000194199
3.43657e-06
0.000182808
1.70409e-05
0.000168956
3.49772e-05
0.000153195
5.77919e-05
0.000136111
8.60329e-05
0.000118402
0.00012019
0.000100973
0.00016058
8.50595e-05
0.000207158
7.23433e-05
0.000259217
6.50899e-05
6.63936e-05
0.000314965
-9.32669e-07
3.89291e-05
-3.02823e-06
9.77706e-05
-5.52112e-06
0.000141045
-7.70013e-06
0.000171329
-8.94126e-06
0.000190873
-8.69961e-06
0.000201591
-6.49222e-06
0.00020506
-1.87826e-06
0.000202557
5.56148e-06
0.000195105
1.62448e-05
0.000183516
3.06076e-05
0.000168446
4.91229e-05
0.000150441
7.23161e-05
0.000130002
0.000100773
0.000107654
0.000135131
8.40442e-05
0.000176033
6.00717e-05
0.000224016
3.70764e-05
0.000279289
1.70705e-05
0.00034132
3.05845e-06
-4.23382e-07
0.000408137
-8.37008e-07
3.97661e-05
-2.45336e-06
9.9387e-05
-3.98172e-06
0.000142574
-4.66127e-06
0.000172008
-3.84836e-06
0.000190061
-9.96585e-07
0.000198739
4.36722e-06
0.000199696
1.26662e-05
0.000194258
2.4295e-05
0.000183476
3.96399e-05
0.000168171
5.90993e-05
0.000148986
8.31038e-05
0.000126436
0.000112139
0.000100967
0.000146766
7.30271e-05
0.000187635
4.31754e-05
0.000235469
1.22378e-05
0.000290984
-1.84391e-05
0.000354675
-4.66199e-05
0.000426324
-6.85904e-05
-7.80682e-05
0.000503969
-7.9333e-07
4.05594e-05
-2.009e-06
0.000100603
-2.62852e-06
0.000143193
-1.80495e-06
0.000171185
1.15547e-06
0.0001871
6.82792e-06
0.000193067
1.57011e-05
0.000190823
2.82035e-05
0.000181756
4.47248e-05
0.000166955
6.56325e-05
0.000147264
9.12881e-05
0.000123331
0.000122064
9.56604e-05
0.000158363
6.46671e-05
0.000200648
3.07422e-05
0.00024947
-5.64638e-06
0.000305494
-4.37866e-05
0.000369481
-8.2426e-05
0.000442137
-0.000119275
0.000523651
-0.000150105
-0.000166792
0.000612374
-7.7953e-07
4.1339e-05
-1.61832e-06
0.000101441
-1.30076e-06
0.000142876
1.14432e-06
0.00016874
6.49657e-06
0.000181748
1.53956e-05
0.000184168
2.83821e-05
0.000177836
4.59271e-05
0.000164211
6.84507e-05
0.000144431
9.63336e-05
0.000119381
0.000129923
8.9741e-05
0.000169539
5.60446e-05
0.000215481
1.87249e-05
0.000268049
-2.18255e-05
0.000327575
-6.51725e-05
0.000394481
-0.000110692
0.000469328
-0.000157273
0.000552798
-0.000202745
0.000645417
-0.000242724
-0.000267552
0.000746178
-7.68944e-07
4.21079e-05
-1.1888e-06
0.000101861
1.93941e-07
0.000141493
4.51273e-06
0.000164421
1.26722e-05
0.000173588
2.5418e-05
0.000171422
4.33871e-05
0.000159867
6.71393e-05
0.000140459
9.71729e-05
0.000114398
0.000133928
8.2626e-05
0.000177778
4.58907e-05
0.000229021
4.80177e-06
0.000287862
-4.01166e-05
0.000354411
-8.83748e-05
0.000428694
-0.000139455
0.000510706
-0.000192703
0.000600507
-0.000247074
0.00069834
-0.000300578
0.000804649
-0.000349034
-0.000382136
0.000919233
-7.31967e-07
4.28399e-05
-6.17695e-07
0.000101747
2.06824e-06
0.000138807
8.65763e-06
0.000157832
2.02198e-05
0.000162026
3.76494e-05
0.000153992
6.17257e-05
0.000135791
9.31449e-05
0.000109039
0.000132532
7.50108e-05
0.000180433
3.47247e-05
0.000237297
-1.09734e-05
0.000303442
-6.13435e-05
0.000379018
-0.000115692
0.000463962
-0.000173319
0.00055797
-0.000233464
0.000660504
-0.000295237
0.00077087
-0.000357441
0.000888394
-0.000418103
0.00101265
-0.000473292
-0.000513583
0.0011441
-6.37722e-07
4.34776e-05
2.02166e-07
0.000100907
4.54325e-06
0.000134466
1.39476e-05
0.000148427
2.96858e-05
0.000146288
5.28408e-05
0.000130837
8.43733e-05
0.000104258
0.000125154
6.8259e-05
0.000175968
2.4197e-05
0.000237501
-2.68087e-05
0.000310309
-8.37816e-05
0.000394773
-0.000145807
0.00049104
-0.00021196
0.000598961
-0.000281239
0.000718002
-0.000352505
0.000847162
-0.000424397
0.000984927
-0.000495205
0.0011293
-0.000562474
0.00127803
-0.000622026
-0.000666889
0.00143134
-4.55721e-07
4.39333e-05
1.37675e-06
9.90747e-05
7.83688e-06
0.000128006
2.07429e-05
0.000135521
4.15959e-05
0.000125435
7.16959e-05
0.000100737
0.000112208
6.3746e-05
0.000164191
1.62766e-05
0.000228591
-4.02036e-05
0.000306226
-0.000104443
0.000397744
-0.0001753
0.000503588
-0.000251652
0.000623957
-0.000332328
0.000758759
-0.000416042
0.000907576
-0.000501321
0.00106959
-0.000586408
0.00124342
-0.000669042
0.00142661
-0.000745657
0.00161312
-0.000808536
-0.000838114
0.00178434
-1.5816e-07
4.40915e-05
3.00427e-06
9.59122e-05
1.21514e-05
0.000118859
2.93748e-05
0.000118298
5.64243e-05
9.83856e-05
9.48279e-05
6.23336e-05
0.000145952
1.26224e-05
0.000211014
-4.87858e-05
0.000291071
-0.000120261
0.000386983
-0.000200355
0.000499379
-0.000287695
0.00062863
-0.000380903
0.000774851
-0.000478548
0.00093794
-0.000579131
0.0011177
-0.000681084
0.00131409
-0.000782798
0.0015277
-0.000882647
0.00176093
-0.000978893
0.00202203
-0.00106963
-0.00114704
0.00233095
2.81464e-07
4.381e-05
5.17489e-06
9.10188e-05
1.76682e-05
0.000106365
4.01329e-05
9.58331e-05
7.45697e-05
6.39488e-05
0.000122721
1.41821e-05
0.000186114
-5.07699e-05
0.000266049
-0.000128722
0.000363569
-0.000217781
0.000479403
-0.000316189
0.000613925
-0.000422217
0.000767132
-0.000534109
0.000938654
-0.000650071
0.00112782
-0.000768296
0.00133376
-0.000887029
0.00155562
-0.00100465
0.0017928
-0.00111982
0.00204548
-0.00123158
0.00231522
-0.00133936
-0.00143441
0.00260259
8.83527e-07
4.29265e-05
7.96068e-06
8.39417e-05
2.45322e-05
8.97938e-05
5.32421e-05
6.71233e-05
9.6323e-05
2.08678e-05
0.000155687
-4.51818e-05
0.000232937
-0.000128019
0.000329325
-0.00022511
0.000445691
-0.000334147
0.00058239
-0.000452888
0.000739249
-0.000579076
0.000915552
-0.000710413
0.00111008
-0.000844595
0.00132117
-0.000979387
0.00154685
-0.00111271
0.00178498
-0.00124278
0.00203333
-0.00136817
0.0022897
-0.00148795
0.00255193
-0.00160159
-0.00170117
0.00281869
1.66471e-06
4.12618e-05
1.14181e-05
7.41882e-05
3.28508e-05
6.83611e-05
6.88539e-05
3.11201e-05
0.000121846
-3.2124e-05
0.000193823
-0.000117159
0.000286331
-0.000220527
0.000400382
-0.000339161
0.000536364
-0.000470129
0.000693974
-0.000610498
0.00087218
-0.000757283
0.00106926
-0.000907491
0.00128287
-0.00105821
0.00151021
-0.00120672
0.00174813
-0.00135064
0.00199334
-0.00148799
0.00224249
-0.00161732
0.00249223
-0.0017377
0.00273935
-0.00184871
-0.00194456
0.00298274
2.63748e-06
3.86243e-05
1.55863e-05
6.12394e-05
4.26889e-05
4.12585e-05
8.70353e-05
-1.32263e-05
0.000151148
-9.62365e-05
0.000236977
-0.000202989
0.000345817
-0.000329367
0.00047819
-0.000471533
0.000633744
-0.000625684
0.000811209
-0.000787962
0.00100842
-0.000954495
0.00122244
-0.00112151
0.00144972
-0.00128549
0.00168634
-0.00144334
0.00192824
-0.00159254
0.00217141
-0.00173116
0.00241206
-0.00185797
0.00264673
-0.00197236
0.00287236
-0.00207433
-0.00216036
0.00308815
3.81073e-06
3.48136e-05
2.04873e-05
4.45629e-05
5.40669e-05
7.67894e-06
0.00010776
-6.69195e-05
0.000184069
-0.000172545
0.00028471
-0.00030363
0.000410479
-0.000455136
0.000561107
-0.000622162
0.000735192
-0.000799769
0.000930218
-0.000982988
0.0011427
-0.00116698
0.00136842
-0.00134723
0.00160274
-0.00151981
0.00184092
-0.00168152
0.0020784
-0.00183002
0.00231106
-0.00196383
0.0025354
-0.00208231
0.00274854
-0.00218551
0.00294836
-0.00227415
-0.00234673
0.00313473
5.19042e-06
2.96231e-05
2.61265e-05
2.36268e-05
6.69583e-05
-3.31529e-05
0.000130902
-0.000130863
0.000220262
-0.000261906
0.000336282
-0.00041965
0.000478951
-0.000597805
0.000646891
-0.000790102
0.000837354
-0.000990232
0.00104639
-0.00119203
0.00126916
-0.00138974
0.0015003
-0.00157837
0.0017344
-0.00175391
0.00196637
-0.00191349
0.00219175
-0.0020554
0.00240693
-0.00217901
0.00260922
-0.0022846
0.00279687
-0.00237316
0.00296898
-0.00244626
-0.00250399
0.00312624
6.77964e-06
2.28435e-05
3.24917e-05
-2.0852e-06
8.12859e-05
-8.19472e-05
0.000156223
-0.0002058
0.000259184
-0.000364867
0.000390635
-0.0005511
0.00054943
-0.0007566
0.000732769
-0.00097344
0.000936354
-0.00119382
0.00115476
-0.00141043
0.00138192
-0.0016169
0.00161172
-0.00180817
0.00183847
-0.00198066
0.00205732
-0.00213233
0.00226447
-0.00226255
0.00245733
-0.00237187
0.00263442
-0.00246169
0.00279527
-0.00253401
0.00294022
-0.00259121
-0.00263456
0.00307079
8.57806e-06
1.42654e-05
3.95502e-05
-3.30573e-05
9.69146e-05
-0.000139312
0.000183368
-0.000292253
0.000300081
-0.00048158
0.000446406
-0.000697425
0.000619731
-0.000929925
0.000815594
-0.0011693
0.00102808
-0.0014063
0.00125044
-0.00163279
0.00147577
-0.00184224
0.0016977
-0.0020301
0.00191087
-0.00219383
0.00211123
-0.00233269
0.00229614
-0.00244746
0.00246428
-0.00254001
0.0026155
-0.0026129
0.00275052
-0.00266904
0.00287069
-0.00271137
-0.00274199
0.00297813
1.05806e-05
3.68487e-06
4.72446e-05
-6.97214e-05
0.000113644
-0.000205711
0.000211849
-0.000390458
0.000341991
-0.000611722
0.00050196
-0.000857394
0.000687398
-0.00111536
0.000892071
-0.00137398
0.00110857
-0.00162281
0.00132919
-0.0018534
0.00154672
-0.00205977
0.00175516
-0.00223854
0.00195003
-0.0023887
0.00212851
-0.00251118
0.00228936
-0.00260831
0.00243262
-0.00268326
0.00255928
-0.00273957
0.002671
-0.00278076
0.00276976
-0.00281014
-0.00283021
0.00285798
1.27755e-05
-9.09062e-06
5.54876e-05
-0.000112434
0.000131201
-0.000281424
0.00024105
-0.000500307
0.00038377
-0.000754442
0.000555467
-0.00102909
0.000749867
-0.00130976
0.000959034
-0.00158314
0.0011744
-0.00183818
0.00138783
-0.00206682
0.00159243
-0.00226438
0.00178313
-0.00242924
0.00195677
-0.00256233
0.00211199
-0.0026664
0.00224892
-0.00274525
0.00236878
-0.00280312
0.00247344
-0.00284423
0.00256512
-0.00287243
0.00264609
-0.0028911
-0.00290287
0.00271875
1.51428e-05
-2.42334e-05
6.41584e-05
-0.000161449
0.000149236
-0.000366502
0.000270231
-0.000621302
0.000424128
-0.00090834
0.00060501
-0.00120997
0.00080467
-0.00150942
0.00101374
-0.00179222
0.00122301
-0.00204744
0.00142452
-0.00226834
0.00161231
-0.00245216
0.00178263
-0.00259956
0.00193387
-0.00271357
0.0020661
-0.00279863
0.00218067
-0.00285981
0.00227962
-0.00290208
0.00236538
-0.00292999
0.00244037
-0.00294742
0.00250686
-0.0029576
-0.00296305
0.00256704
1.76528e-05
-4.18862e-05
7.31008e-05
-0.000216897
0.000167333
-0.000460734
0.000298559
-0.000752528
0.000461711
-0.00107149
0.000648729
-0.00139699
0.000849648
-0.00171034
0.00105413
-0.0019967
0.00125291
-0.00224623
0.00143885
-0.00245427
0.00160733
-0.00262064
0.00175619
-0.00274842
0.00188531
-0.00284269
0.00199604
-0.00290936
0.00209058
-0.00295435
0.00217151
-0.00298301
0.00224144
-0.00299992
0.00230277
-0.00300875
0.00235756
-0.00301239
-0.00301315
0.00240766
2.02657e-05
-6.21519e-05
8.21255e-05
-0.000278757
0.000185014
-0.000563623
0.000325149
-0.000892663
0.000495183
-0.00124153
0.000684963
-0.00158677
0.000883132
-0.00190851
0.00107895
-0.00219252
0.00126375
-0.00243103
0.00143166
-0.00262218
0.00157969
-0.00276867
0.00170727
-0.002876
0.0018156
-0.00295103
0.00190698
-0.00300074
0.00198414
-0.0030315
0.00204987
-0.00304874
0.00210672
-0.00305677
0.00215688
-0.0030589
0.00220212
-0.00305763
-0.00305495
0.00224392
2.29321e-05
-8.5084e-05
9.10151e-05
-0.00034684
0.000201769
-0.000674377
0.000349112
-0.00104001
0.000523326
-0.00141574
0.000712389
-0.00177583
0.000904059
-0.00210018
0.00108783
-0.00237629
0.00125615
-0.00259934
0.00140476
-0.00277079
0.00153233
-0.00289624
0.00163973
-0.0029834
0.0017292
-0.0030405
0.00180362
-0.00307516
0.00186597
-0.00309386
0.001919
-0.00310177
0.00196504
-0.00310281
0.00200597
-0.00309983
0.00204324
-0.0030949
-0.00308972
0.00207801
2.55939e-05
-0.000110678
9.95331e-05
-0.000420779
0.000217076
-0.00079192
0.000369619
-0.00119255
0.000545128
-0.00159125
0.000730103
-0.00196081
0.000912015
-0.00228209
0.00108117
-0.00254544
0.00123153
-0.00274971
0.00136056
-0.00289983
0.0014685
-0.00300418
0.00155738
-0.00307228
0.00163013
-0.00311326
0.00168995
-0.00313497
0.00173979
-0.0031437
0.00178218
-0.00314417
0.00181917
-0.0031398
0.0018523
-0.00313296
0.00188273
-0.00312533
-0.00311829
0.0019113
2.8187e-05
-0.000138865
0.000107435
-0.000500027
0.000230436
-0.000914921
0.000385952
-0.00134806
0.00055985
-0.00176515
0.000737667
-0.00213863
0.000907189
-0.00245161
0.00106001
-0.00269827
0.00119183
-0.00288152
0.00130179
-0.00300979
0.00139145
-0.00309384
0.0014637
-0.00314452
0.00152186
-0.00317142
0.00156917
-0.00318228
0.0016084
-0.00318293
0.00164179
-0.00317756
0.00167103
-0.00316904
0.00169737
-0.0031593
0.00172171
-0.00314967
-0.00314124
0.00174466
3.06435e-05
-0.000169508
0.00011448
-0.000583864
0.000241401
-0.00104184
0.000397551
-0.00150421
0.000567064
-0.00193466
0.000735087
-0.00230665
0.000890277
-0.0026068
0.00102584
-0.00283383
0.00113925
-0.00299493
0.00123116
-0.0031017
0.00130416
-0.00316684
0.00136168
-0.00320204
0.00140719
-0.00321693
0.00144377
-0.00321886
0.00147391
-0.00321306
0.0014995
-0.00320315
0.00152193
-0.00319147
0.00154218
-0.00317955
0.00156093
-0.00316842
-0.00315891
0.0015786
3.28946e-05
-0.000202403
0.000120446
-0.000671415
0.000249598
-0.00117099
0.000404042
-0.00165866
0.000566648
-0.00209727
0.000722762
-0.00246276
0.000862345
-0.00274639
0.000980382
-0.00295187
0.00107603
-0.00309057
0.0011512
-0.00317687
0.00120924
-0.00322487
0.00125381
-0.00324662
0.00128833
-0.00325146
0.00131561
-0.00324614
0.00133781
-0.00323526
0.0013565
-0.00322183
0.00137277
-0.00320774
0.00138738
-0.00319417
0.00140084
-0.00318188
-0.00317153
0.00141346
3.48745e-05
-0.000237278
0.000125137
-0.000761677
0.000254752
-0.00130061
0.000405246
-0.00180915
0.00055877
-0.00225079
0.000701395
-0.00260539
0.000824691
-0.00286968
0.000925447
-0.00305262
0.00100432
-0.00316944
0.0010642
-0.00323676
0.00110887
-0.00326954
0.00114206
-0.00327981
0.00116696
-0.00327636
0.00118606
-0.00326524
0.00120118
-0.00325038
0.00121358
-0.00323423
0.00122412
-0.00321828
0.00123339
-0.00320344
0.00124176
-0.00319025
-0.00317921
0.00124944
3.65264e-05
-0.000273804
0.000128403
-0.000853553
0.000256703
-0.00142891
0.000401188
-0.00195364
0.000543848
-0.00239345
0.000671918
-0.00273346
0.000778743
-0.00297651
0.000862828
-0.00313671
0.000926081
-0.0032327
0.000972097
-0.00328277
0.00100486
-0.00330231
0.00102798
-0.00330293
0.00104435
-0.00329273
0.00105611
-0.003277
0.00106476
-0.00325903
0.00107131
-0.00324078
0.00107641
-0.00322338
0.00108051
-0.00320754
0.00108389
-0.00319363
-0.00318202
0.0010867
3.77911e-05
-0.000311595
0.000130118
-0.00094588
0.000255367
-0.00155416
0.000392021
-0.00209029
0.000522433
-0.00252386
0.000635333
-0.00284636
0.000725885
-0.00306706
0.000794136
-0.00320496
0.000842991
-0.00328155
0.000876478
-0.00331626
0.000898599
-0.00332443
0.000912724
-0.00331705
0.000921409
-0.00330141
0.000926456
-0.00328205
0.00092907
-0.00326165
0.000930038
-0.00324174
0.000929874
-0.00322322
0.000928914
-0.00320658
0.00092737
-0.00319208
-0.00318
0.000925346
3.86293e-05
-0.000350224
0.000130221
-0.00103747
0.000250793
-0.00167473
0.00037807
-0.00221757
0.00049524
-0.00264103
0.000592735
-0.00294385
0.000667486
-0.00314181
0.000720864
-0.00325834
0.000756508
-0.0033172
0.000778665
-0.00333842
0.000791203
-0.00333697
0.000797187
-0.00332303
0.000798825
-0.00330305
0.000797602
-0.00328083
0.000794476
-0.00325852
0.000790056
-0.00323732
0.000784735
-0.0032179
0.000778775
-0.00320062
0.000772334
-0.00318564
-0.00317315
0.000765491
3.90098e-05
-0.000389234
0.000128692
-0.00112715
0.000243107
-0.00178914
0.000359751
-0.00233421
0.000463033
-0.00274431
0.00054519
-0.00302601
0.000604789
-0.00320141
0.000644292
-0.00329784
0.000667832
-0.00334074
0.000679695
-0.00335028
0.000683517
-0.00334079
0.000682025
-0.00332154
0.000677088
-0.00329811
0.000669912
-0.00327365
0.000661246
-0.00324985
0.000651556
-0.00322763
0.000641144
-0.00320749
0.000630214
-0.00318969
0.000618892
-0.00317432
-0.0031615
0.000607235
3.89133e-05
-0.000428147
0.000125556
-0.0012138
0.000232506
-0.0018961
0.000337546
-0.00243925
0.000426593
-0.00283336
0.000493702
-0.00309312
0.000538903
-0.00324661
0.000565507
-0.00332445
0.000577939
-0.00335317
0.000580384
-0.00335272
0.000576185
-0.00333659
0.000567721
-0.00331308
0.000556554
-0.00328695
0.000543645
-0.00326074
0.000529571
-0.00323578
0.000514685
-0.00321275
0.000499221
-0.00319202
0.000483338
-0.0031738
0.00046714
-0.00315812
-0.00314503
0.000450675
3.83324e-05
-0.00046648
0.000120873
-0.00129634
0.000219244
-0.00199447
0.000311972
-0.00253198
0.000386684
-0.00290807
0.000439194
-0.00314563
0.000470789
-0.00327821
0.000485415
-0.00333907
0.000487609
-0.00335536
0.000481361
-0.00334648
0.000469686
-0.00332491
0.000454632
-0.00329802
0.00043748
-0.0032698
0.000418989
-0.00324225
0.000399594
-0.00321638
0.00037956
-0.00319271
0.000359064
-0.00317153
0.000338238
-0.00315298
0.000317168
-0.00313705
-0.00312376
0.0002959
3.72714e-05
-0.000503751
0.000114737
-0.0013738
0.000203609
-0.00208334
0.000283554
-0.00261193
0.000344028
-0.00296855
0.000382487
-0.00318409
0.000401273
-0.00329699
0.000404758
-0.00334256
0.000397463
-0.00334807
0.000383111
-0.00333212
0.000364382
-0.00330618
0.000343016
-0.00327666
0.000320054
-0.00324683
0.000296083
-0.00321828
0.000271425
-0.00319173
0.000246272
-0.00316756
0.000220759
-0.00314601
0.000194993
-0.00312721
0.000169055
-0.00311112
-0.0030977
0.000142991
3.57442e-05
-0.000539495
0.000107269
-0.00144533
0.00018591
-0.00216198
0.00025281
-0.00267883
0.000299289
-0.00301503
0.000324305
-0.0032091
0.000331045
-0.00330373
0.000324142
-0.00333565
0.000307986
-0.00333191
0.000286003
-0.00331014
0.000260542
-0.00328072
0.000233067
-0.00324918
0.000204414
-0.00321818
0.000175031
-0.0031889
0.000145147
-0.00316184
0.000114895
-0.00313731
8.43729e-05
-0.00311549
5.36716e-05
-0.00309651
2.28707e-05
-0.00308031
-0.00306685
-7.97951e-06
3.37743e-05
-0.00057327
9.86035e-05
-0.00151016
0.000166464
-0.00222984
0.000220229
-0.00273259
0.000253068
-0.00304787
0.000265273
-0.00322131
0.000260686
-0.00329914
0.000244053
-0.00331902
0.000219564
-0.00330742
0.000190323
-0.0032809
0.000158371
-0.00324877
0.000124929
-0.00321574
9.06634e-05
-0.00318392
5.59097e-05
-0.00315414
2.08235e-05
-0.00312676
-1.45143e-05
-0.00310197
-5.00372e-05
-0.00307997
-8.56694e-05
-0.00306088
-0.000121327
-0.00304466
-0.00303123
-0.000156948
3.13922e-05
-0.000604662
8.88899e-05
-0.00156765
0.000145586
-0.00228654
0.000186269
-0.00277327
0.0002059
-0.0030675
0.000205926
-0.00322134
0.000190674
-0.00328389
0.000164887
-0.00329323
0.000132499
-0.00327503
9.62927e-05
-0.00324469
5.80264e-05
-0.00321051
1.87121e-05
-0.00317643
-2.11196e-05
-0.00314408
-6.12218e-05
-0.00311404
-0.000101499
-0.00308648
-0.000141914
-0.00306155
-0.000182434
-0.00303945
-0.000222993
-0.00302032
-0.0002635
-0.00300415
-0.00299085
-0.000303875
2.86349e-05
-0.000633297
7.82826e-05
-0.0016173
0.000123578
-0.00233183
0.000151351
-0.00280105
0.000158254
-0.0030744
0.000146721
-0.0032098
0.00012141
-0.00325858
8.69667e-05
-0.00325879
4.70379e-05
-0.0032351
4.09404e-06
-0.00320175
-4.03614e-05
-0.00316605
-8.5491e-05
-0.0031313
-0.000130871
-0.0030987
-0.000176321
-0.00306859
-0.000221791
-0.00304101
-0.000267286
-0.00301606
-0.000312804
-0.00299393
-0.000358295
-0.00297483
-0.000403651
-0.00295879
-0.00294573
-0.00044877
2.55436e-05
-0.00065884
6.69381e-05
-0.0016587
0.000100729
-0.00236562
0.000115855
-0.00281617
0.000110544
-0.00306909
8.80492e-05
-0.00318731
5.32279e-05
-0.00322376
1.05602e-05
-0.00321612
-3.66123e-05
-0.00318793
-8.61167e-05
-0.00315225
-0.000136676
-0.00311549
-0.000187596
-0.00308038
-0.000238533
-0.00304777
-0.000289352
-0.00301777
-0.000340037
-0.00299032
-0.000390631
-0.00296546
-0.000441166
-0.0029434
-0.000491614
-0.00292438
-0.00054185
-0.00290856
-0.00289585
-0.000591732
2.21635e-05
-0.000681004
5.50115e-05
-0.00169154
7.73097e-05
-0.00238792
8.01257e-05
-0.00281899
6.31314e-05
-0.00305209
3.0246e-05
-0.00315442
-1.3585e-05
-0.00317993
-6.40993e-05
-0.00316561
-0.000118266
-0.00313376
-0.000174192
-0.00309632
-0.000230798
-0.00305888
-0.000287509
-0.00302366
-0.00034404
-0.00299124
-0.000400278
-0.00296153
-0.000456227
-0.00293438
-0.00051196
-0.00290973
-0.000567557
-0.0028878
-0.000623017
-0.00286892
-0.000678207
-0.00285337
-0.00284114
-0.000732921
1.85416e-05
-0.000699545
4.26541e-05
-0.00171566
5.35713e-05
-0.00239884
4.44724e-05
-0.00280989
1.63351e-05
-0.00302396
-2.63961e-05
-0.00311169
-7.87775e-05
-0.00312755
-0.000136801
-0.00310759
-0.000197745
-0.00307282
-0.000259976
-0.00303409
-0.000322593
-0.00299627
-0.000385118
-0.00296114
-0.000447303
-0.00292905
-0.000509042
-0.00289979
-0.000570338
-0.00287308
-0.000631285
-0.00284878
-0.00069201
-0.00282708
-0.000752564
-0.00280837
-0.00081281
-0.00279312
-0.0027815
-0.000872445
1.47264e-05
-0.000714272
3.0011e-05
-0.00173094
2.97458e-05
-0.00239857
9.17194e-06
-0.00278932
-2.95646e-05
-0.00298522
-8.1619e-05
-0.00305964
-0.000142122
-0.00306704
-0.000207344
-0.00304236
-0.000274866
-0.0030053
-0.000343295
-0.00296566
-0.000411891
-0.00292767
-0.000480263
-0.00289277
-0.000548191
-0.00286112
-0.000615556
-0.00283243
-0.000682334
-0.0028063
-0.000748615
-0.0027825
-0.000814567
-0.00276112
-0.000880309
-0.00274262
-0.000945714
-0.00272772
-0.00271688
-0.00101034
1.07669e-05
-0.000725039
1.72203e-05
-0.0017374
6.04501e-06
-0.0023874
-2.5528e-05
-0.00275774
-7.43191e-05
-0.00293643
-0.000135192
-0.00299877
-0.000203408
-0.00299883
-0.00027553
-0.00297024
-0.000349428
-0.0029314
-0.000423939
-0.00289115
-0.000498471
-0.00285314
-0.000572718
-0.00281852
-0.00064649
-0.00278735
-0.00071965
-0.00275927
-0.000792125
-0.00273383
-0.000863957
-0.00271067
-0.000935325
-0.00268976
-0.00100643
-0.00267152
-0.00107717
-0.00265698
-0.00264705
-0.00114699
6.71133e-06
-0.00073175
4.41123e-06
-0.00173509
-1.73388e-05
-0.00236565
-5.94076e-05
-0.00271567
-0.000117708
-0.00287813
-0.000186906
-0.00292957
-0.000262436
-0.0029233
-0.000341156
-0.00289152
-0.000421215
-0.00285134
-0.000501661
-0.0028107
-0.000582049
-0.00277275
-0.000662167
-0.0027384
-0.000741872
-0.00270764
-0.000821023
-0.00268012
-0.000899493
-0.00265536
-0.000977246
-0.00263292
-0.00105444
-0.00261256
-0.00113136
-0.0025946
-0.00120799
-0.00258035
-0.00257107
-0.00128397
2.60643e-06
-0.000734357
-8.29715e-06
-0.00172419
-4.02341e-05
-0.00233371
-9.22737e-05
-0.00266364
-0.00015954
-0.00281086
-0.000236574
-0.00285253
-0.000319017
-0.00284085
-0.000404017
-0.00280652
-0.000489987
-0.00276537
-0.000576173
-0.00272452
-0.000662278
-0.00268665
-0.000748198
-0.00265248
-0.000833875
-0.00262197
-0.000919208
-0.00259479
-0.00100405
-0.00257051
-0.00108829
-0.00254868
-0.00117204
-0.00252882
-0.00125569
-0.00251095
-0.00133948
-0.00249656
-0.00248656
-0.00142399
-1.50367e-06
-0.000732853
-2.07974e-05
-0.0017049
-6.24908e-05
-0.00229202
-0.000123961
-0.00260216
-0.000199648
-0.00273518
-0.000284032
-0.00276815
-0.000372975
-0.00275191
-0.000463906
-0.00271559
-0.000555482
-0.00267379
-0.000647135
-0.00263286
-0.000738711
-0.00259507
-0.000830244
-0.00256095
-0.000921814
-0.0025304
-0.00101346
-0.00250314
-0.00110512
-0.00247885
-0.0011967
-0.0024571
-0.0012882
-0.00243732
-0.00137999
-0.00241916
-0.00147265
-0.0024039
-0.00239027
-0.00156894
-5.57848e-06
-0.000727274
-3.29954e-05
-0.00167748
-8.39826e-05
-0.00224103
-0.000154335
-0.00253181
-0.000237901
-0.00265161
-0.000329149
-0.0026769
-0.000424164
-0.0026569
-0.000520638
-0.00261912
-0.000617441
-0.00257699
-0.000714161
-0.00253614
-0.000810773
-0.00249846
-0.000907445
-0.00246428
-0.00100444
-0.0024334
-0.00110206
-0.00240552
-0.00120059
-0.00238032
-0.00130023
-0.00235746
-0.0014011
-0.00233645
-0.00150379
-0.00231647
-0.00161062
-0.00229707
-0.00229
-0.00171088
-9.56971e-06
-0.000717705
-4.47917e-05
-0.00164226
-0.000104584
-0.00218124
-0.000183268
-0.00245313
-0.000274183
-0.00256069
-0.000371817
-0.00257927
-0.000472475
-0.00255624
-0.000574082
-0.00251751