/*--------------------------------*- C++ -*----------------------------------*\
  =========                 |
  \\      /  F ield         | OpenFOAM: The Open Source CFD Toolbox
   \\    /   O peration     | Website:  https://openfoam.org
    \\  /    A nd           | Version:  6.0
     \\/     M anipulation  |
\*---------------------------------------------------------------------------*/
FoamFile
{
    version     2.0;
    format      ascii;
    class       volVectorField;
    location    "9.2";
    object      U;
}
// * * * * * * * * * * * * * * * * * * * * * * * * * * * * * * * * * * * * * //

dimensions      [0 1 -1 0 0 0 0];

internalField   nonuniform List<vector> 
8000
(
(-0.000890405 0.00100132 -4.09527e-21)
(-0.0046966 0.0024142 2.18954e-20)
(-0.0116106 0.00338681 -2.66602e-20)
(-0.0200609 0.00404964 2.0314e-20)
(-0.0292806 0.00448854 9.90946e-21)
(-0.0388655 0.00476625 -2.97609e-20)
(-0.0485322 0.0049314 -2.63736e-21)
(-0.0580995 0.00502196 -9.4628e-22)
(-0.0674668 0.00506778 -1.55259e-20)
(-0.0765903 0.00509266 -8.43513e-21)
(-0.0854659 0.00511559 6.26813e-21)
(-0.0941179 0.00515175 2.39626e-20)
(-0.102589 0.00521305 -1.75681e-21)
(-0.110933 0.00530856 2.60745e-21)
(-0.119212 0.00544457 -2.42865e-20)
(-0.12752 0.00562436 1.49976e-20)
(-0.135935 0.00584887 -2.15847e-20)
(-0.144263 0.00612109 3.26919e-20)
(-0.152134 0.00644525 -3.58264e-23)
(-0.161457 0.0067848 7.23328e-21)
(-0.00102433 0.00296956 1.35985e-20)
(-0.00496841 0.00718553 -6.95383e-20)
(-0.0118934 0.0101115 -4.80915e-20)
(-0.020279 0.012126 -3.26973e-20)
(-0.0293825 0.0134782 -4.21116e-20)
(-0.0388124 0.0143508 9.23159e-21)
(-0.0482935 0.0148862 -4.86999e-20)
(-0.0576493 0.0151957 -1.09862e-20)
(-0.066782 0.0153678 3.40432e-21)
(-0.0756491 0.0154732 3.64953e-20)
(-0.0842468 0.0155686 -3.99264e-20)
(-0.0925996 0.0156998 5.56268e-20)
(-0.10075 0.015903 -4.17462e-20)
(-0.108753 0.016206 -4.96455e-20)
(-0.11667 0.0166285 -6.86816e-20)
(-0.124597 0.0171811 4.37348e-20)
(-0.132615 0.0178675 -1.43307e-20)
(-0.140533 0.0186973 -5.20619e-20)
(-0.147969 0.0196848 4.92585e-20)
(-0.156836 0.0207205 -3.71257e-20)
(-0.00128557 0.00485424 1.32988e-19)
(-0.00550081 0.0117735 6.89776e-20)
(-0.0124498 0.0165966 7.76135e-20)
(-0.0207108 0.01993 6.47081e-21)
(-0.0295884 0.0221756 4.29382e-20)
(-0.0387153 0.0236294 5.36534e-20)
(-0.0478322 0.024523 -9.75671e-20)
(-0.0567727 0.0250388 -5.17807e-20)
(-0.0654443 0.0253218 -6.76023e-20)
(-0.0738069 0.0254885 7.21512e-20)
(-0.081858 0.0256331 -5.52046e-20)
(-0.089622 0.0258321 -7.12374e-20)
(-0.097142 0.0261465 -2.59771e-20)
(-0.104472 0.0266243 2.46994e-20)
(-0.111677 0.0273 -7.03235e-21)
(-0.118853 0.0281937 9.83883e-21)
(-0.12609 0.0293135 1.15752e-19)
(-0.133201 0.0306782 -1.6079e-20)
(-0.139785 0.0323154 -1.18329e-19)
(-0.147757 0.0340433 1.58495e-19)
(-0.00166211 0.00660573 4.63839e-20)
(-0.00627396 0.0160674 -6.54028e-20)
(-0.0132655 0.0226954 -1.64622e-20)
(-0.0213535 0.0272929 3.07432e-20)
(-0.0299091 0.0303976 8.7364e-20)
(-0.0386001 0.0324086 1.9146e-19)
(-0.0471909 0.0336402 1.87293e-19)
(-0.0555291 0.0343408 1.56433e-20)
(-0.0635307 0.0347089 1.15157e-19)
(-0.0711594 0.0349051 1.76507e-19)
(-0.0784144 0.0350604 -1.41393e-19)
(-0.0853205 0.0352818 2.09219e-19)
(-0.091921 0.0356566 -4.77738e-20)
(-0.0982706 0.0362544 1.18506e-20)
(-0.104436 0.0371276 5.00002e-20)
(-0.110519 0.0383086 6.67382e-20)
(-0.116617 0.0398137 -1.04669e-19)
(-0.122554 0.0416741 -8.7726e-20)
(-0.127901 0.0439384 -1.55922e-19)
(-0.134575 0.0463532 2.30082e-19)
(-0.00213746 0.00818333 -2.41981e-20)
(-0.00726041 0.0199736 -2.48116e-19)
(-0.0143206 0.028281 -7.34736e-20)
(-0.0222025 0.0340656 -1.79099e-19)
(-0.0303592 0.0379799 6.76947e-20)
(-0.0385031 0.0405131 -1.06924e-19)
(-0.0464282 0.0420528 3.68456e-20)
(-0.0540013 0.0429074 -2.26936e-19)
(-0.061149 0.0433248 1.19822e-19)
(-0.067841 0.0435068 -1.4307e-19)
(-0.0740786 0.0436195 -1.27465e-19)
(-0.0798874 0.0438007 -1.43073e-19)
(-0.0853109 0.0441648 1.30101e-19)
(-0.0904049 0.0448056 -1.17124e-19)
(-0.0952391 0.0457968 1.63239e-19)
(-0.0999191 0.0471883 4.74459e-20)
(-0.104558 0.0490091 1.17748e-19)
(-0.108995 0.051309 5.19295e-20)
(-0.112768 0.0541671 -2.05494e-19)
(-0.117792 0.0572631 3.40061e-19)
(-0.00269242 0.00955761 1.07012e-19)
(-0.00842763 0.0234209 8.13261e-21)
(-0.0155906 0.0332518 4.40924e-20)
(-0.0232512 0.0401249 1.53859e-19)
(-0.0309551 0.0447834 -2.35434e-20)
(-0.0384659 0.0477914 2.50158e-19)
(-0.0456132 0.0495993 1.11205e-19)
(-0.0522872 0.0505679 9.33522e-21)
(-0.0584282 0.0509889 2.86536e-19)
(-0.0640133 0.0511016 9.41529e-20)
(-0.0690471 0.0511052 4.4714e-20)
(-0.073556 0.0511673 1.41956e-19)
(-0.077584 0.0514301 1.30427e-19)
(-0.081188 0.0520143 2.38796e-19)
(-0.0844405 0.0530196 -2.13496e-19)
(-0.0874537 0.0545193 3.03299e-19)
(-0.0903582 0.0565621 4.63855e-21)
(-0.0930158 0.0592249 -3.89151e-19)
(-0.0949313 0.062631 5.05866e-19)
(-0.0980125 0.0664026 2.13855e-19)
(-0.00330689 0.0107118 -6.30398e-20)
(-0.00974074 0.0263628 -1.14631e-19)
(-0.0170488 0.0375363 -2.38437e-19)
(-0.0244912 0.0453783 -7.08435e-21)
(-0.0317116 0.0506988 4.07892e-20)
(-0.0385303 0.0541212 -3.04773e-19)
(-0.0448173 0.0561471 -2.26318e-19)
(-0.0504897 0.0571807 -3.23294e-20)
(-0.055505 0.0575511 -2.86851e-19)
(-0.0598495 0.0575302 -1.98981e-19)
(-0.0635322 0.0573468 -5.80395e-20)
(-0.0665806 0.0571965 -1.87187e-19)
(-0.0690388 0.0572496 -2.90175e-21)
(-0.0709645 0.0576559 -2.49484e-19)
(-0.0724331 0.0585457 1.05456e-19)
(-0.0735641 0.0600229 -1.20226e-19)
(-0.0745084 0.0621659 9.2797e-20)
(-0.0751584 0.0650895 -1.17433e-19)
(-0.0749915 0.0689809 -3.37538e-19)
(-0.0759017 0.0734202 -1.03298e-19)
(-0.00396186 0.011642 -2.33491e-20)
(-0.0111654 0.028779 -2.53163e-20)
(-0.0186667 0.041094 1.99993e-19)
(-0.0259101 0.0497664 -3.25603e-19)
(-0.0326383 0.0556505 4.77556e-20)
(-0.0387312 0.0594138 -1.88241e-19)
(-0.0441033 0.0615971 8.89695e-20)
(-0.0487028 0.062639 4.00457e-19)
(-0.0525069 0.0628984 -2.55103e-20)
(-0.0555137 0.0626735 -2.99388e-19)
(-0.0577377 0.0622179 5.44027e-20)
(-0.0592079 0.0617519 1.04405e-20)
(-0.0599681 0.0614724 -6.20594e-20)
(-0.0600759 0.0615595 5.8246e-21)
(-0.0596085 0.0621784 5.44867e-19)
(-0.0586923 0.063472 -7.73988e-20)
(-0.0575006 0.0655597 -1.51989e-19)
(-0.0559647 0.06861 -2.73718e-19)
(-0.0535457 0.0728985 2.79054e-19)
(-0.0521218 0.0779904 1.2162e-19)
(-0.00464105 0.012356 1.17407e-19)
(-0.0126701 0.0306739 -1.53738e-19)
(-0.0204157 0.0439153 2.17268e-19)
(-0.0274911 0.053263 2.18681e-19)
(-0.0337348 0.0595973 2.01561e-19)
(-0.0390885 0.0636157 4.08906e-19)
(-0.0435143 0.0658874 2.64648e-19)
(-0.0469949 0.0668759 -5.69053e-19)
(-0.0495309 0.0669613 2.91287e-19)
(-0.0511345 0.0664611 2.28915e-19)
(-0.0518274 0.0656469 -3.13853e-21)
(-0.0516409 0.0647587 2.56981e-19)
(-0.0506175 0.0640162 2.00981e-19)
(-0.0488131 0.0636287 -1.09111e-19)
(-0.0463047 0.063799 3.70497e-19)
(-0.0432242 0.0647166 -4.59508e-19)
(-0.0397675 0.0665554 1.84487e-19)
(-0.0359117 0.0695572 2.37941e-19)
(-0.0311188 0.0741191 -5.59609e-20)
(-0.0272582 0.0798314 4.82452e-19)
(-0.0053321 0.0128719 2.36432e-19)
(-0.0142281 0.0320733 1.22273e-20)
(-0.022267 0.0460184 -8.47709e-20)
(-0.0292098 0.0558735 -8.94624e-20)
(-0.0349852 0.0625316 -4.14444e-19)
(-0.0395975 0.0667094 5.86381e-20)
(-0.0430588 0.0689946 1.66438e-19)
(-0.0453901 0.0698665 -8.0014e-20)
(-0.0466186 0.0697181 6.605e-20)
(-0.046774 0.0688777 -1.74811e-20)
(-0.0458874 0.0676271 -8.65066e-20)
(-0.0439929 0.0662179 8.20449e-20)
(-0.0411314 0.0648866 -3.58635e-19)
(-0.0373552 0.0638668 3.43596e-19)
(-0.0327383 0.0633979 -2.98666e-19)
(-0.0274146 0.0637217 9.22078e-20)
(-0.0216004 0.0650796 2.10753e-19)
(-0.0153243 0.0678102 -4.38377e-20)
(-0.00806994 0.0724737 -1.46344e-19)
(-0.00171935 0.078744 -9.97156e-20)
(-0.00602726 0.0132148 -2.94599e-19)
(-0.0158175 0.0330198 -1.91995e-20)
(-0.0241909 0.0474442 6.19903e-20)
(-0.0310316 0.0576301 1.59175e-19)
(-0.0363519 0.0644761 -2.2475e-19)
(-0.0402186 0.0687107 -1.9613e-19)
(-0.0426965 0.0709323 4.58034e-19)
(-0.0438476 0.0716281 -2.53012e-19)
(-0.0437297 0.0711961 -1.63344e-19)
(-0.0423933 0.0699667 -2.34671e-19)
(-0.0398817 0.0682227 1.55496e-19)
(-0.0362337 0.0662181 -4.03519e-21)
(-0.0314889 0.0641955 -2.90786e-19)
(-0.0256944 0.062404 -4.77123e-19)
(-0.0189177 0.0611135 3.63585e-19)
(-0.0112902 0.0606172 -2.95592e-19)
(-0.0030445 0.0612339 4.19547e-19)
(0.00573748 0.0634239 -1.17598e-19)
(0.0155282 0.0679609 2.49721e-19)
(0.0243926 0.074682 -8.40191e-19)
(-0.00672324 0.013414 -5.9681e-19)
(-0.0174212 0.0335664 3.90915e-19)
(-0.0261546 0.0482495 5.316e-20)
(-0.0329075 0.0585856 1.02633e-20)
(-0.0377688 0.0654782 -2.40611e-19)
(-0.0408677 0.0696639 3.53803e-19)
(-0.0423231 0.0717469 3.87407e-20)
(-0.0422415 0.0722165 -7.26487e-20)
(-0.0407142 0.0714688 -2.32946e-19)
(-0.0378164 0.0698287 2.52003e-19)
(-0.0336071 0.0675707 6.39623e-19)
(-0.0281328 0.0649401 -1.41381e-19)
(-0.0214335 0.0621732 3.19699e-19)
(-0.0135511 0.0595205 -3.78543e-19)
(-0.00454451 0.0572686 -3.63554e-19)
(0.00546201 0.0557526 2.18834e-19)
(0.0162254 0.0553695 3.63249e-19)
(0.0276121 0.0567206 -1.17655e-18)
(0.0400315 0.0608497 1.37809e-19)
(0.0514364 0.0678608 1.8625e-19)
(-0.00742049 0.0134994 4.41947e-19)
(-0.0190246 0.03377 1.45056e-19)
(-0.0281197 0.0484998 7.55326e-19)
(-0.0347696 0.0588062 3.87579e-20)
(-0.0391346 0.0656029 -8.39659e-20)
(-0.041406 0.0696353 -3.99574e-19)
(-0.0417582 0.0715113 3.3983e-19)
(-0.0403433 0.0717191 6.09405e-19)
(-0.0372895 0.0706484 4.06461e-19)
(-0.0326999 0.0686129 2.93142e-19)
(-0.026653 0.0658715 2.52764e-19)
(-0.0192076 0.0626504 -4.55108e-19)
(-0.0104083 0.0591661 -1.43196e-19)
(-0.000294934 0.0556527 -1.05023e-19)
(0.0110812 0.0523923 1.12911e-18)
(0.023605 0.0497407 -3.52796e-21)
(0.0370277 0.0481574 -2.82362e-19)
(0.0511686 0.0483895 -8.97871e-20)
(0.0663653 0.0518042 8.1138e-19)
(0.0803862 0.0588971 1.01672e-19)
(-0.00812179 0.0134989 -2.19775e-20)
(-0.0206132 0.0336854 -4.17338e-19)
(-0.0300377 0.0482615 -6.20174e-19)
(-0.0365264 0.0583634 -1.72314e-19)
(-0.0403073 0.0649249 9.50785e-20)
(-0.0416335 0.0687047 2.05097e-20)
(-0.0407346 0.0703157 5.43113e-19)
(-0.0378095 0.0702444 -6.7373e-19)
(-0.0330243 0.068873 -2.5625e-19)
(-0.0265122 0.0665015 -5.16648e-19)
(-0.0183757 0.0633694 -4.40499e-19)
(-0.00869101 0.0596772 -3.89949e-19)
(0.00248518 0.0556105 9.7445e-20)
(0.0151074 0.0513691 -1.26537e-19)
(0.0291246 0.0472052 5.44004e-19)
(0.0444264 0.0434615 -2.9849e-19)
(0.0607583 0.0406236 -9.37738e-19)
(0.0778963 0.0395599 -1.90029e-19)
(0.0961149 0.041995 4.63525e-19)
(0.112934 0.0489502 -4.01668e-19)
(-0.00883037 0.0134351 -7.05147e-20)
(-0.0221681 0.0333592 5.09676e-19)
(-0.0318461 0.0475952 -6.49584e-19)
(-0.0380581 0.0573265 1.50276e-19)
(-0.0410987 0.0635214 -3.08821e-19)
(-0.041283 0.0669584 6.87435e-19)
(-0.0388944 0.0682594 -4.91275e-19)
(-0.0341772 0.0679118 5.62153e-19)
(-0.0273347 0.0662924 -5.32546e-19)
(-0.0185315 0.0636895 2.27555e-19)
(-0.00789697 0.0603245 -1.10352e-19)
(0.00446833 0.0563718 -2.76968e-19)
(0.0184857 0.0519816 -3.42492e-19)
(0.03409 0.0473079 3.41944e-19)
(0.0512143 0.0425496 -2.86555e-19)
(0.0697379 0.0379974 -6.27847e-19)
(0.089389 0.0341057 6.54439e-19)
(0.109898 0.0317987 -8.35219e-19)
(0.131506 0.0331468 3.77199e-19)
(0.15147 0.0398135 1.49211e-20)
(-0.00954766 0.0133237 -6.37373e-19)
(-0.0236621 0.0328258 -6.87375e-19)
(-0.0334631 0.0465501 7.93048e-20)
(-0.0392118 0.0557575 -6.61586e-19)
(-0.0412717 0.0614661 -5.84549e-20)
(-0.0400192 0.0644829 -4.86318e-19)
(-0.0357893 0.0654443 -1.1144e-19)
(-0.0288685 0.0648436 -3.25508e-19)
(-0.0194949 0.0630567 3.41816e-21)
(-0.0078636 0.0603666 -1.42158e-19)
(0.00586644 0.0569833 1.04381e-20)
(0.0215635 0.0530628 -4.10627e-19)
(0.0391139 0.0487253 4.53662e-19)
(0.0584126 0.04408 -6.42816e-19)
(0.079351 0.0392618 2.28517e-19)
(0.101769 0.0344778 8.92844e-21)
(0.125349 0.0300865 -3.6362e-19)
(0.149753 0.0269609 9.04656e-19)
(0.175237 0.0274292 -2.15136e-19)
(0.1989 0.0338569 -1.40662e-19)
(-0.010271 0.0131723 7.14679e-19)
(-0.0250549 0.0321051 3.85623e-19)
(-0.0347832 0.0451613 3.58417e-19)
(-0.0397981 0.0537075 5.35079e-20)
(-0.0405377 0.0588266 4.84124e-19)
(-0.0374393 0.0613627 6.97313e-19)
(-0.0308867 0.0619732 5.70163e-19)
(-0.0212039 0.0611624 5.13348e-20)
(-0.00866046 0.0593124 4.17504e-19)
(0.00651944 0.0567089 6.44796e-19)
(0.0241449 0.0535621 -1.66904e-19)
(0.044045 0.0500228 2.80753e-19)
(0.0660558 0.046198 2.26599e-19)
(0.0900083 0.042168 2.31033e-19)
(0.115717 0.0380141 1.36712e-18)
(0.142941 0.0338539 -5.12663e-19)
(0.171272 0.0299027 -3.10212e-20)
(0.200251 0.0268521 5.96124e-19)
(0.230175 0.0271123 -3.3825e-19)
(0.25829 0.0337341 1.67353e-19)
(-0.0109913 0.01298 -5.77172e-19)
(-0.0262891 0.0312014 3.66124e-20)
(-0.0356724 0.0434482 -4.60907e-19)
(-0.0395884 0.051216 -5.98567e-20)
(-0.0385571 0.0556642 3.36966e-19)
(-0.0330779 0.057682 -1.0032e-18)
(-0.0235802 0.0579527 -8.57094e-22)
(-0.0104223 0.0569971 4.66651e-19)
(0.00609767 0.0552096 4.37811e-19)
(0.0257262 0.052887 -1.93114e-19)
(0.048236 0.0502511 6.35822e-20)
(0.0734067 0.0474648 1.47342e-19)
(0.101006 0.0446445 -6.99221e-20)
(0.130774 0.0418717 -7.83871e-19)
(0.162406 0.0392099 1.98353e-19)
(0.195524 0.0367208 5.47441e-19)
(0.229567 0.0344835 -7.80741e-19)
(0.263869 0.0329158 3.80504e-19)
(0.29873 0.034305 1.02202e-19)
(0.33209 0.04234 5.16516e-19)
(-0.0116912 0.0127382 -8.47423e-20)
(-0.0272859 0.0301046 -4.03627e-19)
(-0.0359656 0.0414169 1.85777e-19)
(-0.0383127 0.0483131 9.38408e-22)
(-0.0349408 0.0520374 -8.081e-19)
(-0.0264133 0.0535293 1.2627e-19)
(-0.0132048 0.0535016 -2.38854e-20)
(0.00429284 0.0524946 1.62799e-19)
(0.0257513 0.0509181 -7.45058e-19)
(0.0508827 0.0490858 -5.22551e-20)
(0.079414 0.047239 -1.75058e-19)
(0.111062 0.0455655 1.55507e-19)
(0.145509 0.0442131 5.25751e-19)
(0.182378 0.0433008 -8.12619e-20)
(0.22121 0.0429318 3.16973e-20)
(0.261429 0.0431975 2.0704e-19)
(0.30222 0.0441522 -5.14478e-20)
(0.342543 0.0460444 4.19478e-19)
(0.382437 0.0510825 -2.43281e-19)
(0.420981 0.0635456 -3.80083e-19)
(-0.0123435 0.0124318 7.88968e-20)
(-0.0279431 0.0287937 1.94722e-20)
(-0.035464 0.039063 1.61699e-19)
(-0.0356607 0.0450235 3.95778e-19)
(-0.0292542 0.0480069 2.21965e-19)
(-0.0168779 0.0490051 2.30509e-20)
(0.000944361 0.048761 -2.645e-19)
(0.0237807 0.0478335 6.78944e-20)
(0.0512626 0.0466473 3.56416e-19)
(0.0830529 0.0455303 -6.03807e-19)
(0.118815 0.0447414 4.55527e-19)
(0.158186 0.0444921 -3.43289e-19)
(0.200751 0.0449648 2.91365e-19)
(0.24602 0.0463316 -6.28749e-19)
(0.293408 0.0487764 6.92304e-19)
(0.34219 0.0525112 -7.40658e-19)
(0.391367 0.0577651 -1.92857e-19)
(0.439541 0.0650436 6.0523e-19)
(0.485782 0.077027 -2.04564e-19)
(0.527776 0.0980266 9.26864e-20)
(-0.0129101 0.0120411 -5.95439e-20)
(-0.0281329 0.0272401 5.62198e-19)
(-0.0339348 0.0363771 -2.405e-21)
(-0.0312832 0.0413728 -3.48922e-19)
(-0.0210244 0.043643 -2.34313e-19)
(-0.00387261 0.0442305 4.29429e-19)
(0.019586 0.0439051 -1.70049e-19)
(0.0488614 0.0432397 -2.14008e-20)
(0.0835189 0.0426659 3.54015e-19)
(0.123139 0.0425142 -4.39759e-19)
(0.167284 0.0430431 4.81811e-20)
(0.215473 0.0444617 -5.71547e-19)
(0.267167 0.0469512 3.00977e-19)
(0.321768 0.0506877 -8.61199e-19)
(0.378626 0.0558739 1.37187e-18)
(0.437064 0.0627799 -2.51754e-19)
(0.4964 0.0718266 2.61293e-19)
(0.55616 0.0840567 -6.78349e-19)
(0.616604 0.102521 6.40071e-21)
(0.669093 0.125793 7.49914e-19)
(-0.0133419 0.0115446 -1.8014e-19)
(-0.0277026 0.0254138 1.55533e-19)
(-0.0311133 0.0333521 -5.73504e-19)
(-0.0247976 0.0373954 8.4821e-19)
(-0.00975013 0.0390339 -6.12249e-19)
(0.0132147 0.0393558 3.16172e-20)
(0.0434225 0.039151 -6.59818e-19)
(0.080289 0.0389968 4.717e-19)
(0.123265 0.0393182 -6.74201e-20)
(0.171789 0.0404276 -4.16088e-19)
(0.225252 0.0425534 -2.42733e-19)
(0.282981 0.0458603 2.56518e-19)
(0.344235 0.0504664 1.69558e-19)
(0.408225 0.0564593 -7.4993e-19)
(0.474143 0.0639114 2.70856e-19)
(0.541218 0.072893 -3.98846e-19)
(0.608776 0.0834853 4.85879e-20)
(0.676412 0.0959199 -3.36053e-19)
(0.744578 0.111246 1.32437e-19)
(0.806763 0.127718 -4.95429e-19)
(-0.0135789 0.0109212 5.12983e-19)
(-0.0264751 0.023289 -3.1092e-19)
(-0.0267053 0.0299906 2.56146e-19)
(-0.0157949 0.0331427 -3.23293e-19)
(0.00508443 0.0342939 5.41662e-19)
(0.034986 0.0345681 -9.41604e-21)
(0.0731037 0.0347638 -6.59003e-20)
(0.1187 0.0354482 -4.88792e-20)
(0.171038 0.0370196 3.0076e-19)
(0.229326 0.0397466 5.11252e-19)
(0.29269 0.0437944 -3.02039e-19)
(0.360166 0.0492435 2.9351e-19)
(0.430719 0.0561051 5.35734e-19)
(0.503275 0.0643332 -3.75652e-19)
(0.576771 0.073835 -7.60811e-19)
(0.650215 0.0844742 1.38942e-18)
(0.722744 0.0960632 -2.48213e-19)
(0.793692 0.108384 -7.97908e-20)
(0.862927 0.121588 8.50528e-19)
(0.926515 0.136333 -1.83169e-19)
(-0.0135511 0.0101533 -8.34481e-19)
(-0.0242522 0.020851 -5.55505e-19)
(-0.0203937 0.0263139 -2.13211e-19)
(-0.00384979 0.0286931 4.11447e-19)
(0.0239915 0.0295729 -9.29083e-19)
(0.0620035 0.0300974 4.81196e-19)
(0.109182 0.0310564 6.0979e-20)
(0.164553 0.0329852 6.16067e-20)
(0.227088 0.036228 -6.30241e-19)
(0.295661 0.0409758 -2.22578e-19)
(0.369023 0.0472933 -3.92127e-19)
(0.445831 0.0551388 3.78508e-19)
(0.524679 0.064383 1.07065e-19)
(0.604168 0.0748258 2.06156e-20)
(0.682967 0.0862113 4.90143e-19)
(0.759879 0.0982374 -4.97401e-19)
(0.833892 0.110557 -2.02677e-20)
(0.90422 0.122798 1.41022e-20)
(0.970381 0.134666 6.93868e-20)
(1.03075 0.148588 3.73425e-19)
(-0.01318 0.00922989 2.65592e-19)
(-0.0208182 0.0181029 6.83969e-19)
(-0.0118455 0.0223709 5.48835e-19)
(0.011465 0.0241616 -1.89264e-19)
(0.0474569 0.0250642 6.58505e-19)
(0.0947537 0.0262208 -5.5476e-20)
(0.152061 0.0283862 -7.81737e-20)
(0.218055 0.0320316 4.65084e-20)
(0.291296 0.0374086 6.36733e-19)
(0.370202 0.0445886 3.74055e-19)
(0.453058 0.0534926 1.09234e-19)
(0.538072 0.06392 6.86543e-21)
(0.623459 0.0755771 -7.22653e-19)
(0.707524 0.0881052 6.27943e-19)
(0.788753 0.101107 1.06924e-19)
(0.865872 0.114169 -1.77009e-19)
(0.937887 0.126874 -7.60073e-19)
(1.00411 0.138843 -6.24329e-20)
(1.06408 0.149583 2.9698e-19)
(1.11795 0.162476 -5.89898e-20)
(-0.0123797 0.00814817 -6.73225e-19)
(-0.0159449 0.0150711 2.81685e-19)
(-0.000721515 0.0182462 -1.3759e-18)
(0.0305624 0.0197081 5.63825e-19)
(0.0759119 0.0210116 -4.49743e-19)
(0.133605 0.023264 3.31645e-19)
(0.201937 0.027147 -5.15427e-19)
(0.279095 0.0330218 4.73062e-20)
(0.363099 0.0409969 -2.65648e-20)
(0.451803 0.0509722 1.38594e-19)
(0.542962 0.0626809 1.99926e-19)
(0.634339 0.0757328 -3.77768e-19)
(0.72383 0.0896603 2.00197e-19)
(0.809574 0.103961 1.83291e-19)
(0.890043 0.118138 7.87285e-19)
(0.964092 0.131728 -3.43016e-19)
(1.03097 0.144323 -2.25048e-19)
(1.0903 0.155612 3.77277e-19)
(1.14195 0.165119 1.97464e-19)
(1.1871 0.176454 -3.76961e-19)
(-0.0110586 0.00691593 5.89209e-19)
(-0.00939755 0.0118108 5.68077e-19)
(0.0133112 0.0140667 1.64131e-19)
(0.0538192 0.0155436 6.91197e-19)
(0.109701 0.0177111 3.39854e-19)
(0.178762 0.0215962 -6.1278e-19)
(0.25874 0.0277529 9.28448e-19)
(0.347185 0.0363717 -4.56955e-19)
(0.44145 0.0473552 4.56165e-19)
(0.538759 0.0603769 5.89912e-19)
(0.636343 0.0749433 -3.37061e-19)
(0.731607 0.090461 6.40985e-20)
(0.822287 0.106302 3.55913e-19)
(0.906567 0.121863 2.50073e-19)
(0.983138 0.136605 5.73316e-19)
(1.05122 0.15009 -2.308e-19)
(1.11049 0.161988 -2.96005e-20)
(1.16109 0.172107 3.56302e-19)
(1.20334 0.180126 -7.73233e-20)
(1.23898 0.18942 -7.63219e-23)
(-0.00912129 0.00555288 -3.04049e-19)
(-0.000941958 0.00840916 -1.11751e-18)
(0.0305649 0.0100052 2.63315e-19)
(0.081552 0.0119318 -2.00517e-19)
(0.149043 0.0155079 -4.63299e-19)
(0.230218 0.0216171 -3.31179e-19)
(0.322087 0.0306141 -2.04624e-19)
(0.421421 0.0424424 4.96806e-19)
(0.524822 0.0567302 -2.9504e-19)
(0.628886 0.0728754 -3.02306e-19)
(0.730424 0.0901388 -3.81562e-19)
(0.826669 0.107738 -6.29503e-20)
(0.915443 0.124931 -4.3283e-20)
(0.995235 0.141079 -8.77259e-19)
(1.0652 0.155682 4.2294e-19)
(1.12512 0.1684 -5.56555e-19)
(1.17527 0.179044 1.72416e-19)
(1.21632 0.187573 -1.31414e-18)
(1.24912 0.193887 3.96642e-19)
(1.27559 0.200884 4.95632e-19)
(-0.00647047 0.00409173 -7.64319e-20)
(0.0096464 0.00498774 5.44518e-19)
(0.0513131 0.00628172 3.49575e-20)
(0.113988 0.00918536 8.41028e-20)
(0.193995 0.0147841 -1.71046e-19)
(0.28771 0.023735 -2.90429e-21)
(0.391247 0.0361029 -4.44864e-21)
(0.500489 0.0514995 -1.03384e-19)
(0.611275 0.0692148 3.66818e-19)
(0.719681 0.0883431 1.41615e-19)
(0.822305 0.107913 6.42262e-19)
(0.916487 0.127004 -1.74884e-19)
(1.00043 0.144838 1.21698e-19)
(1.07318 0.160828 -1.53435e-20)
(1.13458 0.174597 3.35995e-19)
(1.18507 0.185967 2.04352e-19)
(1.22554 0.194931 4.89253e-19)
(1.25718 0.201606 -7.88492e-19)
(1.28125 0.206113 9.88169e-19)
(1.2997 0.210816 -3.12524e-19)
(-0.00301001 0.00257893 -7.08783e-19)
(0.022572 0.00170261 -2.2165e-19)
(0.075771 0.00316023 1.72967e-19)
(0.151236 0.00765688 1.09132e-19)
(0.244415 0.0159405 1.12236e-19)
(0.350691 0.0283368 1.13616e-19)
(0.465141 0.0445171 -2.8473e-19)
(0.582716 0.0636779 -1.17523e-19)
(0.698591 0.0847284 3.65937e-20)
(0.808544 0.106467 -3.48274e-19)
(0.909265 0.127746 -1.57131e-19)
(0.998526 0.147595 9.48725e-19)
(1.07519 0.165299 -2.44979e-19)
(1.13909 0.180416 -3.35782e-19)
(1.19082 0.192763 -1.58015e-19)
(1.23152 0.202363 1.10147e-19)
(1.26263 0.209399 1.32582e-19)
(1.2857 0.214139 -6.3498e-19)
(1.30226 0.216875 9.15368e-19)
(1.31418 0.219486 -7.92246e-19)
(0.00135169 0.00107505 -7.98454e-20)
(0.0380073 -0.001257 2.28137e-20)
(0.104074 0.000942064 -2.9431e-20)
(0.193257 0.00772374 4.28542e-19)
(0.299936 0.019371 2.38534e-20)
(0.418322 0.0357551 1.57573e-19)
(0.542372 0.0560461 -3.27746e-19)
(0.666175 0.0789604 -1.19024e-20)
(0.78446 0.103021 4.54973e-19)
(0.893033 0.126787 6.32163e-20)
(0.989038 0.149031 -3.95415e-19)
(1.07099 0.168846 -3.47984e-20)
(1.13865 0.185686 -3.22903e-19)
(1.19271 0.199332 3.22104e-19)
(1.23454 0.209833 4.44748e-19)
(1.26586 0.217429 -4.89089e-20)
(1.2885 0.22247 -5.90962e-20)
(1.30425 0.225344 1.80079e-19)
(1.31472 0.226453 -5.76042e-19)
(1.32162 0.22728 5.08397e-19)
(0.00669726 -0.000345301 8.06362e-20)
(0.0560792 -0.00367209 -5.18922e-19)
(0.136258 -4.39177e-05 1.3877e-19)
(0.239843 0.00976923 -4.31661e-19)
(0.359952 0.0254357 1.48555e-19)
(0.489492 0.0462375 -5.51725e-19)
(0.621313 0.0707485 2.2264e-19)
(0.748838 0.0971767 -7.10038e-20)
(0.866688 0.123707 -2.93918e-21)
(0.971094 0.148761 7.23276e-20)
(1.06001 0.17116 -2.62994e-19)
(1.13294 0.190183 -3.74705e-19)
(1.19064 0.205537 -7.64172e-20)
(1.23467 0.217277 -3.4304e-20)
(1.26705 0.225695 -8.68607e-20)
(1.28991 0.231222 -2.81629e-20)
(1.30533 0.234342 -8.42876e-20)
(1.31512 0.235517 -7.29126e-20)
(1.32086 0.235205 -2.15602e-19)
(1.32408 0.234582 3.41146e-19)
(0.0130954 -0.00159404 1.93032e-19)
(0.0768562 -0.00529911 -2.14499e-19)
(0.172238 0.000545675 4.61995e-19)
(0.2906 0.0141609 -1.99737e-19)
(0.423627 0.034433 5.33957e-19)
(0.562868 0.0599231 7.89807e-21)
(0.700209 0.088545 2.68282e-19)
(0.828736 0.118025 -7.21548e-20)
(0.943385 0.146313 2.99512e-19)
(1.04121 0.171834 2.13401e-20)
(1.12127 0.193598 7.10621e-19)
(1.1842 0.211171 -4.89894e-19)
(1.23173 0.224577 6.62365e-20)
(1.26617 0.234153 1.25902e-19)
(1.29001 0.240412 6.54456e-19)
(1.30563 0.243938 -2.34952e-19)
(1.31515 0.245298 -4.63919e-20)
(1.3203 0.244984 -2.44297e-19)
(1.32252 0.243474 -2.52675e-20)
(1.32311 0.241707 1.21939e-19)
(0.0205955 -0.00257101 -9.22436e-20)
(0.100335 -0.00587729 2.671e-19)
(0.211799 0.00305345 -2.74327e-19)
(0.344952 0.021228 1.08012e-19)
(0.489929 0.046577 -1.29886e-19)
(0.63698 0.07683 4.75945e-19)
(0.777317 0.10923 -6.65961e-20)
(0.90412 0.141111 1.62885e-19)
(1.0131 0.170338 -9.62243e-20)
(1.10248 0.195502 -2.7245e-21)
(1.17259 0.215925 1.09092e-19)
(1.22522 0.231539 -8.44903e-20)
(1.26297 0.242699 2.188e-19)
(1.28869 0.250007 -1.09201e-19)
(1.30517 0.254156 -4.77992e-19)
(1.31483 0.255828 4.74553e-19)
(1.3197 0.255628 -2.13052e-19)
(1.32135 0.254043 1.70008e-19)
(1.32102 0.25154 2.93638e-19)
(1.31981 0.248881 1.20564e-19)
(0.0292224 -0.00316615 2.29733e-19)
(0.126433 -0.00513787 -4.73616e-19)
(0.25459 0.00780433 9.05095e-20)
(0.402149 0.0312407 -6.5841e-20)
(0.557672 0.0619814 -2.6627e-19)
(0.710312 0.0968575 -2.08948e-19)
(0.85102 0.132497 -4.11986e-20)
(0.973571 0.165992 -3.7212e-19)
(1.07486 0.195305 -2.27485e-20)
(1.15455 0.219348 -6.90623e-20)
(1.21429 0.237856 -1.87094e-19)
(1.25689 0.251155 -4.16292e-20)
(1.28565 0.259922 -1.42777e-19)
(1.30377 0.264978 -2.37492e-19)
(1.31412 0.267142 2.42665e-19)
(1.31904 0.267146 3.30451e-20)
(1.32036 0.26559 6.58359e-20)
(1.31944 0.262927 -2.78074e-19)
(1.31731 0.259607 -7.17705e-21)
(1.31488 0.256243 -4.2742e-19)
(0.0389718 -0.00326273 2.51086e-19)
(0.154978 -0.00281513 1.67699e-19)
(0.300122 0.0150882 -2.71094e-19)
(0.461299 0.0443922 4.23295e-19)
(0.625592 0.0806525 -4.58319e-20)
(0.781402 0.119799 1.58265e-19)
(0.919936 0.157973 5.48215e-20)
(1.03606 0.192222 1.93923e-19)
(1.12821 0.220797 -1.51874e-19)
(1.19756 0.243063 5.0533e-20)
(1.24703 0.259223 -4.84297e-20)
(1.2803 0.269998 -2.11083e-20)
(1.30111 0.276344 4.04001e-20)
(1.31283 0.279245 -7.42288e-20)
(1.31823 0.279589 -2.26969e-20)
(1.31947 0.278113 -6.95223e-20)
(1.31815 0.275383 -1.12808e-19)
(1.31539 0.271803 7.29014e-20)
(1.31203 0.267801 -9.9518e-20)
(1.30879 0.263865 4.30579e-19)
(0.0498064 -0.00274131 -1.25105e-19)
(0.185707 0.00134154 -3.55172e-19)
(0.347786 0.0251435 -4.73231e-20)
(0.521406 0.0607865 -1.30945e-20)
(0.692408 0.102492 -1.5947e-19)
(0.848925 0.145362 -2.61968e-19)
(0.982977 0.185251 8.56655e-20)
(1.09097 0.219384 -1.17719e-19)
(1.17307 0.246475 -1.31683e-19)
(1.23198 0.266435 7.33047e-20)
(1.27172 0.279956 -5.53288e-20)
(1.2966 0.288118 -1.11766e-19)
(1.31061 0.292098 -3.62024e-21)
(1.31707 0.292984 7.57073e-20)
(1.31858 0.291683 -7.69885e-20)
(1.31705 0.2889 1.06855e-19)
(1.3138 0.285148 2.88247e-20)
(1.30976 0.280776 7.22656e-20)
(1.30557 0.276191 1.40396e-19)
(1.30179 0.271765 -1.20272e-19)
(0.0616537 -0.00148448 1.19368e-19)
(0.218271 0.00755507 -1.02566e-20)
(0.396868 0.0381425 5.38877e-20)
(0.581417 0.080432 -7.29329e-20)
(0.7569 0.127305 6.16857e-21)
(0.911756 0.173199 2.53385e-19)
(1.03937 0.213921 -1.66306e-19)
(1.13802 0.247107 7.04726e-20)
(1.2097 0.272076 6.21434e-20)
(1.2585 0.289337 -1.74216e-19)
(1.28933 0.30005 1.63643e-19)
(1.30689 0.305602 1.4942e-21)
(1.31522 0.307325 -1.15081e-19)
(1.31749 0.306352 1.38665e-19)
(1.31601 0.303568 -5.49745e-20)
(1.31242 0.299626 4.2005e-20)
(1.30781 0.294969 -4.6999e-20)
(1.30289 0.289893 -1.88626e-20)
(1.29816 0.284792 -1.63919e-19)
(1.29405 0.279921 5.02879e-20)
(0.0744051 0.00061799 -4.00523e-20)
(0.252241 0.0160086 1.07922e-19)
(0.446579 0.054181 1.69016e-20)
(0.640272 0.103242 7.07089e-20)
(0.81796 0.154821 3.38114e-20)
(0.969006 0.202925 1.58598e-20)
(1.08865 0.243594 8.97118e-20)
(1.17724 0.275078 -1.08491e-20)
(1.23855 0.297409 3.95392e-20)
(1.27789 0.3117 6.34618e-20)
(1.30079 0.319537 3.06045e-20)
(1.31214 0.322543 2.19683e-20)
(1.31586 0.322143 8.90465e-20)
(1.31484 0.319465 -8.61926e-20)
(1.31112 0.315343 1.84881e-20)
(1.30605 0.310356 -1.73171e-20)
(1.30049 0.30488 2.6765e-20)
(1.295 0.299162 2.24225e-20)
(1.28994 0.293586 4.67584e-20)
(1.28563 0.288288 1.91661e-21)
(0.0879173 0.00366387 2.37585e-20)
(0.287119 0.0268348 2.1702e-20)
(0.496086 0.073271 -3.00914e-20)
(0.696952 0.129039 1.88102e-20)
(0.874632 0.184704 1.06382e-20)
(1.02003 0.234141 -3.31159e-20)
(1.1306 0.273906 1.0918e-20)
(1.20888 0.303037 1.99648e-21)
(1.26023 0.322333 1.88197e-20)
(1.29097 0.333493 -5.05022e-20)
(1.30699 0.338461 -1.5852e-22)
(1.31319 0.339026 1.39909e-20)
(1.31323 0.336644 -1.11517e-20)
(1.30971 0.332402 1.12822e-20)
(1.30435 0.327057 2.94459e-20)
(1.29824 0.321114 -1.67607e-20)
(1.29205 0.314879 4.66553e-21)
(1.2862 0.308556 1.83595e-20)
(1.28096 0.302527 -3.02369e-20)
(1.27655 0.296802 1.45396e-20)
(0.102016 0.00773348 6.59193e-20)
(0.322359 0.0401073 -3.59423e-20)
(0.544546 0.0953389 4.23876e-20)
(0.75052 0.157567 -3.15573e-20)
(0.926142 0.216577 -1.41649e-20)
(1.06441 0.266454 4.29847e-21)
(1.16525 0.304529 -1.39044e-20)
(1.2333 0.330766 4.99972e-20)
(1.27538 0.346748 -4.16547e-20)
(1.29848 0.354704 9.78606e-21)
(1.30868 0.356862 -7.28549e-21)
(1.31069 0.355109 -4.75278e-20)
(1.30788 0.350883 4.61236e-20)
(1.3025 0.345197 1.7581e-20)
(1.29598 0.338723 -1.74801e-20)
(1.28917 0.331886 4.10713e-20)
(1.28259 0.324929 -5.98854e-22)
(1.27656 0.318024 -3.98617e-20)
(1.27125 0.311551 2.95188e-20)
(1.26683 0.305389 9.34011e-21)
(0.116497 0.0128852 -2.31109e-20)
(0.357379 0.0558353 6.69529e-20)
(0.591139 0.120228 7.74893e-20)
(0.800147 0.188503 -3.66217e-20)
(0.971897 0.250035 6.36771e-20)
(1.10193 0.299477 1.00861e-19)
(1.19275 0.33517 -5.59062e-21)
(1.251 0.358086 -1.73751e-20)
(1.28464 0.370571 8.56644e-20)
(1.30112 0.375319 4.18106e-20)
(1.30649 0.374763 -7.61221e-21)
(1.30519 0.370824 6.24428e-20)
(1.30023 0.364879 -6.70573e-20)
(1.29352 0.357849 1.04483e-19)
(1.2862 0.350316 -1.74315e-20)
(1.27896 0.342628 5.00708e-20)
(1.27219 0.334973 9.06563e-21)
(1.2661 0.327498 3.58586e-20)
(1.2608 0.32058 -3.41108e-20)
(1.25643 0.313965 8.29792e-21)
(0.131137 0.0191517 -3.59713e-20)
(0.391586 0.0739595 8.48427e-20)
(0.635089 0.147703 6.31507e-20)
(0.845133 0.22147 -9.59879e-21)
(1.01148 0.284659 9.87109e-20)
(1.13254 0.332843 -7.4039e-20)
(1.21341 0.365561 -5.84496e-21)
(1.26248 0.384836 6.52427e-20)
(1.28861 0.393731 2.06908e-20)
(1.29948 0.39532 2.90892e-20)
(1.30094 0.392166 -4.30095e-20)
(1.2971 0.386168 1.1239e-19)
(1.29057 0.378616 2.10618e-20)
(1.28295 0.370324 -9.97233e-20)
(1.27515 0.361785 1.46102e-19)
(1.26769 0.353276 -1.72511e-19)
(1.26086 0.344936 -7.9385e-20)
(1.25482 0.336896 1.31587e-20)
(1.2496 0.329529 7.70883e-20)
(1.24535 0.322444 -1.45895e-19)
(0.145694 0.0265366 -8.04229e-20)
(0.424394 0.0943532 -1.9003e-19)
(0.675697 0.17746 -1.64681e-19)
(0.884917 0.256049 -2.24184e-19)
(1.04464 0.320023 -1.27462e-19)
(1.15633 0.366199 -2.64381e-19)
(1.22757 0.395458 3.36101e-20)
(1.26825 0.410874 -1.40814e-19)
(1.28785 0.416155 -1.55279e-20)
(1.29406 0.414671 2.32141e-20)
(1.29245 0.409046 -5.11791e-20)
(1.28672 0.401112 6.42848e-20)