/*--------------------------------*- C++ -*----------------------------------*\
  =========                 |
  \\      /  F ield         | OpenFOAM: The Open Source CFD Toolbox
   \\    /   O peration     | Website:  https://openfoam.org
    \\  /    A nd           | Version:  6.0
     \\/     M anipulation  |
\*---------------------------------------------------------------------------*/
FoamFile
{
    version     2.0;
    format      ascii;
    class       volScalarField;
    location    "91";
    object      p;
}
// * * * * * * * * * * * * * * * * * * * * * * * * * * * * * * * * * * * * * //

dimensions      [0 2 -2 0 0 0 0];

internalField   nonuniform List<scalar> 
4000
(
-0.577413
-0.562081
-0.547778
-0.53096
-0.510337
-0.48677
-0.46156
-0.435953
-0.410933
-0.387143
-0.364916
-0.344363
-0.325456
-0.308096
-0.29215
-0.277478
-0.263951
-0.251414
-0.23965
-0.22897
-0.585887
-0.570166
-0.554839
-0.536154
-0.513104
-0.486982
-0.459422
-0.431844
-0.405265
-0.380285
-0.357165
-0.335945
-0.316542
-0.298809
-0.282582
-0.267702
-0.254023
-0.241368
-0.229507
-0.218834
-0.592062
-0.576047
-0.559626
-0.538951
-0.513416
-0.484784
-0.455011
-0.425645
-0.397705
-0.371722
-0.347877
-0.326138
-0.306363
-0.288368
-0.271961
-0.256961
-0.243211
-0.230513
-0.218625
-0.208033
-0.595553
-0.579334
-0.561762
-0.539016
-0.511001
-0.479973
-0.448177
-0.417247
-0.388166
-0.361381
-0.336986
-0.314878
-0.294863
-0.276722
-0.260237
-0.245213
-0.231479
-0.218814
-0.206975
-0.196541
-0.595994
-0.579661
-0.560899
-0.536053
-0.505632
-0.472389
-0.438808
-0.406566
-0.376581
-0.349204
-0.32444
-0.302119
-0.282001
-0.263834
-0.24738
-0.23243
-0.218801
-0.206252
-0.194541
-0.184342
-0.593058
-0.576697
-0.556732
-0.529812
-0.497128
-0.461903
-0.426812
-0.393533
-0.362893
-0.335139
-0.310192
-0.287818
-0.267736
-0.249668
-0.233356
-0.218584
-0.205153
-0.192807
-0.181307
-0.171422
-0.586458
-0.570157
-0.549006
-0.520098
-0.485354
-0.448428
-0.412133
-0.378105
-0.347064
-0.319153
-0.29421
-0.271946
-0.252044
-0.234202
-0.21815
-0.20366
-0.190526
-0.178472
-0.167269
-0.157777
-0.575961
-0.559806
-0.537521
-0.506768
-0.470221
-0.431915
-0.394741
-0.36026
-0.329077
-0.301228
-0.276477
-0.254486
-0.234909
-0.217424
-0.201751
-0.187653
-0.174916
-0.163246
-0.152431
-0.143412
-0.561391
-0.545471
-0.522141
-0.489738
-0.451691
-0.412352
-0.374635
-0.340002
-0.308931
-0.281362
-0.25699
-0.235436
-0.216329
-0.199334
-0.18416
-0.170567
-0.15833
-0.147142
-0.136807
-0.12834
-0.542638
-0.527042
-0.50279
-0.468982
-0.429774
-0.389765
-0.351846
-0.317356
-0.286649
-0.259572
-0.235762
-0.214807
-0.196315
-0.179941
-0.16539
-0.152415
-0.140785
-0.130181
-0.120425
-0.112592
-0.519654
-0.504477
-0.47946
-0.44453
-0.404523
-0.364217
-0.326433
-0.292373
-0.262271
-0.235892
-0.212821
-0.19262
-0.174886
-0.159265
-0.145458
-0.133218
-0.122305
-0.112391
-0.10332
-0.0962125
-0.492462
-0.477799
-0.452205
-0.416465
-0.376039
-0.335806
-0.298483
-0.265128
-0.235862
-0.210372
-0.188209
-0.168914
-0.152073
-0.137332
-0.124389
-0.112997
-0.102913
-0.0938021
-0.085532
-0.0792484
-0.461147
-0.4471
-0.421139
-0.384926
-0.344461
-0.304664
-0.268114
-0.235723
-0.207504
-0.183085
-0.161985
-0.143734
-0.127915
-0.114173
-0.102209
-0.0917776
-0.0826307
-0.0744396
-0.0670913
-0.0617159
-0.425864
-0.412534
-0.386437
-0.350096
-0.309971
-0.270956
-0.235471
-0.204281
-0.177305
-0.15412
-0.134224
-0.117141
-0.102459
-0.0898244
-0.0789459
-0.0695798
-0.0614806
-0.0543289
-0.0480177
-0.043592
-0.386825
-0.374315
-0.348325
-0.312206
-0.272788
-0.234881
-0.200728
-0.170955
-0.145395
-0.123586
-0.105014
-0.0892059
-0.0757556
-0.0643217
-0.0546214
-0.046419
-0.0394772
-0.0334883
-0.0283215
-0.0248772
-0.344301
-0.332714
-0.307081
-0.271528
-0.233166
-0.196667
-0.164089
-0.135923
-0.11193
-0.0916172
-0.0744675
-0.0600164
-0.0478711
-0.0377067
-0.0292572
-0.0223011
-0.0166144
-0.011907
-0.008024
-0.00574737
-0.298616
-0.288051
-0.263024
-0.228371
-0.191389
-0.156572
-0.125784
-0.0993904
-0.0770891
-0.0583692
-0.0427155
-0.0296779
-0.0188837
-0.0100328
-0.00288469
0.00276504
0.00712263
0.0104172
0.0127258
0.0133236
-0.250135
-0.240687
-0.216511
-0.183074
-0.147771
-0.114882
-0.0860714
-0.0615898
-0.041082
-0.024024
-0.00990859
0.00169555
0.0111338
0.0186705
0.0245092
0.0288332
0.0318047
0.0334565
0.0336038
0.031913
-0.199263
-0.191022
-0.16793
-0.136004
-0.102652
-0.0719062
-0.0452373
-0.0227857
-0.00415104
0.0112004
0.0237686
0.0339686
0.0421201
0.0484504
0.0531252
0.0562969
0.0580038
0.0578455
0.0552589
0.0513454
-0.146437
-0.139482
-0.117695
-0.0875487
-0.0563887
-0.0279779
-0.00359233
0.0167266
0.0334187
0.047027
0.0580497
0.0668979
0.0738871
0.0792432
0.083147
0.0857697
0.0870118
0.0859519
0.0818207
0.0777088
-0.0921153
-0.086518
-0.066236
-0.0381106
-0.00935392
0.0165582
0.0385372
0.0566311
0.0713115
0.0831272
0.0925751
0.100068
0.105936
0.110444
0.11386
0.116483
0.118279
0.118206
0.116009
0.120387
-0.036765
-0.0325869
-0.0139911
0.0119025
0.0380761
0.0613522
0.0808212
0.0966093
0.109212
0.119176
0.126989
0.133057
0.137706
0.141212
0.14386
0.145928
0.147401
0.14779
0.148054
0.154631
0.0191315
0.0218409
0.0385951
0.0620798
0.0855247
0.106056
0.122934
0.136351
0.146819
0.154878
0.161004
0.165589
0.168952
0.171369
0.173107
0.174399
0.175228
0.175292
0.175556
0.180913
0.0750917
0.0762964
0.0910808
0.112016
0.132622
0.15033
0.164559
0.175559
0.183848
0.189955
0.194335
0.197364
0.199347
0.200543
0.201198
0.201522
0.201511
0.200938
0.200591
0.204332
0.130637
0.130315
0.143031
0.161313
0.179006
0.193847
0.205397
0.213956
0.220043
0.224169
0.226768
0.228194
0.228731
0.228616
0.228069
0.227268
0.226196
0.224656
0.223368
0.225614
0.185299
0.183443
0.194022
0.209586
0.224331
0.23629
0.245161
0.251281
0.255165
0.257303
0.258107
0.257905
0.25696
0.255488
0.253684
0.251696
0.249492
0.246897
0.244594
0.245409
0.238619
0.235238
0.243644
0.256464
0.268263
0.277362
0.283582
0.28729
0.288994
0.289163
0.288181
0.286354
0.283922
0.281078
0.277994
0.274794
0.271434
0.267768
0.26445
0.263917
0.290159
0.285276
0.291504
0.301592
0.310485
0.316777
0.320402
0.321754
0.321328
0.319568
0.316835
0.313411
0.309513
0.305315
0.300968
0.296572
0.292081
0.287374
0.283068
0.281256
0.339497
0.333151
0.337229
0.344634
0.350695
0.354266
0.355383
0.354458
0.351972
0.348348
0.343921
0.338949
0.333631
0.32812
0.322547
0.316997
0.311421
0.305723
0.300473
0.29745
0.386234
0.378481
0.380464
0.385273
0.38861
0.389575
0.388295
0.385196
0.380746
0.375342
0.369298
0.362849
0.356173
0.349409
0.34267
0.336024
0.329424
0.322796
0.316652
0.312487
0.429997
0.420906
0.42088
0.423211
0.423964
0.422466
0.418925
0.413778
0.407477
0.400398
0.392829
0.384989
0.377036
0.369094
0.361259
0.353587
0.346035
0.338545
0.331563
0.326329
0.470436
0.460092
0.45817
0.458173
0.456511
0.452719
0.447075
0.440025
0.432004
0.423369
0.414386
0.405254
0.396118
0.387084
0.378235
0.369617
0.361191
0.35291
0.345154
0.338928
0.507233
0.495732
0.492053
0.489907
0.486024
0.480128
0.47256
0.463769
0.454177
0.444119
0.433844
0.423534
0.413317
0.403287
0.393516
0.384039
0.374822
0.365827
0.357362
0.350231
0.540095
0.52755
0.522274
0.518182
0.512297
0.504509
0.495212
0.484859
0.473857
0.462523
0.451089
0.439722
0.428538
0.417618
0.407022
0.396778
0.386858
0.377229
0.368128
0.360183
0.568765
0.555296
0.548606
0.542795
0.535146
0.525695
0.51488
0.503156
0.490917
0.478465
0.466017
0.453724
0.441693
0.429995
0.418678
0.407766
0.397233
0.387051
0.377393
0.368734
0.593015
0.578754
0.570849
0.563566
0.55441
0.543541
0.531432
0.51854
0.505248
0.491844
0.478532
0.465454
0.452703
0.440343
0.428415
0.416936
0.405886
0.395237
0.385104
0.375837
0.612653
0.597741
0.588836
0.580344
0.569952
0.557921
0.544753
0.530907
0.516755
0.502573
0.488556
0.474835
0.461497
0.448599
0.436173
0.424233
0.412763
0.401734
0.391213
0.381452
0.627519
0.612105
0.602428
0.593003
0.581659
0.568733
0.554751
0.540171
0.525357
0.510578
0.496019
0.481806
0.468019
0.454707
0.441901
0.429609
0.417819
0.4065
0.395682
0.385545
0.637493
0.621729
0.611517
0.601446
0.589443
0.575898
0.561353
0.546264
0.530994
0.515802
0.50087
0.486318
0.472221
0.458627
0.445559
0.433027
0.421018
0.409502
0.39848
0.38809
0.642488
0.626532
0.616029
0.605606
0.593243
0.579359
0.564507
0.549141
0.533622
0.518206
0.503072
0.488336
0.474073
0.460327
0.44712
0.43446
0.422336
0.410714
0.399587
0.389069
0.642454
0.626466
0.61592
0.605443
0.593023
0.579085
0.564183
0.548774
0.533216
0.517766
0.502603
0.487841
0.473556
0.459791
0.446568
0.433894
0.421758
0.410125
0.398989
0.388472
0.637379
0.621519
0.611179
0.600948
0.588775
0.575068
0.560375
0.545156
0.52977
0.514477
0.499457
0.484828
0.470665
0.457014
0.443898
0.431324
0.41928
0.407731
0.396684
0.386296
0.627289
0.611716
0.601828
0.592139
0.580516
0.567322
0.553097
0.5383
0.523296
0.50835
0.493646
0.479307
0.46541
0.452005
0.439119
0.42676
0.414912
0.403539
0.39268
0.382546
0.612245
0.597114
0.587921
0.579066
0.568289
0.555889
0.542386
0.528241
0.513826
0.499415
0.485197
0.471302
0.457814
0.444787
0.432251
0.420219
0.40867
0.397568
0.38699
0.377236
0.592344
0.577808
0.569542
0.561806
0.552165
0.540831
0.528299
0.515031
0.501409
0.487715
0.474151
0.460853
0.447914
0.435393
0.423327
0.411733
0.400584
0.389844
0.379642
0.370387
0.567722
0.553925
0.54681
0.540464
0.532239
0.522235
0.510916
0.498744
0.486111
0.473314
0.460565
0.448013
0.435758
0.423869
0.41239
0.401342
0.390694
0.380406
0.370667
0.362028
0.538547
0.525626
0.519872
0.515173
0.508631
0.500211
0.490337
0.47947
0.468016
0.456287
0.444511
0.432848
0.421408
0.410271
0.399492
0.389096
0.379046
0.369297
0.360108
0.352194
0.505023
0.493105
0.488905
0.486093
0.481485
0.474888
0.466678
0.457317
0.447223
0.436727
0.426072
0.415433
0.404935
0.394667
0.384695
0.375052
0.365695
0.356572
0.348013
0.340927
0.467385
0.456588
0.454116
0.45341
0.450968
0.446418
0.440079
0.43241
0.423846
0.414736
0.405342
0.395858
0.386419
0.377129
0.368068
0.359275
0.350703
0.342288
0.334435
0.328273
0.425903
0.416331
0.415739
0.417335
0.417269
0.41497
0.410692
0.404889
0.398011
0.39043
0.382428
0.374216
0.365947
0.357738
0.349683
0.341832
0.334132
0.326506
0.31943
0.31428
0.380874
0.372619
0.374036
0.378102
0.380599
0.380735
0.37869
0.374909
0.36986
0.363936
0.357444
0.350611
0.343611
0.336576
0.329614
0.322791
0.316045
0.309284
0.303052
0.298998
0.332625
0.325765
0.329295
0.33597
0.341188
0.343919
0.344258
0.342637
0.339542
0.335389
0.330509
0.325151
0.319507
0.313726
0.307936
0.302215
0.296501
0.290678
0.285349
0.282468
0.281512
0.276111
0.281827
0.291218
0.299288
0.304747
0.307596
0.308254
0.307219
0.304933
0.30175
0.297945
0.293729
0.28927
0.284715
0.280161
0.275546
0.270726
0.266355
0.264723
0.227915
0.224019
0.231968
0.244149
0.255166
0.26346
0.268922
0.271952
0.273063
0.272719
0.271302
0.269109
0.266373
0.263284
0.260009
0.256669
0.253204
0.249442
0.246076
0.245766
0.172237
0.169879
0.180076
0.195083
0.209111
0.220313
0.228466
0.233939
0.237257
0.23891
0.239303
0.238759
0.237534
0.235839
0.233867
0.231763
0.229477
0.226806
0.224477
0.225564
0.114902
0.1141
0.126528
0.144361
0.161428
0.175583
0.186472
0.194434
0.199999
0.203678
0.205903
0.20702
0.207307
0.206999
0.206313
0.205424
0.204298
0.202704
0.201412
0.203984
0.0563552
0.0571095
0.0717198
0.0923409
0.112438
0.129557
0.143204
0.153673
0.161499
0.167212
0.171265
0.174029
0.175802
0.176841
0.17739
0.177658
0.177621
0.177015
0.17668
0.180807
-0.00294605
-0.000649658
0.0160649
0.0393981
0.0624799
0.0825431
0.0989396
0.111913
0.121993
0.129725
0.135584
0.139956
0.143158
0.145458
0.147126
0.148394
0.149221
0.149262
0.149547
0.155366
-0.0625315
-0.0587218
-0.0400116
-0.0140793
0.0119063
0.0348624
0.0539749
0.0694251
0.0817325
0.091452
0.0990711
0.104991
0.109533
0.11297
0.115587
0.117666
0.11917
0.119548
0.119815
0.126886
-0.121924
-0.116644
-0.0960753
-0.0676929
-0.0389186
-0.0131497
0.00862258
0.0265069
0.0410045
0.0526747
0.0620158
0.0694384
0.075267
0.0797622
0.083191
0.0858553
0.0876983
0.087583
0.085236
0.0899457
-0.180643
-0.17395
-0.151686
-0.121037
-0.0896222
-0.0611481
-0.0367928
-0.0165316
0.000110188
0.0136897
0.0247083
0.0335754
0.0406011
0.0460041
0.0499583
0.0526272
0.0538869
0.0527696
0.0485015
0.0441533
-0.23822
-0.230181
-0.206407
-0.173705
-0.13983
-0.108783
-0.0819403
-0.0593696
-0.0406303
-0.0251704
-0.0124837
-0.00215487
0.0061324
0.0126003
0.0174094
0.0207066
0.0225194
0.0224407
0.0199158
0.0159671
-0.294191
-0.284884
-0.259807
-0.225296
-0.18917
-0.15571
-0.126491
-0.101687
-0.0808951
-0.0635681
-0.0491883
-0.0373208
-0.02762
-0.0198225
-0.0137256
-0.00914702
-0.00592399
-0.00401593
-0.00360883
-0.00511356
-0.34811
-0.337622
-0.311468
-0.275419
-0.237282
-0.201593
-0.170131
-0.143184
-0.120394
-0.101221
-0.0851347
-0.0716777
-0.0604738
-0.0512207
-0.0436767
-0.0376358
-0.0328862
-0.0291871
-0.0264816
-0.0256013
-0.399556
-0.387985
-0.360991
-0.3237
-0.283823
-0.246117
-0.212571
-0.183592
-0.15888
-0.137907
-0.120136
-0.105091
-0.0923724
-0.0816512
-0.0726589
-0.0651716
-0.0589572
-0.0537101
-0.049306
-0.0466706
-0.448143
-0.435591
-0.408006
-0.369792
-0.328471
-0.288992
-0.253545
-0.222672
-0.196139
-0.173441
-0.154038
-0.137443
-0.12324
-0.111082
-0.10068
-0.0917966
-0.0841847
-0.0775177
-0.0716957
-0.0677794
-0.493525
-0.480098
-0.452176
-0.413372
-0.370934
-0.329953
-0.292818
-0.260214
-0.231985
-0.20766
-0.186705
-0.168626
-0.152997
-0.139456
-0.127706
-0.1175
-0.10858
-0.100607
-0.0935014
-0.0884674
-0.5354
-0.521207
-0.493199
-0.454153
-0.410945
-0.368761
-0.330178
-0.296032
-0.266258
-0.240428
-0.218023
-0.198549
-0.181575
-0.166734
-0.153719
-0.142279
-0.132155
-0.122997
-0.114716
-0.108596
-0.573517
-0.558667
-0.53082
-0.491882
-0.448271
-0.405208
-0.365443
-0.329967
-0.29882
-0.271627
-0.247895
-0.227137
-0.208921
-0.192876
-0.178694
-0.166121
-0.154898
-0.144671
-0.13533
-0.128168
-0.607682
-0.592284
-0.564831
-0.526349
-0.482712
-0.439115
-0.398457
-0.361886
-0.329557
-0.301164
-0.276244
-0.254326
-0.234984
-0.217846
-0.202602
-0.188998
-0.17678
-0.165596
-0.155312
-0.147188
-0.63776
-0.621918
-0.595075
-0.557385
-0.514105
-0.470334
-0.42909
-0.391679
-0.358378
-0.328959
-0.303004
-0.280063
-0.259718
-0.241604
-0.22541
-0.210881
-0.197771
-0.185736
-0.174617
-0.165621
-0.663677
-0.647491
-0.621451
-0.584869
-0.542324
-0.498748
-0.457241
-0.419259
-0.385209
-0.354953
-0.328126
-0.304305
-0.283088
-0.264116
-0.247084
-0.231738
-0.217837
-0.20505
-0.193194
-0.183407
-0.685422
-0.668989
-0.643914
-0.608727
-0.567282
-0.524271
-0.482835
-0.444563
-0.409999
-0.379103
-0.351572
-0.327019
-0.305064
-0.285357
-0.267599
-0.25154
-0.236947
-0.2235
-0.210997
-0.200492
-0.703044
-0.686458
-0.662478
-0.628937
-0.588934
-0.546852
-0.505823
-0.467551
-0.432715
-0.401383
-0.373321
-0.348189
-0.325629
-0.305308
-0.286935
-0.270265
-0.255073
-0.241055
-0.227989
-0.216836
-0.716656
-0.700003
-0.677216
-0.645529
-0.607277
-0.566473
-0.526184
-0.488206
-0.453347
-0.421785
-0.393369
-0.367809
-0.344777
-0.323963
-0.305083
-0.2879
-0.272199
-0.257694
-0.244145
-0.232414
-0.726424
-0.709792
-0.68826
-0.658582
-0.622349
-0.583147
-0.543925
-0.506533
-0.471899
-0.440317
-0.411724
-0.385887
-0.362516
-0.341324
-0.322043
-0.304443
-0.28832
-0.273405
-0.259451
-0.24721
-0.732569
-0.716041
-0.695794
-0.668229
-0.634234
-0.596927
-0.559078
-0.522559
-0.488399
-0.457007
-0.428412
-0.402447
-0.378867
-0.357411
-0.337829
-0.319903
-0.303439
-0.28819
-0.273901
-0.26122
-0.735358
-0.719018
-0.700055
-0.674651
-0.643057
-0.607892
-0.571701
-0.536329
-0.502887
-0.471892
-0.443469
-0.417523
-0.393858
-0.372247
-0.352462
-0.334296
-0.317569
-0.302054
-0.287498
-0.274442
-0.735097
-0.719028
-0.701322
-0.678076
-0.648985
-0.616166
-0.581884
-0.547918
-0.51543
-0.485035
-0.456955
-0.43117
-0.407542
-0.38588
-0.365982
-0.347658
-0.33074
-0.315023
-0.300261
-0.286891
-0.732121
-0.716405
-0.699912
-0.678771
-0.652225
-0.621897
-0.589738
-0.557412
-0.526102
-0.496505
-0.468933
-0.443449
-0.419973
-0.398359
-0.378433
-0.360026
-0.342984
-0.327125
-0.312213
-0.298586
0.0659347
0.0340975
0.0118129
0.00282468
-0.00480048
-0.0162083
-0.0294808
-0.0422346
-0.0540407
-0.0654005
-0.0766401
-0.0877454
-0.0986012
-0.109146
-0.119379
-0.129321
-0.138992
-0.148412
-0.157604
-0.166599
0.0134024
0.000925024
-0.00927001
-0.0159258
-0.0212767
-0.0274325
-0.034507
-0.0416158
-0.0482182
-0.0543547
-0.0602421
-0.0659827
-0.0715585
-0.0769259
-0.0820669
-0.0869873
-0.0916988
-0.0962093
-0.100522
-0.104639
0.00798375
0.00327809
7.26334e-05
-0.0035067
-0.00749872
-0.0115584
-0.0155816
-0.0195596
-0.0234627
-0.0272747
-0.0310151
-0.0347112
-0.038374
-0.0420012
-0.0455896
-0.0491413
-0.0526621
-0.0561589
-0.059638
-0.0631049
0.00684496
0.00425494
0.00249118
-0.000128331
-0.00340408
-0.00668529
-0.00972753
-0.0126152
-0.0154598
-0.018288
-0.0210802
-0.0238196
-0.0265039
-0.0291367
-0.0317208
-0.0342574
-0.0367476
-0.0391928
-0.041595
-0.0439559
0.0065405
0.00441635
0.00318462
0.00155714
-0.000566104
-0.0027769
-0.00483175
-0.00674403
-0.00860386
-0.010457
-0.0123009
-0.0141214
-0.015913
-0.0176787
-0.0194238
-0.0211522
-0.0228665
-0.0245687
-0.026261
-0.0279458
0.00682804
0.00510246
0.00422182
0.00319068
0.0017978
0.000275484
-0.00118305
-0.00255258
-0.00388426
-0.00521568
-0.00655215
-0.00788511
-0.00920832
-0.0105213
-0.011826
-0.0131244
-0.0144171
-0.0157047
-0.0169874
-0.0182657
0.00802576
0.00670582
0.00605808
0.00534774
0.00438143
0.00329902
0.00223958
0.00123432
0.000255826
-0.000721598
-0.00170409
-0.00268714
-0.00366618
-0.00463995
-0.00560921
-0.00657496
-0.00753773
-0.00849777
-0.00945529
-0.0104106
0.00955045
0.00858606
0.00806523
0.00749681
0.00675796
0.00593852
0.00512808
0.00434923
0.00358688
0.0028253
0.00206006
0.00129353
0.000528597
-0.000233675
-0.000993481
-0.00175126
-0.00250725
-0.00326149
-0.004014
-0.00476487
0.0110029
0.0103449
0.00991672
0.00942096
0.0088156
0.00816807
0.00753025
0.00691192
0.00630318
0.00569531
0.00508618
0.00447727
0.00387017
0.00326547
0.00266307
0.00206272
0.00146427
0.000867643
0.000272792
-0.000320411
0.0121413
0.011716
0.0113658
0.0109269
0.010417
0.00989315
0.009383
0.00888621
0.00839471
0.00790384
0.00741322
0.00692398
0.00643695
0.00595229
0.00546984
0.00498942
0.00451092
0.00403426
0.00355935
0.00308606
0.0129468
0.0126832
0.0124052
0.0120307
0.0116083
0.0111878
0.0107832
0.0103888
0.0099973
0.00960615
0.00921587
0.00882746
0.00844129
0.00805729
0.00767525
0.00729497
0.00691635
0.0065393
0.0061637
0.00578941
0.0134911
0.0133392
0.0131294
0.0128251
0.0124867
0.0121572
0.0118434
0.0115375
0.011233
0.0109285
0.0106246
0.0103224
0.0100219
0.00972288
0.00942513
0.00912844
0.00883267
0.00853772
0.00824345
0.0079497
0.0138875
0.0138251
0.0136833
0.0134507
0.0131917
0.0129444
0.012712
0.0124858
0.0122601
0.0120337
0.0118076
0.0115824
0.0113581
0.0111344
0.010911
0.0106876
0.0104641
0.0102404
0.0100162
0.00979136
0.0142038
0.0142299
0.0141586
0.013995
0.013809
0.0136371
0.0134801
0.0133282
0.0131758
0.013022
0.0128675
0.0127129
0.012558
0.0124024
0.0122455
0.0120872
0.0119273
0.0117655
0.0116016
0.0114355
0.014481
0.0146241
0.014646
0.0145639
0.0144591
0.014371
0.0142988
0.0142308
0.0141601
0.0140856
0.0140083
0.0139284
0.0138455
0.013759
0.0136685
0.0135736
0.0134741
0.0133698
0.0132606
0.0131464
0.0146143
0.0148674
0.0150245
0.0150842
0.0151131
0.0151479
0.0151906
0.0152315
0.0152639
0.0152861
0.0152986
0.0153018
0.0152956
0.0152796
0.0152537
0.0152178
0.0151719
0.0151162
0.0150509
0.0149763
0.0151356
0.015474
0.0158693
0.0162274
0.0165245
0.0167743
0.0169922
0.0171843
0.0173503
0.0174891
0.017601
0.0176871
0.0177491
0.0177883
0.0178059
0.0178032
0.0177814
0.0177417
0.0176854
0.0176136
0.0179861
0.0185958
0.0192323
0.019764
0.0201861
0.020529
0.0208141
0.0210493
0.021237
0.0213793
0.0214791
0.0215401
0.0215658
0.0215594
0.0215239
0.021462
0.0213763
0.0212691
0.0211427
0.0209992
0.0295219
0.0332497
0.0346127
0.0340985
0.0331691
0.0324971
0.0320672
0.0316949
0.0312842
0.0308324
0.0303646
0.0298967
0.0294316
0.0289678
0.0285045
0.0280424
0.0275827
0.0271265
0.0266747
0.0262279
0.0414015
0.05346
0.0571592
0.0546897
0.0510828
0.0485204
0.0468919
0.0455639
0.0442123
0.0428206
0.0414617
0.0401773
0.0389691
0.0378243
0.0367334
0.0356919
0.034698
0.0337499
0.0328451
0.031981
0.117088
0.117554
0.118506
0.119943
0.12186
0.124279
0.127213
0.130699
0.13474
0.139367
0.144539
0.150246
0.156328
0.16262
0.168614
0.173585
0.175818
0.172306
0.156073
0.112321
0.110101
0.110442
0.11108
0.112043
0.11329
0.114855
0.11666
0.118758
0.120998
0.123445
0.12581
0.12815
0.129911
0.13108
0.130584
0.128139
0.121552
0.109512
0.0865602
0.0462115
0.101642
0.101815
0.102128
0.102587
0.103168
0.103857
0.104593
0.105339
0.105981
0.106445
0.106529
0.106082
0.104754
0.102243
0.0979534
0.0913114
0.0813891
0.0673529
0.0484206
0.0244954
0.0923189
0.0923381
0.0923655
0.0923935
0.0924092
0.092374
0.0922434
0.0919384
0.0913823
0.0904475
0.0890154
0.0868885
0.0838945
0.0797526
0.0742623
0.0671149
0.0582098
0.047311
0.0342595
0.0178095
0.0827527
0.0826626
0.0824826
0.0822018
0.0818144
0.0812789
0.0805637
0.0795914
0.078312
0.0766151
0.0744409
0.0716474
0.0681831
0.0638947
0.0587812
0.0527055
0.0456998
0.0374739
0.0276741
0.0150978
0.073458
0.0733054
0.0730022
0.0725405
0.0719174
0.0711016
0.0700716
0.0687716
0.0671721
0.0652025
0.0628391
0.0600059
0.0567011
0.0528512
0.0484804
0.0434891
0.0378536
0.0312987
0.0235056
0.0135966
0.0647827
0.0646038
0.0642474
0.0637084
0.0629858
0.0620599
0.0609183
0.0595272
0.0578719
0.055913
0.0536437
0.0510238
0.0480589
0.0447035
0.0409662
0.0367713
0.0320945
0.0267679
0.0206152
0.0130913
0.0569113
0.0567298
0.0563677
0.0558213
0.0550905
0.054164
0.0530363
0.0516886
0.0501148
0.0482929
0.0462208
0.0438739
0.0412553
0.0383345
0.035118
0.0315648
0.0276807
0.0233934
0.0186432
0.0131451
0.049902
0.0497311
0.0493903
0.048876
0.0481882
0.0473205
0.0462715
0.045031
0.0435975
0.0419577
0.040112
0.0380443
0.0357589
0.0332382
0.0304949
0.0275131
0.0243186
0.0208949
0.0172718
0.0134054
0.0437316
0.0435777
0.0432706
0.0428067
0.0421856
0.0414034
0.040461
0.0393529
0.0380809
0.0366374
0.0350258
0.0332367
0.0312779
0.0291406
0.0268419
0.0243776
0.0217831
0.0190723
0.0163337
0.0136773
0.038333
0.0381979
0.0379285
0.037521
0.0369747
0.0362867
0.0354594
0.0344905
0.0333843
0.0321377
0.0307571
0.0292387
0.0275936
0.025818
0.0239307
0.0219315
0.0198592
0.0177412
0.0156935
0.0138943
0.033621
0.0335042
0.0332717
0.0329195
0.0324469
0.0318522
0.0311386
0.0303061
0.0293606
0.0283019
0.0271386
0.0258707
0.0245119
0.0230629
0.0215441
0.019958
0.0183418
0.0167249
0.0152264
0.0140414
0.0295102
0.0294092
0.0292088
0.0289054
0.0284986
0.0279881
0.0273787
0.0266723
0.0258759
0.0249906
0.0240252
0.0229808
0.0218718
0.0207026
0.0194977
0.0182658
0.0170458
0.0158649
0.0148323
0.0141353
0.0259276
0.0258379
0.0256607
0.0253931
0.0250356
0.0245901
0.0240635
0.0234608
0.0227919
0.0220599
0.0212737
0.0204329
0.0195479
0.0186202
0.0176741
0.0167265
0.0158294
0.0150235
0.0144159
0.0141667
0.0228222
0.0227373
0.0225706
0.0223195
0.0219859
0.021573
0.021091
0.0205489
0.019962
0.0193404
0.0186997
0.0180432
0.0173797
0.0166994
0.0160103
0.015313
0.0146641
0.0141326
0.0138786
0.0140966
0.0201712
0.0200839
0.0199132
0.0196562
0.0193154
0.0188939
0.0184034
0.0178543
0.0172686
0.0166639
0.0160734
0.0155183
0.0150328
0.0146158
0.01427
0.013944
0.0136364
0.0133646
0.0133572
0.0139445
0.0179805
0.0178852
0.017698
0.0174152
0.0170389
0.0165697
0.0160171
0.0153874
0.0147011
0.0139753
0.0132535
0.0125776
0.0120312
0.0116812
0.0116202
0.0118419
0.0123
0.0127995
0.0133473
0.0143436
0.0162783
0.0161741
0.0159634
0.0156442
0.0152153
0.0146763
0.0140275
0.0132699
0.0124075
0.0114471
0.0104068
0.00932228
0.00826816
0.00737785
0.00687461
0.00706167
0.00824851
0.0105266
0.0135031
0.0163401
0.0151077
0.0149958
0.0147627
0.0144089
0.013929
0.0133224
0.0125782
0.0116934
0.010649
0.00943885
0.00803264
0.00642579
0.00458956
0.00257591
0.000488918
-0.00125629
-0.00188322
0.000130119
0.0065836
0.0187278
0.0145123
0.0143935
0.014147
0.0137716
0.0132618
0.0126128
0.0118116
0.0108461
0.00969101
0.00832036
0.00668505
0.00472962
0.0023562
-0.000548095
-0.00414597
-0.00853075
-0.0135186
-0.0177227
-0.0161852
0.00674015
0.123513
0.12401
0.125129
0.126779
0.129101
0.131999
0.135708
0.140093
0.145522
0.151799
0.159497
0.168324
0.1792
0.191668
0.207296
0.225299
0.248563
0.275587
0.311963
0.354446
0.123595
0.124093
0.125214
0.126867
0.129193
0.132095
0.135811
0.140203
0.14564
0.151926
0.159633
0.168471
0.179353
0.191829
0.207448
0.225442
0.248651
0.275594
0.311772
0.353914
0.123645
0.124143
0.125266
0.126921
0.12925
0.132156
0.135876
0.140272
0.145713
0.152003
0.15971
0.168548
0.179418
0.191882
0.207452
0.225385
0.248441
0.275162
0.310897
0.352291
0.123663
0.124162
0.125286
0.126942
0.129273
0.132181
0.135902
0.1403
0.145741
0.152029
0.159728
0.168557
0.179398
0.191826
0.207309
0.225128
0.247937
0.274298
0.309345
0.349589
0.12365
0.124149
0.125274
0.126931
0.129262
0.13217
0.135891
0.140287
0.145723
0.152004
0.159689
0.168496
0.179293
0.191664
0.207021
0.224676
0.247142
0.273011
0.307127
0.345825
0.123605
0.124105
0.125229
0.126886
0.129217
0.132123
0.135842
0.140233
0.145662
0.15193
0.159593
0.168368
0.179105
0.191396
0.206591
0.224033
0.246063
0.27131
0.304253
0.341024
0.123529
0.124029
0.125153
0.126809
0.129138
0.132042
0.135756
0.140139
0.145556
0.151807
0.15944
0.168174
0.178836
0.191025
0.206024
0.223202
0.244707
0.269208
0.300738
0.335213
0.123421
0.123922
0.125045
0.1267
0.129026
0.131926
0.135633
0.140006
0.145408
0.151635
0.159233
0.167913
0.178487
0.190553
0.205322
0.22219
0.243084
0.26672
0.2966
0.328427
0.123283
0.123784
0.124906
0.126559
0.128881
0.131775
0.135474
0.139834
0.145218
0.151416
0.158972
0.167589
0.178061
0.189982
0.204493
0.221002
0.241204
0.263862
0.291856
0.320704
0.123114
0.123616
0.124736
0.126386
0.128704
0.131591
0.13528
0.139624
0.144986
0.15115
0.158658
0.167202
0.177562
0.189316
0.20354
0.219644
0.239079
0.260652
0.286529
0.312088
0.122915
0.123417
0.124536
0.126183
0.128496
0.131375
0.135051
0.139377
0.144714
0.15084
0.158295
0.166755
0.176991
0.188557
0.202472
0.218125
0.236723
0.257107
0.280643
0.30263
0.122686
0.123189
0.124306
0.12595
0.128256
0.131126
0.134788
0.139094
0.144403
0.150486
0.157882
0.166249
0.176352
0.187709
0.201293
0.216449
0.234152
0.253246
0.274227
0.292382
0.122427
0.122932
0.124048
0.125688
0.127986
0.130846
0.134492
0.138776
0.144054
0.150089
0.157422
0.165687
0.175648
0.186776
0.200013
0.214625
0.231383
0.249088
0.26731
0.2814
0.12214
0.122647
0.12376
0.125397
0.127687
0.130535
0.134165
0.138424
0.143668
0.149652
0.156917
0.165071
0.174883
0.185763
0.198637
0.212662
0.228436
0.24465
0.259932
0.269739
0.121824
0.122333
0.123445
0.125078
0.12736
0.130196
0.133806
0.138039
0.143247
0.149176
0.156368
0.164403
0.174058
0.184672
0.197172
0.210566
0.22533
0.239949
0.252136
0.257449
0.12148
0.121993
0.123103
0.124732
0.127004
0.129826
0.133417
0.13762
0.142789
0.148659
0.155773
0.163682
0.173172
0.183502
0.195618
0.208341
0.22208
0.234999
0.243981
0.244568
0.121109
0.121626
0.122735
0.12436
0.126622
0.12943
0.132999
0.137172
0.1423
0.148106
0.155138
0.162913
0.172231
0.182263
0.193985
0.205998
0.218706
0.229813
0.235529
0.231126
0.120711
0.121234
0.122344
0.123967
0.12622
0.129018
0.132567
0.136713
0.141803
0.14755
0.154504
0.162147
0.171297
0.181023
0.192353
0.20362
0.215296
0.224442
0.226825
0.217012
0.120286
0.120817
0.12193
0.123554
0.125803
0.128593
0.132128
0.136255
0.141314
0.147011
0.153897
0.161417
0.17041
0.179832
0.190776
0.201266
0.211908
0.218919
0.217892
0.201503
0.119831
0.120364
0.12147
0.123086
0.125313
0.128078
0.131569
0.135648
0.140627
0.146235
0.152977
0.16032
0.169045
0.178104
0.188529
0.198223
0.207775
0.212807
0.208909
0.184912
0.115612
0.116117
0.117137
0.118618
0.12065
0.123174
0.126351
0.130058
0.134574
0.139636
0.145719
0.152273
0.160075
0.16798
0.177115
0.185057
0.192746
0.194926
0.188021
0.158754
0.116264
0.116769
0.117797
0.119293
0.121355
0.123914
0.127149
0.130921
0.135537
0.140716
0.146976
0.153746
0.161868
0.170192
0.17993
0.188752
0.19767
0.201995
0.198248
0.177235
0.116889
0.117387
0.118416
0.119917
0.121993
0.124572
0.127836
0.131647
0.136319
0.141574
0.147938
0.154868
0.163199
0.17188
0.182077
0.191765
0.201835
0.208493
0.208432
0.194568
0.11749
0.117983
0.119015
0.120524
0.122618
0.12522
0.128519
0.132375
0.137108
0.142449
0.148924
0.156023
0.16457
0.17361
0.184268
0.194791
0.206
0.214802
0.218298
0.210256
0.118067
0.118556
0.119593
0.121113
0.123226
0.125854
0.12919
0.133094
0.137892
0.143322
0.149913
0.157184
0.165951
0.175346
0.186466
0.197788
0.210134
0.220919
0.227878
0.225196
0.11862
0.119106
0.120148
0.121678
0.123811
0.126463
0.129836
0.133787
0.138648
0.144164
0.150867
0.158302
0.167283
0.177018
0.188591
0.200675
0.214148
0.226798
0.237149
0.239534
0.119146
0.119631
0.120679
0.122219
0.12437
0.127047
0.130454
0.13445
0.139371
0.144969
0.151779
0.159372
0.168557
0.178615
0.19063
0.203437
0.218017
0.232425
0.246047
0.253238
0.119646
0.12013
0.121184
0.122735
0.124903
0.127604
0.131044
0.135083
0.140061
0.145737
0.152649
0.160393
0.169775
0.18014
0.192582
0.206069
0.221729
0.237786
0.254514
0.266272
0.120119
0.120603
0.121663
0.123224
0.12541
0.128133
0.131605
0.135685
0.140717
0.146469
0.153478
0.161364
0.170935
0.181588
0.194443
0.208566
0.225264
0.242863
0.262505
0.278592
0.120565
0.121049
0.122116
0.123687
0.125889
0.128633
0.132135
0.136255
0.141339
0.147161
0.154263
0.162282
0.172033
0.182955
0.196205
0.210918
0.228603
0.24764
0.269984
0.290147
0.120982
0.121467
0.12254
0.124121
0.126339
0.129104
0.132634
0.136791
0.141924
0.147813
0.155002
0.163145
0.173066
0.184237
0.19786
0.213116
0.231729
0.252097
0.276922
0.300884
0.121371
0.121857
0.122936
0.124526
0.126759
0.129543
0.133101
0.137293
0.142472
0.148422
0.155693
0.163951
0.174031
0.185429
0.199402
0.215155
0.234625
0.256216
0.283289
0.310751
0.121731
0.122218
0.123303
0.124902
0.127149
0.129952
0.133534
0.137758
0.14298
0.148988
0.156334
0.164696
0.174924
0.186528
0.200824
0.217026
0.237277
0.259981
0.289064
0.319702
0.122061
0.12255
0.12364
0.125248