/*--------------------------------*- C++ -*----------------------------------*\
  =========                 |
  \\      /  F ield         | OpenFOAM: The Open Source CFD Toolbox
   \\    /   O peration     | Website:  https://openfoam.org
    \\  /    A nd           | Version:  6.0
     \\/     M anipulation  |
\*---------------------------------------------------------------------------*/
FoamFile
{
    version     2.0;
    format      ascii;
    class       volVectorField;
    location    "91";
    object      U;
}
// * * * * * * * * * * * * * * * * * * * * * * * * * * * * * * * * * * * * * //

dimensions      [0 1 -1 0 0 0 0];

internalField   nonuniform List<vector> 
4000
(
(0.110869 0.00828135 7.24419e-20)
(0.350649 0.0426481 -3.95277e-20)
(0.591136 0.100422 4.66212e-20)
(0.811328 0.164236 -3.46931e-20)
(0.995632 0.22321 -1.55101e-20)
(1.13729 0.271496 4.72777e-21)
(1.23753 0.306903 -1.51416e-20)
(1.3026 0.329976 5.42919e-20)
(1.34064 0.342778 -4.50438e-20)
(1.35957 0.34785 1.05406e-20)
(1.36598 0.347554 -7.86594e-21)
(1.36475 0.343794 -5.06889e-20)
(1.35926 0.337955 4.90246e-20)
(1.35167 0.330973 1.85391e-20)
(1.34328 0.323444 -1.83663e-20)
(1.33487 0.315729 4.29469e-20)
(1.32687 0.308024 -7.08301e-22)
(1.31952 0.30047 -4.1231e-20)
(1.31294 0.293419 3.03537e-20)
(1.30722 0.286685 9.49814e-21)
(0.126205 0.0138032 -2.53856e-20)
(0.387229 0.0594115 7.36708e-20)
(0.63896 0.126673 8.52548e-20)
(0.861109 0.196515 -4.02318e-20)
(1.04021 0.257794 6.99222e-20)
(1.17249 0.305412 1.10322e-19)
(1.26203 0.338305 -6.09059e-21)
(1.31704 0.35806 -1.87613e-20)
(1.34674 0.367485 9.27451e-20)
(1.35938 0.369532 4.50827e-20)
(1.36136 0.366723 -8.0692e-21)
(1.35722 0.360961 6.6791e-20)
(1.34991 0.353554 -7.10493e-20)
(1.34125 0.345341 1.10782e-19)
(1.33227 0.336832 -1.8367e-20)
(1.32358 0.328318 5.24439e-20)
(1.31549 0.319946 9.33527e-21)
(1.30817 0.31184 3.70381e-20)
(1.30167 0.304354 -3.52105e-20)
(1.29606 0.297169 8.61573e-21)
(0.141613 0.020494 -3.95783e-20)
(0.422703 0.0786526 9.33093e-20)
(0.683688 0.155555 6.95099e-20)
(0.905767 0.230827 -1.05378e-20)
(1.07825 0.293541 1.08185e-19)
(1.20063 0.339695 -8.08642e-20)
(1.2797 0.369522 -6.0977e-21)
(1.32545 0.385676 7.10216e-20)
(1.34784 0.391644 2.26078e-20)
(1.3552 0.39071 3.1369e-20)
(1.35365 0.385483 -4.61345e-20)
(1.3473 0.377817 1.20378e-19)
(1.33871 0.368923 2.2261e-20)
(1.32935 0.359533 -1.05722e-19)
(1.32005 0.350073 1.54207e-19)
(1.31125 0.340771 -1.81186e-19)
(1.30319 0.331733 -8.26556e-20)
(1.29599 0.323073 1.40532e-20)
(1.28964 0.31514 7.96431e-20)
(1.28421 0.30748 -1.50404e-19)
(0.156842 0.0283488 -8.8374e-20)
(0.456478 0.100219 -2.09087e-19)
(0.724647 0.186733 -1.81255e-19)
(0.944808 0.266736 -2.46395e-19)
(1.10958 0.330018 -1.39727e-19)
(1.22185 0.373991 -2.8912e-19)
(1.29098 0.400307 3.67432e-20)
(1.32836 0.412665 -1.52856e-19)
(1.34446 0.415158 -1.66797e-20)
(1.34751 0.411317 2.50699e-20)
(1.34322 0.403773 -5.49069e-20)
(1.33528 0.394298 6.88948e-20)
(1.32583 0.383983 1.21952e-19)
(1.31609 0.373459 -1.71255e-19)
(1.30667 0.363069 2.77101e-20)
(1.29792 0.352987 7.90097e-20)
(1.29001 0.343281 1.31829e-19)
(1.283 0.334062 -1.13711e-19)
(1.27686 0.325673 -5.36611e-21)
(1.27166 0.317519 1.32703e-19)
(0.171636 0.0373316 -1.66455e-19)
(0.487995 0.123893 4.57936e-19)
(0.761261 0.21982 -8.06351e-20)
(0.977874 0.303782 1.07281e-19)
(1.13417 0.366796 -1.04718e-19)
(1.23641 0.407964 3.21666e-19)
(1.29626 0.430422 -5.0959e-20)
(1.32623 0.438872 3.0333e-20)
(1.33705 0.437923 -1.54172e-20)
(1.33665 0.431271 4.9817e-20)
(1.33034 0.421519 3.21447e-20)
(1.32131 0.410322 4.09514e-20)
(1.31139 0.398649 -1.15084e-19)
(1.30151 0.387027 1.6862e-19)
(1.29216 0.375725 -1.28034e-19)
(1.28359 0.364867 2.4532e-20)
(1.27591 0.354494 -8.19724e-20)
(1.26917 0.344714 1.74774e-20)
(1.2633 0.33586 1.97339e-20)
(1.2584 0.327201 -1.82864e-19)
(0.18574 0.0473749 1.15766e-20)
(0.516747 0.149401 -2.30516e-19)
(0.793062 0.254383 1.27597e-19)
(1.00474 0.34149 -4.44377e-19)
(1.15208 0.403456 2.15222e-19)
(1.24461 0.441289 -3.68724e-19)
(1.29597 0.459639 -2.88026e-19)
(1.31952 0.464138 -1.10993e-20)
(1.32599 0.459821 -9.79646e-20)
(1.32295 0.450474 -3.04769e-19)
(1.31521 0.438622 -3.84896e-20)
(1.30556 0.425787 -2.92681e-19)
(1.29547 0.412811 5.27764e-20)
(1.28568 0.400122 -4.23926e-20)
(1.27654 0.387924 2.49683e-20)
(1.26825 0.376297 -1.96883e-19)
(1.2609 0.365259 9.73147e-21)
(1.25451 0.35492 3.90672e-20)
(1.24896 0.345597 -9.15522e-20)
(1.24442 0.336428 7.95667e-20)
(0.19891 0.0583814 -9.41412e-20)
(0.542288 0.176418 4.20847e-19)
(0.819689 0.289958 3.34825e-21)
(1.02529 0.379382 -3.64786e-19)
(1.16346 0.439588 2.75679e-19)
(1.24676 0.473656 1.16004e-19)
(1.29052 0.487737 2.31624e-20)
(1.30861 0.488305 -1.96506e-19)
(1.31162 0.480725 3.18494e-19)
(1.30665 0.468809 -1.88059e-19)
(1.29803 0.454965 6.68246e-20)
(1.28812 0.440572 3.17707e-19)
(1.27812 0.426346 -2.86737e-19)
(1.26861 0.412623 3.14312e-19)
(1.25983 0.399547 -2.04445e-19)
(1.25194 0.387161 -3.9888e-20)
(1.24499 0.375464 4.8081e-20)
(1.23901 0.364572 6.15334e-20)
(1.23385 0.354777 8.53437e-20)
(1.22973 0.345103 5.09244e-20)
(0.210919 0.0702255 3.76834e-20)
(0.564242 0.20458 -3.7806e-19)
(0.840889 0.326062 6.71446e-20)
(1.03952 0.416982 8.80265e-19)
(1.16854 0.474799 -8.10258e-20)
(1.24324 0.504771 2.45052e-19)
(1.28031 0.5145 1.52791e-19)
(1.29388 0.511207 2.47768e-20)
(1.29423 0.500497 -1.78356e-19)
(1.28796 0.486145 2.92572e-19)
(1.27891 0.470419 -3.47166e-20)
(1.26908 0.454547 4.47959e-19)
(1.25942 0.439123 1.73035e-19)
(1.25035 0.424399 1.08778e-19)
(1.24206 0.410466 -2.27337e-19)
(1.23465 0.397334 4.8591e-20)
(1.2282 0.38499 1.76829e-19)
(1.22269 0.373553 4.62972e-20)
(1.21798 0.363292 -2.15212e-19)
(1.21435 0.353126 -5.3844e-20)
(0.221562 0.0827565 -2.09884e-19)
(0.582309 0.233488 6.77513e-19)
(0.856513 0.3622 -3.69182e-19)
(1.04751 0.453823 -3.40686e-19)
(1.16757 0.508711 -2.96495e-19)
(1.23442 0.534349 -2.50716e-19)
(1.26571 0.539719 -3.10226e-19)
(1.27564 0.532679 3.89578e-19)
(1.27407 0.518989 -2.79743e-19)
(1.26707 0.502341 -2.25959e-20)
(1.258 0.484843 -1.47646e-21)
(1.24853 0.467569 -5.39434e-20)
(1.23942 0.451 -1.40042e-19)
(1.23095 0.435312 -1.57121e-19)
(1.22326 0.420548 -8.37218e-21)
(1.21643 0.40669 -3.49653e-20)
(1.21054 0.393716 -8.74195e-20)
(1.20557 0.381749 -2.75769e-20)
(1.20138 0.37103 2.86303e-20)
(1.19831 0.360398 -1.87832e-19)
(0.230659 0.0958019 3.67468e-19)
(0.596268 0.262725 3.80867e-19)
(0.866506 0.397877 -2.37099e-19)
(1.04942 0.489456 1.45676e-19)
(1.16089 0.540965 2.53641e-19)
(1.22066 0.562123 -5.35663e-20)
(1.24708 0.563187 6.2143e-20)
(1.25421 0.55255 7.15128e-20)
(1.25138 0.536048 1.19218e-19)
(1.24412 0.517248 -1.40382e-19)
(1.23539 0.498086 6.85397e-20)
(1.22654 0.47949 -4.88972e-20)
(1.21816 0.461832 2.14225e-19)
(1.21044 0.445222 9.53848e-20)
(1.20346 0.429658 -2.15606e-19)
(1.19731 0.4151 1.19749e-19)
(1.19206 0.401517 5.88606e-20)
(1.1877 0.389038 -1.11032e-19)
(1.18409 0.377878 2.98509e-19)
(1.18164 0.366818 -2.21539e-19)
(0.238063 0.109172 -2.70253e-19)
(0.605976 0.291861 -3.52279e-19)
(0.870901 0.432608 2.47742e-19)
(1.04548 0.523452 -2.28419e-19)
(1.14883 0.571226 -1.96091e-20)
(1.20234 0.587836 -2.54335e-19)
(1.22477 0.584706 2.0922e-19)
(1.22985 0.57065 3.93562e-19)
(1.22635 0.551515 -5.4738e-19)
(1.21928 0.53071 2.78391e-20)
(1.21119 0.509997 2.15403e-20)
(1.20319 0.490158 -1.11958e-19)
(1.19571 0.471472 7.59984e-20)
(1.18888 0.453985 -3.30691e-20)
(1.18273 0.437658 2.25063e-19)
(1.17735 0.42243 -2.42324e-19)
(1.17281 0.408264 -8.60086e-20)
(1.16912 0.395296 2.20612e-19)
(1.16617 0.383716 -3.35564e-19)
(1.16441 0.372276 2.11297e-19)
(0.243659 0.122663 5.63279e-19)
(0.611368 0.320465 5.00777e-19)
(0.869811 0.465924 -8.37074e-20)
(1.03596 0.555407 -1.09439e-20)
(1.13175 0.599178 -2.56223e-19)
(1.17984 0.61125 1.08508e-19)
(1.19911 0.604083 5.45804e-19)
(1.20282 0.586812 -4.8063e-19)
(1.19918 0.565232 3.08901e-19)
(1.19267 0.542574 -2.86784e-20)
(1.18549 0.52042 1.92417e-19)
(1.17855 0.499422 -4.47615e-20)
(1.17214 0.47977 1.16904e-19)
(1.16632 0.461456 1.54824e-19)
(1.16112 0.444409 -8.28705e-20)
(1.15659 0.428545 1.06667e-19)
(1.15285 0.413826 -1.55481e-19)
(1.1499 0.400389 3.94076e-19)
(1.14767 0.388406 -2.5033e-19)
(1.14669 0.376639 1.79721e-19)
(0.247365 0.136064 -2.77894e-19)
(0.612448 0.348111 -5.18607e-19)
(0.863421 0.497379 -3.57764e-19)
(1.02119 0.584946 -2.69513e-20)
(1.11004 0.624534 8.62244e-20)
(1.15353 0.632144 -4.83414e-20)
(1.1704 0.621139 -3.11067e-19)
(1.17338 0.600876 -1.38571e-19)
(1.17005 0.577046 -2.56063e-19)
(1.16444 0.552687 -1.32045e-19)
(1.1584 0.529205 6.54537e-20)
(1.15269 0.507131 -3.10382e-19)
(1.1475 0.486579 -7.59898e-20)
(1.14284 0.467493 -7.63733e-20)
(1.13869 0.44977 -2.39358e-19)
(1.13512 0.433309 1.0705e-19)
(1.13224 0.418065 -9.22604e-22)
(1.1301 0.404175 1.01478e-19)
(1.12867 0.391799 -4.32394e-20)
(1.12853 0.379756 -1.59421e-19)
(0.249139 0.14916 6.42535e-19)
(0.609293 0.374386 5.58525e-19)
(0.851975 0.526555 7.00589e-19)
(1.00153 0.611725 -7.24237e-20)
(1.08411 0.64703 -2.59085e-19)
(1.12378 0.650314 7.60275e-19)
(1.13896 0.635704 -3.85113e-19)
(1.14176 0.612689 4.31431e-19)
(1.13915 0.586811 -8.12263e-20)
(1.1347 0.560904 2.69355e-19)
(1.13002 0.536208 2.96361e-20)
(1.1257 0.513144 1.36461e-19)
(1.12187 0.491758 -3.13098e-20)
(1.11849 0.471955 1.41078e-19)
(1.11552 0.453605 -1.21566e-19)
(1.11301 0.436586 4.554e-21)
(1.11107 0.420845 6.06534e-20)
(1.10979 0.406511 9.96775e-20)
(1.10924 0.393746 -1.75457e-20)
(1.10998 0.381483 5.82901e-20)
(0.248969 0.161737 -1.98445e-19)
(0.602041 0.398902 -5.61558e-19)
(0.835773 0.553072 -3.41868e-19)
(0.977368 0.635436 -6.00321e-19)
(1.05434 0.666433 6.51049e-19)
(1.09094 0.66558 -4.68166e-19)
(1.10509 0.647627 2.99392e-19)
(1.1082 0.62211 -1.02097e-19)
(1.10664 0.594391 -1.32017e-19)
(1.1036 0.567093 -9.33347e-20)
(1.10044 0.541298 4.8511e-20)
(1.09765 0.517327 7.00204e-20)
(1.0953 0.495171 6.13997e-20)
(1.09333 0.474705 -7.74474e-20)
(1.09166 0.455773 -6.13064e-20)
(1.09031 0.438238 1.97631e-19)
(1.0894 0.422029 -1.72101e-20)
(1.08906 0.40726 -8.43257e-20)
(1.08942 0.394116 2.76309e-21)
(1.09106 0.381722 -2.04239e-20)
(0.246882 0.173586 8.90361e-19)
(0.590888 0.421296 4.20202e-19)
(0.81516 0.576583 3.91391e-19)
(0.949126 0.655806 -2.35064e-19)
(1.02117 0.682538 3.143e-20)
(1.0554 0.677781 3.36834e-19)
(1.06909 0.656773 4.75675e-20)
(1.07292 0.629018 1.04636e-19)
(1.07271 0.599668 1.17002e-19)
(1.07127 0.571138 1.54757e-20)
(1.06977 0.544359 6.90512e-20)
(1.06861 0.519565 -8.47299e-21)
(1.06785 0.496702 -3.01148e-20)
(1.06739 0.475617 -1.08034e-19)
(1.06715 0.456141 2.59636e-20)
(1.0671 0.43812 4.27267e-21)
(1.06732 0.421465 -4.6064e-21)
(1.06799 0.406264 6.30187e-21)
(1.06932 0.392755 -8.55873e-21)
(1.07191 0.380342 1.96592e-20)
(0.242935 0.18451 -6.44829e-19)
(0.576078 0.441237 -5.58408e-19)
(0.790517 0.596784 2.72452e-19)
(0.917236 0.672601 -3.39449e-19)
(0.984998 0.695172 -2.37769e-20)
(1.0175 0.686785 5.40584e-20)
(1.03125 0.663028 -5.56754e-20)
(1.03616 0.633308 -4.19541e-20)
(1.03754 0.602544 -1.07568e-19)
(1.03785 0.572945 -6.57911e-20)
(1.03811 0.545302 -5.47984e-21)
(1.03867 0.51977 -6.38825e-20)
(1.03956 0.496256 1.97696e-20)
(1.04071 0.474591 -2.20617e-20)
(1.04203 0.454593 1.18972e-20)
(1.04342 0.436102 4.73274e-21)
(1.04492 0.419006 -8.41363e-21)
(1.04669 0.403337 -1.37844e-20)
(1.04912 0.389378 1.51466e-21)
(1.05297 0.376961 2.73046e-20)
(0.237218 0.194324 6.12978e-19)
(0.557901 0.458433 1.56019e-20)
(0.762259 0.613415 -5.42098e-20)
(0.882149 0.685624 6.54557e-20)
(0.946259 0.704193 2.50897e-19)
(0.977622 0.692481 -1.75979e-19)
(0.991861 0.6663 9.16138e-20)
(0.998167 0.634897 -1.15651e-19)
(1.00131 0.602944 4.21658e-20)
(1.00348 0.572444 -3.15377e-20)
(1.00557 0.544059 -4.06086e-21)
(1.00787 0.517873 -1.08347e-20)
(1.01046 0.493759 7.0734e-21)
(1.01327 0.471533 -8.68613e-21)
(1.01624 0.451014 -7.98254e-20)
(1.01924 0.432051 7.2756e-20)
(1.0222 0.414506 -5.42295e-20)
(1.02532 0.398273 -3.84079e-20)
(1.02926 0.383558 3.93727e-20)
(1.03487 0.37087 -5.14087e-20)
(0.229847 0.202859 -1.27531e-19)
(0.536684 0.472629 1.34232e-19)
(0.730826 0.626255 1.07776e-19)
(0.844327 0.694718 -1.63715e-19)
(0.905375 0.709489 8.43082e-20)
(0.936117 0.694788 -1.43204e-19)
(0.951235 0.666523 -1.19984e-20)
(0.959175 0.633729 -6.45648e-21)
(0.964228 0.60082 -1.40384e-20)
(0.968331 0.569601 -4.81623e-20)
(0.972262 0.540608 -3.35657e-21)
(0.976298 0.513853 -1.43454e-20)
(0.980528 0.489171 6.53233e-20)
(0.984972 0.466361 -1.94078e-19)
(0.989597 0.445243 1.81498e-19)
(0.99428 0.425695 1.02236e-19)
(0.998891 0.407571 -2.82544e-20)
(1.00373 0.39053 1.46726e-20)
(1.00978 0.374546 1.85198e-19)
(1.01739 0.361171 -7.61175e-20)
(0.220963 0.209969 -4.17835e-20)
(0.512783 0.483611 1.07308e-19)
(0.696673 0.635132 -1.29682e-19)
(0.804237 0.69976 1.75527e-19)
(0.862772 0.710979 2.80475e-21)
(0.893358 0.693646 -4.60595e-20)
(0.909678 0.663652 6.7718e-22)
(0.919447 0.629774 -2.24289e-20)
(0.926512 0.596162 2.52632e-20)
(0.932582 0.56443 2.51871e-20)
(0.938337 0.534995 1.99544e-20)
(0.944032 0.507796 -1.11287e-21)
(0.949775 0.482611 7.18826e-20)
(0.95564 0.459191 -7.67453e-20)
(0.961664 0.437315 8.91563e-20)
(0.96777 0.416846 -1.83637e-19)
(0.973873 0.397577 2.11668e-19)
(0.980467 0.378844 -1.83377e-19)
(0.98862 0.360343 -1.18498e-19)
(0.99718 0.345585 2.11545e-19)
(0.21073 0.215528 7.36174e-20)
(0.486577 0.491209 1.70589e-20)
(0.660271 0.639912 3.22588e-20)
(0.76235 0.700667 8.67364e-21)
(0.818881 0.70861 -2.61522e-20)
(0.849716 0.689021 1.13425e-20)
(0.867509 0.657663 -8.13895e-20)
(0.879264 0.623019 5.4207e-20)
(0.888417 0.588977 6.49613e-20)
(0.896473 0.556974 -1.00362e-19)
(0.904025 0.527325 1.28777e-19)
(0.911295 0.499907 -4.74025e-20)
(0.918383 0.47445 1.03453e-19)
(0.925365 0.450646 -1.64007e-19)
(0.932287 0.428192 3.45691e-19)
(0.939104 0.406833 -7.52445e-20)
(0.945846 0.386148 -2.0949e-20)
(0.953211 0.364852 2.36743e-19)
(0.961984 0.340974 -1.14207e-19)
(0.967066 0.317088 5.67399e-20)
(0.199324 0.219432 6.55599e-21)
(0.458463 0.495293 -7.84843e-20)
(0.622097 0.640505 -2.42537e-20)
(0.71914 0.697388 -5.98546e-21)
(0.774126 0.702356 -4.10873e-21)
(0.805563 0.680897 -1.09284e-19)
(0.825052 0.648543 1.6297e-19)
(0.838918 0.613456 1.34703e-20)
(0.85022 0.579264 -1.93703e-20)
(0.860284 0.547245 5.01836e-21)
(0.869633 0.517636 6.50825e-20)
(0.878462 0.49028 1.15083e-19)
(0.886849 0.464907 6.79196e-20)
(0.894828 0.441224 -1.64024e-19)
(0.902385 0.418975 -5.02467e-20)
(0.909457 0.397964 -4.31663e-21)
(0.916161 0.377924 3.39938e-20)
(0.923106 0.358155 5.79524e-21)
(0.930221 0.337939 3.67958e-19)
(0.932776 0.319408 -2.56412e-19)
(0.186937 0.221598 4.48961e-20)
(0.428845 0.495772 2.62277e-20)
(0.582626 0.636856 -8.17298e-20)
(0.675071 0.689901 2.09837e-19)
(0.72893 0.692213 7.00545e-20)
(0.761268 0.669276 -1.66319e-19)
(0.782635 0.636296 1.64148e-19)
(0.798706 0.601086 -4.38912e-20)
(0.8122 0.56702 1.55215e-19)
(0.824292 0.535233 7.72107e-20)
(0.835455 0.50589 -3.38446e-19)
(0.845877 0.478809 -3.77974e-20)
(0.855641 0.453714 4.84366e-19)
(0.864783 0.430321 -5.96117e-19)
(0.873282 0.408383 5.52403e-19)
(0.881068 0.387697 1.94528e-19)
(0.888213 0.367975 -6.86508e-19)
(0.89513 0.348634 3.35255e-19)
(0.901632 0.329373 -6.74761e-20)
(0.90419 0.312616 8.08089e-20)
(0.173768 0.221968 -1.8025e-19)
(0.398132 0.492592 -1.92933e-19)
(0.542332 0.628953 1.32198e-19)
(0.630604 0.678221 -1.85218e-19)
(0.683704 0.678206 -5.49664e-19)
(0.717194 0.65418 -2.77755e-20)
(0.74058 0.620938 -1.68619e-19)
(0.758923 0.585921 2.33055e-21)
(0.774634 0.552257 -3.55293e-19)
(0.788761 0.52095 -3.63397e-19)
(0.801737 0.492111 -2.53631e-19)
(0.813748 0.465543 -1.14661e-20)
(0.824887 0.440976 -6.23588e-19)
(0.835207 0.418148 -9.63428e-21)
(0.844712 0.396841 3.0711e-19)
(0.853373 0.376888 -3.04561e-19)
(0.861271 0.358067 -2.38416e-19)
(0.868741 0.339934 2.30258e-19)
(0.875588 0.322303 -1.64188e-19)
(0.878934 0.307074 3.20482e-20)
(0.160022 0.220506 1.69168e-19)
(0.366733 0.485742 1.30949e-19)
(0.501682 0.616817 -1.06454e-20)
(0.586186 0.66239 -1.32801e-19)
(0.638851 0.660382 2.91171e-19)
(0.673695 0.635652 4.96553e-19)
(0.699203 0.602501 -5.39184e-20)
(0.719859 0.56798 4.86102e-21)
(0.7378 0.53498 9.37901e-20)
(0.753968 0.504385 2.26798e-19)
(0.76877 0.47626 3.33759e-19)
(0.782398 0.450399 -2.74027e-19)
(0.794964 0.426539 2.66878e-19)
(0.806537 0.40443 -9.50663e-20)
(0.817143 0.383868 3.15261e-19)
(0.826784 0.364696 -1.23107e-19)
(0.835571 0.346715 -3.09654e-19)
(0.843842 0.329581 1.84786e-19)
(0.851432 0.313227 -2.66516e-19)
(0.855837 0.299251 -3.02836e-19)
(0.145906 0.217197 9.35419e-20)
(0.335052 0.475243 1.61115e-19)
(0.461129 0.600505 -1.68267e-19)
(0.54225 0.642481 1.68947e-21)
(0.594759 0.638812 2.88747e-20)
(0.631114 0.613753 2.50052e-19)
(0.658808 0.581033 -3.66412e-19)
(0.68179 0.5473 3.47956e-19)
(0.701951 0.515213 -3.58589e-20)
(0.720146 0.485548 9.52347e-20)
(0.736768 0.458334 1.57097e-19)
(0.752022 0.433359 -2.9988e-19)
(0.766041 0.410368 1.41441e-19)
(0.778919 0.389126 1.35563e-19)
(0.790711 0.369445 5.0492e-20)
(0.801448 0.351173 -2.58627e-19)
(0.811268 0.33413 8.7096e-19)
(0.820501 0.318017 -4.89868e-19)
(0.828982 0.302803 8.87963e-19)
(0.834493 0.289806 -5.7517e-20)
(0.131627 0.212048 7.36848e-20)
(0.303481 0.461152 3.96651e-19)
(0.421111 0.58011 1.45636e-19)
(0.499213 0.618597 2.92838e-19)
(0.551799 0.613595 7.98466e-20)
(0.589777 0.588568 -4.80902e-19)
(0.619688 0.556604 7.49759e-19)
(0.644982 0.523934 3.92832e-19)
(0.667334 0.492995 1.74508e-20)
(0.687528 0.464465 5.09599e-19)
(0.705948 0.438339 8.49269e-20)
(0.722818 0.414406 5.31051e-20)
(0.738294 0.392419 3.05107e-19)
(0.752494 0.372154 -1.15112e-19)
(0.765499 0.353432 -1.1957e-19)
(0.777373 0.336107 7.13078e-19)
(0.788278 0.320009 -5.94487e-19)
(0.798533 0.304878 2.26539e-20)
(0.807965 0.290703 7.54129e-19)
(0.814604 0.278562 -7.55365e-22)
(0.117386 0.205086 -8.65919e-19)
(0.2724 0.44356 -1.36155e-19)
(0.382046 0.555755 -1.93628e-19)
(0.457469 0.590869 -1.50856e-19)
(0.510325 0.584852 -3.9011e-19)
(0.549998 0.560202 1.33166e-19)
(0.58212 0.529303 -1.89843e-19)
(0.609684 0.497956 5.79134e-20)
(0.634177 0.468384 -2.74919e-19)
(0.656321 0.441177 -2.57198e-19)
(0.676502 0.416305 5.72084e-20)
(0.694961 0.393556 -4.20428e-19)
(0.711878 0.372695 3.38295e-19)
(0.727397 0.353509 -1.2251e-19)
(0.741621 0.335825 3.80726e-19)
(0.754642 0.319502 -8.21852e-19)
(0.76664 0.304378 -1.56435e-19)
(0.777916 0.290224 -2.95382e-19)
(0.788296 0.277031 -7.92296e-19)
(0.796047 0.265672 -1.28182e-19)
(0.103381 0.196359 1.39449e-19)
(0.242174 0.422585 -1.36654e-20)
(0.344334 0.527594 -2.24096e-19)
(0.417395 0.559454 7.97354e-20)
(0.470671 0.552728 -1.61648e-19)
(0.512068 0.528783 -1.90579e-21)
(0.546364 0.499238 2.19322e-19)
(0.576134 0.469459 -3.28897e-19)
(0.602693 0.441459 1.27292e-19)
(0.626721 0.41575 -7.419e-20)
(0.648604 0.392282 2.09906e-20)
(0.668605 0.370848 -3.68847e-19)
(0.686926 0.351222 -4.48049e-19)
(0.703732 0.333203 -1.72034e-20)
(0.719151 0.316625 4.99249e-19)
(0.733298 0.301353 2.2914e-20)
(0.746363 0.287232 6.31442e-19)
(0.75863 0.274061 -9.21164e-19)
(0.769931 0.261827 4.89303e-19)
(0.778764 0.251224 8.45742e-19)
(0.089799 0.185929 -1.2799e-19)
(0.213146 0.398379 6.85163e-20)
(0.308349 0.495811 4.48697e-19)
(0.379342 0.524538 1.11984e-19)
(0.43315 0.517395 -1.49676e-19)
(0.476265 0.494462 1.19018e-19)
(0.512667 0.466541 4.67587e-19)
(0.544549 0.438556 -3.80247e-19)
(0.573083 0.412319 3.52798e-20)
(0.598908 0.38827 -1.38912e-19)
(0.622418 0.366346 5.01773e-19)
(0.643894 0.346346 3.58585e-19)
(0.663562 0.328056 -5.20574e-20)
(0.681606 0.311287 -5.42879e-19)
(0.698175 0.295882 2.91257e-20)
(0.713403 0.28171 -6.6962e-20)
(0.727488 0.268628 3.18966e-19)
(0.740696 0.256458 5.18326e-19)
(0.752874 0.24518 4.52171e-19)
(0.762745 0.235335 -7.57188e-19)
(0.0768204 0.173879 -8.15889e-20)
(0.185641 0.371119 3.475e-19)
(0.274442 0.460618 -3.37385e-19)
(0.343638 0.486331 4.72935e-19)
(0.398053 0.479045 -2.55704e-19)
(0.442845 0.457411 1.85313e-19)
(0.481255 0.431364 4.6799e-19)
(0.515136 0.405382 -5.64267e-19)
(0.54553 0.381084 2.5715e-19)
(0.573049 0.358844 3.25058e-19)
(0.598092 0.338592 -4.40989e-19)
(0.620962 0.320135 -3.05175e-20)
(0.641902 0.303275 -3.52633e-19)
(0.661117 0.287834 5.66703e-19)
(0.678773 0.273665 -3.06638e-19)
(0.695021 0.260645 3.29155e-19)
(0.710063 0.24864 -5.9123e-20)
(0.724148 0.237497 2.03533e-19)
(0.737149 0.227185 4.65271e-20)
(0.748003 0.218115 -1.18646e-19)
(0.0646131 0.160307 -2.52872e-19)
(0.159959 0.341008 -5.78017e-19)
(0.242936 0.422251 1.51908e-19)
(0.310583 0.445066 -4.88226e-19)
(0.365647 0.437892 -4.63456e-19)
(0.412042 0.41782 -3.33648e-19)
(0.452339 0.393877 2.59675e-19)
(0.488082 0.370089 1.99508e-19)
(0.520206 0.34789 -1.12753e-21)
(0.549297 0.327597 -1.73744e-19)
(0.575766 0.309135 -3.14128e-19)
(0.599931 0.292324 2.82712e-19)
(0.622054 0.276979 -9.74017e-20)
(0.642358 0.262939 -4.80268e-19)
(0.661025 0.250067 3.12027e-19)
(0.67822 0.238247 -2.34398e-19)
(0.694145 0.227362 -9.53063e-20)
(0.709035 0.217274 -2.66806e-19)
(0.722797 0.207947 -2.41014e-19)
(0.73457 0.199684 6.25249e-20)
(0.0533329 0.145327 2.20602e-19)
(0.136377 0.308273 1.13716e-19)
(0.214127 0.380971 1.74866e-19)
(0.280454 0.400998 -5.99444e-19)
(0.336176 0.39417 6.41433e-19)
(0.384074 0.3759 1.91598e-21)
(0.42611 0.354269 4.88025e-21)
(0.46356 0.332849 -3.90281e-19)
(0.497265 0.312895 3.64113e-19)
(0.527794 0.294673 -2.53622e-19)
(0.555565 0.278107 7.57724e-20)
(0.580914 0.263034 -3.38518e-19)
(0.60412 0.249285 -1.60821e-19)
(0.625419 0.236713 -7.65103e-20)
(0.645009 0.225195 5.77994e-19)
(0.663067 0.214625 -2.83521e-19)
(0.679794 0.204899 -2.55615e-19)
(0.695411 0.195898 2.62342e-19)
(0.709866 0.187579 -2.1526e-19)
(0.722483 0.180157 1.67905e-19)
(0.0431221 0.129064 4.73514e-19)
(0.115145 0.273162 -2.86169e-19)
(0.188283 0.337062 4.25556e-20)
(0.253498 0.354401 5.00195e-19)
(0.309861 0.348132 1.99123e-19)
(0.359133 0.331878 2.46208e-19)
(0.40274 0.312746 2.44966e-19)
(0.441725 0.293849 5.18902e-19)
(0.476849 0.276269 -1.18705e-19)
(0.508666 0.260229 2.83525e-19)
(0.537605 0.245657 4.11266e-19)
(0.564016 0.232404 1.51264e-19)
(0.588192 0.220323 2.73435e-19)
(0.610383 0.209282 9.90059e-20)
(0.6308 0.199171 5.79527e-20)
(0.649628 0.189897 -4.21821e-20)
(0.667069 0.181368 3.37489e-19)
(0.683332 0.173485 2.0758e-19)
(0.698405 0.166199 -1.88945e-19)
(0.711783 0.159657 1.78197e-19)
(0.034108 0.111659 -3.15151e-19)
(0.0964863 0.235942 3.50325e-20)
(0.165638 0.290824 -9.09203e-20)
(0.229935 0.30557 -2.76607e-19)
(0.286896 0.300046 -1.45946e-19)
(0.337391 0.285999 -2.65817e-19)
(0.382383 0.269527 1.23911e-19)
(0.422716 0.253289 -4.77254e-19)
(0.459082 0.238198 2.81753e-19)
(0.492028 0.224439 -3.89052e-19)
(0.52199 0.211945 -2.41114e-19)
(0.54933 0.200586 -3.18658e-19)
(0.574355 0.190236 7.29376e-20)
(0.597326 0.180782 -7.20114e-20)
(0.618464 0.172126 8.55075e-20)
(0.637965 0.16419 4.58406e-20)
(0.656027 0.156895 9.10165e-20)
(0.67285 0.150158 -7.6444e-19)
(0.688464 0.14393 3.80021e-19)
(0.702512 0.138306 -2.28163e-19)
(0.0264026 0.0932627 1.04672e-19)
(0.0805946 0.1969 2.11127e-19)
(0.146401 0.242576 -1.37676e-19)
(0.209954 0.254811 3.401e-19)
(0.267449 0.250195 -5.41648e-20)
(0.318998 0.238518 3.93146e-19)
(0.365172 0.224847 7.61618e-20)
(0.406651 0.211383 -7.95004e-20)
(0.444074 0.19888 2.8953e-19)
(0.477978 0.187486 2.2077e-19)
(0.508807 0.177143 8.18226e-20)
(0.536937 0.167743 1.07401e-19)
(0.562682 0.15918 5.37487e-20)
(0.586315 0.15136 -2.27971e-19)
(0.608065 0.144203 -3.15471e-20)
(0.628135 0.13764 2.37239e-19)
(0.64672 0.13161 -1.62108e-19)
(0.664016 0.126045 -7.71915e-21)
(0.680087 0.120899 -3.38182e-19)
(0.694707 0.116228 6.81381e-19)
(0.0201008 0.0740349 2.81578e-19)
(0.0676347 0.156335 -3.37258e-19)
(0.130743 0.192654 1.58378e-19)
(0.193716 0.202448 -2.23462e-19)
(0.251662 0.198876 1.97398e-19)
(0.304078 0.189703 -3.42115e-19)
(0.35122 0.178949 -2.50278e-19)
(0.393633 0.168358 1.86677e-20)
(0.431916 0.158524 -3.40185e-19)
(0.4666 0.149565 -2.11959e-19)
(0.498136 0.141433 -3.66198e-19)
(0.526907 0.134045 -1.1942e-20)
(0.553238 0.127316 -1.41619e-19)
(0.577408 0.121171 3.58647e-19)
(0.599655 0.115548 2.46571e-19)
(0.620186 0.110391 -8.29435e-20)
(0.639196 0.105654 -7.47852e-20)
(0.656873 0.101282 -3.34114e-21)
(0.673317 0.0972377 9.28e-21)
(0.688402 0.0935517 1.34657e-19)
(0.0152806 0.0541442 -7.045e-20)
(0.0577407 0.114559 -2.41178e-19)
(0.118807 0.141403 -1.50272e-19)
(0.181351 0.148814 -9.39752e-20)
(0.239652 0.146394 -1.94521e-19)
(0.292735 0.139833 3.32942e-19)
(0.340617 0.132088 -3.58389e-20)
(0.383745 0.124445 -8.00217e-20)
(0.422684 0.117345 3.25464e-21)
(0.457963 0.110877 2.34219e-19)
(0.490038 0.105006 -2.22174e-19)
(0.519298 0.0996723 2.17034e-19)
(0.546075 0.0948141 1.01687e-19)
(0.570654 0.0903772 -1.85032e-19)
(0.593279 0.0863157 4.04274e-20)
(0.61416 0.0825906 1.18556e-19)
(0.633492 0.0791669 4.10893e-20)
(0.651458 0.0760074 -2.87503e-20)
(0.668185 0.0730816 -2.48454e-19)
(0.683624 0.0704055 1.97941e-19)
(0.0120018 0.0337657 6.3644e-20)
(0.0510153 0.0718953 7.71275e-20)
(0.110701 0.0891783 2.16738e-20)
(0.17296 0.0942498 -1.6283e-20)
(0.231506 0.0930623 4.65639e-20)
(0.285046 0.0891936 7.10833e-20)
(0.333435 0.0845252 2.69556e-20)
(0.377049 0.0798868 3.28488e-20)
(0.416436 0.0755683 -6.94628e-20)
(0.45212 0.0716308 1.30207e-19)
(0.484561 0.0680565 -3.06881e-20)
(0.514153 0.0648083 -2.46763e-21)
(0.541233 0.0618485 3.106e-20)
(0.56609 0.0591438 3.49943e-20)
(0.588971 0.0566658 -9.37181e-20)
(0.610089 0.0543907 6.1755e-20)
(0.629637 0.0522971 4.04432e-20)
(0.6478 0.0503626 3.4483e-20)
(0.664719 0.0485682 7.37105e-20)
(0.680396 0.0469208 3.04955e-20)
(0.0103058 0.0130791 -1.30364e-20)
(0.0475294 0.0286722 2.70835e-20)
(0.106499 0.0363435 -3.78621e-20)
(0.16861 0.039105 2.37844e-20)
(0.227286 0.0392018 1.39223e-20)
(0.281066 0.0380752 6.22656e-21)
(0.32972 0.0365262 1.46962e-20)
(0.37359 0.034928 -4.209e-20)
(0.413211 0.0334207 2.68423e-20)
(0.449107 0.0320404 9.38754e-21)
(0.481739 0.030785 -5.21985e-22)
(0.511504 0.0296421 5.72672e-20)
(0.538741 0.0285981 -1.74022e-20)
(0.563741 0.027641 -1.66292e-20)
(0.586754 0.0267602 -1.59243e-20)
(0.607994 0.025947 2.46861e-21)
(0.627654 0.0251938 -2.11968e-20)
(0.645917 0.0244927 4.0537e-21)
(0.662935 0.0238377 7.95139e-22)
(0.678732 0.0232304 -2.69089e-21)
(0.0102153 -0.007733 8.27692e-21)
(0.0473217 -0.0147761 -4.40402e-20)
(0.106241 -0.0167342 5.24529e-20)
(0.168339 -0.0162682 -3.93935e-20)
(0.227024 -0.0148642 -1.83393e-20)
(0.280823 -0.0132271 5.4894e-20)
(0.329499 -0.0116388 4.55827e-21)
(0.373391 -0.0101821 1.25034e-21)
(0.413032 -0.00886582 2.54703e-20)
(0.448944 -0.00767828 1.31272e-20)
(0.48159 -0.00660547 -1.04101e-20)
(0.511367 -0.00563482 -3.63496e-20)
(0.538614 -0.00475567 3.50445e-21)
(0.563622 -0.00395892 -3.11869e-21)
(0.586642 -0.00323685 3.37237e-20)
(0.607888 -0.00258302 -2.02627e-20)
(0.627552 -0.00199155 2.77225e-20)
(0.645821 -0.00145546 -4.15198e-20)
(0.662844 -0.000967511 4.83762e-23)
(0.678639 -0.000530678 -8.71936e-21)
(0.011734 -0.0284868 -2.74907e-20)
(0.0503986 -0.0581143 1.3856e-19)
(0.109934 -0.0696861 9.32536e-20)
(0.172153 -0.0715158 6.1609e-20)
(0.230725 -0.068811 7.67459e-20)
(0.284323 -0.0644177 -1.87955e-20)
(0.332778 -0.059699 8.48134e-20)
(0.376457 -0.0551936 1.72393e-20)
(0.415901 -0.051059 -7.70255e-21)
(0.451634 -0.0473081 -6.03892e-20)
(0.484117 -0.0439111 6.23837e-20)
(0.513744 -0.0408303 -8.45749e-20)
(0.540854 -0.038031 6.13192e-20)
(0.565736 -0.0354828 7.00798e-20)
(0.588637 -0.0331601 9.24639e-20)
(0.609772 -0.0310412 -6.08707e-20)
(0.629335 -0.0291065 1.70067e-20)
(0.647512 -0.0273343 6.38213e-20)
(0.664446 -0.0257044 -6.03806e-20)
(0.680119 -0.0242261 4.55165e-20)
(0.0148467 -0.0489993 -2.6539e-19)
(0.0567338 -0.101008 -1.33099e-19)
(0.117551 -0.122144 -1.47915e-19)
(0.180027 -0.126285 -1.16053e-20)
(0.238368 -0.122314 -7.96455e-20)
(0.291544 -0.115201 -9.75632e-20)
(0.339537 -0.107384 1.71892e-19)
(0.382771 -0.0998568 8.7372e-20)
(0.421805 -0.0929267 1.07085e-19)
(0.457165 -0.0866323 -1.16659e-19)
(0.489308 -0.0809282 8.62266e-20)
(0.518626 -0.0757523 1.04688e-19)
(0.545452 -0.0710459 3.67296e-20)
(0.570072 -0.0667579 -3.49841e-20)
(0.59273 -0.0628445 7.38131e-21)
(0.613639 -0.0592694 -1.52148e-20)
(0.632994 -0.055999 -1.46997e-19)
(0.650985 -0.0529964 2.28789e-20)
(0.667735 -0.0502301 1.42371e-19)
(0.683166 -0.0477204 -1.91333e-19)
(0.0195195 -0.0690896 -8.69068e-20)
(0.0662692 -0.143126 1.29422e-19)
(0.12903 -0.173744 2.97752e-20)
(0.191904 -0.180225 -5.55393e-20)
(0.249901 -0.175053 -1.57086e-19)
(0.302444 -0.165285 -3.35998e-19)
(0.349737 -0.154426 -3.19065e-19)
(0.392296 -0.143925 -2.26022e-20)
(0.430709 -0.13424 -1.84782e-19)
(0.465505 -0.125436 -2.75827e-19)
(0.497136 -0.117456 2.13546e-19)
(0.525986 -0.110211 -3.14737e-19)
(0.552383 -0.103621 6.17591e-20)
(0.576609 -0.0976132 -2.02208e-20)
(0.598902 -0.0921271 -6.53557e-20)
(0.61947 -0.0871114 -8.22298e-20)
(0.638511 -0.0825185 1.33659e-19)
(0.656222 -0.0782961 1.06416e-19)
(0.672697 -0.0744035 1.82686e-19)
(0.687769 -0.0708797 -2.73711e-19)
(0.0256998 -0.0885812 4.72751e-20)
(0.0789145 -0.184145 4.57551e-19)
(0.144277 -0.224128 1.30688e-19)
(0.207696 -0.232994 3.15757e-19)
(0.265248 -0.226711 -1.17872e-19)
(0.316953 -0.214382 1.80996e-19)
(0.363316 -0.200562 -5.63225e-20)
(0.404978 -0.187155 3.65596e-19)
(0.442564 -0.174772 -1.87588e-19)
(0.476609 -0.16351 2.20999e-19)
(0.507557 -0.153296 1.91496e-19)
(0.535786 -0.144021 2.03827e-19)
(0.561614 -0.135579 -1.82263e-19)
(0.585315 -0.127881 1.5563e-19)
(0.607122 -0.120847 -2.16507e-19)
(0.627237 -0.114413 -5.93085e-20)
(0.645861 -0.108517 -1.41586e-19)
(0.663198 -0.10309 -6.01013e-20)
(0.679307 -0.0980854 2.37859e-19)
(0.693909 -0.0935716 -3.94176e-19)
(0.0333171 -0.107304 -1.88426e-19)
(0.0945481 -0.223749 -2.27402e-20)
(0.163163 -0.272948 -7.49253e-20)
(0.227286 -0.284254 -2.63688e-19)
(0.284302 -0.276981 4.53573e-20)
(0.334977 -0.262212 -4.11293e-19)
(0.380191 -0.245537 -1.71799e-19)
(0.42074 -0.229311 -1.3131e-20)
(0.457302 -0.214306 -4.31355e-19)
(0.490414 -0.200649 -1.33153e-19)