/*--------------------------------*- C++ -*----------------------------------*\
  =========                 |
  \\      /  F ield         | OpenFOAM: The Open Source CFD Toolbox
   \\    /   O peration     | Website:  https://openfoam.org
    \\  /    A nd           | Version:  6.0
     \\/     M anipulation  |
\*---------------------------------------------------------------------------*/
FoamFile
{
    version     2.0;
    format      ascii;
    class       volVectorField;
    location    "58";
    object      U;
}
// * * * * * * * * * * * * * * * * * * * * * * * * * * * * * * * * * * * * * //

dimensions      [0 1 -1 0 0 0 0];

internalField   nonuniform List<vector> 
12500
(
(-0.000868234 0.0101996 -1.24272e-21)
(-0.00414583 0.0180659 1.865e-20)
(-0.00994979 0.0171797 -2.72836e-20)
(-0.0170038 0.0104208 1.26004e-20)
(-0.0246722 -6.01656e-05 7.26564e-22)
(-0.0325956 -0.0127281 -1.51381e-21)
(-0.0404947 -0.0265333 -2.32336e-20)
(-0.0481568 -0.0407961 1.2787e-20)
(-0.0554218 -0.0551066 8.55214e-21)
(-0.0621657 -0.0692407 8.65609e-21)
(-0.0682923 -0.0830934 -1.47218e-20)
(-0.0737286 -0.0966304 8.5624e-21)
(-0.078422 -0.109855 -4.04531e-21)
(-0.0823396 -0.122788 6.89172e-21)
(-0.085466 -0.135459 -1.75518e-20)
(-0.087803 -0.147901 2.52064e-20)
(-0.0893678 -0.160156 -4.73407e-21)
(-0.0901918 -0.172273 -1.79578e-20)
(-0.0903191 -0.184319 9.28866e-21)
(-0.0898058 -0.196382 -8.8421e-21)
(-0.0887219 -0.20857 7.84699e-21)
(-0.0871437 -0.22102 1.0214e-20)
(-0.0851185 -0.233892 1.07249e-21)
(-0.0826918 -0.247408 -2.94302e-20)
(-0.0802357 -0.261882 1.64944e-20)
(-0.0013088 0.0118785 2.41988e-20)
(-0.00514803 0.0221602 -6.45093e-20)
(-0.0114 0.0229556 1.89993e-20)
(-0.018817 0.0173388 1.28491e-20)
(-0.026799 0.00759013 -1.02653e-20)
(-0.0350151 -0.00466561 -5.89005e-20)
(-0.0432015 -0.0183149 1.75261e-20)
(-0.0511531 -0.0326333 -3.34458e-20)
(-0.0587119 -0.0471792 4.00351e-20)
(-0.065753 -0.0617041 -5.35424e-20)
(-0.0721772 -0.0760828 2.85253e-20)
(-0.0779075 -0.0902625 9.48117e-21)
(-0.0828874 -0.104228 -2.33786e-20)
(-0.0870792 -0.117981 -1.01949e-20)
(-0.0904635 -0.131532 7.5802e-20)
(-0.0930379 -0.144893 -6.72181e-20)
(-0.0948163 -0.158083 1.62362e-20)
(-0.0958271 -0.171133 2.78778e-20)
(-0.0961123 -0.184087 -5.98963e-21)
(-0.0957266 -0.19701 4.43715e-20)
(-0.0947367 -0.209992 8.21674e-21)
(-0.0932146 -0.223146 -3.34464e-21)
(-0.0912319 -0.236611 -5.64219e-20)
(-0.0888977 -0.25059 5.14792e-20)
(-0.0863924 -0.26537 -1.0528e-19)
(-0.00184707 0.0136249 7.84755e-20)
(-0.00635271 0.0264433 2.68111e-20)
(-0.0130668 0.0290267 -3.58731e-20)
(-0.020807 0.0246452 1.56874e-20)
(-0.0290274 0.0157075 1.42666e-20)
(-0.037436 0.00392881 5.51305e-20)
(-0.0457916 -0.00951205 -7.06026e-20)
(-0.0539018 -0.0238443 -1.19519e-20)
(-0.0616143 -0.0385925 -4.78599e-20)
(-0.0688058 -0.0534826 -3.99992e-20)
(-0.0753761 -0.0683685 5.11304e-20)
(-0.0812458 -0.0831782 -1.73118e-19)
(-0.0863546 -0.0978782 -5.86067e-21)
(-0.0906609 -0.112452 -1.04681e-19)
(-0.0941409 -0.126888 -1.24029e-20)
(-0.0967878 -0.14118 1.45703e-20)
(-0.0986111 -0.155325 -8.18292e-20)
(-0.0996356 -0.169331 -5.12641e-20)
(-0.0999006 -0.183218 -6.02927e-20)
(-0.0994594 -0.197029 9.41302e-20)
(-0.0983754 -0.21083 3.39825e-20)
(-0.0967183 -0.224707 -1.54393e-19)
(-0.0945877 -0.238781 -7.39093e-20)
(-0.0921583 -0.253235 -8.29784e-20)
(-0.0894179 -0.268316 2.3668e-19)
(-0.00248316 0.0153977 -1.83594e-21)
(-0.0077546 0.0308234 -6.24465e-20)
(-0.0149307 0.0352755 -3.12384e-20)
(-0.0229358 0.0322101 1.96868e-20)
(-0.0312986 0.0241585 1.18951e-19)
(-0.0397769 0.0129238 -5.33562e-20)
(-0.0481605 -0.000250436 1.15393e-19)
(-0.0562747 -0.0145461 1.10889e-19)
(-0.063977 -0.029453 6.74628e-20)
(-0.0711485 -0.0446709 -7.29994e-22)
(-0.0776899 -0.060032 1.37176e-19)
(-0.0835207 -0.0754456 2.40748e-20)
(-0.088578 -0.0908605 1.05524e-19)
(-0.0928165 -0.106242 2.44061e-19)
(-0.0962079 -0.12156 -2.83713e-19)
(-0.0987405 -0.136788 4.27952e-19)
(-0.100419 -0.151902 9.31864e-20)
(-0.101264 -0.166884 -2.07165e-19)
(-0.101311 -0.181731 -2.87944e-20)
(-0.100613 -0.196458 7.42097e-20)
(-0.0992293 -0.211105 -3.80952e-20)
(-0.0972303 -0.22573 -2.34494e-20)
(-0.0947461 -0.240428 -2.24152e-20)
(-0.0920176 -0.255366 -8.89099e-20)
(-0.0888512 -0.270733 3.29593e-19)
(-0.00321206 0.0171497 4.19507e-20)
(-0.00933877 0.035197 -2.00693e-19)
(-0.0169621 0.0415679 2.4591e-19)
(-0.0251568 0.0398852 -9.80036e-20)
(-0.0335475 0.0327907 1.191e-19)
(-0.0419532 0.0221693 9.85128e-20)
(-0.0502028 0.00932688 3.76422e-20)
(-0.0581451 -0.00487189 3.13763e-21)
(-0.0656513 -0.019882 2.12984e-19)
(-0.0726097 -0.0353763 1.48939e-19)
(-0.0789244 -0.0511657 -5.84071e-20)
(-0.084515 -0.0671415 -3.81306e-20)
(-0.0893171 -0.0832358 1.63877e-19)
(-0.0932823 -0.0993976 3.06645e-20)
(-0.096378 -0.11558 8.52629e-20)
(-0.0985877 -0.131737 2.02175e-19)
(-0.0999107 -0.147822 -1.72728e-19)
(-0.100363 -0.163794 1.38624e-19)
(-0.0999768 -0.179623 -3.03963e-19)
(-0.0988027 -0.195296 2.55337e-19)
(-0.0969002 -0.210816 1.88721e-21)
(-0.09434 -0.226213 -2.05062e-19)
(-0.0912847 -0.241552 8.08528e-20)
(-0.0880417 -0.256976 1.85337e-19)
(-0.0842583 -0.272603 -2.89592e-19)
(-0.00402334 0.0188298 2.1924e-19)
(-0.01108 0.0394502 -2.4194e-19)
(-0.0191214 0.0477569 -3.79673e-20)
(-0.0274161 0.0475076 5.04458e-20)
(-0.0357051 0.0414364 -1.07664e-19)
(-0.0438801 0.0314998 -1.68094e-19)
(-0.0518165 0.0190611 -1.41539e-19)
(-0.0593927 0.0050296 -3.42573e-20)
(-0.0664977 -0.0100154 -2.44728e-19)
(-0.0730298 -0.0257202 1.99942e-19)
(-0.0788984 -0.041875 -3.0759e-19)
(-0.0840254 -0.0583541 1.57806e-19)
(-0.0883461 -0.0750747 -5.00787e-20)
(-0.0918099 -0.0919714 1.21129e-19)
(-0.0943807 -0.108982 -3.06286e-19)
(-0.0960372 -0.126044 1.5185e-19)
(-0.0967737 -0.14309 1.27624e-20)
(-0.0966013 -0.160055 6.66599e-20)
(-0.0955497 -0.17688 4.03459e-19)
(-0.0936676 -0.193519 9.1339e-20)
(-0.0910144 -0.209939 -6.99717e-21)
(-0.0876648 -0.226129 2.58947e-20)
(-0.0838127 -0.242121 1.68239e-19)
(-0.0798317 -0.258028 4.91374e-20)
(-0.0752446 -0.27388 1.6689e-19)
(-0.00490101 0.0203854 -1.36388e-19)
(-0.0129432 0.0434651 2.01514e-19)
(-0.02136 0.0536883 1.31526e-20)
(-0.029654 0.0549047 -2.50445e-19)
(-0.0377012 0.049916 5.33758e-19)
(-0.0454757 0.0407364 -1.72625e-19)
(-0.0529074 0.0287792 2.55606e-19)
(-0.0599094 0.0149946 2.34473e-19)
(-0.0663922 -5.10024e-06 -1.94494e-19)
(-0.0722675 -0.0158405 -2.85918e-19)
(-0.0774524 -0.0322818 7.89935e-20)
(-0.0818727 -0.0491875 -8.41819e-20)
(-0.085465 -0.0664619 -3.71996e-19)
(-0.0881782 -0.0840278 4.57306e-19)
(-0.0899735 -0.101811 -2.20264e-19)
(-0.0908262 -0.119733 -1.51661e-19)
(-0.0907263 -0.137709 3.70364e-21)
(-0.0896808 -0.155652 1.27769e-19)
(-0.0877167 -0.173472 5.12597e-20)
(-0.0848821 -0.191087 -2.01606e-19)
(-0.0812379 -0.208424 2.34564e-19)
(-0.0768641 -0.225425 -4.01351e-19)
(-0.0719841 -0.242077 2.4726e-19)
(-0.0670356 -0.258457 -1.85943e-19)
(-0.061463 -0.274494 5.55036e-20)
(-0.005824 0.0217648 2.03884e-19)
(-0.0148838 0.0471245 -1.62839e-19)
(-0.0236214 0.0592064 -1.03952e-19)
(-0.031807 0.0618999 -1.8558e-19)
(-0.0394667 0.0580431 -3.40547e-19)
(-0.0466653 0.0496908 -2.52793e-19)
(-0.0533934 0.0382961 1.60474e-19)
(-0.0596041 0.0248451 -2.44287e-19)
(-0.0652332 0.00998064 3.1131e-19)
(-0.0702085 -0.00589309 -5.10498e-19)
(-0.0744573 -0.0225272 2.28586e-19)
(-0.0779115 -0.0397659 4.85267e-19)
(-0.0805112 -0.0575023 -6.86486e-19)
(-0.082206 -0.07565 9.8899e-20)
(-0.0829569 -0.0941254 1.29916e-19)
(-0.0827371 -0.112839 1.2444e-19)
(-0.081534 -0.13169 -1.32707e-19)
(-0.0793517 -0.15057 -3.10056e-20)
(-0.0762155 -0.169362 -1.01445e-19)
(-0.0721741 -0.187947 -8.19992e-20)
(-0.0672911 -0.206204 -4.58355e-19)
(-0.0616535 -0.224022 -3.14511e-20)
(-0.0555097 -0.241338 5.6561e-21)
(-0.0493587 -0.258175 -2.05296e-19)
(-0.0426224 -0.274355 2.24899e-19)
(-0.00676692 0.0229209 6.91059e-21)
(-0.0168501 0.0503178 6.66999e-20)
(-0.0258442 0.0641609 7.08873e-20)
(-0.0338109 0.0683184 3.97547e-20)
(-0.0409372 0.0656297 3.50136e-19)
(-0.0473844 0.0581691 3.3292e-19)
(-0.0532092 0.0474175 -2.71285e-19)
(-0.0584086 0.0343903 -8.51982e-20)
(-0.0629475 0.0197577 -7.49575e-20)
(-0.0667726 0.00394706 3.88266e-19)
(-0.0698239 -0.0127745 1.42301e-19)
(-0.0720418 -0.0302377 -2.04564e-19)
(-0.0733717 -0.0483266 -1.76398e-19)
(-0.0737668 -0.0669476 4.25734e-19)
(-0.0731897 -0.0860109 -1.05748e-19)
(-0.0716141 -0.105419 -1.29823e-19)
(-0.0690269 -0.125061 -1.80558e-19)
(-0.0654315 -0.144809 -1.42014e-19)
(-0.0608529 -0.164521 -1.82228e-19)
(-0.0553413 -0.184042 -1.18178e-19)
(-0.0489652 -0.203203 4.92292e-19)
(-0.0418194 -0.221834 -2.44072e-19)
(-0.0341718 -0.239807 1.64245e-19)
(-0.0265771 -0.257082 -4.34898e-19)
(-0.0184991 -0.273366 1.86639e-19)
(-0.0077014 0.0238133 -1.86398e-19)
(-0.0187852 0.0529466 -5.14812e-20)
(-0.0279638 0.0684131 -3.97574e-19)
(-0.035603 0.073994 -1.93272e-19)
(-0.0420557 0.0724918 -3.82008e-19)
(-0.0475822 0.065977 -4.02925e-20)
(-0.0523093 0.0559439 2.07741e-19)
(-0.0562816 0.0434295 -1.29246e-19)
(-0.0594957 0.0291274 2.77725e-19)
(-0.0619202 0.0134861 -6.81002e-19)
(-0.0635103 -0.00320971 -2.12082e-20)
(-0.0642172 -0.0207784 1.22352e-19)
(-0.0639942 -0.0390956 -1.56095e-19)
(-0.0628005 -0.0580629 1.43642e-19)
(-0.0606029 -0.0775869 -1.11618e-19)
(-0.0573786 -0.0975661 -2.40331e-19)
(-0.0531166 -0.117882 4.38587e-19)
(-0.0478221 -0.138396 2.73238e-19)
(-0.041522 -0.158943 -5.77181e-20)
(-0.0342696 -0.179334 1.81934e-19)
(-0.0261397 -0.199357 -3.58978e-19)
(-0.0172361 -0.218776 5.15052e-19)
(-0.00783955 -0.237389 -7.03371e-19)
(0.00144705 -0.255078 1.43536e-19)
(0.0110487 -0.271431 -2.83773e-19)
(-0.00859763 0.0244114 1.05023e-20)
(-0.02063 0.0549305 -1.77355e-19)
(-0.0299162 0.0718426 2.59848e-19)
(-0.0371255 0.078776 5.37874e-19)
(-0.0427749 0.0784562 -1.01554e-20)
(-0.047224 0.0729255 6.19707e-20)
(-0.0506711 0.0636759 -2.37292e-19)
(-0.0532109 0.0517566 1.09603e-19)
(-0.0548749 0.0378799 7.76961e-19)
(-0.0556559 0.0225136 -1.76683e-19)
(-0.0555267 0.00595849 -2.12982e-19)
(-0.0544516 -0.0115914 8.06269e-19)
(-0.0523943 -0.030004 2.68399e-19)
(-0.0493224 -0.049177 1.2838e-19)
(-0.0452102 -0.0690157 1.33616e-19)
(-0.0400409 -0.0894177 3.6065e-19)
(-0.0338091 -0.110262 -1.38149e-19)
(-0.0265245 -0.131403 3.7341e-19)
(-0.0182183 -0.152662 5.04212e-19)
(-0.00894869 -0.173823 -4.27373e-19)
(0.00120139 -0.19463 6.37062e-19)
(0.0121177 -0.214787 2.28313e-19)
(0.0235135 -0.234011 -8.62756e-19)
(0.0347477 -0.252083 1.24835e-18)
(0.0460623 -0.268473 -1.06005e-18)
(-0.00942631 0.0246962 -4.88269e-19)
(-0.0223266 0.0562112 2.7297e-19)
(-0.0316409 0.0743538 -1.85471e-19)
(-0.0383274 0.0825358 -1.75925e-19)
(-0.0430592 0.0833673 -1.94292e-19)
(-0.0462915 0.0788375 -2.11403e-19)
(-0.0482943 0.0704196 5.70264e-20)
(-0.049214 0.0591653 5.60819e-19)
(-0.0491188 0.0457995 -1.1833e-19)
(-0.0480284 0.0308067 -3.1709e-19)
(-0.0459351 0.014503 -1.96996e-19)
(-0.0428189 -0.00290525 -8.01708e-20)
(-0.0386562 -0.0212783 2.46859e-19)
(-0.0334255 -0.0405102 -1.55092e-19)
(-0.027111 -0.0605059 -5.11765e-19)
(-0.019705 -0.0811648 -5.702e-19)
(-0.0112106 -0.102368 2.29195e-19)
(-0.00164538 -0.123967 -4.26311e-19)
(0.00895286 -0.145777 3.75841e-19)
(0.0205187 -0.167566 -1.05713e-18)
(0.0329591 -0.189043 8.12979e-19)
(0.0461476 -0.209858 -1.07419e-18)
(0.059797 -0.229638 -1.82744e-20)
(0.0732407 -0.248051 -3.56085e-19)
(0.0864673 -0.264448 1.10522e-18)
(-0.0101606 0.0246619 7.52126e-19)
(-0.0238216 0.0567567 1.15125e-19)
(-0.0330838 0.0758806 -7.67642e-20)
(-0.0391664 0.085173 -3.15637e-20)
(-0.0428846 0.0870937 6.04248e-19)
(-0.0447826 0.0835548 1.99687e-19)
(-0.0451995 0.0759947 1.83706e-19)
(-0.0443342 0.0654564 -1.47147e-19)
(-0.0422931 0.0526716 5.74669e-19)
(-0.0391246 0.0381377 -2.83231e-19)
(-0.0348432 0.0221854 1.827e-19)
(-0.0294464 0.00503281 4.76949e-19)
(-0.0229253 -0.0131717 -2.70714e-19)
(-0.0152716 -0.032318 2.99188e-19)
(-0.00648167 -0.0523107 2.84709e-19)
(0.00344042 -0.0730521 9.70127e-20)
(0.0144803 -0.0944273 -2.41635e-19)
(0.0266099 -0.116293 6.73543e-19)
(0.0397818 -0.138464 -6.1882e-20)
(0.0539212 -0.160701 -7.0433e-20)
(0.0689225 -0.182693 8.13057e-19)
(0.0846446 -0.204043 -5.75807e-19)
(0.100803 -0.224296 9.71947e-19)
(0.116721 -0.242988 -7.99447e-19)
(0.132068 -0.259354 1.08295e-18)
(-0.0107779 0.024316 -3.67686e-19)
(-0.0250693 0.0565627 8.5616e-20)
(-0.0341999 0.0763899 -9.00313e-20)
(-0.0396106 0.0866205 -4.2066e-19)
(-0.0422387 0.0895345 2.45468e-20)
(-0.0427078 0.0869458 2.45808e-19)
(-0.0414227 0.0802421 -1.0023e-18)
(-0.0386335 0.0704471 7.56216e-19)
(-0.034486 0.0582922 -7.41037e-19)
(-0.029059 0.0442841 -4.71219e-19)
(-0.022391 0.0287661 4.28685e-19)
(-0.0144987 0.0119682 -9.38003e-19)
(-0.00539 -0.00595192 7.9699e-19)
(0.00492851 -0.0248788 -2.53021e-19)
(0.0164464 -0.0447159 -7.33892e-19)
(0.0291457 -0.0653676 1.81923e-19)
(0.0429986 -0.086725 -1.70268e-19)
(0.0579637 -0.108652 6.5106e-20)
(0.0739813 -0.130971 -2.33072e-19)
(0.0909646 -0.153445 -7.82341e-19)
(0.108793 -0.175757 1.75304e-19)
(0.127307 -0.197481 2.72152e-21)
(0.146226 -0.218085 -8.06083e-19)
(0.164879 -0.236965 5.68524e-19)
(0.182563 -0.25324 -5.06265e-19)
(-0.0112617 0.0236793 1.49955e-19)
(-0.0260344 0.0556529 2.87284e-19)
(-0.034955 0.075884 4.02397e-19)
(-0.0396375 0.0868483 2.09787e-19)
(-0.0411175 0.090625 -2.06314e-19)
(-0.0400861 0.088912 4.96544e-19)
(-0.0370078 0.0830322 3.71559e-19)
(-0.0321823 0.0739799 -1.33384e-19)
(-0.0257949 0.0624788 4.91703e-19)
(-0.0179559 0.0490404 -5.0863e-19)
(-0.00872917 0.0340184 -1.50053e-19)
(0.00184731 0.0176542 1.53402e-19)
(0.0137477 0.000115369 3.11146e-19)
(0.0269489 -0.0184758 2.85815e-21)
(0.0414249 -0.0380197 2.01421e-19)
(0.0571424 -0.0584217 3.71871e-19)
(0.0740579 -0.0795781 -6.36448e-19)
(0.0921143 -0.101361 7.95786e-19)
(0.111236 -0.123605 2.72349e-19)
(0.131323 -0.146085 9.62974e-20)
(0.152236 -0.168489 -9.7569e-19)
(0.173791 -0.190382 1.40129e-19)
(0.195708 -0.211171 2.13511e-19)
(0.217344 -0.230107 -4.8702e-20)
(0.237584 -0.246198 2.46837e-19)
(-0.0116023 0.0227841 1.30031e-20)
(-0.0266937 0.0540777 -7.4085e-19)
(-0.0353265 0.0743997 -1.67755e-20)
(-0.0392338 0.0858656 -1.8901e-19)
(-0.0395225 0.0903405 -1.25355e-18)
(-0.0369376 0.0893942 1.09184e-18)
(-0.0319965 0.0842732 -7.83006e-19)
(-0.0250452 0.0759327 -3.84117e-20)
(-0.0163078 0.0650818 -3.77969e-19)
(-0.00592662 0.0522319 6.60176e-19)
(0.00600781 0.037744 -7.17014e-19)
(0.0194353 0.0218701 -3.39565e-19)
(0.0343105 0.00478783 8.39915e-21)
(0.050593 -0.0133723 -7.51007e-19)
(0.0682395 -0.0325056 1.03056e-18)
(0.0871997 -0.052516 -1.20415e-18)
(0.107412 -0.0733028 1.24266e-21)
(0.128802 -0.0947464 1.86819e-19)
(0.151275 -0.116693 -4.69564e-19)
(0.174711 -0.138935 4.55813e-19)
(0.198949 -0.161178 -6.49077e-19)
(0.223778 -0.182998 -4.27353e-19)
(0.248911 -0.203762 7.94577e-19)
(0.273748 -0.222576 -8.6372e-19)
(0.296751 -0.238338 -1.63713e-20)
(-0.0117981 0.0216721 -6.08719e-19)
(-0.0270375 0.0519102 7.2216e-19)
(-0.0353035 0.0720064 -2.23524e-19)
(-0.0383923 0.0837196 4.34357e-19)
(-0.0374546 0.0886984 4.71554e-19)
(-0.0332751 0.088377 -4.18395e-19)
(-0.0264156 0.0839175 -2.82713e-19)
(-0.0172642 0.076228 -3.4021e-19)
(-0.0060821 0.0659961 3.12777e-19)
(0.00695642 0.0537282 -2.03653e-20)
(0.0217339 0.0397895 4.65589e-19)
(0.0381671 0.0244406 4.63596e-19)
(0.0561901 0.00786913 -5.6121e-19)
(0.0757436 -0.00978516 1.11101e-18)
(0.0967656 -0.0284103 -7.43017e-19)
(0.119187 -0.0479064 -1.31319e-19)
(0.142925 -0.0681726 1.47097e-18)
(0.167883 -0.0890944 -6.83235e-19)
(0.193943 -0.110529 4.38529e-19)
(0.220961 -0.132288 8.5846e-19)
(0.248749 -0.154102 -5.58122e-19)
(0.277058 -0.175572 5.92341e-20)
(0.305585 -0.196054 -3.70676e-20)
(0.333794 -0.214515 -2.24788e-19)
(0.35974 -0.229744 4.38113e-19)
(-0.0118546 0.0203916 1.40201e-19)
(-0.0270682 0.0492418 -4.60296e-19)
(-0.0348843 0.0688013 2.54018e-19)
(-0.0371085 0.0804938 -2.75955e-21)
(-0.0349085 0.085758 1.93018e-19)
(-0.0290948 0.0858915 -3.35246e-19)
(-0.020264 0.0819672 1.92838e-19)
(-0.00884148 0.0748403 5.30179e-19)
(0.00487714 0.0651713 -1.72538e-20)
(0.020687 0.0534565 -2.77834e-19)
(0.0384439 0.0400617 2.82058e-19)
(0.0580406 0.0252543 -5.01738e-21)
(0.0793899 0.00923111 -9.08804e-19)
(0.102411 -0.00785824 3.38338e-19)
(0.127023 -0.025893 7.53256e-20)
(0.153131 -0.0447666 -1.35384e-19)
(0.180629 -0.0643746 -2.42942e-19)
(0.209392 -0.084604 9.29556e-19)
(0.239271 -0.10532 2.28225e-19)
(0.270089 -0.126351 -4.89558e-19)
(0.301623 -0.147455 -5.86075e-20)
(0.333582 -0.168273 6.72956e-19)
(0.365628 -0.188175 -3.15384e-19)
(0.397304 -0.206003 1.33193e-19)
(0.426321 -0.220423 9.27104e-20)
(-0.0117843 0.0189939 -2.80876e-19)
(-0.0267992 0.0461751 2.88031e-19)
(-0.0340737 0.0649031 -1.63468e-19)
(-0.0353755 0.0763025 -5.28568e-19)
(-0.0318654 0.0816179 -4.897e-19)
(-0.0243658 0.0820151 -2.19847e-19)
(-0.0134995 0.078477 -1.82909e-19)
(0.000277448 0.0718023 -5.45606e-19)
(0.0166385 0.0626199 -2.22638e-19)
(0.0353501 0.0514119 2.04361e-19)
(0.0562417 0.0385414 -2.94018e-19)
(0.079182 0.02428 -3.13233e-19)
(0.10406 0.00883295 -2.97486e-19)
(0.130773 -0.00764023 5.4822e-19)
(0.159211 -0.0250087 -1.15423e-18)
(0.189255 -0.043157 6.6701e-19)
(0.220764 -0.0619743 -1.14505e-18)
(0.253575 -0.0813449 -1.77559e-19)
(0.287499 -0.101138 -6.35607e-19)
(0.322315 -0.121195 -1.48377e-19)
(0.357754 -0.141301 -1.81618e-19)
(0.393469 -0.161143 -6.05349e-19)
(0.429077 -0.180132 -6.38806e-20)
(0.464206 -0.197001 3.66045e-19)
(0.496333 -0.210269 -9.59243e-19)
(-0.0116048 0.0175302 2.41984e-19)
(-0.0262513 0.0428176 3.27454e-19)
(-0.0328787 0.0604444 1.14973e-18)
(-0.0331786 0.0712842 -2.03672e-19)
(-0.0282853 0.0764112 4.86608e-19)
(-0.0190213 0.076869 1.16881e-18)
(-0.00602664 0.0735539 -3.20539e-19)
(0.0102184 0.0672069 4.37685e-19)
(0.0293608 0.0584224 2.5731e-19)
(0.0511406 0.0476652 4.7107e-19)
(0.0753614 0.0352927 -9.56071e-20)
(0.101866 0.0215786 6.43745e-20)
(0.130519 0.00673514 -1.73134e-19)
(0.161185 -0.00906843 9.24596e-19)
(0.193726 -0.0256906 1.17841e-19)
(0.227981 -0.0430055 8.72826e-19)
(0.263768 -0.0608933 -2.25162e-19)
(0.300874 -0.0792329 8.08476e-19)
(0.339052 -0.0978938 1.14029e-19)
(0.378023 -0.116725 4.12754e-19)
(0.41746 -0.135537 -1.77304e-19)
(0.456952 -0.154065 -2.93872e-20)
(0.496049 -0.171781 9.7831e-19)
(0.534463 -0.187339 5.94439e-19)
(0.569606 -0.199051 -2.49426e-19)
(-0.0113365 0.0160474 -5.85397e-19)
(-0.0254483 0.0392744 -6.13115e-19)
(-0.0313025 0.0555631 -6.4447e-19)
(-0.0304886 0.0655935 2.37995e-19)
(-0.0241001 0.0702981 -4.81018e-19)
(-0.0129505 0.0706131 -7.22086e-20)
(0.00231164 0.0673542 -1.91513e-19)
(0.0211879 0.0612064 -8.02765e-19)
(0.0433029 0.0527288 -1.27812e-19)
(0.0683721 0.0423664 2.0937e-19)
(0.0961731 0.0304685 -6.63894e-19)
(0.12652 0.0173093 9.26186e-19)
(0.159245 0.00310656 -1.26864e-18)
(0.194177 -0.0119615 3.08462e-19)
(0.231131 -0.0277428 -7.87717e-19)
(0.269898 -0.0441004 -6.44891e-19)
(0.310234 -0.0609049 -3.74784e-20)
(0.351859 -0.0780279 -9.86311e-20)
(0.394455 -0.0953364 7.76427e-20)
(0.437666 -0.112685 -3.73742e-19)
(0.481092 -0.129905 -2.57992e-19)
(0.524249 -0.146779 3.16324e-19)
(0.566607 -0.162858 -8.75097e-19)
(0.607948 -0.176747 2.83151e-19)
(0.645827 -0.186468 1.94144e-19)
(-0.0110005 0.0145861 -1.036e-19)
(-0.0244121 0.0356412 -1.77715e-19)
(-0.029339 0.0503942 6.968e-19)
(-0.0272561 0.0593919 2.6057e-19)
(-0.0192082 0.0634579 3.47443e-19)
(-0.00599307 0.0634384 -4.6706e-19)
(0.0117386 0.0600776 7.155e-22)
(0.0334755 0.0540085 -3.84614e-19)
(0.0588232 0.0457552 7.146e-19)
(0.087473 0.0357422 2.36224e-19)
(0.119173 0.0243092 2.69319e-19)
(0.153704 0.0117289 -1.06684e-18)
(0.190853 -0.00177693 1.32902e-18)
(0.230401 -0.0160225 -3.99569e-19)
(0.272102 -0.0308461 -2.88647e-19)
(0.315676 -0.0461011 8.72015e-19)
(0.360801 -0.0616488 3.92314e-19)
(0.40711 -0.0773542 -9.94038e-19)
(0.454194 -0.0930821 -4.15763e-19)
(0.501604 -0.108692 1.25843e-18)
(0.548857 -0.124034 -9.58889e-19)
(0.595394 -0.138932 5.78184e-19)
(0.640601 -0.153035 3.19438e-19)
(0.684302 -0.16494 -4.11665e-19)
(0.724422 -0.172229 -3.87812e-19)
(-0.0106149 0.0131775 -3.81305e-19)
(-0.0231568 0.0319994 6.15006e-19)
(-0.0269665 0.045062 2.63122e-19)
(-0.0234061 0.0528392 -3.82157e-19)
(-0.0134704 0.0560794 -6.12815e-20)
(0.00206174 0.0555578 -4.05337e-19)
(0.0225416 0.0519583 -1.62593e-19)
(0.0474481 0.0458673 1.84664e-19)
(0.0763681 0.0377764 -4.5612e-20)
(0.108966 0.0280891 3.54099e-19)
(0.144953 0.0171348 -3.09873e-19)
(0.184065 0.00518248 8.63079e-19)
(0.22603 -0.00754388 -1.0791e-18)
(0.27056 -0.0208534 6.75944e-19)
(0.317327 -0.0345775 8.47328e-19)
(0.365957 -0.0485626 -1.23069e-18)
(0.416028 -0.0626637 -3.75112e-19)
(0.467066 -0.0767416 6.36609e-19)
(0.518552 -0.0906611 -3.91637e-19)
(0.569935 -0.104288 3.79227e-19)
(0.62064 -0.117487 -9.17585e-19)
(0.670037 -0.130127 1.54768e-19)
(0.717442 -0.141964 5.94971e-19)
(0.762716 -0.151608 -9.53723e-19)
(0.804332 -0.15602 2.63335e-19)
(-0.0101925 0.0118421 -3.51735e-19)
(-0.0216835 0.0284113 1.14448e-18)
(-0.0241429 0.0396738 2.20489e-19)
(-0.0188351 0.0460853 -6.00225e-19)
(-0.00670985 0.0483511 4.32796e-19)
(0.0114717 0.0471954 2.22003e-19)
(0.0350632 0.0432536 3.56392e-19)
(0.0635334 0.0370722 -2.19463e-20)
(0.0964464 0.029113 -3.7047e-20)
(0.133431 0.0197596 -7.98683e-20)
(0.17415 0.00932934 -3.50704e-19)
(0.218274 -0.00191413 -1.34368e-20)
(0.265453 -0.0137484 8.2725e-19)
(0.315302 -0.0259816 -1.36819e-18)
(0.367387 -0.0384432 9.76891e-19)
(0.421217 -0.0509776 1.99521e-19)
(0.476246 -0.0634391 3.53886e-19)
(0.531878 -0.0756891 -1.8187e-19)
(0.587478 -0.0875946 1.61889e-18)
(0.642389 -0.0990263 -1.00066e-18)
(0.695939 -0.10986 7.99892e-19)
(0.747424 -0.120002 1.86624e-19)
(0.796103 -0.12928 -5.83824e-19)
(0.84186 -0.136266 4.9424e-19)
(0.883645 -0.137381 7.53597e-19)
(-0.00973846 0.0105891 -1.01582e-19)
(-0.0199763 0.0249187 -4.03236e-19)
(-0.0208021 0.0343155 -6.92571e-19)
(-0.0134095 0.0392634 -3.96455e-19)
(0.00128511 0.0404531 -5.55608e-20)
(0.0225327 0.0385762 -1.58117e-19)
(0.0496852 0.0342317 -7.41045e-19)
(0.0821947 0.0279331 1.23629e-19)
(0.119593 0.0201156 -8.45612e-19)
(0.161457 0.0111434 -6.67387e-20)
(0.207382 0.00132031 -8.22271e-19)
(0.256945 -0.00909935 -2.94858e-19)
(0.309692 -0.0198997 1.70657e-19)
(0.365111 -0.0308946 -8.13532e-19)
(0.422633 -0.0419194 7.30864e-21)
(0.481629 -0.0528257 -7.07355e-19)
(0.541416 -0.0634763 2.74653e-19)
(0.601274 -0.0737415 -9.9015e-19)
(0.660464 -0.0834962 -1.69117e-19)
(0.718246 -0.0926162 -1.86018e-20)
(0.773894 -0.10098 -1.65187e-19)
(0.826665 -0.108489 -1.672e-19)
(0.875804 -0.114917 -8.15377e-20)
(0.921036 -0.118739 -3.29299e-19)
(0.960579 -0.117126 -7.0551e-19)
(-0.00924794 0.00941729 1.87414e-19)
(-0.0179991 0.021542 5.09893e-19)
(-0.0168527 0.0290497 6.15907e-19)
(-0.00696815 0.0324857 -4.94794e-19)
(0.0107538 0.0325493 9.25239e-19)
(0.0355654 0.029916 -5.0479e-19)
(0.0668062 0.0251592 2.76148e-19)
(0.103899 0.0187656 4.34598e-19)
(0.146323 0.0111467 3.97945e-19)
(0.193583 0.00264673 1.95278e-19)
(0.245173 -0.00644711 3.16575e-19)
(0.30055 -0.015895 1.85526e-19)
(0.359114 -0.0254953 1.26079e-18)
(0.420201 -0.0350771 -9.18765e-19)
(0.483079 -0.0444933 1.05509e-18)
(0.546963 -0.0536154 -4.36958e-19)
(0.61103 -0.062329 9.49634e-19)
(0.674446 -0.0705291 -4.362e-20)
(0.736396 -0.0781157 -1.96949e-19)
(0.796115 -0.0849871 -2.97126e-20)
(0.85291 -0.0910346 7.29852e-19)
(0.906186 -0.0961207 -6.91513e-19)
(0.955554 -0.099849 4.9666e-19)
(1.00083 -0.101104 5.25218e-19)
(1.03665 -0.101807 9.8641e-20)
(-0.00870558 0.00831581 1.29443e-19)
(-0.0156946 0.0182829 -7.26778e-19)
(-0.0121788 0.0239161 -2.65722e-19)
(0.00067298 0.0258413 2.45156e-19)
(0.0219529 0.0247829 -7.56918e-19)
(0.0508974 0.0214137 -1.49808e-19)
(0.0868158 0.0162901 1.05004e-19)
(0.129079 0.00987673 4.18743e-19)
(0.177088 0.00256251 -1.06333e-18)
(0.23024 -0.00533006 8.18963e-20)
(0.287892 -0.0135354 -3.14627e-19)
(0.349341 -0.0218359 -9.63211e-19)
(0.41381 -0.0300543 6.58115e-19)
(0.480448 -0.0380468 3.00004e-20)
(0.548343 -0.0456972 -2.17436e-20)
(0.616547 -0.0529117 6.71839e-19)
(0.684103 -0.0596144 -1.18219e-18)
(0.750083 -0.0657429 9.35633e-19)
(0.813626 -0.0712442 -1.75778e-19)
(0.87397 -0.0760714 5.26984e-19)
(0.930483 -0.0801819 -8.73774e-19)
(0.982688 -0.0835282 4.8755e-19)
(1.03035 -0.085947 -8.47916e-19)
(1.07347 -0.087024 8.43237e-19)
(1.10796 -0.0887685 -2.84966e-19)
(-0.00808534 0.00726707 8.62254e-19)
(-0.0129854 0.0151278 -1.44652e-19)
(-0.00664394 0.0189344 1.07999e-18)
(0.00971369 0.0193974 5.03501e-19)
(0.0351442 0.0172754 4.14048e-20)
(0.0688445 0.0132474 2.22408e-19)
(0.110067 0.00785839 5.42042e-20)
(0.158099 0.00155364 9.18834e-19)
(0.212228 -0.00530159 2.98245e-19)
(0.2717 -0.012411 -4.05532e-20)
(0.335694 -0.0195379 8.07532e-20)
(0.403307 -0.0264973 3.12593e-19)
(0.47355 -0.0331482 2.62277e-19)
(0.545366 -0.0393873 5.63939e-19)
(0.617656 -0.0451427 -6.45067e-19)
(0.689318 -0.0503684 1.93514e-19)
(0.759285 -0.0550383 6.24492e-20)
(0.826574 -0.0591413 2.86275e-19)
(0.890319 -0.062677 7.61092e-19)
(0.949809 -0.0656525 -5.05712e-19)
(1.0045 -0.0680815 3.62443e-20)
(1.05405 -0.0699835 -6.68973e-19)
(1.0983 -0.0713285 6.16528e-19)
(1.13733 -0.0719144 -5.64957e-19)
(1.1682 -0.0730708 7.53423e-20)
(-0.00735175 0.00624957 -7.17986e-19)
(-0.00977675 0.0120535 5.69406e-19)
(-9.56888e-05 0.0141098 -9.32125e-19)
(0.0203609 0.0132032 8.07516e-20)
(0.0505815 0.0101276 6.6462e-19)
(0.0896922 0.00557258 -1.11377e-18)
(0.136853 7.40068e-05 8.89873e-19)
(0.191228 -0.00594347 -1.42036e-18)
(0.251941 -0.0121421 2.84239e-19)
(0.318044 -0.0182593 6.15939e-20)
(0.388493 -0.0240975 4.86058e-19)
(0.462145 -0.0295167 -1.62075e-18)
(0.53778 -0.0344258 2.81469e-19)
(0.614125 -0.0387756 2.98263e-19)
(0.689909 -0.0425509 -1.78161e-19)
(0.763904 -0.0457627 -1.10288e-18)
(0.834982 -0.0484408 5.2286e-19)
(0.902161 -0.0506272 9.60718e-19)
(0.964634 -0.05237 -1.00096e-18)
(1.0218 -0.0537203 7.18735e-19)
(1.07326 -0.05473 -9.05833e-19)
(1.11883 -0.0554528 6.53281e-19)
(1.15853 -0.0559072 -1.66725e-19)
(1.19253 -0.0559556 9.53986e-19)
(1.21893 -0.0564648 -1.06203e-18)
(-0.00646176 0.00524105 1.01942e-19)
(-0.00596075 0.00903281 8.3965e-20)
(0.0076275 0.00943973 2.05451e-19)
(0.0328196 0.00729596 7.41271e-19)
(0.0684981 0.0034251 -2.38245e-20)
(0.11368 -0.00147374 1.67283e-19)
(0.167388 -0.00687633 7.52378e-19)
(0.228612 -0.0123833 3.05688e-19)
(0.296263 -0.0176923 -1.01735e-19)
(0.369146 -0.0225852 8.67254e-19)
(0.445952 -0.026917 -9.92588e-19)
(0.525275 -0.0306069 1.52865e-18)
(0.605651 -0.033628 -6.08678e-19)
(0.685611 -0.0359975 1.10339e-18)
(0.763741 -0.0377658 -3.74097e-19)
(0.838747 -0.039006 1.35899e-19)
(0.909505 -0.0398037 1.64114e-19)
(0.975104 -0.040248 -3.0824e-19)
(1.03487 -0.0404251 2.61112e-19)
(1.08838 -0.0404131 1.66924e-19)
(1.13543 -0.0402808 2.22788e-19)
(1.17606 -0.0400877 4.52139e-19)
(1.21045 -0.0398574 -4.83443e-20)
(1.23898 -0.0394829 -2.03883e-19)
(1.26055 -0.0395117 5.61371e-19)
(-0.00536709 0.00422145 -5.95979e-19)
(-0.00142137 0.00604162 6.52489e-20)
(0.0166896 0.00492142 -1.18352e-18)
(0.0472839 0.00170952 -2.84158e-19)
(0.0890965 -0.00275421 -5.37097e-19)
(0.140989 -0.00776735 -1.15398e-19)
(0.201794 -0.0128245 -5.82656e-19)
(0.270269 -0.017561 -3.51161e-19)
(0.345057 -0.0217223 4.66668e-19)
(0.424669 -0.0251488 -7.83087e-19)
(0.5075 -0.0277642 -2.1863e-19)
(0.591867 -0.029562 8.76937e-21)
(0.67608 -0.030593 -1.48356e-18)
(0.758507 -0.0309501 6.31068e-19)
(0.837657 -0.030754 -9.18313e-19)
(0.912239 -0.0301386 -2.72961e-20)
(0.981216 -0.0292384 1.75709e-19)
(1.04383 -0.0281784 -2.90577e-19)
(1.09962 -0.0270666 -2.52554e-19)
(1.14838 -0.0259906 1.18628e-19)
(1.19017 -0.0250161 1.28667e-19)
(1.22523 -0.0241884 -8.4276e-19)
(1.25399 -0.0235139 4.78009e-19)
(1.27697 -0.0228974 2.23144e-19)
(1.29368 -0.022705 4.33186e-20)
(-0.00401675 0.00317557 6.07564e-19)
(0.00396035 0.00306417 -6.71585e-19)
(0.0272503 0.000559974 9.50641e-19)
(0.0639296 -0.00351747 1.50531e-19)
(0.11254 -0.00833157 -4.61067e-20)
(0.171732 -0.0131885 -3.25662e-19)
(0.240091 -0.0176144 4.93469e-20)
(0.31608 -0.0212938 5.03114e-19)
(0.39802 -0.0240363 -6.97946e-19)
(0.484088 -0.0257593 7.37196e-19)
(0.572364 -0.0264719 -7.85793e-20)
(0.660904 -0.0262575 3.66315e-20)
(0.747825 -0.0252546 9.63949e-19)
(0.8314 -0.0236367 1.28838e-18)
(0.910139 -0.0215929 -5.06702e-19)
(0.982847 -0.01931 8.85295e-19)
(1.04866 -0.0169584 4.38984e-19)
(1.10706 -0.014682 -2.73685e-19)
(1.15783 -0.0125927 8.39587e-19)
(1.20106 -0.0107687 -4.32123e-20)
(1.23706 -0.00925614 -7.86067e-19)
(1.26631 -0.00807329 8.09423e-19)
(1.28944 -0.00719838 1.04458e-19)
(1.3071 -0.00653897 -4.77489e-19)
(1.31923 -0.00635802 1.52811e-19)
(-0.00235938 0.0020949 -8.42012e-19)
(0.0103014 9.80105e-05 9.14705e-19)
(0.0394587 -0.00362493 -5.84095e-19)
(0.0829076 -0.00833324 -1.824e-19)
(0.138945 -0.0132189 -4.1479e-19)
(0.205952 -0.0176143 7.38971e-19)
(0.2822 -0.0210953 -4.31243e-19)
(0.365798 -0.0234157 -1.99021e-19)
(0.454695 -0.02447 -5.71848e-19)
(0.54671 -0.0242729 1.51947e-20)
(0.639616 -0.0229366 -2.2623e-19)
(0.731237 -0.0206467 1.089e-19)
(0.81957 -0.0176351 -1.15743e-18)
(0.902877 -0.0141538 3.31222e-19)
(0.979766 -0.0104511 -3.95686e-19)
(1.04923 -0.00675177 -3.13631e-19)
(1.11068 -0.00324363 9.50025e-20)
(1.16386 -6.97702e-05 -4.50622e-19)
(1.20889 0.00267345 -1.84179e-19)
(1.24614 0.00493391 5.45155e-19)
(1.27616 0.00669779 2.19529e-19)
(1.29966 0.00798247 -9.42111e-19)
(1.31742 0.00884299 6.77503e-19)
(1.33021 0.00937463 -1.27031e-19)
(1.33824 0.00936516 -2.54144e-19)
(-0.000345245 0.000978826 -3.04428e-19)
(0.0177122 -0.00284265 -1.69067e-19)
(0.0534485 -0.00759386 -3.326e-20)
(0.104338 -0.0126667 2.5375e-19)
(0.168377 -0.0173122 2.77002e-19)
(0.243616 -0.0209125 2.42132e-19)
(0.32794 -0.0231173 3.04295e-19)
(0.419051 -0.0237747 4.66496e-19)
(0.51449 -0.0228887 7.17232e-19)
(0.611714 -0.0205921 7.11369e-19)
(0.708217 -0.0171161 3.76601e-19)
(0.801663 -0.0127556 -1.02427e-19)
(0.890012 -0.00783466 2.49442e-20)
(0.971622 -0.00267372 -2.99581e-20)
(1.0453 0.00243645 2.98718e-19)
(1.11033 0.00725375 -7.30396e-20)
(1.16643 0.0115952 8.58929e-19)
(1.21371 0.0153394 -3.90754e-19)