1.275 	2.15223e-18 	-2.76991e-20 	-0.17785 	0.0067887 	-2.99575e-22
1.825 	2.15223e-18 	-1.39322e-20 	-0.448861 	0.00408782 	4.78453e-21
2.375 	2.15223e-18 	-2.66896e-23 	-0.441141 	0.000525584 	-2.16738e-21
