/*--------------------------------*- C++ -*----------------------------------*\
  =========                 |
  \\      /  F ield         | OpenFOAM: The Open Source CFD Toolbox
   \\    /   O peration     | Website:  https://openfoam.org
    \\  /    A nd           | Version:  6.0
     \\/     M anipulation  |
\*---------------------------------------------------------------------------*/
FoamFile
{
    version     2.0;
    format      ascii;
    class       volScalarField;
    location    "24.1";
    object      p;
}
// * * * * * * * * * * * * * * * * * * * * * * * * * * * * * * * * * * * * * //

dimensions      [0 2 -2 0 0 0 0];

internalField   nonuniform List<scalar> 
8000
(
-0.262123
-0.263133
-0.263793
-0.264269
-0.264667
-0.265001
-0.265287
-0.265537
-0.26576
-0.265964
-0.266153
-0.266332
-0.266505
-0.266676
-0.26685
-0.267036
-0.267235
-0.267409
-0.267539
-0.268048
-0.262245
-0.263252
-0.263908
-0.26438
-0.264772
-0.265101
-0.26538
-0.265624
-0.265841
-0.266038
-0.266219
-0.266391
-0.266556
-0.266719
-0.266885
-0.267063
-0.267255
-0.267422
-0.267544
-0.268048
-0.262488
-0.263486
-0.264134
-0.264597
-0.264978
-0.265295
-0.265562
-0.265793
-0.265996
-0.266178
-0.266344
-0.2665
-0.266649
-0.266796
-0.266945
-0.267107
-0.267284
-0.267436
-0.267543
-0.268038
-0.26285
-0.263836
-0.264471
-0.264919
-0.265285
-0.265584
-0.265831
-0.266041
-0.266222
-0.266382
-0.266525
-0.266656
-0.26678
-0.266901
-0.267025
-0.267161
-0.267314
-0.267444
-0.267526
-0.268008
-0.263332
-0.264301
-0.264919
-0.265348
-0.265691
-0.265965
-0.266186
-0.266367
-0.266519
-0.266647
-0.266757
-0.266854
-0.266942
-0.267027
-0.267115
-0.267215
-0.267335
-0.267433
-0.267482
-0.267944
-0.263932
-0.264881
-0.265477
-0.265882
-0.266196
-0.266438
-0.266625
-0.26677
-0.266883
-0.26697
-0.267037
-0.267089
-0.26713
-0.267167
-0.267206
-0.267259
-0.267333
-0.267388
-0.267393
-0.26783
-0.264651
-0.265576
-0.266146
-0.26652
-0.266799
-0.267002
-0.267147
-0.267247
-0.267312
-0.267348
-0.267361
-0.267356
-0.267338
-0.267313
-0.267289
-0.26728
-0.267294
-0.267293
-0.267241
-0.267647
-0.26549
-0.266388
-0.266928
-0.267265
-0.267501
-0.267658
-0.267752
-0.267798
-0.267805
-0.267781
-0.267729
-0.267654
-0.267563
-0.267461
-0.267358
-0.267269
-0.267207
-0.267131
-0.267008
-0.267375
-0.266453
-0.267319
-0.267822
-0.268116
-0.268303
-0.268405
-0.26844
-0.268424
-0.268365
-0.268269
-0.268141
-0.267984
-0.267805
-0.26761
-0.267409
-0.26722
-0.26706
-0.26689
-0.266675
-0.266992
-0.267544
-0.268372
-0.268831
-0.269075
-0.269205
-0.269245
-0.269214
-0.269127
-0.268993
-0.268817
-0.268603
-0.268352
-0.26807
-0.267764
-0.267445
-0.267133
-0.266849
-0.266556
-0.266222
-0.266476
-0.268768
-0.269551
-0.269959
-0.270145
-0.270209
-0.270179
-0.270075
-0.269911
-0.269695
-0.269432
-0.269122
-0.268767
-0.268369
-0.267935
-0.267476
-0.267014
-0.266575
-0.266123
-0.265632
-0.265802
-0.270131
-0.270861
-0.27121
-0.271327
-0.271318
-0.27121
-0.271025
-0.270778
-0.270475
-0.270119
-0.269708
-0.269241
-0.268718
-0.268141
-0.26752
-0.26688
-0.266248
-0.265592
-0.264892
-0.26494
-0.271643
-0.272308
-0.272586
-0.272626
-0.272533
-0.272339
-0.272066
-0.27173
-0.271336
-0.270884
-0.27037
-0.269787
-0.269132
-0.268401
-0.2676
-0.266752
-0.265887
-0.26497
-0.263987
-0.263857
-0.273312
-0.273899
-0.274094
-0.274045
-0.273856
-0.273565
-0.273197
-0.272766
-0.272278
-0.271729
-0.271112
-0.270414
-0.269625
-0.268734
-0.26774
-0.266659
-0.265518
-0.264274
-0.262909
-0.26251
-0.27515
-0.275643
-0.27574
-0.275586
-0.275289
-0.274889
-0.274415
-0.273882
-0.273296
-0.272649
-0.271929
-0.27112
-0.2702
-0.269151
-0.267957
-0.266624
-0.265168
-0.263525
-0.261653
-0.260849
-0.277168
-0.27755
-0.277532
-0.277255
-0.276832
-0.276307
-0.275714
-0.27507
-0.274377
-0.273629
-0.272808
-0.27189
-0.270847
-0.269646
-0.268256
-0.266663
-0.264863
-0.262758
-0.260241
-0.25884
-0.27938
-0.279633
-0.279479
-0.279059
-0.278488
-0.27782
-0.27709
-0.276319
-0.275509
-0.274652
-0.273726
-0.272702
-0.271543
-0.270202
-0.26863
-0.266787
-0.264644
-0.262052
-0.25878
-0.256529
-0.281808
-0.281908
-0.281595
-0.281008
-0.280265
-0.279428
-0.27854
-0.277621
-0.276678
-0.275699
-0.274662
-0.273532
-0.272264
-0.270801
-0.269072
-0.267006
-0.264539
-0.26146
-0.257318
-0.25382
-0.284473
-0.284397
-0.283898
-0.283116
-0.282173
-0.281141
-0.280068
-0.278979
-0.277882
-0.276766
-0.27561
-0.274379
-0.273024
-0.271482
-0.269663
-0.26746
-0.264737
-0.261138
-0.2558
-0.250269
-0.287409
-0.287128
-0.286413
-0.285406
-0.284232
-0.282975
-0.28169
-0.280407
-0.279135
-0.277871
-0.276597
-0.275287
-0.273907
-0.272416
-0.270757
-0.268856
-0.266589
-0.26349
-0.258324
-0.252178
-0.290653
-0.290135
-0.289172
-0.287907
-0.286471
-0.28496
-0.283436
-0.281935
-0.280472
-0.27905
-0.277662
-0.276303
-0.274973
-0.273691
-0.272516
-0.271584
-0.271156
-0.271655
-0.274624
-0.287007
-0.294254
-0.293459
-0.292213
-0.290657
-0.288929
-0.287136
-0.285351
-0.283613
-0.281945
-0.280358
-0.278857
-0.277457
-0.276188
-0.275117
-0.274366
-0.274156
-0.274853
-0.277001
-0.281775
-0.293821
-0.298264
-0.297148
-0.29558
-0.293701
-0.291652
-0.289555
-0.287489
-0.285502
-0.283621
-0.281865
-0.280253
-0.278813
-0.277597
-0.276698
-0.27626
-0.27651
-0.277773
-0.28047
-0.285187
-0.294469
-0.302744
-0.301254
-0.299324
-0.297091
-0.294696
-0.292275
-0.289915
-0.28767
-0.285571
-0.283644
-0.281913
-0.280418
-0.279218
-0.278408
-0.278122
-0.278545
-0.279905
-0.282453
-0.286441
-0.292994
-0.307752
-0.30583
-0.303498
-0.300881
-0.298118
-0.295358
-0.292695
-0.290184
-0.287861
-0.285751
-0.283881
-0.28229
-0.281033
-0.280189
-0.279862
-0.280173
-0.281251
-0.283202
-0.286113
-0.29019
-0.313349
-0.31093
-0.308153
-0.305125
-0.301976
-0.298865
-0.29589
-0.293105
-0.290542
-0.288224
-0.286172
-0.284416
-0.282998
-0.281974
-0.281408
-0.281364
-0.281897
-0.28302
-0.284754
-0.286838
-0.319589
-0.316603
-0.313342
-0.309879
-0.306328
-0.302853
-0.299553
-0.296476
-0.293644
-0.291071
-0.288769
-0.286752
-0.285047
-0.283683
-0.282692
-0.282102
-0.281918
-0.282115
-0.28269
-0.283218
-0.326515
-0.322895
-0.31911
-0.315191
-0.311222
-0.30737
-0.303726
-0.300324
-0.297173
-0.294274
-0.291624
-0.289225
-0.287087
-0.285223
-0.283647
-0.282363
-0.281363
-0.280615
-0.280108
-0.27944
-0.334162
-0.329838
-0.325495
-0.321103
-0.3167
-0.31245
-0.308428
-0.304649
-0.301105
-0.29778
-0.294658
-0.291735
-0.289012
-0.286497
-0.284199
-0.282118
-0.28025
-0.278573
-0.277074
-0.27545
-0.342545
-0.337456
-0.332526
-0.327643
-0.322788
-0.318108
-0.313656
-0.309423
-0.30538
-0.301499
-0.297761
-0.294161
-0.290704
-0.287404
-0.284276
-0.281331
-0.278573
-0.275998
-0.273592
-0.271157
-0.351663
-0.345754
-0.340213
-0.334825
-0.329491
-0.324333
-0.319374
-0.314578
-0.309902
-0.305313
-0.3008
-0.296369
-0.292042
-0.287848
-0.283815
-0.279969
-0.276323
-0.272885
-0.269641
-0.266472
-0.361489
-0.354716
-0.34855
-0.342639
-0.336787
-0.33108
-0.325507
-0.32001
-0.31454
-0.309075
-0.303625
-0.298222
-0.292912
-0.287745
-0.282764
-0.278005
-0.273488
-0.269227
-0.2652
-0.261346
-0.371969
-0.364304
-0.357501
-0.351046
-0.344621
-0.338266
-0.331941
-0.325576
-0.319132
-0.312619
-0.306082
-0.299589
-0.293214
-0.287027
-0.281082
-0.275421
-0.270063
-0.265022
-0.260261
-0.255758
-0.383018
-0.374447
-0.367003
-0.359972
-0.352894
-0.345764
-0.338518
-0.331096
-0.323494
-0.31577
-0.308019
-0.300347
-0.292858
-0.285635
-0.278738
-0.272203
-0.266046
-0.26027
-0.254823
-0.249707
-0.394514
-0.385041
-0.376953
-0.3693
-0.361466
-0.3534
-0.345042
-0.336364
-0.327426
-0.318351
-0.30929
-0.300389
-0.291771
-0.283525
-0.275706
-0.26834
-0.261432
-0.25497
-0.248886
-0.2432
-0.406294
-0.395943
-0.387209
-0.37887
-0.370146
-0.36096
-0.351283
-0.341157
-0.330726
-0.320193
-0.309765
-0.299618
-0.289886
-0.280652
-0.271958
-0.263815
-0.256212
-0.249119
-0.242447
-0.236243
-0.418158
-0.406969
-0.397581
-0.388472
-0.378699
-0.368191
-0.356989
-0.345239
-0.333194
-0.321137
-0.309323
-0.297949
-0.287143
-0.276975
-0.267467
-0.258607
-0.250367
-0.242701
-0.235496
-0.22883
-0.429865
-0.417893
-0.407838
-0.397852
-0.386852
-0.374813
-0.361894
-0.34838
-0.33464
-0.321036
-0.307856
-0.295302
-0.283485
-0.272451
-0.262196
-0.252687
-0.243876
-0.235697
-0.228015
-0.220951
-0.441133
-0.42845
-0.417706
-0.406716
-0.394299
-0.380528
-0.36573
-0.350355
-0.334889
-0.319756
-0.305266
-0.291603
-0.278854
-0.267033
-0.256108
-0.246021
-0.236705
-0.228077
-0.219979
-0.212582
-0.451648
-0.438338
-0.426871
-0.414737
-0.400713
-0.385033
-0.368239
-0.350955
-0.333779
-0.317179
-0.30146
-0.286781
-0.273192
-0.260672
-0.249158
-0.238569
-0.22882
-0.21981
-0.211358
-0.203697
-0.461071
-0.447223
-0.434991
-0.421567
-0.405759
-0.388033
-0.369175
-0.34999
-0.331166
-0.313193
-0.296354
-0.280768
-0.266441
-0.253316
-0.241299
-0.230288
-0.220182
-0.210857
-0.202119
-0.194266
-0.469038
-0.454749
-0.441704
-0.426846
-0.409106
-0.389244
-0.368314
-0.347288
-0.326922
-0.307701
-0.289869
-0.273496
-0.258543
-0.244913
-0.232485
-0.221136
-0.21075
-0.201184
-0.192228
-0.184255
-0.47518
-0.460548
-0.446639
-0.430218
-0.410439
-0.38841
-0.365458
-0.342701
-0.320934
-0.300615
-0.281934
-0.264905
-0.249443
-0.235414
-0.222671
-0.211072
-0.200487
-0.190755
-0.181653
-0.173635
-0.479128
-0.464252
-0.449431
-0.431342
-0.409469
-0.385303
-0.360436
-0.336103
-0.313107
-0.291858
-0.272483
-0.254937
-0.23909
-0.224773
-0.211815
-0.200058
-0.189361
-0.17954
-0.170367
-0.16238
-0.480523
-0.465502
-0.449729
-0.429907
-0.40594
-0.379727
-0.353105
-0.327389
-0.30336
-0.281364
-0.26146
-0.243543
-0.227439
-0.21295
-0.199882
-0.188063
-0.177341
-0.167514
-0.158349
-0.150469
-0.479031
-0.463961
-0.447214
-0.425634
-0.399635
-0.371526
-0.343354
-0.316477
-0.291629
-0.269081
-0.248819
-0.230682
-0.214455
-0.199912
-0.186843
-0.175063
-0.164408
-0.154658
-0.145583
-0.13789
-0.474353
-0.459328
-0.441603
-0.418293
-0.390383
-0.360581
-0.3311
-0.303308
-0.277869
-0.25497
-0.234525
-0.216322
-0.200109
-0.185636
-0.172677
-0.161039
-0.150547
-0.140963
-0.132062
-0.124635
-0.466229
-0.451341
-0.432665
-0.407701
-0.378058
-0.346811
-0.316293
-0.287846
-0.262051
-0.239007
-0.218558
-0.200444
-0.184384
-0.170107
-0.157374
-0.145984
-0.135753
-0.126426
-0.117787
-0.110704
-0.454452
-0.439792
-0.420219
-0.393731
-0.362583
-0.330174
-0.298911
-0.27008
-0.244166
-0.221181
-0.200907
-0.18304
-0.167273
-0.15332
-0.140931
-0.129898
-0.12003
-0.111055
-0.102769
-0.0961092
-0.438871
-0.424532
-0.404147
-0.376312
-0.343928
-0.310667
-0.278963
-0.25002
-0.224224
-0.201502
-0.181578
-0.164115
-0.148782
-0.135281
-0.123355
-0.112791
-0.103389
-0.094866
-0.0870295
-0.0808732
-0.419398
-0.40547
-0.384391
-0.355428
-0.32211
-0.288323
-0.256485
-0.227702
-0.202255
-0.179993
-0.160592
-0.143684
-0.128924
-0.116004
-0.104661
-0.0946784
-0.0858509
-0.0778841
-0.0705999
-0.065035
-0.396007
-0.382583
-0.360956
-0.331119
-0.297193
-0.263215
-0.231547
-0.203186
-0.178309
-0.156697
-0.137982
-0.121777
-0.107724
-0.0955083
-0.0848661
-0.0755792
-0.0674358
-0.0601355
-0.0535157
-0.0486376
-0.368738
-0.355913
-0.333909
-0.30348
-0.269283
-0.235446
-0.204245
-0.176555
-0.152458
-0.131672
-0.113799
-0.0984339
-0.0852132
-0.0738219
-0.0639949
-0.055514
-0.0481643
-0.0416452
-0.0358085
-0.0317043
-0.337696
-0.325564
-0.303376
-0.272654
-0.23853
-0.205159
-0.174705
-0.147919
-0.124794
-0.104997
-0.0881052
-0.0737051
-0.0614323
-0.0509744
-0.0420695
-0.0345012
-0.0280552
-0.0224373
-0.0175021
-0.0142272
-0.303049
-0.291705
-0.269539
-0.238836
-0.205121
-0.172527
-0.143082
-0.117413
-0.0954345
-0.0767707
-0.0609817
-0.0476536
-0.0364265
-0.0269956
-0.019107
-0.0125503
-0.00711793
-0.00252524
0.00139415
0.00379416
-0.26502
-0.254558
-0.232634
-0.20226
-0.169282
-0.137756
-0.109559
-0.0852005
-0.0645206
-0.0471127
-0.0325284
-0.0203583
-0.0102527
-0.00192051
0.00487769
0.0103398
0.0146616
0.0181108
0.0208762
0.0222351
-0.22389
-0.2144
-0.19294
-0.163202
-0.131272
-0.101083
-0.0743503
-0.0514694
-0.0322189
-0.0161679
-0.00286666
0.00808409
0.0170174
0.024203
0.0298578
0.0341638
0.0373002
0.0394803
0.0408294
0.040707
-0.179986
-0.171556
-0.15078
-0.121974
-0.0913805
-0.0627718
-0.0376952
-0.0164374
0.00127651
0.0158946
0.0278631
0.0375665
0.0453145
0.0513448
0.0558402
0.0589616
0.060848
0.0615399
0.0609356
0.0587673
-0.133675
-0.126385
-0.10651
-0.0789155
-0.049924
-0.0231146
0.000137705
0.0196478
0.0357382
0.0488708
0.0594885
0.0679629
0.0745812
0.0795472
0.0830071
0.0850899
0.085822
0.0848518
0.0817238
0.0774463
-0.0853601
-0.0792851
-0.0605135
-0.0343901
-0.00724059
0.0175753
0.0388548
0.0565076
0.0708981
0.0825013
0.0917615
0.0990487
0.104648
0.108761
0.111547
0.113152
0.11348
0.111692
0.107091
0.102447
-0.0354711
-0.0306749
-0.0131965
0.0112217
0.0363167
0.0589692
0.0781456
0.0938418
0.106457
0.116476
0.124344
0.130436
0.135051
0.138429
0.140813
0.142475
0.143391
0.142591
0.139813
0.143263
0.0155518
0.0190122
0.0350251
0.0575299
0.0803869
0.100732
0.117694
0.131346
0.142113
0.150483
0.156896
0.161721
0.165255
0.167752
0.169468
0.170666
0.171334
0.171005
0.170563
0.176155
0.067249
0.0693284
0.0837257
0.10414
0.124607
0.142528
0.157185
0.168721
0.177578
0.184242
0.189142
0.192639
0.195025
0.19655
0.197463
0.197981
0.198089
0.197498
0.197104
0.201597
0.119158
0.119823
0.13248
0.150659
0.168619
0.184027
0.196315
0.205679
0.212576
0.21748
0.220808
0.222903
0.224046
0.224473
0.224414
0.224064
0.223419
0.222258
0.221322
0.224334
0.170817
0.170049
0.180865
0.196701
0.212071
0.22491
0.234789
0.241951
0.246857
0.249969
0.251684
0.252328
0.25216
0.251401
0.250254
0.248886
0.247279
0.24524
0.243451
0.24508
0.221771
0.219563
0.22847
0.241889
0.254622
0.26487
0.272328
0.27728
0.280187
0.281494
0.281578
0.280742
0.279227
0.277233
0.274941
0.27249
0.269849
0.266846
0.264128
0.264432
0.271576
0.267937
0.274893
0.285861
0.295948
0.303613
0.308667
0.311428
0.312352
0.311865
0.310321
0.308003
0.30513
0.301884
0.298423
0.294863
0.291164
0.287178
0.283526
0.282579
0.319802
0.314755
0.319751
0.328269
0.335734
0.340857
0.343554
0.344169
0.343149
0.340902
0.337759
0.333981
0.329768
0.325282
0.320664
0.316007
0.311268
0.306325
0.301765
0.299626
0.366038
0.35962
0.362675
0.36878
0.373686
0.376339
0.376751
0.375289
0.372389
0.368438
0.363746
0.358551
0.353036
0.347347
0.341604
0.335887
0.330149
0.324294
0.318863
0.315595
0.409893
0.402158
0.403319
0.407083
0.409523
0.409807
0.408035
0.404588
0.399892
0.394313
0.388139
0.381591
0.374832
0.367993
0.361178
0.354452
0.347772
0.34106
0.334804
0.330469
0.451
0.442014
0.441357
0.442886
0.442984
0.441028
0.437194
0.431877
0.425489
0.418376
0.410807
0.402983
0.395053
0.387132
0.37931
0.37164
0.364082
0.356576
0.349546
0.344211
0.489017
0.478862
0.47649
0.475917
0.473826
0.469783
0.464033
0.456978
0.449019
0.440482
0.431619
0.422612
0.413597
0.404673
0.39592
0.38738
0.379016
0.370782
0.363037
0.356774
0.523632
0.512402
0.50844
0.505928
0.501826
0.495873
0.488371
0.479729
0.470335
0.4605
0.450455
0.440369
0.430364
0.420528
0.410928
0.401597
0.392506
0.383614
0.375215
0.368104
0.554561
0.542361
0.536959
0.532694
0.526783
0.519115
0.510042
0.499979
0.489302
0.478303
0.467201
0.456151
0.445262
0.434611
0.424254
0.41422
0.404482
0.395007
0.386023
0.378148
0.581551
0.568499
0.561824
0.556017
0.548518
0.539347
0.528901
0.517596
0.505796
0.493782
0.481757
0.469865
0.458204
0.446842
0.435827
0.42518
0.414881
0.404899
0.395402
0.386857
0.604384
0.590606
0.582845
0.575722
0.566873
0.556429
0.544819
0.532461
0.519711
0.506838
0.494032
0.481427
0.469113
0.457151
0.445579
0.434415
0.423643
0.413235
0.403302
0.394187
0.622875
0.608507
0.599858
0.591664
0.581718
0.57024
0.557686
0.544476
0.530956
0.517386
0.503948
0.490766
0.477924
0.465475
0.453452
0.441871
0.430717
0.419965
0.409678
0.400099
0.636876
0.622058
0.612733
0.603725
0.592946
0.580684
0.567415
0.553558
0.539456
0.525358
0.511441
0.497822
0.48458
0.471764
0.459401
0.447503
0.436062
0.425049
0.414493
0.404561
0.646272
0.631152
0.621371
0.611815
0.600477
0.587687
0.573938
0.559648
0.545154
0.530703
0.516464
0.502552
0.489042
0.475978
0.463387
0.451278
0.439643
0.428456
0.417718
0.407549
0.650989
0.635717
0.625707
0.615875
0.604256
0.591202
0.577211
0.562703
0.548013
0.533384
0.518984
0.504925
0.49128
0.478093
0.465386
0.453171
0.44144
0.430165
0.419336
0.409047
0.650988
0.635716
0.625707
0.615875
0.604256
0.591202
0.577211
0.562704
0.548014
0.533384
0.518984
0.504925
0.491281
0.478093
0.465387
0.453172
0.44144
0.430166
0.419337
0.409048
0.64627
0.631151
0.621371
0.611815
0.600477
0.587687
0.573938
0.559649
0.545155
0.530704
0.516465
0.502554
0.489043
0.47598
0.463388
0.45128
0.439645
0.428458
0.41772
0.407551
0.636873
0.622056
0.612732
0.603724
0.592946
0.580684
0.567415
0.553559
0.539457
0.52536
0.511443
0.497825
0.484583
0.471766
0.459403
0.447506
0.436065
0.425052
0.414496
0.404564
0.622873
0.608505
0.599856
0.591663
0.581718
0.57024
0.557687
0.544477
0.530958
0.517389
0.50395
0.490769
0.477927
0.465479
0.453456
0.441875
0.430722
0.41997
0.409683
0.400104
0.604381
0.590604
0.582843
0.575721
0.566873
0.556429
0.54482
0.532463
0.519714
0.506841
0.494036
0.481431
0.469118
0.457156
0.445584
0.434421
0.423649
0.413241
0.403308
0.394193
0.581547
0.568496
0.561822
0.556016
0.548518
0.539348
0.528903
0.517599
0.5058
0.493787
0.481762
0.46987
0.45821
0.446848
0.435833
0.425187
0.414888
0.404907
0.39541
0.386865
0.554557
0.542358
0.536957
0.532694
0.526784
0.519116
0.510045
0.499983
0.489306
0.478309
0.467207
0.456158
0.445269
0.434618
0.424262
0.414228
0.40449
0.395016
0.386032
0.378157
0.523628
0.512399
0.508439
0.505928
0.501827
0.495875
0.488374
0.479734
0.470341
0.460506
0.450462
0.440377
0.430373
0.420537
0.410937
0.401607
0.392516
0.383624
0.375226
0.368114
0.489014
0.47886
0.476489
0.475917
0.473828
0.469787
0.464038
0.456984
0.449026
0.44049
0.431627
0.422621
0.413607
0.404684
0.395931
0.387391
0.379028
0.370794
0.363049
0.356786
0.450998
0.442013
0.441358
0.442888
0.442987
0.441033
0.4372
0.431884
0.425497
0.418385
0.410817
0.402994
0.395065
0.387144
0.379322
0.371653
0.364096
0.356589
0.34956
0.344225
0.409893
0.402158
0.40332
0.407086
0.409528
0.409813
0.408043
0.404597
0.399902
0.394324
0.388152
0.381604
0.374846
0.368007
0.361192
0.354467
0.347787
0.341075
0.334819
0.330485
0.36604
0.359623
0.362678
0.368785
0.373693
0.376347
0.376761
0.3753
0.372401
0.368451
0.36376
0.358565
0.353052
0.347363
0.34162
0.335904
0.330166
0.324311
0.31888
0.315612
0.319806
0.31476
0.319757
0.328276
0.335743
0.340867
0.343566
0.344182
0.343164
0.340918
0.337776
0.333998
0.329786
0.325301
0.320682
0.316026
0.311287
0.306345
0.301785
0.299646
0.271583
0.267945
0.274902
0.285871
0.295959
0.303625
0.308681
0.311444
0.312369
0.311883
0.31034
0.308022
0.30515
0.301904
0.298444
0.294884
0.291185
0.2872
0.283548
0.282601
0.221781
0.219575
0.228482
0.241903
0.254637
0.264886
0.272345
0.277299
0.280207
0.281515
0.281599
0.280764
0.279249
0.277256
0.274964
0.272514
0.269873
0.26687
0.264152
0.264456
0.170831
0.170064
0.180881
0.196718
0.212088
0.22493
0.234809
0.241972
0.246879
0.249992
0.251708
0.252352
0.252186
0.251427
0.250281
0.248912
0.247306
0.245267
0.243477
0.245107
0.119177
0.119843
0.1325
0.15068
0.168641
0.18405
0.196339
0.205704
0.212602
0.217507
0.220836
0.222931
0.224074
0.224502
0.224443
0.224093
0.223448
0.222287
0.221352
0.224363
0.0672734
0.0693537
0.0837511
0.104165
0.124633
0.142554
0.157213
0.16875
0.177608
0.184272
0.189173
0.19267
0.195056
0.196582
0.197495
0.198013
0.198122
0.19753
0.197137
0.201629
0.015582
0.0190433
0.035056
0.0575607
0.0804179
0.100763
0.117726
0.131378
0.142146
0.150517
0.156931
0.161756
0.16529
0.167787
0.169504
0.170701
0.171369
0.17104
0.170599
0.17619
-0.0354344
-0.0306374
-0.0131596
0.0112581
0.0363529
0.0590057
0.0781824
0.093879
0.106495
0.116514
0.124382
0.130475
0.13509
0.138468
0.140852
0.142514
0.14343
0.14263
0.139852
0.143302
-0.0853164
-0.0792407
-0.06047
-0.0343474
-0.00719853
0.0176172
0.0388967
0.0565497
0.0709403
0.0825437
0.091804
0.0990913
0.10469
0.108804
0.11159
0.113195
0.113523
0.111734
0.107134
0.10249
-0.133624
-0.126333
-0.106459
-0.0788662
-0.0498757
-0.0230669
0.000185073
0.019695
0.0357853
0.0489178
0.0595354
0.0680097
0.0746279
0.0795938
0.0830535
0.0851363
0.0858682
0.0848979
0.0817699
0.0774925
-0.179926
-0.171496
-0.150721
-0.121918
-0.0913255
-0.0627179
-0.037642
-0.0163847
0.00132876
0.0159465
0.0279147
0.0376178
0.0453655
0.0513954
0.0558906
0.0590116
0.0608978
0.0615893
0.0609846
0.0588161
-0.223822
-0.214332
-0.192873
-0.163138
-0.13121
-0.101022
-0.0742909
-0.0514109
-0.0321612
-0.0161109
-0.00281022
0.00813997
0.0170727
0.0242578
0.0299121
0.0342176
0.0373535
0.039533
0.0408815
0.0407588
-0.264943
-0.25448
-0.232558
-0.202187
-0.169213
-0.137689
-0.109494
-0.0851359
-0.0644572
-0.0470503
-0.0324669
-0.0202976
-0.0101928
-0.00186139
0.00493607
0.0103975
0.0147185
0.018167
0.0209316
0.0222901
-0.302962
-0.291618
-0.269455
-0.238755
-0.205044
-0.172453
-0.143009
-0.117343
-0.0953652
-0.0767027
-0.0609149
-0.047588
-0.036362
-0.0269321
-0.0190444
-0.0124887
-0.00705724
-0.00246552
0.0014529
0.0038523
-0.3376
-0.325468
-0.303282
-0.272565
-0.238444
-0.205077
-0.174625
-0.147841
-0.124718
-0.104924
-0.088033
-0.0736343
-0.0613629
-0.0509063
-0.0420026
-0.0344355
-0.0279907
-0.0223739
-0.0174399
-0.0141658
-0.368631
-0.355806
-0.333805
-0.303381
-0.269189
-0.235356
-0.204158
-0.176471
-0.152376
-0.131593
-0.113721
-0.0983579
-0.0851389
-0.0737491
-0.0639236
-0.0554441
-0.0480958
-0.0415781
-0.0357428
-0.0316395
-0.39589
-0.382466
-0.360842
-0.331011
-0.29709
-0.263116
-0.231453
-0.203095
-0.178221
-0.156611
-0.137899
-0.121696
-0.107644
-0.0954307
-0.0847902
-0.075505
-0.0673632
-0.0600646
-0.0534463
-0.0485694
-0.419271
-0.405343
-0.384267
-0.35531
-0.321998
-0.288216
-0.256383
-0.227604
-0.20216
-0.179901
-0.160502
-0.143597
-0.128839
-0.115921
-0.10458
-0.0945998
-0.0857741
-0.0778092
-0.0705268
-0.0649633
-0.438734
-0.424394
-0.404013
-0.376184
-0.343807
-0.310551
-0.278852
-0.249915
-0.224122
-0.201404
-0.181482
-0.164022
-0.148692
-0.135194
-0.12327
-0.112708
-0.103308
-0.094787
-0.0869526
-0.0807978
-0.454304
-0.439645
-0.420076
-0.393594
-0.362452
-0.33005
-0.298793
-0.269967
-0.244057
-0.221076
-0.200805
-0.182942
-0.167178
-0.153228
-0.140841
-0.129811
-0.119944
-0.110972
-0.102688
-0.0960302
-0.466071
-0.451184
-0.432512
-0.407554
-0.377918
-0.346678
-0.316167
-0.287726
-0.261935
-0.238895
-0.21845
-0.20034
-0.184283
-0.170009
-0.157279
-0.145892
-0.135663
-0.126339
-0.117702
-0.110622
-0.474186
-0.459162
-0.441441
-0.418137
-0.390234
-0.36044
-0.330966
-0.303179
-0.277746
-0.254852
-0.234411
-0.216212
-0.200002
-0.185533
-0.172577
-0.160942
-0.150453
-0.140872
-0.131973
-0.124548
-0.478856
-0.463786
-0.447042
-0.425469
-0.399477
-0.371376
-0.343211
-0.316341
-0.291499
-0.268956
-0.248699
-0.230566
-0.214343
-0.199804
-0.186738
-0.174961
-0.164309
-0.154563
-0.14549
-0.1378
-0.480339
-0.465319
-0.44955
-0.429733
-0.405773
-0.379569
-0.352954
-0.327245
-0.303222
-0.281232
-0.261333
-0.243421
-0.227321
-0.212836
-0.199772
-0.187956
-0.177238
-0.167414
-0.158252
-0.150375
-0.478936
-0.464061
-0.449244
-0.431161
-0.409295
-0.385136
-0.360277
-0.335952
-0.312963
-0.291719
-0.27235
-0.254809
-0.238966
-0.224654
-0.2117
-0.199946
-0.189252
-0.179435
-0.170266
-0.162281
-0.474982
-0.460351
-0.446445
-0.430029
-0.410257
-0.388236
-0.365293
-0.342543
-0.320783
-0.30047
-0.281795
-0.264771
-0.249313
-0.235289
-0.22255
-0.210955
-0.200374
-0.190646
-0.181547
-0.173532
-0.468834
-0.454546
-0.441504
-0.42665
-0.408917
-0.389063
-0.368142
-0.347123
-0.326764
-0.307549
-0.289724
-0.273356
-0.258408
-0.244783
-0.232359
-0.221014
-0.210632
-0.20107
-0.192118
-0.184148
-0.460862
-0.447015
-0.434786
-0.421366
-0.405564
-0.387845
-0.368996
-0.349818
-0.331001
-0.313035
-0.296202
-0.280621
-0.2663
-0.25318
-0.241168
-0.230161
-0.220059
-0.210739
-0.202004
-0.194155
-0.451435
-0.438126
-0.426661
-0.414531
-0.400512
-0.38484
-0.368053
-0.350777
-0.333607
-0.317014
-0.301302
-0.286629
-0.273045
-0.26053
-0.249021
-0.238436
-0.228693
-0.219686
-0.211239
-0.203582
-0.440916
-0.428235
-0.417492
-0.406506
-0.394094
-0.380329
-0.365539
-0.35017
-0.334711
-0.319586
-0.305102
-0.291445
-0.278701
-0.266886
-0.255966
-0.245883
-0.236572
-0.227949
-0.219855
-0.212462
-0.429645
-0.417675
-0.407622
-0.397639
-0.386644
-0.374609
-0.361697
-0.34819
-0.334457
-0.320859
-0.307686
-0.295137
-0.283326
-0.272298
-0.262048
-0.252544
-0.243737
-0.235563
-0.227886
-0.220826
-0.417937
-0.406749
-0.397363
-0.388256
-0.378488
-0.367984
-0.356787
-0.345044
-0.333005
-0.320955
-0.309147
-0.297779
-0.286978
-0.276816
-0.267313
-0.258458
-0.250223
-0.242562
-0.235361
-0.228701
-0.406072
-0.395722
-0.38699
-0.378653
-0.369932
-0.36075
-0.351078
-0.340957
-0.330532
-0.320006
-0.309583
-0.299442
-0.289715
-0.280486
-0.271798
-0.26366
-0.256062
-0.248974
-0.242306
-0.236107
-0.39429
-0.38482
-0.376734
-0.369082
-0.361251
-0.353188
-0.344834
-0.336161
-0.327228
-0.318158
-0.309103
-0.300207
-0.291594
-0.283353
-0.275539
-0.268179
-0.261276
-0.254819
-0.248739
-0.243059
-0.382795
-0.374226
-0.366784
-0.359754
-0.352679
-0.34555
-0.338308
-0.330889
-0.323292
-0.315572
-0.307826
-0.300159
-0.292675
-0.285457
-0.278565
-0.272035
-0.265883
-0.260111
-0.25467
-0.249559
-0.371747
-0.364083
-0.357282
-0.350828
-0.344405
-0.338052
-0.33173
-0.325367
-0.318927
-0.312417
-0.305884
-0.299395
-0.293024
-0.286842
-0.280902
-0.275245
-0.269893
-0.264856
-0.260101
-0.255603
-0.361267
-0.354496
-0.348331
-0.342422
-0.336572
-0.330866
-0.325295
-0.3198
-0.314331
-0.308869
-0.303422
-0.298023
-0.292717
-0.287553
-0.282577
-0.277822
-0.27331
-0.269054
-0.265032
-0.261184
-0.351441
-0.345535
-0.339996
-0.334609
-0.329276
-0.324119
-0.319161
-0.314366
-0.309691
-0.305104
-0.300593
-0.296164
-0.29184
-0.287649
-0.28362
-0.279778
-0.276136
-0.272704
-0.269464
-0.266301
-0.342325
-0.337238
-0.332309
-0.327428
-0.322574
-0.317895
-0.313443
-0.30921
-0.305167
-0.301287
-0.29755
-0.293951
-0.290495
-0.287198
-0.284073
-0.281132
-0.278378
-0.275807
-0.273407
-0.270976
-0.333942
-0.329621
-0.32528
-0.320889
-0.316487
-0.312238
-0.308215
-0.304436
-0.300891
-0.297565
-0.294443
-0.29152
-0.288797
-0.286284
-0.283987
-0.28191
-0.280044
-0.278372
-0.276878
-0.27526
-0.326296
-0.322678
-0.318895
-0.314979
-0.31101
-0.307158
-0.303513
-0.30011
-0.296958
-0.294057
-0.291405
-0.289005
-0.286866
-0.285002
-0.283427
-0.282145
-0.281148
-0.280404
-0.279901
-0.279239
-0.31937
-0.316388
-0.313128
-0.309667
-0.306117
-0.302642
-0.299341
-0.296261
-0.293427
-0.290851
-0.288546
-0.286527
-0.284819
-0.283454
-0.282463
-0.281874
-0.281692
-0.281893
-0.282472
-0.283006
-0.313132
-0.310715
-0.307941
-0.304914
-0.301766
-0.298654
-0.295677
-0.292889
-0.290323
-0.288001
-0.285945
-0.284185
-0.282765
-0.281738
-0.28117
-0.281126
-0.28166
-0.282785
-0.284524
-0.286615
-0.307535
-0.305616
-0.303286
-0.30067
-0.297907
-0.295146
-0.292481
-0.289967
-0.28764
-0.285525
-0.283651
-0.282054
-0.280793
-0.279945
-0.279615
-0.279925
-0.281003
-0.282956
-0.28587
-0.289954
-0.302528
-0.301041
-0.299114
-0.296881
-0.294486
-0.292063
-0.2897
-0.287451
-0.285348
-0.283415
-0.281678
-0.280177
-0.278972
-0.278156
-0.277867
-0.278287
-0.279646
-0.282194
-0.286185
-0.292746
-0.29805
-0.296937
-0.295371
-0.293493
-0.291443
-0.289343
-0.287273
-0.285281
-0.283395
-0.281633
-0.280014
-0.278567
-0.277345
-0.276439
-0.275997
-0.276242
-0.277502
-0.280198
-0.284918
-0.294207
-0.294041
-0.293251
-0.292006
-0.29045
-0.28872
-0.286925
-0.285134
-0.283391
-0.281717
-0.280122
-0.278614
-0.277206
-0.275931
-0.274852
-0.274095
-0.27388
-0.274572
-0.276717
-0.281492
-0.293546
-0.290444
-0.28993
-0.288968
-0.287702
-0.286264
-0.284749
-0.28322
-0.281712
-0.280242
-0.278812
-0.277416
-0.276048
-0.27471
-0.273421
-0.272238
-0.2713
-0.270866
-0.27136
-0.274327
-0.286715
-0.287205
-0.286928
-0.286214
-0.285205
-0.284028
-0.282767
-0.281475
-0.280184
-0.278905
-0.277631
-0.276348
-0.275029
-0.273642
-0.272142
-0.270475
-0.268566
-0.266291
-0.263183
-0.25801
-0.251855
-0.284277
-0.284203
-0.283704
-0.28292
-0.281973
-0.280936
-0.279856
-0.278759
-0.277652
-0.276527
-0.275362
-0.274121
-0.272758
-0.271206
-0.269379
-0.267167
-0.264437
-0.260829
-0.255485
-0.249945
-0.28162
-0.281722
-0.281408
-0.280819
-0.280071
-0.279229
-0.278332
-0.277405
-0.276452
-0.275463
-0.274416
-0.273276
-0.271999
-0.270527
-0.26879
-0.266716
-0.264241
-0.261155
-0.257009
-0.253505
-0.279204
-0.279457
-0.279301
-0.278879
-0.278303
-0.277627
-0.27689
-0.276109
-0.275289
-0.274422
-0.273486
-0.272452
-0.271283
-0.269933
-0.268353
-0.266502
-0.264353
-0.261755
-0.258481
-0.256227
-0.277003
-0.277385
-0.277365
-0.277085
-0.276655
-0.276124
-0.275522
-0.274869
-0.274166
-0.273408
-0.272576
-0.271649
-0.270596
-0.269386
-0.267988
-0.266387
-0.264582
-0.262473
-0.259958
-0.258554
-0.275
-0.275491
-0.275585
-0.275427
-0.275123
-0.274716
-0.274234
-0.273692
-0.273096
-0.272439
-0.271709
-0.27089
-0.269961
-0.268903
-0.267702
-0.266363
-0.264901
-0.263257
-0.261388
-0.260582
-0.273177
-0.27376
-0.273952
-0.273897
-0.273703
-0.273405
-0.273028
-0.272589
-0.272091
-0.271533
-0.270905
-0.270198
-0.2694
-0.268502
-0.267501
-0.266415
-0.26527
-0.264024
-0.262662
-0.262262
-0.271523
-0.272183
-0.272457
-0.272492
-0.272393
-0.272192
-0.271911
-0.271566
-0.271164
-0.270703
-0.270179
-0.269588
-0.268924
-0.268186
-0.26738
-0.266527
-0.265659
-0.264741
-0.263761
-0.26363
-0.270027
-0.27075
-0.271094
-0.271207
-0.271191
-0.271077
-0.270884
-0.270629
-0.270318
-0.269954
-0.269535
-0.26906
-0.268529
-0.267946
-0.26732
-0.266675
-0.266041
-0.265385
-0.264687
-0.264734
-0.268678
-0.269454
-0.269857
-0.270037
-0.270096
-0.27006
-0.269949
-0.269777
-0.269554
-0.269283
-0.268966
-0.268604
-0.2682
-0.267761
-0.267297
-0.266831
-0.26639
-0.265938
-0.26545
-0.265618
-0.267469
-0.268289
-0.268743
-0.268981
-0.269105
-0.269139
-0.269102
-0.269009
-0.268869
-0.268686
-0.268465
-0.268208
-0.267921
-0.26761
-0.267286
-0.266972
-0.266686
-0.266393
-0.266061
-0.266315
-0.266391
-0.267249
-0.267746
-0.268035
-0.268216
-0.268313
-0.268343