/*--------------------------------*- C++ -*----------------------------------*\
  =========                 |
  \\      /  F ield         | OpenFOAM: The Open Source CFD Toolbox
   \\    /   O peration     | Website:  https://openfoam.org
    \\  /    A nd           | Version:  6.0
     \\/     M anipulation  |
\*---------------------------------------------------------------------------*/
FoamFile
{
    version     2.0;
    format      ascii;
    class       surfaceScalarField;
    location    "24.1";
    object      phi;
}
// * * * * * * * * * * * * * * * * * * * * * * * * * * * * * * * * * * * * * //

dimensions      [0 3 -1 0 0 0 0];

internalField   nonuniform List<scalar> 
15760
(
-2.79472e-06
2.73142e-06
6.32915e-08
-9.88903e-06
6.90106e-06
1.93246e-07
-2.025e-05
1.00371e-05
3.23869e-07
-3.30303e-05
1.2329e-05
4.51182e-07
-4.75471e-05
1.39445e-05
5.72397e-07
-6.32642e-05
1.50309e-05
6.86238e-07
-7.97733e-05
1.57166e-05
7.92573e-07
-9.67777e-05
1.61123e-05
8.92059e-07
-0.000114077
1.63135e-05
9.85814e-07
-0.000131555
1.64024e-05
1.07515e-06
-0.000149165
1.64491e-05
1.16136e-06
-0.000166924
1.65134e-05
1.24563e-06
-0.000184898
1.66453e-05
1.32891e-06
-0.000203195
1.68853e-05
1.41187e-06
-0.000221956
1.72652e-05
1.49493e-06
-0.000241342
1.78078e-05
1.57825e-06
-0.000261531
1.85274e-05
1.66175e-06
-0.000282706
1.94297e-05
1.74515e-06
-0.000305048
2.05143e-05
1.8279e-06
2.17811e-05
1.90933e-06
-0.000328738
-2.78557e-06
5.51699e-06
-9.85421e-06
1.39697e-05
-2.0172e-05
2.03549e-05
-3.28892e-05
2.50463e-05
-4.73204e-05
2.83756e-05
-6.29253e-05
3.06358e-05
-7.92912e-05
3.20824e-05
-9.61158e-05
3.29368e-05
-0.000113193
3.33905e-05
-0.000130399
3.36083e-05
-0.000147682
3.37323e-05
-0.000165052
3.38835e-05
-0.00018257
3.41635e-05
-0.00020034
3.46557e-05
-0.000218501
3.54255e-05
-0.000237214
3.65208e-05
-0.000256658
3.7972e-05
-0.000277021
3.9792e-05
-0.000298487
4.19809e-05
4.45382e-05
-0.000321244
-2.76563e-06
8.28261e-06
-9.7786e-06
2.09827e-05
-2.00036e-05
3.05799e-05
-3.25876e-05
3.76302e-05
-4.68397e-05
4.26277e-05
-6.22129e-05
4.60091e-05
-7.82857e-05
4.81553e-05
-9.47455e-05
4.93966e-05
-0.000111374
5.00189e-05
-0.000128035
5.02692e-05
-0.000144663
5.03607e-05
-0.000161256
5.04764e-05
-0.000177864
5.07715e-05
-0.000194583
5.13746e-05
-0.000211546
5.23883e-05
-0.000228915
5.38896e-05
-0.000246872
5.59289e-05
-0.00026561
5.85303e-05
-0.000285327
6.16976e-05
6.54313e-05
-0.00030622
-2.73651e-06
1.10191e-05
-9.66693e-06
2.79131e-05
-1.97541e-05
4.0667e-05
-3.21401e-05
5.00162e-05
-4.61273e-05
5.6615e-05
-6.11596e-05
6.10413e-05
-7.68033e-05
6.3799e-05
-9.27309e-05
6.53242e-05
-0.000108707
6.59949e-05
-0.000124576
6.61382e-05
-0.000140253
6.6038e-05
-0.000155717
6.59398e-05
-0.000170999
6.60544e-05
-0.000186184
6.65594e-05
-0.000201396
6.75999e-05
-0.000216794
6.92877e-05
-0.000232566
7.17005e-05
-0.000248915
7.48799e-05
-0.000266057
7.8839e-05
8.35827e-05
-0.000284208
-2.70029e-06
1.37194e-05
-9.52513e-06
3.47379e-05
-1.94343e-05
5.05763e-05
-3.15646e-05
6.21465e-05
-4.52107e-05
7.02611e-05
-5.98057e-05
7.56363e-05
-7.49017e-05
7.88949e-05
-9.01531e-05
8.05756e-05
-0.000105303
8.11443e-05
-0.00012017
8.10056e-05
-0.000134644
8.0512e-05
-0.000148676
7.99719e-05
-0.000162275
7.96535e-05
-0.000175503
7.9788e-05
-0.000188473
8.05694e-05
-0.000201339
8.21534e-05
-0.000214293
8.46543e-05
-0.000227555
8.81419e-05
-0.000241363
9.26479e-05
9.81878e-05
-0.000255969
-2.65898e-06
1.63784e-05
-9.35875e-06
4.14377e-05
-1.90546e-05
6.02721e-05
-3.08776e-05
7.39695e-05
-4.4115e-05
8.34985e-05
-5.8189e-05
8.97103e-05
-7.26367e-05
9.33427e-05
-8.70927e-05
9.50316e-05
-0.000101275
9.53261e-05
-0.000114973
9.47036e-05
-0.000128043
9.35823e-05
-0.000140402
9.23316e-05
-0.000152028
9.1279e-05
-0.000162953
9.07134e-05
-0.00017327
9.08857e-05
-0.000183123
9.20062e-05
-0.000192708
9.42397e-05
-0.000202265
9.76989e-05
-0.000212066
0.000102449
0.000108528
-0.000222407
-2.61402e-06
1.89924e-05
-9.17128e-06
4.7995e-05
-1.86206e-05
6.97215e-05
-3.00878e-05
8.54366e-05
-4.28537e-05
9.62643e-05
-5.63312e-05
0.000103188
-7.00438e-05
0.000107055
-8.36058e-05
0.000108594
-9.67088e-05
0.000108429
-0.00010911
0.000107105
-0.000120629
0.000105101
-0.00013114
0.000102843
-0.000140578
0.000100717
-0.000148938
9.90736e-05
-0.000156281
9.82285e-05
-0.000162734
9.84595e-05
-0.000168493
9.99991e-05
-0.000173819
0.000103024
-0.000179026
0.000107656
0.000113978
-0.000184475
-2.5658e-06
2.15582e-05
-8.96255e-06
5.43917e-05
-1.81304e-05
7.88893e-05
-2.91905e-05
9.64967e-05
-4.14198e-05
0.000108494
-5.42249e-05
0.000115993
-6.71182e-05
0.000119949
-7.96972e-05
0.000121173
-9.16283e-05
0.00012036
-0.000102636
0.000118113
-0.000112497
0.000114962
-0.000121041
0.000111386
-0.000128149
0.000107825
-0.000133767
0.000104691
-0.00013791
0.000102372
-0.000140676
0.000101226
-0.000142251
0.000101574
-0.000142913
0.000103686
-0.00014303
0.000107773
0.000113996
-0.000143048
-2.51326e-06
2.40715e-05
-8.72741e-06
6.06059e-05
-1.75714e-05
8.77334e-05
-2.81627e-05
0.000107088
-3.9777e-05
0.000120108
-5.18192e-05
0.000128035
-6.37958e-05
0.000131925
-7.52922e-05
0.000132669
-8.59543e-05
0.000131022
-9.54765e-05
0.000127635
-0.000103595
0.00012308
-0.000110087
0.000117878
-0.000114777
0.000112515
-0.000117546
0.000107461
-0.00011835
0.000103176
-0.000117236
0.000100112
-0.000114365
9.87021e-05
-0.000110022
9.93426e-05
-0.000104632
0.000102384
0.000108118
-9.8754e-05
-2.45371e-06
2.65252e-05
-8.45514e-06
6.66073e-05
-1.6919e-05
9.61972e-05
-2.69593e-05
0.000117128
-3.78537e-05
0.000131002
-4.901e-05
0.000139191
-5.99354e-05
0.000142851
-7.02103e-05
0.000142944
-7.94683e-05
0.00014028
-8.73806e-05
0.000135547
-9.36479e-05
0.000129348
-9.79988e-05
0.000122229
-0.000100195
0.000114711
-0.000100044
0.00010731
-9.74249e-05
0.000100556
-9.23116e-05
9.49989e-05
-8.48124e-05
9.12028e-05
-7.52019e-05
8.97321e-05
-6.39557e-05
9.11375e-05
9.59283e-05
-5.17658e-05
-2.38302e-06
2.89082e-05
-8.12973e-06
7.2354e-05
-1.61365e-05
0.000104204
-2.55131e-05
0.000126505
-3.55409e-05
0.00014103
-4.56346e-05
0.000149285
-5.53085e-05
0.000152525
-6.41472e-05
0.000151783
-7.17817e-05
0.000147915
-7.7872e-05
0.000141638
-8.20949e-05
0.000133571
-8.41391e-05
0.000124273
-8.37084e-05
0.00011428
-8.05354e-05
0.000104137
-7.4406e-05
9.44271e-05
-6.51987e-05
8.57916e-05
-5.29359e-05
7.894e-05
-3.7845e-05
7.46413e-05
-2.04297e-05
7.37222e-05
7.70301e-05
-1.53157e-06
-2.29606e-06
3.12043e-05
-7.73119e-06
7.77891e-05
-1.51775e-05
0.00011165
-2.37375e-05
0.000135065
-3.26951e-05
0.000149988
-4.14738e-05
0.000158064
-4.95995e-05
0.00016065
-5.66685e-05
0.000158852
-6.2321e-05
0.000153567
-6.62199e-05
0.000145537
-6.80354e-05
0.000135386
-6.74351e-05
0.000123673
-6.40816e-05
0.000110927
-5.76417e-05
9.76974e-05
-4.78093e-05
8.45946e-05
-3.43482e-05
7.23306e-05
-1.71595e-05
6.17513e-05
3.62671e-06
5.38551e-05
2.75258e-05
4.98232e-05
5.10022e-05
5.35537e-05
-2.18745e-06
3.33917e-05
-7.23778e-06
8.28394e-05
-1.39904e-05
0.000118403
-2.15331e-05
0.000142608
-2.91476e-05
0.000157602
-3.62634e-05
0.00016518
-4.24181e-05
0.000166805
-4.72234e-05
0.000163657
-5.0337e-05
0.000156681
-5.14395e-05
0.000146639
-5.02152e-05
0.000134162
-4.63369e-05
0.000119794
-3.94571e-05
0.000104047
-2.92066e-05
8.74469e-05
-1.52091e-05
7.05971e-05
2.8819e-06
5.42396e-05
2.53107e-05
3.93225e-05
5.21009e-05
2.70648e-05
8.28651e-05
1.9059e-05
1.73424e-05
0.000116525
-2.05246e-06
3.54442e-05
-6.62864e-06
8.74156e-05
-1.25227e-05
0.000124297
-1.87963e-05
0.000148881
-2.47179e-05
0.000163524
-2.97138e-05
0.000170176
-3.33261e-05
0.000170417
-3.51783e-05
0.000165509
-3.49468e-05
0.000156449
-3.23385e-05
0.000144031
-2.70698e-05
0.000128893
-1.88491e-05
0.000111574
-7.3608e-06
9.25585e-05
7.74746e-06
7.23387e-05
2.6867e-05
5.14775e-05
5.04098e-05
3.06968e-05
7.87508e-05
1.09814e-05
0.000112106
-6.29007e-06
0.000150285
-1.91202e-05
-2.46072e-05
0.000192234
-1.88777e-06
3.7332e-05
-5.88617e-06
9.1414e-05
-1.0727e-05
0.000129138
-1.54284e-05
0.000153583
-1.92286e-05
0.000167324
-2.15338e-05
0.000172481
-2.1874e-05
0.000170757
-1.98695e-05
0.000163505
-1.52051e-05
0.000151785
-7.60956e-06
0.000136435
3.16081e-06
0.000118123
1.7339e-05
9.73955e-05
3.51648e-05
7.47327e-05
5.69051e-05
5.05983e-05
8.2875e-05
2.55077e-05
0.000113449
1.22878e-07
0.000149043
-2.46132e-05
0.000190036
-4.72828e-05
0.000236522
-6.56065e-05
-7.57592e-05
0.000287675
-1.69181e-06
3.90238e-05
-4.99722e-06
9.47194e-05
-8.56323e-06
0.000132704
-1.1342e-05
0.000156361
-1.25183e-05
0.0001685
-1.14529e-05
0.000171415
-7.63751e-06
0.000166942
-6.62353e-07
0.000156529
9.80584e-06
0.000141317
2.40378e-05
0.000122203
4.22508e-05
9.99098e-05
6.46167e-05
7.50297e-05
9.12718e-05
4.80777e-05
0.000122334
1.9536e-05
0.000157931
-1.00895e-05
0.00019824
-4.01861e-05
0.000243525
-6.98976e-05
0.000294149
-9.79068e-05
0.000350466
-0.000121924
-0.000137391
0.000412098
-1.46439e-06
4.04882e-05
-3.95217e-06
9.72072e-05
-5.99798e-06
0.00013475
-6.4611e-06
0.000156825
-4.44441e-06
0.000166484
7.67925e-07
0.000166203
9.75721e-06
0.000157953
2.30013e-05
0.000143285
4.08919e-05
0.000123426
6.37405e-05
9.93548e-05
9.17768e-05
7.18735e-05
0.000125141
4.16652e-05
0.000163878
9.34125e-06
0.00020793
-2.45163e-05
0.000257154
-5.93131e-05
0.000311352
-9.43841e-05
0.000370345
-0.000128891
0.000434085
-0.000161647
0.000502817
-0.000190656
-0.000211328
0.000576754
-1.20553e-06
4.16937e-05
-2.74152e-06
9.87432e-05
-2.9986e-06
0.000135007
-7.13448e-07
0.000154539
5.12442e-06
0.000160646
1.53421e-05
0.000155985
3.06327e-05
0.000142662
5.15858e-05
0.000122332
7.87004e-05
9.63116e-05
0.000112383
6.56718e-05
0.000152937
3.13203e-05
0.000200534
-5.93186e-06
0.000255188
-4.53129e-05
0.000316715
-8.60432e-05
0.000384696
-0.000127295
0.000458462
-0.00016815
0.000537109
-0.000207538
0.000619606
-0.000244145
0.000705147
-0.000276198
-0.000300814
0.000794634
-9.13517e-07
4.26072e-05
-1.35046e-06
9.91801e-05
4.76766e-07
0.000133179
5.98477e-06
0.000149031
1.63291e-05
0.000150301
3.2482e-05
0.000139833
5.52858e-05
0.000119858
8.54822e-05
9.21357e-05
0.000123724
5.80703e-05
0.000170566
1.88289e-05
0.000226453
-2.45663e-05
0.000291679
-7.11575e-05
0.000366345
-0.000119979
0.00045029
-0.000169989
0.000542997
-0.000220002
0.00064346
-0.000268613
0.000750025
-0.000314103
0.000860193
-0.000354312
0.000970714
-0.000386719
-0.000412363
0.00108226
-5.82744e-07
4.31899e-05
2.47522e-07
9.83499e-05
4.49104e-06
0.000128936
1.37473e-05
0.000139775
2.93459e-05
0.000134703
5.24331e-05
0.000116745
8.40274e-05
8.82641e-05
0.000125049
5.11138e-05
0.000176329
6.79017e-06
0.000238603
-4.34449e-05
0.000312496
-9.84595e-05
0.000398504
-0.000157165
0.000496968
-0.000218442
0.00060804
-0.000281061
0.000731629
-0.000343591
0.000867281
-0.000404264
0.00101389
-0.000460713
0.00116877
-0.00050919
0.00132443
-0.000542379
-0.00054555
0.00145762
-2.02593e-07
4.33925e-05
2.09468e-06
9.60526e-05
9.13673e-06
0.000121894
2.27321e-05
0.00012618
4.44076e-05
0.000113027
7.55012e-05
8.56518e-05
0.000117217
4.65484e-05
0.000170649
-2.3186e-06
0.000236787
-5.93476e-05
0.000316506
-0.000123163
0.000410559
-0.000192513
0.000519584
-0.00026619
0.000644124
-0.000342982
0.000784705
-0.000421643
0.000941994
-0.000500879
0.00111709
-0.000579364
0.00131211
-0.000655726
0.00153142
-0.000728501
0.00178556
-0.000796524
-0.000857177
0.00209719
2.46113e-07
4.31464e-05
4.25567e-06
9.20431e-05
1.45446e-05
0.000111605
3.31514e-05
0.000107573
6.18138e-05
8.43649e-05
0.000102064
4.5402e-05
0.000155273
-6.66088e-06
0.000222665
-6.97109e-05
0.000305305
-0.000141987
0.000404076
-0.000221934
0.000519668
-0.000308105
0.000652576
-0.000399098
0.000803129
-0.000493535
0.00097156
-0.000590074
0.00115814
-0.000687455
0.00136335
-0.000784582
0.00158827
-0.000880638
0.00183497
-0.000975202
0.00210672
-0.00106828
-0.00115245
0.00240199
7.86614e-07
4.23598e-05
6.80878e-06
8.60209e-05
2.08711e-05
9.75427e-05
4.52535e-05
8.31905e-05
8.19058e-05
4.77126e-05
0.000132534
-5.22623e-06
0.000198628
-7.2755e-05
0.00028145
-0.000152533
0.000381999
-0.000242536
0.00050097
-0.000340906
0.000638728
-0.000445863
0.000795293
-0.000555663
0.000970362
-0.000668604
0.00116336
-0.000783072
0.00137351
-0.000897606
0.00159993
-0.001011
0.00184167
-0.00112238
0.00209779
-0.00123132
0.00236707
-0.00133756
-0.00143257
0.00264719
1.44694e-06
4.09129e-05
9.84368e-06
7.76241e-05
2.82883e-05
7.90981e-05
5.93009e-05
5.21779e-05
0.000105024
1.98909e-06
0.00016729
-6.74921e-05
0.000247616
-0.00015308
0.000347159
-0.000252076
0.000466659
-0.000362035
0.000606374
-0.000480621
0.000766051
-0.00060554
0.000944921
-0.000734532
0.00114173
-0.000865415
0.00135482
-0.000996155
0.00158217
-0.00112496
0.00182151
-0.00125034
0.00207036
-0.00137123
0.00232598
-0.00148693
0.00258545
-0.00159703
-0.00169419
0.00284707
2.25612e-06
3.86567e-05
1.34501e-05
6.64302e-05
3.69611e-05
5.55871e-05
7.55288e-05
1.36102e-05
0.000131442
-5.39245e-05
0.00020657
-0.00014262
0.000302315
-0.000248825
0.000419535
-0.000369296
0.000558457
-0.000500957
0.000718621
-0.000640785
0.000898863
-0.000785783
0.00109736
-0.00093303
0.00131172
-0.00107977
0.00153909
-0.00122353
0.00177632
-0.00136219
0.00202008
-0.0014941
0.00226693
-0.00161808
0.00251341
-0.00173341
0.00275616
-0.00183979
-0.00193189
0.00299386
3.24099e-06
3.54158e-05
1.77067e-05
5.19645e-05
4.70235e-05
2.62703e-05
9.41025e-05
-3.34688e-05
0.000161295
-0.000121117
0.000250367
-0.000231692
0.000362409
-0.000360868
0.000497724
-0.00050461
0.000655737
-0.000658971
0.000834976
-0.000820024
0.00103312
-0.000983927
0.00124713
-0.00114704
0.00147342
-0.00130606
0.00170811
-0.00145821
0.00194718
-0.00160127
0.00218673
-0.00173366
0.00242308
-0.00185442
0.00265285
-0.00196318
0.00287314
-0.00206008
-0.00214189
0.00308315
4.42329e-06
3.09925e-05
2.26713e-05
3.37165e-05
5.85565e-05
-9.61496e-06
0.000115079
-8.9991e-05
0.000194518
-0.000200556
0.000298346
-0.00033552
0.000427082
-0.000489603
0.000580172
-0.000657701
0.000755942
-0.000834741
0.000951656
-0.00101574
0.00116368
-0.00119595
0.00138776
-0.00137111
0.00161928
-0.00153759
0.00185363
-0.00169256
0.00208644
-0.00183408
0.00231381
-0.00196103
0.00253244
-0.00207305
0.0027397
-0.00217044
0.00293367
-0.00225405
-0.00232248
0.00311426
5.81786e-06
2.51746e-05
2.83737e-05
1.11607e-05
7.15728e-05
-5.28141e-05
0.000138378
-0.000156796
0.000230814
-0.000292992
0.000349799
-0.000454505
0.000494979
-0.000634783
0.000664632
-0.000827353
0.000855717
-0.00102583
0.00106408
-0.0012241
0.0012848
-0.00141667
0.00151256
-0.00159887
0.00174211
-0.00176714
0.00196861
-0.00191906
0.00218789
-0.00205336
0.00239665
-0.00216978
0.00259248
-0.00226889
0.00277389
-0.00235186
0.00294019
-0.00242034
-0.00247446
0.00309218
7.43157e-06
1.7743e-05
3.48109e-05
-1.62186e-05
8.60062e-05
-0.000104009
0.000163769
-0.000234559
0.000269623
-0.000398846
0.000403634
-0.000588516
0.000564243
-0.000795392
0.000748275
-0.00101139
0.000951158
-0.00122871
0.00116733
-0.00144028
0.00139077
-0.00164011
0.00161553
-0.00182363
0.00183622
-0.00198782
0.00204833
-0.00213117
0.00224847
-0.0022535
0.00243437
-0.00235568
0.00260485
-0.00243936
0.00275965
-0.00250666
0.00289926
-0.00255996
-0.00260049
0.00302529
9.26305e-06
8.47999e-06
4.19455e-05
-4.89011e-05
0.000101707
-0.000163771
0.000190861
-0.000323713
0.000310138
-0.000518122
0.000458409
-0.000736788
0.000632605
-0.000969588
0.000827902
-0.00120668
0.00103818
-0.00143899
0.00125668
-0.00165878
0.00147669
-0.00186012
0.00169215
-0.0020391
0.00189812
-0.0021938
0.002091
-0.00232404
0.00226852
-0.00243102
0.00242972
-0.00251688
0.00257467
-0.00258431
0.00270423
-0.00263623
0.0028198
-0.00267553
-0.00270423
0.00292354
1.13025e-05
-2.82254e-06
4.97047e-05
-8.73032e-05
0.000118442
-0.000232508
0.000219113
-0.000424385
0.000351318
-0.000650327
0.000512405
-0.000897875
0.000697551
-0.00115473
0.000900223
-0.00140935
0.00111294
-0.00165171
0.00132814
-0.00187398
0.00153898
-0.00207096
0.0017399
-0.00224001
0.00192692
-0.00238081
0.00209768
-0.0024948
0.00225129
-0.00258463
0.00238804
-0.00265364
0.00250909
-0.00270536
0.00261614
-0.00274327
0.00271114
-0.00277053
-0.00278955
0.00279646
1.35317e-05
-1.63543e-05
5.798e-05
-0.000131751
0.000135896
-0.000310425
0.000247845
-0.000536333
0.000391946
-0.000794429
0.000563734
-0.00106966
0.000756512
-0.00134751
0.000962171
-0.00161501
0.00117224
-0.00186178
0.00137892
-0.00208066
0.00157582
-0.00226786
0.0017584
-0.00242259
0.00192401
-0.00254642
0.00207171
-0.0026425
0.00220192
-0.00271484
0.00231599
-0.00276771
0.00241586
-0.00280523
0.00250369
-0.0028311
0.00258167
-0.00284851
-0.00285998
0.0026521
1.59235e-05
-3.22778e-05
6.66282e-05
-0.000182456
0.000153681
-0.000397477
0.000276263
-0.000658916
0.000430686
-0.000948852
0.00061047
-0.00124945
0.000807095
-0.00154414
0.0010112
-0.00181911
0.00121385
-0.00206443
0.00140761
-0.00227442
0.00158709
-0.00244734
0.00174914
-0.00258464
0.00189258
-0.00268987
0.00201783
-0.00276776
0.0021264
-0.0028234
0.00222039
-0.0028617
0.00230217
-0.00288701
0.00237406
-0.002903
0.00243821
-0.00291265
-0.00291842
0.00249665
1.84415e-05
-5.07193e-05
7.5473e-05
-0.000239488
0.000171344
-0.000493348
0.0003035
-0.000791072
0.000466169
-0.00111152
0.000650804
-0.00143408
0.000847289
-0.00174062
0.00104549
-0.00201731
0.00123663
-0.00225557
0.00141419
-0.00245197
0.00157417
-0.00260733
0.00171497
-0.00272543
0.00183683
-0.00281173
0.00194129
-0.00287222
0.00203064
-0.00291275
0.00210741
-0.00293847
0.00217409
-0.00295369
0.00223293
-0.00296183
0.00228584
-0.00296557
-0.00296712
0.00233455
2.10403e-05
-7.17596e-05
8.43092e-05
-0.000302757
0.000188387
-0.000597425
0.000328657
-0.000931342
0.000497093
-0.00127996
0.000683184
-0.00162017
0.000875625
-0.00193306
0.00106409
-0.00220578
0.00124056
-0.00243203
0.00139983
-0.00261125
0.00153953
-0.00274703
0.00165953
-0.00284543
0.0017613
-0.00291349
0.00184719
-0.00295812
0.00191994
-0.0029855
0.00198221
-0.00300074
0.00203639
-0.00300787
0.00208451
-0.00300995
0.00212819
-0.00300925
-0.00300772
0.00216878
2.3666e-05
-9.54256e-05
9.29088e-05
-0.000371999
0.00020429
-0.000708807
0.000350864
-0.00107791
0.000522309
-0.0014514
0.000706433
-0.0018043
0.000891269
-0.0021179
0.00106691
-0.00238142
0.00122654
-0.00259166
0.00136659
-0.00275129
0.00148624
-0.00286669
0.00158671
-0.0029459
0.00167036
-0.00299714
0.00174006
-0.00302782
0.00179868
-0.00304412
0.00184881
-0.00305087
0.0018926
-0.00305167
0.00193178
-0.00304913
0.00196768
-0.00304515
-0.00304135
0.00200131
2.62576e-05
-0.000121683
0.00010103
-0.000446772
0.00021854
-0.000826316
0.000369331
-0.00122871
0.000540909
-0.00162298
0.000719819
-0.00198321
0.000894027
-0.00229211
0.00105458
-0.00254197
0.0011962
-0.00273329
0.00131699
-0.00287208
0.00141759
-0.00296729
0.00150024
-0.00302855
0.0015679
-0.0030648
0.00162365
-0.00308357
0.00167031
-0.00309077
0.00171022
-0.00309078
0.00174524
-0.00308669
0.00177679
-0.00308068
0.00180591
-0.00307427
-0.00306878
0.00183335
2.8749e-05
-0.000150432
0.000108431
-0.000526454
0.000230656
-0.000948541
0.000383404
-0.00138145
0.000552271
-0.00179185
0.000723073
-0.00215401
0.00088428
-0.00245331
0.0010283
-0.002686
0.00115158
-0.00285656
0.00125378
-0.00297428
0.00133675
-0.00305026
0.00140346
-0.00309525
0.00145717
-0.00311851
0.00150097
-0.00312736
0.00153743
-0.00312724
0.00156861
-0.00312196
0.00159606
-0.00311414
0.00162089
-0.00310552
0.00164391
-0.00309729
-0.00309052
0.00166565
3.1072e-05
-0.000181504
0.000114876
-0.000610258
0.000240221
-0.00107389
0.000392597
-0.00153383
0.000556089
-0.00195534
0.000716356
-0.00231428
0.000862869
-0.00259982
0.000989673
-0.0028128
0.0010949
-0.00296178
0.00117962
-0.003059
0.00124659
-0.00311723
0.0012992
-0.00314787
0.00134081
-0.00316012
0.00137429
-0.00316084
0.00140195
-0.00315489
0.00142551
-0.00314552
0.00144622
-0.00313485
0.00146495
-0.00312425
0.00148231
-0.00311465
-0.00310688
0.00149867
3.31588e-05
-0.000214663
0.000120156
-0.000697255
0.000246903
-0.00120063
0.000396616
-0.00168354
0.000552361
-0.00211108
0.000700189
-0.00246211
0.000830957
-0.00273059
0.000940456
-0.0029223
0.0010284
-0.00304972
0.00109698
-0.00312759
0.00114959
-0.00316984
0.0011898
-0.00318808
0.00122084
-0.00319116
0.00124533
-0.00318533
0.00126523
-0.0031748
0.00128197
-0.00316225
0.00129652
-0.0031494
0.00130956
-0.00313729
0.00132153
-0.00312663
-0.00311805
0.0013327
3.49495e-05
-0.000249612
0.000124098
-0.000786403
0.000250483
-0.00132702
0.000395376
-0.00182844
0.000541365
-0.00225707
0.00067538
-0.00259612
0.000789911
-0.00284512
0.000882477
-0.00301487
0.000954165
-0.00312141
0.00100803
-0.00318145
0.00104782
-0.00320962
0.00107708
-0.00321735
0.00109883
-0.00321291
0.00111534
-0.00320184
0.00112826
-0.00318771
0.00113872
-0.00317272
0.0011475
-0.00315818
0.0011551
-0.0031449
0.00116186
-0.00313339
-0.00312414
0.00116796
3.63807e-05
-0.000285993
0.000126552
-0.000876574
0.000250818
-0.00145129
0.000388937
-0.00196655
0.000523554
-0.00239169
0.000642867
-0.00271543
0.000741119
-0.00294338
0.000817436
-0.00309119
0.000874038
-0.00317801
0.000914571
-0.00322199
0.000942902
-0.00323795
0.000962446
-0.0032369
0.000975887
-0.00322635
0.000985179
-0.00321113
0.000991665
-0.0031942
0.000996239
-0.00317729
0.000999494
-0.00316143
0.00100182
-0.00314722
0.00100347
-0.00313503
-0.00312522
0.00100455
3.74077e-05
-0.000323401
0.000127431
-0.000966597
0.0002479
-0.00157175
0.000377547
-0.0020962
0.000499574
-0.00251372
0.000603723
-0.00281958
0.000685993
-0.00302564
0.000746935
-0.00315213
0.000789644
-0.00322072
0.000818111
-0.00325045
0.000836169
-0.00325601
0.000846973
-0.0032477
0.000852877
-0.00323225
0.000855509
-0.00321377
0.000855946
-0.00319464
0.000854884
-0.00317623
0.000852776
-0.00315932
0.000849923
-0.00314437
0.00084651
-0.00313162
-0.00312133
0.000842619
3.79929e-05
-0.000361394
0.000126692
-0.0010553
0.000241806
-0.00168687
0.000361567
-0.00221596
0.000470158
-0.00262231
0.000559027
-0.00290845
0.000625849
-0.00309247
0.000672378
-0.00319866
0.000702338
-0.00325068
0.000719865
-0.00326798
0.000728626
-0.00326477
0.000731469
-0.00325054
0.00073041
-0.00323119
0.000726783
-0.00321014
0.000721436
-0.00318929
0.000714903
-0.0031697
0.000707533
-0.00315195
0.000699556
-0.00313639
0.000691116
-0.00312318
-0.00311249
0.000682272
3.81111e-05
-0.000399505
0.000124335
-0.00114152
0.000232697
-0.00179523
0.000341444
-0.00232471
0.000436079
-0.00271694
0.000509824
-0.0029822
0.000561879
-0.00314452
0.000594974
-0.00323175
0.000613236
-0.00326895
0.000620788
-0.00327553
0.000621048
-0.00326503
0.00061653
-0.00324603
0.000608931
-0.00322359
0.000599327
-0.00320053
0.000588375
-0.00317834
0.00057648
-0.0031578
0.000563909
-0.00313938
0.000550843
-0.00312333
0.000537396
-0.00310973
-0.00309871
0.000523614
3.77487e-05
-0.000437254
0.000120401
-0.00122417
0.000220797
-0.00189563
0.000317679
-0.00242159
0.000398117
-0.00279738
0.000457087
-0.00304117
0.000495137
-0.00318257
0.000515742
-0.00325236
0.000523242
-0.00327645
0.000521627
-0.00327392
0.000514016
-0.00325742
0.000502592
-0.0032346
0.000488762
-0.00320976
0.000473378
-0.00318515
0.000456941
-0.0031619
0.000439755
-0.00314062
0.000422023
-0.00312165
0.000403888
-0.00310519
0.000385447
-0.00309129
-0.00308
0.00036674
3.69042e-05
-0.000474158
0.000114969
-0.00130224
0.000206379
-0.00198704
0.000290796
-0.00250601
0.000357021
-0.00286361
0.000401702
-0.00308585
0.000426533
-0.0032074
0.000435523
-0.00326135
0.000433075
-0.003274
0.000422958
-0.0032638
0.000407971
-0.00324243
0.000389981
-0.00321661
0.000370139
-0.00318992
0.000349111
-0.00316412
0.00032727
-0.00314006
0.000304839
-0.00311819
0.00028197
-0.00309878
0.000258781
-0.003082
0.000235357
-0.00306787
-0.00305638
0.000211739
3.55872e-05
-0.000509745
0.000108147
-0.0013748
0.000189743
-0.00206863
0.000261321
-0.00257759
0.000313492
-0.00291578
0.000344452
-0.00311681
0.000356839
-0.00321979
0.000355011
-0.00325952
0.000343306
-0.00326229
0.000325226
-0.00324572
0.000303241
-0.00322044
0.000278934
-0.00319231
0.000253234
-0.00316422
0.000226654
-0.00313754
0.000199464
-0.00311287
0.000171819
-0.00309054
0.000143833
-0.00307079
0.000115601
-0.00305377
8.72046e-05
-0.00303947
-0.00302787
5.86913e-05
3.38167e-05
-0.000543562
0.000100064
-0.00144104
0.000171204
-0.00213977
0.000229762
-0.00263614
0.000268171
-0.00295419
0.000286024
-0.00313466
0.000286704
-0.00322047
0.000274764
-0.00324758
0.000254387
-0.00324192
0.000228771
-0.00322011
0.000200077
-0.00319175
0.00016963
-0.00316186
0.000138177
-0.00313277
0.000106104
-0.00310547
7.36013e-05
-0.00308037
4.07666e-05
-0.00305771
7.67673e-06
-0.00303771
-2.55882e-05
-0.00302051
-5.89442e-05
-0.00300611
-0.00299448
-9.23331e-05
3.16204e-05
-0.000575182
9.08631e-05
-0.00150029
0.000151082
-0.00219999
0.000196598
-0.00268166
0.000221633
-0.00297922
0.000227007
-0.00314003
0.000216671
-0.00321013
0.000195239
-0.00322615
0.000166673
-0.00321335
0.00013386
-0.00318729
9.86699e-05
-0.00315656
6.22062e-05
-0.0031254
2.50653e-05
-0.00309563
-1.24638e-05
-0.00306794
-5.02589e-05
-0.00304257
-8.82691e-05
-0.0030197
-0.000126451
-0.00299952
-0.00016474
-0.00298222
-0.000203043
-0.00296781
-0.00295624
-0.000241285
2.90329e-05
-0.000604215
8.0699e-05
-0.00155195
0.000129689
-0.00224898
0.000162274
-0.00271424
0.000174389
-0.00299134
0.000167909
-0.00313355
0.000147192
-0.00318942
0.000116806
-0.00319576
8.04537e-05
-0.003177
4.07083e-05
-0.00314755
-8.23786e-07
-0.00311503
-4.32263e-05
-0.00308299
-8.60221e-05
-0.00305283
-0.000128996
-0.00302497
-0.000172078
-0.00299949
-0.000215258
-0.00297652
-0.00025853
-0.00295625
-0.00030184
-0.00293891
-0.000345086
-0.00292456
-0.00291316
-0.000388165
2.60943e-05
-0.000630309
6.97292e-05
-0.00159559
0.000107325
-0.00228658
0.000127197
-0.00273412
0.000126889
-0.00299103
0.000109164
-0.00311583
7.86446e-05
-0.0031589
3.97754e-05
-0.00315689
-4.03226e-06
-0.00313319
-5.05033e-05
-0.00310108
-9.82685e-05
-0.00306726
-0.000146568
-0.00303469
-0.000195016
-0.00300439
-0.000243447
-0.00297653
-0.00029183
-0.00295111
-0.000340194
-0.00292815
-0.000388567
-0.00290788
-0.000436918
-0.00289056
-0.000485129
-0.00287635
-0.00286523
-0.000533059
2.28486e-05
-0.000653158
5.81121e-05
-0.00163085
8.4273e-05
-0.00231274
9.17361e-05
-0.00274158
7.95277e-05
-0.00297882
5.11439e-05
-0.00308744
1.13519e-05
-0.00311911
-3.55909e-05
-0.00310995
-8.65744e-05
-0.00308221
-0.000139608
-0.00304804
-0.000193532
-0.00301334
-0.000247716
-0.00298051
-0.000301841
-0.00295026
-0.000355772
-0.0029226
-0.000409498
-0.00289738
-0.000463081
-0.00287457
-0.000516592
-0.00285437
-0.000570033
-0.00283712
-0.000623274
-0.00282311
-0.00281239
-0.000676115
1.93432e-05
-0.000672501
4.60033e-05
-0.00165751
6.07981e-05
-0.00232753
5.62222e-05
-0.002737
3.26531e-05
-0.00295525
-5.82718e-06
-0.00304896
-5.44063e-05
-0.00307053
-0.000109058
-0.0030553
-0.000166976
-0.00302429
-0.000226437
-0.00298858
-0.000286469
-0.00295331
-0.00034655
-0.00292043
-0.000406405
-0.00289041
-0.00046591
-0.0028631
-0.000525056
-0.00283823
-0.000583925
-0.0028157
-0.000642637
-0.00279566
-0.000701242
-0.00277851
-0.000759608
-0.00276475
-0.00275455
-0.000817441
1.56268e-05
-0.000688128
3.3553e-05
-0.00167544
3.71453e-05
-0.00233112
2.09537e-05
-0.00272081
-1.34292e-05
-0.00292087
-6.14656e-05
-0.00300093
-0.00011838
-0.00301361
-0.000180406
-0.00299327
-0.000245039
-0.00295965
-0.000310807
-0.00292281
-0.000376905
-0.00288721
-0.000442907
-0.00285443
-0.000508571
-0.00282474
-0.000573767
-0.0027979
-0.000638462
-0.00277354
-0.000702733
-0.00275143
-0.00076674
-0.00273165
-0.000830597
-0.00271465
-0.000894187
-0.00270116
-0.00269166
-0.000957078
1.1749e-05
-0.000699877
2.09049e-05
-0.00168459
1.35392e-05
-0.00232376
-1.38034e-05
-0.00269347
-5.8449e-05
-0.00287622
-0.000115519
-0.00294386
-0.000180339
-0.00294879
-0.000249421
-0.00292419
-0.000320556
-0.00288852
-0.000392502
-0.00285087
-0.000464615
-0.00281509
-0.000536559
-0.00278248
-0.000608128
-0.00275317
-0.000679176
-0.00272685
-0.000749625
-0.00270309
-0.000819508
-0.00268155
-0.000888993
-0.00266216
-0.000958271
-0.00264538
-0.00102726
-0.00263217
-0.00262351
-0.00109541
7.7591e-06
-0.000707636
8.19363e-06
-0.00168503
-9.81648e-06
-0.00230575
-4.78127e-05
-0.00265547
-0.000102168
-0.00282187
-0.000167763
-0.00287826
-0.000240071
-0.00287649
-0.000315893
-0.00284837
-0.0003933
-0.00281111
-0.000471271
-0.0027729
-0.000549315
-0.00273705
-0.000627192
-0.00270461
-0.000704747
-0.00267562
-0.000781835
-0.00264976
-0.000858327
-0.0026266
-0.00093418
-0.00260569
-0.00100954
-0.00258681
-0.00108468
-0.00257023
-0.0011596
-0.00255726
-0.00254919
-0.00123392
3.70508e-06
-0.000711341
-4.45609e-06
-0.00167687
-3.27393e-05
-0.00227747
-8.0867e-05
-0.00260735
-0.000144379
-0.00275836
-0.000217996
-0.00280464
-0.000297376
-0.00279711
-0.000379608
-0.00276614
-0.00046303
-0.00272769
-0.000546826
-0.0026891
-0.000630657
-0.00265322
-0.000714397
-0.00262087
-0.000797975
-0.00259204
-0.000881287
-0.00256645
-0.000964186
-0.0025437
-0.00104656
-0.00252332
-0.00112849
-0.00250487
-0.00121039
-0.00248834
-0.00129245
-0.00247519
-0.00246638
-0.00137526
-3.67672e-07
-0.000710973
-1.69316e-05
-0.0016603
-5.50699e-05
-0.00223933
-0.000112789
-0.00254963
-0.000184903
-0.00268624
-0.000266043
-0.00272351
-0.00035207
-0.00271108
-0.000440353
-0.00267785
-0.00052948
-0.00263856
-0.000618825
-0.00259976
-0.0007082
-0.00256384
-0.000797616
-0.00253145
-0.000887138
-0.00250252
-0.000976798
-0.00247679
-0.00106654
-0.00245396
-0.00115626
-0.0024336
-0.00124595
-0.00241518
-0.00133596
-0.00239833
-0.00142686
-0.00238429
-0.00237187
-0.00152137
-4.41729e-06
-0.000706556
-2.91338e-05
-0.00163559
-7.6673e-05
-0.00219179
-0.000143432
-0.00248287
-0.000223599
-0.00260608
-0.000311763
-0.00263534
-0.000403999
-0.00261884
-0.000497939
-0.00258391
-0.000592389
-0.00254411
-0.000686887
-0.00250526
-0.000781375
-0.00246936
-0.000876
-0.00243683
-0.00097101
-0.00240751
-0.0010667
-0.00238111
-0.00116333
-0.00235732
-0.00126112
-0.00233582
-0.00136017
-0.00231612
-0.00146106
-0.00229745
-0.00156601
-0.00227934
-0.00227315
-0.00166473
-8.39434e-06
-0.000698162
-4.09589e-05
-0.00160302
-9.74164e-05
-0.00213533
-0.000172662
-0.00240762