1.45 	0 	0 	0.0705303
2.35 	0 	0 	0.0342956
