1.275 	2.15223e-18 	-2.76991e-20 	0.632038 	-0.0170227 	2.99662e-23
1.825 	2.15223e-18 	-1.39322e-20 	0.813522 	-0.00481987 	-6.32152e-22
2.375 	2.15223e-18 	-2.66896e-23 	0.9057 	-0.00213782 	1.53728e-22
