1.22 	3.45254e-18 	-6.98323e-18 	0.0206153 	-0.545468 	-1.3015e-21
1.66 	3.45254e-18 	-6.96118e-18 	-0.124043 	-0.455821 	-6.12701e-23
2.1 	3.45254e-18 	-6.93894e-18 	0.579619 	0.186652 	-3.0062e-21
2.54 	3.45254e-18 	-8.30431e-18 	0.763849 	0.534596 	-3.04772e-23
2.98 	3.45254e-18 	-8.28171e-18 	0.67297 	0.703631 	1.25853e-21
3.42 	3.45254e-18 	-6.87115e-18 	0.65673 	0.532062 	8.45694e-22
3.86 	3.45254e-18 	-6.84819e-18 	0.848268 	0.0909537 	2.94272e-22
4.3 	3.45254e-18 	-6.82504e-18 	1.0074 	-0.306613 	1.81162e-21
4.74 	3.45254e-18 	-5.41391e-18 	0.988304 	-0.511412 	-9.90011e-22
5.18 	3.45254e-18 	-2.61482e-18 	0.917156 	-0.580467 	-4.43607e-22
5.62 	3.45254e-18 	-1.2033e-18 	0.938419 	-0.495184 	2.13088e-22
6.06 	3.45254e-18 	-1.17937e-18 	1.01629 	-0.124865 	8.65565e-22
6.5 	3.45254e-18 	-1.15524e-18 	1.04094 	0.118422 	-6.0615e-22
