/*--------------------------------*- C++ -*----------------------------------*\
  =========                 |
  \\      /  F ield         | OpenFOAM: The Open Source CFD Toolbox
   \\    /   O peration     | Website:  https://openfoam.org
    \\  /    A nd           | Version:  6.0
     \\/     M anipulation  |
\*---------------------------------------------------------------------------*/
FoamFile
{
    version     2.0;
    format      ascii;
    class       surfaceScalarField;
    location    "18.8";
    object      phi;
}
// * * * * * * * * * * * * * * * * * * * * * * * * * * * * * * * * * * * * * //

dimensions      [0 3 -1 0 0 0 0];

internalField   nonuniform List<scalar> 
15760
(
-2.99746e-06
3.15671e-06
-1.59258e-07
-1.05732e-05
7.97349e-06
-3.9772e-07
-2.16172e-05
1.1619e-05
-5.75052e-07
-3.52323e-05
1.43192e-05
-7.04076e-07
-5.07046e-05
1.62678e-05
-7.95459e-07
-6.74796e-05
1.76333e-05
-8.58274e-07
-8.51409e-05
1.85614e-05
-9.00089e-07
-0.000103391
1.91772e-05
-9.27084e-07
-0.000122035
1.9588e-05
-9.44197e-07
-0.000140965
1.98855e-05
-9.55279e-07
-0.000160149
2.01477e-05
-9.63257e-07
-0.000179619
2.04402e-05
-9.70296e-07
-0.000199458
2.0817e-05
-9.77938e-07
-0.000219792
2.13211e-05
-9.8723e-07
-0.000240779
2.19851e-05
-9.98829e-07
-0.000262597
2.28314e-05
-1.01307e-06
-0.000285439
2.38721e-05
-1.02999e-06
-0.000309499
2.51097e-05
-1.04943e-06
-0.000334968
2.654e-05
-1.07106e-06
2.81583e-05
-1.09454e-06
-0.000362032
-2.97613e-06
6.13284e-06
-1.04981e-05
1.54955e-05
-2.14591e-05
2.258e-05
-3.49621e-05
2.78223e-05
-5.02913e-05
3.15969e-05
-6.68884e-05
3.42304e-05
-8.43318e-05
3.60048e-05
-0.000102317
3.71629e-05
-0.000120643
3.79134e-05
-0.000139193
3.84355e-05
-0.000157927
3.88821e-05
-0.00017687
3.93826e-05
-0.000196097
4.00447e-05
-0.000215731
4.09551e-05
-0.000235927
4.21803e-05
-0.000256862
4.3767e-05
-0.000278732
4.57418e-05
-0.000301734
4.81121e-05
-0.000326065
5.08712e-05
5.40102e-05
-0.000351917
-2.93683e-06
9.06967e-06
-1.03584e-05
2.2917e-05
-2.11633e-05
3.33849e-05
-3.44542e-05
4.11131e-05
-4.95109e-05
4.66536e-05
-6.5768e-05
5.04875e-05
-8.27936e-05
5.30304e-05
-0.000100271
5.46404e-05
-0.000117983
5.56258e-05
-0.000135799
5.62515e-05
-0.000153663
5.67455e-05
-0.000171582
5.73017e-05
-0.000189621
5.80837e-05
-0.000207891
5.9225e-05
-0.000226541
6.08303e-05
-0.000245749
6.29752e-05
-0.000265713
6.57059e-05
-0.00028664
6.90389e-05
-0.000308738
7.29687e-05
7.74836e-05
-0.000332211
-2.88245e-06
1.19521e-05
-1.0163e-05
3.01976e-05
-2.07468e-05
4.39688e-05
-3.37358e-05
5.41021e-05
-4.84041e-05
6.13219e-05
-6.4176e-05
6.62594e-05
-8.06056e-05
6.94599e-05
-9.73581e-05
7.13929e-05
-0.000114195
7.24627e-05
-0.000130962
7.30185e-05
-0.000147578
7.33618e-05
-0.000164029
7.37525e-05
-0.000180357
7.44121e-05
-0.000196658
7.55258e-05
-0.000213071
7.72428e-05
-0.000229771
7.9675e-05
-0.000246961
8.28961e-05
-0.000264862
8.69398e-05
-0.000283701
9.1808e-05
9.7489e-05
-0.000303707
-2.81674e-06
1.47689e-05
-9.92321e-06
3.73041e-05
-2.02313e-05
5.42769e-05
-3.2842e-05
6.67128e-05
-4.7023e-05
7.55029e-05
-6.21869e-05
8.14233e-05
-7.78705e-05
8.51435e-05
-9.37169e-05
8.72393e-05
-0.000109461
8.82068e-05
-0.000124918
8.84753e-05
-0.000139974
8.84184e-05
-0.000154583
8.83615e-05
-0.000168759
8.85874e-05
-0.000182571
8.93381e-05
-0.000196143
9.08152e-05
-0.000209646
9.31778e-05
-0.000223288
9.65385e-05
-0.000237309
0.000100961
-0.000251965
0.000106464
0.000113045
-0.000267521
-2.74369e-06
1.75126e-05
-9.6508e-06
4.42112e-05
-1.96391e-05
6.42652e-05
-3.18089e-05
7.88825e-05
-4.54215e-05
8.91155e-05
-5.98777e-05
9.58795e-05
-7.46963e-05
9.99621e-05
-8.94959e-05
0.000102039
-0.00010398
0.000102691
-0.000117929
0.000102424
-0.000131188
0.000101678
-0.00014367
0.000100843
-0.000155349
0.000100266
-0.000166261
0.00010025
-0.000176504
0.000101059
-0.000186238
0.000102912
-0.000195677
0.000105977
-0.000205082
0.000110366
-0.000214752
0.000116134
0.000123297
-0.000225005
-2.66674e-06
2.01793e-05
-9.35576e-06
5.09002e-05
-1.89888e-05
7.38982e-05
-3.06657e-05
9.05594e-05
-4.36432e-05
0.000102093
-5.73119e-05
0.000109548
-7.11737e-05
0.000113824
-8.48227e-05
0.000115688
-9.79305e-05
0.000115799
-0.000110236
0.00011473
-0.000121541
0.000112982
-0.000131705
0.000111008
-0.000140654
0.000109214
-0.000148375
0.000107972
-0.000154932
0.000107616
-0.000160462
0.000108441
-0.000165179
0.000110694
-0.00016937
0.000114557
-0.000173386
0.000120151
0.000127535
-0.000177625
-2.58815e-06
2.27674e-05
-9.04395e-06
5.7356e-05
-1.82902e-05
8.31445e-05
-2.94271e-05
0.000101696
-4.17095e-05
0.000114375
-5.45211e-05
0.00012236
-6.73504e-05
0.000126653
-7.97703e-05
0.000128108
-9.14215e-05
0.00012745
-0.000102003
0.000125311
-0.000111264
0.000122244
-0.000119011
0.000118755
-0.000125104
0.000115307
-0.000129473
0.00011234
-0.000132125
0.000110268
-0.000133163
0.000109479
-0.000132788
0.000110319
-0.00013131
0.00011308
-0.000129147
0.000117988
0.000125188
-0.000126799
-2.50842e-06
2.52759e-05
-8.71531e-06
6.35629e-05
-1.75408e-05
9.197e-05
-2.80863e-05
0.000112242
-3.96077e-05
0.000125897
-5.14871e-05
0.000134239
-6.32057e-05
0.000138372
-7.43208e-05
0.000139223
-8.44479e-05
0.000137577
-9.32485e-05
0.000134111
-0.000100424
0.00012942
-0.000105718
0.000124048
-0.00010892
0.000118509
-0.000109885
0.000113305
-0.000108547
0.000108931
-0.000104949
0.000105881
-9.92629e-05
0.000104632
-9.18101e-05
0.000105627
-8.30771e-05
0.000109255
0.000115815
-7.37041e-05
-2.42598e-06
2.77019e-05
-8.36275e-06
6.94997e-05
-1.67232e-05
0.00010033
-2.66098e-05
0.000122128
-3.7283e-05
0.00013657
-4.81288e-05
0.000145085
-5.86286e-05
0.000148872
-6.83331e-05
0.000148927
-7.68417e-05
0.000146086
-8.37876e-05
0.000141057
-8.88297e-05
0.000134462
-9.16519e-05
0.00012687
-9.19706e-05
0.000118828
-8.95521e-05
0.000110886
-8.42389e-05
0.000103618
-7.59862e-05
9.76283e-05
-6.49044e-05
9.35504e-05
-5.1303e-05
9.20257e-05
-3.57331e-05
9.36847e-05
9.90867e-05
-1.90049e-05
-2.33728e-06
3.00391e-05
-7.97224e-06
7.51346e-05
-1.58045e-05
0.000108163
-2.49364e-05
0.00013126
-3.46346e-05
0.000146268
-4.42941e-05
0.000154744
-5.3404e-05
0.000157982
-6.15189e-05
0.000157042
-6.82346e-05
0.000152802
-7.31696e-05
0.000145992
-7.59537e-05
0.000137246
-7.62234e-05
0.00012714
-7.36266e-05
0.000116231
-6.78391e-05
0.000105099
-5.85952e-05
9.43739e-05
-4.57351e-05
8.47682e-05
-2.9268e-05
7.70834e-05
-9.44963e-06
7.22073e-05
1.31291e-05
7.1106e-05
7.47495e-05
3.74663e-05
-2.23724e-06
3.22764e-05
-7.52407e-06
8.04215e-05
-1.47391e-05
0.000115378
-2.298e-05
0.000139501
-3.1519e-05
0.000154807
-3.9762e-05
0.000162988
-4.7212e-05
0.000165432
-5.34363e-05
0.000163267
-5.80404e-05
0.000157406
-6.06456e-05
0.000148597
-6.08732e-05
0.000137474
-5.83339e-05
0.000124601
-5.26267e-05
0.000110524
-4.33499e-05
9.58219e-05
-3.01291e-05
8.1153e-05
-1.26695e-05
6.73086e-05
9.16205e-06
5.52518e-05
3.52223e-05
4.61471e-05
6.49344e-05
4.13938e-05
4.25771e-05
9.71069e-05
-2.12011e-06
3.43965e-05
-6.99533e-06
8.52967e-05
-1.34724e-05
0.000121855
-2.06365e-05
0.000146665
-2.77596e-05
0.00016193
-3.42561e-05
0.000169484
-3.96427e-05
0.000170818
-4.35051e-05
0.000167129
-4.54685e-05
0.000159369
-4.5174e-05
0.000148303
-4.22581e-05
0.000134558
-3.63372e-05
0.00011868
-2.69971e-05
0.000101184
-1.37938e-05
8.26187e-05
3.72961e-06
6.36296e-05
2.59971e-05
4.50411e-05
5.3311e-05
2.79379e-05
8.57053e-05
1.37528e-05
0.000122706
4.39301e-06
2.30033e-06
0.000162983
-1.98046e-06
3.63769e-05
-6.36295e-06
8.96791e-05
-1.19479e-05
0.00012744
-1.77945e-05
0.000152512
-2.31631e-05
0.000167299
-2.74666e-05
0.000173787
-3.02286e-05
0.00017358
-3.10489e-05
0.000167949
-2.95749e-05
0.000157895
-2.54777e-05
0.000144206
-1.84306e-05
0.000127511
-8.08957e-06
0.000108339
5.92391e-06
8.71708e-05
2.40362e-05
6.45064e-05
4.6723e-05
4.09428e-05
7.44854e-05
1.72786e-05
0.000107778
-5.35431e-06
0.000146853
-2.53231e-05
0.000191458
-4.02111e-05
-4.64932e-05
0.000240251
-1.81413e-06
3.81911e-05
-5.60655e-06
9.34716e-05
-1.01122e-05
0.000131945
-1.43456e-05
0.000156745
-1.75371e-05
0.00017049
-1.90798e-05
0.00017533
-1.84867e-05
0.000172987
-1.53568e-05
0.000164819
-9.34839e-06
0.000151887
-1.59241e-07
0.000135016
1.24919e-05
0.00011486
2.88825e-05
9.19481e-05
4.93062e-05
6.6747e-05
7.40948e-05
3.97178e-05
0.000103641
1.13971e-05
0.000138406
-1.74872e-05
0.000178899
-4.58469e-05
0.00022556
-7.19841e-05
0.000278453
-9.31037e-05
-0.000104497
0.000336457
-1.61864e-06
3.98097e-05
-4.71004e-06
9.6563e-05
-7.91933e-06
0.000135155
-1.01926e-05
0.000159019
-1.07049e-05
0.000171003
-8.80354e-06
0.000173429
-3.96311e-06
0.000168147
4.2469e-06
0.000156609
1.61839e-05
0.00013995
3.21462e-05
0.000119054
5.23824e-05
9.46236e-05
7.70997e-05
6.72308e-05
0.000106476
3.73711e-05
0.000140677
5.51623e-06
0.000179892
-2.78181e-05
0.000224372
-6.19666e-05
0.000274465
-9.594e-05
0.000330615
-0.000128134
0.000393184
-0.000155673
-0.000172844
0.000461531
-1.39295e-06
4.12026e-05
-3.66091e-06
9.88309e-05
-5.33027e-06
0.000136824
-5.25019e-06
0.000158939
-2.51095e-06
0.000168263
3.61885e-06
0.000167299
1.37391e-05
0.000158027
2.83488e-05
0.000142
4.78629e-05
0.000120436
7.26177e-05
9.42993e-05
0.000102868
6.43731e-05
0.000138781
3.13179e-05
0.000180427
-4.27482e-06
0.00022778
-4.18366e-05
0.000280732
-8.077e-05
0.000339136
-0.000120371
0.000402883
-0.000159687
0.000472009
-0.00019726
0.000546803
-0.000230467
-0.00025333
0.000627289
-1.13625e-06
4.23389e-05
-2.44693e-06
0.000100142
-2.30699e-06
0.000136684
5.6212e-07
0.000156069
7.18746e-06
0.000161638
1.84148e-05
0.000156072
3.49581e-05
0.000141483
5.74292e-05
0.000119528
8.63496e-05
9.15153e-05
0.000122148
5.8501e-05
0.000165145
2.13758e-05
0.00021553
-1.90672e-05
0.000273328
-6.20723e-05
0.000338362
-0.000106871
0.000410225
-0.000152633
0.00048827
-0.000198415
0.000571644
-0.000243061
0.000659414
-0.00028503
0.000750889
-0.000321942
-0.000349289
0.000846848
-8.46009e-07
4.31849e-05
-1.05053e-06
0.000100346
1.19761e-06
0.000134436
7.33605e-06
0.000149931
1.85415e-05
0.000150433
3.58085e-05
0.000138805
6.00022e-05
0.000117289
9.18874e-05
8.76433e-05
0.000132137
5.12658e-05
0.000181324
9.31433e-06
0.000239899
-3.71997e-05
0.000308159
-8.73273e-05
0.000386196
-0.000140109
0.000473831
-0.000194506
0.000570526
-0.000249329
0.000675267
-0.000303156
0.00078643
-0.000354224
0.00090164
-0.00040024
0.00101792
-0.000438219
-0.000467306
0.00113593
-5.1574e-07
4.37006e-05
5.57575e-07
9.92728e-05
5.25175e-06
0.000129742
1.51933e-05
0.000139989
3.17377e-05
0.000133888
5.60566e-05
0.000114486
8.9193e-05
8.4153e-05
0.000132089
4.47477e-05
0.000185589
-2.23492e-06
0.000250437
-5.55329e-05
0.000327249
-0.000114012
0.000416497
-0.000176576
0.000518481
-0.000242093
0.000633293
-0.000309318
0.000760766
-0.000376802
0.000900374
-0.000442764
0.00105098
-0.000504827
0.00120998
-0.000559238
0.00137031
-0.000598555
-0.000606908
0.00150991
-1.33925e-07
4.38346e-05
2.42251e-06
9.67164e-05
9.95331e-06
0.000122211
2.42999e-05
0.000125643
4.7019e-05
0.000111169
7.94766e-05
8.20282e-05
0.0001229
4.07292e-05
0.000178402
-1.07536e-05
0.000246974
-7.08074e-05
0.000329482
-0.000138041
0.000426647
-0.000211177
0.000539047
-0.000288975
0.000667134
-0.00037018
0.000811307
-0.000453491
0.000972061
-0.000537556
0.00115028
-0.000620982
0.00134778
-0.000702331
0.0015686
-0.00078006
0.00182285
-0.0008528
-0.000916879
0.00213282
3.19498e-07
4.35151e-05
4.61159e-06
9.24243e-05
1.5438e-05
0.000111385
3.4875e-05
0.000106206
6.46938e-05
8.13503e-05
0.000106455
4.02674e-05
0.00016155
-1.43659e-05
0.00023121
-8.04142e-05
0.00031649
-0.000156087
0.000418239
-0.00023979
0.000537084
-0.000330022
0.000673423
-0.000425313
0.000827448
-0.000524206
0.000999219
-0.000625263
0.00118878
-0.00072712
0.00139637
-0.000828572
0.00162272
-0.000928681
0.00186956
-0.0010269
0.00213987
-0.0011231
-0.00120962
0.00243261
8.68475e-07
4.26466e-05
7.20518e-06
8.60876e-05
2.18657e-05
9.6724e-05
4.71717e-05
8.08999e-05
8.5108e-05
4.3414e-05
0.000137407
-1.20311e-05
0.00020557
-8.2529e-05
0.000290852
-0.000165697
0.00039422
-0.000259455
0.000516307
-0.000361876
0.000657374
-0.00047109
0.000817309
-0.000585248
0.000995635
-0.000702532
0.00119157
-0.000821202
0.00140412
-0.000939669
0.00163214
-0.00105659
0.00187445
-0.00117098
0.00212983
-0.00128228
0.00239689
-0.00139016
-0.00148623
0.00267349
1.54144e-06
4.11051e-05
1.02939e-05
7.73351e-05
2.94099e-05
7.76081e-05
6.14531e-05
4.88567e-05
0.0001086
-3.73281e-06
0.000172701
-7.61322e-05
0.000255272
-0.0001651
0.000357442
-0.000267867
0.000479887
-0.0003819
0.000622764
-0.000504754
0.000785681
-0.000634007
0.000967694
-0.00076726
0.00116735
-0.000902189
0.00138277
-0.00103662
0.00161172
-0.00116862
0.00185173
-0.0012966
0.00210013
-0.00141938
0.00235405
-0.0015362
0.00261051
-0.00164662
-0.00174363
0.00286792
2.36746e-06
3.87377e-05
1.39673e-05
6.57352e-05
3.8234e-05
5.33414e-05
7.79497e-05
9.14101e-06
0.000135431
-6.12145e-05
0.000212554
-0.000153255
0.000310697
-0.000263243
0.000430659
-0.000387829
0.000572564
-0.000523805
0.00073581
-0.000667999
0.000919053
-0.000817251
0.00112027
-0.000968474
0.00133684
-0.00111876
0.00156572
-0.0012655
0.00180357
-0.00140647
0.00204691
-0.00153995
0.00229223
-0.0016647
0.00253604
-0.00178001
0.00277502
-0.0018856
-0.00197656
0.00300795
3.37297e-06
3.53647e-05
1.83023e-05
5.08058e-05
4.84674e-05
2.31763e-05
9.68169e-05
-3.92085e-05
0.000165718
-0.000130116
0.000256924
-0.000244461
0.000371472
-0.000377791
0.000509564
-0.00052592
0.000670481
-0.000684723
0.000852566
-0.000850084
0.00105329
-0.00101797
0.00126938
-0.00118457
0.00149706
-0.00134645
0.00173227
-0.00150071
0.00197089
-0.00164509
0.00220893
-0.00177799
0.00244274
-0.00189851
0.00266902
-0.00200629
0.00288501
-0.0021016
-0.00218158
0.00309003
4.57902e-06
3.07857e-05
2.3354e-05
3.20309e-05
6.01842e-05
-1.3654e-05
0.000118097
-9.71213e-05
0.000199371
-0.00021139
0.000305435
-0.000350524
0.000436715
-0.000509071
0.000592515
-0.00068172
0.00077097
-0.000863178
0.000969125
-0.00104824
0.00118312
-0.00123197
0.00140849
-0.00140993
0.00164045
-0.00157841
0.0018743
-0.00173455
0.00210561
-0.0018764
0.00233052
-0.00200291
0.00254585
-0.00211383
0.0027491
-0.00220955
0.00293857
-0.00229106
-0.00235731
0.00311431
5.99951e-06
2.47862e-05
2.91482e-05
8.88217e-06
7.33882e-05
-5.7894e-05
0.000141694
-0.000165427
0.000236061
-0.000305757
0.000357329
-0.000471793
0.000505007
-0.000656749
0.000677181
-0.000853894
0.000870588
-0.00105658
0.00108084
-0.00125849
0.00130278
-0.00145391
0.00153095
-0.0016381
0.00175998
-0.00180745
0.00198502
-0.00195958
0.00220194
-0.00209332
0.00240756
-0.00220853
0.00259964
-0.00230591
0.0027769
-0.00238681
0.00293885
-0.00245301
-0.00250489
0.00308642
7.64032e-06
1.71459e-05
3.56783e-05
-1.91558e-05
8.80034e-05
-0.000110219
0.000167356
-0.000244779
0.000275197
-0.000413599
0.00041147
-0.000608066
0.00057443
-0.000819709
0.000760674
-0.00104014
0.000965382
-0.00126129
0.00118277
-0.00147587
0.00140662
-0.00167777
0.00163091
-0.00186239
0.00185021
-0.00202675
0.0020601
-0.00216947
0.00225729
-0.00229051
0.0024397
-0.00239094
0.00260635
-0.00247256
0.00275717
-0.00253764
0.00289284
-0.00258867
-0.00262711
0.00301506
9.49904e-06
7.64681e-06
4.29023e-05
-5.25591e-05
0.00010387
-0.000171187
0.000194675
-0.000335584
0.000315942
-0.000534867
0.000466376
-0.000758499
0.000642675
-0.000996009
0.000839761
-0.00123722
0.00105127
-0.0014728
0.00127025
-0.00169485
0.00148988
-0.0018974
0.00170409
-0.0020766
0.00190801
-0.00223066
0.00209814
-0.00235961
0.00227244
-0.00246481
0.00243012
-0.00254861
0.00257143
-0.00261387
0.00269741
-0.00266362
0.00280959
-0.00270086
-0.00272771
0.00291019
1.15649e-05
-3.91812e-06
5.07435e-05
-9.17376e-05
0.000120745
-0.000241189
0.000223091
-0.000437929
0.000357232
-0.000669008
0.000520298
-0.000921565
0.000707205
-0.00118292
0.000911159
-0.00144118
0.00112447
-0.00168611
0.00133944
-0.00190983
0.0015492
-0.00210716
0.00174826
-0.00227565
0.00193277
-0.00241518
0.00210056
-0.0025274
0.00225094
-0.00261519
0.00238438
-0.00268205
0.00250218
-0.00273167
0.00260615
-0.0027676
0.00269834
-0.00279305
-0.0028105
0.00278114
1.38187e-05
-1.77369e-05
5.90892e-05
-0.000137008
0.000138305
-0.000320404
0.00025191
-0.000551534
0.000397828
-0.000814926
0.000571335
-0.00109507
0.000765458
-0.00137704
0.000971847
-0.00164757
0.00118188
-0.00189614
0.00138769
-0.00211564
0.00158297
-0.00230244
0.00176329
-0.00245597
0.00192619
-0.00257808
0.00207092
-0.00267213
0.00219809
-0.00274235
0.0023092
-0.00279315
0.00240628
-0.00282875
0.00249157
-0.00285289
0.00256728
-0.00286876
-0.00287892
0.0026357
1.62323e-05
-3.39692e-05
6.77926e-05
-0.000188568
0.000156152
-0.000408764
0.000280327
-0.000675709
0.000436385
-0.000970984
0.000617564
-0.00127625
0.000815073
-0.00157455
0.00101935
-0.00185185
0.00122139
-0.00209818
0.00141378
-0.00230803
0.00159127
-0.00247992
0.00175086
-0.00261557
0.00189159
-0.00271881
0.00201405
-0.0027946
0.00211989
-0.00284819
0.00221133
-0.00288459
0.00229078
-0.0029082
0.00236061
-0.00292271
0.00242294
-0.00293109
-0.00293577
0.00247979
1.87684e-05
-5.27376e-05
7.66739e-05
-0.000246474
0.000173828
-0.000505918
0.000307466
-0.000809346
0.000471536
-0.00113505
0.000657196
-0.00146191
0.000854092
-0.00177144
0.00105196
-0.00204971
0.00124202
-0.00228824
0.00141785
-0.00248386
0.00157564
-0.00263771
0.00171396
-0.00275389
0.00183325
-0.00283809
0.0019352
-0.00289655
0.00202218
-0.00293518
0.00209681
-0.00295922
0.00216158
-0.00297298
0.00221874
-0.00297987
0.0022702
-0.00298255
-0.00298319
0.00231762
2.13807e-05
-7.41183e-05
8.55251e-05
-0.000310618
0.000190832
-0.000611225
0.00033243
-0.000950944
0.000501988
-0.00130461
0.000688715
-0.00164864
0.000881116
-0.00196384
0.00106882
-0.00223741
0.00124385
-0.00246327
0.00140119
-0.0026412
0.00153864
-0.00277516
0.00165627
-0.00287152
0.0017557
-0.00293752
0.00183939
-0.00298024
0.00191014
-0.00300592
0.00197063
-0.0030197
0.00202325
-0.0030256
0.00207001
-0.00302663
0.0021125
-0.00302505
-0.00302273
0.00215204
2.40145e-05
-9.81327e-05
9.41162e-05
-0.00038072
0.000206642
-0.000723751
0.000354353
-0.00109865
0.000526617
-0.00147688
0.000710991
-0.00183301
0.000895385
-0.00214824
0.00106991
-0.00241194
0.00122789
-0.00262125
0.00136592
-0.00277923
0.0014834
-0.00289264
0.00158168
-0.0029698
0.00166325
-0.0030191
0.00173106
-0.00304805
0.00178801
-0.00306287
0.00183666
-0.00306836
0.00187918
-0.00306811
0.00191724
-0.00306469
0.00195215
-0.00305995
-0.00305547
0.00198489
2.66081e-05
-0.000124741
0.000102205
-0.000456317
0.000220745
-0.000842292
0.000372456
-0.00125037
0.000544539
-0.00164896
0.000723342
-0.00201181
0.000896775
-0.00232167
0.00105597
-0.00257113
0.00119582
-0.0027611
0.00131462
-0.00289803
0.00141318
-0.0029912
0.00149386
-0.00305048
0.00155972
-0.00308496
0.00161387
-0.0031022
0.00165912
-0.00310812
0.00169781
-0.00310705
0.00173176
-0.00310207
0.00176237
-0.0030953
0.00179065
-0.00308823
-0.00308213
0.00181731
2.9095e-05
-0.000153836
0.000109548
-0.00053677
0.000232667
-0.000965411
0.000386101
-0.0014038
0.000555169
-0.00181803
0.000725549
-0.00218219
0.000885724
-0.00248185
0.00102824
-0.00271365
0.00114972
-0.00288257
0.00125002
-0.00299833
0.00133113
-0.00307231
0.00139611
-0.00311546
0.00144827
-0.00313712
0.00149071
-0.00314463
0.00152598
-0.00314339
0.00155613
-0.0031372
0.00158267
-0.00312861
0.00160669
-0.00311932
0.00162897
-0.0031105
-0.00310318
0.00165002
3.1407e-05
-0.000185243
0.000115914
-0.000621277
0.000241997
-0.00109149
0.00039482
-0.00155662
0.000558232
-0.00198144
0.000717816
-0.00234178
0.000863118
-0.00262715
0.000988347
-0.00283888
0.00109182
-0.00298605
0.00117477
-0.00308128
0.00124007
-0.00313761
0.00129118
-0.00316657
0.00133146
-0.0031774
0.00136378
-0.00317696
0.00139043
-0.00317004
0.0014131
-0.00315987
0.00143302
-0.00314852
0.00145103
-0.00313734
0.00146772
-0.0031272
-0.00311891
0.00148345
3.34766e-05
-0.000218719
0.000121093
-0.000708894
0.000248414
-0.00121882
0.000398341
-0.00170655
0.000553757
-0.00213686
0.000700701
-0.00248872
0.000830147
-0.0027566
0.000938064
-0.0029468
0.00102434
-0.00307232
0.00109131
-0.00314825
0.00114243
-0.00318873
0.00118134
-0.00320547
0.00121123
-0.0032073
0.00123473
-0.00320045
0.00125376
-0.00318907
0.00126971
-0.00317583
0.00128355
-0.00316236
0.00129594
-0.00314972
0.00130731
-0.00313856
-0.0031295
0.0013179
3.52442e-05
-0.000253964
0.000124919
-0.000798569
0.000251708
-0.0013456
0.000396597
-0.00185144
0.000542049
-0.00228231
0.000675033
-0.00262171
0.000788189
-0.00286975
0.000879214
-0.00303782
0.00094935
-0.00314246
0.00100176
-0.00320066
0.00104024
-0.00322721
0.00106836
-0.0032336
0.00108911
-0.00322805
0.00110475
-0.00321609
0.0011169
-0.00320122
0.00112667
-0.00318559
0.0011348
-0.0031705
0.0011418
-0.00315673
0.001148
-0.00314475
-0.00313505
0.00115354
3.66472e-05
-0.000290611
0.000127245
-0.000889166
0.000251747
-0.00147011
0.000389666
-0.00198936
0.000523579
-0.00241622
0.000641766
-0.00273989
0.000738635
-0.00296662
0.000813481
-0.00311267
0.000868657
-0.00319763
0.000907885
-0.00323989
0.000935064
-0.00325439
0.000953606
-0.00325214
0.000966174
-0.00324062
0.000974696
-0.00322461
0.000980488
-0.00320701
0.000984425
-0.00318953
0.000987085
-0.00317316
0.00098885
-0.00315849
0.000989957
-0.00314586
-0.00313562
0.000990524
3.76417e-05
-0.000328252
0.000127988
-0.000979512
0.000248532
-0.00159065
0.000377811
-0.00211863
0.000499007
-0.00253742
0.000601978
-0.00284287
0.00068289
-0.00304753
0.00074245
-0.00317223
0.000783857
-0.00323904
0.000811158
-0.00326719
0.000828195
-0.00327143
0.000838113
-0.00326206
0.000843239
-0.00324575
0.000845176
-0.00322655
0.000844979
-0.00320681
0.000843326
-0.00318788
0.000840661
-0.00317049
0.000837275
-0.0031551
0.000833349
-0.00314193
-0.00313124
0.000828965
3.81914e-05
-0.000366444
0.000127109
-0.00106843
0.000242151
-0.00170569
0.000361402
-0.00223789
0.000469072
-0.00264509
0.000556745
-0.00293054
0.000622258
-0.00311305
0.000667501
-0.00321747
0.000696278
-0.00326782
0.00071276
-0.00328367
0.000720612
-0.00327928
0.000722661
-0.00326411
0.000720898
-0.00324398
0.000716634
-0.00322228
0.000710698
-0.00320088
0.000703611
-0.00318079
0.000695713
-0.0031626
0.000687229
-0.00314662
0.000678298
-0.003133
-0.00312192
0.000668981
3.82718e-05
-0.000404716
0.000124612
-0.00115477
0.00023277
-0.00181385
0.000340894
-0.00234601
0.00043455
-0.00273874
0.000507105
-0.00300309
0.000557915
-0.00316386
0.000589821
-0.00324938
0.00060701
-0.00328501
0.000613621
-0.00329028
0.000613062
-0.00327872
0.000607824
-0.00325887
0.000599581
-0.00323574
0.000589385
-0.00321209
0.000577879
-0.00318937
0.000565459
-0.00316837
0.000552385
-0.00314952
0.000538832
-0.00313307
0.000524914
-0.00311908
-0.00310768
0.000510676
3.78708e-05
-0.000442586
0.000120543
-0.00123744
0.000220621
-0.00191393
0.000316792
-0.00244218
0.000396219
-0.00281817
0.000454026
-0.0030609
0.000490901
-0.00320073
0.000510408
-0.00326889
0.000516932
-0.00329153
0.000514466
-0.00328782
0.000506111
-0.00327036
0.000494027
-0.00324678
0.000479597
-0.00322131
0.000463657
-0.00319615
0.000446695
-0.00317241
0.000429008
-0.00315068
0.000410792
-0.00313131
0.000392189
-0.00311446
0.000373294
-0.00310019
-0.00308853
0.000354148
3.69876e-05
-0.000479574
0.000114983
-0.00131544
0.000205977
-0.00200492
0.00028962
-0.00252582
0.000354822
-0.00288337
0.000398379
-0.00310446
0.000422107
-0.00322446
0.000430088
-0.00327687
0.000426748
-0.00328819
0.000415854
-0.00327692
0.000400182
-0.00325469
0.000381579
-0.00322818
0.000361175
-0.00320091
0.000339619
-0.00317459
0.000317277
-0.00315007
0.000294365
-0.00312777
0.000271031
-0.00310797
0.00024739
-0.00309082
0.000223529
-0.00307633
-0.00306449
0.000199487
3.56327e-05
-0.000515207
0.000108042
-0.00138785
0.000189142
-0.00208602
0.000259903
-0.00259658
0.000311057
-0.00293452
0.00034094
-0.00313434
0.000352294
-0.00323581
0.000349534
-0.00327411
0.000337011
-0.00327567
0.000318215
-0.00325813
0.000295595
-0.00323207
0.000270713
-0.0032033
0.00024448
-0.00317467
0.000217396
-0.00314751
0.000189725
-0.0031224
0.000161617
-0.00309966
0.000133181
-0.00307954
0.000104513
-0.00306216
7.56944e-05
-0.00304751
-0.00303557
4.67719e-05
3.3826e-05
-0.000549033
9.98508e-05
-0.00145387
0.000170432
-0.00215661
0.000228145
-0.0026543
0.000265555
-0.00297193
0.000282381
-0.00315117
0.000282097
-0.00323553
0.000269295
-0.0032613
0.000248161
-0.00325454
0.00022188
-0.00323184
0.000192591
-0.00320278
0.0001616
-0.00317231
0.000129638
-0.00314271
9.70825e-05
-0.00311495
6.41157e-05
-0.00308943
3.08332e-05
-0.00306638
-2.69081e-06
-0.00304601
-3.6377e-05
-0.00302847
-7.01416e-05
-0.00301374
-0.00300179
-0.000103926
3.15956e-05
-0.000580628
9.0554e-05
-0.00151283
0.000150165
-0.00221622
0.000194824
-0.00269896
0.000218885
-0.002996
0.000223284
-0.00315557
0.000212047
-0.00322429
0.000189814
-0.00323907
0.000160545
-0.00322527
0.00012711
-0.00319841
9.13567e-05
-0.00316703
5.43737e-05
-0.00313532
1.67444e-05
-0.00310508
-2.12503e-05
-0.00307696
-5.94934e-05
-0.00305119
-9.79368e-05
-0.00302794
-0.000136539
-0.00300741
-0.000175235
-0.00298977
-0.000213933
-0.00297505
-0.00296316
-0.000252557
2.89767e-05
-0.000609605
8.03058e-05
-0.00156416
0.000128652
-0.00226456
0.000160379
-0.00273068
0.000171551
-0.00300717
0.000164148
-0.00314816
0.000142587
-0.00320273
0.000111455
-0.00320794
7.44434e-05
-0.00318826
3.41103e-05
-0.00315808
-7.95737e-06
-0.00312496
-5.08581e-05
-0.00309242
-9.41249e-05
-0.00306181
-0.000137549
-0.00303353
-0.000181064
-0.00300767
-0.000224665
-0.00298434
-0.000268343
-0.00296373
-0.000312048
-0.00294607
-0.000355676
-0.00293142
-0.00291971
-0.000399124
2.60095e-05
-0.000635614
6.92639e-05
-0.00160741
0.000106191
-0.00230149
0.000125213
-0.0027497
0.000123996
-0.00300595
0.000105398
-0.00312957
7.40871e-05
-0.00317142
3.45174e-05
-0.00316837
-9.91056e-06
-0.00314383
-5.69399e-05
-0.00311105
-0.000105218
-0.00307669
-0.000153998
-0.00304364
-0.000202902
-0.00301291
-0.00025177
-0.00298466
-0.000300573
-0.00295887
-0.000349344
-0.00293556
-0.000398112
-0.00291496
-0.000446846
-0.00289733
-0.000495427
-0.00288284
-0.00287143
-0.000543714
2.27383e-05
-0.000658353
5.75862e-05
-0.00164226
8.30636e-05
-0.00232697
8.96901e-05
-0.00275633
7.661e-05
-0.00299287
4.74e-05
-0.00310036
6.86324e-06
-0.00313088
-4.07393e-05
-0.00312077
-9.23107e-05
-0.00309226
-0.000145878
-0.00305748
-0.000200296
-0.00302227
-0.000254946
-0.00298899
-0.000309513
-0.00295834
-0.000363868
-0.00293031
-0.000418003
-0.00290473
-0.000471981
-0.00288159
-0.000525876
-0.00286107
-0.000579689
-0.00284352
-0.00063329
-0.00282924
-0.00281824
-0.000686476
1.92105e-05
-0.000677563
4.54276e-05
-0.00166848
5.9532e-05
-0.00234107
5.41384e-05
-0.00275094
2.97345e-05
-0.00296847
-9.52796e-06
-0.00306109
-5.88097e-05
-0.0030816
-0.000114085
-0.00306549
-0.000172564
-0.00303378
-0.000232537
-0.00299751
-0.000293047
-0.00296176
-0.000353579
-0.00292846
-0.000413865
-0.00289806
-0.000473783
-0.00287039
-0.000533327
-0.00284519
-0.000592581
-0.00282233
-0.000651667
-0.00280198
-0.000710634
-0.00278455
-0.000769349
-0.00277052
-0.00276007
-0.000827519
1.54748e-05
-0.000693038
3.29376e-05
-0.00168594
3.58391e-05
-0.00234397
1.8852e-05
-0.00273395
-1.63289e-05
-0.00293329
-6.51067e-05
-0.00301232
-0.000122685
-0.00302402
-0.000185304
-0.00300287
-0.000250474
-0.00296861
-0.000316735
-0.00293124
-0.000383297
-0.0028952
-0.000449739
-0.00286202
-0.000515824
-0.00283197
-0.000581423
-0.00280479
-0.000646506
-0.0027801
-0.000711152
-0.00275769
-0.000775522
-0.00273761
-0.000839733
-0.00272034
-0.000903663
-0.00270659
-0.00269685
-0.00096688
1.15807e-05
-0.000704619
2.02588e-05
-0.00169462
1.22074e-05
-0.00233592
-1.59062e-05
-0.00270584
-6.13141e-05
-0.00288788
-0.000119088
-0.00295454
-0.000184538
-0.00295857
-0.000254186
-0.00293322
-0.000325835
-0.00289696
-0.000398258
-0.00285882
-0.000470822
-0.00282263
-0.000543195
-0.00278965
-0.000615175
-0.00275999
-0.000686619
-0.00273335
-0.000757447
-0.00270928
-0.000827696
-0.00268744
-0.000897536
-0.00266777
-0.000967158
-0.00265072
-0.00103648
-0.00263727
-0.00262839
-0.00110494
7.57741e-06
-0.000712196
7.52507e-06
-0.00169457
-1.11615e-05
-0.00231724
-4.99029e-05
-0.00266709
-0.000104986
-0.00283279
-0.00017125
-0.00288828
-0.000244157
-0.00288567
-0.00032052
-0.00285686
-0.000398422
-0.00281906
-0.000476855
-0.00278039
-0.000555337
-0.00274415
-0.000633633
-0.00271135
-0.000711592
-0.00268203
-0.000789068
-0.00265587
-0.000865933
-0.00263241
-0.000942146
-0.00261122
-0.00101785
-0.00259207
-0.00109333
-0.00257524
-0.00116857
-0.00256203
-0.00255374
-0.00124322
3.51262e-06
-0.000715709
-5.13991e-06
-0.00168591
-3.40871e-05
-0.00228829
-8.29332e-05
-0.00261825
-0.00014714
-0.00276859
-0.000221393
-0.00281403
-0.000301344
-0.00280571
-0.000384094
-0.00277411
-0.000467993
-0.00273516
-0.000552237
-0.00269614
-0.000636495
-0.00265989
-0.000720645
-0.0026272
-0.000804618
-0.00259806
-0.000888313
-0.00257218
-0.00097158
-0.00254914
-0.00105431
-0.0025285
-0.00113659
-0.00250978
-0.00121882
-0.00249301
-0.00130121
-0.00247964
-0.0024706
-0.00138435
-5.68448e-07
-0.00071514
-1.76243e-05
-0.00166886
-5.64116e-05
-0.0022495
-0.000114822
-0.00255984
-0.0001876
-0.00269581
-0.000269345
-0.00273228
-0.000355917
-0.00271914
-0.000444697
-0.00268533
-0.000534284
-0.00264557
-0.000624063
-0.00260636
-0.000713853
-0.0025701
-0.000803668
-0.00253739
-0.000893578
-0.00250815
-0.000983615
-0.00248214
-0.00107372
-0.00245903
-0.0011638
-0.00243842
-0.00125383
-0.00241975
-0.00134419
-0.00240266
-0.00143543
-0.0023884
-0.00237575
-0.00153029
-4.62415e-06
-0.000710516
-2.983e-05
-0.00164365
-7.80015e-05
-0.00220133
-0.000145425
-0.00249241
-0.000226225
-0.00261501
-0.000314966
-0.00264354
-0.000407724
-0.00262638
-0.000502141
-0.00259092
-0.000597034
-0.00255068
-0.000691951
-0.00251145
-0.000786841
-0.00247521
-0.000881854
-0.00244237
-0.000977242
-0.00241276
-0.0010733
-0.00238609
-0.00117029
-0.00236204
-0.00126843
-0.00234028
-0.00136784
-0.00232034
-0.00146908
-0.00230142
-0.00157439
-0.00228308
-0.00227672
-0.00167342
-8.60524e-06
-0.000701911
-4.16539e-05
-0.0016106
-9.87256e-05
-0.00214426
-0.00017461
-0.00241653