/*--------------------------------*- C++ -*----------------------------------*\
  =========                 |
  \\      /  F ield         | OpenFOAM: The Open Source CFD Toolbox
   \\    /   O peration     | Website:  https://openfoam.org
    \\  /    A nd           | Version:  6.0
     \\/     M anipulation  |
\*---------------------------------------------------------------------------*/
FoamFile
{
    version     2.0;
    format      ascii;
    class       surfaceScalarField;
    location    "34";
    object      phi;
}
// * * * * * * * * * * * * * * * * * * * * * * * * * * * * * * * * * * * * * //

dimensions      [0 3 -1 0 0 0 0];

internalField   nonuniform List<scalar> 
24700
(
-1.2775e-06
2.81203e-06
-1.53453e-06
-4.64748e-06
7.21947e-06
-3.84949e-06
-9.7134e-06
1.06491e-05
-5.58323e-06
-1.61283e-05
1.3273e-05
-6.8581e-06
-2.35937e-05
1.52397e-05
-7.77434e-06
-3.18575e-05
1.66787e-05
-8.41494e-06
-4.07108e-05
1.77013e-05
-8.84797e-06
-4.99848e-05
1.84025e-05
-9.12861e-06
-5.95467e-05
1.8863e-05
-9.30104e-06
-6.92974e-05
1.91507e-05
-9.40007e-06
-7.9167e-05
1.93223e-05
-9.45263e-06
-8.91128e-05
1.94249e-05
-9.47913e-06
-9.91157e-05
1.94975e-05
-9.49457e-06
-0.000109178
1.95717e-05
-9.50956e-06
-0.00011932
1.9673e-05
-9.53119e-06
-0.000129577
1.98213e-05
-9.56375e-06
-0.00014
2.00319e-05
-9.60933e-06
-0.000150647
2.03155e-05
-9.66827e-06
-0.000161587
2.06792e-05
-9.73956e-06
-0.000172892
2.11262e-05
-9.82115e-06
-0.000184638
2.16569e-05
-9.91015e-06
-0.000196904
2.22683e-05
-1.00031e-05
-0.000209763
2.2955e-05
-1.00961e-05
-0.000223288
2.37096e-05
-1.01844e-05
2.45243e-05
-1.02626e-05
-0.000237549
-1.26857e-06
4.0806e-06
-4.61602e-06
1.05669e-05
-9.64833e-06
1.56814e-05
-1.602e-05
1.96447e-05
-2.34335e-05
2.26532e-05
-3.16366e-05
2.48819e-05
-4.04203e-05
2.6485e-05
-4.96148e-05
2.7597e-05
-5.90864e-05
2.83346e-05
-6.87342e-05
2.87986e-05
-7.84872e-05
2.90752e-05
-8.83008e-05
2.92385e-05
-9.81542e-05
2.9351e-05
-0.000108048
2.94656e-05
-0.000118002
2.96264e-05
-0.00012805
2.98694e-05
-0.000138241
3.02233e-05
-0.000148636
3.07099e-05
-0.000159301
3.13446e-05
-0.000170312
3.21368e-05
-0.000181745
3.30903e-05
-0.00019368
3.42034e-05
-0.000206194
3.54693e-05
-0.000219363
3.68781e-05
3.84203e-05
-0.000233259
-1.2592e-06
5.33979e-06
-4.58168e-06
1.38894e-05
-9.57478e-06
2.06745e-05
-1.58934e-05
2.59633e-05
-2.32395e-05
2.99993e-05
-3.13602e-05
3.30026e-05
-4.00446e-05
3.51695e-05
-4.91211e-05
3.66735e-05
-5.84535e-05
3.7667e-05
-6.7938e-05
3.8283e-05
-7.75002e-05
3.86374e-05
-8.70922e-05
3.88305e-05
-9.66902e-05
3.89489e-05
-0.000106291
3.90669e-05
-0.000115913
3.92474e-05
-0.000125586
3.95432e-05
-0.00013536
3.99973e-05
-0.000145294
4.06432e-05
-0.000155455
4.1506e-05
-0.00016592
4.26019e-05
-0.000176769
4.39393e-05
-0.000188084
4.55187e-05
-0.000199948
4.73328e-05
-0.000212439
4.93696e-05
5.16178e-05
-0.000225637
-1.24965e-06
6.58944e-06
-4.54527e-06
1.7185e-05
-9.49426e-06
2.56235e-05
-1.57508e-05
3.22198e-05
-2.30154e-05
3.72639e-05
-3.10332e-05
4.10204e-05
-3.9591e-05
4.37272e-05
-4.85137e-05
4.55962e-05
-5.76614e-05
4.68147e-05
-6.69259e-05
4.75476e-05
-7.62281e-05
4.79397e-05
-8.55152e-05
4.81176e-05
-9.47581e-05
4.81918e-05
-0.000103949
4.82583e-05
-0.000113102
4.83995e-05
-0.000122244
4.86857e-05
-0.000131422
4.91751e-05
-0.000140693
4.99147e-05
-0.000150127
5.09402e-05
-0.000159802
5.22768e-05
-0.000169802
5.39387e-05
-0.000180213
5.59298e-05
-0.000191124
5.82439e-05
-0.000202622
6.08676e-05
6.37885e-05
-0.000214793
-1.24026e-06
7.8297e-06
-4.50773e-06
2.04525e-05
-9.40851e-06
3.05243e-05
-1.55949e-05
3.84062e-05
-2.27653e-05
4.44343e-05
-3.06619e-05
4.89171e-05
-3.90681e-05
5.21334e-05
-4.78047e-05
5.43328e-05
-5.67268e-05
5.57367e-05
-6.57206e-05
5.65414e-05
-7.47006e-05
5.69197e-05
-8.36073e-05
5.70243e-05
-9.24049e-05
5.69894e-05
-0.000101079
5.69328e-05
-0.000109637
5.69572e-05
-0.000118103
5.71511e-05
-0.000126517
5.75897e-05
-0.000134937
5.83349e-05
-0.000143433
5.94354e-05
-0.000152083
6.09269e-05
-0.000160976
6.28321e-05
-0.000170207
6.51606e-05
-0.000179872
6.79085e-05
-0.000190067
7.1063e-05
7.46112e-05
-0.00020089
-1.23134e-06
9.06105e-06
-4.46991e-06
2.3691e-05
-9.31904e-06
3.53734e-05
-1.54282e-05
4.45154e-05
-2.24928e-05
5.14989e-05
-3.02518e-05
5.6676e-05
-3.84843e-05
6.0366e-05
-4.70064e-05
6.28548e-05
-5.56672e-05
6.43975e-05
-6.43461e-05
6.52203e-05
-7.29501e-05
6.55237e-05
-8.14113e-05
6.54855e-05
-8.96851e-05
6.52633e-05
-9.77491e-05
6.49968e-05
-0.000105601
6.48095e-05
-0.00011326
6.48093e-05
-0.00012076
6.50899e-05
-0.000128155
6.57301e-05
-0.000135514
6.67943e-05
-0.000142919
6.83316e-05
-0.000150463
7.03762e-05
-0.000158248
7.2946e-05
-0.000166382
7.60426e-05
-0.000174975
7.9656e-05
8.37738e-05
-0.000184138
-1.22313e-06
1.02842e-05
-4.43232e-06
2.69002e-05
-9.22665e-06
4.01678e-05
-1.52519e-05
5.05406e-05
-2.22e-05
5.8447e-05
-2.98061e-05
6.42821e-05
-3.78451e-05
6.8405e-05
-4.61277e-05
7.11374e-05
-5.44966e-05
7.27664e-05
-6.28235e-05
7.35472e-05
-7.10065e-05
7.37067e-05
-7.8968e-05
7.34469e-05
-8.66529e-05
7.29482e-05
-9.4028e-05
7.23719e-05
-0.000101081
7.18625e-05
-0.00010782
7.15485e-05
-0.000114274
7.15435e-05
-0.00012049
7.19459e-05
-0.000126534
7.28385e-05
-0.00013249
7.42879e-05
-0.000138457
7.63433e-05
-0.000144547
7.90353e-05
-0.000150879
8.23749e-05
-0.000157581
8.63579e-05
9.09756e-05
-0.000164783
-1.21569e-06
1.14999e-05
-4.39487e-06
3.00794e-05
-9.13086e-06
4.49037e-05
-1.50651e-05
5.64748e-05
-2.18856e-05
6.52675e-05
-2.93239e-05
7.17205e-05
-3.71506e-05
7.62316e-05
-4.5171e-05
7.91577e-05
-5.32211e-05
8.08166e-05
-6.11648e-05
8.14909e-05
-6.88903e-05
8.14322e-05
-7.63089e-05
8.08655e-05
-8.33534e-05
7.99927e-05
-8.99776e-05
7.89961e-05
-9.61563e-05
7.80412e-05
-0.000101885
7.72776e-05
-0.000107183
7.68406e-05
-0.000112087
7.68506e-05
-0.000116661
7.74125e-05
-0.000120988
7.86143e-05
-0.00012517
8.05257e-05
-0.00012933
8.31953e-05
-0.000133604
8.66489e-05
-0.000138139
9.08935e-05
9.59278e-05
-0.000143092
-1.20882e-06
1.27087e-05
-4.35658e-06
3.32271e-05
-9.02939e-06
4.95765e-05
-1.48637e-05
6.23091e-05
-2.15438e-05
7.19476e-05
-2.87978e-05
7.89744e-05
-3.63922e-05
8.38261e-05
-4.41277e-05
8.68932e-05
-5.18339e-05
8.85229e-05
-5.93665e-05
8.90235e-05
-6.66039e-05
8.86696e-05
-7.34454e-05
8.7707e-05
-7.98102e-05
8.63575e-05
-8.56372e-05
8.48231e-05
-9.08855e-05
8.32895e-05
-9.55355e-05
8.19276e-05
-9.95905e-05
8.08956e-05
-0.000103078
8.03382e-05
-0.000106052
8.03862e-05
-0.000108592
8.11542e-05
-0.000110804
8.27384e-05
-0.000112822
8.52127e-05
-0.000114798
8.86252e-05
-0.000116906
9.30018e-05
9.8355e-05
-0.000119334
-1.20202e-06
1.39107e-05
-4.3154e-06
3.63405e-05
-8.91765e-06
5.41788e-05
-1.46399e-05
6.80313e-05
-2.11628e-05
7.84706e-05
-2.82117e-05
8.60233e-05
-3.55501e-05
9.11645e-05
-4.29744e-05
9.43176e-05
-5.03092e-05
9.58576e-05
-5.74025e-05
9.61168e-05
-6.41231e-05
9.53902e-05
-7.03582e-05
9.3942e-05
-7.60125e-05
9.20118e-05
-8.10084e-05
8.9819e-05
-8.52868e-05
8.75679e-05
-8.88093e-05
8.54502e-05
-9.15607e-05
8.3647e-05
-9.3552e-05
8.23295e-05
-9.48237e-05
8.16579e-05
-9.54485e-05
8.17789e-05
-9.55328e-05
8.28228e-05
-9.52175e-05
8.48975e-05
-9.46761e-05
8.80838e-05
-9.41116e-05
9.24373e-05
9.79946e-05
-9.37512e-05
-1.19442e-06
1.51051e-05
-4.26802e-06
3.94141e-05
-8.78846e-06
5.86992e-05
-1.43812e-05
7.36241e-05
-2.07239e-05
8.48133e-05
-2.75396e-05
9.2839e-05
-3.45901e-05
9.8215e-05
-4.16693e-05
0.000101397
-4.85974e-05
0.000102786
-5.52165e-05
0.000102736
-6.13868e-05
0.00010156
-6.69842e-05
9.95394e-05
-7.18989e-05
9.69265e-05
-7.60358e-05
9.3956e-05
-7.9316e-05
9.08481e-05
-8.16788e-05
8.7813e-05
-8.30863e-05
8.50545e-05
-8.35275e-05
8.27707e-05
-8.30239e-05
8.11542e-05
-8.16343e-05
8.03894e-05
-7.94601e-05
8.06485e-05
-7.66477e-05
8.20851e-05
-7.33896e-05
8.48256e-05
-6.9923e-05
8.89708e-05
9.45965e-05
-6.6525e-05
-1.18479e-06
1.62899e-05
-4.20989e-06
4.24392e-05
-8.63195e-06
6.31213e-05
-1.40706e-05
7.90628e-05
-2.02008e-05
9.09434e-05
-2.67444e-05
9.93826e-05
-3.34627e-05
0.000104933
-4.01485e-05
0.000108083
-4.66201e-05
0.000109257
-5.27155e-05
0.000108831
-5.82883e-05
0.000107133
-6.32047e-05
0.000104456
-6.73417e-05
0.000101063
-7.05872e-05
9.72015e-05
-7.28413e-05
9.31021e-05
-7.40192e-05
8.89909e-05
-7.4056e-05
8.50914e-05
-7.29133e-05
8.1628e-05
-7.0586e-05
7.88269e-05
-6.71116e-05
7.6915e-05
-6.25781e-05
7.6115e-05
-5.71315e-05
7.66384e-05
-5.09804e-05
7.86746e-05
-4.43994e-05
8.23898e-05
8.79226e-05
-3.77254e-05
-1.17159e-06
1.74615e-05
-4.1353e-06
4.54029e-05
-8.43572e-06
6.74217e-05
-1.36864e-05
8.43135e-05
-1.95597e-05
9.68167e-05
-2.57773e-05
0.0001056
-3.21013e-05
0.000111257
-3.83253e-05
0.000114307
-4.42678e-05
0.0001152
-4.97653e-05
0.000114329
-5.46676e-05
0.000112036
-5.88341e-05
0.000108622
-6.21314e-05
0.000104361
-6.44322e-05
9.95024e-05
-6.56169e-05
9.42868e-05
-6.55758e-05
8.89498e-05
-6.42146e-05
8.37302e-05
-6.14619e-05
7.88753e-05
-5.72792e-05
7.46442e-05
-5.16725e-05
7.13083e-05
-4.47059e-05
6.91485e-05
-3.6515e-05
6.84475e-05
-2.73183e-05
6.94779e-05
-1.74273e-05
7.24987e-05
7.77446e-05
-7.24936e-06
-1.15304e-06
1.86145e-05
-4.03767e-06
4.82876e-05
-8.18536e-06
7.15694e-05
-1.3203e-05
8.93311e-05
-1.87603e-05
0.000102374
-2.45793e-05
0.000111419
-3.04237e-05
0.000117102
-3.60899e-05
0.000119973
-4.13985e-05
0.000120508
-4.61875e-05
0.000119118
-5.03065e-05
0.000116155
-5.3612e-05
0.000111928
-5.59642e-05
0.000106713
-5.72249e-05
0.000100763
-5.7258e-05
9.43199e-05
-5.5931e-05
8.76228e-05
-5.31203e-05
8.09195e-05
-4.87187e-05
7.44738e-05
-4.26474e-05
6.85728e-05
-3.48708e-05
6.35317e-05
-2.54163e-05
5.96939e-05
-1.43945e-05
5.74257e-05
-2.02163e-06
5.7105e-05
1.13588e-05
5.91183e-05
6.38427e-05
2.52607e-05
-1.12726e-06
1.97418e-05
-3.91e-06
5.10703e-05
-7.86525e-06
7.55246e-05
-1.25922e-05
9.4058e-05
-1.77573e-05
0.000107539
-2.30828e-05
0.000116745
-2.83344e-05
0.000122353
-3.33122e-05
0.00012495
-3.78407e-05
0.000125037
-4.17622e-05
0.000123039
-4.49296e-05
0.000119322
-4.72011e-05
0.000114199
-4.8436e-05
0.000107948
-4.84915e-05
0.000100819
-4.72212e-05
9.30496e-05
-4.44757e-05
8.48773e-05
-4.01058e-05
7.65496e-05
-3.39698e-05
6.83378e-05
-2.59452e-05
6.05482e-05
-1.59466e-05
5.35331e-05
-3.94998e-06
4.76973e-05
9.97691e-06
4.34988e-05
2.56393e-05
4.14427e-05
4.26749e-05
4.20827e-05
4.60015e-05
6.05161e-05
-1.09247e-06
2.08342e-05
-3.74536e-06
5.37232e-05
-7.45959e-06
7.92389e-05
-1.18249e-05
9.84232e-05
-1.65031e-05
0.000112217
-2.12152e-05
0.000121457
-2.57286e-05
0.000126867
-2.98467e-05
0.000129069
-3.3399e-05
0.000128589
-3.62337e-05
0.000125874
-3.82099e-05
0.000121298
-3.91924e-05
0.000115182
-3.90456e-05
0.000107801
-3.76297e-05
9.94028e-05
-3.47974e-05
9.02173e-05
-3.03921e-05
8.0472e-05
-2.42487e-05
7.04062e-05
-1.61983e-05
6.02873e-05
-6.07803e-06
5.0428e-05
6.25094e-06
4.12042e-05
2.08756e-05
3.30726e-05
3.77918e-05
2.65826e-05
5.68527e-05
2.23818e-05
7.77021e-05
2.12332e-05
2.40054e-05
9.96983e-05
-1.04713e-06
2.18814e-05
-3.53748e-06
5.62135e-05
-6.9535e-06
8.26549e-05
-1.08728e-05
0.000102343
-1.49501e-05
0.000116295
-1.89028e-05
0.000125409
-2.24978e-05
0.000130462
-2.55402e-05
0.000132111
-2.78637e-05
0.000130913
-2.93223e-05
0.000127333
-2.97833e-05
0.000121759
-2.91209e-05
0.000114519
-2.72104e-05
0.00010589
-2.39235e-05
9.61159e-05
-1.91229e-05
8.54167e-05
-1.26585e-05
7.40077e-05
-4.36512e-06
6.21128e-05
5.93775e-06
4.99845e-05
1.84399e-05
3.79258e-05
3.33268e-05
2.63173e-05
5.07521e-05
1.56473e-05
7.0793e-05
6.54167e-06
9.33826e-05
-2.07733e-07
0.000118211
-3.59472e-06
-2.37109e-06
0.000144587
-9.90134e-07
2.28715e-05
-3.28122e-06
5.85046e-05
-6.334e-06
8.57077e-05
-9.71036e-06
0.000105719
-1.3054e-05
0.000119638
-1.6075e-05
0.00012843
-1.85359e-05
0.000132923
-2.02403e-05
0.000133815
-2.10226e-05
0.000131695
-2.07406e-05
0.000127051
-1.92684e-05
0.000120287
-1.64906e-05
0.000111741
-1.2297e-05
0.000101697
-6.57724e-06
9.03961e-05
7.8468e-07
7.80548e-05
9.91627e-06
6.48761e-05
2.09623e-05
5.10667e-05
3.40897e-05
3.68571e-05
4.9489e-05
2.25265e-05
6.73692e-05
8.43715e-06
8.79377e-05
-4.92126e-06
0.000111358
-1.68791e-05
0.000137675
-2.65245e-05
0.000166678
-3.25976e-05
-3.33778e-05
0.000197685
-9.20866e-07
2.37924e-05
-2.97291e-06
6.05567e-05
-5.59077e-06
8.83255e-05
-8.31579e-06
0.000108444
-1.07757e-05
0.000122098
-1.26679e-05
0.000130323
-1.37453e-05
0.000134
-1.38041e-05
0.000133874
-1.26739e-05
0.000130565
-1.0211e-05
0.000124588
-6.29176e-06
0.000116368
-8.08178e-07
0.000106258
6.33626e-06
9.45525e-05
1.52308e-05
8.15015e-05
2.59624e-05
6.73233e-05
3.86212e-05
5.22172e-05
5.33088e-05
3.63792e-05
7.01467e-05
2.00191e-05
8.92865e-05
3.38665e-06
0.000110916
-1.31928e-05
0.000135258
-2.92631e-05
0.000162541
-4.41617e-05
0.000192932
-5.69158e-05
0.000226385
-6.60506e-05
-6.9316e-05
0.000262323
-8.39234e-07
2.46316e-05
-2.61032e-06
6.23277e-05
-4.71614e-06
9.04313e-05
-6.67166e-06
0.000110399
-8.08239e-06
0.000123509
-8.62671e-06
0.000130867
-8.04055e-06
0.000133414
-6.10506e-06
0.000131939
-2.63722e-06
0.000127097
2.51689e-06
0.000119434
9.48687e-06
0.000109398
1.8381e-05
9.73637e-05
2.92884e-05
8.3645e-05
4.22808e-05
6.85092e-05
5.74146e-05
5.21894e-05
7.47348e-05
3.48971e-05
9.42807e-05
1.68332e-05
0.000116097
-1.79685e-06
0.000140247
-2.07632e-05
0.000166833
-3.97795e-05
0.000196018
-5.84479e-05
0.000228027
-7.61706e-05
0.000263121
-9.20099e-05
0.000301465
-0.000104395
-0.000110583
0.000342732
-7.45521e-07
2.53771e-05
-2.19231e-06
6.37745e-05
-3.70454e-06
9.19436e-05
-4.76401e-06
0.000111459
-4.94697e-06
0.000123692
-3.90508e-06
0.000129825
-1.34906e-06
0.000130858
2.96411e-06
0.000127625
9.24037e-06
0.000120821
1.76547e-05
0.000111019
2.83544e-05
9.86981e-05
4.14606e-05
8.42575e-05
5.70672e-05
6.80384e-05
7.52399e-05
5.03365e-05
9.60137e-05
3.14156e-05
0.000119392
1.15191e-05
0.000145346
-9.12081e-06
0.000173821
-3.02726e-05
0.000204751
-5.1693e-05
0.000238078
-7.31067e-05
0.000273796
-9.41652e-05
0.000311995
-0.00011437
0.000352913
-0.000132928
0.000396907
-0.000148389
-0.000157721
0.000444046
-6.40139e-07
2.60173e-05
-1.71803e-06
6.48524e-05
-2.55106e-06
9.27766e-05
-2.58028e-06
0.000111488
-1.34508e-06
0.000122457
1.53778e-06
0.000126942
6.39179e-06
0.000126004
1.34941e-05
0.000120523
2.30846e-05
0.00011123
3.53719e-05
9.87321e-05
5.05349e-05
8.35351e-05
6.87229e-05
6.60696e-05
9.00523e-05
4.6709e-05
0.000114602
2.5787e-05
0.000142405
3.61237e-06
0.000173443
-1.9519e-05
0.000207636
-4.33137e-05
0.000244836
-6.74726e-05
0.000284827
-9.16841e-05
0.000327337
-0.000115617
0.000372076
-0.000138903
0.000418806
-0.0001611
0.000467481
-0.000181603
0.000518436
-0.000199344
-0.000211538
0.000572253
-5.2326e-07
2.65405e-05
-1.18586e-06
6.5515e-05
-1.24937e-06
9.28401e-05
-1.06154e-07
0.000110345
2.74913e-06
0.000119601
7.74288e-06
0.000121948
1.52417e-05
0.000118505
2.55665e-05
0.000110198
3.90023e-05
9.77947e-05
5.58028e-05
8.19316e-05
7.61926e-05
6.31453e-05
0.000100365
4.18969e-05
0.000128479
1.85955e-05
0.000160648
-6.38248e-06
0.000196935
-3.26748e-05
0.000237335
-5.99183e-05
0.000281756
-8.77346e-05
0.000330001
-0.000115718
0.000381744
-0.000143427
0.000436502
-0.000170375
0.000493635
-0.000196037
0.000552384
-0.000219849
0.000612019
-0.000241238
0.000672254
-0.000259578
-0.000273772
0.000734487
-3.94399e-07
2.69349e-05
-5.92121e-07
6.57127e-05
2.10673e-07
9.20373e-05
2.67832e-06
0.000107877
7.36857e-06
0.000114911
1.47588e-05
0.000114558
2.52667e-05
0.000107997
3.92656e-05
9.61993e-05
5.70941e-05
7.99662e-05
7.90609e-05
5.99648e-05
0.000105446
3.67597e-05
0.000136501
1.08423e-05
0.00017244
-1.73437e-05
0.000213437
-4.73796e-05
0.000259613
-7.88509e-05
0.000311023
-0.000111328
0.000367632
-0.000144344
0.000429289
-0.000177375
0.000495677
-0.000209815
0.000566248
-0.000240946
0.000640124
-0.000269913
0.000715998
-0.000295723
0.000792062
-0.000317303
0.000866407
-0.000333923
-0.000348681
0.000941317
-2.52007e-07
2.71869e-05
7.01585e-08
6.53906e-05
1.84535e-06
9.02621e-05
5.80234e-06
0.00010392
1.25584e-05
0.000108155
2.26488e-05
0.000104468
3.65488e-05
9.40971e-05
5.469e-05
7.8058e-05
7.74697e-05
5.71865e-05
0.000105256
3.21786e-05
0.000138389
3.62714e-06
0.000177178
-2.79469e-05
0.000221901
-6.20674e-05
0.000272801
-9.82789e-05
0.000330076
-0.000136126
0.00039388
-0.000175132
0.000464316
-0.00021478
0.000541423
-0.000254482
0.000625156
-0.000293548
0.000715338
-0.000331128
0.000811551
-0.000366126
0.000912896
-0.000397068
0.0010173
-0.000421711
0.00111968
-0.000436297
-0.000436477
0.00120747
-9.36677e-08
2.72806e-05
8.11289e-07
6.44856e-05
3.67779e-06
8.73956e-05
9.30607e-06
9.8292e-05
1.83792e-05
9.9082e-05
3.14953e-05
9.13518e-05
4.91917e-05
7.64007e-05
7.19605e-05
5.52893e-05
0.000100257
2.88895e-05
0.000134506
-2.0702e-06
0.000175099
-3.69652e-05
0.000222393
-7.52415e-05
0.000276714
-0.000116388
0.000338349
-0.000159915
0.000407558
-0.000205334
0.000484576
-0.00025215
0.000569638
-0.000299842
0.000663016
-0.000347861
0.000765089
-0.000395621
0.000876461
-0.0004425
0.000998178
-0.000487842
0.00113208
-0.000530968
0.00128163
-0.000571264
0.00145441
-0.00060907
-0.00064956
0.00166749
8.58636e-08
2.71947e-05
1.64841e-06
6.29231e-05
5.74235e-06
8.33017e-05
1.32454e-05
9.07889e-05
2.49112e-05
8.74163e-05
4.14043e-05
7.48586e-05
6.3325e-05
5.448e-05
9.12233e-05
2.7391e-05
0.000125607
-5.49379e-06
0.000166941
-4.34047e-05
0.00021565
-8.5674e-05
0.00027211
-0.000131702
0.00033665
-0.000180928
0.000409551
-0.000232816
0.000491051
-0.000286834
0.000581358
-0.000342457
0.000680679
-0.000399162
0.000789257
-0.000456438
0.000907437
-0.000513802
0.00103577
-0.000570833
0.00117515
-0.000627219
0.00132699
-0.000682816
0.00149348
-0.000737754
0.00167713
-0.000792714
-0.000847461
0.00187503
2.91897e-07
2.69028e-05
2.60051e-06
6.06145e-05
8.07817e-06
7.7824e-05
1.76844e-05
8.11827e-05
3.22464e-05
7.28543e-05
5.24959e-05
5.46091e-05
7.90927e-05
2.78833e-05
0.000112637
-6.15318e-06
0.000153672
-4.65294e-05
0.000202685
-9.2417e-05
0.000260095
-0.000143084
0.000326253
-0.00019786
0.000401433
-0.000256108
0.00048583
-0.000317212
0.000579564
-0.000380569
0.000682692
-0.000445585
0.000795221
-0.000511692
0.000917141
-0.000578357
0.00104845
-0.000645115
0.00118922
-0.000711597
0.00133958
-0.000777579
0.00149978
-0.000843017
0.00167007
-0.000908048
0.00185015
-0.000972788
-0.00103418
0.00203687
5.31349e-07
2.63715e-05
3.69061e-06
5.74552e-05
1.07309e-05
7.07838e-05
2.26957e-05
6.92179e-05
4.0486e-05
5.50639e-05
6.48976e-05
3.01975e-05
9.66419e-05
-3.86098e-06
0.000136354
-4.58649e-05
0.000184589
-9.47652e-05
0.00024182
-0.000149647
0.000308418
-0.000209682
0.000384649
-0.000274091
0.00047066
-0.00034212
0.00056648
-0.000413032
0.000672015
-0.000486103
0.000787058
-0.000560628
0.000911304
-0.000635937
0.00104436
-0.000711416
0.00118578
-0.000786531
0.00133504
-0.000860858
0.00149157
-0.000934111
0.00165471
-0.00100615
0.0018236
-0.00107694
0.00199701
-0.0011462
-0.00120992
0.00217275
8.11763e-07
2.55597e-05
4.94324e-06
5.33237e-05
1.37481e-05
6.19789e-05
2.83531e-05
5.46129e-05
4.97297e-05
3.36873e-05
7.87295e-05
1.1976e-06
0.000116101
-4.12322e-05
0.000162489
-9.22532e-05
0.00021843
-0.000150706
0.000284332
-0.00021555
0.000360465
-0.000285815
0.000446941
-0.000360566
0.000543705
-0.000438884
0.000650534
-0.000519861
0.000767036
-0.000602606
0.000892664
-0.000686257
0.00102673
-0.000770004
0.00116842
-0.000853109
0.00131683
-0.000934935
0.00147093
-0.00101496
0.00162961
-0.0010928
0.00179166
-0.0011682
0.0019557
-0.00124098
0.00212021
-0.00131071
-0.00137343
0.00228372
1.14074e-06
2.4419e-05
6.3826e-06
4.80818e-05
1.71756e-05
5.11859e-05
3.47248e-05
3.70637e-05
6.00642e-05
8.34795e-06
9.40868e-05
-3.28251e-05
0.000137554
-8.46996e-05
0.00019109
-0.000145788
0.000255161
-0.000214777
0.000330059
-0.000290449
0.000415882
-0.000371638
0.000512513
-0.000457197
0.00061962
-0.000545991
0.000736652
-0.000636893
0.000862857
-0.00072881
0.000997298
-0.000820698
0.00113889
-0.000911591
0.0012864
-0.00100063
0.00143854
-0.00108707
0.00159392
-0.00117034
0.0017511
-0.00124998
0.00190859
-0.00132569
0.00206488
-0.00139727
0.00221851
-0.00146433
-0.00152347
0.00236855
1.52534e-06
2.28936e-05
8.03049e-06
4.15767e-05
2.10528e-05
3.81636e-05
4.18661e-05
1.62504e-05
7.15522e-05
-2.13381e-05
0.000111023
-7.22962e-05
0.000161021
-0.000134698
0.000222101
-0.000206868
0.000294606
-0.000287282
0.000378643
-0.000374486
0.000474062
-0.000467056
0.000580442
-0.000563578
0.0006971
-0.000662649
0.000823102
-0.000762896
0.000957296
-0.000863004
0.00109835
-0.000961749
0.00124479
-0.00105803
0.00139507
-0.00115091
0.0015476
-0.0012396
0.00170078
-0.00132352
0.00185307
-0.00140226
0.00200294
-0.00147557
0.00214901
-0.00154334
0.00229002
-0.00160534
-0.00165897
0.00242551
1.97159e-06
2.0922e-05
9.90454e-06
3.36437e-05
2.54092e-05
2.2659e-05
4.98124e-05
-8.15281e-06
8.42217e-05
-5.57475e-05
0.000129536
-0.000117611
0.000186435
-0.000191596
0.000255346
-0.00027578
0.000336422
-0.000368358
0.000429507
-0.000467571
0.000534127
-0.000571676
0.000649488
-0.000678939
0.000774499
-0.000787659
0.000907808
-0.000896205
0.00104786
-0.00100306
0.00119296
-0.00110685
0.00134133
-0.0012064
0.00149119
-0.00130077
0.00164082
-0.00138923
0.00178858
-0.00147128
0.00193298
-0.00154667
0.00207271
-0.0016153
0.00220663
-0.00167725
0.00233386
-0.00173257
-0.00177946
0.00245435
2.48412e-06
1.84379e-05
1.20169e-05
2.4111e-05
3.02612e-05
4.41469e-06
5.85742e-05
-3.64658e-05
9.80582e-05
-9.52315e-05
0.000149557
-0.00016911
0.000213629
-0.000255667
0.00029051
-0.000352661
0.000380083
-0.00045793
0.000481852
-0.00056934
0.000594945
-0.00068477
0.00071814
-0.000802133
0.000849904
-0.000919424
0.000988473
-0.00103477
0.00113192
-0.00114651
0.00127827
-0.00125319
0.00142555
-0.00135368
0.00157189
-0.00144711
0.00171558
-0.00153292
0.00185512
-0.00161083
0.00198927
-0.00168081
0.00211701
-0.00174304
0.00223759
-0.00179783
0.00235055
-0.00184554
-0.00188513
0.00245622
3.06589e-06
1.5372e-05
1.43731e-05
1.28038e-05
3.56102e-05
-1.68224e-05
6.81335e-05
-6.89891e-05
0.000112999
-0.000140097
0.000170942
-0.000227052
0.000242333
-0.000327058
0.000327137
-0.000437466
0.000424888
-0.000555681
0.000534675
-0.000679127
0.00065517
-0.000805265
0.000784688
-0.00093165
0.000921261
-0.001056
0.00106275
-0.00117626
0.00120695
-0.00129071
0.00135169
-0.00139794
0.00149496
-0.00149695
0.00163496
-0.00158711
0.00177016
-0.00166811
0.00189933
-0.00174
0.00202156
-0.00180304
0.00213625
-0.00185772
0.00224308
-0.00190466
0.002342
-0.00194446
-0.00197679
0.00243366
3.71813e-06
1.16539e-05
1.69719e-05
-4.49953e-07
4.14413e-05
-4.12918e-05
7.8442e-05
-0.00010599
0.000128933
-0.000190588
0.000193474
-0.000291593
0.000272172
-0.000405756
0.000364641
-0.000529935
0.000469985
-0.000661024
0.000586815
-0.000795957
0.000713314
-0.000931765
0.000847333
-0.00106567
0.000986513
-0.00119518
0.00112842
-0.00131817
0.00127069
-0.00143297
0.00141112
-0.00153837
0.0015478
-0.00163363
0.00167913
-0.00171844
0.0018039
-0.00179289
0.00192127
-0.00185736
0.00203072
-0.0019125
0.00213209
-0.00195909
0.00222545
-0.00199802
0.00231115
-0.00203016
-0.00205568
0.00239004
4.44033e-06
7.21357e-06
1.98047e-05
-1.58143e-05
4.77226e-05
-6.92098e-05
8.942e-05
-0.000147687
0.000145696
-0.000246865
0.000216861
-0.000362758
0.000302676
-0.000491571
0.00040232
-0.000629579
0.0005144
-0.000773104
0.000637009
-0.000918566
0.000767837
-0.00106259
0.000904311
-0.00120214
0.00104376
-0.00133463
0.0011836
-0.001458
0.00132141
-0.00157079
0.00145514
-0.0016721
0.00158311
-0.0017616
0.00170406
-0.0018394
0.00181719
-0.00190602
0.00192207
-0.00196224
0.00201862
-0.00200905
0.00210705
-0.00204752
0.0021878
-0.00207877
0.00226149
-0.00210385
-0.00212331
0.00232912
5.23023e-06
1.98334e-06
2.28557e-05
-3.34398e-05
5.44058e-05
-0.00010076
0.000100957
-0.000194239
0.000163078
-0.000308986
0.000240747
-0.000440427
0.000333293
-0.000584117
0.000439387
-0.000735673
0.00055709
-0.000890807
0.000683965
-0.00104544
0.000817243
-0.00119587
0.000954012
-0.00133891
0.00109142
-0.00147203
0.00122683
-0.00159341
0.00135799
-0.00170195
0.00148309
-0.0017972
0.00160082
-0.00187933
0.00171036
-0.00194893
0.00181131
-0.00200697
0.0019037
-0.00205462
0.00198781
-0.00209316
0.0020642
-0.00212391
0.00213354
-0.00214812
0.00219665
-0.00216696
-0.00218123
0.00225457
6.08384e-06
-4.1005e-06
2.61022e-05
-5.34582e-05
6.14258e-05
-0.000136083
0.000112914
-0.000245727
0.000180824
-0.000376896
0.000264716
-0.000524319
0.000363408
-0.000682809
0.000475002
-0.000847267
0.000596991
-0.0010128
0.000726435
-0.00117489
0.00086018
-0.00132961
0.000995092
-0.00147382
0.00112827
-0.00160521
0.00125722
-0.00172236
0.00137996
-0.00182468
0.00149506
-0.0019123
0.00160164
-0.00198591
0.00169934
-0.00204663
0.0017882
-0.00209584
0.00186862
-0.00213504
0.0019412
-0.00216575
0.00200673
-0.00218943
0.00206604
-0.00220744
0.00212004
-0.00222095
-0.00223094
0.00216974
6.99542e-06
-1.10959e-05
2.95143e-05
-7.5977e-05
6.87019e-05
-0.000175271
0.000125125
-0.00030215
0.000198642
-0.000450413
0.000288311
-0.000613987
0.000392368
-0.000786866
0.000508313
-0.000963212
0.000633082
-0.00113757
0.000763294
-0.0013051
0.000895523
-0.00146184
0.00102656
-0.00160486
0.0011536
-0.00173226
0.00127445
-0.00184321
0.00138749
-0.00193773
0.00149176
-0.00201657
0.00158686
-0.00208101
0.00167285
-0.00213262
0.00175018
-0.00217316
0.00181952
-0.00220438
0.00188172
-0.00222795
0.0019377
-0.00224541
0.00198837
-0.00225811
0.00203463
-0.00226721
-0.00227373
0.00207742
7.95746e-06
-1.90534e-05
3.3055e-05
-0.000101075
7.61387e-05
-0.000218355
0.000137398
-0.000363409
0.000216208
-0.000529224
0.000311044
-0.000708823
0.000419511
-0.000895333
0.000538499
-0.0010822
0.000664437
-0.0012635
0.000793603
-0.00143426
0.000922437
-0.00159068
0.0010478
-0.00173022
0.00116717
-0.00185163
0.00127871
-0.00195475
0.0013813
-0.00204031
0.00147444
-0.00210972
0.0015582
-0.00216477
0.00163303
-0.00220745
0.00169967
-0.00223981
0.00175904
-0.00226374
0.0018121
-0.00228101
0.00185982
-0.00229313
0.00190313
-0.00230142
0.00194287
-0.00230695
-0.00231072
0.00197986
8.9606e-06
-2.8014e-05
3.6681e-05
-0.000128795
8.36275e-05
-0.000265301
0.000149526
-0.000429308
0.000233182
-0.000612879
0.000332422
-0.000808064
0.000444196
-0.00100711
0.000564812
-0.00120282
0.000690276
-0.00138897
0.000816657
-0.00156064
0.000940411
-0.00171443
0.00105863
-0.00184844
0.00116917
-0.00196217
0.00127066
-0.00205624
0.00136249
-0.00213214
0.00144465
-0.00219187
0.00151758
-0.0022377
0.00158206
-0.00227194
0.00163906
-0.0022968
0.00168961
-0.00231429
0.00173474
-0.00232613
0.0017754
-0.0023338
0.00181246
-0.00233848
0.00184669
-0.00234118
-0.0023428
0.00187877
9.99366e-06
-3.80076e-05
4.03428e-05
-0.000159144
9.10484e-05
-0.000316007
0.000161285
-0.000499544
0.000249211
-0.000700805
0.000351962
-0.000910814
0.000465832
-0.00112098
0.000586614
-0.0013236
0.000710005
-0.00151236
0.000832012
-0.00168265
0.000949265
-0.00183168
0.00105921
-0.00195838
0.00116017
-0.00206313
0.0012513
-0.00214738
0.00133247
-0.00221332
0.0014041
-0.00226349
0.00146696
-0.00230056
0.00152206
-0.00232704
0.00157049
-0.00234524
0.00161335
-0.00235715
0.00165165
-0.00236443
0.00168628
-0.00236843
0.00171803
-0.00237023
0.00174756
-0.0023707
-0.00237067
0.00177542
1.10437e-05
-4.90514e-05
4.39854e-05
-0.000192086
9.82735e-05
-0.000370295
0.000172447
-0.000573718
0.000263953
-0.000792312
0.000369213
-0.00101607
0.000483906
-0.00123567
0.000603404
-0.0014431
0.000723234
-0.00163219
0.000839495
-0.00179891
0.000949124
-0.00194131
0.00105002
-0.00205929
0.00114104
-0.00215415
0.00122185
-0.00222818
0.00129275
-0.00228422
0.00135453
-0.00232527
0.0014082
-0.00235423
0.00145493
-0.00237376
0.00149585
-0.00238616
0.00153204
-0.00239334
0.00156446
-0.00239685
0.00159392
-0.00239789
0.0016211
-0.00239741
0.00164655
-0.00239615
-0.00239483
0.00167071
1.20963e-05
-6.11476e-05
4.755e-05
-0.00022754
0.00010517
-0.000427915
0.000182783
-0.00065133
0.000277081
-0.000886609
0.000383777
-0.00112277
0.000498007
-0.0013499
0.00061484
-0.00155993
0.000729786
-0.00174714
0.000839179
-0.0019083
0.000940377
-0.00204251
0.0010318
-0.00215071
0.00111284
-0.00223518
0.00118362
-0.00229897
0.00124487
-0.00234546
0.0012976
-0.002378
0.00134302
-0.00239965
0.00138233
-0.00241308
0.00141669
-0.00242052
0.0014471
-0.00242376
0.00147444
-0.00242419
0.00149941
-0.00242287
0.0015226
-0.00242059
0.00154444
-0.002418
-0.00241567
0.00156529
1.31355e-05
-7.42831e-05
5.09749e-05
-0.000265379
0.000111605
-0.000488545
0.000192076
-0.000731801
0.000288301
-0.000982834
0.000395326
-0.0012298
0.000507837
-0.00146241
0.000620744
-0.00167284
0.000729686
-0.00185608
0.000831357
-0.00200997
0.000923618
-0.00213477
0.00100544
-0.00223253
0.0010767
-0.00230644
0.00113798
-0.00236025
0.00119027
-0.00239776
0.00123481
-0.00242254
0.00127287
-0.00243771
0.00130567
-0.00244588
0.00133429
-0.00244914
0.00135967
-0.00244913
0.00138256
-0.00244708
0.00140358
-0.00244388
0.0014232
-0.00244021
0.00144178
-0.00243658
-0.00243346
0.00145957
1.41445e-05
-8.84276e-05
5.41977e-05
-0.000305432
0.000117449
-0.000551797
0.000200125
-0.000814476
0.000297363
-0.00108007
0.000403609
-0.00133604
0.000513221
-0.00157202
0.000621096
-0.00178071
0.000723137
-0.00195812
0.000816497
-0.00210333
0.000899584
-0.00221786
0.000971902
-0.00230485
0.0010338
-0.00236834
0.0010862
-0.00241265
0.00113032
-0.00244188
0.0011675
-0.00245972
0.00119903
-0.00246924
0.00122608
-0.00247293
0.00124966
-0.00247272
0.0012706
-0.00247007
0.00128954
-0.00246602
0.001307
-0.00246135
0.00132337
-0.00245659
0.00133893
-0.00245214
-0.0024484
0.00135387
1.51062e-05
-0.000103534
5.71567e-05
-0.000347483
0.000122581
-0.000617221
0.000206753
-0.000898649
0.00030407
-0.00117739
0.000408465
-0.00144044
0.000514106
-0.00167766
0.000616019
-0.00188262
0.00071049
-0.00205259
0.000795193
-0.00218804
0.000869097
-0.00229176
0.000932209
-0.00236796
0.000985274
-0.00242141
0.00102948
-0.00245685
0.00106618
-0.00247859
0.00109677
-0.0024903
0.00112251
-0.00249497
0.00114448
-0.0024949
0.00116358
-0.00249183
0.00118055
-0.00248703
0.00119592
-0.0024814
0.00121012
-0.00247555
0.00122347
-0.00246993
0.00123618