1.275 	2.15223e-18 	-2.76991e-20 	-0.135861 	0.0107342 	-2.52346e-22
1.825 	2.15223e-18 	-1.39322e-20 	-0.265006 	0.0263325 	3.42889e-21
2.375 	2.15223e-18 	-2.66896e-23 	-0.312877 	0.0272237 	-1.59739e-21
