/*--------------------------------*- C++ -*----------------------------------*\
  =========                 |
  \\      /  F ield         | OpenFOAM: The Open Source CFD Toolbox
   \\    /   O peration     | Website:  https://openfoam.org
    \\  /    A nd           | Version:  6.0
     \\/     M anipulation  |
\*---------------------------------------------------------------------------*/
FoamFile
{
    version     2.0;
    format      ascii;
    class       volVectorField;
    location    "1";
    object      U;
}
// * * * * * * * * * * * * * * * * * * * * * * * * * * * * * * * * * * * * * //

dimensions      [0 1 -1 0 0 0 0];

internalField   nonuniform List<vector> 
4000
(
(0.200037 0.00999992 1.13715e-19)
(0.575063 0.0460587 -6.26254e-20)
(0.900048 0.0964785 7.37482e-20)
(1.15374 0.142313 -5.45154e-20)
(1.33126 0.176067 -2.35746e-20)
(1.4414 0.196735 7.58853e-21)
(1.49964 0.206201 -2.22998e-20)
(1.52208 0.207439 7.86437e-20)
(1.52213 0.203362 -6.40899e-20)
(1.50952 0.196268 1.48863e-20)
(1.49058 0.187741 -1.10901e-20)
(1.46909 0.17876 -6.83119e-20)
(1.44716 0.169876 6.52877e-20)
(1.42588 0.161364 2.4023e-20)
(1.40577 0.153345 -2.35542e-20)
(1.38709 0.145851 5.42221e-20)
(1.36989 0.138862 -1.20565e-21)
(1.35416 0.132413 -5.03536e-20)
(1.3398 0.126695 3.64165e-20)
(1.32668 0.121186 1.12144e-20)
(0.215135 0.018601 -4.01047e-20)
(0.605804 0.0696327 1.1435e-19)
(0.933992 0.130573 1.32143e-19)
(1.18255 0.182234 -6.19817e-20)
(1.35093 0.218074 1.065e-19)
(1.45136 0.238377 1.64319e-19)
(1.50132 0.246178 -9.29167e-21)
(1.51766 0.245254 -2.65657e-20)
(1.51375 0.238981 1.31367e-19)
(1.49886 0.229867 6.28707e-20)
(1.47884 0.219556 -1.06025e-20)
(1.45702 0.209017 9.0547e-20)
(1.43519 0.198764 -9.34857e-20)
(1.41423 0.189038 1.45893e-19)
(1.39455 0.179929 -2.37407e-20)
(1.37632 0.171447 6.65599e-20)
(1.3596 0.163554 1.12798e-20)
(1.34434 0.156286 4.51569e-20)
(1.33041 0.149843 -4.2852e-20)
(1.31773 0.143579 1.08824e-20)
(0.229472 0.0283096 -6.19344e-20)
(0.633822 0.095258 1.4049e-19)
(0.963485 0.166612 1.0483e-19)
(1.20589 0.223488 -1.55674e-20)
(1.3649 0.260705 1.59503e-19)
(1.45599 0.28005 -1.20141e-19)
(1.49835 0.285769 -6.83521e-21)
(1.50936 0.282431 1.01475e-19)
(1.50218 0.273826 3.20132e-20)
(1.48559 0.262625 4.35522e-20)
(1.46491 0.2505 -6.31357e-20)
(1.44306 0.238387 1.62812e-19)
(1.42154 0.226754 2.8954e-20)
(1.40104 0.215801 -1.38997e-19)
(1.38189 0.20559 1.99988e-19)
(1.36421 0.196104 -2.31802e-19)
(1.34802 0.187293 -1.03283e-19)
(1.33326 0.179197 1.8769e-20)
(1.31981 0.172015 9.74882e-20)
(1.3076 0.164968 -1.85567e-19)
(0.242863 0.039047 -1.3302e-19)
(0.658792 0.12266 -3.16525e-19)
(0.98827 0.204182 -2.7656e-19)
(1.22366 0.265615 -3.66618e-19)
(1.37324 0.303527 -2.06225e-19)
(1.45547 0.321379 -4.20193e-19)
(1.49098 0.324669 5.35455e-20)
(1.49742 0.318724 -2.15457e-19)
(1.48762 0.307697 -2.32778e-20)
(1.46985 0.294378 3.48069e-20)
(1.44888 0.280431 -7.46936e-20)
(1.42727 0.266744 9.26753e-20)
(1.40624 0.25373 1.6127e-19)
(1.38635 0.241548 -2.26801e-19)
(1.36783 0.230228 3.60122e-20)
(1.35076 0.219731 1.00969e-19)
(1.33516 0.209994 1.6648e-19)
(1.32096 0.201065 -1.43661e-19)
(1.30801 0.193134 -6.37306e-21)
(1.29632 0.185288 1.64704e-19)
(0.255135 0.0507143 -2.46602e-19)
(0.680427 0.151535 6.83705e-19)
(1.00814 0.242855 -1.19395e-19)
(1.23581 0.308157 1.57394e-19)
(1.37603 0.346113 -1.50098e-19)
(1.44995 0.362002 4.62918e-19)
(1.47935 0.362585 -7.25585e-20)
(1.48196 0.3539 4.36084e-20)
(1.47018 0.340407 -2.02671e-20)
(1.45169 0.324968 6.89759e-20)
(1.43079 0.309214 4.40464e-20)
(1.40966 0.293968 5.52395e-20)
(1.38931 0.279586 -1.53822e-19)
(1.37015 0.266182 2.2324e-19)
(1.35235 0.253756 -1.68513e-19)
(1.33598 0.242249 3.16966e-20)
(1.32103 0.231587 -1.06083e-19)
(1.30744 0.221826 2.16083e-20)
(1.29503 0.213144 2.41552e-20)
(1.2839 0.204492 -2.29548e-19)
(0.266126 0.0631929 1.41241e-20)
(0.698487 0.18155 -3.38716e-19)
(1.02294 0.282183 1.89892e-19)
(1.24236 0.350648 -6.45471e-19)
(1.37343 0.388045 3.12392e-19)
(1.43967 0.401571 -5.25168e-19)
(1.46372 0.399235 -4.04781e-19)
(1.46321 0.387731 -1.54029e-20)
(1.45002 0.371767 -1.36159e-19)
(1.43126 0.354234 -4.18795e-19)
(1.41073 0.336705 -5.22834e-20)
(1.3903 0.319931 -3.95591e-19)
(1.37077 0.304204 7.16611e-20)
(1.35247 0.289596 -5.65994e-20)
(1.33549 0.276078 3.32517e-20)
(1.31989 0.263573 -2.56766e-19)
(1.30566 0.251997 1.41253e-20)
(1.29272 0.241416 5.13065e-20)
(1.28092 0.231987 -1.15906e-19)
(1.2704 0.222535 1.01563e-19)
(0.275688 0.0763463 -1.37862e-19)
(0.712778 0.212352 6.12122e-19)
(1.03261 0.321711 6.45744e-21)
(1.24337 0.392634 -5.21683e-19)
(1.36559 0.428923 3.93056e-19)
(1.42483 0.439756 1.62798e-19)
(1.44429 0.434356 3.37201e-20)
(1.44134 0.420005 -2.71704e-19)
(1.42728 0.401599 4.40407e-19)
(1.40862 0.382021 -2.58066e-19)
(1.38876 0.362768 9.16452e-20)
(1.36923 0.344509 4.31114e-19)
(1.35068 0.327474 -3.87825e-19)
(1.33334 0.311693 4.20209e-19)
(1.31728 0.297108 -2.74319e-19)
(1.30253 0.283625 -5.32564e-20)
(1.28908 0.271157 6.21286e-20)
(1.27686 0.259776 7.93294e-20)
(1.2657 0.249615 1.10278e-19)
(1.25586 0.239383 6.56525e-20)
(0.283696 0.0900219 5.13562e-20)
(0.723159 0.243568 -5.40014e-19)
(1.03713 0.360981 9.88501e-20)
(1.23898 0.433671 1.24926e-18)
(1.35275 0.468364 -1.15538e-19)
(1.40568 0.476246 3.40717e-19)
(1.42128 0.467698 2.12696e-19)
(1.41654 0.450516 3.46702e-20)
(1.40209 0.429729 -2.45764e-19)
(1.38391 0.408178 4.02726e-19)
(1.36495 0.387266 -4.6477e-20)
(1.34651 0.367579 6.12764e-19)
(1.32908 0.349284 2.34288e-19)
(1.31282 0.332371 1.45894e-19)
(1.29777 0.316756 -3.06571e-19)
(1.28394 0.302329 6.68576e-20)
(1.27134 0.288999 2.35028e-19)
(1.25989 0.276848 6.07043e-20)
(1.24945 0.265979 -2.82818e-19)
(1.24033 0.255 -7.07419e-20)
(0.290042 0.104053 -2.99069e-19)
(0.729539 0.274817 9.59828e-19)
(1.03652 0.399541 -5.2263e-19)
(1.22934 0.473332 -4.78013e-19)
(1.33514 0.506006 -4.15789e-19)
(1.38247 0.510749 -3.49088e-19)
(1.39494 0.499026 -4.29911e-19)
(1.38899 0.479072 5.38887e-19)
(1.37461 0.455991 -3.86585e-19)
(1.35722 0.432555 -3.08152e-20)
(1.3394 0.410064 -1.15583e-21)
(1.32221 0.389017 -7.44857e-20)
(1.30604 0.369523 -1.92999e-19)
(1.29096 0.35153 -2.15868e-19)
(1.277 0.334932 -1.13682e-20)
(1.26418 0.319604 -4.73295e-20)
(1.2525 0.305455 -1.1889e-19)
(1.24189 0.292571 -3.77747e-20)
(1.23221 0.281027 3.67214e-20)
(1.22389 0.269352 -2.52599e-19)
(0.294642 0.118263 5.07828e-19)
(0.731879 0.30571 5.34367e-19)
(1.03089 0.43695 -3.30561e-19)
(1.21466 0.51121 2.05192e-19)
(1.31301 0.54151 3.50975e-19)
(1.35547 0.542992 -7.34071e-20)
(1.36549 0.528119 8.59142e-20)
(1.35888 0.505486 9.91416e-20)
(1.34499 0.480224 1.65627e-19)
(1.32867 0.455008 -1.9488e-19)
(1.31219 0.43103 9.49698e-20)
(1.29642 0.408703 -6.9674e-20)
(1.28162 0.388079 2.97071e-19)
(1.26784 0.36907 1.33013e-19)
(1.25506 0.351547 -3.00168e-19)
(1.24332 0.335372 1.67215e-19)
(1.23263 0.320453 8.00851e-20)
(1.22292 0.306884 -1.55319e-19)
(1.21407 0.294708 4.09048e-19)
(1.20661 0.282398 -3.08543e-19)
(0.297436 0.132466 -3.71898e-19)
(0.730188 0.335863 -4.85859e-19)
(1.02038 0.472779 3.43344e-19)
(1.19519 0.546921 -3.15991e-19)
(1.28667 0.574559 -2.8166e-20)
(1.32496 0.572724 -3.51525e-19)
(1.33317 0.554773 2.88847e-19)
(1.32642 0.529586 5.48723e-19)
(1.31336 0.502274 -7.63298e-19)
(1.29839 0.475397 3.81668e-20)
(1.28343 0.450035 2.94727e-20)
(1.26922 0.426517 -1.57854e-19)
(1.25592 0.404843 1.05361e-19)
(1.24353 0.384891 -4.64984e-20)
(1.23203 0.36651 3.22759e-19)
(1.22145 0.34955 -3.46244e-19)
(1.21181 0.33392 -1.24781e-19)
(1.20306 0.319717 3.12222e-19)
(1.19511 0.306961 -4.80751e-19)
(1.18856 0.294094 3.03005e-19)
(0.298389 0.146472 7.7339e-19)
(0.724527 0.364897 6.91244e-19)
(1.00518 0.506623 -1.15848e-19)
(1.17121 0.580107 -1.48971e-20)
(1.25641 0.604865 -3.53409e-19)
(1.29122 0.599712 1.49326e-19)
(1.29823 0.578799 7.60394e-19)
(1.29179 0.55121 -6.71127e-19)
(1.27991 0.521997 4.37646e-19)
(1.26649 0.49359 -4.24424e-20)
(1.25324 0.466954 2.76681e-19)
(1.24071 0.442343 -5.97234e-20)
(1.22901 0.419706 1.69245e-19)
(1.21812 0.39889 2.28538e-19)
(1.20799 0.379726 -1.16858e-19)
(1.19865 0.362051 1.58277e-19)
(1.19014 0.345775 -2.35446e-19)
(1.18241 0.330998 5.88978e-19)
(1.17542 0.317717 -3.77846e-19)
(1.16986 0.304382 2.713e-19)
(0.297491 0.160088 -3.78703e-19)
(0.715003 0.392445 -7.11699e-19)
(0.985525 0.538099 -4.91162e-19)
(1.14302 0.610438 -3.75195e-20)
(1.22255 0.632163 1.19192e-19)
(1.25455 0.623748 -6.66862e-20)
(1.26092 0.600025 -4.33093e-19)
(1.25521 0.57021 -1.96459e-19)
(1.24478 0.539259 -3.68459e-19)
(1.23313 0.509461 -2.00147e-19)
(1.22171 0.481671 9.80255e-20)
(1.21099 0.456068 -4.62612e-19)
(1.20101 0.432561 -1.18235e-19)
(1.19171 0.410968 -1.21033e-19)
(1.18304 0.391101 -3.71991e-19)
(1.17502 0.372787 1.6849e-19)
(1.16771 0.355933 -5.99835e-21)
(1.16107 0.34064 1.59485e-19)
(1.15512 0.326892 -6.97184e-20)
(1.1506 0.313187 -2.61442e-19)
(0.294758 0.173124 8.74151e-19)
(0.701768 0.418158 7.64826e-19)
(0.961686 0.566854 9.62317e-19)
(1.11095 0.637616 -9.92665e-20)
(1.18544 0.656217 -3.6441e-19)
(1.21525 0.644645 1.06226e-18)
(1.22148 0.618297 -5.49819e-19)
(1.21688 0.586451 6.24133e-19)
(1.20815 0.553936 -1.20926e-19)
(1.19844 0.522895 3.99742e-19)
(1.18899 0.494074 4.28646e-20)
(1.18017 0.467587 2.16552e-19)
(1.172 0.443304 -5.08161e-20)
(1.1644 0.421023 2.30216e-19)
(1.15729 0.400536 -2.10681e-19)
(1.15068 0.38166 2.31144e-21)
(1.14463 0.364298 1.03357e-19)
(1.13915 0.348545 1.72999e-19)
(1.13431 0.334386 -3.44786e-20)
(1.13089 0.320413 1.09618e-19)
(0.29023 0.185393 -2.69743e-19)
(0.685013 0.441709 -7.69997e-19)
(0.933971 0.592566 -4.71097e-19)
(1.07537 0.661376 -8.31635e-19)
(1.14541 0.676821 9.12333e-19)
(1.17362 0.662241 -6.73623e-19)
(1.18019 0.633481 4.37681e-19)
(1.177 0.599815 -1.44837e-19)
(1.1702 0.565921 -2.03703e-19)
(1.16257 0.53379 -1.45305e-19)
(1.15519 0.504065 7.49312e-20)
(1.14837 0.476802 1.24074e-19)
(1.14209 0.451838 1.21247e-19)
(1.13627 0.428953 -1.37936e-19)
(1.13082 0.407927 -1.24826e-19)
(1.12571 0.388565 3.98237e-19)
(1.12101 0.370761 -2.00733e-20)
(1.11676 0.354596 -1.88999e-19)
(1.11309 0.340073 -1.34174e-21)
(1.11082 0.325942 -5.9149e-20)
(0.283975 0.196718 1.22137e-18)
(0.664969 0.462797 5.82411e-19)
(0.90272 0.614946 5.42202e-19)
(1.03664 0.681485 -3.30512e-19)
(1.10282 0.693797 4.73036e-20)
(1.12998 0.676397 4.83275e-19)
(1.1373 0.645462 7.48659e-20)
(1.13582 0.610203 1.77334e-19)
(1.13112 0.575123 2.04864e-19)
(1.12569 0.542062 4.16903e-20)
(1.12045 0.511564 1.41572e-19)
(1.11569 0.483631 -5.59699e-21)
(1.11137 0.458077 -4.87518e-20)
(1.10741 0.434668 -2.40573e-19)
(1.10371 0.413174 4.97431e-20)
(1.1002 0.393392 4.93027e-21)
(1.09693 0.375201 -8.79629e-22)
(1.09398 0.358658 1.2878e-20)
(1.09156 0.3438 -5.89684e-20)
(1.09048 0.329619 7.72199e-20)
(0.27608 0.206931 -8.93364e-19)
(0.641899 0.481149 -7.79233e-19)
(0.868295 0.633742 3.88562e-19)
(0.995165 0.697746 -4.93513e-19)
(1.05805 0.706997 -3.21254e-20)
(1.08465 0.687 9.82386e-20)
(1.09308 0.654148 -8.78146e-20)
(1.09354 0.617534 -5.73087e-20)
(1.09109 0.581471 -1.9592e-19)
(1.08794 0.547645 -1.161e-19)
(1.08491 0.516507 2.15658e-20)
(1.08224 0.488015 -1.80086e-19)
(1.07993 0.461959 4.68876e-20)
(1.0779 0.438099 -5.70532e-20)
(1.07602 0.416201 2.18905e-20)
(1.07423 0.396057 7.95499e-20)
(1.07251 0.377526 3.95721e-20)
(1.07095 0.360614 3.01775e-20)
(1.06988 0.345404 2.70728e-21)
(1.07011 0.331243 -3.09947e-20)
(0.266657 0.215878 8.66982e-19)
(0.616099 0.496525 1.36589e-20)
(0.831085 0.64874 -7.05988e-20)
(0.951333 0.709996 8.8119e-20)
(1.01146 0.716304 3.97878e-19)
(1.03795 0.693963 -2.67744e-19)
(1.0478 0.65947 1.84325e-19)
(1.05039 0.62175 -2.15696e-19)
(1.05031 0.584912 1.17216e-19)
(1.0495 0.550491 -7.15949e-20)
(1.0487 0.518852 5.23265e-20)
(1.04814 0.489906 2.70979e-20)
(1.04785 0.463431 -3.95917e-20)
(1.04777 0.43918 2.03408e-21)
(1.04781 0.416927 4.00549e-20)
(1.04786 0.396475 -4.89274e-20)
(1.04785 0.377656 6.18116e-21)
(1.04788 0.360376 -6.27151e-21)
(1.04845 0.344728 -5.57202e-21)
(1.05032 0.3306 4.79444e-21)
(0.255836 0.223419 -1.78185e-19)
(0.587887 0.508721 1.84985e-19)
(0.791493 0.659765 1.79462e-19)
(0.90556 0.718109 -2.76291e-19)
(0.963423 0.721631 1.58059e-19)
(0.990212 0.697224 -2.68929e-19)
(1.00175 0.661383 -9.03648e-21)
(1.00663 0.622817 -3.63675e-20)
(1.00898 0.585422 -3.09805e-20)
(1.01054 0.550586 2.64603e-20)
(1.01197 0.518585 -4.20985e-20)
(1.01349 0.48929 -4.19962e-20)
(1.01516 0.462453 -1.33559e-20)
(1.017 0.437824 -2.886e-20)
(1.01896 0.415188 2.95295e-20)
(1.02094 0.394379 2.99988e-20)
(1.02281 0.375217 -2.1716e-20)
(1.02479 0.357445 1.53697e-21)
(1.02753 0.341149 7.38632e-20)
(1.03142 0.327113 -2.87852e-20)
(0.243764 0.229434 -6.27246e-20)
(0.557604 0.517566 1.67099e-19)
(0.749936 0.666679 -2.23251e-19)
(0.858265 0.721993 3.05446e-19)
(0.914327 0.722921 4.76078e-20)
(0.94176 0.696749 -1.39349e-19)
(0.955204 0.659864 -3.14375e-20)
(0.962495 0.620727 4.02454e-20)
(0.967332 0.583009 -3.48206e-20)
(0.971266 0.547954 -7.92515e-21)
(0.974884 0.515759 1.22457e-20)
(0.978401 0.486241 -7.61334e-21)
(0.981914 0.459119 3.09815e-20)
(0.98549 0.434104 -4.07736e-20)
(0.989157 0.410955 4.41435e-20)
(0.992845 0.389505 -8.62408e-20)
(0.996484 0.36952 1.13127e-19)
(1.00046 0.350453 -1.01319e-19)
(1.00557 0.33231 -6.24663e-20)
(1.01111 0.317906 1.22035e-19)
(0.230606 0.233822 1.38692e-19)
(0.525606 0.522927 5.79229e-20)
(0.706841 0.669383 8.2094e-20)
(0.809868 0.721587 7.24109e-20)
(0.864553 0.720141 -7.28239e-20)
(0.892935 0.692522 1.86325e-20)
(0.908469 0.654912 1.93331e-20)
(0.918256 0.615486 -1.34561e-20)
(0.925607 0.577696 9.61548e-21)
(0.9319 0.542651 -3.44456e-20)
(0.937661 0.510476 6.4876e-20)
(0.943091 0.480949 -2.05623e-20)
(0.948286 0.453751 6.30482e-20)
(0.953327 0.42855 -9.78865e-20)
(0.958258 0.40504 2.1354e-19)
(0.963039 0.382965 -4.2056e-20)
(0.967695 0.361915 -1.21315e-20)
(0.972883 0.340719 1.61488e-19)
(0.979348 0.317776 -7.65866e-20)
(0.982531 0.295834 4.47586e-20)
(0.216537 0.236502 8.27991e-20)
(0.492262 0.524708 -2.56699e-19)
(0.66264 0.667814 -1.61735e-20)
(0.760795 0.716865 -6.92745e-20)
(0.814484 0.713289 1.87201e-20)
(0.844076 0.684551 -4.52179e-20)
(0.861844 0.646538 5.84806e-20)
(0.874189 0.607112 8.8411e-21)
(0.884068 0.569506 -1.00619e-20)
(0.892712 0.534708 5.71053e-21)
(0.900594 0.502788 4.40125e-20)
(0.907903 0.473507 8.14483e-20)
(0.914724 0.44655 4.5783e-20)
(0.92111 0.421605 -1.14528e-19)
(0.927061 0.398405 -3.98406e-20)
(0.932535 0.376749 2.76049e-21)
(0.93766 0.356364 2.81709e-20)
(0.943063 0.336558 6.36007e-21)
(0.948726 0.31669 2.76298e-19)
(0.950176 0.298985 -1.91692e-19)
(0.201738 0.237408 -8.31666e-20)
(0.457944 0.522845 8.50551e-20)
(0.617764 0.661944 -4.71664e-20)
(0.711462 0.707829 2.93704e-20)
(0.7645 0.702383 6.78821e-20)
(0.795519 0.672863 -1.01234e-19)
(0.815632 0.63477 1.13173e-19)
(0.830573 0.595632 -3.96778e-20)
(0.842982 0.558462 1.1806e-19)
(0.853961 0.524138 6.71062e-20)
(0.863954 0.492682 -2.49354e-19)
(0.873147 0.46384 -2.5301e-20)
(0.881642 0.437297 3.72476e-19)
(0.889492 0.41275 -4.61531e-19)
(0.896696 0.389938 4.28033e-19)
(0.90321 0.368651 1.54028e-19)
(0.909141 0.348593 -5.355e-19)
(0.914955 0.329171 2.65853e-19)
(0.920506 0.310104 -5.10789e-20)
(0.922284 0.293821 6.2876e-20)
(0.186399 0.2365 -5.85502e-20)
(0.423029 0.517308 -7.36011e-20)
(0.572642 0.651781 4.94094e-20)
(0.662285 0.694513 -1.02606e-19)
(0.714975 0.687468 -3.6471e-19)
(0.747598 0.657502 -3.21744e-20)
(0.77013 0.619651 -1.17354e-19)
(0.787684 0.581085 -8.24732e-21)
(0.802608 0.544604 -2.80278e-19)
(0.815897 0.510986 -2.87492e-19)
(0.827967 0.480213 -2.09123e-19)
(0.839014 0.452028 -1.04674e-20)
(0.849151 0.426125 -5.02943e-19)
(0.858452 0.402222 -1.40219e-20)
(0.86694 0.380083 2.50107e-19)
(0.87461 0.35953 -2.46607e-19)
(0.881579 0.340313 -1.96972e-19)
(0.888233 0.321959 1.90063e-19)
(0.89439 0.304287 -1.347e-19)
(0.897095 0.289247 2.56606e-20)
(0.170712 0.233754 9.9789e-20)
(0.387891 0.508106 7.58068e-20)
(0.527697 0.637366 -1.48595e-20)
(0.613669 0.676977 -1.14587e-19)
(0.666274 0.668612 2.09284e-19)
(0.700638 0.638535 3.93477e-19)
(0.725635 0.60124 -4.58005e-20)
(0.745794 0.56352 -2.44663e-21)
(0.763207 0.527969 6.79702e-20)
(0.778777 0.495271 1.83399e-19)
(0.792907 0.465379 2.7554e-19)
(0.805801 0.438031 -2.31667e-19)
(0.817593 0.412933 2.18476e-19)
(0.828373 0.389815 -8.30992e-20)
(0.838189 0.368455 2.62472e-19)
(0.847064 0.348679 -1.03357e-19)
(0.855142 0.330264 -2.63663e-19)
(0.862801 0.312827 1.53675e-19)
(0.869867 0.296297 -2.26629e-19)
(0.873717 0.28233 -2.54511e-19)
(0.154871 0.229167 8.35855e-20)
(0.3529 0.495276 1.31915e-19)
(0.48334 0.618773 -1.35394e-19)
(0.566006 0.655314 -5.99976e-21)
(0.618751 0.645908 2.35586e-20)
(0.654953 0.616047 2.18807e-19)
(0.682428 0.579611 -3.14174e-19)
(0.705164 0.543003 2.96077e-19)
(0.725019 0.508613 -3.42007e-20)
(0.742826 0.477039 7.99986e-20)
(0.758977 0.448211 1.36481e-19)
(0.773695 0.42187 -2.61213e-19)
(0.787134 0.397732 1.19551e-19)
(0.79941 0.375542 1.15751e-19)
(0.810596 0.355092 4.36218e-20)
(0.820742 0.336216 -2.21605e-19)
(0.830015 0.318703 7.4562e-19)
(0.838778 0.302224 -4.21592e-19)
(0.846846 0.286742 7.56956e-19)
(0.85187 0.273639 -4.99498e-20)
(0.139069 0.222757 7.26542e-20)
(0.318417 0.478889 3.45749e-19)
(0.439971 0.596108 1.32708e-19)
(0.519675 0.629642 2.52028e-19)
(0.572746 0.619472 7.29001e-20)
(0.610847 0.590145 -4.24285e-19)
(0.640784 0.55486 6.64092e-19)
(0.666043 0.519615 3.51206e-19)
(0.688279 0.486604 1.62221e-20)
(0.708262 0.456346 4.54046e-19)
(0.726384 0.428753 7.90169e-20)
(0.742886 0.403568 4.68431e-20)
(0.757945 0.380521 2.70004e-19)
(0.771701 0.359368 -1.03106e-19)
(0.784249 0.339912 -1.03491e-19)
(0.795671 0.321991 6.27817e-19)
(0.806154 0.305409 -5.19354e-19)
(0.816044 0.289879 2.02112e-20)
(0.825144 0.275383 6.57931e-19)
(0.831351 0.263063 -8.85126e-22)
(0.123493 0.214558 -7.74247e-19)
(0.284789 0.459046 -1.09366e-19)
(0.397971 0.569507 -1.67041e-19)
(0.475037 0.600105 -1.33462e-19)
(0.528583 0.589443 -3.51642e-19)
(0.568607 0.560955 1.19945e-19)
(0.600961 0.527099 -1.72513e-19)
(0.628668 0.493457 5.70315e-20)
(0.653205 0.46203 -2.50036e-19)
(0.675289 0.433267 -2.28897e-19)
(0.695317 0.407065 5.55702e-20)
(0.713548 0.383176 -3.7727e-19)
(0.730184 0.361341 3.06723e-19)
(0.745387 0.341328 -1.10979e-19)
(0.759275 0.32295 3.38582e-19)
(0.771955 0.30605 -7.31477e-19)
(0.783627 0.290443 -1.39937e-19)
(0.794618 0.275876 -2.62276e-19)
(0.804727 0.262337 -6.9788e-19)
(0.812095 0.250756 -1.12655e-19)
(0.108326 0.204623 1.22793e-19)
(0.252352 0.435876 -8.77161e-21)
(0.357705 0.539134 -2.06802e-19)
(0.432436 0.566875 7.39789e-20)
(0.486571 0.555984 -1.49624e-19)
(0.528508 0.528627 -1.17609e-21)
(0.563204 0.496461 2.00589e-19)
(0.593263 0.464646 -3.02204e-19)
(0.62 0.434995 1.15296e-19)
(0.644093 0.407894 -6.74804e-20)
(0.665945 0.38323 2.00893e-20)
(0.685834 0.360763 -3.36469e-19)
(0.703986 0.340248 -4.06099e-19)
(0.720582 0.321467 -1.57165e-20)
(0.735763 0.304242 4.50385e-19)
(0.749655 0.288421 1.97689e-20)
(0.762471 0.273832 5.6539e-19)
(0.774515 0.260253 -8.25186e-19)
(0.785595 0.247667 4.36248e-19)
(0.794087 0.236822 7.54575e-19)
(0.093744 0.193021 -1.1972e-19)
(0.221421 0.409537 6.40831e-20)
(0.319518 0.505183 4.20145e-19)
(0.392194 0.530148 1.05437e-19)
(0.446997 0.51928 -1.39882e-19)
(0.490806 0.493327 1.11675e-19)
(0.527745 0.463098 4.35728e-19)
(0.560037 0.433319 -3.55542e-19)
(0.588857 0.405623 3.26042e-20)
(0.614851 0.380339 -1.29013e-19)
(0.638429 0.357348 4.64492e-19)
(0.659891 0.336421 3.30947e-19)
(0.67948 0.317328 -4.84628e-20)
(0.697399 0.299865 -4.96907e-19)
(0.713808 0.283864 2.77788e-20)
(0.728853 0.269181 -6.05397e-20)
(0.742749 0.255657 2.90381e-19)
(0.755782 0.243095 4.69173e-19)
(0.767778 0.231475 4.06717e-19)
(0.777346 0.221382 -6.83144e-19)
(0.0799123 0.179838 -7.7908e-20)
(0.192296 0.380211 3.30587e-19)
(0.283729 0.46787 -3.19221e-19)
(0.354614 0.490144 4.50041e-19)
(0.410131 0.479537 -2.41005e-19)
(0.45574 0.455244 1.7694e-19)
(0.494798 0.427179 4.41326e-19)
(0.529185 0.399631 -5.32923e-19)
(0.559953 0.374055 2.42444e-19)
(0.587725 0.35073 3.04854e-19)
(0.612917 0.329537 -4.11898e-19)
(0.63585 0.310259 -2.70453e-20)
(0.656786 0.292682 -3.25726e-19)
(0.675945 0.276618 5.25274e-19)
(0.693504 0.261909 -2.82219e-19)
(0.709626 0.248421 3.02393e-19)
(0.724527 0.236009 -5.31774e-20)
(0.738476 0.224502 1.86564e-19)
(0.751326 0.213869 4.28722e-20)
(0.761911 0.204558 -1.07829e-19)
(0.0669874 0.165174 -2.44131e-19)
(0.165252 0.348104 -5.53573e-19)
(0.250637 0.42744 1.45451e-19)
(0.319972 0.447106 -4.66189e-19)
(0.376221 0.436981 -4.42382e-19)
(0.42353 0.414584 -3.1819e-19)
(0.464561 0.388892 2.46984e-19)
(0.500886 0.363752 1.89057e-19)
(0.533454 0.340449 -6.5544e-22)
(0.562865 0.319215 -1.63785e-19)
(0.589547 0.299933 -2.96573e-19)
(0.613838 0.282403 2.65451e-19)
(0.636016 0.26643 -9.17097e-20)
(0.656319 0.25184 -4.47595e-19)
(0.674939 0.238488 2.88978e-19)
(0.692052 0.22625 -2.17041e-19)
(0.707876 0.214998 -8.76854e-20)
(0.722659 0.204582 -2.45448e-19)
(0.736296 0.194963 -2.19849e-19)
(0.747829 0.186475 5.72779e-20)
(0.0551138 0.149145 2.12742e-19)
(0.140546 0.313447 1.08993e-19)
(0.220514 0.384157 1.67996e-19)
(0.288522 0.401294 -5.78325e-19)
(0.345493 0.391856 6.17286e-19)
(0.394378 0.37157 6.72717e-22)
(0.437214 0.348442 4.32941e-21)
(0.475305 0.325871 -3.72354e-19)
(0.509507 0.304977 3.46365e-19)
(0.540408 0.285953 -2.41594e-19)
(0.568443 0.268686 7.07914e-20)
(0.593967 0.252996 -3.18893e-19)
(0.617275 0.238705 -1.50839e-19)
(0.638616 0.225658 -7.10937e-20)
(0.658199 0.213723 5.39466e-19)
(0.67621 0.202789 -2.64028e-19)
(0.692865 0.192742 -2.37431e-19)
(0.7084 0.183454 2.41908e-19)
(0.722748 0.174878 -1.98133e-19)
(0.735152 0.167256 1.54425e-19)
(0.0444231 0.131879 4.61007e-19)
(0.118407 0.276488 -2.78687e-19)
(0.193606 0.338308 4.12711e-20)
(0.260492 0.352991 4.84749e-19)
(0.318151 0.344423 1.93108e-19)
(0.368465 0.326441 2.37496e-19)
(0.41292 0.306047 2.35878e-19)
(0.452589 0.286188 4.97886e-19)
(0.48825 0.267826 -1.13437e-19)
(0.520478 0.251118 2.70832e-19)
(0.54972 0.235959 3.91158e-19)
(0.576343 0.22219 1.43333e-19)
(0.600656 0.209654 2.57942e-19)
(0.622922 0.198213 9.29675e-20)
(0.643363 0.187751 5.36786e-20)
(0.662172 0.178169 -3.93656e-20)
(0.679564 0.16937 3.14111e-19)
(0.695762 0.161244 1.92096e-19)
(0.710745 0.153741 -1.75213e-19)
(0.723932 0.147028 1.65087e-19)
(0.0350331 0.113515 -3.07519e-19)
(0.0990401 0.237497 3.37106e-20)
(0.170129 0.290195 -8.84083e-20)
(0.236085 0.302493 -2.69069e-19)
(0.294375 0.294959 -1.40959e-19)
(0.345951 0.279451 -2.57086e-19)
(0.391824 0.261938 1.20236e-19)
(0.432869 0.244918 -4.59595e-19)
(0.469801 0.229195 2.70995e-19)
(0.503185 0.214896 -3.72875e-19)
(0.533477 0.201928 -2.30075e-19)
(0.561057 0.190152 -3.03121e-19)
(0.586246 0.179434 6.92778e-20)
(0.609317 0.169654 -6.8343e-20)
(0.630502 0.160715 8.00599e-20)
(0.650005 0.152529 4.26404e-20)
(0.668035 0.145015 8.45196e-20)
(0.684807 0.138083 -7.13447e-19)
(0.700341 0.131682 3.53935e-19)
(0.714218 0.125921 -2.1252e-19)
(0.0270466 0.0942037 1.02587e-19)
(0.0826234 0.196757 2.06602e-19)
(0.150273 0.240139 -1.34413e-19)
(0.215475 0.250114 3.32213e-19)
(0.27432 0.243754 -5.21569e-20)
(0.326974 0.230864 3.82253e-19)
(0.37405 0.21636 7.42271e-20)
(0.416259 0.202286 -7.66579e-20)
(0.454264 0.189294 2.79515e-19)
(0.488625 0.177484 2.12028e-19)
(0.519804 0.166777 7.84741e-20)
(0.548191 0.157055 1.02506e-19)
(0.574119 0.148209 5.10464e-20)
(0.59787 0.14014 -2.16494e-19)
(0.619683 0.132765 -2.959e-20)
(0.639769 0.126014 2.23541e-19)
(0.658335 0.119819 -1.5265e-19)
(0.675588 0.114109 -7.78438e-21)
(0.691588 0.108834 -3.15901e-19)
(0.706052 0.104064 6.35248e-19)
(0.0205507 0.0741049 2.76743e-19)
(0.0693071 0.154567 -3.30517e-19)
(0.134195 0.188474 1.55364e-19)
(0.198809 0.196177 -2.18159e-19)
(0.258117 0.191107 1.92972e-19)
(0.311651 0.180956 -3.33252e-19)
(0.359704 0.169565 -2.43182e-19)
(0.402855 0.158526 1.80594e-20)
(0.441728 0.148342 -3.28742e-19)
(0.476878 0.139086 -2.04162e-19)
(0.508774 0.130697 -3.51168e-19)
(0.537815 0.123082 -1.09954e-20)
(0.56434 0.116153 -1.34962e-19)
(0.588639 0.109835 3.41573e-19)
(0.610959 0.104061 2.33679e-19)
(0.631516 0.0987754 -7.88707e-20)
(0.650514 0.0939277 -7.09108e-20)
(0.668154 0.0894617 -3.31695e-21)
(0.684532 0.0853357 8.84813e-21)
(0.699474 0.0815892 1.26074e-19)
(0.015616 0.0533854 -6.92734e-20)
(0.0592125 0.111237 -2.37034e-19)
(0.122023 0.135546 -1.47483e-19)
(0.186205 0.141018 -9.20804e-20)
(0.245872 0.137331 -1.90132e-19)
(0.300075 0.130012 3.24579e-19)
(0.348869 0.121816 -3.52709e-20)
(0.392733 0.113881 -7.7755e-20)
(0.432264 0.106563 3.09675e-21)
(0.46801 0.0999147 2.25973e-19)
(0.500448 0.0938889 -2.13831e-19)
(0.529983 0.0884201 2.08298e-19)
(0.556959 0.083445 9.71322e-20)
(0.581672 0.0789085 -1.76429e-19)
(0.604376 0.0747633 3.8519e-20)
(0.625289 0.0709696 1.1221e-19)
(0.644613 0.0674909 3.84624e-20)
(0.662544 0.0642877 -2.74766e-20)
(0.679207 0.0613277 -2.33381e-19)
(0.694514 0.058632 1.8569e-19)
(0.012296 0.0322183 6.26514e-20)
(0.0524311 0.0670858 7.57765e-20)
(0.113855 0.0817092 2.12678e-20)
(0.177752 0.0849809 -1.59032e-20)
(0.237664 0.0827416 4.56984e-20)
(0.292318 0.0783228 6.95198e-20)
(0.341609 0.0733811 2.63467e-20)
(0.385952 0.0685991 3.20662e-20)
(0.425923 0.0641908 -6.71885e-20)
(0.46207 0.0601861 1.25942e-19)
(0.494872 0.0565569 -2.95787e-20)
(0.524737 0.0532632 -2.32766e-21)
(0.552016 0.0502673 2.97316e-20)
(0.577007 0.0475356 3.34486e-20)
(0.599968 0.0450398 -8.91403e-20)
(0.621119 0.0427559 5.89208e-20)
(0.640661 0.0406619 3.83988e-20)
(0.658788 0.0387345 3.26754e-20)
(0.675643 0.0369532 6.94518e-20)
(0.691194 0.0353278 2.86029e-20)
(0.0106267 0.0107808 -1.28363e-20)
(0.0490243 0.0224395 2.66555e-20)
(0.109753 0.0273243 -3.72154e-20)
(0.173509 0.0284138 2.33629e-20)
(0.233546 0.0276627 1.36155e-20)
(0.288427 0.0261844 6.0559e-21)
(0.337968 0.0245323 1.43249e-20)
(0.382551 0.0229339 -4.09524e-20)
(0.422744 0.0214605 2.60886e-20)
(0.459092 0.0201219 9.13004e-21)
(0.492075 0.0189088 -4.56375e-22)
(0.522107 0.0178079 5.51017e-20)
(0.549537 0.0168066 -1.67764e-20)
(0.574668 0.0158936 -1.59615e-20)
(0.597758 0.0150595 -1.52128e-20)
(0.619028 0.0142962 2.36944e-21)
(0.638679 0.0135965 -2.00878e-20)
(0.656904 0.0129526 3.88405e-21)
(0.673855 0.0123575 7.49367e-22)
(0.689531 0.0118139 -2.53461e-21)
(0.010626 -0.010747 8.14808e-21)
(0.049023 -0.0223721 -4.33444e-20)
(0.109752 -0.0272437 5.15654e-20)
(0.173508 -0.0283301 -3.86926e-20)
(0.233544 -0.0275799 -1.79512e-20)
(0.288426 -0.026104 5.37266e-20)
(0.337967 -0.0244548 4.43682e-21)
(0.38255 -0.0228596 1.1833e-21)
(0.422742 -0.0213895 2.47037e-20)
(0.45909 -0.0200544 1.26754e-20)
(0.492074 -0.0188447 -1.01043e-20)
(0.522106 -0.017747 -3.50031e-20)
(0.549536 -0.0167486 3.4383e-21)
(0.574667 -0.0158384 -2.94412e-21)
(0.597757 -0.0150067 3.22394e-20)
(0.619027 -0.0142456 -1.93269e-20)
(0.638678 -0.0135478 2.63164e-20)
(0.656903 -0.0129056 -3.93841e-20)
(0.673855 -0.0123121 4.63572e-23)
(0.68953 -0.0117701 -8.22487e-21)
(0.012294 -0.0321845 -2.70643e-20)
(0.0524271 -0.0670185 1.36327e-19)
(0.11385 -0.0816287 9.16355e-20)
(0.177747 -0.0848973 6.04228e-20)
(0.237659 -0.082659 7.51045e-20)
(0.292314 -0.0782425 -1.84968e-20)
(0.341605 -0.0733038 8.2715e-20)
(0.385948 -0.068525 1.66712e-20)
(0.42592 -0.0641201 -7.63345e-21)
(0.462067 -0.0601188 -5.86114e-20)
(0.494869 -0.0564929 6.03068e-20)
(0.524734 -0.0532025 -8.15875e-20)
(0.552013 -0.0502094 5.89953e-20)
(0.577005 -0.0474805 6.71962e-20)
(0.599966 -0.0449871 8.82803e-20)
(0.621116 -0.0427053 -5.82855e-20)
(0.640658 -0.0406133 1.60773e-20)
(0.658785 -0.0386875 6.0428e-20)
(0.67564 -0.0369077 -5.71591e-20)
(0.691192 -0.0352839 4.30445e-20)
(0.0156126 -0.0533517 -2.61101e-19)
(0.0592059 -0.11117 -1.30776e-19)
(0.122015 -0.135466 -1.45246e-19)
(0.186196 -0.140935 -1.13614e-20)
(0.245864 -0.137249 -7.80865e-20)
(0.300068 -0.129932 -9.54054e-20)
(0.348861 -0.121739 1.67983e-19)
(0.392726 -0.113807 8.50388e-20)
(0.432257 -0.106493 1.03825e-19)
(0.468004 -0.0998476 -1.13121e-19)
(0.500443 -0.0938252 8.34231e-20)
(0.529977 -0.0883595 1.00895e-19)
(0.556954 -0.0833874 3.53686e-20)
(0.581668 -0.0788535 -3.3612e-20)
(0.604372 -0.0747107 6.87204e-21)
(0.625285 -0.0709192 -1.46762e-20)
(0.644608 -0.0674423 -1.39791e-19)
(0.66254 -0.0642407 2.20196e-20)
(0.679203 -0.0612822 1.34778e-19)
(0.694509 -0.0585879 -1.80914e-19)
(0.020546 -0.0740714 -8.52535e-20)
(0.069298 -0.1545 1.27305e-19)
(0.134184 -0.188394 2.91731e-20)
(0.198797 -0.196094 -5.44448e-20)
(0.258106 -0.191026 -1.53834e-19)
(0.31164 -0.180877 -3.28424e-19)
(0.359694 -0.169489 -3.11252e-19)
(0.402845 -0.158452 -2.18456e-20)
(0.441719 -0.148272 -1.79464e-19)
(0.47687 -0.13902 -2.67364e-19)
(0.508766 -0.130634 2.0629e-19)
(0.537807 -0.123022 -3.04082e-19)
(0.564333 -0.116096 5.90654e-20)
(0.588632 -0.10978 -1.96815e-20)
(0.610953 -0.104008 -6.24068e-20)
(0.63151 -0.0987251 -7.81514e-20)
(0.650508 -0.0938791 1.2752e-19)
(0.668148 -0.0894147 1.01101e-19)
(0.684526 -0.0852901 1.72882e-19)
(0.699468 -0.0815449 -2.58957e-19)
(0.0270406 -0.0941704 4.64546e-20)
(0.0826117 -0.196691 4.48562e-19)
(0.150259 -0.24006 1.27946e-19)
(0.21546 -0.250031 3.08983e-19)
(0.274305 -0.243672 -1.15323e-19)
(0.32696 -0.230785 1.76654e-19)
(0.374037 -0.216284 -5.4753e-20)
(0.416247 -0.202213 3.5563e-19)
(0.454253 -0.189225 -1.82238e-19)
(0.488614 -0.177418 2.14276e-19)
(0.519794 -0.166714 1.8522e-19)
(0.548182 -0.156995 1.96504e-19)
(0.57411 -0.148152 -1.75361e-19)
(0.597861 -0.140086 1.49282e-19)
(0.619675 -0.132713 -2.07453e-19)
(0.63976 -0.125964 -5.65349e-20)
(0.658327 -0.119771 -1.34561e-19)
(0.67558 -0.114062 -5.67984e-20)
(0.69158 -0.108788 2.25326e-19)
(0.706044 -0.104019 -3.72773e-19)
(0.0350258 -0.113482 -1.84214e-19)
(0.0990257 -0.237431 -2.26602e-20)
(0.170112 -0.290116 -7.31663e-20)
(0.236067 -0.302412 -2.57707e-19)
(0.294357 -0.294879 4.4516e-20)
(0.345934 -0.279373 -4.01137e-19)
(0.391808 -0.261863 -1.67033e-19)
(0.432854 -0.244846 -1.27344e-20)
(0.469787 -0.229127 -4.1831e-19)
(0.503172 -0.214831 -1.2855e-19)
(0.533465 -0.201866 -5.83733e-20)
(0.561045 -0.190093 -1.91625e-19)