/*--------------------------------*- C++ -*----------------------------------*\
  =========                 |
  \\      /  F ield         | OpenFOAM: The Open Source CFD Toolbox
   \\    /   O peration     | Website:  https://openfoam.org
    \\  /    A nd           | Version:  6.0
     \\/     M anipulation  |
\*---------------------------------------------------------------------------*/
FoamFile
{
    version     2.0;
    format      ascii;
    class       surfaceScalarField;
    location    "19";
    object      phi;
}
// * * * * * * * * * * * * * * * * * * * * * * * * * * * * * * * * * * * * * //

dimensions      [0 3 -1 0 0 0 0];

internalField   nonuniform List<scalar> 
7840
(
-2.98894e-06
3.12541e-06
-1.36469e-07
-1.05444e-05
7.90355e-06
-3.4811e-07
-2.15592e-05
1.15271e-05
-5.12334e-07
-3.5138e-05
1.4217e-05
-6.38152e-07
-5.0568e-05
1.61631e-05
-7.33227e-07
-6.72949e-05
1.75313e-05
-8.0435e-07
-8.49024e-05
1.84649e-05
-8.57414e-07
-0.000103093
1.90876e-05
-8.97411e-07
-0.00012167
1.95056e-05
-9.28467e-07
-0.000140526
1.981e-05
-9.53902e-07
-0.000159628
2.00781e-05
-9.76313e-07
-0.000179005
2.03752e-05
-9.97671e-07
-0.000198741
2.07552e-05
-1.01942e-06
-0.00021896
2.12611e-05
-1.04254e-06
-0.000239817
2.19255e-05
-1.06765e-06
-0.000261493
2.27707e-05
-1.09508e-06
-0.000284177
2.3809e-05
-1.12485e-06
-0.000308064
2.50432e-05
-1.15676e-06
-0.000333342
2.64691e-05
-1.19046e-06
2.80821e-05
-1.22555e-06
-0.000360199
-2.96793e-06
6.09333e-06
-1.04702e-05
1.54059e-05
-2.1403e-05
2.24599e-05
-3.48709e-05
2.76849e-05
-5.0159e-05
3.14513e-05
-6.67096e-05
3.40819e-05
-8.41011e-05
3.58564e-05
-0.000102029
3.70157e-05
-0.000120291
3.77673e-05
-0.00013877
3.82891e-05
-0.000157426
3.87337e-05
-0.00017628
3.92298e-05
-0.00019541
3.98851e-05
-0.000214935
4.0786e-05
-0.000235008
4.19991e-05
-0.000255809
4.35712e-05
-0.000277529
4.55291e-05
-0.000300367
4.78806e-05
-0.000324517
5.06194e-05
5.37368e-05
-0.000350171
-2.92933e-06
9.02266e-06
-1.03328e-05
2.28094e-05
-2.11117e-05
3.32387e-05
-3.43702e-05
4.09434e-05
-4.93891e-05
4.64703e-05
-6.56037e-05
5.02964e-05
-8.25821e-05
5.28348e-05
-0.000100008
5.44412e-05
-0.000117663
5.54223e-05
-0.000135416
5.60421e-05
-0.000153209
5.65274e-05
-0.000171052
5.70719e-05
-0.000189005
5.78385e-05
-0.00020718
5.89607e-05
-0.000225724
6.05431e-05
-0.000244814
6.26615e-05
-0.000264647
6.53624e-05
-0.000285429
6.86627e-05
-0.000307368
7.25576e-05
7.70357e-05
-0.000330666
-2.87599e-06
1.18987e-05
-1.01408e-05
3.00742e-05
-2.07019e-05
4.37998e-05
-3.36626e-05
5.39041e-05
-4.82982e-05
6.11058e-05
-6.40336e-05
6.60318e-05
-8.04231e-05
6.92243e-05
-9.71319e-05
7.11501e-05
-0.000113922
7.22121e-05
-0.000130637
7.27579e-05
-0.000147198
7.3088e-05
-0.000163588
7.34616e-05
-0.000179849
7.40997e-05
-0.000196075
7.51872e-05
-0.000212405
7.68731e-05
-0.000229013
7.92694e-05
-0.000246101
8.24501e-05
-0.000263888
8.64495e-05
-0.000282601
9.12702e-05
9.6901e-05
-0.000302466
-2.81157e-06
1.47102e-05
-9.90524e-06
3.71679e-05
-2.01948e-05
5.40894e-05
-3.27825e-05
6.64919e-05
-4.69372e-05
7.52605e-05
-6.20721e-05
8.11667e-05
-7.77246e-05
8.48767e-05
-9.35381e-05
8.69636e-05
-0.000109248
8.79215e-05
-0.000124668
8.81783e-05
-0.000139686
8.81063e-05
-0.000154254
8.80299e-05
-0.000168386
8.82313e-05
-0.000182151
8.89519e-05
-0.000195671
9.03931e-05
-0.000209115
9.27137e-05
-0.000222691
9.60266e-05
-0.000236638
0.000100396
-0.000251209
0.000105842
0.000112361
-0.000266669
-2.73995e-06
1.74502e-05
-9.63757e-06
4.40655e-05
-1.96121e-05
6.40639e-05
-3.17648e-05
7.86446e-05
-4.53584e-05
8.8854e-05
-5.97943e-05
9.56026e-05
-7.4592e-05
9.96745e-05
-8.93707e-05
0.000101742
-0.000103835
0.000102386
-0.000117764
0.000102107
-0.000131005
0.000101347
-0.000143469
0.000100494
-0.000155131
9.98929e-05
-0.000166026
9.98469e-05
-0.000176252
0.000100619
-0.000185966
0.000102428
-0.000195382
0.000105443
-0.00020476
0.000109773
-0.000214396
0.000115477
0.000122571
-0.000224605
-2.66448e-06
2.01147e-05
-9.34747e-06
5.07485e-05
-1.89717e-05
7.36881e-05
-3.06379e-05
9.03108e-05
-4.3604e-05
0.00010182
-5.72614e-05
0.00010926
-7.1113e-05
0.000113526
-8.47538e-05
0.000115383
-9.78562e-05
0.000115488
-0.00011016
0.000114411
-0.000121467
0.000112654
-0.000131638
0.000110666
-0.000140598
0.000108853
-0.000148336
0.000107585
-0.000154913
0.000107196
-0.000160466
0.000107981
-0.000165208
0.000110184
-0.000169423
0.000113988
-0.00017346
0.000119515
0.000126824
-0.000177714
-2.58732e-06
2.2702e-05
-9.04047e-06
5.72016e-05
-1.82828e-05
8.29304e-05
-2.94153e-05
0.000101443
-4.16938e-05
0.000114099
-5.4503e-05
0.000122069
-6.73326e-05
0.000126356
-7.97566e-05
0.000127807
-9.14169e-05
0.000127149
-0.000102013
0.000125008
-0.000111298
0.000121939
-0.000119075
0.000118443
-0.000125208
0.000114986
-0.000129626
0.000112003
-0.000132337
0.000109907
-0.000133441
0.000109085
-0.00013314
0.000109883
-0.000131741
0.000112589
-0.000129657
0.000117431
0.000124554
-0.000127387
-2.50888e-06
2.52109e-05
-8.71625e-06
6.3409e-05
-1.75424e-05
9.17566e-05
-2.80893e-05
0.00011199
-3.96139e-05
0.000125623
-5.14992e-05
0.000133955
-6.32277e-05
0.000138084
-7.43582e-05
0.000138938
-8.45075e-05
0.000137298
-9.33389e-05
0.000133839
-0.000100556
0.000129155
-0.000105902
0.000123789
-0.00010917
0.000118254
-0.000110214
0.000113047
-0.000108971
0.000108665
-0.000105482
0.000105596
-9.99181e-05
0.000104318
-9.25977e-05
0.000105269
-8.40033e-05
0.000108837
0.00011532
-7.47699e-05
-2.42753e-06
2.76384e-05
-8.36753e-06
6.9349e-05
-1.67327e-05
0.000100122
-2.66259e-05
0.000121884
-3.73085e-05
0.000136306
-4.81674e-05
0.000144814
-5.86856e-05
0.000148602
-6.84151e-05
0.000148667
-7.69572e-05
0.00014584
-8.39469e-05
0.000140829
-8.90453e-05
0.000134254
-9.19383e-05
0.000126682
-9.23447e-05
0.00011866
-9.00324e-05
0.000110735
-8.48454e-05
0.000103478
-7.67395e-05
9.74906e-05
-6.5824e-05
9.34026e-05
-5.24059e-05
9.1851e-05
-3.70312e-05
9.34619e-05
9.87915e-05
-2.05026e-05
-2.33969e-06
2.99781e-05
-7.98014e-06
7.49895e-05
-1.58206e-05
0.000107962
-2.49635e-05
0.000131026
-3.46764e-05
0.000146019
-4.43551e-05
0.000154492
-5.34904e-05
0.000157738
-6.16382e-05
0.000156815
-6.83962e-05
0.000152598
-7.33852e-05
0.000145818
-7.62374e-05
0.000137106
-7.6592e-05
0.000127037
-7.40996e-05
0.000116168
-6.84388e-05
0.000105074
-5.93463e-05
9.43851e-05
-4.66638e-05
8.48081e-05
-3.04007e-05
7.71395e-05
-1.08102e-05
7.22604e-05
1.15226e-05
7.11292e-05
7.47086e-05
3.56055e-05
-2.24029e-06
3.22184e-05
-7.53439e-06
8.02836e-05
-1.47603e-05
0.000115188
-2.30159e-05
0.000139282
-3.1574e-05
0.000154577
-3.98415e-05
0.00016276
-4.73223e-05
0.000165219
-5.35858e-05
0.000163078
-5.8239e-05
0.000157251
-6.09058e-05
0.000148484
-6.12098e-05
0.00013741
-5.8765e-05
0.000124592
-5.31736e-05
0.000110576
-4.40375e-05
9.59379e-05
-3.09856e-05
8.13332e-05
-1.37261e-05
6.75486e-05
7.87302e-06
5.55404e-05
3.367e-05
4.64635e-05
6.30939e-05
4.17052e-05
4.28366e-05
9.4966e-05
-2.12357e-06
3.43419e-05
-7.00741e-06
8.51674e-05
-1.34977e-05
0.000121678
-2.06795e-05
0.000146464
-2.78253e-05
0.000161722
-3.43503e-05
0.000169285
-3.97727e-05
0.000170641
-4.36792e-05
0.000166985
-4.56972e-05
0.000159269
-4.54698e-05
0.000148257
-4.26362e-05
0.000134576
-3.68159e-05
0.000118772
-2.75986e-05
0.000101359
-1.4544e-05
8.28833e-05
2.8004e-06
6.39888e-05
2.48545e-05
4.54945e-05
5.19178e-05
2.84771e-05
8.40244e-05
1.43569e-05
0.000120706
5.02344e-06
2.89507e-06
0.000160648
-1.98417e-06
3.63261e-05
-6.37625e-06
8.95595e-05
-1.19761e-05
0.000127278
-1.78429e-05
0.000152331
-2.32375e-05
0.000167117
-2.75733e-05
0.000173621
-3.03752e-05
0.000173443
-3.12443e-05
0.000167854
-2.98297e-05
0.000157855
-2.58045e-05
0.000144232
-1.88445e-05
0.000127616
-8.60875e-06
0.000108536
5.27779e-06
8.74723e-05
2.32373e-05
6.49238e-05
4.57407e-05
4.14854e-05
7.32843e-05
1.7951e-05
0.000106318
-4.55649e-06
0.000145094
-2.44188e-05
0.00018936
-3.92434e-05
-4.55412e-05
0.000237797
-1.81795e-06
3.81441e-05
-5.62069e-06
9.33622e-05
-1.01426e-05
0.0001318
-1.43986e-05
0.000156587
-1.7619e-05
0.000170337
-1.91977e-05
0.000175199
-1.86489e-05
0.000172894
-1.55726e-05
0.000164778
-9.62895e-06
0.000151911
-5.17309e-07
0.00013512
1.20412e-05
0.000115058
2.83217e-05
9.22556e-05
4.86143e-05
6.71797e-05
7.32472e-05
4.0291e-05
0.000102608
1.21246e-05
0.000137154
-1.65955e-05
0.000177388
-4.47902e-05
0.000223747
-7.07778e-05
0.000276297
-9.17929e-05
-0.000103179
0.000333934
-1.6225e-06
3.97666e-05
-4.72476e-06
9.64645e-05
-7.95169e-06
0.000135027
-1.02495e-05
0.000158885
-1.07938e-05
0.000170882
-8.93257e-06
0.000173338
-4.14133e-06
0.000168103
4.00921e-06
0.000156627
1.5875e-05
0.000140045
3.17527e-05
0.000119242
5.18889e-05
9.49215e-05
7.64889e-05
6.76557e-05
0.000105727
3.79411e-05
0.000139769
6.24975e-06
0.000178797
-2.69035e-05
0.000223058
-6.08565e-05
0.000272896
-9.46282e-05
0.000328749
-0.000126631
0.00039098
-0.000154023
-0.000171159
0.00045896
-1.3968e-06
4.11634e-05
-3.67609e-06
9.87438e-05
-5.36436e-06
0.000136715
-5.31112e-06
0.000158831
-2.60719e-06
0.000168178
3.478e-06
0.000167253
1.35433e-05
0.000158037
2.80865e-05
0.000142084
4.75212e-05
0.00012061
7.21823e-05
9.45814e-05
0.000102323
6.47807e-05
0.000138109
3.18701e-05
0.000179608
-3.55824e-06
0.000226793
-4.09352e-05
0.000279553
-7.96637e-05
0.000337739
-0.000119042
0.000401235
-0.000158124
0.000470072
-0.000195469
0.000544537
-0.000228488
-0.000251285
0.000624663
-1.14007e-06
4.23034e-05
-2.46256e-06
0.000100066
-2.34288e-06
0.000136596
4.96946e-07
0.000155991
7.08324e-06
0.000161591
1.82608e-05
0.000156075
3.47425e-05
0.000141556
5.7139e-05
0.000119688
8.59703e-05
9.1779e-05
0.000121664
5.88878e-05
0.00016454
2.19049e-05
0.000214786
-1.83757e-05
0.000272425
-6.11978e-05
0.000337282
-0.000105792
0.000408947
-0.000151329
0.000486772
-0.000196867
0.0005699
-0.000241253
0.000657392
-0.000282961
0.000748549
-0.000319645
-0.000346889
0.000844153
-8.49821e-07
4.31533e-05
-1.06673e-06
0.000100283
1.15963e-06
0.000134369
7.26603e-06
0.000149885
1.84282e-05
0.000150429
3.56396e-05
0.000138864
5.97643e-05
0.000117431
9.15657e-05
8.78862e-05
0.000131715
5.16292e-05
0.000180785
9.81772e-06
0.000239227
-3.65365e-05
0.000307335
-8.64841e-05
0.000385203
-0.000139066
0.000472653
-0.000193242
0.000569147
-0.000247823
0.000673671
-0.000301391
0.0007846
-0.000352182
0.00089955
-0.000397911
0.00101553
-0.00043562
-0.000464558
0.00113319
-5.19599e-07
4.36729e-05
5.40608e-07
9.9223e-05
5.21121e-06
0.000129699
1.51176e-05
0.000139979
3.1614e-05
0.000133933
5.58709e-05
0.000114607
8.893e-05
8.43719e-05
0.000131732
4.50842e-05
0.000185122
-1.76058e-06
0.00024984
-5.4901e-05
0.000326507
-0.000113203
0.000415594
-0.000175571
0.000517402
-0.000240874
0.000632026
-0.000307866
0.000759306
-0.000375103
0.000898716
-0.000440801
0.00104912
-0.000502586
0.00120791
-0.000556705
0.00136802
-0.000595723
-0.000603827
0.00150729
-1.37916e-07
4.38108e-05
2.40445e-06
9.66806e-05
9.90953e-06
0.000122194
2.42173e-05
0.000125671
4.68831e-05
0.000111267
7.92716e-05
8.22187e-05
0.000122609
4.10342e-05
0.000178007
-1.0313e-05
0.000246457
-7.0211e-05
0.000328825
-0.000137269
0.000425835
-0.000210212
0.000538066
-0.000287802
0.000665976
-0.000368784
0.000809972
-0.000451862
0.000970554
-0.000535685
0.00114862
-0.000618866
0.001346
-0.000699969
0.00156675
-0.000777456
0.001821
-0.000849967
-0.000913879
0.00213105
3.15249e-07
4.34955e-05
4.59202e-06
9.24038e-05
1.53901e-05
0.000111396
3.4784e-05
0.000106277
6.45436e-05
8.15074e-05
0.000106228
4.05346e-05
0.000161228
-1.39656e-05
0.000230774
-7.98595e-05
0.000315921
-0.000155358
0.000417521
-0.00023887
0.000536204
-0.000328895
0.000672371
-0.000423969
0.000826224
-0.000522637
0.000997831
-0.000623468
0.00118725
-0.000725103
0.00139472
-0.000826341
0.00162101
-0.000926252
0.00186785
-0.00102429
0.00213823
-0.00112035
-0.00120675
0.0024311
8.63811e-07
4.26317e-05
7.18357e-06
8.60841e-05
2.18126e-05
9.67665e-05
4.70709e-05
8.10187e-05
8.49414e-05
4.36369e-05
0.000137155
-1.16789e-05
0.000205213
-8.20241e-05
0.000290372
-0.000165018
0.000393599
-0.000258585
0.000515529
-0.0003608
0.000656433
-0.000469798
0.0008162
-0.000583736
0.000994366
-0.000700803
0.00119016
-0.000819264
0.00140259
-0.000937536
0.00163054
-0.00105429
0.00187282
-0.00116853
0.00212825
-0.00127972
0.00239542
-0.00138752
-0.00148354
0.00267221
1.53618e-06
4.10955e-05
1.02697e-05
7.73505e-05
2.93506e-05
7.76856e-05
6.13406e-05
4.90287e-05
0.000108415
-3.43724e-06
0.000172423
-7.56868e-05
0.00025488
-0.000164482
0.000356919
-0.000267056
0.000479216
-0.000380882
0.000621935
-0.00050352
0.000784692
-0.000632555
0.00096655
-0.000765595
0.00116607
-0.000900321
0.00138137
-0.00103457
0.00161025
-0.00116641
0.00185024
-0.00129427
0.00209867
-0.00141696
0.00235268
-0.00153373
0.00260929
-0.00164414
-0.00174117
0.00286692
2.36142e-06
3.87341e-05
1.39399e-05
6.5772e-05
3.81674e-05
5.34581e-05
7.78242e-05
9.37197e-06
0.000135226
-6.08391e-05
0.000212247
-0.000152708
0.00031027
-0.000262504
0.000430094
-0.00038688
0.000571851
-0.000522639
0.000734944
-0.000666613
0.00091804
-0.000815651
0.00111912
-0.000966676
0.00133559
-0.00111679
0.0015644
-0.00126338
0.00180223
-0.00140424
0.0020456
-0.00153764
0.002291
-0.00166236
0.00253494
-0.00177768
0.00277413
-0.00188332
-0.00197434
0.0030073
3.36596e-06
3.53682e-05
1.82712e-05
5.08668e-05
4.83926e-05
2.33367e-05
9.66772e-05
-3.89126e-05
0.000165492
-0.000129654
0.00025659
-0.000243807
0.000371012
-0.000376926
0.000508965
-0.000524834
0.000669738
-0.000683412
0.000851683
-0.000848557
0.00105228
-0.00101625
0.00126827
-0.00118267
0.00149589
-0.00134441
0.00173108
-0.00149857
0.00196973
-0.00164289
0.00220786
-0.00177577
0.00244179
-0.0018963
0.00266826
-0.00200414
0.00288447
-0.00209953
-0.00217961
0.00308974
4.57089e-06
3.07973e-05
2.33187e-05
3.21191e-05
6.01006e-05
-1.34452e-05
0.000117943
-9.67548e-05
0.000199124
-0.000210835
0.000305076
-0.000349758
0.000436229
-0.000508079
0.000591894
-0.000680499
0.000770217
-0.000861735
0.000968253
-0.00104659
0.00118216
-0.00123015
0.00140746
-0.00140798
0.00163941
-0.00157636
0.00187329
-0.00173244
0.00210468
-0.00187428
0.00232973
-0.00200082
0.00254522
-0.00211179
0.00274868
-0.00220761
0.00293837
-0.00228923
-0.00235559
0.00311436
5.99014e-06
2.48071e-05
2.91085e-05
9.00066e-06
7.32956e-05
-5.76323e-05
0.000141525
-0.000164984
0.000235795
-0.000305105
0.000356949
-0.000470913
0.000504503
-0.000655633
0.000676553
-0.000852549
0.000869846
-0.00105503
0.00108
-0.00125675
0.00130189
-0.00145204
0.00153004
-0.00163613
0.00175911
-0.00180543
0.00198422
-0.00195756
0.00220127
-0.00209132
0.00240705
-0.0022066
0.00259933
-0.00230407
0.0027768
-0.00238508
0.00293896
-0.00245139
-0.00250338
0.00308676
7.62964e-06
1.71775e-05
3.56341e-05
-1.90038e-05
8.7902e-05
-0.0001099
0.000167174
-0.000244257
0.000274917
-0.000412847
0.000411076
-0.000607072
0.00057392
-0.000818476
0.000760055
-0.00103868
0.000964675
-0.00125965
0.001182
-0.00147408
0.00140585
-0.00167588
0.00163016
-0.00186044
0.00184954
-0.0020248
0.00205954
-0.00216756
0.00225688
-0.00228867
0.00243947
-0.00238919
0.00260631
-0.00247091
0.00275734
-0.0025361
0.0028932
-0.00258725
-0.0026258
0.00301561
9.48704e-06
7.69045e-06
4.28538e-05
-5.23706e-05
0.000103761
-0.000170807
0.000194483
-0.000334978
0.000315651
-0.000534016
0.000465977
-0.000757398
0.000642173
-0.000994673
0.000839172
-0.00123568
0.00105062
-0.0014711
0.00126959
-0.00169304
0.00148924
-0.00189553
0.00170352
-0.00207472
0.00190754
-0.00222882
0.00209782
-0.00235783
0.00227228
-0.00246313
0.00243013
-0.00254704
0.00257162
-0.0026124
0.00269779
-0.00266226
0.00281014
-0.00269961
-0.00272655
0.00291089
1.15516e-05
-3.86119e-06
5.0691e-05
-9.15099e-05
0.000120629
-0.000240745
0.000222891
-0.000437241
0.000356936
-0.00066806
0.000519905
-0.000920367
0.000706726
-0.00118149
0.000910619
-0.00143958
0.0011239
-0.00168438
0.00133889
-0.00190803
0.00154871
-0.00210535
0.00174787
-0.00227388
0.00193251
-0.00241346
0.00210045
-0.00252578
0.00225099
-0.00261367
0.00238459
-0.00268064
0.00250255
-0.00273037
0.00260668
-0.00276639
0.00269901
-0.00279194
-0.00280947
0.00278193
1.38042e-05
-1.76654e-05
5.90333e-05
-0.000136739
0.000138184
-0.000319896
0.000251706
-0.000550763
0.000397535
-0.000813889
0.000570958
-0.00109379
0.000765016
-0.00137555
0.000971372
-0.00164593
0.00118141
-0.00189442
0.00138727
-0.00211389
0.00158263
-0.00230071
0.00176307
-0.00245431
0.0019261
-0.0025765
0.00207099
-0.00267066
0.00219831
-0.00274099
0.00230956
-0.0027919
0.00240678
-0.00282759
0.0024922
-0.00285181
0.00256802
-0.00286776
-0.00287799
0.00263654
1.62167e-05
-3.38821e-05
6.77341e-05
-0.000188256
0.000156028
-0.00040819
0.000280124
-0.000674859
0.000436102
-0.000969867
0.000617213
-0.0012749
0.000814681
-0.00157302
0.00101895
-0.00185021
0.00122103
-0.0020965
0.00141349
-0.00230635
0.00159108
-0.0024783
0.00175079
-0.00261403
0.00189166
-0.00271737
0.00201426
-0.00279327
0.00212024
-0.00284696
0.0022118
-0.00288346
0.00229137
-0.00290716
0.0023613
-0.00292174
0.00242372
-0.00293018
-0.00293492
0.00248065
1.87519e-05
-5.2634e-05
7.66137e-05
-0.000246118
0.000173704
-0.000505281
0.000307269
-0.000808423
0.00047127
-0.00113387
0.000656882
-0.00146051
0.00085376
-0.0017699
0.00105165
-0.00204809
0.00124176
-0.00228661
0.00141768
-0.00248227
0.00157558
-0.0026362
0.00171403
-0.00275247
0.00183344
-0.00283679
0.00193552
-0.00289534
0.00202262
-0.00293407
0.00209736
-0.00295819
0.00216222
-0.00297202
0.00221947
-0.00297898
0.002271
-0.00298171
-0.0029824
0.00231848
2.13636e-05
-7.39976e-05
8.54642e-05
-0.000310219
0.00019071
-0.000610527
0.000332243
-0.000949956
0.000501747
-0.00130337
0.000688445
-0.00164721
0.000880851
-0.0019623
0.00106859
-0.00223583
0.0012437
-0.00246172
0.00140114
-0.00263971
0.0015387
-0.00277377
0.00165645
-0.00287022
0.00175599
-0.00293633
0.0018398
-0.00297915
0.00191064
-0.00300491
0.00197122
-0.00301877
0.00202392
-0.00302472
0.00207074
-0.00302581
0.0021133
-0.00302427
-0.00302199
0.00215289
2.39969e-05
-9.79945e-05
9.40559e-05
-0.000380278
0.000206525
-0.000722997
0.000354181
-0.00109761
0.000526406
-0.0014756
0.000710769
-0.00183157
0.000895189
-0.00214672
0.00106978
-0.00241042
0.00122783
-0.00261977
0.00136596
-0.00277784
0.00148355
-0.00289135
0.00158194
-0.00296861
0.00166362
-0.00301801
0.00173152
-0.00304705
0.00178855
-0.00306194
0.00183728
-0.0030675
0.00187986
-0.0030673
0.00191797
-0.00306392
0.00195293
-0.00305922
-0.00305477
0.00198571
2.65905e-05
-0.000124585
0.000102147
-0.000455834
0.000220636
-0.000841487
0.000372303
-0.00124928
0.000544363
-0.00164766
0.000723173
-0.00201038
0.000896646
-0.0023202
0.00105591
-0.00256968
0.00119585
-0.00275971
0.00131475
-0.00289674
0.00141341
-0.00299001
0.00149419
-0.0030494
0.00156014
-0.00308396
0.00161437
-0.00310128
0.00165969
-0.00310726
0.00169843
-0.00310624
0.00173244
-0.00310131
0.0017631
-0.00309458
0.00179142
-0.00308754
-0.00308147
0.00181811
2.90779e-05
-0.000153663
0.000109493
-0.000536249
0.000232569
-0.000964562
0.00038597
-0.00140268
0.000555029
-0.00181672
0.000725432
-0.00218079
0.00088566
-0.00248043
0.00102825
-0.00271228
0.00114982
-0.00288128
0.00125021
-0.00299713
0.00133142
-0.00307122
0.00139648
-0.00311446
0.00144873
-0.0031362
0.00149123
-0.00314378
0.00152656
-0.00314259
0.00155676
-0.00313644
0.00158334
-0.00312789
0.0016074
-0.00311864
0.00162972
-0.00310985
-0.00310256
0.0016508
3.13906e-05
-0.000185054
0.000115863
-0.000620722
0.000241911
-0.00109061
0.000394713
-0.00155548
0.00055813
-0.00198013
0.00071775
-0.00234041
0.000863113
-0.00262579
0.000988421
-0.00283758
0.00109198
-0.00298484
0.00117502
-0.00308017
0.0012404
-0.0031366
0.00129159
-0.00316564
0.00133193
-0.00317654
0.00136431
-0.00317616
0.00139101
-0.00316929
0.00141372
-0.00315916
0.00143368
-0.00314785
0.00145173
-0.00313669
0.00146845
-0.00312658
-0.00311832
0.00148422
3.34611e-05
0.000121048
0.000248341
0.000398258
0.000553692
0.000700681
0.000830193
0.00093819
0.00102455
0.0010916
0.0011428
0.00118176
0.00121172
0.00123526
0.00125433
0.00127033
0.00128421
0.00129663
0.00130802
0.00131864
3.34597e-05
0.000185091
0.00012104
0.000620797
0.000248321
0.00109069
0.000398219
0.00155555
0.000553631
0.00198017
0.000700596
0.00234041
0.000830085
0.00262575
0.000938061
0.00283751
0.0010244
0.00298474
0.00109144
0.00308005
0.00114262
0.00313646
0.00118158
0.0031655
0.00121153
0.00317639
0.00123506
0.003176
0.00125413
0.00316913
0.00127012
0.00315899
0.001284
0.00314767
0.00129641
0.00313652
0.00130781
0.0031264
0.00311814
0.00131842
3.13897e-05
0.000153702
0.000115857
0.000536329
0.000241894
0.000964656
0.000394678
0.00140276
0.000558074
0.00181678
0.000717669
0.00218081
0.000863008
0.00248041
0.000988293
0.00271223
0.00109183
0.0028812
0.00117486
0.00299703
0.00124022
0.0030711
0.00129139
0.00311433
0.00133173
0.00313606
0.0013641
0.00314362
0.00139079
0.00314244
0.0014135
0.00313628
0.00143345
0.00312772
0.0014515
0.00311847
0.00146822
0.00310968
0.00310238
0.00148398
2.90775e-05
0.000124624
0.000109489
0.000455918
0.000232555
0.00084159
0.00038594
0.00124938
0.000554979
0.00164774
0.000725357
0.00201043
0.00088556
0.00232021
0.00102813
0.00256966
0.00114967
0.00275966
0.00125004
0.00289666
0.00133123
0.00298991
0.00139628
0.00304927
0.00144851
0.00308382
0.001491
0.00310113
0.00152633
0.00310711
0.00155653
0.00310609
0.0015831
0.00310115
0.00160716
0.00309441
0.00162947
0.00308737
0.0030813
0.00165055
2.65906e-05
9.80337e-05
0.000102144
0.000380365
0.000220626
0.000723107
0.000372279
0.00109772
0.000544319
0.0014757
0.000723105
0.00183165
0.000896552
0.00214676
0.00105579
0.00241042
0.0011957
0.00261975
0.00131458
0.00277779
0.00141322
0.00289127
0.00149398
0.00296851
0.00155992
0.00301789
0.00161414
0.00304692
0.00165945
0.0030618
0.00169818
0.00306735
0.00173219
0.00306715
0.00176284
0.00306376
0.00179115
0.00305906
0.0030546
0.00181784
2.39974e-05
7.40362e-05
9.4055e-05
0.000310307
0.000206519
0.000610643
0.000354163
0.000950081
0.000526371
0.00130349
0.000710711
0.00164731
0.000895104
0.00196237
0.00106966
0.00223587
0.00122769
0.00246172
0.0013658
0.00263968
0.00148336
0.00277371
0.00158173
0.00287014
0.00166339
0.00293623
0.00173128
0.00297903
0.00178829
0.00300478
0.00183701
0.00301863
0.00187958
0.00302458
0.00191769
0.00302565
0.00195264
0.00302411
0.00302183
0.00198542
2.13644e-05
5.26718e-05
8.5465e-05
0.000246207
0.000190708
0.000505401
0.000332232
0.000808557
0.000501721
0.001134
0.000688397
0.00146063
0.000880777
0.00176999
0.00106849
0.00204815
0.00124356
0.00228664
0.00140097
0.00248227
0.00153851
0.00263617
0.00165624
0.00275241
0.00175576
0.00283671
0.00183955
0.00289524
0.00191037
0.00293395
0.00197094
0.00295806
0.00202363
0.00297189
0.00207044
0.00297884
0.00211299
0.00298156
0.00298224
0.00215258
1.87531e-05
3.39187e-05
7.66159e-05
0.000188344
0.000173705
0.000408312
0.000307264
0.000674998
0.000471253
0.000970011
0.000656846
0.00127504
0.0008537
0.00157314
0.00105156
0.0018503
0.00124164
0.00209656
0.00141753
0.00230638
0.0015754
0.0024783
0.00171382
0.002614
0.00183321
0.00271731
0.00193526
0.00279319
0.00202235
0.00284687
0.00209706
0.00288335
0.00216191
0.00290703
0.00221915
0.0029216
0.00227067
0.00293004
0.00293477
0.00231814
1.62182e-05
1.77005e-05
6.77377e-05
0.000136824
0.000156032
0.000320017
0.000280125
0.000550906
0.000436094
0.000814042
0.00061719
0.00109394
0.000814636
0.00137569
0.00101888
0.00164605
0.00122093
0.00189451
0.00141335
0.00211396
0.00159091
0.00230074
0.00175059
0.00245431
0.00189143
0.00257648
0.002014
0.00267061
0.00211995
0.00274092
0.0022115
0.00279181
0.00229105
0.00282748
0.00236096
0.00285169
0.00242337
0.00286763
0.00287785
0.00248029
1.3806e-05
3.89443e-06
5.90383e-05
9.15922e-05
0.000138191
0.000240864
0.000251713
0.000437384
0.000397536
0.000668219
0.000570948
0.00092053
0.000764988
0.00118165
0.000971319
0.00143972
0.00118133
0.00168451
0.00138716
0.00190813
0.00158248
0.00210542
0.00176288
0.00227391
0.00192588
0.00241347
0.00207073
0.00252576
0.00219802
0.00261363
0.00230925
0.00268058
0.00240645
0.00273028
0.00249184
0.0027663
0.00256765
0.00279182
0.00280934
0.00263615
1.15538e-05
-7.65938e-06
5.06975e-05
5.24485e-05
0.00012064
0.000170921
0.000222904
0.00033512
0.000356947
0.000534176
0.000519908
0.000757569
0.000706715
0.000994845
0.000910587
0.00123585
0.00112384
0.00147125
0.0013388
0.00169317
0.00154858
0.00189564
0.0017477
0.0020748
0.0019323
0.00222887
0.0021002
0.00235785
0.00225071
0.00246312
0.00238428
0.00254701
0.00250221
0.00261235
0.00260632
0.00266219
0.00269863
0.00269952
0.00272644
0.00278153
9.48966e-06
-1.7149e-05
4.2862e-05
1.90762e-05
0.000103775
0.000110008
0.000194502
0.000244393
0.000315671
0.000413006
0.000465993
0.000607247
0.00064218
0.000818659
0.000839161
0.00103887
0.00105059
0.00125982
0.00126952
0.00147424
0.00148914
0.00167602
0.00170338
0.00186056
0.00190735
0.00202489
0.00209759
0.00216762
0.00227201
0.0022887
0.00242983
0.00238919
0.00257128
0.00247089
0.00269741
0.00253606
0.00280974
0.00258719
0.00262571
0.00291047
7.63285e-06
-2.47819e-05
3.56442e-05
-8.93521e-06
8.79203e-05
5.7732e-05
0.0001672
0.000165114
0.000274946
0.00030526
0.000411106
0.000471087
0.000573944
0.000655821
0.000760066
0.000852744
0.000964666
0.00105522
0.00118197
0.00125694
0.00140577
0.00145221
0.00163005
0.00163629
0.00184938
0.00180556
0.00205934
0.00195766
0.00225664
0.0020914
0.00243918
0.00220665
0.00260598
0.0023041
0.00275696
0.00238508
0.00289279
0.00245136
0.00250333
0.00301518
5.99407e-06
-3.0776e-05
2.91209e-05
-3.2062e-05
7.33181e-05
1.35348e-05
0.000141557
9.68747e-05
0.000235835
0.000210983
0.000356992
0.000349929
0.000504544
0.00050827
0.000676585
0.000680703
0.000869863
0.000861947
0.00108
0.00104681
0.00130185
0.00123035
0.00152997
0.00140817
0.001759
0.00157654
0.00198406
0.0017326
0.00220106
0.00187441
0.00240679
0.00200092
0.00259902
0.00211187
0.00277644
0.00220765
0.00293856
0.00228924
0.00235558
0.00308631
4.57563e-06
-3.53516e-05
2.33334e-05
-5.08198e-05
6.01274e-05
-2.32592e-05
0.000117982
3.90206e-05
0.000199173
0.000129791
0.000305131
0.000243972
0.000436285
0.000377115
0.000591946
0.000525042
0.000770258
0.000683634
0.000968276
0.000848788
0.00118215
0.00101648
0.00140743
0.0011829
0.00163934
0.00134463
0.00187317
0.00149877
0.00210451
0.00164306
0.0023295
0.00177593
0.00254494
0.00189643
0.00274835
0.00200424
0.00293799
0.0020996
0.00217965
0.00311392
3.37152e-06
-3.87231e-05
1.82881e-05
-6.57364e-05
4.84231e-05
-5.33943e-05
9.67213e-05
-9.27755e-06
0.000165548
6.09648e-05
0.000256655
0.000152865
0.000371081
0.000262689
0.000509034
0.00038709
0.0006698
0.000522868
0.000851732
0.000666856
0.00105231
0.000815903
0.00126827
0.000966931
0.00149586
0.00111704
0.00173101
0.00126362
0.0019696
0.00140447
0.00220768
0.00153785
0.00244156
0.00166255
0.00266796
0.00177784
0.00288412
0.00188345
0.00197444
0.00308933
2.36765e-06
-4.10908e-05
1.39584e-05
-7.73271e-05
3.82003e-05
-7.76362e-05
7.78714e-05
-4.89486e-05
0.000135286
3.55027e-06
0.000212317
7.5833e-05
0.000310346
0.00016466
0.000430173
0.000267263
0.000571926
0.000381114
0.00073501
0.000503773
0.000918091
0.000632822
0.00111915
0.000765872
0.00133559
0.000900602
0.00156436
0.00103485
0.00180214
0.00116668
0.00204547
0.00129453
0.00229081
0.0014172
0.0025347
0.00153395
0.00277382
0.00164433
0.00174133
0.00300693
1.54273e-06
-4.26335e-05
1.02885e-05
-8.60729e-05
2.93834e-05
-9.67311e-05
6.13871e-05
-8.09523e-05
0.000108473
-4.35359e-05
0.000172491
1.18155e-05
0.000254955
8.21953e-05
0.000356997
0.000165222
0.000479293
0.000258818
0.000622007
0.000361058
0.000784753
0.000470077
0.000966594
0.00058403
0.00116609
0.000701107
0.00138136
0.000819572
0.00161021
0.000937843
0.00185015
0.00105459
0.00209853
0.00116882
0.00235249
0.00127999
0.00260904
0.00138777
0.00148377
0.0028666
8.70156e-07
-4.35037e-05
7.201e-06
-9.24037e-05
2.1842e-05
-0.000111372
4.71112e-05
-0.000106221
8.49909e-05
-8.14155e-05
0.000137212
-4.04052e-05
0.000205275
1.4132e-05
0.000290436
8.00608e-05
0.000393662
0.000155592
0.000515588
0.000239132
0.000656484
0.000329182
0.000816239
0.000424275
0.000994388
0.000522958
0.00119016
0.000623799
0.00140257
0.000725438
0.00163048
0.000826675
0.00187272
0.000926579
0.0021281
0.00102461
0.00239522
0.00112065
0.00120705
0.00267194
3.20701e-07
-4.38244e-05
4.60588e-06
-9.66889e-05
1.54118e-05
-0.000122178
3.48117e-05
-0.000125621
6.4575e-05
-0.000111179
0.000106261
-8.20908e-05
0.00016126
-4.08676e-05
0.000230805
1.05163e-05
0.000315948
7.04479e-05
0.000417543
0.000137537
0.000536219
0.000210506
0.000672376
0.000288118
0.000826216
0.000369118
0.000997806
0.000452209
0.0011872
0.00053604
0.00139465
0.000619224
0.00162091
0.000700325
0.00186771
0.000777806
0.00213805
0.000850311
0.000914225
0.00243088
-1.34126e-07
-4.36902e-05
2.41237e-06
-9.92354e-05
9.91904e-06
-0.000129685
2.42251e-05
-0.000139927
4.68863e-05
-0.00013384
7.92678e-05
-0.000114472
0.000122597
-8.41966e-05
0.000177985
-4.48714e-05
0.000246425
2.00773e-06
0.000328782
5.5179e-05
0.000425781
0.000113508
0.000538
0.000175899
0.000665897
0.000241221
0.000809879
0.000308228
0.000970446
0.000375473
0.00114849
0.000441175
0.00134586
0.000502959
0.00156659
0.000557073
0.00182081
0.00059609
0.000604213
0.00213083
-5.18233e-07
-4.3172e-05
5.40243e-07
-0.000100294
5.20415e-06
-0.000134349
1.50989e-05
-0.000149822
3.15796e-05
-0.000150321
5.58178e-05
-0.000138711
8.88566e-05
-0.000117235
0.000131637
-8.76523e-05
0.000185006
-5.1361e-05
0.000249704
-9.51909e-06
0.00032635
3.68616e-05
0.000415418
8.68316e-05
0.000517207
0.000139431
0.000631814
0.000193621
0.000759076
0.000248211
0.00089847
0.000301781
0.00104886
0.00035257
0.00120764
0.000398294
0.00136772
0.000436005
0.00046498
0.00150696
-8.51542e-07
-4.23205e-05
-1.07735e-06
-0.000100068
1.13231e-06
-0.000136558
7.21511e-06
-0.000155905
1.83483e-05
-0.000161454
3.55269e-05
-0.000155889
5.96165e-05
-0.000141325
9.1382e-05
-0.000119418
0.000131496
-9.14748e-05
0.000180531
-5.8554e-05
0.000238938
-2.15458e-05
0.000307014
1.8756e-05
0.00038485
6.1595e-05
0.000472269
0.000106202
0.000568734
0.000151746
0.000673229
0.000197286
0.000784129
0.00024167
0.000899048