/*--------------------------------*- C++ -*----------------------------------*\
  =========                 |
  \\      /  F ield         | OpenFOAM: The Open Source CFD Toolbox
   \\    /   O peration     | Website:  https://openfoam.org
    \\  /    A nd           | Version:  6.0
     \\/     M anipulation  |
\*---------------------------------------------------------------------------*/
FoamFile
{
    version     2.0;
    format      ascii;
    class       volScalarField;
    location    "93";
    object      p;
}
// * * * * * * * * * * * * * * * * * * * * * * * * * * * * * * * * * * * * * //

dimensions      [0 2 -2 0 0 0 0];

internalField   nonuniform List<scalar> 
4000
(
-0.426701
-0.427001
-0.426999
-0.42684
-0.426744
-0.426848
-0.42722
-0.427877
-0.428807
-0.429984
-0.43138
-0.432974
-0.434748
-0.43669
-0.438792
-0.441049
-0.443453
-0.445958
-0.448526
-0.45152
-0.420667
-0.421494
-0.421774
-0.421774
-0.421776
-0.421915
-0.422256
-0.422811
-0.423565
-0.42449
-0.425563
-0.426762
-0.428076
-0.429497
-0.431022
-0.432656
-0.434395
-0.436179
-0.437966
-0.440324
-0.414512
-0.415882
-0.416446
-0.416603
-0.416698
-0.416864
-0.41716
-0.417595
-0.41815
-0.418797
-0.419512
-0.420278
-0.421087
-0.421937
-0.422832
-0.423784
-0.424797
-0.425795
-0.426734
-0.428397
-0.408403
-0.410317
-0.411163
-0.411474
-0.411657
-0.411842
-0.41208
-0.412378
-0.412713
-0.413056
-0.413383
-0.41368
-0.413942
-0.414172
-0.414383
-0.414596
-0.414823
-0.414973
-0.415005
-0.415917
-0.402524
-0.404969
-0.406089
-0.406548
-0.406812
-0.407006
-0.407176
-0.407322
-0.407418
-0.407433
-0.407343
-0.407135
-0.406807
-0.406369
-0.405841
-0.405258
-0.404638
-0.40388
-0.402952
-0.403056
-0.39707
-0.400015
-0.401393
-0.401992
-0.402331
-0.402526
-0.402617
-0.402599
-0.402441
-0.402109
-0.401575
-0.400826
-0.399866
-0.398708
-0.397383
-0.39594
-0.394407
-0.392679
-0.390735
-0.389974
-0.392237
-0.395634
-0.397248
-0.397976
-0.398381
-0.398572
-0.398578
-0.398389
-0.397967
-0.397271
-0.39627
-0.394951
-0.393315
-0.391383
-0.389197
-0.386821
-0.3843
-0.381529
-0.378511
-0.376824
-0.388213
-0.391993
-0.393812
-0.394657
-0.395123
-0.395307
-0.395229
-0.394869
-0.394181
-0.393116
-0.391635
-0.389718
-0.387366
-0.384606
-0.381488
-0.378097
-0.374497
-0.370595
-0.366429
-0.363752
-0.385163
-0.389235
-0.391222
-0.392172
-0.392695
-0.392877
-0.392723
-0.392204
-0.391261
-0.389834
-0.387872
-0.385344
-0.382246
-0.378605
-0.374481
-0.369981
-0.365194
-0.360049
-0.354641
-0.350902
-0.383213
-0.387471
-0.389582
-0.390624
-0.391205
-0.391393
-0.391182
-0.390528
-0.389357
-0.387593
-0.385167
-0.382033
-0.378175
-0.373613
-0.368414
-0.362704
-0.356604
-0.350076
-0.343292
-0.338402
-0.382443
-0.386765
-0.388951
-0.390069
-0.39071
-0.390921
-0.390679
-0.389924
-0.388566
-0.386508
-0.383658
-0.379949
-0.375342
-0.369842
-0.363515
-0.356501
-0.348951
-0.340868
-0.332521
-0.326356
-0.382874
-0.38713
-0.389334
-0.390511
-0.391213
-0.391464
-0.391221
-0.390406
-0.388912
-0.386616
-0.383403
-0.379173
-0.373859
-0.36744
-0.359963
-0.351573
-0.342445
-0.332613
-0.32246
-0.31484
-0.384465
-0.388523
-0.390685
-0.391897
-0.392654
-0.392955
-0.392736
-0.391902
-0.390321
-0.387849
-0.384341
-0.379665
-0.373714
-0.366431
-0.35783
-0.348039
-0.33724
-0.325481
-0.313231
-0.303906
-0.387116
-0.39085
-0.392906
-0.394119
-0.394914
-0.395263
-0.395081
-0.39425
-0.39262
-0.390023
-0.386284
-0.381236
-0.374733
-0.366672
-0.35702
-0.345868
-0.33338
-0.319577
-0.304955
-0.293606
-0.390679
-0.393976
-0.395857
-0.397027
-0.397827
-0.398203
-0.398046
-0.39722
-0.395552
-0.392853
-0.388922
-0.383561
-0.376585
-0.367843
-0.357251
-0.344843
-0.330743
-0.314907
-0.297745
-0.284032
-0.394976
-0.397743
-0.39938
-0.400448
-0.401202
-0.40156
-0.401392
-0.40054
-0.398814
-0.396003
-0.391885
-0.386234
-0.378836
-0.369502
-0.358094
-0.344588
-0.329055
-0.31137
-0.291725
-0.275368
-0.399814
-0.401983
-0.403308
-0.404206
-0.404845
-0.405119
-0.404877
-0.403942
-0.402106
-0.399141
-0.394806
-0.388857
-0.381059
-0.371196
-0.359093
-0.344674
-0.327965
-0.308785
-0.287006
-0.267877
-0.405014
-0.406542
-0.407491
-0.408144
-0.408586
-0.408693
-0.408298
-0.407203
-0.405185
-0.402003
-0.397404
-0.391132
-0.382941
-0.3726
-0.359914
-0.344766
-0.327144
-0.306853
-0.283416
-0.261498
-0.410424
-0.411293
-0.411811
-0.412139
-0.412297
-0.412148
-0.411509
-0.41017
-0.407894
-0.404433
-0.399527
-0.392922
-0.384372
-0.373652
-0.360564
-0.344959
-0.32676
-0.305685
-0.280852
-0.256048
-0.415937
-0.41615
-0.416188
-0.416119
-0.415907
-0.415411
-0.414442
-0.412776
-0.410174
-0.406382
-0.401149
-0.394234
-0.385422
-0.374533
-0.361427
-0.346014
-0.328236
-0.307731
-0.283311
-0.257688
-0.421497
-0.42107
-0.420591
-0.420059
-0.4194
-0.418477
-0.417097
-0.415035
-0.412048
-0.407887
-0.402317
-0.39513
-0.386164
-0.375324
-0.362603
-0.348114
-0.332113
-0.314974
-0.297833
-0.28648
-0.427103
-0.426054
-0.42503
-0.423981
-0.422811
-0.421394
-0.41954
-0.417023
-0.413602
-0.40904
-0.403123
-0.39568
-0.386606
-0.375886
-0.363613
-0.350017
-0.335487
-0.320603
-0.306465
-0.296569
-0.432797
-0.431145
-0.429555
-0.427949
-0.42622
-0.424257
-0.421878
-0.418859
-0.414964
-0.409968
-0.403682
-0.395972
-0.386787
-0.376172
-0.364285
-0.351403
-0.33793
-0.324383
-0.311436
-0.300823
-0.43866
-0.436411
-0.434241
-0.432051
-0.429731
-0.427186
-0.424243
-0.420681
-0.41627
-0.410799
-0.404103
-0.396083
-0.386731
-0.376132
-0.364476
-0.35204
-0.339175
-0.326273
-0.313729
-0.302415
-0.444794
-0.441943
-0.439179
-0.43639
-0.433458
-0.430306
-0.426766
-0.42262
-0.417645
-0.411643
-0.404472
-0.396069
-0.386456
-0.375753
-0.364156
-0.351928
-0.339364
-0.326755
-0.314352
-0.302584
-0.451309
-0.447832
-0.444465
-0.441068
-0.437513
-0.433732
-0.429562
-0.424785
-0.419183
-0.412574
-0.404843
-0.395958
-0.385976
-0.375036
-0.363344
-0.351142
-0.338684
-0.326203
-0.313882
-0.301959
-0.458304
-0.454166
-0.450183
-0.446174
-0.441986
-0.437554
-0.432713
-0.427243
-0.420934
-0.413624
-0.405229
-0.395752
-0.385284
-0.373987
-0.362072
-0.349768
-0.337302
-0.32487
-0.312623
-0.300712
-0.465861
-0.461015
-0.456403
-0.451779
-0.446945
-0.44183
-0.436262
-0.43002
-0.422904
-0.414782
-0.405607
-0.395424
-0.384361
-0.372604
-0.360368
-0.347875
-0.335331
-0.322907
-0.31073
-0.298918
-0.47403
-0.468427
-0.463172
-0.457925
-0.452423
-0.44658
-0.44021
-0.433093
-0.425053
-0.415994
-0.40592
-0.394924
-0.383172
-0.370873
-0.358247
-0.345507
-0.332838
-0.32039
-0.308267
-0.296566
-0.48283
-0.476422
-0.470509
-0.464626
-0.458421
-0.451782
-0.444512
-0.436399
-0.4273
-0.417176
-0.406088
-0.394185
-0.381671
-0.368772
-0.355711
-0.342686
-0.329859
-0.317356
-0.30526
-0.293643
-0.492242
-0.484988
-0.478402
-0.471862
-0.4649
-0.457375
-0.449082
-0.439831
-0.429533
-0.418216
-0.406014
-0.39313
-0.379803
-0.366271
-0.352748
-0.339414
-0.326406
-0.313821
-0.301719
-0.290144
-0.50221
-0.49408
-0.48681
-0.479578
-0.471786
-0.463259
-0.453796
-0.443251
-0.43161
-0.418986
-0.405589
-0.391675
-0.377509
-0.363329
-0.349337
-0.335683
-0.322476
-0.309787
-0.297645
-0.286072
-0.51264
-0.503621
-0.495653
-0.487682
-0.478962
-0.46929
-0.458491
-0.446491
-0.433372
-0.419348
-0.404702
-0.389735
-0.374725
-0.359904
-0.345445
-0.331471
-0.318057
-0.305245
-0.293036
-0.281434
-0.523399
-0.513494
-0.504816
-0.496041
-0.48627
-0.475286
-0.462974
-0.449362
-0.434652
-0.419159
-0.403238
-0.387221
-0.371386
-0.355943
-0.341034
-0.326747
-0.313124
-0.300181
-0.287886
-0.276237
-0.534314
-0.523544
-0.514139
-0.504479
-0.493508
-0.481031
-0.467028
-0.451663
-0.435274
-0.418278
-0.401087
-0.384048
-0.367423
-0.351391
-0.336057
-0.321472
-0.307647
-0.294571
-0.282181
-0.270481
-0.545174
-0.533576
-0.523425
-0.512777
-0.500441
-0.486281
-0.47042
-0.453189
-0.435069
-0.416571
-0.398143
-0.380129
-0.362764
-0.346186
-0.33046
-0.3156
-0.301588
-0.288385
-0.275901
-0.264157
-0.555729
-0.543359
-0.532434
-0.520677
-0.506797
-0.49077
-0.472909
-0.453736
-0.433872
-0.413905
-0.394299
-0.375378
-0.357335
-0.340264
-0.324186
-0.30908
-0.294902
-0.281588
-0.269019
-0.25725
-0.565696
-0.552617
-0.540883
-0.527881
-0.512274
-0.494212
-0.474244
-0.453095
-0.431517
-0.410148
-0.389448
-0.369702
-0.351055
-0.333549
-0.317166
-0.301852
-0.287538
-0.274137
-0.261502
-0.249736
-0.574758
-0.561047
-0.548458
-0.534065
-0.516556
-0.496323
-0.474187
-0.451077
-0.427854
-0.405181
-0.38349
-0.363014
-0.343843
-0.32597
-0.309337
-0.293859
-0.279446
-0.265987
-0.253314
-0.241585
-0.582578
-0.568319
-0.554826
-0.538901
-0.519342
-0.49685
-0.472538
-0.44753
-0.422766
-0.398909
-0.376344
-0.355243
-0.335635
-0.317468
-0.300644
-0.285052
-0.270582
-0.257104
-0.244427
-0.232778
-0.703105
-0.687306
-0.672316
-0.654301
-0.631816
-0.605758
-0.577575
-0.548702
-0.520291
-0.493114
-0.467584
-0.44386
-0.421934
-0.401711
-0.383056
-0.36582
-0.349865
-0.335031
-0.321095
-0.3083
-0.691362
-0.676102
-0.662173
-0.64606
-0.626142
-0.602901
-0.577408
-0.550869
-0.524356
-0.49866
-0.474262
-0.451393
-0.430114
-0.410384
-0.392105
-0.375158
-0.359423
-0.344762
-0.330976
-0.318227
-0.678133
-0.663498
-0.650542
-0.636134
-0.618596
-0.598075
-0.575287
-0.551184
-0.526721
-0.502672
-0.479561
-0.457686
-0.437175
-0.41804
-0.400225
-0.383644
-0.368198
-0.353772
-0.340192
-0.327553
-0.663816
-0.649886
-0.637826
-0.624927
-0.60955
-0.591596
-0.571464
-0.549846
-0.527542
-0.505276
-0.483593
-0.462842
-0.44321
-0.424765
-0.407498
-0.391354
-0.376259
-0.362125
-0.348803
-0.336332
-0.64878
-0.635629
-0.624403
-0.612819
-0.599361
-0.583771
-0.566184
-0.547036
-0.526955
-0.506581
-0.486448
-0.46694
-0.448294
-0.430632
-0.41399
-0.398351
-0.383668
-0.369877
-0.35686
-0.344611
-0.633366
-0.621057
-0.610612
-0.600162
-0.588372
-0.574903
-0.559689
-0.542938
-0.525094
-0.506684
-0.488204
-0.470048
-0.452492
-0.435703
-0.419764
-0.404695
-0.390479
-0.377079
-0.364407
-0.35243
-0.617877
-0.606464
-0.596761
-0.587287
-0.576919
-0.565304
-0.552244
-0.53776
-0.522112
-0.505698
-0.488947
-0.472238
-0.455868
-0.44004
-0.424878
-0.410442
-0.396747
-0.383782
-0.371492
-0.35983
-0.602576
-0.592097
-0.58311
-0.574479
-0.565305
-0.555275
-0.54412
-0.53172
-0.518174
-0.503743
-0.488764
-0.473577
-0.458479
-0.443696
-0.429386
-0.415645
-0.402522
-0.390032
-0.378156
-0.366843
-0.587678
-0.578159
-0.569869
-0.561975
-0.553796
-0.54509
-0.535573
-0.525038
-0.513451
-0.50094
-0.487738
-0.474125
-0.460373
-0.446714
-0.433329
-0.420346
-0.407844
-0.395868
-0.384431
-0.373494
-0.573357
-0.564806
-0.557201
-0.549963
-0.54261
-0.534989
-0.526843
-0.517927
-0.508114
-0.497415
-0.485957
-0.473939
-0.461589
-0.449125
-0.436738
-0.424575
-0.412745
-0.401321
-0.390344
-0.379798
-0.559741
-0.552153
-0.545224
-0.538579
-0.531916
-0.52517
-0.518143
-0.510592
-0.502337
-0.4933
-0.483508
-0.473073
-0.462159
-0.450951
-0.43963
-0.428352
-0.417247
-0.406411
-0.395915
-0.385767
-0.546921
-0.540278
-0.534011
-0.527912
-0.52183
-0.515785
-0.509648
-0.503213
-0.496285
-0.488728
-0.480487
-0.471586
-0.462115
-0.452207
-0.442015
-0.431688
-0.421363
-0.411156
-0.40116
-0.391405
-0.534958
-0.529228
-0.523603
-0.518013
-0.512426
-0.506937
-0.501495
-0.495947
-0.490115
-0.483836
-0.476996
-0.469544
-0.461492
-0.452907
-0.443896
-0.434584
-0.4251
-0.415567
-0.406097
-0.396731
-0.523889
-0.519026
-0.514017
-0.508897
-0.503736
-0.498691
-0.49378
-0.488918
-0.483962
-0.478754
-0.473145
-0.467025
-0.460334
-0.45307
-0.445277
-0.437039
-0.42846
-0.419656
-0.410748
-0.401773
-0.513736
-0.509684
-0.505251
-0.500561
-0.495768
-0.491074
-0.486565
-0.482219
-0.477945
-0.473607
-0.469048
-0.46412
-0.458704
-0.452727
-0.446169
-0.439054
-0.431447
-0.42344
-0.415152
-0.406607
-0.504519
-0.501207
-0.497298
-0.492994
-0.488513
-0.484098
-0.479886
-0.47592
-0.472162
-0.468513
-0.464826
-0.460935
-0.456681
-0.45193
-0.446595
-0.440636
-0.434063
-0.426927
-0.419337
-0.411303
-0.49626
-0.4936
-0.490155
-0.486186
-0.481966
-0.477767
-0.473772
-0.470078
-0.466702
-0.463584
-0.460602
-0.457592
-0.454369
-0.450757
-0.446604
-0.441807
-0.436313
-0.430125
-0.423335
-0.416028
-0.48898
-0.486871
-0.48382
-0.480135
-0.476128
-0.472094
-0.468254
-0.464751
-0.46165
-0.458933
-0.45651
-0.45423
-0.4519
-0.449314
-0.446272
-0.442606
-0.4382
-0.433002
-0.427079
-0.420741
-0.482701
-0.481026
-0.478297
-0.474845
-0.471011
-0.467104
-0.463375
-0.460005
-0.4571
-0.454682
-0.452693
-0.451004
-0.449429
-0.447745
-0.445714
-0.44311
-0.439747
-0.435503
-0.430418
-0.42547
-0.477428
-0.476063
-0.473583
-0.470322
-0.466631
-0.462828
-0.459187
-0.455917
-0.453156
-0.450961
-0.449307
-0.44809
-0.447139
-0.446228
-0.445093
-0.443455
-0.441043
-0.4376
-0.43294
-0.429164
-0.473148
-0.471963
-0.469664
-0.466561
-0.462997
-0.459294
-0.455737
-0.452557
-0.449917
-0.4479
-0.446509
-0.445668
-0.445227
-0.444969
-0.444619
-0.443851
-0.442301
-0.43951
-0.434613
-0.427847
-0.46981
-0.468682
-0.466503
-0.463535
-0.460097
-0.456506
-0.453053
-0.44998
-0.447464
-0.445609
-0.444442
-0.443912
-0.443895
-0.444198
-0.444564
-0.444674
-0.444172
-0.442659
-0.43941
-0.43436
-0.46733
-0.466149
-0.464039
-0.461193
-0.45789
-0.454438
-0.451124
-0.448195
-0.445834
-0.444157
-0.443206
-0.442953
-0.443301
-0.444091
-0.445101
-0.446056
-0.446645
-0.446514
-0.444979
-0.442288
-0.465592
-0.464268
-0.462186
-0.459455
-0.456304
-0.453025
-0.449899
-0.447166
-0.44501
-0.443549
-0.442835
-0.442854
-0.443535
-0.444748
-0.446313
-0.448002
-0.449555
-0.450649
-0.450648
-0.450233
-0.46445
-0.46292
-0.460838
-0.45822
-0.455241
-0.452174
-0.449287
-0.446809
-0.444918
-0.443726
-0.443288
-0.443601
-0.444607
-0.446206
-0.448253
-0.450567
-0.452947
-0.455122
-0.456584
-0.458279
-0.463748
-0.461977
-0.45988
-0.457378
-0.454589
-0.451769
-0.449169
-0.447003
-0.445435
-0.44457
-0.444458
-0.445098
-0.446445
-0.448417
-0.4509
-0.453757
-0.45684
-0.459942
-0.46272
-0.466165
-0.463324
-0.461308
-0.459191
-0.45681
-0.45423
-0.451686
-0.449412
-0.447604
-0.446409
-0.445919
-0.446176
-0.447179
-0.448887
-0.451233
-0.454124
-0.457459
-0.461128
-0.464982
-0.468834
-0.473551
-0.463021
-0.460781
-0.458654
-0.456403
-0.454044
-0.451798
-0.449877
-0.448456
-0.447665
-0.447581
-0.448236
-0.449623
-0.451705
-0.454421
-0.457696
-0.461448
-0.465596
-0.470033
-0.47468
-0.480204
-0.462697
-0.460275
-0.458157
-0.456045
-0.453918
-0.451978
-0.45042
-0.449398
-0.449021
-0.449351
-0.450408
-0.45218
-0.454627
-0.457695
-0.461317
-0.465425
-0.469951
-0.474815
-0.480008
-0.485965
-0.462222
-0.459675
-0.457592
-0.45563
-0.453737
-0.452103
-0.450904
-0.450271
-0.450295
-0.451021
-0.452459
-0.454589
-0.45737
-0.460749
-0.464666
-0.469059
-0.473867
-0.479026
-0.484563
-0.490698
-0.461483
-0.458878
-0.456859
-0.455056
-0.453396
-0.452057
-0.451195
-0.450924
-0.451315
-0.452398
-0.454171
-0.456609
-0.45967
-0.4633
-0.467443
-0.472042
-0.477037
-0.482379
-0.488108
-0.494264
-0.46038
-0.457789
-0.455867
-0.454229
-0.452795
-0.451729
-0.451173
-0.451221
-0.451927
-0.453309
-0.455354
-0.458033
-0.461302
-0.465108
-0.469399
-0.474119
-0.479212
-0.48464
-0.490448
-0.49653
-0.458833
-0.456327
-0.454533
-0.453065
-0.451843
-0.451022
-0.45073
-0.451044
-0.452004
-0.453616
-0.45586
-0.458702
-0.462098
-0.465998
-0.470352
-0.475109
-0.480215
-0.485641
-0.491435
-0.497381
-0.456775
-0.454425
-0.452786
-0.451489
-0.450463
-0.449855
-0.449781
-0.450304
-0.451452
-0.45322
-0.455585
-0.458509
-0.461949
-0.465859
-0.470192
-0.474902
-0.479939
-0.485283
-0.490978
-0.49674
-0.454158
-0.45203
-0.450573
-0.449446
-0.448596
-0.448167
-0.448264
-0.448939
-0.450208
-0.45206
-0.454469
-0.457395
-0.460799
-0.464638
-0.46887
-0.473452
-0.47834
-0.483523
-0.489035
-0.494565
-0.450954
-0.44911
-0.447856
-0.446895
-0.446204
-0.445922
-0.446145
-0.446917
-0.448245
-0.450115
-0.452495
-0.45535
-0.458641
-0.462331
-0.466383
-0.47076
-0.475423
-0.480366
-0.485608
-0.490858
-0.447156
-0.445652
-0.444619
-0.443823
-0.443273
-0.443108
-0.443418
-0.444238
-0.44557
-0.447395
-0.449682
-0.452397
-0.455505
-0.458974
-0.462772
-0.466867
-0.471229
-0.475849
-0.480734
-0.485651
-0.442779
-0.441664
-0.44087
-0.440235
-0.439812
-0.439741
-0.440103
-0.440929
-0.442217
-0.443944
-0.44608
-0.448592
-0.451452
-0.454631
-0.458104
-0.461844
-0.465828
-0.470042
-0.474479
-0.479007
-0.437862
-0.437183
-0.436641
-0.436165
-0.435859
-0.43586
-0.436247
-0.437044
-0.438246
-0.439828
-0.441761
-0.444016
-0.446567
-0.449393
-0.452472
-0.455786
-0.459315
-0.46304
-0.46694
-0.471019
-0.432473
-0.432267
-0.43199
-0.431673
-0.431474
-0.431533
-0.431921
-0.432661
-0.433741
-0.435138
-0.436822
-0.438769
-0.440957
-0.443369
-0.44599
-0.448808
-0.45181
-0.454964
-0.458239
-0.461807
-0.495985
-0.460263
-0.258114
-0.0957637
-0.189116
-0.092036
-0.0682725
-0.0821129
-0.144265
-0.10443
-0.0853597
-0.0686195
-0.0960702
-0.0931895
-0.0927691
-0.0608696
-0.0431381
-0.0614469
-0.0629243
-0.0198594
-0.481891
-0.444396
-0.256397
-0.106826
-0.189901
-0.091624
-0.0699935
-0.0855318
-0.14751
-0.105615
-0.0858866
-0.0660713
-0.0932985
-0.0908677
-0.0902605
-0.0610053
-0.0437377
-0.0632736
-0.0653037
-0.0205346
-0.466304
-0.427216
-0.254592
-0.11976
-0.190503
-0.0911282
-0.0714641
-0.0888411
-0.15061
-0.106736
-0.0862382
-0.0634777
-0.0903988
-0.0885203
-0.0876936
-0.0610673
-0.0442744
-0.0650463
-0.0676221
-0.0212152
-0.449324
-0.40924
-0.25266
-0.133823
-0.191004
-0.0905335
-0.072646
-0.0920062
-0.153516
-0.10779
-0.0864165
-0.0608649
-0.0873966
-0.0861585
-0.0850813
-0.0610539
-0.0447465
-0.0667531
-0.0698641
-0.0218995
-0.431026
-0.390879
-0.250498
-0.148139
-0.191418
-0.0898274
-0.0735069
-0.0949952
-0.156178
-0.108771
-0.0864271
-0.0582574
-0.0843179
-0.0837927
-0.0824357
-0.0609645
-0.0451524
-0.0683814
-0.072014
-0.0225857
-0.411481
-0.372413
-0.248021
-0.161886
-0.19171
-0.0889993
-0.0740213
-0.0977792
-0.158543
-0.109676
-0.0862773
-0.0556785
-0.0811883
-0.0814325
-0.0797676
-0.0607991
-0.0454914
-0.0699187
-0.0740568
-0.0232722
-0.390804
-0.354015
-0.245225
-0.174459
-0.191825
-0.0880416
-0.0741714
-0.100332
-0.160563
-0.110499
-0.0859755
-0.0531516
-0.0780327
-0.0790864
-0.0770868
-0.0605584
-0.0457632
-0.0713528
-0.0759773
-0.0239571
-0.369214
-0.335809
-0.242229
-0.185533
-0.191707
-0.0869497
-0.0739467
-0.102628
-0.16219
-0.111234
-0.0855315
-0.0506984
-0.0748749
-0.0767624
-0.0744023
-0.0602438
-0.0459681
-0.0726716
-0.0777611
-0.0246386
-0.347074
-0.317913
-0.239258
-0.19504
-0.191319
-0.0857215
-0.0733447
-0.104643
-0.163381
-0.111875
-0.0849561
-0.0483387
-0.0717373
-0.0744674
-0.0717217
-0.0598571
-0.0461068
-0.0738636
-0.0793946
-0.0253148
-0.32488
-0.300458
-0.236575
-0.203086
-0.190641
-0.0843566
-0.0723703
-0.106356
-0.164101
-0.112414
-0.0842603
-0.0460906
-0.0686406
-0.0722075
-0.069052
-0.059401
-0.0461808
-0.0749179
-0.0808652
-0.0259839
-0.303218
-0.283577
-0.234409
-0.209861
-0.189669
-0.0828582
-0.0710359
-0.107745
-0.164322
-0.112843
-0.0834553
-0.04397
-0.0656037
-0.069988
-0.0663994
-0.0588791
-0.046192
-0.0758246
-0.0821616
-0.0266442
-0.282692
-0.267391
-0.232893
-0.215567
-0.188425
-0.0812425
-0.0693579
-0.108795
-0.164026
-0.113154
-0.082552
-0.0419906
-0.0626436
-0.0678132
-0.0637695
-0.0582957
-0.0461426
-0.0765751
-0.0832742
-0.027294
-0.26387
-0.252001
-0.232037
-0.220382
-0.186959
-0.0795463
-0.0673535
-0.109486
-0.16321
-0.113335
-0.0815604
-0.0401636
-0.0597751
-0.065687
-0.0611664
-0.0576517
-0.0460353
-0.0771616
-0.0841951
-0.0279316
-0.247237
-0.237497
-0.231744
-0.224445
-0.185321
-0.0777947
-0.0650438
-0.109792
-0.16188
-0.113377
-0.08049
-0.0384974
-0.0570108
-0.0636122
-0.0585914
-0.0569417
-0.0458728
-0.077577
-0.0849183
-0.0285557
-0.233147
-0.223981
-0.231849
-0.227855
-0.183477
-0.0759148
-0.0624789
-0.109712
-0.160056
-0.113269
-0.0793492
-0.036998
-0.0543619
-0.0615918
-0.0560461
-0.0561641
-0.0456597
-0.0778157
-0.0854396
-0.0291648
-0.22177
-0.211585
-0.232171
-0.230667
-0.181271
-0.0737466
-0.0597665
-0.10936
-0.157768
-0.112999
-0.0781454
-0.0356686
-0.0518396
-0.059628
-0.0535436
-0.0553617
-0.0454012
-0.077879
-0.0857571
-0.0297579
-0.213108
-0.200456
-0.232547
-0.23295
-0.178821
-0.0714569
-0.0570007
-0.108905
-0.155074
-0.112556
-0.0768847
-0.034509
-0.0494495
-0.0577201
-0.0511206
-0.0546425
-0.0450947
-0.0777787
-0.0858718
-0.0303341
-0.207159
-0.190717
-0.232835
-0.234949
-0.177247
-0.0700896
-0.0539726
-0.108029
-0.15208
-0.111945
-0.075572
-0.0335161
-0.0471696
-0.0558582
-0.0487914
-0.0540026
-0.0447272
-0.0775075
-0.0857904
-0.0308922
-0.203477
-0.182373
-0.232843
-0.237034
-0.177766
-0.0704222
-0.0500181
-0.105441
-0.148769
-0.1112
-0.0742218
-0.0326864
-0.0449797
-0.0540423
-0.0463792
-0.0528716
-0.0443337
-0.0769695
-0.0855149
-0.0314313
-0.199172
-0.1754
-0.232467
-0.23861
-0.176801
-0.0688925
-0.0452321
-0.100991
-0.144529
-0.110019
-0.0728246
-0.0320615
-0.0431415
-0.0523654
-0.0434486
-0.0501949
-0.0441013
-0.0760457
-0.084985
-0.0319726
-0.17028
-0.140322
-0.223311
-0.241555
-0.154018
-0.0429132
-0.0202921
-0.0761876
-0.112538
-0.0947113
-0.0595374
-0.0303149
-0.0364785
-0.044069
-0.0244576
-0.0299995
-0.0431347
-0.0693542
-0.08035
-0.0355506
-0.144236
-0.147582
-0.19432
-0.19349
-0.112493
-0.0115513
0.0106017
-0.0196254
-0.042286
-0.0484419
-0.0329282
-0.0209527
-0.0339822
-0.0332675
-0.00909677
-0.00575767
-0.0225165
-0.0488087
-0.0656807
-0.0295729
-0.127489
-0.132691
-0.134571
-0.122791
-0.086059
-0.022936
0.00738854
0.0185138
0.0211025
0.00139063
-0.00823426
-0.0135829
-0.0217554
-0.0153527
-0.00142222
0.0064194
-0.00291331
-0.0228147
-0.0386671
-0.0158118
-0.0990704
-0.094891
-0.0918065
-0.0985753
-0.0692125
-0.00561557
0.0239322
0.0277104
0.0309232
0.0181849
0.00298121
-0.00800906
-0.00852404
-0.000906642
0.00863091
0.0195276
0.0132623
0.00394335
-0.00713007
-0.00209854
-0.0699646
-0.0720585
-0.0738649
-0.0705273
-0.0457546
-0.000592953
0.0246235
0.0276463
0.0283213
0.0228633
0.0119691
0.00389095
0.00524964
0.00705837
0.0089783
0.0212037
0.0220233
0.0226869
0.0154021
0.00615968
-0.0508529
-0.0565032
-0.054365
-0.0477688
-0.0318823
-0.00105677
0.0194871
0.0237722
0.0270379
0.0271543
0.0166023
0.00610706
0.00894611
0.0136628
0.0152945
0.0225015
0.0228549
0.0252461
0.0198057
0.00660201
-0.0365097
-0.041339
-0.0384756
-0.0340402
-0.0249333
-0.00274512
0.0172481
0.0229995
0.0238508
0.0228979
0.0164458
0.0103571
0.0136928
0.0167483
0.0162491
0.0204194
0.0213204
0.0220354
0.0176069
0.00604203
-0.0249073
-0.0289666
-0.0283078
-0.0260549
-0.0180124
-0.00024656
0.0154007
0.0184359
0.0179593
0.0203013
0.0189356
0.0131836
0.0136116
0.016353
0.0162946
0.0183261
0.0192232
0.0181871
0.0142903
0.00545923
-0.0160688
-0.0203172
-0.0209052
-0.0179901
-0.0109037
0.000465758
0.0109526
0.0146659
0.0164116
0.0195454
0.0183384
0.0128731
0.0129041
0.016169
0.0161887
0.0164128
0.0167962
0.0146616
0.011111
0.00475314
-0.00955913
-0.0135076
-0.0137967
-0.0113165
-0.00709957
0.000105277
0.00901396
0.0140014
0.0153243
0.0165913
0.0162062
0.0131626
0.0132122
0.0157491
0.0152412
0.0141666
0.0141518
0.0121627
0.00900047
0.00399036
-0.00436868
-0.0076462
-0.00817515
-0.00709799
-0.00429052
0.00156059
0.00881692
0.0125541
0.012906
0.0141906
0.0155331
0.0139189
0.0128748
0.0141986
0.0137905
0.012462
0.0123657
0.0106706
0.00736904
0.00304659
-0.0001183
-0.0030506
-0.00409684
-0.0035445
-0.00109542
0.00316278
0.00785899
0.0106683
0.0117847
0.0135379
0.0148678
0.0133292
0.0118053
0.0128967
0.0130079
0.011503
0.0108794
0.00916317
0.00595573
0.00236347
0.00330524
0.000546982
-0.000615317
-0.000214764
0.00136609
0.00388148
0.00718192
0.0101045
0.0116202
0.0125995
0.0132931
0.0124774
0.0114882
0.012284
0.0122448
0.0104221
0.00933276
0.00787429
0.00513266
0.0019866
0.00615545
0.00360724
0.00239328
0.00231765
0.00300542
0.00472239
0.00745508
0.00990411
0.0108982
0.011377
0.0122625
0.0123065
0.0113865
0.0113673
0.0111262
0.00949538
0.00833125
0.00708366
0.0045854
0.00164102
0.00866944
0.0062191
0.00475941
0.0042226
0.00452655
0.00581813
0.00772378
0.00934859
0.0102095
0.0109032
0.0118396
0.0119089
0.0108204
0.0104328
0.0103421
0.00904481
0.00770561
0.00634639
0.00404268
0.00139964
0.0109294
0.00838691
0.00664822
0.00586193
0.00589976
0.00660793
0.00776169
0.00905104
0.0100792
0.0107136
0.0111842
0.0111698
0.0104234
0.0100469
0.00986058
0.00858798
0.00702421
0.00566693
0.00372133
0.00131513
0.0130195
0.010203
0.00821194
0.00718962
0.00689192
0.00715925
0.00797882
0.00909925
0.0099675
0.0103217
0.0105634
0.0107483
0.0103412
0.00976373
0.00928152
0.00809635
0.00656303
0.0052705
0.00353135
0.00123772
0.0149183
0.0116874
0.00941063
0.0081301
0.00761036
0.00770068
0.0083012
0.00908755
0.00969815
0.0100459
0.0103527
0.0105713
0.010132
0.00933885
0.00880013
0.00789017
0.00642905
0.00497537
0.00327081
0.00115882
0.0165146
0.0127634
0.0102131
0.0087692
0.00815836
0.00811868
0.00848173
0.00903634
0.00958831
0.00999086
0.0102272
0.0103256
0.00991903
0.00913652
0.00857986
0.00777178
0.00628607
0.00472949
0.00311547
0.00113902
0.0175336
0.0133385
0.010628
0.00913078
0.00846944
0.00830222
0.00853382
0.00907262
0.00965117
0.00996792
0.0100343
0.0101179
0.00991714
0.00919597
0.00848452
0.00758509
0.00609336
0.00464402
0.00314482
0.00114715
-0.161434
-0.168472
-0.175164
-0.181538
-0.187624
-0.193455
-0.19907
-0.204506
-0.2098
-0.214986
-0.220081
-0.225089
-0.229951
-0.23458
-0.238687
-0.242052
-0.243926
-0.244533
-0.242772
-0.243337
-0.0971236
-0.100179
-0.103002
-0.105592
-0.107947
-0.110065
-0.111939
-0.113563
-0.114932
-0.11604
-0.116885
-0.117473
-0.117817
-0.117969
-0.117976
-0.11801
-0.118149
-0.118839
-0.120134
-0.123556
-0.0568578
-0.0599051
-0.0629238
-0.065918
-0.0688926
-0.071851
-0.0747967
-0.0777323
-0.0806596
-0.0835792
-0.0864893
-0.0893854
-0.092257
-0.0950879
-0.0978496
-0.100504
-0.103003
-0.105291
-0.107411
-0.109425
-0.0381078
-0.0401444
-0.0421352
-0.0440829
-0.0459914
-0.0478636
-0.0497028
-0.0515123
-0.0532959
-0.0550575
-0.0568016
-0.0585332
-0.0602589
-0.0619856
-0.0637263
-0.065491
-0.0673161
-0.0692169
-0.0713504
-0.0738087
-0.022885
-0.0244298
-0.0259658
-0.0274946
-0.0290185
-0.0305389
-0.032057
-0.0335739
-0.0350907
-0.0366082
-0.0381273
-0.0396483
-0.0411718
-0.0426968
-0.0442249
-0.0457507
-0.0472861
-0.0488137
-0.0504243
-0.0521051
-0.0139545
-0.0151432
-0.0163242
-0.0174981
-0.0186661
-0.019829
-0.0209875
-0.0221423
-0.0232944
-0.0244447
-0.0255945
-0.0267445
-0.0278963
-0.0290505
-0.0302102
-0.0313734
-0.0325531
-0.0337353
-0.0349968
-0.0362914
-0.00691187
-0.00783771
-0.00876135
-0.0096833
-0.0106047
-0.011526
-0.0124479
-0.0133709
-0.0142957
-0.0152229
-0.0161531
-0.0170869
-0.018025
-0.0189676
-0.0199163
-0.0208691
-0.0218345
-0.0227997
-0.0238207
-0.024847
-0.00183636
-0.00257334
-0.00330827
-0.00404131
-0.00477296
-0.00550338
-0.00623283
-0.00696159
-0.00769004
-0.00841857
-0.00914758
-0.00987746
-0.0106088
-0.0113417
-0.0120776
-0.0128152
-0.0135609
-0.0143055
-0.0150905
-0.0158762
0.00211993
0.00152724
0.000936133
0.000346537
-0.000241844
-0.000829093
-0.00141535
-0.00200079
-0.00258564
-0.00317006
-0.00375425
-0.00433835
-0.00492259
-0.00550692
-0.00609209
-0.00667692
-0.00726564
-0.00785106
-0.0084632
-0.00906854
0.00512591
0.00464311
0.00416135
0.0036806
0.00320074
0.00272174
0.00224347
0.00176579
0.00128853
0.000811578
0.000334788
-0.000141929
-0.000618743
-0.0010956
-0.00157301
-0.00205011
-0.00252983
-0.00300686
-0.00350273
-0.00399098
0.00751577
0.00712541
0.00673556
0.00634619
0.00595725
0.00556872
0.00518049
0.00479243
0.00440443
0.00401638
0.0036282
0.00323983
0.00285113
0.00246215
0.00207255
0.00168291
0.00129119
0.000901118
0.000497147
9.82533e-05
0.00944495
0.00913207
0.00881911
0.00850605
0.00819285
0.00787946
0.00756584
0.00725192
0.00693767
0.00662307
0.00630809
0.00599275
0.00567703
0.00536102
0.00504455
0.00472808
0.00441025
0.00409377
0.00376731
0.00344446
0.0111069
0.0108601
0.0106121
0.010363
0.0101128
0.00986123
0.00960844
0.00935439
0.00909909
0.00884259
0.00858492
0.00832615
0.00806634
0.00780563
0.00754397
0.00728179
0.00701818
0.00675519
0.00648449
0.00621603
0.0126127
0.0124214
0.0122275
0.0120309
0.0118318
0.01163
0.0114256
0.0112188
0.0110095
0.010798
0.0105844
0.0103687
0.0101513
0.00993215
0.0097115
0.00948969
0.00926618
0.00904252
0.00881258
0.00858332
0.0142232
0.0140791
0.01393
0.0137759
0.0136169
0.0134532
0.013285
0.0131125
0.012936
0.0127557
0.0125719
0.0123849
0.0121949
0.0120022
0.0118071
0.0116101
0.0114107
0.0112104
0.0110045
0.0107978
0.0159768
0.0158657
0.0157462
0.0156188
0.0154839
0.0153419
0.0151933
0.0150386
0.0148784
0.014713
0.014543
0.0143689
0.0141911
0.01401
0.0138262
0.01364
0.0134516
0.0132619
0.0130677
0.0128722
0.0185317
0.0184143
0.0182848
0.0181442
0.0179933
0.0178332
0.0176648
0.0174891
0.0173068
0.0171188
0.0169257
0.0167284
0.0165274
0.0163234
0.0161169
0.0159085
0.0156984
0.0154876
0.0152737
0.015059
0.0217931
0.0216034
0.0214017
0.0211896
0.0209684
0.0207394
0.0205037
0.0202626
0.0200169
0.0197676
0.0195154
0.0192612
0.0190057
0.0187493
0.0184927
0.0182364
0.0179806
0.017726
0.0174711
0.0172174
0.0267199
0.0262662
0.0258188
0.0253779
0.0249437
0.0245166
0.0240967
0.0236842
0.0232792
0.0228818
0.022492
0.0221098
0.0217353
0.0213685
0.0210092
0.0206575
0.0203131
0.0199764
0.0196456
0.0193223
0.0320953
0.0312863
0.0305113
0.0297684
0.0290556
0.0283714
0.0277142
0.0270823
0.0264746
0.0258895
0.0253259
0.0247827
0.0242587
0.0237529
0.0232644
0.0227924
0.0223358
0.0218942
0.0214655
0.0210511
0.0179041
0.0171468
0.016424
0.0157337
0.0150742
0.0144436
0.0138405
0.0132633
0.0127105
0.012181
0.0116734
0.0111866
0.0107194
0.010271
0.00984021
0.00942629
0.00902826
0.00864555
0.00827645
0.00792153
0.0124928
0.0120905
0.0116949
0.0113064
0.0109252
0.0105516
0.0101857
0.00982778
0.00947781
0.0091359
0.00880208
0.00847637
0.00815874
0.00784917
0.00754759
0.00725396
0.00696809
0.00669006
0.0064187
0.00615431
0.00746975
0.00733186
0.00718256
0.00702336
0.00685566
0.00668073
0.00649974
0.00631375
0.00612375
0.00593062
0.00573515
0.00553807
0.00534004
0.00514164
0.00494339
0.00474579
0.00454913
0.00435391
0.00415907
0.00396449
0.00404062
0.00397695
0.00390159
0.00381557
0.00371992
0.00361559
0.0035035
0.00338452
0.00325948
0.00312913
0.00299422
0.00285542
0.00271337
0.00256866
0.00242182
0.00227339
0.00212368
0.00197322
0.00182063