/*--------------------------------*- C++ -*----------------------------------*\
  =========                 |
  \\      /  F ield         | OpenFOAM: The Open Source CFD Toolbox
   \\    /   O peration     | Website:  https://openfoam.org
    \\  /    A nd           | Version:  6.0
     \\/     M anipulation  |
\*---------------------------------------------------------------------------*/
FoamFile
{
    version     2.0;
    format      ascii;
    class       surfaceScalarField;
    location    "93";
    object      phi;
}
// * * * * * * * * * * * * * * * * * * * * * * * * * * * * * * * * * * * * * //

dimensions      [0 3 -1 0 0 0 0];

internalField   nonuniform List<scalar> 
7840
(
-5.08122e-07
-0.000130555
0.000131063
-3.90936e-06
-0.000326807
0.000330208
-1.0909e-05
-0.000471831
0.000478831
-2.13424e-05
-0.000575449
0.000585882
-3.44825e-05
-0.000646638
0.000659778
-4.93114e-05
-0.000693443
0.000708272
-6.47423e-05
-0.000722555
0.000737986
-7.97766e-05
-0.000739155
0.00075419
-9.35988e-05
-0.000746993
0.000760815
-0.000105621
-0.000748603
0.000760625
-0.00011549
-0.000745577
0.000755446
-0.000123069
-0.000738841
0.00074642
-0.000128406
-0.000728889
0.000734225
-0.000131685
-0.000715965
0.000719244
-0.000133185
-0.00070019
0.00070169
-0.000133225
-0.000681636
0.000681676
-0.000132123
-0.000660364
0.000659262
-0.000130153
-0.000636422
0.000634453
-0.000127525
-0.000609743
0.000607115
-0.000580138
0.000576945
-0.000124333
-2.23467e-06
-0.00012832
-9.54279e-06
-0.000319499
-2.17376e-05
-0.000459636
-3.80166e-05
-0.00055917
-5.72104e-05
-0.000627444
-7.80112e-05
-0.000672642
-9.91542e-05
-0.000701412
-0.000119542
-0.000718767
-0.000138317
-0.000728218
-0.000154889
-0.000732031
-0.000168935
-0.000731531
-0.00018038
-0.000727395
-0.000189358
-0.000719911
-0.000196164
-0.000709159
-0.0002012
-0.000695154
-0.000204916
-0.00067792
-0.000207751
-0.00065753
-0.000210079
-0.000634094
-0.000212175
-0.000607648
-0.000578154
-0.000214158
-4.05291e-06
-0.000124267
-1.53784e-05
-0.000308174
-3.28263e-05
-0.000442189
-5.49392e-05
-0.000537057
-8.01157e-05
-0.000602267
-0.000106775
-0.000645983
-0.000133489
-0.000674699
-0.000159063
-0.000693193
-0.000182586
-0.000704695
-0.000203444
-0.000711173
-0.000221317
-0.000713657
-0.000236156
-0.000712557
-0.000248149
-0.000707918
-0.000257676
-0.000699632
-0.000265252
-0.000687578
-0.000271456
-0.000671716
-0.000276863
-0.000652123
-0.000281974
-0.000628983
-0.000287157
-0.000602464
-0.000572715
-0.000292597
-5.92027e-06
-0.000118347
-2.12836e-05
-0.00029281
-4.3937e-05
-0.000419535
-7.17739e-05
-0.00050922
-0.000102785
-0.000571256
-0.000135145
-0.000613623
-0.000167277
-0.000642567
-0.000197895
-0.000662575
-0.000226023
-0.000676567
-0.000250997
-0.000686198
-0.00027246
-0.000692195
-0.000290343
-0.000694674
-0.000304845
-0.000693415
-0.000316395
-0.000688082
-0.000325593
-0.00067838
-0.000333143
-0.000664165
-0.000339769
-0.000645497
-0.00034613
-0.000622623
-0.000352734
-0.00059586
-0.000565578
-0.000359871
-7.78139e-06
-0.000110565
-2.70926e-05
-0.000273499
-5.47749e-05
-0.000391853
-8.81024e-05
-0.000475892
-0.000124698
-0.00053466
-0.000162526
-0.000575795
-0.000199886
-0.000605207
-0.000235409
-0.000627052
-0.000268044
-0.000643933
-0.000297048
-0.000657194
-0.000321985
-0.000667258
-0.000342717
-0.000673943
-0.000359393
-0.000676738
-0.000372436
-0.000675039
-0.000382494
-0.000668323
-0.000390375
-0.000656284
-0.000396961
-0.000638911
-0.0004031
-0.000616483
-0.0004095
-0.00058946
-0.000558462
-0.000416616
-9.56806e-06
-0.000100997
-3.26044e-05
-0.000250463
-6.4984e-05
-0.000359473
-0.000103416
-0.000437461
-0.000145207
-0.000492868
-0.000188156
-0.000532846
-0.000230472
-0.000562891
-0.000270714
-0.00058681
-0.000307756
-0.000606891
-0.000340755
-0.000624194
-0.000369157
-0.000638857
-0.000392693
-0.000650406
-0.000411402
-0.00065803
-0.000425627
-0.000660813
-0.000436004
-0.000657946
-0.000443407
-0.000648881
-0.000448867
-0.000633451
-0.000453454
-0.000611896
-0.00045813
-0.000584784
-0.000552987
-0.000463604
-1.12002e-05
-8.9797e-05
-3.75862e-05
-0.000224077
-7.41515e-05
-0.000322908
-0.000117116
-0.000394496
-0.000163535
-0.000446449
-0.000211092
-0.000485289
-0.000257942
-0.000516042
-0.0003026
-0.000542151
-0.000343871
-0.00056562
-0.000380807
-0.000587258
-0.000412702
-0.000606962
-0.000439111
-0.000623997
-0.000459888
-0.000637253
-0.000475219
-0.000645483
-0.00048564
-0.000647525
-0.000492026
-0.000642495
-0.000495523
-0.000629954
-0.00049743
-0.000609989
-0.000499028
-0.000583186
-0.000550637
-0.000501379
-1.25898e-05
-7.72073e-05
-4.17838e-05
-0.000194883
-8.18246e-05
-0.000282867
-0.000128536
-0.000347785
-0.000178795
-0.000396191
-0.000230221
-0.000433863
-0.00028096
-0.000465303
-0.000329517
-0.000493594
-0.000374652
-0.000520485
-0.000415322
-0.000546588
-0.000450664
-0.00057162
-0.000480024
-0.000594637
-0.000503008
-0.000614268
-0.000519558
-0.000628933
-0.000530013
-0.00063707
-0.000535146
-0.000637362
-0.000536146
-0.000628955
-0.000534516
-0.000611619
-0.000531901
-0.0005858
-0.000552713
-0.000529825
-1.36473e-05
-6.356e-05
-4.494e-05
-0.00016359
-8.75401e-05
-0.000240267
-0.000136985
-0.00029834
-0.00019004
-0.000343136
-0.000244318
-0.000379585
-0.000297996
-0.000411625
-0.000349613
-0.000441978
-0.000397925
-0.000472173
-0.000441826
-0.000502686
-0.000480322
-0.000533125
-0.000512544
-0.000562415
-0.000537822
-0.00058899
-0.000555779
-0.000610976
-0.000566448
-0.000626401
-0.000570374
-0.000633436
-0.000568665
-0.000630663
-0.000562959
-0.000617325
-0.000555265
-0.000593494
-0.000560297
-0.000547681
-1.42915e-05
-4.92684e-05
-4.68194e-05
-0.000131062
-9.08689e-05
-0.000196218
-0.000141803
-0.000247405
-0.000196345
-0.000288594
-0.000252142
-0.000323788
-0.000307443
-0.000356323
-0.000360861
-0.00038856
-0.0004112
-0.000421834
-0.000457351
-0.000456535
-0.000498242
-0.000492234
-0.000532836
-0.000527821
-0.000560197
-0.000561629
-0.000579598
-0.000591575
-0.000590678
-0.000615322
-0.000593612
-0.000630502
-0.000589266
-0.000635008
-0.000579265
-0.000627326
-0.000565925
-0.000606834
-0.000574225
-0.000551998
-1.44601e-05
-3.48084e-05
-4.72388e-05
-9.82834e-05
-9.14677e-05
-0.000151989
-0.000142448
-0.000196425
-0.000196916
-0.000234127
-0.000252582
-0.000268122
-0.000307794
-0.000301111
-0.000361272
-0.000335082
-0.000411921
-0.000371185
-0.000458699
-0.000409757
-0.000500541
-0.000450392
-0.000536336
-0.000492026
-0.000564957
-0.000533008
-0.000585362
-0.00057117
-0.000596762
-0.000603922
-0.000598849
-0.000628414
-0.000592058
-0.0006418
-0.000577783
-0.000641601
-0.000558491
-0.000626126
-0.000595116
-0.0005376
-1.41203e-05
-2.0688e-05
-4.60969e-05
-6.63069e-05
-8.91336e-05
-0.000108952
-0.000138575
-0.000146983
-0.000191209
-0.000181493
-0.000244826
-0.000214505
-0.000297874
-0.000248063
-0.000349198
-0.000283758
-0.000397838
-0.000322545
-0.000442888
-0.000364707
-0.000483392
-0.000409888
-0.000518288
-0.00045713
-0.000546399
-0.000504897
-0.00056649
-0.000551079
-0.000577406
-0.000593006
-0.00057832
-0.000627501
-0.000569071
-0.000651048
-0.00055056
-0.000660113
-0.000525116
-0.00065157
-0.000623531
-0.000496701
-1.3278e-05
-7.41005e-06
-4.33981e-05
-3.61867e-05
-8.38495e-05
-6.85006e-05
-0.00013011
-0.000100722
-0.000179048
-0.000132555
-0.000228525
-0.000165028
-0.000277076
-0.000199512
-0.000323657
-0.000237177
-0.000367455
-0.000278747
-0.000407739
-0.000324424
-0.000443745
-0.000373882
-0.000474594
-0.000426281
-0.000499236
-0.000480254
-0.000516444
-0.000533871
-0.00052488
-0.000584569
-0.000523291
-0.00062909
-0.000510867
-0.000663473
-0.000487761
-0.000683218
-0.000455764
-0.000683568
-0.000660256
-0.000419038
-1.19803e-05
4.57023e-06
-3.92646e-05
-8.90242e-06
-7.58077e-05
-3.19575e-05
-0.000117296
-5.92345e-05
-0.000160692
-8.91582e-05
-0.000203911
-0.000121809
-0.000245538
-0.000157885
-0.000284608
-0.000198107
-0.000320428
-0.000242928
-0.000352439
-0.000292412
-0.00038011
-0.000346211
-0.000402838
-0.000403553
-0.000419864
-0.000463229
-0.0004302
-0.000523534
-0.000432606
-0.000582164
-0.00042566
-0.000636035
-0.000408032
-0.000681102
-0.000379015
-0.000712235
-0.00033942
-0.000723163
-0.000706674
-0.000293002
-1.03136e-05
1.48838e-05
-3.393e-05
1.4714e-05
-6.54042e-05
-4.83312e-07
-0.000100686
-2.39525e-05
-0.000136843
-5.30014e-05
-0.000171818
-8.68344e-05
-0.000204207
-0.000125496
-0.000233069
-0.000169246
-0.000257777
-0.00021822
-0.000277904
-0.000272285
-0.000293128
-0.000330987
-0.000303144
-0.000393537
-0.000307573
-0.0004588
-0.000305854
-0.000525253
-0.000297137
-0.000590881
-0.000280207
-0.000652965
-0.000253566
-0.000707743
-0.000215803
-0.000749998
-0.000166468
-0.000772498
-0.000765031
-0.00010811
-8.3938e-06
2.32776e-05
-2.77161e-05
3.40363e-05
-5.31989e-05
2.49995e-05
-8.10928e-05
3.94141e-06
-0.000108573
-2.55209e-05
-0.000133594
-6.18139e-05
-0.000154721
-0.000104369
-0.000170987
-0.000152979
-0.00018177
-0.000207437
-0.000186704
-0.000267351
-0.000185607
-0.000332084
-0.000178419
-0.000400725
-0.000165127
-0.000472093
-0.000145663
-0.000544717
-0.000119762
-0.000616781
-8.67796e-05
-0.000685947
-4.55475e-05
-0.000748975
5.56073e-06
-0.000801106
6.81195e-05
-0.000835056
-0.000838392
0.000141481
-6.35164e-06
2.96293e-05
-2.09927e-05
4.86774e-05
-3.98467e-05
4.38534e-05
-5.94796e-05
2.35743e-05
-7.71789e-05
-7.82152e-06
-9.08978e-05
-4.8095e-05
-9.91498e-05
-9.61168e-05
-0.000100901
-0.000151228
-9.54838e-05
-0.000212854
-8.25257e-05
-0.000280309
-6.19072e-05
-0.000352702
-3.37208e-05
-0.000428911
1.77218e-06
-0.000507586
4.42093e-05
-0.000587154
9.32471e-05
-0.000665819
0.000148767
-0.000741467
0.000211159
-0.000811367
0.000281568
-0.000871516
0.000361955
-0.000915443
-0.000930284
0.000453847
-4.31536e-06
3.39446e-05
-1.41298e-05
5.84918e-05
-2.60106e-05
5.57342e-05
-3.68311e-05
3.43948e-05
-4.39918e-05
-6.60847e-07
-4.54432e-05
-4.66436e-05
-3.96373e-05
-0.000101923
-2.54589e-05
-0.000165406
-2.16561e-06
-0.000236148
3.0657e-05
-0.000313132
7.31233e-05
-0.000395168
0.000125065
-0.000480853
0.00018605
-0.000568571
0.00025541
-0.000656514
0.000332306
-0.000742714
0.000415877
-0.000825038
0.000505539
-0.000901029
0.000601401
-0.000967378
0.00070474
-0.00101878
-0.00104449
0.000818945
-2.39372e-06
3.63383e-05
-7.44809e-06
6.35462e-05
-1.22727e-05
6.05589e-05
-1.40167e-05
3.61388e-05
-1.01872e-05
-4.49033e-06
1.26373e-06
-5.80945e-05
2.19397e-05
-0.000122599
5.30308e-05
-0.000196497
9.53478e-05
-0.000278465
0.000149347
-0.000367131
0.000215148
-0.000460969
0.00029254
-0.000558246
0.000380994
-0.000657024
0.000479666
-0.000755186
0.000587414
-0.000850463
0.000702846
-0.00094047
0.000824469
-0.00102265
0.000951029
-0.00109394
0.00108221
-0.00114997
-0.00118448
0.0012222
-6.62369e-07
3.70007e-05
-1.17862e-06
6.40624e-05
9.4097e-07
5.84393e-05
8.32527e-06
2.87545e-05
2.33743e-05
-1.95393e-05
4.81279e-05
-8.28482e-05
8.42246e-05
-0.000158695
0.000132897
-0.000245169
0.000194978
-0.000340546
0.000270912
-0.000443066
0.000360768
-0.000550825
0.000464255
-0.000661733
0.000580758
-0.000773528
0.000709388
-0.000883815
0.000849031
-0.000990106
0.000998402
-0.00108984
0.00115604
-0.00118028
0.00131994
-0.00125784
0.0014859
-0.00131593
-0.00134129
0.00164271
8.43878e-07
3.61568e-05
4.5632e-06
6.03431e-05
1.34107e-05
4.95918e-05
2.98622e-05
1.2303e-05
5.62459e-05
-4.5923e-05
9.45821e-05
-0.000121184
0.000146505
-0.000210618
0.000213221
-0.000311885
0.000295488
-0.000422813
0.000393607
-0.000541186
0.000507436
-0.000664653
0.000636424
-0.000790721
0.000779697
-0.000916801
0.000936187
-0.00104031
0.00110484
-0.00115876
0.00128492
-0.00126992
0.00147652
-0.00137188
0.00168168
-0.00146301
0.00190809
-0.00154234
-0.00160859
0.00217539
2.13444e-06
3.40224e-05
9.78745e-06
5.26901e-05
2.51398e-05
3.42395e-05
5.05899e-05
-1.31472e-05
8.84154e-05
-8.37484e-05
0.000140594
-0.000173363
0.00020869
-0.000278714
0.000293772
-0.000396967
0.000396363
-0.000525404
0.000516414
-0.000661237
0.000653317
-0.000801556
0.000805959
-0.000943363
0.000972837
-0.00108368
0.00115221
-0.00121968
0.00134233
-0.00134887
0.00154162
-0.00146922
0.00174905
-0.00157931
0.00196455
-0.0016785
0.00218939
-0.00176718
-0.00184292
0.00242372
3.25582e-06
3.07666e-05
1.46151e-05
4.13308e-05
3.63326e-05
1.25219e-05
7.0798e-05
-4.76125e-05
0.000120248
-0.000133199
0.000186573
-0.000239688
0.000271162
-0.000363302
0.000374785
-0.00050059
0.000497515
-0.000648134
0.000638694
-0.000802417
0.000796969
-0.000959831
0.000970386
-0.00111678
0.00115655
-0.00126984
0.00135281
-0.00141595
0.00155651
-0.00155257
0.00176514
-0.00167784
0.00197649
-0.00179067
0.00218873
-0.00189074
0.00240004
-0.00197848
-0.00205157
0.00260869
4.283e-06
2.64836e-05
1.92512e-05
2.63626e-05
4.73419e-05
-1.55688e-05
9.0982e-05
-9.12526e-05
0.000152352
-0.000194569
0.000233169
-0.000320505
0.000334494
-0.000464628
0.000456583
-0.000622679
0.000598794
-0.000790345
0.000759587
-0.00096321
0.000936609
-0.00113685
0.00112687
-0.00130704
0.00132697
-0.00146994
0.00153338
-0.00162235
0.00174266
-0.00176186
0.00195169
-0.00188687
0.00215773
-0.00199671
0.00235845
-0.00209146
0.00255179
-0.00217182
-0.00223679
0.002737
5.30507e-06
2.11785e-05
2.39431e-05
7.72464e-06
5.85905e-05
-5.02162e-05
0.000111719
-0.000144381
0.000185394
-0.000268243
0.000281021
-0.000416133
0.000399125
-0.000582731
0.000539177
-0.000762731
0.000699543
-0.000950711
0.000877546
-0.00114121
0.00106966
-0.00132897
0.00127182
-0.00150919
0.0014797
-0.00167783
0.00168914
-0.00183179
0.00189633
-0.00196904
0.00209804
-0.00208858
0.00229169
-0.00219036
0.00247535
-0.00227511
0.00264763
-0.0023441
-0.00239767
0.00280851
6.41029e-06
1.47682e-05
2.89354e-05
-1.48004e-05
7.04857e-05
-9.17666e-05
0.000133533
-0.000207429
0.000219908
-0.000354618
0.000330511
-0.000526735
0.000465059
-0.000717279
0.000621953
-0.000919625
0.000798303
-0.00112706
0.000990127
-0.00133304
0.0011927
-0.00153155
0.001401
-0.00171748
0.00161009
-0.00188693
0.00181558
-0.00203728
0.00201378
-0.00216724
0.00220191
-0.00227672
0.00237811
-0.00236656
0.00254132
-0.00243832
0.00269121
-0.00249399
-0.00253503
0.00282857
7.67295e-06
7.09527e-06
3.44296e-05
-4.1557e-05
8.33422e-05
-0.000140679
0.000156774
-0.000280861
0.000256139
-0.000453983
0.000381571
-0.000652166
0.000531685
-0.000867393
0.000703531
-0.00109147
0.00089278
-0.00131631
0.00109412
-0.00153437
0.00130177
-0.0017392
0.00151008
-0.00192579
0.00171395
-0.0020908
0.00190925
-0.00223257
0.00209292
-0.00235092
0.00226309
-0.00244688
0.00241887
-0.00252235
0.0025603
-0.00257975
0.00268806
-0.00262175
-0.00265061
0.00280364
9.1445e-06
-2.04923e-06
4.05554e-05
-7.29679e-05
9.73285e-05
-0.000197452
0.000181542
-0.000365075
0.000293946
-0.000566386
0.000433604
-0.000791824
0.000597733
-0.00103152
0.000781824
-0.00127556
0.000980056
-0.00151454
0.00118593
-0.00174025
0.00139298
-0.00194624
0.00159536
-0.00212817
0.00178834
-0.00228378
0.00196853
-0.00241277
0.00213392
-0.00251631
0.00228372
-0.00259668
0.00241818
-0.00265681
0.00253832
-0.00269989
0.00264564
-0.00272907
-0.00274711
0.00274214
1.08499e-05
-1.28991e-05
4.73582e-05
-0.000109476
0.000112444
-0.000262538
0.000207659
-0.00046029
0.000332787
-0.000691514
0.000485508
-0.000944546
0.000661391
-0.00120741
0.000854276
-0.00146845
0.00105698
-0.00171725
0.00126216
-0.00194543
0.00146312
-0.0021472
0.00165439
-0.00231944
0.00183208
-0.00246148
0.00199392
-0.0025746
0.0021391
-0.00266149
0.00226801
-0.00272559
0.00238189
-0.00277069
0.00248251
-0.00280051
0.00257191
-0.00281848
-0.00282753
0.00265233
1.27888e-05
-2.56879e-05
5.48011e-05
-0.000151488
0.000128524
-0.00033626
0.000234686
-0.000566453
0.000371775
-0.000828603
0.000535794
-0.00110856
0.000720516
-0.00139213
0.000918204
-0.00166614
0.00112063
-0.00191967
0.00132007
-0.00214488
0.00151017
-0.0023373
0.00168633
-0.0024956
0.00184586
-0.002621
0.00198778
-0.00271652
0.00211251
-0.00278622
0.00222145
-0.00283453
0.00231659
-0.00286583
0.00240017
-0.00288409
0.00247446
-0.00289277
-0.00289475
0.00254168
1.494e-05
-4.06278e-05
6.27766e-05
-0.000199325
0.000145265
-0.000418749
0.000261976
-0.000683165
0.000409771
-0.000976397
0.000582755
-0.00128155
0.000772899
-0.00158227
0.000971142
-0.00186438
0.00116866
-0.00211719
0.00135796
-0.00233417
0.00153349
-0.00251283
0.00169191
-0.00265402
0.00183193
-0.00276101
0.00195384
-0.00283844
0.00205914
-0.00289151
0.00214996
-0.00292536
0.00222875
-0.00294462
0.00229793
-0.00295327
0.00235976
-0.00295459
-0.00295126
0.00241626
1.72667e-05
-5.78945e-05
7.11239e-05
-0.000253182
0.000162261
-0.000509886
0.000288741
-0.000809645
0.000445505
-0.00113316
0.000624656
-0.0014607
0.000816521
-0.00177414
0.00101113
-0.00205899
0.00119963
-0.00230569
0.00137527
-0.0025098
0.00153374
-0.00267131
0.00167318
-0.00279346
0.00179363
-0.00288146
0.00189654
-0.00294135
0.00198418
-0.00297915
0.00205915
-0.00300033
0.00212407
-0.00300953
0.00218132
-0.00301051
0.00223295
-0.00300622
-0.00299903
0.00228072
1.97216e-05
-7.76161e-05
7.96439e-05
-0.000313105
0.000179039
-0.000609281
0.00031412
-0.000944726
0.000477697
-0.00129674
0.000659907
-0.00164291
0.000849759
-0.00196399
0.00103691
-0.00224614
0.00121303
-0.00248182
0.00137256
-0.00266933
0.0015127
-0.00281145
0.00163303
-0.00291379
0.00173482
-0.00298326
0.0018204
-0.00302693
0.00189251
-0.00305127
0.00195396
-0.00306178
0.00200728
-0.00306286
0.00205467
-0.0030579
0.0020979
-0.00304946
-0.00303953
0.0021384
2.225e-05
-9.98661e-05
8.8114e-05
-0.000378969
0.000195091
-0.000716258
0.000337247
-0.00108688
0.000505161
-0.00146465
0.000687197
-0.00182495
0.000871513
-0.0021483
0.00104795
-0.00242258
0.00120923
-0.0026431
0.00135126
-0.00281136
0.00147282
-0.002933
0.00157479
-0.00301577
0.00165945
-0.00306791
0.00172965
-0.00309713
0.00178839
-0.00311001
0.0018384
-0.00311179
0.00188205
-0.0031065
0.00192121
-0.00309706
0.00195738
-0.00308562
-0.00307381
0.00199166
2.47923e-05
-0.000124658
9.62984e-05
-0.000450475
0.000209906
-0.000829865
0.00035731
-0.00123429
0.000526892
-0.00163423
0.000705593
-0.00200365
0.000881262
-0.00232397
0.00104448
-0.00258579
0.00118935
-0.00278797
0.00131342
-0.00293543
0.00141692
-0.0030365
0.00150185
-0.0031007
0.00157115
-0.0031372
0.00162796
-0.00315395
0.00167528
-0.00315732
0.00171564
-0.00315216
0.00175112
-0.00314197
0.00178328
-0.00312923
0.00181332
-0.00311566
-0.00310256
0.00184207
2.72854e-05
-0.000151944
0.000103958
-0.000527147
0.000222996
-0.000948903
0.000373598
-0.00138489
0.000542133
-0.00180277
0.000714579
-0.00217609
0.000879037
-0.00248843
0.00102727
-0.00273402
0.001155
-0.00291571
0.00126137
-0.0030418
0.00134788
-0.003123
0.00141735
-0.00317017
0.00147311
-0.00319296
0.00151836
-0.0031992
0.00155592
-0.00319488
0.00158805
-0.00318428
0.00161648
-0.00317041
0.0016425
-0.00315526
0.00166704
-0.00314019
-0.00312623
0.0016907
2.96635e-05
-0.000181607
0.000110859
-0.000608343
0.000233918
-0.00107196
0.000385543
-0.00153651
0.000550404
-0.00196763
0.000714048
-0.00233974
0.000865344
-0.00263973
0.000997553
-0.00286623
0.00110809
-0.00302625
0.00119754
-0.00313125
0.00126841
-0.00319388
0.00132408
-0.00322584
0.00136799
-0.00323687
0.00140326
-0.00323447
0.00143239
-0.00322401
0.00145735
-0.00320924
0.00147955
-0.00319261
0.00150002
-0.00317572
0.00151945
-0.00315962
-0.00314507
0.00153828
3.18582e-05
-0.000213466
0.000116779
-0.000693264
0.000242298
-0.00119748
0.000392743
-0.00168696
0.000551513
-0.0021264
0.000704265
-0.00249249
0.00084106
-0.00277652
0.000956836
-0.002982
0.00105063
-0.00312005
0.00112426
-0.00320488
0.00118096
-0.00325057
0.00122438
-0.00326926
0.00125794
-0.00327044
0.00128449
-0.00326102
0.00130624
-0.00324576
0.0013248
-0.0032278
0.00134133
-0.00320914
0.00135661
-0.003191
0.00137116
-0.00317417
-0.00315922
0.00138531
3.38089e-05
-0.000247274
0.000121536
-0.000780991
0.000247863
-0.00132381
0.000394992
-0.00183409
0.000545543
-0.00227695
0.000685789
-0.00263274
0.000807289
-0.00289802
0.000906707
-0.00308142
0.000984548
-0.00319789
0.00104359
-0.00326392
0.00108755
-0.00329453
0.00112014
-0.00330186
0.00114459
-0.00329489
0.00116344
-0.00327986
0.00117856
-0.00326088
0.00119127
-0.00324052
0.00120248
-0.00322034
0.00121279
-0.00320131
0.00122259
-0.00318397
-0.00316873
0.00123211
3.54628e-05
0.000124981
0.000250437
0.000392256
0.000532802
0.000659398
0.000765284
0.000848788
0.00091166
0.000957392
0.000989928
0.00101289
0.00102923
0.00104114
0.00105018
0.0010574
0.00106352
0.00106898
0.00107408
0.00107899
3.97454e-05
0.000261173
0.00013894
0.000848732
0.000275766
0.00145501
0.000427182
0.00202326
0.00057342
0.0025092
0.000701322
0.00289051
0.000804866
0.00316606
0.000883638
0.00334895
0.000940621
0.00345872
0.000980225
0.00351546
0.00100693
0.00353647
0.00102455
0.00353505
0.00103604
0.00352059
0.00104347
0.0034993
0.00104825
0.00347505
0.00105129
0.00345017
0.00105321
0.003426
0.00105438
0.00340334
0.00105507
0.00338261
0.0033641
0.00105543
3.81122e-05
0.00022306
0.000136013
0.000750832
0.000274937
0.00131609
0.000433495
0.0018647
0.000591737
0.00235096
0.000734981
0.00274727
0.000855224
0.00304582
0.000950323
0.00325385
0.00102212
0.00338692
0.00107451
0.00346308
0.00111192
0.00349906
0.00113844
0.00350853
0.00115735
0.00350167
0.00117114
0.00348552
0.00118152
0.00346468
0.00118965
0.00344203
0.00119631
0.00341934
0.00120202
0.00339763
0.0012071
0.00337753
0.00335944
0.00121177
3.61217e-05
0.000186939
0.00013158
0.000655374
0.000270815
0.00117685
0.000434566
0.00170095
0.000603285
0.00218224
0.000761147
0.00258941
0.000898237
0.00290873
0.00101051
0.00314158
0.00109839
0.00329905
0.00116496
0.00339651
0.0012144
0.00344961
0.00125092
0.00347202
0.00127814
0.00347445
0.00129891
0.00346475
0.0013153
0.00344828
0.00132878
0.00342855
0.00134034
0.00340778
0.00135064
0.00338734
0.00136011
0.00336806
0.00335051
0.00136905
3.38377e-05
0.000153101
0.000125792
0.00056342
0.000263527
0.00103912
0.0004303
0.00153418
0.000607562
0.00200498
0.000778845
0.00241812
0.000932525
0.00275505
0.00106257
0.00301153
0.00116773
0.00319389
0.00124997
0.00331426
0.00131297
0.00338661
0.00136087
0.00342412
0.00139751
0.00343781
0.0014261
0.00343616
0.00144911
0.00342527
0.00146834
0.00340933
0.00148503
0.00339109
0.00150005
0.00337231
0.00151398
0.00335412
0.00333729
0.00152719
3.13265e-05
0.000121775
0.000118835
0.000475911
0.000253312
0.000904639
0.000420783
0.00136671
0.000604263
0.0018215
0.000787233
0.00223515
0.000956717
0.00258556
0.00110474
0.0028635
0.00122817
0.00307046
0.00132758
0.00321485
0.00140581
0.00330839
0.00146669
0.00336324
0.00151415
0.00339034
0.0015517
0.00339861
0.00158218
0.0033948
0.00160774
0.00338377
0.00162995
0.00336888
0.00164994
0.00335233
0.00166845
0.00333561
0.00331973
0.00168601
2.86518e-05
9.31228e-05
0.000110913
0.000393649
0.000240482
0.00077507
0.000406264
0.00120092
0.000593318
0.00163444
0.000785706
0.00204277
0.000969596
0.00240167
0.00113527
0.00269783
0.00127763
0.0029281
0.00139556
0.00309692
0.00149076
0.0032132
0.00156645
0.00328755
0.00162644
0.00333035
0.00167439
0.00335066
0.00171347
0.00335572
0.00174622
0.00335103
0.00177456
0.00334054
0.0017999
0.00332699
0.00182325
0.00331226
0.00329769
0.00184529
2.58804e-05
6.72424e-05
0.000102253
0.000317277
0.000225437
0.000651885
0.000387183
0.00103918
0.000574941
0.00144669
0.000773972
0.00184374
0.000970194
0.00220545
0.00115251
0.00251551
0.00131392
0.00276669
0.00145144
0.0029594
0.00156528
0.00309936
0.00165776
0.00319507
0.00173224
0.00325587
0.00179238
0.00329052
0.00184157
0.00330653
0.00188268
0.00330992
0.00191802
0.0033052
0.00194934
0.00329566
0.00197794
0.00328366
0.0032709
0.00200473
2.30768e-05
4.41656e-05
9.30914e-05
0.000247262
0.00020864
0.000536336
0.000364148
0.000883671
0.000549647
0.00126119
0.000752131
0.00164125
0.000957931
0.00199965
0.0011551
0.00231835
0.00133495
0.00258683
0.00149259
0.00280176
0.00162651
0.00296544
0.00173773
0.00308385
0.00182889
0.00316471
0.00190334
0.00321607
0.0019645
0.00324536
0.00201555
0.00325887
0.00205912
0.00326163
0.00209733
0.00325745
0.00213183
0.00324917
0.00323892
0.00216381
2.02993e-05
2.38663e-05
8.36616e-05
0.0001839
0.000190584
0.000429413
0.0003379
0.000736355
0.000518239
0.00108085
0.000720719
0.00143877
0.000932728
0.00178764
0.0011421
0.00210897
0.00133891
0.00239002
0.00151646
0.00262422
0.00167136
0.00281054
0.00180308
0.00295213
0.00191313
0.00305465
0.00200425
0.00312496
0.00207967
0.00316994
0.00214264
0.0031959
0.0021961
0.00320817
0.00224251
0.00321103
0.00228389
0.00320779
0.00320104
0.00232177
1.75958e-05
6.27057e-06
7.4175e-05
0.000127321
0.000171763
0.000331825
0.000309259
0.000598859
0.000481754
0.000908354
0.000680704
0.00123982
0.000895093
0.00157325
0.00111322
0.00189085
0.00132449
0.00217874
0.00152074
0.00242797
0.00169674
0.00263454
0.0018502
0.00279867
0.00198119
0.00292367
0.00209144
0.0030147
0.00218368
0.0030777
0.00226101
0.00311858
0.00232649
0.0031427
0.00238287
0.00315464
0.00243253
0.00315814
0.0031562
0.00247737
1.50019e-05
-8.73129e-06
6.48118e-05
7.7511e-05
0.000152635
0.000244002
0.000279065
0.00047243
0.000441391
0.000746027
0.000633432
0.00104778
0.00084614
0.00136054
0.00106891
0.00166808
0.00129116
0.00195649
0.00150375
0.00221538
0.0016999
0.00243839
0.00187549
0.00262308
0.00202891
0.00277024
0.00216059
0.00288303
0.00227234
0.00296595
0.00236679
0.00302412
0.00244689
0.00306259
0.00251555
0.00308599
0.00257539
0.00309829
0.00310289
0.0026287
1.25394e-05
-2.12707e-05
5.57132e-05
3.43372e-05
0.000133601
0.000166114
0.000248119
0.000357912
0.000398418
0.000595728
0.000580526
0.000865673
0.00078754
0.00115353
0.00101044
0.00144518
0.00123932
0.00172761
0.00146473
0.00198997
0.00167875
0.00222436
0.00187568
0.00242615
0.00205214
0.00259378
0.00220696
0.0027282
0.00234071
0.0028322
0.00245518
0.00290965
0.00255288
0.00296489
0.0026366
0.00300227
0.0027091
0.00302579
0.00303905
0.00277294
1.02185e-05
-3.14892e-05
4.6984e-05
-2.42831e-06
0.000114996
9.81016e-05
0.000217151
0.000255757
0.000354087
0.000458793
0.000523767
0.000695993
0.000721401
0.000955894
0.000939843
0.00122674
0.00117043
0.00149703
0.00140408
0.00175632
0.00163237
0.00199607
0.00184837
0.00221015
0.00204713
0.00239502
0.00222579
0.00254954
0.00238341
0.00267459
0.00252055
0.0027725
0.00263893
0.00284652
0.00274087
0.00290032
0.00282904
0.00293763
0.00296202
0.00290607
8.04272e-06
-3.95319e-05
3.87046e-05
-3.30902e-05
9.71031e-05
3.97031e-05
0.000186814
0.000166046
0.000309589
0.000336018
0.000464978
0.000540604
0.000650113
0.000770758
0.000859799
0.00101705
0.00108699
0.00126984
0.00132356
0.00151975
0.00156126
0.00175838
0.00179253
0.00197888
0.00201123
0.00217632
0.00221294
0.00234783
0.00239509
0.00249243
0.00255681
0.00261078
0.0026986
0.00270473
0.00282199
0.00277693
0.00292915
0.00283047
0.0028686
0.00302257
6.01791e-06
-4.55498e-05
3.0953e-05
-5.80253e-05
8.0182e-05
-9.52585e-06
0.000157705
8.85234e-05
0.000266044
0.000227679
0.000405963
0.000400684
0.000576211
0.000600511
0.000773431
0.000819834
0.00099235
0.00105092
0.00122624
0.00128586
0.00146761
0.00151701
0.00170897
0.00173753
0.00194349
0.00194179
0.00216562
0.0021257
0.00237131
0.00228675
0.00255812
0.00242397
0.00272514
0.00253771
0.00287272
0.00262936
0.00300216
0.00270103
0.00275524
0.00311553
4.16131e-06
-4.97111e-05
2.38296e-05
-7.76936e-05
6.4512e-05
-5.02083e-05
0.000130419
2.26168e-05
0.000224541
0.000133557
0.000348492
0.000276734
0.000502281
0.000446722
0.000684146
0.000637969
0.000890541
0.000844524
0.00111635
0.00106005
0.00135529
0.00127806
0.00160052
0.0014923
0.00184523
0.00169708
0.00208323
0.0018877
0.00230938
0.0020606
0.00251987
0.00221347
0.00271231
0.00234527
0.00288564
0.00245603
0.00303995
0.00254671
0.00261858
0.00317661
2.50846e-06
-5.22196e-05
1.74752e-05
-9.26603e-05
5.04242e-05
-8.31573e-05
0.000105594
-3.2553e-05
0.000186186
5.29655e-05
0.00029433
0.000168589
0.000430935
0.000310116
0.000595506
0.000473398
0.000786029
0.000654001
0.000998996
0.000847084
0.0012296
0.00104746
0.00147209
0.00124981
0.00172025
0.00144893
0.00196789
0.00164006
0.00220934
0.00181914
0.00243982
0.001983
0.00265567
0.00212942
0.00285445
0.00225724
0.00303491
0.00236625
0.0024558
0.00319768
1.11355e-06
-5.33331e-05
1.2072e-05
-0.000103619
3.8305e-05
-0.00010939
8.39236e-05
-7.81716e-05
0.000152119
-1.52303e-05
0.000245252
7.54562e-05
0.000364784
0.000190584
0.000511135
0.000327048
0.000683531
0.000481605
0.000879918
0.000650697
0.00109699
0.00083039
0.00133035
0.00101645
0.00157481
0.00120447
0.00182476
0.00139011
0.00207459
0.00156931
0.0023191
0.00173849
0.00255381
0.00189471
0.00277523
0.00203583
0.00298084
0.00216064
0.00226614
0.00317051
4.16573e-08
-5.33748e-05
7.8216e-06
-0.000111399
2.85594e-05
-0.000130128
6.61057e-05
-0.000115718
0.000123463
-7.25874e-05
0.000202975
-4.05612e-06
0.000306353
8.72068e-05
0.000434585
0.000198816
0.0005878
0.00032839
0.00076513
0.000473366
0.000964637
0.000630883
0.00118332
0.000797758
0.00141727
0.000970526
0.00166184
0.00114554
0.00191202
0.00131913
0.00216276
0.00148774
0.00240936
0.00164811
0.00264781
0.00179738
0.00287532
0.00193313
0.00204891
0.00309255
-6.46229e-07
-5.27285e-05
4.90296e-06
-0.000116948
2.15367e-05
-0.000146762
5.27354e-05
-0.000146917
0.000101173
-0.000121025
0.000168985
-7.18684e-05
0.000257872
-1.68051e-06
0.000369079
8.76091e-05
0.000503292
0.000194177
0.000660506
0.000316152
0.000839895
0.000451494
0.00103973
0.000597919
0.00125739
0.000752867
0.00148943
0.00091351
0.00173175
0.00107681
0.0019799
0.00123959
0.00222935
0.00139866
0.00247596
0.00155077
0.00271715
0.00169193
0.00180725
0.00295881
-9.10132e-07
-5.18184e-05
3.42355e-06
-0.000121282
1.74395e-05
-0.000160778
4.41642e-05
-0.000173641
8.58468e-05
-0.000162708
0.000144278
-0.000130299
0.000220951
-7.83536e-05
0.000317104
-8.54348e-06
0.000433667
7.76139e-05
0.000571159
0.00017866
0.000729547
0.000293105
0.000908128
0.000419339
0.00110543
0.000555567
0.00131918
0.000699764
0.00154632
0.000849663
0.00178314
0.00100278
0.00202532
0.00115648
0.00226802
0.00130806
0.00250576
0.0014542
0.00158005
0.00273296
-7.48925e-07
-5.10695e-05
3.3728e-06
-0.000125403
1.62411e-05
-0.000173646
4.03705e-05
-0.000197771
7.75326e-05
-0.00019987
0.000129094
-0.000181861
0.000196215
-0.000145474