1.275 	2.15223e-18 	-2.76991e-20 	-0.127306 	0.00735142 	-2.57599e-22
1.825 	2.15223e-18 	-1.39322e-20 	-0.262254 	0.071148 	3.51732e-21
2.375 	2.15223e-18 	1.38775e-18 	-0.266571 	0.155868 	-1.60015e-21
2.925 	2.15223e-18 	2.78958e-18 	-0.35714 	0.0721536 	2.04309e-22
3.475 	2.15223e-18 	4.53849e-18 	-0.246295 	-0.151335 	-1.45435e-21
4.025 	2.15223e-18 	6.28755e-18 	-0.285239 	-0.298124 	-1.01487e-22
4.575 	2.15223e-18 	6.30203e-18 	-0.149517 	-0.256665 	1.61374e-21
5.125 	2.15223e-18 	6.31666e-18 	0.0129275 	-0.0698362 	-1.35533e-21
5.675 	2.15223e-18 	6.33144e-18 	0.201503 	0.123983 	-2.27382e-22
6.225 	2.15223e-18 	4.61166e-18 	0.20579 	0.230663 	-3.39081e-22
