/*--------------------------------*- C++ -*----------------------------------*\
  =========                 |
  \\      /  F ield         | OpenFOAM: The Open Source CFD Toolbox
   \\    /   O peration     | Website:  https://openfoam.org
    \\  /    A nd           | Version:  6.0
     \\/     M anipulation  |
\*---------------------------------------------------------------------------*/
FoamFile
{
    version     2.0;
    format      ascii;
    class       surfaceScalarField;
    location    "17.2";
    object      phi;
}
// * * * * * * * * * * * * * * * * * * * * * * * * * * * * * * * * * * * * * //

dimensions      [0 3 -1 0 0 0 0];

internalField   nonuniform List<scalar> 
15760
(
-3.07796e-06
3.14089e-06
-6.29293e-08
-1.08463e-05
7.89538e-06
-1.2709e-07
-2.21673e-05
1.14678e-05
-1.46698e-07
-3.61282e-05
1.40958e-05
-1.34968e-07
-5.20063e-05
1.59803e-05
-1.02206e-07
-6.92438e-05
1.72936e-05
-5.60774e-08
-8.74251e-05
1.81834e-05
-2.06992e-09
-0.000106256
1.87753e-05
5.60469e-08
-0.000125549
1.91767e-05
1.15813e-07
-0.000145203
1.94788e-05
1.7572e-07
-0.000165197
1.9759e-05
2.34912e-07
-0.000185572
2.00821e-05
2.92955e-07
-0.000206423
2.05013e-05
3.49662e-07
-0.000227887
2.10588e-05
4.04975e-07
-0.000250132
2.17861e-05
4.58876e-07
-0.000273348
2.27044e-05
5.11363e-07
-0.000297735
2.38244e-05
5.62415e-07
-0.000323494
2.51472e-05
6.11964e-07
-0.000350821
2.6667e-05
6.59884e-07
2.83781e-05
7.06017e-07
-0.000379905
-3.0551e-06
6.19599e-06
-1.07662e-05
1.56065e-05
-2.19994e-05
2.27009e-05
-3.58413e-05
2.79378e-05
-5.1567e-05
3.17059e-05
-6.86142e-05
3.43408e-05
-8.65613e-05
3.61305e-05
-0.000105108
3.73215e-05
-0.000124056
3.81248e-05
-0.000143298
3.8721e-05
-0.000162803
3.9264e-05
-0.000182604
3.98836e-05
-0.000202791
4.06874e-05
-0.000223493
4.17615e-05
-0.000244878
4.31712e-05
-0.000267135
4.49613e-05
-0.000290467
4.71558e-05
-0.000315078
4.97589e-05
-0.000341172
5.27604e-05
5.61491e-05
-0.000368943
-3.01052e-06
9.20651e-06
-1.06094e-05
2.32054e-05
-2.16692e-05
3.37607e-05
-3.52765e-05
4.15451e-05
-5.07015e-05
4.71309e-05
-6.73738e-05
5.10132e-05
-8.48604e-05
5.36172e-05
-0.000102846
5.53075e-05
-0.000121119
5.63971e-05
-0.000139552
5.71545e-05
-0.000158098
5.781e-05
-0.000176774
5.85595e-05
-0.000195654
5.95672e-05
-0.000214859
6.09668e-05
-0.00023455
6.2862e-05
-0.000254915
6.53263e-05
-0.000276162
6.84025e-05
-0.000298505
7.21024e-05
-0.00032216
7.64154e-05
8.13255e-05
-0.000347337
-2.94771e-06
1.21542e-05
-1.03863e-05
3.06439e-05
-2.11972e-05
4.45717e-05
-3.44668e-05
5.48146e-05
-4.94589e-05
6.2123e-05
-6.55919e-05
6.71462e-05
-8.2417e-05
7.04422e-05
-9.95991e-05
7.24897e-05
-0.000116902
7.36999e-05
-0.000134175
7.44275e-05
-0.000151343
7.49781e-05
-0.000168399
7.56149e-05
-0.000185393
7.65618e-05
-0.000202432
7.80052e-05
-0.000219664
8.0094e-05
-0.000237276
8.29385e-05
-0.000255482
8.66088e-05
-0.000274513
9.11333e-05
-0.000294605
9.65071e-05
0.000102713
-0.000315992
-2.87125e-06
1.50255e-05
-1.01109e-05
3.78836e-05
-2.06103e-05
5.50711e-05
-3.34555e-05
6.76598e-05
-4.79035e-05
7.6571e-05
-6.33595e-05
8.26022e-05
-7.93557e-05
8.64384e-05
-9.55326e-05
8.86666e-05
-0.000111624
8.97917e-05
-0.000127447
9.02504e-05
-0.000142891
9.04221e-05
-0.000157914
9.06375e-05
-0.000172535
9.11832e-05
-0.000186834
9.23044e-05
-0.000200945
9.42042e-05
-0.000215047
9.70412e-05
-0.000229364
0.000100926
-0.000244147
0.000105916
-0.000259664
0.000112024
0.000119237
-0.000276189
-2.78608e-06
1.78116e-05
-9.79826e-06
4.48958e-05
-1.9937e-05
6.52098e-05
-3.22887e-05
8.00114e-05
-4.61036e-05
9.0386e-05
-6.07739e-05
9.72725e-05
-7.58114e-05
0.000101476
-9.08295e-05
0.000103685
-0.000105528
0.000104491
-0.000119685
0.000104407
-0.000133146
0.000103883
-0.000145825
0.000103316
-0.000157698
0.000103056
-0.000168808
0.000103415
-0.000179263
0.000104659
-0.000189233
0.000107011
-0.000198947
0.000110639
-0.00020868
0.00011565
-0.000218749
0.000122093
0.000129974
-0.000229486
-2.6967e-06
2.05083e-05
-9.4615e-06
5.16606e-05
-1.92022e-05
7.49506e-05
-3.1006e-05
9.18152e-05
-4.41183e-05
0.000103498
-5.79196e-05
0.000111074
-7.19029e-05
0.000115459
-8.56543e-05
0.000117436
-9.88384e-05
0.000117675
-0.000111188
0.000116757
-0.000122501
0.000115195
-0.000132634
0.000113448
-0.00014151
0.000111933
-0.000149123
0.000111028
-0.000155541
0.000111077
-0.000160911
0.000112382
-0.000165463
0.000115191
-0.000169504
0.00011969
-0.000173407
0.000125995
0.000134158
-0.00017759
-2.60633e-06
2.31146e-05
-9.10961e-06
5.81639e-05
-1.8422e-05
8.4263e-05
-2.96322e-05
0.000103025
-4.19835e-05
0.00011585
-5.48486e-05
0.000123939
-6.77052e-05
0.000128316
-8.01155e-05
0.000129846
-9.171e-05
0.000129269
-0.000102177
0.000127224
-0.000111259
0.000124277
-0.000118752
0.000120941
-0.000124511
0.000117693
-0.000128465
0.000114982
-0.000130624
0.000113236
-0.000131097
0.000112855
-0.000130103
0.000114196
-0.000127974
0.000117561
-0.000125156
0.000123178
0.000131188
-0.000122186
-2.51623e-06
2.56308e-05
-8.74509e-06
6.43928e-05
-1.75988e-05
9.31167e-05
-2.81685e-05
0.000113595
-3.96987e-05
0.00012738
-5.15597e-05
0.0001358
-6.32205e-05
0.000139977
-7.42255e-05
0.000140851
-8.41768e-05
0.000139221
-9.27221e-05
0.00013577
-9.95495e-05
0.000131105
-0.000104388
0.00012578
-0.000107018
0.000120322
-0.000107284
0.000115248
-0.000105119
0.000111071
-0.000100569
0.000108304
-9.38178e-05
0.000107446
-8.52148e-05
0.000108958
-7.52839e-05
0.000113247
0.000120618
-6.4714e-05
-2.42538e-06
2.80562e-05
-8.36261e-06
7.033e-05
-1.67188e-05
0.000101473
-2.65872e-05
0.000123463
-3.72175e-05
0.00013801
-4.79835e-05
0.000146566
-5.83535e-05
0.000150347
-6.78637e-05
0.000150362
-7.60979e-05
0.000147455
-8.26721e-05
0.000142344
-8.72272e-05
0.00013566
-8.94286e-05
0.000127981
-8.89748e-05
0.000119869
-8.56162e-05
0.000111889
-7.91844e-05
0.000104639
-6.96317e-05
9.87513e-05
-5.70778e-05
9.48917e-05
-4.18583e-05
9.37389e-05
-2.45706e-05
9.59593e-05
0.00010214
-6.09265e-06
-2.33047e-06
3.03867e-05
-7.94897e-06
7.59485e-05
-1.57508e-05
0.000109275
-2.483e-05
0.000132543
-3.44431e-05
0.000147623
-4.39731e-05
0.000156096
-5.28959e-05
0.000159269
-6.07508e-05
0.000158216
-6.71162e-05
0.00015382
-7.15916e-05
0.000146819
-7.37853e-05
0.000137854
-7.33104e-05
0.000127506
-6.97905e-05
0.000116349
-6.28778e-05
0.000104977
-5.22862e-05
9.40475e-05
-3.78436e-05
8.43086e-05
-1.95602e-05
7.66084e-05
2.2855e-06
7.18932e-05
2.70495e-05
7.11953e-05
7.55495e-05
5.36398e-05
-2.22635e-06
3.2613e-05
-7.48432e-06
8.12065e-05
-1.46487e-05
0.000116439
-2.28099e-05
0.000140704
-3.12307e-05
0.000156044
-3.93058e-05
0.000164171
-4.65247e-05
0.000166488
-5.24399e-05
0.000164132
-5.66392e-05
0.00015802
-5.87237e-05
0.000148904
-5.82911e-05
0.000137421
-5.49255e-05
0.000124141
-4.81968e-05
0.00010962
-3.7672e-05
9.44518e-05
-2.2947e-05
7.93225e-05
-3.7029e-06
6.50645e-05
2.02041e-05
5.27014e-05
4.8616e-05
4.34813e-05
8.09006e-05
3.89107e-05
4.06982e-05
0.000115752
-2.10695e-06
3.472e-05
-6.94475e-06
8.60443e-05
-1.33563e-05
0.000122851
-2.04199e-05
0.000147767
-2.73987e-05
0.000163023
-3.36967e-05
0.000170469
-3.88183e-05
0.00017161
-4.23344e-05
0.000167648
-4.38534e-05
0.000159538
-4.29961e-05
0.000148047
-3.93755e-05
0.0001338
-3.258e-05
0.000117345
-2.21636e-05
9.92035e-05
-7.64604e-06
7.99343e-05
1.14675e-05
6.0209e-05
3.56364e-05
4.08955e-05
6.51879e-05
2.315e-05
0.000100154
8.51465e-06
0.000140011
-9.45764e-07
-2.58056e-06
0.00018329
-1.96635e-06
3.66863e-05
-6.30564e-06
9.03835e-05
-1.18136e-05
0.000128359
-1.75429e-05
0.000153497
-2.27453e-05
0.000168225
-2.68239e-05
0.000174548
-2.92909e-05
0.000174077
-2.97323e-05
0.000168089
-2.77798e-05
0.000157586
-2.30853e-05
0.000143352
-1.52998e-05
0.000126015
-4.0526e-06
0.000106098
1.10667e-05
8.40842e-05
3.05217e-05
6.04793e-05
5.48302e-05
3.59005e-05
8.45375e-05
1.11883e-05
0.000120136
-1.24483e-05
0.000161895
-3.32444e-05
0.00020952
-4.85711e-05
-5.45807e-05
0.00026152
-1.79978e-06
3.84861e-05
-5.54474e-06
9.41285e-05
-9.96371e-06
0.000132778
-1.40643e-05
0.000157597
-1.70683e-05
0.000171229
-1.83594e-05
0.000175839
-1.74396e-05
0.000173157
-1.38948e-05
0.000164544
-7.3689e-06
0.00015106
2.45784e-06
0.000133525
1.58867e-05
0.000112586
3.3219e-05
8.87659e-05
5.47768e-05
6.25264e-05
8.0926e-05
3.43301e-05
0.0001121
4.72698e-06
0.000148807
-2.5519e-05
0.000191602
-5.52433e-05
0.000240959
-8.26016e-05
0.000296923
-0.000104536
-0.000115879
0.000358221
-1.60422e-06
4.00903e-05
-4.64411e-06
9.71684e-05
-7.75692e-06
0.00013589
-9.88068e-06
0.000159721
-1.01817e-05
0.00017153
-7.99757e-06
0.000173655
-2.79167e-06
0.000167951
5.87896e-06
0.000155874
1.83857e-05
0.000138553
3.50424e-05
0.000116869
5.6115e-05
9.15133e-05
8.18306e-05
6.30503e-05
0.000112389
3.19676e-05
0.000147986
-1.26612e-06
0.000188841
-3.61281e-05
0.000235247
-7.19249e-05
0.000287601
-0.000107598
0.000346394
-0.000141394
0.000411993
-0.000170135
-0.000187512
0.000483626
-1.37816e-06
4.14685e-05
-3.58967e-06
9.93799e-05
-5.15094e-06
0.000137452
-4.90172e-06
0.000159472
-1.92251e-06
0.000168551
4.52871e-06
0.000167203
1.50634e-05
0.000157416
3.01933e-05
0.000140744
5.03467e-05
0.0001184
7.58741e-05
9.13414e-05
0.000107045
6.03423e-05
0.000144041
2.60542e-05
0.000186949
-1.09402e-05
0.00023576
-5.00773e-05
0.000290389
-9.07568e-05
0.000350719
-0.000132255
0.000416682
-0.000173561
0.000488366
-0.000213078
0.000566096
-0.000247866
-0.000271228
0.000649813
-1.12041e-06
4.25889e-05
-2.36797e-06
0.000100627
-2.10537e-06
0.000137189
9.57041e-07
0.000156409
7.85755e-06
0.000161651
1.94537e-05
0.000155607
3.6472e-05
0.000140398
5.95371e-05
0.000117679
8.91835e-05
8.87534e-05
0.000125852
5.46726e-05
0.000169875
1.63191e-05
0.000221451
-2.55217e-05
0.000280612
-7.01011e-05
0.000347189
-0.000116654
0.000420782
-0.00016435
0.000500759
-0.000212232
0.000586301
-0.000259103
0.000676532
-0.000303309
0.000770836
-0.00034217
-0.000370358
0.000869966
-8.28207e-07
4.34171e-05
-9.60615e-07
0.00010076
1.4285e-06
0.0001348
7.78979e-06
0.000150048
1.93127e-05
0.000150128
3.7005e-05
0.000137915
6.17451e-05
0.000115658
9.43105e-05
8.51135e-05
0.000135386
4.76782e-05
0.000185553
4.50538e-06
0.00024527
-4.33979e-05
0.000314834
-9.50861e-05
0.000394335
-0.000149602
0.000483587
-0.000205906
0.000582044
-0.000262807
0.000688688
-0.000318876
0.000801913
-0.000372328
0.000919411
-0.000420806
0.00103834
-0.000461103
-0.000491467
0.00115945
-4.94922e-07
4.3912e-05
6.62215e-07
9.96027e-05
5.51995e-06
0.000129942
1.57197e-05
0.000139848
3.26312e-05
0.000133216
5.74405e-05
0.000113106
9.12039e-05
8.18946e-05
0.000134875
4.14425e-05
0.000189308
-6.75496e-06
0.000255249
-6.14354e-05
0.000333313
-0.000121462
0.000423963
-0.000185736
0.000527478
-0.000253117
0.000643922
-0.000322351
0.000773096
-0.00039198
0.000914435
-0.000460215
0.00106678
-0.000524676
0.00122758
-0.000581601
0.00138995
-0.000623476
-0.000633967
0.00153245
-1.08944e-07
4.4021e-05
2.54595e-06
9.69478e-05
1.02674e-05
0.000122221
2.49133e-05
0.000125202
4.80562e-05
0.000110073
8.10767e-05
8.00852e-05
0.000125215
3.77561e-05
0.000181592
-1.49343e-05
0.000251205
-7.63674e-05
0.000334913
-0.000145143
0.000433424
-0.000219973
0.000547287
-0.0002996
0.000676917
-0.000382746
0.000822652
-0.000468086
0.00098491
-0.000554238
0.00116447
-0.000639779
0.00136304
-0.000723241
0.00158448
-0.000803045
0.00183875
-0.000877739
-0.00094324
0.00214802
3.49838e-07
4.36711e-05
4.75804e-06
9.25396e-05
1.58066e-05
0.000111172
3.55897e-05
0.000105419
6.58953e-05
7.97676e-05
0.000108298
3.76829e-05
0.000164199
-1.81457e-05
0.000234836
-8.55712e-05
0.000321257
-0.000162789
0.000424298
-0.000248184
0.000544555
-0.00034023
0.000682381
-0.000437426
0.00083791
-0.000538275
0.00101112
-0.000641297
0.00120196
-0.000745081
0.00141055
-0.00084837
0.00163749
-0.000950175
0.00188434
-0.0010499
0.00215395
-0.00114735
-0.00123479
0.0024455
9.0538e-07
4.27657e-05
7.3788e-06
8.60662e-05
2.22973e-05
9.62538e-05
4.80013e-05
7.97152e-05
8.6492e-05
4.12769e-05
0.000139514
-1.53389e-05
0.000208575
-8.72071e-05
0.000294928
-0.000171924
0.000399523
-0.000267384
0.000522963
-0.000371624
0.000665467
-0.000482734
0.000826856
-0.000598815
0.00100658
-0.000717998
0.00120377
-0.000838483
0.00141731
-0.000958626
0.00164597
-0.00107703
0.00188845
-0.00119265
0.00214343
-0.00130488
0.00240944
-0.00141336
-0.00150979
0.00268443
1.58609e-06
4.11796e-05
1.04987e-05
7.71536e-05
2.99121e-05
7.68404e-05
6.24089e-05
4.72184e-05
0.000110181
-6.49476e-06
0.000175086
-8.02444e-05
0.00025864
-0.000170761
0.000361959
-0.000275242
0.000485687
-0.000391112
0.000629936
-0.000515874
0.00079425
-0.000647048
0.000977606
-0.000782171
0.00117846
-0.000918854
0.00139484
-0.00105486
0.00162441
-0.0011882
0.00186463
-0.00131724
0.00211273
-0.00144076
0.00236582
-0.00155796
0.00262086
-0.0016684
-0.00176525
0.00287633
2.42095e-06
3.87587e-05
1.42066e-05
6.53679e-05
3.88131e-05
5.22339e-05
7.90401e-05
6.99141e-06
0.000137216
-6.46709e-05
0.000215218
-0.000158247
0.000314415
-0.000269958
0.000435575
-0.000396402
0.000578777
-0.000534314
0.000743352
-0.000680449
0.000927877
-0.000831572
0.00113023
-0.000984525
0.00134771
-0.00113633
0.00157716
-0.00128432
0.00181519
-0.00142623
0.00205825
-0.0015603
0.00230278
-0.0016853
0.00254532
-0.0018005
0.00278256
-0.00190564
-0.00199601
0.00301332
3.43626e-06
3.53224e-05
1.8579e-05
5.02252e-05
4.91277e-05
2.16852e-05
9.80457e-05
-4.19266e-05
0.000167706
-0.000134331
0.000259855
-0.000250395
0.000375502
-0.000385605
0.000514804
-0.000535705
0.000676976
-0.000696486
0.000860275
-0.000863748
0.00106207
-0.00103337
0.00127902
-0.00120147
0.00150723
-0.00136454
0.00174257
-0.00151966
0.00198087
-0.00166453
0.00221815
-0.00179758
0.00245074
-0.00191788
0.00267539
-0.00202515
0.00288943
-0.00211968
-0.00219878
0.00309219
4.65289e-06
3.06696e-05
2.36698e-05
3.12082e-05
6.09275e-05
-1.55725e-05
0.000119463
-0.000100462
0.000201552
-0.00021642
0.000308601
-0.000357444
0.000440994
-0.000517998
0.000597968
-0.000692678
0.000777571
-0.00087609
0.000976751
-0.00106293
0.00119155
-0.00124817
0.0014174
-0.00142732
0.00164947
-0.00159661
0.00188298
-0.00175318
0.00211353
-0.00189508
0.00233727
-0.00202131
0.00255105
-0.00213166
0.00275247
-0.00222658
0.00293991
-0.00230711
-0.00237235
0.00311348
6.08452e-06
2.4585e-05
2.95041e-05
7.78867e-06
7.42133e-05
-6.02817e-05
0.000143189
-0.000169437
0.000238411
-0.000311643
0.000360682
-0.000479715
0.000509446
-0.000666762
0.000682703
-0.000865935
0.000877087
-0.00107047
0.0010881
-0.00127394
0.00131051
-0.00147058
0.00153877
-0.00165557
0.00176748
-0.00182532
0.00199177
-0.00197747
0.00220756
-0.00211087
0.00241172
-0.00222547
0.00260209
-0.00232203
0.00277748
-0.00240196
0.00293747
-0.00246711
-0.00251797
0.00308309
7.73674e-06
1.68483e-05
3.60735e-05
-2.05481e-05
8.89057e-05
-0.000113114
0.000168965
-0.000249497
0.000277683
-0.000420361
0.000414943
-0.000616976
0.000578918
-0.000830736
0.000766098
-0.00105312
0.000971556
-0.00127593
0.0011894
-0.00149179
0.00141336
-0.00169454
0.00163735
-0.00187956
0.00185596
-0.00204392
0.00206477
-0.00218629
0.0022606
-0.00230669
0.00244141
-0.00240628
0.00260633
-0.00248694
0.00275537
-0.00255101
0.00288929
-0.00260103
-0.00263852
0.00300984
9.60687e-06
7.24142e-06
4.33351e-05
-5.42763e-05
0.000104841
-0.00017462
0.000196376
-0.000341032
0.000318517
-0.000542502
0.000469888
-0.000768346
0.000647084
-0.00100793
0.000844912
-0.00125094
0.0010569
-0.00148792
0.00127602
-0.00171091
0.00149541
-0.00191392
0.00170898
-0.00209314
0.00191191
-0.00224685
0.00210078
-0.00237515
0.0022736
-0.00247952
0.00242968
-0.00256237
0.00256937
-0.00262663
0.00269376
-0.0026754
0.00280445
-0.00271171
-0.00273774
0.00290367
1.16838e-05
-4.44235e-06
5.12101e-05
-9.38026e-05
0.000121773
-0.000245184
0.000224857
-0.000444115
0.000359841
-0.000677486
0.000523756
-0.000932261
0.000711402
-0.00119558
0.000915869
-0.00145541
0.00112937
-0.00170143
0.00134417
-0.00192571
0.00155338
-0.00212313
0.00175155
-0.00229131
0.0019349
-0.0024302
0.00210133
-0.00254159
0.00225025
-0.00262843
0.00238219
-0.00269432
0.00249855
-0.00274299
0.00260117
-0.00277803
0.00269214
-0.00280267
-0.00281943
0.00277382
1.39478e-05
-1.83902e-05
5.95846e-05
-0.000139439
0.000139374
-0.000324973
0.000253704
-0.000558444
0.000400407
-0.000824189
0.000574642
-0.0011065
0.000769314
-0.00139025
0.000975969
-0.00166207
0.00118592
-0.00191137
0.00139129
-0.00213108
0.00158578
-0.00231762
0.00176504
-0.00247057
0.0019267
-0.00259186
0.0020701
-0.00268498
0.0021959
-0.00275424
0.00230569
-0.0028041
0.00240154
-0.00283883
0.00248571
-0.0028622
0.00256043
-0.00287739
-0.00288698
0.00262797
1.63704e-05
-3.47606e-05
6.83098e-05
-0.000191379
0.000157243
-0.000413907
0.00028211
-0.000683311
0.000438867
-0.000980947
0.000620626
-0.00128826
0.000818476
-0.0015881
0.00102278
-0.00186636
0.00122449
-0.00211308
0.00141621
-0.0023228
0.00159276
-0.00249417
0.00175123
-0.00262904
0.00189073
-0.00273136
0.00201194
-0.00280619
0.00211656
-0.00285886
0.00220687
-0.00289441
0.0022853
-0.00291727
0.00235422
-0.00293111
0.00241576
-0.00293893
-0.00294313
0.00247191
1.89139e-05
-5.36745e-05
7.72047e-05
-0.00024967
0.00017492
-0.000511622
0.000309196
-0.000817586
0.000473856
-0.00114561
0.000659928
-0.00147433
0.000856956
-0.00178513
0.00105462
-0.00206403
0.00124415
-0.00230261
0.00141916
-0.00249782
0.00157594
-0.00265095
0.00171314
-0.00276623
0.00183127
-0.00284949
0.0019321
-0.00290702
0.00201804
-0.0029448
0.00209172
-0.00296809
0.00215565
-0.0029812
0.00221208
-0.00298755
0.00226291
-0.00298975
-0.00298999
0.00230976
2.15315e-05
-7.52059e-05
8.60598e-05
-0.000314198
0.0001919
-0.000617462
0.000334064
-0.00095975
0.000504086
-0.00131563
0.00069105
-0.00166129
0.000883384
-0.00197746
0.00107069
-0.00225134
0.00124504
-0.00247696
0.00140149
-0.00265427
0.00153792
-0.00278738
0.00165448
-0.0028828
0.00175286
-0.00294787
0.00183558
-0.00298974
0.00190544
-0.00301466
0.00196515
-0.0030278
0.00201709
-0.00303314
0.00206325
-0.00303371
0.00210523
-0.00303173
-0.00302906
0.0021443
2.41681e-05
-9.9374e-05
9.46444e-05
-0.000384674
0.000207663
-0.000730481
0.000355852
-0.00110794
0.000528442
-0.00148822
0.000712883
-0.00184573
0.000897035
-0.00216161
0.00107103
-0.00242533
0.00122823
-0.00263416
0.00136534
-0.00279138
0.00148183
-0.00290387
0.00157913
-0.0029801
0.00165979
-0.00302853
0.00172676
-0.00305671
0.00178297
-0.00307086
0.00183098
-0.00307581
0.00187293
-0.00307509
0.0019105
-0.00307128
0.00194497
-0.0030662
-0.00306141
0.00197732
2.67618e-05
-0.000126136
0.000102716
-0.000460628
0.000221695
-0.00084946
0.000373785
-0.00126003
0.000546055
-0.00166049
0.000724767
-0.00202444
0.000897815
-0.00233466
0.00105637
-0.00258388
0.00119541
-0.0027732
0.0013133
-0.00290927
0.00141094
-0.00300152
0.00149075
-0.00305991
0.00155582
-0.00309359
0.00160926
-0.00311015
0.00165389
-0.0031155
0.00169204
-0.00311395
0.00172552
-0.00310858
0.00175572
-0.00310147
0.00178362
-0.00309411
-0.00308774
0.00180995
2.92461e-05
-0.000155382
0.000110031
-0.000541413
0.000233526
-0.000972955
0.000387233
-0.00141374
0.000556353
-0.00182961
0.000726506
-0.0021946
0.000886188
-0.00249435
0.00102801
-0.0027257
0.00114867
-0.00289386
0.00124811
-0.00300871
0.00132839
-0.00308179
0.0013926
-0.00312412
0.00144408
-0.00314507
0.00148591
-0.00315199
0.00152067
-0.00315025
0.00155037
-0.00314365
0.0015765
-0.00313471
0.00160016
-0.00312514
0.00162212
-0.00311606
-0.00310849
0.00164287
3.15524e-05
-0.000186934
0.000116359
-0.000626219
0.000242748
-0.00109934
0.000395737
-0.00156673
0.000559078
-0.00199295
0.000718324
-0.00235384
0.000863058
-0.00263908
0.000987564
-0.00285021
0.00109025
-0.00299654
0.0011724
-0.00309087
0.00123696
-0.00314635
0.0012874
-0.00317456
0.00132709
-0.00318476
0.0013589
-0.0031838
0.00138511
-0.00317646
0.00140739
-0.00316593
0.00142696
-0.00315428
0.00144466
-0.00314283
0.00146106
-0.00313246
-0.00312395
0.00147651
3.36136e-05
-0.000220548
0.000121492
-0.000714098
0.000249044
-0.0012269
0.000399033
-0.00171672
0.00055427
-0.00214819
0.00070079
-0.00250036
0.000829624
-0.00276791
0.000936822
-0.00295741
0.00102235
-0.00308207
0.0010886
-0.00315712
0.00113907
-0.00319682
0.00117739
-0.00321288
0.00120678
-0.00321416
0.00122983
-0.00320685
0.00124848
-0.0031951
0.00126409
-0.00318155
0.00127763
-0.00316782
0.00128973
-0.00315494
0.00130082
-0.00314356
-0.00313428
0.00131116
3.53703e-05
-0.000255918
0.000125264
-0.000803992
0.000252208
-0.00135384
0.000397065
-0.00186157
0.000542248
-0.00229337
0.000674748
-0.00263286
0.000787273
-0.00288044
0.000877601
-0.00304774
0.000947042
-0.00315151
0.000998806
-0.00320889
0.0010367
-0.00323471
0.00106432
-0.0032405
0.00108464
-0.00323447
0.00109989
-0.00322211
0.0011117
-0.00320691
0.00112116
-0.00319101
0.00112902
-0.00317567
0.00113575
-0.00316167
0.00114169
-0.0031495
-0.00313959
0.00114701
3.67601e-05
-0.000292678
0.000127531
-0.000894763
0.000252114
-0.00147842
0.000389916
-0.00199937
0.000523488
-0.00242694
0.000641154
-0.00275053
0.000737393
-0.00297668
0.000811577
-0.00312192
0.000866116
-0.00320604
0.000904764
-0.00324753
0.000931434
-0.00326138
0.000949533
-0.0032586
0.000961717
-0.00324665
0.0009699
-0.00323029
0.000975387
-0.0032124
0.000979045
-0.00319466
0.000981445
-0.00317807
0.000982963
-0.00316319
0.000983835
-0.00315037
-0.00313994
0.000984177
3.77397e-05
-0.000330418
0.000128213
-0.000985236
0.000248767
-0.00159898
0.000377855
-0.00212846
0.000498659
-0.00254774
0.000601088
-0.00285296
0.000681386
-0.00305697
0.000740325
-0.00318086
0.000781153
-0.00324687
0.000807937
-0.00327432
0.000824523
-0.00327797
0.00083405
-0.00326813
0.000838834
-0.00325144
0.000840466
-0.00323192
0.00083999
-0.00321192
0.000838078
-0.00319275
0.000835169
-0.00317516
0.000831551
-0.00315957
0.000827402
-0.00314622
-0.00313534
0.000822803
3.82732e-05
-0.000368691
0.000127271
-0.00107423
0.000242258
-0.00171396
0.000361259
-0.00224746
0.000468499
-0.00265498
0.000555626
-0.00294009
0.000620549
-0.0031219
0.000665217
-0.00322553
0.000693469
-0.00327512
0.000709489
-0.00329034
0.000716939
-0.00328542
0.000718639
-0.00326983
0.000716567
-0.00324937
0.000712023
-0.00322738
0.000705828
-0.00320573
0.000698499
-0.00318542
0.00069037
-0.00316703
0.000681664
-0.00315087
0.000672521
-0.00313707
-0.00312581
0.000662998
3.83366e-05
-0.000407028
0.000124711
-0.00116061
0.000232759
-0.00182201
0.000340584
-0.00235529
0.000433788
-0.00274819
0.000505803
-0.0030121
0.000556054
-0.00317215
0.000587429
-0.0032569
0.000604142
-0.00329184
0.000610338
-0.00329653
0.000609418
-0.0032845
0.000603864
-0.00326428
0.000595337
-0.00324084
0.000584882
-0.00321693
0.000573133
-0.00319398
0.000560484
-0.00317277
0.000547189
-0.00315374
0.000533425
-0.0031371
0.000519302
-0.00312295
-0.00311138
0.000504866
3.79182e-05
-0.000444946
0.000120583
-0.00124327
0.0002205
-0.00192193
0.000316336
-0.00245113
0.000395299
-0.00282715
0.000452581
-0.00306938
0.00048893
-0.0032085
0.00050795
-0.00327592
0.000514042
-0.00329793
0.0005112
-0.00329369
0.000502517
-0.00327582
0.000490142
-0.0032519
0.00047545
-0.00322615
0.000459267
-0.00320074
0.000442075
-0.00317679
0.000424168
-0.00315487
0.000405742
-0.00313531
0.000386936
-0.0031183
0.000367844
-0.00310386
-0.00309204
0.000348508
3.70178e-05
-0.000481964
0.000114967
-0.00132122
0.000205758
-0.00201272
0.000289041
-0.00253441
0.000353777
-0.00289189
0.000396829
-0.00311244
0.000420064
-0.00323173
0.000427596
-0.00328346
0.000423862
-0.0032942
0.000412626
-0.00328245
0.000396653
-0.00325985
0.000377781
-0.00323303
0.00035713
-0.0032055
0.000335344
-0.00317896
0.000312783
-0.00315423
0.00028966
-0.00313174
0.000266124
-0.00311177
0.000242288
-0.00309446
0.000218237
-0.00307981
-0.00306782
0.000194012
3.56462e-05
-0.00051761
0.000107974
-0.00139355
0.000188838
-0.00209358
0.000259221
-0.00260479
0.000309914
-0.00294258
0.000339314
-0.00314184
0.000350209
-0.00324263
0.000347036
-0.00328028
0.000334152
-0.00328131
0.00031504
-0.00326334
0.000292142
-0.00323695
0.000267007
-0.00320789
0.000240541
-0.00317903
0.000213237
-0.00315165
0.000185356
-0.00312635
0.000157046
-0.00310343
0.000128416
-0.00308314
9.9559e-05
-0.0030656
7.05573e-05
-0.00305081
-0.00303872
4.14583e-05
3.38235e-05
-0.000551434
9.9736e-05
-0.00145946
0.000170055
-0.0021639
0.000227381
-0.00266212
0.000264339
-0.00297954
0.000280706
-0.0031582
0.000279994
-0.00324192
0.000266811
-0.0032671
0.000245344
-0.00325985
0.000218771
-0.00323677
0.000189221
-0.0032074
0.000157991
-0.00317666
0.000125806
-0.00314684
9.30402e-05
-0.00311889
5.98714e-05
-0.00309318
2.63943e-05
-0.00306996
-7.31789e-06
-0.00304943
-4.11864e-05
-0.00303174
-7.51273e-05
-0.00301687
-0.00300476
-0.000109082
3.15783e-05
-0.000583012
9.03979e-05
-0.00151828
0.000149726
-0.00222323
0.000193995
-0.00270639
0.000217618
-0.00300316
0.000221583
-0.00316217
0.000209946
-0.00323028
0.000187359
-0.00324451
0.000157781
-0.00323027
0.000124072
-0.00320306
8.80728e-05
-0.0031714
5.08627e-05
-0.00313945
1.30202e-05
-0.003109
-2.51774e-05
-0.00308069
-6.36152e-05
-0.00305474
-0.000102247
-0.00303133
-0.000141031
-0.00301065
-0.000179903
-0.00299286
-0.000218771
-0.002978
-0.00296598
-0.000257559
2.89457e-05
-0.000611958
8.01138e-05
-0.00156945
0.000128163
-0.00227128
0.000159501
-0.00273773
0.000170251
-0.00301391
0.000162437
-0.00315435
0.000140503
-0.00320834
0.000109041
-0.00321305
7.17407e-05
-0.00319297
3.115e-05
-0.00316247
-1.1152e-05
-0.0031291
-5.42703e-05
-0.00309634
-9.77424e-05
-0.00306553
-0.000141362
-0.00303707
-0.000185066
-0.00301104
-0.000228848
-0.00298754
-0.000272702
-0.00296679
-0.000316578
-0.00294899
-0.00036037
-0.00293421
-0.00292237
-0.000403977
2.59661e-05
-0.000637924
6.90415e-05
-0.00161253
0.000105663
-0.0023079
0.000124301
-0.00275636
0.000122678
-0.00301229
0.000103692
-0.00313537
7.20318e-05
-0.00317668
3.21539e-05
-0.00317317
-1.25463e-05
-0.00314827
-5.98201e-05
-0.00311519
-0.000108323
-0.00308059
-0.000157312
-0.00304735
-0.000206414
-0.00301643
-0.000255471
-0.00298801
-0.000304457
-0.00296205
-0.000353404
-0.0029386
-0.000402343
-0.00291785
-0.000451241
-0.00290009
-0.000499981
-0.00288547
-0.00287393
-0.000548421
2.26841e-05
-0.000660608
5.73386e-05
-0.00164718
8.25046e-05
-0.00233307
8.87551e-05
-0.00276261
7.52866e-05
-0.00299882
4.57106e-05
-0.00310579
4.84564e-06
-0.00313582
-4.30467e-05
-0.00312528
-9.48757e-05
-0.00309644
-0.000148676
-0.00306139
-0.00020331
-0.00302596
-0.000258162
-0.00299249
-0.000312921
-0.00296167
-0.00036746
-0.00293347
-0.000421772
-0.00290774
-0.000475921
-0.00288445
-0.000529982
-0.00286379
-0.000583955
-0.00284612
-0.000637709
-0.00283171
-0.00282059
-0.000691044
1.91468e-05
-0.000679755
4.51595e-05
-0.00167319
5.8951e-05
-0.00234686
5.3191e-05
-0.00275685
2.84161e-05
-0.00297404
-1.1192e-05
-0.00306619
-6.07829e-05
-0.00308623
-0.000116332
-0.00306973
-0.000175056
-0.00303771
-0.000235253
-0.0030012
-0.000295971
-0.00296524
-0.0003567
-0.00293177
-0.000417172
-0.0029012
-0.000477269
-0.00287337
-0.000536985
-0.00284802
-0.000596405
-0.00282503
-0.000655651
-0.00280455
-0.000714773
-0.002787
-0.000773639
-0.00277285
-0.00276228
-0.000831951
1.5403e-05
-0.000695158
3.26535e-05
-0.00169044
3.52433e-05
-0.00234945
1.79008e-05
-0.00273951
-1.7634e-05
-0.00293851
-6.67386e-05
-0.00301708
-0.000124609
-0.00302836
-0.000187488
-0.00300685
-0.000252892
-0.00297231
-0.000319368
-0.00293472
-0.000386132
-0.00289848
-0.000452764
-0.00286513
-0.000519032
-0.00283493
-0.000584805
-0.0028076
-0.000650056
-0.00278277
-0.000714863
-0.00276022
-0.000779389
-0.00274002
-0.000843751
-0.00272263
-0.000907827
-0.00270877
-0.00269893
-0.000971183
1.15022e-05
-0.00070666
1.99626e-05
-0.0016989
1.1603e-05
-0.00234109
-1.6854e-05
-0.00271105
-6.25992e-05
-0.00289276
-0.000120683
-0.002959
-0.00018641
-0.00296263
-0.000256304
-0.00293696
-0.000328178
-0.00290044
-0.000400808
-0.00286209
-0.000473568
-0.00282572
-0.000546128
-0.00279257
-0.000618286
-0.00276277
-0.0006899
-0.00273599
-0.000760892
-0.00271178
-0.000831298
-0.00268981
-0.00090129
-0.00267003
-0.000971059
-0.00265286
-0.00104052
-0.00263931
-0.00263032
-0.00110912
7.4934e-06
-0.000714153
7.22043e-06
-0.00169863
-1.17692e-05
-0.0023221
-5.08415e-05
-0.00267198
-0.000106246
-0.00283736
-0.000172803
-0.00289244
-0.000245973
-0.00288946
-0.000322572
-0.00286036
-0.000400689
-0.00282232
-0.000479324
-0.00278345
-0.000557996
-0.00274705
-0.000636474
-0.00271409
-0.000714607
-0.00268464
-0.000792251
-0.00265834
-0.000869276
-0.00263476
-0.000945643
-0.00261345
-0.0010215
-0.00259418
-0.00109712
-0.00257724
-0.0011725
-0.00256393
-0.00255554
-0.00124728
3.42431e-06
-0.000717577
-5.44987e-06
-0.00168976
-3.46935e-05
-0.00229286
-8.38579e-05
-0.00262282
-0.000148371
-0.00277285
-0.000222902
-0.00281791
-0.000303104
-0.00280926
-0.000386079
-0.00277739
-0.000470185
-0.00273821
-0.000554625
-0.00269902
-0.000639067
-0.0026626
-0.000723395
-0.00262977
-0.000807539
-0.00260049
-0.000891398
-0.00257448
-0.000974823
-0.00255133
-0.0010577
-0.00253057
-0.00114013
-0.00251174
-0.00122251
-0.00249487
-0.00130504
-0.00248139
-0.00247227
-0.00138832
-6.59977e-07
-0.000716917
-1.79369e-05
-0.00167248
-5.70131e-05
-0.00225378
-0.000115729
-0.0025641
-0.000188798
-0.00269978
-0.000270808
-0.0027359
-0.000357619
-0.00272245
-0.000446615
-0.00268839
-0.000536402
-0.00264843
-0.00062637
-0.00260905
-0.000716339
-0.00257263
-0.000806327
-0.00253978
-0.000896404
-0.00251042
-0.000986603
-0.00248428
-0.00107687
-0.00246106
-0.00116709
-0.00244034
-0.00125728
-0.00242156
-0.00134778
-0.00240437
-0.00143917
-0.00239001
-0.00237727
-0.00153417
-4.71793e-06
-0.0007122
-3.01429e-05
-0.00164705
-7.85949e-05
-0.00220533
-0.000146312
-0.00249638
-0.00022739
-0.0026187
-0.000316383
-0.00264691
-0.000409368
-0.00262946
-0.000503992
-0.00259376
-0.000599077
-0.00255334
-0.000694177
-0.00251395
-0.00078924
-0.00247757
-0.00088442
-0.0024446
-0.000979971
-0.00241487
-0.00107618
-0.00238807
-0.00117334
-0.00236391
-0.00127163
-0.00234205
-0.00137119
-0.002322
-0.00147257
-0.00230298
-0.00157804
-0.00228454
-0.00227811
-0.0016772
-8.70037e-06
-0.000703499
-4.1965e-05
-0.00161379
-9.93085e-05
-0.00214798
-0.000175473
-0.00242022
-0.000264022