/*--------------------------------*- C++ -*----------------------------------*\
  =========                 |
  \\      /  F ield         | OpenFOAM: The Open Source CFD Toolbox
   \\    /   O peration     | Website:  https://openfoam.org
    \\  /    A nd           | Version:  6.0
     \\/     M anipulation  |
\*---------------------------------------------------------------------------*/
FoamFile
{
    version     2.0;
    format      ascii;
    class       volVectorField;
    location    "31";
    object      U;
}
// * * * * * * * * * * * * * * * * * * * * * * * * * * * * * * * * * * * * * //

dimensions      [0 1 -1 0 0 0 0];

internalField   nonuniform List<vector> 
12500
(
(-0.000259358 0.000115312 -5.4648e-22)
(-0.00152953 0.000287745 7.53467e-21)
(-0.00399275 0.000398057 -1.09118e-20)
(-0.00714577 0.000457988 5.00324e-21)
(-0.0107128 0.000476663 2.99653e-22)
(-0.0145211 0.000461758 -6.15292e-22)
(-0.0184331 0.000420371 -9.06987e-21)
(-0.0223461 0.000358919 4.97326e-21)
(-0.0261891 0.000283155 3.28366e-21)
(-0.0299152 0.000198255 3.33053e-21)
(-0.0334974 0.0001089 -5.62909e-21)
(-0.0369236 1.93346e-05 3.2701e-21)
(-0.0401942 -6.66058e-05 -1.5377e-21)
(-0.0433188 -0.000145479 2.60372e-21)
(-0.0463138 -0.000214245 -6.63169e-21)
(-0.049201 -0.000270284 9.56947e-21)
(-0.0520056 -0.00031142 -1.82225e-21)
(-0.0547548 -0.000335949 -6.74875e-21)
(-0.0574762 -0.000342644 3.45175e-21)
(-0.0601977 -0.000330777 -3.28941e-21)
(-0.0629498 -0.000300165 2.93971e-21)
(-0.0657622 -0.000251138 3.87978e-21)
(-0.0686246 -0.000183904 3.93043e-22)
(-0.0714724 -9.80369e-05 -1.10754e-20)
(-0.07458 1.78963e-06 5.84054e-21)
(-0.000293955 0.000751 9.97043e-21)
(-0.00162116 0.00193662 -2.5723e-20)
(-0.00413061 0.00282184 7.57572e-21)
(-0.00731906 0.00345968 5.05532e-21)
(-0.0109112 0.00389272 -4.02479e-21)
(-0.014735 0.00415762 -2.28365e-20)
(-0.0186536 0.0042878 6.78077e-21)
(-0.022565 0.0043131 -1.27863e-20)
(-0.0263988 0.00425997 1.52767e-20)
(-0.0301088 0.00415179 -2.03656e-20)
(-0.0336681 0.00400916 1.08572e-20)
(-0.0370655 0.00385026 3.50324e-21)
(-0.0403015 0.00369096 -8.81327e-21)
(-0.0433861 0.00354507 -3.88812e-21)
(-0.0463362 0.00342439 2.84206e-20)
(-0.049174 0.00333883 -2.51069e-20)
(-0.0519252 0.00329638 5.99709e-21)
(-0.0546175 0.00330322 1.03578e-20)
(-0.0572793 0.0033637 -2.36121e-21)
(-0.059939 0.0034804 1.6641e-20)
(-0.0626278 0.00365403 3.02233e-21)
(-0.0653764 0.00388363 -1.08295e-21)
(-0.068175 0.00416843 -2.09189e-20)
(-0.0709584 0.00450939 1.92222e-20)
(-0.0740026 0.00489191 -3.66432e-20)
(-0.000368803 0.00138528 3.19738e-20)
(-0.00181716 0.00358065 1.06199e-20)
(-0.00442144 0.00523675 -1.39043e-20)
(-0.00768012 0.00644805 5.96475e-21)
(-0.0113199 0.00729072 5.57835e-21)
(-0.0151707 0.00783046 2.11427e-20)
(-0.0190975 0.00812696 -2.68199e-20)
(-0.0230003 0.00823348 -4.35408e-21)
(-0.02681 0.00819708 -1.79091e-20)
(-0.0304817 0.00805926 -1.49314e-20)
(-0.0339897 0.00785654 1.92547e-20)
(-0.0373235 0.00762097 -6.43554e-20)
(-0.0404845 0.00738055 -2.00622e-21)
(-0.0434835 0.00715952 -3.851e-20)
(-0.0463383 0.00697862 -4.52557e-21)
(-0.0490717 0.00685521 5.45519e-21)
(-0.0517105 0.00680337 -2.97654e-20)
(-0.0542835 0.006834 -1.85946e-20)
(-0.0568203 0.00695485 -2.19852e-20)
(-0.0593506 0.00717063 3.44032e-20)
(-0.0619071 0.00748282 1.25563e-20)
(-0.0645222 0.00788996 -5.57562e-20)
(-0.0671871 0.00839089 -2.68178e-20)
(-0.0698359 0.00898732 -2.99363e-20)
(-0.0727475 0.00965449 8.06966e-20)
(-0.000483887 0.00201598 -1.00049e-21)
(-0.00211738 0.00521355 -2.45567e-20)
(-0.00486483 0.00763263 -1.17715e-20)
(-0.00822822 0.00940929 7.293e-21)
(-0.0119377 0.0106534 4.53758e-20)
(-0.0158267 0.0114596 -2.04451e-20)
(-0.0197633 0.0119138 4.35374e-20)
(-0.0236504 0.0120926 4.14121e-20)
(-0.0274211 0.0120634 2.51779e-20)
(-0.0310327 0.0118857 -3.79006e-22)
(-0.0344611 0.0116119 5.06251e-20)
(-0.0376972 0.0112878 8.75187e-21)
(-0.0407437 0.0109535 3.8527e-20)
(-0.0436122 0.010644 8.84425e-20)
(-0.0463218 0.0103891 -1.0247e-19)
(-0.0488966 0.0102139 1.5387e-19)
(-0.0513647 0.010139 3.34228e-20)
(-0.0537564 0.0101806 -7.36628e-20)
(-0.0561033 0.0103501 -1.04359e-20)
(-0.0584369 0.010655 2.67187e-20)
(-0.0607923 0.0110979 -1.33709e-20)
(-0.0632042 0.0116772 -7.9872e-21)
(-0.065666 0.0123915 -7.77989e-21)
(-0.0681103 0.0132438 -3.13055e-20)
(-0.070821 0.0141989 1.09689e-19)
(-0.000639106 0.00264099 1.66508e-20)
(-0.00252134 0.00682922 -7.73263e-20)
(-0.00545981 0.0099996 9.37149e-20)
(-0.0089618 0.0123299 -3.72783e-20)
(-0.0127626 0.0139639 4.45857e-20)
(-0.0167004 0.015025 3.6344e-20)
(-0.0206479 0.0156253 1.37849e-20)
(-0.0245119 0.0158643 6.714e-22)
(-0.028229 0.0158295 7.74403e-20)
(-0.0317591 0.0155983 5.35404e-20)
(-0.0350803 0.0152385 -2.14455e-20)
(-0.0381853 0.0148097 -1.37909e-20)
(-0.0410783 0.0143643 5.81213e-20)
(-0.0437726 0.0139478 1.09359e-20)
(-0.0462883 0.0135996 2.96334e-20)
(-0.0486513 0.013353 7.08835e-20)
(-0.0508912 0.0132357 -6.1171e-20)
(-0.0530405 0.0132696 4.93294e-20)
(-0.055133 0.0134709 -1.06216e-19)
(-0.0572031 0.0138502 8.91632e-20)
(-0.0592888 0.0144121 5.72954e-22)
(-0.0614284 0.0151553 -7.09386e-20)
(-0.0636177 0.0160788 2.85349e-20)
(-0.0657885 0.0171873 6.47268e-20)
(-0.0682308 0.0184346 -9.52363e-20)
(-0.00083428 0.00325836 8.61125e-20)
(-0.00302822 0.00842175 -9.14187e-20)
(-0.00620471 0.012328 -1.47062e-20)
(-0.00987821 0.015197 1.85307e-20)
(-0.0137908 0.0172061 -4.0004e-20)
(-0.0177873 0.0185079 -6.2337e-20)
(-0.0217462 0.0192399 -5.17954e-20)
(-0.0255794 0.0195244 -1.2479e-20)
(-0.029228 0.0194686 -8.90282e-20)
(-0.0326553 0.0191672 7.08503e-20)
(-0.0358422 0.0187032 -1.09971e-19)
(-0.0387837 0.0181499 5.55504e-20)
(-0.0414857 0.0175717 -1.84228e-20)
(-0.043963 0.0170249 4.26429e-20)
(-0.0462375 0.0165588 -1.07148e-19)
(-0.0483367 0.0162154 5.18837e-20)
(-0.0502921 0.0160302 3.86251e-21)
(-0.0521389 0.0160318 2.29869e-20)
(-0.0539134 0.016242 1.38723e-19)
(-0.0556536 0.0166757 3.06986e-20)
(-0.0574012 0.0173403 -2.80346e-21)
(-0.0591993 0.0182357 8.7532e-21)
(-0.0610473 0.0193621 5.76488e-20)
(-0.062876 0.0207267 1.64119e-20)
(-0.0649841 0.022272 5.38204e-20)
(-0.00106914 0.00386619 -5.3656e-20)
(-0.00363678 0.00998536 7.61703e-20)
(-0.00709697 0.0146085 4.77136e-21)
(-0.0109734 0.0179978 -9.29243e-20)
(-0.0150168 0.0203648 1.953e-19)
(-0.0190803 0.0218904 -6.31188e-20)
(-0.0230498 0.0227378 9.20931e-20)
(-0.0268438 0.0230511 8.42263e-20)
(-0.0304086 0.0229569 -6.96619e-20)
(-0.0337117 0.0225664 -1.01343e-19)
(-0.0367377 0.0219776 2.77276e-20)
(-0.0394838 0.0212768 -2.92237e-20)
(-0.0419582 0.0205404 -1.29195e-19)
(-0.0441774 0.0198357 1.56868e-19)
(-0.0461648 0.019222 -7.51908e-20)
(-0.0479496 0.0187508 -5.18179e-20)
(-0.0495658 0.018466 4.77291e-22)
(-0.0510508 0.0184041 4.22838e-20)
(-0.0524446 0.0185938 1.74206e-20)
(-0.053789 0.0190556 -6.82165e-20)
(-0.0551306 0.0198012 7.78231e-20)
(-0.0565181 0.0208327 -1.35143e-19)
(-0.0579557 0.0221527 8.24863e-20)
(-0.0593744 0.0237722 -6.31173e-20)
(-0.0610838 0.0256223 1.65555e-20)
(-0.0013433 0.00446266 7.80584e-20)
(-0.00434521 0.0115143 -6.00327e-20)
(-0.00813286 0.0168317 -3.81886e-20)
(-0.0122414 0.0207202 -6.74033e-20)
(-0.0164324 0.0234251 -1.23203e-19)
(-0.0205691 0.0251561 -9.10104e-20)
(-0.0245466 0.0261009 5.67054e-20)
(-0.0282912 0.0264252 -8.58629e-20)
(-0.0317557 0.026274 1.08949e-19)
(-0.0349129 0.0257744 -1.77266e-19)
(-0.037751 0.0250386 7.87162e-20)
(-0.0402704 0.0241654 1.66195e-19)
(-0.0424815 0.0232428 -2.33432e-19)
(-0.0444024 0.0223491 3.3318e-20)
(-0.0460581 0.0215536 4.33309e-20)
(-0.0474797 0.020918 4.18774e-20)
(-0.048703 0.0204957 -4.4992e-20)
(-0.0497685 0.0203322 -1.10596e-20)
(-0.0507195 0.0204646 -3.29996e-20)
(-0.0516026 0.0209211 -2.75094e-20)
(-0.05247 0.021719 -1.50874e-19)
(-0.0533776 0.022865 -1.01769e-20)
(-0.0543358 0.0243655 1.64332e-21)
(-0.0552764 0.0262372 -6.81239e-20)
(-0.0565241 0.0283993 7.0062e-20)
(-0.00165623 0.00504584 2.25732e-21)
(-0.00515103 0.0130027 2.45591e-20)
(-0.00930715 0.0189884 2.55646e-20)
(-0.0136739 0.0233519 1.48337e-20)
(-0.018026 0.026373 1.25388e-19)
(-0.022239 0.0282894 1.17741e-19)
(-0.0262189 0.0293132 -9.56836e-20)
(-0.0299015 0.0296304 -2.91139e-20)
(-0.0332472 0.0294037 -2.58482e-20)
(-0.0362348 0.0287752 1.33334e-19)
(-0.0388572 0.0278699 4.78463e-20)
(-0.0411182 0.0267989 -6.96456e-20)
(-0.0430302 0.0256608 -5.89223e-20)
(-0.0446133 0.0245444 1.41936e-19)
(-0.045894 0.0235297 -3.49913e-20)
(-0.0469044 0.0226885 -4.24002e-20)
(-0.0476826 0.0220848 -5.91429e-20)
(-0.0482716 0.0217745 -4.60194e-20)
(-0.0487186 0.021805 -5.87117e-20)
(-0.049075 0.0222141 -3.83697e-20)
(-0.0494 0.0230278 1.59395e-19)
(-0.0497575 0.0242595 -7.84613e-20)
(-0.0501662 0.0259218 5.28118e-20)
(-0.0505605 0.02804 -1.40373e-19)
(-0.0512843 0.0305217 5.65925e-20)
(-0.00200717 0.00561365 -7.00939e-20)
(-0.0060508 0.0144443 -1.82607e-20)
(-0.0106128 0.0210686 -1.42607e-19)
(-0.0152596 0.0258806 -6.83219e-20)
(-0.019782 0.0291945 -1.34842e-19)
(-0.02407 0.0312759 -1.4059e-20)
(-0.0280425 0.0323602 7.22372e-20)
(-0.0316464 0.0326533 -4.39937e-20)
(-0.0348512 0.0323339 9.47855e-20)
(-0.0376428 0.031558 -2.30257e-19)
(-0.0400193 0.0304627 -6.66675e-21)
(-0.0419882 0.0291694 4.07872e-20)
(-0.0435646 0.0277871 -5.17304e-20)
(-0.0447699 0.0264143 4.70486e-20)
(-0.0456319 0.025141 -3.59683e-20)
(-0.046184 0.0240497 -7.70334e-20)
(-0.0464655 0.0232156 1.40464e-19)
(-0.0465217 0.0227065 8.70771e-20)
(-0.0464036 0.0225823 -1.80536e-20)
(-0.0461679 0.022893 5.74131e-20)
(-0.045881 0.0236764 -1.13256e-19)
(-0.0456171 0.0249557 1.63148e-19)
(-0.0454045 0.0267538 -2.22764e-19)
(-0.0451829 0.0291084 4.58527e-20)
(-0.0453213 0.031916 -8.68621e-20)
(-0.00239505 0.00616367 3.80548e-21)
(-0.00703991 0.0158319 -6.23637e-20)
(-0.0120403 0.0230618 9.23732e-20)
(-0.0169838 0.0282934 1.89375e-19)
(-0.0216799 0.0318755 -3.11535e-21)
(-0.0260355 0.0341013 2.14384e-20)
(-0.029985 0.0352289 -8.09883e-20)
(-0.033488 0.0354826 3.79126e-20)
(-0.0365244 0.0350562 2.61268e-19)
(-0.0390885 0.034118 -5.92712e-20)
(-0.0411844 0.0328155 -6.9976e-20)
(-0.0428239 0.0312794 2.64405e-19)
(-0.0440248 0.0296272 8.63132e-20)
(-0.0448103 0.0279664 4.10696e-20)
(-0.0452087 0.0263961 4.20321e-20)
(-0.0452541 0.0250093 1.14494e-19)
(-0.0449867 0.0238928 -4.39777e-20)
(-0.0444536 0.0231276 1.16241e-19)
(-0.0437088 0.022788 1.57235e-19)
(-0.0428144 0.0229396 -1.3406e-19)
(-0.0418449 0.0236355 1.99119e-19)
(-0.0408858 0.0249135 7.10008e-20)
(-0.0399775 0.0268118 -2.69401e-19)
(-0.0390678 0.0293856 3.89488e-19)
(-0.0385592 0.0325228 -3.15255e-19)
(-0.00281834 0.00669302 -1.78458e-19)
(-0.00811224 0.0171576 9.72779e-20)
(-0.0135776 0.0249563 -6.52679e-20)
(-0.0188274 0.0305762 -6.19851e-20)
(-0.0236932 0.0344011 -6.68962e-20)
(-0.0281017 0.0367512 -7.25655e-20)
(-0.0320046 0.0379067 1.99115e-20)
(-0.0353765 0.0381091 1.89144e-19)
(-0.0382093 0.0375657 -4.05109e-20)
(-0.0405068 0.0364556 -1.05475e-19)
(-0.0422803 0.0349348 -6.43993e-20)
(-0.0435465 0.0331416 -2.6339e-20)
(-0.0443263 0.0312003 7.78961e-20)
(-0.0446446 0.0292255 -4.97443e-20)
(-0.0445304 0.0273244 -1.6228e-19)
(-0.0440177 0.0255994 -1.79006e-19)
(-0.0431468 0.0241487 7.13607e-20)
(-0.0419656 0.0230674 -1.32767e-19)
(-0.0405307 0.0224459 1.15247e-19)
(-0.0389089 0.0223685 -3.25412e-19)
(-0.0371832 0.0229083 2.49927e-19)
(-0.0354517 0.0241233 -3.30405e-19)
(-0.0337691 0.0260736 -6.15136e-21)
(-0.0320953 0.0288403 -1.11126e-19)
(-0.0308763 0.0323058 3.26193e-19)
(-0.00327494 0.00719825 2.73836e-19)
(-0.00925992 0.0184121 4.01427e-20)
(-0.0152095 0.0267388 -2.63724e-20)
(-0.0207668 0.0327134 -1.11249e-20)
(-0.0257893 0.036755 2.06982e-19)
(-0.0302261 0.0392104 6.73152e-20)
(-0.0340489 0.040381 6.10303e-20)
(-0.0372489 0.0405242 -4.90531e-20)
(-0.0398321 0.0398595 1.89141e-19)
(-0.0418131 0.038575 -9.29732e-20)
(-0.0432115 0.0368335 5.99925e-20)
(-0.04405 0.0347785 1.52563e-19)
(-0.0443533 0.0325391 -8.64923e-20)
(-0.0441481 0.0302347 9.36481e-20)
(-0.043464 0.0279785 8.84217e-20)
(-0.0423347 0.0258805 3.02522e-20)
(-0.0407999 0.0240494 -7.44904e-20)
(-0.0389072 0.0225939 2.0602e-19)
(-0.0367146 0.0216219 -1.91611e-20)
(-0.0342927 0.0212392 -2.20469e-20)
(-0.0317327 0.0215436 2.46475e-19)
(-0.0291465 0.02262 -1.75247e-19)
(-0.0266053 0.0245594 2.95142e-19)
(-0.0240853 0.0274796 -2.44626e-19)
(-0.0220894 0.0312641 3.14541e-19)
(-0.00376205 0.00767527 -1.3228e-19)
(-0.010473 0.0195848 2.93332e-20)
(-0.016917 0.0283943 -3.05606e-20)
(-0.0227733 0.0346876 -1.4464e-19)
(-0.0279285 0.0389189 8.38959e-21)
(-0.0323573 0.0414618 8.23327e-20)
(-0.0360536 0.0426375 -3.34833e-19)
(-0.0390276 0.0427187 2.49906e-19)
(-0.0413009 0.0419355 -2.43248e-19)
(-0.0429007 0.0404831 -1.53379e-19)
(-0.0438562 0.0385294 1.37538e-19)
(-0.0441973 0.0362207 -2.97559e-19)
(-0.0439533 0.0336886 2.50587e-19)
(-0.0431537 0.0310545 -7.96703e-20)
(-0.0418289 0.0284346 -2.27467e-19)
(-0.0400123 0.0259439 5.61729e-20)
(-0.0377422 0.0236992 -5.27282e-20)
(-0.0350653 0.0218211 1.98516e-20)
(-0.0320394 0.0204348 -7.10335e-20)
(-0.0287377 0.0196694 -2.3558e-19)
(-0.0252587 0.0196519 5.27689e-20)
(-0.0217282 0.0205012 -7.39868e-23)
(-0.0182361 0.0223504 -2.42587e-19)
(-0.0147793 0.0253688 1.70409e-19)
(-0.0119348 0.0294513 -1.47247e-19)
(-0.00427603 0.00811934 5.3547e-20)
(-0.0117391 0.0206636 9.86158e-20)
(-0.0186776 0.0299059 1.37977e-19)
(-0.0248125 0.0364789 7.0968e-20)
(-0.0300637 0.0408721 -6.95794e-20)
(-0.034434 0.0434854 1.65977e-19)
(-0.0379421 0.0446595 1.22813e-19)
(-0.0406192 0.0446811 -4.46905e-20)
(-0.0425043 0.0437897 1.59614e-19)
(-0.0436387 0.0421864 -1.64161e-19)
(-0.0440631 0.0400419 -4.8129e-20)
(-0.0438156 0.0375038 4.8846e-20)
(-0.0429318 0.034703 9.67715e-20)
(-0.0414452 0.0317602 1.15513e-21)
(-0.0393879 0.0287911 6.12118e-20)
(-0.0367934 0.0259118 1.12937e-19)
(-0.033699 0.0232431 -1.9225e-19)
(-0.0301494 0.0209144 2.38926e-19)
(-0.0262011 0.0190658 8.0584e-20)
(-0.0219283 0.0178493 2.83937e-20)
(-0.0174352 0.0174237 -2.89582e-19)
(-0.0128611 0.0179492 4.09935e-20)
(-0.00831537 0.0196131 6.35253e-20)
(-0.00381961 0.0226563 -1.52188e-20)
(-4.62433e-05 0.0269997 7.23471e-20)
(-0.00481233 0.00852519 4.21201e-21)
(-0.0130436 0.0216353 -2.54043e-19)
(-0.0204647 0.0312548 -6.31707e-21)
(-0.0268446 0.0380651 -6.40486e-20)
(-0.0321403 0.042591 -4.20887e-19)
(-0.0363853 0.0452581 3.63366e-19)
(-0.0396252 0.0464264 -2.58522e-19)
(-0.0419144 0.0463958 -1.29948e-20)
(-0.0433107 0.0454144 -1.22092e-19)
(-0.0438715 0.0436879 2.11072e-19)
(-0.04365 0.0413887 -2.2715e-19)
(-0.0426947 0.0386634 -1.0633e-19)
(-0.0410492 0.0356404 2.25796e-21)
(-0.0387525 0.0324363 -2.29936e-19)
(-0.0358404 0.0291628 3.13662e-19)
(-0.032348 0.0259324 -3.63283e-19)
(-0.0283124 0.0228648 7.21422e-22)
(-0.0237767 0.0200921 5.56477e-20)
(-0.0187955 0.0177645 -1.39161e-19)
(-0.0134422 0.016053 1.34929e-19)
(-0.00782463 0.0151479 -1.91421e-19)
(-0.00209405 0.0152548 -1.26411e-19)
(0.00362114 0.0166284 2.35492e-19)
(0.00927292 0.0196045 -2.56847e-19)
(0.0140683 0.0241526 -4.9377e-21)
(-0.0053655 0.00888716 -2.15057e-19)
(-0.0143693 0.0224854 2.46712e-19)
(-0.0222479 0.0324206 -7.61157e-20)
(-0.0288245 0.0394218 1.46532e-19)
(-0.0340964 0.0440487 1.57991e-19)
(-0.0381305 0.0467529 -1.39148e-19)
(-0.0410015 0.0479131 -9.22627e-20)
(-0.042788 0.0478419 -1.10427e-19)
(-0.0435688 0.0467955 1.0108e-19)
(-0.0434181 0.0449839 -6.73083e-21)
(-0.0424037 0.0425803 1.47296e-19)
(-0.0405862 0.0397293 1.45152e-19)
(-0.038019 0.036555 -1.73339e-19)
(-0.034749 0.0331678 3.40342e-19)
(-0.0308185 0.0296715 -2.25627e-19)
(-0.0262667 0.0261706 -3.86984e-20)
(-0.021133 0.0227772 4.3929e-19)
(-0.0154608 0.019619 -2.03375e-19)
(-0.00930347 0.0168472 1.29528e-19)
(-0.00273285 0.014644 2.52926e-19)
(0.00414181 0.0132248 -1.64085e-19)
(0.0111597 0.0128402 1.72942e-20)
(0.0181764 0.0138214 -1.12621e-20)
(0.0251197 0.016626 -6.71909e-20)
(0.0310486 0.0213016 1.26546e-19)
(-0.0059292 0.0091995 4.91521e-20)
(-0.0156965 0.0231993 -1.56425e-19)
(-0.0239929 0.033382 8.54938e-20)
(-0.0307013 0.0405228 -1.04439e-21)
(-0.0358628 0.045216 6.43379e-20)
(-0.0395797 0.0479391 -1.10698e-19)
(-0.0419572 0.0490891 6.3322e-20)
(-0.0430999 0.0489917 1.724e-19)
(-0.043108 0.0479109 -5.23086e-21)
(-0.0420742 0.0460611 -8.80343e-20)
(-0.0400818 0.0436162 8.85004e-20)
(-0.0372051 0.0407191 -2.04752e-21)
(-0.0335096 0.0374888 -2.80127e-19)
(-0.0290532 0.0340284 1.03865e-19)
(-0.0238875 0.0304317 2.29533e-20)
(-0.0180601 0.0267911 -4.03661e-20)
(-0.0116167 0.0232054 -7.19367e-20)
(-0.00460548 0.0197888 2.75763e-19)
(0.00291854 0.0166825 6.72254e-20)
(0.0108836 0.0140667 -1.44011e-19)
(0.0191798 0.0121682 -1.72852e-20)
(0.02764 0.0112723 1.98161e-19)
(0.036109 0.0117876 -9.25334e-20)
(0.0445003 0.0143192 3.97231e-20)
(0.0516994 0.0190281 2.68221e-20)
(-0.00649636 0.00945662 -9.84546e-20)
(-0.0170034 0.0237623 9.78456e-20)
(-0.0256618 0.0341174 -5.51549e-20)
(-0.0324191 0.041341 -1.77034e-19)
(-0.0373633 0.0460618 -1.6295e-19)
(-0.0406338 0.0487829 -7.2146e-20)
(-0.0423675 0.04992 -5.97092e-20)
(-0.0426955 0.0498115 -1.76616e-19)
(-0.0417404 0.0487301 -7.13175e-20)
(-0.0396137 0.0468948 6.49815e-20)
(-0.0364152 0.0444817 -9.27908e-20)
(-0.0322341 0.0416325 -9.79728e-20)
(-0.0271499 0.0384627 -9.18939e-20)
(-0.0212342 0.0350684 1.66815e-19)
(-0.0145522 0.0315336 -3.50327e-19)
(-0.00716458 0.0279367 1.9996e-19)
(0.000870028 0.024359 -3.41957e-19)
(0.00949243 0.0208939 -5.2682e-20)
(0.0186388 0.0176603 -1.87673e-19)
(0.0282321 0.0148188 -4.38154e-20)
(0.0381597 0.0125863 -5.34408e-20)
(0.0482491 0.0112586 -1.78424e-19)
(0.0583423 0.0113065 -1.95274e-20)
(0.0683597 0.0134977 1.0914e-19)
(0.0769984 0.0181436 -2.83887e-19)
(-0.0070593 0.00965346 8.44656e-20)
(-0.0182663 0.0241607 1.10483e-19)
(-0.027213 0.0346058 3.86955e-19)
(-0.0339169 0.0418497 -6.79408e-20)
(-0.0385149 0.0465546 1.61647e-19)
(-0.0411848 0.0492494 3.85013e-19)
(-0.0420963 0.0503684 -1.04908e-19)
(-0.0414072 0.050263 1.41963e-19)
(-0.0392623 0.0492151 8.2799e-20)
(-0.0357919 0.0474498 1.50001e-19)
(-0.0311127 0.0451469 -3.00482e-20)
(-0.0253293 0.0424491 2.02862e-20)
(-0.0185367 0.0394709 -5.24787e-20)
(-0.0108226 0.0363047 2.83879e-19)
(-0.00226951 0.0330268 3.63252e-20)
(0.00704275 0.0297039 2.631e-19)
(0.0170354 0.0263996 -6.72526e-20)
(0.0276284 0.023183 2.40441e-19)
(0.0387379 0.0201414 3.37084e-20)
(0.0502709 0.0173982 1.22108e-19)
(0.0621029 0.0151325 -5.26774e-20)
(0.0740521 0.0136126 -9.33968e-21)
(0.0859642 0.0133306 2.90013e-19)
(0.0978025 0.0152073 1.78287e-19)
(0.108089 0.0197278 -7.43632e-20)
(-0.0076099 0.00978575 -2.04768e-19)
(-0.0194592 0.0243821 -2.07574e-19)
(-0.0286018 0.0348281 -2.16939e-19)
(-0.0351284 0.042024 7.94766e-20)
(-0.0392273 0.0466648 -1.596e-19)
(-0.0411159 0.0493051 -2.37743e-20)
(-0.0409966 0.0503974 -6.26703e-20)
(-0.0390541 0.0503068 -2.59841e-19)
(-0.0354549 0.0493249 -4.05462e-20)
(-0.0303475 0.0476844 6.66105e-20)
(-0.0238648 0.0455705 -2.08899e-19)
(-0.0161267 0.0431303 2.89472e-19)
(-0.00724445 0.040481 -3.92901e-19)
(0.00267671 0.0377159 9.45466e-20)
(0.0135336 0.0349095 -2.4035e-19)
(0.0252225 0.0321229 -1.94921e-19)
(0.0376363 0.0294076 -1.10778e-20)
(0.0506627 0.0268122 -2.94139e-20)
(0.0641832 0.0243914 2.32271e-20)
(0.0780704 0.0222213 -1.11054e-19)
(0.0921696 0.0204176 -7.68352e-20)
(0.106274 0.0191725 9.43976e-20)
(0.120229 0.0189284 -2.61027e-19)
(0.134092 0.020702 8.48423e-20)
(0.146277 0.0251347 6.03081e-20)
(-0.00813974 0.00985024 -3.63421e-20)
(-0.0205548 0.0244165 -6.03209e-20)
(-0.0297794 0.0347682 2.34216e-19)
(-0.0359813 0.0418426 8.71034e-20)
(-0.0394022 0.0463669 1.15256e-19)
(-0.0402998 0.0489208 -1.53909e-19)
(-0.0389095 0.0499751 2.53321e-22)
(-0.0354422 0.049908 -1.24465e-19)
(-0.0300851 0.0490217 2.3001e-19)
(-0.0230041 0.0475575 7.50463e-20)
(-0.014347 0.0457082 8.41352e-20)
(-0.00424868 0.0436281 -3.34577e-19)
(0.00716431 0.0414414 4.12476e-19)
(0.0197685 0.039248 -1.23883e-19)
(0.0334387 0.0371287 -8.86091e-20)
(0.0480437 0.0351484 2.65211e-19)
(0.063442 0.0333589 1.18276e-19)
(0.0794788 0.031801 -2.99313e-19)
(0.0959846 0.0305092 -1.24889e-19)
(0.112775 0.0295185 3.76834e-19)
(0.129635 0.0288725 -2.87857e-19)
(0.1463 0.0286453 1.73059e-19)
(0.162585 0.02913 9.67197e-20)
(0.178688 0.0313125 -1.24388e-19)
(0.19308 0.0359017 -1.19987e-19)
(-0.00864015 0.00984472 -1.33712e-19)
(-0.0215234 0.0242564 2.07721e-19)
(-0.0306928 0.034414 8.84567e-20)
(-0.0363968 0.0412899 -1.27731e-19)
(-0.0389321 0.0456425 -2.04436e-20)
(-0.0385979 0.0480762 -1.33903e-19)
(-0.0356623 0.0490793 -5.33441e-20)
(-0.030362 0.0490428 5.98346e-20)
(-0.022904 0.0482795 -1.49451e-20)
(-0.0134702 0.0470397 1.12884e-19)
(-0.00222242 0.0455251 -9.80189e-20)
(0.0106911 0.0438995 2.71152e-19)
(0.0251292 0.0422976 -3.3602e-19)
(0.0409512 0.0408315 2.09515e-19)
(0.0580105 0.0395956 2.60236e-19)
(0.0761478 0.0386703 -3.76068e-19)
(0.0951851 0.0381237 -1.14434e-19)
(0.114919 0.0380113 1.92786e-19)
(0.135117 0.0383753 -1.19009e-19)
(0.155512 0.0392431 1.14885e-19)
(0.175794 0.0406151 -2.78455e-19)
(0.195579 0.0424451 4.63653e-20)
(0.214574 0.044792 1.81495e-19)
(0.233127 0.0484461 -2.92009e-19)
(0.250074 0.0539969 7.89984e-20)
(-0.00910203 0.00976804 -1.23719e-19)
(-0.0223332 0.023897 3.87665e-19)
(-0.0312839 0.0337582 7.44068e-20)
(-0.0362875 0.0403573 -2.01014e-19)
(-0.0376983 0.044483 1.43946e-19)
(-0.0358575 0.0467636 7.30495e-20)
(-0.0310665 0.0477037 1.16668e-19)
(-0.0235871 0.0477063 -7.64049e-21)
(-0.0136456 0.0470939 -1.21159e-20)
(-0.0014391 0.0461255 -2.53861e-20)
(0.0128572 0.0450116 -1.1096e-19)
(0.0290825 0.0439262 -3.75428e-21)
(0.0470819 0.0430157 2.59208e-19)
(0.0666994 0.042407 -4.25019e-19)
(0.0877693 0.0422138 3.02371e-19)
(0.110109 0.0425407 6.11794e-20)
(0.133507 0.0434879 1.0817e-19)
(0.157719 0.045152 -5.57542e-20)
(0.182447 0.0476271 4.94678e-19)
(0.20733 0.0510006 -3.06478e-19)
(0.231917 0.055329 2.45125e-19)
(0.255604 0.0605695 5.77564e-20)
(0.277802 0.0666701 -1.79674e-19)
(0.298801 0.0742912 1.52255e-19)
(0.318183 0.0834666 2.36138e-19)
(-0.00951565 0.00961983 -3.59983e-20)
(-0.0229487 0.0233364 -1.36716e-19)
(-0.031488 0.0327989 -2.33596e-19)
(-0.0355564 0.0390447 -1.33104e-19)
(-0.0355689 0.0428921 -1.86135e-20)
(-0.0319101 0.0449916 -5.25328e-20)
(-0.0249152 0.0458628 -2.43294e-19)
(-0.0148715 0.0459193 4.02853e-20)
(-0.00202496 0.0454914 -2.73193e-19)
(0.0134114 0.0448454 -2.1184e-20)
(0.0312485 0.0441989 -2.61855e-19)
(0.0513115 0.0437339 -9.3246e-20)
(0.073432 0.0436066 5.34986e-20)
(0.097439 0.0439565 -2.54633e-19)
(0.123152 0.0449144 2.30786e-21)
(0.150372 0.0466094 -2.19292e-19)
(0.178876 0.0491775 8.46583e-20)
(0.208404 0.0527704 -3.06232e-19)
(0.238645 0.057567 -5.25054e-20)
(0.269213 0.0637871 -7.3499e-21)
(0.299593 0.0716872 -5.18522e-20)
(0.329032 0.0815274 -5.32261e-20)
(0.356552 0.093735 -2.67173e-20)
(0.381572 0.109538 -1.06912e-19)
(0.402767 0.127516 -2.29485e-19)
(-0.00987023 0.00940037 6.56287e-20)
(-0.0233306 0.0225751 1.73353e-19)
(-0.0312324 0.0315399 2.08305e-19)
(-0.034095 0.037362 -1.66434e-19)
(-0.0323973 0.0408875 3.0865e-19)
(-0.0265694 0.0427881 -1.67542e-19)
(-0.016982 0.0435964 9.09411e-20)
(-0.00394934 0.043734 1.41711e-19)
(0.0122607 0.0435371 1.28911e-19)
(0.0314162 0.0432761 6.26607e-20)
(0.05331 0.0431724 1.0125e-19)
(0.077749 0.043411 5.88556e-20)
(0.104546 0.0441514 3.97694e-19)
(0.133511 0.045537 -2.88978e-19)
(0.164446 0.0477033 3.29913e-19)
(0.197143 0.0507873 -1.37111e-19)
(0.23138 0.0549377 2.95959e-19)
(0.266923 0.0603294 -1.40505e-20)
(0.303529 0.0671848 -6.12946e-20)
(0.340955 0.0758054 -1.13527e-20)
(0.37897 0.0866117 2.33256e-19)
(0.417402 0.10025 -2.29112e-19)
(0.456468 0.118015 1.60376e-19)
(0.496879 0.141695 1.79032e-19)
(0.535374 0.165091 3.73833e-20)
(-0.0101532 0.00911001 4.54225e-20)
(-0.0234341 0.0216159 -2.48121e-19)
(-0.0304355 0.0299907 -9.00449e-20)
(-0.0317818 0.0353287 8.21602e-20)
(-0.0280204 0.0385021 -2.53131e-19)
(-0.0196304 0.040202 -4.99398e-20)
(-0.00702048 0.0409714 3.45987e-20)
(0.00946408 0.0412374 1.36602e-19)
(0.0295289 0.0413388 -3.45801e-19)
(0.0529164 0.0415463 2.62769e-20)
(0.0793925 0.0420795 -1.01041e-19)
(0.108735 0.0431198 -3.06931e-19)
(0.140726 0.0448205 2.09088e-19)
(0.175141 0.0473153 8.93581e-21)
(0.211752 0.050726 -6.25327e-21)
(0.250321 0.0551692 2.10665e-19)
(0.290609 0.0607643 -3.72571e-19)
(0.332384 0.0676419 2.95056e-19)
(0.375432 0.075954 -5.45249e-20)
(0.419591 0.0858853 1.72589e-19)
(0.464773 0.0976581 -2.84075e-19)
(0.511038 0.111563 1.63455e-19)
(0.558865 0.128161 -2.94101e-19)
(0.609172 0.147951 3.05236e-19)
(0.65713 0.16464 -9.47454e-20)
(-0.0103497 0.00874902 3.05845e-19)
(-0.0232075 0.0204633 -4.98959e-20)
(-0.0290048 0.0281662 3.67036e-19)
(-0.0284812 0.0329748 1.6979e-19)
(-0.0222591 0.0357847 1.35797e-20)
(-0.0108706 0.0373038 7.40572e-20)
(0.00523209 0.038083 1.78549e-20)
(0.0256666 0.0385515 3.01419e-19)
(0.0501032 0.0390467 9.70252e-20)
(0.078247 0.0398348 -1.30074e-20)
(0.109823 0.0411276 2.60673e-20)
(0.144562 0.0430944 1.00283e-19)
(0.182194 0.045872 8.36553e-20)
(0.222438 0.0495711 1.78909e-19)
(0.265005 0.0542829 -2.03829e-19)
(0.309599 0.060083 6.15569e-20)
(0.355923 0.0670357 1.8656e-20)
(0.403692 0.0751964 9.11454e-20)
(0.452647 0.084613 2.47297e-19)
(0.502583 0.0953227 -1.61168e-19)
(0.553365 0.107339 1.39365e-20)
(0.604953 0.12064 -2.29511e-19)
(0.657534 0.135285 2.17895e-19)
(0.711546 0.151476 -2.12379e-19)
(0.762126 0.16518 1.96855e-20)
(-0.0104416 0.00831754 -2.55177e-19)
(-0.0225917 0.0191239 1.94987e-19)
(-0.0268368 0.0260871 -3.17242e-19)
(-0.0240446 0.0303404 2.73636e-20)
(-0.0149195 0.0327989 2.2299e-19)
(-5.38486e-05 0.0341848 -3.71295e-19)
(0.0200493 0.0350527 2.94344e-19)
(0.0449598 0.0358303 -4.66762e-19)
(0.0742991 0.0368486 9.29876e-20)
(0.107718 0.0383635 1.98551e-20)
(0.14488 0.0405713 1.5659e-19)
(0.185444 0.0436207 -5.20212e-19)
(0.22906 0.0476208 8.98145e-20)
(0.275361 0.0526474 9.50962e-20)
(0.323966 0.0587478 -5.70166e-20)
(0.374482 0.0659431 -3.53629e-19)
(0.426517 0.074231 1.66482e-19)
(0.479691 0.0835855 3.11804e-19)
(0.533649 0.0939551 -3.29345e-19)
(0.588081 0.105257 2.39141e-19)
(0.642731 0.117365 -3.10922e-19)
(0.6974 0.13009 2.26217e-19)
(0.751982 0.143267 -6.34564e-20)
(0.806546 0.157086 3.63054e-19)
(0.856964 0.169435 -4.17195e-19)
(-0.0104077 0.00781559 3.65614e-20)
(-0.0215196 0.0176062 2.88043e-20)
(-0.0238172 0.0237795 7.05584e-20)
(-0.0183107 0.0274756 2.51508e-19)
(-0.00579629 0.0296234 -7.85065e-21)
(0.0130644 0.0309553 5.61604e-20)
(0.0377054 0.0320255 2.49726e-19)
(0.0676342 0.0332548 1.00708e-19)
(0.102404 0.0349617 -3.31479e-20)
(0.141588 0.037384 2.82178e-19)
(0.184759 0.040694 -3.21157e-19)
(0.231477 0.0450091 4.92618e-19)
(0.281278 0.0503997 -1.95408e-19)
(0.333677 0.0568949 3.54576e-19)
(0.388166 0.0644868 -1.19711e-19)
(0.44423 0.0731338 4.36638e-20)
(0.501354 0.0827625 5.29147e-20)
(0.559038 0.0932691 -1.02444e-19)
(0.616816 0.104519 8.57193e-20)
(0.674265 0.116343 5.51816e-20)
(0.731014 0.128532 7.63974e-20)
(0.78674 0.140828 1.62879e-19)
(0.84117 0.152976 -1.33817e-20)
(0.894187 0.165148 -7.46699e-20)
(0.942729 0.17671 2.28518e-19)
(-0.0102228 0.00724332 -2.13763e-19)
(-0.0199157 0.0159211 2.25863e-20)
(-0.0198215 0.0212758 -4.05859e-19)
(-0.0111088 0.0244403 -9.68969e-20)
(0.00532222 0.0263505 -1.81234e-19)
(0.0287278 0.0277431 -3.88717e-20)
(0.058463 0.0291663 -1.93883e-19)
(0.0939515 0.0310267 -1.15768e-19)
(0.134653 0.0336223 1.53246e-19)
(0.180032 0.0371633 -2.55689e-19)
(0.22954 0.0417868 -7.09961e-20)
(0.282599 0.0475666 2.78301e-21)
(0.338602 0.0545221 -4.79584e-19)
(0.396911 0.0626239 2.03871e-19)
(0.456871 0.0717994 -2.9768e-19)
(0.517822 0.0819379 -9.30926e-21)
(0.579119 0.0928954 5.88837e-20)
(0.640147 0.104498 -9.54157e-20)
(0.70034 0.116546 -8.37377e-20)
(0.75919 0.128813 4.21209e-20)
(0.816259 0.141052 4.73327e-20)
(0.871174 0.152988 -3.0641e-19)
(0.923609 0.164352 1.74917e-19)
(0.973396 0.175278 8.93243e-20)
(1.01853 0.186177 2.56235e-20)
(-0.00985784 0.00660148 2.18816e-19)
(-0.0176972 0.0140829 -2.33401e-19)
(-0.0147171 0.0186148 3.27097e-19)
(-0.00226268 0.0213049 5.07725e-20)
(0.0186473 0.0230857 -1.55802e-20)
(0.0471694 0.0246915 -1.0977e-19)
(0.0825573 0.0266557 1.65046e-20)
(0.124124 0.0293616 1.66653e-19)
(0.171201 0.0330761 -2.29801e-19)
(0.223112 0.0379692 2.41212e-19)
(0.279145 0.0441288 -2.54528e-20)
(0.338553 0.0515713 1.12173e-20)
(0.400551 0.0602511 3.13506e-19)
(0.464326 0.0700685 4.20206e-19)
(0.529063 0.0808782 -1.6438e-19)
(0.593959 0.0924976 2.92437e-19)
(0.658249 0.104715 1.48975e-19)
(0.721231 0.117297 -9.09176e-20)
(0.782279 0.129996 2.89424e-19)
(0.840859 0.142558 -1.05203e-20)
(0.896534 0.154724 -2.7951e-19)
(0.948958 0.166238 2.9618e-19)
(0.997857 0.176855 4.3495e-20)
(1.04311 0.18668 -1.85271e-19)
(1.08363 0.196795 5.80932e-20)
(-0.00928028 0.0058921 -3.04666e-19)
(-0.0147744 0.0121107 3.18228e-19)
(-0.00836596 0.0158438 -2.01884e-19)
(0.0084047 0.0181507 -6.30409e-20)
(0.0343816 0.0199477 -1.40815e-19)
(0.068599 0.0219568 2.48862e-19)
(0.110181 0.0246858 -1.44393e-19)
(0.158293 0.0284824 -6.61104e-20)
(0.212103 0.0335676 -1.89186e-19)
(0.270748 0.0400558 4.89882e-21)
(0.33332 0.0479691 -7.39478e-20)
(0.398864 0.0572505 3.60024e-20)
(0.466397 0.0677752 -3.78876e-19)
(0.534924 0.0793629 1.07931e-19)
(0.603471 0.0917901 -1.30427e-19)
(0.671114 0.104803 -1.0533e-19)
(0.737008 0.11813 3.25096e-20)
(0.800411 0.131492 -1.54234e-19)
(0.860702 0.144616 -6.68225e-20)
(0.91739 0.15724 1.91559e-19)
(0.970114 0.169123 8.19376e-20)
(1.01863 0.180048 -3.47804e-19)
(1.06281 0.18982 2.5694e-19)
(1.10264 0.198538 -4.87627e-20)
(1.13775 0.207641 -1.01625e-19)
(-0.00845447 0.00511924 -1.11208e-19)
(-0.0110534 0.0100299 -5.94622e-20)
(-0.000628304 0.0130194 -1.19133e-20)
(0.021065 0.0150708 8.67603e-20)
(0.0527106 0.017068 9.43574e-20)
(0.0931915 0.0197074 8.21338e-20)
(0.141465 0.023457 1.02044e-19)
(0.19651 0.028612 1.55685e-19)
(0.257285 0.0353301 2.37777e-19)
(0.3227 0.0436506 2.35119e-19)
(0.39161 0.0535113 1.24076e-19)
(0.462836 0.0647647 -3.32956e-20)
(0.535183 0.077194 8.35063e-21)
(0.607483 0.0905309 -1.14495e-20)
(0.678633 0.104473 9.82227e-20)
(0.747632 0.118702 -2.64924e-20)