1.275 	2.15223e-18 	-2.76991e-20 	-0.132189 	0.0147183 	-2.54359e-22
1.825 	2.15223e-18 	-1.39322e-20 	-0.266899 	-0.0137055 	3.48526e-21
2.375 	2.15223e-18 	1.38775e-18 	-0.288957 	-0.0960048 	-1.55799e-21
2.925 	2.15223e-18 	2.78958e-18 	-0.426169 	-0.12706 	1.37734e-22
3.475 	2.15223e-18 	4.53849e-18 	-0.349993 	-0.0211232 	-1.32749e-21
4.025 	2.15223e-18 	6.28755e-18 	-0.295842 	0.135344 	-1.04472e-22
4.575 	2.15223e-18 	6.30203e-18 	-0.170378 	0.20603 	1.5617e-21
5.125 	2.15223e-18 	6.31666e-18 	-0.116152 	0.166145 	-1.1825e-21
5.675 	2.15223e-18 	6.33144e-18 	0.0774261 	0.0493268 	-1.91266e-22
6.225 	2.15223e-18 	4.61166e-18 	0.18076 	-0.071556 	-2.97936e-22
