/*--------------------------------*- C++ -*----------------------------------*\
  =========                 |
  \\      /  F ield         | OpenFOAM: The Open Source CFD Toolbox
   \\    /   O peration     | Website:  https://openfoam.org
    \\  /    A nd           | Version:  6.0
     \\/     M anipulation  |
\*---------------------------------------------------------------------------*/
FoamFile
{
    version     2.0;
    format      ascii;
    class       volVectorField;
    location    "17.7";
    object      U;
}
// * * * * * * * * * * * * * * * * * * * * * * * * * * * * * * * * * * * * * //

dimensions      [0 1 -1 0 0 0 0];

internalField   nonuniform List<vector> 
8000
(
(-0.000527917 0.000647553 -3.63274e-21)
(-0.00286162 0.0015939 1.94183e-20)
(-0.00715546 0.00225111 -2.3619e-20)
(-0.0124181 0.00268943 1.79858e-20)
(-0.0181397 0.00296175 8.75892e-21)
(-0.0240367 0.00311035 -2.63028e-20)
(-0.029909 0.00317041 -2.32496e-21)
(-0.035629 0.00317096 -8.25327e-22)
(-0.0411279 0.00313578 -1.36558e-20)
(-0.0463796 0.00308437 -7.39923e-21)
(-0.0513889 0.00303258 5.51712e-21)
(-0.0561821 0.00299314 2.09799e-20)
(-0.0608007 0.00297607 -1.56921e-21)
(-0.0652952 0.00298889 2.25003e-21)
(-0.0697212 0.00303685 -2.11395e-20)
(-0.0741388 0.00312299 1.30272e-20)
(-0.0786077 0.0032483 -1.86714e-20)
(-0.083149 0.00341257 2.82578e-20)
(-0.0877336 0.00361528 -3.16766e-23)
(-0.0926176 0.00385005 6.11284e-21)
(-0.000620895 0.0018422 1.20643e-20)
(-0.00308269 0.00455137 -6.16582e-20)
(-0.00745037 0.00644521 -4.25887e-20)
(-0.0127458 0.0077203 -2.89225e-20)
(-0.0184671 0.00852426 -3.72093e-20)
(-0.0243362 0.00897541 8.18618e-21)
(-0.0301567 0.00917284 -4.29558e-20)
(-0.0358039 0.00919881 -9.64962e-21)
(-0.041211 0.00912131 3.0466e-21)
(-0.0463535 0.00899644 3.21077e-20)
(-0.0512368 0.00887031 -3.50299e-20)
(-0.0558883 0.00878031 4.87316e-20)
(-0.0603503 0.00875608 -3.64971e-20)
(-0.0646744 0.00882019 -4.32875e-20)
(-0.0689175 0.00898852 -5.96669e-20)
(-0.0731417 0.00927048 3.80985e-20)
(-0.0774085 0.00966938 -1.23345e-20)
(-0.0817409 0.0101849 -4.49079e-20)
(-0.0861092 0.0108158 4.2461e-20)
(-0.0907745 0.0115427 -3.1595e-20)
(-0.000803761 0.00301585 1.17949e-19)
(-0.00351825 0.00745795 6.10861e-20)
(-0.0080322 0.0105664 6.86995e-20)
(-0.0133931 0.0126606 5.7171e-21)
(-0.0191145 0.0139809 3.79712e-20)
(-0.0249286 0.01472 4.73889e-20)
(-0.0306471 0.0150398 -8.61295e-20)
(-0.0361509 0.0150749 -4.56117e-20)
(-0.0413771 0.0149368 -5.94113e-20)
(-0.0463036 0.0147181 6.34169e-20)
(-0.050938 0.0144949 -4.84423e-20)
(-0.0553092 0.0143299 -6.23376e-20)
(-0.0594612 0.0142729 -2.2702e-20)
(-0.0634476 0.0143626 2.1566e-20)
(-0.0673282 0.0146267 -6.00402e-21)
(-0.0711682 0.0150822 8.64176e-21)
(-0.0750338 0.0157357 1.00131e-19)
(-0.0789514 0.016588 -1.40433e-20)
(-0.0828909 0.0176379 -1.01833e-19)
(-0.0871229 0.0188526 1.34379e-19)
(-0.00107406 0.00415588 4.10479e-20)
(-0.0041634 0.0102823 -5.79673e-20)
(-0.0088958 0.0145694 -1.4542e-20)
(-0.0143556 0.0174537 2.71934e-20)
(-0.020079 0.019265 7.72071e-20)
(-0.0258138 0.0202684 1.69037e-19)
(-0.0313835 0.0206863 1.65178e-19)
(-0.0366774 0.0207042 1.37272e-20)
(-0.0416384 0.020476 1.013e-19)
(-0.0462484 0.0201299 1.55062e-19)
(-0.0505174 0.0197725 -1.23912e-19)
(-0.0544767 0.0194918 1.83385e-19)
(-0.0581726 0.0193593 -4.1545e-20)
(-0.0616615 0.0194311 1.04704e-20)
(-0.065007 0.0197489 4.33908e-20)
(-0.0682798 0.0203394 5.76772e-20)
(-0.0715524 0.0212149 -9.07504e-20)
(-0.0748573 0.0223787 -7.57697e-20)
(-0.0781646 0.0238319 -1.34139e-19)
(-0.0817599 0.0255272 1.95399e-19)
(-0.00142837 0.0052514 -2.14444e-20)
(-0.00501099 0.0129967 -2.19523e-19)
(-0.0100331 0.0184131 -6.49328e-20)
(-0.0156259 0.0220479 -1.58233e-19)
(-0.0213551 0.0243163 5.98157e-20)
(-0.0269891 0.025552 -9.43337e-20)
(-0.0323673 0.0260358 3.24491e-20)
(-0.0373903 0.0260014 -1.99812e-19)
(-0.0420087 0.0256436 1.05418e-19)
(-0.0462094 0.0251252 -1.25714e-19)
(-0.0500057 0.0245827 -1.11807e-19)
(-0.0534314 0.0241302 -1.25206e-19)
(-0.0565353 0.023862 1.13659e-19)
(-0.0593775 0.0238543 -1.02065e-19)
(-0.0620262 0.0241652 1.42127e-19)
(-0.0645589 0.0248346 4.10905e-20)
(-0.0670573 0.0258836 1.0173e-19)
(-0.0695624 0.0273216 4.46731e-20)
(-0.0720469 0.0291549 -1.7684e-19)
(-0.0748175 0.0313211 2.87925e-19)
(-0.00186255 0.00629358 9.45593e-20)
(-0.00605178 0.0155772 7.26577e-21)
(-0.0114329 0.0220617 3.89512e-20)
(-0.0171923 0.0263979 1.35904e-19)
(-0.0229319 0.0290815 -2.07985e-20)
(-0.0284461 0.0305114 2.20698e-19)
(-0.0335941 0.0310227 9.79634e-20)
(-0.0382907 0.0308947 8.23589e-21)
(-0.0424963 0.0303604 2.51907e-19)
(-0.0462039 0.0296154 8.25493e-20)
(-0.0494307 0.0288255 3.91632e-20)
(-0.0522128 0.0281309 1.24291e-19)
(-0.0546017 0.0276504 1.1394e-19)
(-0.0566609 0.0274824 2.08036e-19)
(-0.0584639 0.0277059 -1.85948e-19)
(-0.0600965 0.0283782 2.62919e-19)
(-0.0616521 0.0295341 3.49368e-21)
(-0.0631833 0.0311943 -3.36169e-19)
(-0.0646691 0.0333752 4.35889e-19)
(-0.0664457 0.0359997 1.80641e-19)
(-0.00237196 0.00727567 -5.57253e-20)
(-0.00727446 0.0180043 -1.01164e-19)
(-0.0130797 0.025485 -2.10493e-19)
(-0.019037 0.0304653 -6.23777e-21)
(-0.0247907 0.0335163 3.59242e-20)
(-0.0301666 0.0350978 -2.68777e-19)
(-0.0350477 0.0355949 -1.99405e-19)
(-0.0393667 0.0353286 -2.85224e-20)
(-0.0430956 0.0345669 -2.5224e-19)
(-0.0462348 0.0335356 -1.74654e-19)
(-0.0488055 0.0324277 -5.09011e-20)
(-0.0508463 0.0314095 -1.63911e-19)
(-0.0524106 0.0306251 -2.66609e-21)
(-0.0535646 0.0301982 -2.17704e-19)
(-0.0543875 0.0302326 9.15997e-20)
(-0.054974 0.0308093 -1.04503e-19)
(-0.0554313 0.031984 8.00966e-20)
(-0.0558282 0.0337961 -1.01864e-19)
(-0.0561547 0.0362801 -2.91313e-19)
(-0.056788 0.0393462 -8.85343e-20)
(-0.00295155 0.00819271 -2.05217e-20)
(-0.00866547 0.0202621 -2.22827e-20)
(-0.0149535 0.0286578 1.76491e-19)
(-0.0211344 0.0342181 -2.87214e-19)
(-0.0269017 0.0375847 4.21351e-20)
(-0.0321175 0.0392733 -1.6591e-19)
(-0.036694 0.0397145 7.83975e-20)
(-0.0405848 0.0392664 3.52395e-19)
(-0.0437761 0.0382273 -2.26026e-20)
(-0.0462769 0.0368495 -2.62904e-19)
(-0.048113 0.0353506 4.77681e-20)
(-0.049325 0.0339211 9.25899e-21)
(-0.049967 0.0327304 -5.39939e-20)
(-0.0501072 0.0319299 5.44741e-21)
(-0.0498293 0.0316531 4.74359e-19)
(-0.0492371 0.0320117 -6.75394e-20)
(-0.0484538 0.0330915 -1.31788e-19)
(-0.0475679 0.0349621 -2.36531e-19)
(-0.0465888 0.037688 2.41293e-19)
(-0.0459493 0.0411725 1.04012e-19)
(-0.0035959 0.00904096 1.03576e-19)
(-0.0102086 0.0223375 -1.35522e-19)
(-0.0170278 0.0315589 1.91594e-19)
(-0.0234487 0.0376299 1.92866e-19)
(-0.0292199 0.0412583 1.77783e-19)
(-0.0342463 0.0430107 3.60497e-19)
(-0.0384735 0.0433584 2.33121e-19)
(-0.0418802 0.0426907 -5.00944e-19)
(-0.0444698 0.0413314 2.56198e-19)
(-0.0462615 0.0395542 2.01045e-19)
(-0.0472866 0.0375965 -2.85408e-21)
(-0.047587 0.0356699 2.25063e-19)
(-0.0472167 0.0339675 1.75475e-19)
(-0.046244 0.0326691 -9.54512e-20)
(-0.0447551 0.0319417 3.22576e-19)
(-0.0428624 0.0319359 -3.99883e-19)
(-0.040706 0.0327791 1.60076e-19)
(-0.0383982 0.0345864 2.0591e-19)
(-0.0359769 0.0374703 -4.80088e-20)
(-0.0339525 0.041339 4.13381e-19)
(-0.00429901 0.00981714 2.08189e-19)
(-0.0118844 0.0242184 1.07924e-20)
(-0.019269 0.0341694 -7.4712e-20)
(-0.0259313 0.0406778 -7.89066e-20)
(-0.0316821 0.044514 -3.65415e-19)
(-0.0364746 0.0462912 5.17502e-20)
(-0.0402934 0.0465155 1.46607e-19)
(-0.0431463 0.0456025 -7.05187e-20)
(-0.0450573 0.0438948 5.81691e-20)
(-0.0460586 0.0416815 -1.5423e-20)
(-0.0461879 0.0392136 -7.59836e-20)
(-0.0454889 0.0367181 7.21363e-20)
(-0.0440144 0.0344079 -3.1366e-19)
(-0.0418306 0.032489 3.00683e-19)
(-0.039024 0.0311643 -2.60465e-19)
(-0.0357135 0.0306294 8.04607e-20)
(-0.0320557 0.0310665 1.83101e-19)
(-0.0281899 0.0326561 -3.80884e-20)
(-0.0241932 0.0355849 -1.26755e-19)
(-0.0206839 0.039786 -8.60883e-20)
(-0.005054 0.0105177 -2.59345e-19)
(-0.0136695 0.0258926 -1.70478e-20)
(-0.0216346 0.0364704 5.46127e-20)
(-0.0285193 0.0433401 1.4039e-19)
(-0.0342032 0.0473315 -1.98202e-19)
(-0.038694 0.0491006 -1.72951e-19)
(-0.0420205 0.0491838 4.03677e-19)
(-0.0442245 0.0480168 -2.23062e-19)
(-0.0453544 0.0459551 -1.43889e-19)
(-0.0454585 0.0432959 -2.0646e-19)
(-0.0445836 0.0402965 1.36676e-19)
(-0.0427763 0.0371911 -3.7009e-21)
(-0.040088 0.0342048 -2.55234e-19)
(-0.0365815 0.0315644 -4.17523e-19)
(-0.0323406 0.0295057 3.18086e-19)
(-0.0274877 0.0282732 -2.57726e-19)
(-0.0221944 0.0281154 3.65428e-19)
(-0.0166282 0.0293013 -1.02358e-19)
(-0.0109159 0.0321271 2.15328e-19)
(-0.00582443 0.0365843 -7.29918e-19)
(-0.00585275 0.0111382 -5.25285e-19)
(-0.0155355 0.0273462 3.44396e-19)
(-0.0240723 0.0384413 4.6835e-20)
(-0.0311334 0.0455932 9.0592e-21)
(-0.036674 0.0496892 -2.12306e-19)
(-0.0407621 0.0514251 3.122e-19)
(-0.043476 0.0513637 3.4077e-20)
(-0.0448963 0.0499559 -6.40175e-20)
(-0.0451001 0.0475644 -2.05473e-19)
(-0.044156 0.0444873 2.22107e-19)
(-0.0421233 0.04098 5.63098e-19)
(-0.0390547 0.0372742 -1.24403e-19)
(-0.035002 0.0335963 2.81082e-19)
(-0.0300246 0.030183 -3.32019e-19)
(-0.024202 0.0272944 -3.18337e-19)
(-0.0176568 0.0252201 1.91427e-19)
(-0.0105727 0.0242812 3.16292e-19)
(-0.00314428 0.0248573 -1.0249e-18)
(0.00444534 0.027399 1.20331e-19)
(0.0112274 0.0320049 1.63514e-19)
(-0.00668558 0.011673 3.88982e-19)
(-0.0174487 0.0285628 1.27946e-19)
(-0.0265193 0.0400581 6.66405e-19)
(-0.0336769 0.0474095 3.4286e-20)
(-0.0389595 0.0515608 -7.41064e-20)
(-0.0425005 0.053246 -3.52877e-19)
(-0.0444322 0.0530514 3.00092e-19)
(-0.0448783 0.0514401 5.38382e-19)
(-0.0439494 0.0487773 3.58689e-19)
(-0.0417388 0.0453566 2.58947e-19)
(-0.0383235 0.0414238 2.23224e-19)
(-0.0337673 0.0371982 -4.00864e-19)
(-0.028127 0.0328945 -1.25567e-19)
(-0.0214619 0.0287436 -9.24571e-20)
(-0.0138487 0.0250134 9.90847e-19)
(-0.00540901 0.0220242 -3.42578e-21)
(0.0036645 0.0201633 -2.4691e-19)
(0.0131545 0.0199352 -7.7903e-20)
(0.0228228 0.0219936 7.08652e-19)
(0.0314357 0.0266105 9.29138e-20)
(-0.007541 0.012115 -1.91849e-20)
(-0.0193694 0.0295231 -3.67927e-19)
(-0.0289014 0.0412929 -5.4731e-19)
(-0.0360359 0.0487558 -1.52278e-19)
(-0.040899 0.0529126 8.40861e-20)
(-0.0436943 0.0545349 1.81087e-20)
(-0.0446118 0.0542317 4.80167e-19)
(-0.0438218 0.0524766 -5.95515e-19)
(-0.0414718 0.0496357 -2.26519e-19)
(-0.037685 0.0459953 -4.56494e-19)
(-0.0325618 0.0417867 -3.88803e-19)
(-0.0261843 0.0372092 -3.4425e-19)
(-0.0186228 0.0324535 8.60704e-20)
(-0.00994493 0.0277269 -1.11742e-19)
(-0.000231064 0.0232815 4.78739e-19)
(0.0103943 0.0194407 -2.62449e-19)
(0.0217288 0.0166332 -8.22426e-19)
(0.0335389 0.0154806 -1.65917e-19)
(0.0455468 0.0168816 4.05835e-19)
(0.0561911 0.0213575 -3.53182e-19)
(-0.00840577 0.0124568 -6.20595e-20)
(-0.0212522 0.030206 4.49977e-19)
(-0.0311338 0.0421139 -5.73848e-19)
(-0.0380785 0.0495933 1.32642e-19)
(-0.0423064 0.0537025 -2.73181e-19)
(-0.0440938 0.0552516 6.08492e-19)
(-0.0436909 0.0548729 -4.34891e-19)
(-0.0413163 0.0530512 4.97552e-19)
(-0.0371573 0.0501548 -4.71748e-19)
(-0.0313703 0.0464638 2.01283e-19)
(-0.0240856 0.0421953 -9.76873e-20)
(-0.0154124 0.0375261 -2.45249e-19)
(-0.00544644 0.0326157 -3.03007e-19)
(0.00572211 0.0276336 3.0192e-19)
(0.0179942 0.0227907 -2.52823e-19)
(0.0312293 0.0183762 -5.52673e-19)
(0.0452061 0.0148115 5.75349e-19)
(0.0596774 0.0127928 -7.33809e-19)
(0.074363 0.0134749 3.30124e-19)
(0.0873328 0.0176943 8.30508e-21)
(-0.00926498 0.0126906 -5.62643e-19)
(-0.0230453 0.0305894 -6.07431e-19)
(-0.0331201 0.0424878 7.00019e-20)
(-0.0396557 0.0498797 -5.85702e-19)
(-0.0429707 0.0538824 -5.21126e-20)
(-0.0434161 0.055346 -4.30825e-19)
(-0.0413024 0.0549274 -9.88347e-20)
(-0.0368969 0.0531257 -2.88853e-19)
(-0.0304268 0.0503152 2.56864e-21)
(-0.0220846 0.0467752 -1.2639e-19)
(-0.0120353 0.0427146 8.96661e-21)
(-0.000424609 0.0382933 -3.64198e-19)
(0.0126124 0.0336429 4.01379e-19)
(0.0269431 0.0288907 -5.6948e-19)
(0.0424255 0.0241903 2.01726e-19)
(0.058877 0.0197608 7.61792e-21)
(0.0760315 0.0159516 -3.21125e-19)
(0.0936152 0.0134466 7.96182e-19)
(0.111401 0.0136048 -1.9005e-19)
(0.12712 0.0175896 -1.23055e-19)
(-0.0101023 0.0128095 6.31548e-19)
(-0.0246909 0.0306525 3.40981e-19)
(-0.0347521 0.0423822 3.17162e-19)
(-0.0405999 0.0495737 4.73456e-20)
(-0.0426553 0.0534041 4.28839e-19)
(-0.041345 0.0547651 6.18114e-19)
(-0.0370385 0.0543401 5.06083e-19)
(-0.0300499 0.0526459 4.52982e-20)
(-0.0206454 0.0500685 3.70639e-19)
(-0.00905368 0.0468947 5.72704e-19)
(0.00452212 0.0433366 -1.48567e-19)
(0.019892 0.0395508 2.49337e-19)
(0.0368674 0.0356559 2.01345e-19)
(0.0552513 0.0317502 2.04838e-19)
(0.0748274 0.027935 1.21143e-18)
(0.0953323 0.0243439 -4.54051e-19)
(0.116409 0.0211979 -2.76873e-20)
(0.137708 0.019045 5.2628e-19)
(0.159108 0.019309 -2.98351e-19)
(0.178164 0.0233975 1.47332e-19)
(-0.0109002 0.012808 -5.10682e-19)
(-0.0261241 0.0303777 3.26946e-20)
(-0.0359074 0.0417703 -4.08717e-19)
(-0.0407221 0.0486414 -5.31959e-20)
(-0.0410953 0.0522288 2.99185e-19)
(-0.0375291 0.0534659 -8.90692e-19)
(-0.0304505 0.0530645 -6.66379e-22)
(-0.0202174 0.0515615 4.14528e-19)
(-0.0071326 0.0493603 3.89487e-19)
(0.00853984 0.0467639 -1.71479e-19)
(0.0265569 0.0440003 5.65503e-20)
(0.0466788 0.041242 1.31163e-19)
(0.0686514 0.0386196 -6.21144e-20)
(0.0921921 0.0362342 -6.96587e-19)
(0.116976 0.034171 1.76366e-19)
(0.142609 0.0325085 4.85226e-19)
(0.168571 0.031335 -6.91312e-19)
(0.194339 0.0309646 3.37092e-19)
(0.21989 0.0327108 9.04407e-20)
(0.242993 0.0380431 4.57343e-19)
(-0.0116391 0.0126825 -7.53691e-20)
(-0.0272714 0.0297523 -3.57759e-19)
(-0.0364471 0.0406345 1.64632e-19)
(-0.0398078 0.0470641 7.71371e-22)
(-0.0379916 0.0503384 -7.17453e-19)
(-0.0315762 0.0514327 1.11963e-19)
(-0.0210444 0.0510862 -2.12659e-20)
(-0.00679563 0.0498571 1.44851e-19)
(0.0108322 0.0481688 -6.6306e-19)
(0.0315402 0.046346 -4.64926e-20)
(0.0550447 0.0446431 -1.55796e-19)
(0.0810532 0.0432646 1.38594e-19)
(0.109241 0.0423813 4.67886e-19)
(0.139229 0.0421419 -7.23451e-20)
(0.170557 0.0426846 2.80304e-20)
(0.202645 0.0441345 1.84143e-19)
(0.2347 0.0465756 -4.5516e-20)
(0.265812 0.0502183 3.71343e-19)
(0.295802 0.0563807 -2.15662e-19)
(0.323062 0.0663138 -3.40237e-19)
(-0.012297 0.0124307 6.99317e-20)
(-0.0280478 0.0287694 1.70777e-20)
(-0.0362104 0.0389702 1.43449e-19)
(-0.037611 0.0448448 3.51333e-19)
(-0.0330049 0.0477479 1.97156e-19)
(-0.023047 0.0486942 2.05727e-20)
(-0.00827633 0.0484478 -2.35372e-19)
(0.0108645 0.0475857 6.03331e-20)
(0.0340002 0.0465488 3.17369e-19)
(0.0607936 0.0456818 -5.37818e-19)
(0.0909168 0.0452645 4.05858e-19)
(0.124026 0.0455358 -3.05823e-19)
(0.159738 0.0467155 2.59548e-19)
(0.197606 0.0490263 -5.59835e-19)
(0.237088 0.0527179 6.15937e-19)
(0.277498 0.0580842 -6.58786e-19)
(0.31786 0.0654634 -1.71269e-19)
(0.356833 0.0754959 5.37613e-19)
(0.393246 0.0903034 -1.81642e-19)
(0.423715 0.110588 8.02751e-20)
(-0.0128474 0.0120513 -5.29102e-20)
(-0.0283533 0.0274288 4.99339e-19)
(-0.0350102 0.036789 -2.09022e-21)
(-0.0338486 0.0420153 -3.09988e-19)
(-0.0257495 0.0445152 -2.08473e-19)
(-0.0114505 0.0453393 3.81939e-19)
(0.00844726 0.045271 -1.51281e-19)
(0.033449 0.0448995 -1.9058e-20)
(0.0631287 0.0446743 3.15343e-19)
(0.0970932 0.0449477 -3.9176e-19)
(0.134953 0.0460058 4.29653e-20)
(0.176298 0.0480955 -5.09398e-19)
(0.220688 0.0514481 2.68269e-19)
(0.267644 0.056308 -7.67656e-19)
(0.316661 0.0629698 1.22294e-18)
(0.367217 0.0718276 -2.24109e-19)
(0.418813 0.0834884 2.33615e-19)
(0.471247 0.0993107 -6.06658e-19)
(0.524955 0.122343 4.1794e-21)
(0.571812 0.148863 6.86627e-19)
(-0.0132574 0.011543 -1.60262e-19)
(-0.028069 0.0257359 1.38444e-19)
(-0.0326286 0.0341196 -5.09966e-19)
(-0.0281965 0.0386388 7.54299e-19)
(-0.0157921 0.0407475 -5.44594e-19)
(0.00375305 0.0415258 2.81156e-20)
(0.0297603 0.0417693 -5.87338e-19)
(0.0616599 0.0420686 4.19955e-19)
(0.098943 0.0428678 -5.99935e-20)
(0.141119 0.0445048 -3.70683e-19)
(0.187685 0.0472414 -2.16344e-19)
(0.238109 0.0512853 2.28609e-19)
(0.291824 0.0568092 1.5119e-19)
(0.348243 0.0639672 -6.6907e-19)
(0.406787 0.0729118 2.41566e-19)
(0.466933 0.0838055 -3.56247e-19)
(0.528276 0.0968404 4.31388e-20)
(0.590747 0.112428 -3.02385e-19)
(0.655116 0.131732 1.23377e-19)
(0.714221 0.151113 -4.52758e-19)
(-0.0134851 0.0109039 4.56252e-19)
(-0.0270531 0.0237026 -2.7636e-19)
(-0.0288143 0.0310089 2.27716e-19)
(-0.0202898 0.0348121 -2.87492e-19)
(-0.00265674 0.0366024 4.81873e-19)
(0.023139 0.0374816 -8.41895e-21)
(0.0563119 0.0382469 -5.8679e-20)
(0.0961759 0.0394771 -4.35148e-20)
(0.142084 0.0415914 2.67818e-19)
(0.19338 0.0448886 4.55448e-19)
(0.249367 0.0495735 -2.6903e-19)
(0.309301 0.055775 2.61583e-19)
(0.372391 0.0635604 4.778e-19)
(0.437828 0.0729452 -3.35024e-19)
(0.504825 0.083899 -6.80277e-19)
(0.572657 0.0963424 1.24378e-18)
(0.640715 0.110131 -2.22128e-19)
(0.708586 0.125095 -7.2086e-20)
(0.776415 0.141534 7.75115e-19)
(0.83919 0.158756 -1.64525e-19)
(-0.0134781 0.010132 -7.42681e-19)
(-0.0251398 0.0213475 -4.94392e-19)
(-0.0232838 0.0275226 -1.89787e-19)
(-0.00972966 0.0306647 3.66182e-19)
(0.0141597 0.0322856 -8.26757e-19)
(0.0472901 0.0334972 4.2821e-19)
(0.0887209 0.0350838 5.42771e-20)
(0.137585 0.0375929 5.49048e-20)
(0.193016 0.0413949 -5.61021e-19)
(0.2541 0.0467187 -1.98126e-19)
(0.31985 0.0536768 -3.49275e-19)
(0.389209 0.0622833 3.37336e-19)
(0.461076 0.0724676 9.57089e-20)
(0.534345 0.0840864 1.86695e-20)
(0.607954 0.0969319 4.39333e-19)
(0.680936 0.110734 -4.45133e-19)
(0.752455 0.125151 -1.84283e-20)
(0.821844 0.139789 1.15411e-20)
(0.888752 0.154474 6.11423e-20)
(0.950483 0.170843 3.43643e-19)
(-0.0131726 0.00922584 2.3645e-19)
(-0.0221392 0.0186982 6.08965e-19)
(-0.0157263 0.0237466 4.88681e-19)
(0.00390398 0.0263587 -1.68467e-19)
(0.0351626 0.0280461 5.86026e-19)
(0.0767543 0.029914 -4.9376e-20)
(0.127511 0.0327122 -6.95609e-20)
(0.186293 0.0369296 4.1413e-20)
(0.251911 0.0428532 5.66703e-19)
(0.323083 0.0506038 3.3302e-19)
(0.39843 0.0601618 9.72659e-20)
(0.476504 0.0713899 6.00806e-21)
(0.55584 0.0840548 -6.45075e-19)
(0.635024 0.0978478 5.60519e-19)
(0.71275 0.112404 9.60396e-20)
(0.787879 0.127316 -1.58278e-19)
(0.859472 0.142146 -6.85445e-19)
(0.926815 0.156454 -5.76563e-20)
(0.989385 0.169778 2.70254e-19)
(1.04653 0.185237 -5.48386e-20)
(-0.0124931 0.00818661 -5.99864e-19)
(-0.0178408 0.0157943 2.50983e-19)
(-0.00581279 0.0197898 -1.22548e-18)
(0.0210335 0.0220883 5.01983e-19)
(0.0608265 0.0241716 -4.00359e-19)
(0.111993 0.0271121 2.9518e-19)
(0.173037 0.0315932 -4.58649e-19)
(0.242429 0.0380051 4.21004e-20)
(0.318535 0.0465062 -2.36554e-20)
(0.399592 0.057061 1.23401e-19)
(0.483748 0.0694737 1.78191e-19)
(0.569127 0.0834232 -3.36756e-19)
(0.653918 0.0984981 1.78375e-19)
(0.736462 0.114233 1.63748e-19)
(0.815334 0.130139 7.06785e-19)
(0.889385 0.145734 -3.07137e-19)
(0.95777 0.160558 -2.03702e-19)
(1.01995 0.174224 3.42374e-19)
(1.07557 0.186191 1.82099e-19)
(1.12529 0.200212 -3.43497e-19)
(-0.0113538 0.0070205 5.25349e-19)
(-0.0120186 0.0126925 5.06545e-19)
(0.00679061 0.0157878 1.46186e-19)
(0.0420595 0.0180817 6.15701e-19)
(0.0915559 0.0209843 3.02536e-19)
(0.153323 0.0254974 -5.45425e-19)
(0.22541 0.0321911 8.26206e-19)
(0.30576 0.0413029 -4.0661e-19)
(0.392164 0.0528046 4.05955e-19)
(0.482297 0.0664503 5.25287e-19)
(0.573797 0.0818266 -3.00202e-19)
(0.664394 0.0984066 5.70388e-20)
(0.752029 0.115605 3.17874e-19)
(0.834962 0.132829 2.23886e-19)
(0.91184 0.14952 5.15337e-19)
(0.981721 0.165188 -2.0639e-19)
(1.04407 0.179426 -2.56071e-20)
(1.09873 0.191953 3.24383e-19)
(1.14572 0.202327 -6.9857e-20)
(1.18647 0.214312 2.29122e-22)
(-0.00966136 0.00574165 -2.71172e-19)
(-0.00443969 0.00947125 -9.96686e-19)
(0.0224067 0.0119079 2.34737e-19)
(0.0673337 0.0146022 -1.78713e-19)
(0.127645 0.0188363 -4.12627e-19)
(0.200866 0.0254873 -2.94701e-19)
(0.284438 0.0349482 -1.82077e-19)
(0.375632 0.0472345 4.42162e-19)
(0.471567 0.0620651 -2.62606e-19)
(0.569311 0.0789313 -2.68991e-19)
(0.666044 0.0971737 -3.40145e-19)
(0.759226 0.116062 -5.61448e-20)
(0.846743 0.134868 -3.81335e-20)
(0.926999 0.152931 -7.86062e-19)
(0.99895 0.169694 3.8076e-19)
(1.06208 0.184737 -5.00802e-19)
(1.11635 0.197773 1.56961e-19)
(1.16208 0.20867 -1.19507e-18)
(1.19981 0.217194 3.60316e-19)
(1.23129 0.226733 4.54832e-19)
(-0.00731772 0.00437478 -6.81076e-20)
(0.00512574 0.00623643 4.86118e-19)
(0.0413285 0.00835299 3.11745e-20)
(0.0971291 0.0119481 7.50113e-20)
(0.169236 0.0181021 -1.52515e-19)
(0.254496 0.0274936 -2.52897e-21)
(0.349578 0.040257 -3.93407e-21)
(0.45096 0.0561044 -9.20854e-20)
(0.555035 0.0744358 3.26619e-19)
(0.658316 0.0944424 1.26254e-19)
(0.757666 0.115218 5.732e-19)
(0.850497 0.135863 -1.56252e-19)
(0.934901 0.155576 1.09065e-19)
(1.00969 0.173706 -1.41096e-20)
(1.07434 0.189788 3.01929e-19)
(1.12894 0.20354 1.84593e-19)
(1.17402 0.214852 4.44393e-19)
(1.21043 0.223759 -7.17467e-19)
(1.23917 0.230271 9.02252e-19)
(1.26211 0.237239 -2.85755e-19)
(-0.00422401 0.00295736 -6.3347e-19)
(0.016893 0.00312431 -1.97822e-19)
(0.0637988 0.00536308 1.54564e-19)
(0.131611 0.0104495 9.7462e-20)
(0.216285 0.0191673 9.99446e-20)
(0.313809 0.0319019 1.01295e-19)
(0.419932 0.0484314 -2.53591e-19)
(0.530259 0.0680808 -1.04845e-19)
(0.640498 0.0898792 3.25345e-20)
(0.746761 0.11271 -3.10662e-19)
(0.845841 0.135458 -1.40498e-19)
(0.935394 0.157132 8.48938e-19)
(1.014 0.176947 -2.19039e-19)
(1.08111 0.194361 -3.01743e-19)
(1.1369 0.209078 -1.43043e-19)
(1.1821 0.221013 9.91536e-20)
(1.21783 0.230256 1.20705e-19)
(1.24537 0.23701 -5.784e-19)
(1.26606 0.241499 8.3659e-19)
(1.28175 0.246028 -7.2485e-19)
(-0.000284724 0.00154107 -7.163e-20)
(0.03105 0.00030339 2.05103e-20)
(0.0899889 0.00321396 -2.62121e-20)
(0.170807 0.0104603 3.82732e-19)
(0.26853 0.0224119 2.11282e-20)
(0.378109 0.039046 1.40598e-19)
(0.494261 0.059679 -2.9218e-19)
(0.611733 0.0831761 -1.06516e-20)
(0.725694 0.108175 4.05919e-19)
(0.832121 0.133288 5.65651e-20)
(0.928059 0.157272 -3.53589e-19)
(1.01172 0.17915 -3.10723e-20)
(1.08244 0.198262 -2.90312e-19)
(1.14044 0.214266 2.89146e-19)
(1.18666 0.227092 4.01289e-19)
(1.22246 0.23688 -4.4225e-20)
(1.2494 0.243911 -5.38233e-20)
(1.26909 0.248534 1.64113e-19)
(1.28303 0.251125 -5.27121e-19)
(1.29299 0.253516 4.64418e-19)
(0.00458766 0.000192369 7.20068e-20)
(0.0477441 -0.0020267 -4.64331e-19)
(0.119978 0.00221125 1.24251e-19)
(0.214586 0.0123446 -3.8562e-19)
(0.325476 0.0281881 1.32619e-19)
(0.446414 0.0491817 -4.92551e-19)
(0.571052 0.07408 1.98708e-19)
(0.693403 0.101245 -6.32831e-20)
(0.808368 0.12895 -2.58003e-21)
(0.912138 0.155619 6.47354e-20)
(1.00236 0.180003 -2.35733e-19)
(1.07809 0.201261 -3.365e-19)
(1.13956 0.21896 -6.89566e-20)
(1.18785 0.233022 -3.0955e-20)
(1.22459 0.24363 -7.85241e-20)
(1.25162 0.251138 -2.55667e-20)
(1.27082 0.255992 -7.65225e-20)
(1.28395 0.258639 -6.63239e-20)
(1.29253 0.259547 -1.97152e-19)
(1.29818 0.260166 3.12679e-19)
(0.0104679 -0.00100791 1.73046e-19)
(0.0670684 -0.00363895 -1.92205e-19)
(0.153733 0.00268032 4.13714e-19)
(0.262637 0.0164588 -1.78631e-19)
(0.386396 0.0367966 4.77451e-19)
(0.517501 0.0624642 6.8514e-21)
(0.648616 0.091578 2.3984e-19)
(0.773274 0.122002 -6.4296e-20)
(0.88648 0.151724 2.68078e-19)
(0.985026 0.179113 1.93459e-20)
(1.06748 0.203051 6.38034e-19)
(1.13393 0.222951 -4.40348e-19)
(1.18556 0.238683 5.93691e-20)
(1.22425 0.25046 1.13232e-19)
(1.25216 0.258712 5.9237e-19)
(1.27147 0.263974 -2.12814e-19)
(1.28421 0.266804 -4.21589e-20)
(1.2921 0.267704 -2.23148e-19)
(1.29661 0.267182 -2.34391e-20)
(1.29914 0.266388 1.11601e-19)
(0.0174128 -0.00196578 -8.30012e-20)
(0.0890497 -0.00428541 2.39859e-19)
(0.191097 0.00495258 -2.45716e-19)
(0.314468 0.0231303 9.69965e-20)
(0.450351 0.048463 -1.16092e-19)
(0.58997 0.078933 4.26005e-19)
(0.725209 0.111987 -5.93907e-20)
(0.849495 0.145054 1.46155e-19)
(0.958362 0.175973 -8.6112e-20)
(1.04957 0.203214 -2.29459e-21)
(1.12285 0.22593 9.82763e-20)
(1.17938 0.243877 -7.61478e-20)
(1.22125 0.257266 1.97482e-19)
(1.25097 0.266598 -9.84613e-20)
(1.27108 0.27251 -4.33216e-19)
(1.28392 0.27567 4.30628e-19)
(1.29146 0.276695 -1.9392e-19)
(1.29534 0.276098 1.54843e-19)
(1.29686 0.274392 2.68326e-19)
(1.2972 0.272496 1.10224e-19)
(0.0254563 -0.00257629 2.06567e-19)
(0.113637 -0.00370606 -4.25716e-19)
(0.231777 0.00934902 8.14372e-20)
(0.369408 0.0326365 -5.91105e-20)
(0.516231 0.0633197 -2.38554e-19)
(0.662332 0.098509 -1.87238e-19)
(0.799161 0.13501 -3.68269e-20)
(0.920492 0.169947 -3.33822e-19)
(1.02282 0.201184 -2.03542e-20)
(1.10516 0.227455 -6.20311e-20)
(1.16851 0.248296 -1.68354e-19)
(1.2151 0.263862 -3.74158e-20)
(1.24779 0.274706 -1.28818e-19)
(1.26953 0.281578 -2.14906e-19)
(1.28304 0.285272 2.20015e-19)
(1.29062 0.286531 3.02738e-20)
(1.29415 0.285986 6.03285e-20)
(1.29504 0.284129 -2.5328e-19)
(1.29442 0.281454 -6.36123e-21)
(1.29326 0.278699 -3.90545e-19)
(0.034605 -0.00272661 2.26346e-19)
(0.140694 -0.00163959 1.51009e-19)
(0.275343 0.0161626 -2.43599e-19)
(0.426632 0.0451852 3.80398e-19)
(0.582813 0.0813952 -4.10435e-20)
(0.733108 0.121003 1.42141e-19)
(0.868988 0.160276 4.92232e-20)
(0.98506 0.196215 1.74374e-19)
(1.07914 0.226901 -1.36547e-19)
(1.15169 0.251478 4.55087e-20)
(1.20495 0.269944 -4.36731e-20)
(1.24209 0.282865 -1.91935e-20)
(1.26651 0.291103 3.65263e-20)
(1.28141 0.295604 -6.72832e-20)
(1.2895 0.297259 -2.06633e-20)
(1.29296 0.296836 -6.32421e-20)
(1.29346 0.294944 -1.02768e-19)
(1.29219 0.292027 6.63599e-20)
(1.29008 0.288558 -9.09956e-20)
(1.28793 0.285118 3.93241e-19)
(0.0448337 -0.0022999 -1.12988e-19)
(0.169997 0.00216454 -3.20209e-19)
(0.321241 0.0256409 -4.26368e-20)
(0.485194 0.0608999 -1.16404e-20)
(0.648832 0.102613 -1.4352e-19)
(0.800919 0.146137 -2.35692e-19)
(0.93347 0.187371 7.71509e-20)
(1.04239 0.223413 -1.06019e-19)
(1.12707 0.252746 -1.18789e-19)
(1.18948 0.275039 6.61809e-20)
(1.23298 0.290784 -5.00105e-20)
(1.26147 0.300937 -1.01191e-19)
(1.2787 0.306613 -3.40445e-21)
(1.28791 0.308893 6.85415e-20)
(1.29169 0.30871 -6.99143e-20)
(1.292 0.306813 9.70155e-20)
(1.29027 0.303761 2.61082e-20)
(1.28748 0.299946 6.57539e-20)
(1.28436 0.295812 1.28123e-19)
(1.28154 0.291807 -1.09747e-19)
(0.0560831 -0.00117987 1.07906e-19)
(0.20123 0.00793342 -9.48983e-21)
(0.368802 0.0379707 4.84737e-20)
(0.544071 0.0798109 -6.57568e-20)
(0.713049 0.126798 5.43326e-21)
(0.864556 0.173564 2.28281e-19)
(0.991696 0.215873 -1.4995e-19)
(1.09204 0.251146 6.35404e-20)
(1.16672 0.278432 5.60392e-20)
(1.2191 0.297991 -1.57463e-19)
(1.25352 0.310809 1.4799e-19)
(1.27437 0.318179 1.31709e-21)
(1.28552 0.321407 -1.04299e-19)
(1.29013 0.321643 1.25719e-19)
(1.29057 0.319816 -4.99028e-20)
(1.28853 0.316625 3.81585e-20)
(1.28519 0.312566 -4.26754e-20)
(1.28135 0.307971 -1.70806e-20)
(1.27756 0.303264 -1.49401e-19)
(1.27432 0.298766 4.57747e-20)
(0.0682583 0.000744149 -3.63537e-20)
(0.233997 0.0158583 9.76315e-20)
(0.417273 0.0532658 1.52342e-20)
(0.602214 0.101854 6.38787e-20)
(0.774312 0.153693 3.04965e-20)
(0.923032 0.202901 1.42973e-20)
(1.04307 0.245373 8.104e-20)
(1.13391 0.279077 -9.82814e-21)
(1.19845 0.303746 3.57468e-20)
(1.24129 0.320261 5.74375e-20)
(1.26753 0.330061 2.77232e-20)
(1.2818 0.334712 1.99072e-20)
(1.28796 0.335641 8.07315e-20)
(1.28894 0.334014 -7.81537e-20)
(1.28684 0.330716 1.67759e-20)
(1.28309 0.32638 -1.57193e-20)
(1.27864 0.321428 2.4309e-20)
(1.27409 0.316137 2.03709e-20)
(1.26988 0.310918 4.25471e-20)
(1.26637 0.305963 1.77886e-21)
(0.0812293 0.003572 2.15534e-20)
(0.267831 0.0260835 1.96884e-20)
(0.465844 0.0715586 -2.72645e-20)
(0.658593 0.126872 1.70385e-20)
(0.831609 0.182974 9.63068e-21)
(0.975601 0.233745 -2.99625e-20)
(1.08726 0.275496 9.88891e-21)
(1.16815 0.306931 1.78722e-21)
(1.22279 0.328545 1.706e-20)
(1.25686 0.341824 -4.5757e-20)
(1.27591 0.348604 -1.43674e-22)
(1.28467 0.350648 1.26882e-20)
(1.28682 0.349441 -1.01116e-20)
(1.28501 0.346119 1.02299e-20)
(1.28103 0.341497 2.67085e-20)
(1.27606 0.33613 -1.52022e-20)
(1.27085 0.330366 4.22957e-21)
(1.26586 0.324436 1.66627e-20)
(1.26139 0.31874 -2.74683e-20)
(1.25774 0.313342 1.31868e-20)
(0.0948336 0.00738756 6.00337e-20)
(0.302205 0.0386969 -3.2666e-20)
(0.51368 0.0927968 3.84784e-20)
(0.712243 0.154628 -2.86353e-20)
(0.884094 0.21427 -1.28485e-20)
(1.02175 0.265695 3.88585e-21)
(1.1242 0.305903 -1.26149e-20)
(1.19507 0.334485 4.53756e-20)
(1.24037 0.352727 -3.77957e-20)
(1.26656 0.362681 8.8712e-21)
(1.27946 0.366501 -6.61031e-21)
(1.28372 0.366079 -4.30943e-20)
(1.28273 0.362896 4.18114e-20)
(1.27881 0.358026 1.59285e-20)
(1.27349 0.352198 -1.58445e-20)
(1.26769 0.345884 3.7211e-20)
(1.26199 0.339363 -5.43386e-22)
(1.25674 0.332829 -3.61174e-20)
(1.25215 0.326675 2.67588e-20)
(1.24844 0.320833 8.44585e-21)
(0.108879 0.0122542 -2.10381e-20)
(0.336555 0.0537238 6.10063e-20)
(0.559958 0.116844 7.05157e-20)
(0.762298 0.184812 -3.32821e-20)
(0.931105 0.247179 5.79067e-20)
(1.06118 0.29836 9.16742e-20)
(1.15398 0.336292 -5.05351e-21)
(1.21512 0.361555 -1.57571e-20)
(1.25182 0.376221 7.78145e-20)
(1.27112 0.382839 3.79555e-20)
(1.27889 0.383804 -6.89571e-21)
(1.27954 0.381063 5.66214e-20)
(1.27615 0.376054 -6.07537e-20)
(1.27071 0.369759 9.46215e-20)
(1.26445 0.362816 -1.57872e-20)
(1.25812 0.355615 4.52668e-20)
(1.25214 0.348374 8.17245e-21)
(1.24678 0.341256 3.24124e-20)
(1.24217 0.334651 -3.08481e-20)
(1.23848 0.328354 7.44362e-21)
(0.12315 0.0182104 -3.27451e-20)
(0.370296 0.0711222 7.76327e-20)
(0.60389 0.143486 5.76978e-20)
(0.808011 0.217061 -8.75015e-21)
(0.972155 0.281282 8.99807e-20)
(1.09378 0.331367 -6.72575e-20)
(1.17685 0.366393 -5.29177e-21)
(1.22878 0.387988 5.93887e-20)
(1.25777 0.398968 1.88661e-20)
(1.27117 0.402299 2.64209e-20)
(1.27475 0.400536 -3.9028e-20)
(1.2726 0.395625 1.01837e-19)
(1.26743 0.388921 1.90364e-20)
(1.26093 0.381304 -9.02555e-20)
(1.25408 0.373315 1.31976e-19)
(1.24744 0.365269 -1.55761e-19)
(1.24135 0.35733 -7.15631e-20)
(1.236 0.349641 1.18549e-20)
(1.23144 0.342584 6.95142e-20)
(1.22784 0.33582 -1.3115e-19)
(0.137412 0.025267 -7.36211e-20)
(0.402841 0.0907825 -1.73727e-19)
(0.644754 0.172433 -1.50276e-19)
(0.848774 0.250964 -2.04659e-19)
(1.00693 0.316156 -1.16182e-19)
(1.11959 0.364364 -2.40973e-19)
(1.19314 0.395965 3.06195e-20)
(1.23656 0.413648 -1.28106e-19)