/*--------------------------------*- C++ -*----------------------------------*\
  =========                 |
  \\      /  F ield         | OpenFOAM: The Open Source CFD Toolbox
   \\    /   O peration     | Website:  https://openfoam.org
    \\  /    A nd           | Version:  6.0
     \\/     M anipulation  |
\*---------------------------------------------------------------------------*/
FoamFile
{
    version     2.0;
    format      ascii;
    class       volScalarField;
    location    "81";
    object      p;
}
// * * * * * * * * * * * * * * * * * * * * * * * * * * * * * * * * * * * * * //

dimensions      [0 2 -2 0 0 0 0];

internalField   nonuniform List<scalar> 
4000
(
-0.417318
-0.418092
-0.418315
-0.418235
-0.418103
-0.418053
-0.418166
-0.418479
-0.419001
-0.419727
-0.42065
-0.42176
-0.42305
-0.424512
-0.426137
-0.427918
-0.42984
-0.431823
-0.433779
-0.436279
-0.414892
-0.416337
-0.416935
-0.417096
-0.417152
-0.417241
-0.417437
-0.417773
-0.41825
-0.41886
-0.419592
-0.420437
-0.421391
-0.422449
-0.423609
-0.424872
-0.426231
-0.427594
-0.428878
-0.430829
-0.41268
-0.414795
-0.415767
-0.416168
-0.416413
-0.416635
-0.416903
-0.417242
-0.417647
-0.418105
-0.4186
-0.419125
-0.419675
-0.420254
-0.420865
-0.421524
-0.422229
-0.422882
-0.42341
-0.424747
-0.410887
-0.413644
-0.414977
-0.415616
-0.416047
-0.4164
-0.416733
-0.417063
-0.417376
-0.41765
-0.417865
-0.418012
-0.41809
-0.418106
-0.418076
-0.41803
-0.417979
-0.417816
-0.417489
-0.418132
-0.409724
-0.413064
-0.414735
-0.415606
-0.416224
-0.416709
-0.417106
-0.417422
-0.417629
-0.417694
-0.417591
-0.417305
-0.416838
-0.416203
-0.41543
-0.414565
-0.413636
-0.412532
-0.411231
-0.411087
-0.409388
-0.413223
-0.415197
-0.416292
-0.417097
-0.41772
-0.418189
-0.418493
-0.41859
-0.418433
-0.417983
-0.417217
-0.416137
-0.41476
-0.41313
-0.411318
-0.40937
-0.407176
-0.404755
-0.40371
-0.410043
-0.414259
-0.416491
-0.417799
-0.418795
-0.419565
-0.42012
-0.420427
-0.420425
-0.420046
-0.419234
-0.417954
-0.4162
-0.413994
-0.411391
-0.408489
-0.40536
-0.4019
-0.398181
-0.396101
-0.411808
-0.416267
-0.418702
-0.420209
-0.421397
-0.42233
-0.422992
-0.423327
-0.42325
-0.422668
-0.421499
-0.419691
-0.417222
-0.414111
-0.410425
-0.406287
-0.401799
-0.396869
-0.391637
-0.388357
-0.414735
-0.419286
-0.42186
-0.423546
-0.424928
-0.426037
-0.426832
-0.42723
-0.427115
-0.426365
-0.424868
-0.422542
-0.419344
-0.41528
-0.410419
-0.404908
-0.398879
-0.392258
-0.385265
-0.380586
-0.418807
-0.423288
-0.425932
-0.42777
-0.429338
-0.430635
-0.431588
-0.432084
-0.431976
-0.431108
-0.429331
-0.426528
-0.422622
-0.417594
-0.411505
-0.404513
-0.396781
-0.388247
-0.379223
-0.372916
-0.423933
-0.428186
-0.430822
-0.432776
-0.434513
-0.435996
-0.437121
-0.437745
-0.437686
-0.436753
-0.434757
-0.43154
-0.426981
-0.421026
-0.413708
-0.405185
-0.395634
-0.385005
-0.373691
-0.365503
-0.429955
-0.433833
-0.436379
-0.4384
-0.440272
-0.441923
-0.443217
-0.443978
-0.443995
-0.443039
-0.440884
-0.437324
-0.432195
-0.425391
-0.416907
-0.406876
-0.395478
-0.382654
-0.368851
-0.358526
-0.436667
-0.440043
-0.442417
-0.444441
-0.446394
-0.448169
-0.449601
-0.450483
-0.450573
-0.449612
-0.447334
-0.443494
-0.437879
-0.430335
-0.4208
-0.409368
-0.396199
-0.381212
-0.364843
-0.352158
-0.443834
-0.446611
-0.448731
-0.45068
-0.45264
-0.454472
-0.45598
-0.456931
-0.457057
-0.456068
-0.453671
-0.449581
-0.443547
-0.435366
-0.424925
-0.412261
-0.397502
-0.380536
-0.361698
-0.346507
-0.451219
-0.453333
-0.455122
-0.456911
-0.458785
-0.46058
-0.462075
-0.463011
-0.463099
-0.462024
-0.459467
-0.455118
-0.448693
-0.439954
-0.428743
-0.415042
-0.398944
-0.380307
-0.359292
-0.341571
-0.458608
-0.460029
-0.461419
-0.462957
-0.464643
-0.466291
-0.467663
-0.468478
-0.468426
-0.467175
-0.464386
-0.45973
-0.452904
-0.443647
-0.431772
-0.41722
-0.400054
-0.38013
-0.357391
-0.337264
-0.465832
-0.466562
-0.467498
-0.468696
-0.470085
-0.471471
-0.4726
-0.473176
-0.472872
-0.47134
-0.46823
-0.4632
-0.455937
-0.446173
-0.43371
-0.418464
-0.400483
-0.379667
-0.355748
-0.333477
-0.472776
-0.472845
-0.473286
-0.474061
-0.475053
-0.476065
-0.476835
-0.477056
-0.476389
-0.474477
-0.470959
-0.46549
-0.457756
-0.44749
-0.434496
-0.41868
-0.400083
-0.378664
-0.354008
-0.329882
-0.479396
-0.478848
-0.478766
-0.479052
-0.479558
-0.480095
-0.480403
-0.480167
-0.47904
-0.476661
-0.472667
-0.466718
-0.45851
-0.447793
-0.434382
-0.418181
-0.399199
-0.377358
-0.352053
-0.326192
-0.485708
-0.484594
-0.483974
-0.483717
-0.483667
-0.48365
-0.48341
-0.482632
-0.480967
-0.478054
-0.473538
-0.467097
-0.458456
-0.447412
-0.43384
-0.417702
-0.399029
-0.377668
-0.352812
-0.326783
-0.491786
-0.490152
-0.488988
-0.488153
-0.487496
-0.486864
-0.486011
-0.484625
-0.48236
-0.478859
-0.473784
-0.466842
-0.45781
-0.446557
-0.433067
-0.417456
-0.399978
-0.380976
-0.36132
-0.345573
-0.497747
-0.495627
-0.493916
-0.492483
-0.491187
-0.489899
-0.488387
-0.486342
-0.483422
-0.479283
-0.473608
-0.466139
-0.45671
-0.445262
-0.431867
-0.416735
-0.400224
-0.382838
-0.365476
-0.350864
-0.503735
-0.501141
-0.498885
-0.496844
-0.494893
-0.492925
-0.490719
-0.487972
-0.484348
-0.479516
-0.473186
-0.465143
-0.455273
-0.443584
-0.43021
-0.415412
-0.399566
-0.38314
-0.366726
-0.351705
-0.509904
-0.506828
-0.504023
-0.501373
-0.498761
-0.496098
-0.49317
-0.489679
-0.485295
-0.479705
-0.47265
-0.463961
-0.453576
-0.441557
-0.428081
-0.413423
-0.397932
-0.381994
-0.365998
-0.350734
-0.516402
-0.512812
-0.509451
-0.506195
-0.502921
-0.49955
-0.49587
-0.491584
-0.486374
-0.479948
-0.472084
-0.462661
-0.451671
-0.439224
-0.425526
-0.410856
-0.39553
-0.379866
-0.364148
-0.34885
-0.523355
-0.519203
-0.515275
-0.511413
-0.507473
-0.503374
-0.498903
-0.493762
-0.487645
-0.480291
-0.471522
-0.461271
-0.449587
-0.436622
-0.422608
-0.407823
-0.392556
-0.377079
-0.361626
-0.346525
-0.530861
-0.526087
-0.521573
-0.517102
-0.512484
-0.507629
-0.502313
-0.496238
-0.489119
-0.480732
-0.470957
-0.459788
-0.44733
-0.433779
-0.419384
-0.40442
-0.389156
-0.37383
-0.358637
-0.343822
-0.53898
-0.533519
-0.528398
-0.523308
-0.51799
-0.512332
-0.506097
-0.498992
-0.49076
-0.481231
-0.47035
-0.458182
-0.444889
-0.430703
-0.415888
-0.400713
-0.385421
-0.370219
-0.355274
-0.340771
-0.547738
-0.541526
-0.535774
-0.530046
-0.52399
-0.517463
-0.510214
-0.501963
-0.492496
-0.481713
-0.469638
-0.456406
-0.442236
-0.427389
-0.412136
-0.396729
-0.381386
-0.366282
-0.351553
-0.337331
-0.55712
-0.550103
-0.543696
-0.537301
-0.530452
-0.522967
-0.514585
-0.505054
-0.494225
-0.482082
-0.468736
-0.454397
-0.439329
-0.423814
-0.408118
-0.392471
-0.37706
-0.362023
-0.347467
-0.333474
-0.567079
-0.559215
-0.55213
-0.545029
-0.53731
-0.528751
-0.519096
-0.508141
-0.495822
-0.482224
-0.467552
-0.452082
-0.436116
-0.419942
-0.40381
-0.387921
-0.372424
-0.357424
-0.342995
-0.329173
-0.577529
-0.568792
-0.561007
-0.553148
-0.54446
-0.534688
-0.523601
-0.51107
-0.497142
-0.482014
-0.465983
-0.449383
-0.432536
-0.415725
-0.399172
-0.383042
-0.367447
-0.352457
-0.33811
-0.32441
-0.588351
-0.578731
-0.570227
-0.561542
-0.551761
-0.540614
-0.527923
-0.51367
-0.49803
-0.481321
-0.463925
-0.446216
-0.428523
-0.411106
-0.394153
-0.377789
-0.362088
-0.347085
-0.332785
-0.319168
-0.599388
-0.588895
-0.579648
-0.570052
-0.559033
-0.54633
-0.531862
-0.515751
-0.498323
-0.480013
-0.461271
-0.442495
-0.424003
-0.40602
-0.388694
-0.372107
-0.356297
-0.341268
-0.326988
-0.31343
-0.610446
-0.599105
-0.589089
-0.57848
-0.566056
-0.551609
-0.535198
-0.517121
-0.49786
-0.477959
-0.457916
-0.438133
-0.418898
-0.400396
-0.382728
-0.365936
-0.35002
-0.334957
-0.320682
-0.307174
-0.621293
-0.609147
-0.598332
-0.586587
-0.572579
-0.556202
-0.537705
-0.517586
-0.496484
-0.475032
-0.453756
-0.433039
-0.413128
-0.394159
-0.376186
-0.35921
-0.3432
-0.328106
-0.313829
-0.300374
-0.631663
-0.618769
-0.607115
-0.594101
-0.578324
-0.559845
-0.53915
-0.516953
-0.49404
-0.471109
-0.448687
-0.427122
-0.406609
-0.38723
-0.368993
-0.351861
-0.335776
-0.320661
-0.306388
-0.292998
-0.641257
-0.627679
-0.615141
-0.600708
-0.582981
-0.562254
-0.53929
-0.515024
-0.490369
-0.466057
-0.442596
-0.42028
-0.399245
-0.37952
-0.361067
-0.343815
-0.327681
-0.312565
-0.298309
-0.285007
-0.649746
-0.635561
-0.622082
-0.606079
-0.586239
-0.563157
-0.537903
-0.511624
-0.48533
-0.459763
-0.435382
-0.41242
-0.39095
-0.370947
-0.352332
-0.335003
-0.318854
-0.303763
-0.289548
-0.276366
-0.65679
-0.642077
-0.627601
-0.60989
-0.58781
-0.56232
-0.534811
-0.506622
-0.478826
-0.452143
-0.426973
-0.403475
-0.38166
-0.361452
-0.342733
-0.325374
-0.309251
-0.294219
-0.280075
-0.267051
-0.657971
-0.642395
-0.627933
-0.610907
-0.58983
-0.565443
-0.539032
-0.511907
-0.485153
-0.459509
-0.435387
-0.412952
-0.392212
-0.373083
-0.35544
-0.339147
-0.324072
-0.310062
-0.296903
-0.284831
-0.645777
-0.630751
-0.61729
-0.602059
-0.583437
-0.561783
-0.538019
-0.513222
-0.488387
-0.46426
-0.441312
-0.419778
-0.399729
-0.381136
-0.363913
-0.347949
-0.333132
-0.319334
-0.306362
-0.294375
-0.63222
-0.617829
-0.605286
-0.591652
-0.575285
-0.556244
-0.535117
-0.512729
-0.489946
-0.467491
-0.445867
-0.425369
-0.406131
-0.388177
-0.371461
-0.355905
-0.341418
-0.327896
-0.315168
-0.303331
-0.617691
-0.604018
-0.592324
-0.580092
-0.565752
-0.549155
-0.530592
-0.510638
-0.489999
-0.46934
-0.449171
-0.429834
-0.411517
-0.394296
-0.37817
-0.363095
-0.349004
-0.335814
-0.323385
-0.311759
-0.602556
-0.589674
-0.578772
-0.567756
-0.555201
-0.540831
-0.524699
-0.507141
-0.48869
-0.469917
-0.451316
-0.433252
-0.415959
-0.399562
-0.384105
-0.369578
-0.355943
-0.343141
-0.33106
-0.319701
-0.587146
-0.57512
-0.564965
-0.554993
-0.543973
-0.531576
-0.517685
-0.502426
-0.486151
-0.469319
-0.452373
-0.435682
-0.419511
-0.404026
-0.389315
-0.375403
-0.362283
-0.349919
-0.338231
-0.327193
-0.571757
-0.560637
-0.551198
-0.542123
-0.532399
-0.521707
-0.509824
-0.496709
-0.482546
-0.467662
-0.452429
-0.437194
-0.422233
-0.407744
-0.393852
-0.38062
-0.368069
-0.356192
-0.344937
-0.334266
-0.556639
-0.546462
-0.537719
-0.529421
-0.520778
-0.511524
-0.50139
-0.49022
-0.478049
-0.465073
-0.451574
-0.437852
-0.424176
-0.410761
-0.397761
-0.385271
-0.373343
-0.361996
-0.351211
-0.340945
-0.541998
-0.532785
-0.524726
-0.517112
-0.509367
-0.501299
-0.492645
-0.483184
-0.472837
-0.461681
-0.449895
-0.437716
-0.425384
-0.413112
-0.401071
-0.389385
-0.378131
-0.367357
-0.357073
-0.347245
-0.527993
-0.51975
-0.512367
-0.50537
-0.49837
-0.491264
-0.483828
-0.475821
-0.467094
-0.457621
-0.447484
-0.436843
-0.425889
-0.414818
-0.403801
-0.392978
-0.382451
-0.372291
-0.362536
-0.353167
-0.514741
-0.507459
-0.500747
-0.494318
-0.487943
-0.481606
-0.475145
-0.468335
-0.460997
-0.453032
-0.444437
-0.435291
-0.425723
-0.415892
-0.405954
-0.396053
-0.386305
-0.376801
-0.367603
-0.358706
-0.502319
-0.495976
-0.489927
-0.48403
-0.47819
-0.472466
-0.466765
-0.460908
-0.454718
-0.448057
-0.440857
-0.433122
-0.424915
-0.416341
-0.407528
-0.398604
-0.389688
-0.380883
-0.37227
-0.363851
-0.49077
-0.485336
-0.479936
-0.474543
-0.469169
-0.463932
-0.458812
-0.453688
-0.448411
-0.442835
-0.436854
-0.43041
-0.423502
-0.416176
-0.408512
-0.400613
-0.392582
-0.384524
-0.376534
-0.368602
-0.480116
-0.475548
-0.470774
-0.465859
-0.460895
-0.456051
-0.451366
-0.446786
-0.442206
-0.437498
-0.432541
-0.427238
-0.421533
-0.415412
-0.408903
-0.402062
-0.39497
-0.387713
-0.380392
-0.372967
-0.470363
-0.46661
-0.462429
-0.457959
-0.453359
-0.448831
-0.444468
-0.440277
-0.436207
-0.432163
-0.428033
-0.423702
-0.419074
-0.414084
-0.408703
-0.402939
-0.39683
-0.390435
-0.383854
-0.377004
-0.461514
-0.458514
-0.45488
-0.450817
-0.446535
-0.44226
-0.43813
-0.434206
-0.430491
-0.426933
-0.423443
-0.419908
-0.416211
-0.412247
-0.407938
-0.40324
-0.398144
-0.392671
-0.386911
-0.380752
-0.453577
-0.451255
-0.448113
-0.444409
-0.440398
-0.436322
-0.432354
-0.428603
-0.425119
-0.421898
-0.418882
-0.415974
-0.413051
-0.409986
-0.40666
-0.402982
-0.398898
-0.394392
-0.389545
-0.384342
-0.446567
-0.444836
-0.44212
-0.438723
-0.434935
-0.431009
-0.427145
-0.423494
-0.420148
-0.417145
-0.414462
-0.412027
-0.409725
-0.407416
-0.404955
-0.40221
-0.399084
-0.395529
-0.391621
-0.387644
-0.440508
-0.439266
-0.436904
-0.43376
-0.430149
-0.42633
-0.422528
-0.418923
-0.415645
-0.412768
-0.410305
-0.408211
-0.406387
-0.404691
-0.402957
-0.401015
-0.398723
-0.39599
-0.392889
-0.39056
-0.435421
-0.434553
-0.432472
-0.429531
-0.426057
-0.422315
-0.418544
-0.41495
-0.411692
-0.408875
-0.406546
-0.404686
-0.403216
-0.401999
-0.400853
-0.39957
-0.397934
-0.39574
-0.392883
-0.391788
-0.431316
-0.430698
-0.428826
-0.426045
-0.422681
-0.418998
-0.415245
-0.411647
-0.408385
-0.40559
-0.403335
-0.401629
-0.400413
-0.399562
-0.398886
-0.398127
-0.39696
-0.394918
-0.391043
-0.385615
-0.428175
-0.427683
-0.425952
-0.423298
-0.420029
-0.416404
-0.412677
-0.409082
-0.405816
-0.403032
-0.400822
-0.39922
-0.398193
-0.397642
-0.397393
-0.3972
-0.396749
-0.395628
-0.393051
-0.389378
-0.425954
-0.425466
-0.423816
-0.421264
-0.418088
-0.414534
-0.410856
-0.407293
-0.404051
-0.401292
-0.399129
-0.397614
-0.396743
-0.396448
-0.396597
-0.396998
-0.397404
-0.397486
-0.396585
-0.39544
-0.42457
-0.42398
-0.422358
-0.419892
-0.416813
-0.413355
-0.409765
-0.406278
-0.403106
-0.400415
-0.398328
-0.396912
-0.396186
-0.396114
-0.396607
-0.39753
-0.398707
-0.399869
-0.400491
-0.401653
-0.42391
-0.423133
-0.421497
-0.419105
-0.416133
-0.412801
-0.409343
-0.40599
-0.402948
-0.400385
-0.398425
-0.397148
-0.396585
-0.396726
-0.397522
-0.398887
-0.400712
-0.402805
-0.404831
-0.407994
-0.423843
-0.422815
-0.421135
-0.418809
-0.415958
-0.412781
-0.409502
-0.406341
-0.403495
-0.401129
-0.399364
-0.398283
-0.397926
-0.398302
-0.399388
-0.401144
-0.403513
-0.40638
-0.409601
-0.414287
-0.424221
-0.422912
-0.421168
-0.418905
-0.416186
-0.413194
-0.410137
-0.407222
-0.404636
-0.402535
-0.401033
-0.400211
-0.400115
-0.400762
-0.402149
-0.404264
-0.407086
-0.410559
-0.414674
-0.420332
-0.4249
-0.423303
-0.421491
-0.419293
-0.416718
-0.413934
-0.411135
-0.408512
-0.406239
-0.404459
-0.40328
-0.402774
-0.402987
-0.40394
-0.405642
-0.408092
-0.411287
-0.415204
-0.419905
-0.426041
-0.425739
-0.423875
-0.422003
-0.419875
-0.417456
-0.4149
-0.412386
-0.410089
-0.408167
-0.406749
-0.405931
-0.405778
-0.406331
-0.407611
-0.409626
-0.412381
-0.415875
-0.420097
-0.425126
-0.431382
-0.426611
-0.424522
-0.422608
-0.420563
-0.418312
-0.415997
-0.413784
-0.411831
-0.410279
-0.409242
-0.408803
-0.409016
-0.409915
-0.411516
-0.413826
-0.416845
-0.420566
-0.424978
-0.430147
-0.436305
-0.4274
-0.425145
-0.423221
-0.421272
-0.419199
-0.417133
-0.415227
-0.413622
-0.412442
-0.411783
-0.411715
-0.412282
-0.413508
-0.415403
-0.417967
-0.421196
-0.425075
-0.429585
-0.43477
-0.440723
-0.428005
-0.425658
-0.42376
-0.421926
-0.420039
-0.418225
-0.416621
-0.415354
-0.414528
-0.414226
-0.414501
-0.415387
-0.416899
-0.419041
-0.421807
-0.425184
-0.429152
-0.433684
-0.438803
-0.444509
-0.428339
-0.425983
-0.424154
-0.422453
-0.42076
-0.419192
-0.417877
-0.416925
-0.416425
-0.416442
-0.417016
-0.418171
-0.419915
-0.422243
-0.425147
-0.428608
-0.432598
-0.437089
-0.442082
-0.447522
-0.428329
-0.426056
-0.42434
-0.422793
-0.421296
-0.419965
-0.418919
-0.418252
-0.418037
-0.418324
-0.419144
-0.420508
-0.42242
-0.42487
-0.427844
-0.431321
-0.43527
-0.43966
-0.444474
-0.449636
-0.427922
-0.425826
-0.424271
-0.422894
-0.421596
-0.42049
-0.419687
-0.419268
-0.419292
-0.419797
-0.420801
-0.422312
-0.424324
-0.426828
-0.429805
-0.433233
-0.437079
-0.441309
-0.445891
-0.45076
-0.427085
-0.425262
-0.423914
-0.422724
-0.421623
-0.420728
-0.42014
-0.419931
-0.420146
-0.420813
-0.421942
-0.423534
-0.425581
-0.428071
-0.430985
-0.434298
-0.43798
-0.441992
-0.446287
-0.450841
-0.425811
-0.424354
-0.423255
-0.422267
-0.421363
-0.420664
-0.420263
-0.420225
-0.420584
-0.421359
-0.422554
-0.424165
-0.426183
-0.428594
-0.431379
-0.434515
-0.437972
-0.441706
-0.445656
-0.44987
-0.424124
-0.423121
-0.422309
-0.421535
-0.420827
-0.420308
-0.420069
-0.420165
-0.420623
-0.421455
-0.422659
-0.42423
-0.426156
-0.428425
-0.431018
-0.433913
-0.437084
-0.44048
-0.444025
-0.447869
-0.422078
-0.421609
-0.421118
-0.420568
-0.420054
-0.419702
-0.4196
-0.419797
-0.420313
-0.421154
-0.422314
-0.423787
-0.425561
-0.427625
-0.429962
-0.432553
-0.435375
-0.438369
-0.441449
-0.444888
-0.419767
-0.419896
-0.419753
-0.419435
-0.419112
-0.418917
-0.418931
-0.419199
-0.419735
-0.42054
-0.421605
-0.422924
-0.424487
-0.426282
-0.428298
-0.430519
-0.432927
-0.435451
-0.438003
-0.440996
-0.482076
-0.493544
-0.308118
-0.101979
-0.173555
-0.136867
-0.0975198
-0.079727
-0.143063
-0.133729
-0.113481
-0.0731729
-0.0936401
-0.103912
-0.104616
-0.0606172
-0.0512599
-0.0698423
-0.0687369
-0.0136732
-0.473229
-0.481438
-0.306445
-0.101977
-0.179395
-0.13519
-0.0979122
-0.0828232
-0.14635
-0.135942
-0.114818
-0.0711588
-0.0912493
-0.100906
-0.101793
-0.0607674
-0.0517791
-0.0717415
-0.0709421
-0.0139239
-0.462974
-0.466491
-0.303664
-0.102746
-0.184477
-0.133559
-0.0980389
-0.0858003
-0.149394
-0.138051
-0.115974
-0.0690892
-0.0887418
-0.0978752
-0.0989232
-0.0608399
-0.0522181
-0.0735719
-0.0730722
-0.014183
-0.451367
-0.448642
-0.299731
-0.10455
-0.188911
-0.131949
-0.0978889
-0.088627
-0.152147
-0.140044
-0.116939
-0.0669887
-0.0861369
-0.0948345
-0.0960221
-0.0608322
-0.0525741
-0.0753209
-0.0751107
-0.0144508
-0.438496
-0.427959
-0.294625
-0.107583
-0.192773
-0.130333
-0.0974547
-0.0912708
-0.154565
-0.141905
-0.117709
-0.0648798
-0.0834542
-0.091799
-0.0931043
-0.0607434
-0.0528443
-0.076975
-0.0770415
-0.0147278
-0.42447
-0.404665
-0.288338
-0.111937
-0.196106
-0.128687
-0.096733
-0.0936993
-0.156607
-0.143619
-0.11828
-0.0627842
-0.0807125
-0.0887818
-0.0901832
-0.0605731
-0.053027
-0.0785216
-0.0788492
-0.0150147
-0.409417
-0.379149
-0.280876
-0.117575
-0.198932
-0.126988
-0.0957245
-0.0958803
-0.158235
-0.145169
-0.118649
-0.060724
-0.0779311
-0.085795
-0.0872704
-0.0603223
-0.0531211
-0.0799482
-0.0805181
-0.0153118
-0.393486
-0.351942
-0.272263
-0.124311
-0.201264
-0.12522
-0.0944337
-0.0977829
-0.159419
-0.146538
-0.118815
-0.0587202
-0.0751283
-0.0828488
-0.0843763
-0.0599928
-0.0531263
-0.0812429
-0.0820334
-0.0156197
-0.376863
-0.323677
-0.262554
-0.131829
-0.20311
-0.12337
-0.0928696
-0.0993787
-0.160134
-0.14771
-0.118779
-0.0567929
-0.0723222
-0.0799524
-0.0815101
-0.0595871
-0.0530433
-0.0823945
-0.0833813
-0.0159389
-0.359791
-0.29504
-0.251848
-0.139727
-0.204469
-0.121428
-0.0910453
-0.100645
-0.160368
-0.148667
-0.118546
-0.0549606
-0.06953
-0.0771138
-0.0786799
-0.0591089
-0.0528735
-0.0833928
-0.0845493
-0.0162702
-0.342606
-0.266731
-0.240319
-0.147582
-0.205333
-0.11939
-0.0889793
-0.101566
-0.160114
-0.149392
-0.118118
-0.0532409
-0.0667684
-0.0743393
-0.0758931
-0.0585629
-0.0526193
-0.0842289
-0.0855264
-0.0166143
-0.325749
-0.239437
-0.228224
-0.155028
-0.205694
-0.117261
-0.0866946
-0.102132
-0.159379
-0.14987
-0.117503
-0.0516495
-0.0640533
-0.0716344
-0.0731562
-0.0579547
-0.0522836
-0.084895
-0.0863031
-0.0169718
-0.309753
-0.213803
-0.215902
-0.1618
-0.205555
-0.115065
-0.0842124
-0.102327
-0.158177
-0.150089
-0.116706
-0.0502004
-0.0613992
-0.0690033
-0.0704725
-0.057288
-0.0518701
-0.0853846
-0.0868722
-0.0173434
-0.295173
-0.190397
-0.203735
-0.167757
-0.204929
-0.112817
-0.0815372
-0.102128
-0.156531
-0.150035
-0.115734
-0.0489055
-0.0588198
-0.0664494
-0.0678398
-0.0565611
-0.0513831
-0.0856922
-0.0872284
-0.01773
-0.282443
-0.169668
-0.1921
-0.172863
-0.203808
-0.110443
-0.0786667
-0.101558
-0.154465
-0.149702
-0.114596
-0.0477744
-0.056328
-0.0639756
-0.0652577
-0.0557722
-0.0508293
-0.0858133
-0.0873686
-0.0181324
-0.27172
-0.151904
-0.181315
-0.177157
-0.202149
-0.107801
-0.0756758
-0.100781
-0.152019
-0.149081
-0.113297
-0.0468139
-0.0539371
-0.0615841
-0.0627561
-0.0549513
-0.0502159
-0.0857487
-0.087292
-0.0185515
-0.263045
-0.137223
-0.171595
-0.1807
-0.200008
-0.105062
-0.0728112
-0.0999849
-0.149259
-0.148174
-0.111844
-0.0460281
-0.0516546
-0.0592742
-0.0604151
-0.0541869
-0.0495388
-0.0855098
-0.0870002
-0.0189883
-0.257045
-0.125666
-0.163028
-0.183496
-0.197868
-0.103192
-0.0702122
-0.0987336
-0.146216
-0.147013
-0.110243
-0.0454182
-0.049463
-0.0570356
-0.0582478
-0.0535102
-0.048779
-0.0850981
-0.0864987
-0.0194431
-0.254247
-0.117165
-0.155645
-0.18561
-0.196341
-0.102803
-0.0670146
-0.0955204
-0.142724
-0.145644
-0.108501
-0.0449852
-0.0473526
-0.0548546
-0.0558445
-0.0525227
-0.0479741
-0.0844338
-0.0857924
-0.0199155
-0.24978
-0.110607
-0.149915
-0.187811
-0.194034
-0.100215
-0.0614028
-0.0901804
-0.138633
-0.143671
-0.106662
-0.0447564
-0.0456158
-0.0527824
-0.0523297
-0.050326
-0.0473582
-0.0833706
-0.0848529
-0.0204292
-0.21048
-0.0788648
-0.120464
-0.200812
-0.174185
-0.067909
-0.0242205
-0.0611245
-0.113114
-0.123994
-0.0892691
-0.0449656
-0.04037
-0.041922
-0.0282311
-0.0331273
-0.044415
-0.0755345
-0.0780765
-0.0242729
-0.154994
-0.103312
-0.127829
-0.165781
-0.121656
-0.0310444
0.00540518
-0.00469857
-0.0408797
-0.0648251
-0.0487573
-0.0348541
-0.042277
-0.0348193
-0.0141631
-0.00724404
-0.0205073
-0.0513823
-0.0610738
-0.0192438
-0.129376
-0.111389
-0.100954
-0.0991605
-0.0773223
-0.0306666
-0.00649611
0.0171358
0.021181
0.00244412
-0.00567926
-0.0239227
-0.0330554
-0.0213295
-0.00809193
0.00629327
0.00093473
-0.0209406
-0.0321151
-0.00795609
-0.102471
-0.0864263
-0.0666411
-0.0781089
-0.06628
-0.0118714
0.0179627
0.0280726
0.0294782
0.0230662
0.0124059
-0.0143212
-0.0180767
-0.00664867
0.00438829
0.0202596
0.0172227
0.0101394
0.000690075
0.00194917
-0.0730023
-0.0661059
-0.0584837
-0.059555
-0.0419835
-0.00186021
0.0210575
0.0301599
0.0280311
0.0252996
0.0208647
0.00223687
0.000905044
0.00416154
0.00704885
0.022438
0.0261402
0.0316186
0.0239057
0.00752684
-0.053097
-0.0538727
-0.0465338
-0.0398775
-0.0277397
-0.000135815
0.0183999
0.0255407
0.0260161
0.0284046
0.0254106
0.00826942
0.00692566
0.0118501
0.0147298
0.0236595
0.0269733
0.0343561
0.0282534
0.00776065
-0.0387625
-0.0411072
-0.0340975
-0.0272876
-0.0208334
-0.0021754
0.0157938
0.0245569
0.0254925
0.0247813
0.0222607
0.012119
0.0129597
0.0170175
0.0175565
0.0217614
0.0247279
0.0295496
0.0250388
0.00766455
-0.0273103
-0.0295379
-0.0252574
-0.0209554
-0.015864
-0.000375057
0.0156553
0.0215481
0.0203643
0.0201288
0.0219703
0.0163086
0.0147926
0.0175363
0.0180136
0.0197861
0.0218589
0.0238446
0.020622
0.00739748
-0.018342
-0.0209199
-0.0193535
-0.015201
-0.00927717
0.00164348
0.0124362
0.0166252
0.0175222
0.0193977
0.0216318
0.0168787
0.0141403
0.0169317
0.018073
0.0183946
0.018987
0.01894
0.0164278
0.00660066
-0.0116817
-0.0143806
-0.013537
-0.00938481
-0.00490988
0.0013701
0.00952665
0.0148717
0.0172618
0.0179939
0.0187771
0.0160774
0.0141652
0.0166591
0.0176225
0.0166451
0.0160258
0.0152091
0.0131203
0.00561018
-0.00648547
-0.00872311
-0.00823397
-0.00551429
-0.00262497
0.00195167
0.00921381
0.0141607
0.0155226
0.0153002
0.0165309
0.016324
0.0146751
0.0156444
0.0160866
0.0147651
0.013781
0.0127266
0.010601
0.00455766
-0.00221184
-0.00406793
-0.00424591
-0.00277468
-0.000197686
0.00367493
0.00898596
0.0122958
0.0134304
0.0141232
0.0158737
0.0161666
0.0140769
0.0139768
0.0145523
0.0135988
0.0123578
0.0108457
0.00849816
0.00360488
0.00128568
-0.000447643
-0.00101791
-6.57878e-05
0.00216054
0.00477758
0.00816681
0.0109133
0.0127692
0.0138813
0.0148227
0.0148221
0.0131622
0.0129922
0.0136778
0.0127859
0.0110377
0.00910623
0.0068535
0.00294981
0.00419105
0.00253408
0.00184897
0.00230717
0.0037287
0.00538811
0.0079644
0.010606
0.0124101
0.0130302
0.0133397
0.0136852
0.0129339
0.012629
0.0127618
0.0116409
0.00971655
0.00782011
0.00582699
0.00252433
0.00674346
0.00508608
0.00421462
0.00410964
0.00489941
0.00619698
0.00829224
0.0103473
0.0116056
0.0120785
0.0125467
0.0132351
0.0127726
0.0119789
0.0115548
0.0105786
0.00892519
0.00710782
0.00511227
0.00211519
0.00904669
0.00722867
0.00607811
0.00557563
0.00600673
0.00701923
0.00849665
0.00990189
0.0109583
0.0117041
0.0122816
0.01272
0.0121412
0.0112003
0.0107296
0.0100257
0.00851521
0.00654004
0.00442482
0.00174868
0.0111804
0.00901275
0.00756903
0.00681375
0.00693751
0.00758189
0.00857761
0.00969314
0.0107532
0.0115314
0.0118634
0.011999
0.0115737
0.0108743
0.0103612
0.00957187
0.00803212
0.00598816
0.00390967
0.00154059
0.0131104
0.0104578
0.00872135
0.007762
0.00760018
0.00796894
0.00875133
0.0097368
0.0106403
0.0112127
0.0113887
0.0115343
0.0113782
0.0107936
0.0100144
0.0090233
0.00755003
0.00564244
0.00366711
0.00143121
0.0147256
0.0115131
0.0095068
0.00839273
0.00806113
0.00830124
0.0089531
0.00975348
0.0104632
0.0109737
0.0112063
0.0113727
0.0112285
0.0105904
0.00968222
0.00868237
0.00733529
0.0055015
0.00350654
0.00132175
0.0157559
0.0120852
0.0099054
0.00871918
0.00833647
0.00852057
0.00905317
0.00970135
0.0103501
0.010938
0.0112343
0.0113091
0.0110343
0.010369
0.00952983
0.00862267
0.00734283
0.00544084
0.00334836
0.00123658
-0.185679
-0.192493
-0.198881
-0.204865
-0.210464
-0.215706
-0.220618
-0.225232
-0.229578
-0.233687
-0.23758
-0.241279
-0.244761
-0.248028
-0.250908
-0.25344
-0.255087
-0.256622
-0.256929
-0.26172
-0.116237
-0.119352
-0.122243
-0.124914
-0.127366
-0.129598
-0.131609
-0.133396
-0.134955
-0.136282
-0.137373
-0.138232
-0.138858
-0.139285
-0.139519
-0.13969
-0.139781
-0.14023
-0.14097
-0.143883
-0.0695885
-0.0724094
-0.0751814
-0.077907
-0.0805884
-0.0832274
-0.0858254
-0.0883832
-0.0909004
-0.0933762
-0.0958073
-0.0981896
-0.100514
-0.102769
-0.104935
-0.106994
-0.10891
-0.110692
-0.112381
-0.114278
-0.0482702
-0.0501791
-0.0520401
-0.0538565
-0.0556323
-0.0573709
-0.0590761
-0.0607518
-0.062402
-0.064031
-0.0656433
-0.0672437
-0.0688377
-0.0704309
-0.072032
-0.0736485
-0.0753039
-0.0770167
-0.0789071
-0.0811257
-0.0306473
-0.0320506
-0.0334413
-0.034821
-0.0361917
-0.0375548
-0.0389116
-0.0402629
-0.04161
-0.0429536
-0.0442947
-0.0456338
-0.0469718
-0.0483085
-0.0496458
-0.0509816
-0.052327
-0.0536771
-0.0551176
-0.0567001
-0.020239
-0.0213097
-0.0223705
-0.0234223
-0.024466
-0.0255025
-0.0265324
-0.0275567
-0.0285763
-0.0295921
-0.0306054
-0.0316172
-0.0326287
-0.0336408
-0.0346561
-0.0356734
-0.0367038
-0.0377378
-0.038847
-0.0400173
-0.01209
-0.0129117
-0.0137295
-0.0145439
-0.0153559
-0.0161663
-0.0169754
-0.0177839
-0.0185923
-0.0194014
-0.0202117
-0.0210238
-0.0218384
-0.0226557
-0.0234775
-0.0243018
-0.0251377
-0.0259728
-0.0268684
-0.0277794
-0.00626214
-0.00691148
-0.00755756
-0.00820062
-0.00884125
-0.00947965
-0.0101161
-0.0107509
-0.0113845
-0.0120172
-0.0126496
-0.0132819
-0.013915
-0.0145489
-0.0151852
-0.0158221
-0.0164676
-0.0171099
-0.0178005
-0.0184878
-0.00175695
-0.00227402
-0.00278849
-0.00330048
-0.00381039
-0.00431834
-0.00482447
-0.00532898
-0.00583206
-0.00633392
-0.00683477
-0.00733477
-0.00783423
-0.00833306
-0.00883226
-0.00933021
-0.00983271
-0.0103295
-0.0108617
-0.0113787
0.00163364
0.00121494
0.000798104
0.00038307
-3.04272e-05
-0.000442451
-0.000853112
-0.00126254
-0.00167088
-0.00207824
-0.00248475
-0.0028905
-0.00329567
-0.00370014
-0.00410457
-0.00450765
-0.00491364
-0.00531424
-0.00574065
-0.00614882
0.00429376
0.00395691
0.00362103
0.00328607
0.00295186
0.00261836
0.00228545
0.00195301
0.00162092
0.0012891
0.000957435
0.000625867
0.000294259
-3.72972e-05
-0.000369281
-0.000700744
-0.00103474
-0.00136512
-0.00171493
-0.00205005
0.00642417
0.00615651
0.005889
0.0056216
0.00535419
0.00508672
0.00481913
0.00455135
0.00428333
0.00401503
0.00374641
0.00347746
0.00320815
0.00293857
0.00266843
0.00239845
0.0021265
0.00185702
0.00157324
0.00130015
0.00824178
0.0080341
0.00782541
0.00761569
0.00740484
0.00719284
0.00697966
0.00676529
0.00654973
0.00633301
0.00611516
0.00589622
0.00567623
0.00545534
0.00523342
0.00501105
0.00478679
0.00456392
0.00433021
0.00410393
0.0098693
0.00971247
0.00955311
0.00939123
0.00922674
0.00905969
0.0088901
0.00871807
0.00854368
0.00836703
0.00818824
0.00800745
0.00782479
0.00764046
0.00745449
0.00726738
0.00707822
0.00688943
0.00669211
0.00649932
0.0115769
0.0114639
0.0113458
0.011223
0.0110952
0.0109628
0.0108259
0.0106848
0.0105396
0.0103906
0.0102381
0.0100822
0.0099234
0.00976182
0.00959769
0.00943152
0.00926277
0.00909332
0.00891659
0.00874201
0.0134088
0.0133263
0.0132356
0.013137
0.013031
0.0129179
0.0127983
0.0126726
0.0125414
0.012405
0.012264
0.0121188
0.0119698
0.0118176
0.0116625
0.011505
0.0113449
0.0111839
0.011017
0.0108511
0.0160253
0.015935
0.0158326
0.0157191
0.0155955
0.0154628
0.0153218
0.0151735
0.0150187
0.0148582
0.0146927
0.0145229
0.0143495
0.014173
0.0139939
0.013813
0.0136303
0.013447
0.0132596
0.0130734
0.0193323
0.0191684
0.0189927
0.0188066
0.0186115
0.0184087
0.0181994
0.0179846
0.0177654
0.0175425
0.017317
0.0170894
0.0168604
0.0166307
0.0164007
0.016171
0.0159418
0.015714
0.015485
0.0152592
0.0242885
0.02386
0.0234377
0.0230221
0.0226133
0.0222117
0.0218174
0.0214306
0.0210514
0.0206798
0.0203159
0.0199597
0.0196112
0.0192704
0.0189372
0.0186117
0.0182934
0.017983
0.0176777
0.0173818
0.0296788
0.0288944
0.0281441
0.027426
0.0267383
0.0260791
0.0254471
0.0248406
0.0242582
0.0236986
0.0231606
0.022643
0.0221448
0.0216649
0.0212023
0.0207562
0.0203256
0.0199103
0.0195071
0.0191202
0.0237457
0.0229832
0.0222549
0.021559
0.0208937
0.0202572
0.019648
0.0190645
0.0185054
0.0179694
0.0174551
0.0169615
0.0164874
0.0160318
0.0155938
0.0151725
0.0147669
0.0143765
0.0139997
0.0136365
0.0183564
0.0179483
0.0175468
0.0171523
0.016765
0.0163851
0.0160129
0.0156485
0.0152919
0.0149433
0.0146026
0.0142699
0.0139452
0.0136285
0.0133196
0.0130185
0.0127252
0.0124395
0.0121605
0.011888
0.0133669
0.0132231
0.0130677
0.0129023
0.0127283
0.012547
0.0123595
0.0121669
0.0119703
0.0117704
0.011568
0.011364
0.0111589
0.0109534
0.010748
0.010543
0.010339
0.0101363
0.00993404
0.00973164
0.00998243
0.00991286
0.00983147
0.00973933
0.00963748
0.00952687
0.00940842
0.00928298
0.0091514
0.00901445
0.00887285
0.0087273
0.00857842
0.00842681
0.00827301
0.00811756
0.00796078
0.00780316
0.00764354
0.00748068
0.00724642
0.00718583
0.00711721
0.00704099
0.00695769
0.00686776
0.00677166