/*--------------------------------*- C++ -*----------------------------------*\
  =========                 |
  \\      /  F ield         | OpenFOAM: The Open Source CFD Toolbox
   \\    /   O peration     | Website:  https://openfoam.org
    \\  /    A nd           | Version:  6.0
     \\/     M anipulation  |
\*---------------------------------------------------------------------------*/
FoamFile
{
    version     2.0;
    format      ascii;
    class       volVectorField;
    location    "81";
    object      U;
}
// * * * * * * * * * * * * * * * * * * * * * * * * * * * * * * * * * * * * * //

dimensions      [0 1 -1 0 0 0 0];

internalField   nonuniform List<vector> 
4000
(
(0.000446613 -0.041097 -5.50421e-21)
(-7.87702e-05 -0.109155 2.93726e-20)
(-0.00295943 -0.165345 -3.56599e-20)
(-0.00743695 -0.21099 2.71153e-20)
(-0.0128656 -0.247604 1.31608e-20)
(-0.0186451 -0.276863 -3.95024e-20)
(-0.0241946 -0.300345 -3.49023e-21)
(-0.0290227 -0.31935 -1.24757e-21)
(-0.0327709 -0.33482 -2.0489e-20)
(-0.0352249 -0.347357 -1.11253e-20)
(-0.0363094 -0.357282 8.27371e-21)
(-0.0360684 -0.364734 3.16668e-20)
(-0.0346375 -0.369754 -2.32482e-21)
(-0.0322131 -0.372359 3.43267e-21)
(-0.0290218 -0.372587 -3.20945e-20)
(-0.0252992 -0.370518 1.98155e-20)
(-0.0212671 -0.366285 -2.8595e-20)
(-0.017031 -0.360046 4.32512e-20)
(-0.0124901 -0.351943 -4.54869e-23)
(-0.00819672 -0.3421 9.3173e-21)
(0.00157005 -0.0397114 1.82031e-20)
(0.00199479 -0.105474 -9.27441e-20)
(-0.00145748 -0.159879 -6.39813e-20)
(-0.00724771 -0.204266 -4.3407e-20)
(-0.0143376 -0.240196 -5.57202e-20)
(-0.0219108 -0.269373 1.23786e-20)
(-0.0292392 -0.293349 -6.42988e-20)
(-0.0357425 -0.313348 -1.44499e-20)
(-0.0410171 -0.330202 4.55033e-21)
(-0.044833 -0.344378 4.81772e-20)
(-0.0471183 -0.35606 -5.25698e-20)
(-0.0479329 -0.365254 7.31779e-20)
(-0.0474368 -0.371892 -5.48506e-20)
(-0.045856 -0.375907 -6.519e-20)
(-0.0434502 -0.377285 -9.02041e-20)
(-0.0404927 -0.376093 5.74308e-20)
(-0.0372396 -0.372481 -1.86401e-20)
(-0.0338029 -0.366651 -6.82996e-20)
(-0.0300723 -0.358804 6.47174e-20)
(-0.0267872 -0.349188 -4.76756e-20)
(0.00248369 -0.0374045 1.76392e-19)
(0.00355664 -0.0997999 9.16526e-20)
(-0.000647702 -0.151882 1.02962e-19)
(-0.00781726 -0.194798 8.53653e-21)
(-0.0165431 -0.230038 5.68418e-20)
(-0.0258186 -0.259247 7.10254e-20)
(-0.0347938 -0.283901 -1.2868e-19)
(-0.0428199 -0.305117 -6.82192e-20)
(-0.049462 -0.323599 -8.87783e-20)
(-0.0544819 -0.33967 9.49821e-20)
(-0.0578125 -0.353371 -7.25356e-20)
(-0.0595265 -0.364573 -9.32209e-20)
(-0.0598031 -0.373086 -3.37183e-20)
(-0.0588924 -0.378749 3.22554e-20)
(-0.0570842 -0.381486 -9.1283e-21)
(-0.0546882 -0.381336 1.30823e-20)
(-0.0519964 -0.37846 1.50831e-19)
(-0.0491292 -0.373099 -2.07023e-20)
(-0.0459778 -0.365508 -1.53535e-19)
(-0.0434851 -0.356077 2.02708e-19)
(0.00310451 -0.0341983 6.08035e-20)
(0.00447924 -0.0922145 -8.68434e-20)
(-0.000606997 -0.141484 -2.18515e-20)
(-0.00913652 -0.182746 4.05038e-20)
(-0.0193795 -0.217288 1.15241e-19)
(-0.0301784 -0.246622 2.52442e-19)
(-0.040593 -0.272096 2.4662e-19)
(-0.0499289 -0.2947 2.04428e-20)
(-0.0577341 -0.315 1.51274e-19)
(-0.063768 -0.333179 2.31509e-19)
(-0.0679673 -0.349135 -1.85091e-19)
(-0.0704128 -0.362602 2.73864e-19)
(-0.0712952 -0.373261 -6.15821e-20)
(-0.0708817 -0.380843 1.57319e-20)
(-0.0694869 -0.385189 6.4706e-20)
(-0.0674554 -0.386295 8.57739e-20)
(-0.0651162 -0.384313 -1.34542e-19)
(-0.0626017 -0.379511 -1.1187e-19)
(-0.0598168 -0.372193 -1.98883e-19)
(-0.0579249 -0.362902 2.90994e-19)
(0.00336257 -0.0301647 -3.17426e-20)
(0.00466881 -0.0828908 -3.26732e-19)
(-0.00136377 -0.12891 -9.6853e-20)
(-0.0111393 -0.168349 -2.36124e-19)
(-0.0226827 -0.202167 8.91916e-20)
(-0.0347352 -0.23167 -1.40824e-19)
(-0.0463026 -0.258042 4.84387e-20)
(-0.0566688 -0.282128 -2.98193e-19)
(-0.0653786 -0.304362 1.57288e-19)
(-0.0721938 -0.324796 -1.87599e-19)
(-0.0770539 -0.343194 -1.66743e-19)
(-0.0800413 -0.359155 -1.86337e-19)
(-0.0813498 -0.37223 1.6904e-19)
(-0.0812548 -0.382023 -1.50966e-19)
(-0.0800892 -0.38827 2.10556e-19)
(-0.0782297 -0.390895 6.05638e-20)
(-0.0760433 -0.390017 1.49267e-19)
(-0.0736789 -0.385903 6.59289e-20)
(-0.0710671 -0.378895 -2.58094e-19)
(-0.0696134 -0.369703 4.24937e-19)
(0.00320893 -0.0254286 1.39436e-19)
(0.0040767 -0.0720938 1.07625e-20)
(-0.0028912 -0.114483 5.79775e-20)
(-0.013702 -0.151928 2.02654e-19)
(-0.0262317 -0.184958 -3.0932e-20)
(-0.039177 -0.214608 3.29592e-19)
(-0.0515276 -0.241868 1.46546e-19)
(-0.0625705 -0.267436 1.24912e-20)
(-0.0718605 -0.291621 3.76362e-19)
(-0.0791674 -0.314364 1.23237e-19)
(-0.0844327 -0.335313 5.84292e-20)
(-0.0877349 -0.353945 1.85029e-19)
(-0.0892625 -0.369678 1.68921e-19)
(-0.0892897 -0.381978 3.06898e-19)
(-0.0881597 -0.390448 -2.74096e-19)
(-0.0862773 -0.394902 3.83868e-19)
(-0.0840473 -0.395389 2.65982e-21)
(-0.0816387 -0.392139 -4.87275e-19)
(-0.0790205 -0.385507 6.26993e-19)
(-0.0778688 -0.376384 2.61813e-19)
(0.00262267 -0.0201622 -8.18923e-20)
(0.00270683 -0.0601711 -1.499e-19)
(-0.00510618 -0.0986073 -3.13953e-19)
(-0.0166494 -0.133881 -9.57571e-21)
(-0.0297597 -0.166009 5.40734e-20)
(-0.0431485 -0.195705 -4.02127e-19)
(-0.0558281 -0.223745 -2.98624e-19)
(-0.0671119 -0.250681 -4.27972e-20)
(-0.0765786 -0.276717 -3.77508e-19)
(-0.0840126 -0.301704 -2.61184e-19)
(-0.0893588 -0.325205 -7.61135e-20)
(-0.092689 -0.346594 -2.44177e-19)
(-0.0941799 -0.365164 -4.52128e-21)
(-0.0940958 -0.380236 -3.21639e-19)
(-0.0927813 -0.391255 1.33909e-19)
(-0.0906633 -0.397883 -1.53226e-19)
(-0.0881827 -0.400048 1.14337e-19)
(-0.0855306 -0.397892 -1.48598e-19)
(-0.0827242 -0.391742 -4.14978e-19)
(-0.0817509 -0.382678 -1.28012e-19)
(0.00161572 -0.0145781 -3.07089e-20)
(0.000619172 -0.047539 -3.36187e-20)
(-0.00787287 -0.0817622 2.63521e-19)
(-0.0197651 -0.114676 -4.30241e-19)
(-0.0329706 -0.145732 6.27763e-20)
(-0.0462731 -0.175291 -2.50263e-19)
(-0.0587441 -0.203902 1.17479e-19)
(-0.0697455 -0.231975 5.30812e-19)
(-0.0788935 -0.259629 -3.43406e-20)
(-0.0859959 -0.286658 -3.95349e-19)
(-0.0910056 -0.312569 7.09702e-20)
(-0.0939896 -0.336667 1.45359e-20)
(-0.0951103 -0.358141 -7.88372e-20)
(-0.0946159 -0.37617 1.03606e-20)
(-0.0928439 -0.390026 6.92962e-19)
(-0.0902351 -0.39918 -1.00499e-19)
(-0.0872622 -0.403377 -1.88229e-19)
(-0.0841376 -0.402601 -3.3018e-19)
(-0.0809318 -0.397088 3.38362e-19)
(-0.0799978 -0.388104 1.47739e-19)
(0.000234546 -0.00891534 1.53559e-19)
(-0.00207211 -0.0346608 -2.01967e-19)
(-0.0110118 -0.0644811 2.86348e-19)
(-0.0228083 -0.0948392 2.90438e-19)
(-0.0355618 -0.124606 2.67871e-19)
(-0.0481815 -0.153774 5.44246e-19)
(-0.0598302 -0.182654 3.52714e-19)
(-0.0699384 -0.211522 -7.59531e-19)
(-0.0781729 -0.240431 3.88682e-19)
(-0.0843752 -0.269145 3.04692e-19)
(-0.0885155 -0.297157 -5.51499e-21)
(-0.0906626 -0.323738 3.37819e-19)
(-0.0909682 -0.348013 2.59369e-19)
(-0.0896629 -0.369043 -1.42443e-19)
(-0.0870708 -0.385926 4.68525e-19)
(-0.0836378 -0.397913 -5.79811e-19)
(-0.0798618 -0.404507 2.26954e-19)
(-0.0759708 -0.405446 2.87532e-19)
(-0.0720857 -0.400785 -6.7662e-20)
(-0.0709927 -0.391945 5.75155e-19)
(-0.00144214 -0.00342185 3.10131e-19)
(-0.00520601 -0.0220204 1.73677e-20)
(-0.0143135 -0.0473291 -1.11693e-19)
(-0.0255327 -0.0749416 -1.18186e-19)
(-0.0372496 -0.103172 -5.53905e-19)
(-0.048544 -0.131639 7.94695e-20)
(-0.0586967 -0.160418 2.23165e-19)
(-0.0672234 -0.189651 -1.09026e-19)
(-0.073853 -0.219337 8.98812e-20)
(-0.0784721 -0.249237 -2.30201e-20)
(-0.08108 -0.278861 -1.15529e-19)
(-0.0817593 -0.307496 1.11255e-19)
(-0.0806615 -0.334249 -4.67175e-19)
(-0.0780052 -0.35811 4.4922e-19)
(-0.0740996 -0.378029 -3.79689e-19)
(-0.0693883 -0.393036 1.18574e-19)
(-0.0643866 -0.402346 2.56584e-19)
(-0.059328 -0.405357 -5.80258e-20)
(-0.0543691 -0.40182 -1.75747e-19)
(-0.0528035 -0.393247 -1.18379e-19)
(-0.00330959 0.00166509 -3.89954e-19)
(-0.00858691 -0.0100905 -2.71932e-20)
(-0.0175544 -0.0308744 8.2809e-20)
(-0.0277064 -0.0555785 2.15068e-19)
(-0.037794 -0.0820185 -3.02584e-19)
(-0.0471022 -0.109455 -2.65561e-19)
(-0.0550506 -0.137726 6.21419e-19)
(-0.0612524 -0.166842 -3.44042e-19)
(-0.0655077 -0.196752 -2.22401e-19)
(-0.067758 -0.227228 -3.18715e-19)
(-0.0680443 -0.257822 2.10061e-19)
(-0.0664788 -0.287876 -6.99515e-21)
(-0.0632285 -0.316536 -3.89495e-19)
(-0.0585134 -0.342781 -6.21681e-19)
(-0.0526337 -0.365479 4.72115e-19)
(-0.0460281 -0.383474 -3.68301e-19)
(-0.0392239 -0.395685 5.18024e-19)
(-0.0324494 -0.401092 -1.48401e-19)
(-0.0258642 -0.39899 2.76818e-19)
(-0.0233368 -0.390871 -9.88885e-19)
(-0.00524679 0.00613908 -7.9899e-19)
(-0.0120004 0.000699553 5.25828e-19)
(-0.0205136 -0.015656 7.08165e-20)
(-0.0291294 -0.0373412 1.42411e-20)
(-0.0370177 -0.0617616 -3.287e-19)
(-0.0436928 -0.0878498 4.84282e-19)
(-0.0487276 -0.115215 5.1717e-20)
(-0.0518409 -0.143732 -9.88544e-20)
(-0.0529097 -0.173296 -3.23425e-19)
(-0.051937 -0.203685 3.47534e-19)
(-0.0490164 -0.234507 8.76986e-19)
(-0.0443047 -0.265186 -1.93161e-19)
(-0.0380032 -0.294953 4.32684e-19)
(-0.0303527 -0.322848 -4.99786e-19)
(-0.0216587 -0.347738 -4.67394e-19)
(-0.01236 -0.368368 2.81842e-19)
(-0.00299659 -0.38341 4.38031e-19)
(0.00621321 -0.391403 -1.40434e-18)
(0.0151569 -0.391037 1.76014e-19)
(0.0193602 -0.383606 2.2161e-19)
(-0.00712855 0.00984197 5.93745e-19)
(-0.0152308 0.00999425 2.00971e-19)
(-0.0229874 -0.00215126 1.03192e-18)
(-0.0296432 -0.0207843 5.465e-20)
(-0.0348134 -0.0430123 -1.15486e-19)
(-0.0382548 -0.067485 -5.54471e-19)
(-0.0397025 -0.0935965 4.70447e-19)
(-0.0389854 -0.121084 8.53351e-19)
(-0.0360601 -0.149774 5.66186e-19)
(-0.0309945 -0.179442 4.12947e-19)
(-0.0239413 -0.209743 3.55043e-19)
(-0.0151128 -0.240186 -6.26283e-19)
(-0.0047624 -0.270114 -1.89749e-19)
(0.00682683 -0.298684 -1.40462e-19)
(0.0193238 -0.324853 1.47617e-18)
(0.0322765 -0.347383 -1.63061e-20)
(0.0451227 -0.36482 -3.44936e-19)
(0.0576438 -0.375324 -8.3852e-20)
(0.0698372 -0.376887 9.53653e-19)
(0.0766709 -0.370379 1.3069e-19)
(-0.00883817 0.0126762 -2.6091e-20)
(-0.018078 0.0175371 -5.6763e-19)
(-0.0247998 0.00925614 -8.50291e-19)
(-0.0291329 -0.00639071 -2.39535e-19)
(-0.0311376 -0.0263361 1.3342e-19)
(-0.0308159 -0.0490047 2.76052e-20)
(-0.0280697 -0.0735987 7.63766e-19)
(-0.0228407 -0.0997172 -9.46292e-19)
(-0.0151664 -0.127108 -3.61046e-19)
(-0.00518026 -0.155522 -7.27796e-19)
(0.00690355 -0.184642 -6.16316e-19)
(0.0208099 -0.214044 -5.43922e-19)
(0.0362214 -0.243178 1.36173e-19)
(0.0527931 -0.271344 -1.73553e-19)
(0.0701454 -0.297653 7.18149e-19)
(0.0877956 -0.320998 -4.00307e-19)
(0.105142 -0.33997 -1.17066e-18)
(0.121935 -0.352521 -2.03574e-19)
(0.138344 -0.355966 5.41496e-19)
(0.148954 -0.350513 -4.5543e-19)
(-0.0102787 0.0146101 -9.44807e-20)
(-0.0203711 0.0231861 7.0576e-19)
(-0.0258061 0.018301 -9.01874e-19)
(-0.0275185 0.00546297 2.06759e-19)
(-0.025988 -0.0122096 -4.34377e-19)
(-0.0214559 -0.0329823 9.73215e-19)
(-0.0139918 -0.0558967 -6.97606e-19)
(-0.00365294 -0.0804223 7.99285e-19)
(0.00944105 -0.10622 -7.62452e-19)
(0.0250898 -0.132997 3.23056e-19)
(0.043016 -0.160435 -1.57978e-19)
(0.062878 -0.18815 -3.93478e-19)
(0.0842853 -0.215673 -4.78038e-19)
(0.106816 -0.242428 4.70165e-19)
(0.13002 -0.267698 -3.85705e-19)
(0.153363 -0.290584 -8.08004e-19)
(0.176188 -0.309876 8.25989e-19)
(0.198165 -0.323572 -1.01018e-18)
(0.219671 -0.328487 4.31294e-19)
(0.235259 -0.323984 -6.48144e-21)
(-0.0113813 0.0156753 -8.87072e-19)
(-0.0219776 0.0269176 -9.59226e-19)
(-0.025892 0.024852 1.09548e-19)
(-0.024738 0.0145332 -9.34825e-19)
(-0.0193696 -0.00098138 -8.7382e-20)
(-0.0102534 -0.0198663 -6.92389e-19)
(0.00237505 -0.0410411 -1.60258e-19)
(0.0183407 -0.0638614 -4.70606e-19)
(0.0374376 -0.0879001 8.26342e-22)
(0.059394 -0.11281 -2.07271e-19)
(0.0838647 -0.138247 1.20151e-20)
(0.110435 -0.163837 -5.87458e-19)
(0.138632 -0.189154 6.34748e-19)
(0.167942 -0.213709 -8.95673e-19)
(0.197825 -0.236929 3.0507e-19)
(0.227676 -0.258126 2.65222e-21)
(0.256762 -0.276379 -4.61868e-19)
(0.284623 -0.289984 1.09321e-18)
(0.311821 -0.295563 -2.63295e-19)
(0.333412 -0.291551 -1.53231e-19)
(-0.0121086 0.0159564 1.00162e-18)
(-0.0228061 0.0288183 5.40387e-19)
(-0.0249658 0.0289149 5.04679e-19)
(-0.020726 0.020726 7.49907e-20)
(-0.0112557 0.0071575 6.86274e-19)
(0.00277307 -0.0099378 9.95885e-19)
(0.0209641 -0.0293988 8.22802e-19)
(0.043021 -0.0504893 7.23825e-20)
(0.0686438 -0.0727014 6.04789e-19)
(0.0974795 -0.0956277 9.35148e-19)
(0.129102 -0.118888 -2.42155e-19)
(0.16301 -0.142094 4.05101e-19)
(0.198633 -0.164833 3.28022e-19)
(0.235346 -0.186661 3.32335e-19)
(0.272494 -0.207099 1.85774e-18)
(0.309378 -0.225623 -6.91253e-19)
(0.345183 -0.241602 -3.84393e-20)
(0.379272 -0.253782 7.21076e-19)
(0.412306 -0.258948 -3.94301e-19)
(0.440486 -0.25458 1.88328e-19)
(-0.0124535 0.0155764 -8.1509e-19)
(-0.0228021 0.0290656 5.39566e-20)
(-0.0229462 0.0306226 -6.56717e-19)
(-0.0153892 0.0240994 -8.67808e-20)
(-0.00154948 0.0121888 4.84822e-19)
(0.01772 -0.00328342 -1.44594e-18)
(0.0418691 -0.021115 -1.81793e-21)
(0.0704756 -0.0405031 6.76846e-19)
(0.103133 -0.0608722 6.38918e-19)
(0.13939 -0.0817584 -2.81204e-19)
(0.178715 -0.102741 9.15025e-20)
(0.220496 -0.123408 2.12825e-19)
(0.264033 -0.143339 -1.03787e-19)
(0.308564 -0.16211 -1.09283e-18)
(0.353288 -0.179291 2.78556e-19)
(0.397377 -0.194461 7.11978e-19)
(0.439915 -0.207204 -9.96422e-19)
(0.48008 -0.216742 4.79915e-19)
(0.518504 -0.220266 1.20675e-19)
(0.553127 -0.214277 5.59104e-19)
(-0.0124334 0.014678 -1.22185e-19)
(-0.0219379 0.0279007 -5.72873e-19)
(-0.0197472 0.0302141 2.63889e-19)
(-0.00858479 0.0248536 1.79887e-21)
(0.0099456 0.0142673 -1.16059e-18)
(0.0348354 0.000213812 1.80111e-19)
(0.0653872 -0.0160979 -3.5371e-20)
(0.101045 -0.033824 2.37583e-19)
(0.141276 -0.052338 -1.08786e-18)
(0.185499 -0.0711299 -7.51195e-20)
(0.233046 -0.089744 -2.51684e-19)
(0.283152 -0.107745 2.2685e-19)
(0.334955 -0.124706 7.45948e-19)
(0.38752 -0.140206 -1.1728e-19)
(0.439869 -0.153837 4.35536e-20)
(0.491006 -0.165221 2.71846e-19)
(0.539868 -0.174058 -6.9282e-20)
(0.585423 -0.17989 4.94808e-19)
(0.628088 -0.180298 -3.15082e-19)
(0.667607 -0.170984 -4.37509e-19)
(-0.0120796 0.0134055 1.12278e-19)
(-0.020197 0.025598 2.67194e-20)
(-0.0152621 0.0280054 2.30315e-19)
(-0.000104172 0.0233082 5.66218e-19)
(0.0235418 0.0137066 3.19525e-19)
(0.0545324 0.000866534 3.42615e-20)
(0.0920241 -0.0140237 -3.85065e-19)
(0.13531 -0.0301034 9.83159e-20)
(0.183698 -0.0467158 5.20557e-19)
(0.236433 -0.0633226 -8.8063e-19)
(0.29266 -0.0794495 6.60882e-19)
(0.35141 -0.0946565 -4.95231e-19)
(0.411621 -0.108524 4.10788e-19)
(0.47217 -0.120648 -8.74021e-19)
(0.531919 -0.13064 9.36846e-19)
(0.589742 -0.138138 -9.88775e-19)
(0.644496 -0.142846 -2.43438e-19)
(0.695027 -0.144309 7.25692e-19)
(0.74116 -0.140256 -2.58747e-19)
(0.782129 -0.127101 8.43491e-20)
(-0.011426 0.0118899 -8.52403e-20)
(-0.0175559 0.0224357 8.03607e-19)
(-0.00934783 0.0243568 -2.4879e-21)
(0.0103359 0.0198726 -5.00312e-19)
(0.0396659 0.0109528 -3.39096e-19)
(0.0773734 -0.000840092 6.20931e-19)
(0.122457 -0.0143591 -2.46384e-19)
(0.174024 -0.0287502 -3.0939e-20)
(0.23117 -0.0433508 5.16399e-19)
(0.292902 -0.0576203 -6.4053e-19)
(0.358101 -0.071096 6.74071e-20)
(0.425535 -0.0833677 -8.19443e-19)
(0.493895 -0.0940649 4.22214e-19)
(0.561856 -0.10285 -1.18963e-18)
(0.628158 -0.10941 1.84678e-18)
(0.691677 -0.113451 -3.42954e-19)
(0.751495 -0.114657 3.14008e-19)
(0.8071 -0.112374 -8.28303e-19)
(0.858791 -0.104799 2.48744e-20)
(0.900966 -0.0947296 7.98588e-19)
(-0.0104962 0.010237 -2.58088e-19)
(-0.0139673 0.018671 2.22416e-19)
(-0.00181504 0.0196419 -8.21636e-19)
(0.0230908 0.0150114 1.2175e-18)
(0.0588389 0.00654972 -8.81327e-19)
(0.104025 -0.00428507 4.60003e-20)
(0.157456 -0.0164027 -9.57116e-19)
(0.217995 -0.0289795 6.85293e-19)
(0.284447 -0.0413763 -9.73563e-20)
(0.355487 -0.0530849 -6.00497e-19)
(0.429651 -0.0636936 -3.45271e-19)
(0.505366 -0.0728673 3.71291e-19)
(0.581027 -0.0803362 2.36069e-19)
(0.655084 -0.0858897 -1.0209e-18)
(0.726146 -0.0893723 3.75201e-19)
(0.793068 -0.0906813 -5.19277e-19)
(0.855027 -0.0897575 5.96066e-20)
(0.911652 -0.0864904 -4.00775e-19)
(0.963329 -0.0805235 1.31413e-19)
(1.00632 -0.0751914 -5.51858e-19)
(-0.00929333 0.00852262 7.34028e-19)
(-0.00934563 0.0145246 -4.45002e-19)
(0.00757577 0.0142212 3.66878e-19)
(0.0385733 0.00921067 -4.64366e-19)
(0.0816363 0.00109792 7.78269e-19)
(0.135187 -0.00875957 -1.26906e-20)
(0.197776 -0.0193426 -9.50917e-20)
(0.267935 -0.0298845 -7.00962e-20)
(0.344072 -0.0398054 4.35901e-19)
(0.424432 -0.0486714 7.37834e-19)
(0.507116 -0.0561673 -4.31957e-19)
(0.590161 -0.0620771 4.16831e-19)
(0.671653 -0.0662704 7.41345e-19)
(0.749845 -0.0686902 -5.19804e-19)
(0.823268 -0.069344 -9.98397e-19)
(0.890807 -0.068297 1.78775e-18)
(0.95175 -0.0656698 -3.2235e-19)
(1.00581 -0.0616227 -9.69488e-20)
(1.05326 -0.0562046 9.40212e-19)
(1.09208 -0.051365 -2.27715e-19)
(-0.00779358 0.00679302 -1.19215e-18)
(-0.00356087 0.0101733 -7.92435e-19)
(0.0191085 0.00842434 -3.04453e-19)
(0.0572271 0.00294861 5.88671e-19)
(0.108633 -0.00478597 -1.33249e-18)
(0.171501 -0.0135204 6.93238e-19)
(0.244028 -0.022325 8.82081e-20)
(0.324296 -0.0305241 9.07338e-20)
(0.4102 -0.0376412 -9.07004e-19)
(0.499453 -0.0433663 -3.17105e-19)
(0.589669 -0.0475288 -5.52918e-19)
(0.678496 -0.0500723 5.30802e-19)
(0.763768 -0.0510312 1.40154e-19)
(0.843646 -0.0505085 2.0946e-20)
(0.916713 -0.0486568 6.24971e-19)
(0.982032 -0.0456642 -6.47447e-19)
(1.03914 -0.041748 -2.31339e-20)
(1.08801 -0.0371448 2.81407e-20)
(1.12909 -0.03197 9.3877e-20)
(1.16168 -0.0272778 4.04533e-19)
(-0.00594405 0.00506979 3.79005e-19)
(0.00356039 0.00575299 9.74191e-19)
(0.0330969 0.00254194 7.81248e-19)
(0.079491 -0.00332515 -2.70216e-19)
(0.140339 -0.0105037 9.43999e-19)
(0.213459 -0.0178399 -8.03636e-20)
(0.29656 -0.0245216 -1.11863e-19)
(0.387137 -0.0300084 6.86434e-20)
(0.482457 -0.033981 9.13752e-19)
(0.579639 -0.0363073 5.35249e-19)
(0.675814 -0.0370062 1.57206e-19)
(0.768319 -0.0362096 1.3728e-20)
(0.854878 -0.0341229 -9.7767e-19)
(0.933732 -0.0309908 8.49899e-19)
(1.00371 -0.0270693 1.34647e-19)
(1.06424 -0.0226064 -2.32448e-19)
(1.11526 -0.0178335 -9.22693e-19)
(1.15714 -0.0129571 -6.17195e-20)
(1.19064 -0.00806635 3.37391e-19)
(1.21612 -0.00364869 -5.94531e-20)
(-0.00366564 0.00335881 -9.55437e-19)
(0.0122257 0.00136912 3.99454e-19)
(0.0498627 -0.00317138 -1.95438e-18)
(0.105759 -0.00919876 8.03412e-19)
(0.177142 -0.0154989 -6.41479e-19)
(0.261323 -0.0210448 4.72101e-19)
(0.355364 -0.0251845 -7.36197e-19)
(0.456037 -0.0275698 6.92514e-20)
(0.559898 -0.0280987 -3.78292e-20)
(0.663471 -0.0268688 1.95908e-19)
(0.763496 -0.0241223 2.75515e-19)
(0.857163 -0.0201868 -5.19563e-19)
(0.942299 -0.0154209 2.77542e-19)
(1.01746 -0.0101696 2.45049e-19)
(1.08192 -0.00473498 9.98843e-19)
(1.13562 0.000639195 -4.45264e-19)
(1.17903 0.00577038 -2.67542e-19)
(1.213 0.010536 4.38565e-19)
(1.23864 0.014924 2.0484e-19)
(1.25692 0.0187174 -4.32028e-19)
(-0.000859702 0.00166049 8.32465e-19)
(0.0226618 -0.00288757 8.01063e-19)
(0.0697103 -0.00848606 2.33312e-19)
(0.136341 -0.0142964 9.79994e-19)
(0.219251 -0.0192672 4.82598e-19)
(0.315064 -0.0225404 -8.72807e-19)
(0.420031 -0.0236843 1.31937e-18)
(0.530086 -0.0226098 -6.47928e-19)
(0.641055 -0.0194929 6.43181e-19)
(0.748959 -0.0147011 8.21953e-19)
(0.850329 -0.00871036 -4.68645e-19)
(0.942457 -0.00202448 9.0017e-20)
(1.02353 0.00489081 4.77105e-19)
(1.09265 0.0116511 3.26714e-19)
(1.14971 0.0179738 7.21571e-19)
(1.19527 0.0236793 -3.02354e-19)
(1.23035 0.0286792 -4.74797e-20)
(1.25626 0.0329601 4.05559e-19)
(1.27442 0.0365976 -9.25001e-20)
(1.28614 0.039511 -2.72715e-21)
(0.00258313 -2.02631e-05 -4.28865e-19)
(0.0350961 -0.00692382 -1.5735e-18)
(0.0929014 -0.0131814 3.71404e-19)
(0.171434 -0.0182685 -2.83268e-19)
(0.266668 -0.0213565 -6.55398e-19)
(0.374347 -0.0218218 -4.70281e-19)
(0.489756 -0.0195287 -2.88243e-19)
(0.607941 -0.0147202 6.99604e-19)
(0.724072 -0.0079007 -4.14001e-19)
(0.833858 0.000276296 -4.25827e-19)
(0.933893 0.00912165 -5.22322e-19)
(1.02186 0.0180068 -8.57193e-20)
(1.09658 0.0264274 -6.56866e-20)
(1.15786 0.0340321 -1.13812e-18)
(1.20633 0.0406217 5.26473e-19)
(1.24319 0.046128 -6.95984e-19)
(1.26996 0.0505831 1.9718e-19)
(1.28829 0.0540895 -1.51278e-18)
(1.29982 0.0568057 4.60243e-19)
(1.30599 0.058711 5.41962e-19)
(0.0067736 -0.00166618 -1.0821e-19)
(0.0497381 -0.0106283 7.61717e-19)
(0.119631 -0.0170294 4.93485e-20)
(0.211094 -0.0207795 1.17879e-19)
(0.319168 -0.021362 -2.3934e-19)
(0.438525 -0.0184758 -5.51132e-21)
(0.563386 -0.0123699 -5.34421e-21)
(0.687943 -0.00368569 -1.42554e-19)
(0.806893 0.00671639 5.11079e-19)
(0.915921 0.0179144 1.93848e-19)
(1.01201 0.0290623 8.6786e-19)
(1.09355 0.0394848 -2.34003e-19)
(1.16015 0.0487212 1.58124e-19)
(1.21249 0.0565245 -1.57117e-20)
(1.25191 0.06283 4.25142e-19)
(1.28018 0.0677088 2.48595e-19)
(1.29921 0.07132 5.71405e-19)
(1.31085 0.0738706 -9.07784e-19)
(1.31684 0.0755823 1.10908e-18)
(1.31861 0.0764756 -3.49354e-19)
(0.0118155 -0.00324252 -9.85034e-19)
(0.0667617 -0.0138609 -3.10051e-19)
(0.150007 -0.019782 2.40453e-19)
(0.25522 -0.0214988 1.51942e-19)
(0.376296 -0.0189225 1.58965e-19)
(0.506678 -0.0121825 1.57041e-19)
(0.639503 -0.00200244 -3.9885e-19)
(0.768259 0.0105305 -1.59304e-19)
(0.887461 0.0242076 5.22074e-20)
(0.99313 0.0378963 -4.73876e-19)
(1.08298 0.0506809 -2.08294e-19)
(1.15631 0.0619341 1.25158e-18)
(1.21371 0.0713204 -3.24631e-19)
(1.25668 0.0787549 -4.27449e-19)
(1.28722 0.0843379 -1.90176e-19)
(1.30753 0.0882865 1.38171e-19)
(1.31974 0.0908753 1.53132e-19)
(1.3258 0.0923928 -7.27582e-19)
(1.32738 0.0931006 1.02404e-18)
(1.32584 0.0930579 -8.81289e-19)
(0.0177986 -0.00469508 -1.08444e-19)
(0.0862902 -0.0164474 3.0588e-20)
(0.184034 -0.0211671 -4.15276e-20)
(0.303545 -0.0200994 5.93725e-19)
(0.43738 -0.0137234 3.45486e-20)
(0.57766 -0.0027182 2.16935e-19)
(0.716527 0.0116413 -4.54199e-19)
(0.847039 0.027809 -1.53905e-20)
(0.963907 0.0442797 6.2035e-19)
(1.06387 0.0598049 8.33902e-20)
(1.14565 0.073508 -5.26287e-19)
(1.20963 0.0849049 -4.62176e-20)
(1.25739 0.0938534 -4.10251e-19)
(1.29116 0.100466 4.14386e-19)
(1.31346 0.105016 5.5032e-19)
(1.32674 0.107853 -5.98103e-20)
(1.33324 0.109344 -6.77152e-20)
(1.33483 0.109829 2.07215e-19)
(1.33307 0.109588 -6.40235e-19)
(1.32918 0.108723 5.72454e-19)
(0.0247936 -0.00595071 1.12323e-19)
(0.108384 -0.0181815 -7.14488e-19)
(0.221599 -0.0208912 1.9067e-19)
(0.355634 -0.016265 -5.96414e-19)
(0.501553 -0.00550627 2.06023e-19)
(0.650164 0.0100404 -7.58747e-19)
(0.792831 0.0285016 3.05201e-19)
(0.92256 0.0479059 -9.79894e-20)
(1.03469 0.0665487 -4.3815e-21)
(1.127 0.0831878 9.55345e-20)
(1.19946 0.0970989 -3.44789e-19)
(1.25358 0.108024 -4.82761e-19)
(1.2918 0.116057 -9.46106e-20)
(1.317 0.121521 -4.23509e-20)
(1.33199 0.124847 -1.06354e-19)
(1.33935 0.126493 -3.34926e-20)
(1.34125 0.126885 -9.97302e-20)
(1.33942 0.126386 -8.49544e-20)
(1.33522 0.125282 -2.41605e-19)
(1.32972 0.123713 3.7659e-19)
(0.0328477 -0.00691977 2.63446e-19)
(0.133028 -0.0188309 -2.92854e-19)
(0.262466 -0.018651 6.30852e-19)
(0.410889 -0.00970495 -2.73844e-19)
(0.567794 0.00591783 7.30791e-19)
(0.722803 0.0261125 1.31018e-20)
(0.866849 0.0484061 3.63768e-19)
(0.993344 0.070489 -9.92329e-20)
(1.09866 0.0905902 3.98748e-19)
(1.18192 0.107608 2.55504e-20)
(1.24439 0.121074 9.20719e-19)
(1.28865 0.131014 -6.29615e-19)
(1.31792 0.137777 8.704e-20)
(1.33544 0.141882 1.61017e-19)
(1.34421 0.143892 7.96899e-19)
(1.34675 0.144338 -2.84765e-19)
(1.34506 0.143676 -5.47179e-20)
(1.34069 0.142265 -2.77364e-19)
(1.33479 0.140389 -2.5244e-20)
(1.32824 0.138219 1.35971e-19)
(0.0419813 -0.00749982 -1.23249e-19)
(0.160131 -0.0181478 3.6024e-19)
(0.30627 -0.0141495 -3.73625e-19)
(0.468566 -0.000173056 1.44855e-19)
(0.634972 0.0206551 -1.77415e-19)
(0.794188 0.0454152 6.43525e-19)
(0.937174 0.0710926 -9.15323e-20)
(1.05823 0.0951748 2.1438e-19)
(1.15511 0.115981 -1.28551e-19)
(1.22845 0.132681 -4.4015e-21)
(1.2808 0.145139 1.39024e-19)
(1.31566 0.153695 -1.06586e-19)
(1.33681 0.158948 2.73693e-19)
(1.34771 0.161582 -1.36952e-19)
(1.35135 0.162256 -5.77837e-19)
(1.35007 0.161539 5.68165e-19)
(1.34569 0.159889 -2.48953e-19)
(1.3395 0.157643 1.97708e-19)
(1.33245 0.155078 3.32684e-19)
(1.32528 0.152384 1.35371e-19)
(0.0521852 -0.00757992 3.0805e-19)
(0.189513 -0.0158816 -6.35226e-19)
(0.352526 -0.00711412 1.20308e-19)
(0.527803 0.0125146 -8.85328e-20)
(0.701904 0.0387207 -3.59419e-19)
(0.86301 0.0677727 -2.79812e-19)
(1.00263 0.0962337 -5.58841e-20)
(1.11639 0.121563 -4.91426e-19)
(1.20372 0.142331 -2.98513e-20)
(1.26679 0.158088 -8.98401e-20)
(1.30931 0.169082 -2.40113e-19)
(1.33554 0.17597 -5.38993e-20)
(1.34957 0.179569 -1.79489e-19)
(1.35493 0.180693 -2.91515e-19)
(1.35445 0.180057 2.93182e-19)
(1.35026 0.178236 3.66693e-20)
(1.3439 0.175667 7.28015e-20)
(1.33645 0.172654 -3.23584e-19)
(1.32868 0.16947 -1.01292e-20)
(1.32115 0.166301 -4.81651e-19)
(0.0634182 -0.0070455 3.32233e-19)
(0.220913 -0.0117925 2.22627e-19)
(0.40064 0.00268458 -3.62234e-19)
(0.587656 0.0284645 5.64059e-19)
(0.76742 0.0600365 -6.2166e-20)
(0.9281 0.0929306 2.09477e-19)
(1.06229 0.123464 7.23515e-20)
(1.16736 0.149262 2.5254e-19)
(1.24451 0.169297 -1.97768e-19)
(1.29739 0.18358 6.45976e-20)
(1.33071 0.192763 -6.15285e-20)
(1.34925 0.197797 -2.53898e-20)
(1.35722 0.199677 5.00522e-20)
(1.35806 0.199302 -9.01846e-20)
(1.35436 0.197406 -2.64421e-20)
(1.34799 0.194547 -8.17613e-20)
(1.34023 0.191122 -1.30931e-19)
(1.33196 0.187396 8.52332e-20)
(1.32376 0.183643 -1.11847e-19)
(1.31607 0.180027 4.85868e-19)
(0.0756061 -0.00578352 -1.63948e-19)
(0.253987 -0.00566525 -4.68035e-19)
(0.449929 0.015417 -6.19215e-20)
(0.647143 0.0476965 -1.84357e-20)
(0.830413 0.0844364 -2.09798e-19)
(0.988481 0.120575 -3.4358e-19)
(1.11554 0.152402 1.11112e-19)
(1.21095 0.177908 -1.52535e-19)
(1.27773 0.196593 -1.68355e-19)
(1.32086 0.208975 9.27976e-20)
(1.34583 0.2161 -6.94566e-20)
(1.35768 0.219174 -1.37998e-19)
(1.36062 0.219325 -2.85234e-21)
(1.35787 0.217491 9.31735e-20)
(1.35172 0.214395 -9.18844e-20)
(1.34377 0.210557 1.27762e-19)
(1.33506 0.206326 3.51603e-20)
(1.32627 0.201928 8.46541e-20)
(1.31786 0.197641 1.5986e-19)
(1.31015 0.193582 -1.36228e-19)
(0.0886396 -0.00368799 1.55564e-19)
(0.288316 0.00267808 -1.19165e-20)
(0.499636 0.0311826 7.14801e-20)
(0.70527 0.0701429 -9.54185e-20)
(0.889871 0.11168 9.16533e-21)
(1.04336 0.150354 3.2964e-19)
(1.16197 0.182673 -2.15088e-19)
(1.24719 0.207178 9.04505e-20)
(1.3038 0.223985 7.92843e-20)
(1.33788 0.234139 -2.19379e-19)
(1.35544 0.239047 2.04476e-19)
(1.36164 0.240119 1.99721e-21)
(1.3605 0.238565 -1.40374e-19)
(1.35495 0.235326 1.68391e-19)
(1.34699 0.231088 -6.57508e-20)
(1.33793 0.226321 4.98647e-20)
(1.32861 0.22132 -5.60763e-20)
(1.31955 0.216277 -2.29206e-20)
(1.31107 0.211475 -1.87634e-19)
(1.30342 0.206965 5.75831e-20)
(0.102376 -0.000663175 -5.11527e-20)
(0.323425 0.0133739 1.39762e-19)
(0.548982 0.0500119 2.22539e-20)
(0.76111 0.09566 9.14308e-20)
(0.944956 0.141469 4.37902e-20)
(1.09221 0.181894 2.05865e-20)
(1.20144 0.213914 1.14721e-19)
(1.27634 0.236775 -1.37561e-20)
(1.32325 0.251274 4.98539e-20)
(1.34913 0.258962 7.92761e-20)
(1.36028 0.261564 3.77404e-20)
(1.3618 0.260636 2.6852e-20)
(1.35743 0.257423 1.08183e-19)
(1.34977 0.252837 -1.0451e-19)
(1.34051 0.24751 2.21976e-20)
(1.33072 0.241852 -2.03759e-20)
(1.32104 0.236106 3.17453e-20)
(1.31187 0.230433 2.63842e-20)
(1.30344 0.225125 5.38562e-20)
(1.29591 0.220147 1.98324e-21)
(0.116651 0.00337231 3.04722e-20)
(0.358796 0.0265066 2.76824e-20)
(0.597181 0.071856 -3.84768e-20)
(0.8138 0.124025 2.40351e-20)
(0.994966 0.173457 1.35058e-20)
(1.13464 0.214813 -4.22078e-20)
(1.23398 0.245784 1.37531e-20)
(1.29875 0.266448 2.67065e-21)
(1.33665 0.278301 2.34213e-20)
(1.35527 0.28337 -6.27472e-20)
(1.36101 0.283632 -1.15385e-22)
(1.35873 0.280736 1.70175e-20)
(1.35187 0.27592 -1.35737e-20)
(1.34266 0.270043 1.37146e-20)
(1.33252 0.263668 3.52193e-20)
(1.32228 0.257145 -1.98552e-20)
(1.31244 0.250668 5.65231e-21)
(1.30328 0.244372 2.13898e-20)
(1.29498 0.23856 -3.48791e-20)
(1.28762 0.233094 1.68852e-20)
(0.106632 -0.00402258 8.16326e-20)
(0.344931 -0.0294759 -4.50395e-20)
(0.58974 -0.0792665 5.33482e-20)
(0.817913 -0.136803 -3.97868e-20)
(1.01175 -0.191465 -1.79767e-20)
(1.16272 -0.237226 5.50554e-21)
(1.27089 -0.271474 -1.77144e-20)
(1.34196 -0.294295 6.39573e-20)
(1.38407 -0.307366 -5.33355e-20)
(1.40538 -0.31295 1.21356e-20)
(1.41285 -0.313241 -9.39348e-21)
(1.41173 -0.310052 -6.12633e-20)
(1.40571 -0.304732 5.95575e-20)
(1.39718 -0.298208 2.2978e-20)
(1.38762 -0.29108 -2.21457e-20)
(1.37791 -0.283719 5.29878e-20)
(1.36854 -0.27633 -6.99615e-22)
(1.35981 -0.269053 -5.13464e-20)
(1.35186 -0.262221 3.76071e-20)
(1.34479 -0.255721 1.24162e-20)
(0.091326 -0.000389156 -2.9126e-20)
(0.306529 -0.0168785 8.008e-20)
(0.537011 -0.0577048 9.39031e-20)
(0.760007 -0.108437 -4.53914e-20)
(0.956687 -0.159349 7.86513e-20)
(1.11601 -0.204232 1.27215e-19)
(1.23515 -0.2397 -7.02365e-21)
(1.31745 -0.26493 -2.24645e-20)
(1.36951 -0.280839 1.12056e-19)
(1.39882 -0.289185 5.51663e-20)
(1.41224 -0.291901 -1.01953e-20)
(1.41529 -0.290714 8.34203e-20)
(1.41203 -0.286992 -8.89547e-20)
(1.40525 -0.281728 1.42248e-19)
(1.39675 -0.275599 -2.31861e-20)
(1.38763 -0.269041 7.00616e-20)
(1.37856 -0.262315 1.34856e-20)
(1.36994 -0.255586 4.96346e-20)
(1.36199 -0.249174 -4.66526e-20)
(1.35486 -0.243086 1.28522e-20)
(0.0766774 0.00216916 -4.3731e-20)
(0.268554 -0.006907 9.61462e-20)
(0.483161 -0.0394121 7.21098e-20)
(0.698736 -0.0831739 -1.15663e-20)
(0.896096 -0.129648 1.20822e-19)
(1.06229 -0.172792 -9.41884e-20)
(1.19185 -0.208712 -9.61841e-21)
(1.28563 -0.2358 8.54342e-20)
(1.34845 -0.254231 2.88403e-20)
(1.38683 -0.265212 3.91528e-20)
(1.40732 -0.270344 -5.7322e-20)
(1.41552 -0.27121 1.59714e-19)
(1.41584 -0.269154 3.05668e-20)
(1.41142 -0.26521 -1.39517e-19)
(1.40441 -0.260121 2.133e-19)
(1.39619 -0.254389 -2.5142e-19)
(1.38763 -0.248332 -1.1842e-19)
(1.37926 -0.242148 2.05513e-20)
(1.37141 -0.236147 1.13482e-19)
(1.36428 -0.230437 -2.15028e-19)
(0.0628712 0.00374231 -9.19117e-20)
(0.231585 0.000530576 -2.16753e-19)