/*--------------------------------*- C++ -*----------------------------------*\
  =========                 |
  \\      /  F ield         | OpenFOAM: The Open Source CFD Toolbox
   \\    /   O peration     | Website:  https://openfoam.org
    \\  /    A nd           | Version:  6.0
     \\/     M anipulation  |
\*---------------------------------------------------------------------------*/
FoamFile
{
    version     2.0;
    format      ascii;
    class       volVectorField;
    location    "29";
    object      U;
}
// * * * * * * * * * * * * * * * * * * * * * * * * * * * * * * * * * * * * * //

dimensions      [0 1 -1 0 0 0 0];

internalField   nonuniform List<vector> 
4000
(
(0.0917008 0.00723157 5.67249e-20)
(0.293338 0.0380483 -3.08213e-20)
(0.499988 0.0915918 3.62689e-20)
(0.69511 0.153167 -2.69768e-20)
(0.865097 0.213007 -1.20873e-20)
(1.0023 0.265051 3.65322e-21)
(1.10533 0.306165 -1.18543e-20)
(1.17737 0.335776 4.26188e-20)
(1.22407 0.355034 -3.54631e-20)
(1.25165 0.365899 8.31688e-21)
(1.26579 0.370487 -6.19938e-21)
(1.27108 0.370683 -4.02961e-20)
(1.27094 0.367986 3.90623e-20)
(1.26771 0.363492 1.48487e-20)
(1.26296 0.357958 -1.47734e-20)
(1.25763 0.351876 3.46398e-20)
(1.25234 0.345543 -5.20204e-22)
(1.24746 0.339163 -3.3553e-20)
(1.24322 0.333138 2.48441e-20)
(1.23984 0.327422 7.8061e-21)
(0.105543 0.011972 -1.98753e-20)
(0.327355 0.0527602 5.7648e-20)
(0.546067 0.115254 6.65612e-20)
(0.745285 0.183001 -3.13746e-20)
(0.912601 0.245654 5.45944e-20)
(1.04254 0.297545 8.63147e-20)
(1.1361 0.336438 -4.74248e-21)
(1.19847 0.362739 -1.47746e-20)
(1.23652 0.378388 7.30472e-20)
(1.25709 0.385861 3.55815e-20)
(1.26596 0.387528 -6.43159e-21)
(1.26751 0.385343 5.29425e-20)
(1.26485 0.380767 -5.66728e-20)
(1.26001 0.374809 8.82077e-20)
(1.25425 0.368131 -1.47061e-20)
(1.24834 0.361145 4.20206e-20)
(1.24273 0.354081 7.53507e-21)
(1.23771 0.347113 3.00067e-20)
(1.23341 0.340635 -2.85723e-20)
(1.23004 0.334465 6.8407e-21)
(0.119637 0.01779 -3.09274e-20)
(0.36085 0.0698302 7.35453e-20)
(0.589933 0.141511 5.4594e-20)
(0.791257 0.214912 -8.25729e-21)
(0.95425 0.27951 8.48911e-20)
(1.07599 0.330384 -6.3288e-20)
(1.15995 0.366409 -4.90318e-21)
(1.2131 0.389035 5.58649e-20)
(1.24337 0.400958 1.77522e-20)
(1.25792 0.405087 2.47666e-20)
(1.26246 0.403966 -3.65326e-20)
(1.2611 0.399557 9.50755e-20)
(1.25657 0.393245 1.76873e-20)
(1.25059 0.385935 -8.40531e-20)
(1.24417 0.378192 1.22519e-19)
(1.23792 0.370349 -1.44414e-19)
(1.23217 0.362582 -6.61226e-20)
(1.22713 0.355039 1.09955e-20)
(1.22287 0.34811 6.41588e-20)
(1.21956 0.341476 -1.20668e-19)
(0.133754 0.0246993 -6.97678e-20)
(0.39324 0.0891562 -1.64482e-19)
(0.630854 0.170083 -1.42104e-19)
(0.832396 0.248496 -1.93405e-19)
(0.989701 0.314151 -1.09607e-19)
(1.10267 0.363213 -2.27147e-19)
(1.17718 0.395836 2.88576e-20)
(1.2218 0.414533 -1.20344e-19)
(1.2452 0.422692 -1.31855e-20)
(1.2547 0.42357 1.97658e-20)
(1.25579 0.419809 -4.33594e-20)
(1.25222 0.413328 5.40549e-20)
(1.24636 0.405403 9.61503e-20)
(1.23964 0.396831 -1.35165e-19)
(1.23285 0.388082 2.1637e-20)
(1.22645 0.379417 6.25249e-20)
(1.22069 0.370963 1.04551e-19)
(1.21573 0.362855 -9.01803e-20)
(1.21158 0.355473 -4.32915e-21)
(1.2084 0.348365 1.05645e-19)
(0.147652 0.0326838 -1.31624e-19)
(0.423959 0.110571 3.60698e-19)
(0.668181 0.200629 -6.35956e-20)
(0.86821 0.283318 8.42487e-20)
(1.01876 0.349156 -8.24765e-20)
(1.12269 0.395699 2.53038e-19)
(1.18816 0.424497 -4.01032e-20)
(1.22505 0.439108 2.38711e-20)
(1.24254 0.443532 -1.20266e-20)
(1.24791 0.441285 3.90655e-20)
(1.24633 0.435037 2.52244e-20)
(1.24116 0.426621 3.17681e-20)
(1.23443 0.417193 -9.03117e-20)
(1.22728 0.407433 1.31989e-19)
(1.22034 0.397722 -1.0026e-19)
(1.21395 0.388259 1.89305e-20)
(1.20831 0.379131 -6.41308e-20)
(1.20351 0.370464 1.36641e-20)
(1.19953 0.362627 1.53933e-20)
(1.19655 0.355035 -1.43478e-19)
(0.161085 0.0416974 9.56759e-21)
(0.452475 0.133845 -1.81699e-19)
(0.701361 0.232757 1.00277e-19)
(0.898344 0.318923 -3.49863e-19)
(1.04138 0.38411 1.69358e-19)
(1.13629 0.427527 -2.90259e-19)
(1.19329 0.452187 -2.26473e-19)
(1.22333 0.46264 -8.63798e-21)
(1.23585 0.46341 -7.6674e-20)
(1.23794 0.458183 -2.38283e-19)
(1.23437 0.4496 -2.97314e-20)
(1.22813 0.439377 -2.27809e-19)
(1.2209 0.428538 4.12609e-20)
(1.2136 0.417651 -3.27107e-20)
(1.20671 0.407015 1.91699e-20)
(1.20047 0.396774 -1.52072e-19)
(1.19503 0.386983 7.99635e-21)
(1.19047 0.377763 3.04448e-20)
(1.18673 0.369467 -7.03493e-20)
(1.184 0.36139 6.13804e-20)
(0.173811 0.0516636 -7.4671e-20)
(0.478306 0.158695 3.32395e-19)
(0.729943 0.266034 2.4134e-21)
(0.922569 0.354848 -2.87703e-19)
(1.05761 0.418613 2.17099e-19)
(1.14375 0.458402 9.11525e-20)
(1.193 0.47871 1.84778e-20)
(1.2171 0.485006 -1.53331e-19)
(1.22554 0.482241 2.48983e-19)
(1.22511 0.474192 -1.45516e-19)
(1.22017 0.463423 5.2745e-20)
(1.2133 0.45151 2.45329e-19)
(1.2059 0.439341 -2.20106e-19)
(1.19868 0.42738 2.41646e-19)
(1.19198 0.415852 -1.56603e-19)
(1.18601 0.404851 -3.07286e-20)
(1.18087 0.394408 3.71174e-20)
(1.17662 0.384643 4.66607e-20)
(1.17318 0.375889 6.41553e-20)
(1.17077 0.367331 3.86746e-20)
(0.1856 0.062477 2.98819e-20)
(0.501031 0.184791 -2.99111e-19)
(0.753585 0.300002 5.30322e-20)
(0.940775 0.390626 6.93988e-19)
(1.06759 0.452278 -6.40172e-20)
(1.14539 0.488042 1.92042e-19)
(1.18769 0.503876 1.19651e-19)
(1.20675 0.506079 1.99427e-20)
(1.21196 0.499926 -1.38217e-19)
(1.2097 0.489221 2.26439e-19)
(1.20392 0.476409 -2.62061e-20)
(1.19681 0.462913 3.41715e-19)
(1.18951 0.449491 1.31128e-19)
(1.18255 0.436504 8.18432e-20)
(1.1762 0.424113 -1.70442e-19)
(1.1706 0.412373 3.59137e-20)
(1.16585 0.401291 1.3195e-19)
(1.16198 0.39099 3.37859e-20)
(1.15889 0.381784 -1.59326e-19)
(1.15687 0.372757 -3.96855e-20)
(0.196237 0.0740055 -1.66388e-19)
(0.520298 0.211766 5.36156e-19)
(0.772049 0.334184 -2.91789e-19)
(0.952957 0.425802 -2.68383e-19)
(1.07153 0.484737 -2.33396e-19)
(1.14155 0.516181 -1.9649e-19)
(1.17776 0.527501 -2.41704e-19)
(1.19266 0.525722 3.02228e-19)
(1.19541 0.516354 -2.14883e-19)
(1.19194 0.503161 -1.72352e-20)
(1.18577 0.488443 -1.9165e-21)
(1.17876 0.473467 -4.08466e-20)
(1.17179 0.458859 -1.04561e-19)
(1.16528 0.444895 -1.15936e-19)
(1.1594 0.431674 -6.20039e-21)
(1.15427 0.419215 -2.57473e-20)
(1.14999 0.407512 -6.27041e-20)
(1.14656 0.39669 -1.90184e-20)
(1.1439 0.387039 2.1797e-20)
(1.14232 0.377566 -1.32688e-19)
(0.205531 0.0860933 2.91388e-19)
(0.535831 0.239225 3.00995e-19)
(0.785199 0.368099 -1.86793e-19)
(0.959199 0.45993 1.15046e-19)
(1.0697 0.515639 1.98286e-19)
(1.13262 0.542566 -4.05984e-20)
(1.16358 0.549404 4.88104e-20)
(1.17517 0.543796 5.43022e-20)
(1.17616 0.531399 9.0096e-20)
(1.17203 0.515888 -1.05168e-19)
(1.16587 0.499397 5.15386e-20)
(1.15924 0.483036 -3.46848e-20)
(1.15282 0.467313 1.56138e-19)
(1.14692 0.452418 6.68854e-20)
(1.14163 0.438401 -1.53771e-19)
(1.13707 0.425251 8.37543e-20)
(1.13333 0.412949 4.18911e-20)
(1.13042 0.401623 -7.47438e-20)
(1.12824 0.391542 2.03802e-19)
(1.12717 0.381656 -1.48984e-19)
(0.213317 0.0985652 -2.14251e-19)
(0.547432 0.266757 -2.77851e-19)
(0.792995 0.40127 1.94024e-19)
(0.959663 0.492585 -1.7906e-19)
(1.06242 0.544655 -1.67344e-20)
(1.11896 0.566956 -1.94658e-19)
(1.14553 0.569407 1.62003e-19)
(1.15458 0.560156 2.95045e-19)
(1.15445 0.544928 -4.10158e-19)
(1.15014 0.527268 2.11859e-20)
(1.14434 0.509134 1.58056e-20)
(1.13834 0.491483 -8.03401e-20)
(1.13267 0.47471 5.65418e-20)
(1.12751 0.458935 -2.31491e-20)
(1.12294 0.444161 1.5119e-19)
(1.11904 0.43035 -1.62944e-19)
(1.11592 0.417474 -5.45104e-20)
(1.11358 0.405665 1.44673e-19)
(1.11196 0.395172 -2.10888e-19)
(1.11148 0.384918 1.33286e-19)
(0.219461 0.11123 4.44442e-19)
(0.554979 0.293941 3.92331e-19)
(0.795486 0.433232 -6.60097e-20)
(0.954577 0.523365 -8.3138e-21)
(1.05003 0.571477 -1.98659e-19)
(1.10096 0.589128 8.46454e-20)
(1.12395 0.58734 4.09962e-19)
(1.13118 0.574657 -3.59286e-19)
(1.13049 0.556804 2.23932e-19)
(1.12642 0.537164 -1.91679e-20)
(1.12128 0.517512 1.34544e-19)
(1.11614 0.498662 -3.50823e-20)
(1.11138 0.480907 7.95497e-20)
(1.10712 0.464304 9.99954e-20)
(1.10339 0.448815 -5.78772e-20)
(1.10025 0.434377 6.64515e-20)
(1.09781 0.420956 -8.97538e-20)
(1.09613 0.408684 2.31246e-19)
(1.09512 0.397796 -1.4022e-19)
(1.09529 0.387223 1.0043e-19)
(0.223865 0.123886 -2.15765e-19)
(0.558428 0.32036 -4.02347e-19)
(0.792795 0.463539 -2.77678e-19)
(0.944227 0.551895 -1.92367e-20)
(1.03289 0.595823 6.56123e-20)
(1.07898 0.608872 -3.60406e-20)
(1.09917 0.603036 -2.32947e-19)
(1.10524 0.587155 -1.00218e-19)
(1.1045 0.566887 -1.80316e-19)
(1.10102 0.545433 -8.37996e-20)
(1.09681 0.524388 4.25372e-20)
(1.09273 0.504428 -2.0175e-19)
(1.08904 0.48576 -4.41176e-20)
(1.08581 0.468382 -4.19247e-20)
(1.08303 0.452223 -1.36108e-19)
(1.08075 0.437196 5.98357e-20)
(1.07909 0.423257 4.22519e-21)
(1.07811 0.41054 5.19402e-20)
(1.0778 0.399268 -2.19059e-20)
(1.0787 0.388423 -6.87055e-20)
(0.226462 0.136326 4.98629e-19)
(0.557805 0.345604 4.33922e-19)
(0.78512 0.491773 5.33651e-19)
(0.928939 0.57783 -5.55705e-20)
(1.01139 0.617434 -1.88509e-19)
(1.0534 0.625994 5.62968e-19)
(1.07152 0.616342 -2.74355e-19)
(1.07701 0.59751 3.00494e-19)
(1.07665 0.575043 -5.36015e-20)
(1.07408 0.551941 1.78979e-19)
(1.07102 0.529623 2.05503e-20)
(1.06817 0.508642 7.79732e-20)
(1.06571 0.489126 -1.69438e-20)
(1.06364 0.471029 7.35376e-20)
(1.06193 0.454245 -5.13976e-20)
(1.06062 0.438667 7.93675e-21)
(1.0598 0.424241 2.66422e-20)
(1.0596 0.411089 3.79973e-20)
(1.06006 0.399436 -1.96023e-21)
(1.06173 0.388373 1.24323e-20)
(0.227223 0.148341 -1.52533e-19)
(0.553203 0.369284 -4.25226e-19)
(0.772715 0.517545 -2.58076e-19)
(0.909081 0.600859 -4.47963e-19)
(0.98594 0.63608 4.75748e-19)
(1.0246 0.640323 -3.26548e-19)
(1.04131 0.627116 2.03734e-19)
(1.04674 0.605594 -7.32461e-20)
(1.04714 0.581144 -8.13469e-20)
(1.04574 0.556559 -5.63148e-20)
(1.04401 0.533088 2.98654e-20)
(1.04254 0.51117 2.99661e-20)
(1.04143 0.490871 1.57104e-20)
(1.04066 0.472104 -3.12685e-20)
(1.04016 0.454739 -1.01653e-20)
(1.03991 0.43865 3.59743e-20)
(1.04005 0.423763 -1.64235e-20)
(1.04069 0.410186 5.71688e-21)
(1.04197 0.398159 7.78802e-21)
(1.04443 0.386955 1.64397e-20)
(0.226153 0.159726 6.64934e-19)
(0.54478 0.391034 3.10055e-19)
(0.755892 0.540504 2.90273e-19)
(0.885048 0.620708 -1.69309e-19)
(0.956936 0.651558 1.9165e-20)
(0.992947 0.651704 2.35531e-19)
(1.00883 0.635231 2.78562e-20)
(1.01466 0.61129 5.16003e-20)
(1.01614 0.585078 5.29129e-20)
(1.01612 0.559175 -4.31347e-21)
(1.01589 0.534668 1.50144e-20)
(1.01591 0.511898 -1.10549e-20)
(1.01627 0.490874 -1.67747e-20)
(1.01691 0.47148 -5.09164e-21)
(1.01773 0.453567 8.38007e-21)
(1.0187 0.436993 4.42171e-21)
(1.01989 0.421666 -7.91043e-21)
(1.02146 0.407664 -2.74243e-22)
(1.02362 0.395268 3.63523e-20)
(1.02693 0.38402 -3.31778e-20)
(0.223291 0.170282 -4.69763e-19)
(0.532744 0.410518 -4.04257e-19)
(0.735001 0.56034 1.89014e-19)
(0.857259 0.637136 -2.28014e-19)
(0.924797 0.663695 -1.83006e-20)
(0.958802 0.660009 2.09573e-20)
(0.974409 0.640578 -3.24514e-20)
(0.981025 0.614499 -3.16848e-20)
(0.983834 0.586749 -4.27722e-20)
(0.985376 0.559695 -2.89581e-20)
(0.986752 0.534272 -2.63475e-20)
(0.988354 0.510732 2.41528e-20)
(0.990256 0.489037 -5.18976e-22)
(0.992399 0.469049 5.7837e-21)
(0.994677 0.450608 5.21878e-21)
(0.997007 0.433563 -5.53385e-20)
(0.9994 0.417799 -4.87796e-20)
(1.00201 0.403339 -5.28264e-20)
(1.00517 0.390494 -7.87841e-22)
(1.00958 0.379208 8.19743e-20)
(0.218708 0.179826 4.26213e-19)
(0.517354 0.427435 1.95646e-20)
(0.710432 0.576782 -4.403e-20)
(0.826152 0.649943 5.04917e-20)
(0.889943 0.67235 1.41406e-19)
(0.922533 0.66513 -1.09206e-19)
(0.938329 0.64307 2.16496e-20)
(0.946059 0.61514 -4.11942e-20)
(0.950415 0.586081 -1.43309e-20)
(0.953643 0.558047 -1.58015e-21)
(0.9567 0.531831 -4.69909e-20)
(0.95993 0.507603 -3.98617e-20)
(0.963413 0.485284 4.33547e-20)
(0.96712 0.464721 -1.6577e-20)
(0.970961 0.44575 -1.7557e-19)
(0.974815 0.428229 1.71717e-19)
(0.978605 0.412021 -1.03379e-19)
(0.982491 0.397021 -6.57552e-20)
(0.987042 0.38346 8.22111e-20)
(0.993032 0.371903 -1.01788e-19)
(0.212504 0.188188 -9.07432e-20)
(0.498911 0.441523 9.81654e-20)
(0.682604 0.589602 5.10775e-20)
(0.792179 0.658966 -7.56454e-20)
(0.852799 0.677409 2.64123e-20)
(0.884509 0.666985 -4.70987e-20)
(0.900898 0.642639 -1.49667e-20)
(0.910011 0.613157 1.64304e-20)
(0.916076 0.583026 -1.48737e-21)
(0.921076 0.554193 -1.05613e-19)
(0.925845 0.527315 2.61018e-20)
(0.930695 0.50248 6.70713e-21)
(0.935728 0.479568 1.2607e-19)
(0.940968 0.458404 -3.22715e-19)
(0.946382 0.438826 3.00465e-19)
(0.95185 0.42072 1.59885e-19)
(0.957239 0.403945 -3.27529e-20)
(0.962789 0.388189 2.59142e-20)
(0.969358 0.373463 2.86315e-19)
(0.977229 0.36129 -1.19329e-19)
(0.204804 0.195215 -2.55175e-20)
(0.477748 0.452558 6.0343e-20)
(0.651957 0.598617 -5.57361e-20)
(0.755798 0.664079 7.28542e-20)
(0.813791 0.678789 -3.33611e-20)
(0.845097 0.665517 2.78694e-20)
(0.862426 0.639242 2.56141e-20)
(0.87314 0.608519 -7.14732e-20)
(0.881034 0.57757 7.15822e-20)
(0.887853 0.548143 5.04539e-20)
(0.894325 0.520764 2.58434e-20)
(0.900731 0.495439 3.83569e-21)
(0.90719 0.471991 1.03283e-19)
(0.913775 0.450193 -1.0433e-19)
(0.920523 0.429843 1.24085e-19)
(0.927366 0.410812 -2.5969e-19)
(0.934217 0.39291 2.90391e-19)
(0.941506 0.375526 -2.49503e-19)
(0.950186 0.358411 -1.68071e-19)
(0.959162 0.344953 2.87424e-19)
(0.195758 0.20078 1.91313e-20)
(0.454226 0.46036 -1.81596e-20)
(0.618947 0.603686 -9.09749e-21)
(0.717478 0.665189 -4.4391e-20)
(0.773345 0.676435 1.13633e-20)
(0.804669 0.660689 5.3598e-21)
(0.823229 0.632853 -1.62203e-19)
(0.835722 0.60121 1.08069e-19)
(0.845535 0.569716 1.08153e-19)
(0.854204 0.539933 -1.51674e-19)
(0.862359 0.512273 1.78177e-19)
(0.870244 0.486675 -6.80665e-20)
(0.877965 0.462907 1.34193e-19)
(0.885598 0.44068 -2.1426e-19)
(0.89319 0.419711 4.4591e-19)
(0.900705 0.399753 -1.00725e-19)
(0.908165 0.380407 -2.78039e-20)
(0.916229 0.360455 2.93421e-19)
(0.925673 0.338002 -1.42855e-19)
(0.931648 0.315496 6.32807e-20)
(0.185534 0.204774 -6.08129e-20)
(0.428724 0.46479 7.45133e-20)
(0.584041 0.604708 -3.24684e-20)
(0.677684 0.662242 4.63624e-20)
(0.731889 0.670317 -2.33743e-20)
(0.763597 0.652483 -1.62425e-19)
(0.783633 0.623459 2.48855e-19)
(0.798045 0.59122 1.70896e-20)
(0.809851 0.559461 -2.66448e-20)
(0.820401 0.529575 4.99268e-21)
(0.830245 0.501884 8.18266e-20)
(0.839592 0.476286 1.41054e-19)
(0.848526 0.452542 8.46332e-20)
(0.857082 0.430377 -2.01293e-19)
(0.865245 0.409547 -5.77696e-20)
(0.872956 0.389861 -1.00185e-20)
(0.880309 0.371061 3.78229e-20)
(0.887883 0.352475 5.10874e-21)
(0.895641 0.333406 4.31321e-19)
(0.899029 0.315935 -3.01089e-19)
(0.174309 0.20711 1.60085e-19)
(0.401635 0.465746 -2.43554e-20)
(0.547706 0.601623 -1.13249e-19)
(0.636881 0.655212 3.68221e-19)
(0.689841 0.660429 7.21227e-20)
(0.722249 0.6409 -2.21884e-19)
(0.743959 0.61106 2.08095e-19)
(0.760403 0.578547 -4.72766e-20)
(0.774257 0.5468 1.84993e-19)
(0.786715 0.517055 8.4797e-20)
(0.798269 0.489555 -4.07863e-19)
(0.809116 0.464168 -4.73284e-20)
(0.819342 0.440643 5.68331e-19)
(0.828981 0.418715 -6.95745e-19)
(0.838013 0.398149 6.43527e-19)
(0.846369 0.378749 2.2299e-19)
(0.854108 0.360245 -7.93072e-19)
(0.861623 0.342076 3.83255e-19)
(0.868748 0.323938 -7.87634e-20)
(0.872056 0.308166 9.19543e-20)
(0.162275 0.207723 -2.94061e-19)
(0.373356 0.463167 -3.03314e-19)
(0.510411 0.594408 2.07266e-19)
(0.595524 0.644106 -2.60676e-19)
(0.647614 0.646792 -7.13775e-19)
(0.680987 0.625959 -2.37178e-20)
(0.70453 0.595669 -2.11797e-19)
(0.723085 0.5632 1.05107e-20)
(0.739023 0.531739 -4.16441e-19)
(0.753403 0.50238 -4.23799e-19)
(0.766671 0.475305 -2.88216e-19)
(0.779019 0.450357 -1.1933e-20)
(0.79054 0.427293 -7.13687e-19)
(0.801282 0.405862 -5.61237e-21)
(0.811248 0.385859 3.48031e-19)
(0.820405 0.367122 -3.46198e-19)
(0.828826 0.349439 -2.66944e-19)
(0.83683 0.332388 2.56962e-19)
(0.844244 0.315785 -1.8439e-19)
(0.848262 0.301482 3.54964e-20)
(0.149631 0.206574 2.35684e-19)
(0.344289 0.457032 1.8308e-19)
(0.472615 0.583077 -6.97288e-21)
(0.554061 0.628962 -1.49972e-19)
(0.60561 0.629449 3.65876e-19)
(0.640164 0.607698 5.88072e-19)
(0.665657 0.577315 -6.09727e-20)
(0.686377 0.545195 1.1093e-20)
(0.704421 0.514281 1.15003e-19)
(0.720735 0.485538 2.61496e-19)
(0.735734 0.459094 3.78993e-19)
(0.749614 0.43478 -3.06625e-19)
(0.76248 0.412353 3.03014e-19)
(0.7744 0.391577 -1.04012e-19)
(0.785396 0.372259 3.53113e-19)
(0.795467 0.354246 -1.37409e-19)
(0.804712 0.337353 -3.41164e-19)
(0.813455 0.321245 2.0545e-19)
(0.821549 0.305854 -2.93009e-19)
(0.826546 0.292738 -3.33137e-19)
(0.136576 0.203642 1.04551e-19)
(0.314831 0.447355 1.90437e-19)
(0.43477 0.567683 -2.00441e-19)
(0.512922 0.609848 9.11603e-21)
(0.564216 0.608469 3.44587e-20)
(0.600122 0.586177 2.78786e-19)
(0.627644 0.556043 -4.1231e-19)
(0.650554 0.524564 3.91972e-19)
(0.670702 0.494445 -3.7712e-20)
(0.688942 0.466535 1.07276e-19)
(0.705671 0.440916 1.7296e-19)
(0.721092 0.417408 -3.29751e-19)
(0.735333 0.395777 1.58134e-19)
(0.748484 0.3758 1.50205e-19)
(0.760594 0.357295 5.54193e-20)
(0.771691 0.34012 -2.8417e-19)
(0.781902 0.324102 9.57261e-19)
(0.791544 0.308954 -5.35753e-19)
(0.800468 0.294643 9.73696e-19)
(0.806501 0.282459 -6.31921e-20)
(0.123312 0.198932 7.57588e-20)
(0.285369 0.434185 4.49578e-19)
(0.397309 0.54831 1.59627e-19)
(0.472523 0.586863 3.33238e-19)
(0.523803 0.583944 8.68703e-20)
(0.561186 0.561474 -5.3254e-19)
(0.59078 0.531917 8.2583e-19)
(0.615875 0.501357 4.27852e-19)
(0.638106 0.472267 1.79543e-20)
(0.65825 0.445391 5.5451e-19)
(0.676691 0.420772 8.9591e-20)
(0.693648 0.398226 5.81162e-20)
(0.709272 0.377524 3.31778e-19)
(0.723674 0.358454 -1.24029e-19)
(0.736929 0.340843 -1.30895e-19)
(0.749097 0.324554 7.73409e-19)
(0.760328 0.309423 -6.46379e-19)
(0.77093 0.295202 2.50886e-20)
(0.780745 0.281874 8.18184e-19)
(0.787841 0.270498 -7.93055e-22)
(0.110037 0.192465 -9.64553e-19)
(0.256278 0.417607 -1.62962e-19)
(0.360651 0.525076 -2.20564e-19)
(0.43326 0.560133 -1.68481e-19)
(0.484724 0.555993 -4.27191e-19)
(0.523666 0.533693 1.46266e-19)
(0.555339 0.505022 -2.04709e-19)
(0.582589 0.475642 5.91301e-20)
(0.606859 0.4478 -2.96311e-19)
(0.628865 0.422144 -2.80594e-19)
(0.648984 0.398687 5.82907e-20)
(0.667454 0.377243 -4.54178e-19)
(0.684448 0.35759 3.62698e-19)
(0.700099 0.339527 -1.31036e-19)
(0.714509 0.322887 4.11052e-19)
(0.72776 0.307538 -8.86951e-19)
(0.740021 0.293322 -1.68366e-19)
(0.751587 0.280022 -3.18364e-19)
(0.762295 0.267623 -8.55429e-19)
(0.770443 0.256986 -1.37818e-19)
(0.096944 0.184284 1.57312e-19)
(0.22792 0.397735 -1.86175e-20)
(0.325192 0.498131 -2.42728e-19)
(0.395506 0.529811 8.57138e-20)
(0.447312 0.524758 -1.73314e-19)
(0.487856 0.502957 -2.26213e-21)
(0.521581 0.475464 2.36162e-19)
(0.550928 0.447506 -3.52484e-19)
(0.577172 0.421117 1.37626e-19)
(0.600976 0.396855 -7.95862e-20)
(0.622721 0.374709 2.15501e-20)
(0.642661 0.354494 -3.94646e-19)
(0.66099 0.335998 -4.80303e-19)
(0.677865 0.319028 -1.81912e-20)
(0.693407 0.303427 5.35374e-19)
(0.707724 0.289064 2.5081e-20)
(0.720996 0.275794 6.77905e-19)
(0.733498 0.263421 -9.88065e-19)
(0.745076 0.25193 5.25881e-19)
(0.754249 0.242005 9.06111e-19)
(0.0842186 0.174452 -1.37277e-19)
(0.200637 0.374714 7.37544e-20)
(0.291307 0.467653 4.79799e-19)
(0.359614 0.496079 1.18476e-19)
(0.411879 0.490404 -1.59832e-19)
(0.454028 0.469412 1.26137e-19)
(0.489748 0.443369 4.96567e-19)
(0.521109 0.41706 -4.02946e-19)
(0.549239 0.392312 3.74499e-20)
(0.574762 0.369604 -1.47145e-19)
(0.598062 0.348907 5.32315e-19)
(0.61941 0.330038 3.80415e-19)
(0.639021 0.312798 -5.51688e-20)
(0.657074 0.297003 -5.77902e-19)
(0.673708 0.282506 3.05988e-20)
(0.68905 0.269179 -7.13771e-20)
(0.703288 0.256888 3.39998e-19)
(0.716681 0.24546 5.53358e-19)
(0.729088 0.234873 4.83558e-19)
(0.739247 0.225661 -8.0789e-19)
(0.0720377 0.163046 -8.5928e-20)
(0.174749 0.348718 3.66707e-19)
(0.259343 0.433851 -3.57606e-19)
(0.325909 0.459142 4.97322e-19)
(0.378715 0.453121 -2.70494e-19)
(0.422439 0.433225 1.94017e-19)
(0.460065 0.408882 4.92887e-19)
(0.493334 0.384432 -5.92859e-19)
(0.523243 0.361499 2.70167e-19)
(0.550387 0.340494 3.42178e-19)
(0.575153 0.321371 -4.6525e-19)
(0.59783 0.303957 -3.31123e-20)
(0.618655 0.288063 -3.7367e-19)
(0.637821 0.27352 5.99356e-19)
(0.655489 0.260187 -3.2524e-19)
(0.6718 0.247947 3.49403e-19)
(0.686946 0.236672 -6.32951e-20)
(0.70117 0.226214 2.16117e-19)
(0.714355 0.216541 4.92798e-20)
(0.72545 0.208061 -1.26223e-19)
(0.0605673 0.150163 -2.63373e-19)
(0.150557 0.319945 -6.06116e-19)
(0.229624 0.396958 1.59538e-19)
(0.294692 0.41923 -5.11694e-19)
(0.348087 0.413119 -4.84753e-19)
(0.393321 0.394583 -3.48565e-19)
(0.432741 0.37217 2.7172e-19)
(0.467788 0.349769 2.09034e-19)
(0.499352 0.328811 -1.47377e-21)
(0.528 0.309642 -1.82441e-19)
(0.554129 0.29221 -3.2919e-19)
(0.578043 0.27635 2.97008e-19)
(0.599996 0.261887 -1.02282e-19)
(0.6202 0.248667 -5.06454e-19)
(0.638828 0.236559 3.29919e-19)
(0.656038 0.225452 -2.47864e-19)
(0.672023 0.215235 -1.01066e-19)
(0.68701 0.205774 -2.82925e-19)
(0.700916 0.197034 -2.56397e-19)
(0.712885 0.189312 6.63199e-20)
(0.0499613 0.135915 2.30074e-19)
(0.128335 0.288621 1.19244e-19)
(0.202444 0.357231 1.82477e-19)
(0.266238 0.376595 -6.22592e-19)
(0.320237 0.370627 6.66943e-19)
(0.366889 0.353692 3.05886e-21)
(0.407963 0.333417 5.42207e-21)
(0.44464 0.313237 -4.06918e-19)
(0.477717 0.294398 3.80069e-19)
(0.507741 0.277188 -2.64469e-19)
(0.535114 0.261551 7.98887e-20)
(0.560159 0.247335 -3.55034e-19)
(0.583144 0.234382 -1.69022e-19)
(0.604295 0.22255 -8.07948e-20)
(0.623801 0.211722 6.08952e-19)
(0.641831 0.201797 -2.99009e-19)
(0.658577 0.192675 -2.69971e-19)
(0.674254 0.184242 2.77922e-19)
(0.688815 0.176455 -2.28255e-19)
(0.701588 0.169528 1.77899e-19)
(0.04036 0.120425 4.88799e-19)
(0.10833 0.254991 -2.95202e-19)
(0.178068 0.314951 4.42356e-20)
(0.240792 0.331508 5.17485e-19)
(0.295384 0.325895 2.05449e-19)
(0.343334 0.310774 2.54964e-19)
(0.385902 0.292822 2.53896e-19)
(0.424044 0.275017 5.38785e-19)
(0.458478 0.258425 -1.23561e-19)
(0.489733 0.243284 2.95091e-19)
(0.518221 0.229536 4.29077e-19)
(0.544279 0.217045 1.58156e-19)
(0.568188 0.205671 2.8658e-19)
(0.590187 0.195289 1.0405e-19)
(0.610479 0.185792 6.12763e-20)
(0.629241 0.177093 -4.43985e-20)
(0.646665 0.169103 3.56279e-19)
(0.662954 0.161728 2.19806e-19)
(0.678099 0.154919 -1.99781e-19)
(0.691599 0.148821 1.8844e-19)
(0.0318888 0.103834 -3.24534e-19)
(0.0907637 0.21932 3.66316e-20)
(0.15673 0.270416 -9.38106e-20)
(0.218572 0.284259 -2.85007e-19)
(0.273719 0.279187 -1.51123e-19)
(0.322824 0.266069 -2.74686e-19)
(0.366708 0.250601 1.27664e-19)
(0.406135 0.235305 -4.94305e-19)
(0.441754 0.221072 2.92004e-19)
(0.474086 0.208096 -4.04092e-19)
(0.50355 0.19632 -2.51093e-19)
(0.530493 0.185626 -3.32519e-19)
(0.55521 0.175893 7.6193e-20)
(0.577951 0.167013 -7.52317e-20)
(0.598928 0.158895 9.00583e-20)
(0.618328 0.151461 4.85008e-20)
(0.636341 0.144639 9.64047e-20)
(0.653161 0.138348 -8.06675e-19)
(0.668816 0.13254 4.01564e-19)
(0.682955 0.127309 -2.40766e-19)
(0.0246574 0.0862889 1.07234e-19)
(0.0758271 0.181892 2.16617e-19)
(0.138635 0.223943 -1.41388e-19)
(0.199766 0.235154 3.49219e-19)
(0.255408 0.230781 -5.61415e-20)
(0.305507 0.219827 4.04672e-19)
(0.350512 0.206981 7.82402e-20)
(0.391029 0.194309 -8.22636e-20)
(0.427654 0.182532 2.9941e-19)
(0.460898 0.171801 2.29099e-19)
(0.491187 0.162068 8.50323e-20)
(0.51888 0.153233 1.11881e-19)
(0.544281 0.145195 5.61495e-20)
(0.56765 0.137864 -2.38438e-19)
(0.589208 0.131164 -3.32505e-20)
(0.609147 0.125032 2.49271e-19)
(0.627656 0.119407 -1.70392e-19)
(0.644922 0.114225 -7.86948e-21)
(0.661009 0.109441 -3.57271e-19)
(0.675693 0.10511 7.19791e-19)
(0.0187586 0.0679509 2.87525e-19)
(0.0636816 0.143005 -3.45409e-19)
(0.123952 0.175864 1.62023e-19)
(0.18453 0.18451 -2.29389e-19)
(0.240592 0.180971 2.0237e-19)
(0.291504 0.172312 -3.51625e-19)
(0.337423 0.162203 -2.5769e-19)
(0.378824 0.152248 1.93115e-20)
(0.416265 0.143006 -3.51657e-19)
(0.450248 0.134589 -2.19625e-19)
(0.481207 0.126957 -3.80592e-19)
(0.509508 0.120032 -1.28342e-20)
(0.535463 0.113733 -1.48002e-19)
(0.559341 0.10799 3.74661e-19)
(0.581368 0.102743 2.58454e-19)
(0.601744 0.0979417 -8.676e-20)
(0.620654 0.0935396 -7.84606e-20)
(0.638279 0.0894872 -3.49251e-21)
(0.654716 0.0857453 9.68774e-21)
(0.669845 0.0823447 1.42143e-19)
(0.0142679 0.0489871 -7.19131e-20)
(0.0544577 0.102971 -2.46237e-19)
(0.112819 0.126523 -1.5361e-19)
(0.172992 0.132659 -9.61723e-20)
(0.229381 0.130056 -1.99429e-19)
(0.280916 0.123797 3.42004e-19)
(0.327528 0.116513 -3.65818e-20)
(0.369601 0.10935 -8.24073e-20)
(0.40766 0.102704 3.36026e-21)
(0.442204 0.0966539 2.42543e-19)
(0.473669 0.0911698 -2.30563e-19)
(0.502431 0.0861942 2.2569e-19)
(0.528806 0.0816698 1.06046e-19)
(0.553068 0.0775457 -1.93409e-19)
(0.575451 0.0737785 4.23007e-20)
(0.596157 0.0703319 1.24574e-19)
(0.615369 0.067173 4.34532e-20)
(0.633266 0.0642667 -3.00767e-20)
(0.649968 0.0615828 -2.62458e-19)
(0.665435 0.0591364 2.0902e-19)
(0.0112422 0.0295716 6.48587e-20)
(0.0482536 0.0621106 7.87681e-20)
(0.105339 0.0762734 2.2158e-20)
(0.165247 0.0799394 -1.67085e-20)
(0.22186 0.0783478 4.75777e-20)
(0.273816 0.0745629 7.28372e-20)
(0.320895 0.0701671 2.76259e-20)
(0.36342 0.0658484 3.37234e-20)
(0.401893 0.0618433 -7.18999e-20)
(0.436813 0.0581984 1.34721e-19)
(0.468619 0.0548949 -3.18587e-20)
(0.497689 0.0518983 -2.59041e-21)
(0.524347 0.0491737 3.2399e-20)
(0.548867 0.0466905 3.6547e-20)
(0.571489 0.0444226 -9.83502e-20)
(0.592416 0.042348 6.466e-20)
(0.611831 0.040447 4.24547e-20)
(0.62991 0.0386987 3.62736e-20)
(0.64679 0.037084 7.7873e-20)
(0.662486 0.0356094 3.22588e-20)
(0.00971992 0.00988329 -1.32818e-20)
(0.0451353 0.0207509 2.76072e-20)
(0.101582 0.0254761 -3.86476e-20)
(0.161359 0.0266955 2.42945e-20)
(0.218086 0.0261606 1.42814e-20)
(0.270254 0.0248946 6.40894e-21)
(0.317568 0.0234258 1.51234e-20)
(0.360319 0.0219833 -4.33798e-20)
(0.399001 0.0206459 2.76791e-20)
(0.43411 0.0194289 9.6721e-21)
(0.466087 0.018326 -5.83534e-22)
(0.495313 0.0173257 5.9624e-20)
(0.522111 0.0164163 -1.80844e-20)
(0.546762 0.0155875 -1.73433e-20)
(0.569503 0.0148307 -1.6694e-20)
(0.590541 0.0141384 2.58673e-21)
(0.610058 0.0135041 -2.23564e-20)
(0.628227 0.0129209 4.26161e-21)
(0.645198 0.0123823 8.41489e-22)
(0.661008 0.0118899 -2.84007e-21)
(0.00972022 -0.0098963 8.43646e-21)
(0.045136 -0.0207755 -4.49045e-20)
(0.101583 -0.0255042 5.35539e-20)
(0.16136 -0.0267233 -4.02617e-20)
(0.218087 -0.0261866 -1.8813e-20)
(0.270255 -0.0249186 5.63332e-20)
(0.31757 -0.0234477 4.70178e-21)
(0.36032 -0.0220034 1.31922e-21)
(0.399002 -0.0206642 2.63968e-20)
(0.434111 -0.0194455 1.3663e-20)
(0.466088 -0.0183411 -1.07774e-20)
(0.495314 -0.0173392 -3.78869e-20)
(0.522112 -0.0164284 3.58204e-21)
(0.546763 -0.0155983 -3.32206e-21)
(0.569504 -0.0148401 3.54041e-20)
(0.590542 -0.0141466 -2.13194e-20)
(0.610059 -0.0135112 2.92728e-20)
(0.628229 -0.012927 -4.38894e-20)
(0.645199 -0.0123873 5.13433e-23)
(0.661009 -0.0118941 -9.24981e-21)
(0.0112431 -0.0295847 -2.80258e-20)
(0.0482555 -0.0621354 1.4141e-19)
(0.105342 -0.0763016 9.53382e-20)
(0.16525 -0.0799673 6.31261e-20)
(0.221863 -0.078374 7.88693e-20)
(0.273819 -0.0745869 -1.91214e-20)
(0.320899 -0.0701891 8.75042e-20)
(0.363423 -0.0658686 1.795e-20)
(0.401896 -0.0618617 -7.79399e-21)
(0.436816 -0.058215 -6.25384e-20)
(0.468623 -0.0549099 6.49421e-20)
(0.497693 -0.0519117 -8.82514e-20)
(0.52435 -0.0491857 6.41757e-20)
(0.548871 -0.0467012 7.35784e-20)
(0.571492 -0.044432 9.74247e-20)
(0.592419 -0.0423562 -6.39789e-20)
(0.611834 -0.040454 1.81247e-20)
(0.629913 -0.0387047 6.77357e-20)
(0.646793 -0.037089 -6.40599e-20)
(0.662489 -0.0356135 4.8328e-20)
(0.0142694 -0.0490004 -2.70957e-19)
(0.0544609 -0.102997 -1.36146e-19)
(0.112823 -0.126551 -1.51447e-19)
(0.172997 -0.132688 -1.19467e-20)
(0.229386 -0.130083 -8.17412e-20)
(0.280921 -0.123821 -1.00262e-19)
(0.327534 -0.116535 1.77273e-19)
(0.369607 -0.10937 9.04108e-20)
(0.407666 -0.102722 1.11507e-19)
(0.442209 -0.0966705 -1.21124e-19)
(0.473675 -0.0911847 8.98193e-20)
(0.502436 -0.0862076 1.09717e-19)
(0.528812 -0.0816818 3.86953e-20)
(0.553074 -0.0775562 -3.67797e-20)
(0.575457 -0.0737878 7.95038e-21)
(0.596162 -0.07034 -1.58564e-20)
(0.615375 -0.0671799 -1.55744e-19)
(0.633271 -0.0642725 2.40993e-20)
(0.649974 -0.0615876 1.51474e-19)
(0.665441 -0.0591403 -2.03487e-19)
(0.0187608 -0.0679646 -8.91884e-20)
(0.0636862 -0.143031 1.32148e-19)
(0.123958 -0.175893 3.06044e-20)
(0.184537 -0.184539 -5.7159e-20)
(0.240599 -0.180997 -1.61719e-19)
(0.291512 -0.172336 -3.4669e-19)
(0.337431 -0.162225 -3.30157e-19)
(0.378833 -0.152268 -2.38122e-20)
(0.416273 -0.143024 -1.92271e-19)
(0.450257 -0.134605 -2.87702e-19)
(0.481215 -0.126972 2.23287e-19)
(0.509516 -0.120045 -3.29333e-19)
(0.535472 -0.113745 6.56392e-20)
(0.559349 -0.108 -2.09322e-20)
(0.581376 -0.102752 -6.91909e-20)
(0.601752 -0.0979496 -8.7532e-20)
(0.620662 -0.0935463 1.41941e-19)
(0.638287 -0.0894928 1.13517e-19)
(0.654724 -0.0857499 1.95215e-19)
(0.669852 -0.0823484 -2.92126e-19)
(0.0246602 -0.086303 4.83795e-20)
(0.0758331 -0.181918 4.70123e-19)
(0.138643 -0.223973 1.34672e-19)
(0.199775 -0.235183 3.25693e-19)
(0.255418 -0.230808 -1.21744e-19)
(0.305517 -0.219851 1.87472e-19)
(0.350523 -0.207004 -5.90216e-20)
(0.391039 -0.194329 3.80537e-19)
(0.427664 -0.18255 -1.95882e-19)
(0.460909 -0.171818 2.30941e-19)
(0.491198 -0.162083 2.00582e-19)
(0.518891 -0.153246 2.14694e-19)
(0.544292 -0.145207 -1.92156e-19)
(0.567661 -0.137874 1.65044e-19)
(0.589218 -0.131173 -2.29449e-19)
(0.609157 -0.125039 -6.31507e-20)
(0.627667 -0.119413 -1.51341e-19)
(0.644932 -0.11423 -6.42962e-20)
(0.661019 -0.109445 2.54994e-19)
(0.675703 -0.105113 -4.22207e-19)
(0.0318924 -0.103848 -1.94615e-19)
(0.0907713 -0.219347 -2.26317e-20)
(0.15674 -0.270446 -7.7582e-20)
(0.218584 -0.284289 -2.72773e-19)
(0.273731 -0.279214 4.63812e-20)
(0.322837 -0.266094 -4.27404e-19)
(0.366721 -0.250623 -1.7979e-19)
(0.406148 -0.235325 -1.39234e-20)
(0.441768 -0.221091 -4.52493e-19)
(0.474099 -0.208112 -1.40602e-19)