1.22 	3.45254e-18 	-6.98323e-18 	-0.122457 	-0.000845515 	-4.25221e-22
1.66 	3.45254e-18 	-6.96118e-18 	-0.235165 	0.023723 	-2.08915e-23
2.1 	3.45254e-18 	-6.93894e-18 	-0.250355 	0.107302 	-1.18589e-21
2.54 	3.45254e-18 	-8.30431e-18 	-0.317084 	0.164677 	3.19945e-24
2.98 	3.45254e-18 	-8.28171e-18 	-0.287319 	0.0922586 	1.34498e-21
3.42 	3.45254e-18 	-6.87115e-18 	-0.2822 	-0.0962073 	1.48149e-21
3.86 	3.45254e-18 	-6.84819e-18 	-0.250284 	-0.261516 	2.96715e-22
4.3 	3.45254e-18 	-6.82504e-18 	-0.275285 	-0.301411 	1.07359e-21
4.74 	3.45254e-18 	-5.41391e-18 	-0.169554 	-0.213416 	-6.19144e-22
5.18 	3.45254e-18 	-2.61482e-18 	-0.0454397 	-0.0544102 	-3.25432e-22
5.62 	3.45254e-18 	-1.2033e-18 	0.0793419 	0.0872513 	1.38351e-22
6.06 	3.45254e-18 	-1.17937e-18 	0.141996 	0.18443 	3.1599e-22
6.5 	3.45254e-18 	-1.15524e-18 	0.157732 	0.232827 	-1.05877e-22
