/*--------------------------------*- C++ -*----------------------------------*\
  =========                 |
  \\      /  F ield         | OpenFOAM: The Open Source CFD Toolbox
   \\    /   O peration     | Website:  https://openfoam.org
    \\  /    A nd           | Version:  6.0
     \\/     M anipulation  |
\*---------------------------------------------------------------------------*/
FoamFile
{
    version     2.0;
    format      ascii;
    class       volScalarField;
    location    "51";
    object      p;
}
// * * * * * * * * * * * * * * * * * * * * * * * * * * * * * * * * * * * * * //

dimensions      [0 2 -2 0 0 0 0];

internalField   nonuniform List<scalar> 
8000
(
-0.244724
-0.245595
-0.246171
-0.246591
-0.24694
-0.247231
-0.247477
-0.24769
-0.247876
-0.248044
-0.248197
-0.248341
-0.248479
-0.248617
-0.248758
-0.248911
-0.249078
-0.249212
-0.24929
-0.2498
-0.24506
-0.245922
-0.246492
-0.246907
-0.247252
-0.24754
-0.247783
-0.247994
-0.248181
-0.24835
-0.248506
-0.248654
-0.248799
-0.248945
-0.249096
-0.249261
-0.249443
-0.249596
-0.249693
-0.250228
-0.245487
-0.24634
-0.246902
-0.247308
-0.247644
-0.247923
-0.248158
-0.248361
-0.248541
-0.248703
-0.248854
-0.248999
-0.249141
-0.249286
-0.249439
-0.249609
-0.249799
-0.249962
-0.250071
-0.250628
-0.246003
-0.246848
-0.247399
-0.247794
-0.248116
-0.24838
-0.2486
-0.248787
-0.248952
-0.2491
-0.249237
-0.249368
-0.249499
-0.249634
-0.249778
-0.249943
-0.250132
-0.250297
-0.250409
-0.250982
-0.24661
-0.247445
-0.247984
-0.248362
-0.248665
-0.248908
-0.249106
-0.24927
-0.249411
-0.249535
-0.249648
-0.249756
-0.249864
-0.249977
-0.250102
-0.250251
-0.250428
-0.250586
-0.250689
-0.251274
-0.247307
-0.248133
-0.248657
-0.249014
-0.249293
-0.249508
-0.249675
-0.249808
-0.249916
-0.250006
-0.250084
-0.250157
-0.250229
-0.250308
-0.2504
-0.250518
-0.250671
-0.250808
-0.250892
-0.25148
-0.248099
-0.248913
-0.249419
-0.249751
-0.249998
-0.250179
-0.250308
-0.2504
-0.250465
-0.25051
-0.250542
-0.250566
-0.250589
-0.250617
-0.25066
-0.250732
-0.250844
-0.250946
-0.250995
-0.251578
-0.248989
-0.249791
-0.250274
-0.250575
-0.250784
-0.250922
-0.251005
-0.251047
-0.251059
-0.251048
-0.25102
-0.250981
-0.250939
-0.2509
-0.250875
-0.250881
-0.250932
-0.250979
-0.250975
-0.251543
-0.249983
-0.250769
-0.251225
-0.251488
-0.251653
-0.251741
-0.251768
-0.251752
-0.251701
-0.251622
-0.251522
-0.251406
-0.251281
-0.251155
-0.25104
-0.250956
-0.250922
-0.250889
-0.250808
-0.251347
-0.25109
-0.251855
-0.252276
-0.252496
-0.252609
-0.252638
-0.252603
-0.252519
-0.252396
-0.25224
-0.252055
-0.251847
-0.251621
-0.251387
-0.251158
-0.250957
-0.250806
-0.250661
-0.250472
-0.250963
-0.252319
-0.253054
-0.253435
-0.253602
-0.253655
-0.253618
-0.253513
-0.253355
-0.253152
-0.252909
-0.252629
-0.252315
-0.251973
-0.251609
-0.251239
-0.250888
-0.250585
-0.250286
-0.249946
-0.250361
-0.253681
-0.254377
-0.254706
-0.254812
-0.254796
-0.254686
-0.254504
-0.254264
-0.253975
-0.253639
-0.253256
-0.252827
-0.252354
-0.251841
-0.251303
-0.250767
-0.250267
-0.249762
-0.249211
-0.24951
-0.255187
-0.25583
-0.256097
-0.256131
-0.256037
-0.255845
-0.255578
-0.255252
-0.254872
-0.25444
-0.25395
-0.2534
-0.252785
-0.252108
-0.251377
-0.25062
-0.249874
-0.249098
-0.248255
-0.248373
-0.256847
-0.257423
-0.257614
-0.257565
-0.25738
-0.257096
-0.256738
-0.25632
-0.255847
-0.255316
-0.254719
-0.254046
-0.253286
-0.252434
-0.251491
-0.25048
-0.249436
-0.248313
-0.24707
-0.246909
-0.258676
-0.259167
-0.259266
-0.259117
-0.258829
-0.258441
-0.257981
-0.257465
-0.256895
-0.256265
-0.255562
-0.254769
-0.253866
-0.252838
-0.251672
-0.250382
-0.248992
-0.247439
-0.24566
-0.245072
-0.260685
-0.26107
-0.26106
-0.260795
-0.260386
-0.259879
-0.259305
-0.258681
-0.258007
-0.257276
-0.256468
-0.25556
-0.254522
-0.253323
-0.251937
-0.250354
-0.248584
-0.246527
-0.24406
-0.242837
-0.262889
-0.263148
-0.263006
-0.262603
-0.262053
-0.261408
-0.260703
-0.259956
-0.259169
-0.25833
-0.257416
-0.256397
-0.255233
-0.25388
-0.252288
-0.250425
-0.248272
-0.245681
-0.242402
-0.240275
-0.265305
-0.265415
-0.265117
-0.264552
-0.263835
-0.263028
-0.26217
-0.261282
-0.260365
-0.259407
-0.258383
-0.257255
-0.255978
-0.254491
-0.252725
-0.250615
-0.248104
-0.244983
-0.240778
-0.23733
-0.267957
-0.267891
-0.267411
-0.266656
-0.265744
-0.264747
-0.26371
-0.262657
-0.261591
-0.2605
-0.259359
-0.25813
-0.256763
-0.255192
-0.253327
-0.251062
-0.248272
-0.244597
-0.239147
-0.233585
-0.270872
-0.270603
-0.269911
-0.268934
-0.267797
-0.26658
-0.265336
-0.264092
-0.262856
-0.26162
-0.260364
-0.259059
-0.25767
-0.256151
-0.254446
-0.252482
-0.250138
-0.246943
-0.241645
-0.235443
-0.274088
-0.273584
-0.272647
-0.271416
-0.270021
-0.268554
-0.267075
-0.265617
-0.264193
-0.262802
-0.261435
-0.260086
-0.258752
-0.257454
-0.256251
-0.255289
-0.254836
-0.255336
-0.258406
-0.271072
-0.27765
-0.276872
-0.275655
-0.274137
-0.272453
-0.270707
-0.268969
-0.267277
-0.26565
-0.264096
-0.26262
-0.261235
-0.259971
-0.258896
-0.258139
-0.25793
-0.25865
-0.260867
-0.265821
-0.278261
-0.28161
-0.280515
-0.278981
-0.277143
-0.27514
-0.273092
-0.271075
-0.269134
-0.267295
-0.265575
-0.263991
-0.262571
-0.261371
-0.260484
-0.260063
-0.260345
-0.261672
-0.264483
-0.269403
-0.279081
-0.286026
-0.284564
-0.282672
-0.280484
-0.278137
-0.275767
-0.273456
-0.271258
-0.269203
-0.267313
-0.265616
-0.264149
-0.262976
-0.262197
-0.261954
-0.26244
-0.2639
-0.266599
-0.270806
-0.277734
-0.290959
-0.289073
-0.286783
-0.284214
-0.281502
-0.278794
-0.276181
-0.273718
-0.27144
-0.269371
-0.267541
-0.265989
-0.264775
-0.263984
-0.263724
-0.264129
-0.265336
-0.267461
-0.270596
-0.275008
-0.29647
-0.294094
-0.291366
-0.28839
-0.285294
-0.282236
-0.279311
-0.276576
-0.274061
-0.27179
-0.269787
-0.268085
-0.266729
-0.26578
-0.265307
-0.265383
-0.266066
-0.267377
-0.269334
-0.271705
-0.302611
-0.29968
-0.296473
-0.293066
-0.28957
-0.28615
-0.282903
-0.279878
-0.2771
-0.274583
-0.272343
-0.270397
-0.268774
-0.267509
-0.266638
-0.26619
-0.266173
-0.266565
-0.267355
-0.268129
-0.309431
-0.305874
-0.30215
-0.298291
-0.29438
-0.290585
-0.286997
-0.283653
-0.280565
-0.277735
-0.275164
-0.272856
-0.270825
-0.269085
-0.267651
-0.266529
-0.265709
-0.265158
-0.264859
-0.264407
-0.316961
-0.312712
-0.308436
-0.304107
-0.299766
-0.295577
-0.291617
-0.287905
-0.284436
-0.281196
-0.278175
-0.275367
-0.272775
-0.270408
-0.268273
-0.266372
-0.264693
-0.263214
-0.261919
-0.260491
-0.325222
-0.320217
-0.315359
-0.310543
-0.305754
-0.301141
-0.29676
-0.292607
-0.288656
-0.284882
-0.281269
-0.277809
-0.274509
-0.27138
-0.268435
-0.265683
-0.263122
-0.260747
-0.258539
-0.256292
-0.334211
-0.328395
-0.322932
-0.317615
-0.312352
-0.307269
-0.302394
-0.297695
-0.293133
-0.288677
-0.284315
-0.280052
-0.275906
-0.271904
-0.26807
-0.264426
-0.260983
-0.257747
-0.254698
-0.251715
-0.343904
-0.337233
-0.331148
-0.325313
-0.319541
-0.31392
-0.308448
-0.303071
-0.297741
-0.292437
-0.287166
-0.281957
-0.276851
-0.271893
-0.267124
-0.262575
-0.258265
-0.254206
-0.250374
-0.246705
-0.35425
-0.346692
-0.339976
-0.333602
-0.327266
-0.321014
-0.314812
-0.308593
-0.30232
-0.295998
-0.289668
-0.283392
-0.27724
-0.271276
-0.265553
-0.260107
-0.25496
-0.25012
-0.245553
-0.241235
-0.365166
-0.356707
-0.349354
-0.342411
-0.335436
-0.328428
-0.321332
-0.314087
-0.306687
-0.299185
-0.291666
-0.284234
-0.276983
-0.269994
-0.263325
-0.257009
-0.251062
-0.245487
-0.240233
-0.235301
-0.376531
-0.367175
-0.359183
-0.351627
-0.343912
-0.335994
-0.327817
-0.31935
-0.310647
-0.301821
-0.293016
-0.284371
-0.276003
-0.267998
-0.26041
-0.253265
-0.246568
-0.240306
-0.234412
-0.228911
-0.388191
-0.377958
-0.369323
-0.361093
-0.35251
-0.343502
-0.33404
-0.324159
-0.313995
-0.303737
-0.293584
-0.283706
-0.274232
-0.265244
-0.256783
-0.248861
-0.241466
-0.234572
-0.228089
-0.222066
-0.399946
-0.388876
-0.379592
-0.370607
-0.361001
-0.350704
-0.339752
-0.328283
-0.316532
-0.304772
-0.293248
-0.282152
-0.271609
-0.261689
-0.252414
-0.243774
-0.235741
-0.228271
-0.221252
-0.214765
-0.411559
-0.399707
-0.389763
-0.379919
-0.369115
-0.357322
-0.34469
-0.331488
-0.318068
-0.304777
-0.291899
-0.279628
-0.268077
-0.257291
-0.247268
-0.237976
-0.229369
-0.221383
-0.213885
-0.206995
-0.422755
-0.410191
-0.399565
-0.388739
-0.37655
-0.363062
-0.348587
-0.333551
-0.318424
-0.303619
-0.289436
-0.27606
-0.263577
-0.252003
-0.241307
-0.231434
-0.22232
-0.213881
-0.205963
-0.198736
-0.433225
-0.420029
-0.40869
-0.396746
-0.382983
-0.367624
-0.351183
-0.334262
-0.31744
-0.301176
-0.285768
-0.271376
-0.258051
-0.245775
-0.234487
-0.224108
-0.214557
-0.205732
-0.197457
-0.189962
-0.44263
-0.428893
-0.416802
-0.403594
-0.388082
-0.37071
-0.352233
-0.333429
-0.31497
-0.297336
-0.280809
-0.265507
-0.251442
-0.238556
-0.226762
-0.215956
-0.206043
-0.1969
-0.188334
-0.180641
-0.450613
-0.436431
-0.42354
-0.408925
-0.391516
-0.372039
-0.351512
-0.33088
-0.310883
-0.292002
-0.27448
-0.258388
-0.243691
-0.230296
-0.218085
-0.206937
-0.196738
-0.187349
-0.17856
-0.170742
-0.456806
-0.442277
-0.428537
-0.412387
-0.39297
-0.371351
-0.348818
-0.326464
-0.305068
-0.285085
-0.266709
-0.249955
-0.234743
-0.220944
-0.208412
-0.197008
-0.186606
-0.177045
-0.168105
-0.160235
-0.460841
-0.446065
-0.431428
-0.413639
-0.392155
-0.368418
-0.343981
-0.320053
-0.297425
-0.276507
-0.25743
-0.240153
-0.224549
-0.210455
-0.197702
-0.186134
-0.175612
-0.165957
-0.156941
-0.149095
-0.462362
-0.447438
-0.431864
-0.412367
-0.388812
-0.363043
-0.336855
-0.311541
-0.287874
-0.266203
-0.246587
-0.228931
-0.213063
-0.198788
-0.185917
-0.174281
-0.163729
-0.15406
-0.145045
-0.1373
-0.461035
-0.446058
-0.429525
-0.408293
-0.382723
-0.355066
-0.327327
-0.300846
-0.276352
-0.254117
-0.234134
-0.216248
-0.200247
-0.185911
-0.173031
-0.161426
-0.150933
-0.141336
-0.132403
-0.124837
-0.456559
-0.441624
-0.424128
-0.401183
-0.373714
-0.344366
-0.315313
-0.287906
-0.262809
-0.240212
-0.220035
-0.202072
-0.186075
-0.1718
-0.159022
-0.14755
-0.137212
-0.127773
-0.119008
-0.1117
-0.448672
-0.433872
-0.415436
-0.390853
-0.361656
-0.330859
-0.300759
-0.272685
-0.247217
-0.224461
-0.204268
-0.186383
-0.170528
-0.156439
-0.143878
-0.132645
-0.12256
-0.11337
-0.104859
-0.0978874
-0.437167
-0.422592
-0.403269
-0.37717
-0.346469
-0.314501
-0.283642
-0.255168
-0.229566
-0.206855
-0.186822
-0.169172
-0.1536
-0.139824
-0.127596
-0.116711
-0.106979
-0.0981332
-0.0899678
-0.0834103
-0.421888
-0.407631
-0.387504
-0.360061
-0.328119
-0.295286
-0.263968
-0.235365
-0.209864
-0.1874
-0.167703
-0.150443
-0.135293
-0.121958
-0.110183
-0.0997565
-0.0904822
-0.0820792
-0.0743545
-0.0682917
-0.402744
-0.388896
-0.368078
-0.339507
-0.30662
-0.273244
-0.241774
-0.21331
-0.18814
-0.166119
-0.14693
-0.130212
-0.115622
-0.102855
-0.0916514
-0.081797
-0.0730875
-0.0652318
-0.0580504
-0.05257
-0.379705
-0.366358
-0.344993
-0.315542
-0.282033
-0.248445
-0.217124
-0.189061
-0.164442
-0.143054
-0.124536
-0.108506
-0.0946091
-0.0825351
-0.0720212
-0.0628513
-0.0548158
-0.047617
-0.0410905
-0.0362873
-0.352807
-0.340056
-0.318312
-0.288259
-0.25446
-0.220992
-0.190114
-0.1627
-0.138841
-0.118262
-0.100569
-0.0853648
-0.0722872
-0.0610246
-0.0513141
-0.0429392
-0.0356869
-0.0292594
-0.0235063
-0.0194676
-0.322152
-0.31009
-0.288156
-0.257797
-0.224049
-0.191023
-0.160867
-0.134335
-0.111428
-0.0918202
-0.0750926
-0.0608378
-0.0486944
-0.0383524
-0.029552
-0.0220785
-0.0157195
-0.010183
-0.00532152
-0.00210375
-0.2879
-0.276622
-0.254703
-0.224345
-0.190984
-0.158709
-0.129537
-0.1041
-0.0823192
-0.0638256
-0.0481849
-0.0349872
-0.0238756
-0.0145478
-0.00675163
-0.000278396
0.00507782
0.00959942
0.0134546
0.0158051
-0.250275
-0.239873
-0.218185
-0.188137
-0.155487
-0.124254
-0.096305
-0.0721555
-0.0516532
-0.0343976
-0.0199454
-0.00789075
0.002113
0.0103549
0.0170727
0.022463
0.0267195
0.0301083
0.0328194
0.0341382
-0.20955
-0.200116
-0.178879
-0.149445
-0.117816
-0.0878917
-0.0613825
-0.0386886
-0.0195958
-0.00367937
0.00950579
0.0203556
0.0292004
0.0363084
0.0418947
0.0461402
0.0492226
0.0513534
0.0526604
0.0525125
-0.16605
-0.157668
-0.137102
-0.108577
-0.0782566
-0.0498858
-0.0250078
-0.00391509
0.0136605
0.0281613
0.0400292
0.0496456
0.0573181
0.0632827
0.0677211
0.0707929
0.0726358
0.0732907
0.0726606
0.0704841
-0.120137
-0.11289
-0.0932075
-0.0658695
-0.037124
-0.0105255
0.0125524
0.0319189
0.0478898
0.0609217
0.0714535
0.0798541
0.0864088
0.0913201
0.0947329
0.0967752
0.0974729
0.0964783
0.0933417
0.0890635
-0.0722125
-0.0661728
-0.0475775
-0.021685
0.00524616
0.0298775
0.0510063
0.0685364
0.0828256
0.094344
0.103532
0.110758
0.116304
0.120372
0.123118
0.124689
0.124988
0.123183
0.118582
0.113924
-0.0227022
-0.0179339
-0.000614095
0.0235985
0.0485026
0.0709964
0.090045
0.105639
0.11817
0.12812
0.13593
0.141972
0.146544
0.149885
0.152235
0.153866
0.154755
0.153938
0.151151
0.154555
0.027956
0.031396
0.0472686
0.0695932
0.092286
0.112497
0.129353
0.142922
0.153623
0.161939
0.168307
0.173093
0.176595
0.179062
0.180753
0.181925
0.182571
0.182224
0.181763
0.187302
0.0793049
0.0813715
0.0956468
0.115906
0.136235
0.154045
0.168619
0.18009
0.188897
0.19552
0.200388
0.203858
0.206221
0.207727
0.20862
0.209121
0.209213
0.208608
0.208196
0.212645
0.130884
0.131544
0.144096
0.162145
0.179992
0.195313
0.207537
0.216854
0.223716
0.228594
0.231902
0.233982
0.235111
0.235527
0.235457
0.235096
0.23444
0.233271
0.232321
0.2353
0.182233
0.181467
0.192197
0.207926
0.223206
0.235981
0.245814
0.252946
0.257832
0.260931
0.262639
0.263277
0.263106
0.262344
0.261195
0.259822
0.258212
0.25617
0.254373
0.255979
0.232898
0.2307
0.239538
0.252872
0.265538
0.275742
0.283172
0.288111
0.291012
0.292319
0.292405
0.291574
0.290065
0.288077
0.285789
0.283342
0.280705
0.277705
0.274985
0.275274
0.282436
0.278814
0.285719
0.296623
0.306663
0.314302
0.319346
0.322109
0.32304
0.322564
0.321034
0.31873
0.315873
0.31264
0.309191
0.305642
0.301952
0.297976
0.294328
0.293373
0.330419
0.325395
0.330355
0.338829
0.346268
0.351383
0.354085
0.354715
0.353715
0.35149
0.348371
0.344616
0.340426
0.335961
0.331362
0.326723
0.322
0.317072
0.312521
0.310381
0.376436
0.370048
0.373081
0.37916
0.384057
0.386718
0.387151
0.385716
0.382847
0.378928
0.374268
0.369105
0.363621
0.35796
0.352243
0.346549
0.340833
0.334997
0.329581
0.326318
0.420096
0.412397
0.413549
0.417304
0.419752
0.420059
0.418319
0.414911
0.410256
0.404719
0.398586
0.392077
0.385356
0.378551
0.371768
0.365071
0.358417
0.351729
0.345492
0.341169
0.461033
0.452088
0.451436
0.45297
0.45309
0.45117
0.44738
0.442112
0.435773
0.428711
0.42119
0.413412
0.405526
0.397645
0.38986
0.382225
0.374698
0.367219
0.360213
0.354895
0.498905
0.488797
0.486439
0.485885
0.483829
0.479833
0.474137
0.46714
0.459239
0.45076
0.441951
0.432997
0.424031
0.415152
0.406441
0.397939
0.38961
0.381408
0.37369
0.367448
0.533401
0.522221
0.518284
0.515801
0.511746
0.505849
0.49841
0.489834
0.480505
0.470733
0.460749
0.450721
0.44077
0.430983
0.421429
0.41214
0.403087
0.39423
0.385862
0.378775
0.564236
0.55209
0.54672
0.542495
0.536639
0.529036
0.520034
0.510043
0.499436
0.488507
0.47747
0.466482
0.45565
0.445052
0.434745
0.424756
0.415059
0.405621
0.396671
0.388823
0.591158
0.578163
0.571527
0.565767
0.55833
0.549231
0.538861
0.527633
0.515909
0.503968
0.492013
0.480186
0.468586
0.45728
0.446317
0.435718
0.425462
0.41552
0.406059
0.397544
0.613948
0.60023
0.592511
0.585442
0.576662
0.566294
0.554764
0.542488
0.529818
0.51702
0.504287
0.49175
0.4795
0.467596
0.456078
0.444964
0.434237
0.42387
0.413975
0.404892
0.632423
0.618115
0.609513
0.601377
0.591503
0.580104
0.567634
0.554507
0.54107
0.527578
0.514214
0.501102
0.488325
0.475937
0.46397
0.452439
0.441332
0.430623
0.420374
0.410828
0.646432
0.631676
0.6224
0.613451
0.602747
0.590566
0.577382
0.563611
0.549591
0.535574
0.521732
0.508184
0.495008
0.482253
0.469946
0.4581
0.446706
0.435737
0.425219
0.415321
0.655863
0.640805
0.631074
0.621577
0.610313
0.597605
0.583941
0.569737
0.555326
0.540955
0.526791
0.512951
0.499507
0.486504
0.47397
0.461912
0.450325
0.439181
0.428483
0.418347
0.660641
0.645431
0.635469
0.625695
0.614147
0.601174
0.587267
0.572844
0.558236
0.543686
0.52936
0.515372
0.501793
0.488666
0.476016
0.463852
0.452168
0.440936
0.430146
0.41989
0.660727
0.645517
0.635552
0.625774
0.614223
0.601247
0.587337
0.572911
0.558302
0.54375
0.529423
0.515433
0.501852
0.488724
0.476073
0.463908
0.452223
0.44099
0.4302
0.419942
0.656123
0.641063
0.631323
0.621815
0.610541
0.597824
0.584152
0.56994
0.555523
0.541146
0.526978
0.513133
0.499685
0.486679
0.474141
0.46208
0.45049
0.439344
0.428644
0.418503
0.646867
0.632106
0.622815
0.613849
0.603127
0.59093
0.577733
0.56395
0.54992
0.535893
0.522043
0.508488
0.495306
0.482544
0.470232
0.458381
0.446982
0.436008
0.425487
0.415582
0.633033
0.618718
0.610096
0.601935
0.592036
0.580616
0.568126
0.554983
0.541531
0.528026
0.514651
0.501528
0.488742
0.476345
0.46437
0.452832
0.441719
0.431003
0.420749
0.411193
0.614735
0.601007
0.593263
0.586162
0.577349
0.566953
0.555399
0.543101
0.530411
0.517597
0.504849
0.492299
0.480036
0.468121
0.456593
0.445469
0.434734
0.42436
0.414457
0.405361
0.592123
0.579116
0.572449
0.566649
0.559173
0.55004
0.539639
0.528384
0.516637
0.504675
0.492702
0.480858
0.469243
0.457924
0.446947
0.436337
0.42607
0.41612
0.406649
0.398118
0.565382
0.553222
0.547814
0.543542
0.53764
0.529995
0.520956
0.510933
0.500298
0.489344
0.478286
0.467278
0.456428
0.445814
0.435492
0.425488
0.415779
0.40633
0.397369
0.389503
0.53473
0.523534
0.519552
0.517015
0.512905
0.50696
0.499479
0.490865
0.481504
0.471703
0.461693
0.451642
0.44167
0.431864
0.422292
0.412987
0.403919
0.395049
0.386669
0.37956
0.50042
0.490293
0.487885
0.487267
0.485149
0.481098
0.475354
0.468314
0.460375
0.451863
0.443025
0.434044
0.425054
0.416153
0.407421
0.398901
0.390555
0.382338
0.374605
0.368339
0.462736
0.453771
0.453061
0.454524
0.454574
0.452591
0.448746
0.443429
0.437049
0.429948
0.422395
0.414587
0.406673
0.398767
0.390959
0.383302
0.375756
0.368261
0.361239
0.355892
0.421991
0.414268
0.415357
0.419033
0.421402
0.421638
0.419837
0.416375
0.411673
0.406093
0.399923
0.39338
0.386628
0.379795
0.372986
0.366266
0.359589
0.352883
0.346628
0.342274
0.378525
0.372112
0.375075
0.381066
0.385876
0.388459
0.388823
0.387328
0.384406
0.380441
0.375739
0.370539
0.365021
0.359328
0.353582
0.347862
0.342121
0.336264
0.330828
0.327532
0.332707
0.327655
0.332538
0.340915
0.348258
0.353287
0.355913
0.356477
0.355419
0.353143
0.349978
0.346181
0.341954
0.337455
0.332824
0.328155
0.323404
0.318453
0.31388
0.311704
0.284925
0.281273
0.288094
0.298892
0.308828
0.316372
0.321333
0.324023
0.324891
0.324359
0.322779
0.32043
0.317531
0.31426
0.310777
0.307195
0.303475
0.299473
0.295801
0.294806
0.235591
0.23336
0.242109
0.255328
0.26788
0.27798
0.285321
0.29018
0.293012
0.294258
0.29429
0.293409
0.291855
0.289826
0.287501
0.285018
0.282348
0.279319
0.276573
0.276819
0.185134
0.184333
0.194966
0.21057
0.225727
0.23839
0.248126
0.255173
0.259984
0.263017
0.264665
0.26525
0.265031
0.264226
0.263035
0.261624
0.259978
0.257905
0.256079
0.257639
0.133995
0.134618
0.147066
0.164981
0.182695
0.197896
0.210015
0.21924
0.226022
0.230829
0.234073
0.236096
0.237173
0.237542
0.237429
0.237026
0.236333
0.23513
0.234149
0.237078
0.0826282
0.0846551
0.0988202
0.118936
0.139123
0.156805
0.171265
0.182637
0.191358
0.197905
0.202706
0.206115
0.208423
0.209879
0.210727
0.211184
0.211236
0.210597
0.210154
0.214547
0.0314931
0.0348913
0.0506473
0.0728203
0.0953612
0.115434
0.13217
0.145633
0.156241
0.164476
0.170772
0.175495
0.178939
0.181355
0.182998
0.184126
0.18473
0.184349
0.183857
0.189336
-0.0189505
-0.014226
0.00297142
0.0270235
0.0517661
0.0741129
0.0930325
0.108514
0.120947
0.130811
0.138545
0.14452
0.149032
0.152319
0.15462
0.156206
0.157053
0.156204
0.153397
0.156752
-0.0682462
-0.062252
-0.0437846
-0.0180612
0.00869898
0.0331742
0.0541659
0.0715767
0.085762
0.0971896
0.106298
0.113453
0.118937
0.122949
0.125647
0.127175
0.127437
0.125605
0.12099
0.116328
-0.115957
-0.108757
-0.0892074
-0.0620467
-0.0334815
-0.00704834
0.0158843
0.0351245
0.0509855
0.0639215
0.0743692
0.0826957
0.0891854
0.0940398
0.0974032
0.099403
0.100065
0.099042
0.0958892
0.0916085
-0.161658
-0.153325
-0.132896
-0.104555
-0.074425
-0.0462285
-0.0215041
-0.000544883
0.0169147
0.0313142
0.0430935
0.0526321
0.0602361
0.0661407
0.0705269
0.0735533
0.0753569
0.075978
0.0753221
0.0731351
-0.20495
-0.195565
-0.174469
-0.145227
-0.113796
-0.0840554
-0.0577082
-0.0351551
-0.0161846
-0.000375014
0.0127166
0.0234841
0.0322564
0.0393005
0.0448305
0.0490266
0.0520652
0.0541566
0.0554295
0.0552617
-0.245471
-0.23512
-0.213575
-0.183725
-0.151282
-0.12024
-0.092462
-0.0684607
-0.0480873
-0.0309442
-0.0165907
-0.00462305
0.00530378
0.0134775
0.0201348
0.0254713
0.0296798
0.0330244
0.0356956
0.0369875
-0.282899
-0.271672
-0.249898
-0.219743
-0.186596
-0.154521
-0.125528
-0.100247
-0.0786011
-0.0602259
-0.0446892
-0.0315833
-0.0205532
-0.0112979
-0.00356643
0.00284888
0.00815278
0.0126259
0.0164369
0.0187556
-0.316961
-0.30495
-0.283161
-0.253009
-0.219482
-0.186665
-0.156695
-0.130326
-0.107561
-0.0880774
-0.071459
-0.0573009
-0.0452434
-0.0349782
-0.0262468
-0.0188352
-0.0125325
-0.00704845
-0.00223506
0.000947137
-0.347436
-0.334735
-0.313136
-0.283292
-0.24972
-0.216468
-0.185783
-0.15854
-0.134829
-0.114379
-0.0968015
-0.0816982
-0.0687109
-0.0575293
-0.0478917
-0.0395825
-0.0323903
-0.0260187
-0.0203173
-0.0163179
-0.374164
-0.360868
-0.339645
-0.310404
-0.277125
-0.24376
-0.212639
-0.184753
-0.160288
-0.139036
-0.120638
-0.104713
-0.0909109
-0.0789218
-0.0684844
-0.0593838
-0.0514116
-0.044272
-0.0378004
-0.0330401
-0.397045
-0.383247
-0.362569
-0.334206
-0.301553
-0.268404
-0.23714
-0.20886
-0.183849
-0.16197
-0.142905
-0.126297
-0.111805
-0.0991265
-0.0880029
-0.078221
-0.0695779
-0.0617841
-0.0546604
-0.0492261
-0.416046
-0.401839
-0.381847
-0.354609
-0.3229
-0.290298
-0.259192
-0.230778
-0.205442
-0.183123
-0.163555
-0.146409
-0.131361
-0.118117
-0.106425
-0.0960744
-0.0868691
-0.0785304
-0.0708658
-0.0648521
-0.431197
-0.416672
-0.397478
-0.371578
-0.341109
-0.309374
-0.278731
-0.25045
-0.225018
-0.202456
-0.182556
-0.165023
-0.149556
-0.135874
-0.123732
-0.112925
-0.103265
-0.0944851
-0.0863817
-0.0798757
-0.442591
-0.42784
-0.409527
-0.385135
-0.356166
-0.325602
-0.29572
-0.267842
-0.242549
-0.219946
-0.199888
-0.182123
-0.166377
-0.152385
-0.139911
-0.128758
-0.118746
-0.109624
-0.101177
-0.0942591
-0.450384
-0.435499
-0.418117
-0.395354
-0.368107
-0.338989
-0.310155
-0.282947
-0.258026
-0.235586
-0.215547
-0.197707
-0.18182
-0.167644
-0.154955
-0.143565
-0.133302
-0.123932
-0.115231
-0.107979
-0.454786
-0.439859
-0.423432
-0.40237
-0.377012
-0.349581
-0.322059
-0.295777
-0.271462
-0.249386
-0.229543
-0.211782
-0.195893
-0.181657
-0.168868
-0.157345
-0.146928
-0.137401
-0.128534
-0.121026
-0.456058
-0.441183
-0.425707
-0.406367
-0.383013
-0.357461
-0.331487
-0.306372
-0.282885
-0.261373
-0.241899
-0.224369
-0.208613
-0.19444
-0.181661
-0.170108
-0.159632
-0.150034
-0.141085
-0.133399
-0.454501
-0.439776
-0.425227
-0.407581
-0.386284
-0.362754
-0.338525
-0.314793
-0.292343
-0.271585
-0.25265
-0.2355
-0.220009
-0.206017
-0.193356
-0.181872
-0.171427
-0.161843
-0.152892
-0.145105
-0.450449
-0.435972
-0.422312
-0.40629
-0.387044
-0.36562
-0.343286
-0.321122
-0.299902
-0.280079
-0.261844
-0.245217
-0.230118
-0.21642
-0.20398
-0.19266
-0.182335
-0.172844
-0.16397
-0.156159
-0.444259
-0.43013
-0.417311
-0.402809
-0.385553
-0.366255
-0.345916
-0.325468
-0.305643
-0.286918
-0.269536
-0.253569
-0.238984
-0.225691
-0.213571
-0.202506
-0.192384
-0.183065
-0.174341
-0.166582
-0.436296
-0.422614
-0.410588
-0.397477
-0.382101
-0.364891
-0.346589
-0.327958
-0.309664
-0.292183
-0.275793
-0.260615
-0.24666
-0.233874
-0.22217
-0.211447
-0.201608
-0.192535
-0.184033
-0.176398
-0.426927
-0.413788
-0.402508
-0.390648
-0.377002
-0.361786
-0.345504
-0.328745
-0.312079
-0.29596
-0.280686
-0.266415
-0.253199
-0.24102
-0.229821
-0.219522
-0.210045
-0.201288
-0.193076
-0.185639
-0.416509
-0.404002
-0.393431
-0.382677
-0.370587
-0.357224
-0.342889
-0.328
-0.313018
-0.298351
-0.284296
-0.271036
-0.258659
-0.24718
-0.23657
-0.226776
-0.217733
-0.209361
-0.201504
-0.194334
-0.405378
-0.393584
-0.383691
-0.373908
-0.363187
-0.351499
-0.338989
-0.325917
-0.312628
-0.299466
-0.286708
-0.274548
-0.263098
-0.252404
-0.242465
-0.233249
-0.224711
-0.216789
-0.20935
-0.202516
-0.39384
-0.38283
-0.373594
-0.364661
-0.355124
-0.344913
-0.334063
-0.322706
-0.311072
-0.299428
-0.288015
-0.277022
-0.266575
-0.256742
-0.247547
-0.23898
-0.231014
-0.223605
-0.216643
-0.21021
-0.382169
-0.371997
-0.363408
-0.355224
-0.346697
-0.337759
-0.328379
-0.318592
-0.308527
-0.298371
-0.288317
-0.278534
-0.269148
-0.260242
-0.251856
-0.244003
-0.236672
-0.229836
-0.223407
-0.217436
-0.370601
-0.361305
-0.353357
-0.345842
-0.338173
-0.330311
-0.322199
-0.313807
-0.305185
-0.296445
-0.287726
-0.279164
-0.270875
-0.262945
-0.255427
-0.248346
-0.241708
-0.235502
-0.22966
-0.224206
-0.359331
-0.350931
-0.343621
-0.336716
-0.32978
-0.322816
-0.315771
-0.308582
-0.301246
-0.293811
-0.286362
-0.279
-0.271818
-0.264895
-0.258288
-0.252031
-0.24614
-0.240616
-0.235409
-0.230523
-0.348515
-0.341012
-0.334339
-0.328002
-0.3217
-0.315483
-0.309318
-0.30314
-0.296912
-0.290639
-0.284362
-0.278141
-0.272044
-0.266136
-0.260467
-0.255073
-0.249975
-0.245183
-0.24066
-0.236383
-0.338268
-0.331649
-0.325607
-0.319808
-0.314067
-0.308475
-0.303031
-0.29768
-0.292379
-0.287107
-0.281871
-0.276699
-0.271633
-0.266717
-0.261992
-0.257487
-0.253221
-0.249205
-0.245413
-0.241781
-0.328672
-0.322905
-0.317484
-0.312203
-0.306972
-0.301915
-0.29706
-0.292378
-0.28783
-0.283388
-0.279042
-0.274797
-0.270674
-0.266699
-0.262897
-0.259288
-0.255881
-0.252683
-0.249672
-0.246722
-0.319777
-0.314818
-0.310002
-0.305224
-0.300467
-0.295878
-0.291513
-0.287368
-0.283419
-0.279644
-0.276028
-0.272569
-0.269273
-0.266154
-0.263226
-0.260496
-0.257964
-0.255622
-0.25345
-0.251234
-0.311605
-0.307398
-0.303164
-0.298874
-0.294568
-0.290404
-0.286458
-0.282749
-0.279272
-0.276018
-0.272977
-0.27015
-0.267543
-0.265168
-0.263033
-0.261141
-0.259483
-0.258032
-0.256771
-0.255377
-0.304155
-0.300639
-0.296957
-0.29314
-0.289267
-0.285499
-0.281925
-0.278581
-0.275478
-0.272621
-0.270016
-0.267671
-0.265604
-0.263836
-0.262384
-0.261258
-0.260448
-0.259921
-0.259657
-0.259246
-0.297406
-0.294514
-0.291351
-0.287989
-0.284534
-0.281145
-0.277913
-0.274885
-0.272087
-0.269535
-0.267246
-0.265247
-0.26357
-0.262257
-0.261349
-0.26088
-0.260863
-0.261274
-0.262103
-0.262933
-0.291322
-0.288987
-0.286306
-0.283378
-0.280327
-0.277302
-0.274395
-0.271656
-0.269117
-0.266803
-0.264742
-0.26297
-0.261542
-0.260525
-0.259997
-0.260035
-0.260705
-0.26203
-0.264029
-0.266481
-0.285857
-0.284013
-0.281773
-0.279257
-0.276593
-0.273921
-0.271327
-0.268861
-0.266556
-0.264438
-0.26254
-0.260906
-0.259604
-0.258726
-0.258391
-0.25874
-0.259919
-0.262053
-0.265234
-0.269758
-0.280954
-0.279541
-0.277703
-0.275569
-0.273275
-0.270942
-0.268652
-0.266449
-0.264365
-0.262421
-0.260648
-0.259088
-0.257813
-0.256931
-0.256593
-0.257006
-0.258424
-0.261122
-0.265378
-0.272449
-0.276555
-0.275517
-0.274041
-0.272261
-0.270312
-0.268303
-0.266305
-0.264359
-0.262489
-0.26071
-0.259043
-0.257522
-0.256207
-0.255201
-0.25467
-0.25486
-0.25613
-0.25893
-0.263906
-0.273756
-0.272602
-0.271892
-0.270737
-0.26928
-0.267649
-0.265942
-0.264222
-0.262522
-0.26086
-0.259244
-0.257679
-0.256184
-0.254796
-0.253591
-0.252709
-0.252395
-0.253045
-0.255245
-0.260273
-0.272919
-0.26904
-0.268615
-0.267746
-0.266576
-0.265233
-0.263804
-0.26234
-0.260871
-0.259408
-0.25795
-0.25649
-0.255025
-0.253559
-0.252122
-0.250785
-0.249705
-0.249171
-0.249648
-0.252815
-0.265719
-0.265823
-0.265646
-0.265026
-0.26411
-0.263024
-0.26184
-0.260607
-0.259348
-0.258069
-0.256761
-0.255408
-0.253983
-0.252457
-0.250793
-0.248943
-0.246847
-0.244399
-0.241141
-0.235851
-0.229721
-0.26291
-0.26295
-0.262547
-0.261851
-0.260987
-0.260019
-0.258988
-0.257914
-0.2568
-0.255633
-0.254391
-0.25304
-0.251534
-0.249814
-0.247801
-0.245401
-0.2425
-0.238752
-0.233289
-0.227734
-0.260272
-0.260499
-0.260282
-0.259775
-0.259102
-0.258319
-0.257461
-0.256547
-0.255577
-0.254539
-0.253411
-0.252158
-0.250739
-0.249101
-0.247182
-0.244925
-0.242282
-0.239048
-0.234764
-0.231215
-0.257886
-0.258273
-0.258214
-0.257868
-0.257357
-0.25673
-0.25602
-0.255241
-0.254396
-0.253473
-0.252452
-0.251305
-0.249996
-0.248486
-0.246731
-0.244703
-0.242385
-0.239628
-0.236192
-0.233855
-0.255734
-0.256258
-0.256331
-0.25612
-0.255746
-0.255253
-0.254667
-0.254005
-0.253269
-0.252449
-0.25153
-0.250489
-0.249302
-0.247939
-0.246376
-0.244607
-0.242637
-0.240365
-0.237669
-0.236149
-0.253806
-0.254441
-0.254625
-0.254528
-0.25427
-0.25389
-0.253413
-0.252854
-0.252215
-0.251493
-0.250674
-0.249743
-0.248685
-0.247482
-0.246126
-0.244626
-0.243006
-0.241194
-0.23913
-0.238183
-0.25209
-0.252814
-0.253089
-0.253088
-0.25293
-0.252648
-0.252267
-0.251801
-0.251256
-0.250627
-0.24991
-0.249094
-0.248171
-0.247134
-0.245986
-0.244746
-0.243445
-0.242029
-0.240462
-0.239902
-0.250578
-0.25137
-0.251719
-0.251799
-0.251726
-0.251532
-0.251238
-0.25086
-0.250403
-0.249869
-0.249255
-0.248556
-0.247771
-0.246899
-0.24595
-0.244949
-0.243925
-0.242833
-0.241641
-0.241339
-0.249258
-0.2501
-0.250509
-0.250657
-0.250659
-0.250542
-0.250329
-0.250033
-0.249664
-0.249223
-0.248712
-0.248131
-0.247481
-0.246768
-0.246003
-0.245211
-0.24442
-0.243586
-0.242673
-0.242544
-0.24812
-0.248997
-0.249453
-0.249659
-0.249726
-0.24968
-0.24954
-0.249323
-0.249038
-0.248688
-0.248278
-0.24781
-0.247288
-0.246721
-0.246119
-0.245507
-0.244908
-0.244276
-0.243571
-0.243562
-0.247153
-0.248053
-0.248545
-0.248799
-0.248923
-0.24894
-0.248869
-0.248725
-0.248519
-0.248256
-0.247941
-0.247579
-0.247175
-0.246738
-0.246278
-0.245817
-0.245373
-0.244899
-0.244352
-0.244429
-0.246345
-0.247258
-0.247779
-0.248073
-0.248245
-0.248318
-0.248309
-0.248233
-0.248101