/*--------------------------------*- C++ -*----------------------------------*\
  =========                 |
  \\      /  F ield         | OpenFOAM: The Open Source CFD Toolbox
   \\    /   O peration     | Website:  https://openfoam.org
    \\  /    A nd           | Version:  6.0
     \\/     M anipulation  |
\*---------------------------------------------------------------------------*/
FoamFile
{
    version     2.0;
    format      ascii;
    class       volScalarField;
    location    "120";
    object      p;
}
// * * * * * * * * * * * * * * * * * * * * * * * * * * * * * * * * * * * * * //

dimensions      [0 2 -2 0 0 0 0];

internalField   nonuniform List<scalar> 
12500
(
-0.496536
-0.496766
-0.496828
-0.496825
-0.496953
-0.497356
-0.498114
-0.499255
-0.500767
-0.502614
-0.504745
-0.507108
-0.50965
-0.512323
-0.515082
-0.517888
-0.520708
-0.523512
-0.526277
-0.528982
-0.531592
-0.534097
-0.536704
-0.539608
-0.540693
-0.505828
-0.50571
-0.505595
-0.505521
-0.505645
-0.506108
-0.506991
-0.508318
-0.510075
-0.512221
-0.514701
-0.517457
-0.520431
-0.523567
-0.526812
-0.530121
-0.533449
-0.536761
-0.540025
-0.543214
-0.546285
-0.549224
-0.552236
-0.555538
-0.556995
-0.514756
-0.51428
-0.513979
-0.513822
-0.513929
-0.51444
-0.515432
-0.516928
-0.518909
-0.521331
-0.524135
-0.527258
-0.530634
-0.5342
-0.537896
-0.541668
-0.545463
-0.549235
-0.552945
-0.556556
-0.560022
-0.56332
-0.566651
-0.570251
-0.572008
-0.52325
-0.522412
-0.521914
-0.521663
-0.521738
-0.522277
-0.523355
-0.524993
-0.52717
-0.529837
-0.532932
-0.536386
-0.540126
-0.544082
-0.548187
-0.552376
-0.556588
-0.560767
-0.564865
-0.568837
-0.572629
-0.576211
-0.579769
-0.583562
-0.585547
-0.531249
-0.530049
-0.529349
-0.528988
-0.529012
-0.529554
-0.530689
-0.532436
-0.53477
-0.537643
-0.540986
-0.544725
-0.548783
-0.553081
-0.557544
-0.562098
-0.566672
-0.571202
-0.575627
-0.579894
-0.583943
-0.587734
-0.591435
-0.595319
-0.597461
-0.5387
-0.537148
-0.53624
-0.535756
-0.535706
-0.536221
-0.537377
-0.53919
-0.541637
-0.544665
-0.548204
-0.552175
-0.556495
-0.561077
-0.565839
-0.570698
-0.575574
-0.580392
-0.585081
-0.589579
-0.593818
-0.597747
-0.601512
-0.605393
-0.607627
-0.54556
-0.543675
-0.542558
-0.541938
-0.541789
-0.542243
-0.543377
-0.545209
-0.547714
-0.550839
-0.554514
-0.558653
-0.563169
-0.56797
-0.572964
-0.578061
-0.583172
-0.588212
-0.593101
-0.597765
-0.602128
-0.60613
-0.609888
-0.613684
-0.615952
-0.551804
-0.549613
-0.548292
-0.547521
-0.547248
-0.547605
-0.548671
-0.550465
-0.552968
-0.556126
-0.559866
-0.564102
-0.568742
-0.573687
-0.57884
-0.584102
-0.589376
-0.594568
-0.599588
-0.604352
-0.608777
-0.612791
-0.61648
-0.620117
-0.622369
-0.557419
-0.554958
-0.553441
-0.552509
-0.552087
-0.552309
-0.553258
-0.554958
-0.557392
-0.560511
-0.564242
-0.568498
-0.573182
-0.578192
-0.583425
-0.588774
-0.594135
-0.599406
-0.604487
-0.609284
-0.613707
-0.617674
-0.621237
-0.624649
-0.626839
-0.562408
-0.559723
-0.558023
-0.556923
-0.55633
-0.55638
-0.557162
-0.558708
-0.561007
-0.564014
-0.567659
-0.571854
-0.5765
-0.581493
-0.586723
-0.592079
-0.597448
-0.602722
-0.607791
-0.612553
-0.61691
-0.620771
-0.624152
-0.627276
-0.629352
-0.566791
-0.563934
-0.562071
-0.5608
-0.560015
-0.55986
-0.560429
-0.561764
-0.563861
-0.566684
-0.570165
-0.57422
-0.578748
-0.583642
-0.588788
-0.59407
-0.59937
-0.60457
-0.609554
-0.614212
-0.618436
-0.622126
-0.625266
-0.628035
-0.629934
-0.570604
-0.567632
-0.56563
-0.564188
-0.563199
-0.562809
-0.563124
-0.564195
-0.566031
-0.568602
-0.571849
-0.575688
-0.580021
-0.584739
-0.589724
-0.594856
-0.600011
-0.605064
-0.609892
-0.614374
-0.618395
-0.621845
-0.624674
-0.627006
-0.628645
-0.573898
-0.570871
-0.568757
-0.567151
-0.565948
-0.565303
-0.56533
-0.566094
-0.567616
-0.569878
-0.572826
-0.576384
-0.580454
-0.584927
-0.589682
-0.594596
-0.599537
-0.604375
-0.608976
-0.613211
-0.616953
-0.620085
-0.622521
-0.624316
-0.62558
-0.576738
-0.573717
-0.571521
-0.56976
-0.568341
-0.567425
-0.567141
-0.567565
-0.568733
-0.570639
-0.573239
-0.576461
-0.580213
-0.584384
-0.588852
-0.593487
-0.598154
-0.602713
-0.607021
-0.610936
-0.61432
-0.617045
-0.618992
-0.620128
-0.620865
-0.579202
-0.576245
-0.573995
-0.572092
-0.57046
-0.569269
-0.56866
-0.568724
-0.569512
-0.57103
-0.573246
-0.576094
-0.579485
-0.58331
-0.587444
-0.591753
-0.596094
-0.600317
-0.604267
-0.607789
-0.610731
-0.612951
-0.614297
-0.614633
-0.614655
-0.581381
-0.578538
-0.576261
-0.574231
-0.572395
-0.570932
-0.569995
-0.569692
-0.570088
-0.571202
-0.573013
-0.575464
-0.578468
-0.581916
-0.585682
-0.589625
-0.593593
-0.597426
-0.600956
-0.60401
-0.60642
-0.60803
-0.608655
-0.608045
-0.607137
-0.583372
-0.580685
-0.578405
-0.576263
-0.574234
-0.572509
-0.571253
-0.570588
-0.570595
-0.571305
-0.572707
-0.57475
-0.577353
-0.580406
-0.583779
-0.587324
-0.590878
-0.594268
-0.597313
-0.599821
-0.601605
-0.602495
-0.602277
-0.600585
-0.59853
-0.585283
-0.58278
-0.580515
-0.578274
-0.576069
-0.574098
-0.572539
-0.571529
-0.571161
-0.571479
-0.572481
-0.574121
-0.57632
-0.578968
-0.581928
-0.585043
-0.588142
-0.591034
-0.593523
-0.595402
-0.596465
-0.596525
-0.595354
-0.592477
-0.589089
-0.587226
-0.584919
-0.582679
-0.580353
-0.577986
-0.57579
-0.573953
-0.572625
-0.571908
-0.571856
-0.572475
-0.573724
-0.575523
-0.577758
-0.580286
-0.582941
-0.585536
-0.587868
-0.589726
-0.590886
-0.591131
-0.590264
-0.588052
-0.583937
-0.57909
-0.589314
-0.5872
-0.584987
-0.582583
-0.580073
-0.577675
-0.575589
-0.573973
-0.572939
-0.572547
-0.572808
-0.573681
-0.575084
-0.576898
-0.578971
-0.581125
-0.583161
-0.584862
-0.586003
-0.586354
-0.585689
-0.583812
-0.580501
-0.575159
-0.568812
-0.591657
-0.589716
-0.587523
-0.585047
-0.582408
-0.579833
-0.577529
-0.57566
-0.574343
-0.573643
-0.573569
-0.57408
-0.575088
-0.576466
-0.578052
-0.579655
-0.581064
-0.582052
-0.582387
-0.581838
-0.580183
-0.577236
-0.572808
-0.566308
-0.558521
-0.594361
-0.592555
-0.590367
-0.58782
-0.585064
-0.582336
-0.579844
-0.577755
-0.576189
-0.575209
-0.57482
-0.574976
-0.575581
-0.576497
-0.577551
-0.57854
-0.579243
-0.579428
-0.578864
-0.577327
-0.574615
-0.570569
-0.565053
-0.557525
-0.548459
-0.59752
-0.595796
-0.593589
-0.590967
-0.588106
-0.585243
-0.582589
-0.580311
-0.578523
-0.577283
-0.57659
-0.576387
-0.576568
-0.576984
-0.577447
-0.577747
-0.577655
-0.576941
-0.57538
-0.572767
-0.568929
-0.563754
-0.557182
-0.548739
-0.53864
-0.601212
-0.599507
-0.597251
-0.594545
-0.591581
-0.588598
-0.585803
-0.583357
-0.581366
-0.579876
-0.578877
-0.578298
-0.578021
-0.577882
-0.577685
-0.577212
-0.576235
-0.574526
-0.571876
-0.568099
-0.56305
-0.556654
-0.548889
-0.539332
-0.528392
-0.605497
-0.603738
-0.601398
-0.598594
-0.595525
-0.59243
-0.589506
-0.586903
-0.584715
-0.582974
-0.581652
-0.580666
-0.579882
-0.579124
-0.57819
-0.576861
-0.574912
-0.572134
-0.568334
-0.563351
-0.557062
-0.549385
-0.540195
-0.529019
-0.517436
-0.610418
-0.608529
-0.606064
-0.603143
-0.599961
-0.596752
-0.593701
-0.590942
-0.58855
-0.58654
-0.584866
-0.583426
-0.582074
-0.580625
-0.578875
-0.57661
-0.573623
-0.569727
-0.564764
-0.558612
-0.551187
-0.542437
-0.532278
-0.520752
-0.509684
-0.615997
-0.613902
-0.611269
-0.608207
-0.604898
-0.601564
-0.598377
-0.595449
-0.592835
-0.590525
-0.588453
-0.586503
-0.584512
-0.582295
-0.579651
-0.57638
-0.572303
-0.567266
-0.561155
-0.553895
-0.545458
-0.535849
-0.525105
-0.513413
-0.501812
-0.622243
-0.619868
-0.617024
-0.613792
-0.610334
-0.606858
-0.603517
-0.600397
-0.597526
-0.594872
-0.592347
-0.589816
-0.587111
-0.584046
-0.580435
-0.576102
-0.570901
-0.564721
-0.557495
-0.549198
-0.539848
-0.529499
-0.51823
-0.506218
-0.494164
-0.629151
-0.626429
-0.62333
-0.619899
-0.616265
-0.612622
-0.609098
-0.605751
-0.60258
-0.599525
-0.596477
-0.593288
-0.589787
-0.585798
-0.581155
-0.575715
-0.569375
-0.562069
-0.553778
-0.544524
-0.534365
-0.523388
-0.511695
-0.499458
-0.487188
-0.636707
-0.633577
-0.630184
-0.626522
-0.622683
-0.618842
-0.615099
-0.61148
-0.607952
-0.604427
-0.600778
-0.596846
-0.592466
-0.587479
-0.581749
-0.575174
-0.567695
-0.559296
-0.550003
-0.539876
-0.529005
-0.517496
-0.505462
-0.49307
-0.480697
-0.644893
-0.641305
-0.637579
-0.633655
-0.62958
-0.625506
-0.6215
-0.617554
-0.6136
-0.609526
-0.605186
-0.600422
-0.59508
-0.589027
-0.582166
-0.574441
-0.565841
-0.556395
-0.54617
-0.535255
-0.523763
-0.511809
-0.499509
-0.487026
-0.474637
-0.65369
-0.649598
-0.645509
-0.641295
-0.63695
-0.632601
-0.628281
-0.623942
-0.619484
-0.614769
-0.609643
-0.603953
-0.597567
-0.590389
-0.582367
-0.573492
-0.563801
-0.553364
-0.542279
-0.53066
-0.518627
-0.506299
-0.493788
-0.481246
-0.468872
-0.663075
-0.658444
-0.653964
-0.649432
-0.644784
-0.640117
-0.635422
-0.630614
-0.625559
-0.620102
-0.614087
-0.607377
-0.599872
-0.591521
-0.582319
-0.572308
-0.561567
-0.550201
-0.538331
-0.526082
-0.513578
-0.500933
-0.488247
-0.475665
-0.463314
-0.673024
-0.667824
-0.662931
-0.658058
-0.653073
-0.648036
-0.642898
-0.637533
-0.631778
-0.625469
-0.618458
-0.610636
-0.601945
-0.592383
-0.581997
-0.570876
-0.559134
-0.546903
-0.534318
-0.521507
-0.508591
-0.495671
-0.482836
-0.470214
-0.457876
-0.683509
-0.677717
-0.672395
-0.667158
-0.661798
-0.656334
-0.650674
-0.644651
-0.638084
-0.630806
-0.622691
-0.613671
-0.603737
-0.592942
-0.581381
-0.569185
-0.556498
-0.543467
-0.530232
-0.516919
-0.503637
-0.490475
-0.477503
-0.464837
-0.452496
-0.694495
-0.688095
-0.682331
-0.676709
-0.670933
-0.664977
-0.658703
-0.651911
-0.644408
-0.636042
-0.62672
-0.616425
-0.605205
-0.593167
-0.580453
-0.567226
-0.553651
-0.539882
-0.526059
-0.512295
-0.498687
-0.485304
-0.472203
-0.459484
-0.44712
-0.705939
-0.69892
-0.692706
-0.686675
-0.680437
-0.673914
-0.666923
-0.659241
-0.650675
-0.6411
-0.630476
-0.618841
-0.606307
-0.59303
-0.579194
-0.564987
-0.550583
-0.536138
-0.521779
-0.507609
-0.493704
-0.480119
-0.466893
-0.454109
-0.441705
-0.717787
-0.710143
-0.703472
-0.697009
-0.690255
-0.683078
-0.675257
-0.666554
-0.656794
-0.645898
-0.633885
-0.620862
-0.607
-0.592503
-0.577587
-0.562454
-0.547281
-0.532215
-0.51737
-0.50283
-0.488655
-0.47488
-0.461531
-0.448673
-0.436216
-0.729969
-0.721702
-0.714569
-0.707646
-0.700314
-0.692385
-0.683611
-0.673752
-0.662671
-0.650348
-0.636876
-0.622432
-0.607245
-0.591559
-0.575611
-0.559609
-0.543724
-0.52809
-0.512802
-0.497925
-0.483501
-0.469548
-0.456078
-0.443137
-0.430619
-0.7424
-0.733518
-0.72592
-0.718503
-0.710521
-0.701734
-0.691874
-0.680724
-0.668199
-0.654359
-0.639375
-0.623495
-0.607
-0.590166
-0.57324
-0.556427
-0.539887
-0.523733
-0.50804
-0.492856
-0.478201
-0.464081
-0.450493
-0.437465
-0.424882
-0.754981
-0.745498
-0.737431
-0.729481
-0.720767
-0.711004
-0.699923
-0.687348
-0.67327
-0.657838
-0.641308
-0.623995
-0.606224
-0.588291
-0.570446
-0.552882
-0.535739
-0.51911
-0.503049
-0.487583
-0.472717
-0.458439
-0.444738
-0.431622
-0.418975
-0.767593
-0.75753
-0.74899
-0.74046
-0.730923
-0.720061
-0.707623
-0.693497
-0.677771
-0.660692
-0.642602
-0.623877
-0.604874
-0.5859
-0.567196
-0.548938
-0.531244
-0.514183
-0.497788
-0.482065
-0.467004
-0.452581
-0.438774
-0.425571
-0.412866
-0.780103
-0.769486
-0.760468
-0.751304
-0.740846
-0.728756
-0.714827
-0.699039
-0.681588
-0.662829
-0.643185
-0.623084
-0.602905
-0.582952
-0.563453
-0.54456
-0.526364
-0.508911
-0.492213
-0.476258
-0.46102
-0.446466
-0.432561
-0.419276
-0.406523
-0.79236
-0.781223
-0.771719
-0.76186
-0.750374
-0.736928
-0.721385
-0.703838
-0.684609
-0.664158
-0.642987
-0.621561
-0.600269
-0.579406
-0.559176
-0.539704
-0.521055
-0.50325
-0.48628
-0.470117
-0.454722
-0.440051
-0.426061
-0.412701
-0.399913
-0.8042
-0.792582
-0.782581
-0.77196
-0.759338
-0.744411
-0.727143
-0.707761
-0.686723
-0.664593
-0.641938
-0.61925
-0.596918
-0.575216
-0.554321
-0.534327
-0.515272
-0.497154
-0.479944
-0.463599
-0.448067
-0.433296
-0.419234
-0.405811
-0.393004
-0.815446
-0.80339
-0.792879
-0.781423
-0.767556
-0.751031
-0.731945
-0.710678
-0.687824
-0.664048
-0.63997
-0.616097
-0.592803
-0.570336
-0.548841
-0.528382
-0.508969
-0.490577
-0.473159
-0.456658
-0.441012
-0.426161
-0.412042
-0.39857
-0.385764
-0.82591
-0.813463
-0.802425
-0.790061
-0.774842
-0.756617
-0.73564
-0.71246
-0.68781
-0.662444
-0.63702
-0.612045
-0.587872
-0.564717
-0.54269
-0.521823
-0.502099
-0.483473
-0.465881
-0.449252
-0.433516
-0.418607
-0.40445
-0.390945
-0.378162
-0.835396
-0.822607
-0.811026
-0.797676
-0.781008
-0.760997
-0.738082
-0.712989
-0.686587
-0.659704
-0.633023
-0.607039
-0.582076
-0.558311
-0.535819
-0.514601
-0.494616
-0.475796
-0.458065
-0.441339
-0.42554
-0.410596
-0.396423
-0.382904
-0.370168
-0.843704
-0.830626
-0.81848
-0.804072
-0.785868
-0.764006
-0.73913
-0.712153
-0.684066
-0.655757
-0.627919
-0.601026
-0.575363
-0.55107
-0.528182
-0.506672
-0.486474
-0.467504
-0.44967
-0.43288
-0.417047
-0.402095
-0.387929
-0.374416
-0.361753
-0.850631
-0.837316
-0.824587
-0.809053
-0.78924
-0.765485
-0.738657
-0.709849
-0.680164
-0.650537
-0.621653
-0.593955
-0.567687
-0.542946
-0.519732
-0.49799
-0.477631
-0.458555
-0.440657
-0.423838
-0.408003
-0.393071
-0.378936
-0.365455
-0.352893
-0.855977
-0.842479
-0.829146
-0.812426
-0.790951
-0.765288
-0.736542
-0.705982
-0.674809
-0.643982
-0.614171
-0.585778
-0.559001
-0.533895
-0.510427
-0.488514
-0.468047
-0.448911
-0.430991
-0.414179
-0.398375
-0.383494
-0.369418
-0.355994
-0.343564
-0.859544
-0.845917
-0.831963
-0.814008
-0.790838
-0.763281
-0.732679
-0.700471
-0.667934
-0.636039
-0.605425
-0.57645
-0.549262
-0.523877
-0.500227
-0.478206
-0.457685
-0.438538
-0.42064
-0.403874
-0.388138
-0.37334
-0.359353
-0.346013
-0.333746
-0.861143
-0.84744
-0.832854
-0.813628
-0.788756
-0.759343
-0.726976
-0.693243
-0.659482
-0.626659
-0.595372
-0.56593
-0.538432
-0.512853
-0.489096
-0.467031
-0.446514
-0.427407
-0.409575
-0.392897
-0.377266
-0.362587
-0.348719
-0.335494
-0.323423
-0.860599
-0.846872
-0.831645
-0.81113
-0.784571
-0.753371
-0.719354
-0.684239
-0.649405
-0.615801
-0.583976
-0.554183
-0.526476
-0.500791
-0.477003
-0.454959
-0.434505
-0.41549
-0.397773
-0.381227
-0.365741
-0.351217
-0.3375
-0.324422
-0.312581
-0.857747
-0.844048
-0.828179
-0.806374
-0.77817
-0.745278
-0.709746
-0.673408
-0.637665
-0.603431
-0.571203
-0.541179
-0.513366
-0.487663
-0.46392
-0.441967
-0.421636
-0.402768
-0.385215
-0.368845
-0.353547
-0.339216
-0.325687
-0.312789
-0.301212
-0.852441
-0.838821
-0.822319
-0.799241
-0.769459
-0.734994
-0.698104
-0.660715
-0.624232
-0.589525
-0.557032
-0.526896
-0.499079
-0.473448
-0.449828
-0.428035
-0.407889
-0.389224
-0.371887
-0.355741
-0.340673
-0.326576
-0.31327
-0.300587
-0.289311
-0.844554
-0.831064
-0.813944
-0.789632
-0.758362
-0.722467
-0.684392
-0.646134
-0.609086
-0.574063
-0.541444
-0.511316
-0.483598
-0.458129
-0.434712
-0.413149
-0.393252
-0.374848
-0.357779
-0.341907
-0.327115
-0.313293
-0.300248
-0.287818
-0.276878
-0.833981
-0.820668
-0.802958
-0.77747
-0.744827
-0.707662
-0.66859
-0.629654
-0.592218
-0.557038
-0.52443
-0.494429
-0.466914
-0.441696
-0.418562
-0.397301
-0.377718
-0.359634
-0.342888
-0.32734
-0.312871
-0.299367
-0.286623
-0.274483
-0.263917
-0.820636
-0.807551
-0.789288
-0.762701
-0.728819
-0.690564
-0.650692
-0.611272
-0.573627
-0.53845
-0.505989
-0.476232
-0.449022
-0.424146
-0.401375
-0.380489
-0.361285
-0.343582
-0.327216
-0.312042
-0.297944
-0.284803
-0.272402
-0.260592
-0.250436
-0.804461
-0.791652
-0.772886
-0.745294
-0.710327
-0.671174
-0.630707
-0.591001
-0.553326
-0.518305
-0.486127
-0.45673
-0.429927
-0.405483
-0.383155
-0.362716
-0.343959
-0.326698
-0.310767
-0.296022
-0.282344
-0.269611
-0.257595
-0.246157
-0.236447
-0.785422
-0.772936
-0.753725
-0.725242
-0.68936
-0.649511
-0.608658
-0.568864
-0.531335
-0.496623
-0.464859
-0.435936
-0.409639
-0.385715
-0.36391
-0.343992
-0.325748
-0.308991
-0.293553
-0.27929
-0.266084
-0.253807
-0.24222
-0.231196
-0.22197
-0.763508
-0.751394
-0.731809
-0.702561
-0.665946
-0.625612
-0.584584
-0.544896
-0.507684
-0.473431
-0.442207
-0.413869
-0.388176
-0.364858
-0.343656
-0.324329
-0.306665
-0.290475
-0.275589
-0.261863
-0.249179
-0.237407
-0.226296
-0.215732
-0.207027
-0.738736
-0.727043
-0.707161
-0.67729
-0.640133
-0.599527
-0.558535
-0.519144
-0.482416
-0.448763
-0.418203
-0.390556
-0.36556
-0.342934
-0.322411
-0.303748
-0.28673
-0.271168
-0.256893
-0.24376
-0.231651
-0.220435
-0.209848
-0.19979
-0.191644
-0.711148
-0.699923
-0.679832
-0.649489
-0.611989
-0.571326
-0.530575
-0.491666
-0.455582
-0.422665
-0.392885
-0.366031
-0.341822
-0.319969
-0.3002
-0.28227
-0.265964
-0.251091
-0.237485
-0.225002
-0.213524
-0.202914
-0.192904
-0.183402
-0.175851
-0.68081
-0.670101
-0.649896
-0.619239
-0.581599
-0.541092
-0.500783
-0.462532
-0.427243
-0.39519
-0.366301
-0.340335
-0.316999
-0.295996
-0.277052
-0.259922
-0.24439
-0.230269
-0.21739
-0.205613
-0.19482
-0.184873
-0.175494
-0.1666
-0.159681
-0.647812
-0.637667
-0.617448
-0.586644
-0.549066
-0.508922
-0.469248
-0.431823
-0.39747
-0.366403
-0.338505
-0.313518
-0.291133
-0.271053
-0.253
-0.236732
-0.222036
-0.208724
-0.196631
-0.185617
-0.175567
-0.16634
-0.15765
-0.149422
-0.143175
-0.61227
-0.602734
-0.582606
-0.551822
-0.514507
-0.474929
-0.436073
-0.399631
-0.366346
-0.336374
-0.309563
-0.285633
-0.264273
-0.24518
-0.22808
-0.212732
-0.198927
-0.18648
-0.175228
-0.165035
-0.155787
-0.14734
-0.139405
-0.131908
-0.126383
-0.574318
-0.565436
-0.545507
-0.514912
-0.478057
-0.439239
-0.401371
-0.366059
-0.333963
-0.305185
-0.279544
-0.256746
-0.236473
-0.218424
-0.20233
-0.187953
-0.175089
-0.163558
-0.153201
-0.143884
-0.135496
-0.127894
-0.120788
-0.114104
-0.109361
-0.534113
-0.525929
-0.506308
-0.476069
-0.439865
-0.401988
-0.36527
-0.331219
-0.300422
-0.272929
-0.248532
-0.226927
-0.207795
-0.190839
-0.175793
-0.162429
-0.150547
-0.139974
-0.130558
-0.122169
-0.114701
-0.108011
-0.101818
-0.0960404
-0.0921386
-0.491831
-0.484385
-0.465181
-0.435463
-0.40009
-0.363326
-0.327905
-0.295238
-0.265836
-0.239705
-0.216616
-0.196257
-0.178309
-0.162481
-0.148516
-0.136192
-0.125321
-0.115737
-0.107297
-0.099879
-0.093382
-0.0876723
-0.0824815
-0.077711
-0.0746815
-0.447663
-0.440995
-0.422315
-0.393276
-0.358907
-0.323414
-0.289424
-0.258248
-0.230327
-0.205627
-0.183899
-0.164827
-0.148095
-0.133419
-0.120552
-0.109283
-0.0994337
-0.090851
-0.0834034
-0.0769807
-0.0714924
-0.0668189
-0.062714
-0.0590465
-0.0569422
-0.401817
-0.395962
-0.37791
-0.349702
-0.316497
-0.282421
-0.249984
-0.220395
-0.194031
-0.170818
-0.150494
-0.132739
-0.117243
-0.103731
-0.0919656
-0.0817486
-0.0729146
-0.0653255
-0.0588672
-0.0534476
-0.0489897
-0.0453925
-0.0424561
-0.04006
-0.0391475
-0.354513
-0.349503
-0.332179
-0.304945
-0.273054
-0.240528
-0.20975
-0.181833
-0.157089
-0.135412
-0.116525
-0.10011
-0.0858604
-0.0735102
-0.0628338
-0.0536458
-0.045796
-0.0391664
-0.0336698
-0.0292429
-0.0258288
-0.0233617
-0.0217809
-0.0211351
-0.0220585
-0.305982
-0.301845
-0.285344
-0.259218
-0.228776
-0.197918
-0.168896
-0.142725
-0.119656
-0.0995537
-0.0821317
-0.0670697
-0.0540681
-0.0428671
-0.0332497
-0.0250406
-0.0181027
-0.0123385
-0.00769297
-0.00414032
-0.00165343
-0.000263495
-0.000278562
-0.00215877
-0.00554687
-0.256463
-0.253224
-0.237633
-0.212738
-0.183869
-0.154785
-0.127602
-0.103239
-0.0818921
-0.0633991
-0.0474642
-0.0337675
-0.0220133
-0.0119458
-0.00335138
0.00394411
0.0100776
0.015145
0.0191966
0.0222643
0.0243947
0.0254418
0.0245356
0.0207568
0.0163324
-0.206204
-0.203881
-0.189281
-0.165728
-0.13854
-0.111322
-0.0860489
-0.063549
-0.0439643
-0.0271102
-0.0126835
-0.00036573
0.0101354
0.0190728
0.0266598
0.0330755
0.0384677
0.0429537
0.046626
0.049605
0.0520829
0.0539927
0.0541942
0.0520043
0.0562262
-0.155446
-0.154057
-0.140521
-0.118409
-0.0929997
-0.0677246
-0.0444224
-0.0238298
-0.00604102
0.00914882
0.0220472
0.0329701
0.0422052
0.050001
0.0565689
0.0620881
0.0667105
0.0705626
0.0737597
0.076454
0.0788461
0.0808935
0.081942
0.0824975
0.0894039
-0.104442
-0.103998
-0.0915911
-0.0710082
-0.0474565
-0.0241896
-0.00290565
0.0157447
0.0317112
0.0452158
0.0565681
0.0660798
0.0740326
0.0806697
0.0861985
0.0907965
0.094616
0.0977878
0.100435
0.102708
0.104775
0.10659
0.107682
0.108639
0.114897
-0.0534424
-0.0539497
-0.0427271
-0.023746
-0.00211801
0.0190906
0.0383206
0.0550037
0.0691296
0.0809338
0.0907258
0.0988113
0.105464
0.11092
0.11538
0.119015
0.121976
0.124389
0.126375
0.128076
0.129641
0.131034
0.131859
0.132582
0.137674
-0.00269441
-0.00415575
0.0058378
0.0231581
0.042812
0.0619267
0.0790801
0.0937818
0.106058
0.116153
0.124377
0.131025
0.136364
0.140619
0.143983
0.14662
0.148671
0.150257
0.151488
0.15249
0.15339
0.154144
0.154391
0.154564
0.158568
0.0475575
0.0451449
0.0538746
0.0694895
0.0871348
0.104135
0.119202
0.131919
0.142345
0.150733
0.157387
0.162595
0.166611
0.169653
0.171901
0.173512
0.174616
0.175324
0.175738
0.175967
0.176119
0.176135
0.175684
0.175196
0.178152
0.0970743
0.093718
0.10116
0.115039
0.130657
0.145537
0.158521
0.169264
0.17785
0.184541
0.189633
0.193404
0.196099
0.197922
0.199045
0.199613
0.199747
0.199548
0.199105
0.198518
0.197873
0.197102
0.195907
0.194729
0.196688
0.145623
0.141336
0.147476
0.159605
0.173192
0.185961
0.19688
0.205669
0.212438
0.217451
0.220998
0.223347
0.22473
0.225341
0.22534
0.224862
0.224018
0.2229
0.221587
0.220165
0.218709
0.217143
0.215203
0.213335
0.214341
0.192979
0.187777
0.192613
0.202992
0.214561
0.225242
0.234128
0.240995
0.245979
0.249345
0.251374
0.252325
0.252416
0.25183
0.250718
0.249203
0.247387
0.245353
0.243172
0.24092
0.238656
0.236308
0.233641
0.231099
0.231194
0.238923
0.23283
0.23637
0.245013
0.254592
0.263224
0.270119
0.275111
0.278353
0.280111
0.28066
0.280245
0.279073
0.277317
0.275115
0.272583
0.269813
0.26688
0.263846
0.260779
0.257729
0.254622
0.251256
0.248064
0.247286
0.28325
0.276292
0.278555
0.285489
0.293121
0.299757
0.304717
0.307889
0.309444
0.309645
0.308759
0.30702
0.304624
0.301731
0.298472
0.294952
0.291254
0.287447
0.283586
0.27973
0.275922
0.272089
0.268058
0.264242
0.262629
0.325759
0.317968
0.318983
0.324252
0.329993
0.334698
0.337792
0.339212
0.339142
0.337845
0.335579
0.332566
0.328991
0.325005
0.320728
0.316256
0.311666
0.307019
0.302364
0.297752
0.293219
0.288697
0.284036
0.279627
0.277216
0.366264
0.357676
0.357482
0.36114
0.36506
0.367912
0.369221
0.368965
0.367344
0.364617
0.361033
0.356804
0.352104
0.347074
0.341825
0.336445
0.331004
0.325556
0.320145
0.314815
0.309595
0.304424
0.299173
0.2942
0.291029
0.404588
0.395244
0.393889
0.396003
0.398186
0.399275
0.398887
0.397043
0.393951
0.389871
0.385039
0.379658
0.373893
0.367875
0.361706
0.355467
0.349221
0.343017
0.336892
0.330886
0.325021
0.319242
0.313439
0.307936
0.304044
0.440566
0.43051
0.428052
0.428701
0.429241
0.428667
0.426683
0.423345
0.418874
0.413521
0.407518
0.401057
0.394293
0.387347
0.380315
0.373271
0.366272
0.359359
0.352568
0.34593
0.339464
0.333119
0.326805
0.320806
0.316235
0.474044
0.463326
0.459831
0.459104
0.458105
0.455979
0.452508
0.44778
0.442024
0.43549
0.428398
0.420933
0.41324
0.405433
0.3976
0.389809
0.38211
0.374541
0.367131
0.359909
0.352887
0.346023
0.339238
0.332778
0.327574
0.504883
0.493555
0.489096
0.487092
0.484671
0.481112
0.47627
0.470262
0.463325
0.455703
0.447611
0.439223
0.430677
0.422078
0.41351
0.405032
0.396691
0.388521
0.380545
0.372787
0.365257
0.357918
0.350705
0.343821
0.338032
0.532955
0.521072
0.515731
0.512559
0.508838
0.503973
0.497884
0.490714
0.482704
0.474095
0.465094
0.455869
0.446548
0.437233
0.427997
0.418898
0.409975
0.40126
0.392772
0.384529
0.376541
0.368774
0.361175
0.353906
0.347582
0.558145
0.545768
0.539631
0.535407
0.530518
0.524482
0.517276
0.509065
0.500095
0.490604
0.480792
0.470818
0.460806
0.45085
0.441019
0.431364
0.421924
0.412722
0.403777
0.395103
0.386706
0.378559
0.370617
0.363004
0.356199
0.580355
0.567545
0.560706
0.555551
0.549633
0.542567
0.534379
0.525254
0.515442
0.505177
0.494653
0.484024
0.473407
0.462889
0.452536
0.442396
0.432501
0.422874
0.41353
0.404479
0.395725
0.387245
0.379004
0.371089
0.363861
0.599497
0.58632
0.578875
0.572919
0.566116
0.558165
0.549135
0.539228
0.528696
0.517769
0.506636
0.495446
0.484311
0.473314
0.462516
0.451961
0.441678
0.431688
0.422003
0.41263
0.403571
0.394809
0.386313
0.37814
0.370546
0.6155
0.602022
0.594073
0.587451
0.579912
0.571226
0.561498
0.550943
0.539814
0.528339
0.516704
0.505051
0.493488
0.482094
0.470929
0.460031
0.449428
0.439139
0.429173
0.419534
0.410224
0.401229
0.392524
0.384136
0.37624
0.628307
0.614597
0.60625
0.599098
0.590975
0.581708
0.571429
0.560363
0.548764
0.536858
0.524827
0.51281
0.500911
0.489206
0.477752
0.466585
0.455731
0.445207
0.43502
0.425173
0.415666
0.406488
0.397618
0.389063
0.380926
0.637877
0.624004
0.615366
0.607825
0.599274
0.589582
0.578901
0.567462
0.555521
0.543303
0.530985
0.518703
0.506561
0.494631
0.482968
0.471606
0.460571
0.449877
0.43953
0.429533
0.419883
0.410573
0.401584
0.392908
0.384596
0.644182
0.630217
0.621397
0.613609
0.604788
0.594829
0.583895
0.572224
0.560071
0.547658
0.535162
0.522718
0.510426
0.498358
0.486565
0.475084
0.463938
0.453139
0.442694
0.432604
0.422866
0.413475
0.404414
0.395664
0.387243
0.647212
0.633226
0.624333
0.616441
0.607508
0.597439
0.586404
0.574641
0.562405
0.549918
0.537354
0.524849
0.5125
0.50038
0.48854
0.477014
0.465826
0.454989
0.444507
0.434383
0.424612
0.41519
0.406103
0.397326
0.388862
0.646969
0.633033
0.624177
0.616324
0.607436
0.597416
0.586431
0.574716
0.562527
0.550084
0.537562
0.525096
0.512784
0.500699
0.488892
0.477397
0.466237
0.455426
0.44497
0.434869
0.425121
0.415719
0.406651
0.397895
0.389455
0.643472
0.629657
0.620947
0.613275
0.604589
0.594774
0.583988
0.572461
0.560446
0.548166
0.535795
0.523469
0.511287
0.499323
0.487628
0.476239
0.465177
0.454458
0.444088
0.434069
0.424397
0.415066
0.406063
0.397375
0.389024
0.636757
0.623131
0.614673
0.607322
0.598993
0.589538
0.579097
0.567896
0.556184
0.544183
0.532071
0.519984
0.508025
0.496266
0.484763
0.473552
0.462658
0.452096
0.441873
0.431991
0.42245
0.41324
0.404347
0.395774
0.387577
0.626871
0.613503
0.605402
0.598508
0.590686
0.581743
0.571793
0.561053
0.549768
0.538162
0.526415
0.514665
0.503018
0.491549
0.480316
0.469356
0.458697
0.448355
0.438338
0.428652
0.419294
0.410255
0.401516
0.393103
0.385124
0.613878
0.600836
0.593192
0.586887
0.579718
0.571435
0.562119
0.551971
0.541236
0.530137
0.518858
0.507541
0.496295
0.485198
0.474311
0.463674
0.453316
0.443256
0.433505
0.424069
0.414948
0.406127
0.397588
0.38938
0.381679
0.597858
0.585206
0.578115
0.572525
0.566153
0.558671
0.550125
0.540699
0.530632
0.520151
0.509441
0.498651
0.487891
0.477247
0.46678
0.456535
0.446544
0.436827
0.427398
0.418266
0.409433
0.40088
0.392583
0.384622
0.37726
0.578903
0.566702
0.560257
0.555503
0.550061
0.54352
0.535876
0.527295
0.518012
0.508253
0.498211
0.488037
0.477848
0.467733
0.457759
0.447973
0.438412
0.429097
0.420046
0.411272
0.402776
0.394537
0.386525
0.378853
0.371887
0.557121
0.54543
0.539716
0.53591
0.531527
0.526057
0.519442
0.511825
0.503436
0.494502
0.485221
0.47575
0.466212
0.456701
0.447289
0.438028
0.428956
0.420101
0.411483
0.403116
0.395007
0.387128
0.379442
0.3721
0.365583
0.532631
0.521507
0.516602
0.51385
0.510646
0.506369
0.500903
0.494364
0.486973
0.478961
0.47053
0.461845
0.453035
0.444199
0.435415
0.426741
0.418218
0.409877
0.401742
0.393834
0.386158
0.378685
0.371366
0.36439
0.358373
0.505567
0.495062
0.49104
0.489437
0.487522
0.484554
0.480349
0.474993
0.4687
0.461701
0.454206
0.446384
0.438374
0.430281
0.422189
0.414159
0.40624
0.398466
0.390865
0.383461
0.376265
0.369239
0.362327
0.355755
0.350286
0.476076
0.466239
0.463162
0.462795
0.462271
0.460717
0.457876
0.453803
0.448699
0.4428
0.436318
0.429434
0.422291
0.415005
0.407662
0.400333
0.393069
0.385912
0.378891
0.372036
0.365363
0.358828
0.352362
0.346227
0.34135
0.444316
0.435191
0.433116
0.434059
0.435015
0.434971
0.43359
0.43089
0.427061
0.422339
0.416944
0.411065
0.404853
0.39843
0.391892
0.385314
0.378755
0.372259
0.365862
0.359599
0.35349
0.347486
0.341503
0.335839
0.331596
0.410457
0.402086
0.401059
0.403376
0.40589
0.40744
0.407603
0.406357
0.40388
0.400407
0.396166
0.391352
0.386127
0.380621
0.374937
0.369157
0.363345
0.357553
0.35182
0.346188
0.340681
0.335247
0.329784
0.324621
0.321051
0.374681
0.367098
0.367158
0.370901
0.375037
0.378253
0.380034
0.380315
0.379258
0.377098
0.374069
0.370375
0.366188
0.361645
0.356858
0.351916
0.346891
0.341839
0.336807
0.33184
0.326971
0.322144
0.317235
0.312602
0.309742
0.337178
0.330417
0.331591
0.336797
0.342607
0.347549
0.351012
0.352881
0.353302
0.35251
0.350744
0.348217
0.34511
0.34157
0.337717
0.333648
0.329442
0.325162
0.320859
0.316589
0.312389
0.308201
0.30388
0.299805
0.29769
0.298151
0.292237
0.294543
0.301237
0.308759
0.315473
0.320668
0.324176
0.326125
0.326747
0.326285
0.324964
0.322972
0.320467
0.317577
0.314408
0.311047
0.307561
0.304013
0.300462
0.296957
0.293438
0.289735
0.286241
0.284906
0.257808
0.252765
0.25621
0.264404
0.27366
0.282179
0.289142
0.29433
0.297845
0.299916
0.300792
0.300707
0.299857
0.29841
0.296504
0.294253
0.291751
0.289077
0.286296
0.28348
0.280687
0.277858
0.274798
0.271906
0.271387
0.216368
0.212213
0.216795
0.226486
0.237484
0.247825
0.256582
0.263476
0.268585
0.272131
0.274369
0.275539
0.275849
0.275475
0.274564
0.273239
0.271603
0.269742
0.267732
0.265653
0.263577
0.261449
0.259046
0.256771
0.257105
0.174057
0.170803
0.176508
0.187678
0.20041
0.212577
0.22314
0.231755
0.238474
0.243512
0.247125
0.249562
0.25104
0.251743
0.251828
0.251427
0.25065
0.249592
0.248339
0.246982
0.245609
0.244173
0.242425
0.240767
0.241992
0.131105
0.128761
0.135566
0.148184
0.162627
0.176608
0.188972
0.199313
0.207648
0.214182
0.219176
0.222882
0.225526
0.227302
0.228374
0.228881
0.228942
0.228661
0.22813
0.227456
0.226743
0.225956
0.224822
0.223751
0.22591
0.0877487
0.0863179
0.0941895
0.10821
0.124325
0.140093
0.154244
0.1663
0.176246
0.184274
0.190643
0.195613
0.199415
0.20225
0.204289
0.205679
0.206545
0.206996
0.207133
0.207075
0.206946
0.206719
0.206091
0.205504
0.20863
0.044227
0.043709
0.0526049
0.067968
0.0857007
0.103215
0.119123
0.132875
0.144417
0.153926
0.161659