/*--------------------------------*- C++ -*----------------------------------*\
  =========                 |
  \\      /  F ield         | OpenFOAM: The Open Source CFD Toolbox
   \\    /   O peration     | Website:  https://openfoam.org
    \\  /    A nd           | Version:  6.0
     \\/     M anipulation  |
\*---------------------------------------------------------------------------*/
FoamFile
{
    version     2.0;
    format      ascii;
    class       surfaceScalarField;
    location    "120";
    object      phi;
}
// * * * * * * * * * * * * * * * * * * * * * * * * * * * * * * * * * * * * * //

dimensions      [0 3 -1 0 0 0 0];

internalField   nonuniform List<scalar> 
24700
(
-1.52022e-07
0.000111192
-0.00011104
-1.85958e-06
0.000275346
-0.000273639
-5.77001e-06
0.000392719
-0.000388809
-1.20431e-05
0.000472084
-0.000465811
-2.04993e-05
0.000521292
-0.000512836
-3.07542e-05
0.000547241
-0.000536986
-4.23191e-05
0.000555723
-0.000544159
-5.46685e-05
0.000551395
-0.000539045
-6.72806e-05
0.000537833
-0.000525221
-7.96599e-05
0.000517665
-0.000505286
-9.13481e-05
0.000492725
-0.000481037
-0.00010193
0.000464218
-0.000453636
-0.000111038
0.000432877
-0.000423769
-0.000118357
0.000399112
-0.000391793
-0.000123631
0.000363123
-0.000357849
-0.000126672
0.000325004
-0.000321964
-0.000127366
0.00028482
-0.000284125
-0.000125686
0.000242662
-0.000244342
-0.000121695
0.000198693
-0.000202684
-0.000115551
0.000153169
-0.000159312
-0.00010751
0.000106448
-0.000114489
-9.79164e-05
5.89838e-05
-6.85777e-05
-8.71945e-05
1.13011e-05
-2.2023e-05
-7.58466e-05
-3.60479e-05
2.47001e-05
-8.25603e-05
7.11485e-05
-6.44348e-05
5.38875e-07
0.000110653
4.57082e-07
0.000275428
-1.23025e-06
0.000394407
-4.93571e-06
0.000475789
-1.0659e-05
0.000527015
-1.81334e-05
0.000554715
-2.69402e-05
0.00056453
-3.65898e-05
0.000561044
-4.65745e-05
0.000547817
-5.64001e-05
0.000527491
-6.56044e-05
0.00050193
-7.3768e-05
0.000472381
-8.05202e-05
0.000439629
-8.55448e-05
0.000404137
-8.85848e-05
0.000366163
-8.9447e-05
0.000325867
-8.80072e-05
0.00028338
-8.42143e-05
0.000238869
-7.80936e-05
0.000192572
-6.97495e-05
0.000144824
-5.93666e-05
9.60653e-05
-4.72094e-05
4.68266e-05
-3.36221e-05
-2.2862e-06
-1.90423e-05
-5.06278e-05
-9.75944e-05
-4.00823e-06
1.23892e-06
0.000109414
2.83376e-06
0.000273833
3.47651e-06
0.000393764
2.50672e-06
0.000476759
-2.5653e-07
0.000529779
-4.66987e-06
0.000559128
-1.03919e-05
0.000570252
-1.69766e-05
0.000567629
-2.39371e-05
0.000554778
-3.07873e-05
0.000534341
-3.70672e-05
0.00050821
-4.2358e-05
0.000477672
-4.62903e-05
0.000443562
-4.85498e-05
0.000406396
-4.88795e-05
0.000366493
-4.70816e-05
0.000324069
-4.3018e-05
0.000279317
-3.66103e-05
0.000232461
-2.78401e-05
0.000183802
-1.67501e-05
0.000133734
-3.4479e-06
8.27631e-05
1.18881e-05
3.14906e-05
2.89961e-05
-1.93942e-05
4.7499e-05
-6.91307e-05
-0.000116965
6.68694e-05
1.9354e-06
0.000107479
5.23131e-06
0.000270537
8.27998e-06
0.000390715
1.01838e-05
0.000474855
1.05819e-05
0.00052938
9.48952e-06
0.000560221
7.16327e-06
0.000572579
3.99751e-06
0.000570795
4.49888e-07
0.000558325
-3.00891e-06
0.0005378
-5.92738e-06
0.000511128
-7.89258e-06
0.000479637
-8.54078e-06
0.00044421
-7.56234e-06
0.000405418
-4.70259e-06
0.000363633
2.39881e-07
0.000319126
7.41658e-06
0.00027214
1.6933e-05
0.000222945
2.88514e-05
0.000171883
4.31909e-05
0.000119395
5.99211e-05
6.60329e-05
7.8949e-05
1.24627e-05
0.000100095
-4.054e-05
0.00012304
-9.20757e-05
-0.000141183
0.000147258
2.61295e-06
0.000104866
7.60063e-06
0.00026555
1.30881e-05
0.000385228
1.79581e-05
0.000469985
2.16748e-05
0.000525664
2.4123e-05
0.000557773
2.5468e-05
0.000571234
2.60439e-05
0.000570219
2.62705e-05
0.000558099
2.65953e-05
0.000537475
2.74546e-05
0.000510269
2.925e-05
0.000477842
3.23355e-05
0.000441125
3.70126e-05
0.00040074
4.35311e-05
0.000357115
5.20932e-05
0.000310564
6.28606e-05
0.000261372
7.59617e-05
0.000209844
9.14973e-05
0.000156348
0.000109542
0.00010135
0.000130136
4.54384e-05
0.000153269
-1.06696e-05
0.000178838
-6.61091e-05
0.000206582
-0.00011982
-0.000170576
0.000235975
3.25375e-06
0.000101612
9.88371e-06
0.00025892
1.77898e-05
0.000377322
2.56592e-05
0.000462116
3.27918e-05
0.000518531
3.89427e-05
0.000551622
4.41804e-05
0.000565996
4.87706e-05
0.000565628
5.30868e-05
0.000553783
5.75448e-05
0.000533017
6.25586e-05
0.000505255
6.85131e-05
0.000471887
7.57482e-05
0.000433889
8.4554e-05
0.000391935
9.51721e-05
0.000346496
0.000107802
0.000297935
0.00012261
0.000246565
0.00013974
0.000192714
0.000159323
0.000136765
0.000181478
7.91952e-05
0.000206307
2.06095e-05
0.00023387
-3.82327e-05
0.000264141
-9.638e-05
0.000296917
-0.000152596
-0.00020533
0.000331671
3.83964e-06
9.77727e-05
1.2019e-05
0.00025074
2.22632e-05
0.000367077
3.30957e-05
0.000451283
4.36677e-05
0.000507959
5.36088e-05
0.000541681
6.28877e-05
0.000556717
7.1695e-05
0.000556821
8.03489e-05
0.000545129
8.92253e-05
0.000524141
9.87091e-05
0.000495771
0.000109162
0.000461434
0.000120906
0.000422145
0.000134217
0.000378624
0.000149323
0.00033139
0.000166419
0.000280839
0.000185668
0.000227315
0.000207225
0.000171157
0.000231237
0.000112753
0.000257857
5.2575e-05
0.000287235
-8.76838e-06
0.000319493
-7.0491e-05
0.000354675
-0.000131562
0.000392637
-0.000190558
-0.000245549
0.000432856
4.35255e-06
9.34202e-05
1.39433e-05
0.00024115
2.63804e-05
0.00035464
4.00613e-05
0.000437602
5.40101e-05
0.00049401
6.77392e-05
0.000527952
8.11177e-05
0.000543339
9.42552e-05
0.000543684
0.000107407
0.000531977
0.000120902
0.000510646
0.000135087
0.000481586
0.000150296
0.000446225
0.000166829
0.000405613
0.000184941
0.000360512
0.00020485
0.000311482
0.000226735
0.000258954
0.000250759
0.000203291
0.000277074
0.000144843
0.000305839
8.3988e-05
0.000337227
2.11868e-05
0.000371424
-4.29654e-05
0.000408604
-0.000107671
0.000448874
-0.000171832
0.000492152
-0.000233836
-0.000291316
0.000537919
4.77558e-06
8.86446e-05
1.55956e-05
0.00023033
3.00142e-05
0.000340222
4.63463e-05
0.00042127
6.3515e-05
0.000476841
8.0929e-05
0.000510538
9.83605e-05
0.000525907
0.000115836
0.000526209
0.000133541
0.000514272
0.000151748
0.000492438
0.000170763
0.000462571
0.000190884
0.000426104
0.000212383
0.000384114
0.000235496
0.000337399
0.000260422
0.000286556
0.000287331
0.000232045
0.000316375
0.000174247
0.000347704
0.000113514
0.00038148
5.02117e-05
0.000417889
-1.52227e-05
0.000457143
-8.22192e-05
0.000499457
-0.000149986
0.000544997
-0.000217371
0.000593738
-0.000282577
-0.000342744
0.000645165
5.09415e-06
8.35504e-05
1.69211e-05
0.000218503
3.30468e-05
0.000324096
5.17504e-05
0.000402567
7.18855e-05
0.000456706
9.2774e-05
0.000489649
0.000114099
0.000504582
0.000135801
0.000504506
0.000157996
0.000492077
0.000180893
0.000469542
0.000204747
0.000438717
0.000229818
0.000401033
0.000256348
0.000357584
0.000284549
0.000309198
0.000314603
0.000256502
0.000346667
0.00019998
0.000380887
0.000140028
0.000417408
7.69926e-05
0.000456394
1.12259e-05
0.000498038
-5.6867e-05
0.00054257
-0.000126751
0.00059024
-0.000197655
0.000641261
-0.000268392
0.000695665
-0.000336981
-0.000400009
0.000752931
5.29693e-06
7.82535e-05
1.78746e-05
0.000205925
3.53772e-05
0.000306593
5.6097e-05
0.000381847
7.8852e-05
0.000433951
0.000102899
0.000465602
0.000127841
0.00047964
0.000153542
0.000478805
0.000180039
0.000465581
0.000207478
0.000442102
0.00023606
0.000410135
0.000266002
0.000371091
0.000297513
0.000326073
0.000330781
0.00027593
0.000365972
0.00022131
0.000403235
0.000162717
0.00044271
0.000100552
0.000484543
3.51597e-05
0.0005289
-3.31304e-05
0.000575979
-0.000103947
0.000626025
-0.000176797
0.000679309
-0.00025094
0.000736086
-0.000325169
0.000796432
-0.000397327
-0.00046338
0.000859802
5.3766e-06
7.28769e-05
1.84244e-05
0.000192877
3.69296e-05
0.000288088
5.92467e-05
0.00035953
8.41939e-05
0.000409004
0.000110987
0.000438809
0.000139166
0.00045146
0.000168521
0.00044945
0.000199017
0.000435084
0.000230736
0.000410384
0.000263822
0.000377049
0.000298449
0.000336464
0.000334793
0.000289729
0.000373021
0.000237701
0.000413288
0.000181043
0.000455738
0.000120267
0.000500513
5.57771e-05
0.000547764
-1.20914e-05
0.000597663
-8.30288e-05
0.000650414
-0.000156698
0.000706265
-0.000232648
0.000765501
-0.000310176
0.000828397
-0.000388065
0.000895056
-0.000463987
-0.000533216
0.000964892
5.33048e-06
6.75464e-05
1.85545e-05
0.000179653
3.76601e-05
0.000268983
6.11105e-05
0.00033608
8.77605e-05
0.000382354
0.000116812
0.000409758
0.00014776
0.000420513
0.000180331
0.000416878
0.000214429
0.000400987
0.000250071
0.000374741
0.000287351
0.000339769
0.000326401
0.000297414
0.00036737
0.000248761
0.000410409
0.000194662
0.000455668
0.000135784
0.000503296
7.26393e-05
0.000553444
5.6291e-06
0.000606274
-6.49208e-05
0.000661964
-0.000138719
0.000720721
-0.000215455
0.000782786
-0.000294713
0.000848432
-0.000375821
0.000917925
-0.000457558
0.00099137
-0.000537432
-0.000609958
0.00106811
5.16102e-06
6.23854e-05
1.82674e-05
0.000166547
3.75629e-05
0.000249687
6.16619e-05
0.000311981
8.9491e-05
0.000354525
0.000120266
0.000378983
0.000153458
0.000387321
0.00018875
0.000381587
0.000225989
0.000363747
0.000265146
0.000335585
0.000306267
0.000298647
0.000349453
0.000254228
0.000394835
0.000203379
0.000442556
0.000146941
0.000492774
8.55668e-05
0.000545648
1.97649e-05
0.000601348
-5.00704e-05
0.000660047
-0.00012362
0.00072193
-0.000200602
0.000787191
-0.000280716
0.00085604
-0.000363562
0.000928702
-0.000448484
0.00100539
-0.000534248
0.00108617
-0.00061821
-0.000694084
0.0011703
4.87616e-06
5.75093e-05
1.7586e-05
0.000153837
3.66747e-05
0.000230598
6.09457e-05
0.00028771
8.943e-05
0.000326041
0.000121386
0.000347027
0.000156284
0.000352422
0.000193784
0.000344086
0.000233699
0.000323832
0.000275961
0.000293324
0.000320589
0.00025402
0.000367665
0.000207151
0.000417313
0.000153731
0.000469686
9.45676e-05
0.000524955
3.02983e-05
0.000583301
-3.85811e-05
0.000644911
-0.00011168
0.000709968
-0.000188678
0.000778647
-0.000269281
0.000851104
-0.000353174
0.000927482
-0.000439939
0.00100791
-0.000528908
0.00109248
-0.000618818
0.00118115
-0.000706888
-0.000786028
0.0012731
4.48961e-06
5.30197e-05
1.65543e-05
0.000141772
3.5078e-05
0.000212075
5.90846e-05
0.000263703
8.77392e-05
0.000297386
0.00012037
0.000314396
0.000156476
0.000316316
0.000195716
0.000304846
0.000237891
0.000281658
0.000282918
0.000248297
0.000330807
0.00020613
0.000381642
0.000156317
0.000435556
9.98166e-05
0.000492722
3.74025e-05
0.000553332
-3.03122e-05
0.000617591
-0.00010284
0.000685697
-0.000179786
0.000757823
-0.000260804
0.000834104
-0.000345561
0.000914619
-0.000433689
0.000999388
-0.000524708
0.00108837
-0.000617893
0.00118149
-0.000711934
0.00127854
-0.000803934
-0.00088606
0.00137857
4.02106e-06
4.89986e-05
1.52382e-05
0.000130555
3.29021e-05
0.000194411
5.62816e-05
0.000240323
8.47022e-05
0.000268965
0.00011759
0.000281508
0.000154498
0.000279408
0.000195115
0.00026423
0.000239254
0.000237518
0.000286847
0.000200705
0.000337917
0.00015506
0.000392566
0.000101667
0.000450955
4.14276e-05
0.000513282
-2.49248e-05
0.000579765
-9.67949e-05
0.000650616
-0.000173692
0.000726021
-0.00025519
0.000806108
-0.000340891
0.000890927
-0.00043038
0.000980421
-0.000523184
0.00107443
-0.000618713
0.00117267
-0.000716141
0.00127482
-0.000814083
0.00138045
-0.000909563
-0.000994131
0.00148852
3.49605e-06
4.55026e-05
1.37247e-05
0.000120326
3.03206e-05
0.000177815
5.28163e-05
0.000217828
8.07197e-05
0.000241062
0.000113581
0.000248647
0.000151036
0.000241953
0.000192832
0.000222435
0.000238826
0.000191523
0.000288989
0.000150543
0.000343381
0.000100668
0.000402141
4.29066e-05
0.000465464
-2.18947e-05
0.00053357
-9.30317e-05
0.000606686
-0.00016991
0.000685003
-0.000252009
0.00076865
-0.000338837
0.000857657
-0.000429898
0.000951923
-0.000524646
0.00105119
-0.000622455
0.00115505
-0.000722573
0.00126295
-0.000824032
0.00137422
-0.000925361
0.00148821
-0.00102355
-0.00110972
0.00160379
2.94541e-06
4.25571e-05
1.21188e-05
0.000111153
2.75457e-05
0.000162388
4.90346e-05
0.000196339
7.62937e-05
0.000213803
0.000109021
0.00021592
0.000146965
0.000204009
0.000189957
0.000179442
0.000237931
0.000143549
0.000290917
9.75572e-05
0.000349031
4.25538e-05
0.000412456
-2.05184e-05
0.000481412
-9.08515e-05
0.000556127
-0.000167747
0.000636794
-0.000250577
0.000723535
-0.00033875
0.000816359
-0.000431662
0.000915126
-0.000528665
0.00101951
-0.000629034
0.001129
-0.000731944
0.00124287
-0.000836445
0.00136025
-0.000941407
0.00148016
-0.00104527
0.00160167
-0.00114506
-0.00123169
0.00172364
2.40397e-06
4.01532e-05
1.05389e-05
0.000103018
2.48178e-05
0.000148109
4.53297e-05
0.000175827
7.19983e-05
0.000187134
0.00010469
0.000183228
0.00014329
0.00016541
0.000187742
0.000134989
0.000238075
9.32166e-05
0.000294396
4.12356e-05
0.000356883
-1.99326e-05
0.000425751
-8.93866e-05
0.000501224
-0.000166325
0.00058349
-0.000250012
0.000672653
-0.000339741
0.000768695
-0.000434791
0.000871426
-0.000534393
0.000980458
-0.000637696
0.00109518
-0.000743755
0.00121475
-0.000851516
0.00133813
-0.000959821
0.0014641
-0.00106738
0.00159142
-0.00117259
0.00171893
-0.00127257
-0.00135827
0.00184552
1.90846e-06
3.82447e-05
9.10966e-06
9.5817e-05
2.2389e-05
0.00013483
4.21158e-05
0.0001561
6.84381e-05
0.000160812
0.000101408
0.000150259
0.000141064
0.000125753
0.000187483
8.85704e-05
0.000240798
3.99015e-05
0.000301197
-1.91637e-05
0.000368903
-8.76379e-05
0.000444136
-0.00016462
0.000527075
-0.000249263
0.000617803
-0.00034074
0.000716263
-0.000438201
0.000822208
-0.000540737
0.000935171
-0.000647356
0.00105444
-0.000756967
0.00117907
-0.000868378
0.00130786
-0.00098031
0.00143945
-0.00109142
0.00157236
-0.00120029
0.00170511
-0.00130534
0.00183642
-0.00140388
-0.00148709
0.00196524
1.49471e-06
3.675e-05
7.95192e-06
8.93597e-05
2.05044e-05
0.000122277
3.97942e-05
0.00013681
6.61973e-05
0.000134409
9.996e-05
0.000116496
0.000141287
8.44267e-05
0.00019039
3.94673e-05
0.000247505
-1.72135e-05
0.000312881
-8.454e-05
0.000386753
-0.000161509
0.000469294
-0.000247161
0.000560568
-0.000340538
0.000660477
-0.00044065
0.000768712
-0.000546435
0.000884716
-0.000656741
0.00100767
-0.00077031
0.00113649
-0.000885787
0.00126985
-0.00100174
0.00140624
-0.0011167
0.00154401
-0.00122918
0.00168145
-0.00133774
0.00181699
-0.00144087
0.00194932
-0.00153622
-0.00161529
0.00207752
1.19436e-06
3.55556e-05
7.17266e-06
8.33815e-05
1.93803e-05
0.00011007
3.87181e-05
0.000117473
6.57862e-05
0.000107341
0.000101025
8.1257e-05
0.000144803
4.06492e-05
0.000197456
-1.31864e-05
0.000259302
-7.90588e-05
0.000330611
-0.000155849
0.000411575
-0.000242473
0.000502248
-0.000337835
0.0006025
-0.00044079
0.000711961
-0.000550111
0.000829988
-0.000664462
0.000955644
-0.000782397
0.00108771
-0.000902374
0.0012247
-0.00102278
0.00136493
-0.00114197
0.00150659
-0.00125835
0.00164781
-0.0013704
0.0017868
-0.00147673
0.00192198
-0.00157605
0.00205217
-0.0016664
-0.00173974
0.00217661
1.03182e-06
3.45238e-05
6.85508e-06
7.75582e-05
1.91855e-05
9.77392e-05
3.91612e-05
9.74968e-05
6.75942e-05
7.89078e-05
0.000105108
4.37433e-05
0.000152216
-6.45894e-06
0.000209355
-7.03248e-05
0.000276876
-0.00014658
0.000355018
-0.000233991
0.000443853
-0.000331308
0.000543237
-0.000437219
0.000652756
-0.000550309
0.000771687
-0.000669042
0.000898987
-0.000791762
0.0010333
-0.000916706
0.00117297
-0.00104205
0.00131616
-0.00116596
0.00146085
-0.00128666
0.00160499
-0.00140249
0.00174657
-0.00151198
0.00188376
-0.00161392
0.00201506
-0.00170735
0.00213953
-0.00179087
-0.0018571
0.0022569
1.02194e-06
3.35019e-05
7.05162e-06
7.15285e-05
2.0027e-05
8.47639e-05
4.12951e-05
7.62287e-05
7.1858e-05
4.83449e-05
0.000112498
3.10351e-06
0.000163842
-5.78028e-05
0.000226378
-0.000132861
0.000300437
-0.00022064
0.000386148
-0.000319702
0.000483384
-0.000428544
0.000591711
-0.000545546
0.000710353
-0.00066895
0.000838172
-0.000796861
0.000973684
-0.000927274
0.0011151
-0.00105812
0.00126039
-0.00118734
0.00140739
-0.00131296
0.00155387
-0.00143314
0.00169765
-0.00154628
0.0018367
-0.00165103
0.00196916
-0.00174638
0.00209333
-0.00183152
0.00220757
-0.00190512
-0.00196243
0.0023129
1.16857e-06
3.23333e-05
7.78024e-06
6.49168e-05
2.19439e-05
7.06002e-05
4.51809e-05
5.29917e-05
7.86509e-05
1.4875e-05
0.000123258
-4.15034e-05
0.000179695
-0.00011424
0.000248443
-0.000201609
0.000329735
-0.000301932
0.000423507
-0.000413474
0.000529346
-0.000534383
0.000646449
-0.00066265
0.000773612
-0.000796113
0.000909242
-0.000932491
0.00105141
-0.00106944
0.00119793
-0.00120464
0.00134647
-0.00133588
0.00149465
-0.00146114
0.00164019
-0.00157867
0.00178096
-0.00168705
0.00191514
-0.00178522
0.00204122
-0.00187245
0.00215801
-0.00194831
0.00226536
-0.00201247
-0.00206291
0.00236584
1.4671e-06
3.08662e-05
9.0292e-06
5.73547e-05
2.49144e-05
5.4715e-05
5.07776e-05
2.71284e-05
8.78949e-05
-2.22423e-05
0.000137243
-9.08517e-05
0.000199521
-0.000176518
0.000275128
-0.000277216
0.000364118
-0.000390921
0.000466146
-0.000515502
0.000580428
-0.000648665
0.000705726
-0.000787947
0.000840364
-0.000930751
0.000982287
-0.00107441
0.00112915
-0.00121631
0.00127846
-0.00135395
0.00142765
-0.00148508
0.00157429
-0.00160778
0.00171616
-0.00172055
0.00185138
-0.00182226
0.00197844
-0.00191228
0.0020963
-0.00199032
0.00220448
-0.00205649
0.00230313
-0.00211112
-0.00215301
0.00239323
1.90379e-06
2.89624e-05
1.0759e-05
4.84995e-05
2.88629e-05
3.66112e-05
5.79587e-05
-1.96742e-06
9.93895e-05
-6.36731e-05
0.000154146
-0.000145608
0.00022286
-0.000245232
0.000305769
-0.000360125
0.000402657
-0.000487809
0.000512814
-0.000625659
0.000635014
-0.000770865
0.000767533
-0.000920466
0.000908211
-0.00107143
0.00105456
-0.00122076
0.00120389
-0.00136564
0.00135346
-0.00150353
0.00150068
-0.00163229
0.00164315
-0.00175026
0.00177889
-0.00185628
0.0019063
-0.00194968
0.00202431
-0.00203028
0.0021323
-0.00209831
0.00223011
-0.00215431
0.002318
-0.00219901
-0.00223205
0.00239705
2.46075e-06
2.65017e-05
1.29145e-05
3.80457e-05
3.36805e-05
1.58452e-05
6.65418e-05
-3.48288e-05
0.000112852
-0.000109983
0.000173547
-0.000206303
0.000249113
-0.000320799
0.000339537
-0.000450548
0.000444245
-0.000592518
0.000562084
-0.000743498
0.000691329
-0.00090011
0.000829749
-0.00105889
0.000974718
-0.0012164
0.00112337
-0.00136942
0.00127278
-0.00151505
0.00142013
-0.00165087
0.00156287
-0.00177502
0.00169884
-0.00188623
0.00182636
-0.00198381
0.0019443
-0.00206761
0.00205199
-0.00213798
0.00214928
-0.0021956
0.00223642
-0.00224144
0.00231399
-0.00227658
-0.00230134
0.00238327
3.11868e-06
2.3383e-05
1.54337e-05
2.57307e-05
3.92424e-05
-7.96347e-06
7.63162e-05
-7.19025e-05
0.000127956
-0.000161623
0.000194969
-0.000273316
0.00027761
-0.000403441
0.000375523
-0.000548461
0.000487695
-0.00070469
0.000612463
-0.000868266
0.00074757
-0.00103522
0.000890286
-0.0012016
0.00103758
-0.00136369
0.0011863
-0.00151814
0.00133342
-0.00166217
0.00147617
-0.00179363
0.00161223
-0.00191108
0.00173977
-0.00201377
0.00185756
-0.0021016
0.00196491
-0.00217496
0.00206164
-0.00223471
0.00214801
-0.00228197
0.00222463
-0.00231806
0.00229236
-0.00234432
-0.00236151
0.00235254
3.85968e-06
1.95233e-05
1.82561e-05
1.13343e-05
4.54229e-05
-3.51303e-05
8.70658e-05
-0.000113545
0.000144366
-0.000218923
0.000217918
-0.000346868
0.000307657
-0.00049318
0.000412796
-0.000653599
0.000531807
-0.000823701
0.000662471
-0.00099893
0.000801994
-0.00117474
0.000947193
-0.0013468
0.00109472
-0.00151121
0.00124128
-0.0016647
0.00138387
-0.00180476
0.00151995
-0.0019297
0.00164753
-0.00203866
0.00176524
-0.00213149
0.00187233
-0.00220869
0.00196859
-0.00227122
0.00205429
-0.0023204
0.00213005
-0.00235773
0.00219677
-0.00238478
0.00225553
-0.00240307
-0.00241364
0.00230766
4.66901e-06
1.48543e-05
2.13281e-05
-5.32488e-06
5.2106e-05
-6.59082e-05
9.8585e-05
-0.000160024
0.000161752
-0.00028209
0.000241906
-0.000427022
0.000338568
-0.000589842
0.000450436
-0.000765468
0.000575409
-0.000948674
0.000710691
-0.00113421
0.000852985
-0.00131703
0.000998733
-0.00149255
0.00114439
-0.00165687
0.00128667
-0.00180699
0.00142278
-0.00194086
0.00155049
-0.00205742
0.00166829
-0.00215645
0.0017753
-0.0022385
0.00187128
-0.00230466
0.00195647
-0.00235641
0.00203152
-0.00239545
0.00209736
-0.00242357
0.00215507
-0.0024425
0.00220584
-0.00245384
-0.00245876
0.00225096
5.53577e-06
9.31852e-06
2.46055e-05
-2.43946e-05
5.91891e-05
-0.000100492
0.000110683
-0.000211519
0.000179803
-0.000351209
0.000266458
-0.000513677
0.000369669
-0.000693053
0.000487548
-0.000883346
0.000617381
-0.00107851
0.000755811
-0.00127264
0.0008991
-0.00146032
0.00104344
-0.00163689
0.00118523
-0.00179866
0.00132136
-0.00194312
0.00144935
-0.00206886
0.00156746
-0.00217553
0.00167467
-0.00226366
0.00177063
-0.00233447
0.00185557
-0.0023896
0.00193014
-0.00243097
0.00199527
-0.00246059
0.00205211
-0.00248041
0.00210185
-0.00249224
0.0021457
-0.00249768
-0.00249793
0.00218486
6.4525e-06
2.86602e-06
2.80522e-05
-4.59943e-05
6.65816e-05
-0.000139021
0.000123184
-0.000268121
0.000198218
-0.000426243
0.000291115
-0.000606574
0.00040031
-0.000802248
0.000523275
-0.00100631
0.000656677
-0.00121191
0.000796647
-0.00141261
0.000939114
-0.00160279
0.00108015
-0.00177792
0.00121628
-0.00193479
0.0013447
-0.00207153
0.00146338
-0.00218753
0.0015711
-0.00228325
0.0016674
-0.00235996
0.00175241
-0.00241948
0.00182677
-0.00246397
0.00189146
-0.00249566
0.00194762
-0.00251675
0.0019965
-0.00252929
0.00203932
-0.00253507
0.00207726
-0.00253562
-0.00253208
0.00211142
7.41398e-06
-4.54797e-06
3.16374e-05
-7.02177e-05
7.41999e-05
-0.000181584
0.000135917
-0.000329839
0.000216703
-0.000507029
0.000315422
-0.000705293
0.000429855
-0.00091668
0.000556803
-0.00113326
0.000692345
-0.00134745
0.000832183
-0.00155245
0.000972047
-0.00174265
0.00110806
-0.00191393
0.00123701
-0.00206374
0.00135652
-0.00219105
0.00146512
-0.00229613
0.00156213
-0.00238026
0.00164759
-0.00244542
0.0017221
-0.00249399
0.00178663
-0.00252849
0.00184236
-0.00255139
0.00189057
-0.00256497
0.00193255
-0.00257126
0.00196947
-0.00257199
0.00200243
-0.00256858
-0.00256204
0.00203239
8.41589e-06
-1.29639e-05
3.53321e-05
-9.71339e-05
8.19612e-05
-0.000228213
0.000148712
-0.000396589
0.000234963
-0.00059328
0.00033893
-0.00080926
0.00045769
-0.00103544
0.000587379
-0.00126295
0.000723546
-0.00148362
0.00086159
-0.00169049
0.000997195
-0.00187826
0.00112669
-0.00204343
0.00124727
-0.00218432
0.00135709
-0.00230087
0.00145523
-0.00239427
0.00154157
-0.0024666
0.00161663
-0.00252048
0.00168134
-0.00255871
0.00173693
-0.00258408
0.00178471
-0.00259917
0.001826
-0.00260626
0.00186206
-0.00260731
0.00189398
-0.00260392
0.00192275
-0.00259734
-0.00258848
0.00194919
9.45341e-06
-2.24173e-05
3.91051e-05
-0.000126786
8.97784e-05
-0.000278886
0.000161389
-0.0004682
0.000252694
-0.000684585
0.000361193
-0.000917759
0.000483233
-0.00115748
0.000614323
-0.00139404
0.000749584
-0.00161888
0.000884255
-0.00182517
0.00101414
-0.00200814
0.00113591
-0.0021652
0.00124728
-0.00229569
0.00134698
-0.00240057
0.00143466
-0.00248195
0.0015107
-0.00254264
0.001576
-0.00258577
0.00163177
-0.00261448
0.00167938
-0.00263168
0.0017202
-0.00263999
0.00175554
-0.0026416
0.00178655
-0.00263833
0.00181425
-0.00263161
0.00183948
-0.00262257
-0.00261193
0.00186293
1.05203e-05
-3.29375e-05
4.29209e-05
-0.000159186
9.75562e-05
-0.000333521
0.000173761
-0.000544404
0.00026959
-0.000780414
0.000381777
-0.00102995
0.000505949
-0.00128165
0.000637058
-0.00152515
0.000769926
-0.00175175
0.000899794
-0.00195503
0.00102273
-0.00213108
0.00113589
-0.00227836
0.00123756
-0.00239736
0.00132705
-0.00249007
0.00140456
-0.00255946
0.00147088
-0.00260896
0.00152721
-0.00264211
0.00157496
-0.00266222
0.00161554
-0.00267227
0.00165034
-0.00267478
0.00168057
-0.00267183
0.0017073
-0.00266505
0.0017314
-0.00265572
0.0017536
-0.00264477
-0.00263279
0.00177446
1.16081e-05
-4.45457e-05
4.67383e-05
-0.000194316
0.00010519
-0.000391973
0.000185631
-0.000624844
0.000285344
-0.000880127
0.000400274
-0.00114488
0.000525367
-0.00140675
0.000655122
-0.0016549
0.000784215
-0.00188084
0.000908044
-0.00207886
0.00102309
-0.00224613
0.00112705
-0.00238233
0.00121883
-0.00248913
0.00129831
-0.00256955
0.00136614
-0.00262729
0.00142346
-0.00266629
0.00147169
-0.00269034
0.00151232
-0.00270285
0.00154678
-0.00270673
0.00157637
-0.00270438
0.00160223
-0.00269768
0.00162528
-0.0026881
0.00164628
-0.00267672
0.00166584
-0.00266432
-0.00265135
0.0016844
1.27065e-05
-5.72522e-05
5.05102e-05
-0.00023212
0.000112568
-0.000454031
0.000196798
-0.000709074
0.00029966
-0.00098299
0.000416315
-0.00126153
0.000541097
-0.00153153
0.000668187
-0.00178199
0.000792272
-0.00200492
0.000909056
-0.00219565
0.00101553
-0.0023526
0.00111001
-0.0024768
0.00119197
-0.0025711
0.00126184
-0.00263941
0.00132063
-0.00268608
0.00136975
-0.00271541
0.00141074
-0.00273133
0.00144511
-0.00273722
0.00147424
-0.00273586
0.00149934
-0.00272948
0.00152141
-0.00271976
0.00154127
-0.00270796
0.00155956
-0.00269501
0.00157675
-0.00268151
-0.00266781
0.00159321
1.3803e-05
-7.10553e-05
5.41849e-05
-0.000272502
0.000119573
-0.000519419
0.000207063
-0.000796564
0.000312263
-0.00108819
0.00042958
-0.00137885
0.000552845
-0.00165479
0.000676065
-0.00190521
0.000794092
-0.00212295
0.000903064
-0.00230462
0.00100056
-0.00245009
0.0010855
-0.00256175
0.00115795
-0.00264355
0.00121874
-0.0027002
0.00126922
-0.00273656
0.00131095
-0.00275714
0.00134552
-0.00276589
0.00137439
-0.0027661
0.00139888
-0.00276035
0.00142007
-0.00275067
0.00143884
-0.00273853
0.00145588
-0.002725
0.00147171
-0.00271084
0.00148674
-0.00269654
-0.00268231
0.00150123
1.48836e-05
-8.59388e-05
5.77075e-05
-0.000315326
0.000126086
-0.000587798
0.000216237
-0.000886715
0.000322908
-0.00119486
0.000439819
-0.00149576
0.000560421
-0.00177539
0.000678701
-0.00202349
0.000789823
-0.00223407
0.000890453
-0.00240525
0.00097879
-0.00253843
0.00105437
-0.00263733
0.00111773
-0.00270691
0.00117009
-0.00275256
0.001213
-0.00277947
0.00124811
-0.00279225
0.00127699
-0.00279478
0.00130105
-0.00279016
0.00132147
-0.00278078
0.00133922
-0.00276841
0.00135505
-0.00275435
0.00136954
-0.00273949
0.00138312
-0.00272442
0.0013961
-0.00270952
-0.00269491
0.00140871
1.5933e-05
-0.000101872
6.10218e-05
-0.000360415
0.000131994
-0.00065877
0.000224147
-0.000978868
0.000331391
-0.0013021
0.000446851
-0.00161122
0.000563736
-0.00189228
0.000676169
-0.00213592
0.000779744
-0.00233765
0.000871721
-0.00249723
0.000950929
-0.00261764
0.00101746
-0.00270386
0.00107228
-0.00276173
0.00111688
-0.00279716
0.00115295
-0.00281553
0.00118214
-0.00282145
0.001206
-0.00281863
0.0012258
-0.00280996
0.00124263
-0.0027976
0.0012573
-0.00278309
0.00127046
-0.00276752
0.00128259
-0.00275162
0.00129403
-0.00273587
0.00130505
-0.00272053
-0.00270567
0.0013158
1.69355e-05
-0.000118807
6.40723e-05
-0.000407552
0.000137189
-0.000731886
0.000230643
-0.00107232
0.000337557
-0.00140902
0.000450571
-0.00172423
0.000562804
-0.00200451
0.000668653
-0.00224177
0.000764235
-0.00243323
0.000847442
-0.00258043
0.000917708
-0.0026879
0.000975618
-0.00276177
0.00102249
-0.00280861
0.00106
-0.00283467
0.0010899
-0.00284543
0.00111383
-0.00284537
0.00113321
-0.00283801
0.00114923
-0.00282598
0.00116282
-0.00281118
0.00117469
-0.00279496
0.00118537
-0.0027782
0.00119527
-0.00276152
0.00120467
-0.00274526
0.00121375
-0.00272962
-0.00271457
0.00122265
1.78753e-05
-0.000136683
6.68062e-05
-0.000456483
0.000141574
-0.000806654
0.000235604
-0.00116635
0.000341299
-0.00151471
0.000450948
-0.00183388
0.000557727
-0.00211129
0.000656427
-0.00234047
0.000743752
-0.00252056
0.000818232
-0.00265491
0.000879861
-0.00274953
0.00092965
-0.00281156
0.000969179
-0.00284814
0.00100024
-0.00286573
0.00102459
-0.00286978
0.0010438
-0.00286458
0.00105918
-0.00285339
0.00107178
-0.00283858
0.00108242
-0.00282182
0.00109168
-0.00280422
0.00110003
-0.00278655
0.00110778
-0.00276927
0.00111516
-0.00275264
0.00112232
-0.00273677
-0.00272162
0.00112936
1.8737e-05
-0.000155419
6.91749e-05
-0.000506921
0.00014507
-0.000882549
0.000238938
-0.00126022
0.000342564
-0.00161834
0.000448023
-0.00193934
0.000548685
-0.00221195
0.000639831
-0.00243162
0.000718794
-0.00259952
0.000784718
-0.00272084
0.000838101
-0.00280292
0.000880299
-0.00285376
0.000913079
-0.00288091
0.000938286
-0.00289094
0.000957634
-0.00288913
0.000972591
-0.00287954
0.000984346
-0.00286515
0.000993821
-0.00284806
0.00100171
-0.0028297
0.00100852
-0.00281104
0.00101462
-0.00279265
0.00102026
-0.00277491
0.00102564
-0.00275801
0.00103086
-0.002742
-0.00272677
0.00103602
1.9506e-05
-0.000174926
7.11355e-05
-0.00055855
0.000147609
-0.000959022
0.000240588
-0.0013532
0.00034135
-0.0017191
0.000441897
-0.00203989
0.000535917
-0.00230597
0.000619255
-0.00251496
0.000689881
-0.00267015
0.000747517
-0.00277847
0.000793095
-0.0028485
0.000828238
-0.0028889
0.00085483
-0.00290751
0.000874715
-0.00291083
0.000889529
-0.00290394
0.000900622
-0.00289063
0.000909054
-0.00287358
0.000915625
-0.00285463
0.000920922
-0.002835
0.000925369
-0.00281548
0.000929265
-0.00279655
0.000932821
-0.00277847
0.000936183
-0.00276137
0.000939448
-0.00274526
-0.00273001
0.000942683
2.01691e-05
-0.000195095
7.26517e-05
-0.000611033
0.000149145
-0.00103552
0.000240529
-0.00144458
0.000337698
-0.00181627
0.000432722
-0.00213491
0.00051971
-0.00239296
0.000595115
-0.00259036
0.000657537
-0.00273257
0.000707217
-0.00282815
0.000745453
-0.00288673
0.000774063
-0.00291751
0.000794983
-0.00292843
0.000810015
-0.00292586
0.000820691
-0.00291462
0.000828235
-0.00289818
0.000833579
-0.00287892
0.000837411
-0.00285846
0.000840223
-0.00283781
0.000842365
-0.00281762
0.000844083
-0.00279826
0.00084555
-0.00277993
0.000846882
-0.0027627
0.000848158
-0.00274654
-0.00273128
0.000849434
2.07144e-05
-0.000215809
7.3695e-05
-0.000664013
0.000149649
-0.00111147
0.000238767
-0.0015337
0.000331694
-0.0019092
0.000420693
-0.00222391
0.00050038
-0.00247265
0.000567839
-0.00265782
0.000622267
-0.002787
0.000664368
-0.00287025
0.000695728
-0.00291809
0.000718293
-0.00294007
0.000734005
-0.00294414
0.000744588
-0.00293644
0.000751455
-0.00292149
0.000755702
-0.00290242
0.000758138
-0.00288136
0.000759348
-0.00285967