/*--------------------------------*- C++ -*----------------------------------*\
  =========                 |
  \\      /  F ield         | OpenFOAM: The Open Source CFD Toolbox
   \\    /   O peration     | Website:  https://openfoam.org
    \\  /    A nd           | Version:  6.0
     \\/     M anipulation  |
\*---------------------------------------------------------------------------*/
FoamFile
{
    version     2.0;
    format      ascii;
    class       volScalarField;
    location    "68";
    object      p;
}
// * * * * * * * * * * * * * * * * * * * * * * * * * * * * * * * * * * * * * //

dimensions      [0 2 -2 0 0 0 0];

internalField   nonuniform List<scalar> 
12500
(
-0.462466
-0.464394
-0.465491
-0.466191
-0.466803
-0.46741
-0.468059
-0.468766
-0.469524
-0.470312
-0.471102
-0.471867
-0.47258
-0.473217
-0.47376
-0.474195
-0.474515
-0.47472
-0.474819
-0.474823
-0.474739
-0.474593
-0.474551
-0.47477
-0.473907
-0.45285
-0.454827
-0.455906
-0.456529
-0.457005
-0.457418
-0.457816
-0.458222
-0.458634
-0.459037
-0.459413
-0.459741
-0.460002
-0.460179
-0.460262
-0.460243
-0.460121
-0.459904
-0.459603
-0.459238
-0.458823
-0.458385
-0.458061
-0.458
-0.4572
-0.44352
-0.445509
-0.446553
-0.447093
-0.447434
-0.447659
-0.447815
-0.44793
-0.448005
-0.448035
-0.448005
-0.447903
-0.447715
-0.447433
-0.44705
-0.446567
-0.445986
-0.44532
-0.444585
-0.443805
-0.443001
-0.442202
-0.44151
-0.441059
-0.440237
-0.43451
-0.43648
-0.437477
-0.437931
-0.438142
-0.438186
-0.438112
-0.437948
-0.437701
-0.437369
-0.436946
-0.436422
-0.435793
-0.435053
-0.434204
-0.433248
-0.432195
-0.431059
-0.42986
-0.428625
-0.427382
-0.426162
-0.425026
-0.424086
-0.423157
-0.425843
-0.427773
-0.428714
-0.429083
-0.429169
-0.429043
-0.428752
-0.428323
-0.427769
-0.427091
-0.426286
-0.425352
-0.424289
-0.423098
-0.421783
-0.420352
-0.418818
-0.417198
-0.415513
-0.413794
-0.412074
-0.410386
-0.408747
-0.407242
-0.406127
-0.417535
-0.419412
-0.420293
-0.420581
-0.42055
-0.420265
-0.41977
-0.419093
-0.418247
-0.417237
-0.416065
-0.414734
-0.413248
-0.411613
-0.409836
-0.407931
-0.405913
-0.403801
-0.401619
-0.399398
-0.397177
-0.39499
-0.392815
-0.390698
-0.389332
-0.409597
-0.411416
-0.412239
-0.412451
-0.412312
-0.41188
-0.411195
-0.410284
-0.409162
-0.407836
-0.406312
-0.404598
-0.4027
-0.40063
-0.3984
-0.396026
-0.393526
-0.390922
-0.38824
-0.385512
-0.382782
-0.380086
-0.377366
-0.374623
-0.37296
-0.402036
-0.403803
-0.404572
-0.404714
-0.404476
-0.403909
-0.403048
-0.401918
-0.400535
-0.398909
-0.397048
-0.394964
-0.392668
-0.390175
-0.387502
-0.384667
-0.381692
-0.378603
-0.375427
-0.372197
-0.368963
-0.365766
-0.362514
-0.359162
-0.357179
-0.394861
-0.396586
-0.397309
-0.397389
-0.397061
-0.39637
-0.395345
-0.394011
-0.392382
-0.39047
-0.388288
-0.385849
-0.383169
-0.380266
-0.377161
-0.373877
-0.370439
-0.366876
-0.363217
-0.359499
-0.355777
-0.352097
-0.348346
-0.344429
-0.342123
-0.388082
-0.389781
-0.390468
-0.390494
-0.390086
-0.38928
-0.388103
-0.386577
-0.384716
-0.382533
-0.380045
-0.377266
-0.374217
-0.370919
-0.367397
-0.363677
-0.359789
-0.355765
-0.351638
-0.347451
-0.343263
-0.339128
-0.334918
-0.330495
-0.327884
-0.381712
-0.383405
-0.384068
-0.384048
-0.383566
-0.382655
-0.381336
-0.379629
-0.377549
-0.375112
-0.372332
-0.36923
-0.365828
-0.362152
-0.358228
-0.354088
-0.349765
-0.345295
-0.340717
-0.336078
-0.331446
-0.326884
-0.322259
-0.317395
-0.314509
-0.37577
-0.37748
-0.378128
-0.37807
-0.377522
-0.376512
-0.37506
-0.373184
-0.370899
-0.36822
-0.365167
-0.36176
-0.358024
-0.353988
-0.349681
-0.345138
-0.340396
-0.335496
-0.330481
-0.325406
-0.320347
-0.31538
-0.310372
-0.305126
-0.302002
-0.370283
-0.372027
-0.372672
-0.37258
-0.371971
-0.37087
-0.369293
-0.367259
-0.364782
-0.36188
-0.358572
-0.354881
-0.350834
-0.34646
-0.341793
-0.336868
-0.331726
-0.326411
-0.320972
-0.31547
-0.309992
-0.304628
-0.299253
-0.293663
-0.29033
-0.365282
-0.367076
-0.367724
-0.367603
-0.366938
-0.36575
-0.364057
-0.361877
-0.359224
-0.356117
-0.352576
-0.348626
-0.344295
-0.339612
-0.334613
-0.329332
-0.323813
-0.318101
-0.312251
-0.306326
-0.300426
-0.294654
-0.288899
-0.282968
-0.279434
-0.360803
-0.362656
-0.363312
-0.363164
-0.362445
-0.361177
-0.359377
-0.357063
-0.354252
-0.350963
-0.347216
-0.343037
-0.338454
-0.333498
-0.328202
-0.3226
-0.316734
-0.31065
-0.304401
-0.298056
-0.291718
-0.285506
-0.279326
-0.273007
-0.269237
-0.356888
-0.3588
-0.359463
-0.359288
-0.358518
-0.357176
-0.355279
-0.352847
-0.349898
-0.346452
-0.34253
-0.338158
-0.333365
-0.328178
-0.322629
-0.31675
-0.310578
-0.304154
-0.297528
-0.290765
-0.283969
-0.277267
-0.270581
-0.263768
-0.259665
-0.353578
-0.35554
-0.356204
-0.356
-0.355181
-0.353771
-0.351789
-0.349257
-0.346193
-0.342619
-0.338558
-0.334034
-0.329075
-0.323708
-0.317959
-0.311857
-0.30543
-0.298712
-0.29174
-0.28457
-0.277297
-0.270047
-0.262746
-0.255272
-0.250665
-0.350914
-0.352905
-0.353559
-0.353323
-0.352456
-0.350984
-0.34893
-0.346316
-0.343164
-0.339494
-0.335331
-0.3307
-0.325625
-0.320132
-0.314242
-0.307977
-0.301355
-0.294397
-0.287124
-0.279571
-0.271813
-0.263961
-0.255926
-0.247586
-0.242228
-0.34893
-0.350919
-0.351548
-0.351272
-0.350357
-0.348831
-0.346717
-0.344042
-0.340827
-0.337095
-0.332869
-0.328174
-0.323034
-0.317468
-0.311496
-0.305129
-0.298375
-0.291237
-0.283716
-0.275817
-0.267584
-0.259095
-0.250227
-0.240809
-0.234399
-0.347651
-0.349597
-0.35018
-0.349856
-0.348891
-0.347315
-0.345155
-0.342437
-0.339185
-0.335421
-0.331169
-0.326452
-0.32129
-0.315702
-0.309699
-0.303285
-0.296456
-0.289196
-0.281482
-0.273284
-0.264604
-0.255475
-0.245719
-0.235057
-0.227281
-0.347091
-0.348946
-0.349457
-0.349073
-0.348053
-0.346432
-0.344235
-0.341491
-0.338223
-0.334454
-0.330205
-0.325499
-0.320353
-0.314781
-0.308789
-0.302373
-0.295514
-0.288181
-0.280324
-0.27188
-0.262802
-0.25307
-0.242441
-0.230471
-0.22106
-0.347248
-0.34896
-0.349371
-0.34891
-0.347828
-0.346161
-0.343934
-0.341175
-0.337907
-0.334151
-0.329928
-0.325257
-0.320153
-0.314626
-0.308674
-0.302285
-0.295431
-0.288063
-0.280112
-0.271481
-0.262077
-0.251828
-0.240434
-0.227243
-0.216019
-0.348109
-0.349622
-0.349901
-0.349344
-0.348189
-0.346469
-0.344211
-0.341442
-0.338182
-0.334451
-0.330267
-0.325647
-0.320601
-0.315135
-0.309242
-0.302905
-0.296086
-0.288724
-0.280732
-0.271988
-0.262355
-0.251705
-0.239691
-0.225425
-0.21223
-0.349646
-0.350907
-0.351019
-0.350344
-0.349097
-0.347313
-0.345017
-0.342235
-0.338984
-0.33528
-0.33114
-0.326576
-0.321596
-0.316202
-0.310386
-0.304126
-0.297383
-0.290094
-0.282164
-0.273455
-0.26379
-0.252961
-0.240489
-0.225119
-0.209559
-0.351822
-0.35278
-0.35269
-0.351869
-0.350509
-0.348643
-0.346297
-0.34349
-0.34024
-0.336559
-0.332458
-0.327949
-0.323038
-0.317724
-0.312003
-0.305856
-0.299254
-0.292152
-0.284481
-0.276144
-0.267006
-0.256869
-0.245153
-0.23025
-0.214047
-0.354594
-0.355203
-0.354877
-0.353881
-0.35238
-0.350409
-0.347992
-0.345145
-0.341881
-0.33821
-0.33414
-0.32968
-0.324834
-0.319605
-0.313992
-0.307988
-0.301587
-0.294778
-0.287559
-0.279941
-0.271979
-0.263801
-0.255573
-0.248108
-0.24713
-0.357916
-0.358139
-0.357543
-0.35634
-0.354668
-0.352565
-0.350051
-0.347142
-0.343846
-0.340168
-0.336116
-0.331693
-0.326905
-0.321757
-0.316255
-0.310405
-0.304222
-0.297729
-0.290971
-0.284029
-0.277042
-0.270244
-0.263966
-0.259012
-0.259194
-0.361749
-0.361554
-0.360655
-0.359214
-0.35734
-0.355074
-0.352437
-0.349441
-0.346089
-0.342386
-0.338333
-0.333932
-0.329189
-0.32411
-0.318707
-0.312998
-0.307016
-0.300805
-0.29444
-0.288028
-0.281731
-0.275773
-0.270433
-0.266139
-0.265121
-0.36606
-0.365422
-0.364191
-0.362479
-0.360372
-0.357913
-0.355125
-0.352016
-0.348587
-0.344836
-0.34076
-0.336361
-0.33164
-0.326606
-0.321274
-0.315671
-0.309837
-0.303831
-0.297734
-0.291655
-0.285736
-0.280148
-0.275071
-0.270682
-0.268313
-0.370825
-0.369724
-0.368135
-0.366125
-0.363755
-0.361075
-0.358109
-0.354862
-0.35133
-0.347507
-0.343385
-0.338959
-0.334228
-0.329201
-0.323895
-0.318339
-0.312578
-0.306672
-0.300702
-0.294762
-0.288964
-0.283427
-0.278255
-0.273496
-0.269943
-0.376034
-0.374453
-0.372484
-0.370149
-0.36749
-0.364565
-0.361397
-0.357988
-0.354329
-0.350407
-0.346206
-0.341716
-0.336933
-0.331861
-0.326518
-0.320933
-0.315152
-0.309234
-0.303252
-0.297288
-0.291427
-0.285751
-0.280323
-0.275138
-0.270675
-0.381687
-0.37961
-0.377241
-0.374562
-0.371593
-0.368401
-0.365009
-0.361414
-0.357602
-0.353547
-0.349229
-0.344629
-0.339735
-0.334552
-0.329094
-0.323393
-0.317494
-0.311454
-0.305341
-0.299226
-0.293179
-0.287262
-0.281517
-0.275927
-0.270791
-0.387792
-0.385204
-0.382419
-0.37938
-0.376085
-0.372608
-0.368972
-0.365168
-0.36117
-0.356944
-0.352459
-0.347687
-0.342614
-0.337239
-0.33158
-0.325669
-0.319553
-0.313291
-0.306948
-0.300591
-0.294282
-0.288075
-0.282006
-0.276058
-0.270436
-0.394365
-0.391249
-0.388035
-0.384624
-0.38099
-0.377214
-0.373315
-0.369274
-0.365052
-0.360605
-0.355891
-0.350875
-0.345539
-0.339884
-0.333931
-0.327716
-0.321292
-0.314722
-0.308073
-0.301411
-0.294796
-0.288279
-0.281896
-0.275639
-0.269658
-0.40142
-0.397758
-0.394105
-0.390314
-0.386334
-0.382244
-0.37806
-0.373748
-0.369256
-0.364527
-0.359509
-0.354164
-0.348473
-0.342444
-0.336102
-0.329495
-0.322683
-0.315735
-0.308723
-0.301715
-0.29477
-0.287939
-0.28126
-0.274729
-0.26847
-0.40897
-0.404744
-0.400644
-0.396468
-0.392133
-0.387716
-0.383219
-0.378595
-0.373775
-0.36869
-0.363282
-0.357512
-0.35137
-0.344869
-0.338049
-0.33097
-0.323703
-0.316325
-0.308911
-0.301531
-0.294246
-0.287105
-0.280144
-0.273365
-0.26687
-0.41702
-0.412213
-0.407659
-0.403097
-0.3984
-0.393635
-0.388793
-0.383803
-0.378584
-0.373057
-0.367162
-0.360867
-0.354172
-0.347108
-0.33973
-0.332112
-0.324338
-0.316491
-0.308651
-0.300888
-0.293261
-0.285815
-0.278584
-0.271571
-0.26486
-0.425566
-0.420159
-0.41515
-0.4102
-0.40513
-0.399994
-0.394761
-0.389341
-0.38364
-0.377574
-0.371088
-0.364164
-0.35682
-0.349107
-0.341102
-0.332893
-0.324575
-0.316236
-0.307958
-0.299808
-0.291841
-0.284098
-0.276605
-0.269367
-0.262447
-0.434589
-0.42857
-0.423104
-0.417763
-0.412306
-0.406766
-0.401086
-0.39516
-0.388881
-0.382169
-0.374984
-0.367328
-0.359246
-0.350814
-0.342127
-0.33329
-0.324405
-0.315563
-0.306844
-0.298311
-0.290011
-0.281977
-0.274231
-0.26677
-0.259645
-0.444056
-0.437416
-0.431494
-0.425759
-0.419894
-0.413906
-0.407712
-0.401188
-0.394225
-0.386757
-0.378765
-0.370284
-0.361386
-0.352176
-0.342769
-0.333281
-0.323818
-0.314473
-0.305319
-0.29641
-0.287786
-0.27947
-0.271477
-0.263797
-0.256469
-0.453918
-0.446653
-0.440279
-0.434143
-0.427842
-0.42135
-0.41456
-0.407336
-0.399577
-0.391239
-0.38234
-0.372948
-0.363173
-0.353143
-0.342992
-0.332844
-0.322806
-0.312965
-0.303385
-0.294113
-0.285175
-0.276588
-0.268355
-0.260462
-0.252935
-0.464106
-0.45622
-0.449399
-0.442851
-0.436077
-0.429014
-0.421534
-0.413499
-0.404827
-0.395511
-0.385612
-0.375241
-0.364541
-0.353666
-0.342763
-0.331958
-0.321355
-0.311032
-0.301043
-0.291421
-0.282184
-0.273336
-0.264873
-0.256771
-0.249053
-0.474536
-0.466041
-0.458779
-0.451803
-0.444508
-0.436794
-0.428519
-0.419555
-0.409856
-0.399462
-0.388484
-0.377081
-0.365428
-0.353699
-0.342048
-0.3306
-0.319451
-0.308666
-0.298286
-0.288331
-0.278809
-0.269714
-0.261032
-0.252729
-0.244831
-0.485104
-0.476019
-0.468323
-0.460897
-0.453022
-0.444565
-0.435383
-0.425373
-0.414537
-0.402977
-0.390861
-0.378391
-0.365774
-0.353196
-0.340814
-0.328746
-0.317074
-0.30585
-0.2951
-0.284833
-0.275042
-0.265714
-0.256827
-0.248334
-0.240272
-0.495688
-0.486041
-0.477918
-0.470011
-0.461489
-0.45219
-0.441984
-0.430812
-0.418742
-0.405945
-0.392648
-0.379096
-0.36552
-0.352113
-0.339027
-0.326367
-0.314202
-0.302566
-0.291471
-0.280911
-0.270871
-0.261328
-0.25225
-0.243581
-0.235372
-0.506151
-0.495977
-0.487432
-0.479008
-0.46976
-0.459513
-0.448166
-0.435727
-0.422341
-0.408255
-0.393756
-0.379126
-0.36461
-0.350405
-0.336649
-0.323434
-0.310808
-0.298789
-0.287376
-0.276548
-0.266279
-0.256539
-0.247288
-0.238458
-0.230123
-0.516339
-0.50568
-0.496717
-0.487732
-0.477673
-0.466369
-0.453772
-0.439971
-0.425206
-0.409801
-0.394099
-0.378411
-0.362992
-0.348028
-0.333645
-0.319914
-0.306863
-0.294495
-0.282791
-0.271719
-0.261244
-0.251329
-0.241926
-0.232952
-0.224514
-0.526084
-0.514988
-0.505607
-0.496011
-0.485053
-0.472585
-0.458637
-0.443401
-0.427215
-0.410483
-0.393597
-0.376888
-0.360611
-0.344939
-0.329977
-0.315773
-0.302337
-0.289654
-0.277689
-0.266402
-0.255746
-0.245679
-0.236144
-0.227047
-0.218532
-0.535206
-0.523726
-0.513928
-0.503664
-0.491717
-0.477985
-0.462601
-0.445875
-0.428251
-0.410207
-0.392174
-0.374497
-0.357419
-0.341094
-0.325605
-0.310975
-0.297197
-0.284235
-0.272043
-0.26057
-0.249761
-0.239568
-0.229924
-0.220727
-0.21216
-0.543517
-0.53171
-0.52149
-0.510501
-0.497476
-0.482392
-0.465507
-0.447261
-0.428205
-0.408885
-0.389761
-0.371178
-0.353365
-0.336451
-0.32049
-0.305486
-0.291409
-0.278208
-0.265825
-0.254197
-0.243264
-0.232972
-0.223246
-0.213972
-0.205382
-0.550824
-0.538748
-0.5281
-0.516327
-0.502144
-0.485635
-0.467205
-0.447435
-0.426978
-0.406438
-0.386293
-0.36688
-0.348404
-0.330967
-0.314596
-0.299271
-0.284941
-0.271543
-0.259006
-0.247258
-0.236233
-0.225872
-0.21609
-0.206766
-0.198182
-0.556926
-0.544644
-0.533561
-0.520946
-0.505535
-0.487548
-0.467555
-0.446282
-0.424478
-0.402793
-0.381711
-0.361552
-0.342492
-0.324604
-0.307886
-0.292295
-0.277763
-0.264212
-0.25156
-0.239729
-0.228645
-0.218247
-0.208439
-0.199091
-0.190545
-0.561627
-0.549201
-0.537675
-0.524167
-0.507473
-0.487977
-0.46643
-0.443701
-0.420626
-0.397886
-0.375963
-0.355149
-0.33559
-0.317324
-0.300325
-0.284526
-0.269844
-0.256186
-0.243462
-0.231586
-0.220481
-0.210078
-0.200275
-0.190933
-0.182458
-0.564735
-0.552227
-0.540252
-0.525807
-0.507791
-0.48678
-0.463715
-0.439602
-0.41535
-0.391661
-0.369001
-0.34763
-0.327659
-0.309094
-0.291883
-0.275937
-0.261158
-0.247443
-0.234691
-0.222811
-0.211722
-0.20135
-0.191584
-0.182281
-0.173908
-0.566065
-0.553537
-0.541108
-0.525694
-0.506339
-0.483833
-0.459311
-0.433908
-0.408592
-0.38407
-0.360784
-0.33896
-0.318668
-0.299885
-0.282532
-0.266503
-0.251683
-0.23796
-0.225228
-0.213387
-0.202354
-0.192051
-0.182356
-0.173123
-0.164887
-0.565445
-0.552957
-0.540073
-0.52367
-0.502981
-0.479027
-0.453134
-0.426555
-0.400301
-0.375074
-0.351281
-0.329108
-0.30859
-0.289672
-0.272249
-0.256201
-0.241399
-0.227723
-0.215058
-0.203302
-0.192366
-0.182171
-0.172582
-0.163454
-0.15539
-0.562715
-0.550325
-0.536991
-0.519597
-0.497601
-0.47227
-0.445116
-0.417493
-0.390441
-0.364641
-0.340464
-0.318052
-0.297404
-0.278433
-0.261017
-0.245015
-0.230292
-0.216717
-0.20417
-0.192545
-0.18175
-0.171703
-0.162259
-0.153272
-0.145414
-0.557735
-0.545501
-0.531727
-0.513354
-0.490104
-0.463492
-0.435207
-0.406687
-0.378984
-0.352751
-0.328315
-0.305775
-0.285093
-0.266156
-0.248821
-0.232935
-0.218352
-0.204934
-0.192558
-0.181112
-0.170504
-0.160647
-0.151385
-0.142577
-0.134962
-0.550382
-0.53836
-0.524166
-0.504845
-0.480414
-0.45264
-0.423372
-0.394113
-0.365914
-0.33939
-0.314822
-0.292265
-0.271648
-0.252831
-0.235655
-0.219954
-0.205573
-0.192371
-0.180219
-0.169003
-0.158628
-0.149005
-0.139966
-0.131374
-0.124038
-0.540559
-0.528801
-0.514215
-0.493996
-0.468481
-0.439682
-0.409592
-0.379762
-0.351226
-0.324557
-0.299984
-0.277522
-0.257066
-0.238456
-0.221516
-0.20607
-0.191957
-0.17903
-0.167157
-0.156221
-0.146128
-0.136782
-0.128009
-0.119674
-0.112652
-0.52819
-0.51675
-0.501806
-0.480756
-0.454273
-0.424605
-0.393867
-0.363638
-0.334927
-0.308256
-0.283805
-0.261548
-0.241352
-0.223035
-0.206408
-0.191288
-0.177508
-0.164916
-0.153377
-0.142775
-0.133012
-0.12399
-0.115525
-0.107489
-0.100818
-0.513225
-0.502153
-0.486899
-0.465101
-0.437783
-0.407414
-0.376209
-0.345759
-0.317034
-0.290503
-0.266299
-0.244357
-0.224515
-0.206578
-0.190342
-0.175618
-0.162235
-0.150039
-0.138892
-0.128676
-0.119294
-0.110645
-0.102533
-0.0948388
-0.0885543
-0.49564
-0.484985
-0.469475
-0.44703
-0.419027
-0.388135
-0.356648
-0.326154
-0.297575
-0.271326
-0.247489
-0.225967
-0.206575
-0.189099
-0.173331
-0.159074
-0.146154
-0.134414
-0.123716
-0.113942
-0.104992
-0.0967628
-0.0890524
-0.0817448
-0.0758837
-0.475438
-0.465249
-0.449547
-0.426566
-0.398038
-0.36681
-0.33523
-0.304867
-0.27659
-0.250757
-0.227406
-0.206406
-0.187554
-0.170623
-0.155396
-0.141675
-0.129281
-0.118059
-0.107868
-0.0985891
-0.0901245
-0.082367
-0.0751067
-0.0682333
-0.0628317
-0.452648
-0.442971
-0.427149
-0.403758
-0.374875
-0.343499
-0.312014
-0.281953
-0.254129
-0.228842
-0.206088
-0.18571
-0.167483
-0.151175
-0.136562
-0.123443
-0.111639
-0.100994
-0.0913678
-0.0826405
-0.074715
-0.0674816
-0.0607237
-0.0543341
-0.0494281
-0.427325
-0.418205
-0.402341
-0.378675
-0.349612
-0.318279
-0.287072
-0.25748
-0.230252
-0.205635
-0.183585
-0.163919
-0.146401
-0.130789
-0.116858
-0.104405
-0.0932525
-0.0832428
-0.0742377
-0.066118
-0.0587869
-0.0521327
-0.0459332
-0.0400816
-0.0357094
-0.399548
-0.391029
-0.375209
-0.351408
-0.322345
-0.291244
-0.260494
-0.231528
-0.205031
-0.181199
-0.159952
-0.141085
-0.124351
-0.109504
-0.0963181
-0.0845909
-0.0741458
-0.0648276
-0.0564992
-0.0490428
-0.0423627
-0.0363459
-0.0307661
-0.025514
-0.0217223
-0.369423
-0.361546
-0.34586
-0.32207
-0.293185
-0.262501
-0.232378
-0.204188
-0.17855
-0.155609
-0.135255
-0.117264
-0.101383
-0.0873631
-0.0749787
-0.0640308
-0.0543455
-0.0457704
-0.0381714
-0.031433
-0.025461
-0.0201424
-0.0152506
-0.0106713
-0.00751592
-0.337076
-0.329883
-0.314422
-0.290791
-0.262262
-0.232172
-0.202838
-0.175563
-0.1509
-0.128948
-0.109568
-0.0925241
-0.0775556
-0.0644154
-0.052881
-0.0427578
-0.0338767
-0.0260899
-0.0192679
-0.0132989
-0.00809118
-0.00353454
0.000592566
0.00441332
0.00688053
-0.302657
-0.296184
-0.281043
-0.25772
-0.229718
-0.200392
-0.172
-0.145767
-0.122186
-0.101311
-0.0829772
-0.0669389
-0.0529338
-0.0407168
-0.0300706
-0.0208068
-0.0127632
-0.00579921
0.000207957
0.00536378
0.0097552
0.0134854
0.0167642
0.0197366
0.0214842
-0.266333
-0.260617
-0.24589
-0.223019
-0.195712
-0.16731
-0.139999
-0.114927
-0.0925226
-0.0728005
-0.0555762
-0.0405944
-0.0275932
-0.0163319
-0.00659991
0.00178302
0.00897018
0.0150925
0.0202626
0.0245762
0.0281115
0.0309592
0.0333105
0.0353436
0.0363152
-0.22829
-0.223363
-0.209143
-0.186868
-0.160412
-0.133083
-0.106982
-0.0831765
-0.0620346
-0.0435336
-0.0274714
-0.0135871
-0.00162028
0.00866407
0.0174685
0.0249636
0.0312917
0.0365712
0.0409
0.0443585
0.0470126
0.0489366
0.0502816
0.0512187
0.0511704
-0.188729
-0.184619
-0.170999
-0.149455
-0.123999
-0.0978802
-0.0731064
-0.0506623
-0.0308577
-0.0136363
0.00121938
0.0139742
0.0248859
0.0341836
0.0420614
0.0486792
0.0541667
0.0586252
0.0621304
0.0647375
0.0664945
0.0674443
0.0676176
0.0670393
0.0654158
-0.147863
-0.144598
-0.131663
-0.11098
-0.0866615
-0.0618782
-0.0385368
-0.0175382
0.000863205
0.0167545
0.0303664
0.0419666
0.0518108
0.0601228
0.0670901
0.0728647
0.077565
0.0812753
0.0840435
0.0858925
0.0868421
0.0868504
0.0856341
0.0828698
0.0791512
-0.105918
-0.103519
-0.0913525
-0.0716501
-0.0485949
-0.0252603
-0.00344444
0.0160345
0.0329751
0.0474921
0.0598275
0.0702517
0.0790184
0.086349
0.0924287
0.0974087
0.101407
0.104507
0.106752
0.108168
0.108785
0.108463
0.106454
0.102047
0.0974285
-0.0631291
-0.0616121
-0.0502903
-0.0316788
-0.0100002
0.0117859
0.0319946
0.0498895
0.0653191
0.0784228
0.0894518
0.0986779
0.106353
0.112698
0.117897
0.122106
0.125454
0.128042
0.12995
0.131278
0.13218
0.132598
0.131611
0.128704
0.131171
-0.0197276
-0.0191088
-0.00870183
0.00871844
0.0289196
0.0490701
0.0676018
0.0838582
0.0977338
0.10939
0.119085
0.12709
0.133655
0.138996
0.143298
0.146717
0.149386
0.151415
0.152904
0.153982
0.154816
0.155378
0.155164
0.154642
0.159423
0.0240418
0.0237518
0.0331815
0.0493222
0.0679592
0.0864011
0.103198
0.117771
0.130058
0.140238
0.148575
0.155336
0.160769
0.165086
0.168468
0.17107
0.173026
0.174451
0.17545
0.176154
0.176703
0.177069
0.1769
0.17673
0.180977
0.0679348
0.0667302
0.0751285
0.089914
0.106915
0.123589
0.138606
0.151463
0.162134
0.170816
0.177773
0.183272
0.187552
0.190819
0.193251
0.194997
0.196188
0.196937
0.197348
0.197543
0.197648
0.197641
0.19723
0.196843
0.200081
0.111708
0.109587
0.116909
0.130277
0.145584
0.160446
0.173652
0.184769
0.193808
0.200977
0.206542
0.210762
0.213872
0.216069
0.217522
0.218377
0.218757
0.218767
0.218505
0.218078
0.217593
0.217021
0.216096
0.215214
0.217491
0.155119
0.152086
0.158296
0.170197
0.183769
0.19679
0.208166
0.217531
0.224931
0.230582
0.234748
0.237683
0.239611
0.240722
0.241178
0.241115
0.240647
0.239872
0.23888
0.237763
0.236613
0.235385
0.233836
0.232358
0.233705
0.197931
0.193992
0.199065
0.209466
0.221276
0.23244
0.241982
0.249598
0.255361
0.259498
0.262268
0.263918
0.264662
0.264682
0.264129
0.263131
0.261793
0.260206
0.258448
0.256601
0.254739
0.252812
0.250599
0.248496
0.248953
0.239909
0.235077
0.238998
0.247878
0.257915
0.267225
0.27494
0.28082
0.284963
0.287599
0.288986
0.289361
0.288928
0.28786
0.286298
0.28436
0.282146
0.279734
0.277195
0.274603
0.272016
0.269378
0.266499
0.263771
0.263376
0.280826
0.275119
0.277883
0.285236
0.293506
0.300976
0.306888
0.311057
0.313605
0.314767
0.314792
0.313911
0.312317
0.310173
0.307612
0.304743
0.301656
0.298422
0.295105
0.291768
0.288459
0.285123
0.281591
0.278252
0.277043
0.320463
0.313902
0.315514
0.321349
0.327873
0.333533
0.337678
0.340174
0.341164
0.340885
0.339581
0.337472
0.334743
0.331546
0.328006
0.324222
0.320277
0.316236
0.312154
0.308086
0.304073
0.300059
0.2959
0.291971
0.289981
0.358608
0.351219
0.351695
0.356035
0.360847
0.364743
0.367168
0.368041
0.36752
0.365845
0.363252
0.359953
0.356123
0.351905
0.347413
0.342741
0.337963
0.333138
0.328313
0.323538
0.318846
0.314182
0.309426
0.304932
0.302194
0.395056
0.386871
0.386237
0.389118
0.392268
0.394456
0.395224
0.394534
0.39256
0.389542
0.385711
0.381268
0.376379
0.371177
0.365771
0.360244
0.354665
0.349085
0.343548
0.338096
0.332755
0.327475
0.322154
0.317123
0.313672
0.429616
0.420669
0.418962
0.420433
0.421983
0.422535
0.421718
0.419536
0.416176
0.411878
0.406866
0.401332
0.395433
0.389295
0.383016
0.376675
0.370332
0.364035
0.357821
0.351726
0.345772
0.339912
0.334061
0.32852
0.324393
0.462103
0.452434
0.449699
0.449822
0.44985
0.448848
0.446529
0.442935
0.438265
0.432758
0.42663
0.420066
0.413213
0.40619
0.399087
0.391977
0.384915
0.377941
0.371089
0.364391
0.357861
0.35146
0.345116
0.339096
0.33433
0.492345
0.481999
0.47829
0.477139
0.475731
0.47327
0.469543
0.464626
0.458731
0.452092
0.444921
0.437393
0.429649
0.421798
0.413925
0.406097
0.398362
0.390758
0.383312
0.376051
0.368988
0.362085
0.355285
0.348819
0.343456
0.520183
0.509207
0.504588
0.502246
0.499503
0.495686
0.490653
0.484512
0.477482
0.469797
0.46166
0.453242
0.444673
0.436057
0.427474
0.418982
0.410626
0.40244
0.394447
0.386668
0.379114
0.371751
0.364534
0.357656
0.351739
0.545468
0.533914
0.528455
0.525017
0.521048
0.515989
0.509762
0.502502
0.494436
0.485795
0.476777
0.467545
0.458224
0.44891
0.439677
0.43058
0.421659
0.412943
0.404451
0.396202
0.388202
0.380423
0.372829
0.365575
0.35915
0.568064
0.555988
0.549767
0.545337
0.54026
0.534081
0.52678
0.518513
0.509515
0.500014
0.490204
0.48024
0.470243
0.460302
0.450486
0.440846
0.431417
0.422225
0.413287
0.404616
0.396217
0.388066
0.380135
0.372543
0.365661
0.587849
0.575309
0.568411
0.563102
0.557043
0.549875
0.541624
0.532468
0.522647
0.512388
0.50188
0.491271
0.480677
0.470183
0.459854
0.449735
0.439859
0.430248
0.420917
0.411876
0.403126
0.394649
0.386422
0.378532
0.371246
0.604715
0.591772
0.584288
0.578218
0.571313
0.563291
0.554222
0.544301
0.533772
0.52286
0.51175
0.500587
0.489479
0.47851
0.467738
0.457207
0.446947
0.436976
0.427308
0.417948
0.408898
0.400142
0.391662
0.383515
0.375881
0.618566
0.605284
0.597309
0.590604
0.582994
0.574261
0.564511
0.553953
0.542834
0.531379
0.519768
0.508142
0.496607
0.485242
0.474102
0.463229
0.452649
0.442379
0.43243
0.422806
0.413506
0.404519
0.39583
0.387468
0.379544
0.629322
0.615767
0.607403
0.600194
0.592023
0.582727
0.572436
0.561373
0.549786
0.5379
0.525891
0.513899
0.502025
0.490345
0.478914
0.467769
0.456935
0.446429
0.436257
0.426424
0.416928
0.407758
0.398903
0.390371
0.382219
0.636918
0.623158
0.614506
0.606929
0.59835
0.588641
0.577954
0.56652
0.554591
0.542388
0.530088
0.517826
0.505703
0.493792
0.482147
0.470803
0.459784
0.449104
0.43877
0.428784
0.419143
0.409841
0.400865
0.392208
0.38389
0.641301
0.627406
0.618574
0.610768
0.601933
0.591965
0.581031
0.569363
0.557218
0.544815
0.53233
0.519898
0.507618
0.495562
0.483782
0.472312
0.461176
0.450387
0.439951
0.429869
0.420138
0.410753
0.401701
0.392966
0.384546
0.642437
0.628477
0.619573
0.611679
0.602745
0.592675
0.581641
0.569879
0.557646
0.545161
0.532601
0.5201
0.507755
0.495639
0.483803
0.472282
0.461099
0.450266
0.439789
0.429669
0.419902
0.410484
0.401402
0.392635
0.384179
0.640305
0.62635
0.617484
0.609644
0.600768
0.590754
0.579771
0.568056
0.555863
0.543416
0.53089
0.518419
0.506103
0.494014
0.482204
0.470707
0.459545
0.448734
0.438277
0.428177
0.41843
0.40903
0.399963
0.391212
0.382786
0.634899
0.62102
0.612301
0.60466
0.595999
0.586199
0.575417
0.563888
0.551867
0.539576
0.527194
0.514855
0.502662
0.490686
0.478981
0.467583
0.456514
0.445789
0.435415
0.425393
0.41572
0.406388
0.397383
0.388696
0.380365
0.626229
0.612496
0.604034
0.596732
0.588446
0.579017
0.568586
0.557383
0.545662
0.533646
0.521517
0.509412
0.497434
0.485659
0.47414
0.462915
0.452009
0.441437
0.431206
0.421319
0.411775
0.402563
0.393665
0.385089
0.376919
0.61432
0.600803
0.592705
0.585884
0.578126
0.569224
0.559294
0.548556
0.537263
0.525641
0.513874
0.502102
0.490433
0.478943
0.46769
0.456713
0.446039
0.435684
0.425658
0.415965
0.406604
0.397563
0.388818
0.380399
0.372455
0.599213
0.58598
0.578351
0.572148
0.565072
0.556851
0.547568
0.537432
0.526693
0.515581
0.504283
0.492944
0.481675
0.470556
0.459648
0.448993
0.438619
0.428547
0.418786
0.409343
0.40022
0.391399
0.382853
0.374637
0.366981
0.580961
0.56808
0.561022
0.555572
0.549327
0.541936
0.533445
0.524045
0.513985
0.503498
0.492774
0.481965
0.471186
0.460522
0.450036
0.439775
0.42977
0.420043
0.410606
0.401471
0.392639
0.384088
0.375786
0.367818
0.360512
0.559636
0.547171
0.540782
0.536213
0.530944
0.52453
0.516971
0.508438
0.499179
0.489428
0.479382
0.469198
0.458997
0.448869
0.438882
0.429086
0.419516
0.410196
0.401143
0.392371
0.383881
0.37565
0.367637
0.35996
0.353064
0.535321
0.523334
0.517709
0.514145
0.509989
0.504694
0.498201
0.490664
0.482322
0.473416
0.464148
0.454682
0.445145
0.435633
0.426218
0.416957
0.407886
0.399035
0.390423
0.382067
0.373973
0.36611
0.358428
0.351086
0.344655
0.508116
0.496667
0.491891
0.489449
0.48654
0.482497
0.477202
0.470782
0.463472
0.455516
0.447123
0.438464
0.429673
0.420854
0.412084
0.403423
0.394916
0.386592
0.378477
0.37059
0.362941
0.355494
0.348188
0.341221
0.335309
0.478132
0.467276
0.463433
0.462221
0.460683
0.458021
0.454047
0.448861
0.442692
0.435786
0.428361
0.420595
0.41263
0.404577
0.396521
0.388526
0.380641
0.372902
0.365337
0.357971
0.350817
0.343832
0.336944
0.330391
0.32505
0.445494
0.435287
0.43245
0.432568
0.432517
0.431355
0.42882
0.424979
0.420054
0.414293
0.407924
0.401132
0.394069
0.386853
0.379575
0.372307
0.365103
0.358004
0.351041
0.344246
0.337633
0.331156
0.324729
0.318627
0.313904
0.410343
0.400832
0.399069
0.400607
0.402148
0.402598
0.401611
0.399219
0.395634
0.391109
0.385878
0.380138
0.374047
0.367734
0.361297
0.354815
0.348346
0.341938
0.335627
0.329449
0.323424
0.3175
0.311574
0.30596
0.301899
0.372829
0.36406
0.363429
0.366468
0.369697
0.371859
0.372521
0.371674
0.369519
0.366313
0.362297
0.357679
0.352627
0.347278
0.34174
0.336096
0.330415
0.324746
0.319133
0.313617
0.308225
0.302896
0.297511
0.29242
0.289064
0.333116
0.325129
0.32568
0.330288
0.335289
0.339255
0.341656
0.342441
0.341798
0.339987
0.337257
0.333826
0.329874
0.325546
0.320957
0.316202
0.311354
0.30647
0.301598
0.296786
0.292067
0.287376
0.282573
0.278036
0.275425
0.291379
0.284211
0.285984
0.292217
0.299061
0.30491
0.30913
0.311626
0.312569
0.312221
0.31084
0.308655
0.305856
0.302598
0.299007
0.295185
0.291211
0.287151
0.283058
0.278989
0.274982
0.270968
0.266784
0.262833
0.261006
0.247804
0.241488
0.244513
0.252414
0.26116
0.268958
0.275067
0.27934
0.281934
0.283109
0.283133
0.282244
0.280645
0.278501
0.275947
0.273094
0.270031
0.266829
0.263549
0.260254
0.256993
0.253694
0.250166
0.246831
0.245823
0.202586
0.19715
0.201447
0.211048
0.221738
0.231539
0.239595
0.245704
0.250002
0.252751
0.254226
0.254677
0.254316
0.253321
0.251836
0.249982
0.247856
0.245539
0.243097
0.240604
0.238118
0.235565
0.232727
0.230035
0.229885
0.155934
0.151399
0.156979
0.168294
0.180959
0.192803
0.202851
0.21084
0.216888
0.221252
0.224216
0.226039
0.226947
0.227127
0.226735
0.2259
0.224731
0.223314
0.221727
0.220053
0.21836
0.216579
0.21446
0.212435
0.21318
0.108061
0.104446
0.111308
0.124339
0.138993
0.152905
0.164976
0.174882
0.182712
0.188723
0.193203
0.196424
0.198621
0.199993
0.200706
0.200901
0.200694
0.200182
0.199454
0.198601
0.197709
0.196712
0.195329
0.193988
0.19567
0.0591914
0.0565104
0.0646414
0.0793756
0.096018
0.112009
0.126122
0.137966
0.147602
0.15528
0.161295
0.165928
0.169425
0.171996
0.173818
0.17504
0.175789
0.176172
0.176287
0.17624
0.176135
0.175914
0.175266
0.174612
0.177273
0.00955616
0.00781696
0.0171952
0.0336049
0.0522186
0.0702846
0.0864456
0.100238
0.111691
0.121048
0.128607
0.134658
0.139457
0.143224
0.146145
0.148379
0.150062
0.15131
0.152232
0.152948
0.153581
0.15409
0.154134
0.154136
0.157825
-0.0406079
-0.0414017
-0.0308091
-0.012766
0.00778654
0.0279087
0.0461094
0.0618484
0.0751211
0.0861586
0.0952618
0.102728
0.108822
0.113772
0.117774
0.120994
0.123574
0.125641
0.127308
0.128715
0.130004
0.131144
0.131762
0.132313
0.137067
-0.0910588
-0.0909083
-0.0791444
-0.0595246
-0.0370811
-0.0149362
0.00528317
0.0229565
0.0380403
0.0507518
0.0613921