/*--------------------------------*- C++ -*----------------------------------*\
  =========                 |
  \\      /  F ield         | OpenFOAM: The Open Source CFD Toolbox
   \\    /   O peration     | Website:  https://openfoam.org
    \\  /    A nd           | Version:  6.0
     \\/     M anipulation  |
\*---------------------------------------------------------------------------*/
FoamFile
{
    version     2.0;
    format      ascii;
    class       volVectorField;
    location    "68";
    object      U;
}
// * * * * * * * * * * * * * * * * * * * * * * * * * * * * * * * * * * * * * //

dimensions      [0 1 -1 0 0 0 0];

internalField   nonuniform List<vector> 
12500
(
(-0.00018681 -0.0369707 -1.09708e-21)
(-0.00293624 -0.0837135 1.39852e-20)
(-0.00911641 -0.110221 -2.0181e-20)
(-0.0171914 -0.121777 9.24824e-21)
(-0.026307 -0.122615 5.92271e-22)
(-0.0359435 -0.116033 -1.2016e-21)
(-0.0457001 -0.104509 -1.6782e-20)
(-0.0552774 -0.0898387 9.22389e-21)
(-0.0644543 -0.0732768 6.01329e-21)
(-0.0730619 -0.0556606 6.16658e-21)
(-0.0809658 -0.0375207 -1.03974e-20)
(-0.0880563 -0.0191716 6.06751e-21)
(-0.0942414 -0.000780041 -2.84863e-21)
(-0.0994446 0.0175842 4.80173e-21)
(-0.103604 0.0359146 -1.22834e-20)
(-0.106673 0.0542461 1.79236e-20)
(-0.108624 0.0726431 -3.51237e-21)
(-0.109449 0.0911925 -1.25049e-20)
(-0.109167 0.110001 6.2877e-21)
(-0.107826 0.129194 -5.99426e-21)
(-0.105493 0.148912 5.42723e-21)
(-0.102264 0.169306 7.31138e-21)
(-0.0984195 0.190531 6.70398e-22)
(-0.0945412 0.212782 -2.05935e-20)
(-0.0899884 0.236302 1.08322e-20)
(0.000843319 -0.0350986 1.79113e-20)
(-0.000696755 -0.0790799 -4.6688e-20)
(-0.00628493 -0.103637 1.39444e-20)
(-0.0141425 -0.113865 9.20046e-21)
(-0.0232596 -0.113864 -7.36001e-21)
(-0.0330165 -0.106822 -4.14148e-20)
(-0.042948 -0.0951361 1.23656e-20)
(-0.0527169 -0.0805445 -2.30805e-20)
(-0.0620825 -0.0642623 2.77047e-20)
(-0.070869 -0.0471021 -3.70248e-20)
(-0.0789432 -0.0295797 1.99085e-20)
(-0.0862015 -0.0119996 6.16054e-21)
(-0.0925611 0.00547903 -1.6102e-20)
(-0.097956 0.0227944 -7.26253e-21)
(-0.102335 0.03995 5.19866e-20)
(-0.105662 0.0569951 -4.57912e-20)
(-0.107916 0.0740132 1.08027e-20)
(-0.109098 0.0911173 1.88644e-20)
(-0.109227 0.108448 -4.65975e-21)
(-0.108351 0.126173 3.07559e-20)
(-0.106538 0.144489 5.29978e-21)
(-0.10388 0.163609 -1.62327e-21)
(-0.100612 0.183765 -3.79931e-20)
(-0.0972301 0.205238 3.50852e-20)
(-0.093353 0.228405 -6.61423e-20)
(0.00177055 -0.0331432 5.63411e-20)
(0.00133663 -0.0743092 1.91186e-20)
(-0.00365828 -0.0969375 -2.44165e-20)
(-0.011236 -0.105906 1.02673e-20)
(-0.0202525 -0.105152 1.01495e-20)
(-0.0299994 -0.0977403 3.76805e-20)
(-0.0399542 -0.0859756 -4.74941e-20)
(-0.0497463 -0.0715322 -7.24481e-21)
(-0.0591184 -0.0555827 -3.14887e-20)
(-0.0678896 -0.0389137 -2.63476e-20)
(-0.0759297 -0.0220256 3.46766e-20)
(-0.0831428 -0.00521334 -1.14343e-19)
(-0.0894572 0.0113707 -3.10843e-21)
(-0.0948191 0.0276714 -6.80008e-20)
(-0.0991903 0.0437008 -7.88094e-21)
(-0.102547 0.0595195 1.00075e-20)
(-0.10488 0.0752266 -5.2092e-20)
(-0.106197 0.0909559 -3.24225e-20)
(-0.106526 0.106876 -3.86802e-20)
(-0.105918 0.123191 6.09111e-20)
(-0.104444 0.140142 2.23893e-20)
(-0.102197 0.158002 -9.66229e-20)
(-0.0993708 0.177072 -4.66345e-20)
(-0.0963683 0.197722 -5.11729e-20)
(-0.0931048 0.220449 1.4017e-19)
(0.00258969 -0.0311463 -2.43441e-21)
(0.0031466 -0.0694919 -4.35068e-20)
(-0.00127302 -0.0902408 -1.97406e-20)
(-0.00853065 -0.0980296 1.19704e-20)
(-0.0173686 -0.0966143 7.93668e-20)
(-0.0270001 -0.0889252 -3.6371e-20)
(-0.0368525 -0.0771656 7.62475e-20)
(-0.0465254 -0.06294 7.19835e-20)
(-0.0557472 -0.0473758 4.40851e-20)
(-0.0643334 -0.0312319 -9.59546e-22)
(-0.0721574 -0.0149924 8.83463e-20)
(-0.0791323 0.00105727 1.50266e-20)
(-0.085198 0.016771 6.69118e-20)
(-0.0903143 0.0320995 1.52433e-19)
(-0.094457 0.0470617 -1.76353e-19)
(-0.0976161 0.061727 2.63754e-19)
(-0.0997957 0.0762067 5.69385e-20)
(-0.101015 0.0906508 -1.24495e-19)
(-0.10131 0.105249 -1.79887e-20)
(-0.100739 0.120236 4.62185e-20)
(-0.0993817 0.135889 -2.18838e-20)
(-0.0973408 0.152533 -1.20949e-20)
(-0.0947681 0.170535 -1.22378e-20)
(-0.0919689 0.190355 -5.09925e-20)
(-0.0891812 0.212586 1.82461e-19)
(0.0032986 -0.0291422 2.81257e-20)
(0.00472127 -0.0647022 -1.32644e-19)
(0.000839039 -0.083641 1.60005e-19)
(-0.00608269 -0.09034 -6.42335e-20)
(-0.0146904 -0.0883618 7.56284e-20)
(-0.024129 -0.0804909 6.08242e-20)
(-0.0337816 -0.0688231 2.3028e-20)
(-0.0432218 -0.0548885 -1.50841e-22)
(-0.0521651 -0.039766 1.301e-19)
(-0.0604242 -0.0241848 8.90361e-20)
(-0.0678767 -0.00861169 -3.70822e-20)
(-0.0744445 0.00667754 -2.346e-20)
(-0.0800795 0.0215431 9.64591e-20)
(-0.0847552 0.0359408 1.83937e-20)
(-0.0884616 0.049895 4.80072e-20)
(-0.091203 0.063482 1.16582e-19)
(-0.0929975 0.076822 -1.0253e-19)
(-0.0938769 0.0900772 8.32741e-20)
(-0.0938885 0.103454 -1.74276e-19)
(-0.0930994 0.117208 1.45787e-19)
(-0.0916034 0.13165 4.89147e-22)
(-0.0895167 0.147145 -1.13262e-19)
(-0.0869585 0.164124 4.75409e-20)
(-0.0841308 0.183138 1.04626e-19)
(-0.0816036 0.204853 -1.53533e-19)
(0.00389709 -0.0271556 1.42942e-19)
(0.00605215 -0.0599937 -1.51824e-19)
(0.00264933 -0.0772078 -2.5753e-20)
(-0.00394559 -0.0829158 3.0154e-20)
(-0.0122987 -0.0804781 -6.70586e-20)
(-0.0214957 -0.0725259 -1.0523e-19)
(-0.0308811 -0.0610421 -8.64654e-20)
(-0.0400052 -0.0474781 -2.09156e-20)
(-0.0485725 -0.0328612 -1.49699e-19)
(-0.0563928 -0.0178888 1.15151e-19)
(-0.0633481 -0.00300926 -1.82589e-19)
(-0.0693684 0.0115121 9.06018e-20)
(-0.0744171 0.0255419 -3.22257e-20)
(-0.0784806 0.0390403 7.01842e-20)
(-0.0815626 0.0520362 -1.7531e-19)
(-0.0836816 0.064611 8.18893e-20)
(-0.0848691 0.0768916 4.74385e-21)
(-0.0851702 0.0890488 3.71324e-20)
(-0.0846444 0.101301 2.21264e-19)
(-0.0833703 0.113921 4.6299e-20)
(-0.0814575 0.127243 -6.23425e-21)
(-0.0790426 0.141668 1.33293e-20)
(-0.0762212 0.157688 9.02981e-20)
(-0.0730915 0.175944 2.41935e-20)
(-0.0705466 0.197152 8.16576e-20)
(0.00438567 -0.0252021 -8.92797e-20)
(0.00713224 -0.0554003 1.26599e-19)
(0.00413147 -0.0709854 7.50733e-21)
(-0.00217006 -0.0758076 -1.53734e-19)
(-0.0102709 -0.0730187 3.19244e-19)
(-0.019206 -0.0650912 -1.04146e-19)
(-0.028286 -0.0538903 1.49809e-19)
(-0.0370414 -0.040785 1.37728e-19)
(-0.0451661 -0.026748 -1.14217e-19)
(-0.052468 -0.0124428 -1.64868e-19)
(-0.0588324 0.00170241 4.47059e-20)
(-0.064197 0.0154336 -4.66947e-20)
(-0.0685349 0.0286235 -2.0735e-19)
(-0.0718444 0.0412369 2.48002e-19)
(-0.0741416 0.053306 -1.18292e-19)
(-0.0754576 0.0649162 -8.17234e-20)
(-0.0758367 0.076199 -1.09653e-21)
(-0.0753367 0.0873316 6.33669e-20)
(-0.0740293 0.0985411 2.69407e-20)
(-0.0720061 0.110113 -1.05769e-19)
(-0.0693945 0.1224 1.15292e-19)
(-0.066356 0.135833 -2.05186e-19)
(-0.0629748 0.150961 1.22862e-19)
(-0.0592507 0.16852 -9.53701e-20)
(-0.0563745 0.189257 2.51102e-20)
(0.00476438 -0.023288 1.24389e-19)
(0.00795426 -0.050936 -9.57933e-20)
(0.0052601 -0.0649932 -6.14432e-20)
(-0.000803796 -0.0690388 -1.07661e-19)
(-0.00867928 -0.0660111 -1.97684e-19)
(-0.0173579 -0.0582194 -1.46454e-19)
(-0.0261221 -0.0474075 8.93744e-20)
(-0.0344846 -0.0348585 -1.35577e-19)
(-0.0421309 -0.0214876 1.7235e-19)
(-0.0488666 -0.00792189 -2.79186e-19)
(-0.0545796 0.00543181 1.23261e-19)
(-0.0592141 0.0183316 2.59627e-19)
(-0.0627517 0.030657 -3.62431e-19)
(-0.0652002 0.0423764 5.11804e-20)
(-0.0665865 0.0535252 6.55488e-20)
(-0.0669521 0.0641915 6.41315e-20)
(-0.0663523 0.0745104 -7.06665e-20)
(-0.0648562 0.0846635 -1.9189e-20)
(-0.0625473 0.0948843 -4.83524e-20)
(-0.0595303 0.105469 -4.20936e-20)
(-0.0559513 0.116785 -2.20295e-19)
(-0.0520014 0.12929 -1.37382e-20)
(-0.0477666 0.143586 1.47258e-21)
(-0.0431611 0.160509 -9.89375e-20)
(-0.0396371 0.180825 9.90684e-20)
(0.00503189 -0.0214114 2.69593e-21)
(0.0085092 -0.0465975 3.92304e-20)
(0.00601039 -0.0592282 3.98758e-20)
(0.000109349 -0.0626075 2.47149e-20)
(-0.00758816 -0.0594557 1.97744e-19)
(-0.016038 -0.0519151 1.83974e-19)
(-0.0244992 -0.0416045 -1.50305e-19)
(-0.0324703 -0.029718 -4.38253e-20)
(-0.0396296 -0.0171106 -3.99432e-20)
(-0.0457808 -0.00437108 2.06342e-19)
(-0.0508142 0.00811691 7.21316e-20)
(-0.0546787 0.0201243 -1.07781e-19)
(-0.0573627 0.0315373 -8.88466e-20)
(-0.0588816 0.042328 2.14478e-19)
(-0.0592701 0.0525337 -5.26493e-20)
(-0.0585778 0.0622447 -6.24282e-20)
(-0.0568685 0.0715985 -8.72029e-20)
(-0.0542199 0.0807802 -6.66006e-20)
(-0.0507262 0.0900294 -8.33282e-20)
(-0.0465042 0.0996507 -5.43447e-20)
(-0.0417195 0.110027 2.25474e-19)
(-0.0365957 0.121639 -1.09098e-19)
(-0.0312354 0.135143 7.30665e-20)
(-0.0254875 0.15148 -1.90673e-19)
(-0.0210259 0.171434 7.80295e-20)
(0.0051848 -0.0195638 -1.0854e-19)
(0.00878558 -0.0423669 -2.73154e-20)
(0.00635813 -0.0536683 -2.20193e-19)
(0.000530907 -0.05649 -1.04169e-19)
(-0.00705113 -0.0533286 -2.07641e-19)
(-0.0153159 -0.046156 -2.15939e-20)
(-0.0235047 -0.036463 1.10902e-19)
(-0.0311055 -0.0253515 -6.57832e-20)
(-0.0377915 -0.0136141 1.43999e-19)
(-0.0433653 -0.00179912 -3.47376e-19)
(-0.047719 0.00973394 -9.00024e-21)
(-0.0508052 0.0207695 6.09957e-20)
(-0.0526174 0.0312004 -7.71079e-20)
(-0.053176 0.0410016 6.88759e-20)
(-0.0525209 0.0502117 -5.17012e-20)
(-0.0507068 0.0589219 -1.09418e-19)
(-0.0478022 0.0672711 1.98768e-19)
(-0.0438909 0.0754478 1.21304e-19)
(-0.0390745 0.083697 -2.52124e-20)
(-0.0334809 0.0923336 7.70608e-20)
(-0.0272945 0.101756 -1.52591e-19)
(-0.0207734 0.11247 2.17715e-19)
(-0.0140513 0.125188 -2.96428e-19)
(-0.00693969 0.140966 6.22272e-20)
(-0.00130033 0.160612 -1.12246e-19)
(0.00521738 -0.0177321 5.53504e-21)
(0.00876948 -0.0382162 -9.16847e-20)
(0.00628077 -0.0482777 1.40385e-19)
(0.000430168 -0.050645 2.86525e-19)
(-0.00710691 -0.0475855 -3.49522e-21)
(-0.015239 -0.0408962 3.21663e-20)
(-0.0231958 -0.0319367 -1.20492e-19)
(-0.0304592 -0.0217149 5.80978e-20)
(-0.0366997 -0.0109584 3.86826e-19)
(-0.0417205 -0.000173656 -8.80754e-20)
(-0.0454155 0.010305 -1.01465e-19)
(-0.0477403 0.0202758 3.84696e-19)
(-0.0486916 0.0296376 1.22054e-19)
(-0.0482928 0.0383673 5.76738e-20)
(-0.0465861 0.046503 5.7503e-20)
(-0.0436278 0.0541355 1.60003e-19)
(-0.0394876 0.0614039 -6.12278e-20)
(-0.0342511 0.0684991 1.56038e-19)
(-0.0280237 0.0756723 2.10055e-19)
(-0.0209413 0.0832502 -1.79769e-19)
(-0.0132054 0.0916506 2.62414e-19)
(-0.00510972 0.101411 8.88561e-20)
(0.00316779 0.113304 -3.43666e-19)
(0.0118192 0.128513 4.90355e-19)
(0.0188155 0.147893 -3.90556e-19)
(0.00512181 -0.0159007 -2.63233e-19)
(0.00844551 -0.034112 1.46511e-19)
(0.00575951 -0.0430118 -9.73492e-20)
(-0.000212543 -0.04502 -9.38477e-20)
(-0.00777474 -0.0421665 -9.83387e-20)
(-0.0158258 -0.0360696 -1.07707e-19)
(-0.023591 -0.027955 3.04148e-20)
(-0.0305512 -0.0187336 2.78184e-19)
(-0.036378 -0.00906695 -6.13973e-20)
(-0.0408766 0.000581658 -1.54366e-19)
(-0.0439436 0.00990388 -9.2304e-20)
(-0.0455374 0.0187113 -3.84441e-20)
(-0.0456566 0.0269083 1.06248e-19)
(-0.0443261 0.0344717 -7.05255e-20)
(-0.0415874 0.0414374 -2.25818e-19)
(-0.0374952 0.0478926 -2.44439e-19)
(-0.0321165 0.0539749 9.62746e-20)
(-0.0255338 0.0598759 -1.77961e-19)
(-0.0178516 0.0658528 1.47477e-19)
(-0.00920964 0.0722463 -4.21413e-19)
(0.000176553 0.0794988 3.179e-19)
(0.00997865 0.0881871 -4.14927e-19)
(0.0199635 0.09916 -5.88799e-21)
(0.0302894 0.113745 -1.35081e-19)
(0.0387607 0.13287 3.90209e-19)
(0.00488892 -0.0140544 4.01017e-19)
(0.00779868 -0.0300209 5.79826e-20)
(0.00478221 -0.0378243 -3.74921e-20)
(-0.00140187 -0.039557 -1.69351e-20)
(-0.00904924 -0.0370027 3.01214e-19)
(-0.0170596 -0.0315962 9.65797e-20)
(-0.0246622 -0.0244264 8.6258e-20)
(-0.0313425 -0.0163059 -7.03792e-20)
(-0.0367772 -0.00782835 2.68751e-19)
(-0.040776 0.000586934 -1.33254e-19)
(-0.0432397 0.00865778 8.64339e-20)
(-0.0441296 0.0162089 2.11658e-19)
(-0.043446 0.0231487 -1.20853e-19)
(-0.0412134 0.0294519 1.26355e-19)
(-0.0374712 0.035149 1.18066e-19)
(-0.0322693 0.0403205 4.09438e-20)
(-0.0256681 0.0450981 -9.73012e-20)
(-0.0177428 0.0496708 2.66943e-19)
(-0.00859135 0.0543003 -2.50293e-20)
(0.00164805 0.0593417 -2.6823e-20)
(0.0127507 0.0652675 3.04627e-19)
(0.0243562 0.0727053 -2.12333e-19)
(0.0361688 0.0825971 3.52512e-19)
(0.0482747 0.0964422 -2.87722e-19)
(0.0582897 0.115282 3.59798e-19)
(0.00450937 -0.0121811 -1.8941e-19)
(0.00681718 -0.0259147 4.06666e-20)
(0.00334709 -0.0326732 -4.22731e-20)
(-0.00312303 -0.0341999 -2.09123e-19)
(-0.0108953 -0.0320225 1.2031e-20)
(-0.0188827 -0.0273881 1.15983e-19)
(-0.0263271 -0.0212459 -4.76284e-19)
(-0.0327254 -0.0143087 3.52629e-19)
(-0.0377636 -0.00710119 -3.4284e-19)
(-0.0412591 1.9026e-06 -2.15812e-19)
(-0.0431181 0.00674483 1.89669e-19)
(-0.0433058 0.012965 -4.05903e-19)
(-0.0418241 0.0185733 3.38324e-19)
(-0.0386969 0.0235403 -1.08861e-19)
(-0.03396 0.0278871 -3.02198e-19)
(-0.0276568 0.0316829 7.4335e-20)
(-0.0198385 0.035048 -7.07515e-20)
(-0.0105688 0.0381633 2.45466e-20)
(6.57609e-05 0.0412891 -9.22341e-20)
(0.0119345 0.0447929 -2.88246e-19)
(0.0248091 0.0491791 6.58322e-20)
(0.0383016 0.0551369 -2.67847e-21)
(0.0520497 0.0637236 -2.75709e-19)
(0.0660332 0.076646 1.92382e-19)
(0.0776347 0.0951172 -1.63197e-19)
(0.00397533 -0.0102737 7.55544e-20)
(0.00549568 -0.0217756 1.37826e-19)
(0.00146675 -0.0275273 1.94865e-19)
(-0.00533759 -0.028901 9.87796e-20)
(-0.0132437 -0.0271594 -9.79923e-20)
(-0.0211913 -0.0233572 2.32463e-19)
(-0.0284445 -0.0183022 1.71194e-19)
(-0.034518 -0.0126057 -6.44429e-20)
(-0.0391118 -0.00672285 2.19996e-19)
(-0.0420536 -0.000982925 -2.25958e-19)
(-0.0432572 0.00438504 -6.65492e-20)
(-0.0426925 0.00923093 6.69008e-20)
(-0.0403636 0.0134673 1.26842e-19)
(-0.0362936 0.017058 2.44668e-21)
(-0.0305151 0.0200117 7.71906e-20)
(-0.0230645 0.0223809 1.43119e-19)
(-0.0139825 0.0242674 -2.41113e-19)
(-0.00331957 0.0258354 2.94857e-19)
(0.00885226 0.0273351 9.27843e-20)
(0.0224145 0.0291377 2.88041e-20)
(0.037141 0.0317756 -3.35589e-19)
(0.0526217 0.0360045 4.68591e-20)
(0.0684272 0.0430179 7.23689e-20)
(0.084405 0.0547738 -1.64939e-20)
(0.097642 0.0727318 8.04114e-20)
(0.00328235 -0.00833298 4.28053e-21)
(0.00383899 -0.0176006 -3.53669e-19)
(-0.000828015 -0.0223715 -1.08756e-20)
(-0.00798003 -0.0236278 -8.91651e-20)
(-0.0159884 -0.022359 -5.84085e-19)
(-0.0238336 -0.019424 5.02164e-19)
(-0.0308118 -0.0154874 -3.56159e-19)
(-0.036462 -0.0110583 -1.97287e-20)
(-0.0405023 -0.00652147 -1.65599e-19)
(-0.0427731 -0.00215991 2.83445e-19)
(-0.0431973 0.00182486 -3.0269e-19)
(-0.0417503 0.00529574 -1.39764e-19)
(-0.0384391 0.00816684 1.1035e-21)
(-0.0332873 0.0103943 -2.92354e-19)
(-0.0263247 0.0119715 3.9596e-19)
(-0.0175823 0.0129298 -4.50761e-19)
(-0.00709217 0.0133455 2.79063e-21)
(0.00510724 0.013356 6.72582e-20)
(0.018958 0.0131882 -1.62766e-19)
(0.0343551 0.0132022 1.54579e-19)
(0.0510779 0.0139445 -2.187e-19)
(0.068699 0.0162301 -1.38784e-19)
(0.086726 0.0213997 2.52871e-19)
(0.104862 0.031709 -2.72382e-19)
(0.119826 0.0489548 -2.21264e-21)
(0.00243132 -0.00636837 -2.94844e-19)
(0.00186542 -0.0134042 3.40061e-19)
(-0.00348514 -0.0172115 -1.06072e-19)
(-0.0109558 -0.0183683 2.01932e-19)
(-0.0189857 -0.0175859 2.18029e-19)
(-0.0266108 -0.0155253 -1.91629e-19)
(-0.0331685 -0.012707 -1.23226e-19)
(-0.0382281 -0.00953766 -1.48889e-19)
(-0.0415287 -0.00633073 1.3642e-19)
(-0.0429259 -0.00332201 -1.05131e-20)
(-0.0423519 -0.000684098 1.94796e-19)
(-0.0397886 0.00146044 1.89766e-19)
(-0.0352465 0.00302858 -2.2256e-19)
(-0.0287507 0.00396945 4.31093e-19)
(-0.0203307 0.00426077 -2.82207e-19)
(-0.010016 0.00391018 -4.31983e-20)
(0.00216543 0.00296316 5.28203e-19)
(0.016181 0.00152069 -2.44397e-19)
(0.0319812 -0.000228383 1.48609e-19)
(0.0494699 -0.00195588 2.84288e-19)
(0.0684312 -0.00312666 -1.83415e-19)
(0.088423 -0.00289068 2.04318e-20)
(0.108896 0.000229769 -1.22744e-20)
(0.129418 0.00882366 -6.61309e-20)
(0.146277 0.0251248 1.28627e-19)
(0.00143019 -0.00439892 6.62194e-20)
(-0.000390516 -0.00922042 -2.11049e-19)
(-0.00642957 -0.0120762 1.14606e-19)
(-0.0141412 -0.0131354 -2.06259e-21)
(-0.0220569 -0.0128297 8.69401e-20)
(-0.029282 -0.0116223 -1.48515e-19)
(-0.0352039 -0.00989021 8.50911e-20)
(-0.0394271 -0.0079374 2.30974e-19)
(-0.0417144 -0.00600585 -6.96307e-21)
(-0.0419369 -0.00428277 -1.1457e-19)
(-0.0400371 -0.00290986 1.13082e-19)
(-0.036003 -0.0019926 -4.03576e-21)
(-0.0298497 -0.00160823 -3.53803e-19)
(-0.0216057 -0.0018117 1.30554e-19)
(-0.0113042 -0.00263855 2.79996e-20)
(0.00102116 -0.00410375 -4.62963e-20)
(0.0153375 -0.00619412 -8.30186e-20)
(0.0316073 -0.00885098 3.21929e-19)
(0.0497766 -0.0119365 7.33373e-20)
(0.0697471 -0.0151771 -1.62169e-19)
(0.0912996 -0.0180834 -1.86774e-20)
(0.113977 -0.0198156 2.0897e-19)
(0.137182 -0.0188011 -9.79466e-20)
(0.160379 -0.0121105 3.96048e-20)
(0.179397 0.00301698 2.48922e-20)
(0.000295275 -0.00245273 -1.31588e-19)
(-0.00287658 -0.00510186 1.32543e-19)
(-0.00956327 -0.0070184 -7.4037e-20)
(-0.0173862 -0.0079686 -2.37329e-19)
(-0.0249936 -0.00810881 -2.18894e-19)
(-0.0315734 -0.00770694 -9.41752e-20)
(-0.0365709 -0.00699831 -7.96723e-20)
(-0.0396294 -0.00618552 -2.32398e-19)
(-0.0405374 -0.0054388 -9.3903e-20)
(-0.0391819 -0.00489561 8.58024e-20)
(-0.0355155 -0.00466444 -1.20475e-19)
(-0.029533 -0.00483039 -1.24727e-19)
(-0.0212553 -0.00546068 -1.15323e-19)
(-0.0107174 -0.0066093 2.04145e-19)
(0.00203787 -0.00831965 -4.28465e-19)
(0.0169642 -0.0106239 2.37793e-19)
(0.0340114 -0.0135373 -4.02308e-19)
(0.053121 -0.0170427 -5.97707e-20)
(0.0742161 -0.0210596 -2.10365e-19)
(0.0971765 -0.0253873 -4.63195e-20)
(0.121765 -0.0296188 -5.78753e-20)
(0.147504 -0.0329861 -1.85857e-19)
(0.173757 -0.0339021 -1.68812e-20)
(0.19995 -0.0291397 1.07093e-19)
(0.221486 -0.0153556 -2.70621e-19)
(-0.000948301 -0.000565461 1.11684e-19)
(-0.00552275 -0.00111773 1.46291e-19)
(-0.0127671 -0.00211334 5.14826e-19)
(-0.0205187 -0.00293447 -8.95421e-20)
(-0.0275656 -0.00347246 2.14425e-19)
(-0.0331903 -0.00380553 5.09484e-19)
(-0.0369027 -0.00403133 -1.38646e-19)
(-0.0383883 -0.00425317 1.86579e-19)
(-0.0374626 -0.00457015 1.07548e-19)
(-0.0340292 -0.00506916 1.94068e-19)
(-0.0280515 -0.00582329 -3.74006e-20)
(-0.0195324 -0.00689375 2.6744e-20)
(-0.00850147 -0.00833291 -6.25257e-20)
(0.00499404 -0.0101875 3.50812e-19)
(0.0208942 -0.0125012 4.5825e-20)
(0.0391283 -0.0153143 3.12417e-19)
(0.0596135 -0.0186609 -7.71143e-20)
(0.0822506 -0.0225568 2.74222e-19)
(0.106916 -0.0269748 3.56424e-20)
(0.133444 -0.0317937 1.31599e-19)
(0.161558 -0.0367167 -5.388e-20)
(0.190746 -0.0411115 -5.00952e-21)
(0.220343 -0.04349 2.9235e-19)
(0.249812 -0.0404374 1.70246e-19)
(0.274287 -0.0280349 -7.01965e-20)
(-0.00226695 0.00122215 -2.69342e-19)
(-0.00824285 0.00265057 -2.73705e-19)
(-0.0159046 0.00254549 -2.86451e-19)
(-0.0233508 0.00187653 1.04868e-19)
(-0.0295306 0.00100075 -2.1047e-19)
(-0.033831 2.04982e-05 -3.13558e-20)
(-0.0358323 -0.00103018 -8.21025e-20)
(-0.0352657 -0.00215893 -3.37373e-19)
(-0.0319754 -0.00339525 -5.15035e-20)
(-0.0258836 -0.00477538 8.48743e-20)
(-0.0169664 -0.00633552 -2.6251e-19)
(-0.00523904 -0.00810996 3.62748e-19)
(0.00925459 -0.0101317 -4.85341e-19)
(0.0264474 -0.0124339 1.14441e-19)
(0.0462514 -0.0150519 -2.89194e-19)
(0.0685574 -0.0180236 -2.29114e-19)
(0.0932328 -0.0213884 -1.17871e-20)
(0.120117 -0.02518 -3.15752e-20)
(0.149015 -0.0294091 2.7526e-20)
(0.179686 -0.0340245 -1.19478e-19)
(0.211791 -0.0388466 -8.03997e-20)
(0.244769 -0.0434257 9.51606e-20)
(0.277919 -0.0464975 -2.58819e-19)
(0.310825 -0.0446396 8.19961e-20)
(0.338651 -0.0334466 5.48742e-20)
(-0.00361994 0.0028675 -4.74676e-20)
(-0.0109376 0.00611525 -7.84244e-20)
(-0.018827 0.00685223 3.07503e-19)
(-0.0256867 0.00635529 1.14052e-19)
(-0.0306443 0.00520709 1.50473e-19)
(-0.0332 0.00367807 -2.00598e-19)
(-0.0330099 0.00192567 9.94862e-22)
(-0.0298549 3.28631e-05 -1.60008e-19)
(-0.0236112 -0.00196307 2.95493e-19)
(-0.0142231 -0.00404871 9.5015e-20)
(-0.00168532 -0.00622283 1.0396e-19)
(0.0139682 -0.00849095 -4.17459e-19)
(0.0326702 -0.0108632 5.06892e-19)
(0.0543223 -0.0133543 -1.51901e-19)
(0.078795 -0.0159836 -1.0551e-19)
(0.105925 -0.0187764 3.11988e-19)
(0.135513 -0.0217633 1.34457e-19)
(0.167317 -0.0249772 -3.39041e-19)
(0.201048 -0.028444 -1.34665e-19)
(0.236367 -0.0321574 4.07669e-19)
(0.272845 -0.0360355 -3.01518e-19)
(0.309855 -0.0398223 1.78809e-19)
(0.346637 -0.0425805 9.30314e-20)
(0.38295 -0.0411063 -1.19126e-19)
(0.414429 -0.0306635 -1.06948e-19)
(-0.00496156 0.00432969 -1.73438e-19)
(-0.0134991 0.00918887 2.70371e-19)
(-0.0213789 0.0106964 1.15522e-19)
(-0.0273292 0.0103818 -1.66794e-19)
(-0.0306693 0.00902536 -2.67391e-20)
(-0.0310195 0.00704989 -1.73849e-19)
(-0.0281174 0.00472585 -6.86189e-20)
(-0.0217984 0.00222009 7.69902e-20)
(-0.0119765 -0.000367349 -2.0075e-20)
(0.00137478 -0.00297561 1.41998e-19)
(0.0182339 -0.00556692 -1.22277e-19)
(0.0385371 -0.00811768 3.37504e-19)
(0.0621811 -0.0106137 -4.11699e-19)
(0.0890221 -0.0130478 2.56259e-19)
(0.118874 -0.0154191 3.10392e-19)
(0.151503 -0.017732 -4.4206e-19)
(0.186628 -0.0199964 -1.30491e-19)
(0.223907 -0.0222267 2.18396e-19)
(0.262945 -0.0244369 -1.32281e-19)
(0.303281 -0.0266289 1.2218e-19)
(0.344373 -0.0287727 -2.93336e-19)
(0.385497 -0.0307671 5.02922e-20)
(0.425805 -0.0320397 1.77772e-19)
(0.465216 -0.0297969 -2.7524e-19)
(0.500387 -0.0191455 7.3181e-20)
(-0.00624372 0.00557304 -1.59658e-19)
(-0.0158153 0.0117914 5.01927e-19)
(-0.0234041 0.0139715 9.66703e-20)
(-0.0280862 0.0138348 -2.60687e-19)
(-0.0293816 0.0123273 1.86793e-19)
(-0.0270362 0.0100058 9.48781e-20)
(-0.0208753 0.0072415 1.50075e-19)
(-0.010796 0.00427697 -1.03346e-20)
(0.00324171 0.00126963 -1.62343e-20)
(0.0212246 -0.00167578 -3.26691e-20)
(0.0430914 -0.0044873 -1.38504e-19)
(0.0687342 -0.00711376 -2.63145e-21)
(0.0979974 -0.00951747 3.19188e-19)
(0.130675 -0.0116697 -5.1282e-19)
(0.166508 -0.0135478 3.63777e-19)
(0.20518 -0.0151324 7.3223e-20)
(0.246314 -0.0164059 1.2693e-19)
(0.289468 -0.0173494 -6.01706e-20)
(0.334131 -0.0179394 5.48279e-19)
(0.379718 -0.0181396 -3.33596e-19)
(0.425547 -0.017897 2.58928e-19)
(0.470751 -0.0171555 5.7074e-20)
(0.514295 -0.0155788 -1.77078e-19)
(0.556084 -0.0107318 1.4644e-19)
(0.594177 0.0021985 2.11244e-19)
(-0.00741883 0.00657003 -4.5959e-20)
(-0.0177753 0.0138564 -1.76701e-19)
(-0.0247503 0.0165841 -3.02186e-19)
(-0.0277744 0.0166027 -1.718e-19)
(-0.0265733 0.0149901 -2.40997e-20)
(-0.0210233 0.0124171 -6.75579e-20)
(-0.0110443 0.00934176 -3.12763e-19)
(0.00339581 0.0060729 5.23363e-20)
(0.0222788 0.00281876 -3.47176e-19)
(0.0455376 -0.000276998 -2.63295e-20)
(0.0730544 -0.00311227 -3.28329e-19)
(0.104658 -0.0056121 -1.15095e-19)
(0.140121 -0.00771924 6.50202e-20)
(0.179157 -0.00938775 -3.0938e-19)
(0.221417 -0.010578 3.28093e-21)
(0.266491 -0.0112519 -2.58305e-19)
(0.313906 -0.0113681 9.72925e-20)
(0.36313 -0.0108748 -3.48477e-19)
(0.41357 -0.00970059 -5.67893e-20)
(0.464569 -0.00773933 -7.24683e-21)
(0.515384 -0.00484068 -5.50006e-20)
(0.565079 -0.000821424 -5.67058e-20)
(0.612461 0.0047977 -3.02727e-20)
(0.656898 0.0145118 -1.06793e-19)
(0.696216 0.0322013 -2.08518e-19)
(-0.0084424 0.00730337 8.46145e-20)
(-0.0192732 0.0153369 2.23785e-19)
(-0.0252723 0.0184614 2.69108e-19)
(-0.0262215 0.0185938 -2.14592e-19)
(-0.0220529 0.0169095 3.98368e-19)
(-0.0127778 0.0141724 -2.15761e-19)
(0.00158091 0.0109124 1.17194e-19)
(0.0209723 0.00749415 1.81465e-19)
(0.045305 0.00416898 1.63968e-19)
(0.0744389 0.00111323 7.914e-20)
(0.108178 -0.00154673 1.27414e-19)
(0.146266 -0.00371834 7.39297e-20)
(0.188378 -0.00533209 4.89043e-19)
(0.234123 -0.00633391 -3.52056e-19)
(0.283045 -0.00667911 3.96611e-19)
(0.334627 -0.00632651 -1.62329e-19)
(0.388298 -0.00523168 3.43453e-19)
(0.44345 -0.0033378 -1.94879e-20)
(0.499449 -0.00056189 -6.9608e-20)
(0.555661 0.00322671 -1.16661e-20)
(0.611473 0.00823481 2.47984e-19)
(0.666311 0.0148105 -2.34658e-19)
(0.719823 0.0238452 1.6401e-19)
(0.772262 0.0377351 1.68639e-19)
(0.818675 0.0549992 3.10135e-20)
(-0.00927479 0.00776672 5.85106e-20)
(-0.0202107 0.0162078 -3.19325e-19)
(-0.0248337 0.0195583 -1.16168e-19)
(-0.023265 0.0197465 1.06146e-19)
(-0.0156415 0.0180131 -3.26277e-19)
(-0.00211419 0.0151935 -6.40078e-20)
(0.0171807 0.0118746 4.43701e-20)
(0.0420943 0.00846561 1.74276e-19)
(0.0724422 0.00525198 -4.41145e-19)
(0.107988 0.00243511 3.29775e-20)
(0.148432 0.000158036 -1.27981e-19)
(0.193401 -0.00147749 -3.82537e-19)
(0.242447 -0.0023997 2.59315e-19)
(0.295048 -0.00255885 1.04115e-20)
(0.350613 -0.0019211 -6.75393e-21)
(0.408497 -0.000462983 2.48526e-19)
(0.468017 0.00183423 -4.35833e-19)
(0.528474 0.00499093 3.3825e-19)
(0.589179 0.00903662 -6.46132e-20)
(0.649492 0.014018 1.84768e-19)
(0.708851 0.0200039 -3.06683e-19)
(0.766821 0.0270958 1.66999e-19)
(0.823235 0.0355869 -2.94425e-19)
(0.878498 0.0463792 2.897e-19)
(0.928069 0.0572743 -9.23602e-20)
(-0.00988212 0.00796441 3.9279e-19)
(-0.0204984 0.0164678 -6.40246e-20)
(-0.0233064 0.019861 4.72563e-19)
(-0.0187499 0.0200367 2.18788e-19)
(-0.00716784 0.0182704 1.75073e-20)
(0.0111433 0.0154494 9.53462e-20)
(0.0359215 0.0122019 2.31265e-20)
(0.0669009 0.00896971 3.85781e-19)
(0.10378 0.00606267 1.23648e-19)
(0.146198 0.00369796 -1.60721e-20)
(0.193719 0.00202582 3.39064e-20)
(0.245821 0.00114674 1.27401e-19)
(0.301899 0.0011228 1.04134e-19)
(0.361268 0.0019857 2.17175e-19)
(0.42318 0.00374284 -2.48454e-19)
(0.48684 0.00638258 7.293e-20)
(0.551435 0.00987902 2.30349e-20)
(0.616164 0.0141966 1.05306e-19)
(0.680268 0.0192935 2.75352e-19)
(0.743064 0.0251238 -1.82493e-19)
(0.803978 0.0316328 1.05914e-20)
(0.862568 0.0387461 -2.40073e-19)
(0.918577 0.0464237 2.18384e-19)
(0.972128 0.0550529 -2.06241e-19)
(1.0197 0.0636863 2.36082e-20)
(-0.0102362 0.00791014 -3.2771e-19)
(-0.0200552 0.0161382 2.50743e-19)
(-0.0205691 0.0193895 -4.08268e-19)
(-0.0125257 0.0194821 3.51725e-20)
(0.00353657 0.017701 2.86975e-19)
(0.0271677 0.014966 -4.77482e-19)
(0.0579635 0.0119314 3.77736e-19)
(0.0955184 0.00905905 -5.97637e-19)
(0.139384 0.00667175 1.18946e-19)
(0.189042 0.00499131 2.48451e-20)
(0.243881 0.00416344 1.96126e-19)
(0.303198 0.00427459 -6.52167e-19)
(0.366193 0.0053634 1.12745e-19)
(0.431993 0.00742907 1.1702e-19)
(0.499669 0.0104382 -6.91478e-20)
(0.568268 0.0143306 -4.20214e-19)
(0.636847 0.0190253 1.99203e-19)
(0.704509 0.0244249 3.59805e-19)
(0.770436 0.0304198 -3.72908e-19)
(0.833922 0.0368888 2.65737e-19)
(0.894394 0.0436968 -3.35224e-19)
(0.951423 0.0506835 2.39876e-19)
(1.00473 0.0576882 -6.30049e-20)
(1.05432 0.0649292 3.54532e-19)
(1.09781 0.0724321 -3.94265e-19)
(-0.0103136 0.00762487 4.69212e-20)
(-0.0188066 0.0152608 3.6926e-20)
(-0.0165048 0.0181959 9.06014e-20)
(-0.00444286 0.0181442 3.2354e-19)
(0.0166409 0.0163776 -1.00888e-20)
(0.0461316 0.0138309 7.23531e-20)
(0.0834626 0.0111696 3.20726e-19)
(0.128059 0.00886137 1.28937e-19)
(0.179292 0.00722876 -4.20934e-20)
(0.236443 0.00648439 3.58708e-19)
(0.29869 0.00675482 -4.05113e-19)
(0.365105 0.00809711 6.18583e-19)
(0.434669 0.0105109 -2.43218e-19)
(0.506295 0.013948 4.36284e-19)
(0.578869 0.0183213 -1.46741e-19)
(0.651286 0.0235133 5.2839e-20)
(0.722494 0.0293838 6.35613e-20)
(0.791536 0.0357776 -1.17377e-19)
(0.857581 0.0425302 9.94348e-20)
(0.919952 0.049472 6.21253e-20)
(0.978138 0.0564294 8.34838e-20)
(1.0318 0.0632203 1.70792e-19)
(1.08073 0.0696668 -1.76618e-20)
(1.12498 0.0759131 -7.66524e-20)
(1.16321 0.0825859 2.14642e-19)
(-0.0100933 0.00713445 -2.74537e-19)
(-0.016682 0.0138941 2.90767e-20)
(-0.0109981 0.0163619 -5.21759e-19)
(0.00564819 0.0161254 -1.24593e-19)
(0.0323147 0.0144247 -2.33081e-19)
(0.0682053 0.0121928 -5.00519e-20)
(0.112564 0.0100904 -2.49054e-19)
(0.164612 0.00857566 -1.48202e-19)
(0.223496 0.00795454 1.95682e-19)
(0.288258 0.00841344 -3.26002e-19)
(0.357818 0.0100419 -9.0208e-20)
(0.430994 0.0128497 2.41918e-21)
(0.506521 0.0167804 -5.97348e-19)
(0.583098 0.0217243 2.51947e-19)
(0.659435 0.0275306 -3.63388e-19)
(0.734307 0.0340196 -1.05444e-20)
(0.806602 0.0409947 6.807e-20)
(0.875363 0.0482529 -1.13834e-19)
(0.939817 0.0555937 -9.7588e-20)
(0.999391 0.0628255 4.57634e-20)
(1.05371 0.0697697 5.00294e-20)
(1.1026 0.0762606 -3.2419e-19)
(1.14602 0.0821494 1.8321e-19)
(1.18417 0.0875533 8.71695e-20)
(1.2165 0.0933881 1.99098e-20)
(-0.00955547 0.00646737 2.81062e-19)
(-0.0136117 0.0121089 -2.99849e-19)
(-0.00393407 0.013994 4.20394e-19)
(0.0178967 0.0135653 6.53557e-20)
(0.0507244 0.0120138 -2.00388e-20)
(0.0935479 0.0102548 -1.40998e-19)
(0.145388 0.00892671 2.12859e-20)
(0.205219 0.00845992 2.13498e-19)
(0.271918 0.00912425 -2.93918e-19)
(0.344238 0.0110591 3.07143e-19)
(0.420807 0.014296 -3.19387e-20)
(0.50016 0.0187775 1.55002e-20)
(0.580784 0.0243745 3.92779e-19)
(0.661177 0.0309039 5.17719e-19)
(0.739913 0.0381452 -2.02721e-19)
(0.815705 0.0458586 3.50915e-19)
(0.887453 0.0537999 1.73219e-19)
(0.954281 0.0617345 -1.08212e-19)
(1.01556 0.0694474 3.29413e-19)
(1.07089 0.0767508 -1.61729e-20)
(1.12011 0.0834872 -3.06481e-19)
(1.16327 0.0895299 3.16809e-19)
(1.20055 0.0947799 4.13123e-20)
(1.23231 0.099356 -1.88113e-19)
(1.25859 0.104255 5.89562e-20)
(-0.00867865 0.00565309 -3.91313e-19)
(-0.00952514 0.0099852 4.08798e-19)
(0.00480221 0.0112183 -2.5935e-19)
(0.0324483 0.010633 -8.09393e-20)
(0.0720243 0.00935453 -1.80991e-19)
(0.122293 0.00826316 3.19808e-19)
(0.182009 0.00795556 -1.85331e-19)
(0.249852 0.00881232 -8.46244e-20)
(0.324376 0.0110435 -2.41657e-19)
(0.404004 0.0147174 6.58211e-21)
(0.487043 0.0197842 -9.39704e-20)
(0.571737 0.0260996 4.46558e-20)
(0.65634 0.0334475 -4.72743e-19)
(0.739193 0.0415638 1.34694e-19)
(0.818802 0.0501603 -1.59033e-19)
(0.893898 0.0589455 -1.26117e-19)
(0.963484 0.0676441 3.88316e-20)
(1.02686 0.0760111 -1.78454e-19)
(1.0836 0.0838408 -7.28938e-20)
(1.13357 0.0909726 2.168e-19)
(1.17687 0.0972911 8.82278e-20)
(1.21377 0.102723 -3.74894e-19)
(1.24471 0.107227 2.70385e-19)
(1.27023 0.110943 -5.0018e-20)
(1.29071 0.114815 -1.01454e-19)
(-0.00743882 0.00472089 -1.42753e-19)
(-0.00434947 0.00760847 -7.6307e-20)
(0.0153238 0.00817512 -1.5252e-20)
(0.0494384 0.00751998 1.11518e-19)
(0.0963459 0.00668452 1.21234e-19)
(0.154532 0.00649407 1.05474e-19)
(0.222434 0.0074805 1.30996e-19)
(0.298382 0.00994874 1.9966e-19)