/*--------------------------------*- C++ -*----------------------------------*\
  =========                 |
  \\      /  F ield         | OpenFOAM: The Open Source CFD Toolbox
   \\    /   O peration     | Website:  https://openfoam.org
    \\  /    A nd           | Version:  6.0
     \\/     M anipulation  |
\*---------------------------------------------------------------------------*/
FoamFile
{
    version     2.0;
    format      ascii;
    class       volVectorField;
    location    "54";
    object      U;
}
// * * * * * * * * * * * * * * * * * * * * * * * * * * * * * * * * * * * * * //

dimensions      [0 1 -1 0 0 0 0];

internalField   nonuniform List<vector> 
12500
(
(-0.000526383 0.0188449 -1.11746e-21)
(-0.00218634 0.048471 1.64054e-20)
(-0.00495505 0.0715843 -2.39386e-20)
(-0.00837465 0.089306 1.10406e-20)
(-0.0121648 0.10262 6.50441e-22)
(-0.0161254 0.112398 -1.35523e-21)
(-0.0200812 0.119392 -2.03272e-20)
(-0.0238895 0.124232 1.11947e-20)
(-0.0274409 0.127435 7.44685e-21)
(-0.0306551 0.12941 7.56777e-21)
(-0.0334783 0.130475 -1.28551e-20)
(-0.0358795 0.13087 7.49069e-21)
(-0.0378476 0.130774 -3.53843e-21)
(-0.0393883 0.130317 6.0197e-21)
(-0.0405212 0.129596 -1.53783e-20)
(-0.0412775 0.128684 2.22145e-20)
(-0.0416971 0.127642 -4.20856e-21)
(-0.0418267 0.126523 -1.58123e-20)
(-0.041717 0.125381 8.14895e-21)
(-0.0414219 0.124271 -7.79579e-21)
(-0.0410076 0.123256 6.96423e-21)
(-0.0405464 0.122401 9.17194e-21)
(-0.0399974 0.121782 9.70874e-22)
(-0.0391432 0.121488 -2.64368e-20)
(-0.0388255 0.121614 1.47571e-20)
(-0.00108268 0.0193447 2.11236e-20)
(-0.00345374 0.0498583 -5.63691e-20)
(-0.00650973 0.0737056 1.66414e-20)
(-0.00994353 0.0919973 1.1196e-20)
(-0.013564 0.105716 -8.96556e-21)
(-0.0172305 0.115739 -5.11716e-20)
(-0.020814 0.12283 1.52556e-20)
(-0.0242062 0.127635 -2.89522e-20)
(-0.027322 0.13069 3.4723e-20)
(-0.0300983 0.132423 -4.64664e-20)
(-0.0324919 0.133172 2.48347e-20)
(-0.0344781 0.133199 8.12108e-21)
(-0.0360485 0.1327 -2.03453e-20)
(-0.0372084 0.131824 -8.97933e-21)
(-0.0379753 0.130685 6.60842e-20)
(-0.0383766 0.129371 -5.8644e-20)
(-0.0384478 0.127956 1.40797e-20)
(-0.0382307 0.126505 2.43554e-20)
(-0.0377713 0.125081 -5.48349e-21)
(-0.0371195 0.123749 3.92916e-20)
(-0.0363393 0.122576 7.30376e-21)
(-0.0355037 0.121637 -2.63426e-21)
(-0.0345693 0.121014 -5.00796e-20)
(-0.0333022 0.120816 4.62433e-20)
(-0.0325859 0.121122 -9.32654e-20)
(-0.00166405 0.0196919 6.81056e-20)
(-0.00480077 0.0508802 2.32999e-20)
(-0.00819966 0.0753256 -3.0914e-20)
(-0.0116955 0.0941077 1.33848e-20)
(-0.0151825 0.108193 1.2429e-20)
(-0.0185781 0.118452 4.75531e-20)
(-0.0217994 0.125653 -6.07127e-20)
(-0.0247729 0.130451 -1.00292e-20)
(-0.0274386 0.133392 -4.09665e-20)
(-0.0297508 0.134923 -3.42852e-20)
(-0.031678 0.135398 4.42204e-20)
(-0.0332019 0.135096 -1.488e-19)
(-0.0343169 0.13423 -4.78757e-21)
(-0.0350283 0.132965 -8.98899e-20)
(-0.0353514 0.131432 -1.06669e-20)
(-0.0353099 0.129731 1.27059e-20)
(-0.0349349 0.127949 -7.04259e-20)
(-0.0342639 0.126163 -4.42084e-20)
(-0.0333385 0.124446 -5.23765e-20)
(-0.0322055 0.122873 8.20845e-20)
(-0.0309279 0.121519 3.01472e-20)
(-0.0295812 0.120468 -1.3469e-19)
(-0.0281221 0.119816 -6.51119e-20)
(-0.0263002 0.119693 -7.34561e-20)
(-0.0250405 0.120172 2.07545e-19)
(-0.00225845 0.0198935 -1.9544e-21)
(-0.00619913 0.0515487 -5.41622e-20)
(-0.00998737 0.0764549 -2.63559e-20)
(-0.0135885 0.0956431 1.66203e-20)
(-0.0169767 0.11005 1.02039e-19)
(-0.0201251 0.120532 -4.60017e-20)
(-0.0229957 0.127849 9.88091e-20)
(-0.0255495 0.13266 9.45334e-20)
(-0.0277521 0.135519 5.76409e-20)
(-0.0295756 0.136882 -8.0147e-22)
(-0.0310005 0.137118 1.16976e-19)
(-0.0320157 0.13652 2.03609e-20)
(-0.0326184 0.135315 8.98314e-20)
(-0.0328142 0.133685 2.07417e-19)
(-0.0326163 0.131771 -2.41311e-19)
(-0.0320451 0.129689 3.64042e-19)
(-0.0311275 0.127537 7.96329e-20)
(-0.0298966 0.125403 -1.76073e-19)
(-0.0283906 0.123372 -2.50638e-20)
(-0.026654 0.121528 6.40257e-20)
(-0.0247498 0.11996 -3.26502e-20)
(-0.0227577 0.118761 -2.00011e-20)
(-0.0206373 0.118046 -1.9434e-20)
(-0.0181225 0.117976 -7.76956e-20)
(-0.0161787 0.118617 2.84626e-19)
(-0.00285482 0.0199582 3.58208e-20)
(-0.00762224 0.0518792 -1.71779e-19)
(-0.0118368 0.077109 2.09664e-19)
(-0.0155812 0.0966149 -8.35922e-20)
(-0.0189029 0.111294 1.00906e-19)
(-0.021827 0.121976 8.28007e-20)
(-0.0243589 0.12941 3.15386e-20)
(-0.0264931 0.134248 1.84306e-21)
(-0.0282207 0.137048 1.78649e-19)
(-0.0295322 0.138272 1.24249e-19)
(-0.0304203 0.138298 -4.96685e-20)
(-0.0308813 0.137431 -3.21923e-20)
(-0.0309161 0.135911 1.36548e-19)
(-0.0305306 0.133931 2.57234e-20)
(-0.0297365 0.131644 7.047e-20)
(-0.0285506 0.129179 1.68966e-19)
(-0.0269961 0.126644 -1.4588e-19)
(-0.0251024 0.12414 1.18038e-19)
(-0.0229044 0.121764 -2.56331e-19)
(-0.0204449 0.119612 2.16307e-19)
(-0.0177881 0.117786 1.61709e-21)
(-0.0150197 0.116396 -1.74467e-19)
(-0.0121052 0.115578 6.97186e-20)
(-0.00876436 0.115531 1.60295e-19)
(-0.00600154 0.116324 -2.48971e-19)
(-0.00344333 0.0198958 1.86029e-19)
(-0.00904577 0.0518906 -2.04567e-19)
(-0.0137142 0.0773076 -3.27566e-20)
(-0.0176341 0.0970392 4.1993e-20)
(-0.0209182 0.111933 -9.06906e-20)
(-0.0236397 0.122787 -1.4178e-19)
(-0.0258443 0.13033 -1.18502e-19)
(-0.0275594 0.135203 -2.86171e-20)
(-0.028801 0.137961 -2.05349e-19)
(-0.0295779 0.139068 1.65023e-19)
(-0.0298957 0.138909 -2.56343e-19)
(-0.0297585 0.137795 1.30351e-19)
(-0.0291712 0.135977 -4.29662e-20)
(-0.0281407 0.133657 1.00802e-19)
(-0.0266772 0.130999 -2.54494e-19)
(-0.0247946 0.128141 1.24418e-19)
(-0.0225124 0.125205 9.62997e-21)
(-0.0198563 0.122302 5.52703e-20)
(-0.0168586 0.119541 3.36425e-19)
(-0.013561 0.117034 7.5716e-20)
(-0.0100297 0.1149 -6.109e-21)
(-0.00635813 0.113265 2.16887e-20)
(-0.00252084 0.112297 1.42749e-19)
(0.00177392 0.11224 4.12415e-20)
(0.00548345 0.113172 1.42798e-19)
(-0.00401544 0.0197173 -1.15861e-19)
(-0.010448 0.0516045 1.70405e-19)
(-0.0155886 0.0770747 1.08152e-20)
(-0.0197099 0.096937 -2.1005e-19)
(-0.0229815 0.111983 4.44718e-19)
(-0.0255195 0.122973 -1.44147e-19)
(-0.0274073 0.130609 2.11764e-19)
(-0.0287033 0.135517 1.94261e-19)
(-0.0294478 0.138244 -1.61378e-19)
(-0.0296681 0.139251 -2.35975e-19)
(-0.0293827 0.138925 6.49136e-20)
(-0.0286042 0.137581 -6.87238e-20)
(-0.0273422 0.135478 -3.05201e-19)
(-0.0256049 0.132824 3.7286e-19)
(-0.0234013 0.129792 -1.79613e-19)
(-0.0207429 0.12653 -1.24319e-19)
(-0.0176456 0.123169 1.44414e-21)
(-0.0141318 0.119831 1.02909e-19)
(-0.0102311 0.116641 4.25812e-20)
(-0.00598446 0.113725 -1.66778e-19)
(-0.00146077 0.111222 1.92591e-19)
(0.00323692 0.109282 -3.34814e-19)
(0.00812159 0.108107 2.05561e-19)
(0.013493 0.107999 -1.58541e-19)
(0.0182695 0.109055 4.14987e-20)
(-0.0045641 0.0194345 1.69905e-19)
(-0.0118102 0.0510451 -1.35228e-19)
(-0.0174325 0.0764377 -8.62026e-20)
(-0.0217748 0.0963333 -1.53174e-19)
(-0.0250542 0.111464 -2.81281e-19)
(-0.0274247 0.122547 -2.08609e-19)
(-0.0290039 0.130252 1.3095e-19)
(-0.0298793 0.135188 -1.99002e-19)
(-0.0301147 0.137886 2.53563e-19)
(-0.0297558 0.138804 -4.14502e-19)
(-0.0288344 0.138325 1.84965e-19)
(-0.027372 0.136765 3.92341e-19)
(-0.0253834 0.134387 -5.53758e-19)
(-0.0228786 0.131403 7.94554e-20)
(-0.0198663 0.127993 1.0408e-19)
(-0.0163556 0.124312 1.01022e-19)
(-0.0123591 0.120499 -1.08177e-19)
(-0.00789571 0.116689 -2.6155e-20)
(-0.00299256 0.113018 -8.06384e-20)
(0.00231001 0.109633 -6.73546e-20)
(0.00794002 0.106693 -3.73873e-19)
(0.0137835 0.104378 -2.57527e-20)
(0.0198372 0.10293 4.39121e-21)
(0.026404 0.102721 -1.71503e-19)
(0.0323607 0.103883 1.8616e-19)
(-0.00508377 0.0190602 4.90163e-21)
(-0.0131168 0.0502388 5.49823e-20)
(-0.0192222 0.0754271 5.79091e-20)
(-0.0237983 0.095257 3.35761e-20)
(-0.0271006 0.110398 2.87013e-19)
(-0.0293153 0.121523 2.7087e-19)
(-0.0305907 0.129268 -2.21061e-19)
(-0.0310414 0.134216 -6.78404e-20)
(-0.0307537 0.136883 -6.03045e-20)
(-0.0297914 0.137716 3.12363e-19)
(-0.0281996 0.137093 1.12915e-19)
(-0.0260097 0.135328 -1.64501e-19)
(-0.023242 0.132683 -1.40282e-19)
(-0.0199093 0.129374 3.39076e-19)
(-0.0160202 0.125582 -8.3807e-20)
(-0.011582 0.121468 -1.02313e-19)
(-0.006604 0.117178 -1.43531e-19)
(-0.00110164 0.112856 -1.12339e-19)
(0.00490069 0.108653 -1.44483e-19)
(0.0113635 0.104733 -9.51428e-20)
(0.0182115 0.101281 3.96218e-19)
(0.0253188 0.0985109 -1.96083e-19)
(0.0326621 0.0967141 1.32566e-19)
(0.0405412 0.0963463 -3.55899e-19)
(0.0477863 0.09759 1.48553e-19)
(-0.00557057 0.0186077 -1.53047e-19)
(-0.0143559 0.0492136 -4.12686e-20)
(-0.0209382 0.0740764 -3.24056e-19)
(-0.0257539 0.0937403 -1.56054e-19)
(-0.029088 0.108814 -3.09161e-19)
(-0.0311534 0.119923 -3.22347e-20)
(-0.0321252 0.127668 1.67223e-19)
(-0.0321428 0.132605 -1.02538e-19)
(-0.0313142 0.135231 2.21506e-19)
(-0.0297206 0.13598 -5.40727e-19)
(-0.0274211 0.135219 -1.58973e-20)
(-0.024457 0.133259 9.67006e-20)
(-0.0208551 0.130356 -1.2314e-19)
(-0.0166317 0.126726 1.12899e-19)
(-0.011796 0.122551 -8.65212e-20)
(-0.00635367 0.117994 -1.86675e-19)
(-0.000311273 0.113205 3.42298e-19)
(0.0063196 0.108336 2.13711e-19)
(0.0135177 0.103549 -4.40384e-20)
(0.0212449 0.0990285 1.42863e-19)
(0.0294229 0.0949861 -2.82365e-19)
(0.0379132 0.0916724 4.09737e-19)
(0.046669 0.0894388 -5.61391e-19)
(0.0559792 0.0888414 1.15726e-19)
(0.0646187 0.0901359 -2.3351e-19)
(-0.00602233 0.018091 8.24503e-21)
(-0.0155189 0.0479994 -1.41853e-19)
(-0.022565 0.0724212 2.10153e-19)
(-0.0276192 0.0918185 4.33086e-19)
(-0.030987 0.106742 -7.34026e-21)
(-0.0329027 0.11777 4.95239e-20)
(-0.0335647 0.125469 -1.87807e-19)
(-0.033135 0.130365 8.82699e-20)
(-0.0317416 0.132934 6.11636e-19)
(-0.0294832 0.133592 -1.39365e-19)
(-0.0264328 0.132697 -1.65563e-19)
(-0.0226421 0.130549 6.27947e-19)
(-0.0181452 0.127399 2.06467e-19)
(-0.0129625 0.123457 9.88832e-20)
(-0.00710477 0.118904 1.01666e-19)
(-0.000576727 0.113901 2.77595e-19)
(0.00661788 0.108599 -1.07482e-19)
(0.0144712 0.103155 2.85321e-19)
(0.0229658 0.09774 3.88289e-19)
(0.0320657 0.0925557 -3.32743e-19)
(0.0416902 0.0878423 4.97282e-19)
(0.0516883 0.0838921 1.79545e-19)
(0.0619861 0.081124 -6.81417e-19)
(0.0728536 0.0802136 9.9003e-19)
(0.0829965 0.0815183 -8.37614e-19)
(-0.00643863 0.0175241 -3.9196e-19)
(-0.0166012 0.0466266 2.20295e-19)
(-0.0240916 0.0704989 -1.48799e-19)
(-0.0293756 0.0895291 -1.41925e-19)
(-0.0327709 0.104214 -1.54029e-19)
(-0.0345283 0.115092 -1.67527e-19)
(-0.0348659 0.12269 4.63106e-20)
(-0.033966 0.127507 4.41077e-19)
(-0.0319756 0.129995 -9.4768e-20)
(-0.02901 0.130554 -2.48147e-19)
(-0.0251563 0.129524 -1.52287e-19)
(-0.0204771 0.127196 -6.25292e-20)
(-0.0150144 0.123812 1.86453e-19)
(-0.00879366 0.119573 -1.19173e-19)
(-0.00182785 0.114656 -3.91669e-19)
(0.00587843 0.109214 -4.3491e-19)
(0.0143238 0.103398 1.74074e-19)
(0.0235042 0.0973636 -3.26089e-19)
(0.0334064 0.0912886 2.85648e-19)
(0.0439975 0.0853884 -8.08208e-19)
(0.0551959 0.0799297 6.24925e-19)
(0.0668378 0.0752488 -8.30951e-19)
(0.0788203 0.071841 -1.66482e-20)
(0.0913854 0.0705224 -2.84234e-19)
(0.10315 0.071786 8.65828e-19)
(-0.00682079 0.0169214 6.01238e-19)
(-0.0176016 0.0451265 9.1019e-20)
(-0.0255108 0.0683479 -6.03074e-20)
(-0.0310076 0.0869115 -2.54418e-20)
(-0.0344147 0.101269 4.76437e-19)
(-0.0359947 0.111917 1.55433e-19)
(-0.0359826 0.119353 1.41621e-19)
(-0.0345784 0.124046 -1.14515e-19)
(-0.031947 0.126425 4.4337e-19)
(-0.0282196 0.126868 -2.19026e-19)
(-0.023497 0.125702 1.41737e-19)
(-0.0178531 0.123203 3.62719e-19)
(-0.0113385 0.1196 -2.06699e-19)
(-0.00398454 0.115086 2.25038e-19)
(0.00419271 0.109827 2.13522e-19)
(0.0131879 0.103969 7.33808e-20)
(0.0230013 0.0976548 -1.8273e-19)
(0.0336322 0.0910356 5.06007e-19)
(0.045072 0.0842894 -4.75043e-20)
(0.0572917 0.0776402 -5.59701e-20)
(0.0702098 0.0713773 6.16214e-19)
(0.0836511 0.0658799 -4.41702e-19)
(0.0974815 0.0617262 7.46825e-19)
(0.111907 0.0598951 -6.23825e-19)
(0.125431 0.0610557 8.29457e-19)
(-0.00717187 0.016297 -2.90815e-19)
(-0.0185224 0.0435301 6.62328e-20)
(-0.0268189 0.0660071 -7.00282e-20)
(-0.0325024 0.084006 -3.31447e-19)
(-0.0358941 0.0979416 1.95946e-20)
(-0.0372651 0.10828 1.90363e-19)
(-0.036864 0.115485 -7.77818e-19)
(-0.0349069 0.120002 5.83176e-19)
(-0.0315747 0.122236 -5.70165e-19)
(-0.0270138 0.122544 -3.61286e-19)
(-0.0213385 0.121236 3.25371e-19)
(-0.0146339 0.118573 -7.07875e-19)
(-0.00695958 0.114771 5.98881e-19)
(0.00164656 0.110012 -1.91e-19)
(0.0111642 0.104447 -5.49631e-19)
(0.0215863 0.0982117 1.36534e-19)
(0.0329134 0.0914374 -1.28527e-19)
(0.0451477 0.0842652 4.94452e-20)
(0.0582845 0.0768663 -1.74878e-19)
(0.072299 0.0694656 -5.86367e-19)
(0.0871112 0.0623676 1.31373e-19)
(0.102535 0.0559895 -3.65876e-22)
(0.118405 0.0509942 -6.15266e-19)
(0.134884 0.048545 4.32927e-19)
(0.150332 0.0495332 -3.88001e-19)
(-0.00749645 0.0156645 1.17845e-19)
(-0.0193685 0.0418675 2.24045e-19)
(-0.0280146 0.0635146 3.14636e-19)
(-0.0338479 0.0808532 1.62589e-19)
(-0.0371834 0.0942725 -1.60143e-19)
(-0.038298 0.104213 3.83823e-19)
(-0.0374514 0.111115 2.84933e-19)
(-0.0348738 0.115397 -1.0446e-19)
(-0.0307608 0.117443 3.73991e-19)
(-0.0252727 0.117591 -3.86426e-19)
(-0.0185366 0.116134 -1.13948e-19)
(-0.0106486 0.113315 1.15983e-19)
(-0.00167734 0.109339 2.30957e-19)
(0.00833207 0.10437 2.75227e-21)
(0.0193542 0.0985483 1.47916e-19)
(0.0313786 0.0919945 2.74837e-19)
(0.044405 0.0848241 -4.70086e-19)
(0.0584363 0.0771631 5.87316e-19)
(0.0734705 0.0691687 2.00166e-19)
(0.0894865 0.0610574 7.20989e-20)
(0.106406 0.0531375 -7.24427e-19)
(0.124033 0.0458534 1.02409e-19)
(0.142169 0.0399486 1.60422e-19)
(0.160933 0.0367878 -3.93295e-20)
(0.178506 0.0375338 1.90929e-19)
(-0.00780044 0.0150368 8.85304e-21)
(-0.020147 0.0401673 -5.76725e-19)
(-0.0290979 0.0609073 -1.44914e-20)
(-0.0350311 0.077493 -1.46993e-19)
(-0.0382531 0.090301 -9.68453e-19)
(-0.0390443 0.0997546 8.39708e-19)
(-0.037674 0.106274 -6.00109e-19)
(-0.0343848 0.110258 -3.05128e-20)
(-0.0293849 0.11207 -2.85813e-19)
(-0.0228477 0.112029 4.96336e-19)
(-0.0149116 0.110411 -5.36609e-19)
(-0.00568322 0.107445 -2.5247e-19)
(0.00475992 0.10332 5.02908e-21)
(0.0163652 0.0981863 -5.52219e-19)
(0.0291008 0.0921699 7.56666e-19)
(0.0429517 0.0853753 -8.82017e-19)
(0.0579139 0.0779007 1.18111e-21)
(0.0739886 0.0698522 1.36153e-19)
(0.0911734 0.0613663 -3.44426e-19)
(0.109448 0.0526407 3.3644e-19)
(0.128734 0.0439732 -4.7794e-19)
(0.148827 0.0358188 -3.18345e-19)
(0.169495 0.028987 5.95791e-19)
(0.190812 0.0250535 -6.52409e-19)
(0.210755 0.0255004 -1.32175e-20)
(-0.0080907 0.0144252 -4.71222e-19)
(-0.0208659 0.0384552 5.59628e-19)
(-0.0300677 0.0582194 -1.7389e-19)
(-0.0360356 0.0739642 3.3548e-19)
(-0.0390663 0.0860671 3.63307e-19)
(-0.0394435 0.0949434 -3.21572e-19)
(-0.0374448 0.101 -2.13607e-19)
(-0.0333231 0.104619 -2.57027e-19)
(-0.0272982 0.106145 2.36481e-19)
(-0.0195544 0.105884 -1.60985e-20)
(-0.0102403 0.104093 3.47606e-19)
(0.000528114 0.100987 3.44215e-19)
(0.0126648 0.0967412 -4.13716e-19)
(0.0261094 0.0914946 8.15803e-19)
(0.0408228 0.0853574 -5.44117e-19)
(0.0567828 0.0784194 -9.43651e-20)
(0.0739787 0.0707603 1.07197e-18)
(0.0924055 0.0624645 -4.98013e-19)
(0.112055 0.0536425 3.20536e-19)
(0.132903 0.0444637 6.29437e-19)
(0.154868 0.0352 -4.09582e-19)
(0.177732 0.0262942 4.30998e-20)
(0.20123 0.0185959 -2.88368e-20)
(0.225402 0.0138873 -1.70778e-19)
(0.247997 0.0140111 3.28352e-19)
(-0.00837441 0.0138395 1.07814e-19)
(-0.0215327 0.0367531 -3.53379e-19)
(-0.0309198 0.0554813 1.94509e-19)
(-0.036838 0.0703029 -2.56075e-21)
(-0.0395752 0.0816104 1.4775e-19)
(-0.0394189 0.0898208 -2.55083e-19)
(-0.0366542 0.0953338 1.46626e-19)
(-0.0315434 0.0985195 4.0111e-19)
(-0.0243158 0.0997099 -1.24128e-20)
(-0.0151646 0.0991939 -2.06435e-19)
(-0.00424737 0.0972165 2.08277e-19)
(0.00831214 0.0939797 -4.6913e-21)
(0.0224198 0.0896464 -6.67056e-19)
(0.0380071 0.0843442 2.48003e-19)
(0.0550259 0.0781715 5.48186e-20)
(0.073444 0.0712047 -9.78054e-20)
(0.0932395 0.063507 -1.76556e-19)
(0.114394 0.0551414 6.75237e-19)
(0.136888 0.0461905 1.66264e-19)
(0.160682 0.0367885 -3.57001e-19)
(0.185683 0.027167 -4.3612e-20)
(0.211657 0.0177307 4.97884e-19)
(0.238303 0.0093316 -2.32918e-19)
(0.265638 0.00393471 1.00831e-19)
(0.291196 0.00377097 6.85893e-20)
(-0.00865839 0.0132866 -2.15116e-19)
(-0.0221521 0.035078 2.2166e-19)
(-0.0316444 0.0527184 -1.25299e-19)
(-0.0374049 0.0665418 -4.04398e-19)
(-0.0397167 0.0769701 -3.73994e-19)
(-0.0388726 0.0844308 -1.65579e-19)
(-0.0351654 0.0893238 -1.38095e-19)
(-0.0288655 0.092012 -4.09929e-19)
(-0.02021 0.0928168 -1.6652e-19)
(-0.00939936 0.0920153 1.52669e-19)
(0.00340206 0.089841 -2.18427e-19)
(0.0180634 0.0864854 -2.31189e-19)
(0.034483 0.0821016 -2.18245e-19)
(0.052583 0.0768087 3.99406e-19)
(0.0723038 0.0706964 -8.41026e-19)
(0.093599 0.0638311 4.84316e-19)
(0.116429 0.0562635 -8.31105e-19)
(0.140753 0.0480386 -1.29019e-19)
(0.166528 0.0392128 -4.62622e-19)
(0.193688 0.029883 -1.08992e-19)
(0.222117 0.0202303 -1.33026e-19)
(0.251552 0.0105962 -4.47502e-19)
(0.28165 0.00178806 -4.97065e-20)
(0.31243 -0.00409182 2.76262e-19)
(0.341255 -0.00441585 -7.32788e-19)
(-0.00894815 0.0127707 1.84585e-19)
(-0.0227245 0.0334408 2.49861e-19)
(-0.0322223 0.0499502 8.77744e-19)
(-0.0376889 0.0627096 -1.54736e-19)
(-0.0394082 0.0721835 3.70371e-19)
(-0.0376812 0.0788199 8.85434e-19)
(-0.032809 0.0830246 -2.42508e-19)
(-0.0250692 0.0851584 3.2933e-19)
(-0.0147053 0.0855356 1.92646e-19)
(-0.00192348 0.0844246 3.50799e-19)
(0.0131065 0.0820498 -7.03052e-20)
(0.0302472 0.0785948 4.79134e-20)
(0.0493885 0.0742059 -1.25249e-19)
(0.0704412 0.0689966 6.76062e-19)
(0.0933301 0.0630519 8.63577e-20)
(0.117988 0.0564328 6.34275e-19)
(0.144347 0.0491828 -1.63541e-19)
(0.172336 0.0413349 5.874e-19)
(0.20187 0.0329253 8.36391e-20)
(0.232841 0.0240167 3.02474e-19)
(0.265092 0.0147366 -1.31435e-19)
(0.298318 0.00534477 -2.47692e-20)
(0.332122 -0.00344598 7.29099e-19)
(0.366541 -0.00946399 4.5067e-19)
(0.398885 -0.00969582 -1.91222e-19)
(-0.00924684 0.0122922 -4.45554e-19)
(-0.0232431 0.0318455 -4.67e-19)
(-0.0326227 0.0471887 -4.90653e-19)
(-0.0376254 0.0588291 1.81189e-19)
(-0.038544 0.0672861 -3.64971e-19)
(-0.0356917 0.0730362 -5.45644e-20)
(-0.0293791 0.0764976 -1.44566e-19)
(-0.0198909 0.0780331 -6.0158e-19)
(-0.00747596 0.0779538 -9.42463e-20)
(0.00765499 0.076522 1.5544e-19)
(0.0253267 0.0739559 -4.89681e-19)
(0.0453946 0.0704336 6.81853e-19)
(0.0677374 0.0660977 -9.29878e-19)
(0.09225 0.0610593 2.25126e-19)
(0.118835 0.0554023 -5.74468e-19)
(0.147394 0.0491877 -4.69286e-19)
(0.177823 0.0424576 -2.72807e-20)
(0.209999 0.0352407 -7.22814e-20)
(0.243781 0.0275613 5.61955e-20)
(0.279 0.0194568 -2.74475e-19)
(0.315432 0.011006 -1.90884e-19)
(0.352713 0.00238043 2.3609e-19)
(0.390374 -0.00584561 -6.55623e-19)
(0.428479 -0.0115166 2.13685e-19)
(0.464472 -0.0112552 1.56347e-19)
(-0.00955418 0.0118476 -7.86989e-20)
(-0.0236917 0.0302881 -1.34862e-19)
(-0.0327997 0.044438 5.29891e-19)
(-0.0371296 0.054917 1.97745e-19)
(-0.0369928 0.0623101 2.62846e-19)
(-0.0327199 0.0671294 -3.52877e-19)
(-0.0246329 0.0698107 9.2203e-22)
(-0.0130243 0.070723 -2.87531e-19)
(0.0018518 0.0701771 5.33895e-19)
(0.0197794 0.0684324 1.74968e-19)
(0.0405763 0.0657031 1.97342e-19)
(0.0640872 0.0621644 -7.86495e-19)
(0.0901747 0.0579575 9.74916e-19)
(0.11871 0.0531939 -2.9343e-19)
(0.149563 0.0479601 -2.11324e-19)
(0.182592 0.0423209 6.36668e-19)
(0.217639 0.036323 2.86557e-19)
(0.254516 0.0299983 -7.2722e-19)
(0.293004 0.023369 -3.06657e-19)
(0.332848 0.0164591 9.27323e-19)
(0.373737 0.00931214 -7.12675e-19)
(0.415228 0.00201793 4.30481e-19)
(0.456754 -0.00501784 2.42449e-19)
(0.498392 -0.00974808 -3.12543e-19)
(0.537972 -0.00843648 -3.0547e-19)
(-0.00986538 0.0114294 -2.89128e-19)
(-0.0240432 0.0287568 4.66766e-19)
(-0.0326908 0.0416935 1.99756e-19)
(-0.0360946 0.0509833 -2.90114e-19)
(-0.0345966 0.0572839 -4.67445e-20)
(-0.0285502 0.0611492 -3.06639e-19)
(-0.0182923 0.0630367 -1.2247e-19)
(-0.00412484 0.0633252 1.38232e-19)
(0.0136908 0.0623279 -3.48329e-20)
(0.0349306 0.0603034 2.62602e-19)
(0.0594008 0.0574642 -2.29136e-19)
(0.0869286 0.0539843 6.36855e-19)
(0.117351 0.0500048 -7.93172e-19)
(0.150503 0.0456396 4.96365e-19)
(0.186208 0.0409795 6.20609e-19)
(0.224267 0.0360963 -9.01459e-19)
(0.264446 0.0310452 -2.7614e-19)
(0.306475 0.0258682 4.67537e-19)
(0.350035 0.020596 -2.89735e-19)
(0.394764 0.0152547 2.82445e-19)
(0.440239 0.00987319 -6.8631e-19)
(0.48591 0.00448166 1.1441e-19)
(0.531094 -0.000686689 4.52594e-19)
(0.575844 -0.00375685 -7.317e-19)
(0.618628 -0.000589195 1.97455e-19)
(-0.0101703 0.0110259 -2.66635e-19)
(-0.0242574 0.0272322 8.68093e-19)
(-0.0322149 0.0389427 1.67402e-19)
(-0.0343911 0.0470304 -4.55132e-19)
(-0.0311715 0.0522311 3.27815e-19)
(-0.0229391 0.055144 1.67317e-19)
(-0.0100502 0.0562517 2.67796e-19)
(0.0071799 0.055945 -1.76122e-20)
(0.0284778 0.0545417 -2.82475e-20)
(0.0536051 0.0523012 -5.92575e-20)
(0.0823475 0.0494355 -2.59364e-19)
(0.114503 0.0461175 -9.06304e-21)
(0.149868 0.0424887 6.10794e-19)
(0.188226 0.0386648 -1.00732e-18)
(0.229335 0.0347405 7.1915e-19)
(0.272916 0.030794 1.46178e-19)
(0.318648 0.0268911 2.59845e-19)
(0.366158 0.0230882 -1.35754e-19)
(0.415019 0.0194353 1.20313e-18)
(0.464742 0.0159818 -7.48217e-19)
(0.514768 0.0127769 6.01986e-19)
(0.564405 0.00984523 1.43e-19)
(0.612792 0.0073274 -4.4656e-19)
(0.659846 0.00701563 3.79898e-19)
(0.704684 0.0134319 5.94974e-19)
(-0.0104529 0.0106224 -7.70574e-20)
(-0.0242804 0.0256884 -3.05959e-19)
(-0.031273 0.0361654 -5.25754e-19)
(-0.031869 0.0430546 -3.00798e-19)
(-0.0265112 0.0471706 -4.23058e-20)
(-0.0156208 0.0491603 -1.1986e-19)
(0.000420038 0.0495329 -5.58177e-19)
(0.0212757 0.0486927 9.31358e-20)
(0.0466523 0.0469631 -6.32246e-19)
(0.0762853 0.0446049 -4.926e-20)
(0.109925 0.0418289 -6.11369e-19)
(0.147323 0.0388061 -2.18759e-19)
(0.188215 0.0356757 1.26155e-19)
(0.232309 0.0325515 -6.02581e-19)
(0.279275 0.0295272 5.34499e-21)
(0.328738 0.0266823 -5.24072e-19)
(0.380272 0.0240869 2.03583e-19)
(0.433401 0.021808 -7.38321e-19)
(0.487594 0.0199169 -1.27475e-19)
(0.54227 0.0184997 -1.66699e-20)
(0.596783 0.0176637 -1.25895e-19)
(0.650346 0.01752 -1.2829e-19)
(0.701963 0.0183546 -6.22649e-20)
(0.7511 0.0221737 -2.57461e-19)
(0.795882 0.0330222 -5.59363e-19)
(-0.0106911 0.0102016 1.41779e-19)
(-0.0240453 0.024095 3.87059e-19)
(-0.0297489 0.0333366 4.6774e-19)
(-0.0283592 0.039047 -3.75762e-19)
(-0.0203917 0.0421173 7.01122e-19)
(-0.00631539 0.0432423 -3.82337e-19)
(0.013452 0.0429577 2.08686e-19)
(0.0385437 0.0416812 3.26556e-19)
(0.0686311 0.0397418 2.98271e-19)
(0.103406 0.0374003 1.45631e-19)
(0.142563 0.0348645 2.36339e-19)
(0.185779 0.0322997 1.3788e-19)
(0.232703 0.0298375 9.36851e-19)
(0.282939 0.0275822 -6.83654e-19)
(0.336043 0.0256166 7.84005e-19)
(0.39152 0.0240083 -3.2698e-19)
(0.448827 0.0228152 7.0933e-19)
(0.507381 0.0220936 -3.28698e-20)
(0.566573 0.0219081 -1.47826e-19)
(0.625786 0.0223479 -2.55778e-20)
(0.684416 0.0235456 5.61867e-19)
(0.741882 0.0257191 -5.43974e-19)
(0.797766 0.0294804 3.87243e-19)
(0.852094 0.0367937 4.20613e-19)
(0.898984 0.0467651 8.34668e-20)
(-0.0108571 0.00974536 9.79663e-20)
(-0.0234726 0.0224194 -5.52672e-19)
(-0.0275111 0.0304281 -2.02022e-19)
(-0.0236783 0.0349959 1.85654e-19)
(-0.0125779 0.0370843 -5.74569e-19)
(0.00526119 0.0374334 -1.13702e-19)
(0.0293722 0.0366037 7.93185e-20)
(0.0593406 0.0350249 3.14584e-19)
(0.0947827 0.0330295 -8.00169e-19)
(0.135322 0.0308756 6.10798e-20)
(0.180566 0.0287637 -2.35817e-19)
(0.230088 0.0268473 -7.19877e-19)
(0.283412 0.0252421 4.92439e-19)
(0.340007 0.0240326 2.11791e-20)
(0.399284 0.0232774 -1.50162e-20)
(0.460603 0.0230155 5.02488e-19)
(0.523284 0.023271 -8.90368e-19)
(0.586628 0.0240601 7.07141e-19)
(0.649937 0.0253971 -1.31555e-19)
(0.712546 0.0273015 4.10474e-19)
(0.773855 0.0298026 -6.78106e-19)
(0.833356 0.0329455 3.85706e-19)
(0.890752 0.0369179 -6.82247e-19)
(0.946209 0.0425167 6.91049e-19)
(0.994922 0.0482514 -2.23829e-19)
(-0.0109178 0.00923553 6.55943e-19)
(-0.0224717 0.0206299 -1.10611e-19)
(-0.0244164 0.0274133 8.22314e-19)
(-0.0176329 0.0308914 3.82884e-19)
(-0.0028302 0.0320864 3.08832e-20)
(0.0193871 0.031779 1.68872e-19)
(0.0484853 0.0305511 4.09748e-20)
(0.0839793 0.0288406 6.94324e-19)
(0.125403 0.0269796 2.24535e-19)
(0.172277 0.0252186 -3.02973e-20)
(0.224086 0.0237439 6.07017e-20)
(0.280261 0.0226889 2.35075e-19)
(0.340163 0.022143 1.97042e-19)
(0.403092 0.0221587 4.23325e-19)
(0.468283 0.022757 -4.83847e-19)
(0.534934 0.0239337 1.46479e-19)
(0.602216 0.0256647 4.51655e-20)
(0.66931 0.0279114 2.17761e-19)
(0.735433 0.0306255 5.88124e-19)
(0.799866 0.0337527 -3.87005e-19)
(0.86199 0.0372315 3.0982e-20)
(0.921304 0.0409865 -5.34664e-19)
(0.977462 0.0449751 5.00241e-19)
(1.03046 0.0495815 -4.71028e-19)
(1.07678 0.0543299 5.37012e-20)
(-0.0108363 0.00865613 -5.46825e-19)
(-0.020944 0.0186992 4.33718e-19)
(-0.0203128 0.0242706 -7.10335e-19)
(-0.0100247 0.0267292 6.16465e-20)
(0.00908759 0.0271446 5.05492e-19)
(0.0363247 0.0263313 -8.46455e-19)
(0.0710616 0.0248862 6.74658e-19)
(0.112713 0.02325 -1.07538e-18)
(0.160693 0.0217478 2.15305e-19)
(0.214382 0.0206151 4.62217e-20)
(0.273098 0.0200143 3.66204e-19)
(0.336084 0.0200476 -1.22107e-18)
(0.402506 0.0207661 2.11597e-19)
(0.47146 0.0221771 2.24898e-19)
(0.541992 0.0242516 -1.35165e-19)
(0.613127 0.026931 -8.39802e-19)
(0.6839 0.0301343 3.97008e-19)
(0.753391 0.0337643 7.40418e-19)
(0.820757 0.0377135 -7.79174e-19)
(0.885267 0.0418672 5.63816e-19)
(0.94632 0.0461041 -7.23395e-19)
(1.00346 0.0502905 5.24578e-19)
(1.05636 0.0543017 -1.39912e-19)
(1.105 0.0583687 8.00279e-19)
(1.14706 0.0627667 -9.00637e-19)
(-0.0105726 0.00799446 7.81018e-20)
(-0.0187849 0.0166076 6.40627e-20)
(-0.0150439 0.0209886 1.57596e-19)
(-0.000655833 0.0225165 5.6618e-19)
(0.0234019 0.0222921 -1.78479e-20)
(0.0563111 0.0211542 1.27927e-19)
(0.0973247 0.0197065 5.72383e-19)
(0.145719 0.0183836 2.32143e-19)
(0.200747 0.0174946 -7.67932e-20)
(0.261598 0.0172485 6.56943e-19)
(0.327381 0.017772 -7.51154e-19)
(0.397111 0.0191223 1.15683e-18)
(0.469723 0.0212981 -4.60574e-19)
(0.544095 0.0242489 8.3817e-19)
(0.619081 0.0278843 -2.83934e-19)
(0.69355 0.0320845 1.03715e-19)
(0.766431 0.0367091 1.25821e-19)
(0.836752 0.0416065 -2.41156e-19)
(0.90367 0.0466214 2.03139e-19)
(0.966503 0.0516001 1.30566e-19)
(1.02474 0.0563941 1.77929e-19)
(1.07803 0.0608578 3.70156e-19)
(1.12619 0.064859 -3.56217e-20)
(1.16926 0.0685555 -1.68557e-19)
(1.20599 0.0726844 4.84123e-19)
(-0.0100849 0.0072423 -4.56623e-19)
(-0.0158867 0.0143457 5.00419e-20)
(-0.00845212 0.0175697 -9.06567e-19)
(0.0106661 0.0182766 -2.17838e-19)
(0.0403224 0.0175799 -4.1042e-19)
(0.0795499 0.01633 -8.84827e-20)
(0.127441 0.015126 -4.44359e-19)
(0.183089 0.014385 -2.66916e-19)
(0.245534 0.0143868 3.55267e-19)
(0.313728 0.0152997 -5.95453e-19)
(0.386521 0.0171987 -1.66073e-19)
(0.462668 0.0200805 6.49722e-21)
(0.540855 0.0238768 -1.13011e-18)
(0.619742 0.0284671 4.81696e-19)
(0.69801 0.0336922 -7.04233e-19)
(0.774418 0.0393682 -2.16854e-20)
(0.847846 0.0452995 1.38014e-19)
(0.917339 0.0512902 -2.26e-19)
(0.982133 0.057154 -1.97773e-19)
(1.04167 0.0627215 9.64087e-20)
(1.09561 0.0678438 1.06442e-19)
(1.14378 0.072393 -6.93315e-19)
(1.18619 0.0762654 3.9475e-19)
(1.22305 0.0795909 1.91706e-19)
(1.25387 0.0833077 4.51976e-20)
(-0.00933068 0.00639668 4.66798e-19)
(-0.0121408 0.0119173 -5.16605e-19)
(-0.000382675 0.0140343 7.29912e-19)
(0.0241233 0.0140544 1.14493e-19)
(0.0600357 0.0130816 -3.52427e-20)
(0.106203 0.0119635 -2.50046e-19)
(0.161511 0.0112794 3.77221e-20)
(0.224817 0.011413 3.84352e-19)
(0.294895 0.0125979 -5.32708e-19)
(0.370409 0.0149434 5.61963e-19)
(0.449912 0.0184546 -5.95595e-20)
(0.531877 0.0230506 2.65799e-20)
(0.614741 0.0285818 7.38526e-19)
(0.696971 0.034849 9.90916e-19)
(0.777127 0.041621 -3.89176e-19)
(0.85392 0.048654 6.88897e-19)
(0.926263 0.0557069 3.47527e-19)
(0.993306 0.0625561 -2.1442e-19)
(1.05445 0.0690047 6.71579e-19)
(1.10933 0.0748899 -2.95899e-20)
(1.15784 0.0800853 -6.39696e-19)
(1.20004 0.0844999 6.68352e-19)
(1.23618 0.0880746 9.1574e-20)
(1.26664 0.0909393 -4.05395e-19)
(1.29149 0.094063 1.28336e-19)
(-0.00826741 0.00546037 -6.48972e-19)
(-0.00744027 0.00934001 7.04135e-19)
(0.00931293 0.0104231 -4.49878e-19)
(0.0398824 0.00991873 -1.41227e-19)
(0.0826988 0.0088975 -3.18549e-19)
(0.136381 0.0081853 5.66755e-19)
(0.199557 0.00832288 -3.30985e-19)
(0.27079 0.00964055 -1.52549e-19)
(0.348533 0.0123042 -4.3871e-19)
(0.431116 0.0163425 1.13776e-20)
(0.51677 0.0216704 -1.73044e-19)
(0.603683 0.0281125 8.4294e-20)
(0.690071 0.0354273 -8.9125e-19)
(0.774261 0.0433327 2.54888e-19)
(0.854764 0.0515295 -3.0718e-19)
(0.930334 0.0597248 -2.46663e-19)
(1.00001 0.0676495 7.56832e-20)
(1.06314 0.0750728 -3.58765e-19)
(1.11935 0.0818101 -1.51228e-19)
(1.16857 0.0877267 4.41029e-19)
(1.21092 0.092737 1.82979e-19)
(1.24674 0.0967994 -7.81661e-19)
(1.2765 0.0999072 5.69591e-19)
(1.30077 0.102207 -1.0738e-19)
(1.31994 0.10459 -2.18766e-19)
(-0.00685308 0.00444196 -2.36136e-19)
(-0.00168175 0.00664709 -1.31119e-19)
(0.0207732 0.00679873 -2.62854e-20)
(0.0580893 0.0059647 1.94928e-19)
(0.108431 0.00515507 2.13342e-19)
(0.170138 0.00515153 1.86899e-19)
(0.241518 0.00643276 2.33855e-19)
(0.320782 0.00925058 3.58803e-19)
(0.406011 0.0136778 5.51077e-19)
(0.495168 0.0196384 5.47477e-19)
(0.586155 0.0269369 2.90046e-19)
(0.676902 0.0352896 -7.83094e-20)
(0.765457 0.0443579 1.96488e-20)
(0.850088 0.05378 -2.54604e-20)
(0.929352 0.063201 2.31983e-19)
(1.00215 0.0722975 -6.00072e-20)
(1.06774 0.0807952 6.81906e-19)
(1.12575 0.0884803 -3.07869e-19)
(1.1761 0.095203 3.7228e-21)
(1.21901 0.100875 2.10477e-19)
(1.25489 0.105466 -4.6304e-19)
(1.28431 0.108989 7.6187e-19)
(1.30794 0.111491 -6.15601e-19)
(1.32649 0.113143 1.098e-19)
(1.34056 0.114701 -3.93422e-19)
(-0.00504679 0.0033558 5.06491e-19)
(0.00523241 0.00388675 3.5448e-19)
(0.0341227 0.00324556 -2.28727e-19)
(0.0788628 0.00231308 1.01829e-18)
(0.137307 0.00200796 -8.86938e-19)
(0.207455 0.00304069 1.88053e-19)
(0.287236 0.00579921 -1.42011e-19)
(0.374448 0.0104272 -6.30716e-19)