/*--------------------------------*- C++ -*----------------------------------*\
  =========                 |
  \\      /  F ield         | OpenFOAM: The Open Source CFD Toolbox
   \\    /   O peration     | Website:  https://openfoam.org
    \\  /    A nd           | Version:  6.0
     \\/     M anipulation  |
\*---------------------------------------------------------------------------*/
FoamFile
{
    version     2.0;
    format      ascii;
    class       volScalarField;
    location    "7";
    object      p;
}
// * * * * * * * * * * * * * * * * * * * * * * * * * * * * * * * * * * * * * //

dimensions      [0 2 -2 0 0 0 0];

internalField   nonuniform List<scalar> 
8000
(
-0.325065
-0.327757
-0.329443
-0.330707
-0.331902
-0.333099
-0.334342
-0.335662
-0.337066
-0.338556
-0.340124
-0.341763
-0.343465
-0.345221
-0.347032
-0.348914
-0.350831
-0.352568
-0.35417
-0.357585
-0.32556
-0.328175
-0.32982
-0.331059
-0.332235
-0.333416
-0.334646
-0.335954
-0.337348
-0.338828
-0.340386
-0.342016
-0.343708
-0.345455
-0.347256
-0.349128
-0.351038
-0.35277
-0.354358
-0.357764
-0.326533
-0.328999
-0.330563
-0.331753
-0.332889
-0.334039
-0.335243
-0.336527
-0.3379
-0.339359
-0.340897
-0.342507
-0.344179
-0.345906
-0.347687
-0.34954
-0.351435
-0.353155
-0.354716
-0.358102
-0.327937
-0.330189
-0.331636
-0.332752
-0.33383
-0.334931
-0.336093
-0.33734
-0.338678
-0.340103
-0.341609
-0.343187
-0.344827
-0.346521
-0.348269
-0.35009
-0.351959
-0.353658
-0.355178
-0.358527
-0.329705
-0.331689
-0.332987
-0.334008
-0.335007
-0.336042
-0.337145
-0.338338
-0.339625
-0.341001
-0.342459
-0.343988
-0.34558
-0.347226
-0.348925
-0.350697
-0.352525
-0.354192
-0.355652
-0.358943
-0.331756
-0.333435
-0.334558
-0.335462
-0.336363
-0.337311
-0.338336
-0.339456
-0.340672
-0.34198
-0.34337
-0.344832
-0.346356
-0.347934
-0.349564
-0.351268
-0.353035
-0.354653
-0.356035
-0.359244
-0.334004
-0.335356
-0.336285
-0.337054
-0.337837
-0.338677
-0.339603
-0.340627
-0.34175
-0.342967
-0.344266
-0.345637
-0.34707
-0.348556
-0.350094
-0.351706
-0.353389
-0.354938
-0.356224
-0.359323
-0.336363
-0.337383
-0.338107
-0.338725
-0.33937
-0.340082
-0.340883
-0.341786
-0.342791
-0.34389
-0.345072
-0.346326
-0.347642
-0.34901
-0.350429
-0.351922
-0.353495
-0.354953
-0.356124
-0.359087
-0.338756
-0.339454
-0.33997
-0.340424
-0.340914
-0.341474
-0.342126
-0.342882
-0.34374
-0.344693
-0.34573
-0.346838
-0.348008
-0.349229
-0.350501
-0.351846
-0.353281
-0.354621
-0.355659
-0.358465
-0.341117
-0.34152
-0.341831
-0.342112
-0.342429
-0.342816
-0.343294
-0.343875
-0.344559
-0.345337
-0.346199
-0.347133
-0.348127
-0.349173
-0.350268
-0.351436
-0.352701
-0.353895
-0.354779
-0.357412
-0.343399
-0.343544
-0.343659
-0.343761
-0.343891
-0.344085
-0.344366
-0.344746
-0.345228
-0.345804
-0.346465
-0.347197
-0.34799
-0.348832
-0.349722
-0.350683
-0.351745
-0.352759
-0.353464
-0.355907
-0.345577
-0.34551
-0.345442
-0.34536
-0.345291
-0.345274
-0.345337
-0.345494
-0.345751
-0.346102
-0.34654
-0.347049
-0.347618
-0.348234
-0.348894
-0.349617
-0.350442
-0.351234
-0.351718
-0.353946
-0.347646
-0.347415
-0.347181
-0.346913
-0.346636
-0.346394
-0.34622
-0.346136
-0.34615
-0.346261
-0.34646
-0.346732
-0.347063
-0.347438
-0.347848
-0.348308
-0.348857
-0.349373
-0.349571
-0.351528
-0.349625
-0.349277
-0.348891
-0.348437
-0.347945
-0.347466
-0.347044
-0.346706
-0.346468
-0.346329
-0.346283
-0.346314
-0.346404
-0.346532
-0.34668
-0.346854
-0.347087
-0.347261
-0.347068
-0.34864
-0.351557
-0.35113
-0.350604
-0.349964
-0.349249
-0.348527
-0.347849
-0.347252
-0.346756
-0.346367
-0.346078
-0.345873
-0.345728
-0.345613
-0.345497
-0.34537
-0.345246
-0.344997
-0.344266
-0.345256
-0.353501
-0.353023
-0.352365
-0.351534
-0.350593
-0.349622
-0.348684
-0.347827
-0.347076
-0.346443
-0.345921
-0.345492
-0.345124
-0.344778
-0.344405
-0.343967
-0.34345
-0.342694
-0.341252
-0.341366
-0.355535
-0.355018
-0.354226
-0.3532
-0.352028
-0.350805
-0.349608
-0.348493
-0.347494
-0.346626
-0.345883
-0.345244
-0.344671
-0.344109
-0.34349
-0.342739
-0.341801
-0.340475
-0.338172
-0.337049
-0.357748
-0.357185
-0.356249
-0.35502
-0.353611
-0.352135
-0.350681
-0.349314
-0.348075
-0.346982
-0.346031
-0.345197
-0.344434
-0.343672
-0.342817
-0.341751
-0.340365
-0.3384
-0.335086
-0.332286
-0.360234
-0.359601
-0.358503
-0.357058
-0.355405
-0.353674
-0.351966
-0.350353
-0.348884
-0.347577
-0.346431
-0.345418
-0.344486
-0.343555
-0.342506
-0.341179
-0.339376
-0.33671
-0.332102
-0.326964
-0.363088
-0.362342
-0.361055
-0.359376
-0.357471
-0.355483
-0.353523
-0.351672
-0.34998
-0.348471
-0.347143
-0.345972
-0.344912
-0.34389
-0.342802
-0.341509
-0.339812
-0.337229
-0.332367
-0.32611
-0.366401
-0.365483
-0.36397
-0.362038
-0.359868
-0.357619
-0.355409
-0.353323
-0.351415
-0.349709
-0.348209
-0.346895
-0.345736
-0.34469
-0.343721
-0.342816
-0.342017
-0.341433
-0.341658
-0.347846
-0.370253
-0.369092
-0.367311
-0.365099
-0.36265
-0.360132
-0.357671
-0.355352
-0.353229
-0.351328
-0.349651
-0.348185
-0.346911
-0.345809
-0.344881
-0.344167
-0.343785
-0.343954
-0.345186
-0.350531
-0.374713
-0.373228
-0.37113
-0.36861
-0.365863
-0.363067
-0.360349
-0.357794
-0.355452
-0.353346
-0.351476
-0.349831
-0.348395
-0.347161
-0.346141
-0.345386
-0.344999
-0.345142
-0.346073
-0.349115
-0.379836
-0.377943
-0.375477
-0.372616
-0.36955
-0.366461
-0.363477
-0.360677
-0.358103
-0.355769
-0.353672
-0.351794
-0.350119
-0.348637
-0.347356
-0.346307
-0.34555
-0.345158
-0.345247
-0.346183
-0.385666
-0.383279
-0.380392
-0.377158
-0.373748
-0.37035
-0.367085
-0.364021
-0.361187
-0.358587
-0.356204
-0.354013
-0.351991
-0.350121
-0.348399
-0.346836
-0.345454
-0.344265
-0.343326
-0.342516
-0.392237
-0.389274
-0.385914
-0.382272
-0.378495
-0.374766
-0.371197
-0.367838
-0.364701
-0.361771
-0.359018
-0.356408
-0.353909
-0.3515
-0.349171
-0.346922
-0.344757
-0.342673
-0.340704
-0.338577
-0.399574
-0.395956
-0.392076
-0.387997
-0.383826
-0.379741
-0.375835
-0.372133
-0.368625
-0.365275
-0.362041
-0.35888
-0.35576
-0.352664
-0.349585
-0.346527
-0.343498
-0.340499
-0.337562
-0.334418
-0.407696
-0.403351
-0.398908
-0.394364
-0.389773
-0.385299
-0.381006
-0.376892
-0.372917
-0.369029
-0.365176
-0.361317
-0.35743
-0.35351
-0.349567
-0.345621
-0.341692
-0.337801
-0.333976
-0.330022
-0.416608
-0.411473
-0.406434
-0.401401
-0.396361
-0.39145
-0.386703
-0.382077
-0.37751
-0.372937
-0.368308
-0.363597
-0.358803
-0.353945
-0.349056
-0.344177
-0.339345
-0.334595
-0.329956
-0.325304
-0.426305
-0.420326
-0.414664
-0.40912
-0.403594
-0.398185
-0.392885
-0.387619
-0.382305
-0.376878
-0.371308
-0.365595
-0.359772
-0.353888
-0.348003
-0.342175
-0.336455
-0.330887
-0.325492
-0.320202
-0.436761
-0.429895
-0.423593
-0.417515
-0.411453
-0.405458
-0.399479
-0.393412
-0.387169
-0.380709
-0.374034
-0.367187
-0.36024
-0.353275
-0.346373
-0.339604
-0.333025
-0.326678
-0.320576
-0.314678
-0.447924
-0.440143
-0.433189
-0.42655
-0.419884
-0.413188
-0.40637
-0.399312
-0.391947
-0.384272
-0.376345
-0.368259
-0.360126
-0.352055
-0.34414
-0.336457
-0.329057
-0.321974
-0.315205
-0.308725
-0.459713
-0.451004
-0.44339
-0.436151
-0.42879
-0.421246
-0.413399
-0.405144
-0.396457
-0.387404
-0.378105
-0.368708
-0.359359
-0.350186
-0.341287
-0.332729
-0.324553
-0.316778
-0.309381
-0.302348
-0.47201
-0.462377
-0.454098
-0.446205
-0.438031
-0.429459
-0.420371
-0.410703
-0.400511
-0.389941
-0.379185
-0.368441
-0.35788
-0.347634
-0.337793
-0.32841
-0.319509
-0.31109
-0.303107
-0.295555
-0.484658
-0.47412
-0.465169
-0.456551
-0.447414
-0.437611
-0.427057
-0.415771
-0.403912
-0.391725
-0.379469
-0.367378
-0.355635
-0.344363
-0.333637
-0.323487
-0.313915
-0.304903
-0.296377
-0.288349
-0.497458
-0.486053
-0.476418
-0.466978
-0.456704
-0.445448
-0.433204
-0.420117
-0.406471
-0.392608
-0.378846
-0.365441
-0.35257
-0.340338
-0.328792
-0.317936
-0.307752
-0.298198
-0.289178
-0.280725
-0.510168
-0.497949
-0.487611
-0.477231
-0.465623
-0.452686
-0.438549
-0.423515
-0.408006
-0.392454
-0.377219
-0.36256
-0.348633
-0.335514
-0.323219
-0.311725
-0.30099
-0.290952
-0.281488
-0.272667
-0.522508
-0.509542
-0.498472
-0.487011
-0.473862
-0.459027
-0.442824
-0.425743
-0.408345
-0.391135
-0.374493
-0.358662
-0.343765
-0.329843
-0.316877
-0.304816
-0.293594
-0.283132
-0.273277
-0.26415
-0.534161
-0.520527
-0.508683
-0.495988
-0.481087
-0.464164
-0.44577
-0.426597
-0.407333
-0.388536
-0.37058
-0.353677
-0.337909
-0.323273
-0.309717
-0.297162
-0.285523
-0.274697
-0.264512
-0.255143
-0.544782
-0.530565
-0.517896
-0.503804
-0.486959
-0.467795
-0.447139
-0.425885
-0.404828
-0.384547
-0.365394
-0.347534
-0.331
-0.315747
-0.301687
-0.288715
-0.27673
-0.265608
-0.255153
-0.245611
-0.554003
-0.539295
-0.525743
-0.510092
-0.491139
-0.469635
-0.446706
-0.423437
-0.400699
-0.379069
-0.358855
-0.340164
-0.322977
-0.307207
-0.292733
-0.279428
-0.267172
-0.25582
-0.245162
-0.235516
-0.561441
-0.546337
-0.531839
-0.514484
-0.493301
-0.469418
-0.444267
-0.419101
-0.394833
-0.372012
-0.350886
-0.331499
-0.313779
-0.297598
-0.282804
-0.269251
-0.256803
-0.245295
-0.234501
-0.224824
-0.566716
-0.55131
-0.535807
-0.516629
-0.493146
-0.466909
-0.439647
-0.412746
-0.38713
-0.363294
-0.341416
-0.321475
-0.303348
-0.286865
-0.271852
-0.25814
-0.245583
-0.233993
-0.223137
-0.213503
-0.569454
-0.553841
-0.53728
-0.516197
-0.490405
-0.461904
-0.432697
-0.404262
-0.377502
-0.352843
-0.330384
-0.310037
-0.291631
-0.274963
-0.259833
-0.246057
-0.233477
-0.221885
-0.21104
-0.201526
-0.569304
-0.553574
-0.535922
-0.512895
-0.484849
-0.454236
-0.423296
-0.39356
-0.365881
-0.3406
-0.317735
-0.297136
-0.278586
-0.261851
-0.246711
-0.232971
-0.220458
-0.208945
-0.198192
-0.188874
-0.565942
-0.550187
-0.531429
-0.506474
-0.476291
-0.443774
-0.411353
-0.380573
-0.352212
-0.326517
-0.303426
-0.282732
-0.264176
-0.247498
-0.23246
-0.218856
-0.206504
-0.195156
-0.184577
-0.175535
-0.559088
-0.543396
-0.523547
-0.496733
-0.464591
-0.430425
-0.396808
-0.365256
-0.336457
-0.310561
-0.287428
-0.266798
-0.248377
-0.231882
-0.217061
-0.203699
-0.191603
-0.18051
-0.17019
-0.161504
-0.548509
-0.532969
-0.512073
-0.483525
-0.449655
-0.414135
-0.379626
-0.347587
-0.318598
-0.292714
-0.269724
-0.249319
-0.231175
-0.214992
-0.200505
-0.187493
-0.175754
-0.165006
-0.155036
-0.146784
-0.534028
-0.518727
-0.496865
-0.466757
-0.431438
-0.394887
-0.359805
-0.327565
-0.298636
-0.272976
-0.250311
-0.23029
-0.212567
-0.196826
-0.182794
-0.170243
-0.158962
-0.148657
-0.139127
-0.131388
-0.515525
-0.500557
-0.477841
-0.446394
-0.409938
-0.372701
-0.337371
-0.305216
-0.276589
-0.251361
-0.2292
-0.209724
-0.192564
-0.177395
-0.163938
-0.15196
-0.141244
-0.131481
-0.122489
-0.115343
-0.49295
-0.478405
-0.45498
-0.422456
-0.385203
-0.347631
-0.312378
-0.280586
-0.252496
-0.227901
-0.206419
-0.18764
-0.171184
-0.156717
-0.143954
-0.132664
-0.122621
-0.113507
-0.105157
-0.0986924
-0.466312
-0.452286
-0.428325
-0.395015
-0.357322
-0.319771
-0.284908
-0.253747
-0.226419
-0.202646
-0.182008
-0.164074
-0.148456
-0.134815
-0.122867
-0.112379
-0.103118
-0.0947634
-0.0871687
-0.0814818
-0.435688
-0.422279
-0.39798
-0.364198
-0.326428
-0.289244
-0.255074
-0.224795
-0.198438
-0.175664
-0.156023
-0.139072
-0.124418
-0.111722
-0.100703
-0.0911254
-0.0827575
-0.0752774
-0.0685578
-0.0637339
-0.40122
-0.388527
-0.364105
-0.330178
-0.292692
-0.256209
-0.223015
-0.193851
-0.168656
-0.147041
-0.128534
-0.112689
-0.0991124
-0.0874706
-0.0774851
-0.0689254
-0.0615597
-0.0550748
-0.0493474
-0.0454365
-0.363107
-0.35123
-0.326914
-0.293174
-0.256323
-0.220857
-0.1889
-0.161061
-0.137198
-0.116882
-0.0996295
-0.084994
-0.0725902
-0.0620935
-0.0532346
-0.0457903
-0.0395362
-0.0341701
-0.0295468
-0.0265881
-0.321609
-0.310646
-0.286671
-0.253446
-0.217565
-0.183408
-0.152925
-0.126598
-0.104214
-0.0853161
-0.0694148
-0.0560711
-0.0449122
-0.0356291
-0.0279687
-0.021721
-0.0166748
-0.0125455
-0.00916447
-0.00732964
-0.277033
-0.267079
-0.243683
-0.211292
-0.176695
-0.144112
-0.115313
-0.0906611
-0.0698812
-0.0524956
-0.038018
-0.0260221
-0.0161541
-0.00812849
-0.00171645
0.00327523
0.00704017
0.00980459
0.0116693
0.0119139
-0.229733
-0.22088
-0.198296
-0.167041
-0.134018
-0.103248
-0.076318
-0.0534776
-0.0344011
-0.0185969
-0.00558563
0.00504157
0.0136124
0.0203777
0.0255307
0.0292427
0.0316643
0.0328367
0.0326218
0.0306875
-0.180102
-0.172434
-0.150884
-0.12105
-0.0898634
-0.061119
-0.0362173
-0.0153048
0.00198946
0.0161678
0.0277033
0.0369893
0.0443287
0.0499361
0.0539663
0.0565587
0.0577435
0.0571471
0.0542689
0.0501299
-0.128562
-0.122156
-0.101851
-0.0736972
-0.0445813
-0.0180483
0.0046853
0.023569
0.0390129
0.0515295
0.061591
0.0695875
0.0758178
0.0804948
0.0837865
0.08585
0.0865825
0.0850979
0.08067
0.0762046
-0.0755618
-0.0704837
-0.0516152
-0.0253741
0.00146522
0.0256262
0.0460706
0.0628346
0.0763603
0.087167
0.0957265
0.102432
0.107596
0.11147
0.11431
0.116401
0.11771
0.11721
0.114643
0.118582
-0.0215555
-0.0178635
-0.000604981
0.0235197
0.0479072
0.0695616
0.087615
0.10218
0.113722
0.122761
0.12976
0.135105
0.139108
0.142031
0.144145
0.145722
0.146742
0.146714
0.146573
0.152712
0.0329853
0.0352451
0.0507447
0.0725817
0.0943755
0.113417
0.128999
0.141301
0.150804
0.158023
0.163409
0.167338
0.170114
0.171999
0.17325
0.174093
0.174505
0.174182
0.174068
0.179045
0.0875881
0.0883831
0.102001
0.121414
0.140506
0.156857
0.169912
0.179905
0.187326
0.192677
0.196395
0.198837
0.200293
0.201013
0.201231
0.201151
0.200763
0.199836
0.199146
0.202561
0.141785
0.141096
0.152738
0.169626
0.185946
0.199561
0.210059
0.217719
0.223035
0.226492
0.228506
0.229414
0.229487
0.228952
0.228021
0.226865
0.225462
0.223611
0.222023
0.223989
0.195115
0.192937
0.202539
0.216841
0.230352
0.241219
0.249158
0.254487
0.257696
0.259252
0.259548
0.258898
0.257553
0.255719
0.253583
0.251289
0.2488
0.245937
0.243374
0.243953
0.247131
0.243475
0.251003
0.262692
0.273397
0.281536
0.286944
0.289969
0.291094
0.290767
0.289354
0.287149
0.284379
0.281231
0.277869
0.274411
0.270813
0.266921
0.263383
0.262653
0.297401
0.292293
0.297743
0.306834
0.31477
0.320234
0.323165
0.32394
0.323029
0.320858
0.317771
0.314037
0.309864
0.305419
0.300845
0.296241
0.291555
0.286663
0.282175
0.280203
0.345514
0.338994
0.342394
0.348934
0.354175
0.357046
0.357586
0.356187
0.353311
0.349359
0.344652
0.339439
0.333907
0.328204
0.322457
0.316745
0.311017
0.305173
0.299776
0.296628
0.39108
0.383203
0.38461
0.388683
0.391335
0.391726
0.389982
0.386512
0.381761
0.376111
0.36986
0.363235
0.356406
0.349505
0.34264
0.335876
0.329166
0.32243
0.316174
0.311915
0.433732
0.424569
0.424067
0.42579
0.425988
0.424039
0.420145
0.414725
0.408212
0.400965
0.393262
0.38531
0.377261
0.369234
0.36132
0.353574
0.345951
0.338388
0.331327
0.32603
0.473131
0.462766
0.460466
0.459986
0.457896
0.45377
0.447881
0.440653
0.432506
0.42378
0.41473
0.405548
0.396371
0.387302
0.37842
0.369769
0.361309
0.352989
0.345184
0.338925
0.508966
0.497497
0.493535
0.491024
0.486836
0.480721
0.47301
0.464134
0.454497
0.444421
0.434145
0.423843
0.413639
0.403622
0.393861
0.384389
0.375173
0.366171
0.357688
0.350548
0.540956
0.528492
0.523025
0.518684
0.51261
0.504712
0.495369
0.485019
0.47405
0.462768
0.451396
0.440093
0.428972
0.41811
0.407564
0.397362
0.387476
0.377868
0.368777
0.360847
0.568851
0.555512
0.548718
0.542766
0.53504
0.525581
0.514814
0.503175
0.491044
0.47871
0.466381
0.454206
0.442284
0.430686
0.419457
0.408621
0.398153
0.38802
0.378398
0.369774
0.592433
0.57835
0.570423
0.563101
0.553971
0.543191
0.531217
0.518489
0.505373
0.492149
0.479012
0.466099
0.453501
0.44128
0.429475
0.418104
0.407146
0.396571
0.386497
0.377285
0.61152
0.596832
0.587981
0.579544
0.569275
0.557422
0.544471
0.530859
0.516948
0.503002
0.489211
0.4757
0.462556
0.449832
0.437561
0.425757
0.414404
0.403473
0.393032
0.38334
0.625964
0.610817
0.601263
0.591978
0.580844
0.568179
0.554488
0.540208
0.525693
0.511202
0.496915
0.482953
0.469395
0.456291
0.443667
0.431536
0.419885
0.408685
0.397965
0.387908
0.635655
0.620198
0.61017
0.600316
0.588601
0.57539
0.561202
0.546473
0.531554
0.516697
0.502078
0.487813
0.473977
0.460617
0.447758
0.435408
0.423557
0.412176
0.401268
0.390967
0.640517
0.624904
0.614639
0.604497
0.592491
0.579006
0.564568
0.549615
0.534493
0.519452
0.504666
0.490249
0.476274
0.462786
0.449808
0.437348
0.425397
0.413926
0.402924
0.392499
0.640513
0.6249
0.614635
0.604494
0.592488
0.579003
0.564566
0.549612
0.53449
0.51945
0.504663
0.490247
0.476272
0.462784
0.449806
0.437346
0.425396
0.413924
0.402922
0.392498
0.635643
0.620186
0.610159
0.600305
0.588591
0.575381
0.561193
0.546465
0.531546
0.51669
0.502071
0.487806
0.473971
0.460611
0.447752
0.435402
0.423552
0.412171
0.401263
0.390962
0.625944
0.610797
0.601244
0.59196
0.580828
0.568164
0.554473
0.540194
0.52568
0.51119
0.496904
0.482942
0.469385
0.456281
0.443658
0.431527
0.419876
0.408676
0.397957
0.387901
0.611491
0.596804
0.587955
0.579519
0.569252
0.557401
0.544451
0.53084
0.51693
0.502985
0.489195
0.475685
0.462542
0.449818
0.437548
0.425744
0.414392
0.403461
0.39302
0.383329
0.592396
0.578315
0.570389
0.56307
0.553942
0.543163
0.531191
0.518464
0.505351
0.492127
0.478991
0.466079
0.453483
0.441262
0.429458
0.418087
0.40713
0.396556
0.386482
0.377271
0.568806
0.555469
0.548676
0.542728
0.535004
0.525548
0.514783
0.503146
0.491016
0.478683
0.466356
0.454182
0.442262
0.430664
0.419437
0.408601
0.398133
0.388002
0.37838
0.369757
0.540904
0.528441
0.522976
0.518638
0.512567
0.504672
0.495332
0.484984
0.474017
0.462737
0.451367
0.440065
0.428945
0.418084
0.407539
0.397339
0.387453
0.377846
0.368756
0.360827
0.508907
0.497439
0.493479
0.490972
0.486787
0.480676
0.472967
0.464094
0.454459
0.444386
0.434112
0.423811
0.413608
0.403593
0.393832
0.384362
0.375147
0.366145
0.357663
0.350524
0.473064
0.462701
0.460404
0.459927
0.457841
0.453719
0.447833
0.440608
0.432464
0.423739
0.414692
0.405512
0.396337
0.387269
0.378388
0.369739
0.36128
0.352961
0.345157
0.338898
0.433657
0.424496
0.423997
0.425724
0.425927
0.423982
0.420092
0.414675
0.408165
0.400921
0.39322
0.385269
0.377223
0.369197
0.361285
0.35354
0.345918
0.338356
0.331297
0.326001
0.390998
0.383123
0.384533
0.388611
0.391268
0.391663
0.389923
0.386457
0.381709
0.376062
0.369814
0.363191
0.356364
0.349464
0.342601
0.335839
0.32913
0.322395
0.31614
0.311883
0.345425
0.338907
0.342311
0.348856
0.354102
0.356978
0.357522
0.356127
0.353254
0.349305
0.344602
0.339391
0.333861
0.32816
0.322414
0.316704
0.310978
0.305135
0.29974
0.296593
0.297305
0.292199
0.297654
0.30675
0.314692
0.32016
0.323097
0.323875
0.322968
0.3208
0.317716
0.313985
0.309814
0.305371
0.3008
0.296197
0.291513
0.286623
0.282136
0.280165
0.247028
0.243375
0.250907
0.262603
0.273313
0.281458
0.28687
0.2899
0.291029
0.290705
0.289295
0.287093
0.284326
0.28118
0.27782
0.274364
0.270768
0.266878
0.26334
0.262613
0.195006
0.192831
0.202438
0.216745
0.230262
0.241135
0.249079
0.254413
0.257626
0.259186
0.259485
0.258839
0.257496
0.255664
0.253531
0.251238
0.248752
0.24589
0.243329
0.24391
0.14167
0.140984
0.152631
0.169525
0.185851
0.199473
0.209976
0.217641
0.222961
0.226422
0.228439
0.22935
0.229426
0.228894
0.227966
0.226811
0.225411
0.223561
0.221975
0.223943
0.0874679
0.0882653
0.101889
0.121308
0.140407
0.156764
0.169824
0.179822
0.187248
0.192604
0.196325
0.19877
0.200229
0.200951
0.201172
0.201094
0.200709
0.199784
0.199095
0.202512
0.0328598
0.035122
0.0506268
0.0724704
0.0942711
0.113319
0.128907
0.141214
0.150722
0.157945
0.163335
0.167268
0.170047
0.171935
0.173188
0.174033
0.174448
0.174127
0.174015
0.178994
-0.0216859
-0.0179915
-0.000727808
0.0234036
0.0477984
0.0694595
0.0875191
0.102089
0.113637
0.12268
0.129683
0.135031
0.139037
0.141963
0.14408
0.145659
0.146681
0.146656
0.146516
0.152658
-0.075697
-0.0706163
-0.0517426
-0.0254945
0.00135204
0.02552
0.0459707
0.0627403
0.0762711
0.0870823
0.0956458
0.102355
0.107522
0.111399
0.114242
0.116335
0.117646
0.117149
0.114583
0.118524
-0.128702
-0.122293
-0.101983
-0.0738218
-0.0446985
-0.0181584
0.00458168
0.0234711
0.0389202
0.0514414
0.061507
0.0695071
0.0757407
0.0804206
0.083715
0.0857809
0.0865156
0.0850328
0.0806062
0.0761416
-0.180245
-0.172575
-0.15102
-0.121179
-0.0899844
-0.0612327
-0.0363245
-0.015406
0.00189352
0.0160766
0.0276162
0.0369059
0.0442486
0.049859
0.0538918
0.0564866
0.0576734
0.0570788
0.0542018
0.0500636
-0.22988
-0.221025
-0.198435
-0.167173
-0.134142
-0.103365
-0.0764284
-0.053582
-0.0345001
-0.0186912
-0.00567562
0.00495535
0.0135295
0.0202979
0.0254535
0.0291679
0.0315916
0.0327659
0.0325524
0.0306191
-0.277183
-0.267227
-0.243826
-0.211427
-0.176823
-0.144232
-0.115427
-0.0907684
-0.069983
-0.0525925
-0.0381107
-0.0261109
-0.0162395
-0.00821081
-0.00179602
0.00319812
0.00696527
0.00973167
0.011598
0.0118439
-0.321761
-0.310796
-0.286816
-0.253584
-0.217696
-0.18353
-0.153041
-0.126708
-0.104319
-0.0854155
-0.0695099
-0.0561622
-0.0449999
-0.0357136
-0.0280504
-0.0218002
-0.0167517
-0.0126203
-0.00923743
-0.00740113
-0.363262
-0.351383
-0.327061
-0.293314
-0.256456
-0.220982
-0.189018
-0.161173
-0.137305
-0.116984
-0.0997268
-0.0850874
-0.07268
-0.06218
-0.0533182
-0.0458713
-0.0396148
-0.0342466
-0.0296213
-0.0266611
-0.401376
-0.388681
-0.364254
-0.330321
-0.292827
-0.256337
-0.223136
-0.193966
-0.168765
-0.147144
-0.128634
-0.112784
-0.099204
-0.0875589
-0.0775705
-0.0690081
-0.06164
-0.0551528
-0.0494234
-0.0455108
-0.435846
-0.422435
-0.398131
-0.364342
-0.326565
-0.289373
-0.255196
-0.224911
-0.198549
-0.17577
-0.156124
-0.139169
-0.124511
-0.111812
-0.10079
-0.0912097
-0.0828392
-0.0753569
-0.0686351
-0.0638095
-0.46647
-0.452442
-0.428477
-0.395161
-0.357461
-0.319902
-0.285032
-0.253865
-0.226532
-0.202753
-0.18211
-0.164173
-0.148551
-0.134907
-0.122956
-0.112464
-0.103201
-0.0948441
-0.0872473
-0.0815585
-0.493108
-0.478562
-0.455132
-0.422602
-0.385343
-0.347764
-0.312503
-0.280705
-0.25261
-0.228009
-0.206523
-0.18774
-0.17128
-0.156809
-0.144044
-0.132751
-0.122705
-0.113589
-0.105237
-0.0987702
-0.515684
-0.500713
-0.477994
-0.446542
-0.410078
-0.372834
-0.337497
-0.305336
-0.276703
-0.25147
-0.229305
-0.209824
-0.192661
-0.177489
-0.164028
-0.152048
-0.141329
-0.131564
-0.12257
-0.115422
-0.534186
-0.518884
-0.497018
-0.466905
-0.431578
-0.395021
-0.359933
-0.327686
-0.298751
-0.273086
-0.250417
-0.230392
-0.212666
-0.196921
-0.182885
-0.170331
-0.159048
-0.14874
-0.139209
-0.131467
-0.548667
-0.533124
-0.512226
-0.483672
-0.449796
-0.414269
-0.379754
-0.347708
-0.318714
-0.292826
-0.269831
-0.249421
-0.231273
-0.215087
-0.200597
-0.187583
-0.175841
-0.165091
-0.155118
-0.146864
-0.559244
-0.543551
-0.523698
-0.49688
-0.464732
-0.430559
-0.396935
-0.365378
-0.336573
-0.310672
-0.287536
-0.266901
-0.248476
-0.231978
-0.217154
-0.203789
-0.191691
-0.180595
-0.170273
-0.161585
-0.566096
-0.55034
-0.531578
-0.50662
-0.476431
-0.443907
-0.411481
-0.380695
-0.352328
-0.326629
-0.303534
-0.282835
-0.264276
-0.247595
-0.232554
-0.218947
-0.206592
-0.195242
-0.18466
-0.175617
-0.569456
-0.553725
-0.536069
-0.513039
-0.484987
-0.454369
-0.423423
-0.393681
-0.365998
-0.340712
-0.317842
-0.29724
-0.278686
-0.261948
-0.246805
-0.233062
-0.220547
-0.209031
-0.198276
-0.188957
-0.569604
-0.553989
-0.537426
-0.516339
-0.490542
-0.462036
-0.432823
-0.404383
-0.377619
-0.352955
-0.330491
-0.310141
-0.291732
-0.275061
-0.259927
-0.246149
-0.233567
-0.221972
-0.211125
-0.201609
-0.566863
-0.551455
-0.53595
-0.516769
-0.493282
-0.467039
-0.439772
-0.412866
-0.387245
-0.363406
-0.341524
-0.321579
-0.303448
-0.286963
-0.271946
-0.258232
-0.245673
-0.234081
-0.223222
-0.213587
-0.561585
-0.546479
-0.531979
-0.514622
-0.493435
-0.469547
-0.444391
-0.41922
-0.394948
-0.372123
-0.350993
-0.331602
-0.31388
-0.297695
-0.282899
-0.269343
-0.256893
-0.245383
-0.234587
-0.224908
-0.554143
-0.539433
-0.52588
-0.510226
-0.49127
-0.469762
-0.446828
-0.423555
-0.400813
-0.37918
-0.358962
-0.340267
-0.323078
-0.307305
-0.292828
-0.27952
-0.267262
-0.255909
-0.245249
-0.235601
-0.544919
-0.5307
-0.51803
-0.503935
-0.487088
-0.46792
-0.44726
-0.426002
-0.404941
-0.384656
-0.365501
-0.347637
-0.3311
-0.315845
-0.301782
-0.288808
-0.276821
-0.265696
-0.25524
-0.245696
-0.534294
-0.520658
-0.508813
-0.496116
-0.481213
-0.464286
-0.445889
-0.426712
-0.407445
-0.388644
-0.370686
-0.353779
-0.338008
-0.323371
-0.309812
-0.297255
-0.285614
-0.274786
-0.2646
-0.255229
-0.522637
-0.509669
-0.498598
-0.487136
-0.473984
-0.459147
-0.442941
-0.425857
-0.408456
-0.391243
-0.374598
-0.358764
-0.343865
-0.32994
-0.316972
-0.304909
-0.293686
-0.283221
-0.273365
-0.264237
-0.510293
-0.498072
-0.487734
-0.477352
-0.465742
-0.452803
-0.438663
-0.423626
-0.408114
-0.39256
-0.377323
-0.362661
-0.348731
-0.335611
-0.323314
-0.311819
-0.301082
-0.291042
-0.281576
-0.272754
-0.497578
-0.486172
-0.476537
-0.467095
-0.45682
-0.445561
-0.433316
-0.420226
-0.406578
-0.392713
-0.378949
-0.365542
-0.352668
-0.340434
-0.328886
-0.31803
-0.307843
-0.298289
-0.289267
-0.280813
-0.484775
-0.474236
-0.465284
-0.456664
-0.447526
-0.437722
-0.427165
-0.415878
-0.404017
-0.391828
-0.37957
-0.367477
-0.355732
-0.34446
-0.333732
-0.323581
-0.314007
-0.304994
-0.296467
-0.288438
-0.472123
-0.462488
-0.454208
-0.446315
-0.438139
-0.429566
-0.420477
-0.410808
-0.400613
-0.390042
-0.379285
-0.368539
-0.357977
-0.347729
-0.337887
-0.328504
-0.319601
-0.311182
-0.303198
-0.295645
-0.459822
-0.451112
-0.443497
-0.436257
-0.428895
-0.421349
-0.413502
-0.405245
-0.396558
-0.387503
-0.378203
-0.368805
-0.359455
-0.350281
-0.341381
-0.332822
-0.324645
-0.316871
-0.309473
-0.302439
-0.448029
-0.440247
-0.433292
-0.426652
-0.419985
-0.413288
-0.406469
-0.39941
-0.392044
-0.384369
-0.376441
-0.368354
-0.360221
-0.352149
-0.344234
-0.336551
-0.32915
-0.322067
-0.315297
-0.308818
-0.436863
-0.429996
-0.423693
-0.417614
-0.41155
-0.405555
-0.399575
-0.393507
-0.387264
-0.380803
-0.374127
-0.367281
-0.360334
-0.353369
-0.346467
-0.339698
-0.333119
-0.326772
-0.320669
-0.314772
-0.426404
-0.420423
-0.414761
-0.409216
-0.403688
-0.398278
-0.392978
-0.387711
-0.382396
-0.376969
-0.371399
-0.365687
-0.359864
-0.353981
-0.348097
-0.342269
-0.33655
-0.330982
-0.325587
-0.320297
-0.416703
-0.411567
-0.406528
-0.401493
-0.396452
-0.391541
-0.386792
-0.382166
-0.377599
-0.373026
-0.368397
-0.363687
-0.358894
-0.354037
-0.349149
-0.344271
-0.33944
-0.334691
-0.330053
-0.325402
-0.407788
-0.403443
-0.398999
-0.394454
-0.389862
-0.385386
-0.381092
-0.376978
-0.373002
-0.369114
-0.365262
-0.361404
-0.357519
-0.353601
-0.34966
-0.345715
-0.341788
-0.337898
-0.334075
-0.330123
-0.399664
-0.396046
-0.392164
-0.388084
-0.383911
-0.379825
-0.375918
-0.372215
-0.368707
-0.365357
-0.362124
-0.358964
-0.355847
-0.352753
-0.349677
-0.346622
-0.343595
-0.340599
-0.337663
-0.334521
-0.392324
-0.389361
-0.386
-0.382357
-0.378578
-0.374847
-0.371277
-0.367917
-0.364779
-0.36185
-0.359098
-0.35649
-0.353994
-0.351588
-0.349262
-0.347017
-0.344856
-0.342775
-0.340809
-0.338684
-0.385751
-0.383365
-0.380477
-0.37724
-0.373829
-0.370428
-0.367162
-0.364096
-0.361262
-0.358662
-0.356281
-0.354093
-0.352074
-0.350208
-0.348491
-0.346933
-0.345554
-0.34437
-0.343434
-0.342626
-0.379921
-0.378028
-0.37556
-0.372698
-0.369629
-0.366538
-0.363552
-0.36075
-0.358175
-0.355842
-0.353746
-0.351871
-0.3502
-0.348723
-0.347447
-0.346405
-0.345654
-0.345267
-0.34536
-0.346299
-0.374798
-0.373312
-0.371213
-0.368691
-0.365941
-0.363142
-0.360421
-0.357864
-0.355522
-0.353416
-0.351548
-0.349906
-0.348475
-0.347246
-0.346234
-0.345486
-0.345106
-0.345256
-0.346193
-0.349238
-0.370339
-0.369177
-0.367394
-0.36518
-0.362727
-0.360206
-0.357742
-0.355421
-0.353297
-0.351396
-0.349721
-0.348259
-0.34699
-0.345895
-0.344974
-0.344269
-0.343897
-0.344074
-0.345315
-0.350663
-0.366488
-0.365569
-0.364054
-0.362119
-0.359946
-0.357693
-0.35548
-0.353392
-0.351482
-0.349777
-0.348278
-0.346968
-0.345815
-0.344777
-0.343817
-0.342922
-0.342135
-0.341562
-0.341799
-0.347993
-0.363178
-0.362431
-0.361141
-0.359459
-0.35755
-0.355558
-0.353595
-0.351741
-0.350048
-0.348539
-0.347213
-0.346047
-0.344992
-0.343978
-0.342901
-0.34162
-0.339937
-0.337369
-0.332525
-0.326285
-0.360328
-0.359692
-0.358592
-0.357143
-0.355486
-0.353751
-0.352039
-0.350424
-0.348954
-0.347648
-0.346504
-0.345495
-0.34457
-0.343647
-0.342609
-0.341294
-0.339507
-0.336858
-0.332269
-0.32715
-0.357847
-0.35728
-0.356341
-0.355108
-0.353695
-0.352215
-0.350757
-0.349388
-0.348148
-0.347056
-0.346108
-0.345278
-0.344521
-0.343769
-0.342925
-0.341873
-0.340502
-0.338555
-0.335261
-0.332479
-0.355639
-0.355117
-0.354321
-0.353291
-0.352115
-0.350888
-0.349688
-0.348571
-0.347572
-0.346704
-0.345964
-0.34533
-0.344764
-0.344213
-0.343604
-0.342867
-0.341946
-0.340638
-0.338355
-0.337251
-0.35361
-0.353126
-0.352463
-0.351629
-0.350684
-0.349709
-0.348768
-0.347909
-0.347159
-0.346527
-0.346009
-0.345585
-0.345225
-0.344889
-0.344528
-0.344104
-0.343602
-0.342865
-0.341444
-0.341576
-0.351671
-0.351237
-0.350707
-0.350062
-0.349343
-0.348617
-0.347937
-0.347339
-0.346844
-0.346457
-0.346172
-0.345973
-0.345836
-0.345731
-0.345628
-0.345515
-0.345407
-0.345176
-0.344466
-0.345472
-0.349744
-0.349387
-0.348996
-0.348538
-0.348042
-0.34756
-0.347136
-0.346798
-0.346561
-0.346425
-0.346383
-0.346421
-0.34652
-0.346658
-0.346818
-0.347007
-0.347256
-0.347448
-0.347275
-0.348863
-0.347767
-0.347528
-0.347288
-0.347016
-0.346736
-0.346491
-0.346316
-0.346232
-0.346248
-0.346362
-0.346566
-0.346846
-0.347186
-0.347572
-0.347994
-0.348468
-0.349033
-0.349567
-0.349784
-0.351756
-0.345701
-0.345624
-0.345551
-0.345465
-0.345393
-0.345374
-0.345435
-0.345593
-0.345852
-0.346208
-0.346651
-0.347168
-0.347746
-0.348373
-0.349045
-0.349783
-0.350624
-0.351433
-0.351935
-0.354178
-0.343524
-0.343659
-0.343769
-0.343866
-0.343993
-0.344185
-0.344466
-0.344848
-0.345332
-0.345913
-0.34658
-0.34732
-0.348121
-0.348975
-0.349878
-0.350852
-0.35193
-0.352961
-0.353682
-0.356139
-0.34124
-0.341633
-0.341938
-0.342215
-0.34253
-0.342916
-0.343394
-0.343977
-0.344664
-0.345447
-0.346315
-0.347256
-0.34826
-0.349317
-0.350424
-0.351606
-0.352886
-0.354096
-0.354996
-0.357642