/*--------------------------------*- C++ -*----------------------------------*\
  =========                 |
  \\      /  F ield         | OpenFOAM: The Open Source CFD Toolbox
   \\    /   O peration     | Website:  https://openfoam.org
    \\  /    A nd           | Version:  6.0
     \\/     M anipulation  |
\*---------------------------------------------------------------------------*/
FoamFile
{
    version     2.0;
    format      ascii;
    class       surfaceScalarField;
    location    "7";
    object      phi;
}
// * * * * * * * * * * * * * * * * * * * * * * * * * * * * * * * * * * * * * //

dimensions      [0 3 -1 0 0 0 0];

internalField   nonuniform List<scalar> 
7840
(
3.72069e-05
-0.000285851
0.000130094
-0.000886541
0.00025877
-0.00147823
0.000402341
-0.00201324
0.000542628
-0.00245721
0.000667135
-0.00279649
0.000769692
-0.00303571
0.000849296
-0.00319064
0.000908235
-0.00328114
0.000950321
-0.0033262
0.000979619
-0.00334149
0.000999722
-0.00333865
0.00101346
-0.00332565
0.00102289
-0.00330765
0.00102943
-0.00328778
0.00103402
-0.00326789
0.00103728
-0.00324905
0.00103962
-0.00323187
0.00104131
-0.00321669
-0.00320383
0.00104248
3.83692e-05
-0.00032422
0.000131394
-0.000979565
0.000256553
-0.00160339
0.000391811
-0.0021485
0.000519507
-0.00258491
0.000628726
-0.00290571
0.000715129
-0.00312211
0.000779204
-0.00325472
0.000824154
-0.00332609
0.000854156
-0.00335621
0.000873237
-0.00336057
0.000884721
-0.00335013
0.000891087
-0.00333202
0.000894057
-0.00331062
0.000894768
-0.00328849
0.000893959
-0.00326708
0.000892107
-0.0032472
0.000889527
-0.00322929
0.000886415
-0.00321358
-0.00320028
0.00088287
3.90978e-05
-0.000363318
0.000131078
-0.00107155
0.000251138
-0.00172345
0.000376628
-0.00227399
0.000490853
-0.00269913
0.000584657
-0.00299952
0.000655448
-0.0031929
0.000704977
-0.00330425
0.000737108
-0.00335822
0.000756176
-0.00337527
0.000766035
-0.00337043
0.000769686
-0.00335378
0.000769258
-0.00333159
0.000766164
-0.00330753
0.000761306
-0.00328364
0.000755251
-0.00326103
0.000748371
-0.00324031
0.000740906
-0.00322182
0.000733009
-0.00320568
-0.00319203
0.000724754
3.93645e-05
-0.000402683
0.00012914
-0.00116132
0.000242671
-0.00183698
0.000357226
-0.00238854
0.000457432
-0.00279934
0.000535967
-0.00307805
0.000591837
-0.00324877
0.000627818
-0.00334023
0.000648205
-0.00337861
0.000657323
-0.00338439
0.000658767
-0.00337188
0.000655191
-0.0033502
0.000648391
-0.00332479
0.000639509
-0.00329865
0.000629248
-0.00327338
0.000618045
-0.00324982
0.000606182
-0.00322845
0.000593851
-0.00320949
0.000581172
-0.003193
-0.00317906
0.000568203
3.91534e-05
-0.000441836
0.000125614
-0.00124778
0.000231367
-0.00194273
0.000334097
-0.00249127
0.000420019
-0.00288526
0.000483631
-0.00314166
0.000525352
-0.0032905
0.000548749
-0.00336362
0.00055835
-0.00338821
0.000558343
-0.00338439
0.000552015
-0.00336555
0.000541672
-0.00333986
0.000528807
-0.00331193
0.000514328
-0.00328417
0.000498776
-0.00325782
0.000482481
-0.00323353
0.000465662
-0.00321163
0.000448471
-0.0031923
0.000431008
-0.00317554
-0.00316137
0.000413321
3.84602e-05
-0.000480296
0.000120569
-0.00132989
0.000217486
-0.00203965
0.000307758
-0.00258154
0.000379359
-0.00295686
0.000428532
-0.00319084
0.000456904
-0.00331887
0.000468613
-0.00337533
0.000468259
-0.00338786
0.000459807
-0.00337593
0.000446209
-0.00335195
0.000429442
-0.0033231
0.000410728
-0.00329321
0.000390781
-0.00326422
0.000370008
-0.00323705
0.000348655
-0.00321218
0.000326892
-0.00318987
0.000304841
-0.00317025
0.000282591
-0.00315329
-0.00313897
0.000260185
3.72916e-05
-0.000517588
0.000114107
-0.00140671
0.000201323
-0.00212687
0.000278728
-0.00265895
0.000336153
-0.00301429
0.000371457
-0.00322614
0.000387267
-0.00333468
0.0003881
-0.00337617
0.000378501
-0.00337826
0.000362155
-0.00335959
0.000341674
-0.00333147
0.000318733
-0.00330015
0.000294322
-0.0032688
0.000268992
-0.00323889
0.000243043
-0.0032111
0.000216653
-0.00318579
0.000189951
-0.00316317
0.000163039
-0.00314334
0.000135997
-0.00312625
-0.00311184
0.000108874
3.56638e-05
-0.000553251
0.00010635
-0.00147739
0.000183186
-0.0022037
0.000247512
-0.00272328
0.00029104
-0.00305782
0.000313091
-0.00324819
0.000317091
-0.00333868
0.00030777
-0.00336685
0.000289522
-0.00336001
0.00026572
-0.00333579
0.000238649
-0.0033044
0.000209714
-0.00327122
0.000179709
-0.0032388
0.000149051
-0.00320823
0.000117954
-0.00318
8.65387e-05
-0.00315437
5.48999e-05
-0.00313153
2.31243e-05
-0.00311156
-8.70849e-06
-0.00309441
-0.00308
-4.05461e-05
3.36019e-05
-0.000586853
9.74367e-05
-0.00154123
0.000163387
-0.00226965
0.000214587
-0.00277448
0.000244595
-0.00308782
0.000254026
-0.00325762
0.000246916
-0.00333157
0.000228075
-0.003348
0.000201674
-0.00333361
0.000170761
-0.00330487
0.000137318
-0.00327095
0.000102514
-0.00323641
6.69795e-05
-0.00320326
3.10266e-05
-0.00317228
-5.20271e-06
-0.00314377
-4.16355e-05
-0.00311794
-7.82091e-05
-0.00309495
-0.000114849
-0.00307492
-0.000151472
-0.00305779
-0.00304346
-0.000188015
3.11375e-05
-0.000617991
8.7515e-05
-0.00159761
0.000142236
-0.00232437
0.000180396
-0.00281263
0.000197327
-0.00310476
0.000194767
-0.00325506
0.000177191
-0.00331399
0.000149379
-0.00332019
0.000115233
-0.00329946
7.7481e-05
-0.00326712
3.78242e-05
-0.0032313
-2.76861e-06
-0.00319582
-4.3796e-05
-0.00316224
-8.503e-05
-0.00313105
-0.000126386
-0.00310242
-0.000167834
-0.00307649
-0.000209343
-0.00305345
-0.000250849
-0.00303342
-0.00029226
-0.00301638
-0.00300223
-0.000333494
2.8308e-05
-0.000646299
7.67387e-05
-0.00164604
0.000120028
-0.00236766
0.000145342
-0.00283795
0.000149686
-0.0031091
0.000135744
-0.00324112
0.000108289
-0.00328653
7.19807e-05
-0.00328388
3.04275e-05
-0.00325791
-1.39558e-05
-0.00322274
-5.97154e-05
-0.00318554
-0.00010605
-0.00314949
-0.000152561
-0.00311572
-0.000199082
-0.00308453
-0.000245572
-0.00305593
-0.000292043
-0.00303002
-0.000338494
-0.00300699
-0.000384875
-0.00298704
-0.000431079
-0.00297018
-0.00295631
-0.000477
2.51552e-05
-0.000671454
6.52617e-05
-0.00168614
9.7044e-05
-0.00239944
0.000109792
-0.0028507
0.000102064
-0.00310137
7.73273e-05
-0.00321639
4.05232e-05
-0.00324973
-3.86905e-06
-0.00323949
-5.25516e-05
-0.00320923
-0.000103404
-0.00317189
-0.000155192
-0.00313375
-0.000207253
-0.00309743
-0.000259263
-0.00306372
-0.000311097
-0.00303269
-0.000362749
-0.00300428
-0.000414264
-0.0029785
-0.000465681
-0.00295558
-0.000516968
-0.00293575
-0.000568
-0.00291914
-0.00290567
-0.000618635
2.17237e-05
-0.000693178
5.32363e-05
-0.00171766
7.3545e-05
-0.00241975
7.40759e-05
-0.00285123
5.48058e-05
-0.0030821
1.98327e-05
-0.00318141
-2.58363e-05
-0.00320406
-7.79523e-05
-0.00318738
-0.00013353
-0.00315365
-0.000190724
-0.00311469
-0.000248494
-0.00307598
-0.000306289
-0.00303963
-0.000363839
-0.00300617
-0.000421041
-0.00297549
-0.000477907
-0.00294741
-0.000534514
-0.0029219
-0.000590944
-0.00289915
-0.000647198
-0.0028795
-0.000703139
-0.0028632
-0.00285025
-0.000758559
1.80605e-05
-0.000711238
4.08101e-05
-0.00174041
4.97746e-05
-0.00242872
3.84907e-05
-0.00283994
8.21362e-06
-0.00305183
-3.64626e-05
-0.00313674
-9.05523e-05
-0.00314997
-0.000150069
-0.00312786
-0.000212338
-0.00309138
-0.000275767
-0.00305126
-0.000339489
-0.00301226
-0.000403046
-0.00297607
-0.000466203
-0.00294301
-0.000528861
-0.00291283
-0.000591028
-0.00288524
-0.000652804
-0.00286012
-0.000714319
-0.00283763
-0.000775626
-0.00281819
-0.000836582
-0.00280225
-0.00278995
-0.000896881
1.42132e-05
-0.000725451
2.81247e-05
-0.00175432
2.5957e-05
-0.00242655
3.30173e-06
-0.00281729
-3.74444e-05
-0.00301108
-9.13126e-05
-0.00308287
-0.000153408
-0.00308788
-0.000220028
-0.00306124
-0.000288796
-0.00302261
-0.000358362
-0.0029817
-0.00042801
-0.00294261
-0.000497368
-0.00290672
-0.000566225
-0.00287415
-0.000634466
-0.00284459
-0.000702075
-0.00281764
-0.000769144
-0.00279305
-0.000835847
-0.00277093
-0.000902303
-0.00275173
-0.000968382
-0.00273617
-0.0027247
-0.00103363
1.02301e-05
-0.000735682
1.53147e-05
-0.0017594
2.29701e-06
-0.00241353
-3.12529e-05
-0.00278374
-8.19301e-05
-0.0029604
-0.000144496
-0.0030203
-0.000214201
-0.00301817
-0.000287634
-0.00298781
-0.000362711
-0.00294754
-0.000438301
-0.00290611
-0.000513838
-0.00286707
-0.000589029
-0.00283152
-0.000663691
-0.00279949
-0.00073769
-0.00277059
-0.000810957
-0.00274437
-0.00088354
-0.00272047
-0.000955623
-0.00269885
-0.0010274
-0.00267995
-0.00109879
-0.00266479
-0.00265428
-0.00116921
6.15865e-06
-0.00074184
2.50586e-06
-0.00175575
-2.10196e-05
-0.00239001
-6.49617e-05
-0.0027398
-0.000125032
-0.00290033
-0.000195813
-0.00294952
-0.000272737
-0.00294125
-0.000352692
-0.00290785
-0.000433867
-0.00286636
-0.000515341
-0.00282463
-0.000596689
-0.00278572
-0.000677711
-0.0027505
-0.00075827
-0.00271893
-0.000838227
-0.00269064
-0.000917457
-0.00266514
-0.000995928
-0.002642
-0.0010738
-0.00262097
-0.00115137
-0.00260238
-0.00122862
-0.00258754
-0.00257771
-0.00130519
2.0447e-06
-0.000743885
-1.01859e-05
-0.00174352
-4.38268e-05
-0.00235637
-9.76386e-05
-0.00268598
-0.000166565
-0.0028314
-0.000245082
-0.002871
-0.000328833
-0.0028575
-0.000414998
-0.00282169
-0.000502026
-0.00277933
-0.000589192
-0.00273747
-0.000676215
-0.0026987
-0.000763002
-0.00266371
-0.0008495
-0.00263243
-0.00093561
-0.00260453
-0.00102119
-0.00257956
-0.00110612
-0.00255706
-0.00119052
-0.00253657
-0.00127481
-0.0025181
-0.00135919
-0.00250316
-0.00249261
-0.00144429
-2.0685e-06
-0.000741816
-2.26562e-05
-0.00172293
-6.59796e-05
-0.00231304
-0.000129124
-0.00262284
-0.00020637
-0.00275416
-0.000292144
-0.00278523
-0.000382316
-0.00276733
-0.000474348
-0.00272965
-0.000566929
-0.00268675
-0.000659514
-0.00264488
-0.000751967
-0.00260625
-0.000844331
-0.00257135
-0.000936691
-0.00254007
-0.00102909
-0.00251213
-0.00112146
-0.00248719
-0.00121371
-0.00246481
-0.00130585
-0.00244443
-0.00139826
-0.00242569
-0.00149153
-0.00240989
-0.00239573
-0.00158842
-6.14131e-06
-0.000735675
-3.48135e-05
-0.00169426
-8.73557e-05
-0.0022605
-0.000159288
-0.00255091
-0.000244318
-0.00266913
-0.000336871
-0.00269268
-0.000433044
-0.00267115
-0.000530558
-0.00263214
-0.000628314
-0.002589
-0.000725922
-0.00254727
-0.000823369
-0.0025088
-0.000920833
-0.00247389
-0.00101858
-0.00244232
-0.00111693
-0.00241379
-0.00121614
-0.00238797
-0.00131644
-0.00236451
-0.00141795
-0.00234292
-0.00152126
-0.00232238
-0.00162872
-0.00230242
-0.00229498
-0.00172947
-1.01261e-05
-0.000725549
-4.65606e-05
-0.00165782
-0.000107834
-0.00219923
-0.000188009
-0.00247073
-0.000280299
-0.00257684
-0.000379159
-0.00259382
-0.000480907
-0.0025694
-0.000583499
-0.00252955
-0.000686003
-0.00248649
-0.000788134
-0.00244514
-0.000889939
-0.002407
-0.000991641
-0.00237219
-0.00109358
-0.00234038
-0.00119623
-0.00231114
-0.00130023
-0.00228397
-0.00140642
-0.00225832
-0.00151568
-0.00223367
-0.00162836
-0.0022097
-0.00174542
-0.00218537
-0.00215339
-0.001887
-1.4015e-05
-0.000711534
-5.7873e-05
-0.00161397
-0.000127385
-0.00212972
-0.000215266
-0.00238285
-0.000314306
-0.0024778
-0.000419015
-0.00248911
-0.000525926
-0.00246249
-0.000633199
-0.00242228
-0.000740041
-0.00237965
-0.000846232
-0.00233895
-0.000951818
-0.00230141
-0.00105696
-0.00226705
-0.00116184
-0.0022355
-0.0012667
-0.00220628
-0.00137179
-0.00217889
-0.00147729
-0.00215282
-0.00158327
-0.00212768
-0.00168997
-0.002103
-0.00179811
-0.00207723
-0.00204679
-0.00190471
-1.7771e-05
-0.000693763
-6.86829e-05
-0.00156305
-0.000145934
-0.00205246
-0.000240995
-0.00228779
-0.000346298
-0.0023725
-0.000456423
-0.00237898
-0.000568107
-0.00235081
-0.000679695
-0.00231069
-0.000790516
-0.00226883
-0.000900408
-0.00222906
-0.00100943
-0.00219238
-0.00111773
-0.00215875
-0.00122546
-0.00212777
-0.00133275
-0.00209899
-0.00143969
-0.00207194
-0.0015463
-0.00204621
-0.00165256
-0.00202143
-0.00175841
-0.00199715
-0.00186314
-0.0019725
-0.00194666
-0.00196327
-2.13742e-05
-0.000672389
-7.89545e-05
-0.00150547
-0.000163448
-0.00196797
-0.000265183
-0.00218605
-0.000376283
-0.0022614
-0.000491416
-0.00226385
-0.000607511
-0.00223471
-0.000723077
-0.00219512
-0.000837543
-0.00215437
-0.000950785
-0.00211582
-0.00106286
-0.00208031
-0.00117389
-0.00204772
-0.00128397
-0.00201769
-0.00139316
-0.00198979
-0.00150148
-0.00196363
-0.00160883
-0.00193885
-0.0017151
-0.00191516
-0.00181999
-0.00189226
-0.00192283
-0.00186966
-0.00184695
-0.00202253
-2.48089e-05
-0.00064758
-8.8663e-05
-0.00144162
-0.00017991
-0.00187672
-0.00028783
-0.00207813
-0.00040429
-0.00214494
-0.000524053
-0.00214409
-0.000644231
-0.00211454
-0.000763484
-0.00207587
-0.000881329
-0.00203652
-0.000997682
-0.00199946
-0.00111261
-0.00196538
-0.00122621
-0.00193412
-0.00133855
-0.00190535
-0.00144968
-0.00187867
-0.00155957
-0.00185374
-0.00166815
-0.00183027
-0.00177528
-0.00180803
-0.00188071
-0.00178683
-0.00198403
-0.00176634
-0.00174633
-0.00208465
-2.8063e-05
-0.000619517
-9.77917e-05
-0.00137189
-0.000195312
-0.0017792
-0.000308951
-0.0019645
-0.000430359
-0.00202353
-0.0005544
-0.00202005
-0.000678359
-0.00199058
-0.000801033
-0.00195319
-0.000922022
-0.00191553
-0.00104128
-0.00188021
-0.00115889
-0.00184777
-0.00127493
-0.00181808
-0.00138949
-0.00179079
-0.0015026
-0.00176556
-0.00161424
-0.0017421
-0.00172436
-0.00172015
-0.00183285
-0.00169954
-0.00193957
-0.00168011
-0.00204432
-0.0016616
-0.00164385
-0.00214681
-3.11272e-05
-0.00058839
-0.000106331
-0.00129669
-0.000209658
-0.00167588
-0.000328569
-0.00184558
-0.000454535
-0.00189756
-0.000582525
-0.00189206
-0.000709987
-0.00186312
-0.000835845
-0.00182734
-0.000959774
-0.0017916
-0.00108177
-0.00175821
-0.00120192
-0.00172762
-0.00132033
-0.00169966
-0.00143708
-0.00167403
-0.00155223
-0.00165042
-0.00166577
-0.00162855
-0.0017777
-0.00160822
-0.00188796
-0.00158928
-0.00199649
-0.00157158
-0.0021032
-0.00155488
-0.00153911
-0.00220794
-3.39946e-05
-0.000554395
-0.000114274
-0.00121641
-0.000222953
-0.0015672
-0.000346708
-0.00172183
-0.000476862
-0.00176741
-0.000608491
-0.00176043
-0.000739195
-0.00173241
-0.000868016
-0.00169852
-0.000994698
-0.00166492
-0.00111927
-0.00163364
-0.00124185
-0.00160504
-0.00136255
-0.00157896
-0.00148148
-0.00155511
-0.00159869
-0.0015332
-0.00171424
-0.00151301
-0.00182813
-0.00149433
-0.00194037
-0.00147704
-0.00205095
-0.00146099
-0.00215986
-0.00144598
-0.00143194
-0.00226703
-3.66598e-05
-0.000517735
-0.000121617
-0.00113145
-0.000235205
-0.00145361
-0.000363392
-0.00159364
-0.000497379
-0.00163342
-0.000632351
-0.00162546
-0.000766049
-0.00159871
-0.000897621
-0.00156694
-0.00102688
-0.00153567
-0.00115388
-0.00150664
-0.00127877
-0.00148015
-0.00140168
-0.00145605
-0.00152273
-0.00143406
-0.00164201
-0.00141392
-0.00175959
-0.00139543
-0.00187551
-0.00137841
-0.00198982
-0.00136273
-0.00210255
-0.00134826
-0.00221373
-0.0013348
-0.00132233
-0.00232334
-3.91184e-05
-0.000478617
-0.00012836
-0.00104221
-0.000246422
-0.00133555
-0.000378642
-0.00146142
-0.000516122
-0.00149594
-0.000654151
-0.00148743
-0.0007906
-0.00146226
-0.000924716
-0.00143283
-0.00105636
-0.00140402
-0.00118565
-0.00137736
-0.00131272
-0.00135308
-0.00143774
-0.00133103
-0.00156084
-0.00131095
-0.00168214
-0.00129262
-0.00180173
-0.00127584
-0.00191967
-0.00126046
-0.00203605
-0.00124636
-0.00215092
-0.00123339
-0.00226433
-0.00122138
-0.00121036
-0.00237631
-4.13667e-05
-0.00043725
-0.000134501
-0.000949075
-0.000256612
-0.00121344
-0.000392476
-0.00132556
-0.000533118
-0.0013553
-0.000673924
-0.00134662
-0.000812886
-0.0013233
-0.000949336
-0.00129638
-0.0010832
-0.00127016
-0.00121459
-0.00124596
-0.00134371
-0.00122397
-0.00147072
-0.00120402
-0.00159577
-0.0011859
-0.00171901
-0.00116939
-0.00184052
-0.00115433
-0.00196042
-0.00114056
-0.0020788
-0.00112798
-0.00219573
-0.00111646
-0.00231129
-0.00110583
-0.00109613
-0.00242551
-4.34013e-05
-0.000393849
-0.000140037
-0.000852439
-0.00026578
-0.00108769
-0.000404909
-0.00118643
-0.000548388
-0.00121182
-0.000691694
-0.00120331
-0.00083293
-0.00118207
-0.000971504
-0.0011578
-0.00110738
-0.00113428
-0.00124073
-0.00111262
-0.00137173
-0.00109296
-0.00150059
-0.00107516
-0.00162747
-0.00105902
-0.00175251
-0.00104435
-0.00187585
-0.00103099
-0.00199759
-0.00101882
-0.00211785
-0.00100773
-0.00223672
-0.000997595
-0.00235427
-0.000988274
-0.000979828
-0.00247057
-4.52192e-05
-0.000348629
-0.000144968
-0.00075269
-0.000273929
-0.000958732
-0.000415951
-0.00104441
-0.000561946
-0.00106583
-0.000707479
-0.00105778
-0.000850748
-0.0010388
-0.00099123
-0.00101732
-0.00112893
-0.000996577
-0.00126404
-0.000977513
-0.00139676
-0.000960238
-0.0015273
-0.000944616
-0.00165585
-0.00093047
-0.00178256
-0.000917635
-0.00190758
-0.000905973
-0.00203102
-0.000895372
-0.00215301
-0.000885737
-0.00227365
-0.000876954
-0.00239303
-0.000868894
-0.000861632
-0.00251123
-4.68175e-05
-0.000301812
-0.000149291
-0.000650216
-0.000281063
-0.000826961
-0.000425608
-0.000899861
-0.000573803
-0.000917631
-0.000721289
-0.000910295
-0.000866347
-0.00089374
-0.00100851
-0.000875154
-0.00114783
-0.00085726
-0.0012845
-0.000840842
-0.00141876
-0.000825982
-0.00155081
-0.00081256
-0.00168086
-0.000800422
-0.00180907
-0.000789425
-0.00193559
-0.00077945
-0.00206057
-0.0007704
-0.00218411
-0.000762191
-0.00230635
-0.000754722
-0.00242736
-0.000747881
-0.000741749
-0.00254724
-4.81933e-05
-0.000253619
-0.000153004
-0.000545406
-0.00028718
-0.000692784
-0.000433885
-0.000753156
-0.000583965
-0.000767552
-0.000733128
-0.000761132
-0.000879727
-0.00074714
-0.00102335
-0.000731531
-0.00116407
-0.000716541
-0.0013021
-0.000702807
-0.0014377
-0.00069039
-0.00157107
-0.000679184
-0.00170243
-0.000669062
-0.00183195
-0.000659902
-0.0019598
-0.000651605
-0.00208611
-0.000644089
-0.00221102
-0.000637282
-0.00233464
-0.000631099
-0.00245708
-0.000625446
-0.000620399
-0.00257843
-4.93442e-05
-0.000204275
-0.000156103
-0.000438647
-0.000292282
-0.000556605
-0.000440783
-0.000604655
-0.000592433
-0.000615902
-0.000742997
-0.000610568
-0.000890888
-0.000599249
-0.00103574
-0.000586684
-0.00117763
-0.000574643
-0.00131682
-0.000563624
-0.00145354
-0.000553668
-0.00158803
-0.000544692
-0.0017205
-0.00053659
-0.00185114
-0.000529266
-0.00198011
-0.000522638
-0.00210755
-0.000516643
-0.00223361
-0.00051122
-0.00235841
-0.000506299
-0.00248205
-0.000501808
-0.000497813
-0.00260464
-5.02678e-05
-0.000154007
-0.000158586
-0.000330329
-0.000296365
-0.000418826
-0.000446303
-0.000454717
-0.000599209
-0.000462996
-0.000750896
-0.000458881
-0.000899825
-0.000450319
-0.00104566
-0.000440852
-0.00118851
-0.000431794
-0.00132862
-0.000423512
-0.00146625
-0.000416034
-0.00160165
-0.000409295
-0.00173502
-0.000403217
-0.00186656
-0.000397726
-0.00199644
-0.000392762
-0.0021248
-0.000388276
-0.0022518
-0.000384222
-0.00237755
-0.000380547
-0.00250216
-0.000377198
-0.000374227
-0.00262575
-5.09623e-05
-0.000103044
-0.00016045
-0.000220841
-0.000299429
-0.000279847
-0.000450444
-0.000303703
-0.000604292
-0.000309148
-0.000756823
-0.000306351
-0.000906533
-0.000300609
-0.00105311
-0.000294278
-0.00119667
-0.000288228
-0.00133749
-0.000282698
-0.00147581
-0.000277708
-0.00161189
-0.000273214
-0.00174595
-0.000269161
-0.00187817
-0.000265503
-0.00200874
-0.000262197
-0.0021378
-0.000259212
-0.00226551
-0.000256516
-0.00239198
-0.000254074
-0.00251733
-0.000251851
-0.000249883
-0.00264167
-5.14261e-05
-5.16184e-05
-0.000161695
-0.000110573
-0.000301473
-0.000140069
-0.000453204
-0.000151971
-0.000607681
-0.000154671
-0.000760775
-0.000153257
-0.000911007
-0.000150378
-0.00105808
-0.000147208
-0.00120213
-0.00014418
-0.00134341
-0.000141414
-0.0014822
-0.000138919
-0.00161874
-0.000136673
-0.00175325
-0.000134648
-0.00188593
-0.00013282
-0.00201696
-0.000131169
-0.00214649
-0.000129679
-0.00227468
-0.000128335
-0.00240163
-0.000127117
-0.00252748
-0.000126009
-0.00012503
-0.00265233
-5.16581e-05
3.97039e-08
-0.000162317
8.60274e-08
-0.000302495
1.09469e-07
-0.000454585
1.18795e-07
-0.000609376
1.20513e-07
-0.000762752
1.18693e-07
-0.000913245
1.15512e-07
-0.00106056
1.11967e-07
-0.00120485
1.08446e-07
-0.00134637
1.05075e-07
-0.00148539
1.01879e-07
-0.00162217
9.88562e-08
-0.00175691
9.5994e-08
-0.00188982
9.328e-08
-0.00202108
9.07025e-08
-0.00215085
8.82517e-08
-0.00227927
8.59192e-08
-0.00240647
8.36947e-08
-0.00253256
8.15674e-08
7.95511e-08
-0.00265767
-5.16581e-05
5.16978e-05
-0.000162317
0.000110745
-0.000302495
0.000140287
-0.000454585
0.000152209
-0.000609376
0.000154912
-0.000762752
0.000153494
-0.000913245
0.000150609
-0.00106056
0.000147431
-0.00120485
0.000144397
-0.00134637
0.000141625
-0.00148539
0.000139123
-0.00162217
0.00013687
-0.00175691
0.00013484
-0.00188982
0.000133007
-0.00202108
0.000131351
-0.00215085
0.000129856
-0.00227927
0.000128506
-0.00240647
0.000127284
-0.00253256
0.000126172
0.000125189
-0.00265767
-5.1426e-05
0.000103124
-0.000161694
0.000221013
-0.000301473
0.000280066
-0.000453204
0.00030394
-0.000607681
0.000309389
-0.000760775
0.000306588
-0.000911007
0.000300841
-0.00105808
0.000294502
-0.00120212
0.000288444
-0.00134341
0.000282908
-0.0014822
0.000277912
-0.00161874
0.000273411
-0.00175325
0.000269353
-0.00188593
0.000265689
-0.00201696
0.000262379
-0.00214649
0.000259388
-0.00227468
0.000256688
-0.00240163
0.000254242
-0.00252748
0.000252014
0.000250042
-0.00265233
-5.09621e-05
0.000154086
-0.00016045
0.000330501
-0.000299429
0.000419045
-0.000450443
0.000454954
-0.000604291
0.000463237
-0.000756822
0.000459119
-0.000906532
0.00045055
-0.00105311
0.000441076
-0.00119667
0.000432011
-0.00133749
0.000423722
-0.00147581
0.000416237
-0.00161189
0.000409493
-0.00174595
0.000403409
-0.00187817
0.000397913
-0.00200874
0.000392944
-0.0021378
0.000388452
-0.00226551
0.000384394
-0.00239198
0.000380715
-0.00251733
0.000377361
0.000374386
-0.00264167
-5.02675e-05
0.000204353
-0.000158585
0.000438819
-0.000296364
0.000556824
-0.000446302
0.000604892
-0.000599208
0.000616143
-0.000750895
0.000610806
-0.000899824
0.00059948
-0.00104566
0.000586908
-0.0011885
0.00057486
-0.00132862
0.000563834
-0.00146625
0.000553872
-0.00160165
0.00054489
-0.00173502
0.000536782
-0.00186656
0.000529452
-0.00199644
0.00052282
-0.0021248
0.000516819
-0.0022518
0.000511391
-0.00237755
0.000506467
-0.00250216
0.000501971
0.000497972
-0.00262575
-4.93438e-05
0.000253697
-0.000156102
0.000545577
-0.00029228
0.000693002
-0.000440782
0.000753393
-0.000592432
0.000767792
-0.000742995
0.00076137
-0.000890887
0.000747371
-0.00103573
0.000731755
-0.00117763
0.000716758
-0.00131682
0.000703018
-0.00145354
0.000690594
-0.00158803
0.000679382
-0.0017205
0.000669254
-0.00185114
0.000660089
-0.0019801
0.000651786
-0.00210755
0.000644265
-0.00223361
0.000637454
-0.00235841
0.000631266
-0.00248205
0.000625609
0.000620558
-0.00260464
-4.81929e-05
0.00030189
-0.000153003
0.000650386
-0.000287179
0.000827179
-0.000433884
0.000900098
-0.000583963
0.000917872
-0.000733126
0.000910533
-0.000879726
0.000893971
-0.00102335
0.000875378
-0.00116407
0.000857477
-0.0013021
0.000841052
-0.00143769
0.000826186
-0.00157107
0.000812758
-0.00170243
0.000800614
-0.00183195
0.000789612
-0.0019598
0.000779632
-0.00208611
0.000770577
-0.00221102
0.000762362
-0.00233464
0.000754889
-0.00245708
0.000748044
0.000741907
-0.00257843
-4.6817e-05
0.000348707
-0.00014929
0.00075286
-0.000281061
0.00095895
-0.000425607
0.00104464
-0.000573801
0.00106607
-0.000721287
0.00105802
-0.000866345
0.00103903
-0.00100851
0.00101754
-0.00114783
0.000996794
-0.0012845
0.000977723
-0.00141876
0.000960441
-0.00155081
0.000944813
-0.00168086
0.000930662
-0.00180907
0.000917822
-0.00193559
0.000906155
-0.00206057
0.000895549
-0.00218411
0.000885908
-0.00230634
0.000877121
-0.00242736
0.000869057
0.00086179
-0.00254724
-4.52187e-05
0.000393926
-0.000144967
0.000852608
-0.000273928
0.00108791
-0.000415949
0.00118666
-0.000561944
0.00121206
-0.000707477
0.00120355
-0.000850746
0.0011823
-0.000991228
0.00115803
-0.00112893
0.0011345
-0.00126403
0.00111283
-0.00139676
0.00109316
-0.0015273
0.00107536
-0.00165585
0.00105921
-0.00178256
0.00104453
-0.00190757
0.00103117
-0.00203102
0.00101899
-0.00215301
0.0010079
-0.00227365
0.000997762
-0.00239303
0.000988436
0.000979987
-0.00251123
-4.34007e-05
0.000437326
-0.000140036
0.000949243
-0.000265778
0.00121365
-0.000404907
0.00132579
-0.000548385
0.00135554
-0.000691692
0.00134686
-0.000832928
0.00132353
-0.000971502
0.0012966
-0.00110738
0.00127038
-0.00124072
0.00124617
-0.00137173
0.00122417
-0.00150059
0.00120422
-0.00162746
0.00118609
-0.00175251
0.00116958
-0.00187585
0.00115451
-0.00199759
0.00114074
-0.00211785
0.00112815
-0.00223671
0.00111663
-0.00235427
0.00110599
0.00109629
-0.00247057
-4.1366e-05
0.000478692
-0.000134499
0.00104238
-0.00025661
0.00133576
-0.000392474
0.00146166
-0.000533115
0.00149618
-0.000673921
0.00148766
-0.000812883
0.0014625
-0.000949334
0.00143305
-0.00108319
0.00140423
-0.00121459
0.00137757
-0.00134371
0.00135329
-0.00147072
0.00133123
-0.00159577
0.00131114
-0.001719
0.00129281
-0.00184052
0.00127602
-0.00196042
0.00126064
-0.0020788
0.00124653
-0.00219573
0.00123356
-0.00231128
0.00122155
0.00121051
-0.00242551
-3.91176e-05
0.00051781
-0.000128359
0.00113162
-0.00024642
0.00145382
-0.000378639
0.00159388
-0.000516119
0.00163366
-0.000654148
0.00162569
-0.000790597
0.00159894
-0.000924713
0.00156717
-0.00105636
0.00153588
-0.00118564
0.00150685
-0.00131272
0.00148036
-0.00143774
0.00145625
-0.00156084
0.00143425
-0.00168214
0.00141411
-0.00180172
0.00139561
-0.00191967
0.00137858
-0.00203605
0.0013629
-0.00215092
0.00134843
-0.00226433
0.00133496
0.00132249
-0.00237631
-3.6659e-05
0.000554469
-0.000121615
0.00121657
-0.000235202
0.00156741
-0.000363389
0.00172206
-0.000497376
0.00176765
-0.000632348
0.00176066
-0.000766046
0.00173264
-0.000897618
0.00169874
-0.00102687
0.00166514
-0.00115388
0.00163385
-0.00127877
0.00160525
-0.00140168
0.00157916
-0.00152273
0.0015553
-0.00164201
0.00153339
-0.00175959
0.00151319
-0.00187551
0.00149451
-0.00198982
0.00147721
-0.00210255
0.00146116
-0.00221373
0.00144614
0.0014321
-0.00232334
-3.39937e-05
0.000588463
-0.000114271
0.00129685
-0.00022295
0.00167609
-0.000346705
0.00184582
-0.000476858
0.0018978
-0.000608487
0.00189229
-0.000739191
0.00186335
-0.000868012
0.00182756
-0.000994694
0.00179182
-0.00111927
0.00175842
-0.00124185
0.00172783
-0.00136255
0.00169986
-0.00148148
0.00167423
-0.00159869
0.0016506
-0.00171424
0.00162873
-0.00182813
0.0016084
-0.00194037
0.00158945
-0.00205095
0.00157174
-0.00215986
0.00155505
0.00153926
-0.00226702
-3.11262e-05
0.000619589
-0.000106328
0.00137205
-0.000209655
0.00177942
-0.000328566
0.00196473
-0.000454531
0.00202377
-0.000582521
0.00202028
-0.000709983
0.00199081
-0.000835841
0.00195342
-0.000959771
0.00191575
-0.00108176
0.00188042
-0.00120191
0.00184798
-0.00132033
0.00181828
-0.00143708
0.00179098
-0.00155222
0.00176575
-0.00166577
0.00174228
-0.0017777
0.00172033
-0.00188796
0.00169971
-0.00199649
0.00168027
-0.0021032
0.00166176
0.001644
-0.00220794
-2.80619e-05
0.000647651
-9.77891e-05
0.00144178
-0.000195309
0.00187694
-0.000308947
0.00207837
-0.000430355
0.00214517
-0.000554396
0.00214432
-0.000678355
0.00211477
-0.000801029
0.00207609
-0.000922018
0.00203674
-0.00104128
0.00199968
-0.00115888
0.00196558
-0.00127493
0.00193432
-0.00138949
0.00190554
-0.0015026
0.00187886
-0.00161424
0.00185392
-0.00172436
0.00183045
-0.00183285
0.00180821
-0.00193957
0.00178699
-0.00204432
0.0017665
0.00174649
-0.0021468
-2.48077e-05
0.000672458
-8.86601e-05
0.00150563
-0.000179906
0.00196818
-0.000287825
0.00218629
-0.000404285
0.00226163
-0.000524048
0.00226409
-0.000644226
0.00223495
-0.000763479
0.00219535
-0.000881324
0.00215458
-0.000997678
0.00211603
-0.00111261
0.00208051
-0.00122621
0.00204792
-0.00133855
0.00201789
-0.00144968
0.00198998
-0.00155957
0.00196381
-0.00166815
0.00193903
-0.00177528
0.00191534
-0.00188071
0.00189243
-0.00198403
0.00186983
0.00184711
-0.00208465
-2.13729e-05
0.000693831
-7.89514e-05
0.00156321
-0.000163444
0.00205267
-0.000265178
0.00228802
-0.000376278
0.00237273
-0.00049141
0.00237922
-0.000607506
0.00235104
-0.000723072
0.00231091
-0.000837538
0.00226905
-0.000950781
0.00222927
-0.00106286
0.00219259
-0.00117389
0.00215895
-0.00128396
0.00212796
-0.00139316
0.00209918
-0.00150147
0.00207213
-0.00160883
0.00204639
-0.0017151
0.0020216
-0.00181998
0.00199731
-0.00192282
0.00197266
0.00194681
-0.00202253
-1.77695e-05
0.000711601
-6.86795e-05
0.00161412
-0.000145929
0.00212992
-0.00024099
0.00238308
-0.000346292
0.00247804
-0.000456417
0.00248934
-0.000568101
0.00246273
-0.000679689
0.0024225
-0.000790511
0.00237987
-0.000900403
0.00233917
-0.00100943
0.00230162
-0.00111773
0.00226725
-0.00122545
0.00223569
-0.00133275
0.00220647
-0.00143969
0.00217907
-0.0015463
0.002153
-0.00165256
0.00212786
-0.00175841
0.00210317
-0.00186314
0.0020774
0.00204694
-0.00196327
-1.40135e-05
0.000725614
-5.78695e-05
0.00165798
-0.00012738
0.00219943
-0.00021526
0.00247096
-0.0003143
0.00257708
-0.000419009
0.00259405
-0.00052592
0.00256964
-0.000633193
0.00252977
-0.000740035
0.00248671
-0.000846226
0.00244536
-0.000951813
0.0024072
-0.00105695
0.00237239
-0.00116184
0.00234058
-0.0012667
0.00231133
-0.00137178
0.00228415
-0.00147728
0.0022585
-0.00158327
0.00223384
-0.00168997
0.00220987
-0.0017981
0.00218553
0.00215355
-0.00190471
-1.01245e-05
0.000735739
-4.65568e-05
0.00169441
-0.000107828
0.0022607
-0.000188002
0.00255114
-0.000280292
0.00266937
-0.000379152
0.00269291
-0.0004809
0.00267139
-0.000583492
0.00263237
-0.000685996
0.00258922
-0.000788128
0.00254749
-0.000889934
0.00250901
-0.000991636
0.00247409
-0.00109358
0.00244252
-0.00119623
0.00241398
-0.00130023
0.00238815
-0.00140642
0.00236469
-0.00151568
0.0023431
-0.00162836
0.00232255
-0.00174542
0.00230259
0.00229514
-0.00188701
-6.13958e-06
0.000741878
-3.48094e-05
0.00172308
-8.73497e-05
0.00231324
-0.000159281
0.00262307
-0.000244311
0.0027544
-0.000336863
0.00278547
-0.000433036
0.00276756
-0.000530551
0.00272988
-0.000628307
0.00268697
-0.000725915
0.0026451
-0.000823363
0.00260646
-0.000920827
0.00257155
-0.00101858
0.00254027
-0.00111692
0.00251232
-0.00121614