/*--------------------------------*- C++ -*----------------------------------*\
  =========                 |
  \\      /  F ield         | OpenFOAM: The Open Source CFD Toolbox
   \\    /   O peration     | Website:  https://openfoam.org
    \\  /    A nd           | Version:  6.0
     \\/     M anipulation  |
\*---------------------------------------------------------------------------*/
FoamFile
{
    version     2.0;
    format      ascii;
    class       volVectorField;
    location    "7";
    object      U;
}
// * * * * * * * * * * * * * * * * * * * * * * * * * * * * * * * * * * * * * //

dimensions      [0 1 -1 0 0 0 0];

internalField   nonuniform List<vector> 
4000
(
(0.106706 0.00794528 6.94788e-20)
(0.335371 0.0409237 -3.79252e-20)
(0.564227 0.0966897 4.47517e-20)
(0.774574 0.158906 -3.33218e-20)
(0.952153 0.217226 -1.49537e-20)
(1.09036 0.265863 4.54828e-21)
(1.18982 0.302389 -1.46707e-20)
(1.25582 0.327013 5.27319e-20)
(1.29569 0.341497 -4.39258e-20)
(1.31673 0.348168 1.03228e-20)
(1.32516 0.349281 -7.6819e-21)
(1.32571 0.346709 -5.00928e-20)
(1.32173 0.34185 4.86084e-20)
(1.3154 0.335675 1.85242e-20)
(1.30808 0.328818 -1.84105e-20)
(1.30059 0.321674 4.32543e-20)
(1.29342 0.314465 -6.35169e-22)
(1.28685 0.30735 -4.19523e-20)
(1.28102 0.300698 3.10494e-20)
(1.27609 0.294355 9.83241e-21)
(0.121429 0.0132768 -2.43654e-20)
(0.370696 0.0570807 7.05449e-20)
(0.610821 0.122074 8.16982e-20)
(0.823688 0.190267 -3.86325e-20)
(0.996873 0.250989 6.71447e-20)
(1.12647 0.299091 1.06347e-19)
(1.21574 0.333198 -5.91155e-21)
(1.27196 0.35453 -1.83256e-20)
(1.30352 0.365593 9.02832e-20)
(1.31815 0.369154 4.40673e-20)
(1.32197 0.367653 -8.02326e-21)
(1.31941 0.362981 6.58173e-20)
(1.31343 0.356473 -7.0673e-20)
(1.30589 0.349005 1.1014e-19)
(1.29787 0.341125 -1.83686e-20)
(1.29002 0.333154 5.27873e-20)
(1.2827 0.325261 9.56085e-21)
(1.2761 0.317585 3.77775e-20)
(1.27031 0.310495 -3.59263e-20)
(1.26546 0.303702 8.77853e-21)
(0.13626 0.0197358 -3.79225e-20)
(0.405069 0.0756425 8.91819e-20)
(0.654585 0.150033 6.64321e-20)
(0.867989 0.223637 -1.01063e-20)
(1.03532 0.285902 1.03925e-19)
(1.15567 0.332669 -7.80832e-20)
(1.23489 0.36379 -6.15272e-21)
(1.282 0.381526 6.87039e-20)
(1.30623 0.389081 2.17698e-20)
(1.31544 0.389577 3.06494e-20)
(1.31555 0.385567 -4.5325e-20)
(1.31062 0.37891 1.18502e-19)
(1.3032 0.370849 2.22174e-20)
(1.29485 0.362159 -1.05149e-19)
(1.28642 0.353298 1.54151e-19)
(1.2784 0.344522 -1.82004e-19)
(1.27106 0.335954 -8.37755e-20)
(1.26454 0.327718 1.39104e-20)
(1.25887 0.320182 8.13038e-20)
(1.25416 0.312918 -1.54126e-19)
(0.150956 0.0273214 -8.4515e-20)
(0.437909 0.0964708 -1.99847e-19)
(0.694841 0.180253 -1.73362e-19)
(0.906951 0.258593 -2.35889e-19)
(1.06727 0.321542 -1.342e-19)
(1.17806 0.366247 -2.78307e-19)
(1.24764 0.393916 3.53898e-20)
(1.28647 0.40785 -1.48296e-19)
(1.30434 0.411874 -1.63756e-20)
(1.30909 0.409385 2.4459e-20)
(1.3063 0.402981 -5.3954e-20)
(1.29962 0.394448 6.7856e-20)
(1.29124 0.384919 1.21042e-19)
(1.2824 0.375062 -1.69878e-19)
(1.27379 0.365252 2.77572e-20)
(1.26576 0.355685 7.95397e-20)
(1.25852 0.346445 1.33363e-19)
(1.25216 0.337649 -1.15016e-19)
(1.24667 0.329659 -5.5663e-21)
(1.24215 0.321909 1.35987e-19)
(0.165269 0.0360022 -1.58986e-19)
(0.468663 0.119364 4.37395e-19)
(0.731 0.21236 -7.68269e-20)
(0.940183 0.294687 1.02765e-19)
(1.09266 0.357486 -1.00429e-19)
(1.19387 0.399488 3.09309e-19)
(1.25438 0.423344 -4.91785e-20)
(1.28583 0.433353 2.91212e-20)
(1.29832 0.433879 -1.52333e-20)
(1.29948 0.42851 4.8409e-20)
(1.29452 0.419831 3.14062e-20)
(1.28663 0.409525 4.02722e-20)
(1.27766 0.398602 -1.13739e-19)
(1.26862 0.387625 1.67427e-19)
(1.26002 0.376892 -1.27472e-19)
(1.25212 0.366545 2.47403e-20)
(1.24508 0.356637 -8.22973e-20)
(1.23895 0.347282 1.79578e-20)
(1.2337 0.338832 2.0425e-20)
(1.22945 0.330584 -1.87379e-19)
(0.17895 0.0457165 1.09731e-20)
(0.496824 0.144061 -2.19841e-19)
(0.762579 0.24594 1.21963e-19)
(0.967427 0.331454 -4.24964e-19)
(1.1115 0.393318 2.06338e-19)
(1.20335 0.432076 -3.53996e-19)
(1.25553 0.451853 -2.77589e-19)
(1.28053 0.457888 -1.06422e-20)
(1.28857 0.454991 -9.46859e-20)
(1.28696 0.446865 -2.96899e-19)
(1.28044 0.436032 -3.7714e-20)
(1.2718 0.424049 -2.8778e-19)
(1.26259 0.411798 5.1726e-20)
(1.25357 0.399742 -4.20277e-20)
(1.24513 0.388107 2.48218e-20)
(1.23748 0.376991 -1.97641e-19)
(1.23073 0.36642 8.95984e-21)
(1.22492 0.35651 3.8936e-20)
(1.21996 0.347594 -9.36174e-20)
(1.21603 0.338846 8.13238e-20)
(0.191761 0.0563728 -8.98749e-20)
(0.521945 0.170253 4.01208e-19)
(0.789197 0.280541 3.54064e-21)
(0.98854 0.368423 -3.48093e-19)
(1.12393 0.428636 2.64268e-19)
(1.20683 0.463705 1.11618e-19)
(1.25149 0.47923 2.24863e-20)
(1.27099 0.481305 -1.89876e-19)
(1.27545 0.475095 3.08685e-19)
(1.27177 0.464345 -1.82996e-19)
(1.26425 0.451478 6.5044e-20)
(1.25527 0.437908 3.11914e-19)
(1.24609 0.42439 -2.82409e-19)
(1.23729 0.411294 3.11636e-19)
(1.22917 0.398781 -2.02462e-19)
(1.22187 0.386908 -3.95358e-20)
(1.2155 0.375682 4.85267e-20)
(1.21006 0.365222 6.25848e-20)
(1.20546 0.355842 8.69887e-20)
(1.20192 0.346597 5.20631e-20)
(0.203476 0.0678516 3.57316e-20)
(0.543643 0.197587 -3.59897e-19)
(0.81058 0.315691 6.38674e-20)
(1.00349 0.405128 8.40121e-19)
(1.13012 0.463051 -7.72446e-20)
(1.20465 0.494085 2.3478e-19)
(1.24266 0.505267 1.47121e-19)
(1.25757 0.503449 2.41936e-20)
(1.25925 0.494061 -1.72924e-19)
(1.25417 0.48083 2.84007e-19)
(1.24612 0.466047 -3.45814e-20)
(1.23714 0.450977 4.38348e-19)
(1.22823 0.436252 1.70917e-19)
(1.21983 0.422153 1.08371e-19)
(1.21215 0.408786 -2.25918e-19)
(1.20531 0.396172 4.79022e-20)
(1.19939 0.384305 1.77667e-19)
(1.1944 0.373305 4.73177e-20)
(1.19022 0.363464 -2.18426e-19)
(1.18713 0.353738 -5.50615e-20)
(0.213891 0.0800081 -1.99845e-19)
(0.56161 0.225679 6.44745e-19)
(0.826557 0.350905 -3.51153e-19)
(1.01232 0.441108 -3.2427e-19)
(1.13035 0.496189 -2.83195e-19)
(1.19718 0.522938 -2.40038e-19)
(1.22942 0.529759 -2.98007e-19)
(1.24061 0.524162 3.75399e-19)
(1.24026 0.511751 -2.70311e-19)
(1.23433 0.496187 -2.22396e-20)
(1.22617 0.479605 -1.73307e-21)
(1.21749 0.46312 -5.24985e-20)
(1.20907 0.447246 -1.37188e-19)
(1.20123 0.432185 -1.55002e-19)
(1.19412 0.417992 -8.32076e-21)
(1.18783 0.40466 -3.48884e-20)
(1.18244 0.392168 -8.78366e-20)
(1.17796 0.380643 -2.79947e-20)
(1.17426 0.370351 2.91785e-20)
(1.17168 0.360167 -1.92393e-19)
(0.222826 0.0926758 3.48824e-19)
(0.575612 0.254119 3.61939e-19)
(0.837053 0.385698 -2.25178e-19)
(1.01518 0.475918 1.38751e-19)
(1.12491 0.527697 2.41496e-19)
(1.18477 0.550001 -5.12441e-20)
(1.21212 0.55251 5.95682e-20)
(1.22042 0.543282 6.89466e-20)
(1.2187 0.52802 1.15063e-19)
(1.21242 0.510273 -1.36289e-19)
(1.20452 0.492009 6.64895e-20)
(1.1964 0.474193 -4.74278e-20)
(1.18867 0.457231 2.10814e-19)
(1.18154 0.441252 9.50072e-20)
(1.17511 0.426266 -2.13432e-19)
(1.16946 0.412241 1.19246e-19)
(1.16468 0.399147 5.93067e-20)
(1.16078 0.387115 -1.12114e-19)
(1.15762 0.376388 3.04238e-19)
(1.15563 0.365784 -2.25778e-19)
(0.230132 0.10567 -2.56381e-19)
(0.585496 0.282489 -3.33778e-19)
(0.842081 0.419589 2.35374e-19)
(1.01227 0.509134 -2.16813e-19)
(1.11411 0.557242 -1.90958e-20)
(1.1678 0.575024 -2.42731e-19)
(1.19113 0.573325 2.00306e-19)
(1.19728 0.560646 3.77914e-19)
(1.19479 0.542717 -5.26615e-19)
(1.18861 0.522941 2.71868e-20)
(1.18128 0.50311 2.15735e-20)
(1.17396 0.484048 -1.09153e-19)
(1.16709 0.46606 7.39421e-20)
(1.16081 0.44921 -3.27705e-20)
(1.15518 0.433471 2.23133e-19)
(1.15026 0.418784 -2.40883e-19)
(1.14617 0.405114 -8.64844e-20)
(1.1429 0.392599 2.231e-19)
(1.14036 0.381457 -3.41707e-19)
(1.13902 0.370478 2.15866e-19)
(0.235692 0.118794 5.33695e-19)
(0.591182 0.310363 4.74081e-19)
(0.841735 0.452117 -7.93863e-20)
(1.00386 0.540355 -1.02982e-20)
(1.09833 0.584514 -2.43899e-19)
(1.14664 0.597773 1.03648e-19)
(1.16675 0.59202 5.21317e-19)
(1.17145 0.576095 -4.59704e-19)
(1.16873 0.555691 2.96661e-19)
(1.16303 0.534039 -2.71846e-20)
(1.15655 0.512758 1.86216e-19)
(1.15023 0.492535 -4.38211e-20)
(1.14439 0.473585 1.1416e-19)
(1.1391 0.455917 1.52227e-19)
(1.13438 0.439467 -8.18239e-20)
(1.1303 0.424154 1.0606e-19)
(1.12697 0.409938 -1.56388e-19)
(1.12441 0.39696 3.98206e-19)
(1.12255 0.385423 -2.54939e-19)
(1.12193 0.374123 1.84101e-19)
(0.239422 0.131839 -2.61985e-19)
(0.592663 0.337323 -4.89223e-19)
(0.836182 0.482839 -3.38276e-19)
(0.990245 0.56921 -2.54358e-20)
(1.07794 0.609228 8.19294e-20)
(1.12166 0.618032 -4.48228e-20)
(1.13932 0.60842 -2.95539e-19)
(1.1432 0.589472 -1.31892e-19)
(1.14071 0.566791 -2.45304e-19)
(1.13582 0.543421 -1.26375e-19)
(1.13044 0.520804 6.2771e-20)
(1.12531 0.499506 -3.00666e-19)
(1.12065 0.479662 -7.44685e-20)
(1.11648 0.46123 -7.52556e-20)
(1.11279 0.444114 -2.36848e-19)
(1.10964 0.428213 1.05357e-19)
(1.10714 0.413482 -1.40112e-21)
(1.10535 0.400059 1.02933e-19)
(1.10425 0.388137 -4.3152e-20)
(1.10443 0.376567 -1.64516e-19)
(0.241272 0.144595 6.05453e-19)
(0.590001 0.362961 5.2702e-19)
(0.825652 0.511341 6.59384e-19)
(0.971784 0.595357 -6.83612e-20)
(1.05333 0.631124 -2.44535e-19)
(1.09323 0.635601 7.19628e-19)
(1.10915 0.622361 -3.64728e-19)
(1.11276 0.60063 4.0896e-19)
(1.1109 0.575876 -7.71672e-20)
(1.10712 0.550943 2.57148e-19)
(1.10303 0.527107 2.8358e-20)
(1.09925 0.504819 1.3141e-19)
(1.09592 0.484146 -3.00963e-20)
(1.09301 0.465006 1.37526e-19)
(1.09048 0.447272 -1.19614e-19)
(1.08835 0.430826 3.61758e-21)
(1.08677 0.415609 6.00775e-20)
(1.08581 0.401752 1.0061e-19)
(1.08554 0.389449 -1.8408e-20)
(1.08656 0.377666 6.05658e-20)
(0.241229 0.156853 -1.8644e-19)
(0.583323 0.386893 -5.26546e-19)
(0.810428 0.537244 -3.20878e-19)
(0.948855 0.61849 -5.64375e-19)
(1.0249 0.649971 6.11914e-19)
(1.06172 0.650303 -4.39148e-19)
(1.07653 0.633694 2.81568e-19)
(1.08036 0.609433 -9.65828e-20)
(1.07948 0.582814 -1.24306e-19)
(1.07705 0.556477 -8.88143e-20)
(1.07444 0.531536 4.59312e-20)
(1.07215 0.508342 6.63072e-20)
(1.07027 0.486905 5.85928e-20)
(1.06874 0.467108 -7.48797e-20)
(1.06748 0.448803 -6.03968e-20)
(1.06651 0.431851 1.94865e-19)
(1.06593 0.416177 -1.63773e-20)
(1.06588 0.401896 -8.60593e-20)
(1.06649 0.389223 1.96963e-21)
(1.06836 0.377309 -2.31352e-20)
(0.239314 0.168405 8.30971e-19)
(0.572812 0.408757 3.91719e-19)
(0.790844 0.560203 3.66136e-19)
(0.921867 0.638338 -2.19348e-19)
(0.993054 0.665567 2.8117e-20)
(1.02748 0.661982 3.15486e-19)
(1.04176 0.64229 4.39983e-20)
(1.04624 0.615761 9.63689e-20)
(1.04664 0.58749 1.08211e-19)
(1.04575 0.559907 1.31951e-20)
(1.04475 0.533978 6.34891e-20)
(1.04406 0.509961 -8.33362e-21)
(1.04374 0.487819 -2.8492e-20)
(1.0437 0.46741 -1.02956e-19)
(1.04386 0.448568 2.43891e-20)
(1.04416 0.431139 3.82651e-21)
(1.0447 0.415031 -4.57715e-21)
(1.04564 0.400328 6.8592e-21)
(1.04718 0.387291 -9.92374e-21)
(1.04996 0.375352 2.23683e-20)
(0.23558 0.179057 -5.98396e-19)
(0.558702 0.428226 -5.18236e-19)
(0.76727 0.579916 2.51509e-19)
(0.891246 0.654667 -3.1291e-19)
(0.958212 0.67774 -2.23505e-20)
(0.990882 0.670507 4.81979e-20)
(1.00514 0.648036 -5.14247e-20)
(1.01064 0.619513 -4.04443e-20)
(1.01255 0.589807 -9.84442e-20)
(1.01336 0.561142 -6.12113e-20)
(1.01408 0.534342 -7.29101e-21)
(1.01507 0.509585 -5.63907e-20)
(1.01638 0.486794 1.78e-20)
(1.01793 0.465807 -2.12988e-20)
(1.01962 0.446449 1.0741e-20)
(1.02135 0.42856 3.26939e-21)
(1.02316 0.412021 -8.25038e-21)
(1.02519 0.396862 -1.27232e-20)
(1.0278 0.383381 1.98981e-21)
(1.03176 0.371429 2.49527e-20)
(0.230111 0.188627 5.63136e-19)
(0.541273 0.445008 1.67563e-20)
(0.740111 0.596123 -5.16165e-20)
(0.857436 0.667283 6.19855e-20)
(0.920791 0.686351 2.27201e-19)
(0.952281 0.67577 -1.62098e-19)
(0.966969 0.650844 7.93596e-20)
(0.973783 0.620608 -1.03174e-19)
(0.977405 0.589691 3.44094e-20)
(0.98002 0.560113 -2.80877e-20)
(0.982524 0.532563 -8.62373e-21)
(0.98523 0.507148 -1.31038e-20)
(0.9882 0.483755 8.99098e-21)
(0.991397 0.46221 -9.60264e-21)
(0.994726 0.442336 -8.20605e-20)
(0.998062 0.423981 7.40532e-20)
(1.00133 0.407006 -5.45222e-20)
(1.00469 0.391303 -3.79541e-20)
(1.00877 0.377099 3.78117e-20)
(1.01441 0.364894 -4.97754e-20)
(0.223018 0.196947 -1.17743e-19)
(0.52084 0.45885 1.24628e-19)
(0.709796 0.608604 9.38442e-20)
(0.820891 0.676027 -1.42774e-19)
(0.881214 0.691289 7.1408e-20)
(0.912043 0.677692 -1.23959e-19)
(0.927542 0.650648 -1.27208e-20)
(0.93592 0.618993 -3.08004e-21)
(0.941394 0.587099 -1.25838e-20)
(0.945891 0.556786 -5.45006e-20)
(0.950199 0.528617 2.69894e-22)
(0.954603 0.502627 -1.21192e-20)
(0.959196 0.478663 6.87849e-20)
(0.963998 0.456531 -1.98894e-19)
(0.968973 0.43606 1.8499e-19)
(0.973994 0.41713 1.02585e-19)
(0.978924 0.399589 -2.82085e-20)
(0.984026 0.383114 1.44155e-20)
(0.990212 0.367709 1.81658e-19)
(0.997807 0.35489 -7.46119e-20)
(0.214438 0.203871 -3.74391e-20)
(0.497753 0.469538 9.48085e-20)
(0.676775 0.617185 -1.11694e-19)
(0.782074 0.680781 1.50845e-19)
(0.839905 0.692475 -4.25757e-21)
(0.870533 0.676216 -3.12313e-20)
(0.887167 0.647408 4.66474e-21)
(0.897309 0.614638 -2.99861e-20)
(0.904739 0.582018 3.11973e-20)
(0.911155 0.551175 2.75202e-20)
(0.917247 0.522552 2.00436e-20)
(0.923276 0.496105 -8.71398e-22)
(0.929355 0.471629 7.33896e-20)
(0.93556 0.448878 -7.76323e-20)
(0.941926 0.427643 8.96543e-20)
(0.948378 0.407786 -1.84363e-19)
(0.954826 0.389107 2.10194e-19)
(0.961729 0.370962 -1.81818e-19)
(0.970085 0.353094 -1.16371e-19)
(0.978765 0.338977 2.06991e-19)
(0.20453 0.209274 5.91254e-20)
(0.472383 0.476901 8.00967e-21)
(0.64151 0.621734 2.22016e-20)
(0.741451 0.681458 -3.28418e-21)
(0.797289 0.689857 -1.81065e-20)
(0.82812 0.671308 9.78155e-21)
(0.846162 0.6411 -9.47882e-20)
(0.858227 0.607533 6.2726e-20)
(0.86769 0.574457 7.02692e-20)
(0.876045 0.543324 -1.05945e-19)
(0.883893 0.514471 1.3307e-19)
(0.891462 0.487791 -4.90132e-20)
(0.898855 0.463026 1.04773e-19)
(0.906151 0.439873 -1.65557e-19)
(0.913397 0.418036 3.47016e-19)
(0.920553 0.397262 -7.56934e-20)
(0.927644 0.377134 -2.07864e-20)
(0.935354 0.356383 2.34485e-19)
(0.944466 0.333062 -1.13324e-19)
(0.949928 0.309751 5.55317e-20)
(0.193468 0.213055 -1.10512e-20)
(0.445118 0.480811 -3.89129e-20)
(0.604472 0.62216 -2.64168e-20)
(0.699491 0.678009 5.51936e-21)
(0.75379 0.683409 -8.39613e-21)
(0.785175 0.662953 -1.18363e-19)
(0.80485 0.631712 1.77367e-19)
(0.818964 0.59767 1.37927e-20)
(0.830521 0.564419 -2.01146e-20)
(0.840839 0.53325 5.55418e-21)
(0.850442 0.504419 6.69643e-20)
(0.859533 0.477785 1.1698e-19)
(0.868189 0.453087 6.85471e-20)
(0.876447 0.430038 -1.65238e-19)
(0.884295 0.408384 -5.0266e-20)
(0.891671 0.387934 -4.39795e-21)
(0.898684 0.36842 3.37702e-20)
(0.905939 0.349145 5.78515e-21)
(0.913377 0.329396 3.64018e-19)
(0.916276 0.311329 -2.534e-19)
(0.181437 0.215129 7.48636e-20)
(0.416357 0.481174 1.31838e-20)
(0.566131 0.61841 -8.85438e-20)
(0.656655 0.670415 2.45394e-19)
(0.709825 0.67313 6.9311e-20)
(0.742063 0.651156 -1.76003e-19)
(0.763555 0.61925 1.71643e-19)
(0.779815 0.585051 -4.38651e-20)
(0.793512 0.5519 1.58123e-19)
(0.805812 0.52094 7.71248e-20)
(0.817189 0.492356 -3.43809e-19)
(0.827834 0.46598 -3.83475e-20)
(0.837833 0.441544 4.87192e-19)
(0.847221 0.41877 -5.9807e-19)
(0.855977 0.397415 5.53154e-19)
(0.864032 0.377279 1.93769e-19)
(0.871455 0.358081 -6.8364e-19)
(0.878659 0.33924 3.33519e-19)
(0.885464 0.320451 -6.67988e-20)
(0.888329 0.304144 7.96507e-20)
(0.168634 0.215439 -2.09305e-19)
(0.386504 0.477939 -2.20314e-19)
(0.526956 0.610469 1.49867e-19)
(0.613398 0.658687 -2.02274e-19)
(0.665805 0.659044 -5.81351e-19)
(0.699147 0.63594 -2.63016e-20)
(0.722597 0.60373 -1.75185e-19)
(0.741071 0.569689 3.43126e-21)
(0.756934 0.536911 -3.61748e-19)
(0.771224 0.506408 -3.68575e-19)
(0.784374 0.478307 -2.55608e-19)
(0.796572 0.452423 -1.11943e-20)
(0.807912 0.428496 -6.26101e-19)
(0.818445 0.406266 -8.88668e-21)
(0.828176 0.385521 3.06989e-19)
(0.837073 0.366096 -3.04379e-19)
(0.845216 0.347772 -2.37533e-19)
(0.85294 0.330108 2.28946e-19)
(0.860058 0.312919 -1.63438e-19)
(0.863675 0.298121 3.14084e-20)
(0.155261 0.213949 1.85808e-19)
(0.355961 0.471093 1.43763e-19)
(0.487408 0.59836 -9.57715e-21)
(0.570166 0.642871 -1.35493e-19)
(0.622129 0.641198 3.06082e-19)
(0.656776 0.617346 5.11495e-19)
(0.682289 0.585185 -5.47928e-20)
(0.70302 0.551604 6.04043e-21)
(0.721063 0.51946 9.64093e-20)
(0.737349 0.489643 2.29724e-19)
(0.752285 0.462234 3.36356e-19)
(0.766064 0.437037 -2.75475e-19)
(0.778795 0.413796 2.67879e-19)
(0.790548 0.392267 -9.52532e-20)
(0.801348 0.37225 3.15107e-19)
(0.811195 0.353591 -1.23117e-19)
(0.820198 0.336095 -3.087e-19)
(0.828694 0.319417 1.83799e-19)
(0.836525 0.30349 -2.65322e-19)
(0.841167 0.289925 -3.00403e-19)
(0.141521 0.210644 9.5982e-20)
(0.325129 0.460656 1.67704e-19)
(0.447937 0.582139 -1.75246e-19)
(0.527387 0.623039 3.76651e-21)
(0.579183 0.619666 3.02681e-20)
(0.615292 0.595438 2.5413e-19)
(0.642934 0.563664 -3.72251e-19)
(0.665937 0.530833 3.5275e-19)
(0.686151 0.49957 -3.61183e-20)
(0.704421 0.470656 9.60317e-20)
(0.721137 0.444133 1.57648e-19)
(0.736504 0.419798 -3.00984e-19)
(0.750654 0.397405 1.42046e-19)
(0.76368 0.376723 1.35769e-19)
(0.775633 0.357566 5.04508e-20)
(0.786545 0.339788 -2.57934e-19)
(0.796551 0.32321 8.68511e-19)
(0.805981 0.307535 -4.88047e-19)
(0.814675 0.292732 8.83405e-19)
(0.820394 0.280133 -5.75251e-20)
(0.127618 0.205533 7.37894e-20)
(0.294394 0.446687 4.08054e-19)
(0.408975 0.561899 1.48371e-19)
(0.485475 0.599293 3.00719e-19)
(0.537334 0.594545 8.09429e-20)
(0.575019 0.570299 -4.87723e-19)
(0.604821 0.539236 7.58397e-19)
(0.630083 0.507429 3.95419e-19)
(0.652441 0.47728 1.71156e-20)
(0.672666 0.449471 5.1197e-19)
(0.691142 0.42401 8.4894e-20)
(0.708089 0.400693 5.33619e-20)
(0.723662 0.379281 3.05635e-19)
(0.737977 0.359554 -1.15131e-19)
(0.751114 0.341337 -1.19386e-19)
(0.763134 0.324487 7.12049e-19)
(0.774196 0.308836 -5.93063e-19)
(0.784621 0.294128 2.29041e-20)
(0.794239 0.280348 7.51335e-19)
(0.80106 0.268589 -8.13799e-22)
(0.113751 0.198641 -8.86964e-19)
(0.264133 0.429275 -1.42273e-19)
(0.370939 0.537763 -1.99199e-19)
(0.444821 0.571765 -1.5419e-19)
(0.496934 0.565956 -3.95487e-19)
(0.536265 0.542036 1.35261e-19)
(0.568225 0.511988 -1.90886e-19)
(0.595706 0.481464 5.78492e-20)
(0.620158 0.452647 -2.76444e-19)
(0.642292 0.42613 -2.58754e-19)
(0.66249 0.401894 5.68519e-20)
(0.680991 0.379736 -4.21395e-19)
(0.697972 0.359425 3.38671e-19)
(0.713575 0.340754 -1.22456e-19)
(0.727901 0.323553 3.80395e-19)
(0.74104 0.307685 -8.21127e-19)
(0.753168 0.29299 -1.56303e-19)
(0.764588 0.279241 -2.94771e-19)
(0.77513 0.266427 -7.89677e-19)
(0.783039 0.255435 -1.27412e-19)
(0.100114 0.190016 1.43423e-19)
(0.234705 0.408541 -1.49546e-20)
(0.334222 0.509886 -2.27389e-19)
(0.405798 0.540614 8.06172e-20)
(0.458314 0.534047 -1.62982e-19)
(0.499323 0.510776 -1.8321e-21)
(0.533404 0.482032 2.20837e-19)
(0.56304 0.453031 -3.30652e-19)
(0.589513 0.425749 1.28073e-19)
(0.613491 0.400697 -7.43734e-20)
(0.635354 0.377835 2.0854e-20)
(0.655362 0.356963 -3.69518e-19)
(0.673715 0.337862 -4.48458e-19)
(0.690575 0.320333 -1.71415e-20)
(0.706068 0.304216 4.99119e-19)
(0.720305 0.289377 2.28597e-20)
(0.733474 0.275665 6.30421e-19)
(0.745862 0.262881 -9.19484e-19)
(0.757302 0.25101 4.88233e-19)
(0.76627 0.240758 8.42643e-19)
(0.0868932 0.179723 -1.29608e-19)
(0.206451 0.384634 6.95715e-20)
(0.299196 0.478451 4.53545e-19)
(0.368754 0.506023 1.12568e-19)
(0.421783 0.498985 -1.5102e-19)
(0.464464 0.476669 1.19647e-19)
(0.5006 0.449496 4.69568e-19)
(0.5323 0.422244 -3.81771e-19)
(0.560704 0.396685 3.53252e-20)
(0.586439 0.373257 -1.39138e-19)
(0.609893 0.351907 5.02522e-19)
(0.631344 0.332439 3.58823e-19)
(0.651012 0.314646 -5.21845e-20)
(0.669081 0.298341 -5.42961e-19)
(0.685697 0.283373 2.92555e-20)
(0.70099 0.269612 -6.68384e-20)
(0.715155 0.256918 3.18799e-19)
(0.728459 0.245115 5.17747e-19)
(0.740755 0.234183 4.5135e-19)
(0.75074 0.224672 -7.55286e-19)
(0.074265 0.167844 -8.22078e-20)
(0.179691 0.357733 3.501e-19)
(0.266207 0.44367 -3.40246e-19)
(0.334013 0.468202 4.7535e-19)
(0.387629 0.460965 -2.57144e-19)
(0.431942 0.439885 1.85955e-19)
(0.470037 0.414532 4.69401e-19)
(0.50369 0.389234 -5.65442e-19)
(0.533912 0.365572 2.5755e-19)
(0.561302 0.343917 3.25419e-19)
(0.586255 0.324204 -4.41491e-19)
(0.609067 0.306248 -3.05549e-20)
(0.629978 0.289854 -3.52779e-19)
(0.64919 0.27485 5.66952e-19)
(0.666867 0.261092 -3.06654e-19)
(0.683155 0.248458 3.2914e-19)
(0.698255 0.23682 -5.90347e-20)
(0.712415 0.226023 2.03513e-19)
(0.725513 0.216038 4.65674e-20)
(0.736462 0.207285 -1.1844e-19)
(0.0623952 0.154476 -2.53905e-19)
(0.154722 0.32804 -5.81281e-19)
(0.235575 0.405779 1.52912e-19)
(0.301873 0.427385 -4.90251e-19)
(0.356116 0.420199 -4.64731e-19)
(0.40199 0.400617 -3.34236e-19)
(0.441924 0.377309 2.60164e-19)
(0.477394 0.354155 1.99813e-19)
(0.509305 0.332547 -1.15334e-21)
(0.538231 0.312799 -1.73957e-19)
(0.564575 0.294839 -3.14362e-19)
(0.588651 0.278494 2.82891e-19)
(0.610718 0.263585 -9.74858e-20)
(0.630992 0.249953 -4.8053e-19)
(0.649655 0.237463 3.12149e-19)
(0.666867 0.226005 -2.34463e-19)
(0.682829 0.215462 -9.53154e-20)
(0.697774 0.205699 -2.66889e-19)
(0.711613 0.196679 -2.40924e-19)
(0.723463 0.188713 6.24616e-20)
(0.051437 0.139734 2.21616e-19)
(0.131816 0.295782 1.14391e-19)
(0.207592 0.36504 1.75479e-19)
(0.272605 0.383826 -6.00633e-19)
(0.327486 0.376921 6.42606e-19)
(0.37482 0.359072 2.1298e-21)
(0.416447 0.338014 4.95747e-21)
(0.453581 0.317175 -3.90615e-19)
(0.487035 0.297765 3.64369e-19)
(0.517363 0.280045 -2.53775e-19)
(0.544978 0.263943 7.58385e-20)
(0.570208 0.2493 -3.38763e-19)
(0.59333 0.235953 -1.60966e-19)
(0.614575 0.223758 -7.66056e-20)
(0.634138 0.212594 5.78454e-19)
(0.652191 0.202358 -2.83709e-19)
(0.668935 0.192949 -2.5588e-19)
(0.684589 0.18425 2.62492e-19)
(0.699102 0.176217 -2.15416e-19)
(0.711779 0.169071 1.67889e-19)
(0.0415299 0.123745 4.74159e-19)
(0.111218 0.261209 -2.86454e-19)
(0.182519 0.321735 4.274e-20)
(0.246453 0.3378 5.00744e-19)
(0.301954 0.331383 1.99079e-19)
(0.350622 0.315478 2.46276e-19)
(0.393776 0.296853 2.45033e-19)
(0.432404 0.27848 5.19067e-19)
(0.467239 0.261395 -1.1876e-19)
(0.498822 0.245812 2.83662e-19)
(0.527574 0.231662 4.11543e-19)
(0.553839 0.218802 1.51408e-19)
(0.577906 0.207087 2.73717e-19)
(0.600019 0.196389 9.91488e-20)
(0.620387 0.186601 5.79904e-20)
(0.639191 0.177633 -4.21777e-20)
(0.656629 0.169395 3.38022e-19)
(0.672912 0.161789 2.07964e-19)
(0.688027 0.154766 -1.89217e-19)
(0.70145 0.148479 1.78425e-19)
(0.0327985 0.106648 -3.15349e-19)
(0.093148 0.224588 3.52219e-20)
(0.16059 0.276166 -9.09731e-20)
(0.223632 0.289599 -2.76579e-19)
(0.279711 0.283852 -1.4603e-19)
(0.329564 0.270076 -2.65793e-19)
(0.374061 0.254043 1.23837e-19)
(0.413998 0.238269 -4.77286e-19)
(0.45004 0.22362 2.81818e-19)
(0.48272 0.210271 -3.89206e-19)
(0.512466 0.198156 -2.41277e-19)
(0.539634 0.187149 -3.19e-19)
(0.564526 0.177128 7.30403e-20)
(0.587398 0.167981 -7.20837e-20)
(0.608468 0.159617 8.56853e-20)
(0.627926 0.151956 4.5994e-20)
(0.645968 0.144923 9.13356e-20)
(0.662796 0.138437 -7.66299e-19)
(0.678435 0.132449 3.81056e-19)
(0.692515 0.127056 -2.28552e-19)
(0.0253518 0.0885942 1.04563e-19)
(0.077795 0.186205 2.10983e-19)
(0.142005 0.228652 -1.37555e-19)
(0.204327 0.23953 3.39825e-19)
(0.260921 0.23461 -5.41873e-20)
(0.311791 0.223121 3.92875e-19)
(0.357432 0.209816 7.61007e-20)
(0.398478 0.196754 -7.95116e-20)
(0.435543 0.184638 2.8958e-19)
(0.469152 0.173603 2.20933e-19)
(0.499739 0.163592 8.1934e-20)
(0.527672 0.154502 1.07525e-19)
(0.553263 0.146228 5.38245e-20)
(0.576776 0.138679 -2.28508e-19)
(0.59844 0.131778 -3.16544e-20)
(0.61845 0.12546 2.37906e-19)
(0.637002 0.119663 -1.62568e-19)
(0.654287 0.114321 -7.77309e-21)
(0.670369 0.109389 -3.39426e-19)
(0.685009 0.104926 6.83359e-19)
(0.0192819 0.0697442 2.80995e-19)
(0.0653187 0.146358 -3.36833e-19)
(0.126933 0.179525 1.58121e-19)
(0.188696 0.187915 -2.23222e-19)
(0.245722 0.183952 1.97129e-19)
(0.297425 0.17488 -3.41807e-19)
(0.343997 0.164415 -2.50139e-19)
(0.385943 0.154159 1.87001e-20)
(0.423838 0.144653 -3.40296e-19)
(0.458199 0.136 -2.12132e-19)
(0.489468 0.128153 -3.66699e-19)
(0.518021 0.121029 -1.20786e-20)
(0.544177 0.114547 -1.42063e-19)
(0.56821 0.108634 3.59569e-19)
(0.590354 0.103231 2.47366e-19)
(0.610811 0.0982852 -8.31871e-20)
(0.629773 0.0937496 -7.50917e-20)
(0.647427 0.0895732 -3.4048e-21)
(0.663869 0.0857164 9.30299e-21)
(0.678966 0.0822126 1.35186e-19)
(0.0146635 0.0502666 -7.03027e-20)
(0.0558481 0.105362 -2.40653e-19)
(0.115509 0.129132 -1.49984e-19)
(0.176862 0.135086 -9.38139e-20)
(0.234226 0.132182 -1.94266e-19)
(0.286565 0.125628 3.32639e-19)
(0.333844 0.118091 -3.57793e-20)
(0.376473 0.110713 -7.99969e-20)
(0.414996 0.10388 3.22991e-21)
(0.449926 0.0976615 2.34467e-19)
(0.481712 0.0920236 -2.22554e-19)
(0.510734 0.0869064 2.17498e-19)
(0.537319 0.0822513 1.01935e-19)
(0.561745 0.0780064 -1.85673e-19)
(0.584253 0.0741276 4.05867e-20)
(0.605048 0.0705779 1.19094e-19)
(0.62432 0.0673237 4.13034e-20)
(0.642252 0.064329 -2.88909e-20)
(0.658966 0.0615631 -2.49858e-19)
(0.67441 0.0590428 1.98908e-19)
(0.0115531 0.030336 6.34707e-20)
(0.0494804 0.0635367 7.69637e-20)
(0.107837 0.0778284 2.16317e-20)
(0.168921 0.0813836 -1.62691e-20)
(0.226516 0.0796114 4.64623e-20)
(0.279285 0.0756503 7.0982e-20)
(0.327039 0.0711031 2.69143e-20)
(0.370127 0.066656 3.28247e-20)
(0.409071 0.0625388 -6.95826e-20)
(0.444384 0.0587931 1.30393e-19)
(0.476516 0.0553976 -3.07659e-20)
(0.505853 0.0523162 -2.47386e-21)
(0.532726 0.0495134 3.11657e-20)
(0.557416 0.0469579 3.51249e-20)
(0.580168 0.0446232 -9.42241e-20)
(0.601189 0.0424869 6.20575e-20)
(0.620669 0.0405289 4.06444e-20)
(0.638787 0.0387277 3.46809e-20)
(0.655684 0.0370639 7.42113e-20)
(0.671362 0.0355451 3.06799e-20)
(0.0099887 0.0101319 -1.29999e-20)
(0.0462809 0.0212116 2.70119e-20)
(0.103985 0.0259748 -3.7778e-20)
(0.164936 0.0271548 2.3737e-20)
(0.222648 0.0265587 1.39136e-20)
(0.275633 0.0252339 6.22496e-21)
(0.323627 0.0237148 1.47023e-20)
(0.366944 0.0222299 -4.2125e-20)
(0.406101 0.0208555 2.68639e-20)
(0.441606 0.0196053 9.39198e-21)
(0.473912 0.0184721 -5.34039e-22)
(0.503407 0.0174438 5.74922e-20)
(0.530423 0.0165086 -1.74598e-20)
(0.555246 0.015656 -1.67002e-20)
(0.57812 0.0148771 -1.60228e-20)
(0.599255 0.0141645 2.4871e-21)
(0.618839 0.0135115 -2.1358e-20)
(0.637051 0.0129109 4.09073e-21)
(0.65404 0.0123562 8.01545e-22)
(0.669836 0.0118493 -2.70695e-21)
(0.00998932 -0.0101636 8.25528e-21)
(0.0462822 -0.0212804 -4.39309e-20)
(0.103986 -0.0260623 5.23467e-20)
(0.164937 -0.0272498 -3.93286e-20)
(0.22265 -0.0266551 -1.83335e-20)
(0.275635 -0.0253288 5.48881e-20)
(0.323628 -0.0238072 4.5652e-21)
(0.366946 -0.0223195 1.26009e-21)
(0.406102 -0.0209422 2.55588e-20)
(0.441607 -0.0196893 1.31911e-20)
(0.473913 -0.0185536 -1.04417e-20)
(0.503408 -0.0175229 -3.65289e-20)
(0.530425 -0.0165854 3.49839e-21)
(0.555248 -0.0157306 -3.15941e-21)
(0.578122 -0.0149497 3.39719e-20)
(0.599256 -0.0142351 -2.04267e-20)
(0.61884 -0.0135802 2.79703e-20)
(0.637052 -0.0129778 -4.1911e-20)
(0.654041 -0.0124214 4.9125e-23)
(0.669837 -0.0119129 -8.80567e-21)
(0.011555 -0.0303677 -2.74225e-20)
(0.0494843 -0.0636053 1.38277e-19)
(0.107842 -0.0779158 9.31258e-20)
(0.168926 -0.0814785 6.15773e-20)
(0.226522 -0.0797076 7.68017e-20)
(0.27929 -0.0757451 -1.87216e-20)
(0.327045 -0.0711954 8.50034e-20)
(0.370132 -0.0667455 1.7336e-20)
(0.409076 -0.0626254 -7.66256e-21)
(0.444389 -0.0588771 -6.05827e-20)
(0.476521 -0.055479 6.27174e-20)
(0.505858 -0.0523952 -8.51018e-20)
(0.53273 -0.0495901 6.17691e-20)
(0.55742 -0.0470325 7.06659e-20)
(0.580172 -0.0446957 9.33286e-20)
(0.601193 -0.0425574 -6.13974e-20)
(0.620672 -0.0405975 1.72409e-20)
(0.638791 -0.0387945 6.4556e-20)
(0.655688 -0.0371291 -6.1057e-20)
(0.671366 -0.0356087 4.60312e-20)
(0.0146666 -0.0502981 -2.6491e-19)
(0.0558546 -0.10543 -1.32948e-19)
(0.115518 -0.12922 -1.47811e-19)
(0.176871 -0.135181 -1.16255e-20)
(0.234235 -0.132278 -7.96739e-20)
(0.286574 -0.125723 -9.76185e-20)
(0.333853 -0.118183 1.72324e-19)
(0.376481 -0.110802 8.76807e-20)
(0.415004 -0.103966 1.07767e-19)
(0.449934 -0.0977452 -1.17194e-19)
(0.48172 -0.0921047 8.67438e-20)
(0.510741 -0.0869852 1.05603e-19)
(0.537326 -0.0823278 3.71642e-20)
(0.561752 -0.0780806 -3.53276e-20)
(0.58426 -0.0741998 7.5014e-21)
(0.605054 -0.0706482 -1.5298e-20)
(0.624326 -0.0673921 -1.48724e-19)
(0.642258 -0.0643956 2.31459e-20)
(0.658972 -0.061628 1.44233e-19)
(0.674416 -0.0591062 -1.93695e-19)
(0.0192863 -0.0697755 -8.69349e-20)
(0.0653279 -0.146426 1.29186e-19)
(0.126944 -0.179612 2.98073e-20)
(0.188708 -0.188009 -5.5633e-20)
(0.245735 -0.184048 -1.57379e-19)
(0.297438 -0.174974 -3.36949e-19)
(0.34401 -0.164506 -3.20367e-19)
(0.385955 -0.154247 -2.28907e-20)
(0.423849 -0.144739 -1.85958e-19)
(0.45821 -0.136083 -2.77853e-19)
(0.489479 -0.128234 2.15245e-19)
(0.518031 -0.121107 -3.17393e-19)
(0.544187 -0.114623 6.27141e-20)
(0.56822 -0.108708 -2.02998e-20)
(0.590364 -0.103303 -6.61726e-20)
(0.610821 -0.0983552 -8.34318e-20)
(0.629783 -0.0938177 1.35561e-19)
(0.647436 -0.0896396 1.08106e-19)
(0.663878 -0.085781 1.85577e-19)
(0.678974 -0.0822756 -2.77771e-19)
(0.0253574 -0.0886251 4.72375e-20)
(0.0778067 -0.186272 4.57937e-19)
(0.14202 -0.228738 1.30984e-19)
(0.204343 -0.239623 3.1663e-19)
(0.260937 -0.234705 -1.18273e-19)
(0.311807 -0.223214 1.81855e-19)
(0.357448 -0.209907 -5.69267e-20)
(0.398493 -0.196842 3.68132e-19)
(0.435558 -0.184723 -1.89195e-19)
(0.469166 -0.173686 2.22889e-19)
(0.499753 -0.163673 1.93292e-19)
(0.527686 -0.15458 2.06268e-19)
(0.553276 -0.146303 -1.84451e-19)
(0.576789 -0.138752 1.57944e-19)
(0.598452 -0.131849 -2.19569e-19)
(0.618462 -0.125529 -6.02387e-20)
(0.637014 -0.11973 -1.44033e-19)
(0.654298 -0.114387 -6.10746e-20)
(0.67038 -0.109453 2.42197e-19)
(0.68502 -0.104989 -4.00892e-19)
(0.0328052 -0.106678 -1.89019e-19)
(0.0931623 -0.224655 -2.24448e-20)
(0.160608 -0.276252 -7.52476e-20)
(0.223651 -0.289691 -2.64755e-19)
(0.279731 -0.283946 4.53023e-20)
(0.329583 -0.270169 -4.13931e-19)
(0.374081 -0.254133 -1.73508e-19)
(0.414016 -0.238356 -1.3357e-20)
(0.450058 -0.223705 -4.36055e-19)
(0.482737 -0.210353 -1.35e-19)
(0.512483 -0.198235 -6.15947e-20)