1.275 	2.15223e-18 	-2.76991e-20 	-0.145659 	0.00544643 	-2.64569e-22
1.825 	2.15223e-18 	-1.39322e-20 	-0.276052 	0.00880943 	3.60843e-21
2.375 	2.15223e-18 	1.38775e-18 	-0.406871 	0.0107673 	-1.86531e-21
2.925 	2.15223e-18 	2.78958e-18 	-0.474544 	-0.00210125 	1.90969e-22
3.475 	2.15223e-18 	4.53849e-18 	-0.335508 	-0.0133534 	-1.0036e-21
4.025 	2.15223e-18 	6.28755e-18 	-0.280716 	-0.015045 	-8.12483e-23
4.575 	2.15223e-18 	6.30203e-18 	-0.126412 	-0.0115335 	1.12834e-21
5.125 	2.15223e-18 	6.31666e-18 	-0.0468898 	-0.00353182 	-6.83042e-22
5.675 	2.15223e-18 	6.33144e-18 	0.0729904 	0.00266693 	-6.22214e-23
6.225 	2.15223e-18 	4.61166e-18 	0.162596 	0.00639319 	-3.01772e-23
