/*--------------------------------*- C++ -*----------------------------------*\
  =========                 |
  \\      /  F ield         | OpenFOAM: The Open Source CFD Toolbox
   \\    /   O peration     | Website:  https://openfoam.org
    \\  /    A nd           | Version:  6.0
     \\/     M anipulation  |
\*---------------------------------------------------------------------------*/
FoamFile
{
    version     2.0;
    format      ascii;
    class       volVectorField;
    location    "74";
    object      U;
}
// * * * * * * * * * * * * * * * * * * * * * * * * * * * * * * * * * * * * * //

dimensions      [0 1 -1 0 0 0 0];

internalField   nonuniform List<vector> 
12500
(
(0.000740879 -0.0551484 -1.15721e-21)
(0.000962863 -0.135293 1.48115e-20)
(-0.000882489 -0.191526 -2.13461e-20)
(-0.00445115 -0.228653 9.76711e-21)
(-0.00934009 -0.250889 6.18602e-22)
(-0.0151499 -0.261855 -1.26202e-21)
(-0.0214876 -0.264533 -1.7703e-20)
(-0.0280018 -0.261276 9.73059e-21)
(-0.0343974 -0.253864 6.35782e-21)
(-0.0404341 -0.243581 6.51892e-21)
(-0.0459208 -0.231308 -1.10361e-20)
(-0.0507087 -0.217605 6.44516e-21)
(-0.0546854 -0.202792 -3.03865e-21)
(-0.057771 -0.187027 5.13276e-21)
(-0.0599158 -0.170356 -1.31863e-20)
(-0.0611003 -0.152768 1.92937e-20)
(-0.061336 -0.134231 -3.75149e-21)
(-0.0606668 -0.114722 -1.35577e-20)
(-0.0591718 -0.0942477 6.8498e-21)
(-0.0569624 -0.0728636 -6.57309e-21)
(-0.0541598 -0.050678 5.96023e-21)
(-0.0508997 -0.0278553 8.07156e-21)
(-0.0475542 -0.00461241 7.81259e-22)
(-0.0448653 0.0188058 -2.28613e-20)
(-0.0416348 0.0422148 1.20021e-20)
(0.0022979 -0.0544968 1.90196e-20)
(0.00437862 -0.133148 -4.95134e-20)
(0.00323181 -0.187934 1.47512e-20)
(-0.000351072 -0.223803 9.72894e-21)
(-0.00569392 -0.245055 -7.78356e-21)
(-0.0122213 -0.255346 -4.37621e-20)
(-0.0194166 -0.257656 1.30509e-20)
(-0.0268473 -0.254318 -2.44364e-20)
(-0.0341692 -0.247084 2.93586e-20)
(-0.0411148 -0.23721 -3.92442e-20)
(-0.0474808 -0.225548 2.11551e-20)
(-0.0531149 -0.212633 6.60885e-21)
(-0.0579067 -0.198763 -1.72148e-20)
(-0.0617804 -0.184068 -7.82731e-21)
(-0.0646915 -0.168567 5.58443e-20)
(-0.0666257 -0.152214 -4.94098e-20)
(-0.0675996 -0.134936 1.164e-20)
(-0.0676624 -0.116661 2.04408e-20)
(-0.0668995 -0.0973434 -5.12042e-21)
(-0.0654303 -0.0769796 3.36546e-20)
(-0.0633872 -0.0556195 5.94252e-21)
(-0.0609217 -0.0333742 -1.65725e-21)
(-0.0584133 -0.0104244 -4.19736e-20)
(-0.0565808 0.0129981 3.90531e-20)
(-0.0543014 0.0367508 -7.3411e-20)
(0.00379635 -0.0534901 5.98157e-20)
(0.0076435 -0.130216 2.02466e-20)
(0.00715287 -0.183342 -2.58674e-20)
(0.00355757 -0.217885 1.0866e-20)
(-0.00219806 -0.238178 1.07376e-20)
(-0.00936741 -0.247872 3.98519e-20)
(-0.0173155 -0.249919 -5.0272e-20)
(-0.0255337 -0.246612 -7.71475e-21)
(-0.0336326 -0.239664 -3.34276e-20)
(-0.0413213 -0.230297 -2.80582e-20)
(-0.0483871 -0.219332 3.69251e-20)
(-0.0546774 -0.207281 -1.22101e-19)
(-0.0600864 -0.194418 -3.4225e-21)
(-0.0645454 -0.180853 -7.31291e-20)
(-0.0680175 -0.166577 -8.62043e-21)
(-0.0704956 -0.151514 1.07279e-20)
(-0.0720024 -0.13555 -5.66098e-20)
(-0.0725927 -0.118566 -3.53892e-20)
(-0.0723572 -0.10046 -4.23598e-20)
(-0.0714207 -0.0811665 6.67796e-20)
(-0.0699242 -0.0606701 2.48236e-20)
(-0.0680308 -0.0390208 -1.0666e-19)
(-0.066121 -0.0163548 -5.18156e-20)
(-0.0648891 0.0071162 -5.70799e-20)
(-0.0633177 0.0312853 1.5575e-19)
(0.00520763 -0.0521481 -2.647e-21)
(0.0106938 -0.126551 -4.61563e-20)
(0.0107964 -0.177827 -2.08698e-20)
(0.007178 -0.210995 1.26935e-20)
(0.00104193 -0.230367 8.40072e-20)
(-0.00670156 -0.239551 -3.85056e-20)
(-0.015306 -0.241444 8.0732e-20)
(-0.0241917 -0.238282 7.63329e-20)
(-0.0329283 -0.231728 4.68015e-20)
(-0.0412048 -0.222964 -1.07074e-21)
(-0.0488015 -0.212778 9.41877e-20)
(-0.0555679 -0.201658 1.60591e-20)
(-0.0614052 -0.18986 7.17182e-20)
(-0.066254 -0.177472 1.64166e-19)
(-0.0700873 -0.164466 -1.90393e-19)
(-0.0729074 -0.150735 2.85661e-19)
(-0.0747452 -0.136131 6.22263e-20)
(-0.075662 -0.120489 -1.35659e-19)
(-0.0757538 -0.103652 -1.98548e-20)
(-0.0751503 -0.0854904 5.06195e-20)
(-0.0739989 -0.0659194 -2.42009e-20)
(-0.0724712 -0.0449209 -1.35438e-20)
(-0.0709426 -0.0225751 -1.37355e-20)
(-0.0700826 0.000938945 -5.68349e-20)
(-0.0690033 0.0255507 2.02949e-19)
(0.00650462 -0.0504915 2.97583e-20)
(0.0134687 -0.122206 -1.40467e-19)
(0.0140807 -0.17147 1.69342e-19)
(0.0104147 -0.20323 -6.79898e-20)
(0.00391991 -0.221727 8.00219e-20)
(-0.00433983 -0.230494 6.43871e-20)
(-0.0135145 -0.232344 2.44282e-20)
(-0.0229595 -0.229442 -1.57898e-22)
(-0.0322077 -0.223391 1.38299e-19)
(-0.0409304 -0.215325 9.49164e-20)
(-0.0489033 -0.205999 -3.96853e-20)
(-0.0559794 -0.195876 -2.53607e-20)
(-0.0620683 -0.185194 1.03342e-19)
(-0.0671217 -0.174026 1.96983e-20)
(-0.0711246 -0.162323 5.18074e-20)
(-0.0740909 -0.149958 1.26437e-19)
(-0.0760619 -0.13675 -1.11427e-19)
(-0.0771078 -0.122495 9.09163e-20)
(-0.0773315 -0.106981 -1.90674e-19)
(-0.0768687 -0.0900179 1.60139e-19)
(-0.0758736 -0.0714497 6.39129e-22)
(-0.0745255 -0.0511842 -1.25223e-19)
(-0.0731901 -0.0292345 5.25719e-20)
(-0.0725121 -0.00572998 1.16347e-19)
(-0.071756 0.019303 -1.70552e-19)
(0.00766176 -0.0485409 1.50922e-19)
(0.015911 -0.117235 -1.60343e-19)
(0.0169282 -0.164344 -2.72992e-20)
(0.0131761 -0.194677 3.1816e-20)
(0.00633313 -0.212356 -7.09112e-20)
(-0.00239562 -0.2208 -1.11417e-19)
(-0.0120661 -0.222722 -9.17109e-20)
(-0.0219754 -0.220196 -2.22376e-20)
(-0.0316239 -0.214757 -1.5924e-19)
(-0.0406678 -0.207485 1.22653e-19)
(-0.0488793 -0.199101 -1.95016e-19)
(-0.0561156 -0.190042 9.6875e-20)
(-0.0622956 -0.180528 -3.4704e-20)
(-0.0673829 -0.170618 7.5646e-20)
(-0.0713758 -0.160251 -1.8939e-19)
(-0.0743015 -0.149279 8.87044e-20)
(-0.0762143 -0.137497 5.16425e-21)
(-0.0771963 -0.124663 4.03429e-20)
(-0.0773606 -0.11052 2.42066e-19)
(-0.0768518 -0.0948192 5.10357e-20)
(-0.0758347 -0.0773346 -6.64792e-21)
(-0.0744981 -0.0578974 1.47055e-20)
(-0.0731971 -0.0364439 9.99676e-20)
(-0.0725507 -0.0130359 2.68539e-20)
(-0.0720023 0.012356 9.00878e-20)
(0.00865492 -0.0463162 -9.43023e-20)
(0.0179674 -0.111687 1.33706e-19)
(0.0192668 -0.15652 7.89175e-21)
(0.0153776 -0.185419 -1.62433e-19)
(0.00818692 -0.202341 3.37116e-19)
(-0.000973569 -0.210561 -1.10196e-19)
(-0.0110766 -0.212666 1.58492e-19)
(-0.0213686 -0.210633 1.46195e-19)
(-0.0313216 -0.205915 -1.21201e-19)
(-0.0405792 -0.199536 -1.75666e-19)
(-0.048911 -0.192179 4.76023e-20)
(-0.0561785 -0.184254 -4.9803e-20)
(-0.0623094 -0.175964 -2.22602e-19)
(-0.067279 -0.167357 2.66925e-19)
(-0.071099 -0.158358 -1.27717e-19)
(-0.0738111 -0.148806 -8.86261e-20)
(-0.0754846 -0.138475 -1.39097e-21)
(-0.0762163 -0.127092 6.88324e-20)
(-0.0761337 -0.11436 2.95842e-20)
(-0.0753958 -0.0999757 -1.15873e-19)
(-0.0741836 -0.0836478 1.2657e-19)
(-0.0727015 -0.0651314 -2.26213e-19)
(-0.0712954 -0.0442787 1.35468e-19)
(-0.0705593 -0.0210681 -1.05886e-19)
(-0.0701462 0.00459526 2.90838e-20)
(0.00946153 -0.0438368 1.30507e-19)
(0.019589 -0.105613 -1.00661e-19)
(0.0210324 -0.148066 -6.47313e-20)
(0.0169452 -0.175532 -1.13379e-19)
(0.00939982 -0.191759 -2.08415e-19)
(-0.00016267 -0.199851 -1.54685e-19)
(-0.0106443 -0.202252 9.43631e-20)
(-0.0212487 -0.200824 -1.4359e-19)
(-0.031425 -0.196935 1.82954e-19)
(-0.0408062 -0.191549 -2.96865e-19)
(-0.0491601 -0.185306 1.3145e-19)
(-0.056352 -0.178591 2.77927e-19)
(-0.0623168 -0.171589 -3.8868e-19)
(-0.0670403 -0.164336 5.49171e-20)
(-0.0705465 -0.156748 7.08123e-20)
(-0.0728914 -0.148651 6.96815e-20)
(-0.0741598 -0.1398 -7.64643e-20)
(-0.0744658 -0.129899 -2.07577e-20)
(-0.0739551 -0.118613 -5.23653e-20)
(-0.0728069 -0.10559 -4.60671e-20)
(-0.0712265 -0.0904782 -2.41419e-19)
(-0.0694426 -0.0729595 -1.50989e-20)
(-0.0677975 -0.0527989 1.61688e-21)
(-0.0668606 -0.0298785 -1.09456e-19)
(-0.0665295 -0.00403609 1.09217e-19)
(0.0100608 -0.0411216 2.74834e-21)
(0.020733 -0.0990575 4.13537e-20)
(0.0221709 -0.139043 4.1869e-20)
(0.0178195 -0.165085 2.61167e-20)
(0.00990925 -0.18068 2.08095e-19)
(-2.89497e-05 -0.188735 1.93855e-19)
(-0.0108403 -0.191536 -1.58574e-19)
(-0.021695 -0.19082 -4.61964e-20)
(-0.0320245 -0.187864 -4.23559e-20)
(-0.0414542 -0.183569 2.19279e-19)
(-0.0497504 -0.178529 7.70143e-20)
(-0.0567812 -0.173103 -1.14921e-19)
(-0.0624873 -0.167461 -9.52513e-20)
(-0.0668621 -0.161624 2.30232e-19)
(-0.0699398 -0.155502 -5.64343e-20)
(-0.0717883 -0.148908 -6.71252e-20)
(-0.0725073 -0.141582 -9.43293e-20)
(-0.0722287 -0.133203 -7.20946e-20)
(-0.0711191 -0.123403 -9.04693e-20)
(-0.069383 -0.111785 -5.9357e-20)
(-0.067258 -0.0979402 2.46179e-19)
(-0.0650085 -0.081479 -1.19088e-19)
(-0.0629809 -0.0620786 7.98459e-20)
(-0.0617214 -0.0395168 -2.09301e-19)
(-0.0614095 -0.0135736 8.71522e-20)
(0.0104341 -0.0381906 -1.13382e-19)
(0.0213634 -0.0920701 -2.85103e-20)
(0.0226413 -0.129516 -2.30662e-19)
(0.0179601 -0.154143 -1.09165e-19)
(0.00967731 -0.169165 -2.18178e-19)
(-0.000608002 -0.177267 -2.28556e-20)
(-0.0116995 -0.180561 1.16898e-19)
(-0.0227444 -0.180653 -6.93061e-20)
(-0.0331625 -0.178724 1.5251e-19)
(-0.0425747 -0.175608 -3.68513e-19)
(-0.0507469 -0.171858 -9.84676e-21)
(-0.057549 -0.167802 6.5012e-20)
(-0.0629251 -0.163594 -8.23478e-20)
(-0.0668736 -0.159247 7.40559e-20)
(-0.0694348 -0.154659 -5.5237e-20)
(-0.0706854 -0.149636 -1.17603e-19)
(-0.0707367 -0.143899 2.14345e-19)
(-0.0697366 -0.137104 1.31147e-19)
(-0.0678732 -0.128851 -2.69883e-20)
(-0.065379 -0.118694 8.34302e-20)
(-0.0625309 -0.10617 -1.65212e-19)
(-0.0596397 -0.0908193 2.36427e-19)
(-0.0570664 -0.0722286 -3.222e-19)
(-0.0553373 -0.0500657 6.81624e-20)
(-0.0549484 -0.0240747 -1.20794e-19)
(0.0105659 -0.0350661 5.78485e-21)
(0.021454 -0.0847023 -9.50992e-20)
(0.0224191 -0.119547 1.46787e-19)
(0.0173499 -0.142773 2.99853e-19)
(0.00869629 -0.157272 -3.49767e-21)
(-0.00189806 -0.165491 3.37039e-20)
(-0.0132121 -0.169355 -1.26818e-19)
(-0.0243809 -0.170333 6.11293e-20)
(-0.0348199 -0.169509 4.08693e-19)
(-0.0441491 -0.167648 -9.30621e-20)
(-0.0521353 -0.165259 -1.07908e-19)
(-0.05865 -0.162646 4.0939e-19)
(-0.0636386 -0.159945 1.30405e-19)
(-0.0671012 -0.157163 6.19074e-20)
(-0.0690804 -0.154189 6.15312e-20)
(-0.0696566 -0.150818 1.71592e-19)
(-0.0689482 -0.146759 -6.60418e-20)
(-0.0671147 -0.14164 1.67356e-19)
(-0.0643627 -0.135025 2.25876e-19)
(-0.060953 -0.126419 -1.93979e-19)
(-0.0572055 -0.115296 2.83006e-19)
(-0.053486 -0.101124 9.53707e-20)
(-0.0501815 -0.0833927 -3.70608e-19)
(-0.0478048 -0.0616539 5.28177e-19)
(-0.0471986 -0.0356445 -4.22825e-19)
(0.010445 -0.0317746 -2.72411e-19)
(0.0209899 -0.0770121 1.52812e-19)
(0.0214991 -0.109208 -1.01492e-19)
(0.0159987 -0.131042 -9.81145e-20)
(0.00699333 -0.145059 -1.02736e-19)
(-0.00385439 -0.153446 -1.1306e-19)
(-0.0153162 -0.157936 3.17076e-20)
(-0.0265267 -0.159856 2.92752e-19)
(-0.0369045 -0.160189 -6.44608e-20)
(-0.0460732 -0.159635 -1.62927e-19)
(-0.0538027 -0.158659 -9.76735e-20)
(-0.059966 -0.15754 -4.08668e-20)
(-0.0645092 -0.156405 1.12957e-19)
(-0.0674311 -0.155251 -7.51006e-20)
(-0.0687729 -0.153967 -2.4141e-19)
(-0.0686137 -0.15234 -2.61716e-19)
(-0.0670727 -0.150062 1.02983e-19)
(-0.064315 -0.146738 -1.90939e-19)
(-0.0605603 -0.141891 1.57523e-19)
(-0.0560933 -0.13497 -4.51193e-19)
(-0.0512769 -0.125377 3.39966e-19)
(-0.0465372 -0.112495 -4.43326e-19)
(-0.0422981 -0.0957045 -6.27355e-21)
(-0.0390709 -0.0744271 -1.44298e-19)
(-0.0380684 -0.0484212 4.17438e-19)
(0.0100654 -0.0283478 4.14835e-19)
(0.0199707 -0.0690678 6.02114e-20)
(0.0198987 -0.0985786 -3.88411e-20)
(0.0139468 -0.119027 -1.77415e-20)
(0.0046335 -0.132585 3.14582e-19)
(-0.00638576 -0.141171 1.01268e-19)
(-0.0178936 -0.146317 9.06102e-20)
(-0.0290364 -0.149204 -7.38196e-20)
(-0.0392435 -0.150717 2.83076e-19)
(-0.0481471 -0.151487 -1.40897e-19)
(-0.055523 -0.151942 9.11701e-20)
(-0.0612474 -0.152339 2.24243e-19)
(-0.0652664 -0.152794 -1.28581e-19)
(-0.0675767 -0.153307 1.34387e-19)
(-0.068215 -0.153765 1.25649e-19)
(-0.067255 -0.153955 4.37023e-20)
(-0.0648112 -0.153561 -1.03933e-19)
(-0.0610471 -0.152163 2.84543e-19)
(-0.0561873 -0.149243 -2.68126e-20)
(-0.050534 -0.144187 -2.86067e-20)
(-0.044488 -0.136314 3.23106e-19)
(-0.0385365 -0.124902 -2.24563e-19)
(-0.0331502 -0.109198 3.7146e-19)
(-0.0288557 -0.0884684 -3.02313e-19)
(-0.0272575 -0.0625071 3.8111e-19)
(0.00942841 -0.0248243 -1.95267e-19)
(0.0184127 -0.0609494 4.22724e-20)
(0.0176599 -0.087751 -4.36125e-20)
(0.011266 -0.106813 -2.17885e-19)
(0.00172081 -0.11992 1.23462e-20)
(-0.00935401 -0.128711 1.21199e-19)
(-0.0207698 -0.134512 -4.989e-19)
(-0.0316967 -0.138359 3.7014e-19)
(-0.0415824 -0.141036 -3.60526e-19)
(-0.0500728 -0.14311 -2.27761e-19)
(-0.056953 -0.14497 2.0038e-19)
(-0.0621044 -0.146856 -4.30244e-19)
(-0.065475 -0.14888 3.5889e-19)
(-0.0670594 -0.151046 -1.15679e-19)
(-0.0668894 -0.153251 -3.2153e-19)
(-0.0650311 -0.15529 7.91769e-20)
(-0.0615901 -0.156845 -7.56269e-20)
(-0.0567222 -0.157483 2.60389e-20)
(-0.0506489 -0.156649 -9.85304e-20)
(-0.0436805 -0.153666 -3.0455e-19)
(-0.0362475 -0.147755 6.99859e-20)
(-0.0288947 -0.13807 -3.84957e-21)
(-0.022146 -0.123687 -2.84891e-19)
(-0.0165652 -0.103674 1.98005e-19)
(-0.0141732 -0.07785 -1.70114e-19)
(0.00854363 -0.0212502 7.77097e-20)
(0.0163507 -0.0527505 1.42472e-19)
(0.0148503 -0.0768328 2.02327e-19)
(0.00805969 -0.0945034 1.02692e-19)
(-0.00160348 -0.107149 -1.02193e-19)
(-0.0125771 -0.116125 2.42776e-19)
(-0.0237184 -0.122549 1.79672e-19)
(-0.0342321 -0.127312 -6.72971e-20)
(-0.0435916 -0.131097 2.31648e-19)
(-0.0514613 -0.134408 -2.38073e-19)
(-0.0576393 -0.137598 -7.03574e-20)
(-0.0620154 -0.14089 7.07624e-20)
(-0.0645415 -0.144398 1.34352e-19)
(-0.0652133 -0.148135 2.63588e-21)
(-0.0640592 -0.152017 8.18044e-20)
(-0.0611388 -0.155856 1.51857e-19)
(-0.0565482 -0.159351 -2.55478e-19)
(-0.0504323 -0.162069 3.11708e-19)
(-0.0430034 -0.163432 9.65293e-20)
(-0.0345704 -0.162707 2.86368e-20)
(-0.0255832 -0.159018 -3.48783e-19)
(-0.0166361 -0.151373 4.84472e-20)
(-0.00830937 -0.138635 7.4683e-20)
(-0.00122621 -0.119612 -1.66289e-20)
(0.00214197 -0.0940976 8.31804e-20)
(0.00743002 -0.0176784 4.56892e-21)
(0.0138394 -0.0445779 -3.65825e-19)
(0.0115632 -0.0659473 -1.13598e-20)
(0.00446041 -0.0822157 -9.25038e-20)
(-0.0051654 -0.0943722 -6.08555e-19)
(-0.015836 -0.103488 5.2437e-19)
(-0.0264702 -0.110473 -3.72567e-19)
(-0.0363171 -0.116073 -2.06495e-20)
(-0.0448821 -0.120871 -1.743e-19)
(-0.0518524 -0.125309 2.98914e-19)
(-0.0570424 -0.129702 -3.19805e-19)
(-0.0603534 -0.134258 -1.47981e-19)
(-0.0617456 -0.139093 1.14602e-21)
(-0.0612194 -0.144236 -3.10048e-19)
(-0.0588051 -0.149629 4.19746e-19)
(-0.0545604 -0.155115 -4.77159e-19)
(-0.0485756 -0.160423 3.23896e-21)
(-0.0409864 -0.165144 7.09732e-20)
(-0.0319939 -0.168701 -1.69989e-19)
(-0.0218994 -0.17033 1.60021e-19)
(-0.011161 -0.169072 -2.26298e-19)
(-0.000411804 -0.163782 -1.40837e-19)
(0.00971353 -0.153072 2.53376e-19)
(0.0185169 -0.135409 -2.70826e-19)
(0.0230295 -0.11047 4.31678e-22)
(0.00611645 -0.014168 -3.0402e-19)
(0.0109528 -0.0365504 3.51821e-19)
(0.00791462 -0.0552327 -1.09822e-19)
(0.000625377 -0.0700866 2.09964e-19)
(-0.00876538 -0.0817125 2.27272e-19)
(-0.018885 -0.0909008 -2.00002e-19)
(-0.0287274 -0.0983586 -1.29337e-19)
(-0.0375946 -0.104686 -1.56628e-19)
(-0.0450289 -0.110368 1.43431e-19)
(-0.0507439 -0.115781 -1.10195e-20)
(-0.0545731 -0.121203 2.05883e-19)
(-0.0564328 -0.126826 2.00876e-19)
(-0.0562957 -0.132766 -2.35973e-19)
(-0.0541727 -0.139069 4.57194e-19)
(-0.0501029 -0.145706 -2.99091e-19)
(-0.0441506 -0.15256 -4.51854e-20)
(-0.0364094 -0.159408 5.56699e-19)
(-0.027013 -0.165889 -2.5762e-19)
(-0.0161556 -0.171462 1.54352e-19)
(-0.00412937 -0.17537 2.92576e-19)
(0.00860754 -0.176608 -1.88256e-19)
(0.0213955 -0.173899 2.1616e-20)
(0.0335539 -0.165589 -1.23315e-20)
(0.0443099 -0.149714 -6.21645e-20)
(0.0501434 -0.125702 1.2824e-19)
(0.00464131 -0.0107813 6.81473e-20)
(0.00778306 -0.0287943 -2.19081e-19)
(0.00404056 -0.0448392 1.18957e-19)
(-0.00326968 -0.0582685 -2.05382e-21)
(-0.0121874 -0.0693123 9.06584e-20)
(-0.021464 -0.0784902 -1.5541e-19)
(-0.0301803 -0.0863112 8.91361e-20)
(-0.0376979 -0.0932331 2.4251e-19)
(-0.0436 -0.0996436 -7.45702e-21)
(-0.0476291 -0.105852 -1.2129e-19)
(-0.0496406 -0.112096 1.19922e-19)
(-0.0495688 -0.118547 -4.1356e-21)
(-0.0474033 -0.125317 -3.75401e-19)
(-0.043172 -0.132465 1.38574e-19)
(-0.0369317 -0.13999 2.97959e-20)
(-0.0287645 -0.147819 -4.86872e-20)
(-0.0187795 -0.155785 -8.65833e-20)
(-0.00712214 -0.163598 3.37417e-19)
(0.00600893 -0.17079 7.49114e-20)
(0.0203253 -0.17666 -1.67437e-19)
(0.0353727 -0.180218 -1.87341e-20)
(0.0504759 -0.180116 2.07554e-19)
(0.0649238 -0.174454 -9.75471e-20)
(0.0778946 -0.160773 3.77207e-20)
(0.0852762 -0.13809 2.35284e-20)
(0.00305133 -0.00758117 -1.35963e-19)
(0.00443708 -0.021439 1.37199e-19)
(9.12632e-05 -0.0349243 -7.69716e-20)
(-0.00703793 -0.0469262 -2.47083e-19)
(-0.0152088 -0.0573331 -2.28387e-19)
(-0.0233122 -0.0664079 -9.90378e-20)
(-0.0305249 -0.0744704 -8.37463e-20)
(-0.0362737 -0.0818408 -2.4485e-19)
(-0.0401859 -0.0888091 -9.90898e-20)
(-0.0420351 -0.0956174 9.04938e-20)
(-0.041701 -0.102458 -1.27518e-19)
(-0.0391392 -0.109475 -1.32455e-19)
(-0.0343606 -0.116772 -1.22502e-19)
(-0.027417 -0.124412 2.16519e-19)
(-0.0183921 -0.132413 -4.54628e-19)
(-0.00739769 -0.14074 2.50886e-19)
(0.005426 -0.149286 -4.23596e-19)
(0.0199048 -0.157841 -6.21798e-20)
(0.0358184 -0.166035 -2.17225e-19)
(0.0528694 -0.173276 -4.6301e-20)
(0.0706043 -0.178667 -5.86187e-20)
(0.0883407 -0.180884 -1.8322e-19)
(0.105356 -0.177868 -1.40475e-20)
(0.120839 -0.166648 1.00548e-19)
(0.130097 -0.145678 -2.5296e-19)
(0.00139952 -0.00462739 1.15354e-19)
(0.00103247 -0.0146102 1.51603e-19)
(-0.00377453 -0.0256457 5.36026e-19)
(-0.0104891 -0.0362314 -9.35307e-20)
(-0.0176105 -0.04595 2.24059e-19)
(-0.0241801 -0.0548274 5.34335e-19)
(-0.0294783 -0.0630056 -1.45507e-19)
(-0.0330016 -0.0706737 1.96505e-19)
(-0.0344245 -0.0780258 1.13646e-19)
(-0.0335546 -0.085235 2.0546e-19)
(-0.0302982 -0.092445 -3.99332e-20)
(-0.0246358 -0.0997685 2.83283e-20)
(-0.0166049 -0.107289 -6.64236e-20)
(-0.00628753 -0.115063 3.73189e-19)
(0.00619662 -0.123116 4.90116e-20)
(0.0206942 -0.131438 3.30454e-19)
(0.0370192 -0.13997 -8.06536e-20)
(0.0549501 -0.148574 2.85973e-19)
(0.0742249 -0.156992 3.56692e-20)
(0.0945175 -0.164775 1.32976e-19)
(0.115365 -0.171188 -5.24247e-20)
(0.136081 -0.175052 -1.31874e-21)
(0.155948 -0.174303 2.80666e-19)
(0.174259 -0.165538 1.56065e-19)
(0.185855 -0.14654 -6.44358e-20)
(-0.000257589 -0.00197257 -2.79463e-19)
(-0.00230777 -0.00842291 -2.8517e-19)
(-0.00739594 -0.017154 -2.99138e-19)
(-0.0134365 -0.0263543 1.09372e-19)
(-0.0191843 -0.0353438 -2.20489e-19)
(-0.0238388 -0.0439354 -3.29762e-20)
(-0.0267898 -0.0521078 -8.63745e-20)
(-0.0276078 -0.0599269 -3.56436e-19)
(-0.0260182 -0.0674945 -5.48348e-20)
(-0.0218657 -0.0749153 9.01197e-20)
(-0.0150875 -0.0822815 -2.79425e-19)
(-0.00569358 -0.0896682 3.86076e-19)
(0.0062467 -0.0971319 -5.16868e-19)
(0.0206141 -0.104711 1.21645e-19)
(0.0372448 -0.112425 -3.07224e-19)
(0.055934 -0.12027 -2.41974e-19)
(0.0764369 -0.128211 -1.19483e-20)
(0.0984694 -0.136168 -3.19488e-20)
(0.121707 -0.143975 2.9383e-20)
(0.145773 -0.151331 -1.20504e-19)
(0.170179 -0.157707 -7.93816e-20)
(0.194226 -0.162177 9.1173e-20)
(0.217207 -0.162873 -2.4466e-19)
(0.238629 -0.156156 7.57593e-20)
(0.25315 -0.139141 4.68464e-20)
(-0.00186312 0.000341129 -4.94858e-20)
(-0.00546071 -0.00297487 -8.21934e-20)
(-0.0106158 -0.00958406 3.20947e-19)
(-0.0157028 -0.0174547 1.19504e-19)
(-0.0197386 -0.0256914 1.58134e-19)
(-0.0220851 -0.0339213 -2.11027e-19)
(-0.0222457 -0.0419768 7.68186e-22)
(-0.0198696 -0.0498108 -1.69567e-19)
(-0.0147375 -0.0574383 3.13226e-19)
(-0.00673628 -0.0648968 1.01089e-19)
(0.00416059 -0.0722269 1.10889e-19)
(0.0179075 -0.0794624 -4.44872e-19)
(0.0343966 -0.0866269 5.40119e-19)
(0.0534645 -0.0937323 -1.61944e-19)
(0.074896 -0.100778 -1.11871e-19)
(0.0984269 -0.107749 3.29627e-19)
(0.123745 -0.114613 1.40107e-19)
(0.150492 -0.121312 -3.52386e-19)
(0.178266 -0.127742 -1.35744e-19)
(0.20662 -0.133716 4.11773e-19)
(0.235016 -0.138904 -2.9693e-19)
(0.262728 -0.142692 1.74344e-19)
(0.289043 -0.143606 8.5055e-20)
(0.313764 -0.138075 -1.08591e-19)
(0.331863 -0.122664 -9.1734e-20)
(-0.00336309 0.00228466 -1.81055e-19)
(-0.00830889 0.0016595 2.81971e-19)
(-0.0132858 -0.00304728 1.2081e-19)
(-0.0171236 -0.00967232 -1.74596e-19)
(-0.0191004 -0.0171544 -2.79093e-20)
(-0.0187415 -0.0249639 -1.82942e-19)
(-0.0156677 -0.0328062 -7.2556e-20)
(-0.00961154 -0.0405332 8.15427e-20)
(-0.000414879 -0.0480797 -2.10033e-20)
(0.0119865 -0.0554202 1.51354e-19)
(0.0275755 -0.0625445 -1.30358e-19)
(0.046263 -0.0694448 3.59811e-19)
(0.0678949 -0.076109 -4.38693e-19)
(0.0922559 -0.0825174 2.73135e-19)
(0.119073 -0.0886408 3.29111e-19)
(0.148017 -0.0944397 -4.66497e-19)
(0.178703 -0.0998626 -1.3566e-19)
(0.210694 -0.104843 2.26577e-19)
(0.243501 -0.109294 -1.35328e-19)
(0.276588 -0.113084 1.21283e-19)
(0.309345 -0.116016 -2.88598e-19)
(0.340989 -0.117763 5.07931e-20)
(0.37075 -0.117354 1.64256e-19)
(0.398753 -0.11159 -2.45444e-19)
(0.420984 -0.0967127 6.76837e-20)
(-0.00470928 0.00384366 -1.67101e-19)
(-0.0107447 0.00543324 5.24985e-19)
(-0.0152694 0.00237554 1.01379e-19)
(-0.0175486 -0.00311757 -2.73652e-19)
(-0.0171138 -0.00986717 1.96339e-19)
(-0.0136526 -0.0172173 1.00028e-19)
(-0.00690551 -0.0247665 1.58909e-19)
(0.00330582 -0.0322788 -1.06517e-20)
(0.0170711 -0.0396176 -1.69843e-20)
(0.0343972 -0.0466996 -3.469e-20)
(0.0552136 -0.0534676 -1.47661e-19)
(0.079378 -0.0598742 -2.75165e-21)
(0.10668 -0.0658726 3.40063e-19)
(0.136846 -0.0714116 -5.44503e-19)
(0.169537 -0.0764314 3.85977e-19)
(0.204358 -0.0808616 7.78111e-20)
(0.240852 -0.0846187 1.33784e-19)
(0.278507 -0.0876041 -6.0277e-20)
(0.316754 -0.089699 5.58379e-19)
(0.354965 -0.0907557 -3.35007e-19)
(0.392426 -0.090597 2.54217e-19)
(0.428233 -0.089025 5.27855e-20)
(0.461434 -0.0854381 -1.63528e-19)
(0.492281 -0.0770398 1.32255e-19)
(0.518448 -0.0601716 1.79575e-19)
(-0.00586133 0.00501866 -4.83007e-20)
(-0.0126736 0.00832899 -1.84807e-19)
(-0.0164439 0.00663904 -3.1652e-19)
(-0.0168407 0.00213661 -1.80464e-19)
(-0.0136362 -0.00392645 -2.52796e-20)
(-0.00667652 -0.0107973 -7.12e-20)
(0.00417519 -0.0179883 -3.3092e-19)
(0.0190021 -0.0251899 5.52315e-20)
(0.0378167 -0.0322037 -3.69059e-19)
(0.060557 -0.0388961 -2.81378e-20)
(0.0870876 -0.0451684 -3.49688e-19)
(0.1172 -0.050939 -1.22437e-19)
(0.150617 -0.0561319 6.90445e-20)
(0.186993 -0.06067 -3.28044e-19)
(0.225922 -0.064469 3.66352e-21)
(0.266938 -0.0674333 -2.7105e-19)
(0.309528 -0.0694507 1.01037e-19)
(0.353128 -0.0703856 -3.58971e-19)
(0.397133 -0.0700686 -5.6631e-20)
(0.440893 -0.0682805 -6.26688e-21)
(0.483676 -0.0647473 -5.39876e-20)
(0.524552 -0.0591491 -5.58692e-20)
(0.562385 -0.0507653 -3.16694e-20)
(0.596842 -0.0368106 -1.00192e-19)
(0.625864 -0.0147879 -1.82624e-19)
(-0.0067879 0.00582395 8.848e-20)
(-0.014015 0.0103589 2.3447e-19)
(-0.0166995 0.00973598 2.82385e-19)
(-0.0148729 0.00606063 -2.25401e-19)
(-0.00853135 0.000618378 4.19368e-19)
(0.00232439 -0.00576866 -2.27459e-19)
(0.0177061 -0.012547 1.23739e-19)
(0.0375944 -0.0193477 1.9237e-19)
(0.0619129 -0.025922 1.74143e-19)
(0.0905178 -0.0320943 8.42353e-20)
(0.123192 -0.0377325 1.355e-19)
(0.159646 -0.0427291 7.88352e-20)
(0.199516 -0.0469884 5.19128e-19)
(0.242373 -0.0504192 -3.72419e-19)
(0.287729 -0.0529281 4.18281e-19)
(0.335046 -0.0544141 -1.69526e-19)
(0.383754 -0.054762 3.56466e-19)
(0.433266 -0.0538331 -2.15601e-20)
(0.482995 -0.0514504 -7.13582e-20)
(0.532387 -0.0473746 -1.08187e-20)
(0.580937 -0.041274 2.42977e-19)
(0.628222 -0.0326379 -2.24339e-19)
(0.674159 -0.0203037 1.55921e-19)
(0.719388 -0.00183374 1.52496e-19)
(0.76033 0.0195918 2.60223e-20)
(-0.00746656 0.00628531 6.12606e-20)
(-0.0147025 0.011562 -3.34587e-19)
(-0.0159376 0.0116974 -1.21841e-19)
(-0.0115234 0.00867161 1.11737e-19)
(-0.00166279 0.00377167 -3.43178e-19)
(0.0134935 -0.00213573 -6.74982e-20)
(0.0338288 -0.0084502 4.68931e-20)
(0.0592114 -0.0147584 1.849e-19)
(0.0894626 -0.0207724 -4.67526e-19)
(0.124339 -0.026285 3.50887e-20)
(0.163521 -0.0311406 -1.35913e-19)
(0.206615 -0.0352161 -4.05739e-19)
(0.253149 -0.0384089 2.74484e-19)
(0.302589 -0.0406293 1.13372e-20)
(0.354341 -0.0417943 -7.31979e-21)
(0.407779 -0.0418234 2.59343e-19)
(0.462257 -0.040634 -4.51439e-19)
(0.517142 -0.0381367 3.46983e-19)
(0.57184 -0.0342285 -6.74337e-20)
(0.625833 -0.0287874 1.81459e-19)
(0.678721 -0.02167 -3.02891e-19)
(0.730268 -0.0126935 1.59573e-19)
(0.780603 -0.00144473 -2.78791e-19)
(0.830413 0.0128474 2.67662e-19)
(0.87552 0.0264515 -8.69176e-20)
(-0.00788242 0.00643694 4.11328e-19)
(-0.0146803 0.0120003 -6.69969e-20)
(-0.0140668 0.01259 4.95394e-19)
(-0.00667137 0.0100337 2.29788e-19)
(0.00711275 0.00559485 1.86875e-20)
(0.0269877 0.000163527 1.00388e-19)
(0.0527029 -0.00563046 2.44099e-20)
(0.0840024 -0.0113438 4.0774e-19)
(0.120587 -0.0166617 1.30995e-19)
(0.16209 -0.0213569 -1.70332e-20)
(0.208066 -0.0252617 3.61335e-20)
(0.257988 -0.0282502 1.35065e-19)
(0.311249 -0.0302271 1.09977e-19)
(0.367178 -0.0311198 2.28056e-19)
(0.425056 -0.0308739 -2.61315e-19)
(0.484139 -0.0294495 7.56265e-20)
(0.543688 -0.0268179 2.4802e-20)
(0.602997 -0.0229602 1.07996e-19)
(0.661427 -0.0178659 2.76462e-19)
(0.718438 -0.0115351 -1.8492e-19)
(0.773619 -0.00398835 8.18772e-21)
(0.82671 0.00472102 -2.329e-19)
(0.877679 0.0145786 2.07466e-19)
(0.926831 0.0258392 -1.94408e-19)
(0.970559 0.036287 2.40114e-20)
(-0.00802612 0.00631807 -3.43071e-19)
(-0.0139008 0.0117532 2.62624e-19)
(-0.0109984 0.0125119 -4.27845e-19)
(-0.00019167 0.0102554 3.68023e-20)
(0.0179497 0.00620554 3.01664e-19)
(0.0429808 0.00125826 -5.02375e-19)
(0.0745085 -0.00394319 3.98267e-19)
(0.112136 -0.00893975 -6.30702e-19)
(0.15542 -0.0134033 1.25462e-19)
(0.203844 -0.0170994 2.63016e-20)
(0.256804 -0.0198619 2.06911e-19)
(0.313607 -0.0215768 -6.88184e-19)
(0.37348 -0.022171 1.19203e-19)
(0.435591 -0.0216053 1.22896e-19)
(0.499068 -0.0198695 -7.20634e-20)
(0.563039 -0.0169778 -4.34642e-19)
(0.626658 -0.0129665 2.06741e-19)
(0.689144 -0.00789096 3.66611e-19)
(0.749808 -0.00182618 -3.76059e-19)
(0.808086 0.00513144 2.65534e-19)
(0.863551 0.0128559 -3.29865e-19)
(0.915918 0.0211779 2.3423e-19)
(0.96506 0.0299259 -6.00222e-20)
(1.01109 0.039239 3.35324e-19)
(1.05136 0.0481134 -3.71094e-19)
(-0.00789093 0.00596971 4.8958e-20)
(-0.012319 0.0109118 3.85528e-20)
(-0.00664302 0.0115863 9.44284e-20)
(0.00804761 0.00948403 3.38758e-19)
(0.0310146 0.00577302 -1.07479e-20)
(0.0616617 0.00134057 7.57241e-20)
(0.0994394 -0.00317141 3.37196e-19)
(0.143788 -0.0073028 1.35702e-19)
(0.194091 -0.0107268 -4.44745e-20)
(0.249648 -0.0132172 3.77833e-19)
(0.30966 -0.0146255 -4.26421e-19)
(0.373234 -0.0148659 6.50545e-19)
(0.439402 -0.0139045 -2.5537e-19)
(0.507146 -0.0117508 4.5573e-19)
(0.575437 -0.00845158 -1.53236e-19)
(0.64327 -0.0040844 5.48245e-20)
(0.709707 0.00124768 6.56659e-20)
(0.773913 0.00742069 -1.1861e-19)
(0.835185 0.0142928 1.01064e-19)
(0.89297 0.0217055 6.23835e-20)
(0.946875 0.0294809 8.25477e-20)
(0.99666 0.0374161 1.65947e-19)
(1.04222 0.0453098 -1.84169e-20)
(1.08366 0.0532673 -7.38047e-20)
(1.11931 0.0610797 2.01721e-19)
(-0.00746981 0.00543181 -2.8652e-19)
(-0.00988885 0.00957298 3.03858e-20)
(-0.000906636 0.00995452 -5.44993e-19)
(0.0181859 0.00789835 -1.30116e-19)
(0.046483 0.00451025 -2.44098e-19)
(0.0832259 0.000656533 -5.22788e-20)
(0.127689 -0.00303659 -2.61278e-19)
(0.179119 -0.00612368 -1.55843e-19)
(0.236692 -0.00829622 2.0536e-19)
(0.299483 -0.00935419 -3.42395e-19)
(0.36646 -0.00918567 -9.4768e-20)
(0.4365 -0.00775182 2.43165e-21)
(0.508415 -0.00507496 -6.24119e-19)
(0.580997 -0.00122801 2.62516e-19)
(0.653061 0.00367545 -3.76653e-19)
(0.723497 0.00949095 -1.0535e-20)
(0.791313 0.0160524 6.88628e-20)
(0.855669 0.02318 -1.1656e-19)
(0.915904 0.0306871 -9.9039e-20)
(0.971546 0.0383844 4.50173e-20)
(1.02231 0.0460827 4.86838e-20)
(1.06806 0.0535911 -3.16002e-19)
(1.10884 0.0607349 1.77897e-19)
(1.14483 0.0676115 8.26701e-20)
(1.17518 0.0744699 1.72712e-20)
(-0.00675274 0.00474136 2.92835e-19)
(-0.00655947 0.00783514 -3.12225e-19)
(0.00631063 0.00776951 4.38404e-19)
(0.0303679 0.00570002 6.86954e-20)
(0.0645315 0.00266343 -2.09768e-20)
(0.107861 -0.000506554 -1.47034e-19)
(0.159426 -0.00321455 2.2308e-20)
(0.218244 -0.00504754 2.23486e-19)
(0.28324 -0.00573511 -3.07826e-19)
(0.353222 -0.00512465 3.21793e-19)
(0.426891 -0.00316207 -3.35525e-20)
(0.502868 0.000124456 1.69678e-20)
(0.579739 0.00463944 4.09029e-19)
(0.656115 0.0102349 5.36496e-19)
(0.73069 0.0167249 -2.10256e-19)
(0.802296 0.0239004 3.59623e-19)
(0.869947 0.0315422 1.74965e-19)
(0.932871 0.0394324 -1.10374e-19)
(0.990524 0.047363 3.29978e-19)
(1.04258 0.0551424 -1.79072e-20)
(1.08893 0.0625984 -3.02646e-19)
(1.12964 0.0695785 3.09821e-19)
(1.1649 0.0759576 3.86332e-20)
(1.19506 0.0818416 -1.80625e-19)
(1.21988 0.0877055 5.67584e-20)
(-0.0057248 0.00393148 -4.06871e-19)
(-0.00227277 0.00579487 4.25448e-19)
(0.0151141 0.00518986 -2.69837e-19)
(0.0447385 0.00310501 -8.38711e-20)
(0.0853271 0.000500471 -1.88754e-19)
(0.13573 -0.00183516 3.33866e-19)
(0.194773 -0.00335448 -1.93273e-19)
(0.2612 -0.0036976 -8.83015e-20)
(0.333639 -0.00265537 -2.51898e-19)
(0.410592 -0.000146616 7.03185e-21)
(0.490463 0.00380191 -9.81358e-20)
(0.57161 0.00907532 4.6112e-20)
(0.652406 0.0154908 -4.9034e-19)
(0.731319 0.0228181 1.39748e-19)
(0.806976 0.0308005 -1.63639e-19)
(0.878225 0.0391733 -1.2853e-19)
(0.944167 0.0476805 3.93506e-20)
(1.00418 0.0560878 -1.79781e-19)
(1.0579 0.0641908 -7.16894e-20)
(1.10524 0.0718201 2.16206e-19)
(1.14629 0.0788428 8.63198e-20)
(1.18133 0.0851598 -3.67202e-19)
(1.21078 0.0907058 2.62554e-19)
(1.23514 0.0956074 -4.8183e-20)
(1.25457 0.100408 -9.69393e-20)
(-0.00436511 0.00303146 -1.47793e-19)
(0.00303679 0.0035455 -7.90057e-20)
(0.0256116 0.00237549 -1.55736e-20)
(0.0614351 0.000335898 1.16272e-19)
(0.109013 -0.00170035 1.26123e-19)
(0.166949 -0.00300491 1.09492e-19)
(0.233776 -0.00309875 1.36462e-19)
(0.307915 -0.00169951 2.07799e-19)
(0.387651 0.00131435 3.16873e-19)
(0.471148 0.0059265 3.11614e-19)