/*--------------------------------*- C++ -*----------------------------------*\
  =========                 |
  \\      /  F ield         | OpenFOAM: The Open Source CFD Toolbox
   \\    /   O peration     | Website:  https://openfoam.org
    \\  /    A nd           | Version:  6.0
     \\/     M anipulation  |
\*---------------------------------------------------------------------------*/
FoamFile
{
    version     2.0;
    format      ascii;
    class       volVectorField;
    location    "17.8";
    object      U;
}
// * * * * * * * * * * * * * * * * * * * * * * * * * * * * * * * * * * * * * //

dimensions      [0 1 -1 0 0 0 0];

internalField   nonuniform List<vector> 
8000
(
(-0.000527035 0.000650023 -3.6294e-21)
(-0.00285699 0.00160087 1.94005e-20)
(-0.00714404 0.00226208 -2.35973e-20)
(-0.0123983 0.00270384 1.79693e-20)
(-0.0181105 0.00297902 8.75084e-21)
(-0.0239974 0.00312995 -2.62785e-20)
(-0.0298589 0.00319188 -2.32281e-21)
(-0.0355674 0.00319388 -8.24546e-22)
(-0.0410541 0.00315982 -1.36431e-20)
(-0.0462929 0.00310926 -7.3923e-21)
(-0.0512882 0.00305808 5.512e-21)
(-0.0560665 0.00301909 2.09601e-20)
(-0.060669 0.00300233 -1.56781e-21)
(-0.0651461 0.00301536 2.24783e-21)
(-0.0695532 0.00306344 -2.11193e-20)
(-0.0739506 0.00314965 1.30147e-20)
(-0.0783976 0.003275 -1.86532e-20)
(-0.0829157 0.00343929 2.82301e-20)
(-0.0874763 0.003642 -3.16472e-23)
(-0.092334 0.0038768 6.10639e-21)
(-0.000620004 0.0018426 1.20532e-20)
(-0.00307812 0.00455349 -6.16016e-20)
(-0.00743915 0.00644939 -4.25495e-20)
(-0.0127264 0.00772644 -2.88959e-20)
(-0.0184386 0.00853205 -3.7175e-20)
(-0.0242977 0.00898445 8.17866e-21)
(-0.0301077 0.00918266 -4.2916e-20)
(-0.0357438 0.00920893 -9.64062e-21)
(-0.0411393 0.00913125 3.04386e-21)
(-0.0462693 0.00900575 3.20778e-20)
(-0.0511392 0.00887855 -3.49972e-20)
(-0.0557765 0.00878707 4.86859e-20)
(-0.0602231 0.00876098 -3.64626e-20)
(-0.0645307 0.00882287 -4.32463e-20)
(-0.0687559 0.00898868 -5.96096e-20)
(-0.0729607 0.00926787 3.80622e-20)
(-0.0772067 0.00966379 -1.23223e-20)
(-0.0815169 0.0101762 -4.48636e-20)
(-0.0858624 0.0108039 4.2419e-20)
(-0.0905025 0.0115276 -3.15622e-20)
(-0.000802754 0.00301428 1.17841e-19)
(-0.0035136 0.00745541 6.10299e-20)
(-0.00802119 0.0105641 6.86362e-20)
(-0.0133743 0.0126588 5.71183e-21)
(-0.0190871 0.0139795 3.79362e-20)
(-0.024892 0.0147189 4.73451e-20)
(-0.0306008 0.0150385 -8.60499e-20)
(-0.0360944 0.0150728 -4.55694e-20)
(-0.0413099 0.0149334 -5.93559e-20)
(-0.0462251 0.0147126 6.33578e-20)
(-0.0508475 0.0144869 -4.8397e-20)
(-0.0552059 0.0143186 -6.2279e-20)
(-0.0593442 0.0142577 -2.26807e-20)
(-0.0633158 0.014343 2.15456e-20)
(-0.0671803 0.014602 -5.99795e-21)
(-0.0710031 0.0150519 8.63371e-21)
(-0.07485 0.0156995 1.00034e-19)
(-0.0787477 0.0165455 -1.40302e-20)
(-0.0826666 0.017589 -1.01732e-19)
(-0.0868759 0.0187972 1.34239e-19)
(-0.00107284 0.00415253 4.10101e-20)
(-0.00415853 0.0102756 -5.79141e-20)
(-0.00888499 0.014561 -1.45286e-20)
(-0.0143377 0.0174446 2.71683e-20)
(-0.0200533 0.0192553 7.71359e-20)
(-0.02578 0.020258 1.6888e-19)
(-0.0313411 0.0206748 1.65025e-19)
(-0.0366261 0.020691 1.37144e-20)
(-0.041578 0.0204605 1.01206e-19)
(-0.0461784 0.0201113 1.54917e-19)
(-0.0504374 0.0197499 -1.23796e-19)
(-0.0543861 0.0194644 1.83213e-19)
(-0.0580706 0.0193262 -4.15055e-20)
(-0.0615474 0.0193915 1.04608e-20)
(-0.0648797 0.0197019 4.33491e-20)
(-0.0681382 0.0202843 5.76212e-20)
(-0.0713954 0.021151 -9.06631e-20)
(-0.0746836 0.0223056 -7.56958e-20)
(-0.0779738 0.0237491 -1.34006e-19)
(-0.0815499 0.0254347 1.95197e-19)
(-0.00142687 0.00524653 -2.14247e-20)
(-0.0050058 0.0129862 -2.19321e-19)
(-0.0100225 0.0183995 -6.48729e-20)
(-0.015609 0.0220324 -1.58087e-19)
(-0.0213315 0.0242992 5.97605e-20)
(-0.0269587 0.0255336 -9.42465e-20)
(-0.0323298 0.0260155 3.2419e-20)
(-0.0373457 0.0259788 -1.99627e-19)
(-0.0419568 0.0256179 1.0532e-19)
(-0.0461501 0.0250955 -1.25597e-19)
(-0.0499389 0.024548 -1.11703e-19)
(-0.0533568 0.0240895 -1.25088e-19)
(-0.0564525 0.0238142 1.13552e-19)
(-0.0592859 0.0237982 -1.01969e-19)
(-0.0619251 0.0240997 1.41992e-19)
(-0.0644474 0.0247587 4.10509e-20)
(-0.0669345 0.0257963 1.01631e-19)
(-0.0694272 0.0272221 4.46288e-20)
(-0.071899 0.0290426 -1.76666e-19)
(-0.074655 0.0311957 2.87629e-19)
(-0.00186073 0.00628749 9.44719e-20)
(-0.0060462 0.0155637 7.25918e-21)
(-0.0114224 0.0220437 3.89152e-20)
(-0.0171765 0.0263771 1.35779e-19)
(-0.0229107 0.0290584 -2.07793e-20)
(-0.0284195 0.0304863 2.20494e-19)
(-0.0335621 0.0309954 9.78727e-20)
(-0.0382536 0.0308646 8.22829e-21)
(-0.0424543 0.0303267 2.51673e-19)
(-0.0461571 0.0295773 8.24722e-20)
(-0.0493792 0.0287817 3.91266e-20)
(-0.0521568 0.0280803 1.24175e-19)
(-0.0545411 0.0275916 1.13833e-19)
(-0.0565954 0.0274142 2.0784e-19)
(-0.0583934 0.0276267 -1.85772e-19)
(-0.0600202 0.0282866 2.62668e-19)
(-0.0615692 0.0294288 3.48894e-21)
(-0.0630932 0.0310742 -3.35844e-19)
(-0.0645715 0.0332392 4.35464e-19)
(-0.0663388 0.0358472 1.80456e-19)
(-0.0023698 0.0072687 -5.56738e-20)
(-0.00726846 0.0179886 -1.0107e-19)
(-0.0130695 0.0254637 -2.10298e-19)
(-0.0190224 0.0304403 -6.232e-21)
(-0.024772 0.0334887 3.58909e-20)
(-0.0301439 0.0350677 -2.68529e-19)
(-0.0350216 0.0355624 -1.99221e-19)
(-0.0393376 0.0352932 -2.8496e-20)
(-0.043064 0.0345278 -2.52006e-19)
(-0.0462012 0.0334919 -1.74491e-19)
(-0.0487705 0.0323783 -5.08537e-20)
(-0.0508103 0.0313531 -1.63758e-19)
(-0.0523739 0.03056 -2.66386e-21)
(-0.0535276 0.0301229 -2.175e-19)
(-0.0543501 0.0301453 9.15126e-20)
(-0.0549361 0.0307082 -1.04404e-19)
(-0.0553924 0.0318674 8.00192e-20)
(-0.0557876 0.0336623 -1.01767e-19)
(-0.0561127 0.0361274 -2.91031e-19)
(-0.0567426 0.0391738 -8.84472e-20)
(-0.00294906 0.00818519 -2.05025e-20)
(-0.00865904 0.0202449 -2.2262e-20)
(-0.0149433 0.0286343 1.76328e-19)
(-0.0211209 0.0341903 -2.86949e-19)
(-0.0268853 0.037554 4.20961e-20)
(-0.0320989 0.03924 -1.65757e-19)
(-0.0366738 0.0396789 7.83249e-20)
(-0.0405638 0.039228 3.52069e-19)
(-0.0437551 0.0381855 -2.25818e-20)
(-0.0462568 0.0368036 -2.6266e-19)
(-0.0480947 0.0352993 4.77234e-20)
(-0.0493093 0.033863 9.25055e-21)
(-0.0499548 0.032664 -5.39433e-20)
(-0.0500993 0.0318533 5.44267e-21)
(-0.0498261 0.0315642 4.73913e-19)
(-0.049239 0.0319083 -6.74758e-20)
(-0.0484606 0.0329714 -1.31663e-19)
(-0.0475793 0.0348229 -2.36305e-19)
(-0.046605 0.0375273 2.41063e-19)
(-0.0459684 0.0409887 1.0391e-19)
(-0.00359312 0.00903318 1.03481e-19)
(-0.0102018 0.0223195 -1.35396e-19)
(-0.0170178 0.0315341 1.91417e-19)
(-0.0234362 0.0376006 1.92687e-19)
(-0.0292058 0.0412259 1.77618e-19)
(-0.0342315 0.042976 3.60164e-19)
(-0.038459 0.0433215 2.32905e-19)
(-0.041867 0.0426516 -5.0048e-19)
(-0.044459 0.0412896 2.55961e-19)
(-0.0462544 0.039509 2.00859e-19)
(-0.0472844 0.0375469 -2.85174e-21)
(-0.0475912 0.0356145 2.24854e-19)
(-0.0472285 0.0339048 1.75312e-19)
(-0.0462647 0.032597 -9.53623e-20)
(-0.0447857 0.0318581 3.22275e-19)
(-0.0429038 0.031838 -3.99509e-19)
(-0.0407584 0.0326641 1.59926e-19)
(-0.0384617 0.0344511 2.05714e-19)
(-0.0360517 0.0373113 -4.79615e-20)
(-0.0340368 0.0411537 4.12986e-19)
(-0.00429596 0.00980935 2.07996e-19)
(-0.0118772 0.0242002 1.07825e-20)
(-0.0192591 0.0341442 -7.46427e-20)
(-0.0259197 0.0406482 -7.88336e-20)
(-0.0316701 0.0444814 -3.65077e-19)
(-0.0364633 0.0462565 5.17024e-20)
(-0.0402841 0.0464793 1.46471e-19)
(-0.0431403 0.0455648 -7.04536e-20)
(-0.0450561 0.0438555 5.81154e-20)
(-0.0460636 0.0416399 -1.54086e-20)
(-0.0462009 0.0391692 -7.59133e-20)
(-0.0455117 0.0366696 7.20701e-20)
(-0.0440488 0.0343538 -3.1337e-19)
(-0.0418784 0.0324275 3.00406e-19)
(-0.0390868 0.0310928 -2.60224e-19)
(-0.0357927 0.030545 8.03859e-20)
(-0.032152 0.0309657 1.82931e-19)
(-0.0283037 0.0325349 -3.80523e-20)
(-0.0243249 0.0354386 -1.26636e-19)
(-0.0208313 0.0396105 -8.60085e-20)
(-0.00505074 0.0105101 -2.59104e-19)
(-0.013662 0.0258747 -1.70323e-20)
(-0.0216247 0.0364456 5.4562e-20)
(-0.0285086 0.043311 1.4026e-19)
(-0.0341931 0.0472998 -1.98018e-19)
(-0.038686 0.0490673 -1.72791e-19)
(-0.042016 0.0491497 4.03304e-19)
(-0.0442251 0.0479823 -2.22856e-19)
(-0.0453619 0.0459203 -1.43756e-19)
(-0.0454747 0.0432605 -2.0627e-19)
(-0.0446105 0.0402601 1.3655e-19)
(-0.0428162 0.0371529 -3.69693e-21)
(-0.0401432 0.0341636 -2.54999e-19)
(-0.0366542 0.0315184 -4.1714e-19)
(-0.0324332 0.0294525 3.17794e-19)
(-0.0276021 0.0282097 -2.5749e-19)
(-0.0223319 0.0280377 3.65093e-19)
(-0.0167896 0.0292043 -1.02264e-19)
(-0.0111015 0.0320046 2.15125e-19)
(-0.00603152 0.0364303 -7.29261e-19)
(-0.00584931 0.0111309 -5.24796e-19)
(-0.0155277 0.027329 3.44076e-19)
(-0.0240625 0.0384175 4.67915e-20)
(-0.0311234 0.0455655 9.05082e-21)
(-0.0366656 0.0496593 -2.1211e-19)
(-0.040757 0.0513944 3.11912e-19)
(-0.0434759 0.0513331 3.40455e-20)
(-0.044903 0.049926 -6.39584e-20)
(-0.0451156 0.0475357 -2.05284e-19)
(-0.0441825 0.0444599 2.21902e-19)
(-0.0421631 0.0409538 5.62582e-19)
(-0.0391104 0.0372489 -1.24288e-19)
(-0.0350763 0.0335711 2.80826e-19)
(-0.0301203 0.0301565 -3.31717e-19)
(-0.0243219 0.0272646 -3.18049e-19)
(-0.0178037 0.025184 1.91252e-19)
(-0.0107484 0.0242344 3.16004e-19)
(-0.00334994 0.0247939 -1.02397e-18)
(0.00420948 0.0273111 1.20222e-19)
(0.010965 0.0318841 1.63372e-19)
(-0.00668199 0.011666 3.8862e-19)
(-0.0174407 0.0285465 1.27827e-19)
(-0.0265096 0.0400358 6.65788e-19)
(-0.0336677 0.0473837 3.42545e-20)
(-0.0389528 0.0515335 -7.40379e-20)
(-0.0424982 0.0532186 -3.52552e-19)
(-0.0444363 0.0530251 2.99816e-19)
(-0.044891 0.0514157 5.37887e-19)
(-0.0439727 0.0487556 3.5836e-19)
(-0.0417753 0.0453382 2.58711e-19)
(-0.0383757 0.0414089 2.23022e-19)
(-0.033838 0.0371871 -4.00498e-19)
(-0.0282195 0.032887 -1.25452e-19)
(-0.0215795 0.0287389 -9.23746e-20)
(-0.0139947 0.02501 9.89956e-19)
(-0.00558667 0.0220194 -3.42088e-21)
(0.00345266 0.020153 -2.4669e-19)
(0.012907 0.0199127 -7.78335e-20)
(0.0225395 0.0219493 7.0802e-19)
(0.0311218 0.0265329 9.2841e-20)
(-0.00753729 0.0121085 -1.91668e-20)
(-0.0193614 0.029508 -3.67585e-19)
(-0.028892 0.0412723 -5.46804e-19)
(-0.0360276 0.0487324 -1.52137e-19)
(-0.0408942 0.0528884 8.40086e-20)
(-0.0436951 0.0545114 1.80919e-20)
(-0.0446204 0.0542103 4.79725e-19)
(-0.0438406 0.0524583 -5.94968e-19)
(-0.0415033 0.0496215 -2.2631e-19)
(-0.0377318 0.0459862 -4.56076e-19)
(-0.0326268 0.0417835 -3.88447e-19)
(-0.0262707 0.0372126 -3.43938e-19)
(-0.0187341 0.0324639 8.59926e-20)
(-0.0100848 0.0277443 -1.11642e-19)
(-0.00040341 0.0233051 4.78313e-19)
(0.0101858 0.0194688 -2.62212e-19)
(0.0214811 0.0166617 -8.21701e-19)
(0.0332501 0.0155029 -1.65773e-19)
(0.0452173 0.0168866 4.05481e-19)
(0.0558276 0.0213304 -3.52886e-19)
(-0.00840195 0.0124507 -6.20018e-20)
(-0.0212442 0.030192 4.4956e-19)
(-0.0311248 0.0420953 -5.73318e-19)
(-0.0380714 0.0495725 1.3252e-19)
(-0.0423037 0.0536816 -2.72929e-19)
(-0.0440982 0.0552323 6.07932e-19)
(-0.0437047 0.0548565 -4.34492e-19)
(-0.0413423 0.0530391 4.97095e-19)
(-0.037198 0.0501482 -4.71316e-19)
(-0.0314288 0.0464639 2.01099e-19)
(-0.024165 0.0422032 -9.75977e-20)
(-0.0155163 0.037543 -2.45027e-19)
(-0.0055786 0.0326428 -3.02735e-19)
(0.00555761 0.0276715 3.01649e-19)
(0.0177931 0.0228396 -2.52598e-19)
(0.0309876 0.0184352 -5.52188e-19)
(0.0449204 0.0148775 5.74846e-19)
(0.0593455 0.0128596 -7.33177e-19)
(0.0739856 0.0135305 3.29836e-19)
(0.086919 0.0177203 8.29031e-21)
(-0.00926109 0.0126849 -5.62121e-19)
(-0.0230374 0.0305767 -6.0687e-19)
(-0.0331118 0.0424712 6.99371e-20)
(-0.0396502 0.0498617 -5.85163e-19)
(-0.0429708 0.0538651 -5.20652e-20)
(-0.0434248 0.0553311 -4.30429e-19)
(-0.0413225 0.0549163 -9.8744e-20)
(-0.0369312 0.0531198 -2.88588e-19)
(-0.0304785 0.0503158 2.566e-21)
(-0.022157 0.0467838 -1.26275e-19)
(-0.0121319 0.0427326 8.95901e-21)
(-0.000549218 0.0383223 -3.63868e-19)
(0.0124557 0.0336844 4.01018e-19)
(0.0267499 0.0289462 -5.6897e-19)
(0.0421914 0.0242607 2.01548e-19)
(0.0585977 0.0198462 7.6134e-21)
(0.0757033 0.0160504 -3.2085e-19)
(0.093236 0.0135534 7.95506e-19)
(0.110972 0.0137073 -1.89894e-19)
(0.126652 0.0176662 -1.22957e-19)
(-0.0100984 0.0128042 6.30964e-19)
(-0.0246832 0.0306411 3.40666e-19)
(-0.0347447 0.0423677 3.1687e-19)
(-0.0405965 0.0495586 4.7302e-20)
(-0.0426591 0.0533905 4.28445e-19)
(-0.0413592 0.0547546 6.17546e-19)
(-0.0370664 0.0543342 5.05618e-19)
(-0.0300948 0.0526459 4.52567e-20)
(-0.0207107 0.050076 3.703e-19)
(-0.00914306 0.0469111 5.72181e-19)
(0.00440475 0.0433635 -1.48431e-19)
(0.0197425 0.03959 2.4911e-19)
(0.0366815 0.0357093 2.01162e-19)
(0.0550243 0.0318197 2.04651e-19)
(0.0745548 0.0280223 1.21037e-18)
(0.0950098 0.0244501 -4.53652e-19)
(0.116032 0.0213224 -2.76654e-20)
(0.137276 0.0191841 5.25845e-19)
(0.158621 0.0194507 -2.9811e-19)
(0.177636 0.0235175 1.47216e-19)
(-0.0108963 0.0128032 -5.10211e-19)
(-0.0261169 0.0303676 3.2665e-20)
(-0.0359016 0.041758 -4.08342e-19)
(-0.0407215 0.0486294 -5.31473e-20)
(-0.0411038 0.0522189 2.98911e-19)
(-0.0375503 0.0534598 -8.89875e-19)
(-0.0304881 0.0530637 -6.65801e-22)
(-0.0202752 0.0515673 4.14148e-19)
(-0.00721439 0.0493742 3.89131e-19)
(0.00842997 0.0467874 -1.71322e-19)
(0.0264147 0.0440351 5.64989e-20)
(0.0464998 0.0412899 1.31043e-19)
(0.0684312 0.0386826 -6.20571e-20)
(0.0919261 0.0363146 -6.95965e-19)
(0.11666 0.0342709 1.76208e-19)
(0.142238 0.0326298 4.8481e-19)
(0.168142 0.0314784 -6.90728e-19)
(0.19385 0.0311278 3.36812e-19)
(0.219343 0.0328831 9.0371e-20)
(0.242399 0.0381977 4.57016e-19)
(-0.0116352 0.0126781 -7.53003e-20)
(-0.027265 0.0297435 -3.57431e-19)
(-0.0364432 0.0406244 1.64481e-19)
(-0.039811 0.047055 7.70388e-22)
(-0.0380061 0.0503322 -7.16796e-19)
(-0.0316062 0.051431 1.1186e-19)
(-0.0210939 0.0510903 -2.12464e-20)
(-0.00686903 0.0498684 1.44718e-19)
(0.0107307 0.0481886 -6.62453e-19)
(0.0314062 0.0463758 -4.64506e-20)
(0.0548736 0.0446846 -1.55655e-19)
(0.0808405 0.0433197 1.38467e-19)
(0.108982 0.042452 4.67463e-19)
(0.13892 0.0422306 -7.22792e-20)
(0.170194 0.0427938 2.80055e-20)
(0.202223 0.0442667 1.83985e-19)
(0.234218 0.0467329 -4.54752e-20)
(0.265267 0.0504003 3.71057e-19)
(0.295193 0.0565793 -2.15474e-19)
(0.3224 0.0665004 -3.40001e-19)
(-0.0122932 0.0124267 6.98674e-20)
(-0.0280425 0.0287621 1.70616e-20)
(-0.0362092 0.0389625 1.43318e-19)
(-0.0376191 0.0448389 3.51011e-19)
(-0.0330269 0.0477455 1.96976e-19)
(-0.0230877 0.0486968 2.05538e-20)
(-0.00834032 0.0484568 -2.35156e-19)
(0.0107725 0.0476022 6.02779e-20)
(0.0338756 0.046574 3.17078e-19)
(0.0606316 0.0457173 -5.37325e-19)
(0.090713 0.0453118 4.05486e-19)
(0.123776 0.0455967 -3.05544e-19)
(0.159438 0.0467922 2.59314e-19)
(0.197252 0.0491212 -5.59335e-19)
(0.236678 0.052834 6.15396e-19)
(0.277029 0.0582248 -6.58213e-19)
(0.317329 0.0656321 -1.71128e-19)
(0.35624 0.0756961 5.37201e-19)
(0.392589 0.0905329 -1.81489e-19)
(0.422997 0.110822 8.02339e-20)
(-0.0128439 0.0120478 -5.28619e-20)
(-0.0283495 0.027423 4.98883e-19)
(-0.0350124 0.0367837 -2.08844e-21)
(-0.0338627 0.0420125 -3.09705e-19)
(-0.0257807 0.0445166 -2.08282e-19)
(-0.011504 0.0453461 3.8159e-19)
(0.00836627 0.0452845 -1.51143e-19)
(0.0333355 0.0449207 -1.90405e-20)
(0.0629777 0.0447044 3.15054e-19)
(0.0969001 0.0449879 -3.914e-19)
(0.134713 0.0460577 4.29263e-20)
(0.176008 0.0481607 -5.08933e-19)
(0.220345 0.0515288 2.68028e-19)
(0.267246 0.0564066 -7.66972e-19)
(0.316207 0.0630895 1.22187e-18)
(0.366709 0.0719722 -2.2391e-19)
(0.418252 0.0836628 2.33443e-19)
(0.470637 0.0995215 -6.062e-19)
(0.524302 0.122596 4.1479e-21)
(0.571125 0.149149 6.86311e-19)
(-0.0132542 0.01154 -1.60117e-19)
(-0.0280671 0.0257317 1.38319e-19)
(-0.0326351 0.0341167 -5.09502e-19)
(-0.0282178 0.0386392 7.53612e-19)
(-0.0158342 0.0407526 -5.44098e-19)
(0.00368444 0.0415367 2.80898e-20)
(0.0296596 0.041787 -5.868e-19)
(0.0615218 0.0420941 4.1957e-19)
(0.0987625 0.042902 -5.99383e-20)
(0.140892 0.0445488 -3.70343e-19)
(0.187408 0.0472965 -2.16147e-19)
(0.237779 0.0513531 2.28399e-19)
(0.291439 0.0568916 1.51054e-19)
(0.347804 0.0640664 -6.68481e-19)
(0.406297 0.0730306 2.4135e-19)
(0.466395 0.0839471 -3.55949e-19)
(0.527696 0.0970086 4.31052e-20)
(0.590134 0.112628 -3.02171e-19)
(0.654481 0.131969 1.23339e-19)
(0.713571 0.15138 -4.52515e-19)
(-0.0134825 0.0109015 4.55837e-19)
(-0.0270538 0.0237001 -2.76108e-19)
(-0.0288262 0.0310086 2.27509e-19)
(-0.0203199 0.0348157 -2.87229e-19)
(-0.00271172 0.0366111 4.81434e-19)
(0.0230529 0.0374963 -8.41144e-21)
(0.0561888 0.0382684 -5.86251e-20)
(0.0960104 0.0395061 -4.34746e-20)
(0.141871 0.0416287 2.67572e-19)
(0.193116 0.0449352 4.5503e-19)
(0.249051 0.0496305 -2.68783e-19)
(0.30893 0.0558438 2.61344e-19)
(0.371967 0.0636427 4.77373e-19)
(0.437354 0.073043 -3.34724e-19)
(0.504305 0.0840146 -6.79704e-19)
(0.572099 0.0964784 1.24276e-18)
(0.640128 0.11029 -2.21942e-19)
(0.70798 0.12528 -7.20338e-20)
(0.775804 0.141749 7.74683e-19)
(0.83858 0.158997 -1.64397e-19)
(-0.0134763 0.0101303 -7.4201e-19)
(-0.0251436 0.0213469 -4.93945e-19)
(-0.0233021 0.0275249 -1.89616e-19)
(-0.00977017 0.0306715 3.6585e-19)
(0.0140898 0.0322977 -8.26006e-19)
(0.0471842 0.0335153 4.27819e-19)
(0.0885731 0.0351085 5.42273e-20)
(0.13739 0.0376248 5.48541e-20)
(0.19277 0.0414345 -5.60506e-19)
(0.2538 0.0467668 -1.97944e-19)
(0.319496 0.0537346 -3.48957e-19)
(0.388802 0.062352 3.3703e-19)
(0.460619 0.0725488 9.56273e-20)
(0.533844 0.0841821 1.86584e-20)
(0.607417 0.0970441 4.38977e-19)
(0.680372 0.110865 -4.44761e-19)
(0.751876 0.125303 -1.8417e-20)
(0.821261 0.139963 1.15169e-20)
(0.888179 0.154673 6.10799e-20)
(0.949925 0.171066 3.43476e-19)
(-0.0131718 0.00922483 2.36237e-19)
(-0.022147 0.0186995 6.08417e-19)
(-0.0157522 0.0237516 4.88242e-19)
(0.00385148 0.0263685 -1.68315e-19)
(0.0350759 0.0280613 5.85493e-19)
(0.0766265 0.0299351 -4.93311e-20)
(0.127336 0.0327395 -6.94973e-20)
(0.186067 0.0369635 4.13751e-20)
(0.251631 0.0428942 5.66182e-19)
(0.322748 0.0506526 3.32714e-19)
(0.398041 0.0602195 9.71761e-20)
(0.476065 0.0714579 6.00074e-21)
(0.555359 0.0841348 -6.44508e-19)
(0.634507 0.0979418 5.60026e-19)
(0.712209 0.112514 9.59638e-20)
(0.787325 0.127444 -1.58143e-19)
(0.858917 0.142293 -6.84943e-19)
(0.926271 0.156622 -5.76336e-20)
(0.988864 0.169967 2.70088e-19)
(1.04604 0.18545 -5.482e-20)
(-0.0124935 0.00818635 -5.99327e-19)
(-0.0178532 0.0157975 2.50758e-19)
(-0.00584754 0.0197973 -1.22439e-18)
(0.0209674 0.0221009 5.01531e-19)
(0.0607211 0.0241896 -3.99997e-19)
(0.111841 0.0271356 2.94912e-19)
(0.172834 0.0316223 -4.58231e-19)
(0.242172 0.0380401 4.20621e-20)
(0.318221 0.0465476 -2.36336e-20)
(0.399224 0.0571097 1.23288e-19)
(0.48333 0.069531 1.78031e-19)
(0.568666 0.0834906 -3.36454e-19)
(0.653423 0.0985776 1.78213e-19)
(0.735944 0.114326 1.63606e-19)
(0.814805 0.130249 7.06218e-19)
(0.888857 0.145861 -3.0688e-19)
(0.957254 0.160704 -2.0356e-19)
(1.01946 0.17439 3.42149e-19)
(1.07511 0.186377 1.82017e-19)
(1.12486 0.200421 -3.43287e-19)
(-0.0113558 0.00702102 5.24883e-19)
(-0.0120364 0.0126975 5.06096e-19)
(0.00674578 0.0157977 1.46055e-19)
(0.0419783 0.0180968 6.15149e-19)
(0.0914302 0.0210045 3.02262e-19)
(0.153147 0.0255226 -5.44931e-19)
(0.225179 0.0322212 8.25454e-19)
(0.305471 0.0413383 -4.0624e-19)
(0.39182 0.0528459 4.05585e-19)
(0.481902 0.0664986 5.24811e-19)
(0.573358 0.0818835 -2.9993e-19)
(0.663921 0.0984739 5.69864e-20)
(0.751534 0.115685 3.17597e-19)
(0.834457 0.132924 2.23698e-19)
(0.911337 0.149632 5.14929e-19)
(0.981232 0.165317 -2.06213e-19)
(1.04361 0.179575 -2.55741e-20)
(1.09829 0.192121 3.24179e-19)
(1.14532 0.202514 -6.98067e-20)
(1.18612 0.21452 2.33007e-22)
(-0.00966527 0.00574294 -2.70932e-19)
(-0.00446386 0.0094781 -9.95805e-19)
(0.0223506 0.01192 2.34529e-19)
(0.0672359 0.0146193 -1.78554e-19)
(0.127498 0.018858 -4.12256e-19)
(0.200664 0.0255133 -2.94433e-19)
(0.284178 0.0349785 -1.81911e-19)
(0.375315 0.0472695 4.41761e-19)
(0.471197 0.0621057 -2.62367e-19)
(0.568897 0.0789791 -2.68745e-19)
(0.665595 0.0972306 -3.39841e-19)
(0.758754 0.11613 -5.60947e-20)
(0.84626 0.13495 -3.8094e-20)
(0.926519 0.153029 -7.85407e-19)
(0.998484 0.16981 3.80465e-19)
(1.06164 0.184871 -5.00409e-19)
(1.11594 0.197926 1.5686e-19)
(1.1617 0.208841 -1.1943e-18)
(1.19947 0.217382 3.60077e-19)
(1.23099 0.22694 4.54586e-19)
(-0.00732383 0.00437682 -6.80468e-20)
(0.00509445 0.00624491 4.85693e-19)
(0.04126 0.00836683 3.11469e-20)
(0.0970135 0.0119666 7.4945e-20)
(0.169067 0.0181246 -1.5238e-19)
(0.254268 0.0275197 -2.52603e-21)
(0.349292 0.0402867 -3.93013e-21)
(0.450619 0.0561385 -9.20025e-20)
(0.554646 0.0744757 3.26324e-19)
(0.65789 0.09449 1.26142e-19)
(0.757215 0.115275 5.72696e-19)
(0.850036 0.135934 -1.56117e-19)
(0.934442 0.155661 1.08974e-19)
(1.00924 0.173809 -1.4102e-20)
(1.07392 0.189908 3.01687e-19)
(1.12855 0.203678 1.84456e-19)
(1.17367 0.215009 4.44093e-19)
(1.21011 0.223933 -7.16999e-19)
(1.23889 0.230459 9.01702e-19)
(1.26186 0.237444 -2.85587e-19)
(-0.00423265 0.00296009 -6.32922e-19)
(0.0168538 0.00313417 -1.97649e-19)
(0.0637168 0.0053782 1.54431e-19)
(0.131477 0.0104687 9.73772e-20)
(0.216093 0.0191897 9.98548e-20)
(0.313557 0.0319272 1.01206e-19)
(0.419622 0.0484598 -2.53364e-19)
(0.529899 0.0681135 -1.04753e-19)
(0.640097 0.0899183 3.25049e-20)
(0.746333 0.112758 -3.10386e-19)
(0.845399 0.135518 -1.40377e-19)
(0.934954 0.157206 8.48213e-19)
(1.01357 0.177037 -2.1885e-19)
(1.0807 0.194469 -3.01499e-19)
(1.13652 0.209203 -1.42939e-19)
(1.18176 0.221156 9.90755e-20)
(1.21752 0.230415 1.20625e-19)
(1.24509 0.237185 -5.78026e-19)
(1.26582 0.241686 8.3608e-19)
(1.28155 0.24623 -7.24422e-19)
(-0.000296228 0.0015444 -7.15707e-20)
(0.0310021 0.000314268 2.04937e-20)
(0.0898927 0.00322975 -2.61886e-20)
(0.170654 0.0104794 3.82399e-19)
(0.268316 0.0224333 2.11081e-20)
(0.377835 0.0390696 1.40474e-19)
(0.493932 0.0597056 -2.91921e-19)
(0.611359 0.0832075 -1.06424e-20)
(0.725289 0.108214 4.05561e-19)
(0.831699 0.133337 5.65167e-20)
(0.927635 0.157334 -3.53285e-19)
(1.01131 0.179227 -3.10453e-20)
(1.08205 0.198357 -2.90079e-19)
(1.14008 0.214379 2.88908e-19)
(1.18633 0.227222 4.00981e-19)
(1.22216 0.237026 -4.41918e-20)
(1.24914 0.244072 -5.37884e-20)
(1.26885 0.248708 1.64005e-19)
(1.28283 0.251309 -5.26803e-19)
(1.29281 0.253711 4.6413e-19)
(0.00457298 0.000196166 7.1944e-20)
(0.047687 -0.00201524 -4.63935e-19)
(0.119867 0.00222699 1.24145e-19)
(0.214414 0.0123628 -3.85285e-19)
(0.325241 0.0282077 1.32503e-19)
(0.44612 0.0492031 -4.92121e-19)
(0.570708 0.0741044 1.98534e-19)
(0.693022 0.101275 -6.32267e-20)
(0.807966 0.128989 -2.57732e-21)
(0.91173 0.15567 6.46801e-20)
(1.00196 0.180068 -2.35535e-19)
(1.07771 0.201343 -3.36223e-19)
(1.13921 0.21906 -6.89034e-20)
(1.18753 0.233139 -3.09313e-20)
(1.22429 0.243762 -7.84651e-20)
(1.25136 0.251286 -2.55486e-20)
(1.27059 0.256152 -7.64689e-20)
(1.28374 0.258809 -6.62791e-20)
(1.29235 0.259726 -1.9703e-19)
(1.29801 0.260353 3.12494e-19)
(0.0104497 -0.00100381 1.72902e-19)
(0.0670016 -0.00362741 -1.92043e-19)
(0.153607 0.00269525 4.13364e-19)
(0.262447 0.016475 -1.78478e-19)
(0.386143 0.0368135 4.77041e-19)
(0.517192 0.0624827 6.84365e-21)
(0.648263 0.0916003 2.39633e-19)
(0.772893 0.122031 -6.42387e-20)
(0.886087 0.151763 2.67849e-19)
(0.984637 0.179166 1.93314e-20)
(1.06711 0.20312 6.37507e-19)
(1.13358 0.223036 -4.39989e-19)
(1.18524 0.238785 5.93188e-20)
(1.22396 0.250579 1.1314e-19)
(1.2519 0.258845 5.9193e-19)
(1.27124 0.26412 -2.12657e-19)
(1.284 0.266961 -4.21296e-20)
(1.29192 0.267869 -2.23004e-19)
(1.29645 0.267353 -2.34277e-20)
(1.29899 0.266566 1.11532e-19)
(0.0173909 -0.00196157 -8.29345e-20)
(0.0889728 -0.00427437 2.39662e-19)
(0.190957 0.00496589 -2.45509e-19)
(0.314261 0.0231438 9.69169e-20)
(0.450082 0.0484767 -1.15992e-19)
(0.589649 0.0789484 4.25642e-19)
(0.724853 0.112007 -5.93383e-20)
(0.849119 0.145082 1.46033e-19)
(0.957984 0.176013 -8.60384e-20)
(1.04921 0.20327 -2.29148e-21)
(1.1225 0.226002 9.81978e-20)
(1.17906 0.243965 -7.60876e-20)
(1.22096 0.257371 1.97328e-19)
(1.25071 0.266717 -9.83841e-20)
(1.27085 0.272643 -4.32898e-19)
(1.28371 0.275813 4.30317e-19)
(1.29128 0.276846 -1.93787e-19)
(1.29517 0.276257 1.54737e-19)
(1.2967 0.274555 2.68153e-19)
(1.29705 0.272664 1.10153e-19)
(0.0254306 -0.00257221 2.064e-19)
(0.11355 -0.00369615 -4.2537e-19)
(0.231622 0.00935987 8.13718e-20)
(0.369185 0.0326465 -5.90618e-20)
(0.515949 0.0633295 -2.38353e-19)
(0.662005 0.0985211 -1.87081e-19)
(0.798806 0.135028 -3.67951e-20)
(0.920127 0.169976 -3.33543e-19)
(1.02246 0.201226 -2.03368e-20)
(1.10482 0.227512 -6.198e-20)
(1.16819 0.24837 -1.68218e-19)
(1.21481 0.263953 -3.7385e-20)
(1.24753 0.274812 -1.28717e-19)
(1.2693 0.281696 -2.14744e-19)
(1.28282 0.285402 2.19854e-19)
(1.29043 0.286669 3.02546e-20)
(1.29397 0.286132 6.02905e-20)
(1.29488 0.28428 -2.53106e-19)
(1.29427 0.281609 -6.35531e-21)
(1.29313 0.278857 -3.90291e-19)
(0.0345753 -0.00272292 2.26168e-19)
(0.140598 -0.00163145 1.50888e-19)
(0.275175 0.0161702 -2.434e-19)
(0.426396 0.045191 3.80088e-19)
(0.582522 0.0814008 -4.10088e-20)
(0.732779 0.121012 1.42024e-19)
(0.868639 0.160293 4.91825e-20)
(0.984709 0.196243 1.74232e-19)
(1.0788 0.226944 -1.36436e-19)
(1.15137 0.251537 4.54722e-20)
(1.20466 0.27002 -4.36385e-20)
(1.24183 0.282956 -1.91796e-20)
(1.26628 0.291208 3.64983e-20)
(1.28119 0.29572 -6.72331e-20)
(1.2893 0.297385 -2.06488e-20)
(1.29278 0.296969 -6.31971e-20)
(1.29329 0.295082 -1.02697e-19)
(1.29204 0.29217 6.63135e-20)
(1.28994 0.288703 -9.09358e-20)
(1.28779 0.285267 3.92981e-19)
(0.0447999 -0.00229687 -1.12901e-19)
(0.16989 0.00217026 -3.19957e-19)
(0.321061 0.0256445 -4.2603e-20)
(0.484948 0.060901 -1.16298e-20)
(0.648536 0.102614 -1.43404e-19)
(0.800591 0.146142 -2.35502e-19)
(0.933131 0.187386 7.7089e-20)
(1.04205 0.223442 -1.05934e-19)
(1.12676 0.25279 -1.18695e-19)
(1.18918 0.275099 6.6129e-20)
(1.23271 0.29086 -4.99717e-20)
(1.26123 0.301027 -1.01114e-19)
(1.27848 0.306716 -3.40301e-21)
(1.28771 0.309005 6.84895e-20)
(1.29151 0.30883 -6.98631e-20)
(1.29184 0.306939 9.69445e-20)
(1.29011 0.303892 2.60884e-20)
(1.28733 0.30008 6.57072e-20)
(1.28422 0.295948 1.28036e-19)
(1.28141 0.291946 -1.09673e-19)
(0.0560454 -0.00117778 1.07824e-19)
(0.201114 0.00793609 -9.48438e-21)
(0.368612 0.0379698 4.84347e-20)
(0.543818 0.079807 -6.5705e-20)
(0.71275 0.126795 5.42797e-21)
(0.864233 0.173567 2.28099e-19)
(0.99137 0.215886 -1.49831e-19)
(1.09172 0.251174 6.34899e-20)
(1.16642 0.278476 5.59947e-20)
(1.21883 0.298051 -1.57341e-19)
(1.25327 0.310884 1.47876e-19)
(1.27414 0.318267 1.3159e-21)
(1.28532 0.321506 -1.04221e-19)
(1.28995 0.32175 1.25625e-19)
(1.2904 0.319929 -4.98658e-20)
(1.28837 0.316744 3.81306e-20)
(1.28505 0.312689 -4.26441e-20)
(1.28121 0.308097 -1.70675e-20)
(1.27743 0.303392 -1.49297e-19)
(1.27419 0.298895 4.57423e-20)
(0.0682167 0.000745024 -3.63271e-20)
(0.233874 0.0158574 9.75574e-20)
(0.417075 0.0532597 1.52222e-20)
(0.601956 0.101844 6.38294e-20)
(0.774015 0.153685 3.04725e-20)
(0.922718 0.202901 1.4286e-20)
(1.04275 0.245385 8.0977e-20)
(1.13361 0.279105 -9.82072e-21)
(1.19817 0.30379 3.57192e-20)
(1.24104 0.32032 5.73935e-20)
(1.2673 0.330134 2.77022e-20)
(1.28159 0.334797 1.98922e-20)
(1.28777 0.335735 8.06708e-20)
(1.28877 0.334115 -7.80949e-20)
(1.28668 0.330823 1.67634e-20)
(1.28294 0.326491 -1.57075e-20)
(1.27849 0.321542 2.42911e-20)
(1.27395 0.316254 2.03559e-20)
(1.26975 0.311037 4.25164e-20)
(1.26624 0.306083 1.77799e-21)
(0.081184 0.00357139 2.15376e-20)
(0.2677 0.0260785 1.96739e-20)
(0.465639 0.0715471 -2.72442e-20)
(0.658333 0.126857 1.70257e-20)
(0.831316 0.182962 9.62337e-21)
(0.975297 0.233742 -2.99397e-20)
(1.08696 0.275506 9.88142e-21)
(1.16787 0.306958 1.78571e-21)
(1.22253 0.328588 1.70471e-20)
(1.25662 0.341881 -4.57223e-20)
(1.27569 0.348674 -1.4356e-22)
(1.28448 0.350729 1.26786e-20)
(1.28664 0.34953 -1.01039e-20)
(1.28484 0.346214 1.02222e-20)
(1.28087 0.341597 2.66884e-20)
(1.27592 0.336234 -1.51907e-20)
(1.27071 0.330472 4.22638e-21)
(1.26572 0.324545 1.66501e-20)
(1.26126 0.318851 -2.7448e-20)
(1.25762 0.313454 1.3177e-20)
(0.094785 0.00738523 5.99914e-20)
(0.302069 0.0386874 -3.26424e-20)
(0.513471 0.0927796 3.84502e-20)
(0.711983 0.154607 -2.86142e-20)
(0.883807 0.214254 -1.28389e-20)
(1.02146 0.265689 3.88288e-21)
(1.12391 0.305912 -1.26055e-20)
(1.19481 0.33451 4.53418e-20)
(1.24013 0.352768 -3.77674e-20)
(1.26634 0.362736 8.86451e-21)
(1.27926 0.366568 -6.60535e-21)
(1.28354 0.366155 -4.30617e-20)
(1.28256 0.362979 4.17796e-20)
(1.27865 0.358114 1.59162e-20)
(1.27334 0.35229 -1.58325e-20)
(1.26754 0.34598 3.71824e-20)
(1.26185 0.339462 -5.42994e-22)
(1.25661 0.33293 -3.60896e-20)
(1.25203 0.326777 2.67383e-20)
(1.24832 0.320937 8.43918e-21)
(0.108828 0.0122499 -2.10232e-20)
(0.336414 0.0537095 6.09634e-20)
(0.559747 0.116821 7.04654e-20)
(0.762041 0.184787 -3.32579e-20)
(0.930826 0.247159 5.78649e-20)
(1.0609 0.298352 9.16074e-20)
(1.15371 0.336299 -5.04962e-21)
(1.21487 0.361579 -1.57453e-20)
(1.2516 0.37626 7.77569e-20)
(1.27091 0.382891 3.79271e-20)
(1.2787 0.383866 -6.8904e-21)
(1.27937 0.381133 5.65784e-20)
(1.27599 0.37613 -6.07071e-20)
(1.27055 0.369841 9.45484e-20)
(1.2643 0.362901 -1.5775e-20)
(1.25798 0.355703 4.52309e-20)
(1.25201 0.348465 8.16571e-21)
(1.24665 0.34135 3.23866e-20)
(1.24204 0.334746 -3.08237e-20)
(1.23836 0.328451 7.43715e-21)
(0.123096 0.0182041 -3.27219e-20)
(0.370151 0.071103 7.75807e-20)
(0.603679 0.143457 5.76585e-20)
(0.807759 0.21703 -8.74398e-21)
(0.971887 0.281259 8.99173e-20)
(1.09352 0.331357 -6.72082e-20)
(1.1766 0.366398 -5.28755e-21)
(1.22855 0.388009 5.93458e-20)
(1.25756 0.399004 1.88527e-20)
(1.27098 0.402346 2.64012e-20)
(1.27457 0.400593 -3.89986e-20)
(1.27243 0.39569 1.01758e-19)
(1.26728 0.388992 1.90213e-20)
(1.26078 0.381379 -9.01851e-20)
(1.25393 0.373394 1.3187e-19)
(1.24731 0.365351 -1.55635e-19)
(1.24122 0.357414 -7.15042e-20)
(1.23587 0.349727 1.18451e-20)
(1.23132 0.342672 6.9457e-20)
(1.22772 0.33591 -1.31039e-19)
(0.137356 0.0252584 -7.35721e-20)
(0.402695 0.0907582 -1.7361e-19)
(0.644544 0.172399 -1.50172e-19)
(0.848528 0.250929 -2.04518e-19)
(1.00667 0.316129 -1.161e-19)
(1.11934 0.36435 -2.40802e-19)
(1.1929 0.395967 3.05977e-20)
(1.23635 0.413667 -1.28013e-19)
(1.25859 0.420942 -1.40665e-20)