/*--------------------------------*- C++ -*----------------------------------*\
  =========                 |
  \\      /  F ield         | OpenFOAM: The Open Source CFD Toolbox
   \\    /   O peration     | Website:  https://openfoam.org
    \\  /    A nd           | Version:  6.0
     \\/     M anipulation  |
\*---------------------------------------------------------------------------*/
FoamFile
{
    version     2.0;
    format      ascii;
    class       surfaceScalarField;
    location    "61";
    object      phi;
}
// * * * * * * * * * * * * * * * * * * * * * * * * * * * * * * * * * * * * * //

dimensions      [0 3 -1 0 0 0 0];

internalField   nonuniform List<scalar> 
7840
(
-2.27843e-06
-3.83775e-06
6.11618e-06
-8.09984e-06
-6.09645e-06
1.19179e-05
-1.65766e-05
-4.87172e-06
1.33485e-05
-2.69421e-05
-1.52601e-06
1.18914e-05
-3.85576e-05
2.9874e-06
8.62814e-06
-5.09082e-05
8.03596e-06
4.31461e-06
-6.35933e-05
1.32276e-05
-5.42521e-07
-7.63168e-05
1.83444e-05
-5.62078e-06
-8.88774e-05
2.32888e-05
-1.07283e-05
-0.000101158
2.80419e-05
-1.57608e-05
-0.00011312
3.2631e-05
-2.06694e-05
-0.00012479
3.71063e-05
-2.54366e-05
-0.000136254
4.15245e-05
-3.00598e-05
-0.000147651
4.59379e-05
-3.45414e-05
-0.000159156
5.0387e-05
-3.88815e-05
-0.000170978
5.48973e-05
-4.30758e-05
-0.000183341
5.94775e-05
-4.71146e-05
-0.000196477
6.41185e-05
-5.09819e-05
-0.000210618
6.87852e-05
-5.46451e-05
7.34255e-05
-5.80583e-05
-0.000225985
-2.24794e-06
-1.58981e-06
-7.97429e-06
-3.70102e-07
-1.62856e-05
3.4396e-06
-2.64107e-05
8.59911e-06
-3.7708e-05
1.42846e-05
-4.96592e-05
1.99872e-05
-6.186e-05
2.54284e-05
-7.40095e-05
3.04938e-05
-8.58997e-05
3.5179e-05
-9.74067e-05
3.95489e-05
-0.000108482
4.37062e-05
-0.000119144
4.77685e-05
-0.000129472
5.18519e-05
-0.000139593
5.60595e-05
-0.00014968
6.04739e-05
-0.000159935
6.51523e-05
-0.000170582
7.01241e-05
-0.000181852
7.53891e-05
-0.000193978
8.09115e-05
8.66319e-05
-0.000207185
-2.23488e-06
6.45073e-07
-7.90032e-06
5.29535e-06
-1.60852e-05
1.16245e-05
-2.60056e-05
1.85194e-05
-3.70097e-05
2.52888e-05
-4.85704e-05
3.15479e-05
-6.02734e-05
3.71314e-05
-7.1806e-05
4.20264e-05
-8.29468e-05
4.63198e-05
-9.35562e-05
5.01584e-05
-0.000103569
5.37194e-05
-0.000112989
5.71879e-05
-0.000121878
6.07408e-05
-0.000130353
6.45351e-05
-0.000138579
6.86994e-05
-0.000146754
7.33278e-05
-0.000155106
7.84762e-05
-0.000163876
8.41589e-05
-0.000173309
9.0344e-05
9.6966e-05
-0.000183643
-2.24281e-06
2.88788e-06
-7.88956e-06
1.09421e-05
-1.59986e-05
1.97335e-05
-2.57645e-05
2.82853e-05
-3.65194e-05
3.60438e-05
-4.77216e-05
4.27501e-05
-5.89414e-05
4.83512e-05
-6.98485e-05
5.29335e-05
-8.02008e-05
5.66721e-05
-8.98359e-05
5.97935e-05
-9.86645e-05
6.25479e-05
-0.000106664
6.51879e-05
-0.000113877
6.79535e-05
-0.000120402
7.10601e-05
-0.000126392
7.46889e-05
-0.000132043
7.89796e-05
-0.000137591
8.4024e-05
-0.000143293
8.98609e-05
-0.00014942
9.64706e-05
0.000103786
-0.00015624
-2.27419e-06
5.16208e-06
-7.94946e-06
1.66174e-05
-1.60405e-05
2.78246e-05
-2.57127e-05
3.79575e-05
-3.62768e-05
4.66078e-05
-4.71721e-05
5.36454e-05
-5.79496e-05
5.91287e-05
-6.82564e-05
6.32403e-05
-7.78241e-05
6.62398e-05
-8.64602e-05
6.84296e-05
-9.40423e-05
7.013e-05
-0.000100515
7.1661e-05
-0.00010589
7.33279e-05
-0.000110239
7.54097e-05
-0.0001137
7.81494e-05
-0.000116464
8.17441e-05
-0.000118776
8.6336e-05
-0.000120919
9.20031e-05
-0.000123201
9.87526e-05
0.000106526
-0.00012594
-2.32968e-06
7.49176e-06
-8.08154e-06
2.23692e-05
-1.62142e-05
3.59573e-05
-2.5857e-05
4.76003e-05
-3.62955e-05
5.70463e-05
-4.6948e-05
6.4298e-05
-5.73437e-05
6.95244e-05
-6.71042e-05
7.30008e-05
-7.59304e-05
7.5066e-05
-8.35937e-05
7.60928e-05
-8.9931e-05
7.64673e-05
-9.48442e-05
7.65743e-05
-9.8302e-05
7.67856e-05
-0.000100342
7.74496e-05
-0.000101074
7.88814e-05
-0.00010068
8.13505e-05
-9.94132e-05
8.50688e-05
-9.75862e-05
9.01761e-05
-9.55621e-05
9.67285e-05
0.000104694
-9.37298e-05
-2.40763e-06
9.89939e-06
-8.27941e-06
2.8241e-05
-1.65068e-05
4.41846e-05
-2.61782e-05
5.72717e-05
-3.65524e-05
6.74205e-05
-4.70263e-05
7.47719e-05
-5.71076e-05
7.96056e-05
-6.63921e-05
8.22853e-05
-7.45481e-05
8.32221e-05
-8.13067e-05
8.28514e-05
-8.64574e-05
8.16181e-05
-8.98497e-05
7.99666e-05
-9.1398e-05
7.83339e-05
-9.10899e-05
7.71415e-05
-8.89953e-05
7.67868e-05
-8.52745e-05
7.76298e-05
-8.01822e-05
7.99765e-05
-7.40652e-05
8.40591e-05
-6.73535e-05
9.00168e-05
9.78747e-05
-6.05346e-05
-2.50342e-06
1.24028e-05
-8.527e-06
3.42646e-05
-1.6886e-05
5.25437e-05
-2.66254e-05
6.70111e-05
-3.69772e-05
7.77723e-05
-4.73194e-05
8.51141e-05
-5.71409e-05
8.94272e-05
-6.60147e-05
9.11591e-05
-7.3578e-05
9.07853e-05
-7.95206e-05
8.8794e-05
-8.35807e-05
8.56782e-05
-8.55472e-05
8.19331e-05
-8.52679e-05
7.80546e-05
-8.26638e-05
7.45374e-05
-7.77462e-05
7.18692e-05
-7.0635e-05
7.05186e-05
-6.15736e-05
7.09152e-05
-5.09383e-05
7.34238e-05
-3.92376e-05
7.83161e-05
8.57261e-05
-2.7089e-05
-2.60924e-06
1.5012e-05
-8.79755e-06
4.04529e-05
-1.7298e-05
6.10441e-05
-2.7111e-05
7.68241e-05
-3.74443e-05
8.81056e-05
-4.76611e-05
9.5331e-05
-5.72376e-05
9.90037e-05
-6.57295e-05
9.96509e-05
-7.27485e-05
9.78043e-05
-7.79475e-05
9.39929e-05
-8.10135e-05
8.87443e-05
-8.16707e-05
8.25902e-05
-7.96903e-05
7.60741e-05
-7.49098e-05
6.9757e-05
-6.72594e-05
6.42188e-05
-5.67926e-05
6.00518e-05
-4.37181e-05
5.78406e-05
-2.84269e-05
5.81326e-05
-1.15108e-05
6.14001e-05
6.79669e-05
6.24833e-06
-2.7141e-06
1.77261e-05
-9.05369e-06
4.67925e-05
-1.76666e-05
6.9657e-05
-2.75094e-05
8.66669e-05
-3.77689e-05
9.8365e-05
-4.77989e-05
0.000105361
-5.70702e-05
0.000108275
-6.51305e-05
0.000107711
-7.1576e-05
0.00010425
-7.60316e-05
9.84484e-05
-7.81407e-05
9.08534e-05
-7.75656e-05
8.20151e-05
-7.39969e-05
7.25054e-05
-6.71758e-05
6.29359e-05
-5.69282e-05
5.39713e-05
-4.32098e-05
4.63334e-05
-2.61591e-05
4.07899e-05
-6.15272e-06
3.81262e-05
1.61428e-05
3.91046e-05
4.43606e-05
3.97491e-05
-2.80439e-06
2.05305e-05
-9.24907e-06
5.32372e-05
-1.78964e-05
7.83044e-05
-2.76604e-05
9.64309e-05
-3.77096e-05
0.000108414
-4.73938e-05
0.000115045
-5.61859e-05
0.000117067
-6.36363e-05
0.000115162
-6.93384e-05
0.000109952
-7.29041e-05
0.000102014
-7.39488e-05
9.18981e-05
-7.20855e-05
8.01518e-05
-6.69317e-05
6.73516e-05
-5.81298e-05
5.4134e-05
-4.53848e-05
4.12264e-05
-2.85229e-05
2.94714e-05
-7.56752e-06
1.98345e-05
1.71674e-05
1.33913e-05
4.49711e-05
1.13009e-05
1.46835e-05
7.46482e-05
-2.86493e-06
2.33955e-05
-9.33156e-06
5.97038e-05
-1.78785e-05
8.68513e-05
-2.73775e-05
0.00010593
-3.69798e-05
0.000118016
-4.60334e-05
0.000124099
-5.40188e-05
0.000125053
-6.04981e-05
0.000121641
-6.50757e-05
0.00011453
-6.73692e-05
0.000104308
-6.69881e-05
9.1517e-05
-6.35216e-05
7.66853e-05
-5.65371e-05
6.03671e-05
-4.55939e-05
4.31908e-05
-3.02779e-05
2.59103e-05
-1.02645e-05
9.458e-06
1.45836e-05
-5.01356e-06
4.40811e-05
-1.61061e-05
7.75366e-05
-2.21546e-05
-2.13255e-05
0.000113546
-2.88055e-06
2.6276e-05
-9.24797e-06
6.60713e-05
-1.74994e-05
9.51027e-05
-2.64623e-05
0.000114893
-3.52672e-05
0.000126821
-4.32578e-05
0.00013209
-4.99221e-05
0.000131717
-5.48374e-05
0.000126556
-5.76295e-05
0.000117322
-5.79392e-05
0.000104617
-5.53965e-05
8.89744e-05
-4.96017e-05
7.08904e-05
-4.01133e-05
5.08787e-05
-2.64493e-05
2.95268e-05
-8.10819e-06
7.56921e-06
1.53758e-05
-1.4026e-05
4.43289e-05
-3.39666e-05
7.87664e-05
-5.05436e-05
0.000118119
-6.15067e-05
-6.40429e-05
0.000160836
-2.83791e-06
2.91139e-05
-8.94957e-06
7.21829e-05
-1.66518e-05
0.000102805
-2.47221e-05
0.000122963
-3.2261e-05
0.00013436
-3.85982e-05
0.000138427
-4.32201e-05
0.000136339
-4.57143e-05
0.00012905
-4.57282e-05
0.000117336
-4.29357e-05
0.000101825
-3.70103e-05
8.30489e-05
-2.7601e-05
6.14811e-05
-1.43124e-05
3.75901e-05
3.31022e-06
1.19042e-05
2.57816e-05
-1.49022e-05
5.36479e-05
-4.18923e-05
8.74016e-05
-6.77204e-05
0.000127306
-9.0448e-05
0.000173044
-0.000107244
-0.000114075
0.000223076
-2.72715e-06
3.18411e-05
-8.39735e-06
7.78531e-05
-1.52454e-05
0.000109653
-2.19881e-05
0.000129706
-2.76807e-05
0.000140053
-3.16205e-05
0.000142367
-3.32729e-05
0.000137991
-3.2218e-05
0.000127996
-2.81111e-05
0.000113229
-2.06541e-05
9.4368e-05
-9.57211e-06
7.19669e-05
5.40855e-06
4.65005e-05
2.45828e-05
1.84159e-05
4.82925e-05
-1.18054e-05
7.69513e-05
-4.3561e-05
0.000111056
-7.59972e-05
0.000151155
-0.000107819
0.000197723
-0.000137016
0.000250809
-0.00016033
-0.000172411
0.000309145
-2.54307e-06
3.43841e-05
-7.56553e-06
8.28756e-05
-1.32141e-05
0.000115302
-1.81294e-05
0.000134621
-2.13002e-05
0.000143224
-2.19647e-05
0.000143031
-1.95384e-05
0.000135565
-1.35623e-05
0.000122019
-3.67001e-06
0.000103336
1.04342e-05
8.02638e-05
2.89888e-05
5.34123e-05
5.2187e-05
2.33023e-05
8.01907e-05
-9.5878e-06
0.000113154
-4.47685e-05
0.000151259
-8.1666e-05
0.000194765
-0.000119503
0.000244048
-0.000157103
0.000299596
-0.000192563
0.000361806
-0.00022254
-0.000240583
0.000429977
-2.28516e-06
3.66693e-05
-6.4422e-06
8.70326e-05
-1.05184e-05
0.000119378
-1.30585e-05
0.000137161
-1.29588e-05
0.000143124
-9.36738e-06
0.00013944
-1.61262e-06
0.00012781
1.08439e-05
0.000109563
2.84344e-05
8.57458e-05
5.14965e-05
5.72017e-05
8.02738e-05
2.46349e-05
0.000114911
-1.13351e-05
0.000155449
-5.01257e-05
0.000201826
-9.11453e-05
0.000253899
-0.000133739
0.000311499
-0.000177103
0.000374517
-0.000220121
0.000443024
-0.00026107
0.000517382
-0.000296898
-0.00032087
0.000597669
-1.95655e-06
3.86258e-05
-5.02615e-06
9.01022e-05
-7.13959e-06
0.000121491
-6.72374e-06
0.000136745
-2.55448e-06
0.000138955
6.3436e-06
0.000130542
2.07674e-05
0.000113386
4.13783e-05
8.8952e-05
6.87231e-05
5.8401e-05
0.000103236
2.26893e-05
0.000145224
-1.73539e-05
0.00019485
-6.09609e-05
0.000252095
-0.00010737
0.000316729
-0.000155779
0.000388287
-0.000205297
0.000466069
-0.000254886
0.000549204
-0.000303255
0.000636785
-0.000348651
0.000728224
-0.000388337
-0.000417117
0.000824471
-1.56167e-06
4.01875e-05
-3.3204e-06
9.1861e-05
-3.0686e-06
0.000121239
9.08281e-07
0.000132769
9.98157e-06
0.000129881
2.52805e-05
0.000115243
4.77607e-05
9.0906e-05
7.82433e-05
5.84693e-05
0.00011743
1.9214e-05
0.0001659
-2.578e-05
0.000224086
-7.55403e-05
0.000292248
-0.000129123
0.00037042
-0.000185543
0.000458354
-0.000243714
0.000555434
-0.000302376
0.000660574
-0.000360026
0.000772117
-0.000414798
0.000887727
-0.000464261
0.0010046
-0.00050521
-0.000536222
0.00112371
-1.1034e-06
4.12909e-05
-1.32379e-06
9.20814e-05
1.71028e-06
0.000118205
9.87773e-06
0.000124601
2.47203e-05
0.000115039
4.75438e-05
9.24192e-05
7.94835e-05
5.89664e-05
0.000121538
1.6415e-05
0.000174579
-3.38269e-05
0.000239345
-9.05461e-05
0.000316424
-0.00015262
0.000406233
-0.000218931
0.00050899
-0.0002883
0.000624691
-0.000359415
0.000753065
-0.00043075
0.000893482
-0.000500444
0.00104474
-0.000566054
0.00120424
-0.000623767
0.00136513
-0.000666098
-0.000677281
0.00150619
-5.80948e-07
4.18719e-05
9.76132e-07
9.05243e-05
7.23327e-06
0.000111948
2.02543e-05
0.00011158
4.17682e-05
9.3525e-05
7.32677e-05
6.09197e-05
0.000116067
1.6167e-05
0.000171327
-3.88445e-05
0.000240054
-0.000102554
0.000323091
-0.000173584
0.000421107
-0.000250635
0.000534591
-0.000332415
0.00066388
-0.00041759
0.000809233
-0.000504768
0.000970981
-0.000592498
0.00114983
-0.000679292
0.0013474
-0.00076363
0.00156754
-0.0008439
0.00182013
-0.000918695
-0.000984493
0.00212735
1.46962e-08
4.18572e-05
3.61268e-06
8.69263e-05
1.35715e-05
0.000101989
3.21563e-05
9.29953e-05
6.12904e-05
6.43909e-05
0.000102647
1.95633e-05
0.000157691
-3.88768e-05
0.000227685
-0.000108839
0.000313676
-0.000188544
0.000416463
-0.000276372
0.000536587
-0.000370759
0.000674321
-0.000470148
0.000829703
-0.000572972
0.00100261
-0.000677677
0.00119289
-0.00078278
0.00140056
-0.000886962
0.00162613
-0.00098919
0.00187107
-0.00108884
0.00213813
-0.00118576
-0.00127276
0.0024264
6.97616e-07
4.11596e-05
6.63523e-06
8.09887e-05
2.08254e-05
8.77993e-05
4.57428e-05
6.80778e-05
8.34996e-05
2.66341e-05
0.00013592
-3.28567e-05
0.000204556
-0.000107513
0.00029067
-0.000194953
0.000395189
-0.000293064
0.000518662
-0.000399845
0.000661227
-0.000513324
0.00082261
-0.000631531
0.00100215
-0.000752513
0.00119887
-0.000874395
0.00141156
-0.000995467
0.00163888
-0.00111428
0.00187946
-0.00122978
0.00213194
-0.00134132
0.00239477
-0.00144859
-0.00154378
0.00266579
1.48851e-06
3.9671e-05
1.01096e-05
7.23676e-05
2.91198e-05
6.8789e-05
6.11998e-05
3.59978e-05
0.000108624
-2.07906e-05
0.000173309
-9.75412e-05
0.00025679
-0.000190995
0.000360171
-0.000298334
0.000484051
-0.000416943
0.000628464
-0.000544258
0.000792856
-0.000677717
0.000976096
-0.000814771
0.00117653
-0.000952945
0.00139207
-0.00108994
0.00162031
-0.00122371
0.00185864
-0.00135261
0.00210426
-0.0014754
0.00235427
-0.00159133
0.00260565
-0.00169997
-0.00179496
0.00285684
2.41172e-06
3.72593e-05
1.41089e-05
6.06705e-05
3.85854e-05
4.43125e-05
7.87049e-05
-4.12168e-06
0.000136851
-7.89366e-05
0.00021493
-0.00017562
0.000314308
-0.000290372
0.000435715
-0.000419741
0.00057916
-0.000560388
0.000743878
-0.000708976
0.000928337
-0.000862175
0.0011303
-0.00101674
0.00134696
-0.00116961
0.0015751
-0.00131807
0.00181125
-0.00145986
0.00205185
-0.00159321
0.00229338
-0.00171693
0.00253241
-0.00183036
0.00276573
-0.0019333
-0.0020214
0.00299217
3.49218e-06
3.37671e-05
1.87035e-05
4.54592e-05
4.93366e-05
1.36794e-05
9.83877e-05
-5.31728e-05
0.000168256
-0.000148805
0.00026069
-0.000268054
0.000376669
-0.000406352
0.000516287
-0.00055936
0.000678668
-0.000722768
0.00086196
-0.000892268
0.00106342
-0.00106364
0.0012796
-0.00123291
0.00150653
-0.00139654
0.00174004
-0.00155158
0.00197596
-0.00169577
0.00221032
-0.00182757
0.00243954
-0.00194615
0.00266049
-0.00205131
0.00287059
-0.0021434
-0.00222008
0.00306927
4.75242e-06
2.90147e-05
2.39506e-05
2.6261e-05
6.14487e-05
-2.38188e-05
0.000120289
-0.000112013
0.000202747
-0.000231262
0.000310202
-0.000375509
0.000442982
-0.000539132
0.000600237
-0.000716615
0.00077991
-0.000902441
0.000978833
-0.00109119
0.00119295
-0.00127775
0.00141761
-0.00145757
0.00164794
-0.00162687
0.00187917
-0.00178282
0.00210694
-0.00192354
0.00232749
-0.00204812
0.00253777
-0.00215644
0.00273553
-0.00224907
0.00291927
-0.00232714
-0.00238999
0.00308919
6.20988e-06
2.28049e-05
2.98846e-05
2.58631e-06
7.49381e-05
-6.88723e-05
0.000144329
-0.000181404
0.00024001
-0.000326943
0.00036273
-0.00049823
0.000511852
-0.000688254
0.000685271
-0.000890034
0.000879505
-0.00109668
0.00108996
-0.00130164
0.0013113
-0.0014991
0.00153796
-0.00168423
0.00176455
-0.00185346
0.00198624
-0.00200451
0.00219904
-0.00213635
0.00239994
-0.00224901
0.00258691
-0.00234342
0.00275889
-0.00242105
0.0029156
-0.00248385
-0.0025325
0.00305811
7.87491e-06
1.49299e-05
3.65101e-05
-2.60488e-05
8.97475e-05
-0.00012211
0.00017028
-0.000261936
0.000279486
-0.00043615
0.000417172
-0.000635915
0.000581406
-0.000852487
0.000768563
-0.00107719
0.000973603
-0.00130172
0.00119055
-0.00151859
0.0014131
-0.00172164
0.00163515
-0.00190628
0.00185136
-0.00206967
0.00205742
-0.00221057
0.00225023
-0.00232916
0.00242792
-0.0024267
0.00258972
-0.00250521
0.00273576
-0.0025671
0.00286689
-0.00261498
-0.00265052
0.0029849
9.74941e-06
5.18053e-06
4.37967e-05
-6.00961e-05
0.000105736
-0.000184049
0.000197759
-0.000353959
0.000320368
-0.000558759
0.000472084
-0.000787632
0.000649387
-0.00102979
0.000846963
-0.00127477
0.00105825
-0.001513
0.00127616
-0.00173651
0.00149384
-0.00193931
0.00170525
-0.0021177
0.00190566
-0.00227007
0.00209177
-0.00239668
0.00226173
-0.00249912
0.00241496
-0.00257994
0.00255191
-0.00264216
0.00267377
-0.00268896
0.00278218
-0.00272339
-0.00274773
0.00287939
1.18259e-05
-6.6454e-06
5.16764e-05
-9.99465e-05
0.000122674
-0.000255046
0.000226226
-0.000457511
0.000361615
-0.000694148
0.000525754
-0.00095177
0.000713315
-0.00121735
0.000917283
-0.00147874
0.00112981
-0.00172553
0.00134314
-0.00194984
0.00155044
-0.00214661
0.00174634
-0.0023136
0.00192718
-0.00245092
0.002091
-0.0025605
0.00223732
-0.00264543
0.00236678
-0.0027094
0.00248083
-0.00275621
0.00258138
-0.00278951
0.00267053
-0.00281254
-0.00282785
0.00275065
1.40872e-05
-2.07326e-05
6.00422e-05
-0.000145902
0.000140248
-0.000335252
0.000254998
-0.000572261
0.00040201
-0.00084116
0.000576313
-0.00112607
0.00077069
-0.00141173
0.000976605
-0.00168465
0.00118534
-0.00193426
0.00138905
-0.00215355
0.00158153
-0.00233909
0.00175854
-0.00249061
0.00191783
-0.00261021
0.00205885
-0.00270152
0.00218239
-0.00276896
0.00229007
-0.00281708
0.00238403
-0.00285017
0.00246654
-0.00287202
0.00253984
-0.00288584
-0.00289418
0.00260618
1.65057e-05
-3.72383e-05
6.87495e-05
-0.000198145
0.000158065
-0.000424567
0.00028328
-0.000697477
0.000440224
-0.000998105
0.000621876
-0.00130772
0.000819221
-0.00160907
0.00102257
-0.00188799
0.00122289
-0.00213458
0.00141285
-0.00234352
0.00158739
-0.00251362
0.00174371
-0.00264693
0.00188105
-0.00274755
0.00200018
-0.00282065
0.00210288
-0.00287166
0.00219145
-0.00290566
0.00226836
-0.00292708
0.00233597
-0.00293963
0.0023964
-0.00294627
-0.0029494
0.00245162
1.90441e-05
-5.62824e-05
7.76185e-05
-0.00025672
0.000175667
-0.000522615
0.000310202
-0.000832012
0.00047491
-0.00116281
0.000660696
-0.00149351
0.000857023
-0.0018054
0.00105356
-0.00208453
0.00124159
-0.00232261
0.00141483
-0.00251676
0.00156968
-0.00266847
0.0017049
-0.00278215
0.00182113
-0.00286377
0.00192018
-0.0029197
0.00200451
-0.002956
0.00207678
-0.00297792
0.0021395
-0.0029898
0.0021949
-0.00299503
0.00224486
-0.00299623
-0.00299554
0.002291
2.16553e-05
-7.79378e-05
8.64401e-05
-0.000321504
0.000192554
-0.000628729
0.000334874
-0.000974332
0.000504797
-0.00133274
0.000691303
-0.00168002
0.000882774
-0.00199687
0.00106884
-0.0022706
0.00124165
-0.00249542
0.00139637
-0.00267148
0.00153101
-0.00280311
0.00164582
-0.00289696
0.00174255
-0.0029605
0.00182377
-0.00300093
0.00189231
-0.00302454
0.00195088
-0.00303649
0.00200185
-0.00304077
0.0020472
-0.00304038
0.0020885
-0.00303753
-0.00303406
0.00212701
2.42839e-05
-0.000102222
9.49834e-05
-0.000392204
0.000208206
-0.000741951
0.000356439
-0.00112257
0.000528787
-0.00150508
0.000712617
-0.00186385
0.000895784
-0.00218004
0.00106847
-0.00244329
0.00122415
-0.0026511
0.00135964
-0.00280697
0.00147451
-0.00291798
0.00157028
-0.00299272
0.00164953
-0.00303975
0.00171527
-0.00306666
0.00177039
-0.00307967
0.00181749
-0.00308358
0.00185866
-0.00308195
0.00189559
-0.0030773
0.00192953
-0.00307146
-0.00306596
0.00196143
2.68676e-05
-0.000129089
0.000103006
-0.000468342
0.000222113
-0.000861059
0.000374135
-0.00127459
0.000546027
-0.00167698
0.000724006
-0.00204183
0.000895988
-0.00235202
0.00105323
-0.00260053
0.00119081
-0.00278868
0.00130721
-0.00292337
0.00140342
-0.00301419
0.00148191
-0.00307121
0.0015458
-0.00310364
0.00159821
-0.00311908
0.00164197
-0.00312342
0.00167937
-0.00312099
0.00171223
-0.00311481
0.00174191
-0.00310698
0.00176938
-0.00309893
-0.00309193
0.00179535
2.93395e-05
-0.000158429
0.000110265
-0.000549268
0.000233808
-0.000984602
0.000387337
-0.00142812
0.000555964
-0.0018456
0.000725292
-0.00221115
0.00088387
-0.0025106
0.00102441
-0.00274106
0.0011437
-0.00290798
0.00124181
-0.00302148
0.00132083
-0.00309321
0.00138392
-0.0031343
0.00143442
-0.00315414
0.0014754
-0.00316006
0.00150944
-0.00315746
0.00153853
-0.00315008
0.00156416
-0.00314044
0.00158739
-0.00313021
0.00160899
-0.00312053
-0.00311239
0.00162945
3.16314e-05
-0.00019006
0.000116532
-0.000634169
0.000242889
-0.00111096
0.000395599
-0.00158083
0.000558351
-0.00200836
0.000716713
-0.00236952
0.00086034
-0.00265423
0.000983621
-0.00286434
0.00108506
-0.00300942
0.00116603
-0.00310245
0.0012295
-0.00315669
0.00127899
-0.00318379
0.00131785
-0.003193
0.00134896
-0.00319117
0.00137457
-0.00318307
0.00139635
-0.00317186
0.0014155
-0.00315959
0.00143285
-0.00314756
0.00144895
-0.00313664
-0.00312761
0.00146417
3.36765e-05
0.0001216
0.000249043
0.000398665
0.000553241
0.000698847
0.0008266
0.000932652
0.00101705
0.00108226
0.0011318
0.00116931
0.00119801
0.00122047
0.00123862
0.00125381
0.00126699
0.0012788
0.00128965
0.00129979
3.4079e-05
0.000197619
0.000122643
0.000654475
0.000250442
0.0011414
0.000399743
0.00161821
0.00055316
0.0020493
0.000696855
0.00241103
0.000822186
0.00269411
0.00092559
0.00290129
0.00100736
0.00304291
0.00107012
0.00313251
0.00111746
0.00318364
0.00115306
0.00320809
0.0011801
0.0032151
0.00120111
0.00321145
0.00121796
0.00320184
0.00123197
0.00318934
0.00124406
0.00317595
0.00125483
0.00316292
0.0012647
0.0031511
0.00314122
0.00127389
3.20767e-05
0.000165543
0.000117771
0.00056878
0.000244752
0.00101442
0.000397475
0.00146549
0.000559385
0.00188739
0.00071605
0.00225436
0.000857321
0.00255283
0.000977868
0.00278074
0.00107647
0.00294431
0.00115471
0.00305427
0.00121568
0.00312267
0.00126295
0.00316082
0.00129988
0.00317817
0.00132929
0.00318204
0.0013534
0.00317772
0.00137383
0.00316891
0.00139174
0.00315804
0.00140793
0.00314673
0.00142294
0.00313608
0.00312705
0.00143711
2.98197e-05
0.000135723
0.00011168
0.00048692
0.000236112
0.000889988
0.000390018
0.00131158
0.000558185
0.00171923
0.000726126
0.00208642
0.000882513
0.00239645
0.00102031
0.00264295
0.00113661
0.00282801
0.00123172
0.00295916
0.00130791
0.00304647
0.00136844
0.0031003
0.00141666
0.00312994
0.00145566
0.00314304
0.00148794
0.00314544
0.00151546
0.00314139
0.00153967
0.00313383
0.00156159
0.00312481
0.00158196
0.00311572
0.00310777
0.00160124
2.73729e-05
0.00010835
0.000104566
0.000409727
0.000224816
0.000769739
0.000377592
0.00115881
0.000549466
0.00154735
0.000726465
0.00190942
0.000896538
0.00222637
0.00105115
0.00248834
0.00118566
0.0026935
0.00129883
0.00284599
0.00139189
0.00295342
0.00146744
0.00302475
0.00152867
0.00306871
0.00157873
0.00309298
0.0016204
0.00310377
0.00165597
0.00310582
0.00168717
0.00310263
0.00171533
0.00309665
0.00174139
0.00308966
0.00308314
0.00176602
2.48035e-05
8.35466e-05
9.66542e-05
0.000337876
0.000211245
0.000655148
0.000360607
0.00100945
0.000533417
0.00137454
0.000716765
0.00172608
0.000898433
0.00204471
0.00106873
0.00231804
0.00122139
0.00254084
0.00135351
0.00271387
0.00146493
0.002842
0.00155737
0.00293231
0.00163355
0.00299254
0.0016965
0.00303003
0.00174915
0.00305111
0.00179405
0.00306093
0.00183326
0.00306342
0.0018684
0.00306151
0.0019007
0.00305736
0.00305277
0.00193108
2.21783e-05
6.13683e-05
8.81831e-05
0.000271872
0.000195858
0.000547473
0.000339657
0.000865648
0.000510539
0.00120366
0.000697132
0.00153948
0.000887642
0.0018542
0.00107172
0.00213395
0.00124172
0.00237085
0.00139306
0.00256253
0.00152404
0.00271101
0.00163517
0.00282118
0.00172837
0.00289933
0.00180634
0.00295206
0.00187193
0.00298552
0.00192786
0.003005
0.00197647
0.00301481
0.00201969
0.00301828
0.00205906
0.00301799
0.00301605
0.00209578
1.95596e-05
4.18087e-05
7.93943e-05
0.000212037
0.000179155
0.000447712
0.000315482
0.000729321
0.000481635
0.00103751
0.00066812
0.001353
0.000864134
0.00165818
0.00105926
0.00193883
0.00124486
0.00218525
0.00141489
0.0023925
0.00156602
0.00255989
0.00169729
0.0026899
0.00180958
0.00278705
0.00190486
0.00285677
0.00198571
0.00290467
0.00205481
0.00293591
0.00211467
0.00295494
0.00216751
0.00296545
0.00221514
0.00297035
0.00297204
0.00225915
1.70034e-05
2.48054e-05
7.05196e-05
0.000158521
0.000161654
0.000356578
0.000288922
0.000602052
0.000447761
0.000878668
0.000630735
0.00117002
0.00082849
0.00146043
0.00103114
0.00173619
0.00122963
0.00198675
0.00141677
0.00220535
0.00158773
0.00238893
0.00173999
0.00253764
0.00187307
0.00265397
0.00198796
0.00274189
0.0020866
0.00280603
0.0021714
0.00285111
0.00224485
0.00288149
0.00230933
0.00290097
0.00236693
0.00291275
0.0029194
0.00241957
1.45581e-05
1.02473e-05
6.17727e-05
0.000111306
0.000143861
0.00027449
0.000260866
0.000485047
0.000410164
0.000729371
0.000586384
0.000993804
0.000781928
0.00126488
0.000987974
0.00153014
0.00119567
0.00177906
0.00139719
0.00200383
0.00158648
0.00219964
0.00175956
0.00236456
0.00191444
0.00249908
0.00205086
0.00260547
0.00216979
0.00268709
0.00227306
0.00274784
0.00236288
0.00279167
0.00244159
0.00282227
0.00251142
0.00284292
0.00285623
0.00257459
1.22638e-05
-2.0165e-06
5.33421e-05
7.02278e-05
0.000126248
0.000201585
0.000232198
0.000379096
0.000370193
0.000591376
0.000536781
0.000827216
0.000726249
0.00107542
0.000931235
0.00132515
0.00114365
0.00156665
0.00135565
0.00179183
0.00156044
0.00199485
0.00175283
0.00217218
0.00192939
0.00232252
0.00208844
0.00244642
0.00222975
0.00254579
0.00235419
0.0026234
0.00246339
0.00268247
0.00255937
0.00272629
0.00264428
0.00275801
0.00278
0.00272051
1.01524e-05
-1.21689e-05
4.53873e-05
3.49929e-05
0.000109234
0.000137738
0.000203749
0.000284581
0.000329207
0.000465918
0.00048382
0.000672603
0.000663703
0.000895532
0.000863175
0.00112568
0.00107537
0.00135446
0.00129299
0.00157421
0.0015091
0.00177874
0.00171774
0.00196353
0.00191433
0.00212593
0.00209582
0.00226494
0.0022606
0.002381
0.00240838
0.00247562
0.00253983
0.00255102
0.00265632
0.00260981
0.00275963
0.0026547
0.00268756
0.00285207
8.2479e-06
-2.04168e-05
3.80361e-05
5.20478e-06
9.31742e-05
8.25995e-05
0.000176256
0.0002015
0.000288488
0.000353686
0.000429422
0.000531669
0.000596807
0.000728147
0.000786666
0.000935822
0.000993617
0.0011475
0.00121141
0.00135642
0.00143354
0.0015566
0.00165387
0.0017432
0.00186709
0.0019127
0.00206906
0.00206297
0.0022569
0.00219316
0.00242899
0.00230353
0.00258483
0.00239518
0.0027248
0.00246983
0.00284996
0.00252955
0.00257528
0.00296224
6.56622e-06
-2.6983e-05
3.13826e-05
-1.96116e-05
7.8345e-05
3.56371e-05
0.000150334
0.000129511
0.000249169
0.000254851
0.000375401
0.000405437
0.000528128
0.00057542
0.000704932
0.000759017
0.000901999
0.000950437
0.00111441
0.00114401
0.00133659
0.00133442
0.00156279
0.00151701
0.00178755
0.00168794
0.00200609
0.00184443
0.00221456
0.00198469
0.00241014
0.00210795
0.00259106
0.00221426
0.00275653
0.00230436
0.00290654
0.00237954
0.00243947
0.00304235
5.11496e-06
-3.2098e-05
2.54856e-05
-3.99823e-05
6.49411e-05
-3.81838e-06
0.000126449
6.80028e-05
0.000212172
0.000169128
0.000323337
0.000294272
0.000460064
0.000438693
0.000621246
0.000597835
0.000804529
0.000767154
0.00100643
0.000942104
0.00122261
0.00111825
0.00144816
0.00129146
0.00167804
0.00145806
0.00190741
0.00161506
0.00213192
0.00176019
0.0023479
0.00189196
0.00255252
0.00200964
0.00274375
0.00211313
0.00292036
0.00220293
0.00227705
0.00308278
3.89241e-06
-3.59904e-05
2.03655e-05
-5.64554e-05
5.30675e-05
-3.65204e-05
0.000104904
1.61668e-05
0.000178167
9.58644e-05
0.00027448
0.000197959
0.000394666
0.000318507
0.000538617
0.000453884
0.000705216
0.000600555
0.000892338
0.000754982
0.00109695
0.000913636
0.00131533
0.00107308
0.00154326
0.00123012
0.0017764
0.00138192
0.00201046
0.00152613
0.00224147
0.00166095
0.00246591
0.0017852
0.00268081
0.00189823
0.00288382
0.00199992
0.00208631
0.00307455
2.88668e-06
-3.88771e-05
1.60032e-05
-6.95719e-05
4.27375e-05
-6.32547e-05
8.58298e-05
-2.69256e-05
0.000147548
3.4146e-05
0.000229687
0.000115821
0.000333488
0.000214706
0.000459535
0.000327836
0.000607656
0.000452434
0.000776865
0.000585773
0.000965379
0.000725122
0.00117069
0.000867768
0.00138973
0.00101108
0.00161903
0.00115263
0.00185491
0.00129025
0.00209367
0.00142219
0.00233173
0.00154714
0.00256568
0.00166428
0.00279242
0.00177317
0.00186778
0.00301096
2.0757e-06
-4.09528e-05
1.23413e-05
-7.98375e-05
3.38762e-05
-8.47896e-05
6.91938e-05
-6.22432e-05
0.000120432
-1.70923e-05
0.000189395
4.68582e-05
0.000277518
0.000126583
0.000385796
0.000219558
0.0005147
0.00032353
0.000664106
0.000436367
0.000833262
0.000555966
0.0010208
0.000680226
0.00122482
0.000807068
0.00144295
0.000934496
0.00167253
0.00106068
0.00191067
0.00118405
0.00215439
0.00130342
0.00240062
0.00141804
0.00264631
0.00152749
0.00162401
0.00289008
1.4286e-06
-4.23814e-05
9.29043e-06
-8.76993e-05
2.63345e-05
-0.000101834
5.48176e-05
-9.07263e-05
9.66886e-05
-5.89633e-05
0.000153653
-1.01058e-05
0.000227173
5.30628e-05
0.000318433
0.000128298
0.000428273
0.00021369
0.000557137
0.000307503
0.000705025
0.000408078
0.000871484
0.000513767
0.00105563
0.000622918
0.00125623
0.000733896
0.00147178
0.000845135
0.00170059
0.00095523
0.00194097
0.00106305
0.00219117
0.00116784
0.00244939
0.00126927
0.00135953
0.00271386
9.08936e-07
-4.32903e-05
6.73966e-06
-9.353e-05
1.99116e-05
-0.000115006
4.24201e-05
-0.000113235
7.59985e-05
-9.25416e-05
0.000122192
-5.62998e-05
0.000182384
-7.12831e-06
0.000257777
5.29053e-05
0.000349365
0.000122101
0.00045789
0.000198978
0.000583809
0.00028216
0.000727277
0.000370299
0.000888172
0.000462023
0.00106615
0.000555915
0.00126078
0.000650512
0.00147168
0.00074433
0.00169885
0.000835869
0.00194317
0.000923523
0.00220677
0.00100567
0.00107692
0.00248939
4.79056e-07
-4.37694e-05
4.57163e-06
-9.76226e-05
1.43863e-05
-0.00012482
3.1669e-05
-0.000130518
5.7936e-05
-0.000118809
9.45469e-05
-9.29107e-05
0.000142739
-5.53202e-05
0.00020363
-7.98633e-06
0.000278206
4.75255e-05
0.000367289
0.000109895
0.000471518
0.000177931
0.000591333
0.000250484
0.000726987
0.000326369
0.000878607
0.000404296
0.00104632
0.0004828
0.00123052
0.000560133
0.00143235
0.000634032
0.00165497
0.000700904
0.00190744
0.000753202
0.000773989
0.00221037
1.05687e-07
-4.38751e-05
2.67913e-06
-0.000100196
9.55008e-06
-0.000131691
2.22391e-05
-0.000143207
4.20594e-05
-0.000138629
7.01828e-05
-0.000121034
0.000107676
-9.28138e-05
0.000155514
-5.58244e-05
0.000214572
-1.15317e-05
0.000285604
3.88624e-05
0.000369222
9.43131e-05
0.000465862
0.000153844
0.000575761
0.00021647
0.000698922
0.000281135
0.00083508
0.000346642
0.000983629
0.000411583
0.00114345
0.000474213
0.00131222
0.000532127
0.00148377
0.000581658
0.000618746
0.00163901
-2.38773e-07
-4.36363e-05
9.73616e-07
-0.000101408
5.22934e-06
-0.000135947
1.38541e-05
-0.000151831
2.79825e-05
-0.000152757
4.86141e-05
-0.000141666
7.66482e-05
-0.000120848
0.000112899
-9.2075e-05
0.000158093
-5.67258e-05
0.000212855
-1.58998e-05
0.000277682
2.94867e-05
0.000352904
7.86213e-05
0.000438644
0.00013073
0.000534756
0.000185023
0.000640755
0.000240643
0.000755734
0.000296604
0.000878302
0.000351645
0.00100654
0.000403888