/*--------------------------------*- C++ -*----------------------------------*\
  =========                 |
  \\      /  F ield         | OpenFOAM: The Open Source CFD Toolbox
   \\    /   O peration     | Website:  https://openfoam.org
    \\  /    A nd           | Version:  6.0
     \\/     M anipulation  |
\*---------------------------------------------------------------------------*/
FoamFile
{
    version     2.0;
    format      ascii;
    class       volVectorField;
    location    "61";
    object      U;
}
// * * * * * * * * * * * * * * * * * * * * * * * * * * * * * * * * * * * * * //

dimensions      [0 1 -1 0 0 0 0];

internalField   nonuniform List<vector> 
4000
(
(-0.00034092 -0.00199441 -3.75544e-21)
(-0.00205355 -0.00363369 2.00579e-20)
(-0.00529356 -0.00373179 -2.43825e-20)
(-0.00926925 -0.00284254 1.85587e-20)
(-0.0135506 -0.00136455 9.03127e-21)
(-0.0178851 0.000429376 -2.71002e-20)
(-0.0220923 0.00236307 -2.39708e-21)
(-0.0260557 0.0043308 -8.557e-22)
(-0.0297123 0.00627604 -1.4034e-20)
(-0.0330391 0.0081747 -7.60049e-21)
(-0.0360434 0.0100224 5.67504e-21)
(-0.0387548 0.0118252 2.15876e-20)
(-0.0412192 0.0135931 -1.63063e-21)
(-0.0434932 0.0153358 2.29165e-21)
(-0.0456403 0.0170602 -2.16953e-20)
(-0.0477326 0.0187692 1.33573e-20)
(-0.049844 0.020461 -1.91428e-20)
(-0.051985 0.0221303 2.89369e-20)
(-0.0540767 0.0237651 -3.15731e-23)
(-0.056569 0.0253371 6.21463e-21)
(-0.000311704 -0.00110338 1.24403e-20)
(-0.00201598 -0.00140628 -6.34538e-20)
(-0.00525402 -0.000581945 -4.37828e-20)
(-0.00922079 0.000895467 -2.97396e-20)
(-0.0134764 0.00269561 -3.81996e-20)
(-0.0177624 0.00460495 8.49993e-21)
(-0.0218954 0.00650008 -4.40686e-20)
(-0.0257581 0.00832139 -9.88484e-21)
(-0.0292879 0.0100524 3.1602e-21)
(-0.0324624 0.0117037 3.29988e-20)
(-0.0352899 0.0133009 -3.58911e-20)
(-0.0378009 0.0148759 4.98814e-20)
(-0.0400425 0.0164604 -3.73084e-20)
(-0.0420723 0.018082 -4.42134e-20)
(-0.043955 0.0197613 -6.09117e-20)
(-0.0457637 0.0215101 3.89134e-20)
(-0.0475734 0.0233313 -1.24937e-20)
(-0.049399 0.0252218 -4.57235e-20)
(-0.0511668 0.0271716 4.32691e-20)
(-0.0533052 0.0291326 -3.19106e-20)
(-0.000355653 -0.000223906 1.21098e-19)
(-0.00216842 0.000781421 6.2697e-20)
(-0.00549607 0.00249764 7.04601e-20)
(-0.00951886 0.00453183 5.83987e-21)
(-0.0137887 0.00662318 3.89099e-20)
(-0.0180435 0.00861775 4.87268e-20)
(-0.0220994 0.0104446 -8.804e-20)
(-0.0258402 0.0120896 -4.66946e-20)
(-0.0292048 0.0135757 -6.05686e-20)
(-0.0321729 0.0149476 6.49447e-20)
(-0.0347544 0.0162606 -4.94999e-20)
(-0.0369819 0.0175724 -6.34206e-20)
(-0.0389045 0.0189368 -2.29231e-20)
(-0.0405822 0.0203998 2.19222e-20)
(-0.0420826 0.0219965 -6.08722e-21)
(-0.043482 0.0237493 8.88318e-21)
(-0.0448596 0.0256669 1.01684e-19)
(-0.0462371 0.0277492 -1.42058e-20)
(-0.0475474 0.0299887 -1.03168e-19)
(-0.0492042 0.0323189 1.35285e-19)
(-0.000473129 0.00064719 4.18631e-20)
(-0.00251152 0.00293266 -5.95426e-20)
(-0.00602133 0.00550584 -1.48974e-20)
(-0.0101665 0.00805927 2.76475e-20)
(-0.0144925 0.0104037 7.87679e-20)
(-0.0187362 0.0124454 1.72547e-19)
(-0.0227157 0.0141655 1.68433e-19)
(-0.0263178 0.0155946 1.38272e-20)
(-0.0294845 0.0167939 1.03131e-19)
(-0.0321983 0.0178417 1.57706e-19)
(-0.0344716 0.0188225 -1.26095e-19)
(-0.0363396 0.0198199 1.86416e-19)
(-0.0378542 0.0209106 -4.17679e-20)
(-0.0390789 0.0221605 1.07373e-20)
(-0.0400857 0.0236213 4.38958e-20)
(-0.0409565 0.0253279 5.81601e-20)
(-0.0417775 0.0272973 -9.14582e-20)
(-0.0425799 0.0295346 -7.61307e-20)
(-0.0433054 0.0320366 -1.34881e-19)
(-0.044361 0.0347192 1.95252e-19)
(-0.000665476 0.00151409 -2.19272e-20)
(-0.00304698 0.00505266 -2.23919e-19)
(-0.00683107 0.00844487 -6.61304e-20)
(-0.0111643 0.0114751 -1.61142e-19)
(-0.0155882 0.0140288 6.07675e-20)
(-0.0198417 0.0160731 -9.59641e-20)
(-0.0237474 0.0176408 3.26775e-20)
(-0.0271973 0.0188062 -2.02854e-19)
(-0.0301378 0.0196676 1.06739e-19)
(-0.0325551 0.0203352 -1.27489e-19)
(-0.0344648 0.0209226 -1.13334e-19)
(-0.0359047 0.0215394 -1.26421e-19)
(-0.0369299 0.0222861 1.14827e-19)
(-0.037608 0.0232507 -1.02591e-19)
(-0.0380169 0.0245043 1.43129e-19)
(-0.0382459 0.0260982 4.12693e-20)
(-0.038391 0.0280611 1.0191e-19)
(-0.0384965 0.0304072 4.48672e-20)
(-0.0385157 0.0331407 -1.76715e-19)
(-0.0388588 0.0361612 2.86067e-19)
(-0.000934997 0.00238149 9.5987e-20)
(-0.00377729 0.00714792 7.6542e-21)
(-0.0079254 0.011319 3.95122e-20)
(-0.0125092 0.0147799 1.38005e-19)
(-0.0170693 0.0174949 -2.13697e-20)
(-0.0213511 0.0194931 2.23677e-19)
(-0.0251848 0.0208584 9.88838e-20)
(-0.0284698 0.021707 8.25421e-21)
(-0.0311584 0.0221725 2.5427e-19)
(-0.0332415 0.0223957 8.30847e-20)
(-0.0347378 0.0225177 3.9261e-20)
(-0.0356879 0.0226741 1.25095e-19)
(-0.0361498 0.0229907 1.14423e-19)
(-0.0361954 0.0235797 2.08475e-19)
(-0.0359088 0.0245357 -1.86287e-19)
(-0.0353885 0.0259311 2.62509e-19)
(-0.0347434 0.0278122 2.83948e-21)
(-0.034034 0.030208 -3.34975e-19)
(-0.0332306 0.0331354 4.33184e-19)
(-0.0327581 0.03648 1.78052e-19)
(-0.00128475 0.00325359 -5.66441e-20)
(-0.00470491 0.00922403 -1.02256e-19)
(-0.00930172 0.0141323 -2.12996e-19)
(-0.0141915 0.0179757 -6.26237e-21)
(-0.0189194 0.0208023 3.60001e-20)
(-0.0232416 0.0227045 -2.71644e-19)
(-0.0270001 0.0238164 -2.01308e-19)
(-0.0301044 0.0242941 -2.88744e-20)
(-0.0325148 0.0243037 -2.5419e-19)
(-0.0342273 0.0240141 -1.75614e-19)
(-0.035264 0.0235921 -5.11636e-20)
(-0.0356678 0.0231985 -1.64429e-19)
(-0.0354986 0.0229851 -2.72514e-21)
(-0.034832 0.0230909 -2.17584e-19)
(-0.0337583 0.0236385 9.14998e-20)
(-0.0323863 0.0247278 -1.04378e-19)
(-0.0308401 0.0264307 7.93424e-20)
(-0.0292007 0.0287995 -1.01403e-19)
(-0.0274618 0.0318724 -2.88369e-19)
(-0.0260783 0.0355252 -8.7198e-20)
(-0.00171808 0.00413311 -2.04733e-20)
(-0.00583105 0.0112838 -2.22351e-20)
(-0.0109527 0.0168864 1.78249e-19)
(-0.0161926 0.0210638 -2.89448e-19)
(-0.0211075 0.0239532 4.25475e-20)
(-0.0254708 0.0257119 -1.66651e-19)
(-0.0291406 0.026523 7.90588e-20)
(-0.0320401 0.0265797 3.53844e-19)
(-0.0341395 0.0260772 -2.28518e-20)
(-0.0354413 0.0252089 -2.63173e-19)
(-0.0359711 0.0241642 4.82924e-20)
(-0.0357729 0.0231271 9.30264e-21)
(-0.0349077 0.022275 -5.32906e-20)
(-0.033453 0.0217758 6.02741e-21)
(-0.0315044 0.0217847 4.70744e-19)
(-0.0291814 0.0224368 -6.75649e-20)
(-0.026625 0.0238399 -1.29968e-19)
(-0.0239407 0.0260821 -2.32228e-19)
(-0.0211542 0.0292359 2.37323e-19)
(-0.0187709 0.0331748 1.01738e-19)
(-0.00223792 0.00502024 1.04548e-19)
(-0.00715396 0.0133251 -1.36357e-19)
(-0.0128637 0.0195781 1.92828e-19)
(-0.0184814 0.0240419 1.93754e-19)
(-0.0235847 0.0269492 1.78694e-19)
(-0.0279712 0.0285232 3.62121e-19)
(-0.0315212 0.0289946 2.33793e-19)
(-0.0341754 0.0285907 -5.01628e-19)
(-0.0359169 0.0275313 2.561e-19)
(-0.0367561 0.0260296 2.00418e-19)
(-0.0367224 0.0242928 -2.55421e-21)
(-0.0358605 0.0225244 2.23316e-19)
(-0.0342306 0.020925 1.73551e-19)
(-0.0319103 0.0196919 -9.4912e-20)
(-0.0289983 0.0190169 3.18267e-19)
(-0.0256235 0.0190784 -3.94611e-19)
(-0.0219456 0.0200324 1.57135e-19)
(-0.0180982 0.0220198 2.01886e-19)
(-0.0141488 0.025167 -4.7389e-20)
(-0.0106804 0.0293587 4.01843e-19)
(-0.00284585 0.00591146 2.08895e-19)
(-0.00866693 0.0153386 1.06257e-20)
(-0.0150102 0.0221962 -7.50745e-20)
(-0.021011 0.0269011 -7.94406e-20)
(-0.0262789 0.0297873 -3.66311e-19)
(-0.0306447 0.0311455 5.16556e-20)
(-0.034017 0.0312524 1.46637e-19)
(-0.036359 0.0303657 -7.01489e-20)
(-0.0376701 0.028725 5.78052e-20)
(-0.0379711 0.026557 -1.57382e-20)
(-0.0372962 0.0240807 -7.55654e-20)
(-0.0356907 0.0215127 7.12076e-20)
(-0.0332127 0.019072 -3.09955e-19)
(-0.0299373 0.0169829 2.96636e-19)
(-0.0259638 0.015475 -2.56069e-19)
(-0.0214283 0.0147768 7.941e-20)
(-0.0165088 0.0151064 1.78613e-19)
(-0.0113702 0.0166791 -3.79938e-20)
(-0.00613242 0.0197027 -1.23994e-19)
(-0.00149206 0.0240957 -8.3403e-20)
(-0.00354106 0.00679884 -2.59395e-19)
(-0.0103562 0.017306 -1.70487e-20)
(-0.0173552 0.0247194 5.45674e-20)
(-0.0237153 0.0296227 1.40249e-19)
(-0.0290917 0.0324568 -1.9817e-19)
(-0.0333575 0.0335811 -1.727e-19)
(-0.0364567 0.0333171 4.02499e-19)
(-0.0383805 0.0319495 -2.22398e-19)
(-0.0391489 0.0297323 -1.43143e-19)
(-0.0387963 0.0268993 -2.04715e-19)
(-0.0373639 0.0236733 1.35282e-19)
(-0.0348988 0.0202756 -4.34298e-21)
(-0.0314568 0.0169351 -2.52059e-19)
(-0.0271089 0.0138963 -4.10247e-19)
(-0.0219518 0.0114235 3.12191e-19)
(-0.0161258 0.00979838 -2.51256e-19)
(-0.00982579 0.00931288 3.56205e-19)
(-0.00324881 0.0102812 -1.00238e-19)
(0.00342348 0.013031 2.07428e-19)
(0.00933331 0.017549 -7.04484e-19)
(-0.00431932 0.00766954 -5.23413e-19)
(-0.0121988 0.0191992 3.43348e-19)
(-0.0198469 0.0271143 4.68454e-20)
(-0.0265075 0.0321754 8.97781e-21)
(-0.0318959 0.0349345 -2.11546e-19)
(-0.0359373 0.0358216 3.10978e-19)
(-0.0386184 0.0352019 3.40218e-20)
(-0.0399643 0.0333842 -6.37295e-20)
(-0.0400203 0.0306327 -2.03392e-19)
(-0.0388385 0.0271817 2.19939e-19)
(-0.0364712 0.0232494 5.55759e-19)
(-0.0329702 0.0190517 -1.23048e-19)
(-0.028391 0.0148158 2.75962e-19)
(-0.0228007 0.0107941 -3.25077e-19)
(-0.0162916 0.00727527 -3.10129e-19)
(-0.00900554 0.00458934 1.87107e-19)
(-0.0011511 0.00310804 3.06709e-19)
(0.00704419 0.00326785 -9.91438e-19)
(0.0153319 0.00556345 1.17633e-19)
(0.0226341 0.0101004 1.57734e-19)
(-0.00517212 0.00850598 3.87197e-19)
(-0.0141617 0.0209801 1.26654e-19)
(-0.0224177 0.0293347 6.63209e-19)
(-0.0292784 0.0345131 3.39946e-20)
(-0.0345345 0.0371815 -7.37229e-20)
(-0.0381724 0.0378421 -3.50569e-19)
(-0.0402287 0.0369038 2.98316e-19)
(-0.0407676 0.0346979 5.3352e-19)
(-0.0398649 0.0314961 3.54972e-19)
(-0.0375955 0.0275284 2.55169e-19)
(-0.0340279 0.0230015 2.19103e-19)
(-0.0292243 0.0181153 -3.94505e-19)
(-0.0232448 0.0130815 -1.23297e-19)
(-0.0161567 0.00814335 -8.99098e-20)
(-0.00804977 0.00359556 9.65345e-19)
(0.000933755 -0.00020011 -4.58801e-21)
(0.0105738 -0.00280009 -2.38431e-19)
(0.0206179 -0.00363188 -7.33401e-20)
(0.0307556 -0.00198174 6.82138e-19)
(0.0396202 0.00244085 9.00017e-20)
(-0.00608618 0.00928674 -1.94635e-20)
(-0.0162001 0.0226018 -3.66048e-19)
(-0.0249834 0.0313225 -5.44367e-19)
(-0.031897 0.0365746 -1.5128e-19)
(-0.0368217 0.0391407 8.33816e-20)
(-0.0398137 0.0395965 1.81302e-20)
(-0.0409651 0.0383956 4.75851e-19)
(-0.0403842 0.0358924 -5.90244e-19)
(-0.0381815 0.0323653 -2.24291e-19)
(-0.0344599 0.0280391 -4.50824e-19)
(-0.0293105 0.0231046 -3.83138e-19)
(-0.0228137 0.0177386 -3.37782e-19)
(-0.0150439 0.0121247 8.4357e-20)
(-0.00607746 0.0064779 -1.08874e-19)
(0.00399048 0.00107314 4.6497e-19)
(0.0150128 -0.00372652 -2.56122e-19)
(0.0267567 -0.0074345 -7.93989e-19)
(0.0389522 -0.00935161 -1.57697e-19)
(0.0512486 -0.0085019 3.88636e-19)
(0.0619239 -0.00433499 -3.3731e-19)
(-0.00704345 0.00998792 -6.18264e-20)
(-0.0182584 0.0240114 4.46348e-19)
(-0.0274441 0.0330093 -5.69485e-19)
(-0.0342118 0.0382854 1.31808e-19)
(-0.0385456 0.0407374 -2.70925e-19)
(-0.0405785 0.0410161 6.02905e-19)
(-0.0404627 0.0396213 -4.30563e-19)
(-0.0383533 0.0369332 4.92077e-19)
(-0.034399 0.0332397 -4.6585e-19)
(-0.0287349 0.0287628 1.9828e-19)
(-0.0214816 0.0236793 -9.64776e-20)
(-0.0127475 0.0181416 -2.40542e-19)
(-0.00263381 0.0122984 -2.95863e-19)
(0.00875811 0.00632171 2.94564e-19)
(0.0213116 0.000439748 -2.45704e-19)
(0.0348603 -0.005024 -5.33937e-19)
(0.0491489 -0.00959337 5.54809e-19)
(0.0638936 -0.0124901 -7.0361e-19)
(0.0787481 -0.0124662 3.15194e-19)
(0.0915963 -0.00865075 6.49038e-21)
(-0.00802159 0.0105851 -5.57054e-19)
(-0.0202703 0.0251532 -6.01949e-19)
(-0.0296851 0.0343216 6.94749e-20)
(-0.0360521 0.0395613 -5.80377e-19)
(-0.0394706 0.0418827 -5.13907e-20)
(-0.0401555 0.0420119 -4.26669e-19)
(-0.0383215 0.0404971 -9.77278e-20)
(-0.0341719 0.0377475 -2.85179e-19)
(-0.0278949 0.0340664 2.89032e-21)
(-0.0196609 0.02968 -1.24339e-19)
(-0.00962581 0.0247589 8.55051e-21)
(0.00206406 0.0194383 -3.57085e-19)
(0.0152655 0.0138368 3.92162e-19)
(0.029831 0.00808009 -5.55061e-19)
(0.045597 0.00233306 1.95552e-19)
(0.0623508 -0.00315886 6.58205e-21)
(0.0797881 -0.00799948 -3.08646e-19)
(0.0975992 -0.0114266 7.61972e-19)
(0.115507 -0.0119775 -1.81474e-19)
(0.131041 -0.00845848 -1.16517e-19)
(-0.00899481 0.0110556 6.24947e-19)
(-0.0221601 0.025973 3.37737e-19)
(-0.0315773 0.0351855 3.14221e-19)
(-0.037229 0.0403159 4.69946e-20)
(-0.0393391 0.0424821 4.24863e-19)
(-0.0382076 0.0424845 6.11965e-19)
(-0.0341128 0.0409209 5.00423e-19)
(-0.027306 0.0382336 4.47088e-20)
(-0.0180143 0.0347477 3.65535e-19)
(-0.00644503 0.0307033 5.63862e-19)
(0.00720657 0.0262781 -1.45704e-19)
(0.0227476 0.0216056 2.44758e-19)
(0.0399777 0.0167913 1.97623e-19)
(0.0586806 0.0119296 2.00808e-19)
(0.0786137 0.0071285 1.17501e-18)
(0.0994795 0.00254025 -4.39888e-19)
(0.120878 -0.00157916 -2.63409e-20)
(0.142427 -0.0046148 5.02389e-19)
(0.163975 -0.00503855 -2.83462e-19)
(0.182886 -0.00142656 1.39928e-19)
(-0.00993478 0.0113798 -5.05073e-19)
(-0.0238434 0.0264227 3.22709e-20)
(-0.0329779 0.0355338 -4.04609e-19)
(-0.0375348 0.0404696 -5.26863e-20)
(-0.0378703 0.0424475 2.96048e-19)
(-0.0343721 0.0423395 -8.8118e-19)
(-0.0273816 0.0407925 -4.40752e-22)
(-0.017197 0.0382841 4.09544e-19)
(-0.00408382 0.0351676 3.83918e-19)
(0.0117136 0.0317063 -1.6932e-19)
(0.0299575 0.028099 5.537e-20)
(0.0504018 0.0244981 1.28632e-19)
(0.0727762 0.0210225 -6.12834e-20)
(0.096774 0.0177698 -6.78176e-19)
(0.122039 0.0148293 1.71849e-19)
(0.148141 0.0122931 4.67378e-19)
(0.174514 0.0102733 -6.64102e-19)
(0.200604 0.00913543 3.2313e-19)
(0.226387 0.0102921 8.57978e-20)
(0.249486 0.0152111 4.30914e-19)
(-0.0108113 0.0115431 -7.45548e-20)
(-0.0252276 0.0264638 -3.54082e-19)
(-0.0337286 0.0353126 1.63009e-19)
(-0.0367402 0.0399596 7.69235e-22)
(-0.034757 0.0417116 -7.1009e-19)
(-0.0282561 0.0415071 1.10897e-19)
(-0.0176427 0.0400392 -2.09563e-20)
(-0.00326157 0.0378209 1.42991e-19)
(0.0145831 0.0352355 -6.53936e-19)
(0.0356083 0.0325755 -4.52836e-20)
(0.0595314 0.0300714 -1.52499e-19)
(0.0860487 0.0279111 1.36366e-19)
(0.114814 0.0262561 4.57132e-19)
(0.145419 0.0252524 -7.08696e-20)
(0.177369 0.0250418 2.71694e-20)
(0.210045 0.0257594 1.77747e-19)
(0.242612 0.0275053 -4.40565e-20)
(0.274129 0.0305277 3.52299e-19)
(0.30445 0.0362386 -2.07966e-19)
(0.331906 0.0458757 -3.21843e-19)
(-0.0115924 0.0115359 6.91542e-20)
(-0.0262103 0.0260698 1.68865e-20)
(-0.0336533 0.0344873 1.41968e-19)
(-0.0345895 0.0387502 3.47767e-19)
(-0.0296587 0.0402432 1.95108e-19)
(-0.0194304 0.0399637 2.03073e-20)
(-0.00437553 0.0386457 -2.32654e-19)
(0.0151105 0.036833 5.97495e-20)
(0.0386801 0.0349358 3.12956e-19)
(0.0660053 0.0332736 -5.29805e-19)
(0.0967533 0.0321065 3.99035e-19)
(0.130562 0.0316603 -3.00092e-19)
(0.167021 0.032147 2.53554e-19)
(0.205647 0.0337863 -5.45401e-19)
(0.245864 0.0368297 5.97283e-19)
(0.286943 0.0415762 -6.37553e-19)
(0.327874 0.0483711 -1.64309e-19)
(0.367296 0.0578765 5.118e-19)
(0.404086 0.0722757 -1.74541e-19)
(0.434936 0.092245 7.38267e-20)
(-0.0122436 0.0113534 -5.23483e-20)
(-0.026678 0.0252282 4.94162e-19)
(-0.0325538 0.0330467 -2.04548e-21)
(-0.030796 0.0368408 -3.06829e-19)
(-0.0221967 0.0380595 -2.06332e-19)
(-0.00742351 0.0377502 3.77973e-19)
(0.0129785 0.0366789 -1.49711e-19)
(0.0385521 0.0354117 -1.88574e-20)
(0.0688896 0.0343756 3.1107e-19)
(0.103598 0.033903 -3.86483e-19)
(0.142274 0.0342646 4.19085e-20)
(0.184481 0.0356959 -5.00067e-19)
(0.229741 0.0384209 2.62208e-19)
(0.277534 0.0426796 -7.48388e-19)
(0.327312 0.0487642 1.18721e-18)
(0.378514 0.057067 -2.17675e-19)
(0.430603 0.0681921 2.23095e-19)
(0.483354 0.0834943 -5.80991e-19)
(0.537191 0.105986 5.57004e-21)
(0.584206 0.13189 6.49452e-19)
(-0.0127268 0.0109949 -1.58634e-19)
(-0.0265026 0.0239397 1.37122e-19)
(-0.0302068 0.031006 -5.04904e-19)
(-0.0250377 0.0342716 7.46831e-19)
(-0.0119504 0.0352357 -5.39189e-19)
(0.00827781 0.0349844 2.77892e-20)
(0.0350107 0.0343053 -5.80992e-19)
(0.0677037 0.0337741 4.15226e-19)
(0.105854 0.0338184 -5.94396e-20)
(0.148961 0.0347611 -3.65393e-19)
(0.196494 0.0368516 -2.12341e-19)
(0.247884 0.040288 2.24782e-19)
(0.302518 0.0452355 1.47726e-19)
(0.35976 0.0518431 -6.51962e-19)
(0.418983 0.0602589 2.3599e-19)
(0.479618 0.0706413 -3.44741e-19)
(0.541223 0.0831778 4.10454e-20)
(0.603699 0.0982731 -2.89668e-19)
(0.667782 0.117039 1.16605e-19)
(0.726501 0.135754 -4.30628e-19)
(-0.0129977 0.0104622 4.51623e-19)
(-0.0255387 0.0222187 -2.73534e-19)
(-0.0263609 0.0284073 2.25432e-19)
(-0.0169571 0.0311262 -2.84641e-19)
(0.00153878 0.0319078 4.77187e-19)
(0.028219 0.0318652 -8.38645e-21)
(0.0623253 0.0317934 -5.80142e-20)
(0.103182 0.0322623 -4.29635e-20)
(0.150134 0.0336796 2.64582e-19)
(0.202499 0.0363327 4.48958e-19)
(0.259543 0.0404162 -2.65074e-19)
(0.320472 0.0460506 2.5691e-19)
(0.384442 0.0532966 4.6728e-19)
(0.450592 0.0621645 -3.27907e-19)
(0.518084 0.0726205 -6.60575e-19)
(0.586153 0.084583 1.20414e-18)
(0.654159 0.0979075 -2.15536e-19)
(0.721668 0.112423 -6.956e-20)
(0.788802 0.128402 7.38065e-19)
(0.850707 0.145003 -1.58193e-19)
(-0.0130045 0.00975963 -7.35442e-19)
(-0.0236217 0.0200921 -4.89641e-19)
(-0.0207371 0.0253204 -1.88003e-19)
(-0.00616557 0.0275315 3.62719e-19)
(0.0187553 0.0282721 -8.18863e-19)
(0.0529535 0.0286668 4.23988e-19)
(0.0954989 0.0295013 5.37022e-20)
(0.145518 0.031318 5.41838e-20)
(0.202121 0.0344789 -5.54329e-19)
(0.264352 0.039204 -1.95507e-19)
(0.331175 0.0455974 -3.43687e-19)
(0.401475 0.0536654 3.31264e-19)
(0.474094 0.0633315 9.30366e-20)
(0.547874 0.0744483 1.72183e-20)
(0.621713 0.0868058 4.25626e-19)
(0.694616 0.100134 -4.32311e-19)
(0.765732 0.114094 -1.76396e-20)
(0.834394 0.128297 1.19845e-20)
(0.900261 0.142571 5.96794e-20)
(0.960744 0.158338 3.27154e-19)
(-0.0126862 0.00889369 2.34188e-19)
(-0.0205665 0.0176002 6.03242e-19)
(-0.0130322 0.0218426 4.84157e-19)
(0.00774503 0.0236568 -1.66896e-19)
(0.0401866 0.0245801 5.80447e-19)
(0.0830033 0.0257288 -4.89154e-20)
(0.13502 0.0278554 -6.88459e-20)
(0.195073 0.0314453 4.10734e-20)
(0.261932 0.0367792 5.60082e-19)
(0.33426 0.0439702 3.28591e-19)
(0.410617 0.0529909 9.58895e-20)
(0.489494 0.0636974 6.2039e-21)
(0.569374 0.0758515 -6.31058e-19)
(0.648798 0.089142 5.4802e-19)
(0.726438 0.103204 9.31015e-20)
(0.801146 0.117635 -1.54139e-19)
(0.871994 0.132004 -6.61131e-19)
(0.938291 0.145878 -5.43243e-20)
(0.999559 0.158824 2.58745e-19)
(1.0552 0.173699 -5.19187e-20)
(-0.0119718 0.00787377 -5.94473e-19)
(-0.0161702 0.0147983 2.48735e-19)
(-0.00292655 0.0180994 -1.21433e-18)
(0.0251853 0.0197122 4.97357e-19)
(0.0662916 0.021133 -3.96633e-19)
(0.118809 0.0234424 2.92357e-19)
(0.181217 0.0273254 -4.54014e-19)
(0.251944 0.033169 4.18132e-20)
(0.329294 0.0411256 -2.32884e-20)
(0.411444 0.0511522 1.21603e-19)
(0.496473 0.0630461 1.75057e-19)
(0.582447 0.0764804 -3.30831e-19)
(0.667512 0.0910408 1.75145e-19)
(0.749988 0.106262 1.60024e-19)
(0.828446 0.121661 6.86225e-19)
(0.901756 0.136762 -2.99069e-19)
(0.96911 0.151118 -1.96333e-19)
(1.03002 0.164351 3.28874e-19)
(1.08418 0.175967 1.72768e-19)
(1.13228 0.189429 -3.28857e-19)
(-0.0107808 0.00671384 5.20796e-19)
(-0.0102156 0.011759 5.02138e-19)
(0.00990396 0.0142467 1.44851e-19)
(0.0465454 0.0159472 6.10154e-19)
(0.0974629 0.0182744 2.99689e-19)
(0.160674 0.0222341 -5.4024e-19)
(0.234184 0.0283953 8.1781e-19)
(0.315873 0.036991 -4.02281e-19)
(0.403465 0.0479861 4.01003e-19)
(0.494557 0.0611269 5.17803e-19)
(0.586728 0.0759937 -2.95676e-19)
(0.677659 0.092056 5.62446e-20)
(0.76527 0.108729 3.114e-19)
(0.847823 0.125425 2.18543e-19)
(0.923988 0.141595 5.0048e-19)
(0.992871 0.156761 -2.01448e-19)
(1.05399 0.170533 -2.57961e-20)
(1.10726 0.18264 3.11039e-19)
(1.15277 0.19269 -6.73793e-20)
(1.19193 0.204164 -4.91762e-23)
(-0.00902476 0.00543464 -2.68866e-19)
(-0.00247843 0.00857607 -9.88088e-19)
(0.025773 0.0104722 2.32679e-19)
(0.0721674 0.0126486 -1.77135e-19)
(0.133984 0.0163817 -4.0884e-19)
(0.208707 0.0225469 -2.91779e-19)
(0.293713 0.0315326 -1.80045e-19)
(0.386197 0.0433469 4.37328e-19)
(0.483198 0.0577 -2.5956e-19)
(0.581713 0.0740757 -2.65615e-19)
(0.678868 0.0918097 -3.34762e-19)
(0.772098 0.110172 -5.52798e-20)
(0.859293 0.12844 -3.81053e-20)
(0.93889 0.145962 -7.67167e-19)
(1.00989 0.162199 3.69459e-19)
(1.07186 0.176744 -4.86345e-19)
(1.1248 0.18933 1.50689e-19)
(1.16913 0.199836 -1.14777e-18)
(1.20545 0.208071 3.46438e-19)
(1.23548 0.217169 4.33847e-19)
(-0.00660968 0.00406594 -6.75105e-20)
(0.00726364 0.00536824 4.82053e-19)
(0.0449652 0.00699771 3.09079e-20)
(0.102316 0.010138 7.43558e-20)
(0.17599 0.0158548 -1.51151e-19)
(0.262772 0.0248189 -2.52148e-21)
(0.359253 0.0371553 -3.74935e-21)
(0.461821 0.0525652 -9.08521e-20)
(0.566788 0.0704385 3.22679e-19)
(0.670605 0.0899595 1.24531e-19)
(0.770104 0.110221 5.63498e-19)
(0.862701 0.130329 -1.53622e-19)
(0.946521 0.149493 1.06626e-19)
(1.02043 0.167081 -1.34028e-20)
(1.08399 0.182643 2.93771e-19)
(1.13735 0.195918 1.78678e-19)
(1.18112 0.206814 4.27799e-19)
(1.21621 0.215375 -6.8927e-19)
(1.24367 0.221642 8.6383e-19)
(1.26536 0.228253 -2.73218e-19)
(-0.00343979 0.00264872 -6.28391e-19)
(0.0192194 0.00228191 -1.96129e-19)
(0.0677157 0.00407919 1.53297e-19)
(0.137148 0.00876526 9.66441e-20)
(0.223424 0.017101 9.90404e-20)
(0.322455 0.0294575 1.00245e-19)
(0.429894 0.0455981 -2.51046e-19)
(0.541255 0.0648335 -1.03375e-19)
(0.65217 0.0861826 3.23238e-20)
(0.758712 0.108525 -3.06016e-19)
(0.85767 0.130749 -1.37745e-19)
(0.946738 0.151877 8.32371e-19)
(1.02456 0.171142 -2.14829e-19)
(1.09065 0.188023 -2.94259e-19)
(1.14528 0.202245 -1.38367e-19)
(1.18926 0.213741 9.64887e-20)
(1.22375 0.222615 1.16033e-19)
(1.25011 0.229079 -5.55306e-19)
(1.2697 0.233371 8.00439e-19)
(1.28435 0.237629 -6.92335e-19)
(0.000578305 0.00123684 -7.10993e-20)
(0.0335715 -0.000507315 2.03597e-20)
(0.0941884 0.00200414 -2.59744e-20)
(0.176682 0.00889902 3.79416e-19)
(0.276014 0.0205163 2.09023e-20)
(0.387046 0.0368125 1.3917e-19)
(0.504389 0.0570835 -2.89157e-19)
(0.622703 0.0801786 -1.04311e-20)
(0.737101 0.104727 4.00587e-19)
(0.843548 0.129342 5.54944e-20)
(0.939122 0.152794 -3.47554e-19)
(1.0221 0.174124 -3.04064e-20)
(1.09189 0.192696 -2.83152e-19)
(1.14883 0.208193 2.82643e-19)
(1.1939 0.220563 3.89829e-19)
(1.22855 0.229961 -4.28944e-20)
(1.25439 0.23668 -5.1667e-20)
(1.27305 0.24107 1.57598e-19)
(1.28607 0.243513 -5.03703e-19)
(1.29518 0.245709 4.44055e-19)
(0.00553078 -0.000102118 7.14121e-20)
(0.0504626 -0.00279529 -4.60602e-19)
(0.124455 0.00108587 1.23274e-19)
(0.220775 0.0109131 -3.82262e-19)
(0.333255 0.0264633 1.31448e-19)
(0.455554 0.0471489 -4.87715e-19)
(0.581221 0.0717004 1.96559e-19)
(0.704196 0.0984644 -6.25636e-20)
(0.819354 0.12571 -2.54089e-21)
(0.922907 0.151871 6.35707e-20)
(1.01257 0.175718 -2.31514e-19)
(1.08748 0.196436 -3.2931e-19)
(1.14796 0.21362 -6.70003e-20)
(1.19519 0.227211 -3.00481e-20)
(1.23085 0.237413 -7.61779e-20)
(1.25685 0.244589 -2.468e-20)
(1.2751 0.249187 -7.381e-20)
(1.28736 0.251655 -6.3828e-20)
(1.29518 0.252459 -1.88547e-19)
(1.30012 0.252946 2.97953e-19)
(0.0114914 -0.00128678 1.71733e-19)
(0.0699817 -0.00435261 -1.90681e-19)
(0.158475 0.00165393 4.10305e-19)
(0.269108 0.0151686 -1.7708e-19)
(0.394405 0.035247 4.73165e-19)
(0.526746 0.0606261 6.82028e-21)
(0.658702 0.0893969 2.37238e-19)
(0.783756 0.119411 -6.35179e-20)
(0.896924 0.148661 2.64154e-19)
(0.995054 0.175534 1.87733e-20)
(1.07681 0.19894 6.25618e-19)
(1.14236 0.218319 -4.31227e-19)
(1.19301 0.23357 5.84016e-20)
(1.23069 0.244925 1.1079e-19)
(1.25763 0.252825 5.74243e-19)
(1.27605 0.257812 -2.06116e-19)
(1.28798 0.26044 -4.06497e-20)
(1.29515 0.261208 -2.13604e-19)
(1.29902 0.260616 -2.19345e-20)
(1.30097 0.259741 1.06399e-19)
(0.018516 -0.00222301 -8.23821e-20)
(0.0921513 -0.00493043 2.38e-19)
(0.196084 0.00404109 -2.43675e-19)
(0.321177 0.0219944 9.62018e-20)
(0.458517 0.0470937 -1.14979e-19)
(0.59922 0.0772841 4.21793e-19)
(0.735096 0.109988 -5.87551e-20)
(0.859557 0.142632 1.44126e-19)
(0.968185 0.173067 -8.49558e-20)
(1.05883 0.199791 -2.20298e-21)
(1.13132 0.221988 9.62886e-20)
(1.18694 0.239444 -7.43397e-20)
(1.22787 0.252396 1.92557e-19)
(1.25668 0.261357 -9.60012e-20)
(1.27594 0.266972 -4.19403e-19)
(1.288 0.269908 4.16097e-19)
(1.29487 0.270777 -1.86514e-19)
(1.29815 0.270087 1.48753e-19)
(1.29913 0.268337 2.56538e-19)
(1.29899 0.266395 1.0499e-19)
(0.0266377 -0.00280594 2.05012e-19)
(0.116916 -0.00426886 -4.22426e-19)
(0.23698 0.00856778 8.07872e-20)
(0.376302 0.0316663 -5.86344e-20)
(0.524475 0.0621337 -2.36358e-19)
(0.671489 0.0970427 -1.85259e-19)
(0.808749 0.133181 -3.64473e-20)
(0.930056 0.167679 -3.2939e-19)
(1.03198 0.198423 -1.99294e-20)
(1.11366 0.224182 -6.09769e-20)
(1.17618 0.244528 -1.65093e-19)
(1.2219 0.259641 -3.67672e-20)
(1.25372 0.270095 -1.25789e-19)
(1.27465 0.276647 -2.08744e-19)
(1.28742 0.280095 2.12964e-19)
(1.29435 0.281175 2.87756e-20)
(1.2973 0.280512 5.72771e-20)
(1.2977 0.27859 -2.43193e-19)
(1.29663 0.275891 -6.43593e-21)
(1.29507 0.273113 -3.71893e-19)
(0.0358614 -0.00292289 2.2466e-19)
(0.144136 -0.00210742 1.49837e-19)
(0.280729 0.0155251 -2.41585e-19)
(0.433652 0.0443892 3.77147e-19)
(0.591055 0.0803928 -4.0696e-20)
(0.742082 0.119712 1.40641e-19)
(0.878198 0.158605 4.8636e-20)
(0.994076 0.19409 1.71863e-19)
(1.08764 0.22428 -1.34551e-19)
(1.15947 0.24836 4.46145e-20)
(1.21192 0.266361 -4.28042e-20)
(1.24824 0.278872 -1.86257e-20)
(1.27188 0.286767 3.55629e-20)
(1.28606 0.290996 -6.52165e-20)
(1.29353 0.292449 -1.98197e-20)
(1.29644 0.291884 -6.07853e-20)
(1.29645 0.289902 -9.85097e-20)
(1.29476 0.286941 6.37264e-20)
(1.29227 0.28346 -8.65431e-20)
(1.28976 0.280013 3.73924e-19)
(0.0461609 -0.0024573 -1.12144e-19)
(0.173582 0.00180308 -3.17696e-19)
(0.32677 0.0251579 -4.22504e-20)
(0.492279 0.0602832 -1.15475e-20)
(0.656994 0.101791 -1.42161e-19)
(0.809633 0.145011 -2.33166e-19)
(0.942247 0.185847 7.61452e-20)
(1.05083 0.221425 -1.0459e-19)
(1.13493 0.250268 -1.16854e-19)
(1.1966 0.272085 6.49e-20)
(1.23933 0.2874 -4.89565e-20)
(1.26707 0.297186 -9.85859e-20)
(1.28361 0.302564 -2.99914e-21)
(1.29221 0.304615 6.66757e-20)
(1.29545 0.304266 -6.74101e-20)
(1.2953 0.302256 9.36095e-20)
(1.29315 0.299136 2.53236e-20)
(1.29 0.295289 6.30993e-20)
(1.28655 0.29115 1.22032e-19)
(1.28342 0.287147 -1.04285e-19)
(0.0574752 -0.00129334 1.07088e-19)
(0.204935 0.0076879 -9.42374e-21)
(0.374429 0.0376498 4.80689e-20)
(0.551158 0.0793749 -6.51794e-20)
(0.72106 0.126152 5.42776e-21)
(0.87295 0.172596 2.25708e-19)
(1.00001 0.214489 -1.48144e-19)
(1.09992 0.249294 6.2557e-20)
(1.17397 0.276101 5.50303e-20)
(1.22563 0.295212 -1.54372e-19)
(1.25934 0.307637 1.44695e-19)
(1.27951 0.314681 1.26934e-21)
(1.29007 0.317652 -1.01221e-19)
(1.29415 0.317695 1.21837e-19)
(1.29413 0.315731 -4.81153e-20)
(1.29169 0.312449 3.67138e-20)
(1.28801 0.308337 -4.11405e-20)
(1.28384 0.303718 -1.65205e-20)
(1.27977 0.299011 -1.42209e-19)
(1.27624 0.294517 4.34587e-20)
(0.0697076 0.000679132 -3.60698e-20)
(0.237797 0.0157363 9.68577e-20)
(0.422953 0.0531115 1.51149e-20)
(0.609243 0.101596 6.32879e-20)
(0.782112 0.153215 3.01651e-20)
(0.931062 0.202082 1.41428e-20)
(1.05089 0.244126 7.99612e-20)
(1.14125 0.277362 -9.71671e-21)
(1.20515 0.301571 3.50884e-20)
(1.24732 0.317666 5.62467e-20)
(1.27289 0.32711 2.7022e-20)
(1.28657 0.331474 1.9334e-20)
(1.29222 0.332181 7.8248e-20)
(1.29275 0.33039 -7.56978e-20)
(1.29025 0.326977 1.61941e-20)
(1.28616 0.322566 -1.50363e-20)
(1.28139 0.31757 2.33733e-20)
(1.27656 0.312261 1.95241e-20)
(1.27209 0.307042 4.0472e-20)
(1.26833 0.302092 1.67947e-21)
(0.0827271 0.00355931 2.13904e-20)
(0.271697 0.0260905 1.9526e-20)
(0.471531 0.0715723 -2.70252e-20)
(0.665508 0.126789 1.68821e-20)
(0.839149 0.182656 9.51434e-21)
(0.98324 0.233068 -2.96139e-20)
(1.09461 0.274382 9.74137e-21)
(1.17498 0.305356 1.77115e-21)
(1.22899 0.32653 1.67324e-20)
(1.26243 0.339422 -4.47908e-20)
(1.28089 0.34588 -1.11478e-22)
(1.28914 0.347671 1.23157e-20)
(1.29084 0.346272 -9.81486e-21)
(1.28864 0.342809 9.92125e-21)
(1.28432 0.338089 2.57185e-20)
(1.27905 0.332658 -1.45699e-20)
(1.27356 0.326855 4.09548e-21)
(1.26832 0.320909 1.58566e-20)
(1.26362 0.315212 -2.60588e-20)
(1.25974 0.309818 1.25228e-20)
(0.0858376 -0.00356873 6.07176e-20)
(0.27997 -0.0262625 -3.33946e-20)
(0.483818 -0.0719393 3.94521e-20)
(0.680441 -0.127125 -2.93931e-20)
(0.855327 -0.182637 -1.3295e-20)
(0.999468 -0.232401 4.08043e-21)
(1.11005 -0.272879 -1.31447e-20)
(1.18917 -0.302954 4.75173e-20)
(1.24178 -0.323266 -3.97155e-20)
(1.27386 -0.335399 9.04774e-21)
(1.29112 -0.341227 -7.00487e-21)
(1.29835 -0.342518 -4.58393e-20)
(1.29922 -0.340731 4.46061e-20)
(1.29633 -0.336973 1.72553e-20)
(1.29144 -0.332027 -1.66006e-20)
(1.28567 -0.326419 3.98286e-20)
(1.27976 -0.320477 -5.02251e-22)
(1.27412 -0.314417 -3.86921e-20)
(1.26907 -0.308632 2.83451e-20)
(1.26486 -0.303154 9.40229e-21)
(0.0726467 -0.00058407 -2.17257e-20)
(0.245786 -0.0156448 5.91819e-20)
(0.435058 -0.0531447 6.92459e-20)
(0.624258 -0.101611 -3.34724e-20)
(0.798707 -0.15294 5.79153e-20)
(0.94801 -0.201236 9.38992e-20)
(1.06726 -0.242499 -5.2445e-21)
(1.15645 -0.274854 -1.67678e-20)
(1.21891 -0.298182 8.33119e-20)
(1.25963 -0.313472 4.11288e-20)
(1.28387 -0.322227 -7.66849e-21)
(1.2964 -0.326028 6.24701e-20)
(1.30108 -0.326292 -6.68231e-20)
(1.30082 -0.32416 1.07009e-19)
(1.29767 -0.320484 -1.74448e-20)
(1.29302 -0.315871 5.30443e-20)
(1.28778 -0.310716 1.03209e-20)
(1.28253 -0.30528 3.77162e-20)
(1.27768 -0.299963 -3.54178e-20)
(1.27357 -0.29492 9.82535e-21)
(0.0602239 0.00147974 -3.23649e-20)
(0.212573 -0.00735425 7.10479e-20)
(0.386236 -0.0373627 5.30689e-20)
(0.566114 -0.0790686 -8.47754e-21)
(0.737937 -0.125614 8.87647e-20)
(0.890528 -0.171569 -6.96569e-20)
(1.01727 -0.212752 -7.28041e-21)
(1.11617 -0.24671 6.30812e-20)
(1.18882 -0.272633 2.11866e-20)
(1.23896 -0.290901 2.91904e-20)
(1.27121 -0.302579 -4.28863e-20)
(1.29009 -0.308994 1.19801e-19)
(1.29954 -0.311457 2.31271e-20)
(1.3027 -0.3111 -1.0515e-19)
(1.30192 -0.308825 1.61535e-19)
(1.29885 -0.305305 -1.90803e-19)
(1.29462 -0.301005 -9.03796e-20)
(1.29 -0.296241 1.55964e-20)
(1.2855 -0.291418 8.68133e-20)
(1.28161 -0.286819 -1.64217e-19)
(0.0487045 0.00272081 -6.80638e-20)
(0.180808 -0.00125325 -1.60053e-19)