1.275 	2.15223e-18 	-2.76991e-20 	-0.493244
1.825 	2.15223e-18 	-1.39322e-20 	-0.474093
2.375 	2.15223e-18 	1.38775e-18 	-0.271507
2.925 	2.15223e-18 	2.78958e-18 	-0.0914457
3.475 	2.15223e-18 	4.53849e-18 	-0.200309
4.025 	2.15223e-18 	6.28755e-18 	-0.117567
4.575 	2.15223e-18 	6.30203e-18 	-0.085298
5.125 	2.15223e-18 	6.31666e-18 	-0.0965202
5.675 	2.15223e-18 	6.33144e-18 	-0.1546
6.225 	2.15223e-18 	4.61166e-18 	-0.122186
