/*--------------------------------*- C++ -*----------------------------------*\
  =========                 |
  \\      /  F ield         | OpenFOAM: The Open Source CFD Toolbox
   \\    /   O peration     | Website:  https://openfoam.org
    \\  /    A nd           | Version:  6.0
     \\/     M anipulation  |
\*---------------------------------------------------------------------------*/
FoamFile
{
    version     2.0;
    format      ascii;
    class       volScalarField;
    location    "9";
    object      p;
}
// * * * * * * * * * * * * * * * * * * * * * * * * * * * * * * * * * * * * * //

dimensions      [0 2 -2 0 0 0 0];

internalField   nonuniform List<scalar> 
12500
(
-0.304766
-0.306283
-0.307289
-0.308044
-0.308707
-0.309307
-0.309869
-0.310418
-0.31097
-0.311537
-0.312127
-0.312746
-0.3134
-0.314093
-0.314829
-0.315615
-0.316454
-0.317353
-0.318315
-0.31935
-0.320476
-0.321687
-0.322865
-0.323989
-0.32621
-0.30496
-0.306454
-0.307446
-0.308192
-0.308847
-0.30944
-0.309996
-0.31054
-0.311087
-0.311649
-0.312234
-0.312847
-0.313496
-0.314183
-0.314914
-0.315693
-0.316526
-0.317419
-0.318375
-0.319404
-0.320524
-0.321732
-0.322908
-0.324026
-0.326248
-0.305338
-0.306786
-0.307751
-0.308478
-0.309117
-0.309696
-0.310241
-0.310774
-0.31131
-0.311862
-0.312436
-0.313039
-0.313676
-0.314352
-0.31507
-0.315837
-0.316657
-0.317536
-0.318479
-0.319496
-0.320606
-0.321805
-0.322974
-0.324081
-0.326304
-0.305891
-0.307273
-0.308198
-0.308896
-0.309512
-0.310071
-0.310597
-0.311113
-0.311633
-0.312169
-0.312726
-0.313312
-0.313931
-0.314588
-0.315287
-0.316034
-0.316833
-0.317691
-0.318614
-0.319612
-0.320703
-0.321888
-0.323046
-0.324136
-0.326356
-0.306605
-0.307903
-0.308776
-0.309437
-0.310022
-0.310554
-0.311055
-0.311547
-0.312045
-0.312557
-0.313091
-0.313653
-0.314247
-0.314878
-0.315549
-0.316267
-0.317037
-0.317866
-0.31876
-0.319729
-0.320795
-0.321959
-0.323099
-0.324163
-0.326377
-0.307461
-0.308661
-0.309472
-0.310089
-0.310636
-0.311133
-0.311603
-0.312065
-0.312532
-0.313014
-0.313517
-0.314047
-0.314607
-0.315203
-0.315838
-0.316517
-0.317248
-0.318037
-0.318892
-0.319823
-0.320853
-0.321987
-0.323103
-0.324133
-0.326333
-0.308441
-0.309532
-0.310274
-0.31084
-0.311341
-0.311797
-0.312227
-0.312651
-0.313081
-0.313524
-0.313988
-0.314476
-0.314993
-0.315544
-0.316131
-0.316762
-0.317443
-0.318181
-0.318985
-0.319866
-0.320849
-0.321943
-0.323025
-0.324012
-0.326188
-0.309524
-0.310499
-0.311166
-0.311675
-0.312124
-0.312531
-0.312915
-0.313293
-0.313676
-0.314072
-0.314486
-0.314924
-0.315387
-0.315881
-0.316411
-0.316981
-0.317599
-0.318273
-0.319012
-0.319831
-0.320754
-0.321795
-0.322833
-0.323768
-0.32591
-0.31069
-0.311546
-0.312134
-0.312581
-0.312972
-0.313324
-0.313654
-0.313978
-0.314305
-0.314644
-0.314999
-0.315374
-0.315773
-0.316199
-0.316657
-0.317153
-0.317695
-0.318291
-0.318952
-0.319694
-0.320543
-0.321518
-0.3225
-0.323373
-0.325471
-0.311918
-0.312658
-0.313165
-0.313546
-0.313874
-0.314165
-0.314433
-0.314693
-0.314956
-0.315227
-0.315512
-0.315814
-0.316136
-0.316482
-0.316856
-0.317264
-0.317715
-0.318218
-0.318786
-0.319435
-0.320195
-0.321089
-0.322002
-0.322806
-0.324849
-0.313192
-0.313821
-0.314248
-0.314561
-0.314821
-0.315043
-0.315242
-0.315431
-0.31562
-0.315814
-0.316018
-0.316236
-0.31647
-0.316723
-0.317
-0.317306
-0.317651
-0.318046
-0.318504
-0.319043
-0.319697
-0.320494
-0.321325
-0.32205
-0.324033
-0.3145
-0.315025
-0.315374
-0.315616
-0.315804
-0.315952
-0.316075
-0.316185
-0.31629
-0.316398
-0.316513
-0.316636
-0.31677
-0.316919
-0.317086
-0.317277
-0.317502
-0.317772
-0.318102
-0.318514
-0.319044
-0.319726
-0.320459
-0.321098
-0.323015
-0.315831
-0.316263
-0.316536
-0.316707
-0.316819
-0.316889
-0.316928
-0.316951
-0.316966
-0.31698
-0.316995
-0.317015
-0.31704
-0.317075
-0.317121
-0.317185
-0.317275
-0.317405
-0.317592
-0.317857
-0.318243
-0.318788
-0.319404
-0.319945
-0.321793
-0.31718
-0.317531
-0.317732
-0.31783
-0.317865
-0.31785
-0.317801
-0.317731
-0.317649
-0.317561
-0.317471
-0.31738
-0.31729
-0.317202
-0.317119
-0.317045
-0.31699
-0.316966
-0.316991
-0.317091
-0.317309
-0.317694
-0.318167
-0.318592
-0.320364
-0.318549
-0.31883
-0.318963
-0.318988
-0.318941
-0.318839
-0.318697
-0.318528
-0.318344
-0.31815
-0.317949
-0.317743
-0.317533
-0.317319
-0.317101
-0.316884
-0.316675
-0.316485
-0.316333
-0.316246
-0.316271
-0.316464
-0.31676
-0.317037
-0.318718
-0.319943
-0.320165
-0.320233
-0.320184
-0.320053
-0.319859
-0.319619
-0.319348
-0.319057
-0.318754
-0.31844
-0.318119
-0.317788
-0.317446
-0.317093
-0.316731
-0.316363
-0.316
-0.315657
-0.315362
-0.315165
-0.315127
-0.315198
-0.315275
-0.31683
-0.321371
-0.321543
-0.321549
-0.321424
-0.321207
-0.320917
-0.320575
-0.320198
-0.319799
-0.319384
-0.318959
-0.318522
-0.318073
-0.317607
-0.317123
-0.316618
-0.316092
-0.315552
-0.315008
-0.314486
-0.314035
-0.31372
-0.3135
-0.313294
-0.314654
-0.322848
-0.322977
-0.322921
-0.322719
-0.32241
-0.322021
-0.321574
-0.321088
-0.320579
-0.320054
-0.319517
-0.318968
-0.318406
-0.317823
-0.317215
-0.316574
-0.315896
-0.31518
-0.314431
-0.313664
-0.312925
-0.312278
-0.311684
-0.311075
-0.312124
-0.324394
-0.324483
-0.324364
-0.32408
-0.323676
-0.323183
-0.322626
-0.322029
-0.321408
-0.320772
-0.320126
-0.319471
-0.318801
-0.31811
-0.317387
-0.316621
-0.3158
-0.314915
-0.313958
-0.312935
-0.311876
-0.310837
-0.30977
-0.308598
-0.309161
-0.326029
-0.326078
-0.325892
-0.325521
-0.325017
-0.324414
-0.323743
-0.323032
-0.322297
-0.32155
-0.320798
-0.320039
-0.319268
-0.318476
-0.317648
-0.316768
-0.315816
-0.31477
-0.31361
-0.312322
-0.310915
-0.309426
-0.307779
-0.305852
-0.305684
-0.327781
-0.327785
-0.327525
-0.327059
-0.326447
-0.325728
-0.324938
-0.324107
-0.323256
-0.322397
-0.321538
-0.320678
-0.319811
-0.318924
-0.318
-0.317016
-0.315944
-0.314749
-0.313394
-0.311841
-0.310069
-0.308083
-0.305761
-0.302879
-0.30168
-0.329675
-0.329625
-0.329282
-0.328713
-0.327983
-0.32714
-0.326224
-0.325268
-0.324296
-0.323323
-0.322356
-0.321395
-0.320433
-0.319455
-0.318441
-0.317362
-0.31618
-0.314851
-0.313317
-0.311513
-0.309383
-0.306888
-0.303845
-0.299861
-0.297294
-0.331741
-0.331623
-0.331185
-0.330501
-0.329644
-0.328667
-0.327616
-0.326529
-0.325431
-0.324339
-0.32326
-0.322196
-0.321139
-0.320072
-0.318972
-0.317807
-0.316531
-0.315089
-0.313405
-0.311386
-0.308932
-0.30595
-0.302177
-0.296966
-0.292595
-0.33401
-0.333805
-0.333257
-0.332445
-0.331447
-0.330326
-0.329132
-0.327905
-0.326673
-0.325456
-0.324262
-0.323092
-0.321938
-0.320784
-0.319606
-0.31837
-0.31703
-0.315523
-0.313764
-0.311634
-0.308982
-0.305628
-0.301127
-0.294376
-0.28742
-0.336512
-0.336198
-0.335522
-0.334566
-0.333414
-0.332137
-0.330789
-0.329413
-0.328041
-0.326693
-0.325378
-0.324098
-0.322847
-0.32161
-0.320367
-0.319088
-0.317737
-0.316265
-0.314607
-0.312672
-0.310336
-0.307405
-0.303277
-0.296406
-0.288318
-0.339277
-0.338829
-0.338004
-0.336887
-0.335567
-0.33412
-0.332607
-0.331074
-0.329554
-0.328068
-0.326628
-0.325235
-0.323886
-0.322571
-0.321275
-0.319982
-0.318673
-0.317336
-0.315967
-0.314586
-0.313268
-0.312169
-0.31151
-0.312452
-0.321106
-0.342336
-0.341723
-0.340727
-0.339431
-0.337927
-0.336298
-0.334609
-0.332909
-0.331234
-0.329604
-0.328034
-0.326526
-0.325079
-0.323688
-0.322345
-0.321046
-0.319793
-0.318601
-0.31751
-0.316602
-0.316028
-0.316042
-0.317
-0.319923
-0.329144
-0.345719
-0.344909
-0.343718
-0.342223
-0.340518
-0.338693
-0.336817
-0.334943
-0.333105
-0.331327
-0.329622
-0.327995
-0.326448
-0.324978
-0.323585
-0.322275
-0.321064
-0.319985
-0.319099
-0.318507
-0.318368
-0.318913
-0.320417
-0.323406
-0.330629
-0.349453
-0.348411
-0.346999
-0.345287
-0.343364
-0.34133
-0.339257
-0.337199
-0.335193
-0.333261
-0.331417
-0.329666
-0.328012
-0.326455
-0.324999
-0.323655
-0.322445
-0.321411
-0.320613
-0.320145
-0.320134
-0.320741
-0.322128
-0.324493
-0.329578
-0.353567
-0.352256
-0.350597
-0.348646
-0.34649
-0.344233
-0.341953
-0.339705
-0.337523
-0.335431
-0.333441
-0.331558
-0.329784
-0.328121
-0.326574
-0.325155
-0.323887
-0.322804
-0.321961
-0.321424
-0.321278
-0.321615
-0.322504
-0.323963
-0.327052
-0.358085
-0.356467
-0.354534
-0.352326
-0.349919
-0.347428
-0.344932
-0.342485
-0.340121
-0.33786
-0.335714
-0.333683
-0.331769
-0.329971
-0.328292
-0.326742
-0.325337
-0.324105
-0.323082
-0.322312
-0.321838
-0.321703
-0.32192
-0.322426
-0.323835
-0.36303
-0.361067
-0.358834
-0.356349
-0.353678
-0.350941
-0.348219
-0.345565
-0.343009
-0.340568
-0.338248
-0.336047
-0.333961
-0.331987
-0.330122
-0.328371
-0.326745
-0.325262
-0.323941
-0.322806
-0.321877
-0.321162
-0.320651
-0.320253
-0.320307
-0.368426
-0.366078
-0.36352
-0.360739
-0.35779
-0.354796
-0.35184
-0.348968
-0.346207
-0.343568
-0.34105
-0.338645
-0.336345
-0.33414
-0.332024
-0.329996
-0.328062
-0.32623
-0.324512
-0.322919
-0.321455
-0.320117
-0.318888
-0.317677
-0.316672
-0.374288
-0.371518
-0.36861
-0.365519
-0.362279
-0.359017
-0.355815
-0.352712
-0.349728
-0.346865
-0.344114
-0.341462
-0.338893
-0.336392
-0.333951
-0.331565
-0.329238
-0.326973
-0.324778
-0.32266
-0.320621
-0.318655
-0.316748
-0.314824
-0.312993
-0.380631
-0.377402
-0.374122
-0.370706
-0.367163
-0.363624
-0.360162
-0.356811
-0.353577
-0.350455
-0.347427
-0.344471
-0.341565
-0.338695
-0.335849
-0.333025
-0.330224
-0.327454
-0.324723
-0.32204
-0.319409
-0.316829
-0.314296
-0.311746
-0.309261
-0.387463
-0.383741
-0.380069
-0.376316
-0.372461
-0.368631
-0.364894
-0.361268
-0.357751
-0.354323
-0.350959
-0.347629
-0.344312
-0.340992
-0.33766
-0.334318
-0.330975
-0.327641
-0.324333
-0.321061
-0.317838
-0.31467
-0.311558
-0.308454
-0.305432
-0.394788
-0.390539
-0.386459
-0.382359
-0.378181
-0.374046
-0.370011
-0.366078
-0.362231
-0.358438
-0.354666
-0.350885
-0.347073
-0.343218
-0.33932
-0.335391
-0.331446
-0.327506
-0.323593
-0.319725
-0.315921
-0.312191
-0.308543
-0.304939
-0.301453
-0.402597
-0.397795
-0.393294
-0.388838
-0.384326
-0.379868
-0.375504
-0.37122
-0.366984
-0.362754
-0.358493
-0.354172
-0.349776
-0.345304
-0.340769
-0.336191
-0.331599
-0.327023
-0.322492
-0.318031
-0.313661
-0.309397
-0.305249
-0.301185
-0.297279
-0.410875
-0.405496
-0.400564
-0.395746
-0.390887
-0.386081
-0.381349
-0.376658
-0.37196
-0.367209
-0.362368
-0.357415
-0.352348
-0.347182
-0.341944
-0.33667
-0.3314
-0.326172
-0.321021
-0.315977
-0.31106
-0.306288
-0.30167
-0.297177
-0.292879
-0.419595
-0.41362
-0.408252
-0.403066
-0.397843
-0.392657
-0.387506
-0.382338
-0.377095
-0.371728
-0.366208
-0.36053
-0.35471
-0.348781
-0.342788
-0.336784
-0.330817
-0.324933
-0.319171
-0.313559
-0.30812
-0.302866
-0.297803
-0.292905
-0.288234
-0.428715
-0.422134
-0.416327
-0.410765
-0.405156
-0.399549
-0.393917
-0.38819
-0.382305
-0.37622
-0.369923
-0.36343
-0.356781
-0.350033
-0.343249
-0.336494
-0.329825
-0.323292
-0.316933
-0.310776
-0.304837
-0.299126
-0.293644
-0.288361
-0.283336
-0.43818
-0.430988
-0.424744
-0.418798
-0.412775
-0.406694
-0.400504
-0.394124
-0.387492
-0.380585
-0.373414
-0.366024
-0.358485
-0.350876
-0.343278
-0.335765
-0.328401
-0.321234
-0.3143
-0.307621
-0.301208
-0.295066
-0.289189
-0.28354
-0.278179
-0.447918
-0.44012
-0.433442
-0.4271
-0.420627
-0.414008
-0.407173
-0.400035
-0.392548
-0.384713
-0.376579
-0.368224
-0.359747
-0.351251
-0.34283
-0.334565
-0.326521
-0.318743
-0.311259
-0.304086
-0.297227
-0.290679
-0.28443
-0.278436
-0.27276
-0.457843
-0.44945
-0.442344
-0.43559
-0.42862
-0.421388
-0.41381
-0.405804
-0.397351
-0.388492
-0.379316
-0.369942
-0.360497
-0.351102
-0.341864
-0.332865
-0.324164
-0.315802
-0.307799
-0.30016
-0.292882
-0.285956
-0.27936
-0.273043
-0.267074
-0.467849
-0.458881
-0.451354
-0.444166
-0.436645
-0.428714
-0.420285
-0.411299
-0.401775
-0.391805
-0.381526
-0.371095
-0.360668
-0.35038
-0.340342
-0.330634
-0.321308
-0.312394
-0.303902
-0.295829
-0.288162
-0.280884
-0.273967
-0.267349
-0.261114
-0.477815
-0.468301
-0.46036
-0.45271
-0.444573
-0.435848
-0.426458
-0.41638
-0.40569
-0.394537
-0.38311
-0.371605
-0.360198
-0.349035
-0.338226
-0.327842
-0.317927
-0.308497
-0.299551
-0.291076
-0.28305
-0.275449
-0.268237
-0.261342
-0.254868
-0.487603
-0.477579
-0.46923
-0.461084
-0.452258
-0.442639
-0.432177
-0.420905
-0.408966
-0.396577
-0.383978
-0.371398
-0.35903
-0.347023
-0.335479
-0.32446
-0.313995
-0.304087
-0.294723
-0.28588
-0.277526
-0.269631
-0.262153
-0.255007
-0.248324
-0.497062
-0.48657
-0.477818
-0.469135
-0.45954
-0.448923
-0.437284
-0.424727
-0.411477
-0.397819
-0.384043
-0.370405
-0.357109
-0.344299
-0.332066
-0.320456
-0.309484
-0.299139
-0.289395
-0.280217
-0.271569
-0.263411
-0.255695
-0.248324
-0.241464
-0.506025
-0.495114
-0.485962
-0.476695
-0.466247
-0.454531
-0.441618
-0.427703
-0.413099
-0.398161
-0.383223
-0.368562
-0.354383
-0.34082
-0.327949
-0.315799
-0.304366
-0.293625
-0.28354
-0.274065
-0.265155
-0.256768
-0.248843
-0.241276
-0.23427
-0.514316
-0.50304
-0.493487
-0.483585
-0.472199
-0.459291
-0.445022
-0.429695
-0.413717
-0.39751
-0.381445
-0.365811
-0.350805
-0.336548
-0.323094
-0.310455
-0.298609
-0.287518
-0.277132
-0.267398
-0.258262
-0.249677
-0.241575
-0.233841
-0.226723
-0.521749
-0.510165
-0.500211
-0.48962
-0.477214
-0.463028
-0.447341
-0.430572
-0.413224
-0.395781
-0.378641
-0.362095
-0.346328
-0.33144
-0.317465
-0.304393
-0.292185
-0.28079
-0.270145
-0.26019
-0.250865
-0.242118
-0.233871
-0.226001
-0.218805
-0.528133
-0.516301
-0.505943
-0.494607
-0.481106
-0.465576
-0.448428
-0.430212
-0.411522
-0.392896
-0.374749
-0.357365
-0.340911
-0.325462
-0.311029
-0.297581
-0.285064
-0.273412
-0.262554
-0.252419
-0.242943
-0.234069
-0.225711
-0.217736
-0.210496
-0.533275
-0.521259
-0.510491
-0.498359
-0.483698
-0.466772
-0.448148
-0.428505
-0.408525
-0.388786
-0.369713
-0.351574
-0.334512
-0.318576
-0.303752
-0.28999
-0.277219
-0.26536
-0.254333
-0.24406
-0.234473
-0.22551
-0.217075
-0.209028
-0.20178
-0.536985
-0.524846
-0.513664
-0.500689
-0.484817
-0.46647
-0.446378
-0.425351
-0.404153
-0.383391
-0.363484
-0.344681
-0.327096
-0.31075
-0.295605
-0.281591
-0.268622
-0.256608
-0.24546
-0.235095
-0.225438
-0.216424
-0.207947
-0.199863
-0.192643
-0.539076
-0.526877
-0.515278
-0.50142
-0.484305
-0.464531
-0.443006
-0.420667
-0.398341
-0.376657
-0.35602
-0.336651
-0.318632
-0.301956
-0.286562
-0.272361
-0.259253
-0.247137
-0.235917
-0.225504
-0.21582
-0.206795
-0.198314
-0.190228
-0.183073
-0.53937
-0.527175
-0.515156
-0.500388
-0.482015
-0.460838
-0.43794
-0.414378
-0.391034
-0.368541
-0.347284
-0.327451
-0.309092
-0.292169
-0.2766
-0.262278
-0.24909
-0.236928
-0.225688
-0.215274
-0.205607
-0.196613
-0.188165
-0.180113
-0.17306
-0.537703
-0.525572
-0.513136
-0.497443
-0.477821
-0.455285
-0.4311
-0.406427
-0.382188
-0.35901
-0.337249
-0.317058
-0.298452
-0.281368
-0.265699
-0.251324
-0.238119
-0.225968
-0.214759
-0.204394
-0.194789
-0.185868
-0.177493
-0.169514
-0.162599
-0.533925
-0.521916
-0.50907
-0.492453
-0.471612
-0.447791
-0.422424
-0.396767
-0.371768
-0.348036
-0.325893
-0.305453
-0.286697
-0.269537
-0.253845
-0.239487
-0.226329
-0.214246
-0.203123
-0.192857
-0.183362
-0.174557
-0.166296
-0.158427
-0.151689
-0.527902
-0.516075
-0.502833
-0.485307
-0.4633
-0.438288
-0.411868
-0.385369
-0.359754
-0.335604
-0.313202
-0.292622
-0.273815
-0.256665
-0.241029
-0.226759
-0.213712
-0.201757
-0.190775
-0.180659
-0.171322
-0.16268
-0.154573
-0.146857
-0.140332
-0.519524
-0.507933
-0.494317
-0.475918
-0.452819
-0.426733
-0.399401
-0.372215
-0.346133
-0.321705
-0.299169
-0.278562
-0.259802
-0.24275
-0.227248
-0.213137
-0.200267
-0.188501
-0.177716
-0.167803
-0.158674
-0.150239
-0.142332
-0.134808
-0.128535
-0.508701
-0.497401
-0.48344
-0.464218
-0.440124
-0.413098
-0.385012
-0.357301
-0.330908
-0.306342
-0.283798
-0.263273
-0.244657
-0.227791
-0.212502
-0.198622
-0.185995
-0.17448
-0.16395
-0.154295
-0.145423
-0.137245
-0.129581
-0.122292
-0.116308
-0.49537
-0.484413
-0.470144
-0.450167
-0.425193
-0.397378
-0.368705
-0.340636
-0.314088
-0.289525
-0.267097
-0.246764
-0.228389
-0.211796
-0.196799
-0.183223
-0.170905
-0.159703
-0.149486
-0.140143
-0.131581
-0.123707
-0.116334
-0.109325
-0.103668
-0.479489
-0.468926
-0.454398
-0.43375
-0.408026
-0.379584
-0.3505
-0.322243
-0.295697
-0.271276
-0.249086
-0.229052
-0.211013
-0.194778
-0.18015
-0.166949
-0.155008
-0.144181
-0.134336
-0.125361
-0.117162
-0.109644
-0.102609
-0.095926
-0.0906346
-0.461047
-0.450925
-0.436194
-0.414973
-0.388645
-0.359749
-0.330432
-0.302159
-0.275768
-0.251625
-0.22979
-0.210159
-0.192549
-0.176754
-0.162573
-0.149817
-0.138318
-0.127929
-0.118516
-0.109965
-0.102184
-0.0950735
-0.0884274
-0.0821195
-0.0772312
-0.440055
-0.430423
-0.415551
-0.39387
-0.367093
-0.337922
-0.308553
-0.280431
-0.254346
-0.23061
-0.209245
-0.190116
-0.173024
-0.157751
-0.144088
-0.131846
-0.120855
-0.110965
-0.102043
-0.0939745
-0.0866669
-0.0800177
-0.0738145
-0.0679327
-0.0634854
-0.416554
-0.407457
-0.392515
-0.370495
-0.343433
-0.314169
-0.284927
-0.257121
-0.231485
-0.208282
-0.187495
-0.168963
-0.152471
-0.137795
-0.124722
-0.11306
-0.102639
-0.0933088
-0.0849366
-0.077408
-0.0706308
-0.0645001
-0.0587974
-0.0533975
-0.0494319
-0.390607
-0.382089
-0.367156
-0.344926
-0.317749
-0.288574
-0.259635
-0.232302
-0.207252
-0.1847
-0.164591
-0.146744
-0.130931
-0.116923
-0.104505
-0.0934847
-0.0836926
-0.07498
-0.067215
-0.0602842
-0.054096
-0.0485438
-0.0434045
-0.0385498
-0.0351142
-0.362305
-0.354408
-0.339565
-0.317263
-0.290141
-0.261235
-0.232768
-0.206058
-0.181724
-0.159931
-0.140594
-0.123513
-0.108451
-0.0951747
-0.0834703
-0.0731471
-0.0640383
-0.0559972
-0.0488943
-0.042618
-0.037078
-0.0321673
-0.0276613
-0.0234268
-0.0205792
-0.331761
-0.324524
-0.309859
-0.287625
-0.260728
-0.232267
-0.204434
-0.178488
-0.154989
-0.134056
-0.115575
-0.0993315
-0.0850828
-0.0725947
-0.061655
-0.052077
-0.0436981
-0.0363759
-0.029985
-0.024417
-0.0195838
-0.0153805
-0.0115864
-0.00805981
-0.00585494
-0.29911
-0.292571
-0.278172
-0.256147
-0.229645
-0.201796
-0.17475
-0.1497
-0.127145
-0.107163
-0.0896141
-0.0742716
-0.0608897
-0.0492356
-0.0391012
-0.0303056
-0.0226924
-0.016126
-0.0104873
-0.00567387
-0.00160201
0.00182695
0.00482301
0.0075485
0.0090728
-0.264508
-0.258702
-0.244659
-0.222984
-0.19704
-0.169963
-0.143847
-0.119813
-0.0983024
-0.0793522
-0.0628015
-0.048414
-0.0359427
-0.025158
-0.0158579
-0.00786876
-0.00104278
0.0047466
0.0096086
0.013636
0.0169042
0.0195002
0.0216161
0.0234441
0.0242226
-0.228129
-0.223088
-0.209492
-0.188305
-0.163074
-0.136921
-0.111866
-0.0889585
-0.0685813
-0.0507349
-0.0352392
-0.0218513
-0.0103244
-0.000433554
0.00801603
0.0151889
0.0212226
0.0262314
0.0303103
0.0335369
0.0359744
0.0376942
0.0388488
0.039619
0.0394065
-0.190163
-0.185917
-0.172855
-0.15229
-0.127921
-0.102831
-0.0789585
-0.0572771
-0.0381129
-0.021433
-0.00704099
0.00531148
0.0158698
0.0248538
0.0324506
0.0388149
0.044072
0.0483199
0.0516316
0.0540598
0.0556498
0.0564425
0.0564717
0.05577
0.0540256
-0.150816
-0.147389
-0.134946
-0.115131
-0.0917641
-0.0678656
-0.045285
-0.0249184
-0.0070381
0.00842019
0.0216672
0.0329553
0.0425288
0.0506034
0.0573602
0.0629467
0.0674777
0.0710347
0.0736639
0.0753858
0.0762173
0.0761167
0.0748103
0.0719808
0.0681896
-0.110303
-0.107718
-0.0959748
-0.0770304
-0.0547925
-0.0322025
-0.0110122
0.00796014
0.024494
0.0386818
0.0507469
0.0609452
0.0695203
0.076686
0.082622
0.0874754
0.0913616
0.0943614
0.0965173
0.0978526
0.0983966
0.0980143
0.0959755
0.0915667
0.0868803
-0.0688516
-0.0671257
-0.0561577
-0.0381946
-0.0172023
0.00397451
0.0236875
0.0411959
0.056328
0.0692016
0.0800505
0.089133
0.096692
0.10294
0.108059
0.1122
0.115488
0.118024
0.119886
0.121172
0.122035
0.122427
0.121441
0.118545
0.120984
-0.0266878
-0.0258362
-0.0157141
0.00116553
0.0208074
0.0404789
0.0586391
0.0746233
0.0883055
0.0998261
0.109427
0.117366
0.123886
0.129197
0.133479
0.136885
0.139544
0.141566
0.143049
0.14412
0.144944
0.1455
0.145281
0.144725
0.149471
0.0159501
0.0159167
0.0251296
0.040835
0.0590353
0.0771227
0.0936665
0.108076
0.120268
0.130402
0.138726
0.145497
0.150953
0.155302
0.158721
0.161362
0.163356
0.164816
0.165848
0.166579
0.167151
0.167539
0.167383
0.167189
0.171415
0.0588229
0.0578983
0.0661469
0.0805989
0.0972803
0.113719
0.128595
0.14139
0.15206
0.160781
0.167803
0.173381
0.177749
0.181108
0.18363
0.185465
0.186739
0.187564
0.188045
0.188299
0.188456
0.188495
0.188112
0.187717
0.190969
0.101691
0.0998737
0.107111
0.120243
0.135343
0.150082
0.163252
0.174405
0.18353
0.190818
0.19652
0.200887
0.204145
0.20649
0.208086
0.209076
0.209581
0.209707
0.209549
0.209215
0.208812
0.208311
0.207436
0.206565
0.208888
0.144317
0.141609
0.147798
0.159558
0.173028
0.18603
0.19747
0.206962
0.214531
0.220375
0.224747
0.227891
0.230026
0.231337
0.231983
0.232099
0.231798
0.231177
0.230323
0.229331
0.22829
0.227159
0.225683
0.22424
0.225663
0.186466
0.182875
0.187987
0.198334
0.210142
0.221387
0.231084
0.238912
0.244922
0.249322
0.252362
0.254279
0.255284
0.255553
0.255236
0.254459
0.253327
0.251928
0.250341
0.248648
0.246925
0.24512
0.243003
0.240956
0.24152
0.227908
0.223444
0.227461
0.236371
0.246499
0.255981
0.263938
0.270108
0.274568
0.277533
0.279249
0.279946
0.279823
0.27905
0.277767
0.27609
0.274116
0.271927
0.26959
0.26718
0.264758
0.262268
0.259506
0.256858
0.256597
0.268416
0.263098
0.266011
0.273471
0.281919
0.289645
0.295878
0.300409
0.30334
0.30489
0.3053
0.304791
0.303554
0.301748
0.299505
0.296932
0.29412
0.291139
0.288053
0.284925
0.281806
0.27864
0.275247
0.272011
0.27096
0.307775
0.301621
0.303432
0.309447
0.316226
0.322221
0.326758
0.329682
0.331115
0.331279
0.330409
0.328719
0.326389
0.32357
0.320384
0.31693
0.313291
0.309531
0.305706
0.301873
0.298073
0.29425
0.29025
0.286444
0.284636
0.345773
0.338809
0.339531
0.344115
0.349254
0.353554
0.356438
0.357798
0.357774
0.356592
0.354479
0.351641
0.348249
0.344443
0.340339
0.336027
0.331583
0.327065
0.322522
0.318004
0.313546
0.309093
0.304514
0.300162
0.297627
0.382209
0.374466
0.37412
0.377304
0.380845
0.383499
0.384783
0.384633
0.383206
0.380725
0.377415
0.37347
0.369053
0.364297
0.359307
0.354168
0.348948
0.343699
0.338466
0.333291
0.328203
0.323152
0.318024
0.313152
0.309922
0.416892
0.408403
0.407021
0.408847
0.410845
0.411919
0.411668
0.410073
0.407302
0.40358
0.399125
0.394123
0.388727
0.383062
0.377226
0.371297
0.365336
0.35939
0.353499
0.3477
0.342016
0.336399
0.330756
0.325391
0.321499
0.449641
0.440445
0.438067
0.43859
0.439114
0.43868
0.436972
0.434005
0.429961
0.425065
0.419525
0.413521
0.407199
0.400673
0.394036
0.387359
0.380698
0.374094
0.367582
0.361194
0.354949
0.348804
0.342681
0.33685
0.332332
0.480285
0.470425
0.467101
0.466387
0.465516
0.463663
0.460583
0.456328
0.451089
0.445089
0.438532
0.431589
0.424398
0.417066
0.409678
0.402301
0.394984
0.387764
0.380672
0.373735
0.366968
0.360333
0.353764
0.347499
0.342392
0.508666
0.498188
0.493977
0.492103
0.489929
0.486751
0.482396
0.476943
0.470595
0.463572
0.456071
0.448257
0.44026
0.43218
0.424097
0.41607
0.408146
0.400356
0.392728
0.385284
0.378035
0.370949
0.363972
0.357304
0.351649
0.534639
0.523594
0.51856
0.515613
0.512237
0.507841
0.502314
0.495763
0.488397
0.480436
0.472071
0.463458
0.454722
0.445958
0.437238
0.428617
0.420137
0.411827
0.403709
0.395802
0.388114
0.380618
0.373269
0.366234
0.360074
0.55807
0.546511
0.540727
0.536803
0.532336
0.526836
0.520248
0.512704
0.504419
0.49561
0.486465
0.477132
0.467729
0.458347
0.449052
0.439896
0.430915
0.422135
0.413576
0.405253
0.397171
0.389306
0.381625
0.374256
0.367638
0.578839
0.566824
0.560369
0.555573
0.550132
0.54365
0.536119
0.527694
0.518593
0.509033
0.499194
0.489222
0.479229
0.469298
0.459494
0.449863
0.440439
0.431244
0.422294
0.413602
0.405171
0.396983
0.389008
0.381344
0.374317
0.596842
0.584429
0.577389
0.571831
0.565542
0.558206
0.549857
0.540666
0.530858
0.520645
0.510206
0.49968
0.489175
0.478769
0.468524
0.458482
0.448673
0.439118
0.429831
0.42082
0.412087
0.403618
0.395391
0.387469
0.380087
0.611985
0.599238
0.591703
0.5855
0.578496
0.570439
0.5614
0.551565
0.541161
0.5304
0.519455
0.508463
0.497526
0.486721
0.476105
0.465717
0.455585
0.445728
0.436157
0.426878
0.417892
0.409188
0.400748
0.39261
0.384927
0.624194
0.611176
0.603239
0.596515
0.588932
0.580293
0.570698
0.560342
0.549457
0.538254
0.526902
0.515534
0.50425
0.493123
0.482207
0.47154
0.461148
0.451048
0.441248
0.431753
0.422564
0.413671
0.40506
0.396747
0.388821
0.633405
0.620183
0.611942
0.604823
0.596802
0.587723
0.577707
0.566959
0.555712
0.544174
0.532515
0.520863
0.509317
0.497947
0.486806
0.475929
0.465341
0.455056
0.445084
0.435427
0.426084
0.417049
0.408309
0.399864
0.391754
0.639572
0.626213
0.617768
0.610384
0.602069
0.592696
0.582398
0.571387
0.559897
0.548136
0.536271
0.524429
0.512707
0.501175
0.489883
0.478865
0.468145
0.457738
0.44765
0.437884
0.428439
0.419308
0.410483
0.40195
0.393715
0.642664
0.629237
0.620689
0.613172
0.60471
0.595189
0.58475
0.573607
0.561995
0.550122
0.538154
0.526217
0.514407
0.502793
0.491425
0.480337
0.469551
0.459082
0.448937
0.439116
0.429619
0.420441
0.411573
0.402995
0.394698
0.642666
0.629239
0.620691
0.613174
0.604712
0.59519
0.584752
0.573609
0.561997
0.550123
0.538155
0.526218
0.514408
0.502794
0.491426
0.480338
0.469552
0.459084
0.448938
0.439118
0.42962
0.420442
0.411574
0.402996
0.3947
0.639577
0.626219
0.617773
0.610389
0.602074
0.592701
0.582403
0.571392
0.559902
0.548141
0.536275
0.524434
0.512712
0.501179
0.489887
0.478869
0.468149
0.457742
0.447654
0.437888
0.428443
0.419312
0.410487
0.401953
0.393719
0.633414
0.620192
0.611951
0.604831
0.59681
0.587731
0.577715
0.566967
0.555719
0.544182
0.532522
0.520871
0.509324
0.497954
0.486812
0.475935
0.465347
0.455063
0.44509
0.435433
0.42609
0.417055
0.408315
0.39987
0.39176
0.624206
0.611189
0.603251
0.596527
0.588943
0.580304
0.570709
0.560353
0.549468
0.538264
0.526912
0.515544
0.504259
0.493132
0.482216
0.47155
0.461157
0.451057
0.441257
0.431762
0.422572
0.413679
0.405068
0.396756
0.388829
0.612002
0.599254
0.591719
0.585516
0.578511
0.570454
0.561415
0.551579
0.541174
0.530413
0.519468
0.508476
0.497539
0.486734
0.476117
0.465729
0.455597
0.44574
0.436168
0.426889
0.417903
0.409199
0.400759
0.392621
0.384938
0.596862
0.584449
0.577409
0.57185
0.565561
0.558224
0.549875
0.540683
0.530874
0.520662
0.510222
0.499696
0.48919
0.478784
0.468539
0.458496
0.448687
0.439132
0.429845
0.420834
0.412101
0.403632
0.395404
0.387483
0.3801
0.578863
0.566847
0.560393
0.555596
0.550154
0.543671
0.53614
0.527714
0.518613
0.509052
0.499213
0.489241
0.479247
0.469316
0.459512
0.449881
0.440456
0.431261
0.422311
0.413619
0.405188
0.396999
0.389024
0.381359
0.374333
0.558097
0.546538
0.540754
0.53683
0.532361
0.52686
0.520272
0.512727
0.504442
0.495633
0.486487
0.477153
0.46775
0.458367
0.449072
0.439916
0.430935
0.422155
0.413596
0.405272
0.397189
0.389325
0.381643
0.374275
0.367656
0.53467
0.523625
0.51859
0.515643
0.512266
0.507869
0.502341
0.495789
0.488423
0.480461
0.472095
0.463483
0.454746
0.445981
0.437261
0.42864
0.42016
0.411849
0.403731
0.395823
0.388136
0.380639
0.37329
0.366254
0.360094
0.508701
0.498223
0.494011
0.492136
0.489961
0.486783
0.482427
0.476973
0.470624
0.4636
0.456099
0.448285
0.440286
0.432206
0.424123
0.416096
0.408171
0.400381
0.392752
0.385308
0.378059
0.370972
0.363995
0.357327
0.351671
0.480324
0.470464
0.467139
0.466424
0.465552
0.463698
0.460617
0.456361
0.451121
0.445121
0.438563
0.43162
0.424428
0.417095
0.409707
0.402329
0.395012
0.387792
0.380699
0.373762
0.366994
0.360359
0.35379
0.347524
0.342417
0.449684
0.440488
0.438109
0.438631
0.439153
0.438719
0.43701
0.434042
0.429997
0.425099
0.419559
0.413554
0.407231
0.400705
0.394068
0.38739
0.380728
0.374124
0.367612
0.361223
0.354978
0.348833
0.342709
0.336878
0.332359
0.416939
0.40845
0.407067
0.408892
0.410889
0.411961
0.411709
0.410113
0.407341
0.403618
0.399162
0.394159
0.388763
0.383097
0.377261
0.371331
0.365369
0.359423
0.353531
0.347732
0.342047
0.33643
0.330787
0.325421
0.321529
0.38226
0.374517
0.37417
0.377352
0.380892
0.383545
0.384828
0.384677
0.383248
0.380766
0.377455
0.373509
0.369092
0.364335
0.359344
0.354205
0.348984
0.343735
0.338501
0.333325
0.328237
0.323185
0.318057
0.313185
0.309954
0.345828
0.338864
0.339585
0.344168
0.349305
0.353603
0.356486
0.357844
0.35782
0.356636
0.354523
0.351683
0.34829
0.344484
0.340379
0.336067
0.331622
0.327103
0.32256
0.318041
0.313583
0.30913
0.304549
0.300197
0.297662
0.307834
0.30168
0.303491
0.309503
0.316281
0.322274
0.326809
0.329732
0.331164
0.331327
0.330456
0.328765
0.326434
0.323614
0.320427
0.316972
0.313333
0.309572
0.305747
0.301913
0.298112
0.294289
0.290288
0.286482
0.284673
0.26848
0.263161
0.266073
0.273532
0.281977
0.289702
0.295933
0.300463
0.303392
0.304941
0.30535
0.30484
0.303602
0.301795
0.299551
0.296978
0.294164
0.291183
0.288096
0.284967
0.281848
0.278681
0.275288
0.272051
0.271
0.227976
0.223512
0.227528
0.236435
0.246562
0.256042
0.263997
0.270165
0.274624
0.277588
0.279302
0.279998
0.279875
0.2791
0.277816
0.276138
0.274164
0.271973
0.269636
0.267225
0.264802
0.262312
0.259549
0.2569
0.256639
0.186539
0.182947
0.188058
0.198403
0.210209
0.221452
0.231147
0.238973
0.244981
0.24938
0.252419
0.254335
0.255338
0.255606
0.255288
0.25451
0.253377
0.251978
0.25039
0.248696
0.246972
0.245166
0.243048
0.241002
0.241565
0.144395
0.141686
0.147874
0.159631
0.173099
0.186099
0.197536
0.207027
0.214594
0.220437
0.224807
0.22795
0.230083
0.231393
0.232039
0.232153
0.231851
0.23123
0.230375
0.229381
0.22834
0.227209
0.225732
0.224287
0.22571
0.101773
0.0999553
0.107191
0.120321
0.135418
0.150154
0.163323
0.174473
0.183597
0.190883
0.196583
0.200949
0.204206
0.206549
0.208144
0.209133
0.209638
0.209763
0.209604
0.209269
0.208865
0.208363
0.207487
0.206616
0.208938
0.0589094
0.0579845
0.0662314
0.080681
0.0973598
0.113796
0.128669
0.141463
0.152131
0.16085
0.16787
0.173447
0.177813
0.181171
0.183692
0.185525
0.186798
0.187623
0.188102
0.188356
0.188511
0.188549
0.188166
0.18777
0.191022
0.0160414
0.0160077
0.0252189
0.0409216
0.0591192
0.0772038
0.093745
0.108152
0.120342
0.130475
0.138796
0.145566
0.151021
0.155368
0.158786
0.161425
0.163419