/*--------------------------------*- C++ -*----------------------------------*\
  =========                 |
  \\      /  F ield         | OpenFOAM: The Open Source CFD Toolbox
   \\    /   O peration     | Website:  https://openfoam.org
    \\  /    A nd           | Version:  6.0
     \\/     M anipulation  |
\*---------------------------------------------------------------------------*/
FoamFile
{
    version     2.0;
    format      ascii;
    class       volVectorField;
    location    "9";
    object      U;
}
// * * * * * * * * * * * * * * * * * * * * * * * * * * * * * * * * * * * * * //

dimensions      [0 1 -1 0 0 0 0];

internalField   nonuniform List<vector> 
12500
(
(-0.000566942 0.000676406 -6.71425e-22)
(-0.00317944 0.00169366 9.2628e-21)
(-0.00812737 0.00244868 -1.3429e-20)
(-0.0144017 0.00301013 6.16405e-21)
(-0.0214922 0.00342483 3.71075e-22)
(-0.0291084 0.00372803 -7.57368e-22)
(-0.0370278 0.00394773 -1.12011e-20)
(-0.0450913 0.00410631 6.14453e-21)
(-0.0531924 0.00422171 4.06085e-21)
(-0.0612632 0.00430851 4.12213e-21)
(-0.069265 0.00437859 -6.98364e-21)
(-0.0771804 0.00444167 4.06002e-21)
(-0.0850086 0.00450568 -1.91347e-21)
(-0.0927605 0.00457705 3.24296e-21)
(-0.100456 0.0046609 -8.2819e-21)
(-0.108119 0.00476122 1.19776e-20)
(-0.11578 0.00488093 -2.27371e-21)
(-0.123468 0.00502201 -8.47869e-21)
(-0.131214 0.00518552 4.34604e-21)
(-0.139046 0.00537166 -4.1606e-21)
(-0.147006 0.00557967 3.72586e-21)
(-0.155128 0.00580804 4.94247e-21)
(-0.16331 0.00605644 5.19061e-22)
(-0.171348 0.00632587 -1.41701e-20)
(-0.180146 0.0066018 7.57851e-21)
(-0.000640787 0.00199517 1.22524e-20)
(-0.00333926 0.00501078 -3.16299e-20)
(-0.0083092 0.00726315 9.32468e-21)
(-0.014565 0.00895099 6.23143e-21)
(-0.0216085 0.0102095 -4.95777e-21)
(-0.0291554 0.0111405 -2.81849e-20)
(-0.0369881 0.011825 8.36664e-21)
(-0.0449502 0.0123282 -1.58181e-20)
(-0.0529373 0.0127023 1.89083e-20)
(-0.0608827 0.0129902 -2.52194e-20)
(-0.0687482 0.0132269 1.34728e-20)
(-0.0765169 0.0134411 4.36127e-21)
(-0.0841879 0.0136565 -1.09703e-20)
(-0.0917722 0.0138924 -4.86848e-21)
(-0.0992893 0.0141642 3.54798e-20)
(-0.106764 0.014484 -3.1421e-20)
(-0.114227 0.0148608 7.49375e-21)
(-0.121707 0.0153007 1.29974e-20)
(-0.129235 0.0158071 -3.00346e-21)
(-0.136841 0.0163808 2.10304e-20)
(-0.144566 0.0170198 3.88644e-21)
(-0.152446 0.0177197 -1.2979e-21)
(-0.16038 0.0184797 -2.6625e-20)
(-0.16816 0.0193031 2.46831e-20)
(-0.17669 0.0201463 -4.75437e-20)
(-0.000785622 0.00327513 3.93153e-20)
(-0.00365343 0.00823837 1.30775e-20)
(-0.00866742 0.0119563 -1.71343e-20)
(-0.0148877 0.01475 7.36302e-21)
(-0.021839 0.0168385 6.87884e-21)
(-0.0292499 0.0183874 2.61081e-20)
(-0.0369117 0.0195291 -3.3139e-20)
(-0.044674 0.0203697 -5.391e-21)
(-0.0524362 0.0209954 -2.2175e-20)
(-0.0601337 0.0214763 -1.8519e-20)
(-0.0677298 0.0218702 2.38916e-20)
(-0.0752082 0.0222249 -7.9969e-20)
(-0.0825682 0.0225797 -2.52616e-21)
(-0.0898209 0.0229666 -4.80397e-20)
(-0.0969857 0.0234119 -5.70095e-21)
(-0.104088 0.0239358 6.79576e-21)
(-0.111158 0.0245539 -3.73651e-20)
(-0.118225 0.0252768 -2.34124e-20)
(-0.125322 0.026111 -2.77532e-20)
(-0.132479 0.0270582 4.34719e-20)
(-0.13974 0.0281156 1.60222e-20)
(-0.147141 0.0292764 -7.08444e-20)
(-0.154585 0.0305396 -3.42845e-20)
(-0.161853 0.0319118 -3.85348e-20)
(-0.169857 0.0333193 1.04828e-19)
(-0.000996654 0.00449236 -1.1881e-21)
(-0.00411316 0.0113208 -3.02176e-20)
(-0.00919422 0.0164521 -1.4557e-20)
(-0.0153654 0.0203174 8.99148e-21)
(-0.0221842 0.0232128 5.59991e-20)
(-0.029398 0.0253631 -2.52498e-20)
(-0.0368108 0.0269486 5.37975e-20)
(-0.0442812 0.0281148 5.12338e-20)
(-0.0517139 0.0289796 3.11751e-20)
(-0.059048 0.0296399 -4.85974e-22)
(-0.0662486 0.0301757 6.2827e-20)
(-0.0733004 0.0306531 1.08781e-20)
(-0.0802031 0.0311271 4.79542e-20)
(-0.0869679 0.0316427 1.1037e-19)
(-0.0936143 0.032237 -1.28053e-19)
(-0.100168 0.0329394 1.92665e-19)
(-0.106659 0.0337723 4.21009e-20)
(-0.113118 0.0347518 -9.25981e-20)
(-0.11958 0.0358881 -1.32441e-20)
(-0.126075 0.0371851 3.37081e-20)
(-0.132651 0.0386398 -1.70128e-20)
(-0.139349 0.0402435 -1.02854e-20)
(-0.146072 0.041996 -1.00444e-20)
(-0.152589 0.0439083 -4.03133e-20)
(-0.15982 0.0458761 1.42363e-19)
(-0.00126712 0.00562585 2.05312e-20)
(-0.00470593 0.0142083 -9.53341e-20)
(-0.00987848 0.0206818 1.15627e-19)
(-0.0159918 0.0255716 -4.60217e-20)
(-0.0226449 0.0292414 5.50801e-20)
(-0.0296083 0.0319693 4.49554e-20)
(-0.0367028 0.0339796 1.70728e-20)
(-0.0437981 0.035454 8.58957e-22)
(-0.0508064 0.0365405 9.59883e-20)
(-0.0576713 0.0373612 6.64671e-20)
(-0.0643605 0.0380171 -2.66551e-20)
(-0.07086 0.0385924 -1.72407e-20)
(-0.0771701 0.0391574 7.23312e-20)
(-0.0833022 0.0397704 1.35989e-20)
(-0.0892758 0.0404796 3.70354e-20)
(-0.0951167 0.041324 8.88358e-20)
(-0.100855 0.0423342 -7.6754e-20)
(-0.106525 0.0435328 6.20862e-20)
(-0.11216 0.0449348 -1.33949e-19)
(-0.117796 0.0465475 1.12811e-19)
(-0.123482 0.048369 8.04468e-22)
(-0.129265 0.0503903 -9.03602e-20)
(-0.135053 0.0526123 3.63091e-20)
(-0.140601 0.055053 8.29682e-20)
(-0.146833 0.0575767 -1.23848e-19)
(-0.00158875 0.00665841 1.06292e-19)
(-0.0054164 0.0168594 -1.12899e-19)
(-0.0107064 0.0245867 -1.81191e-20)
(-0.0167593 0.0304411 2.29322e-20)
(-0.0232216 0.0348433 -4.94516e-20)
(-0.0298913 0.0381177 -7.70886e-20)
(-0.0366088 0.0405277 -6.41469e-20)
(-0.0432576 0.0422876 -1.54777e-20)
(-0.0497584 0.0435729 -1.10378e-19)
(-0.0560608 0.0445291 8.7979e-20)
(-0.0621356 0.0452772 -1.36653e-19)
(-0.0679708 0.0459187 6.90949e-20)
(-0.0735673 0.0465387 -2.29649e-20)
(-0.0789367 0.0472089 5.32455e-20)
(-0.0840985 0.0479891 -1.33985e-19)
(-0.0890788 0.0489286 6.50342e-20)
(-0.0939088 0.0500672 4.88355e-21)
(-0.0986234 0.0514354 2.88546e-20)
(-0.103259 0.0530548 1.75043e-19)
(-0.107854 0.0549381 3.9053e-20)
(-0.112463 0.0570863 -3.33943e-21)
(-0.117141 0.0594911 1.11749e-20)
(-0.121801 0.062157 7.35824e-20)
(-0.126181 0.0651112 2.10377e-20)
(-0.131215 0.0681867 7.03274e-20)
(-0.00195237 0.00757732 -6.62136e-20)
(-0.00622729 0.019242 9.40693e-20)
(-0.0116625 0.0281196 5.91327e-21)
(-0.0176588 0.034867 -1.14899e-19)
(-0.0239149 0.0399504 2.41662e-19)
(-0.0302587 0.0437327 -7.81183e-20)
(-0.0365529 0.0465108 1.1407e-19)
(-0.0426965 0.0485276 1.04429e-19)
(-0.0486209 0.0499834 -8.63547e-20)
(-0.054282 0.0510448 -1.25869e-19)
(-0.0596549 0.0518513 3.44379e-20)
(-0.0647297 0.0525205 -3.63336e-20)
(-0.0695084 0.0531521 -1.61077e-19)
(-0.0740027 0.0538306 1.95924e-19)
(-0.0782322 0.054628 -9.40853e-20)
(-0.082223 0.0556049 -6.5008e-20)
(-0.0860072 0.0568112 5.57723e-22)
(-0.0896212 0.0582872 5.32114e-20)
(-0.0931043 0.0600632 2.20684e-20)
(-0.0964995 0.0621593 -8.6257e-20)
(-0.0998661 0.0645824 9.88637e-20)
(-0.103269 0.0673273 -1.72088e-19)
(-0.106631 0.0704042 1.05194e-19)
(-0.109675 0.0738535 -8.11532e-20)
(-0.113338 0.0774777 2.04431e-20)
(-0.00234849 0.00837468 9.66577e-20)
(-0.00712054 0.021334 -7.43315e-20)
(-0.01273 0.0312464 -4.72714e-20)
(-0.0186805 0.0388047 -8.34697e-20)
(-0.0247244 0.044509 -1.52562e-19)
(-0.0307219 0.0487528 -1.12734e-19)
(-0.0365596 0.0518608 7.03089e-20)
(-0.0421537 0.0541002 -1.06544e-19)
(-0.0474473 0.0556928 1.35276e-19)
(-0.0524043 0.0568239 -2.20266e-19)
(-0.0570045 0.0576495 9.79367e-20)
(-0.0612409 0.058302 2.07114e-19)
(-0.0651165 0.0588947 -2.91208e-19)
(-0.0686433 0.0595249 4.15913e-20)
(-0.0718407 0.0602765 5.43134e-20)
(-0.0747349 0.0612221 5.2654e-20)
(-0.0773584 0.0624234 -5.63473e-20)
(-0.0797494 0.063932 -1.37504e-20)
(-0.0819502 0.0657896 -4.14944e-20)
(-0.0840088 0.0680268 -3.47657e-20)
(-0.0859911 0.0706595 -1.91615e-19)
(-0.0879738 0.0736893 -1.30803e-20)
(-0.0898935 0.0771354 2.14582e-21)
(-0.0914597 0.0810565 -8.733e-20)
(-0.0936116 0.0852271 9.08423e-20)
(-0.0027679 0.00904756 2.84645e-21)
(-0.00807829 0.0231245 3.03986e-20)
(-0.0138922 0.0339465 3.1689e-20)
(-0.0198137 0.0422245 1.83318e-20)
(-0.0256489 0.0484807 1.55367e-19)
(-0.031291 0.0531323 1.45989e-19)
(-0.0366517 0.0565254 -1.18639e-19)
(-0.0416659 0.0589475 -3.61545e-20)
(-0.0462897 0.0606383 -3.21138e-20)
(-0.050496 0.0617988 1.65754e-19)
(-0.0542703 0.0625996 5.96346e-20)
(-0.0576087 0.0631861 -8.66805e-20)
(-0.0605158 0.0636839 -7.35757e-20)
(-0.0630039 0.064202 1.77321e-19)
(-0.0650919 0.0648367 -4.36762e-20)
(-0.0668057 0.0656724 -5.30684e-20)
(-0.0681779 0.0667838 -7.42917e-20)
(-0.0692482 0.0682362 -5.78998e-20)
(-0.0700621 0.070085 -7.41443e-20)
(-0.0706725 0.0723752 -4.8715e-20)
(-0.0711536 0.0751361 2.02368e-19)
(-0.0715959 0.0783807 -9.97586e-20)
(-0.0719537 0.0821422 6.72863e-20)
(-0.0719286 0.0865046 -1.79967e-19)
(-0.0724615 0.091219 7.23717e-20)
(-0.00320232 0.00959771 -8.69732e-20)
(-0.00908389 0.0246127 -2.2677e-20)
(-0.0151328 0.036213 -1.76864e-19)
(-0.0210473 0.0451115 -8.47584e-20)
(-0.0266854 0.0518434 -1.67231e-19)
(-0.0319729 0.0568418 -1.74499e-20)
(-0.0368479 0.0604693 8.96411e-20)
(-0.0412647 0.0630291 -5.46377e-20)
(-0.0451939 0.0647751 1.17794e-19)
(-0.0486182 0.0659214 -2.86344e-19)
(-0.0515299 0.0666503 -8.39276e-21)
(-0.053929 0.0671181 5.08219e-20)
(-0.0558219 0.0674609 -6.45038e-20)
(-0.0572212 0.0677987 5.88999e-20)
(-0.0581451 0.0682384 -4.49096e-20)
(-0.0586188 0.068877 -9.6558e-20)
(-0.0586742 0.0698029 1.7651e-19)
(-0.0583518 0.0710962 1.09769e-19)
(-0.0576997 0.0728297 -2.25672e-20)
(-0.0567763 0.0750664 7.27842e-20)
(-0.0556645 0.0778547 -1.43571e-19)
(-0.0544707 0.0812254 2.07706e-19)
(-0.0531716 0.0852327 -2.83946e-19)
(-0.051469 0.0899944 5.85169e-20)
(-0.0503072 0.0952471 -1.12936e-19)
(-0.00364477 0.0100311 4.7268e-21)
(-0.0101226 0.0258073 -7.75715e-20)
(-0.0164366 0.0380513 1.1463e-19)
(-0.0223695 0.0474656 2.34988e-19)
(-0.0278278 0.0545904 -3.89072e-21)
(-0.0327696 0.0598685 2.65997e-20)
(-0.0371593 0.0636744 -1.00568e-19)
(-0.0409719 0.0663227 4.70421e-20)
(-0.0441933 0.068078 3.24708e-19)
(-0.0468176 0.0691643 -7.36649e-20)
(-0.0488446 0.0697729 -8.7181e-20)
(-0.050279 0.0700685 3.29465e-19)
(-0.0511296 0.0701955 1.078e-19)
(-0.0514093 0.0702823 5.14345e-20)
(-0.0511357 0.0704459 5.26086e-20)
(-0.0503321 0.0707945 1.43412e-19)
(-0.0490292 0.0714302 -5.53454e-20)
(-0.047267 0.0724497 1.46103e-19)
(-0.0450954 0.0739451 1.98231e-19)
(-0.0425777 0.0760025 -1.69507e-19)
(-0.0398057 0.0786952 2.52391e-19)
(-0.0369035 0.08208 9.05667e-20)
(-0.0338752 0.0862417 -3.43511e-19)
(-0.0304336 0.0913444 4.97651e-19)
(-0.0275327 0.0971226 -4.04444e-19)
(-0.00408995 0.0103573 -2.22146e-19)
(-0.0111824 0.0267251 1.20794e-19)
(-0.0177894 0.039478 -8.10563e-20)
(-0.0237672 0.0492998 -7.69277e-20)
(-0.0290663 0.0567294 -8.30538e-20)
(-0.0336759 0.0622154 -9.00774e-20)
(-0.0375866 0.0661394 2.46856e-20)
(-0.040795 0.068824 2.34918e-19)
(-0.0433035 0.0705414 -5.02578e-20)
(-0.0451186 0.0715222 -1.31081e-19)
(-0.0462491 0.0719635 -8.00981e-20)
(-0.0467053 0.0720357 -3.28077e-20)
(-0.0464989 0.0718884 9.71253e-20)
(-0.0456436 0.0716564 -6.20137e-20)
(-0.044156 0.0714638 -2.02897e-19)
(-0.042057 0.0714288 -2.24284e-19)
(-0.039375 0.0716657 8.94322e-20)
(-0.036148 0.072288 -1.66959e-19)
(-0.032426 0.0734093 1.45336e-19)
(-0.028276 0.0751424 -4.10608e-19)
(-0.0237986 0.0775926 3.16324e-19)
(-0.0191363 0.0808526 -4.19316e-19)
(-0.0143257 0.0850504 -8.25642e-21)
(-0.00910441 0.0904124 -1.42541e-19)
(-0.0044489 0.0966899 4.17322e-19)
(-0.00453437 0.0105883 3.40904e-19)
(-0.0122535 0.0273894 4.98965e-20)
(-0.0191785 0.0405189 -3.27935e-20)
(-0.025226 0.0506379 -1.38104e-20)
(-0.0303859 0.0582811 2.56963e-19)
(-0.034677 0.0638994 8.35626e-20)
(-0.0381163 0.0678787 7.57692e-20)
(-0.0407224 0.0705464 -6.09035e-20)
(-0.0425156 0.0721792 2.34959e-19)
(-0.0435158 0.0730115 -1.15643e-19)
(-0.0437421 0.0732431 7.45421e-20)
(-0.0432117 0.0730469 1.89823e-19)
(-0.0419402 0.0725747 -1.07825e-19)
(-0.0399425 0.0719641 1.16759e-19)
(-0.0372342 0.0713434 1.10335e-19)
(-0.0338337 0.0708372 3.78275e-20)
(-0.0297656 0.0705702 -9.36162e-20)
(-0.0250643 0.0706709 2.5846e-19)
(-0.0197781 0.0712746 -2.42073e-20)
(-0.0139754 0.0725239 -2.82894e-20)
(-0.00776441 0.0745627 3.11282e-19)
(-0.00130634 0.0775301 -2.22362e-19)
(0.00532515 0.0816136 3.74894e-19)
(0.0123519 0.0871229 -3.12307e-19)
(0.0187533 0.0938527 3.99379e-19)
(-0.00497636 0.0107379 -1.64828e-19)
(-0.0133292 0.0278275 3.64122e-20)
(-0.0205917 0.041206 -3.80248e-20)
(-0.0267287 0.0515125 -1.79626e-19)
(-0.0317646 0.0592765 1.04489e-20)
(-0.0357465 0.0649497 1.02174e-19)
(-0.0387176 0.0689205 -4.15598e-19)
(-0.0407191 0.0715187 3.10219e-19)
(-0.0417899 0.0730231 -3.02017e-19)
(-0.0419653 0.0736691 -1.90625e-19)
(-0.0412756 0.0736568 1.70899e-19)
(-0.0397463 0.073158 -3.70206e-19)
(-0.0373981 0.0723235 3.11886e-19)
(-0.0342482 0.0712899 -9.92089e-20)
(-0.0303116 0.0701856 -2.83906e-19)
(-0.0256042 0.0691372 7.02625e-20)
(-0.0201459 0.0682755 -6.60236e-20)
(-0.0139661 0.0677406 2.51334e-20)
(-0.00710885 0.0676874 -8.91195e-20)
(0.000358473 0.068289 -2.96677e-19)
(0.0083222 0.0697322 6.64086e-20)
(0.0166031 0.0722139 -3.64178e-22)
(0.0250869 0.0759991 -3.08059e-19)
(0.0339376 0.0815081 2.16299e-19)
(0.0420582 0.0886147 -1.86766e-19)
(-0.00541584 0.0108203 6.67606e-20)
(-0.0144046 0.0280689 1.22681e-19)
(-0.0220168 0.0415755 1.71397e-19)
(-0.0282544 0.0519617 8.81016e-20)
(-0.033172 0.0597539 -8.63635e-20)
(-0.0368438 0.0654047 2.05947e-19)
(-0.039339 0.0693038 1.52362e-19)
(-0.0407219 0.0717826 -5.54943e-20)
(-0.041051 0.0731199 1.98091e-19)
(-0.0403779 0.0735501 -2.03773e-19)
(-0.0387458 0.073271 -5.98475e-20)
(-0.0361898 0.0724508 6.06894e-20)
(-0.0327374 0.071236 1.20171e-19)
(-0.0284091 0.069758 1.47211e-21)
(-0.0232208 0.0681407 7.61903e-20)
(-0.0171861 0.0665076 1.41037e-19)
(-0.0103207 0.0649895 -2.40307e-19)
(-0.00264769 0.0637322 2.98992e-19)
(0.005795 0.0629047 1.01085e-19)
(0.0149437 0.0627073 3.60239e-20)
(0.024682 0.0633714 -3.64367e-19)
(0.0348143 0.0651598 5.13367e-20)
(0.0451838 0.0684342 8.027e-20)
(0.0558795 0.0737583 -1.96696e-20)
(0.0656851 0.0811325 9.19061e-20)
(-0.00585397 0.0108493 5.15126e-21)
(-0.0154759 0.0281428 -3.15909e-19)
(-0.0234406 0.0416642 -7.87769e-21)
(-0.0297772 0.0520263 -7.95353e-20)
(-0.0345676 0.0597562 -5.22134e-19)
(-0.0379122 0.0653086 4.50594e-19)
(-0.0399059 0.0690757 -3.20511e-19)
(-0.0406363 0.0713893 -1.62168e-20)
(-0.0401827 0.0725277 -1.5136e-19)
(-0.0386135 0.072723 2.61674e-19)
(-0.0359862 0.0721688 -2.81681e-19)
(-0.032347 0.0710279 -1.31922e-19)
(-0.0277314 0.0694392 2.60039e-21)
(-0.0221656 0.067526 -2.85728e-19)
(-0.0156679 0.0654029 3.89957e-19)
(-0.00825139 0.0631845 -4.52317e-19)
(7.14525e-05 0.0609942 7.9331e-22)
(0.00928311 0.0589752 6.92769e-20)
(0.0193526 0.0573019 -1.74168e-19)
(0.0302219 0.0561935 1.69463e-19)
(0.041775 0.0559212 -2.40154e-19)
(0.0538021 0.0568168 -1.59311e-19)
(0.0661031 0.059355 2.97456e-19)
(0.0786794 0.0642802 -3.25218e-19)
(0.0901411 0.0717781 -6.28701e-21)
(-0.00629266 0.0108374 -2.67654e-19)
(-0.01654 0.0280761 3.06674e-19)
(-0.0248473 0.0415077 -9.46268e-20)
(-0.0312647 0.0517468 1.81808e-19)
(-0.0358992 0.0593271 1.95936e-19)
(-0.0388769 0.0647088 -1.72528e-19)
(-0.0403183 0.0682872 -1.14192e-19)
(-0.0403347 0.0703958 -1.36779e-19)
(-0.0390258 0.071312 1.25223e-19)
(-0.036478 0.0712651 -8.47822e-21)
(-0.0327637 0.0704441 1.82494e-19)
(-0.0279414 0.0690048 1.79897e-19)
(-0.0220566 0.0670776 -2.15083e-19)
(-0.0151428 0.0647745 4.22291e-19)
(-0.00722345 0.0621975 -2.8031e-19)
(0.00168573 0.0594469 -4.80454e-20)
(0.0115727 0.0566316 5.46815e-19)
(0.0224228 0.0538818 -2.53297e-19)
(0.0342107 0.0513653 1.61882e-19)
(0.0468838 0.0493068 3.1665e-19)
(0.0603281 0.0480045 -2.05524e-19)
(0.0743222 0.0478525 2.16115e-20)
(0.0886246 0.0494464 -1.44329e-20)
(0.103143 0.0537486 -8.50673e-20)
(0.116254 0.0611991 1.58575e-19)
(-0.00673396 0.0107949 6.11912e-20)
(-0.0175924 0.027892 -1.94018e-19)
(-0.0262172 0.0411373 1.06027e-19)
(-0.0326765 0.0511606 -1.34814e-21)
(-0.0371014 0.0585089 7.96925e-20)
(-0.039644 0.0636519 -1.36989e-19)
(-0.0404502 0.0669906 7.83539e-20)
(-0.0396546 0.0688611 2.13364e-19)
(-0.0373776 0.069541 -6.55488e-21)
(-0.0337232 0.0692572 -1.08868e-19)
(-0.0287791 0.0681943 1.09335e-19)
(-0.022617 0.0665017 -2.53299e-21)
(-0.0152937 0.0643007 -3.46817e-19)
(-0.00685266 0.0616919 1.28507e-19)
(0.00267446 0.0587625 2.83021e-20)
(0.0132652 0.0555948 -4.99663e-20)
(0.0249026 0.0522773 -8.96826e-20)
(0.0375699 0.0489179 3.42838e-19)
(0.0512416 0.0456635 8.37219e-20)
(0.0658678 0.0427258 -1.79686e-19)
(0.0813348 0.0404093 -2.18476e-20)
(0.0974107 0.0391495 2.48607e-19)
(0.113817 0.0396555 -1.16019e-19)
(0.130374 0.043137 5.02176e-20)
(0.145171 0.0503617 3.32506e-20)
(-0.00717944 0.0107293 -1.22326e-19)
(-0.0186263 0.0276081 1.21523e-19)
(-0.0275252 0.0405789 -6.83429e-20)
(-0.0339627 0.0503001 -2.19278e-19)
(-0.0380946 0.0573399 -2.0176e-19)
(-0.0400996 0.062182 -8.90484e-20)
(-0.040149 0.0652363 -7.38608e-20)
(-0.0384001 0.0668432 -2.18216e-19)
(-0.0349932 0.0672819 -8.82109e-20)
(-0.0300495 0.0667785 8.04737e-20)
(-0.0236716 0.0655146 -1.14713e-19)
(-0.0159448 0.0636345 -1.20934e-19)
(-0.00693831 0.0612523 -1.13553e-19)
(0.00329231 0.0584583 2.06469e-19)
(0.0147032 0.055326 -4.33457e-19)
(0.0272598 0.0519194 2.4794e-19)
(0.0409331 0.0483033 -4.23934e-19)
(0.0556953 0.0445567 -6.53958e-20)
(0.0715116 0.0407932 -2.33488e-19)
(0.0883255 0.0371917 -5.46365e-20)
(0.106018 0.0340335 -6.66247e-20)
(0.124344 0.0317605 -2.23297e-19)
(0.142994 0.0311633 -2.47517e-20)
(0.161726 0.0337091 1.37484e-19)
(0.178304 0.0405584 -3.55322e-19)
(-0.00762945 0.0106453 1.04928e-19)
(-0.0196312 0.0272362 1.37037e-19)
(-0.0287393 0.0398511 4.79096e-19)
(-0.0350625 0.0491909 -8.40065e-20)
(-0.0387839 0.0558525 1.9989e-19)
(-0.0401097 0.0603388 4.75791e-19)
(-0.0392364 0.0630711 -1.29632e-19)
(-0.0363434 0.0643969 1.75319e-19)
(-0.0315896 0.0645987 1.02129e-19)
(-0.0251123 0.0639039 1.85126e-19)
(-0.0170284 0.0624932 -3.69585e-20)
(-0.00743615 0.0605087 2.50962e-20)
(0.00358167 0.0580602 -6.48809e-20)
(0.0159552 0.0552315 3.50408e-19)
(0.0296245 0.0520859 4.47585e-20)
(0.0445363 0.0486729 3.25252e-19)
(0.0606408 0.0450355 -8.32853e-20)
(0.0778872 0.0412228 2.98062e-19)
(0.0962172 0.0373081 4.20055e-20)
(0.115553 0.0334209 1.5191e-19)
(0.135756 0.029789 -6.5682e-20)
(0.156561 0.0268119 -1.21546e-20)
(0.177629 0.0253017 3.62699e-19)
(0.198702 0.0269566 2.24148e-19)
(0.217235 0.0333681 -9.26431e-20)
(-0.00808257 0.0105444 -2.53789e-19)
(-0.0205916 0.0267813 -2.56775e-19)
(-0.029819 0.0389654 -2.6816e-19)
(-0.0359033 0.0478515 9.8294e-20)
(-0.0390587 0.0540731 -1.97165e-19)
(-0.0395203 0.0581563 -2.93528e-20)
(-0.0375099 0.0605375 -7.73324e-20)
(-0.033228 0.0615733 -3.20435e-19)
(-0.0268508 0.0615518 -4.99804e-20)
(-0.0185302 0.0607034 8.20541e-20)
(-0.00839617 0.059211 -2.57282e-19)
(0.00344007 0.0572175 3.56687e-19)
(0.0168818 0.0548327 -4.8414e-19)
(0.0318427 0.052139 1.16566e-19)
(0.0482425 0.0491962 -2.96339e-19)
(0.0660027 0.0460459 -2.40644e-19)
(0.0850427 0.0427177 -1.37751e-20)
(0.105275 0.0392368 -3.64932e-20)
(0.1266 0.0356394 2.86181e-20)
(0.148896 0.0319994 -1.37928e-19)
(0.171985 0.0284692 -9.55405e-20)
(0.195563 0.0253548 1.17693e-19)
(0.219255 0.0234026 -3.26055e-19)
(0.242849 0.0244625 1.06068e-19)
(0.263592 0.0305404 7.58846e-20)
(-0.008535 0.0104251 -4.49173e-20)
(-0.0214856 0.0262425 -7.43351e-20)
(-0.0307141 0.0379255 2.89461e-19)
(-0.0363995 0.0462933 1.07488e-19)
(-0.0387921 0.0520216 1.42136e-19)
(-0.038158 0.0556642 -1.89762e-19)
(-0.0347445 0.0576749 4.27932e-22)
(-0.0287723 0.0584215 -1.53249e-19)
(-0.0204338 0.0581994 2.83209e-19)
(-0.00989432 0.0572445 9.23814e-20)
(0.00270413 0.0557439 1.03597e-19)
(0.0172375 0.0538447 -4.11666e-19)
(0.0335941 0.0516611 5.07718e-19)
(0.0516688 0.0492799 -1.52353e-19)
(0.0713568 0.0467645 -1.09045e-19)
(0.0925481 0.044159 3.26872e-19)
(0.115122 0.0414912 1.46087e-19)
(0.138939 0.0387773 -3.69681e-19)
(0.163841 0.0360309 -1.54704e-19)
(0.18964 0.0332813 4.66829e-19)
(0.216088 0.0306029 -3.57121e-19)
(0.24281 0.0281732 2.14988e-19)
(0.269372 0.0265727 1.20475e-19)
(0.295664 0.0276633 -1.55002e-19)
(0.318957 0.033779 -1.4869e-19)
(-0.00898006 0.0102829 -1.65067e-19)
(-0.0222841 0.0256129 2.5662e-19)
(-0.031364 0.0367289 1.092e-19)
(-0.0364521 0.0445214 -1.57609e-19)
(-0.0378413 0.049713 -2.52171e-20)
(-0.0358311 0.0528882 -1.64915e-19)
(-0.0306953 0.0545205 -6.55894e-20)
(-0.0226744 0.0549902 7.36697e-20)
(-0.0119763 0.0546015 -1.84639e-20)
(0.00122084 0.0535968 1.38717e-19)
(0.0167626 0.0521694 -1.20464e-19)
(0.0345113 0.0504731 3.33401e-19)
(0.0543383 0.0486297 -4.13197e-19)
(0.0761166 0.046735 2.57655e-19)
(0.0997128 0.0448633 3.20274e-19)
(0.124979 0.0430708 -4.6308e-19)
(0.151747 0.0413983 -1.41042e-19)
(0.179817 0.0398728 2.37867e-19)
(0.208952 0.0385117 -1.46866e-19)
(0.238874 0.0373318 1.42176e-19)
(0.269232 0.0363603 -3.44587e-19)
(0.299538 0.0356533 5.7392e-20)
(0.329239 0.0355555 2.25153e-19)
(0.358346 0.0377875 -3.62569e-19)
(0.38455 0.0448711 9.70098e-20)
(-0.00940789 0.0101113 -1.52389e-19)
(-0.0229501 0.0248811 4.77878e-19)
(-0.0316965 0.0353676 9.16406e-20)
(-0.0359481 0.0425359 -2.47531e-19)
(-0.0360475 0.0471586 1.77263e-19)
(-0.0323311 0.0498529 9.00298e-20)
(-0.0251003 0.0511129 1.43474e-19)
(-0.0146165 0.0513323 -9.35732e-21)
(-0.00110352 0.0508242 -1.49729e-20)
(0.0152464 0.0498384 -3.13074e-20)
(0.0342644 0.0485748 -1.36368e-19)
(0.0557961 0.0471946 -4.59999e-21)
(0.0796923 0.0458283 3.18435e-19)
(0.105799 0.044583 -5.22382e-19)
(0.133951 0.0435476 3.71657e-19)
(0.163959 0.0427976 7.52498e-20)
(0.195601 0.0423984 1.33128e-19)
(0.228616 0.0424092 -6.88502e-20)
(0.262686 0.0428862 6.10154e-19)
(0.297424 0.0438889 -3.78149e-19)
(0.332344 0.0454785 3.02814e-19)
(0.366768 0.0476927 7.14298e-20)
(0.399888 0.0507446 -2.22361e-19)
(0.43167 0.0562801 1.88523e-19)
(0.460624 0.0667488 2.90333e-19)
(-0.00980513 0.00990211 -4.4115e-20)
(-0.0234383 0.0240323 -1.68425e-19)
(-0.0316278 0.0338301 -2.8759e-19)
(-0.0347606 0.0403347 -1.63644e-19)
(-0.033237 0.0443691 -2.28735e-20)
(-0.027434 0.0465842 -6.44945e-20)
(-0.0176838 0.047495 -2.98997e-19)
(-0.00427053 0.047508 4.96268e-20)
(0.012563 0.046945 -3.35535e-19)
(0.0326068 0.0460623 -2.60158e-20)
(0.0556724 0.0450654 -3.21538e-19)
(0.0815823 0.044121 -1.14474e-19)
(0.110159 0.0433665 6.57057e-20)
(0.141216 0.0429177 -3.12724e-19)
(0.174548 0.0428754 2.81531e-21)
(0.209923 0.0433326 -2.69586e-19)
(0.247075 0.0443806 1.04188e-19)
(0.285693 0.0461181 -3.76816e-19)
(0.325414 0.0486622 -6.46923e-20)
(0.365801 0.0521654 -8.77294e-21)
(0.4063 0.056825 -6.37394e-20)
(0.446122 0.0628739 -6.51647e-20)
(0.484186 0.0708306 -3.23282e-20)
(0.519782 0.0827773 -1.30374e-19)
(0.550669 0.100306 -2.77894e-19)
(-0.010155 0.00964607 8.09557e-20)
(-0.0236946 0.0230501 2.13287e-19)
(-0.0310625 0.0321034 2.56123e-19)
(-0.0327494 0.0379148 -2.04461e-19)
(-0.0292218 0.0413566 3.79359e-19)
(-0.0209032 0.0431125 -2.05761e-19)
(-0.00816017 0.0437172 1.11745e-19)
(0.00869536 0.0435892 1.74095e-19)
(0.029396 0.0430573 1.58265e-19)
(0.0537061 0.0423821 7.69402e-20)
(0.0814079 0.0417716 1.24283e-19)
(0.112289 0.0413939 7.22541e-20)
(0.146132 0.0413872 4.88261e-19)
(0.182702 0.0418677 -3.54827e-19)
(0.221744 0.0429372 4.05235e-19)
(0.262975 0.0446904 -1.68409e-19)
(0.306086 0.0472241 3.63761e-19)
(0.350737 0.0506485 -1.71285e-20)
(0.396572 0.0551048 -7.53425e-20)
(0.443219 0.0607926 -1.35354e-20)
(0.490306 0.0680067 2.85721e-19)
(0.537481 0.0772275 -2.78298e-19)
(0.584646 0.0895744 1.96129e-19)
(0.63217 0.107361 2.15129e-19)
(0.675095 0.126991 4.34748e-20)
(-0.010437 0.00933356 5.5976e-20)
(-0.0236566 0.0219178 -3.04677e-19)
(-0.0298939 0.0301753 -1.10626e-19)
(-0.0297616 0.0352762 1.0106e-19)
(-0.0238024 0.038138 -3.10851e-19)
(-0.0124924 0.0394757 -6.12e-20)
(0.00376061 0.0398414 4.24727e-20)
(0.0246092 0.0396631 1.67704e-19)
(0.0497513 0.0392742 -4.2442e-19)
(0.0789128 0.0389359 3.22533e-20)
(0.111831 0.0388539 -1.24005e-19)
(0.148241 0.0391912 -3.7673e-19)
(0.187861 0.0400777 2.56657e-19)
(0.230391 0.0416179 1.09822e-20)
(0.275499 0.0438977 -7.70445e-21)
(0.322831 0.0469908 2.58769e-19)
(0.372009 0.0509653 -4.57462e-19)
(0.422644 0.0558914 3.6223e-19)
(0.474349 0.0618501 -6.71064e-20)
(0.526767 0.0689439 2.10574e-19)
(0.579598 0.0773029 -3.46836e-19)
(0.632645 0.0871074 1.9806e-19)
(0.686014 0.0987956 -3.53218e-19)
(0.740291 0.113252 3.61375e-19)
(0.790128 0.126468 -1.13551e-19)
(-0.0106274 0.00895538 3.75264e-19)
(-0.0232535 0.0206204 -6.10346e-20)
(-0.0280045 0.0280371 4.50353e-19)
(-0.0256333 0.0324241 2.084e-19)
(-0.0167693 0.0347384 1.67497e-20)
(-0.00194957 0.0357226 9.08702e-20)
(0.018367 0.0359435 2.1954e-20)
(0.0437858 0.0358348 3.69845e-19)
(0.0739549 0.0357305 1.19069e-19)
(0.108543 0.0358874 -1.59675e-20)
(0.14722 0.0365025 3.19741e-20)
(0.189641 0.0377253 1.23064e-19)
(0.235436 0.0396669 1.02685e-19)
(0.284203 0.0424071 2.19671e-19)
(0.33551 0.0460003 -2.50278e-19)
(0.388896 0.0504803 7.55622e-20)
(0.443883 0.0558647 2.30252e-20)
(0.49999 0.0621589 1.11776e-19)
(0.556752 0.0693588 3.02286e-19)
(0.613747 0.0774509 -1.97652e-19)
(0.670617 0.0864054 1.63726e-20)
(0.727089 0.0961648 -2.76985e-19)
(0.783061 0.106738 2.60651e-19)
(0.838752 0.118543 -2.49955e-19)
(0.889496 0.12934 2.53805e-20)
(-0.0106989 0.00850352 -3.12901e-19)
(-0.0224071 0.0191466 2.39163e-19)
(-0.0252677 0.0256859 -3.89055e-19)
(-0.0201916 0.0293722 3.35286e-20)
(-0.00790673 0.0311939 2.73504e-19)
(0.0109775 0.0319166 -4.55385e-19)
(0.0359381 0.0321166 3.61071e-19)
(0.066516 0.032229 -5.72606e-19)
(0.102288 0.0325825 1.14072e-19)
(0.142841 0.0334231 2.4375e-20)
(0.187746 0.0349306 1.92228e-19)
(0.236549 0.037231 -6.38574e-19)
(0.288755 0.0404051 1.10254e-19)
(0.343831 0.044495 1.1675e-19)
(0.401207 0.0495099 -6.9979e-20)
(0.46029 0.0554301 -4.33792e-19)
(0.520475 0.0622113 2.04332e-19)
(0.581166 0.0697871 3.81585e-19)
(0.641795 0.0780708 -4.01982e-19)
(0.70185 0.0869534 2.91098e-19)
(0.760882 0.0962973 -3.75904e-19)
(0.818524 0.105923 2.72738e-19)
(0.874501 0.115659 -7.4717e-20)
(0.928776 0.125777 4.26575e-19)
(0.977795 0.135525 -4.83122e-19)
(-0.0106216 0.0079718 4.47e-20)
(-0.0210329 0.0174902 3.52778e-20)
(-0.0215489 0.0231272 8.62811e-20)
(-0.013257 0.0261456 3.08105e-19)
(0.00300301 0.027555 -9.66751e-21)
(0.0265352 0.0281375 6.87873e-20)
(0.0567341 0.0284729 3.06169e-19)
(0.0930534 0.0289907 1.23516e-19)
(0.134971 0.030007 -4.06821e-20)
(0.181957 0.0317477 3.46269e-19)
(0.233452 0.0343652 -3.94221e-19)
(0.288853 0.0379499 6.04753e-19)
(0.347505 0.0425396 -2.39909e-19)
(0.408713 0.0481258 4.3528e-19)
(0.471744 0.0546603 -1.46966e-19)
(0.535852 0.062061 5.35815e-20)
(0.600298 0.0702166 6.48934e-20)
(0.664369 0.0789916 -1.24987e-19)
(0.727408 0.0882293 1.0477e-19)
(0.788828 0.0977532 6.72934e-20)
(0.848129 0.107365 9.24722e-20)
(0.904901 0.116841 1.94838e-19)
(0.958815 0.125955 -1.72852e-20)
(1.00975 0.134891 -8.88741e-20)
(1.05535 0.143966 2.62906e-19)
(-0.010363 0.00735645 -2.61427e-19)
(-0.0190403 0.0156521 2.76411e-20)
(-0.0167078 0.0203774 -4.96626e-19)
(-0.00464695 0.0227836 -1.18547e-19)
(0.0161748 0.0238895 -2.21967e-19)
(0.0449562 0.0244852 -4.75695e-20)
(0.0809855 0.0251453 -2.37598e-19)
(0.123599 0.0262851 -1.41986e-19)
(0.172141 0.0281976 1.87982e-19)
(0.225927 0.0310772 -3.13707e-19)
(0.284226 0.0350354 -8.7129e-20)
(0.346245 0.0401133 3.43117e-21)
(0.411142 0.0462912 -5.88766e-19)
(0.47803 0.0534974 2.50239e-19)
(0.546002 0.0616164 -3.65174e-19)
(0.61416 0.0704977 -1.13507e-20)
(0.681642 0.0799639 7.18264e-20)
(0.747648 0.0898179 -1.16779e-19)
(0.81147 0.0998505 -1.02254e-19)
(0.872503 0.109845 5.07196e-20)
(0.930261 0.11958 5.6509e-20)
(0.984372 0.12883 -3.66237e-19)
(1.03456 0.137382 2.08591e-19)
(1.08075 0.145362 1.04025e-19)
(1.1216 0.153758 2.74721e-20)
(-0.00988803 0.00665662 2.67337e-19)
(-0.0163347 0.0136411 -2.85104e-19)
(-0.0106007 0.0174654 3.99899e-19)
(0.0058203 0.0193423 6.22992e-20)
(0.0318141 0.0202847 -1.90682e-20)
(0.0664505 0.0210802 -1.34324e-19)
(0.108881 0.0222875 2.01911e-20)
(0.158287 0.0242953 2.04293e-19)
(0.213838 0.0273604 -2.81803e-19)
(0.27465 0.0316304 2.95961e-19)
(0.339778 0.03716 -3.12573e-20)
(0.40821 0.0439246 1.3778e-20)
(0.478884 0.0518327 3.84799e-19)
(0.550714 0.0607372 5.1549e-19)
(0.622625 0.0704485 -2.01704e-19)
(0.693589 0.0807463 3.57888e-19)
(0.762661 0.0913922 1.81486e-19)
(0.829007 0.102141 -1.11103e-19)
(0.891931 0.11275 3.51074e-19)
(0.950886 0.122988 -1.38536e-20)
(1.00547 0.132639 -3.36374e-19)
(1.05545 0.141507 3.54027e-19)
(1.10067 0.149418 5.03662e-20)
(1.14118 0.156479 -2.18079e-19)
(1.17646 0.164026 6.83249e-20)
(-0.00916009 0.00587482 -3.71802e-19)
(-0.0128185 0.0114758 3.88607e-19)
(-0.00308324 0.0144348 -2.4652e-19)
(0.0183209 0.015896 -7.68649e-20)
(0.0501101 0.0168487 -1.7222e-19)
(0.0911951 0.0180647 3.04562e-19)
(0.140552 0.0200726 -1.76794e-19)
(0.197166 0.0232188 -8.10397e-20)
(0.25998 0.0277067 -2.31957e-19)
(0.32787 0.0336183 5.98217e-21)
(0.399635 0.0409329 -9.07379e-20)
(0.474016 0.0495432 4.41657e-20)
(0.549724 0.0592714 -4.64844e-19)
(0.625484 0.0698865 1.32446e-19)
(0.700081 0.0811218 -1.59781e-19)
(0.772405 0.0926918 -1.28662e-19)
(0.841491 0.104309 3.95945e-20)
(0.906545 0.115697 -1.87502e-19)
(0.966962 0.126604 -8.03004e-20)
(1.02233 0.136807 2.31567e-19)
(1.07241 0.146121 9.77696e-20)
(1.11715 0.1544 -4.15556e-19)
(1.15661 0.161526 3.04999e-19)
(1.19099 0.167616 -5.7565e-20)
(1.22034 0.174112 -1.1856e-19)
(-0.0081409 0.00501732 -1.35401e-19)
(-0.00839315 0.00918499 -7.2434e-20)
(0.00598592 0.0113448 -1.44301e-20)
(0.0330196 0.0125383 1.06068e-19)
(0.0712269 0.0137108 1.15321e-19)
(0.119322 0.0156012 1.00386e-19)
(0.176062 0.01869 1.24908e-19)
(0.240182 0.0232615 1.9063e-19)
(0.310354 0.0294438 2.91376e-19)
(0.385165 0.037232 2.8825e-19)
(0.463132 0.0465096 1.52194e-19)
(0.542736 0.0570696 -4.08797e-20)
(0.622473 0.0686371 1.02142e-20)
(0.700913 0.0808932 -1.3813e-20)
(0.776755 0.0934981 1.20419e-19)
(0.848881 0.106113 -3.20042e-20)
(0.916387 0.11842 3.56414e-19)
(0.978603 0.130134 -1.59743e-19)
(1.0351 0.141018 2.43401e-21)
(1.08565 0.150884 1.12218e-19)
(1.13027 0.159596 -2.45022e-19)
(1.1691 0.167071 4.07108e-19)
(1.20242 0.173258 -3.29633e-19)