1.22 	3.45254e-18 	-6.98323e-18 	-0.170794 	0.00528193 	-8.89581e-22
1.66 	3.45254e-18 	-6.96118e-18 	-0.317923 	0.00213706 	-3.1256e-23
2.1 	3.45254e-18 	-6.93894e-18 	-0.442075 	-0.00137387 	-2.90818e-21
2.54 	3.45254e-18 	-8.30431e-18 	-0.545792 	-0.00478673 	-7.17149e-23
2.98 	3.45254e-18 	-8.28171e-18 	-0.417751 	-0.00295531 	2.28614e-21
3.42 	3.45254e-18 	-6.87115e-18 	-0.34796 	0.000320439 	1.86381e-21
3.86 	3.45254e-18 	-6.84819e-18 	-0.166464 	0.00115283 	2.58743e-22
4.3 	3.45254e-18 	-6.82504e-18 	-0.056858 	0.000621593 	4.7682e-22
4.74 	3.45254e-18 	-5.41391e-18 	0.0924455 	-0.00156248 	-6.38393e-23
5.18 	3.45254e-18 	-2.61482e-18 	0.202723 	-0.00325831 	9.58505e-23
5.62 	3.45254e-18 	-1.2033e-18 	0.312013 	-0.00455302 	-6.68683e-23
6.06 	3.45254e-18 	-1.17937e-18 	0.396359 	-0.00505554 	-2.60312e-22
6.5 	3.45254e-18 	-1.15524e-18 	0.471661 	-0.00502943 	1.64017e-22
