/*--------------------------------*- C++ -*----------------------------------*\
  =========                 |
  \\      /  F ield         | OpenFOAM: The Open Source CFD Toolbox
   \\    /   O peration     | Website:  https://openfoam.org
    \\  /    A nd           | Version:  6.0
     \\/     M anipulation  |
\*---------------------------------------------------------------------------*/
FoamFile
{
    version     2.0;
    format      ascii;
    class       surfaceScalarField;
    location    "27";
    object      phi;
}
// * * * * * * * * * * * * * * * * * * * * * * * * * * * * * * * * * * * * * //

dimensions      [0 3 -1 0 0 0 0];

internalField   nonuniform List<scalar> 
7840
(
3.48397e-05
-0.000248024
0.000123789
-0.000781977
0.000250017
-0.00132027
0.000394897
-0.00182009
0.000541067
-0.00224792
0.000675442
-0.00258684
0.000790463
-0.00283619
0.000883581
-0.00300654
0.000955829
-0.00311377
0.00101022
-0.00317447
0.00105048
-0.00320321
0.00108017
-0.00321143
0.00110228
-0.00320737
0.00111911
-0.00319662
0.00113231
-0.00318275
0.00114304
-0.00316796
0.00115206
-0.00315361
0.0011599
-0.00314049
0.00116688
-0.00312914
-0.00312004
0.00117319
3.6281e-05
-0.000284305
0.00012629
-0.000871985
0.000250461
-0.00144444
0.00038864
-0.00195827
0.000523501
-0.00238278
0.000643215
-0.00270655
0.000741963
-0.00293494
0.000818811
-0.00308339
0.000875932
-0.00317089
0.000916939
-0.00321548
0.000945692
-0.00323197
0.000965604
-0.00323134
0.000979369
-0.00322113
0.000988948
-0.0032062
0.000995694
-0.00318949
0.00100051
-0.00317278
0.00100399
-0.00315709
0.00100654
-0.00314304
0.00100839
-0.00313099
-0.00312133
0.00100968
3.73197e-05
-0.000321625
0.00012722
-0.000961885
0.000247652
-0.00156487
0.000377423
-0.00208804
0.000499745
-0.0025051
0.000604317
-0.00281112
0.000687078
-0.0030177
0.000748523
-0.00314483
0.000791707
-0.00321407
0.000820602
-0.00324438
0.000839035
-0.0032504
0.000850168
-0.00324247
0.000856361
-0.00322733
0.000859254
-0.00320909
0.000859931
-0.00319017
0.000859094
-0.00317194
0.000857201
-0.0031552
0.000854556
-0.00314039
0.000851344
-0.00312778
-0.00311764
0.00084765
3.7918e-05
-0.000359543
0.000126532
-0.0010505
0.000241664
-0.00168
0.000361604
-0.00220798
0.000470526
-0.00261402
0.000559829
-0.00290043
0.000627127
-0.00308499
0.000674127
-0.00319183
0.000704521
-0.00324447
0.000722433
-0.00326229
0.000731531
-0.0032595
0.00073467
-0.00324561
0.000733874
-0.00322653
0.000730487
-0.0032057
0.000725364
-0.00318505
0.000719044
-0.00316562
0.000711878
-0.00314803
0.0007041
-0.00313262
0.000695854
-0.00311954
-0.00310898
0.0006872
3.805e-05
-0.000397593
0.000124226
-0.00113668
0.000232657
-0.00178844
0.000341627
-0.00231695
0.000436618
-0.00270902
0.000510796
-0.0029746
0.000563308
-0.00313751
0.00059684
-0.00322536
0.000615498
-0.00326313
0.000623399
-0.00327019
0.000623962
-0.00326006
0.000619714
-0.00324136
0.000612358
-0.00321918
0.000602978
-0.00319632
0.000592237
-0.0031743
0.000580546
-0.00315393
0.000568171
-0.00313566
0.000555296
-0.00311974
0.000542035
-0.00310627
-0.00309538
0.000528436
3.7702e-05
-0.000435295
0.000120343
-0.00121932
0.000220852
-0.00188894
0.000317991
-0.00241409
0.000398799
-0.00278982
0.000458196
-0.003034
0.000496679
-0.00317599
0.000517688
-0.00324637
0.00052555
-0.00327099
0.000524253
-0.00326889
0.00051692
-0.00325273
0.000505744
-0.00323019
0.000492141
-0.00320557
0.000476969
-0.00318115
0.000460733
-0.00315807
0.000443741
-0.00313694
0.000426198
-0.00311811
0.000408247
-0.00310179
0.000389986
-0.00308801
-0.00307685
0.000371455
3.68721e-05
-0.000472167
0.00011496
-0.00129741
0.00020652
-0.0019805
0.00029122
-0.00249879
0.000357821
-0.00285642
0.000402916
-0.0030791
0.000428155
-0.00320123
0.000437521
-0.00325574
0.000435404
-0.00326887
0.000425578
-0.00325906
0.000410848
-0.003238
0.000393089
-0.00321243
0.000373461
-0.00318595
0.000352634
-0.00316032
0.000330987
-0.00313642
0.000308743
-0.00311469
0.000286056
-0.00309543
0.000263045
-0.00307878
0.000239795
-0.00306476
-0.0030534
0.000216347
3.55693e-05
-0.000507736
0.000108183
-0.00137002
0.00018996
-0.00206228
0.000261839
-0.00257067
0.000314387
-0.00290897
0.000345746
-0.00311046
0.000358515
-0.003214
0.000357035
-0.00325426
0.000345637
-0.00325747
0.000327825
-0.00324125
0.000306079
-0.00321625
0.00028199
-0.00318834
0.000256494
-0.00316045
0.000230106
-0.00313394
0.000203102
-0.00310942
0.000175639
-0.00308723
0.000147828
-0.00306762
0.000119768
-0.00305072
9.154e-05
-0.00303654
-0.00302505
6.31909e-05
3.38126e-05
-0.000541549
0.000100141
-0.00143635
0.000171488
-0.00213363
0.000230358
-0.00262954
0.000269139
-0.00294775
0.000287373
-0.00312869
0.000288413
-0.00321504
0.000276796
-0.00324264
0.000256702
-0.00323738
0.000231337
-0.00321589
0.000202868
-0.00318778
0.000172628
-0.0031581
0.00014137
-0.00312919
0.000109484
-0.00310205
7.71598e-05
-0.00307709
4.44998e-05
-0.00305457
1.15802e-05
-0.0030347
-2.15184e-05
-0.00301762
-5.47119e-05
-0.00300334
-0.00299182
-8.79423e-05
3.16293e-05
-0.000573178
9.09773e-05
-0.0014957
0.000151422
-0.00219407
0.000197257
-0.00267537
0.000222656
-0.00297315
0.000228393
-0.00313443
0.000218395
-0.00320504
0.000197263
-0.00322151
0.000168963
-0.00320908
0.000136385
-0.00318331
0.000101408
-0.00315281
6.51426e-05
-0.00312184
2.8189e-05
-0.00309224
-9.16044e-06
-0.0030647
-4.67818e-05
-0.00303947
-8.46229e-05
-0.00301673
-0.00012264
-0.00299668
-0.000160768
-0.00297949
-0.000198914
-0.0029652
-0.00295373
-0.000237003
2.90539e-05
-0.000602232
8.08458e-05
-0.00154749
0.000130077
-0.0022433
0.000162982
-0.00270828
0.00017545
-0.00298562
0.000169316
-0.00312829
0.000148916
-0.00318464
0.000118812
-0.0031914
8.27079e-05
-0.00317298
4.31853e-05
-0.00314379
1.85721e-06
-0.00311148
-4.03547e-05
-0.00307962
-8.29695e-05
-0.00304962
-0.000125769
-0.0030219
-0.000168682
-0.00299656
-0.000211699
-0.00297371
-0.000254811
-0.00295357
-0.000297965
-0.00293634
-0.000341059
-0.0029221
-0.0029108
-0.000383991
2.61263e-05
-0.000628358
6.99042e-05
-0.00159127
0.000107751
-0.00228115
0.000127943
-0.00272847
0.000127975
-0.00298565
0.000110578
-0.0031109
8.03577e-05
-0.00315442
4.1753e-05
-0.0031528
-1.81957e-06
-0.0031294
-4.80783e-05
-0.00309753
-9.56476e-05
-0.00306391
-0.000143763
-0.00303151
-0.000192035
-0.00300135
-0.000240298
-0.00297364
-0.000288517
-0.00294834
-0.000336722
-0.00292551
-0.00038494
-0.00290535
-0.00043314
-0.00288814
-0.000481203
-0.00287404
-0.00286301
-0.000528992
2.28905e-05
-0.000651249
5.8311e-05
-0.00162669
8.47294e-05
-0.00230757
9.25077e-05
-0.00273625
8.06277e-05
-0.00297377
5.25556e-05
-0.00308282
1.3045e-05
-0.00311491
-3.36479e-05
-0.00310611
-8.4408e-05
-0.00307864
-0.000137238
-0.0030447
-0.000190973
-0.00301018
-0.000244979
-0.0029775
-0.000298933
-0.0029474
-0.000352699
-0.00291987
-0.000406266
-0.00289477
-0.000459695
-0.00287208
-0.000513056
-0.00285199
-0.00056635
-0.00283484
-0.000619448
-0.00282094
-0.00281031
-0.000672151
1.93938e-05
-0.000670643
4.62219e-05
-0.00165351
6.12778e-05
-0.00232262
5.7011e-05
-0.00273198
3.37573e-05
-0.00295052
-4.42708e-06
-0.00304464
-5.274e-05
-0.0030666
-0.000107154
-0.00305169
-0.000164859
-0.00302094
-0.000224125
-0.00298543
-0.000283974
-0.00295033
-0.000343881
-0.0029176
-0.000403569
-0.00288771
-0.000462914
-0.00286053
-0.000521905
-0.00283578
-0.000580624
-0.00281336
-0.00063919
-0.00279342
-0.000697652
-0.00277638
-0.000755879
-0.00276271
-0.00275261
-0.000813579
1.5685e-05
-0.000686328
3.37876e-05
-0.00167162
3.76419e-05
-0.00232648
2.17518e-05
-0.00271609
-1.23287e-05
-0.00291644
-6.0084e-05
-0.00299689
-0.000116746
-0.00300994
-0.000178546
-0.00298989
-0.000242975
-0.00295651
-0.000308553
-0.00291985
-0.000374474
-0.00288441
-0.000440306
-0.00285176
-0.000505808
-0.00282221
-0.000570847
-0.00279549
-0.000635391
-0.00277124
-0.000699516
-0.00274924
-0.00076338
-0.00272956
-0.000827099
-0.00271266
-0.000890554
-0.00269926
-0.00268985
-0.000953316
1.18136e-05
-0.000698141
2.11519e-05
-0.00168095
1.40471e-05
-0.00231937
-1.30025e-05
-0.00268904
-5.73586e-05
-0.00287208
-0.000114162
-0.00294008
-0.000178741
-0.00294536
-0.000247608
-0.00292103
-0.000318546
-0.00288557
-0.000390308
-0.00284809
-0.000462249
-0.00281247
-0.000534027
-0.00277999
-0.000605436
-0.0027508
-0.000676331
-0.00272459
-0.000746632
-0.00270094
-0.000816372
-0.0026795
-0.000885719
-0.00266021
-0.000954862
-0.00264352
-0.00102372
-0.0026304
-0.00262183
-0.00109174
7.82912e-06
-0.00070597
8.44996e-06
-0.00168158
-9.30208e-06
-0.00230162
-4.70145e-05
-0.00265133
-0.000101093
-0.002818
-0.000166434
-0.00287474
-0.000238513
-0.00287328
-0.000314128
-0.00284541
-0.000391346
-0.00280835
-0.000469139
-0.0027703
-0.000547014
-0.00273459
-0.000624728
-0.00270227
-0.000702128
-0.0026734
-0.000779065
-0.00264765
-0.000855412
-0.00262459
-0.000931125
-0.00260378
-0.00100635
-0.00258499
-0.00108136
-0.00256851
-0.00115614
-0.00255562
-0.00254762
-0.00123034
3.77941e-06
-0.00070975
-4.19326e-06
-0.0016736
-3.22226e-05
-0.00227359
-8.00761e-05
-0.00260348
-0.000143323
-0.00275476
-0.000216698
-0.00280137
-0.000295859
-0.00279411
-0.000377893
-0.00276338
-0.000461132
-0.00272511
-0.000544756
-0.00268667
-0.000628422
-0.00265092
-0.000712004
-0.00261869
-0.000795428
-0.00258997
-0.000878591
-0.00256449
-0.000961346
-0.00254183
-0.00104358
-0.00252155
-0.00112538
-0.00250319
-0.00120714
-0.00248675
-0.00128907
-0.00247368
-0.00246494
-0.00137175
-2.89968e-07
-0.00070946
-1.66647e-05
-0.00165723
-5.45544e-05
-0.0022357
-0.000112009
-0.00254602
-0.00018387
-0.00268289
-0.000264778
-0.00272046
-0.000350596
-0.0027083
-0.000438689
-0.00267528
-0.000527639
-0.00263616
-0.000616817
-0.0025975
-0.000706032
-0.00256171
-0.000795293
-0.00252943
-0.000884664
-0.0025006
-0.000974178
-0.00247498
-0.00106378
-0.00245223
-0.00115336
-0.00243197
-0.00124291
-0.00241364
-0.00133279
-0.00239687
-0.00142355
-0.00238292
-0.00237057
-0.00151793
-4.33709e-06
-0.000705123
-2.88651e-05
-0.0016327
-7.61617e-05
-0.00218841
-0.000142666
-0.00247952
-0.000222591
-0.00260297
-0.000310533
-0.00263252
-0.00040257
-0.00261626
-0.000496327
-0.00258153
-0.000590606
-0.00254188
-0.000684943
-0.00250316
-0.000779275
-0.00246738
-0.00087375
-0.00243495
-0.000968614
-0.00240574
-0.00106415
-0.00237944
-0.00116065
-0.00235574
-0.0012583
-0.00233433
-0.00135721
-0.00231472
-0.00145796
-0.00229613
-0.00156277
-0.00227811
-0.00227197
-0.00166138
-8.31244e-06
-0.00069681
-4.06902e-05
-0.00160032
-9.69117e-05
-0.00213218
-0.000171912
-0.00240452
-0.000259359
-0.00251552
-0.000353847
-0.00253803
-0.000451663
-0.00251844
-0.000550669
-0.00248252
-0.000649846
-0.00244271
-0.000748845
-0.00240416
-0.000847671
-0.00236855
-0.000946518
-0.00233611
-0.00104571
-0.00230655
-0.00114569
-0.00227945
-0.0012471
-0.00225434
-0.00135074
-0.00223068
-0.00145749
-0.00220796
-0.00156775
-0.00218587
-0.00168248
-0.00216338
-0.00213353
-0.00182092
-1.22049e-05
-0.000684605
-5.21075e-05
-0.00156042
-0.000116764
-0.00206753
-0.000199714
-0.00232157
-0.000294158
-0.00242108
-0.000394716
-0.00243747
-0.000497884
-0.00241528
-0.000601734
-0.00237867
-0.000705395
-0.00233905
-0.000808591
-0.00230096
-0.000911334
-0.00226581
-0.00101376
-0.00223368
-0.00111606
-0.00220425
-0.00121844
-0.00217707
-0.00132114
-0.00215163
-0.00142436
-0.00212746
-0.00152818
-0.00210415
-0.00163281
-0.00208124
-0.00173895
-0.00205724
-0.00202871
-0.00184377
-1.59758e-05
-0.00066863
-6.30434e-05
-0.00151335
-0.000135634
-0.00199494
-0.000225998
-0.0022312
-0.000326934
-0.00232014
-0.000433114
-0.00233129
-0.000541233
-0.00230716
-0.000649553
-0.00227035
-0.000757332
-0.00223127
-0.000864361
-0.00219394
-0.000970671
-0.0021595
-0.00107639
-0.00212796
-0.00118165
-0.00209899
-0.0012866
-0.00207213
-0.00139131
-0.00204693
-0.00149579
-0.00202297
-0.00160003
-0.00199991
-0.00170397
-0.0019773
-0.00180692
-0.0019543
-0.00193008
-0.00190555
-1.9603e-05
-0.000649027
-7.34569e-05
-0.0014595
-0.00015348
-0.00191491
-0.000250739
-0.00213394
-0.000357687
-0.00221319
-0.000469068
-0.00221991
-0.000581763
-0.00219446
-0.000694207
-0.00215791
-0.000805765
-0.00211971
-0.000916273
-0.00208343
-0.00102577
-0.00205
-0.00113434
-0.00201939
-0.0012421
-0.00199123
-0.00134909
-0.00196513
-0.00145532
-0.00194069
-0.00156072
-0.00191757
-0.00166515
-0.00189549
-0.00176832
-0.00187412
-0.00186958
-0.00185303
-0.00183179
-0.00196787
-2.30689e-05
-0.000625958
-8.33177e-05
-0.00139925
-0.00017028
-0.00182795
-0.000273931
-0.00203029
-0.00038644
-0.00210069
-0.000502628
-0.00210372
-0.00061956
-0.00207753
-0.000735827
-0.00204164
-0.000850891
-0.00200465
-0.000964632
-0.00196969
-0.00107709
-0.00193754
-0.00118836
-0.00190812
-0.00129851
-0.00188109
-0.00140756
-0.00185608
-0.0015155
-0.00183275
-0.00162225
-0.00181082
-0.00172767
-0.00179006
-0.00183152
-0.00177028
-0.00193339
-0.00175116
-0.00173248
-0.00203271
-2.63595e-05
-0.000599598
-9.26049e-05
-0.001333
-0.000186019
-0.00173454
-0.000295584
-0.00192073
-0.000413226
-0.00198304
-0.000533855
-0.00198309
-0.000654711
-0.00195668
-0.000774528
-0.00192182
-0.000892854
-0.00188632
-0.00100961
-0.00185293
-0.00112487
-0.00182229
-0.0012387
-0.00179429
-0.00135117
-0.00176862
-0.00146232
-0.00174493
-0.00157212
-0.00172295
-0.00168052
-0.00170242
-0.00178742
-0.00168317
-0.00189267
-0.00166503
-0.00199606
-0.00164776
-0.00163122
-0.00209732
-2.94638e-05
-0.000570135
-0.000101304
-0.00126116
-0.000200694
-0.00163515
-0.000315714
-0.00180571
-0.000438083
-0.00186067
-0.000562813
-0.00185836
-0.000687303
-0.00183218
-0.000810422
-0.0017987
-0.000931798
-0.00176494
-0.0010514
-0.00173333
-0.0011693
-0.00170439
-0.0012856
-0.00167799
-0.00140036
-0.00165385
-0.00151365
-0.00163165
-0.00162546
-0.00161114
-0.00173576
-0.00159211
-0.00184452
-0.00157441
-0.00195167
-0.00155789
-0.00205711
-0.00154233
-0.00152763
-0.00216069
-3.23734e-05
-0.000537761
-0.000109407
-0.00118413
-0.000214307
-0.00153025
-0.000334339
-0.00168568
-0.000461053
-0.00173396
-0.000589559
-0.00172986
-0.000717413
-0.00170433
-0.000843603
-0.00167251
-0.000967834
-0.00164071
-0.00109011
-0.00161105
-0.00121053
-0.00158396
-0.00132922
-0.00155931
-0.00144625
-0.00153681
-0.00156169
-0.00151621
-0.00167559
-0.00149725
-0.00178794
-0.00147976
-0.00189876
-0.00146359
-0.00200803
-0.00144862
-0.00211573
-0.00143462
-0.00142157
-0.00222179
-3.50816e-05
-0.00050268
-0.000116906
-0.00110231
-0.000226863
-0.00142029
-0.000351481
-0.00156106
-0.000482171
-0.00160327
-0.000614146
-0.00159788
-0.000745104
-0.00157337
-0.000874145
-0.00154347
-0.00100104
-0.00151382
-0.00112584
-0.00148626
-0.00124866
-0.00146114
-0.00136963
-0.00143833
-0.00148887
-0.00141757
-0.00160646
-0.00139862
-0.00172246
-0.00138125
-0.00183692
-0.0013653
-0.00194988
-0.00135064
-0.00206136
-0.00133714
-0.00217139
-0.0013246
-0.00131301
-0.00227994
-3.75829e-05
-0.000465097
-0.000123798
-0.00101609
-0.000238366
-0.00130572
-0.000367157
-0.00143227
-0.00050147
-0.00146896
-0.000636615
-0.00146274
-0.000770425
-0.00143956
-0.0009021
-0.0014118
-0.00103148
-0.00138444
-0.00115863
-0.0013591
-0.00128371
-0.00133606
-0.00140687
-0.00131517
-0.00152824
-0.00129621
-0.00164791
-0.00127894
-0.00176599
-0.00126317
-0.00188254
-0.00124875
-0.00199762
-0.00123556
-0.00211129
-0.00122346
-0.00222361
-0.00121228
-0.00120204
-0.00233458
-3.98725e-05
-0.000425224
-0.000130079
-0.000925884
-0.000248822
-0.00118698
-0.000381385
-0.0012997
-0.000518975
-0.00133137
-0.000656999
-0.00132471
-0.000793412
-0.00130315
-0.000927504
-0.0012777
-0.00105917
-0.00125278
-0.00118851
-0.00122976
-0.00131571
-0.00120886
-0.00144092
-0.00118996
-0.0015643
-0.00117283
-0.00168597
-0.00115727
-0.00180604
-0.0011431
-0.0019246
-0.00113019
-0.00204173
-0.00111843
-0.00215751
-0.00110768
-0.00227201
-0.00109778
-0.00108878
-0.00238527
-4.19464e-05
-0.000383278
-0.000135746
-0.000832084
-0.000258233
-0.00106449
-0.000394175
-0.00116376
-0.000534706
-0.00119083
-0.000675322
-0.0011841
-0.000814088
-0.00116438
-0.000950377
-0.00114142
-0.00108413
-0.00111903
-0.00121548
-0.0010984
-0.00134463
-0.00107972
-0.00147175
-0.00106284
-0.00159701
-0.00104757
-0.00172055
-0.00103373
-0.00184249
-0.00102116
-0.00196294
-0.00100974
-0.002082
-0.000999367
-0.00219976
-0.000989915
-0.0023163
-0.000981241
-0.000973408
-0.00243167
-4.38007e-05
-0.000339477
-0.000140795
-0.00073509
-0.000266602
-0.000938687
-0.000405537
-0.00102483
-0.000548675
-0.0010477
-0.000691598
-0.00104117
-0.000832469
-0.00102351
-0.000970729
-0.00100316
-0.00110636
-0.000983396
-0.00123953
-0.000965232
-0.00137045
-0.000948799
-0.00149931
-0.000933976
-0.0016263
-0.000920589
-0.00175155
-0.000908476
-0.00187521
-0.000897501
-0.0019974
-0.000887552
-0.00211823
-0.000878535
-0.00223781
-0.000870341
-0.00235621
-0.000862841
-0.000856108
-0.00247351
-4.54319e-05
-0.000294045
-0.000145224
-0.000635298
-0.000273929
-0.000809981
-0.000415476
-0.000883282
-0.000560893
-0.000902278
-0.000705838
-0.00089623
-0.000848559
-0.000880792
-0.00098856
-0.000863155
-0.00112586
-0.000846096
-0.00126065
-0.000830442
-0.00139315
-0.0008163
-0.00152357
-0.000803557
-0.00165209
-0.000792065
-0.00177888
-0.000781683
-0.00190409
-0.000772291
-0.00202785
-0.000763795
-0.00215027
-0.000756111
-0.00227147
-0.000749142
-0.00239154
-0.000742778
-0.000737094
-0.00251055
-4.68367e-05
-0.000247208
-0.000149028
-0.000533107
-0.000280215
-0.000678795
-0.000423995
-0.000739502
-0.000571365
-0.000754908
-0.000718046
-0.000749548
-0.000862362
-0.000736476
-0.00100387
-0.000721649
-0.00114261
-0.000707349
-0.00127881
-0.000694248
-0.00141268
-0.000682424
-0.00154446
-0.000671781
-0.00167433
-0.000662192
-0.00180247
-0.000653541
-0.00192904
-0.000645726
-0.00205417
-0.000638668
-0.00217798
-0.000632296
-0.0023006
-0.000626526
-0.00242211
-0.000621266
-0.00061659
-0.00254261
-4.80123e-05
-0.000199196
-0.000152205
-0.000428914
-0.000285457
-0.000545543
-0.000431096
-0.000593863
-0.000580092
-0.000605912
-0.000728223
-0.000601417
-0.000873874
-0.000590825
-0.00101664
-0.00057888
-0.0011566
-0.000567387
-0.00129398
-0.000556869
-0.00142902
-0.000547385
-0.00156195
-0.000538856
-0.00169296
-0.000531178
-0.00182225
-0.000524257
-0.00194996
-0.000518013
-0.00207625
-0.000512381
-0.00220124
-0.000507302
-0.00232506
-0.00050271
-0.00244779
-0.000498531
-0.000494829
-0.00256955
-4.89561e-05
-0.00015024
-0.000154751
-0.000323119
-0.000289654
-0.00041064
-0.000436779
-0.000446738
-0.000587075
-0.000455616
-0.000736369
-0.000452124
-0.000883091
-0.000444102
-0.00102688
-0.000435095
-0.00116782
-0.000426444
-0.00130615
-0.000418534
-0.00144213
-0.000411407
-0.00157599
-0.000405
-0.00170793
-0.000399238
-0.00183814
-0.000394047
-0.00196678
-0.000389368
-0.00209401
-0.000385152
-0.00221996
-0.000381354
-0.00234475
-0.000377923
-0.00246847
-0.000374805
-0.000372052
-0.00259125
-4.9666e-05
-0.000100574
-0.000156663
-0.000216122
-0.000292804
-0.000274499
-0.000441042
-0.0002985
-0.000592314
-0.000304343
-0.00074248
-0.000301958
-0.00089001
-0.000296573
-0.00103456
-0.000290544
-0.00117624
-0.000284761
-0.0013153
-0.000279477
-0.00145199
-0.000274718
-0.00158655
-0.000270442
-0.00171919
-0.000266597
-0.0018501
-0.000263136
-0.00197945
-0.000260018
-0.00210739
-0.00025721
-0.00223406
-0.000254683
-0.00235958
-0.000252402
-0.00248406
-0.00025033
-0.000248506
-0.00260761
-5.01401e-05
-5.04338e-05
-0.000157939
-0.000108323
-0.000294905
-0.000137534
-0.000443885
-0.00014952
-0.000595808
-0.00015242
-0.000746556
-0.000151209
-0.000894625
-0.000148504
-0.00103969
-0.000145481
-0.00118187
-0.000142582
-0.00132141
-0.000139936
-0.00145857
-0.000137552
-0.0015936
-0.000135411
-0.00172672
-0.000133486
-0.0018581
-0.000131754
-0.00198792
-0.000130194
-0.00211634
-0.00012879
-0.0022435
-0.000127527
-0.00236951
-0.000126387
-0.00249449
-0.000125353
-0.000124443
-0.00261855
-5.03774e-05
-5.64142e-08
-0.000158578
-1.2228e-07
-0.000295956
-1.55667e-07
-0.000445307
-1.69064e-07
-0.000597555
-1.717e-07
-0.000748595
-1.6935e-07
-0.000896934
-1.65107e-07
-0.00104225
-1.60389e-07
-0.00118468
-1.55744e-07
-0.00132447
-1.51339e-07
-0.00146187
-1.47202e-07
-0.00159714
-1.4332e-07
-0.00173048
-1.39672e-07
-0.0018621
-1.36234e-07
-0.00199216
-1.32988e-07
-0.00212082
-1.29917e-07
-0.00224822
-1.27007e-07
-0.00237449
-1.24242e-07
-0.00249972
-1.21601e-07
-1.19087e-07
-0.00262404
-5.03775e-05
5.03211e-05
-0.000158578
0.000108078
-0.000295956
0.000137222
-0.000445307
0.000149182
-0.000597556
0.000152077
-0.000748596
0.000150871
-0.000896935
0.000148174
-0.00104225
0.00014516
-0.00118468
0.000142271
-0.00132447
0.000139633
-0.00146187
0.000137258
-0.00159714
0.000135124
-0.00173048
0.000133207
-0.0018621
0.000131482
-0.00199216
0.000129928
-0.00212082
0.00012853
-0.00224822
0.000127273
-0.00237449
0.000126139
-0.00249972
0.000125109
0.000124205
-0.00262404
-5.01404e-05
0.000100461
-0.00015794
0.000215878
-0.000294906
0.000274188
-0.000443886
0.000298162
-0.00059581
0.000304
-0.000746558
0.00030162
-0.000894627
0.000296243
-0.00103969
0.000290223
-0.00118187
0.000284449
-0.00132141
0.000279175
-0.00145858
0.000274423
-0.00159361
0.000270155
-0.00172672
0.000266318
-0.0018581
0.000262864
-0.00198792
0.000259752
-0.00211634
0.00025695
-0.0022435
0.000254429
-0.00236951
0.000252153
-0.00249449
0.000250087
0.000248268
-0.00261856
-4.96664e-05
0.000150128
-0.000156664
0.000322876
-0.000292806
0.000410329
-0.000441044
0.000446401
-0.000592317
0.000455273
-0.000742483
0.000451786
-0.000890013
0.000443773
-0.00103456
0.000434775
-0.00117625
0.000426133
-0.00131531
0.000418232
-0.00145199
0.000411113
-0.00158655
0.000404714
-0.00171919
0.000398958
-0.00185011
0.000393775
-0.00197946
0.000389102
-0.0021074
0.000384892
-0.00223407
0.0003811
-0.00235959
0.000377675
-0.00248406
0.000374562
0.000371814
-0.00260761
-4.89568e-05
0.000199085
-0.000154753
0.000428672
-0.000289656
0.000545233
-0.000436782
0.000593526
-0.000587079
0.00060557
-0.000736373
0.000601079
-0.000883096
0.000590496
-0.00102688
0.00057856
-0.00116782
0.000567076
-0.00130616
0.000556567
-0.00144214
0.000547091
-0.00157599
0.000538569
-0.00170793
0.000530899
-0.00183814
0.000523985
-0.00196679
0.000517747
-0.00209402
0.000512121
-0.00221997
0.000507049
-0.00234475
0.000502462
-0.00246848
0.000498288
0.000494591
-0.00259126
-4.80132e-05
0.000247098
-0.000152207
0.000532866
-0.00028546
0.000678486
-0.0004311
0.000739166
-0.000580097
0.000754567
-0.000728228
0.000749211
-0.00087388
0.000736147
-0.00101665
0.000721329
-0.00115661
0.000707039
-0.00129399
0.000693946
-0.00142903
0.00068213
-0.00156195
0.000671495
-0.00169297
0.000661914
-0.00182225
0.000653269
-0.00194997
0.000645461
-0.00207626
0.000638409
-0.00220125
0.000632043
-0.00232507
0.000626278
-0.0024478
0.000621024
0.000616352
-0.00256956
-4.68378e-05
0.000293936
-0.000149031
0.000635059
-0.000280219
0.000809674
-0.000424
0.000882947
-0.000571371
0.000901937
-0.000718053
0.000895893
-0.000862369
0.000880463
-0.00100388
0.000862835
-0.00114262
0.000845785
-0.00127882
0.000830141
-0.00141269
0.000816006
-0.00154447
0.000803272
-0.00167434
0.000791786
-0.00180248
0.000781411
-0.00192905
0.000772026
-0.00205418
0.000763536
-0.00217799
0.000755858
-0.00230061
0.000748895
-0.00242212
0.000742536
0.000736857
-0.00254263
-4.54331e-05
0.000339369
-0.000145227
0.000734852
-0.000273934
0.000938382
-0.000415482
0.00102449
-0.000560901
0.00104736
-0.000705846
0.00104084
-0.000848568
0.00102318
-0.000988569
0.00100284
-0.00112587
0.000983087
-0.00126066
0.00096493
-0.00139316
0.000948506
-0.00152358
0.00093369
-0.0016521
0.00092031
-0.0017789
0.000908205
-0.00190411
0.000897236
-0.00202786
0.000887293
-0.00215029
0.000878282
-0.00227149
0.000870093
-0.00239155
0.000862599
0.000855871
-0.00251056
-4.38021e-05
0.000383171
-0.000140799
0.000831849
-0.000266608
0.00106419
-0.000405544
0.00116343
-0.000548684
0.0011905
-0.000691608
0.00118376
-0.000832479
0.00116406
-0.000970739
0.0011411
-0.00110637
0.00111872
-0.00123955
0.0010981
-0.00137046
0.00107943
-0.00149933
0.00106255
-0.00162631
0.00104729
-0.00175156
0.00103346
-0.00187522
0.0010209
-0.00199742
0.00100948
-0.00211825
0.000999114
-0.00223782
0.000989668
-0.00235622
0.000980999
0.000973171
-0.00247352
-4.19481e-05
0.000425119
-0.00013575
0.000925651
-0.000258239
0.00118668
-0.000394183
0.00129937
-0.000534715
0.00133103
-0.000675332
0.00132438
-0.0008141
0.00130282
-0.000950389
0.00127739
-0.00108414
0.00125247
-0.00121549
0.00122946
-0.00134464
0.00120857
-0.00147176
0.00118968
-0.00159702
0.00117255
-0.00172056
0.001157
-0.0018425
0.00114284
-0.00196295
0.00112993
-0.00208201
0.00111817
-0.00219978
0.00110743
-0.00231631
0.00109754
0.00108855
-0.00243169
-3.98744e-05
0.000464993
-0.000130084
0.00101586
-0.000248829
0.00130543
-0.000381394
0.00143194
-0.000518986
0.00146862
-0.000657011
0.0014624
-0.000793425
0.00143924
-0.000927518
0.00141148
-0.00105918
0.00138413
-0.00118852
0.0013588
-0.00131572
0.00133577
-0.00144094
0.00131489
-0.00156432
0.00129593
-0.00168599
0.00127867
-0.00180606
0.00126291
-0.00192461
0.00124849
-0.00204175
0.00123531
-0.00215753
0.00122321
-0.00227203
0.00121204
0.0012018
-0.00238529
-3.7585e-05
0.000502578
-0.000123803
0.00110208
-0.000238374
0.00142
-0.000367168
0.00156073
-0.000501482
0.00160294
-0.000636629
0.00159755
-0.00077044
0.00157305
-0.000902116
0.00154316
-0.00103149
0.00151351
-0.00115865
0.00148596
-0.00128373
0.00146085
-0.00140689
0.00143805
-0.00152826
0.0014173
-0.00164793
0.00139835
-0.00176601
0.00138098
-0.00188256
0.00136504
-0.00199764
0.00135039
-0.00211131
0.00133689
-0.00222363
0.00132436
0.00131278
-0.0023346
-3.50839e-05
0.000537662
-0.000116912
0.00118391
-0.000226872
0.00152996
-0.000351492
0.00168535
-0.000482185
0.00173363
-0.000614161
0.00172953
-0.00074512
0.00170401
-0.000874162
0.0016722
-0.00100106
0.00164041
-0.00112586
0.00161075
-0.00124868
0.00158367
-0.00136965
0.00155903
-0.00148889
0.00153654
-0.00160648
0.00151594
-0.00172249
0.00149699
-0.00183695
0.0014795
-0.0019499
0.00146334
-0.00206138
0.00144837
-0.00217141
0.00143438
0.00142133
-0.00227997
-3.2376e-05
0.000570038
-0.000109413
0.00126094
-0.000214317
0.00163486
-0.000334352
0.00180539
-0.000461068
0.00186034
-0.000589576
0.00185803
-0.000717431
0.00183186
-0.000843622
0.00179839
-0.000967854
0.00176464
-0.00109013
0.00173303
-0.00121056
0.0017041
-0.00132924
0.00167771
-0.00144627
0.00165357
-0.00156172
0.00163138
-0.00167561
0.00161088
-0.00178797
0.00159185
-0.00189878
0.00157416
-0.00200805
0.00155764
-0.00211575
0.00154209
0.0015274
-0.00222182
-2.94666e-05
0.000599505
-0.000101312
0.00133279
-0.000200705
0.00173425
-0.000315728
0.00192041
-0.0004381
0.00198272
-0.000562831
0.00198277
-0.000687323
0.00195636
-0.000810443
0.00192151
-0.00093182
0.00188602
-0.00105142
0.00185263
-0.00116932
0.001822
-0.00128562
0.00179401
-0.00140039
0.00176834
-0.00151367
0.00174467
-0.00162548
0.00172269
-0.00173579
0.00170216
-0.00184455
0.00168291
-0.00195169
0.00166478
-0.00205713
0.00164752
0.00163098
-0.00216071
-2.63625e-05
0.000625867
-9.26127e-05
0.00139904
-0.000186031
0.00182767
-0.0002956
0.00202998
-0.000413244
0.00210036
-0.000533876
0.0021034
-0.000654733
0.00207721
-0.000774551
0.00204133
-0.000892878
0.00200434
-0.00100964
0.00196939
-0.00112489
0.00193725
-0.00123872
0.00190784
-0.0013512
0.00188081
-0.00146234
0.00185581
-0.00157215
0.00183249
-0.00168055
0.00181057
-0.00178745
0.00178981
-0.0018927
0.00177003
-0.00199609
0.00175092
0.00173224
-0.00209735
-2.30722e-05
0.00064894
-8.33262e-05
0.00145929
-0.000170293
0.00191464
-0.000273949
0.00213364
-0.000386461
0.00221287
-0.000502651
0.00221959
-0.000619584
0.00219415
-0.000735853
0.0021576
-0.000850918
0.00211941
-0.000964659
0.00208313
-0.00107712
0.00204972
-0.00118839
0.00201911
-0.00129854
0.00199096
-0.00140759
0.00196486
-0.00151553
0.00194043
-0.00162228
0.00191732
-0.0017277
0.00189523
-0.00183155
0.00187388
-0.00193342
0.00185279
0.00183156
-0.00203274
-1.96066e-05
0.000668546
-7.34661e-05
0.00151315
-0.000153495
0.00199467
-0.000250757
0.0022309
-0.000357709
0.00231982
-0.000469092
0.00233097
-0.000581789
0.00230684
-0.000694235
0.00227004
-0.000805794
0.00223097
-0.000916303
0.00219364
-0.0010258
0.00215921
-0.00113438
0.00212768
-0.00124213
0.00209871
-0.00134912
0.00207186
-0.00145536
0.00204666
-0.00156076
0.00202272
-0.00166518
0.00199966
-0.00176835
0.00197705
-0.00186962
0.00195406
0.00192985
-0.0019679
-1.59796e-05
0.000684526
-6.30534e-05
0.00156023
-0.000135649
0.00206726
-0.000226018
0.00232127
-0.000326958
0.00242076
-0.000433141
0.00243715
-0.000541262
0.00241496
-0.000649583
0.00237836
-0.000757364
0.00233875
-0.000864394
0.00230067
-0.000970705
0.00226552
-0.00107642
0.0022334
-0.00118169
0.00220398
-0.00128663
0.0021768
-0.00139134
0.00215137
-0.00149583
0.0021272
-0.00160007
0.0021039
-0.00170401
0.00208099
-0.00180696
0.002057
0.00202848
-0.00190558
-1.2209e-05
0.000696735
-5.21183e-05
0.00160014
-0.000116781
0.00213193
-0.000199736
0.00240422
-0.000294184
0.00251521
-0.000394746
0.00253771
-0.000497916
0.00251813
-0.000601768
0.00248221
-0.00070543
0.00244241
-0.000808627
0.00240387
-0.000911371
0.00236827
-0.0010138
0.00233583
-0.00111609
0.00230628
-0.00121847
0.00227918
-0.00132118
0.00225408
-0.0014244
0.00223043
-0.00152822
0.00220771
-0.00163285
0.00218562
-0.00173899
0.00216314
0.00213329
-0.00184381
-8.31679e-06
0.000705052
-4.07018e-05
0.00163252
-9.69303e-05
0.00218816
-0.000171937
0.00247923
-0.000259388
0.00260266
-0.000353879
0.00263221
-0.000451697
0.00261595
-0.000550705
0.00258122
-0.000649884
0.00254159
-0.000748885
0.00250287
-0.000847711
0.00246709
-0.00094656
0.00243468
-0.00104575
0.00240547
-0.00114574
0.00237917
-0.00124714
0.00235548
-0.00135078
0.00233407
-0.00145753
0.00231447
-0.0015678
0.00229588
-0.00168252
0.00227787
0.00227173
-0.00182095
-4.3417e-06
0.000709393
-2.88775e-05
0.00165706
-7.61818e-05
0.00223546
-0.000142693
0.00254574
-0.000222622
0.00268259
-0.000310568
0.00272015
-0.000402607
0.00270799
-0.000496367
0.00267498
-0.000590647
0.00263587
-0.000684985
0.00259721
-0.000779319
0.00256143
-0.000873795
0.00252915
-0.000968659
0.00250033
-0.0010642
0.00247471
-0.00116069
0.00245197