1.22 	3.45254e-18 	-6.98323e-18 	-0.284942 	0.0091514 	-5.63924e-22
1.66 	3.45254e-18 	-6.96118e-18 	-0.561969 	0.00318639 	-4.04451e-23
2.1 	3.45254e-18 	-6.93894e-18 	-0.482415 	-0.00337362 	-1.61613e-21
2.54 	3.45254e-18 	-8.30431e-18 	-0.423026 	-0.00661302 	-2.18696e-23
2.98 	3.45254e-18 	-8.28171e-18 	-0.142803 	-0.00749899 	4.35694e-22
3.42 	3.45254e-18 	-6.87115e-18 	0.00867928 	-0.00605642 	4.44302e-23
3.86 	3.45254e-18 	-6.84819e-18 	0.222045 	-0.00570128 	-3.76219e-23
4.3 	3.45254e-18 	-6.82504e-18 	0.368854 	-0.00444339 	-3.35885e-22
4.74 	3.45254e-18 	-5.41391e-18 	0.499035 	-0.0035294 	2.22015e-22
5.18 	3.45254e-18 	-2.61482e-18 	0.589826 	-0.00271274 	1.30513e-22
5.62 	3.45254e-18 	-1.2033e-18 	0.662229 	-0.00222349 	-5.69772e-23
6.06 	3.45254e-18 	-1.17937e-18 	0.718933 	-0.00188132 	-1.54184e-22
6.5 	3.45254e-18 	-1.15524e-18 	0.76625 	-0.00161893 	7.49249e-23
