/*--------------------------------*- C++ -*----------------------------------*\
  =========                 |
  \\      /  F ield         | OpenFOAM: The Open Source CFD Toolbox
   \\    /   O peration     | Website:  https://openfoam.org
    \\  /    A nd           | Version:  6.0
     \\/     M anipulation  |
\*---------------------------------------------------------------------------*/
FoamFile
{
    version     2.0;
    format      ascii;
    class       surfaceScalarField;
    location    "22";
    object      phi;
}
// * * * * * * * * * * * * * * * * * * * * * * * * * * * * * * * * * * * * * //

dimensions      [0 3 -1 0 0 0 0];

internalField   nonuniform List<scalar> 
7840
(
3.5045e-05
-0.000251004
0.000124365
-0.000790296
0.000250884
-0.00133297
0.000395781
-0.00183581
0.000541602
-0.00226516
0.00067529
-0.00260433
0.000789382
-0.00285303
0.000881454
-0.00302224
0.000952643
-0.00312818
0.00100604
-0.00318763
0.0010454
-0.00321528
0.0010743
-0.00322258
0.00109572
-0.00321778
0.00111195
-0.00320643
0.00112462
-0.00319207
0.00113485
-0.00317687
0.00114342
-0.00316216
0.00115083
-0.00314872
0.0011574
-0.00313707
-0.00312768
0.00116332
3.64672e-05
-0.000287471
0.000126778
-0.000880606
0.000251124
-0.00145732
0.000389183
-0.00197386
0.000523577
-0.00239956
0.000642531
-0.00272328
0.00074034
-0.00295084
0.000816184
-0.00309809
0.000872326
-0.00318432
0.000912437
-0.00322774
0.000940396
-0.00324323
0.000959614
-0.0032418
0.000972772
-0.00323094
0.000981813
-0.00321547
0.000988072
-0.00319833
0.000992438
-0.00318124
0.000995499
-0.00316522
0.000997641
-0.00315087
0.000999109
-0.00313854
-0.00312859
0.00100002
3.74837e-05
-0.000324955
0.000127614
-0.000970736
0.00024811
-0.00157781
0.000377642
-0.0021034
0.000499405
-0.00252132
0.000603176
-0.00282706
0.00068501
-0.00303267
0.000745506
-0.00315858
0.000787795
-0.00322661
0.000815884
-0.00325583
0.000833611
-0.00326096
0.000844127
-0.00325231
0.000849778
-0.00323659
0.000852184
-0.00321788
0.000852413
-0.00319856
0.000851157
-0.00317998
0.000848867
-0.00316293
0.000845839
-0.00314784
0.000842256
-0.00313495
-0.00312454
0.000838202
3.80576e-05
-0.000363013
0.000126829
-0.00105951
0.000241922
-0.00169291
0.000361522
-0.002223
0.000469818
-0.00262962
0.000558304
-0.00291554
0.000624703
-0.00309907
0.000670817
-0.0032047
0.000700394
-0.00325618
0.000717582
-0.00327302
0.000726048
-0.00326943
0.000728633
-0.0032549
0.000727344
-0.0032353
0.000723509
-0.00321404
0.000717968
-0.00319302
0.000711254
-0.00317327
0.00070371
-0.00315538
0.000695566
-0.00313969
0.000686964
-0.00312635
-0.00311554
0.000677964
3.81635e-05
-0.000401176
0.000124426
-0.00114577
0.000232725
-0.00180121
0.000341273
-0.00233154
0.000435595
-0.00272394
0.000508956
-0.0029889
0.000560609
-0.00315073
0.000593319
-0.00323741
0.000611233
-0.0032741
0.000618479
-0.00328026
0.000618472
-0.00326942
0.000613719
-0.00325015
0.00060591
-0.00322749
0.000596112
-0.00320424
0.000584978
-0.00318188
0.000572911
-0.0031612
0.000560174
-0.00314265
0.000546948
-0.00312647
0.000533345
-0.00311275
-0.00310161
0.000519411
3.77886e-05
-0.000438965
0.000120449
-0.00122843
0.000220744
-0.0019015
0.000317398
-0.0024282
0.000397511
-0.00280405
0.000456105
-0.0030475
0.000493775
-0.0031884
0.000514023
-0.00325766
0.000521206
-0.00328128
0.000519314
-0.00327837
0.000511461
-0.00326157
0.000499821
-0.00323851
0.000485795
-0.00321347
0.000470229
-0.00318868
0.000453619
-0.00316527
0.000436268
-0.00314385
0.000418376
-0.00312476
0.000400086
-0.00310818
0.000381495
-0.00309416
-0.00308275
0.000362642
3.69316e-05
-0.000475896
0.000114975
-0.00130647
0.000206252
-0.00199278
0.00029042
-0.00251237
0.000356315
-0.00286995
0.000400632
-0.00309181
0.000425105
-0.00321287
0.000433768
-0.00326632
0.000431029
-0.00327854
0.000420659
-0.003268
0.000405448
-0.00324635
0.000387257
-0.00322032
0.000367231
-0.00319344
0.000346029
-0.00316748
0.000324024
-0.00314327
0.000301434
-0.00312126
0.000278411
-0.00310173
0.000255073
-0.00308484
0.000231503
-0.00307059
-0.00305899
0.000207744
3.56022e-05
-0.000511499
0.000108115
-0.00137899
0.000189551
-0.00207421
0.000260865
-0.00258368
0.000312707
-0.00292179
0.000343318
-0.00312242
0.000355369
-0.00322492
0.000353238
-0.00326419
0.000341267
-0.00326657
0.000322952
-0.00324969
0.00030076
-0.00322416
0.000276264
-0.00319582
0.000250389
-0.00316757
0.000223643
-0.00314073
0.000196294
-0.00311592
0.000168497
-0.00309346
0.000140362
-0.0030736
0.000111985
-0.00305646
8.34482e-05
-0.00304205
-0.00303034
5.47987e-05
3.38199e-05
-0.000545319
9.99956e-05
-0.00144516
0.000170956
-0.00214517
0.00022924
-0.00264197
0.000267325
-0.00295987
0.000284844
-0.00313994
0.000285211
-0.00322529
0.00027299
-0.00325197
0.000252366
-0.00324595
0.000226532
-0.00322385
0.000197643
-0.00319527
0.000167017
-0.0031652
0.000135397
-0.00313595
0.000103165
-0.0031085
7.05089e-05
-0.00308326
3.75261e-05
-0.00306048
4.29227e-06
-0.00304036
-2.91126e-05
-0.00302306
-6.26045e-05
-0.00300856
-0.00299682
-9.61252e-05
3.16125e-05
-0.000576931
9.07634e-05
-0.00150431
0.000150786
-0.0022052
0.000196023
-0.0026872
0.000220742
-0.00298459
0.000225799
-0.003145
0.000215169
-0.00321466
0.000193475
-0.00323027
0.00016468
-0.00321715
0.000131663
-0.00319084
9.6288e-05
-0.0031599
5.96535e-05
-0.00312856
2.23517e-05
-0.00309864
-1.5331e-05
-0.00307082
-5.32743e-05
-0.00304532
-9.1428e-05
-0.00302233
-0.00012975
-0.00300204
-0.000168174
-0.00298463
-0.000206608
-0.00297013
-0.00295845
-0.000244978
2.90147e-05
-0.000605946
8.05715e-05
-0.00155587
0.000129353
-0.00225398
0.000161659
-0.00271951
0.000173467
-0.0029964
0.000166686
-0.00313822
0.000145693
-0.00319366
0.000115064
-0.00319964
7.84953e-05
-0.00318058
3.85571e-05
-0.0031509
-3.15092e-06
-0.00311819
-4.57174e-05
-0.00308599
-8.86686e-05
-0.00305569
-0.000131791
-0.00302769
-0.000175016
-0.00300209
-0.000218337
-0.00297901
-0.000261743
-0.00295864
-0.000305185
-0.00294119
-0.000348558
-0.00292675
-0.00291525
-0.000391761
2.60666e-05
-0.000632012
6.95779e-05
-0.00159938
0.000106956
-0.00229135
0.000126552
-0.0027391
0.000125947
-0.0029958
0.000107937
-0.00312021
7.7159e-05
-0.00316289
3.80604e-05
-0.00316054
-5.95067e-06
-0.00313657
-5.26051e-05
-0.00310424
-0.000100539
-0.00307026
-0.000148997
-0.00303754
-0.000197595
-0.00300709
-0.000246171
-0.00297912
-0.000294693
-0.00295357
-0.000343193
-0.00293051
-0.000391697
-0.00291013
-0.000440176
-0.00289271
-0.00048851
-0.00287842
-0.0028672
-0.00053656
2.28126e-05
-0.000654825
5.79406e-05
-0.00163451
8.38787e-05
-0.00231729
9.1069e-05
-0.00274629
7.8576e-05
-0.0029833
4.99221e-05
-0.00309156
9.88628e-06
-0.00312285
-3.72728e-05
-0.00311338
-8.84493e-05
-0.0030854
-0.000141658
-0.00305104
-0.000195745
-0.00301617
-0.000250083
-0.0029832
-0.000304354
-0.00295282
-0.000358425
-0.00292505
-0.000412287
-0.00289971
-0.000466001
-0.00287679
-0.000519641
-0.00285649
-0.000573206
-0.00283915
-0.000626567
-0.00282506
-0.00281424
-0.000679524
1.92997e-05
-0.000674125
4.58151e-05
-0.00166102
6.03845e-05
-0.00233186
5.55415e-05
-0.00274145
3.16994e-05
-0.00295946
-7.03685e-06
-0.00305282
-5.58462e-05
-0.00307404
-0.000110702
-0.00305853
-0.000168805
-0.00302729
-0.000228435
-0.00299141
-0.000288624
-0.00295598
-0.000348854
-0.00292297
-0.000408851
-0.00289283
-0.000468493
-0.0028654
-0.000527772
-0.00284043
-0.000586769
-0.0028178
-0.000645605
-0.00279766
-0.000704331
-0.00278042
-0.000762814
-0.00276657
-0.0027563
-0.00082076
1.55769e-05
-0.000689702
3.33515e-05
-0.0016788
3.67179e-05
-0.00233523
2.0266e-05
-0.002725
-1.43782e-05
-0.00292482
-6.26576e-05
-0.00300454
-0.00011979
-0.00301691
-0.00018201
-0.00299631
-0.000246821
-0.00296248
-0.000312751
-0.00292548
-0.000379002
-0.00288973
-0.000445149
-0.00285682
-0.000510952
-0.00282702
-0.000576282
-0.00280007
-0.000641106
-0.00277561
-0.000705502
-0.0027534
-0.00076963
-0.00273353
-0.000833606
-0.00271645
-0.00089731
-0.00270287
-0.0026933
-0.00096031
1.16937e-05
-0.000701395
2.0693e-05
-0.0016878
1.31027e-05
-0.00232764
-1.44925e-05
-0.0026974
-5.93881e-05
-0.00287992
-0.000116689
-0.00294724
-0.000181716
-0.00295188
-0.000250984
-0.00292704
-0.000322288
-0.00289118
-0.000394391
-0.00285337
-0.000466654
-0.00281747
-0.000538739
-0.00278474
-0.000610444
-0.00275532
-0.000681624
-0.00272889
-0.000752199
-0.00270503
-0.000822204
-0.0026834
-0.000891807
-0.00266392
-0.0009612
-0.00264705
-0.0010303
-0.00263377
-0.00262504
-0.00109855
7.69931e-06
-0.000709095
7.97403e-06
-0.00168807
-1.0258e-05
-0.00230941
-4.84987e-05
-0.00265916
-0.000103093
-0.00282533
-0.000168908
-0.00288142
-0.000241413
-0.00287938
-0.000317413
-0.00285104
-0.000394983
-0.00281361
-0.000473107
-0.00277525
-0.000551295
-0.00273928
-0.000629311
-0.00270672
-0.000707
-0.00267763
-0.000784217
-0.00265168
-0.000860832
-0.00262842
-0.000936805
-0.00260742
-0.00101228
-0.00258845
-0.00108753
-0.0025718
-0.00116256
-0.00255875
-0.00255061
-0.00123699
3.64166e-06
-0.000712736
-4.68103e-06
-0.00167975
-3.31824e-05
-0.0022809
-8.15461e-05
-0.0026108
-0.000145286
-0.00276159
-0.000219113
-0.0028076
-0.000298681
-0.00279981
-0.000381083
-0.00276864
-0.000464662
-0.00273003
-0.000548607
-0.0026913
-0.000632579
-0.00265531
-0.000716455
-0.00262284
-0.000800163
-0.00259392
-0.000883602
-0.00256824
-0.000966623
-0.0025454
-0.00104911
-0.00252493
-0.00113117
-0.0025064
-0.00121317
-0.0024898
-0.00129534
-0.00247657
-0.00246769
-0.00137826
-4.3392e-07
-0.000712302
-1.71598e-05
-0.00166302
-5.55116e-05
-0.00224255
-0.000113458
-0.00255285
-0.000185791
-0.00268925
-0.00026713
-0.00272626
-0.000353336
-0.0027136
-0.000441784
-0.00268019
-0.000531062
-0.00264075
-0.000620551
-0.00260182
-0.000710063
-0.00256579
-0.000799611
-0.0025333
-0.000889261
-0.00250427
-0.000979046
-0.00247845
-0.00106891
-0.00245553
-0.00115875
-0.0024351
-0.00124855
-0.00241659
-0.00133868
-0.00239967
-0.00142969
-0.00238556
-0.00237307
-0.00152432
-4.48563e-06
-0.000707817
-2.93635e-05
-0.00163815
-7.71109e-05
-0.00219481
-0.000144089
-0.00248588
-0.000224465
-0.00260888
-0.000312818
-0.00263791
-0.000405227
-0.00262119
-0.000499324
-0.00258609
-0.000593921
-0.00254615
-0.000688558
-0.00250718
-0.000783179
-0.00247117
-0.000877932
-0.00243854
-0.000973067
-0.00240913
-0.00106887
-0.00238265
-0.00116563
-0.00235878
-0.00126353
-0.00233719
-0.00136271
-0.00231742
-0.00146371
-0.00229867
-0.00156878
-0.00228049
-0.00227424
-0.00166761
-8.4641e-06
-0.000699353
-4.11885e-05
-0.00160542
-9.78485e-05
-0.00213815
-0.000173305
-0.00241042
-0.000261183
-0.002521
-0.000356064
-0.00254302
-0.000454236
-0.00252302
-0.000553569
-0.00248676
-0.000653052
-0.00244667
-0.000752341
-0.00240789
-0.000851444
-0.00237207
-0.00095056
-0.00233943
-0.00105001
-0.00230968
-0.00115025
-0.00228241
-0.0012519
-0.00225712
-0.0013558
-0.0022333
-0.00146279
-0.00221042
-0.0015733
-0.00218816
-0.00168826
-0.00216553
-0.00213549
-0.00182702
-1.23585e-05
-0.000686994
-5.26028e-05
-0.00156518
-0.000117685
-0.00207306
-0.000201073
-0.00232703
-0.000295929
-0.00242614
-0.000396864
-0.00244209
-0.000500373
-0.00241951
-0.000604537
-0.00238259
-0.000708493
-0.00234272
-0.000811967
-0.00230441
-0.000914978
-0.00226906
-0.00101766
-0.00223675
-0.0011202
-0.00220714
-0.00122282
-0.00217979
-0.00132576
-0.00215419
-0.00142921
-0.00212985
-0.00153324
-0.00210639
-0.00163807
-0.00208333
-0.00174442
-0.00205918
-0.00203048
-0.00184942
-1.61301e-05
-0.000670864
-6.35336e-05
-0.00151777
-0.000136536
-0.00200006
-0.000227321
-0.00223625
-0.000328652
-0.00232481
-0.000435192
-0.00233555
-0.000543638
-0.00231107
-0.000652261
-0.00227397
-0.000760323
-0.00223465
-0.00086762
-0.00219712
-0.000974188
-0.00216249
-0.00108015
-0.00213078
-0.00118565
-0.00210164
-0.00129083
-0.00207462
-0.00139575
-0.00204926
-0.00150045
-0.00202516
-0.00160489
-0.00200195
-0.00170903
-0.00197919
-0.00181216
-0.00195605
-0.0019317
-0.00191094
-1.97572e-05
-0.000651107
-7.394e-05
-0.00146359
-0.000154363
-0.00191964
-0.000252025
-0.00213858
-0.000359352
-0.00221749
-0.000471077
-0.00222383
-0.000584087
-0.00219806
-0.000696822
-0.00216124
-0.000808652
-0.00212282
-0.000919419
-0.00208635
-0.00102916
-0.00205275
-0.00113797
-0.00202197
-0.00124595
-0.00199366
-0.00135316
-0.00196741
-0.00145959
-0.00194282
-0.00156519
-0.00191956
-0.0016698
-0.00189734
-0.00177315
-0.00187585
-0.00187457
-0.00185463
-0.00183326
-0.00197301
-2.32222e-05
-0.000627885
-8.37923e-05
-0.00140302
-0.00017114
-0.00183229
-0.00027518
-0.00203454
-0.000388052
-0.00210462
-0.00050457
-0.00210731
-0.000621805
-0.00208082
-0.000738352
-0.00204469
-0.000853678
-0.0020075
-0.000967667
-0.00197236
-0.00108037
-0.00194005
-0.00119186
-0.00191048
-0.00130222
-0.0018833
-0.00141148
-0.00185815
-0.00151961
-0.00183469
-0.00162654
-0.00181263
-0.00173214
-0.00179174
-0.00183615
-0.00177184
-0.00193817
-0.0017526
-0.00173381
-0.00203763
-2.65112e-05
-0.000601374
-9.30701e-05
-0.00133646
-0.000186857
-0.0017385
-0.000296796
-0.00192461
-0.000414786
-0.00198663
-0.000535733
-0.00198636
-0.000656879
-0.00195968
-0.000776966
-0.0019246
-0.000895545
-0.00188892
-0.00101254
-0.00185536
-0.00112802
-0.00182457
-0.00124207
-0.00179643
-0.00135475
-0.00177062
-0.00146609
-0.00174681
-0.00157607
-0.0017247
-0.00168465
-0.00170405
-0.00179171
-0.00168468
-0.00189711
-0.00166644
-0.00200065
-0.00164906
-0.00163241
-0.00210204
-2.96135e-05
-0.00057176
-0.00010176
-0.00126432
-0.00020151
-0.00163875
-0.000316889
-0.00180923
-0.000439593
-0.00186392
-0.000564628
-0.00186132
-0.000689399
-0.0018349
-0.000812778
-0.00180122
-0.000934398
-0.0017673
-0.00105423
-0.00173553
-0.00117235
-0.00170645
-0.00128885
-0.00167993
-0.00140382
-0.00165566
-0.00151729
-0.00163334
-0.00162927
-0.00161272
-0.00173974
-0.00159358
-0.00184866
-0.00157577
-0.00195594
-0.00155915
-0.00206152
-0.00154349
-0.0015287
-0.00216523
-3.25208e-05
-0.000539239
-0.000109852
-0.00118699
-0.000215101
-0.0015335
-0.000335479
-0.00168885
-0.000462515
-0.00173688
-0.000591316
-0.00173252
-0.00071944
-0.00170678
-0.000845882
-0.00167478
-0.000970348
-0.00164283
-0.00109285
-0.00161304
-0.00121348
-0.00158582
-0.00133236
-0.00156105
-0.00144958
-0.00153844
-0.00156521
-0.00151772
-0.00167927
-0.00149866
-0.00179178
-0.00148107
-0.00190274
-0.00146481
-0.00201215
-0.00144974
-0.00211998
-0.00143566
-0.00142252
-0.00222617
-3.52265e-05
-0.000504013
-0.000117341
-0.00110487
-0.000227635
-0.00142321
-0.000352587
-0.0015639
-0.000483588
-0.00160588
-0.000615847
-0.00160027
-0.000747067
-0.00157556
-0.000876351
-0.0015455
-0.00100348
-0.00151571
-0.00112849
-0.00148802
-0.00125151
-0.0014628
-0.00137268
-0.00143988
-0.0014921
-0.00141902
-0.00160986
-0.00139996
-0.00172602
-0.00138249
-0.00184063
-0.00136645
-0.00195373
-0.00135171
-0.00206534
-0.00133813
-0.00217549
-0.00132551
-0.00131385
-0.00228416
-3.77251e-05
-0.000466288
-0.000124222
-0.00101837
-0.000239118
-0.00130831
-0.000368232
-0.00143478
-0.000502845
-0.00147127
-0.000638265
-0.00146485
-0.000772328
-0.0014415
-0.000904239
-0.00141359
-0.00103384
-0.00138611
-0.0011612
-0.00136066
-0.00128648
-0.00133752
-0.00140982
-0.00131653
-0.00153136
-0.00129748
-0.0016512
-0.00128012
-0.00176943
-0.00126426
-0.00188612
-0.00124976
-0.00200134
-0.00123649
-0.00211514
-0.00122432
-0.00222758
-0.00121307
-0.00120277
-0.00233866
-4.00121e-05
-0.000426276
-0.000130493
-0.000927893
-0.000249554
-0.00118925
-0.000382429
-0.00130191
-0.000520311
-0.00133339
-0.000658602
-0.00132655
-0.00079526
-0.00130484
-0.000929581
-0.00127927
-0.00106146
-0.00125423
-0.001191
-0.00123111
-0.00131839
-0.00121013
-0.00144378
-0.00119114
-0.00156733
-0.00117393
-0.00168916
-0.00115829
-0.00180938
-0.00114405
-0.00192808
-0.00113107
-0.00204534
-0.00111923
-0.00216125
-0.00110842
-0.00227586
-0.00109846
-0.0010894
-0.00238923
-4.20833e-05
-0.000384192
-0.000136151
-0.000833826
-0.000258947
-0.00106646
-0.000395192
-0.00116566
-0.000536006
-0.00119258
-0.000676881
-0.00118568
-0.000815887
-0.00116583
-0.000952399
-0.00114276
-0.00108636
-0.00112027
-0.00121791
-0.00109956
-0.00134724
-0.0010808
-0.00147454
-0.00106384
-0.00159996
-0.0010485
-0.00172365
-0.00103459
-0.00184574
-0.00102196
-0.00196632
-0.00101048
-0.00208551
-0.00100004
-0.00220339
-0.000990536
-0.00232004
-0.000981807
-0.000973922
-0.00243552
-4.39351e-05
-0.000340257
-0.000141191
-0.00073657
-0.000267299
-0.00094035
-0.00040653
-0.00102643
-0.000549944
-0.00104916
-0.000693119
-0.0010425
-0.000834223
-0.00102473
-0.000972701
-0.00100428
-0.00110854
-0.000984438
-0.0012419
-0.0009662
-0.001373
-0.0009497
-0.00150203
-0.000934812
-0.00162917
-0.000921363
-0.00175458
-0.000909192
-0.00187838
-0.00089816
-0.0020007
-0.000888157
-0.00212166
-0.000879089
-0.00224135
-0.000870847
-0.00235985
-0.0008633
-0.000856523
-0.00247725
-4.5564e-05
-0.000294693
-0.000145612
-0.000636522
-0.000274612
-0.00081135
-0.000416447
-0.000884595
-0.000562133
-0.000903475
-0.000707325
-0.000897312
-0.000850275
-0.000881779
-0.000990489
-0.000864064
-0.00112799
-0.000846938
-0.00126297
-0.000831224
-0.00139564
-0.000817024
-0.00152623
-0.000804228
-0.0016549
-0.000792684
-0.00178184
-0.000782252
-0.00190719
-0.000772814
-0.00203107
-0.000764273
-0.00215362
-0.000756546
-0.00227493
-0.000749537
-0.0023951
-0.000743133
-0.000737412
-0.00251421
-4.69668e-05
-0.000247726
-0.00014941
-0.000534079
-0.000280884
-0.000679875
-0.000424947
-0.000740532
-0.00057258
-0.000755842
-0.000719504
-0.000750388
-0.000864043
-0.000737239
-0.00100576
-0.00072235
-0.0011447
-0.000707996
-0.00128108
-0.000694846
-0.00141513
-0.000682975
-0.00154707
-0.000672289
-0.00167709
-0.000662659
-0.00180538
-0.000653967
-0.00193207
-0.000646115
-0.00205733
-0.000639021
-0.00218126
-0.000632614
-0.00230398
-0.000626811
-0.0024256
-0.00062152
-0.000616814
-0.0025462
-4.81406e-05
-0.000199586
-0.000152581
-0.000429638
-0.000286116
-0.00054634
-0.000432032
-0.000594615
-0.000581287
-0.000606587
-0.000729656
-0.000602019
-0.000875527
-0.000591368
-0.0010185
-0.000579375
-0.00115866
-0.000567841
-0.00129622
-0.000557286
-0.00143142
-0.000547767
-0.00156451
-0.000539204
-0.00169567
-0.000531494
-0.0018251
-0.000524543
-0.00195294
-0.00051827
-0.00207935
-0.00051261
-0.00220446
-0.000507506
-0.00232838
-0.000502888
-0.00245122
-0.000498685
-0.000494961
-0.00257307
-4.90829e-05
-0.000150503
-0.000155122
-0.0003236
-0.000290304
-0.000411159
-0.000437702
-0.000447217
-0.000588254
-0.000456036
-0.000737782
-0.000452491
-0.000884722
-0.000444428
-0.00102871
-0.000435387
-0.00116984
-0.000426707
-0.00130836
-0.000418772
-0.0014445
-0.000411621
-0.00157852
-0.000405191
-0.0017106
-0.000399407
-0.00184095
-0.000394195
-0.00196972
-0.000389496
-0.00209707
-0.000385261
-0.00222313
-0.000381445
-0.00234803
-0.000377997
-0.00247185
-0.000374862
-0.000372093
-0.00259472
-4.97916e-05
-0.000100711
-0.00015703
-0.000216361
-0.000293447
-0.000274742
-0.000441956
-0.000298708
-0.00059348
-0.000304511
-0.000743879
-0.000302093
-0.000891624
-0.000296683
-0.00103638
-0.000290635
-0.00117825
-0.000284836
-0.00131748
-0.000279538
-0.00145434
-0.000274766
-0.00158905
-0.000270477
-0.00172184
-0.00026662
-0.00185288
-0.000263148
-0.00198236
-0.000260019
-0.00211042
-0.0002572
-0.0022372
-0.000254663
-0.00236283
-0.000252372
-0.0024874
-0.000250292
-0.000248458
-0.00261104
-5.02649e-05
-5.04465e-05
-0.000158304
-0.000108322
-0.000295543
-0.000137503
-0.000444792
-0.00014946
-0.000596965
-0.000152338
-0.000747945
-0.000151113
-0.000896227
-0.0001484
-0.00104149
-0.000145372
-0.00118386
-0.000142471
-0.00132357
-0.000139821
-0.0014609
-0.000137435
-0.00159609
-0.000135292
-0.00172934
-0.000133365
-0.00186086
-0.000131631
-0.00199081
-0.000130069
-0.00211935
-0.000128662
-0.00224662
-0.000127397
-0.00237273
-0.000126255
-0.00249781
-0.000125219
-0.000124307
-0.00262196
-5.05017e-05
5.52458e-08
-0.000158941
1.17534e-07
-0.000296592
1.47671e-07
-0.00044621
1.58741e-07
-0.000598708
1.59965e-07
-0.000749978
1.56852e-07
-0.00089853
1.52209e-07
-0.00104405
1.47256e-07
-0.00118666
1.42436e-07
-0.00132662
1.37874e-07
-0.00146419
1.33587e-07
-0.00159961
1.29559e-07
-0.0017331
1.25772e-07
-0.00186486
1.22206e-07
-0.00199504
1.18845e-07
-0.00212382
1.15674e-07
-0.00225133
1.1268e-07
-0.0023777
1.09846e-07
-0.00250302
1.07151e-07
1.04595e-07
-0.00262743
-5.05017e-05
5.0557e-05
-0.000158941
0.000108557
-0.000296592
0.000137798
-0.00044621
0.000149777
-0.000598708
0.000152658
-0.000749978
0.000151427
-0.00089853
0.000148704
-0.00104405
0.000145667
-0.00118666
0.000142756
-0.00132662
0.000140097
-0.00146419
0.000137703
-0.00159961
0.000135551
-0.0017331
0.000133617
-0.00186486
0.000131875
-0.00199504
0.000130306
-0.00212382
0.000128894
-0.00225133
0.000127622
-0.0023777
0.000126475
-0.00250302
0.000125433
0.000124516
-0.00262743
-5.02649e-05
0.000100822
-0.000158304
0.000216596
-0.000295543
0.000275038
-0.000444792
0.000299026
-0.000596966
0.000304831
-0.000747945
0.000302407
-0.000896228
0.000296987
-0.00104149
0.00029093
-0.00118386
0.000285121
-0.00132357
0.000279814
-0.0014609
0.000275033
-0.00159609
0.000270736
-0.00172935
0.000266872
-0.00186086
0.000263392
-0.00199081
0.000260257
-0.00211935
0.000257432
-0.00224662
0.000254889
-0.00237273
0.000252592
-0.00249781
0.000250506
0.000248667
-0.00262196
-4.97915e-05
0.000150613
-0.00015703
0.000323835
-0.000293447
0.000411454
-0.000441956
0.000447535
-0.000593481
0.000456356
-0.00074388
0.000452805
-0.000891625
0.000444733
-0.00103638
0.000435682
-0.00117825
0.000426993
-0.00131748
0.000419049
-0.00145434
0.000411888
-0.00158905
0.000405451
-0.00172184
0.000399659
-0.00185289
0.00039444
-0.00198237
0.000389734
-0.00211043
0.000385493
-0.00223721
0.000381671
-0.00236283
0.000378217
-0.0024874
0.000375077
0.000372303
-0.00261104
-4.90828e-05
0.000199696
-0.000155122
0.000429874
-0.000290304
0.000546636
-0.000437703
0.000594934
-0.000588255
0.000606908
-0.000737783
0.000602334
-0.000884724
0.000591673
-0.00102871
0.000579671
-0.00116985
0.000568126
-0.00130836
0.000557562
-0.00144451
0.000548035
-0.00157852
0.000539464
-0.00171061
0.000531746
-0.00184095
0.000524788
-0.00196973
0.000518508
-0.00209708
0.000512842
-0.00222314
0.000507732
-0.00234803
0.000503109
-0.00247185
0.0004989
0.00049517
-0.00259472
-4.81405e-05
0.000247837
-0.000152581
0.000534314
-0.000286116
0.000680172
-0.000432033
0.000740851
-0.000581288
0.000756163
-0.000729658
0.000750704
-0.00087553
0.000737545
-0.0010185
0.000722645
-0.00115866
0.000708282
-0.00129622
0.000695122
-0.00143143
0.000683244
-0.00156451
0.000672549
-0.00169568
0.000662911
-0.0018251
0.000654213
-0.00195295
0.000646354
-0.00207936
0.000639253
-0.00220447
0.00063284
-0.00232839
0.000627031
-0.00245123
0.000621735
0.000617023
-0.00257308
-4.69667e-05
0.000294803
-0.00014941
0.000636757
-0.000280885
0.000811647
-0.000424948
0.000884914
-0.000572582
0.000903797
-0.000719506
0.000897628
-0.000864046
0.000882085
-0.00100576
0.000864361
-0.0011447
0.000847225
-0.00128108
0.000831501
-0.00141513
0.000817293
-0.00154707
0.000804488
-0.0016771
0.000792937
-0.00180538
0.000782498
-0.00193208
0.000773053
-0.00205733
0.000764505
-0.00218127
0.000756773
-0.00230399
0.000749757
-0.0024256
0.000743348
0.000737622
-0.0025462
-4.55639e-05
0.000340367
-0.000145612
0.000736805
-0.000274612
0.000940647
-0.000416448
0.00102675
-0.000562135
0.00104948
-0.000707328
0.00104282
-0.000850278
0.00102504
-0.000990493
0.00100458
-0.00112799
0.000984726
-0.00126297
0.000966479
-0.00139565
0.000949969
-0.00152623
0.000935073
-0.00165491
0.000921616
-0.00178185
0.000909438
-0.0019072
0.000898399
-0.00203108
0.00088839
-0.00215363
0.000879316
-0.00227494
0.000871068
-0.0023951
0.000863515
0.000856733
-0.00251422
-4.39349e-05
0.000384302
-0.000141191
0.000834062
-0.0002673
0.00106676
-0.000406531
0.00116598
-0.000549946
0.0011929
-0.000693122
0.001186
-0.000834227
0.00116614
-0.000972705
0.00114305
-0.00110854
0.00112056
-0.00124191
0.00109984
-0.00137301
0.00108107
-0.00150204
0.00106411
-0.00162918
0.00104876
-0.00175458
0.00103484
-0.00187839
0.0010222
-0.00200071
0.00101071
-0.00212167
0.00100027
-0.00224136
0.000990757
-0.00235986
0.000982023
0.000974133
-0.00247726
-4.20831e-05
0.000426385
-0.000136151
0.000928129
-0.000258947
0.00118955
-0.000395194
0.00130223
-0.000536008
0.00133371
-0.000676885
0.00132687
-0.000815892
0.00130515
-0.000952404
0.00127957
-0.00108636
0.00125452
-0.00121792
0.00123139
-0.00134725
0.0012104
-0.00147455
0.0011914
-0.00159997
0.00117418
-0.00172366
0.00115854
-0.00184575
0.00114429
-0.00196633
0.0011313
-0.00208552
0.00111946
-0.0022034
0.00110864
-0.00232005
0.00109867
0.00108961
-0.00243553
-4.00118e-05
0.000466397
-0.000130493
0.00101861
-0.000249554
0.00130861
-0.000382431
0.0014351
-0.000520314
0.0014716
-0.000658606
0.00146517
-0.000795265
0.00144181
-0.000929587
0.00141389
-0.00106146
0.0013864
-0.00119101
0.00136094
-0.0013184
0.00133779
-0.00144379
0.0013168
-0.00156735
0.00129773
-0.00168918
0.00128037
-0.00180939
0.00126451
-0.00192809
0.00125
-0.00204536
0.00123672
-0.00216126
0.00122455
-0.00227588
0.00121329
0.00120298
-0.00238924
-3.77248e-05
0.000504122
-0.000124222
0.00110511
-0.000239118
0.00142351
-0.000368233
0.00156422
-0.000502848
0.00160621
-0.000638269
0.00160059
-0.000772334
0.00157587
-0.000904246
0.0015458
-0.00103384
0.001516
-0.00116121
0.00148831
-0.00128649
0.00146307
-0.00140983
0.00144014
-0.00153137
0.00141927
-0.00165122
0.00140021
-0.00176945
0.00138274
-0.00188614
0.00136669
-0.00200136
0.00135194
-0.00211516
0.00133835
-0.0022276
0.00132572
0.00131406
-0.00233868
-3.52261e-05
0.000539348
-0.00011734
0.00118722
-0.000227636
0.0015338
-0.000352588
0.00168917
-0.000483591
0.00173721
-0.000615851
0.00173285
-0.000747073
0.00170709
-0.000876358
0.00167509
-0.00100348
0.00164312
-0.0011285
0.00161332
-0.00125152
0.00158609
-0.00137269
0.00156131
-0.00149211
0.00153869
-0.00160987
0.00151797
-0.00172604
0.0014989
-0.00184065
0.0014813
-0.00195374
0.00146504
-0.00206536
0.00144996
-0.00217551
0.00143588
0.00142273
-0.00228418
-3.25204e-05
0.000571868
-0.000109851
0.00126455
-0.000215101
0.00163905
-0.000335481
0.00180955
-0.000462518
0.00186425
-0.00059132
0.00186165
-0.000719446
0.00183522
-0.000845889
0.00180153
-0.000970357
0.00176759
-0.00109286
0.00173582
-0.00121349
0.00170673
-0.00133238
0.00168019
-0.0014496
0.00165592
-0.00156522
0.00163359
-0.00167928
0.00161296
-0.0017918
0.00159382
-0.00190276
0.001576
-0.00201217
0.00155937
-0.00212
0.00154371
0.00152892
-0.00222619
-2.9613e-05
0.000601482
-0.000101759
0.0013367
-0.00020151
0.00173881
-0.000316891
0.00192493
-0.000439597
0.00198696
-0.000564633
0.00198668
-0.000689405
0.00195999
-0.000812786
0.00192491
-0.000934408
0.00188921
-0.00105424
0.00185565
-0.00117236
0.00182485
-0.00128887
0.0017967
-0.00140383
0.00177088
-0.0015173
0.00174706
-0.00162929
0.00172495
-0.00173976
0.00170429
-0.00184868
0.00168491
-0.00195597
0.00166666
-0.00206154
0.00164928
0.00163263
-0.00216525
-2.65106e-05
0.000627992
-9.30695e-05
0.00140326
-0.000186857
0.00183259
-0.000296798
0.00203487
-0.000414789
0.00210495
-0.000535738
0.00210763
-0.000656886
0.00208114
-0.000776974
0.002045
-0.000895555
0.00200779
-0.00101256
0.00197265
-0.00112804
0.00194033
-0.00124208
0.00191075
-0.00135476
0.00188356
-0.00146611
0.00185841
-0.00157609
0.00183494
-0.00168467
0.00181287
-0.00179174
0.00179198
-0.00189714
0.00177206
-0.00200067
0.00175282
0.00173402
-0.00210207
-2.32215e-05
0.000651214
-8.37915e-05
0.00146383
-0.00017114
0.00191994
-0.000275182
0.00213891
-0.000388055
0.00221782
-0.000504576
0.00222415
-0.000621812
0.00219838
-0.000738361
0.00216155
-0.000853689
0.00212312
-0.00096768
0.00208664
-0.00108038
0.00205303
-0.00119188
0.00202224
-0.00130224
0.00199392
-0.0014115
0.00196766
-0.00151963
0.00194307
-0.00162657
0.0019198
-0.00173216
0.00189757
-0.00183618
0.00187607
-0.0019382
0.00185485
0.00183348
-0.00203766
-1.97564e-05
0.00067097
-7.39389e-05
0.00151801
-0.000154362
0.00200037
-0.000252026
0.00223658
-0.000359355
0.00232515
-0.000471082
0.00233588
-0.000584094
0.00231139
-0.000696831
0.00227428
-0.000808664
0.00223496
-0.000919432
0.00219741
-0.00102917
0.00216277
-0.00113799
0.00213106
-0.00124597
0.00210191
-0.00135318
0.00207487
-0.00145962
0.00204951
-0.00156522
0.0020254
-0.00166983
0.00200219
-0.00177317
0.00197942
-0.0018746
0.00195628
0.00193192
-0.00197304
-1.61291e-05
0.000687099
-6.35322e-05
0.00156541
-0.000136536
0.00207337
-0.000227322
0.00232736
-0.000328654
0.00242648
-0.000435197
0.00244242
-0.000543645
0.00241984
-0.00065227
0.00238291
-0.000760335
0.00234302
-0.000867634
0.00230471
-0.000974203
0.00226934
-0.00108017
0.00223702
-0.00118567
0.00220741
-0.00129085
0.00218005
-0.00139578
0.00215444
-0.00150048
0.0021301
-0.00160492
0.00210663
-0.00170906
0.00208356
-0.00181219
0.00205941
0.0020307
-0.00191097
-1.23574e-05
0.000699456
-5.26011e-05
0.00160566
-0.000117684
0.00213845
-0.000201073
0.00241075
-0.000295931
0.00252134
-0.000396868
0.00254336
-0.00050038
0.00252335
-0.000604547
0.00248707
-0.000708504
0.00244698
-0.000811981
0.00240819
-0.000914994
0.00237236
-0.00101768
0.00233971
-0.00112022
0.00230995
-0.00122285
0.00228267
-0.00132578
0.00225738
-0.00142923
0.00223355
-0.00153327
0.00221066
-0.00163811
0.0021884
-0.00174445
0.00216575
0.00213571
-0.00184946
-8.46284e-06
0.000707919
-4.11863e-05
0.00163838
-9.78468e-05
0.00219511
-0.000173304
0.00248621
-0.000261185
0.00260922
-0.000356068
0.00263824
-0.000454242
0.00262152
-0.000553578
0.00258641
-0.000653063
0.00254646
-0.000752355
0.00250748
-0.000851461
0.00247146
-0.000950579
0.00243883
-0.00105003
0.00240941
-0.00115028
0.00238291
-0.00125193
0.00235904
-0.00135583
0.00233745
-0.00146283
0.00231767
-0.00157334
0.00229891
-0.00168831
0.00228072
0.00227447
-0.00182707
-4.48417e-06
0.000712403
-2.93608e-05
0.00166326
-7.71085e-05
0.00224286
-0.000144088
0.00255319
-0.000224466
0.0026896
-0.000312822
0.0027266
-0.000405233
0.00271393
-0.000499333
0.00268051
-0.000593932
0.00264106
-0.000688571
0.00260212
-0.000783195
0.00256609
-0.000877951
0.00253358
-0.000973089
0.00250455
-0.0010689
0.00247872
-0.00116566
0.00245579
-0.00126357