/*--------------------------------*- C++ -*----------------------------------*\
  =========                 |
  \\      /  F ield         | OpenFOAM: The Open Source CFD Toolbox
   \\    /   O peration     | Website:  https://openfoam.org
    \\  /    A nd           | Version:  6.0
     \\/     M anipulation  |
\*---------------------------------------------------------------------------*/
FoamFile
{
    version     2.0;
    format      ascii;
    class       volVectorField;
    location    "19.9";
    object      U;
}
// * * * * * * * * * * * * * * * * * * * * * * * * * * * * * * * * * * * * * //

dimensions      [0 1 -1 0 0 0 0];

internalField   nonuniform List<vector> 
8000
(
(-0.000509807 0.000611546 -3.56733e-21)
(-0.00277152 0.00152769 1.90685e-20)
(-0.00693781 0.00218309 -2.31929e-20)
(-0.0120449 0.00263772 1.76612e-20)
(-0.0175941 0.00293715 8.60054e-21)
(-0.0233064 0.00311852 -2.58268e-20)
(-0.0289833 0.00321351 -2.28281e-21)
(-0.0344976 0.00324884 -8.10235e-22)
(-0.0397796 0.00324689 -1.34069e-20)
(-0.0448015 0.00322634 -7.26378e-21)
(-0.0495655 0.00320265 5.41677e-21)
(-0.0540959 0.00318845 2.05948e-20)
(-0.0584314 0.0031938 -1.54174e-21)
(-0.0626203 0.00322638 2.20718e-21)
(-0.0667163 0.00329165 -2.07461e-20)
(-0.070778 0.00339294 1.27834e-20)
(-0.0748642 0.00353155 -1.83179e-20)
(-0.0789937 0.00370764 2.77209e-20)
(-0.0831343 0.00392103 -3.10755e-23)
(-0.0875621 0.00416511 5.98961e-21)
(-0.000599618 0.00176808 1.18467e-20)
(-0.00298698 0.00439583 -6.05436e-20)
(-0.00722789 0.00625237 -4.18176e-20)
(-0.0123705 0.00751747 -2.83987e-20)
(-0.0179237 0.00832744 -3.6534e-20)
(-0.0236132 0.0087927 8.03935e-21)
(-0.0292449 0.00900678 -4.21746e-20)
(-0.0346941 0.00904809 -9.4731e-21)
(-0.0398933 0.00898203 2.9927e-21)
(-0.044816 0.00886301 3.15226e-20)
(-0.0494657 0.00873609 -3.43876e-20)
(-0.0538674 0.00863809 4.78353e-20)
(-0.0580609 0.00859851 -3.58227e-20)
(-0.0620954 0.00864003 -4.24828e-20)
(-0.0660258 0.00877901 -5.8548e-20)
(-0.0699124 0.00902555 3.7389e-20)
(-0.0738159 0.00938396 -1.20962e-20)
(-0.0777567 0.00985521 -4.40451e-20)
(-0.0817022 0.0104394 4.16449e-20)
(-0.0859324 0.0111172 -3.09591e-20)
(-0.000777294 0.00290578 1.15813e-19)
(-0.0034141 0.00721761 5.99783e-20)
(-0.0078047 0.0102546 6.74528e-20)
(-0.0130201 0.0123135 5.61292e-21)
(-0.0185834 0.0136196 3.72814e-20)
(-0.0242306 0.0143552 4.65297e-20)
(-0.0297751 0.0146747 -8.456e-20)
(-0.035098 0.0147073 -4.47796e-20)
(-0.0401358 0.0145608 -5.83212e-20)
(-0.0448649 0.0143251 6.22569e-20)
(-0.0492908 0.0140747 -4.75527e-20)
(-0.0534402 0.013871 -6.11847e-20)
(-0.0573545 0.0137635 -2.22795e-20)
(-0.061085 0.0137907 2.11655e-20)
(-0.0646892 0.013981 -5.88646e-21)
(-0.0682305 0.0143523 8.48431e-21)
(-0.0717735 0.0149129 9.82266e-20)
(-0.0753421 0.0156656 -1.37869e-20)
(-0.0789033 0.0166117 -9.98663e-20)
(-0.0827451 0.0177185 1.31681e-19)
(-0.00104071 0.00401371 4.02983e-20)
(-0.00404844 0.00996547 -5.69177e-20)
(-0.00866312 0.0141495 -1.42778e-20)
(-0.0139887 0.016975 2.66957e-20)
(-0.0195694 0.0187537 7.57987e-20)
(-0.0251562 0.0197379 1.65953e-19)
(-0.030574 0.0201407 1.6216e-19)
(-0.0357127 0.020141 1.34729e-20)
(-0.0405145 0.0198877 9.94421e-20)
(-0.04496 0.0195056 1.52211e-19)
(-0.0490578 0.0190985 -1.21626e-19)
(-0.0528366 0.0187528 1.80001e-19)
(-0.0563406 0.018539 -4.07632e-20)
(-0.0596237 0.0185128 1.02809e-20)
(-0.062747 0.0187163 4.25717e-20)
(-0.0657788 0.0191773 5.65767e-20)
(-0.0687896 0.01991 -8.90324e-20)
(-0.0718088 0.0209206 -7.43165e-20)
(-0.0748039 0.0222135 -1.31534e-19)
(-0.0780755 0.0237421 1.91489e-19)
(-0.00138694 0.00508233 -2.10539e-20)
(-0.00488348 0.0126146 -2.15516e-19)
(-0.00979525 0.0179001 -6.37464e-20)
(-0.0152682 0.0214554 -1.55342e-19)
(-0.0208742 0.0236751 5.87203e-20)
(-0.0263842 0.0248786 -9.26076e-20)
(-0.0316387 0.0253357 3.185e-20)
(-0.0365389 0.0252723 -1.96144e-19)
(-0.0410352 0.0248772 1.03478e-19)
(-0.0451135 0.0243087 -1.234e-19)
(-0.0487858 0.0236999 -1.09743e-19)
(-0.0520839 0.0231623 -1.22882e-19)
(-0.0550546 0.0227885 1.11544e-19)
(-0.0577553 0.0226536 -1.00153e-19)
(-0.0602514 0.0228157 1.39462e-19)
(-0.0626177 0.0233155 4.03093e-20)
(-0.0649329 0.0241759 9.97825e-20)
(-0.0672344 0.0254099 4.38016e-20)
(-0.0694918 0.0270275 -1.73412e-19)
(-0.0720243 0.028968 2.82196e-19)
(-0.00181238 0.00610369 9.28209e-20)
(-0.00591074 0.0151433 7.13786e-21)
(-0.0111899 0.0214736 3.82361e-20)
(-0.0168459 0.0257129 1.33414e-19)
(-0.0224848 0.028335 -2.04215e-20)
(-0.0279025 0.0297229 2.16647e-19)
(-0.0329593 0.0301997 9.61586e-20)
(-0.0375707 0.0300359 8.08389e-21)
(-0.0416971 0.0294576 2.4726e-19)
(-0.0453309 0.028655 8.10197e-20)
(-0.0484887 0.0277894 3.84355e-20)
(-0.051205 0.0269977 1.21984e-19)
(-0.0535294 0.0263957 1.11815e-19)
(-0.0555228 0.0260801 2.04136e-19)
(-0.0572558 0.0261286 -1.8246e-19)
(-0.0588106 0.0265986 2.57933e-19)
(-0.0602766 0.0275265 3.39714e-21)
(-0.061702 0.0289361 -3.29717e-19)
(-0.0630619 0.030848 4.27456e-19)
(-0.0647016 0.033188 1.77061e-19)
(-0.00231296 0.00707142 -5.47015e-20)
(-0.0071197 0.0175331 -9.92967e-20)
(-0.0128319 0.0248415 -2.0662e-19)
(-0.0187033 0.0297116 -6.12307e-21)
(-0.0243803 0.0326918 3.52584e-20)
(-0.0296891 0.0342252 -2.63832e-19)
(-0.034514 0.0346845 -1.95733e-19)
(-0.0387882 0.0343809 -2.79987e-20)
(-0.0424843 0.0335747 -2.47583e-19)
(-0.0456026 0.0324857 -1.7142e-19)
(-0.0481642 0.0313016 -4.99581e-20)
(-0.0502067 0.0301841 -1.60865e-19)
(-0.051782 0.0292731 -2.62085e-21)
(-0.0529541 0.0286892 -2.13635e-19)
(-0.0537989 0.0285335 8.9871e-20)
(-0.0544068 0.0288857 -1.02533e-19)
(-0.0548803 0.0298016 7.85576e-20)
(-0.0552815 0.031323 -9.99466e-20)
(-0.0555958 0.0334883 -2.857e-19)
(-0.0562051 0.0362114 -8.68111e-20)
(-0.00288415 0.00798047 -2.0137e-20)
(-0.00849753 0.0197682 -2.18667e-20)
(-0.0147013 0.0279792 1.73239e-19)
(-0.0208138 0.0334202 -2.81913e-19)
(-0.0265285 0.0367107 4.13581e-20)
(-0.0317076 0.0383492 -1.62844e-19)
(-0.0362635 0.0387538 7.69524e-20)
(-0.0401508 0.0382723 3.45881e-19)
(-0.0433567 0.0371951 -2.21879e-20)
(-0.0458909 0.0357679 -2.58031e-19)
(-0.0477797 0.0342018 4.68841e-20)
(-0.0490634 0.032682 9.08999e-21)
(-0.0497954 0.0313723 -5.29806e-20)
(-0.0500421 0.0304192 5.35617e-21)
(-0.0498835 0.0299513 4.65457e-19)
(-0.0494191 0.0300769 -6.62754e-20)
(-0.0487657 0.0308795 -1.29295e-19)
(-0.0480033 0.0324289 -2.32003e-19)
(-0.0471338 0.0347921 2.36676e-19)
(-0.0465903 0.0378766 1.02014e-19)
(-0.00352092 0.00882655 1.01662e-19)
(-0.0100287 0.0218346 -1.3301e-19)
(-0.0167718 0.0308645 1.88046e-19)
(-0.0231411 0.0368117 1.89296e-19)
(-0.0288832 0.0403625 1.74496e-19)
(-0.0339021 0.042067 3.53835e-19)
(-0.0381437 0.0423838 2.28809e-19)
(-0.0415875 0.0416922 -4.91674e-19)
(-0.0442382 0.0403079 2.51453e-19)
(-0.0461166 0.0384976 1.97317e-19)
(-0.0472553 0.0364921 -2.80234e-21)
(-0.0476969 0.0344962 2.2088e-19)
(-0.0474955 0.0326965 1.72204e-19)
(-0.0467182 0.0312657 -9.36734e-20)
(-0.045448 0.0303635 3.16536e-19)
(-0.0437926 0.0301335 -3.92387e-19)
(-0.041884 0.0306975 1.57062e-19)
(-0.0398238 0.0321668 2.01997e-19)
(-0.0376382 0.0346534 -4.70719e-20)
(-0.0358316 0.0380683 4.05559e-19)
(-0.00421752 0.00960556 2.04311e-19)
(-0.0116941 0.0237187 1.05918e-20)
(-0.0190102 0.0334769 -7.33255e-20)
(-0.0256364 0.0398613 -7.7448e-20)
(-0.0313802 0.0436223 -3.5865e-19)
(-0.0361929 0.0453573 5.07892e-20)
(-0.0400591 0.0455606 1.43893e-19)
(-0.0429876 0.044638 -6.92111e-20)
(-0.0450039 0.0429245 5.7091e-20)
(-0.0461425 0.0407021 -1.51377e-20)
(-0.0464433 0.0382152 -7.45744e-20)
(-0.0459519 0.0356836 7.08026e-20)
(-0.0447222 0.0333123 -3.07831e-19)
(-0.0428202 0.0312985 2.95103e-19)
(-0.0403299 0.0298346 -2.55614e-19)
(-0.0373651 0.0291055 7.89597e-20)
(-0.0340734 0.0292824 1.79676e-19)
(-0.0305805 0.0305361 -3.73727e-20)
(-0.0269456 0.033047 -1.24346e-19)
(-0.023772 0.0367468 -8.44916e-20)
(-0.00496721 0.0103129 -2.54503e-19)
(-0.0134708 0.0254064 -1.67376e-20)
(-0.0213742 0.0357949 5.35951e-20)
(-0.0282372 0.0425444 1.37786e-19)
(-0.0339345 0.0464664 -1.94525e-19)
(-0.0384714 0.0482023 -1.69745e-19)
(-0.0418761 0.0482776 3.96197e-19)
(-0.0441916 0.0471191 -2.18928e-19)
(-0.0454681 0.0450755 -1.41223e-19)
(-0.0457566 0.0424373 -2.02636e-19)
(-0.0451071 0.0394557 1.34145e-19)
(-0.0435691 0.0363578 -3.62803e-21)
(-0.0411966 0.0333601 -2.50509e-19)
(-0.0380532 0.030679 -4.09796e-19)
(-0.0342215 0.0285374 3.12202e-19)
(-0.0298189 0.0271642 -2.52958e-19)
(-0.0250072 0.0267904 3.58649e-19)
(-0.0199368 0.0276667 -1.00463e-19)
(-0.0147084 0.0300738 2.11222e-19)
(-0.0100612 0.033993 -7.16646e-19)
(-0.00576189 0.0109431 -5.15449e-19)
(-0.0153307 0.0268815 3.37965e-19)
(-0.0238123 0.0377952 4.59627e-20)
(-0.030865 0.0448342 8.8902e-21)
(-0.0364381 0.0488693 -2.08366e-19)
(-0.0405967 0.0505834 3.06408e-19)
(-0.043418 0.0505294 3.34461e-20)
(-0.0449836 0.0491507 -6.28309e-20)
(-0.0453726 0.0468037 -2.01669e-19)
(-0.0446571 0.0437815 2.17995e-19)
(-0.0428999 0.040334 5.5269e-19)
(-0.0401581 0.0366866 -1.221e-19)
(-0.036487 0.0330575 2.75905e-19)
(-0.0319483 0.0296722 -3.25911e-19)
(-0.0266218 0.0267757 -3.12501e-19)
(-0.0206257 0.0246378 1.87898e-19)
(-0.0141331 0.0235546 3.10449e-19)
(-0.00731801 0.0238765 -1.006e-18)
(-0.000327434 0.0260246 1.1812e-19)
(0.00591635 0.0300718 1.60599e-19)
(-0.0065918 0.0114894 3.81692e-19)
(-0.0172404 0.0281254 1.25549e-19)
(-0.0262624 0.0394509 6.53992e-19)
(-0.0334248 0.0466995 3.36506e-20)
(-0.0387585 0.0508008 -7.27306e-20)
(-0.0423937 0.0524771 -3.46333e-19)
(-0.0444614 0.0523063 2.94525e-19)
(-0.0450859 0.0507449 5.28406e-19)
(-0.0443801 0.0481538 3.5205e-19)
(-0.0424409 0.0448225 2.54163e-19)
(-0.0393496 0.0409929 2.19113e-19)
(-0.035175 0.0368795 -3.9347e-19)
(-0.0299787 0.03269 -1.23252e-19)
(-0.0238238 0.0286446 -9.07741e-20)
(-0.0167882 0.0249954 9.72738e-19)
(-0.00899035 0.0220397 -3.33681e-21)
(-0.00061195 0.0201326 -2.42423e-19)
(0.0081539 0.0197367 -7.64655e-20)
(0.0171168 0.0214572 6.9574e-19)
(0.0251159 0.0255161 9.132e-20)
(-0.00744539 0.0119441 -1.88252e-20)
(-0.0191604 0.0291171 -3.61056e-19)
(-0.0286514 0.0407315 -5.37118e-19)
(-0.0358043 0.0481041 -1.4945e-19)
(-0.0407381 0.0522233 8.25234e-20)
(-0.0436523 0.0538503 1.77711e-20)
(-0.0447355 0.053587 4.71265e-19)
(-0.0441585 0.051902 -5.84477e-19)
(-0.0420711 0.0491581 -2.22322e-19)
(-0.0386002 0.0456393 -4.48049e-19)
(-0.033851 0.0415747 -3.81623e-19)
(-0.0279111 0.0371607 -3.37916e-19)
(-0.0208563 0.0325831 8.44893e-20)
(-0.012759 0.0280406 -1.09705e-19)
(-0.00370191 0.0237704 4.70053e-19)
(0.00619295 0.0200718 -2.57642e-19)
(0.0167344 0.0173358 -8.07605e-19)
(0.0277162 0.0161296 -1.62947e-19)
(0.0389211 0.0172803 3.98581e-19)
(0.048895 0.0212242 -3.47126e-19)
(-0.00830934 0.012299 -6.08985e-20)
(-0.0210455 0.029834 4.41578e-19)
(-0.0308956 0.0416031 -5.6316e-19)
(-0.0378744 0.0490066 1.30171e-19)
(-0.0421946 0.0530915 -2.68111e-19)
(-0.0441283 0.0546592 5.97203e-19)
(-0.043924 0.0543356 -4.26829e-19)
(-0.041801 0.052602 4.88334e-19)
(-0.0379486 0.0498245 -4.63013e-19)
(-0.0325273 0.0462825 1.97564e-19)
(-0.0256721 0.0421926 -9.58774e-20)
(-0.0174979 0.0377307 -2.40733e-19)
(-0.00810619 0.0330544 -2.97459e-19)
(0.00240786 0.0283271 2.96404e-19)
(0.0139423 0.0237476 -2.48234e-19)
(0.0263589 0.019583 -5.42758e-19)
(0.0394478 0.0162147 5.6505e-19)
(0.0529924 0.0142749 -7.20836e-19)
(0.0667834 0.0148211 3.24238e-19)
(0.079041 0.0185594 8.13582e-21)
(-0.00916873 0.0125461 -5.52111e-19)
(-0.0228445 0.030253 -5.96103e-19)
(-0.0329 0.042031 6.86958e-20)
(-0.0394885 0.0493627 -5.74827e-19)
(-0.042921 0.0533553 -5.11531e-20)
(-0.0435444 0.0548509 -4.22836e-19)
(-0.0416677 0.0545015 -9.7003e-20)
(-0.0375585 0.0528032 -2.83502e-19)
(-0.0314465 0.0501293 2.52177e-21)
(-0.0235281 0.0467595 -1.2405e-19)
(-0.0139728 0.0429038 8.80995e-21)
(-0.00293168 0.0387232 -3.57485e-19)
(0.00945481 0.0343496 3.94027e-19)
(0.0230495 0.0299075 -5.59075e-19)
(0.0377081 0.0255428 1.98087e-19)
(0.0532504 0.021456 7.51947e-21)
(0.0694229 0.0179596 -3.15479e-19)
(0.0859848 0.0156682 7.82283e-19)
(0.102787 0.0158196 -1.86836e-19)
(0.117756 0.0193938 -1.21078e-19)
(-0.0100073 0.0126782 6.19744e-19)
(-0.0245 0.0303527 3.34627e-19)
(-0.0345577 0.0419817 3.11265e-19)
(-0.0404815 0.0491298 4.64677e-20)
(-0.0426847 0.0529647 4.20883e-19)
(-0.0415901 0.054371 6.06653e-19)
(-0.0375659 0.0540278 4.96705e-19)
(-0.0309267 0.0524496 4.44598e-20)
(-0.021941 0.0500225 3.63774e-19)
(-0.0108411 0.0470342 5.621e-19)
(0.00216552 0.0436988 -1.45817e-19)
(0.0168845 0.0401755 2.44729e-19)
(0.0331232 0.0365853 1.97615e-19)
(0.0506812 0.0330267 2.01051e-19)
(0.0693416 0.0295972 1.18953e-18)
(0.0888442 0.0264175 -4.45866e-19)
(0.108845 0.0236777 -2.72332e-20)
(0.129031 0.0218585 5.17319e-19)
(0.149356 0.0222433 -2.93365e-19)
(0.167611 0.0259991 1.44966e-19)
(-0.0108075 0.0126899 -5.01156e-19)
(-0.0259479 0.0301153 3.20964e-20)
(-0.035748 0.0414279 -4.01144e-19)
(-0.040667 0.0482733 -5.22142e-20)
(-0.0412246 0.0518801 2.93646e-19)
(-0.0379191 0.0531754 -8.74194e-19)
(-0.0311762 0.0528672 -6.51244e-22)
(-0.0213546 0.0514908 4.06847e-19)
(-0.00875922 0.0494498 3.82265e-19)
(0.00634298 0.0470488 -1.68303e-19)
(0.0237058 0.0445187 5.55036e-20)
(0.0430864 0.0420351 1.28734e-19)
(0.064229 0.0397322 -6.09527e-20)
(0.08685 0.0377139 -6.83864e-19)
(0.110626 0.036065 1.73136e-19)
(0.135168 0.0348572 4.76684e-19)
(0.15997 0.0341555 -6.79294e-19)
(0.184542 0.0342147 3.31325e-19)
(0.20893 0.0361964 8.89984e-20)
(0.231149 0.0412689 4.50619e-19)
(-0.0115501 0.0125774 -7.39805e-20)
(-0.0271153 0.0295278 -3.51124e-19)
(-0.0363334 0.0403516 1.61577e-19)
(-0.0398331 0.0467735 7.51479e-22)
(-0.0382451 0.0500824 -7.04176e-19)
(-0.0321435 0.0512474 1.09891e-19)
(-0.0220097 0.0510044 -2.08704e-20)
(-0.00824397 0.0499105 1.42164e-19)
(0.00881461 0.0483894 -6.5076e-19)
(0.0288655 0.0467679 -4.56319e-20)
(0.0516237 0.0453034 -1.52914e-19)
(0.0767967 0.0442045 1.36016e-19)
(0.104061 0.0436464 4.59268e-19)
(0.133041 0.0437826 -7.10026e-20)
(0.163281 0.0447546 2.75198e-20)
(0.194208 0.0466866 1.80906e-19)
(0.225041 0.0496506 -4.46782e-20)
(0.254895 0.0538136 3.65433e-19)
(0.283638 0.0603449 -2.11812e-19)
(0.309888 0.0701228 -3.35297e-19)
(-0.0122132 0.0123387 6.86323e-20)
(-0.0279181 0.0285836 1.67511e-20)
(-0.0361549 0.0387479 1.40795e-19)
(-0.0377364 0.0446331 3.44838e-19)
(-0.0334102 0.0475857 1.93509e-19)
(-0.0238279 0.0486145 2.01907e-20)
(-0.00952683 0.0484807 -2.31012e-19)
(0.00905077 0.0477601 5.9219e-20)
(0.0315298 0.0468945 3.11478e-19)
(0.0575737 0.0462308 -5.27829e-19)
(0.0868573 0.0460522 3.9832e-19)
(0.119041 0.0466022 -3.00152e-19)
(0.153749 0.0481065 2.54773e-19)
(0.190542 0.0507945 -5.49611e-19)
(0.228892 0.0549239 6.04868e-19)
(0.26812 0.0607967 -6.47051e-19)
(0.30726 0.0687564 -1.68364e-19)
(0.344982 0.0794368 5.29097e-19)
(0.380117 0.0948591 -1.78501e-19)
(0.409405 0.115305 7.94954e-20)
(-0.0127707 0.0119726 -5.19352e-20)
(-0.0282576 0.0272822 4.90131e-19)
(-0.0350273 0.0366279 -2.05373e-21)
(-0.0340964 0.0418829 -3.0427e-19)
(-0.0263378 0.0444465 -2.04627e-19)
(-0.0124852 0.0453636 3.74887e-19)
(0.00686271 0.0454149 -1.48486e-19)
(0.0312134 0.0451887 -1.87055e-20)
(0.0601436 0.0451355 3.09486e-19)
(0.0932655 0.0456098 -3.84476e-19)
(0.130197 0.0469015 4.21707e-20)
(0.170541 0.0492623 -4.9995e-19)
(0.213871 0.0529305 2.63345e-19)
(0.25973 0.058159 -7.53705e-19)
(0.307633 0.0652536 1.20117e-18)
(0.357086 0.0746233 -2.20047e-19)
(0.40762 0.0868965 2.30052e-19)
(0.459072 0.103465 -5.97205e-19)
(0.511909 0.127363 3.54908e-21)
(0.558089 0.154568 6.79973e-19)
(-0.0131902 0.0114778 -1.57325e-19)
(-0.0280158 0.0256291 1.35919e-19)
(-0.0327348 0.03402 -5.00603e-19)
(-0.0285917 0.038585 7.40437e-19)
(-0.0165975 0.0407703 -5.34574e-19)
(0.0024213 0.0416501 2.75938e-20)
(0.0277904 0.0420175 -5.76472e-19)
(0.0589453 0.0424626 4.12176e-19)
(0.0953845 0.0434303 -5.88821e-20)
(0.136629 0.0452608 -3.63789e-19)
(0.182191 0.0482198 -2.12332e-19)
(0.231559 0.0525199 2.24352e-19)
(0.284192 0.0583401 1.48429e-19)
(0.339533 0.0658421 -6.57062e-19)
(0.397038 0.0751872 2.3716e-19)
(0.456222 0.0865482 -3.50141e-19)
(0.516722 0.100129 4.24413e-20)
(0.57852 0.116362 -2.97968e-19)
(0.642435 0.136416 1.22548e-19)
(0.701242 0.156432 -4.47686e-19)
(-0.0134303 0.0108526 4.47889e-19)
(-0.0270527 0.0236362 -2.71278e-19)
(-0.0290282 0.0309704 2.23531e-19)
(-0.0208602 0.0348351 -2.82205e-19)
(-0.00371625 0.0367126 4.73025e-19)
(0.0214649 0.0376992 -8.26935e-21)
(0.0539051 0.0385895 -5.75903e-20)
(0.0929282 0.039962 -4.2703e-20)
(0.137901 0.042237 2.62844e-19)
(0.188187 0.0457162 4.46978e-19)
(0.243115 0.050608 -2.64034e-19)
(0.301969 0.0570465 2.5674e-19)
(0.363995 0.0651047 4.69101e-19)
(0.428423 0.0748042 -3.28915e-19)
(0.494505 0.0861206 -6.68567e-19)
(0.561561 0.0989793 1.22295e-18)
(0.62902 0.113239 -2.18336e-19)
(0.69651 0.128731 -7.10152e-20)
(0.764219 0.145774 7.66136e-19)
(0.827004 0.163539 -1.61887e-19)
(-0.0134392 0.010095 -7.29134e-19)
(-0.0252038 0.0213218 -4.85386e-19)
(-0.023626 0.0275442 -1.8633e-19)
(-0.0105053 0.0307613 3.59493e-19)
(0.0128074 0.0324771 -8.11612e-19)
(0.0452281 0.0337984 4.20329e-19)
(0.0858284 0.0355074 5.32734e-20)
(0.133758 0.0381517 5.38794e-20)
(0.188174 0.0421032 -5.50609e-19)
(0.24819 0.0475946 -1.94449e-19)
(0.312855 0.054743 -3.4282e-19)
(0.381153 0.0635678 3.31131e-19)
(0.452026 0.0740043 9.40419e-20)
(0.524409 0.0859145 1.84292e-20)
(0.597285 0.0990942 4.32058e-19)
(0.66972 0.113274 -4.37548e-19)
(0.740912 0.128112 -1.81951e-20)
(0.810216 0.143206 1.10537e-20)
(0.877302 0.158395 5.98697e-20)
(0.939337 0.175261 3.4017e-19)
(-0.0131538 0.00920366 2.32149e-19)
(-0.0222808 0.0187132 5.9791e-19)
(-0.0162193 0.0238264 4.79817e-19)
(0.00289177 0.0265239 -1.65398e-19)
(0.0334788 0.0283105 5.75289e-19)
(0.0742615 0.0302867 -4.84717e-20)
(0.124092 0.0332009 -6.8279e-20)
(0.181855 0.0375429 4.06488e-20)
(0.246396 0.043603 5.56195e-19)
(0.316474 0.0515067 3.26835e-19)
(0.390753 0.0612405 9.54494e-20)
(0.467836 0.0726735 5.86289e-21)
(0.546304 0.0855783 -6.33544e-19)
(0.624784 0.0996506 5.50496e-19)
(0.702006 0.114527 9.44906e-20)
(0.776856 0.1298 -1.55529e-19)
(0.848408 0.145023 -6.75152e-19)
(0.915952 0.159748 -5.7175e-20)
(0.97896 0.17351 2.66834e-19)
(1.03668 0.189444 -5.44434e-20)
(-0.0124992 0.00817962 -5.89054e-19)
(-0.0180745 0.0158493 2.46461e-19)
(-0.00648041 0.0199245 -1.20333e-18)
(0.0197529 0.0223155 4.92859e-19)
(0.0587741 0.0244984 -3.93063e-19)
(0.109032 0.0275418 2.89787e-19)
(0.169061 0.0321289 -4.50216e-19)
(0.237368 0.038653 4.13282e-20)
(0.312365 0.0472774 -2.32135e-20)
(0.392342 0.0579736 1.21119e-19)
(0.4755 0.0705536 1.74943e-19)
(0.560014 0.0847035 -3.3064e-19)
(0.644117 0.100018 1.751e-19)
(0.726187 0.116033 1.60861e-19)
(0.804816 0.132261 6.95224e-19)
(0.878865 0.148213 -3.01905e-19)
(0.947481 0.163421 -2.00789e-19)
(1.01011 0.177485 3.37744e-19)
(1.06636 0.189848 1.80373e-19)
(1.11683 0.204331 -3.39171e-19)
(-0.0113904 0.00702892 5.15954e-19)
(-0.0123599 0.0127862 4.97502e-19)
(0.00592403 0.0159729 1.43543e-19)
(0.0404798 0.0183624 6.04583e-19)
(0.0891024 0.0213606 2.97025e-19)
(0.149868 0.0259675 -5.35464e-19)
(0.220865 0.0327549 8.11052e-19)
(0.30009 0.041966 -3.99141e-19)
(0.385393 0.0535805 3.98481e-19)
(0.474507 0.0673617 5.15658e-19)
(0.565131 0.0829055 -2.94704e-19)
(0.655042 0.0996923 5.59794e-20)
(0.742215 0.117141 3.12248e-19)
(0.824928 0.134659 2.20049e-19)
(0.901829 0.151684 5.07023e-19)
(0.971964 0.167715 -2.02796e-19)
(1.03477 0.182334 -2.49426e-20)
(1.09005 0.195246 3.20187e-19)
(1.13778 0.205983 -6.88256e-20)
(1.17936 0.218408 3.06122e-22)
(-0.00973444 0.00576535 -2.66338e-19)
(-0.0049049 0.00960122 -9.78935e-19)
(0.0213172 0.0121371 2.30537e-19)
(0.0654269 0.0149256 -1.75506e-19)
(0.124765 0.0192473 -4.05162e-19)
(0.196901 0.0259797 -2.89303e-19)
(0.279333 0.035521 -1.78734e-19)
(0.369397 0.0478957 4.3407e-19)
(0.464282 0.0628337 -2.57796e-19)
(0.561122 0.0798379 -2.64027e-19)
(0.65715 0.0982584 -3.34001e-19)
(0.749863 0.117371 -5.51327e-20)
(0.837164 0.136449 -3.73403e-20)
(0.917454 0.154825 -7.72739e-19)
(0.989668 0.171937 3.74741e-19)
(1.05326 0.187348 -4.92804e-19)
(1.10813 0.20076 1.54889e-19)
(1.15458 0.212021 -1.17914e-18)
(1.19308 0.220877 3.554e-19)
(1.22537 0.230817 4.4975e-19)
(-0.00743373 0.0044132 -6.68828e-20)
(0.0045204 0.00639893 4.77555e-19)
(0.0399936 0.00861816 3.06185e-20)
(0.0948721 0.0123014 7.3677e-20)
(0.165914 0.0185311 -1.49796e-19)
(0.250024 0.0279898 -2.46989e-21)
(0.343946 0.0408212 -3.85339e-21)
(0.444234 0.0567505 -9.04108e-20)
(0.547358 0.0751917 3.20667e-19)
(0.649893 0.0953483 1.23986e-19)
(0.748744 0.116322 5.62985e-19)
(0.841343 0.137217 -1.53505e-19)
(0.925773 0.157227 1.07213e-19)
(1.00082 0.175692 -1.39508e-20)
(1.06592 0.192132 2.97009e-19)
(1.12112 0.20625 1.81796e-19)
(1.16688 0.217921 4.3823e-19)
(1.20402 0.227164 -7.07863e-19)
(1.2335 0.23397 8.90906e-19)
(1.25716 0.241287 -2.82287e-19)
(-0.00438955 0.00300938 -6.22449e-19)
(0.0161318 0.0033141 -1.94328e-19)
(0.0621988 0.00565407 1.51871e-19)
(0.128987 0.0108181 9.57531e-20)
(0.212516 0.0195966 9.81349e-20)
(0.308852 0.0323838 9.94849e-20)
(0.41383 0.048972 -2.49004e-19)
(0.523142 0.0687034 -1.02976e-19)
(0.632572 0.0906229 3.19391e-20)
(0.738282 0.113625 -3.05102e-19)
(0.837087 0.1366 -1.38045e-19)
(0.926639 0.158553 8.34251e-19)
(1.00548 0.178688 -2.15215e-19)
(1.07302 0.196451 -2.96786e-19)
(1.12938 0.211526 -1.40921e-19)
(1.17525 0.223813 9.75617e-20)
(1.21166 0.233386 1.19067e-19)
(1.23989 0.240439 -5.70717e-19)
(1.26124 0.245179 8.26085e-19)
(1.27755 0.249998 -7.1603e-19)
(-0.000506403 0.00160491 -7.04349e-20)
(0.0301186 0.000513579 2.01759e-20)
(0.088108 0.00351861 -2.5739e-20)
(0.167808 0.0108278 3.76026e-19)
(0.264325 0.0228231 2.07239e-20)
(0.372706 0.0394969 1.38107e-19)
(0.487767 0.0601847 -2.8695e-19)
(0.604344 0.0837722 -1.04662e-20)
(0.717671 0.108913 3.98687e-19)
(0.823756 0.134226 5.55846e-20)
(0.91964 0.158467 -3.47425e-19)
(1.00351 0.180651 -3.05243e-20)
(1.07462 0.200101 -2.85562e-19)
(1.13317 0.216456 2.84314e-19)
(1.18002 0.229628 3.95018e-19)
(1.21648 0.239741 -4.35492e-20)
(1.24407 0.247066 -5.31063e-20)
(1.26436 0.251943 1.61896e-19)
(1.27887 0.254743 -5.2057e-19)
(1.28933 0.257363 4.58507e-19)
(0.00430355 0.000265537 7.07435e-20)
(0.04663 -0.00180464 -4.56358e-19)
(0.117806 0.00251562 1.22131e-19)
(0.211213 0.0126935 -3.78883e-19)
(0.320861 0.0285636 1.30285e-19)
(0.440625 0.0495876 -4.83876e-19)
(0.564263 0.074544 1.95193e-19)
(0.685872 0.101817 -6.21471e-20)
(0.800398 0.129691 -2.52538e-21)
(0.904035 0.156592 6.36166e-20)
(0.9944 0.181263 -2.31721e-19)
(1.07049 0.202846 -3.30892e-19)
(1.13247 0.220889 -6.78737e-20)
(1.18136 0.235292 -3.04712e-20)
(1.21872 0.246222 -7.73206e-20)
(1.24637 0.254022 -2.51954e-20)
(1.26616 0.259127 -7.54249e-20)
(1.2798 0.261984 -6.54044e-20)
(1.28884 0.26306 -1.94643e-19)
(1.29489 0.263856 3.08865e-19)
(0.0101156 -0.000928631 1.70134e-19)
(0.0657622 -0.00341506 -1.88954e-19)
(0.151266 0.0029691 4.06669e-19)
(0.258903 0.0167713 -1.75547e-19)
(0.38141 0.0371202 4.6919e-19)
(0.511398 0.0628145 6.69554e-21)
(0.641638 0.091998 2.35669e-19)
(0.765729 0.122554 -6.31388e-20)
(0.878693 0.152478 2.63453e-19)
(0.977297 0.180131 1.90514e-20)
(1.06005 0.204379 6.27357e-19)
(1.12697 0.224614 -4.33068e-19)
(1.17917 0.240683 5.83514e-20)
(1.21846 0.252781 1.11365e-19)
(1.24696 0.261323 5.83383e-19)
(1.26683 0.266837 -2.09609e-19)
(1.28006 0.269878 -4.15591e-20)
(1.28838 0.270947 -2.2019e-19)
(1.29326 0.270556 -2.31994e-20)
(1.2961 0.269896 1.10187e-19)
(0.0169874 -0.0018843 -8.16587e-20)
(0.0875453 -0.00407105 2.35895e-19)
(0.188337 0.00520961 -2.41543e-19)
(0.310396 0.0233893 9.53935e-20)
(0.445046 0.0487211 -1.14074e-19)
(0.583638 0.079221 4.187e-19)
(0.718151 0.112364 -5.8333e-20)
(0.842053 0.145594 1.43697e-19)
(0.950863 0.176747 -8.46262e-20)
(1.04229 0.20428 -2.23134e-21)
(1.11598 0.22732 9.66841e-20)
(1.17304 0.2456 -7.49249e-20)
(1.21549 0.25931 1.94354e-19)
(1.24578 0.268934 -9.68922e-20)
(1.26642 0.275102 -4.26718e-19)
(1.27973 0.278474 4.24276e-19)
(1.28769 0.279671 -1.91187e-19)
(1.29193 0.279209 1.52674e-19)
(1.29373 0.277605 2.64757e-19)
(1.29433 0.275809 1.08775e-19)
(0.0249541 -0.00249715 2.032e-19)
(0.111933 -0.00351353 -4.18751e-19)
(0.228735 0.009558 8.01188e-20)
(0.365031 0.0328263 -5.81309e-20)
(0.510669 0.0635015 -2.34508e-19)
(0.65586 0.0987317 -1.84061e-19)
(0.792126 0.135348 -3.61863e-20)
(0.913251 0.170481 -3.28197e-19)
(1.01568 0.201983 -2.00005e-20)
(1.09836 0.228564 -6.09953e-20)
(1.16219 0.249734 -1.65594e-19)
(1.20933 0.265623 -3.67935e-20)
(1.24258 0.276763 -1.26765e-19)
(1.26484 0.283895 -2.11598e-19)
(1.27881 0.287809 2.16711e-19)
(1.28679 0.289245 2.98781e-20)
(1.29066 0.288839 5.95433e-20)
(1.29184 0.287089 -2.49707e-19)
(1.29146 0.284493 -6.2425e-21)
(1.29051 0.281813 -3.85324e-19)
(0.0340235 -0.00265485 2.22756e-19)
(0.138793 -0.00148169 1.48584e-19)
(0.272039 0.0163078 -2.39598e-19)
(0.421994 0.0452923 3.74153e-19)
(0.577064 0.0814935 -4.03454e-20)
(0.726584 0.121161 1.39784e-19)
(0.862065 0.160579 4.84028e-20)
(0.978092 0.196747 1.715e-19)
(1.07241 0.227722 -1.34293e-19)
(1.14538 0.25262 4.47681e-20)
(1.19915 0.27141 -4.29716e-20)
(1.23683 0.284636 -1.89089e-20)
(1.26176 0.293142 3.59571e-20)
(1.27712 0.297871 -6.6262e-20)
(1.2856 0.299711 -2.03669e-20)
(1.2894 0.299435 -6.23216e-20)
(1.29018 0.297654 -1.01309e-19)
(1.28915 0.294823 6.5408e-20)
(1.28723 0.291416 -8.9763e-20)
(1.28525 0.288035 3.87886e-19)
(0.0441722 -0.00224092 -1.11231e-19)
(0.167905 0.002275 -3.15133e-19)
(0.317699 0.0257078 -4.19549e-20)
(0.480344 0.0609135 -1.14281e-20)
(0.642968 0.102623 -1.41195e-19)
(0.794422 0.14623 -2.31851e-19)
(0.926733 0.187643 7.59013e-20)
(1.03574 0.223943 -1.043e-19)
(1.12076 0.253583 -1.16889e-19)
(1.18363 0.276199 6.51289e-20)
(1.22764 0.292256 -4.92237e-20)
(1.25664 0.30269 -9.96247e-20)
(1.27433 0.308606 -3.37279e-21)
(1.28394 0.311082 6.74833e-20)
(1.28805 0.311055 -6.88677e-20)
(1.28865 0.309278 9.55656e-20)
(1.28714 0.306319 2.57065e-20)
(1.28455 0.302572 6.4797e-20)
(1.2816 0.298489 1.26327e-19)
(1.27893 0.294531 -1.08222e-19)
(0.0553424 -0.00113922 1.06245e-19)
(0.19896 0.00798413 -9.37988e-21)
(0.365054 0.0379469 4.76865e-20)
(0.539063 0.0797234 -6.47131e-20)
(0.707138 0.12672 5.32729e-21)
(0.858158 0.173597 2.24609e-19)
(0.985201 0.216116 -1.47554e-19)
(1.08575 0.251671 6.25197e-20)
(1.16082 0.279274 5.51387e-20)
(1.21368 0.299151 -1.54987e-19)
(1.24859 0.312264 1.45674e-19)
(1.2699 0.319889 1.29291e-21)
(1.28146 0.323328 -1.027e-19)
(1.28641 0.323733 1.23801e-19)
(1.28713 0.322037 -4.9148e-20)
(1.28533 0.318948 3.75875e-20)
(1.28219 0.314965 -4.2036e-20)
(1.27851 0.310427 -1.6814e-20)
(1.27487 0.305764 -1.47253e-19)
(1.27176 0.301306 4.51077e-20)
(0.0674409 0.000760945 -3.58177e-20)
(0.231566 0.015838 9.61389e-20)
(0.413355 0.053141 1.49923e-20)
(0.597103 0.10166 6.28847e-20)
(0.76842 0.153527 3.0012e-20)
(0.916792 0.202877 1.40689e-20)
(1.03685 0.245587 7.97667e-20)
(1.12798 0.279592 -9.67839e-21)
(1.19294 0.304581 3.51861e-20)
(1.23626 0.321403 5.65448e-20)
(1.26295 0.331476 2.7295e-20)
(1.27764 0.336357 1.96005e-20)
(1.28416 0.337472 7.94941e-20)
(1.28543 0.33599 -7.69546e-20)
(1.28356 0.332804 1.6521e-20)
(1.28001 0.328553 -1.54785e-20)
(1.27572 0.323666 2.39436e-20)
(1.27132 0.318426 2.00651e-20)
(1.26723 0.313245 4.19172e-20)
(1.26385 0.308326 1.76066e-21)
(0.0803396 0.00355966 2.1234e-20)
(0.265258 0.0259824 1.93962e-20)
(0.461795 0.0713253 -2.68538e-20)
(0.653434 0.126571 1.67808e-20)
(0.825792 0.182723 9.48305e-21)
(0.969562 0.233666 -2.9501e-20)
(1.08134 0.27568 9.73731e-21)
(1.16257 0.307427 1.7567e-21)
(1.21764 0.329358 1.67991e-20)
(1.25217 0.34293 -4.50526e-20)
(1.27164 0.349961 -1.41168e-22)
(1.28077 0.352212 1.24932e-20)
(1.28322 0.351167 -9.95571e-21)
(1.28166 0.347971 1.0073e-20)
(1.27788 0.343445 2.6298e-20)
(1.27308 0.338152 -1.49673e-20)
(1.26801 0.332446 4.16445e-21)
(1.26315 0.326561 1.6406e-20)
(1.2588 0.320901 -2.70498e-20)
(1.25526 0.315538 1.29841e-20)
(0.0938776 0.00734126 5.91801e-20)
(0.299514 0.038507 -3.21906e-20)
(0.509543 0.0924504 3.79101e-20)
(0.707087 0.154219 -2.82098e-20)
(0.8784 0.213937 -1.26555e-20)
(1.01594 0.265563 3.82591e-21)
(1.11858 0.306054 -1.24247e-20)
(1.18983 0.334953 4.46913e-20)
(1.23556 0.353505 -3.72224e-20)
(1.26217 0.363734 8.73546e-21)
(1.27546 0.367785 -6.50977e-21)
(1.28003 0.367546 -4.24294e-20)
(1.2793 0.364507 4.11633e-20)
(1.2756 0.359747 1.56788e-20)
(1.27044 0.354004 -1.55979e-20)
(1.26479 0.347756 3.66263e-20)
(1.25922 0.341289 -5.35651e-22)
(1.25409 0.334797 -3.55472e-20)
(1.24961 0.328678 2.63377e-20)
(1.246 0.322869 8.30846e-21)
(0.107864 0.0121697 -2.07378e-20)
(0.333771 0.0534393 6.01423e-20)
(0.555772 0.116383 6.95007e-20)
(0.757191 0.1843 -3.27946e-20)
(0.925572 0.246768 5.70628e-20)
(1.05563 0.298176 9.03229e-20)
(1.14868 0.336405 -4.97487e-21)
(1.21019 0.361987 -1.55164e-20)
(1.24731 0.376951 7.66455e-20)
(1.267 0.383826 3.73793e-20)
(1.2751 0.385 -6.78742e-21)
(1.27603 0.382424 5.57462e-20)
(1.27286 0.377543 -5.98019e-20)
(1.2676 0.371347 9.31287e-20)
(1.2615 0.36448 -1.55382e-20)
(1.2553 0.357341 4.45326e-20)
(1.24944 0.35015 8.0337e-21)
(1.24418 0.343073 3.18823e-20)
(1.23967 0.336502 -3.03467e-20)
(1.23608 0.33024 7.31081e-21)
(0.122085 0.0180844 -3.22768e-20)
(0.367445 0.0707395 7.65836e-20)
(0.599695 0.14291 5.6903e-20)
(0.802995 0.216448 -8.62543e-21)
(0.966814 0.280797 8.86965e-20)
(1.0885 0.331131 -6.62592e-20)
(1.17185 0.366465 -5.20495e-21)
(1.22415 0.388374 5.85181e-20)
(1.25353 0.399639 1.85927e-20)
(1.26729 0.403209 2.60211e-20)
(1.27115 0.401637 -3.84304e-20)
(1.26925 0.396875 1.0024e-19)
(1.26427 0.390286 1.8727e-20)
(1.25793 0.382759 -8.88177e-20)
(1.25121 0.374841 1.29815e-19)
(1.2447 0.366853 -1.53192e-19)
(1.23872 0.358962 -7.03546e-20)
(1.23346 0.351314 1.16554e-20)
(1.22899 0.344292 6.83397e-20)
(1.22548 0.337564 -1.28863e-19)
(0.136306 0.0250968 -7.26317e-20)
(0.399952 0.0903003 -1.71355e-19)
(0.640587 0.171746 -1.4818e-19)
(0.843882 0.250257 -2.01799e-19)
(1.0018 0.315601 -1.14523e-19)
(1.11457 0.364076 -2.37513e-19)
(1.18842 0.39599 3.01778e-20)
(1.23221 0.413981 -1.26207e-19)