/*--------------------------------*- C++ -*----------------------------------*\
  =========                 |
  \\      /  F ield         | OpenFOAM: The Open Source CFD Toolbox
   \\    /   O peration     | Website:  https://openfoam.org
    \\  /    A nd           | Version:  6.0
     \\/     M anipulation  |
\*---------------------------------------------------------------------------*/
FoamFile
{
    version     2.0;
    format      ascii;
    class       surfaceScalarField;
    location    "22";
    object      phi;
}
// * * * * * * * * * * * * * * * * * * * * * * * * * * * * * * * * * * * * * //

dimensions      [0 3 -1 0 0 0 0];

internalField   nonuniform List<scalar> 
7840
(
-2.87444e-06
2.7003e-06
1.74136e-07
-1.0158e-05
6.86344e-06
4.20149e-07
-2.07865e-05
1.00386e-05
5.89798e-07
-3.38913e-05
1.24037e-05
7.01191e-07
-4.8776e-05
1.41158e-05
7.6886e-07
-6.48951e-05
1.53146e-05
8.0451e-07
-8.18351e-05
1.61226e-05
8.17407e-07
-9.92966e-05
1.66467e-05
8.14746e-07
-0.000117079
1.69802e-05
8.01997e-07
-0.000135066
1.72038e-05
7.83232e-07
-0.000153215
1.73874e-05
7.61421e-07
-0.000171544
1.75907e-05
7.38679e-07
-0.000190124
1.78635e-05
7.16478e-07
-0.000209066
1.82466e-05
6.958e-07
-0.000228515
1.87716e-05
6.77264e-07
-0.000248637
1.94609e-05
6.6121e-07
-0.000269613
2.03282e-05
6.47738e-07
-0.000291628
2.13784e-05
6.36742e-07
-0.000314867
2.26103e-05
6.28043e-07
2.4022e-05
6.21439e-07
-0.00033951
-2.86137e-06
5.56166e-06
-1.011e-05
1.4112e-05
-2.06816e-05
2.06103e-05
-3.37063e-05
2.54284e-05
-4.84847e-05
2.88943e-05
-6.44679e-05
3.12977e-05
-8.12373e-05
3.2892e-05
-9.84879e-05
3.38974e-05
-0.000116012
3.45047e-05
-0.000133688
3.48795e-05
-0.000151465
3.51643e-05
-0.000169355
3.54808e-05
-0.000187423
3.59313e-05
-0.000205776
3.65998e-05
-0.000224556
3.75515e-05
-0.000243929
3.88341e-05
-0.000264078
4.04768e-05
-0.000285191
4.24914e-05
-0.000307457
4.48761e-05
4.7628e-05
-0.000331063
-2.83504e-06
8.3967e-06
-1.00129e-05
2.12899e-05
-2.04703e-05
3.10676e-05
-3.33346e-05
3.82927e-05
-4.79017e-05
4.34614e-05
-6.36156e-05
4.70117e-05
-8.0049e-05
4.93254e-05
-9.68856e-05
5.0734e-05
-0.000113906
5.15247e-05
-0.000130972
5.19462e-05
-0.000148022
5.22136e-05
-0.000165052
5.25115e-05
-0.000182117
5.29964e-05
-0.000199315
5.37978e-05
-0.000216783
5.50188e-05
-0.000234684
5.67358e-05
-0.000253206
5.89984e-05
-0.000272543
6.18288e-05
-0.000292896
6.52286e-05
6.91943e-05
-0.000314462
-2.79752e-06
1.11942e-05
-9.87315e-06
2.83655e-05
-2.01643e-05
4.13588e-05
-3.27953e-05
5.09236e-05
-4.70555e-05
5.77217e-05
-6.23796e-05
6.23358e-05
-7.83276e-05
6.52734e-05
-9.45678e-05
6.69741e-05
-0.000110862
6.78185e-05
-0.000127052
6.8137e-05
-0.000143055
6.82159e-05
-0.000158847
6.83035e-05
-0.000174463
6.86127e-05
-0.000189988
6.93226e-05
-0.000205548
7.05793e-05
-0.000221307
7.24947e-05
-0.000237454
7.51455e-05
-0.000254197
7.85716e-05
-0.000271752
8.27835e-05
8.77805e-05
-0.000290338
-2.75141e-06
1.39456e-05
-9.69828e-06
3.53124e-05
-1.97783e-05
5.14389e-05
-3.2112e-05
6.32572e-05
-4.59817e-05
7.15914e-05
-6.08112e-05
7.71654e-05
-7.61458e-05
8.0608e-05
-9.16343e-05
8.24626e-05
-0.000107015
8.31994e-05
-0.000122105
8.3227e-05
-0.000136791
8.29015e-05
-0.000151022
8.25346e-05
-0.000164807
8.23978e-05
-0.000178209
8.27245e-05
-0.00019134
8.37108e-05
-0.000204359
8.55132e-05
-0.000217459
8.82458e-05
-0.000230865
9.1977e-05
-0.000244817
9.67359e-05
0.000102531
-0.000259568
-2.69937e-06
1.6645e-05
-9.49589e-06
4.21089e-05
-1.93264e-05
6.12693e-05
-3.13073e-05
7.52382e-05
-4.47145e-05
8.49985e-05
-5.89608e-05
9.14117e-05
-7.35756e-05
9.52228e-05
-8.81869e-05
9.70738e-05
-0.000102506
9.7519e-05
-0.00011632
9.70401e-05
-0.000129478
9.606e-05
-0.000141895
9.4952e-05
-0.000153545
9.40477e-05
-0.00016446
9.36396e-05
-0.000174731
9.39817e-05
-0.000184505
9.52869e-05
-0.00019398
9.77208e-05
-0.000203399
0.000101396
-0.00021304
0.000106377
0.000112692
-0.000223201
-2.64348e-06
1.92885e-05
-9.27155e-06
4.8737e-05
-1.88182e-05
7.0816e-05
-3.03967e-05
8.68166e-05
-4.3277e-05
9.78789e-05
-5.68631e-05
0.000104998
-7.06698e-05
0.000109029
-8.43038e-05
0.000110708
-9.74494e-05
0.000110665
-0.000109857
0.000109448
-0.000121338
0.000107541
-0.000131763
0.000105377
-0.00014106
0.000103345
-0.00014922
0.0001018
-0.000156303
0.000101064
-0.000162435
0.000101419
-0.000167813
0.0001031
-0.000172704
0.000106286
-0.000177428
0.000111101
0.000117618
-0.000182353
-2.58472e-06
2.18732e-05
-9.027e-06
5.51793e-05
-1.82558e-05
8.00448e-05
-2.93814e-05
9.79423e-05
-4.16712e-05
0.000110169
-5.45228e-05
0.000117849
-6.74398e-05
0.000121946
-8.00108e-05
0.000123279
-9.18935e-05
0.000122547
-0.000102803
0.000120358
-0.000112509
0.000117246
-0.000120828
0.000113696
-0.000127637
0.000110154
-0.000132873
0.000107036
-0.000136548
0.000104738
-0.000138754
0.000103625
-0.000139681
0.000104026
-0.00013961
0.000106216
-0.00013892
0.000110411
0.000116766
-0.000138069
-2.52251e-06
2.43957e-05
-8.75873e-06
6.14155e-05
-1.76296e-05
8.89156e-05
-2.82437e-05
0.000108556
-3.98682e-05
0.000121793
-5.18993e-05
0.000129881
-6.38347e-05
0.000133882
-7.52503e-05
0.000134694
-8.5782e-05
0.000133079
-9.51136e-05
0.00012969
-0.00010297
0.000125103
-0.000109117
0.000119843
-0.000113367
0.000114404
-0.000115592
0.000109261
-0.000115737
0.000104883
-0.000113845
0.000101734
-0.000110076
0.000100257
-0.000104721
0.000100861
-9.82181e-05
0.000103908
0.000109691
-9.11425e-05
-2.45456e-06
2.68503e-05
-8.45722e-06
6.74182e-05
-1.69173e-05
9.73757e-05
-2.69421e-05
0.000118581
-3.78017e-05
0.000132653
-4.88958e-05
0.000140975
-5.97228e-05
0.000144709
-6.98538e-05
0.000144825
-7.89114e-05
0.000142137
-8.65552e-05
0.000137333
-9.24729e-05
0.000131021
-9.63789e-05
0.000123749
-9.80201e-05
0.000116045
-9.71908e-05
0.000108431
-9.37556e-05
0.000101448
-8.76803e-05
9.56585e-05
-7.90691e-05
9.16454e-05
-6.82014e-05
8.99935e-05
-5.55684e-05
9.12754e-05
9.60118e-05
-4.18893e-05
-2.37694e-06
2.92272e-05
-8.10718e-06
7.31484e-05
-1.60839e-05
0.000105352
-2.54117e-05
0.000127909
-3.53656e-05
0.000142607
-4.5353e-05
0.000150962
-5.488e-05
0.000154236
-6.35219e-05
0.000153467
-7.0899e-05
0.000149514
-7.6659e-05
0.000143093
-8.04647e-05
0.000134826
-8.19889e-05
0.000125273
-8.09184e-05
0.000114974
-7.69678e-05
0.000104481
-6.9906e-05
9.43863e-05
-5.95973e-05
8.53498e-05
-4.60559e-05
7.8104e-05
-2.95118e-05
7.34494e-05
-1.04868e-05
7.22504e-05
7.53851e-05
1.01399e-05
-2.28458e-06
3.15118e-05
-7.68886e-06
7.85527e-05
-1.50833e-05
0.000112747
-2.35664e-05
0.000136392
-3.24168e-05
0.000151457
-4.10518e-05
0.000159597
-4.89899e-05
0.000162174
-5.58186e-05
0.000160296
-6.11678e-05
0.000154863
-6.46887e-05
0.000146614
-6.60372e-05
0.000136175
-6.48645e-05
0.000124101
-6.08147e-05
0.000110925
-5.3534e-05
9.72001e-05
-4.26952e-05
8.35475e-05
-2.80433e-05
7.06979e-05
-9.46552e-06
5.95263e-05
1.29098e-05
5.10741e-05
3.85792e-05
4.6581e-05
4.74551e-05
6.65091e-05
-2.17204e-06
3.36838e-05
-7.1803e-06
8.3561e-05
-1.38633e-05
0.00011943
-2.13058e-05
0.000143835
-2.87851e-05
0.000158936
-3.57252e-05
0.000166537
-4.16572e-05
0.000168106
-4.6185e-05
0.000164824
-4.89571e-05
0.000157635
-4.9643e-05
0.0001473
-4.79136e-05
0.000134445
-4.34261e-05
0.000119613
-3.58144e-05
0.000103313
-2.46879e-05
8.60736e-05
-9.64709e-06
6.85067e-05
9.67786e-06
5.13729e-05
3.35504e-05
3.56537e-05
6.20021e-05
2.26224e-05
9.46287e-05
1.39544e-05
1.17923e-05
0.000130291
-2.03445e-06
3.57183e-05
-6.56014e-06
8.80867e-05
-1.23705e-05
0.00012524
-1.85244e-05
0.000149989
-2.42865e-05
0.000164698
-2.90782e-05
0.000171329
-3.24359e-05
0.000171464
-3.3976e-05
0.000166364
-3.33669e-05
0.000157026
-3.03054e-05
0.000144239
-2.44966e-05
0.000128636
-1.56346e-05
0.000110751
-3.38698e-06
9.10652e-05
1.26187e-05
7.0068e-05
3.27966e-05
4.83287e-05
5.75839e-05
2.65857e-05
8.73787e-05
5.85888e-06
0.000122411
-1.24098e-05
0.000162479
-2.61141e-05
-3.21909e-05
0.000206463
-1.86825e-06
3.75865e-05
-5.81009e-06
9.20285e-05
-1.05559e-05
0.000129986
-1.5121e-05
0.000154554
-1.87399e-05
0.000168317
-2.08139e-05
0.000173403
-2.08677e-05
0.000171518
-1.85154e-05
0.000164011
-1.34341e-05
0.000151945
-5.34431e-06
0.000136149
6.00772e-06
0.000117284
2.08666e-05
9.58925e-05
3.9486e-05
7.24458e-05
6.21496e-05
4.74044e-05
8.91919e-05
2.12863e-05
0.000121011
-5.23299e-06
0.000158046
-3.11768e-05
0.000200695
-5.50586e-05
0.000249048
-7.44675e-05
-8.53521e-05
0.00030221
-1.67164e-06
3.92582e-05
-4.91618e-06
9.52731e-05
-8.37796e-06
0.000133448
-1.10055e-05
0.000157181
-1.19795e-05
0.000169291
-1.06558e-05
0.000172079
-6.52052e-06
0.000167382
8.42446e-07
0.000156649
1.17733e-05
0.000141014
2.65504e-05
0.000121372
4.53995e-05
9.84354e-05
6.85015e-05
7.27905e-05
9.6003e-05
4.49442e-05
0.000128034
1.53735e-05
0.000164737
-1.54162e-05
0.000206305
-4.68012e-05
0.000253023
-7.78946e-05
0.000305274
-0.00010731
0.000363415
-0.000132609
-0.000148941
0.000427004
-1.4442e-06
4.07024e-05
-3.86794e-06
9.76968e-05
-5.80146e-06
0.000135381
-6.09933e-06
0.000157479
-3.85934e-06
0.000167051
1.63993e-06
0.00016658
1.09859e-05
0.000158036
2.46632e-05
0.000142971
4.30703e-05
0.000122607
6.65259e-05
9.79161e-05
9.52668e-05
6.96945e-05
0.00012944
3.86169e-05
0.000169097
5.28746e-06
0.000214188
-2.97173e-05
0.000264576
-6.58042e-05
0.000320075
-0.0001023
0.000380519
-0.000138339
0.000445878
-0.000172669
0.000516403
-0.000203133
-0.000224795
0.000592256
-1.18564e-06
4.1888e-05
-2.65497e-06
9.91662e-05
-2.79206e-06
0.000135518
-3.2739e-07
0.000155014
5.75584e-06
0.000160968
1.62913e-05
0.000156044
3.19791e-05
0.000142348
5.34159e-05
0.000121534
8.11077e-05
9.49149e-05
0.000115468
6.35557e-05
0.000156805
2.8358e-05
0.000205295
-9.87353e-06
0.000260955
-5.0373e-05
0.000323603
-9.23651e-05
0.000392822
-0.000135023
0.000467944
-0.000177422
0.000548076
-0.000218471
0.000632208
-0.0002568
0.000719552
-0.000290478
-0.000316202
0.000810959
-8.93965e-07
4.2782e-05
-1.26147e-06
9.95337e-05
6.93988e-07
0.000133563
6.39695e-06
0.000149311
1.70106e-05
0.000150354
3.35151e-05
0.00013954
5.67602e-05
0.000119103
8.74954e-05
9.07992e-05
0.000126379
5.60309e-05
0.000173974
1.59609e-05
0.000230725
-2.83928e-05
0.000296927
-7.60759e-05
0.00037268
-0.000126126
0.000457817
-0.000177502
0.000551814
-0.00022902
0.000653661
-0.00027927
0.000761712
-0.000326522
0.000873496
-0.000368583
0.000985827
-0.000402809
-0.000429712
0.00109934
-5.63237e-07
4.33452e-05
3.40125e-07
9.86303e-05
4.72164e-06
0.000129182
1.41905e-05
0.000139843
3.00855e-05
0.000134459
5.35615e-05
0.000116064
8.56453e-05
8.70194e-05
0.000127265
4.91801e-05
0.000179255
4.04056e-06
0.000242354
-4.71382e-05
0.000317186
-0.000103224
0.000404239
-0.000163129
0.000503841
-0.000225728
0.000616128
-0.000289789
0.000740986
-0.000353877
0.000877939
-0.000416223
0.00102587
-0.000474455
0.00118212
-0.000524833
0.00133932
-0.000560011
-0.000564904
0.00147452
-1.82487e-07
4.35277e-05
2.19317e-06
9.62547e-05
9.38547e-06
0.000121989
2.32145e-05
0.000126014
4.52173e-05
0.000112457
7.67413e-05
8.45399e-05
0.000118999
4.47619e-05
0.00017309
-4.91116e-06
0.000240006
-6.28751e-05
0.000320618
-0.000127751
0.000415672
-0.000198278
0.000525786
-0.000273242
0.000651475
-0.000351418
0.000793228
-0.000431542
0.000951657
-0.000512306
0.0011278
-0.000592362
0.00132366
-0.000670321
0.00154353
-0.000744696
0.00179777
-0.000814257
-0.000876029
0.0021089
2.67793e-07
4.32599e-05
4.36334e-06
9.21591e-05
1.48182e-05
0.000111534
3.36837e-05
0.000107148
6.27092e-05
8.34312e-05
0.000103436
4.38131e-05
0.000157243
-9.04547e-06
0.000225358
-7.30255e-05
0.000308841
-0.000146358
0.000408566
-0.000227476
0.000525205
-0.000314917
0.000659221
-0.000407259
0.000810902
-0.000503099
0.000980427
-0.000601067
0.00116799
-0.000699872
0.00137401
-0.000798384
0.00159944
-0.000895748
0.00184625
-0.000991505
0.00211761
-0.00108562
-0.00117057
0.00241215
8.11105e-07
4.24488e-05
6.9297e-06
8.60405e-05
2.11775e-05
9.72866e-05
4.58486e-05
8.24768e-05
8.29048e-05
4.6375e-05
0.000134061
-7.34309e-06
0.000200812
-7.57962e-05
0.000284417
-0.000156631
0.000385867
-0.000247808
0.000505838
-0.000347447
0.000644662
-0.000453741
0.000802319
-0.000564915
0.000978451
-0.000679231
0.00117242
-0.000795036
0.00138338
-0.000910829
0.00161035
-0.00102536
0.00185233
-0.00113773
0.00210828
-0.00124745
0.00237691
-0.00135425
-0.00144963
0.00265598
1.47562e-06
4.09732e-05
9.98227e-06
7.75339e-05
2.86361e-05
7.86327e-05
5.9972e-05
5.11409e-05
0.000106144
2.02701e-07
0.000168991
-7.019e-05
0.00025003
-0.000156835
0.000350412
-0.000257013
0.000470854
-0.00036825
0.000611587
-0.000488179
0.000772312
-0.000614466
0.000952205
-0.000744808
0.00114995
-0.000876979
0.00136382
-0.0010089
0.00159172
-0.00113874
0.00183134
-0.00126497
0.0020801
-0.00138649
0.00233523
-0.00150258
0.00259381
-0.00161282
-0.00170997
0.00285415
2.29037e-06
3.86828e-05
1.36107e-05
6.62136e-05
3.73584e-05
5.48849e-05
7.62876e-05
1.22118e-05
0.000132697
-5.62067e-05
0.000208458
-0.000145951
0.000304967
-0.000253344
0.000423063
-0.000375109
0.000562944
-0.00050813
0.000724102
-0.000649338
0.00090532
-0.000795685
0.00110471
-0.000944198
0.00131981
-0.00109208
0.0015477
-0.0012368
0.00178518
-0.00137621
0.00202886
-0.00150865
0.00227528
-0.00163291
0.00252095
-0.00174826
0.00276256
-0.00185443
-0.0019462
0.00299879
3.28203e-06
3.54008e-05
1.7893e-05
5.16026e-05
4.74768e-05
2.53011e-05
9.49573e-05
-3.52687e-05
0.000162691
-0.000123941
0.000252443
-0.000235702
0.000365285
-0.000366187
0.00050149
-0.000511314
0.00066044
-0.00066708
0.000840602
-0.000829501
0.00103959
-0.000994673
0.00125429
-0.0011589
0.00148107
-0.00131885
0.00171596
-0.00147169
0.00195494
-0.00161519
0.00219406
-0.00174777
0.00242964
-0.00186849
0.00265835
-0.00197697
0.00287731
-0.00207339
-0.00215465
0.00308576
4.47212e-06
3.09287e-05
2.28861e-05
3.31886e-05
5.907e-05
-1.08828e-05
0.000116033
-9.22319e-05
0.000196056
-0.000203964
0.000300598
-0.000340244
0.000430148
-0.000495738
0.000584111
-0.000665276
0.000760751
-0.00084372
0.000957263
-0.00102601
0.00116995
-0.00120735
0.00139446
-0.00138342
0.00162616
-0.00155055
0.00186039
-0.00170592
0.00209277
-0.00184757
0.0023194
-0.0019744
0.00253702
-0.0020861
0.00274304
-0.00218299
0.00293559
-0.00226595
-0.00233371
0.00311465
5.87515e-06
2.50535e-05
2.86185e-05
1.04453e-05
7.21478e-05
-5.44121e-05
0.00013943
-0.000159514
0.000232482
-0.000297016
0.000352198
-0.00045996
0.000498181
-0.00064172
0.000668649
-0.000835744
0.000860492
-0.00103556
0.00106948
-0.001235
0.00129062
-0.00142849
0.00151854
-0.00161134
0.00174796
-0.00177998
0.00197403
-0.00193199
0.0021926
-0.00206613
0.00240038
-0.00218219
0.00259505
-0.00228077
0.00277516
-0.0023631
0.00294009
-0.00243087
-0.00248429
0.00309067
7.49767e-06
1.75559e-05
3.5086e-05
-1.7143e-05
8.66407e-05
-0.000105967
0.00016491
-0.000237784
0.0002714
-0.000403506
0.000406137
-0.000594697
0.000567505
-0.000803088
0.000752257
-0.0010205
0.000955742
-0.00123905
0.00117233
-0.00145159
0.00139593
-0.00165209
0.00162057
-0.00183598
0.00184084
-0.00200025
0.00205228
-0.00214342
0.0022515
-0.00226536
0.00243631
-0.002367
0.00260559
-0.00245004
0.00275913
-0.00251665
0.00289749
-0.00256923
-0.00260911
0.00302231
9.33798e-06
8.21788e-06
4.22498e-05
-5.00549e-05
0.000102396
-0.000166113
0.000192078
-0.000327466
0.000311993
-0.000523421
0.000460961
-0.000743665
0.00063584
-0.000977967
0.000831723
-0.00121638
0.00104242
-0.00144974
0.00126109
-0.00167026
0.00148101
-0.00187201
0.0016961
-0.00205107
0.00190144
-0.00220559
0.00209346
-0.00233544
0.00226998
-0.00244187
0.00243007
-0.00252709
0.00257386
-0.00259384
0.00270228
-0.00264507
0.00281677
-0.00268373
-0.00271184
0.00291951
1.1386e-05
-3.16815e-06
5.00357e-05
-8.87046e-05
0.000119177
-0.000235254
0.000220385
-0.000428674
0.000353213
-0.000656249
0.000514941
-0.000905392
0.000700661
-0.00116369
0.00090376
-0.00141948
0.00111669
-0.00166267
0.00133184
-0.00188542
0.00154236
-0.00208253
0.00174271
-0.00225142
0.00192894
-0.00239183
0.00209877
-0.00250527
0.00225136
-0.00259446
0.00238706
-0.00266279
0.00250708
-0.00271385
0.00261314
-0.00275114
0.00270724
-0.00277782
-0.00279635
0.00279175
1.36232e-05
-1.67914e-05
5.83342e-05
-0.000133416
0.000136667
-0.000313587
0.000249148
-0.000541155
0.000393836
-0.000800937
0.000566183
-0.00107774
0.000759404
-0.00135691
0.000965314
-0.00162539
0.00117539
-0.00187275
0.00138182
-0.00209184
0.00157822
-0.00227893
0.00176009
-0.00243329
0.00192485
-0.00255659
0.00207161
-0.00265203
0.00220085
-0.0027237
0.00231398
-0.00277592
0.00241296
-0.00281283
0.00249997
-0.00283815
0.00257722
-0.00285507
-0.00286613
0.002647
1.60221e-05
-3.28134e-05
6.70006e-05
-0.000184394
0.000154473
-0.000401059
0.000277568
-0.00066425
0.000432521
-0.00095589
0.000612762
-0.00125798
0.000809684
-0.00155383
0.00101386
-0.00182956
0.00121633
-0.00207522
0.00140967
-0.00228518
0.00158853
-0.00245779
0.00174981
-0.00259457
0.00189239
-0.00269917
0.00201675
-0.0027764
0.00212445
-0.0028314
0.00221762
-0.00286909
0.00229866
-0.00289386
0.00236988
-0.00290938
0.00243344
-0.00291863
-0.00292406
0.00249137
1.8546e-05
-5.13595e-05
7.58578e-05
-0.000241706
0.000172141
-0.000497343
0.000304776
-0.000796885
0.000467902
-0.00111902
0.000652877
-0.00144296
0.000849507
-0.00175046
0.00104762
-0.00202767
0.00123843
-0.00226603
0.00141544
-0.00246219
0.00157474
-0.00261708
0.00171475
-0.00273458
0.00183579
-0.00282021
0.00193945
-0.00288006
0.00202804
-0.00291999
0.00210412
-0.00294517
0.00217019
-0.00295993
0.00222849
-0.00296768
0.00228093
-0.00297108
-0.00297235
0.00232922
2.11493e-05
-7.25088e-05
8.46995e-05
-0.000305256
0.000189174
-0.000601817
0.000329874
-0.000937586
0.000498678
-0.00128782
0.000684985
-0.00162926
0.000877426
-0.0019429
0.00106566
-0.00221591
0.00124168
-0.00244205
0.00140034
-0.00262086
0.00153933
-0.00275607
0.00165858
-0.00285382
0.00175959
-0.00292123
0.00184479
-0.00296525
0.00191689
-0.00299209
0.00197858
-0.00300687
0.00203226
-0.00301361
0.00207994
-0.00301535
0.00212324
-0.00301438
-0.0030126
0.00216349
2.37778e-05
-9.62865e-05
9.3297e-05
-0.000374775
0.000205049
-0.000713569
0.000351993
-0.00108453
0.000523709
-0.00145954
0.000707924
-0.00181348
0.00089263
-0.00212761
0.00106793
-0.0023912
0.00122704
-0.00260115
0.00136644
-0.00276027
0.0014854
-0.00287503
0.00158517
-0.00295359
0.00166816
-0.00300421
0.00173725
-0.00303434
0.00179533
-0.00305017
0.00184498
-0.00305652
0.00188836
-0.00305699
0.00192718
-0.00305417
0.00196276
-0.00304996
-0.00304594
0.0019961
2.63702e-05
-0.000122657
0.000101409
-0.000449814
0.000219253
-0.000831412
0.000370346
-0.00123562
0.000542094
-0.00163128
0.00072098
-0.00199236
0.000894949
-0.00230158
0.00105507
-0.00255133
0.00119613
-0.00274221
0.00131629
-0.00288042
0.00141624
-0.00297498
0.00149825
-0.00303561
0.00156533
-0.00307129
0.00162057
-0.00308958
0.00166677
-0.00309637
0.00170629
-0.00309604
0.00174097
-0.00309167
0.00177221
-0.00308542
0.00180106
-0.0030788
-0.00307312
0.00182824
2.88605e-05
-0.000151517
0.000108792
-0.000529745
0.000231308
-0.000953929
0.000384283
-0.0013886
0.000553222
-0.00180022
0.000723898
-0.00216304
0.000884781
-0.00246246
0.00102833
-0.00269487
0.00115103
-0.00286491
0.00125262
-0.00298201
0.00133499
-0.00305736
0.00140115
-0.00310176
0.00145436
-0.00312451
0.00149772
-0.00313293
0.0015338
-0.00313245
0.00156464
-0.00312688
0.00159179
-0.00311882
0.00161636
-0.00310999
0.00163914
-0.00310158
-0.00309463
0.00166065
3.11802e-05
-0.000182697
0.000115212
-0.000613777
0.000240799
-0.00107951
0.000393324
-0.00154112
0.000556798
-0.0019637
0.000716853
-0.00232309
0.000862983
-0.00260859
0.000989286
-0.00282118
0.00109395
-0.00296958
0.0011781
-0.00306617
0.00124453
-0.00312379
0.00129667
-0.00315389
0.00133784
-0.00316569
0.00137095
-0.00316604
0.00139828
-0.00315978
0.00142155
-0.00315016
0.001442
-0.00313927
0.0014605
-0.00312849
0.00147764
-0.00311872
-0.00311079
0.0014938
3.32617e-05
0.00012046
0.000247396
0.000397183
0.000552829
0.000700378
0.000830726
0.00093972
0.00102713
0.00109519
0.00114732
0.00118711
0.00121778
0.00124195
0.00126157
0.00127805
0.00129237
0.00130519
0.00131697
0.00132795
3.32672e-05
0.000182716
0.000120479
0.000613861
0.000247434
0.00107968
0.000397239
0.00154136
0.000552899
0.001964
0.000700458
0.00232344
0.00083081
0.00260896
0.000939803
0.00282156
0.00102721
0.00296996
0.00109527
0.00306654
0.00114739
0.00312415
0.00118717
0.00315425
0.00121784
0.00316603
0.001242
0.00316638
0.00126161
0.00316011
0.00127809
0.00315048
0.0012924
0.00313959
0.00130523
0.00312881
0.001317
0.00311903
0.00311109
0.00132797
3.11855e-05
0.000151531
0.000115231
0.000529815
0.000240837
0.000954072
0.000393382
0.00138882
0.000556874
0.00180051
0.000716941
0.00216337
0.000863078
0.00246283
0.000989382
0.00269525
0.00109405
0.0028653
0.00117819
0.00298239
0.00124462
0.00305773
0.00129674
0.00310212
0.00133791
0.00312486
0.00137101
0.00313328
0.00139834
0.00313279
0.0014216
0.00312721
0.00144205
0.00311914
0.00146054
0.00311031
0.00147768
0.00310189
0.00309495
0.00149383
2.88655e-05
0.000122665
0.00010881
0.000449871
0.000231346
0.000831536
0.000384343
0.00123582
0.000553302
0.00163155
0.000723994
0.00199268
0.000884887
0.00230193
0.00102844
0.0025517
0.00115114
0.0027426
0.00125272
0.0028808
0.00133509
0.00297536
0.00140124
0.00303598
0.00145445
0.00307165
0.0014978
0.00308993
0.00153387
0.00309671
0.00156471
0.00309637
0.00159186
0.003092
0.00161642
0.00308575
0.00163919
0.00307912
0.00307344
0.0016607
2.63749e-05
9.62903e-05
0.000101427
0.000374819
0.00021929
0.000713672
0.000370406
0.0010847
0.000542177
0.00145978
0.000721083
0.00181377
0.000895065
0.00212795
0.0010552
0.00239157
0.00119626
0.00260154
0.00131641
0.00276065
0.00141635
0.00287541
0.00149837
0.00295397
0.00156544
0.00300458
0.00162067
0.0030347
0.00166686
0.00305052
0.00170637
0.00305686
0.00174105
0.00305733
0.00177229
0.00305451
0.00180112
0.00305028
0.00304627
0.0018283
2.37821e-05
7.25082e-05
9.33139e-05
0.000305287
0.000205085
0.000601901
0.000352053
0.000937735
0.000523795
0.00128804
0.000708033
0.00162954
0.000892757
0.00194323
0.00106806
0.00221626
0.00122718
0.00244242
0.00136658
0.00262125
0.00148554
0.00275645
0.0015853
0.0028542
0.00166828
0.0029216
0.00173736
0.00296562
0.00179544
0.00299245
0.00184508
0.00300722
0.00188846
0.00301395
0.00192727
0.00301569
0.00196284
0.00301472
0.00301293
0.00199617
2.11532e-05
5.13551e-05
8.47151e-05
0.000241725
0.000189208
0.000497408
0.000329934
0.00079701
0.000498765
0.0011192
0.000685097
0.0014432
0.000877561
0.00175076
0.00106581
0.00202801
0.00124184
0.0022664
0.00140051
0.00246258
0.00153949
0.00261747
0.00165873
0.00273496
0.00175974
0.00282059
0.00184493
0.00288043
0.00191702
0.00292035
0.00197871
0.00294553
0.00203238
0.00296028
0.00208005
0.00296802
0.00212334
0.00297142
0.00297269
0.00216359
1.85494e-05
3.28057e-05
7.5872e-05
0.000184403
0.000172174
0.000401106
0.000304833
0.00066435
0.000467987
0.00095605
0.000652991
0.0012582
0.000849648
0.00155411
0.00104778
0.00182988
0.0012386
0.00207557
0.00141563
0.00228555
0.00157493
0.00245817
0.00171493
0.00259496
0.00183597
0.00269956
0.00193962
0.00277678
0.00202821
0.00283177
0.00210428
0.00286946
0.00217034
0.00289422
0.00222862
0.00290974
0.00228106
0.00291899
0.00292441
0.00232934
1.60249e-05
1.67807e-05
6.70131e-05
0.000133414
0.000154502
0.000313617
0.000277621
0.000541231
0.000432603
0.000801069
0.000612875
0.00107793
0.000809828
0.00135715
0.00101403
0.00162568
0.00121653
0.00187308
0.00140988
0.0020922
0.00158874
0.0022793
0.00175002
0.00243368
0.0018926
0.00255698
0.00201696
0.00265242
0.00212464
0.00272408
0.00221781
0.00277629
0.00229883
0.0028132
0.00237005
0.00283852
0.0024336
0.00285543
0.00286649
0.00249153
1.36254e-05
3.15532e-06
5.83446e-05
8.86953e-05
0.000136692
0.000235269
0.000249196
0.000428728
0.000393912
0.000656352
0.000566292
0.000905549
0.000759547
0.0011639
0.000965489
0.00141974
0.0011756
0.00166297
0.00138204
0.00188575
0.00157845
0.00208289
0.00176034
0.0022518
0.00192509
0.00239222
0.00207185
0.00250566
0.00220109
0.00259485
0.00231421
0.00266317
0.00241317
0.00271423
0.00250018
0.00275151
0.00257742
0.00277819
0.00279672
0.00264719
1.13875e-05
-8.23221e-06
5.00439e-05
5.0039e-05
0.000119199
0.000166115
0.000220427
0.000327499
0.000353283
0.000523496
0.000515044
0.000743789
0.0007008
0.000978142
0.000903935
0.0012166
0.0011169
0.00145001
0.00133208
0.00167057
0.00154262
0.00187235
0.00174298
0.00205144
0.00192922
0.00220597
0.00209905
0.00233583
0.00225164
0.00244226
0.00238733
0.00252748
0.00250734
0.00259422
0.00261339
0.00264546
0.00270748
0.00268411
0.00271222
0.00279198
9.33867e-06
-1.75709e-05
4.22554e-05
1.71223e-05
0.000102413
0.000105957
0.000192113
0.000237799
0.000312054
0.000403555
0.000461055
0.000594788
0.000635972
0.000803225
0.000831895
0.00102068
0.00104263
0.00123928
0.00126134
0.00145186
0.00148128
0.0016524
0.0016964
0.00183632
0.00190176
0.00200061
0.00209379
0.0021438
0.0022703
0.00226575
0.00243039
0.00236739
0.00257418
0.00245044
0.00270259
0.00251704
0.00281707
0.00256963
0.0026095
0.00291979
7.49748e-06
-2.50684e-05
3.50889e-05
-1.04692e-05
8.66525e-05
5.43936e-05
0.000164938
0.000159513
0.000271453
0.000297041
0.000406221
0.000460019
0.000567627
0.00064182
0.00075242
0.000835887
0.000955949
0.00103575
0.00117258
0.00123523
0.00139622
0.00142876
0.00162089
0.00161165
0.00184119
0.00178031
0.00205264
0.00193235
0.00225188
0.00206651
0.00243669
0.00218258
0.00260596
0.00228117
0.0027595
0.0023635
0.00289785
0.00243128
0.0024847
0.00302266
5.8741e-06
-3.09425e-05
2.86189e-05
-3.3214e-05
7.2155e-05
1.08575e-05
0.000139451
9.22163e-05
0.000232525
0.000203967
0.000352272
0.000340273
0.000498292
0.0004958
0.000668802
0.000665376
0.000860692
0.000843861
0.00106973
0.0010262
0.00129091
0.00120758
0.00151888
0.00138368
0.00174834
0.00155085
0.00197443
0.00170625
0.00219302
0.00184792
0.00240082
0.00197478
0.00259549
0.0020865
0.0027756
0.00218339
0.00294052
0.00226636
0.00233412
0.0030911
4.47035e-06
-3.54128e-05
2.28845e-05
-5.16282e-05
5.90738e-05
-2.53318e-05
0.000116049
3.52408e-05
0.000196093
0.000123924
0.000300662
0.000235703
0.000430249
0.000366213
0.000584254
0.000511372
0.000760942
0.000667173
0.000957505
0.000829634
0.00117024
0.000994847
0.00139481
0.00115912
0.00162655
0.0013191
0.00186082
0.00147198
0.00209323
0.00161551
0.00231989
0.00174812
0.00253752
0.00186887
0.00274354
0.00197736
0.0029361
0.0020738
0.00215506
0.00311516
3.27984e-06
-3.86927e-05
1.78905e-05
-6.62388e-05
4.74791e-05
-5.49204e-05
9.49711e-05
-1.22512e-05
0.000162724
5.61702e-05
0.000252503
0.000145925
0.00036538
0.000253336
0.000501627
0.000375125
0.000660625
0.000508176
0.00084084
0.000649418
0.00103988
0.000795804
0.00125464
0.000944358
0.00148147
0.00109228
0.00171641
0.00123704
0.00195543
0.0013765
0.00219459
0.00150897
0.0024302
0.00163326
0.00265892
0.00174864
0.0028779
0.00185483
0.00194661
0.00308635
2.28825e-06
-4.09809e-05
1.36088e-05
-7.75593e-05
3.73623e-05
-7.86738e-05
7.63039e-05
-5.11928e-05
0.000132733
-2.58901e-07
0.000208521
7.01367e-05
0.000305064
0.000156792
0.000423202
0.000256987
0.00056313
0.000368248
0.000724341
0.000488207
0.000905616
0.000614529
0.00110506
0.00074491
0.00132022
0.000877121
0.00154817
0.00100909
0.0017857
0.00113896
0.00202943
0.00126524
0.00227588
0.0013868
0.00252159
0.00150293
0.00276322
0.0016132
0.00171037
0.00299946
1.47422e-06
-4.24551e-05
9.98313e-06
-8.60682e-05
2.86454e-05
-9.73361e-05
5.99967e-05
-8.25441e-05
0.000106191
-4.64536e-05
0.000169068
7.26056e-06
0.000250142
7.57174e-05
0.000350566
0.000156563
0.000471056
0.000247758
0.000611841
0.000347422
0.000772622
0.000453747
0.000952575
0.000564956
0.00115038
0.000679313
0.00136431
0.00079516
0.00159227
0.000910999
0.00183194
0.00102558
0.00208075
0.00113799
0.00233592
0.00124776
0.00259452
0.0013546
0.00145001
0.00285489
8.11199e-07
-4.32663e-05
6.93562e-06
-9.21927e-05
2.11967e-05
-0.000111597
4.58885e-05
-0.000107236
8.29723e-05
-8.35374e-05
0.000134162
-4.39294e-05
0.000200952
8.92722e-06
0.000284603
7.29134e-05
0.000386102
0.000146259
0.000506126
0.000227398
0.000645008
0.000314866
0.000802724
0.00040724
0.000978919
0.000503118
0.00117295
0.00060113
0.00138397
0.000699981
0.001611
0.000798544
0.00185303
0.00089596
0.00210902
0.00099177
0.00237769
0.00108593
0.00117092
0.00265678
2.70139e-07
-4.35365e-05
4.37664e-06
-9.62992e-05
1.48516e-05
-0.000122072
3.37455e-05
-0.00012613
6.28065e-05
-0.000112598
0.000103575
-8.46976e-05
0.000157428
-4.49262e-05
0.000225593
4.74888e-06
0.000309129
6.27228e-05
0.000408911
0.000127616
0.000525609
0.000198167
0.000659688
0.000273162
0.000811432
0.000351373
0.000981021
0.000431541
0.00116865
0.000512353
0.00137473
0.000592464
0.00160021
0.000670482
0.00184706
0.000744919
0.00211845
0.000814542
0.000876347
0.00241302
-1.77213e-07
-4.33593e-05
2.21588e-06
-9.86923e-05
9.43688e-06
-0.000129293
2.3304e-05
-0.000139997
4.53524e-05
-0.000134647
7.69277e-05
-0.000116273
0.000119241
-8.72392e-05
0.000173391
-4.94011e-05
0.000240368
-4.25411e-06
0.000321043
4.69398e-05
0.000416163
0.000103048
0.000526343
0.000162981
0.0006521
0.000225616
0.000793922
0.000289719
0.000952417
0.000353857
0.00112862
0.00041626
0.00132454
0.000474558
0.00154446
0.000525008
0.00179874
0.000560257
0.000565185
0.0021099
-5.54542e-07
-4.28047e-05
3.73652e-07
-9.96204e-05
4.79361e-06
-0.000133713
1.43117e-05
-0.000149515
3.02639e-05
-0.000150599
5.38029e-05
-0.000139812
8.59538e-05
-0.00011939
0.000127643
-9.109e-05
0.000179705
-5.63161e-05
0.000242877
-1.62324e-05
0.000317783
2.81422e-05
0.000404911
7.58529e-05
0.00050459
0.000125937
0.000616955
0.000177354
0.000741892
0.00022892
0.000878926
0.000279227
0.00102694
0.000326542
0.00118328
0.00036867
0.00134059
0.000402951
0.000429848
0.00147592
-8.81606e-07
-4.19231e-05
-1.21649e-06
-9.92856e-05
7.87584e-07
-0.000135717
6.55124e-06
-0.000155279
1.72344e-05
-0.000161282
3.38143e-05
-0.000156392
5.71389e-05
-0.000142715
8.79561e-05
-0.000121907
0.000126924
-9.52837e-05
0.000174603
-6.3912e-05
0.00023144
-2.86944e-05
0.000297729
9.56347e-06
0.000373571
5.00955e-05
0.000458799
9.21263e-05
0.00055289
0.000134829
0.000654837
0.000177279
0.000762995
0.000218384
0.000874899