/*--------------------------------*- C++ -*----------------------------------*\
  =========                 |
  \\      /  F ield         | OpenFOAM: The Open Source CFD Toolbox
   \\    /   O peration     | Website:  https://openfoam.org
    \\  /    A nd           | Version:  6.0
     \\/     M anipulation  |
\*---------------------------------------------------------------------------*/
FoamFile
{
    version     2.0;
    format      ascii;
    class       volVectorField;
    location    "22";
    object      U;
}
// * * * * * * * * * * * * * * * * * * * * * * * * * * * * * * * * * * * * * //

dimensions      [0 1 -1 0 0 0 0];

internalField   nonuniform List<vector> 
4000
(
(-0.000493526 0.000496285 -3.5112e-21)
(-0.0026947 0.00123778 1.87682e-20)
(-0.00675736 0.00176031 -2.28274e-20)
(-0.0117407 0.00211437 1.73827e-20)
(-0.0171562 0.00233818 8.46489e-21)
(-0.0227287 0.00246276 -2.54193e-20)
(-0.028262 0.00251467 -2.24679e-21)
(-0.0336296 0.0025164 -7.97461e-22)
(-0.0387614 0.00248689 -1.31948e-20)
(-0.0436287 0.00244209 -7.14869e-21)
(-0.0482325 0.00239535 5.33115e-21)
(-0.0525952 0.00235771 2.02684e-20)
(-0.056754 0.00233808 -1.5178e-21)
(-0.0607556 0.00234344 2.17156e-21)
(-0.064652 0.00237885 -2.04152e-20)
(-0.068502 0.00244751 1.2579e-20)
(-0.0723642 0.0025509 -1.80233e-20)
(-0.0762477 0.00268977 2.72741e-20)
(-0.0800992 0.00286487 -3.0546e-23)
(-0.0842716 0.00306879 5.8905e-21)
(-0.000578237 0.00162331 1.16599e-20)
(-0.00290049 0.00403718 -5.95868e-20)
(-0.00703893 0.00573456 -4.11562e-20)
(-0.0120623 0.00688079 -2.79498e-20)
(-0.0174881 0.00760175 -3.5956e-20)
(-0.0230459 0.00799959 7.91316e-21)
(-0.0285429 0.0081611 -4.1507e-20)
(-0.0338554 0.00815931 -9.3229e-21)
(-0.0389153 0.00805526 2.94587e-21)
(-0.0436951 0.00789996 3.10239e-20)
(-0.0481971 0.00773584 -3.38419e-20)
(-0.0524445 0.00759778 4.70751e-20)
(-0.0564756 0.00751393 -3.52521e-20)
(-0.0603379 0.0075062 -4.18043e-20)
(-0.0640849 0.00759062 -5.76094e-20)
(-0.0677766 0.00777737 3.67914e-20)
(-0.0714737 0.00807125 -1.18989e-20)
(-0.0751867 0.00847467 -4.33281e-20)
(-0.0788621 0.00899003 4.09677e-20)
(-0.0828556 0.00959478 -3.04383e-20)
(-0.000749296 0.00273491 1.13977e-19)
(-0.00331564 0.00679773 5.90279e-20)
(-0.00760647 0.00965165 6.63836e-20)
(-0.0127099 0.0115748 5.52371e-21)
(-0.0181563 0.0127794 3.66905e-20)
(-0.0236843 0.0134377 4.57945e-20)
(-0.0291088 0.0136958 -8.3218e-20)
(-0.0343114 0.0136767 -4.40696e-20)
(-0.039228 0.0134828 -5.73936e-20)
(-0.043834 0.0132 6.12694e-20)
(-0.0481338 0.0128997 -4.67968e-20)
(-0.0521525 0.0126409 -6.02082e-20)
(-0.0559301 0.0124715 -2.19221e-20)
(-0.0595161 0.0124292 2.08271e-20)
(-0.0629664 0.0125419 -5.79004e-21)
(-0.0663441 0.0128277 8.3503e-21)
(-0.0697137 0.0132956 9.66376e-20)
(-0.073089 0.0139507 -1.35708e-20)
(-0.0764159 0.0147979 -9.82369e-20)
(-0.0800566 0.0157992 1.29499e-19)
(-0.001005 0.00382121 3.96544e-20)
(-0.0039364 0.00949423 -5.60167e-20)
(-0.00845538 0.0134744 -1.40519e-20)
(-0.0136788 0.0161493 2.62688e-20)
(-0.0191562 0.0178155 7.45927e-20)
(-0.0246406 0.0187137 1.63316e-19)
(-0.0299579 0.0190479 1.59582e-19)
(-0.0349981 0.0189893 1.32569e-20)
(-0.0397031 0.0186811 9.78593e-20)
(-0.0440527 0.0182433 1.49786e-19)
(-0.0480542 0.0177762 -1.19687e-19)
(-0.0517353 0.0173633 1.7713e-19)
(-0.0551385 0.017073 -4.01054e-20)
(-0.058316 0.01696 1.01186e-20)
(-0.0613274 0.0170658 4.18849e-20)
(-0.0642403 0.0174182 5.56586e-20)
(-0.0671249 0.0180323 -8.75927e-20)
(-0.0700003 0.0189172 -7.31035e-20)
(-0.0728124 0.0200821 -1.29371e-19)
(-0.075934 0.0214733 1.88316e-19)
(-0.00134291 0.00487343 -2.0718e-20)
(-0.00475708 0.0121036 -2.12077e-19)
(-0.00957827 0.0171683 -6.273e-20)
(-0.0149607 0.0205607 -1.52866e-19)
(-0.0204797 0.0226589 5.77821e-20)
(-0.0259072 0.0237696 -9.11325e-20)
(-0.0310844 0.0241525 3.1339e-20)
(-0.0359125 0.0240254 -1.93017e-19)
(-0.0403416 0.0235706 1.01825e-19)
(-0.0443569 0.0229412 -1.2143e-19)
(-0.0479697 0.0222659 -1.07991e-19)
(-0.0512107 0.021653 -1.20913e-19)
(-0.0541252 0.0211926 1.09755e-19)
(-0.0567691 0.0209581 -9.85403e-20)
(-0.0592061 0.0210068 1.37216e-19)
(-0.0615099 0.0213789 3.96553e-20)
(-0.0637587 0.0220983 9.81564e-20)
(-0.0659791 0.023181 4.30762e-20)
(-0.0681186 0.0246431 -1.70561e-19)
(-0.0705656 0.0264152 2.77592e-19)
(-0.00175998 0.00588408 9.13276e-20)
(-0.00577006 0.0146053 7.02722e-21)
(-0.0109645 0.0207022 3.76232e-20)
(-0.0165429 0.0247694 1.31281e-19)
(-0.0221126 0.0272633 -2.00991e-20)
(-0.02747 0.0285537 2.13185e-19)
(-0.0324751 0.0289533 9.4619e-20)
(-0.0370439 0.0287238 7.95419e-21)
(-0.0411363 0.0280844 2.43303e-19)
(-0.0447445 0.0272197 7.97213e-20)
(-0.0478845 0.026286 3.78183e-20)
(-0.0505901 0.0254163 1.20028e-19)
(-0.0529098 0.0247235 1.10018e-19)
(-0.0549029 0.0243016 2.00846e-19)
(-0.0566382 0.0242268 -1.79519e-19)
(-0.0581967 0.0245559 2.53748e-19)
(-0.0596666 0.025325 3.32336e-21)
(-0.0610849 0.0265614 -3.24317e-19)
(-0.0624031 0.0282928 4.20413e-19)
(-0.0640324 0.0304345 1.74201e-19)
(-0.00225263 0.00684686 -5.38212e-20)
(-0.00696562 0.0169812 -9.76957e-20)
(-0.0125993 0.0240484 -2.03305e-19)
(-0.0184064 0.0287402 -6.02589e-21)
(-0.0240329 0.0315884 3.46908e-20)
(-0.0293044 0.0330223 -2.59609e-19)
(-0.0341049 0.0334041 -1.926e-19)
(-0.0383675 0.0330361 -2.75514e-20)
(-0.0420648 0.0321715 -2.43619e-19)
(-0.0451972 0.0310239 -1.68673e-19)
(-0.0477858 0.0297757 -4.91574e-20)
(-0.0498678 0.028584 -1.58283e-19)
(-0.0514942 0.0275851 -2.58072e-21)
(-0.0527279 0.0268959 -2.10195e-19)
(-0.0536428 0.0266152 8.84165e-20)
(-0.0543278 0.0268205 -1.00875e-19)
(-0.0548833 0.0275666 7.72696e-20)
(-0.0553599 0.0288982 -9.83395e-20)
(-0.0557172 0.0308614 -2.80996e-19)
(-0.0563987 0.0333584 -8.53884e-20)
(-0.00281679 0.00775641 -1.9808e-20)
(-0.00833166 0.019215 -2.15114e-20)
(-0.014463 0.0271817 1.70455e-19)
(-0.0205246 0.0324421 -2.77381e-19)
(-0.0262073 0.0355994 4.0693e-20)
(-0.031372 0.0371393 -1.60228e-19)
(-0.0359307 0.0374691 7.57194e-20)
(-0.0398377 0.0369281 3.40334e-19)
(-0.0430806 0.0357994 -2.18325e-20)
(-0.0456693 0.0343223 -2.5389e-19)
(-0.0476307 0.0327024 4.61324e-20)
(-0.0490054 0.0311197 8.94535e-21)
(-0.0498464 0.0297335 -5.21255e-20)
(-0.0502191 0.0286854 5.27494e-21)
(-0.0502019 0.0281004 4.57943e-19)
(-0.0498923 0.0280828 -6.52073e-20)
(-0.0494044 0.0287136 -1.27196e-19)
(-0.0488055 0.030064 -2.28197e-19)
(-0.048069 0.0322087 2.32791e-19)
(-0.0476841 0.0350417 1.00381e-19)
(-0.00344775 0.00860787 1.0002e-19)
(-0.00985317 0.0212917 -1.30859e-19)
(-0.01653 0.0300791 1.8501e-19)
(-0.0228609 0.0358467 1.86245e-19)
(-0.0285887 0.0392663 1.71688e-19)
(-0.0336153 0.0408757 3.4815e-19)
(-0.0378858 0.0411234 2.25136e-19)
(-0.0413796 0.0403807 -4.83783e-19)
(-0.0441019 0.038956 2.47418e-19)
(-0.0460743 0.0371099 1.9415e-19)
(-0.0473302 0.0350673 -2.75775e-21)
(-0.0479135 0.0330277 2.17333e-19)
(-0.0478784 0.031172 1.69435e-19)
(-0.0472917 0.0296672 -9.21672e-20)
(-0.0462348 0.0286673 3.11433e-19)
(-0.0448132 0.0283101 -3.86058e-19)
(-0.0431559 0.0287118 1.54521e-19)
(-0.04135 0.0299828 1.98704e-19)
(-0.0393895 0.0322418 -4.62948e-20)
(-0.0378276 0.0353836 3.99159e-19)
(-0.00413997 0.00939632 2.00988e-19)
(-0.0115116 0.0231962 1.04227e-20)
(-0.0187669 0.0327179 -7.2139e-20)
(-0.0253665 0.0389274 -7.62006e-20)
(-0.0311123 0.042562 -3.52879e-19)
(-0.0359534 0.0442081 4.99697e-20)
(-0.0398731 0.0443509 1.41581e-19)
(-0.04288 0.0433885 -6.80989e-20)
(-0.0450004 0.0416495 5.61747e-20)
(-0.04627 0.03941 -1.48942e-20)
(-0.0467304 0.0369089 -7.33775e-20)
(-0.0464287 0.0343603 6.96697e-20)
(-0.0454201 0.031963 -3.0289e-19)
(-0.0437707 0.0299073 2.90372e-19)
(-0.0415637 0.0283782 -2.51508e-19)
(-0.0389106 0.0275519 7.76895e-20)
(-0.0359551 0.0275904 1.76781e-19)
(-0.032807 0.0286597 -3.6774e-20)
(-0.0294878 0.0309439 -1.2231e-19)
(-0.0266405 0.0343548 -8.31661e-20)
(-0.00488678 0.0101162 -2.50362e-19)
(-0.013284 0.0249123 -1.64755e-20)
(-0.0211322 0.0350745 5.27262e-20)
(-0.027979 0.0416569 1.35567e-19)
(-0.0336934 0.0454599 -1.9139e-19)
(-0.0382776 0.0471155 -1.67016e-19)
(-0.0417585 0.0471409 3.89834e-19)
(-0.0441786 0.0459565 -2.15411e-19)
(-0.0455892 0.0439052 -1.38957e-19)
(-0.046043 0.0412723 -1.99388e-19)
(-0.045592 0.0383042 1.31996e-19)
(-0.0442882 0.0352224 -3.56603e-21)
(-0.0421876 0.0322371 -2.46498e-19)
(-0.039355 0.0295571 -4.0324e-19)
(-0.0358725 0.0273959 3.0721e-19)
(-0.0318558 0.0259708 -2.48914e-19)
(-0.0274619 0.0254993 3.52903e-19)
(-0.0228236 0.0262213 -9.88637e-20)
(-0.0179974 0.0284163 2.0777e-19)
(-0.0137491 0.0320388 -7.05496e-19)
(-0.00568004 0.0107611 -5.07051e-19)
(-0.0151426 0.0264218 3.32479e-19)
(-0.0235742 0.0371228 4.52176e-20)
(-0.0306205 0.0440054 8.74667e-21)
(-0.0362246 0.0479314 -2.05013e-19)
(-0.040448 0.0495756 3.01481e-19)
(-0.0433665 0.049484 3.29087e-20)
(-0.0450611 0.0480945 -6.18217e-20)
(-0.0456122 0.0457593 -1.9844e-19)
(-0.0450936 0.0427669 2.14504e-19)
(-0.0435709 0.0393633 5.43853e-19)
(-0.0411042 0.0357694 -1.20145e-19)
(-0.0377517 0.0321973 2.71507e-19)
(-0.0335773 0.0288646 -3.20719e-19)
(-0.028661 0.0260059 -3.07536e-19)
(-0.0231197 0.0238766 1.84901e-19)
(-0.0171216 0.022754 3.05489e-19)
(-0.0108208 0.0229704 -9.89921e-19)
(-0.00431208 0.0249379 1.16239e-19)
(0.0014731 0.0286919 1.58091e-19)
(-0.00650985 0.0113233 3.75471e-19)
(-0.0170537 0.0277042 1.23514e-19)
(-0.0260312 0.0388335 6.4343e-19)
(-0.0331967 0.0459388 3.31124e-20)
(-0.0385747 0.0499427 -7.15608e-20)
(-0.0422915 0.0515607 -3.40774e-19)
(-0.0444764 0.0513654 2.89795e-19)
(-0.0452536 0.0498091 5.19941e-19)
(-0.0447366 0.0472491 3.46415e-19)
(-0.0430248 0.0439722 2.50106e-19)
(-0.0402023 0.0402175 2.15624e-19)
(-0.0363414 0.036196 -3.87191e-19)
(-0.0315076 0.0321105 -1.21286e-19)
(-0.0257668 0.0281742 -8.93396e-20)
(-0.019198 0.0246281 9.57318e-19)
(-0.0119187 0.0217532 -3.26688e-21)
(-0.0041056 0.0198812 -2.38594e-19)
(0.00407014 0.0194478 -7.52204e-20)
(0.0124793 0.0210386 6.84683e-19)
(0.0199757 0.0248214 8.9808e-20)
(-0.00736449 0.0117944 -1.85125e-20)
(-0.0189779 0.0287367 -3.55206e-19)
(-0.0284307 0.0401735 -5.28448e-19)
(-0.0355965 0.047418 -1.4705e-19)
(-0.0405879 0.0514529 8.11986e-20)
(-0.0436007 0.0530343 1.74839e-20)
(-0.0448218 0.0527599 4.63715e-19)
(-0.0444214 0.0510951 -5.75114e-19)
(-0.0425505 0.0484006 -2.18763e-19)
(-0.0393381 0.0449589 -4.40887e-19)
(-0.0348926 0.0409976 -3.7553e-19)
(-0.0293054 0.0367114 -3.32536e-19)
(-0.0226565 0.0322829 8.3146e-20)
(-0.0150217 0.027905 -1.0797e-19)
(-0.00648561 0.0238049 4.6264e-19)
(0.00283056 0.0202652 -2.53551e-19)
(0.012741 0.0176498 -7.94936e-19)
(0.0230631 0.0164906 -1.60383e-19)
(0.0336499 0.0175809 3.92355e-19)
(0.0430929 0.0212812 -3.4193e-19)
(-0.0082304 0.0121654 -5.99071e-20)
(-0.0208698 0.0294952 4.34448e-19)
(-0.0306891 0.0411071 -5.5409e-19)
(-0.0376918 0.0483991 1.28071e-19)
(-0.0420842 0.0524142 -2.63814e-19)
(-0.0441351 0.0539494 5.87643e-19)
(-0.0440911 0.0536277 -4.20001e-19)
(-0.042171 0.0519283 4.80526e-19)
(-0.0385653 0.0492163 -4.5562e-19)
(-0.0334368 0.0457706 1.94411e-19)
(-0.0269235 0.0418078 -9.43453e-20)
(-0.0191444 0.0375039 -2.36903e-19)
(-0.0102049 0.0330149 -2.92742e-19)
(-0.000203891 0.0285008 2.91709e-19)
(0.0107548 0.0241527 -2.4432e-19)
(0.0225336 0.0202219 -5.34272e-19)
(0.0349288 0.0170617 5.56229e-19)
(0.0477487 0.0152621 -7.09676e-19)
(0.0608623 0.0158314 3.1919e-19)
(0.0725735 0.0193727 8.18211e-21)
(-0.00909248 0.0124278 -5.43178e-19)
(-0.0226782 0.0299555 -5.86503e-19)
(-0.0327122 0.0415976 6.75863e-20)
(-0.0393374 0.0488359 -5.65625e-19)
(-0.042859 0.0527739 -5.03481e-20)
(-0.0436209 0.0542507 -4.16078e-19)
(-0.0419301 0.0539158 -9.54553e-20)
(-0.0380541 0.0522642 -2.78982e-19)
(-0.0322239 0.0496691 2.47567e-21)
(-0.0246378 0.0464108 -1.22074e-19)
(-0.0154686 0.0427002 8.67173e-21)
(-0.00487089 0.0386998 -3.51797e-19)
(0.00701117 0.0345419 3.87777e-19)
(0.0200373 0.03035 -5.50223e-19)
(0.0340615 0.0262648 1.94977e-19)
(0.0489052 0.0224743 7.42633e-21)
(0.0643219 0.0192643 -3.10622e-19)
(0.0800967 0.0172038 7.70292e-19)
(0.0961633 0.0174666 -1.84042e-19)
(0.110574 0.0208995 -1.19421e-19)
(-0.00993429 0.0125744 6.0975e-19)
(-0.0243457 0.0300953 3.29248e-19)
(-0.0343934 0.0416108 3.06274e-19)
(-0.0403695 0.0486842 4.5724e-20)
(-0.0426822 0.0524807 4.14157e-19)
(-0.0417512 0.0538818 5.96969e-19)
(-0.0379433 0.0535653 4.88791e-19)
(-0.031573 0.0520452 4.37457e-20)
(-0.0229101 0.0497076 3.57974e-19)
(-0.012189 0.0468418 5.53142e-19)
(0.000380167 0.0436637 -1.43496e-19)
(0.0146001 0.0403349 2.4083e-19)
(0.0302751 0.036978 1.94461e-19)
(0.047203 0.0336927 1.97843e-19)
(0.0651661 0.0305744 1.17084e-18)
(0.0839071 0.0277347 -4.38872e-19)
(0.10309 0.0253411 -2.68369e-20)
(0.122427 0.0238294 5.09548e-19)
(0.141956 0.0244066 -2.89025e-19)
(0.159633 0.0280771 1.42954e-19)
(-0.0107382 0.0125995 -4.93106e-19)
(-0.0258081 0.0298964 3.15991e-20)
(-0.035613 0.041118 -3.94758e-19)
(-0.0406035 0.0479082 -5.13866e-20)
(-0.0412951 0.0514931 2.8898e-19)
(-0.0381832 0.0527973 -8.60285e-19)
(-0.0316927 0.0525276 -6.32599e-22)
(-0.022182 0.0512193 4.00369e-19)
(-0.00995734 0.0492767 3.7618e-19)
(0.00471255 0.047006 -1.65622e-19)
(0.0215795 0.0446405 5.46187e-20)
(0.0403988 0.0423586 1.26683e-19)
(0.0609133 0.0402976 -5.99744e-20)
(0.0828392 0.0385637 -6.73049e-19)
(0.105854 0.0372419 1.70394e-19)
(0.129574 0.0363988 4.69346e-19)
(0.1535 0.0360822 -6.68941e-19)
(0.177167 0.0365056 3.26342e-19)
(0.200696 0.0387453 8.7729e-20)
(0.222295 0.0437788 4.44748e-19)
(-0.0114849 0.0124993 -7.28169e-20)
(-0.026993 0.0293457 -3.4553e-19)
(-0.0362341 0.0401008 1.58998e-19)
(-0.0398291 0.0464873 7.30212e-22)
(-0.0384047 0.049791 -6.92994e-19)
(-0.0325327 0.0509789 1.08143e-19)
(-0.0226935 0.0507858 -2.05372e-20)
(-0.00928736 0.0497689 1.39904e-19)
(0.00734579 0.0483531 -6.40406e-19)
(0.0269045 0.0468671 -4.49012e-20)
(0.0491032 0.0455709 -1.50476e-19)
(0.0736493 0.0446764 1.33848e-19)
(0.100221 0.0443622 4.51971e-19)
(0.128443 0.0447857 -6.98687e-20)
(0.157865 0.046091 2.70836e-20)
(0.187919 0.0484017 1.7813e-19)
(0.217831 0.0517795 -4.39639e-20)
(0.246735 0.0563595 3.60236e-19)
(0.274555 0.0632244 -2.08514e-19)
(0.300107 0.073026 -3.30826e-19)
(-0.0121526 0.0122719 6.75376e-20)
(-0.0278167 0.0284363 1.64705e-20)
(-0.036099 0.038554 1.3856e-19)
(-0.0378048 0.0444232 3.39372e-19)
(-0.0336779 0.047387 1.90439e-19)
(-0.0243675 0.0484521 1.98707e-20)
(-0.0104101 0.0483786 -2.2735e-19)
(0.0077525 0.0477429 5.82819e-20)
(0.0297454 0.0469878 3.06523e-19)
(0.0552329 0.0464623 -5.19428e-19)
(0.0838915 0.0464524 3.91976e-19)
(0.115385 0.0472054 -2.95371e-19)
(0.149342 0.0489514 2.50733e-19)
(0.18533 0.0519253 -5.40936e-19)
(0.222829 0.0563906 5.95428e-19)
(0.261166 0.0626549 -6.3702e-19)
(0.299383 0.0710648 -1.65852e-19)
(0.336156 0.0822477 5.21624e-19)
(0.370327 0.0981667 -1.75795e-19)
(0.398789 0.118843 7.88774e-20)
(-0.0127154 0.0119162 -5.1118e-20)
(-0.0281812 0.027168 4.82399e-19)
(-0.035024 0.0364883 -2.02416e-21)
(-0.0342524 0.0417458 -2.99465e-19)
(-0.0267352 0.0443362 -2.01402e-19)
(-0.013204 0.0453018 3.68967e-19)
(0.00574413 0.0454225 -1.46141e-19)
(0.0296181 0.045287 -1.84106e-20)
(0.057997 0.0453469 3.04566e-19)
(0.0904964 0.0459589 -3.78365e-19)
(0.12674 0.047416 4.14991e-20)
(0.166339 0.049974 -4.91996e-19)
(0.208879 0.0538761 2.59182e-19)
(0.253914 0.0593818 -7.41875e-19)
(0.300979 0.0668056 1.18261e-18)
(0.349599 0.0765673 -2.16591e-19)
(0.399323 0.0893113 2.26923e-19)
(0.450022 0.106454 -5.88946e-19)
(0.502183 0.131018 3.06977e-21)
(0.547849 0.158752 6.73674e-19)
(-0.0131413 0.0114313 -1.54871e-19)
(-0.0279698 0.0255466 1.3381e-19)
(-0.0327949 0.0339319 -4.92758e-19)
(-0.0288527 0.0385167 7.28819e-19)
(-0.0171495 0.0407426 -5.26176e-19)
(0.0014912 0.0416813 2.71543e-20)
(0.0263977 0.0421248 -5.67368e-19)
(0.0570091 0.0426637 4.05656e-19)
(0.0928292 0.0437439 -5.79535e-20)
(0.133387 0.045708 -3.58006e-19)
(0.178205 0.0488245 -2.08956e-19)
(0.226788 0.0533102 2.20774e-19)
(0.278612 0.0593487 1.46094e-19)
(0.333143 0.0671077 -6.46869e-19)
(0.389862 0.0767551 2.33433e-19)
(0.448313 0.0884715 -3.44906e-19)
(0.508163 0.10247 4.18306e-20)
(0.569434 0.119199 -2.94083e-19)
(0.632981 0.139828 1.21706e-19)
(0.691543 0.160331 -4.43024e-19)
(-0.0133893 0.0108157 4.40894e-19)
(-0.0270434 0.023584 -2.67017e-19)
(-0.0291646 0.0309311 2.20023e-19)
(-0.0212462 0.0348307 -2.77773e-19)
(-0.00445013 0.0367604 4.65617e-19)
(0.0202891 0.0378135 -8.14968e-21)
(0.0521982 0.0387837 -5.66807e-20)
(0.090608 0.0402498 -4.20251e-20)
(0.134895 0.0426334 2.58677e-19)
(0.184436 0.0462385 4.39874e-19)
(0.238578 0.0512767 -2.59843e-19)
(0.296627 0.057886 2.52666e-19)
(0.357854 0.0661439 4.61748e-19)
(0.421519 0.0760767 -3.23757e-19)
(0.486904 0.0876644 -6.58562e-19)
(0.553359 0.100836 1.20506e-18)
(0.620345 0.115453 -2.15091e-19)
(0.687521 0.131349 -7.00813e-20)
(0.755109 0.148853 7.57954e-19)
(0.817872 0.167032 -1.5959e-19)
(-0.0134085 0.0100677 -7.17823e-19)
(-0.0252392 0.0212991 -4.77862e-19)
(-0.0238535 0.0275508 -1.83442e-19)
(-0.0110384 0.0308153 3.53903e-19)
(0.0118625 0.0325919 -7.98945e-19)
(0.0437715 0.0339843 4.13734e-19)
(0.0837688 0.0357736 5.24332e-20)
(0.131015 0.038508 5.30179e-20)
(0.184684 0.0425613 -5.41895e-19)
(0.243911 0.0481688 -1.91371e-19)
(0.30777 0.0554513 -3.374e-19)
(0.375273 0.0644325 3.25909e-19)
(0.445394 0.0750522 9.26207e-20)
(0.517102 0.0871764 1.82053e-20)
(0.589408 0.100604 4.25806e-19)
(0.661409 0.115067 -4.31063e-19)
(0.732327 0.13022 -1.79862e-20)
(0.801533 0.145659 1.06681e-20)
(0.868718 0.161231 5.88003e-20)
(0.93095 0.178472 3.36934e-19)
(-0.0131361 0.00918614 2.28561e-19)
(-0.0223703 0.0187192 5.88684e-19)
(-0.0165542 0.0238758 4.72419e-19)
(0.00218805 0.0266304 -1.62834e-19)
(0.032293 0.0284832 5.66316e-19)
(0.0724904 0.0305314 -4.77133e-20)
(0.121645 0.0335229 -6.72084e-20)
(0.178662 0.0379488 4.00092e-20)
(0.242409 0.0441018 5.47406e-19)
(0.311674 0.0521113 3.21655e-19)
(0.385156 0.0619684 9.39274e-20)
(0.461491 0.0735473 5.74695e-21)
(0.539296 0.0866251 -6.23789e-19)
(0.61723 0.100901 5.42011e-19)
(0.694049 0.116013 9.31566e-20)
(0.768659 0.131553 -1.53189e-19)
(0.840148 0.14707 -6.66177e-19)
(0.907808 0.162107 -5.6704e-20)
(0.971111 0.1762 2.63768e-19)
(1.02922 0.19249 -5.40506e-20)
(-0.0124982 0.00817225 -5.80056e-19)
(-0.0182286 0.0158835 2.42696e-19)
(-0.00694054 0.0200135 -1.18486e-18)
(0.0188545 0.022468 4.85244e-19)
(0.0573189 0.0247187 -3.86973e-19)
(0.106917 0.0278316 2.85288e-19)
(0.166203 0.0324901 -4.43174e-19)
(0.233712 0.0390896 4.06837e-20)
(0.307888 0.0477979 -2.28427e-20)
(0.387058 0.0585915 1.19204e-19)
(0.469464 0.0712883 1.72211e-19)
(0.553319 0.0855802 -3.25492e-19)
(0.63689 0.101066 1.72346e-19)
(0.718579 0.117285 1.58414e-19)
(0.796997 0.133748 6.85292e-19)
(0.871011 0.149964 -2.9744e-19)
(0.939766 0.165458 -1.98231e-19)
(1.0027 0.179818 3.33639e-19)
(1.05939 0.192478 1.78735e-19)
(1.11039 0.207307 -3.35287e-19)
(-0.0114101 0.00703202 5.08145e-19)
(-0.0125904 0.0128473 4.89981e-19)
(0.00532035 0.0160977 1.41339e-19)
(0.0393632 0.0185536 5.95318e-19)
(0.0873525 0.0216178 2.9243e-19)
(0.147386 0.0262882 -5.27154e-19)
(0.217584 0.0331387 7.98407e-19)
(0.295977 0.0424164 -3.92906e-19)
(0.38046 0.0541072 3.92232e-19)
(0.468809 0.0679815 5.07588e-19)
(0.558767 0.0836421 -2.90092e-19)
(0.648146 0.100575 5.50926e-20)
(0.734949 0.118204 3.07491e-19)
(0.817469 0.135935 2.16783e-19)
(0.894356 0.153203 4.9987e-19)
(0.964648 0.169502 -1.9974e-19)
(1.02776 0.184404 -2.44053e-20)
(1.08348 0.197601 3.16431e-19)
(1.13175 0.208612 -6.79234e-20)
(1.17392 0.221367 3.62335e-22)
(-0.00977959 0.00577908 -2.62323e-19)
(-0.00522398 0.00968799 -9.6418e-19)
(0.0205517 0.0122933 2.27042e-19)
(0.0640707 0.0151475 -1.72837e-19)
(0.1227 0.0195295 -3.98945e-19)
(0.194041 0.026317 -2.84801e-19)
(0.275632 0.035912 -1.75943e-19)
(0.364857 0.0483456 4.27318e-19)
(0.458955 0.063356 -2.53781e-19)
(0.555109 0.080455 -2.59875e-19)
(0.650593 0.0990001 -3.2884e-19)
(0.742932 0.118271 -5.4283e-20)
(0.830044 0.137544 -3.66899e-20)
(0.910329 0.156149 -7.61385e-19)
(0.982709 0.173516 3.69545e-19)
(1.04661 0.1892 -4.85912e-19)
(1.10191 0.202889 1.53039e-19)
(1.14887 0.214423 -1.16495e-18)
(1.18793 0.223528 3.51039e-19)
(1.22082 0.23377 4.45079e-19)
(-0.00750924 0.00443739 -6.58639e-20)
(0.00410027 0.00650894 4.70449e-19)
(0.0390491 0.00879999 3.01562e-20)
(0.0932581 0.0125446 7.25683e-20)
(0.163521 0.0188261 -1.47536e-19)
(0.246785 0.0283296 -2.41903e-21)
(0.339847 0.0412056 -3.78338e-21)
(0.439318 0.0571889 -8.90099e-20)
(0.541723 0.0757041 3.15696e-19)
(0.643685 0.0959644 1.22086e-19)
(0.742143 0.117078 5.54388e-19)
(0.834541 0.138152 -1.51191e-19)
(0.918962 0.158376 1.05638e-19)
(0.994169 0.177084 -1.38029e-20)
(1.05958 0.193787 2.92787e-19)
(1.1152 0.208177 1.79362e-19)
(1.16145 0.220115 4.32775e-19)
(1.19913 0.22961 -6.99307e-19)
(1.22914 0.236637 8.80667e-19)
(1.25334 0.244218 -2.79141e-19)
(-0.00450053 0.00304345 -6.1332e-19)
(0.0155985 0.00344394 -1.91426e-19)
(0.0610599 0.00585451 1.49638e-19)
(0.127102 0.0110721 9.43356e-20)
(0.209791 0.0198912 9.66279e-20)
(0.305248 0.0327124 9.79789e-20)
(0.409372 0.0493382 -2.45184e-19)
(0.517922 0.0691235 -1.0141e-19)
(0.626734 0.0911252 3.14464e-20)
(0.732011 0.114247 -3.00438e-19)
(0.830586 0.137383 -1.3597e-19)
(0.920108 0.159535 8.21824e-19)
(0.999104 0.179904 -2.11984e-19)
(1.06694 0.197921 -2.92543e-19)
(1.1237 0.21326 -1.39066e-19)
(1.17004 0.225809 9.61926e-20)
(1.20696 0.23563 1.17608e-19)
(1.23569 0.242907 -5.63851e-19)
(1.25752 0.247838 8.16576e-19)
(1.27429 0.252875 -7.08006e-19)
(-0.000657927 0.00164774 -6.9449e-20)
(0.0294609 0.000658595 1.99005e-20)
(0.0867623 0.00372918 -2.53453e-20)
(0.165645 0.0110808 3.70465e-19)
(0.261274 0.0231042 2.03854e-20)
(0.368765 0.039802 1.36036e-19)
(0.483008 0.0605242 -2.82598e-19)
(0.598906 0.0841715 -1.03092e-20)
(0.711742 0.109409 3.92639e-19)
(0.817548 0.134863 5.47558e-20)
(0.913364 0.159289 -3.42232e-19)
(0.997353 0.181693 -3.00598e-20)
(1.06875 0.201389 -2.81495e-19)
(1.12768 0.218002 2.80198e-19)
(1.17498 0.231431 3.89597e-19)
(1.21191 0.241787 -4.29619e-20)
(1.23998 0.249333 -5.24655e-20)
(1.26072 0.254402 1.59914e-19)
(1.27564 0.257359 -5.14613e-19)
(1.28647 0.260155 4.53159e-19)
(0.00410662 0.000315451 6.96964e-20)
(0.0458383 -0.00165039 -4.4976e-19)
(0.116244 0.00272644 1.20379e-19)
(0.208771 0.012933 -3.73297e-19)
(0.317499 0.0288182 1.28349e-19)
(0.436387 0.0498588 -4.76669e-19)
(0.559272 0.0748517 1.92268e-19)
(0.680311 0.102196 -6.12002e-20)
(0.794488 0.130188 -2.47942e-21)
(0.898001 0.157255 6.26721e-20)
(0.988446 0.182132 -2.28333e-19)
(1.06478 0.203952 -3.26123e-19)
(1.12712 0.222246 -6.69374e-20)
(1.17644 0.236901 -3.00522e-20)
(1.21426 0.248071 -7.62753e-20)
(1.24236 0.256088 -2.48684e-20)
(1.26257 0.261384 -7.44569e-20)
(1.27659 0.2644 -6.4588e-20)
(1.28597 0.265603 -1.92367e-19)
(1.29232 0.266534 3.05368e-19)
(0.00986882 -0.000873888 1.67729e-19)
(0.0648289 -0.00325875 -1.86266e-19)
(0.149485 0.00316913 4.00842e-19)
(0.25619 0.0169845 -1.72992e-19)
(0.377767 0.0373364 4.62344e-19)
(0.506918 0.0630441 6.56569e-21)
(0.636493 0.0922718 2.32199e-19)
(0.760141 0.122918 -6.21731e-20)
(0.872902 0.152983 2.59574e-19)
(0.971523 0.180825 1.87952e-20)
(1.05448 0.205299 6.18308e-19)
(1.12172 0.225778 -4.26879e-19)
(1.17433 0.242095 5.74945e-20)
(1.21405 0.254431 1.09775e-19)
(1.24298 0.26319 5.75555e-19)
(1.26326 0.268894 -2.06809e-19)
(1.27685 0.272093 -4.10291e-20)
(1.2855 0.273291 -2.17518e-19)
(1.29064 0.273001 -2.29631e-20)
(1.29373 0.272444 1.08896e-19)
(0.016687 -0.00182753 -8.0552e-20)
(0.0864652 -0.00392088 2.32623e-19)
(0.186339 0.00538707 -2.38091e-19)
(0.307428 0.0235635 9.40697e-20)
(0.441158 0.0488886 -1.12399e-19)
(0.578976 0.0794038 4.12638e-19)
(0.712932 0.112604 -5.74532e-20)
(0.836525 0.145947 1.41639e-19)
(0.945269 0.177267 -8.33836e-20)
(1.03683 0.205009 -2.17702e-21)
(1.11081 0.228286 9.53305e-20)
(1.16824 0.246811 -7.38775e-20)
(1.21111 0.260758 1.91667e-19)
(1.24182 0.2706 -9.55448e-20)
(1.26286 0.276958 -4.21035e-19)
(1.27652 0.280491 4.18693e-19)
(1.28478 0.281819 -1.88755e-19)
(1.28927 0.281459 1.50737e-19)
(1.2913 0.279934 2.61523e-19)
(1.29209 0.278216 1.07451e-19)
(0.024597 -0.00244165 2.00424e-19)
(0.110704 -0.00337851 -4.13003e-19)
(0.226525 0.00970086 7.9031e-20)
(0.361832 0.0329497 -5.73219e-20)
(0.506583 0.0636125 -2.31156e-19)
(0.651082 0.0988651 -1.81421e-19)
(0.786909 0.135558 -3.56542e-20)
(0.907856 0.170828 -3.23494e-19)
(1.01034 0.202519 -1.96998e-20)
(1.09325 0.229326 -6.01216e-20)
(1.15742 0.250736 -1.63254e-19)
(1.20496 0.266862 -3.62681e-20)
(1.23861 0.278224 -1.25005e-19)
(1.26125 0.28555 -2.08728e-19)
(1.27556 0.289628 2.13819e-19)
(1.28384 0.291198 2.95135e-20)
(1.28796 0.290898 5.88176e-20)
(1.28935 0.289229 -2.46511e-19)
(1.28915 0.286695 -6.14788e-21)
(1.28836 0.284074 -3.80558e-19)
(0.0336078 -0.00260431 2.19798e-19)
(0.137416 -0.00137127 1.46585e-19)
(0.26963 0.0164043 -2.36293e-19)
(0.418594 0.0453548 3.68993e-19)
(0.572829 0.0815421 -3.97683e-20)
(0.721754 0.121244 1.37826e-19)
(0.856918 0.160762 4.7719e-20)
(0.972887 0.197091 1.6909e-19)
(1.06735 0.228275 -1.32402e-19)
(1.14062 0.253407 4.41391e-20)
(1.19476 0.272435 -4.23752e-20)
(1.23283 0.285885 -1.86603e-20)
(1.25814 0.294592 3.54659e-20)
(1.27383 0.29949 -6.53704e-20)
(1.28261 0.301471 -2.01013e-20)
(1.28665 0.301305 -6.15009e-20)
(1.28764 0.299611 -9.99993e-20)
(1.28678 0.296844 6.45574e-20)
(1.28502 0.293486 -8.86326e-20)
(1.28317 0.290151 3.82987e-19)
(0.0436968 -0.00219931 -1.09784e-19)
(0.166386 0.0023513 -3.10946e-19)
(0.315109 0.0257472 -4.13909e-20)
(0.476779 0.0609069 -1.12527e-20)
(0.638636 0.102607 -1.39269e-19)
(0.789601 0.146266 -2.2866e-19)
(0.921711 0.187802 7.48566e-20)
(1.03077 0.224285 -1.02862e-19)
(1.11601 0.254148 -1.15287e-19)
(1.17921 0.277 6.42352e-20)
(1.2236 0.293286 -4.85522e-20)
(1.25296 0.303928 -9.82727e-20)
(1.27099 0.310023 -3.33507e-21)
(1.28089 0.312647 6.65671e-20)
(1.28525 0.312738 -6.79419e-20)
(1.28605 0.311053 9.42855e-20)
(1.28472 0.308163 2.53562e-20)
(1.28227 0.304469 6.39408e-20)
(1.27944 0.300427 1.24689e-19)
(1.27689 0.296506 -1.06826e-19)
(0.0548079 -0.00111066 1.04875e-19)
(0.197307 0.00801714 -9.2896e-21)
(0.362306 0.0379196 4.70364e-20)
(0.535372 0.0796417 -6.38503e-20)
(0.702761 0.126636 5.24122e-21)
(0.853399 0.173587 2.21553e-19)
(0.980346 0.216252 -1.45555e-19)
(1.08102 0.252009 6.16608e-20)
(1.15637 0.279842 5.43764e-20)
(1.20957 0.299953 -1.5288e-19)
(1.24485 0.313283 1.43691e-19)
(1.26649 0.321098 1.27208e-21)
(1.27835 0.324695 -1.01306e-19)
(1.28355 0.325228 1.22125e-19)
(1.28448 0.323631 -4.84805e-20)
(1.28285 0.320618 3.708e-20)
(1.27985 0.316694 -4.14702e-20)
(1.2763 0.3122 -1.65799e-20)
(1.27276 0.307571 -1.45295e-19)
(1.26975 0.303144 4.44981e-20)
(0.066849 0.000772361 -3.53756e-20)
(0.22979 0.0158192 9.49079e-20)
(0.410476 0.0530392 1.47928e-20)
(0.593328 0.101499 6.20619e-20)
(0.764045 0.153377 2.96092e-20)
(0.912138 0.202822 1.3879e-20)
(1.03219 0.245702 7.87008e-20)
(1.12351 0.279922 -9.55356e-21)
(1.18877 0.305144 3.47105e-20)
(1.23244 0.322192 5.57829e-20)
(1.25947 0.332468 2.69254e-20)
(1.27446 0.337521 1.93336e-20)
(1.28123 0.338774 7.84125e-20)
(1.28272 0.337402 -7.59048e-20)
(1.28103 0.3343 1.62962e-20)
(1.27763 0.330115 -1.52619e-20)
(1.27346 0.325278 2.36185e-20)
(1.26916 0.320076 1.9791e-20)
(1.26518 0.314926 4.13433e-20)
(1.26188 0.310035 1.74323e-21)
(0.0796933 0.00354995 2.09707e-20)
(0.263374 0.0259043 1.91551e-20)
(0.458813 0.0711431 -2.65143e-20)
(0.649613 0.126329 1.65675e-20)
(0.821462 0.182508 9.3598e-21)
(0.965047 0.233569 -2.91162e-20)
(1.07689 0.275771 9.60974e-21)
(1.15836 0.307743 1.73147e-21)
(1.21375 0.329906 1.65771e-20)
(1.2486 0.343693 -4.44504e-20)
(1.26838 0.350911 -1.38125e-22)
(1.27778 0.353316 1.23231e-20)
(1.28046 0.352393 -9.81977e-21)
(1.27907 0.349292 9.93606e-21)
(1.27545 0.34484 2.5934e-20)
(1.27078 0.339604 -1.4757e-20)
(1.26581 0.333941 4.10737e-21)
(1.26104 0.328092 1.61728e-20)
(1.25678 0.32246 -2.66671e-20)
(1.25332 0.317123 1.27996e-20)
(0.0797019 -0.00355064 5.65373e-20)
(0.26341 -0.0259086 -3.10761e-20)
(0.458882 -0.0711543 3.66876e-20)
(0.649713 -0.126348 -2.73264e-20)
(0.821587 -0.182532 -1.23734e-20)
(0.965188 -0.233597 3.80974e-21)
(1.07705 -0.2758 -1.22585e-20)
(1.15851 -0.307772 4.43396e-20)
(1.2139 -0.329932 -3.71333e-20)
(1.24875 -0.343717 8.49335e-21)
(1.26853 -0.350932 -6.55242e-21)
(1.27792 -0.353334 -4.31117e-20)
(1.28059 -0.352409 4.20177e-20)
(1.27921 -0.349306 1.63126e-20)
(1.27558 -0.344852 -1.57257e-20)
(1.2709 -0.339614 3.78185e-20)
(1.26594 -0.33395 -4.39039e-22)
(1.26117 -0.328099 -3.69494e-20)
(1.2569 -0.322466 2.71508e-20)
(1.25345 -0.317127 9.06443e-21)
(0.0668555 -0.00077279 -2.02676e-20)
(0.229821 -0.0158223 5.48781e-20)
(0.410537 -0.0530482 6.41889e-20)
(0.59342 -0.101515 -3.10598e-20)
(0.764164 -0.153399 5.36768e-20)
(0.912276 -0.202847 8.71737e-20)
(1.03234 -0.245729 -4.92579e-21)
(1.12366 -0.279949 -1.56979e-20)
(1.18893 -0.305169 7.76636e-20)
(1.23259 -0.322215 3.84222e-20)
(1.25962 -0.332488 -7.22973e-21)
(1.27461 -0.337538 5.86065e-20)
(1.28137 -0.338788 -6.3028e-20)
(1.28286 -0.337414 1.00859e-19)
(1.28117 -0.33431 -1.64996e-20)
(1.27776 -0.330123 5.03432e-20)
(1.27359 -0.325284 9.88889e-21)
(1.26929 -0.320081 3.60805e-20)
(1.2653 -0.314929 -3.38914e-20)
(1.26201 -0.310037 9.39522e-21)
(0.0548123 0.00111034 -3.00529e-20)
(0.197332 -0.00801935 6.56928e-20)
(0.362361 -0.0379267 4.89842e-20)
(0.535457 -0.0796548 -7.82222e-21)
(0.702873 -0.126655 8.20146e-20)
(0.853533 -0.17361 -6.47647e-20)
(0.980493 -0.216277 -6.83399e-21)
(1.08117 -0.252035 5.84369e-20)
(1.15652 -0.279866 1.9475e-20)
(1.20973 -0.299975 2.72325e-20)
(1.245 -0.313302 -4.01752e-20)
(1.26664 -0.321115 1.12118e-19)
(1.2785 -0.324709 2.18283e-20)
(1.28369 -0.325239 -9.90892e-20)
(1.28462 -0.32364 1.5263e-19)
(1.28298 -0.320625 -1.80843e-19)
(1.27999 -0.316699 -8.61388e-20)
(1.27643 -0.312203 1.46523e-20)
(1.27289 -0.307573 8.31365e-20)
(1.26988 -0.303144 -1.57483e-19)
(0.0436993 0.00219896 -6.30219e-20)
(0.166406 -0.00235297 -1.47981e-19)
(0.315156 -0.0257529 -1.30442e-19)
(0.476855 -0.0609178 -1.78292e-19)
(0.63874 -0.102623 -1.06032e-19)