/*--------------------------------*- C++ -*----------------------------------*\
  =========                 |
  \\      /  F ield         | OpenFOAM: The Open Source CFD Toolbox
   \\    /   O peration     | Website:  https://openfoam.org
    \\  /    A nd           | Version:  6.0
     \\/     M anipulation  |
\*---------------------------------------------------------------------------*/
FoamFile
{
    version     2.0;
    format      ascii;
    class       surfaceScalarField;
    location    "51";
    object      phi;
}
// * * * * * * * * * * * * * * * * * * * * * * * * * * * * * * * * * * * * * //

dimensions      [0 3 -1 0 0 0 0];

internalField   nonuniform List<scalar> 
7840
(
3.4634e-05
-0.000245628
0.000123174
-0.000775088
0.000249006
-0.00130953
0.000393692
-0.00180656
0.000539972
-0.00223284
0.000674764
-0.00257131
0.000790437
-0.00282102
0.000884345
-0.00299219
0.000957423
-0.00310041
0.00101262
-0.00316208
0.00105362
-0.00319168
0.00108397
-0.00320058
0.00110667
-0.00319707
0.00112403
-0.00318674
0.00113773
-0.00317319
0.00114891
-0.00315867
0.00115836
-0.00314452
0.00116662
-0.00313158
0.00117402
-0.00312039
-0.00311145
0.00118075
3.60881e-05
-0.000281716
0.000125742
-0.000864743
0.000249619
-0.00143341
0.000387735
-0.00194468
0.000522834
-0.00236794
0.000643058
-0.00269154
0.000742505
-0.00292047
0.000820141
-0.00306982
0.000878055
-0.00315832
0.000919809
-0.00320384
0.000949238
-0.0032211
0.000969753
-0.0032211
0.000984056
-0.00321137
0.000994124
-0.00319681
0.00100132
-0.00318039
0.00100657
-0.00316392
0.00101047
-0.00314842
0.00101343
-0.00313454
0.0010157
-0.00312265
-0.00311315
0.0010174
3.71431e-05
-0.000318859
0.000126749
-0.000954349
0.000246989
-0.00155365
0.000376817
-0.00207451
0.000499482
-0.0024906
0.000604633
-0.00279669
0.000688114
-0.00300395
0.000750328
-0.00313204
0.000794261
-0.00320226
0.000823846
-0.00323342
0.000842896
-0.00324016
0.00085458
-0.00323278
0.00086127
-0.00321806
0.00086462
-0.00320016
0.000865728
-0.0031815
0.000865306
-0.00316349
0.00086382
-0.00314694
0.000861577
-0.0031323
0.000858769
-0.00311984
-0.00310986
0.000855479
3.77607e-05
-0.000356619
0.000126145
-0.00104273
0.000241184
-0.00166869
0.000361286
-0.00219461
0.000470635
-0.00259995
0.000560562
-0.00288661
0.000628583
-0.00307197
0.000676324
-0.00317978
0.00070742
-0.00323335
0.000725969
-0.00325197
0.000735635
-0.00324982
0.000739282
-0.00323643
0.000738951
-0.00321773
0.000735997
-0.0031972
0.000731287
-0.00317679
0.000725371
-0.00315758
0.000718602
-0.00314017
0.00071122
-0.00312492
0.00070337
-0.00311199
-0.0031016
0.000695113
3.79145e-05
-0.000394534
0.000123926
-0.00112874
0.000232356
-0.00177712
0.000341581
-0.00230383
0.000437063
-0.00269543
0.00051189
-0.00296144
0.000565116
-0.0031252
0.000599355
-0.00321402
0.000618669
-0.00325267
0.000627159
-0.00326046
0.000628249
-0.00325091
0.000624476
-0.00323266
0.000617559
-0.00321081
0.000608594
-0.00318824
0.000598255
-0.00316645
0.000586956
-0.00314628
0.000574971
-0.00312818
0.000562485
-0.00311243
0.000549614
-0.00309912
-0.00308839
0.000536404
3.75901e-05
-0.000432124
0.000120131
-0.00121129
0.000220725
-0.00187771
0.000318194
-0.0024013
0.000399541
-0.00277678
0.000459598
-0.0030215
0.000498777
-0.00316437
0.000520456
-0.0032357
0.000528931
-0.00326114
0.000528182
-0.00325971
0.000521341
-0.00324407
0.000510614
-0.00322193
0.000497431
-0.00319763
0.00048266
-0.00317347
0.000466815
-0.00315061
0.000450208
-0.00312967
0.000433047
-0.00311102
0.000415479
-0.00309486
0.0003976
-0.00308125
-0.00307025
0.000379452
3.67849e-05
-0.000468909
0.000114836
-0.00128934
0.000206556
-0.00196943
0.000291649
-0.0024864
0.00035882
-0.00284395
0.000404575
-0.00306725
0.000430487
-0.00319029
0.000440486
-0.00324569
0.000438943
-0.0032596
0.000429631
-0.0032504
0.000415364
-0.0032298
0.000398034
-0.0032046
0.00037881
-0.00317841
0.000358373
-0.00315303
0.000337108
-0.00312934
0.000315242
-0.00310781
0.000292932
-0.00308871
0.000270296
-0.00307223
0.000247421
-0.00305837
-0.00304717
0.000224348
3.55074e-05
-0.000504416
0.000108143
-0.00136197
0.000190146
-0.00205143
0.000262467
-0.00255872
0.000315604
-0.00289709
0.000347616
-0.00309926
0.000361031
-0.0032037
0.000360149
-0.00324481
0.000349291
-0.00324874
0.000331963
-0.00323307
0.000310659
-0.0032085
0.000286981
-0.00318092
0.000261877
-0.0031533
0.000235871
-0.00312702
0.000209241
-0.00310271
0.000182149
-0.00308071
0.000154709
-0.00306127
0.000127017
-0.00304453
9.91565e-05
-0.00303051
-0.00301919
7.11736e-05
3.37758e-05
-0.000538192
0.000100181
-0.00142838
0.000171811
-0.00212307
0.000231159
-0.00261807
0.00027054
-0.00293647
0.000289412
-0.00311814
0.000291071
-0.00320536
0.00028002
-0.00323376
0.000260437
-0.00322916
0.000235531
-0.00320817
0.000207485
-0.00318045
0.000177643
-0.00315108
0.000146766
-0.00312243
0.000115253
-0.00309551
8.32972e-05
-0.00307076
5.10022e-05
-0.00304842
1.84458e-05
-0.00302871
-1.42913e-05
-0.0030118
-4.7125e-05
-0.00299768
-0.00298632
-7.9998e-05
3.16171e-05
-0.000569809
9.10911e-05
-0.00148785
0.000151867
-0.00218384
0.000198207
-0.00266441
0.000224206
-0.00296247
0.000230565
-0.0031245
0.000221158
-0.00319595
0.000200564
-0.00321317
0.000172747
-0.00320134
0.000140609
-0.00317603
0.00010604
-0.00314588
7.01606e-05
-0.0031152
3.35804e-05
-0.00308585
-3.4033e-06
-0.00305853
-4.06633e-05
-0.0030335
-7.81457e-05
-0.00301094
-0.000115807
-0.00299105
-0.00015358
-0.00297402
-0.000191374
-0.00295988
-0.00294857
-0.000229115
2.90653e-05
-0.000598875
8.10273e-05
-0.00153981
0.000130628
-0.00223344
0.000164056
-0.00269783
0.000177121
-0.00297553
0.000171589
-0.00311896
0.000151754
-0.00317612
0.000122162
-0.00318358
8.65193e-05
-0.0031657
4.7419e-05
-0.00313693
6.48562e-06
-0.00310495
-3.53495e-05
-0.00307336
-7.75986e-05
-0.0030436
-0.00012004
-0.00301609
-0.000162598
-0.00299094
-0.000205263
-0.00296827
-0.000248025
-0.00294829
-0.000290832
-0.00293122
-0.000333583
-0.00291713
-0.00290598
-0.000376175
2.61598e-05
-0.000625035
7.01465e-05
-0.0015838
0.000108393
-0.00227169
0.000129119
-0.00271856
0.00012974
-0.00297615
0.000112925
-0.00310215
8.32442e-05
-0.00314644
4.51281e-05
-0.00314546
1.99821e-06
-0.00312257
-4.38527e-05
-0.00309108
-9.1038e-05
-0.00305777
-0.000138785
-0.00302562
-0.000186698
-0.00299568
-0.000234609
-0.00296817
-0.00028248
-0.00294307
-0.000330339
-0.00292041
-0.000378214
-0.00290042
-0.000426074
-0.00288336
-0.000473803
-0.0028694
-0.00285852
-0.00052126
2.29447e-05
-0.000647979
5.86071e-05
-0.00161946
8.5449e-05
-0.00229853
9.37661e-05
-0.00272688
8.24637e-05
-0.00296485
5.49523e-05
-0.00307464
1.59586e-05
-0.00310744
-3.02665e-05
-0.00309924
-8.06004e-05
-0.00307223
-0.000133035
-0.00303864
-0.000186396
-0.0030044
-0.00024004
-0.00297197
-0.000293642
-0.00294208
-0.000347063
-0.00291475
-0.000400289
-0.00288984
-0.000453378
-0.00286732
-0.000506403
-0.00284739
-0.000559364
-0.0028304
-0.000612134
-0.00281663
-0.00280614
-0.000664514
1.94667e-05
-0.000667446
4.65647e-05
-0.00164656
6.20613e-05
-0.00231403
5.83334e-05
-0.00272315
3.56438e-05
-0.00294216
-2.00022e-06
-0.00303699
-4.98176e-05
-0.00305962
-0.000103783
-0.00304527
-0.000161076
-0.00301494
-0.000219957
-0.00297976
-0.00027944
-0.00294492
-0.000338992
-0.00291242
-0.000398335
-0.00288274
-0.000457341
-0.00285575
-0.000515997
-0.00283119
-0.000574384
-0.00280894
-0.00063262
-0.00278916
-0.000690756
-0.00277226
-0.000748662
-0.00275873
-0.00274876
-0.000806046
1.57747e-05
-0.000683221
3.41703e-05
-0.00166495
3.84771e-05
-0.00231833
2.31223e-05
-0.00270779
-1.0409e-05
-0.00290863
-5.76438e-05
-0.00298976
-0.000113829
-0.00300344
-0.000175197
-0.0029839
-0.000239228
-0.00295091
-0.000304431
-0.00291456
-0.000369993
-0.00287936
-0.000435478
-0.00284693
-0.00050064
-0.00281758
-0.000565347
-0.00279104
-0.000629563
-0.00276697
-0.000693363
-0.00274513
-0.000756905
-0.00272561
-0.000820304
-0.00270886
-0.000883445
-0.00269559
-0.0026863
-0.0009459
1.19183e-05
-0.000695139
2.1568e-05
-0.0016746
1.49229e-05
-0.00231169
-1.15978e-05
-0.00268127
-5.54205e-05
-0.00286481
-0.000111722
-0.00293346
-0.000175844
-0.00293932
-0.000244293
-0.00291545
-0.000314844
-0.00288036
-0.000386241
-0.00284316
-0.00045783
-0.00280777
-0.000529267
-0.0027755
-0.000600343
-0.0027465
-0.000670912
-0.00272047
-0.000740892
-0.00269699
-0.000810315
-0.00267571
-0.000879346
-0.00265658
-0.000948177
-0.00264003
-0.00101672
-0.00262704
-0.00261858
-0.00108445
7.94672e-06
-0.000703086
8.89335e-06
-0.00167555
-8.39558e-06
-0.0022944
-4.55879e-05
-0.00264408
-9.91492e-05
-0.00281125
-0.000164006
-0.0028686
-0.000235645
-0.00286768
-0.000310856
-0.00284024
-0.000387698
-0.00280352
-0.000465134
-0.00276573
-0.000542665
-0.00273024
-0.000620045
-0.00269812
-0.000697117
-0.00266943
-0.000773734
-0.00264386
-0.000849766
-0.00262096
-0.000925169
-0.00260031
-0.00100008
-0.00258167
-0.00107479
-0.00256533
-0.00114927
-0.00255256
-0.00254468
-0.00122317
3.90807e-06
-0.000706994
-3.7281e-06
-0.00166791
-3.12942e-05
-0.00226683
-7.86379e-05
-0.00259674
-0.000141384
-0.0027485
-0.000214293
-0.00279569
-0.000293029
-0.00278894
-0.000374671
-0.0027586
-0.000457545
-0.00272064
-0.00054082
-0.00268245
-0.000624151
-0.00264691
-0.000707404
-0.00261486
-0.000790507
-0.00258632
-0.000873356
-0.00256101
-0.000955801
-0.00253851
-0.00103773
-0.00251838
-0.00111923
-0.00250017
-0.00120068
-0.00248387
-0.00128231
-0.00247093
-0.0024623
-0.00136469
-1.52077e-07
-0.000706842
-1.61829e-05
-0.00165188
-5.36117e-05
-0.00222941
-0.000110568
-0.00253978
-0.000181944
-0.00267712
-0.000262403
-0.00271523
-0.00034781
-0.00270354
-0.000435525
-0.00267089
-0.000524119
-0.00263205
-0.000612958
-0.00259361
-0.000701844
-0.00255802
-0.000790784
-0.00252592
-0.000879841
-0.00249727
-0.000969046
-0.0024718
-0.00105834
-0.00244922
-0.00114762
-0.0024291
-0.00123687
-0.00241091
-0.00132645
-0.0023943
-0.00141691
-0.00238047
-0.00236824
-0.00151097
-4.19166e-06
-0.00070265
-2.8371e-05
-0.0016277
-7.52113e-05
-0.00218256
-0.00014123
-0.00247376
-0.000220685
-0.00259767
-0.000308195
-0.00262772
-0.000399834
-0.0026119
-0.000493225
-0.0025775
-0.000587159
-0.00253812
-0.000681165
-0.0024996
-0.000775178
-0.00246401
-0.000869341
-0.00243176
-0.000963899
-0.00240271
-0.00105914
-0.00237656
-0.00115534
-0.00235302
-0.00125269
-0.00233175
-0.00135132
-0.00231229
-0.00145177
-0.00229384
-0.00155627
-0.00227597
-0.00226993
-0.00165459
-8.16107e-06
-0.000694489
-4.01878e-05
-0.00159568
-9.59592e-05
-0.00212679
-0.000170487
-0.00239923
-0.00025748
-0.00251068
-0.000351549
-0.00253365
-0.000448982
-0.00251446
-0.000547632
-0.00247884
-0.000646475
-0.00243927
-0.000745153
-0.00240093
-0.000843669
-0.00236549
-0.000942216
-0.00233321
-0.00104111
-0.00230381
-0.00114081
-0.00227687
-0.00124193
-0.0022519
-0.00134529
-0.00222839
-0.00145176
-0.00220581
-0.00156176
-0.00218385
-0.00167621
-0.00216151
-0.00213182
-0.00181433
-1.2049e-05
-0.00068244
-5.16002e-05
-0.00155613
-0.000115814
-0.00206258
-0.000198304
-0.00231674
-0.000292308
-0.00241667
-0.000392463
-0.0024335
-0.00049526
-0.00241167
-0.000598766
-0.00237534
-0.000702102
-0.00233594
-0.000804987
-0.00229804
-0.000907431
-0.00226305
-0.00100957
-0.00223108
-0.00111158
-0.0022018
-0.00121369
-0.00217476
-0.00131613
-0.00214946
-0.00141909
-0.00212542
-0.00152266
-0.00210225
-0.00162705
-0.00207946
-0.00173296
-0.0020556
-0.00202721
-0.00183756
-1.58165e-05
-0.000666623
-6.2534e-05
-0.00150941
-0.00013469
-0.00199042
-0.000224606
-0.00222683
-0.000325118
-0.00231616
-0.000430907
-0.00232771
-0.000538667
-0.00230391
-0.000646653
-0.00226735
-0.000754117
-0.00222847
-0.000860845
-0.00219131
-0.000966866
-0.00215703
-0.0010723
-0.00212564
-0.0011773
-0.0020968
-0.00128198
-0.00207007
-0.00138644
-0.00204501
-0.00149068
-0.00202118
-0.00159469
-0.00199824
-0.0016984
-0.00197575
-0.00180114
-0.00195287
-0.00192878
-0.00189957
-1.94415e-05
-0.000647182
-7.29476e-05
-0.0014559
-0.000152545
-0.00191083
-0.000249368
-0.00213001
-0.000355906
-0.00220962
-0.000466908
-0.00221671
-0.000579256
-0.00219156
-0.000691376
-0.00215523
-0.000802628
-0.00211722
-0.000912845
-0.0020811
-0.00102206
-0.00204781
-0.00113037
-0.00201733
-0.00123786
-0.00198931
-0.00134461
-0.00196333
-0.0014506
-0.00193901
-0.00155577
-0.00191601
-0.00165998
-0.00189403
-0.00176294
-0.00187278
-0.00186401
-0.0018518
-0.00183067
-0.00196211
-2.2906e-05
-0.000624276
-8.28105e-05
-0.001396
-0.000169355
-0.00182428
-0.000272584
-0.00202678
-0.000384695
-0.00209751
-0.000500516
-0.00210088
-0.000617111
-0.00207497
-0.000733064
-0.00203928
-0.00084783
-0.00200245
-0.000961288
-0.00196764
-0.00107348
-0.00193562
-0.00118449
-0.00190632
-0.00129439
-0.00187941
-0.0014032
-0.00185452
-0.00151091
-0.0018313
-0.00161745
-0.00180947
-0.00172266
-0.00178882
-0.00182631
-0.00176913
-0.001928
-0.00175011
-0.00173153
-0.00202714
-2.61959e-05
-0.00059808
-9.21011e-05
-0.00133009
-0.000185107
-0.00173128
-0.000294261
-0.00191762
-0.000411516
-0.00198026
-0.00053179
-0.00198061
-0.000652318
-0.00195444
-0.000771829
-0.00191977
-0.000889866
-0.00188442
-0.00100635
-0.00185115
-0.00112134
-0.00182063
-0.00123492
-0.00179274
-0.00134716
-0.00176718
-0.00145807
-0.0017436
-0.00156766
-0.00172171
-0.00167586
-0.00170128
-0.00178256
-0.00168212
-0.00188762
-0.00166407
-0.00199084
-0.0016469
-0.00163043
-0.00209193
-2.93002e-05
-0.00056878
-0.000100805
-0.00125859
-0.000199795
-0.00163229
-0.000314414
-0.001803
-0.000436408
-0.00185826
-0.000560792
-0.00185623
-0.000684964
-0.00183027
-0.000807785
-0.00179695
-0.00092888
-0.00176332
-0.00104821
-0.00173182
-0.00116586
-0.00170298
-0.00128191
-0.00167669
-0.00139645
-0.00165264
-0.00150952
-0.00163053
-0.00162112
-0.00161011
-0.00173123
-0.00159117
-0.0018398
-0.00157355
-0.00194676
-0.00155711
-0.00205203
-0.00154162
-0.00152701
-0.00215546
-3.22102e-05
-0.00053657
-0.000108913
-0.00118189
-0.000213422
-0.00152778
-0.000333063
-0.00168336
-0.000459411
-0.00173191
-0.000587581
-0.00172806
-0.000715124
-0.00170272
-0.000841024
-0.00167105
-0.000964981
-0.00163936
-0.001087
-0.0016098
-0.00120718
-0.00158281
-0.00132562
-0.00155824
-0.00144243
-0.00153583
-0.00155766
-0.0015153
-0.00167136
-0.00149642
-0.00178352
-0.00147901
-0.00189415
-0.00146291
-0.00200325
-0.00144801
-0.00211079
-0.00143409
-0.00142109
-0.0022167
-3.49191e-05
-0.000501651
-0.000116417
-0.00110039
-0.000225991
-0.0014182
-0.000350227
-0.00155913
-0.000480561
-0.00160158
-0.000612207
-0.00159641
-0.000742861
-0.00157207
-0.000871619
-0.00154229
-0.000998248
-0.00151273
-0.00112279
-0.00148526
-0.00124537
-0.00146023
-0.00136612
-0.00143749
-0.00148514
-0.00141681
-0.00160252
-0.00139792
-0.00171833
-0.00138062
-0.00183261
-0.00136473
-0.00194539
-0.00135013
-0.0020567
-0.00133669
-0.00216657
-0.00132421
-0.00131269
-0.00227498
-3.74212e-05
-0.000464229
-0.000123314
-0.00101449
-0.000237507
-0.00130401
-0.000365924
-0.00143071
-0.000499888
-0.00146762
-0.000634712
-0.00146159
-0.000768225
-0.00143856
-0.000899622
-0.00141089
-0.00102873
-0.00138362
-0.00115564
-0.00135835
-0.00128049
-0.00133538
-0.00140343
-0.00131456
-0.00152458
-0.00129565
-0.00164406
-0.00127844
-0.00176194
-0.00126273
-0.00187831
-0.00124836
-0.00199322
-0.00123522
-0.00210674
-0.00122318
-0.0022189
-0.00121205
-0.00120186
-0.00232973
-3.97118e-05
-0.000424518
-0.0001296
-0.000924606
-0.000247974
-0.00118564
-0.000380171
-0.00129851
-0.000517419
-0.00133037
-0.000655128
-0.00132388
-0.000791249
-0.00130243
-0.000925068
-0.00127708
-0.00105647
-0.00125222
-0.00118557
-0.00122925
-0.00131254
-0.00120841
-0.00143754
-0.00118956
-0.00156071
-0.00117248
-0.00168219
-0.00115696
-0.00180207
-0.00114285
-0.00192045
-0.00112998
-0.00203742
-0.00111826
-0.00215305
-0.00110755
-0.00226741
-0.00109769
-0.00108874
-0.00238053
-4.17865e-05
-0.000382731
-0.000135272
-0.000831121
-0.000257395
-0.00106351
-0.000392977
-0.00116293
-0.000533172
-0.00119017
-0.000673478
-0.00118357
-0.000811958
-0.00116395
-0.000947978
-0.00114106
-0.00108148
-0.00111872
-0.00121259
-0.00109814
-0.00134151
-0.00107949
-0.00146842
-0.00106265
-0.00159348
-0.00104742
-0.00171683
-0.00103362
-0.00183859
-0.00102109
-0.00195887
-0.0010097
-0.00207777
-0.000999358
-0.00219538
-0.000989939
-0.00231177
-0.000981296
-0.000973493
-0.00242702
-4.36416e-05
-0.00033909
-0.000140325
-0.000734438
-0.000265773
-0.000938065
-0.000404353
-0.00102435
-0.000547161
-0.00104737
-0.000689778
-0.00104096
-0.000830365
-0.00102337
-0.00096836
-0.00100306
-0.00110374
-0.000983336
-0.00123668
-0.000965201
-0.00136738
-0.000948796
-0.00149603
-0.000933999
-0.00162281
-0.000920638
-0.00174788
-0.000908551
-0.00187136
-0.0008976
-0.00199339
-0.000887675
-0.00211406
-0.000878682
-0.00223349
-0.000870511
-0.00235175
-0.000863034
-0.000856323
-0.00246892
-4.52734e-05
-0.000293816
-0.000144757
-0.000634955
-0.000273107
-0.000809715
-0.000414303
-0.000883154
-0.000559393
-0.000902275
-0.000704036
-0.000896313
-0.000846477
-0.000880927
-0.000986216
-0.000863321
-0.00112327
-0.000846282
-0.00125783
-0.000830644
-0.00139011
-0.000816516
-0.00152032
-0.000803788
-0.00164865
-0.000792309
-0.00177526
-0.000781941
-0.00190029
-0.000772564
-0.00202388
-0.000764082
-0.00214615
-0.000756412
-0.00226721
-0.000749457
-0.00238714
-0.000743107
-0.000737436
-0.00250602
-4.66787e-05
-0.000247138
-0.000148563
-0.00053307
-0.000279397
-0.000678881
-0.00042283
-0.000739721
-0.000569876
-0.000755229
-0.000716257
-0.000749931
-0.000860295
-0.000736889
-0.00100154
-0.000722075
-0.00114004
-0.00070778
-0.00127601
-0.000694681
-0.00140966
-0.000682858
-0.00154124
-0.000672216
-0.00167092
-0.00066263
-0.00179888
-0.000653981
-0.00192527
-0.00064617
-0.00205023
-0.000639116
-0.0021739
-0.000632748
-0.00229637
-0.000626982
-0.00241775
-0.000621728
-0.000617056
-0.00253813
-4.78544e-05
-0.000199283
-0.000151741
-0.000429183
-0.000284642
-0.000545979
-0.000429936
-0.000594427
-0.000578609
-0.000606556
-0.000726442
-0.000602098
-0.000871816
-0.000591516
-0.00101433
-0.000579566
-0.00115405
-0.000568061
-0.00129119
-0.000557531
-0.00142602
-0.000548035
-0.00155874
-0.000539495
-0.00168956
-0.000531807
-0.00181867
-0.000524877
-0.00194621
-0.000518626
-0.00207234
-0.000512987
-0.00219718
-0.000507904
-0.00232086
-0.000503306
-0.00244346
-0.000499123
-0.000495417
-0.0025651
-4.8798e-05
-0.000150485
-0.000154287
-0.000323694
-0.00028884
-0.000411427
-0.00043562
-0.000447647
-0.000585595
-0.000456581
-0.00073459
-0.000453102
-0.000881037
-0.000445069
-0.00102456
-0.000436039
-0.00116526
-0.000427361
-0.00130337
-0.000419425
-0.00143913
-0.000412272
-0.00157279
-0.000405842
-0.00170453
-0.000400058
-0.00183456
-0.000394847
-0.00196304
-0.00039015
-0.00209011
-0.000385917
-0.00221591
-0.000382104
-0.00234056
-0.000378658
-0.00246416
-0.000375527
-0.000372762
-0.00258681
-4.95072e-05
-0.000100978
-0.000156198
-0.000217003
-0.000291988
-0.000275637
-0.000439881
-0.000299754
-0.000590831
-0.000305631
-0.000740699
-0.000303234
-0.000887952
-0.000297816
-0.00103224
-0.000291747
-0.00117368
-0.000285921
-0.00131251
-0.000280597
-0.00144899
-0.000275799
-0.00158334
-0.000271487
-0.00171579
-0.000267608
-0.00184652
-0.000264115
-0.0019757
-0.000260968
-0.00210349
-0.000258133
-0.00223001
-0.00025558
-0.00235539
-0.000253275
-0.00247974
-0.000251182
-0.000249336
-0.00260317
-4.99804e-05
-5.09975e-05
-0.000157472
-0.000109512
-0.000294085
-0.000139024
-0.000442718
-0.000151121
-0.000594318
-0.000154031
-0.000744767
-0.000152785
-0.000892558
-0.000150025
-0.00103736
-0.000146943
-0.0011793
-0.000143987
-0.00131861
-0.000141285
-0.00145556
-0.00013885
-0.00159038
-0.00013666
-0.0017233
-0.000134689
-0.0018545
-0.000132914
-0.00198416
-0.000131313
-0.00211242
-0.000129871
-0.00223943
-0.000128572
-0.0023653
-0.000127399
-0.00249015
-0.000126333
-0.000125393
-0.0026141
-5.02164e-05
-7.81087e-07
-0.000158106
-1.6216e-06
-0.000295129
-2.00102e-06
-0.000444131
-2.11904e-06
-0.000596053
-2.10897e-06
-0.000746792
-2.04614e-06
-0.00089485
-1.96672e-06
-0.00103991
-1.88538e-06
-0.00118209
-1.80702e-06
-0.00132164
-1.73288e-06
-0.00145883
-1.66302e-06
-0.00159389
-1.59724e-06
-0.00172704
-1.5353e-06
-0.00185848
-1.47696e-06
-0.00198837
-1.42199e-06
-0.00211687
-1.37022e-06
-0.00224412
-1.32147e-06
-0.00237025
-1.2755e-06
-0.00249535
-1.23195e-06
-1.19087e-06
-0.00261955
-5.02148e-05
4.94337e-05
-0.000158101
0.000106265
-0.00029512
0.000135018
-0.000444118
0.000146879
-0.000596037
0.00014981
-0.000746772
0.000148689
-0.000894828
0.000146089
-0.00103988
0.00014317
-0.00118206
0.000140371
-0.00132161
0.000137817
-0.00145879
0.000135521
-0.00159385
0.000133463
-0.00172701
0.000131616
-0.00185844
0.000129958
-0.00198833
0.000128467
-0.00211683
0.000127129
-0.00224408
0.000125928
-0.0023702
0.000124846
-0.0024953
0.000123868
0.00012301
-0.0026195
-4.99756e-05
9.94093e-05
-0.000157457
0.000213746
-0.000294059
0.000271619
-0.000442681
0.000295501
-0.000594269
0.000301399
-0.000744709
0.000299129
-0.000892491
0.000293871
-0.00103729
0.000287965
-0.00117921
0.000282297
-0.00131852
0.000277121
-0.00145546
0.000272463
-0.00159028
0.000268283
-0.00172319
0.000264529
-0.00185439
0.000261153
-0.00198403
0.000258116
-0.00211229
0.000255385
-0.00223929
0.000252931
-0.00236517
0.000250718
-0.00249001
0.000248712
0.000246949
-0.00261395
-4.94991e-05
0.000148908
-0.000156174
0.000320421
-0.000291944
0.00040739
-0.000439818
0.000443375
-0.000590751
0.000452331
-0.000740603
0.000448981
-0.00088784
0.000441108
-0.00103212
0.000432243
-0.00117354
0.000423723
-0.00131236
0.000415937
-0.00144882
0.000408925
-0.00158317
0.000402627
-0.00171561
0.000396968
-0.00184633
0.000391875
-0.0019755
0.000387289
-0.00210327
0.00038316
-0.00222979
0.000379446
-0.00235516
0.000376094
-0.0024795
0.000373051
0.000370368
-0.00260292
-4.87867e-05
0.000197695
-0.000154253
0.000425887
-0.000288779
0.000541916
-0.000435532
0.000590128
-0.000585482
0.000602281
-0.000734455
0.000597953
-0.00088088
0.000587534
-0.00102439
0.000575749
-0.00116507
0.000564404
-0.00130316
0.000554025
-0.0014389
0.000544671
-0.00157254
0.000536263
-0.00170427
0.000528702
-0.00183429
0.000521891
-0.00196275
0.000515751
-0.00208981
0.000510218
-0.0022156
0.000505234
-0.00234024
0.000500731
-0.00246382
0.000496636
0.000493015
-0.00258647
-4.784e-05
0.000245535
-0.000151697
0.000529744
-0.000284564
0.000674782
-0.000429823
0.000735387
-0.000578464
0.000750922
-0.000726268
0.000745757
-0.000871614
0.00073288
-0.0010141
0.000718234
-0.00115379
0.000704099
-0.00129092
0.000691151
-0.00142572
0.000679471
-0.00155842
0.000668964
-0.00168922
0.000659505
-0.00181831
0.000650976
-0.00194584
0.000643278
-0.00207195
0.000636331
-0.00219678
0.000630063
-0.00232044
0.000624393
-0.00244303
0.000619228
0.000614643
-0.00256466
-4.66611e-05
0.000292196
-0.00014851
0.000631593
-0.000279301
0.000805574
-0.000422692
0.000878778
-0.000569698
0.000897929
-0.000716043
0.000892102
-0.000860047
0.000876884
-0.00100126
0.000859448
-0.00113973
0.000842571
-0.00127567
0.000827087
-0.0014093
0.000813103
-0.00154085
0.000800511
-0.0016705
0.000789161
-0.00179844
0.000778913
-0.00192481
0.000769651
-0.00204976
0.000761276
-0.0021734
0.000753709
-0.00229586
0.00074685
-0.00241722
0.000740592
0.000735008
-0.00253759
-4.52529e-05
0.000337449
-0.000144694
0.000731034
-0.000272993
0.000933874
-0.000414139
0.00101992
-0.000559183
0.00104297
-0.000703783
0.0010367
-0.000846184
0.00101929
-0.000985885
0.000999149
-0.0011229
0.00097959
-0.00125743
0.00096161
-0.00138967
0.000945351
-0.00151986
0.000930691
-0.00164816
0.00091746
-0.00177474
0.000905496
-0.00189975
0.000894661
-0.00202332
0.000884846
-0.00214557
0.000875957
-0.0022666
0.000867884
-0.00238651
0.0008605
0.000853878
-0.00250538
-4.36181e-05
0.000381067
-0.000140252
0.000827668
-0.000265642
0.00105926
-0.000404164
0.00115845
-0.000546917
0.00118573
-0.000689485
0.00117927
-0.000830026
0.00115983
-0.000967977
0.0011371
-0.00110332
0.00111493
-0.00123622
0.00109451
-0.00136688
0.00107601
-0.00149549
0.00105931
-0.00162224
0.00104421
-0.00174728
0.00103053
-0.00187073
0.00101812
-0.00199273
0.00100684
-0.00211338
0.000996606
-0.00223278
0.000987287
-0.00235102
0.00097874
0.000971028
-0.00246817
-4.17602e-05
0.000422827
-0.00013519
0.000921098
-0.000257247
0.00118132
-0.000392763
0.00129396
-0.000532896
0.00132586
-0.000673145
0.00131952
-0.000811572
0.00129825
-0.000947543
0.00127307
-0.00108099
0.00124838
-0.00121206
0.00122558
-0.00134094
0.00120489
-0.00146781
0.00118618
-0.00159283
0.00116923
-0.00171614
0.00115384
-0.00183787
0.00113984
-0.00195812
0.00112709
-0.00207699
0.00111548
-0.00219457
0.00110487
-0.00231094
0.00109511
0.00108625
-0.00242616
-3.96828e-05
0.00046251
-0.00012951
0.00101092
-0.000247809
0.00129962
-0.000379931
0.00142608
-0.00051711
0.00146304
-0.000654755
0.00145716
-0.000790816
0.00143431
-0.00092458
0.00140684
-0.00105593
0.00137973
-0.00118498
0.00135463
-0.0013119
0.00133181
-0.00143685
0.00131113
-0.00155998
0.00129236
-0.00168142
0.00127528
-0.00180126
0.00125969
-0.00191961
0.00124544
-0.00203654
0.00123241
-0.00215214
0.00122047
-0.00226647
0.00120944
0.00119934
-0.00237956
-3.73898e-05
0.0004999
-0.000123215
0.00109675
-0.000237325
0.00141373
-0.00036566
0.00155442
-0.000499547
0.00159692
-0.000634299
0.00159192
-0.000767745
0.00156776
-0.00089908
0.00153817
-0.00102813
0.00150879
-0.00115499
0.00148148
-0.00127978
0.0014566
-0.00140267
0.00143401
-0.00152377
0.00141347
-0.0016432
0.00139471
-0.00176104
0.00137753
-0.00187737
0.00136176
-0.00199224
0.00134728
-0.00210572
0.00133395
-0.00221785
0.00132157
0.00131014
-0.00232865
-3.48854e-05
0.000534785
-0.00011631
0.00117817
-0.000225793
0.00152321
-0.000349938
0.00167856
-0.000480186
0.00172717
-0.000611753
0.00172348
-0.000742335
0.00169834
-0.000871024
0.00166686
-0.000997588
0.00163535
-0.00112207
0.00160596
-0.00124459
0.00157912
-0.00136528
0.0015547
-0.00148425
0.00153243
-0.00160158
0.00151204
-0.00171734
0.00149329
-0.00183157
0.00147599
-0.0019443
0.00146002
-0.00205558
0.00144522
-0.00216541
0.0014314
0.00141852
-0.00227379
-3.21745e-05
0.00056696
-0.000108797
0.0012548
-0.000213209
0.00162762
-0.00033275
0.0017981
-0.000459004
0.00185343
-0.000587087
0.00185157
-0.00071455
0.00182581
-0.000840375
0.00179268
-0.000964261
0.00175924
-0.00108621
0.00172791
-0.00120632
0.00169923
-0.00132471
0.00167309
-0.00144146
0.00164918
-0.00155663
0.00162722
-0.00167027
0.00160693
-0.00178238
0.00158811
-0.00189297
0.0015706
-0.00200202
0.00155428
-0.00210952
0.0015389
0.00152439
-0.00221539
-2.92628e-05
0.000596223
-0.000100683
0.00132622
-0.000199567
0.00172651
-0.000314078
0.00191262
-0.000435969
0.00197532
-0.000560259
0.00197586
-0.000684343
0.00194989
-0.000807082
0.00191542
-0.0009281
0.00188026
-0.00104736
0.00184717
-0.00116493
0.00181681
-0.00128092
0.00178907
-0.00139539
0.00176365
-0.00150839
0.00174022
-0.00161993
0.00171846
-0.00172998
0.00169816
-0.0018385
0.00167912
-0.00194542
0.00166119
-0.00205064
0.00164413
0.00162777
-0.00215402
-2.61573e-05
0.00062238
-9.19726e-05
0.00139203
-0.000184865
0.0018194
-0.000293902
0.00202165
-0.000411046
0.00209246
-0.000531217
0.00209603
-0.000651651
0.00207032
-0.000771073
0.00203485
-0.000889027
0.00199821
-0.00100543
0.00196357
-0.00112034
0.00193172
-0.00123385
0.00190258
-0.00134601
0.00187582
-0.00145686
0.00185106
-0.00156638
0.00182798
-0.00167451
0.00180629
-0.00178115
0.00178576
-0.00188615
0.0017662
-0.00198932
0.00174729
0.00172883
-0.00209037
-2.28666e-05
0.000645247
-8.26767e-05
0.00145184
-0.000169101
0.00190583
-0.000272204
0.00212476
-0.000384194
0.00220445
-0.000499905
0.00221174
-0.000616398
0.00218682
-0.000732255
0.0021507
-0.000846931
0.00211289
-0.000960302
0.00207694
-0.00107241
0.00204383
-0.00118334
0.00201351
-0.00129315
0.00198563
-0.00140189
0.0019598
-0.00150953
0.00193562
-0.00161599
0.00191275
-0.00172114
0.00189091
-0.00182473
0.00186978
-0.00192636
0.00184892
0.00182792
-0.00202545
-1.94017e-05
0.000664648
-7.28096e-05
0.00150525
-0.000152279
0.0019853
-0.000248968
0.00222144
-0.000355377
0.00231086
-0.00046626
0.00232262
-0.000578498
0.00229905
-0.000690516
0.00226272
-0.000801671
0.00222404
-0.000911794
0.00218707
-0.00102092
0.00215295
-0.00112914
0.00212173
-0.00123654
0.00209304
-0.0013432
0.00206646
-0.00144912
0.00204153
-0.00155421
0.00201784
-0.00165833
0.00199504
-0.00176123
0.00197267
-0.00186223
0.00194992
0.00192597
-0.00196027
-1.57769e-05
0.000680425
-6.2393e-05
0.00155187
-0.000134414
0.00205732
-0.000224187
0.00231122
-0.000324561
0.00241123
-0.000430223
0.00242828
-0.000537866
0.0024067
-0.000645743
0.0023706
-0.000753103
0.0023314
-0.00085973
0.00229369
-0.000965654
0.00225888
-0.00107099
0.00222707
-0.0011759
0.00219794
-0.00128049
0.00217105
-0.00138485
0.0021459
-0.001489
0.002122
-0.00159292
0.00209895
-0.00169655
0.0020763
-0.0017992
0.00205257
0.00202434
-0.00189757
-1.20103e-05
0.000692435
-5.14578e-05
0.00159131
-0.00011553
0.00212139
-0.000197868
0.00239355
-0.000291726
0.00250509
-0.000391745
0.0025283
-0.000494418
0.00250937
-0.000597807
0.00247399
-0.000701033
0.00243463
-0.000803811
0.00239647
-0.000906151
0.00236122
-0.00100819
0.0023291
-0.0011101
0.00229986
-0.00121211
0.00227306
-0.00131445
0.00224824
-0.00141732
0.00222486
-0.00152079
0.00220242
-0.00162508
0.0021806
-0.00173089
0.00215838
0.00212885
-0.0018354
-8.12398e-06
0.000700559
-4.00457e-05
0.00162324
-9.56705e-05
0.00217701
-0.000170038
0.00246792
-0.000256875
0.00259193
-0.0003508
0.00262223
-0.0004481
0.00260667
-0.000546627
0.00257252
-0.000645354
0.00253335
-0.00074392
0.00249504
-0.000842326
0.00245962
-0.000940764
0.00242754
-0.00103955
0.00239864
-0.00113914
0.00237265
-0.00124014
0.00234924
-0.00134339
0.00232811
-0.00144974
0.00230877
-0.00155959
0.00229045
-0.00167392
0.00227271
0.00226673
-0.0018118
-4.15688e-06
0.000704716
-2.82309e-05
0.00164731
-7.49199e-05
0.0022237
-0.00014077
0.00253377
-0.00022006
0.00267122
-0.000307416
0.00270958
-0.000398915
0.00269817
-0.000492176
0.00266578
-0.000585988
0.00262717
-0.000679877
0.00258893
-0.000773775
0.00255352
-0.000867824
0.00252159
-0.000962268
0.00249309
-0.00105739
0.00246777
-0.00115347