/*--------------------------------*- C++ -*----------------------------------*\
  =========                 |
  \\      /  F ield         | OpenFOAM: The Open Source CFD Toolbox
   \\    /   O peration     | Website:  https://openfoam.org
    \\  /    A nd           | Version:  6.0
     \\/     M anipulation  |
\*---------------------------------------------------------------------------*/
FoamFile
{
    version     2.0;
    format      ascii;
    class       volScalarField;
    location    "94";
    object      p;
}
// * * * * * * * * * * * * * * * * * * * * * * * * * * * * * * * * * * * * * //

dimensions      [0 2 -2 0 0 0 0];

internalField   nonuniform List<scalar> 
4000
(
-0.71928
-0.703678
-0.687376
-0.66655
-0.640426
-0.610579
-0.578911
-0.547054
-0.516176
-0.486968
-0.459744
-0.434572
-0.411376
-0.390015
-0.370319
-0.352124
-0.335276
-0.319597
-0.304856
-0.291384
-0.722244
-0.706288
-0.688794
-0.665897
-0.637263
-0.604952
-0.571179
-0.537692
-0.50564
-0.475637
-0.447906
-0.422434
-0.399087
-0.377679
-0.358012
-0.339901
-0.323178
-0.307643
-0.293051
-0.279835
-0.722531
-0.706304
-0.687573
-0.662549
-0.631442
-0.596808
-0.561138
-0.526251
-0.493248
-0.462644
-0.43457
-0.408936
-0.385552
-0.364194
-0.34464
-0.326687
-0.310155
-0.294821
-0.280435
-0.267532
-0.719804
-0.703391
-0.683396
-0.656241
-0.622759
-0.585997
-0.548677
-0.512645
-0.478923
-0.44792
-0.419672
-0.394016
-0.370715
-0.349511
-0.33016
-0.312445
-0.296174
-0.281105
-0.266985
-0.254454
-0.71376
-0.697244
-0.675984
-0.646741
-0.611042
-0.572396
-0.533706
-0.496799
-0.462599
-0.431402
-0.403152
-0.377621
-0.354527
-0.333584
-0.314531
-0.297139
-0.281207
-0.266471
-0.252684
-0.240591
-0.704129
-0.687594
-0.665097
-0.633868
-0.596164
-0.555922
-0.516164
-0.478667
-0.444235
-0.413052
-0.384974
-0.359716
-0.336956
-0.316388
-0.297732
-0.280754
-0.265242
-0.250912
-0.237529
-0.22594
-0.69069
-0.674223
-0.65055
-0.617485
-0.57804
-0.536521
-0.496018
-0.45822
-0.423804
-0.392843
-0.365113
-0.340276
-0.317983
-0.297904
-0.27975
-0.263281
-0.248274
-0.234429
-0.221524
-0.21051
-0.673273
-0.656963
-0.632208
-0.597511
-0.556628
-0.514177
-0.47326
-0.435452
-0.401298
-0.370766
-0.343558
-0.319295
-0.297599
-0.278128
-0.260585
-0.244722
-0.230309
-0.217031
-0.204685
-0.194314
-0.651765
-0.635705
-0.609997
-0.573912
-0.53193
-0.488907
-0.447909
-0.41038
-0.37673
-0.346827
-0.320314
-0.296775
-0.275811
-0.257069
-0.240245
-0.22509
-0.211364
-0.198741
-0.187037
-0.177378
-0.626114
-0.610399
-0.583898
-0.54671
-0.503989
-0.460762
-0.420014
-0.383042
-0.350129
-0.321054
-0.295404
-0.272735
-0.252636
-0.234743
-0.218751
-0.204407
-0.191466
-0.179589
-0.168617
-0.159743
-0.596327
-0.581058
-0.553954
-0.515974
-0.472889
-0.429824
-0.389647
-0.353502
-0.321549
-0.293487
-0.268861
-0.247207
-0.228101
-0.211177
-0.196128
-0.182701
-0.170645
-0.159614
-0.149471
-0.141462
-0.562477
-0.547759
-0.520263
-0.481825
-0.438755
-0.396209
-0.35691
-0.321845
-0.291059
-0.264186
-0.240738
-0.220233
-0.202244
-0.186405
-0.172409
-0.160005
-0.148937
-0.138856
-0.12965
-0.122595
-0.524695
-0.510635
-0.482979
-0.444427
-0.401748
-0.360064
-0.32193
-0.288179
-0.258753
-0.23323
-0.211097
-0.191866
-0.17511
-0.160464
-0.147627
-0.136349
-0.126373
-0.117353
-0.109199
-0.103177
-0.483175
-0.46988
-0.442308
-0.40399
-0.362065
-0.321566
-0.284863
-0.252638
-0.224743
-0.200712
-0.180017
-0.16217
-0.146748
-0.133395
-0.121814
-0.11176
-0.10298
-0.0951369
-0.08815
-0.0832065
-0.438162
-0.425742
-0.398503
-0.360763
-0.319939
-0.280924
-0.24589
-0.215381
-0.189166
-0.166749
-0.147594
-0.131221
-0.117215
-0.105234
-0.0949916
-0.0862522
-0.0787714
-0.0722262
-0.0665142
-0.0626803
-0.389956
-0.378516
-0.351863
-0.315033
-0.275634
-0.238373
-0.205222
-0.17659
-0.152182
-0.131477
-0.113942
-0.0991072
-0.0865762
-0.0760228
-0.0671809
-0.0598285
-0.0537363
-0.048602
-0.0442987
-0.0417358
-0.338902
-0.328543
-0.302722
-0.267119
-0.229441
-0.194177
-0.163093
-0.136476
-0.113976
-0.0950577
-0.0791964
-0.0659391
-0.0549128
-0.045818
-0.038415
-0.0324998
-0.0278632
-0.024267
-0.0216507
-0.0208284
-0.285384
-0.276203
-0.251451
-0.217368
-0.181682
-0.148627
-0.119768
-0.0952779
-0.0747615
-0.0576767
-0.0435109
-0.0318331
-0.0223006
-0.0146525
-0.0086877
-0.00422576
-0.0011063
0.000710411
0.00104499
-0.000498378
-0.22982
-0.221904
-0.198444
-0.166153
-0.132697
-0.102036
-0.0755342
-0.0532621
-0.0347846
-0.019555
-0.00707184
0.00307636
0.0112032
0.0175289
0.0222127
0.0253994
0.0271156
0.0269568
0.0243782
0.0204069
-0.172653
-0.16608
-0.144118
-0.113863
-0.0828468
-0.0547381
-0.0307059
-0.0107276
0.00566588
0.0190265
0.0298514
0.038546
0.0454178
0.0506835
0.0545149
0.0570735
0.0582353
0.0570397
0.0527236
0.0483465
-0.114349
-0.109184
-0.0889052
-0.0608976
-0.0325008
-0.00707731
0.0143898
0.0320066
0.0462693
0.0577321
0.0668889
0.074147
0.0798279
0.0841899
0.0874973
0.090049
0.0917879
0.0915876
0.0891798
0.0937803
-0.0553722
-0.0516732
-0.0332393
-0.00766228
0.017967
0.0405977
0.0594228
0.0746208
0.0867066
0.0962301
0.103675
0.109438
0.113839
0.117149
0.119648
0.121618
0.12302
0.123311
0.1235
0.130442
0.00379719
0.00598797
0.0224404
0.0454384
0.0681851
0.0879428
0.104069
0.116806
0.126677
0.134225
0.139919
0.144143
0.147211
0.149389
0.150944
0.152106
0.152836
0.152792
0.152998
0.158699
0.0626833
0.0633373
0.0777
0.0980062
0.117789
0.134623
0.148017
0.158265
0.165896
0.171436
0.175334
0.177959
0.179606
0.180529
0.180971
0.181139
0.181009
0.180321
0.17991
0.183928
0.120817
0.11992
0.132115
0.149654
0.166428
0.180317
0.190972
0.198727
0.20411
0.207628
0.209708
0.210695
0.210864
0.210448
0.209662
0.208679
0.207466
0.205797
0.204434
0.206905
0.17774
0.175294
0.185273
0.200006
0.213763
0.224719
0.232653
0.237935
0.241085
0.242588
0.242847
0.242182
0.240848
0.239053
0.236987
0.234796
0.232431
0.22969
0.227296
0.22829
0.23301
0.229032
0.236779
0.248706
0.259473
0.267539
0.272801
0.275655
0.27661
0.276129
0.274588
0.272283
0.269447
0.266265
0.262905
0.259485
0.255947
0.252121
0.248696
0.248301
0.286202
0.280724
0.286255
0.295413
0.303253
0.308504
0.311169
0.311665
0.310488
0.308076
0.304781
0.300874
0.296565
0.292022
0.287389
0.282763
0.278081
0.273203
0.268778
0.267067
0.336913
0.329983
0.333343
0.339805
0.344814
0.347356
0.347527
0.34576
0.342536
0.338269
0.333285
0.327835
0.322107
0.31625
0.31039
0.304604
0.29883
0.292955
0.287577
0.284624
0.384763
0.376444
0.377708
0.381581
0.383889
0.383854
0.381658
0.377745
0.37258
0.366554
0.359969
0.353054
0.345979
0.338874
0.33185
0.324968
0.318169
0.311362
0.305085
0.300965
0.429397
0.419768
0.419037
0.420461
0.420226
0.417775
0.413363
0.407442
0.400461
0.392788
0.384704
0.376418
0.368082
0.359813
0.351701
0.343799
0.336051
0.328384
0.321269
0.31606
0.470488
0.45964
0.457045
0.456187
0.453596
0.44891
0.442454
0.434681
0.426026
0.416835
0.40737
0.397821
0.388324
0.378981
0.369871
0.361033
0.352419
0.343969
0.336081
0.329866
0.507737
0.495775
0.491468
0.488523
0.483786
0.477072
0.46876
0.459308
0.449136
0.43857
0.427853
0.417159
0.406611
0.396297
0.386283
0.376601
0.367208
0.358055
0.349466
0.342333
0.540877
0.527918
0.522072
0.51726
0.510607
0.502088
0.492126
0.481184
0.469663
0.457876
0.446047
0.434337
0.422855
0.41168
0.400865
0.390436
0.380356
0.370582
0.361368
0.353414
0.56967
0.555842
0.548651
0.54221
0.533894
0.523807
0.512417
0.500182
0.487494
0.474649
0.461858
0.449267
0.436978
0.425056
0.413549
0.402474
0.391802
0.381493
0.371734
0.363062
0.593913
0.579352
0.571025
0.563214
0.5535
0.5421
0.529512
0.516195
0.502529
0.488798
0.4752
0.461873
0.448906
0.43636
0.424273
0.412658
0.40149
0.390734
0.380516
0.371235
0.613437
0.598289
0.589049
0.580138
0.569306
0.556857
0.543312
0.529131
0.514685
0.500246
0.486004
0.472088
0.458581
0.445535
0.432984
0.420937
0.409374
0.398261
0.387672
0.377899
0.628107
0.612522
0.602604
0.592876
0.581216
0.567991
0.553739
0.538919
0.523895
0.508932
0.494212
0.479859
0.465951
0.452535
0.439639
0.427271
0.415414
0.404036
0.393169
0.383023
0.637825
0.62196
0.611604
0.601352
0.589161
0.575439
0.560734
0.545504
0.530109
0.514809
0.499783
0.485148
0.470981
0.457326
0.444206
0.431629
0.419582
0.408031
0.396982
0.386587
0.642529
0.626542
0.615995
0.605516
0.593097
0.57916
0.564259
0.548852
0.533296
0.51785
0.502689
0.48793
0.473648
0.459885
0.446664
0.433993
0.421859
0.410229
0.399095
0.388579
0.642194
0.626246
0.615756
0.605349
0.593004
0.579138
0.564301
0.54895
0.533444
0.518041
0.502919
0.488194
0.473941
0.460204
0.447006
0.434354
0.422237
0.410622
0.399501
0.388991
0.636831
0.621081
0.610897
0.600861
0.588893
0.575381
0.560866
0.545805
0.530559
0.51539
0.500479
0.485945
0.471866
0.458287
0.445234
0.432716
0.42072
0.409215
0.398205
0.387828
0.626491
0.611096
0.601462
0.592089
0.580798
0.567921
0.553984
0.539443
0.524666
0.509919
0.49539
0.481203
0.46744
0.454152
0.441366
0.429094
0.417322
0.406019
0.395216
0.385099
0.611258
0.596373
0.587524
0.579103
0.568782
0.556815
0.543706
0.529912
0.515807
0.501668
0.487689
0.474003
0.460697
0.447828
0.435429
0.423514
0.412067
0.401059
0.390558
0.380823
0.591254
0.577026
0.569192
0.561998
0.55293
0.542141
0.530105
0.517278
0.504045
0.490693
0.477428
0.464392
0.451681
0.439357
0.427462
0.416014
0.404992
0.394368
0.384259
0.375026
0.566639
0.553208
0.546603
0.540899
0.533355
0.524002
0.513274
0.501627
0.489458
0.477068
0.464676
0.452435
0.44045
0.428794
0.417517
0.406641
0.396142
0.38599
0.37636
0.367741
0.537604
0.525103
0.519926
0.515958
0.510196
0.502522
0.493326
0.483063
0.472142
0.46088
0.449512
0.438204
0.427074
0.416203
0.405653
0.395452
0.38557
0.375975
0.366907
0.359008
0.504375
0.492926
0.48936
0.487355
0.483613
0.477846
0.470394
0.461706
0.452206
0.44223
0.43203
0.421787
0.411631
0.401658
0.391939
0.38251
0.373337
0.364382
0.355954
0.348875
0.467213
0.456925
0.45513
0.455292
0.453789
0.450142
0.444629
0.437695
0.429778
0.421234
0.412335
0.403279
0.394212
0.385241
0.376451
0.367887
0.35951
0.351274
0.343559
0.337392
0.426406
0.417378
0.417493
0.42
0.42093
0.419595
0.416198
0.41118
0.404994
0.398017
0.390542
0.382785
0.374909
0.367037
0.359267
0.351656
0.344159
0.336718
0.329783
0.324613
0.382276
0.374591
0.376729
0.381732
0.385263
0.386407
0.385286
0.38233
0.378006
0.372715
0.366773
0.360416
0.353825
0.347139
0.340471
0.333891
0.327353
0.320779
0.314686
0.310591
0.335171
0.328898
0.333144
0.340761
0.347035
0.350801
0.352092
0.351322
0.348974
0.345474
0.341158
0.336288
0.331061
0.325635
0.320141
0.314664
0.309155
0.303517
0.298322
0.295375
0.285464
0.280659
0.287069
0.297387
0.30651
0.313014
0.316828
0.318348
0.318071
0.316446
0.313834
0.310519
0.306721
0.302615
0.298353
0.294037
0.289619
0.284977
0.280731
0.279001
0.233555
0.230257
0.238858
0.251924
0.263972
0.2733
0.279723
0.283613
0.285479
0.285792
0.28494
0.283232
0.280907
0.278162
0.275171
0.272056
0.268776
0.265181
0.261927
0.261483
0.179864
0.178097
0.188884
0.204711
0.219723
0.231927
0.241017
0.247332
0.251388
0.253682
0.254625
0.25455
0.253721
0.252356
0.25065
0.248755
0.246637
0.244118
0.241885
0.242795
0.124833
0.124604
0.137539
0.156103
0.17408
0.189182
0.200967
0.209734
0.216005
0.220296
0.223044
0.224605
0.225266
0.225264
0.224823
0.224121
0.223141
0.221683
0.22047
0.222818
0.0689182
0.0702193
0.0852356
0.106469
0.127376
0.145363
0.159841
0.171062
0.179548
0.18583
0.190368
0.19354
0.195654
0.19697
0.197737
0.198165
0.198252
0.197768
0.1975
0.201351
0.0125894
0.0153989
0.0323964
0.0561957
0.0799598
0.100786
0.117928
0.131579
0.142255
0.1505
0.156792
0.161528
0.165029
0.167572
0.169426
0.170829
0.17176
0.171915
0.172262
0.177737
-0.0436742
-0.0393925
-0.0205427
0.00568146
0.0321916
0.0557792
0.0755268
0.0915619
0.104383
0.114543
0.122532
0.128758
0.13355
0.137188
0.139956
0.142138
0.143717
0.144198
0.144545
0.151248
-0.099389
-0.0936851
-0.0731391
-0.0446677
-0.0155575
0.0106826
0.032955
0.0513086
0.0662193
0.0782401
0.0878716
0.0955301
0.101547
0.106191
0.109731
0.11247
0.114374
0.114392
0.112263
0.116749
-0.154072
-0.147008
-0.124948
-0.0944405
-0.0629101
-0.034155
-0.00946134
0.0111303
0.0280638
0.0418868
0.0531011
0.0621213
0.0692651
0.0747604
0.0787894
0.0815255
0.0828693
0.081893
0.0778161
0.0737381
-0.207255
-0.198902
-0.175529
-0.143228
-0.109489
-0.0783829
-0.0513911
-0.0286538
-0.00976649
0.00580924
0.0185773
0.028956
0.0372675
0.0437407
0.0485427
0.0518273
0.0536342
0.0535602
0.0510327
0.0471485
-0.258477
-0.248917
-0.224452
-0.190627
-0.154921
-0.121655
-0.0925073
-0.0677268
-0.0469548
-0.0296625
-0.0153385
-0.00354817
0.00605668
0.0137422
0.0197137
0.0241559
0.0272331
0.028979
0.0292025
0.0275568
-0.307301
-0.296623
-0.271302
-0.236249
-0.198849
-0.163639
-0.132498
-0.105792
-0.0832151
-0.0642505
-0.0483788
-0.0351464
-0.0241778
-0.0151703
-0.00788183
-0.00210603
0.00236563
0.00576468
0.00816447
0.00882555
-0.353321
-0.34162
-0.315689
-0.279726
-0.24093
-0.204023
-0.171077
-0.142586
-0.118304
-0.0977358
-0.0803584
-0.0657034
-0.0533751
-0.0430459
-0.0344478
-0.0273573
-0.0215482
-0.0167274
-0.0127425
-0.0103891
-0.396168
-0.383545
-0.357254
-0.320716
-0.280851
-0.242521
-0.207985
-0.177873
-0.152012
-0.129937
-0.111127
-0.0951052
-0.0814631
-0.0698559
-0.0599987
-0.0516538
-0.0445814
-0.0384709
-0.0331936
-0.0296634
-0.435517
-0.422075
-0.395676
-0.358909
-0.318326
-0.278873
-0.24299
-0.211448
-0.184159
-0.160696
-0.140552
-0.123247
-0.108363
-0.0955472
-0.0845036
-0.0749869
-0.0667493
-0.0594682
-0.0530386
-0.0485192
-0.471096
-0.456938
-0.430676
-0.394032
-0.353098
-0.31285
-0.275889
-0.243131
-0.214588
-0.189881
-0.168523
-0.150039
-0.134011
-0.120078
-0.107941
-0.0973513
-0.0880586
-0.0797307
-0.0722566
-0.0667797
-0.502688
-0.487917
-0.462025
-0.425854
-0.384949
-0.344253
-0.306506
-0.272772
-0.243169
-0.21738
-0.194949
-0.175412
-0.158354
-0.143414
-0.13029
-0.118733
-0.108495
-0.0992409
-0.0908378
-0.0844451
-0.53014
-0.514856
-0.489548
-0.454186
-0.413696
-0.372916
-0.334695
-0.300244
-0.269794
-0.243105
-0.219756
-0.199306
-0.181345
-0.165518
-0.151522
-0.13911
-0.128037
-0.117974
-0.108763
-0.101539
-0.553361
-0.537662
-0.513126
-0.478891
-0.439196
-0.398704
-0.360338
-0.325445
-0.29438
-0.266983
-0.242886
-0.221673
-0.202947
-0.18636
-0.171613
-0.158459
-0.146664
-0.135903
-0.126002
-0.118046
-0.572328
-0.556307
-0.532704
-0.499882
-0.461348
-0.42152
-0.383347
-0.348301
-0.316862
-0.288964
-0.264297
-0.242476
-0.223128
-0.205913
-0.190537
-0.176759
-0.16435
-0.153002
-0.142516
-0.13392
-0.587085
-0.570833
-0.548288
-0.517126
-0.480097
-0.441299
-0.403662
-0.36876
-0.337199
-0.309013
-0.283958
-0.261694
-0.241868
-0.224157
-0.208276
-0.193988
-0.181074
-0.169239
-0.158269
-0.149114
-0.597742
-0.581346
-0.55995
-0.530649
-0.49543
-0.458014
-0.421251
-0.386794
-0.355368
-0.327112
-0.301859
-0.279315
-0.259158
-0.241085
-0.22482
-0.210134
-0.196819
-0.184595
-0.173233
-0.1636
-0.604472
-0.588019
-0.567826
-0.540532
-0.507386
-0.471674
-0.436114
-0.402401
-0.371369
-0.343264
-0.318001
-0.295341
-0.275
-0.256695
-0.240166
-0.225193
-0.211577
-0.199057
-0.187393
-0.177362
-0.607508
-0.591084
-0.572111
-0.546914
-0.516049
-0.482328
-0.448279
-0.415602
-0.385221
-0.357487
-0.332402
-0.30979
-0.289408
-0.271
-0.254324
-0.23917
-0.225351
-0.212626
-0.200748
-0.190398
-0.607134
-0.590825
-0.573061
-0.54999
-0.521552
-0.490061
-0.457803
-0.426438
-0.396958
-0.369813
-0.345093
-0.32269
-0.302408
-0.284022
-0.267312
-0.25208
-0.238153
-0.225308
-0.213299
-0.202711
-0.603679
-0.587574
-0.570979
-0.550007
-0.524077
-0.494999
-0.464774
-0.434978
-0.406639
-0.380294
-0.356122
-0.334085
-0.314039
-0.295797
-0.279161
-0.263952
-0.250006
-0.237124
-0.225064
-0.214314
-0.597507
-0.581696
-0.566211
-0.547259
-0.523846
-0.497302
-0.469306
-0.441303
-0.414329
-0.388986
-0.365538
-0.34402
-0.324343
-0.306361
-0.289905
-0.274811
-0.260934
-0.248094
-0.236058
-0.225225
-0.589004
-0.57358
-0.559137
-0.542083
-0.52113
-0.49717
-0.471543
-0.445523
-0.420114
-0.395965
-0.373409
-0.352557
-0.333377
-0.315767
-0.299589
-0.284703
-0.270977
-0.258253
-0.246313
-0.235468
0.032351
0.00155461
-0.0198707
-0.0299745
-0.0393863
-0.052148
-0.0663423
-0.0799466
-0.0926786
-0.104977
-0.11708
-0.128937
-0.140431
-0.151497
-0.16212
-0.1723
-0.182036
-0.191322
-0.200159
-0.208553
-0.0152386
-0.0292508
-0.0398128
-0.0465414
-0.0522888
-0.0590042
-0.0665269
-0.0739377
-0.080784
-0.0871542
-0.0932526
-0.0991571
-0.104841
-0.110264
-0.115414
-0.120298
-0.124931
-0.12932
-0.133471
-0.137391
-0.0172869
-0.0226691
-0.0258241
-0.0292181
-0.0331668
-0.0372809
-0.0413438
-0.0453009
-0.0491352
-0.0528524
-0.0564787
-0.0600363
-0.0635303
-0.0669553
-0.0703072
-0.0735869
-0.0767982
-0.079945
-0.0830302
-0.0860565
-0.014583
-0.0176221
-0.0192837
-0.021666
-0.0247846
-0.02798
-0.030946
-0.0337345
-0.0364536
-0.0391363
-0.0417679
-0.0443328
-0.0468276
-0.0492545
-0.0516154
-0.0539112
-0.0561427
-0.0583115
-0.0604194
-0.0624692
-0.0114889
-0.0137884
-0.0148663
-0.0162866
-0.0182525
-0.0203391
-0.0222721
-0.0240523
-0.0257674
-0.0274638
-0.0291399
-0.0307826
-0.0323869
-0.0339557
-0.0354935
-0.0370036
-0.0384882
-0.039949
-0.0413882
-0.042808
-0.00865182
-0.0104105
-0.0111456
-0.0120223
-0.0132911
-0.0146994
-0.0160395
-0.0172844
-0.0184854
-0.019679
-0.0208696
-0.022049
-0.0232114
-0.0243565
-0.025486
-0.0266012
-0.0277028
-0.0287908
-0.0298655
-0.0309273
-0.0056113
-0.00688859
-0.00739565
-0.00798252
-0.00884912
-0.00983219
-0.0107844
-0.0116775
-0.0125412
-0.0134003
-0.0142598
-0.0151149
-0.0159615
-0.0167989
-0.0176278
-0.0184491
-0.0192632
-0.0200705
-0.0208711
-0.0216655
-0.00273159
-0.00364049
-0.00403538
-0.00449564
-0.00514702
-0.00587962
-0.00659637
-0.00727714
-0.00793959
-0.00859939
-0.00926006
-0.00991889
-0.0105732
-0.0112223
-0.0118663
-0.0125057
-0.0131407
-0.0137712
-0.0143975
-0.0150196
-0.000238687
-0.000856469
-0.00118276
-0.00158212
-0.00210619
-0.00267566
-0.00323195
-0.00376556
-0.00428795
-0.00480816
-0.00532793
-0.00584561
-0.00635964
-0.00686956
-0.00737551
-0.00787772
-0.0083763
-0.00887133
-0.00936288
-0.00985105
0.00171168
0.00131451
0.00104293
0.000685426
0.000247521
-0.000208165
-0.000649085
-0.00107475
-0.00149385
-0.00191131
-0.00232744
-0.00274103
-0.00315131
-0.00355815
-0.00396174
-0.00436224
-0.00475976
-0.0051544
-0.00554626
-0.00593543
0.0031462
0.00290683
0.00268951
0.0023804
0.00201841
0.00165549
0.00130876
0.000973227
0.00064154
0.00031102
-1.78289e-05
-0.000344042
-0.000667269
-0.000987635
-0.00130538
-0.0016207
-0.00193371
-0.00224455
-0.00255337
-0.00286026
0.00417162
0.00404327
0.00388162
0.00363006
0.00334196
0.00306111
0.00279622
0.00253992
0.00228578
0.00203225
0.00178014
0.00153025
0.0012827
0.00103722
0.000793544
0.000551459
0.000310816
7.14654e-05
-0.000166756
-0.000403943
0.00493213
0.00489325
0.00479137
0.00460247
0.0043862
0.00418087
0.00399066
0.00380725
0.00362485
0.00344242
0.00326083
0.0030807
0.00290199
0.00272435
0.00254746
0.00237106
0.00219497
0.002019
0.00184298
0.00166679
0.00552428
0.00557431
0.00553764
0.00541149
0.00526274
0.00512782
0.00500802
0.00489389
0.00477965
0.00466446
0.00454915
0.00443417
0.00431932
0.0042041
0.00408809
0.00397099
0.00385255
0.00373256
0.00361082
0.00348719
0.00601152
0.00617908
0.00623235
0.00618343
0.00611187
0.00605712
0.00601857
0.00598459
0.00594839
0.00590888
0.00586687
0.00582267
0.00577589
0.0057259
0.00567217
0.00561434
0.00555217
0.00548547
0.00541408
0.00533794
0.00630314
0.00658169
0.00676808
0.00685834
0.00691781
0.00698351
0.00705755
0.00713015
0.00719458
0.00724917
0.00729444
0.00733078
0.00735804
0.00737587
0.00738399
0.00738234
0.00737097
0.00735002
0.00731968
0.00728025
0.00693911
0.00730376
0.00772801
0.00811585
0.00844298
0.00872293
0.00897124
0.0091939
0.00939076
0.00956075
0.00970404
0.00982185
0.00991568
0.00998691
0.0100368
0.0100665
0.0100773
0.0100703
0.0100469
0.0100081
0.0098747
0.0105111
0.0111772
0.0117395
0.012192
0.0125653
0.0128806
0.013146
0.0133641
0.0135368
0.0136672
0.0137589
0.0138154
0.0138398
0.0138353
0.0138044
0.0137497
0.0136737
0.0135786
0.0134665
0.0215044
0.0252738
0.0266744
0.0261891
0.0252844
0.0246373
0.0242339
0.0238891
0.0235061
0.0230819
0.0226417
0.0222014
0.0217643
0.0213286
0.0208935
0.0204597
0.0200285
0.0196009
0.0191778
0.0187598
0.0334571
0.0455999
0.0493584
0.0469141
0.0433189
0.0407706
0.0391619
0.0378568
0.0365287
0.0351601
0.0338242
0.0325632
0.0313787
0.0302583
0.0291919
0.0281754
0.0272068
0.0262842
0.0254053
0.0245675
0.112396
0.112825
0.113689
0.114983
0.116705
0.118869
0.121488
0.12458
0.128149
0.132189
0.13667
0.14152
0.146604
0.151651
0.1562
0.159345
0.159428
0.153041
0.133061
0.0833252
0.103843
0.104139
0.104677
0.105477
0.106498
0.107763
0.109199
0.110828
0.112521
0.114284
0.115873
0.117254
0.117945
0.117804
0.11586
0.111668
0.103155
0.08887
0.0635605
0.0206655
0.0940887
0.0942118
0.0944139
0.094702
0.0950426
0.0954234
0.0957727
0.0960525
0.0961391
0.0959523
0.095284
0.0939709
0.0916641
0.0880409
0.0825286
0.0745269
0.0631998
0.0476774
0.0273237
0.00146791
0.0837492
0.0837184
0.0836378
0.0835032
0.0832926
0.0829731
0.0824864
0.0817639
0.0807105
0.0792129
0.0771303
0.0742821
0.070476
0.0654492
0.0590007
0.0508437
0.0409356
0.0290509
0.0151242
-0.00234575
0.0734393
0.0733045
0.0730294
0.0726068
0.0720233
0.0712438
0.0702254
0.0689012
0.0672067
0.0650465
0.0623437
0.0589754
0.0548753
0.0499146
0.0440937
0.0373071
0.0296288
0.0208033
0.0105707
-0.00234859
0.0636437
0.0634541
0.0630725
0.0624933
0.061709
0.0606932
0.0594179
0.0578351
0.0559071
0.0535748
0.0508065
0.0475414
0.0437735
0.0394492
0.0345995
0.0291487
0.0231052
0.0162227
0.00825977
-0.00167881
0.0546674
0.0544592
0.0540409
0.0534086
0.0525593
0.0514773
0.0501474
0.0485416
0.0466418
0.0444171
0.0418585
0.0389378
0.0356615
0.0319984
0.0279646
0.0234998
0.0186028
0.0131233
0.00693654
-0.000511825
0.0466504
0.0464468
0.0460381
0.0454214
0.0445964
0.0435553
0.042292
0.0407919
0.0390481
0.0370449
0.0347809
0.0322402
0.0294288
0.0263262
0.0229464
0.0192591
0.0152873
0.0109676
0.00626666
0.000865677
0.0396114
0.0394249
0.0390511
0.0384875
0.0377343
0.0367882
0.0356482
0.0343074
0.0327644
0.0310109
0.0290486
0.0268682
0.0244775
0.0218664
0.0190544
0.0160334
0.0128417
0.00946511
0.00594217
0.00217715
0.0334927
0.0333287
0.0330002
0.0325044
0.0318417
0.0310105
0.0300125
0.028845
0.0275101
0.0260043
0.0243322
0.0224902
0.0204887
0.0183252
0.0160213
0.0135786
0.0110397
0.00841816
0.00580322
0.00325554
0.0281984
0.0280575
0.0277759
0.0273503
0.0267807
0.0260666
0.0252108
0.0242135
0.0230792
0.021808
0.0204075
0.0188785
0.0172335
0.0154736
0.0136201
0.0116771
0.00968711
0.00767746
0.0057622
0.00408198
0.0236201
0.0235008
0.023263
0.0229032
0.0224214
0.0218176
0.0210956
0.0202572
0.0193087
0.0182522
0.0170971
0.0158467
0.0145158
0.0131085
0.0116464
0.0101354
0.00861469
0.00711395
0.00574994
0.00469085
0.0196549
0.0195539
0.0193533
0.01905
0.0186442
0.018137
0.0175336
0.0168372
0.0160551
0.0151901
0.0142516
0.0132431
0.0121795
0.0110678
0.00993313
0.0087866
0.007668
0.00660499
0.00570425
0.0051349
0.016217
0.0161291
0.0159554
0.0156933
0.0153442
0.0149105
0.0143998
0.013818
0.0131749
0.0124753
0.0117281
0.0109349
0.0101061
0.00924533
0.00837692
0.00751953
0.00672536
0.00603571
0.00555527
0.00543256
0.0132463
0.0131644
0.0130037
0.012762
0.0124416
0.0120464
0.0115869
0.0110727
0.0105194
0.00993778
0.00934385
0.00874195
0.00814106
0.00753267
0.00692468
0.00631908
0.0057722
0.00535403
0.00522283
0.00556571
0.0107138
0.0106303
0.0104673
0.0102221
0.00989777
0.00949769
0.00903392
0.00851726
0.00796972
0.00740964
0.00687037
0.00637386
0.00595443
0.00561172
0.00534837
0.00511376
0.00490629
0.00474418
0.00485525
0.00556616
0.00862121
0.00853027
0.00835171
0.00808238
0.00772452
0.00727908
0.0067557
0.00616096
0.00551537
0.00483651
0.00416794
0.0035523
0.00307307
0.00279804
0.00281974
0.00313254
0.00368973
0.00429637
0.00495854
0.00607592
0.00699436
0.00689464
0.00669327
0.00638843
0.00597922
0.00546517
0.00484692
0.00412558
0.00330494
0.0023923
0.00140566
0.000381056
-0.000606877
-0.00142407
-0.00184685
-0.00157055
-0.000284855
0.00210273
0.00519734
0.0081561
0.00587452
0.00576741
0.00554399
0.005205
0.00474531
0.00416434
0.00345137
0.00260326
0.00160108
0.000438646
-0.000914274
-0.00246245
-0.00423467
-0.00617918
-0.0081915
-0.00985562
-0.0103919
-0.00827309
-0.00169135
0.0106078
0.00530474
0.00519076
0.0049541
0.00459374
0.00410436
0.00348123
0.00271152
0.00178283
0.000670053
-0.000653075
-0.00223535
-0.00413314
-0.00644392
-0.00928228
-0.0128104
-0.0171242
-0.0220372
-0.0261605
-0.0245148
-0.00139847
0.123475
0.123971
0.125088
0.126735
0.129053
0.131946
0.135649
0.140027
0.145446
0.151711
0.159395
0.168204
0.179059
0.1915
0.207098
0.22506
0.248283
0.275248
0.311574
0.353984
0.123353
0.123849
0.124964
0.126607
0.128919
0.131805
0.1355
0.139866
0.145272
0.151519
0.159181
0.167963
0.178783
0.191178
0.206712
0.224588
0.247684
0.274464
0.310515
0.35247
0.123201
0.123695
0.124807
0.126446
0.128751
0.131629
0.135312
0.139664
0.145052
0.151277
0.15891
0.167654
0.178422
0.190748
0.206178
0.223915
0.246787
0.273241
0.30877
0.349861
0.123017
0.12351
0.124618
0.126252
0.128549
0.131417
0.135087
0.139422
0.144788
0.150985
0.15858
0.167276
0.177975
0.19021
0.205498
0.223044
0.245595
0.271585
0.306346
0.346165
0.122802
0.123294
0.124398
0.126025
0.128314
0.13117
0.134824
0.13914
0.14448
0.150644
0.158194
0.166831
0.177444
0.189567
0.204674
0.221978
0.244113
0.269504
0.30325
0.341399
0.122556
0.123047
0.124146
0.125767
0.128045
0.130889
0.134525
0.138819
0.144129
0.150254
0.157752
0.166319
0.176831
0.18882
0.20371
0.220721
0.242347
0.267008
0.299494
0.335581
0.12228
0.12277
0.123864
0.125477
0.127744
0.130573
0.13419
0.138458
0.143735
0.149816
0.157256
0.165743
0.176139
0.187972
0.20261
0.219278
0.240306
0.264108
0.29509
0.328738
0.121973
0.122462
0.123551
0.125156
0.127411
0.130224
0.13382
0.13806
0.143301
0.149332
0.156706
0.165103
0.175369
0.187024
0.201378
0.217655
0.237997
0.26082
0.290054
0.3209
0.121637
0.122125
0.123208
0.124805
0.127047
0.129843
0.133415
0.137625
0.142825
0.148803
0.156104
0.164401
0.174525
0.185981
0.20002
0.215858
0.235431
0.257159
0.284405
0.312105
0.121272
0.121759
0.122836
0.124424
0.126652
0.12943
0.132977
0.137154
0.142311
0.148229
0.155452
0.163639
0.173609
0.184844
0.198541
0.213893
0.232622
0.253142
0.278163
0.302394
0.120877
0.121364
0.122435
0.124015
0.126227
0.128986
0.132506
0.136648
0.141758
0.147613
0.154752
0.162819
0.172625
0.183617
0.196949
0.211768
0.229583
0.248787
0.271351
0.291813
0.120455
0.120941
0.122007
0.123577
0.125774
0.128512
0.132003
0.136108
0.141168
0.146956
0.154006
0.161944
0.171575
0.182305
0.19525
0.209489
0.22633
0.244113
0.263997
0.280414
0.120005
0.120492
0.121551
0.123111
0.125292
0.128009
0.13147
0.135535
0.140544
0.146259
0.153216
0.161015
0.170463
0.180912
0.193452
0.207065
0.22288
0.239137
0.256132
0.268249
0.119527
0.120015
0.121069
0.122619
0.124784
0.127478
0.130908
0.134932
0.139885
0.145525
0.152383
0.160037
0.169293
0.179441
0.191562
0.204505
0.219254
0.233878
0.247791
0.25537
0.119023
0.119513
0.120561
0.122102
0.124249
0.12692
0.130317
0.134298
0.139194
0.144754
0.151509
0.15901
0.168066
0.177897
0.189585
0.201815
0.215469
0.228352
0.239019
0.24182
0.118494
0.118985
0.120029
0.12156
0.123688
0.126336
0.129697
0.133634
0.138469
0.143947
0.150592
0.157933
0.166781
0.176279
0.187521
0.199
0.211541
0.222573
0.229874
0.227636
0.117939
0.118434
0.119473
0.120994
0.123104
0.125727
0.129053
0.132943
0.137716
0.143107
0.14964
0.156814
0.165446
0.174597
0.185383
0.196073
0.20749
0.216556
0.220419
0.212849
0.11736
0.11786
0.118897
0.12041
0.122503
0.125104
0.128397
0.132243
0.136957
0.142266
0.148691
0.1557
0.164121
0.172919
0.183253
0.193119
0.203409
0.210348
0.210678
0.197314
0.116756
0.117264
0.1183
0.119808
0.121888
0.124471
0.127735
0.131545
0.136206
0.141441
0.147767
0.15462
0.162839
0.171287
0.181171
0.190182
0.199333
0.203957
0.200623
0.180137
0.116126
0.116634
0.117661
0.119156
0.121206
0.123755
0.126963
0.13071
0.135273
0.140394
0.146546
0.153188
0.161092
0.169127
0.178417
0.186558
0.194491
0.196988
0.190516
0.16182
0.119439
0.119969
0.121069
0.122673
0.124883
0.127626
0.131089
0.135132
0.140068
0.14562
0.152297
0.159555
0.168182
0.177112
0.187386
0.196882
0.206188
0.210906
0.206576
0.182018
0.119916
0.120444
0.121551
0.123164
0.125397
0.128166
0.131675
0.135767
0.140785
0.146429
0.153254
0.160693
0.169592
0.178892
0.189691
0.199993
0.2104
0.217112
0.21567
0.198757
0.120363
0.120883
0.121987
0.123599
0.125839
0.128615
0.13214
0.136254
0.141304
0.147002
0.153898
0.161465
0.170527
0.180138
0.191331
0.202421
0.213873
0.222736
0.224723
0.214408
0.120783
0.121298
0.122401
0.124016
0.126263
0.129053
0.132598
0.136741
0.141832
0.147592
0.154568
0.162272
0.171507
0.18143
0.193022
0.204868
0.217364
0.228203
0.233545
0.228664
0.121177
0.121687
0.122792
0.124411
0.12667
0.129475
0.133042
0.137217
0.142352
0.148177
0.15524
0.163081
0.172493
0.182721
0.194715
0.20728
0.22082
0.233485
0.242116
0.242249
0.121544
0.122051
0.123157
0.124781
0.12705
0.129869
0.133459
0.137664
0.142841
0.148728
0.155872
0.163844
0.173426
0.183944
0.196329
0.209575
0.224152
0.238532
0.250392
0.255275
0.121882
0.122387
0.123496
0.125124
0.127403
0.130235
0.133845
0.138079
0.143294
0.149239
0.156458
0.164554
0.174297
0.185088
0.197855
0.211741
0.227341
0.24333
0.258309
0.267711
0.122193
0.122696
0.123806
0.125439
0.127727
0.130571
0.1342
0.13846
0.143711
0.14971
0.157001
0.165212
0.17511
0.186155
0.199292
0.213776
0.230372
0.247866
0.265808
0.279519
0.122475
0.122976
0.124089
0.125726
0.128021
0.130878
0.134524
0.138808
0.144092
0.150141
0.157499
0.165817
0.175861
0.187142
0.200634
0.215671
0.233224
0.252124
0.272846
0.29065
0.122727
0.123228
0.124343
0.125983
0.128286
0.131153
0.134814
0.139121
0.144435
0.150531
0.157951
0.166365
0.176548
0.188044
0.201875
0.217418
0.235879
0.256084
0.279384
0.301048
0.12295
0.12345
0.124567
0.126211
0.128521
0.131397
0.135072
0.139398
0.144739
0.150877
0.158353
0.166856
0.177167
0.188858
0.203006
0.21901
0.23832
0.259729
0.285392
0.310657
0.123142
0.123642
0.124761
0.126408
0.128723
0.131607
0.135294
0.139639
0.145004
0.151178
0.158706