/*--------------------------------*- C++ -*----------------------------------*\
  =========                 |
  \\      /  F ield         | OpenFOAM: The Open Source CFD Toolbox
   \\    /   O peration     | Website:  https://openfoam.org
    \\  /    A nd           | Version:  6.0
     \\/     M anipulation  |
\*---------------------------------------------------------------------------*/
FoamFile
{
    version     2.0;
    format      ascii;
    class       surfaceScalarField;
    location    "94";
    object      phi;
}
// * * * * * * * * * * * * * * * * * * * * * * * * * * * * * * * * * * * * * //

dimensions      [0 3 -1 0 0 0 0];

internalField   nonuniform List<scalar> 
7840
(
3.86259e-05
-0.00036351
0.000131203
-0.0010766
0.000254251
-0.00174025
0.000385349
-0.00230863
0.000507115
-0.00275442
0.000609326
-0.0030745
0.000688417
-0.00328394
0.000745498
-0.00340645
0.00078416
-0.00346667
0.000808744
-0.00348573
0.000823288
-0.00347964
0.000831048
-0.00345946
0.000834408
-0.00343229
0.000835003
-0.00340243
0.000833906
-0.00337233
0.000831807
-0.00334339
0.000829154
-0.00331636
0.00082624
-0.00329166
0.000823246
-0.00326946
-0.00324992
0.000820282
3.92452e-05
-0.000402756
0.000130578
-0.00116793
0.000248397
-0.00185807
0.000369843
-0.00243008
0.000478593
-0.00286317
0.000566172
-0.00316208
0.000630665
-0.00334843
0.000674326
-0.00345011
0.000701297
-0.00349364
0.000716003
-0.00350044
0.000722276
-0.00348591
0.000723038
-0.00346022
0.000720335
-0.00342959
0.000715507
-0.0033976
0.000709406
-0.00336623
0.000702566
-0.00333655
0.000695334
-0.00330913
0.000687935
-0.00328426
0.000680508
-0.00326204
-0.00324254
0.000673134
3.94273e-05
-0.000442183
0.000128434
-0.00125694
0.000239716
-0.00196935
0.000350467
-0.00254083
0.000445738
-0.00295844
0.000518842
-0.00323519
0.000569365
-0.00339896
0.000600479
-0.00348123
0.000616674
-0.00350984
0.000622318
-0.00350608
0.000620963
-0.00348456
0.000615189
-0.00345445
0.000606718
-0.00342112
0.000596635
-0.00338752
0.000585604
-0.0033552
0.000574036
-0.00332498
0.000562199
-0.00329729
0.000550269
-0.00327233
0.000538355
-0.00325012
-0.0032307
0.000526517
3.91596e-05
-0.000481342
0.000124804
-0.00134258
0.000228404
-0.00207295
0.000327663
-0.00264009
0.000409233
-0.00304001
0.000468186
-0.00329414
0.000505431
-0.0034362
0.000524841
-0.00350064
0.000531081
-0.00351608
0.00052835
-0.00350335
0.000519884
-0.00347609
0.000507922
-0.00344249
0.000493894
-0.00340709
0.000478665
-0.00337229
0.000462744
-0.00333928
0.000446446
-0.00330868
0.000429973
-0.00328082
0.000413466
-0.00325582
0.000397012
-0.00323367
-0.00321435
0.000380661
3.84385e-05
-0.000519781
0.000119754
-0.0014239
0.000214695
-0.0021679
0.000301886
-0.00272728
0.000369728
-0.00310786
0.000414969
-0.00333938
0.000439645
-0.00346088
0.000448133
-0.00350912
0.000445124
-0.00351307
0.000434581
-0.00349281
0.000419401
-0.00346091
0.000401503
-0.00342459
0.000382058
-0.00338765
0.000361745
-0.00335197
0.000340948
-0.00331848
0.0003199
-0.00328763
0.000298758
-0.00325968
0.000277633
-0.0032347
0.000256599
-0.00321264
-0.00319345
0.000235697
3.72698e-05
-0.000557051
0.000113374
-0.0015
0.00019885
-0.00225337
0.000273598
-0.00280203
0.000327842
-0.0031621
0.000359884
-0.00337142
0.000372689
-0.00347368
0.000370963
-0.0035074
0.000359312
-0.00350142
0.000341409
-0.0034749
0.00031982
-0.00343932
0.000296167
-0.00340093
0.000271399
-0.00336288
0.000246037
-0.00332661
0.000220364
-0.00329281
0.000194547
-0.00326182
0.000168705
-0.00323383
0.000142927
-0.00320892
0.00011728
-0.00318699
-0.00316797
9.18007e-05
3.56675e-05
-0.000592718
0.000105771
-0.00157011
0.000181145
-0.00232875
0.000243246
-0.00286413
0.000284141
-0.00320299
0.000303534
-0.00339082
0.000305134
-0.00347528
0.000293822
-0.00349609
0.000274037
-0.00348164
0.000249136
-0.00345
0.000221363
-0.00341155
0.00019208
-0.00337165
0.000162044
-0.00333284
0.000131648
-0.00329622
0.000101091
-0.00326225
7.04854e-05
-0.00323121
3.99167e-05
-0.00320326
9.45928e-06
-0.00317846
-2.08253e-05
-0.0031567
-0.0031379
-5.08971e-05
3.36528e-05
-0.000626371
9.70687e-05
-0.00163352
0.000161857
-0.00239353
0.000211255
-0.00291353
0.000239134
-0.00323087
0.000246444
-0.00339813
0.000237459
-0.0034663
0.000217115
-0.00347574
0.000189617
-0.00345414
0.000158
-0.00341839
0.00012421
-0.00337776
8.93785e-05
-0.00333682
5.4105e-05
-0.00329757
1.86775e-05
-0.00326079
-1.67754e-05
-0.0032268
-5.21876e-05
-0.0031958
-8.75033e-05
-0.00316795
-0.000122661
-0.0031433
-0.000157599
-0.00312177
-0.00310323
-0.00019227
3.12533e-05
-0.000657624
8.73988e-05
-0.00168967
0.000141262
-0.0024474
0.000178019
-0.00295028
0.000193278
-0.00324613
0.000189067
-0.00339391
0.000170068
-0.0034473
0.00014117
-0.00344684
0.000106305
-0.00341927
6.81906e-05
-0.00338027
2.84995e-05
-0.00333807
-1.18323e-05
-0.00329649
-5.23339e-05
-0.00325707
-9.28011e-05
-0.00322032
-0.000133164
-0.00318644
-0.000173398
-0.00315557
-0.000213476
-0.00312787
-0.000253348
-0.00310343
-0.000292947
-0.00308217
-0.00306396
-0.000332217
2.85015e-05
-0.000686126
7.68974e-05
-0.00173807
0.000119625
-0.00249013
0.000143902
-0.00297456
0.000146977
-0.00324921
0.000131789
-0.00337873
0.000103297
-0.00341881
6.62587e-05
-0.0034098
2.43113e-05
-0.00337733
-2.01356e-05
-0.00333582
-6.56507e-05
-0.00329255
-0.000111462
-0.00325068
-0.0001572
-0.00321133
-0.000202726
-0.0031748
-0.000248016
-0.00314115
-0.000293087
-0.00311049
-0.000337941
-0.00308302
-0.000382539
-0.00305883
-0.000426803
-0.0030379
-0.0030201
-0.000470663
2.54337e-05
-0.000711559
6.57023e-05
-0.00177833
9.7198e-05
-0.00252162
0.000109235
-0.0029866
0.000100586
-0.00324056
7.49476e-05
-0.00335309
3.74329e-05
-0.00338129
-7.38895e-06
-0.00336498
-5.61876e-05
-0.00332853
-0.000106843
-0.00328517
-0.000158136
-0.00324126
-0.000209431
-0.00319938
-0.000260433
-0.00316033
-0.000311049
-0.00312418
-0.000361295
-0.0030909
-0.000411224
-0.00306057
-0.00046087
-0.00303337
-0.000510209
-0.0030095
-0.000559148
-0.00298896
-0.00297165
-0.000607594
2.20894e-05
-0.000733649
5.39503e-05
-0.00181019
7.42189e-05
-0.00254189
7.432e-05
-0.0029867
5.44198e-05
-0.00322066
1.8832e-05
-0.0033175
-2.72775e-05
-0.00333518
-7.95719e-05
-0.00331269
-0.00013503
-0.00327307
-0.000191801
-0.0032284
-0.000248853
-0.00318421
-0.000305655
-0.00314258
-0.000361969
-0.00310401
-0.000417729
-0.00306842
-0.000472976
-0.00303565
-0.000527798
-0.00300574
-0.000582269
-0.0029789
-0.000636384
-0.00295538
-0.000690035
-0.00293531
-0.0029186
-0.000743092
1.85104e-05
-0.000752159
4.17755e-05
-0.00183346
5.09105e-05
-0.00255103
3.94289e-05
-0.00297522
8.75947e-06
-0.00318999
-3.63004e-05
-0.00327244
-9.06132e-05
-0.00328087
-0.000150105
-0.0032532
-0.000212061
-0.00321111
-0.000274877
-0.00316558
-0.000337684
-0.0031214
-0.00040004
-0.00308022
-0.000461738
-0.00304231
-0.000522721
-0.00300744
-0.000583041
-0.00297533
-0.000642818
-0.00294597
-0.000702171
-0.00291955
-0.000761128
-0.00289642
-0.000819573
-0.00287687
-0.00286085
-0.000877314
1.47396e-05
-0.000766899
2.9308e-05
-0.00184803
2.74805e-05
-0.0025492
4.81023e-06
-0.00295255
-3.6144e-05
-0.00314903
-9.02185e-05
-0.00321837
-0.000152371
-0.00321872
-0.00021881
-0.00318676
-0.000287117
-0.00314281
-0.000355918
-0.00309678
-0.00042449
-0.00305283
-0.00049246
-0.00301225
-0.00055964
-0.00297513
-0.000625961
-0.00294111
-0.000691466
-0.00290983
-0.000756293
-0.00288114
-0.000820612
-0.00285523
-0.000884507
-0.00283253
-0.000947858
-0.00281352
-0.00279834
-0.00101038
1.08211e-05
-0.00077772
1.66728e-05
-0.00185388
4.12203e-06
-0.00253665
-2.931e-05
-0.00291912
-8.0063e-05
-0.00309828
-0.00014271
-0.00315572
-0.000212355
-0.00314907
-0.000285503
-0.00311361
-0.000360019
-0.00306829
-0.000434743
-0.00302206
-0.000509086
-0.00297849
-0.000582739
-0.0029386
-0.000655523
-0.00290235
-0.000727344
-0.00286929
-0.000798204
-0.00283897
-0.00086823
-0.00281111
-0.000937637
-0.00278582
-0.00100658
-0.00276358
-0.00107496
-0.00274514
-0.00273097
-0.00114232
6.79894e-06
-0.000784519
3.98939e-06
-0.00185107
-1.89865e-05
-0.00251367
-6.27261e-05
-0.00287538
-0.00012279
-0.00303822
-0.000193576
-0.00308493
-0.000270377
-0.00307227
-0.000349993
-0.00303399
-0.000430563
-0.00298772
-0.000511128
-0.00294149
-0.000591227
-0.00289839
-0.000670621
-0.00285921
-0.000749147
-0.00282382
-0.000826677
-0.00279176
-0.000903148
-0.0027625
-0.00097863
-0.00273563
-0.00105335
-0.00271111
-0.00112753
-0.0026894
-0.00120112
-0.00267155
-0.00265853
-0.00127356
2.71691e-06
-0.000787236
-8.62987e-06
-0.00183972
-4.16816e-05
-0.00248062
-9.52519e-05
-0.00282181
-0.000164136
-0.00296933
-0.000242632
-0.00300644
-0.000326247
-0.00298866
-0.000412078
-0.00294816
-0.000498519
-0.00290128
-0.000584804
-0.00285521
-0.0006706
-0.00281259
-0.000755754
-0.00277405
-0.00084014
-0.00273944
-0.000923616
-0.00270829
-0.00100605
-0.00268007
-0.00108741
-0.00265427
-0.00116789
-0.00263063
-0.00124781
-0.00260947
-0.00132719
-0.00259217
-0.00257998
-0.00140574
-1.38273e-06
-0.000785853
-2.10807e-05
-0.00182003
-6.38154e-05
-0.00243788
-0.000126721
-0.0027589
-0.000203932
-0.00289212
-0.000289705
-0.00292066
-0.000379782
-0.00289858
-0.000471545
-0.0028564
-0.000563633
-0.00280919
-0.000655459
-0.00276338
-0.000746824
-0.00272122
-0.000837683
-0.0026832
-0.000927991
-0.00264913
-0.00101765
-0.00261863
-0.00110648
-0.00259124
-0.00119436
-0.00256639
-0.00128141
-0.00254358
-0.00136806
-0.00252281
-0.00145456
-0.00250567
-0.00249278
-0.00154177
-5.46009e-06
-0.000780393
-3.32687e-05
-0.00179222
-8.52577e-05
-0.0023859
-0.00015699
-0.00268717
-0.000242029
-0.00280708
-0.00033464
-0.00282805
-0.000430804
-0.00280241
-0.000528178
-0.00275902
-0.000625624
-0.00271174
-0.000722721
-0.00266629
-0.000819413
-0.00262453
-0.000915788
-0.00258682
-0.00101195
-0.00255296
-0.00110794
-0.00252264
-0.00120369
-0.00249549
-0.00129905
-0.00247103
-0.00139403
-0.00244861
-0.001489
-0.00242784
-0.00158456
-0.00241011
-0.00239364
-0.0016837
-9.47863e-06
-0.000770914
-4.51112e-05
-0.00175658
-0.000105899
-0.00232511
-0.000185939
-0.00260713
-0.000278307
-0.00271471
-0.000377309
-0.00272905
-0.000479164
-0.00270056
-0.000581779
-0.00265641
-0.000684209
-0.00260931
-0.000786176
-0.00256432
-0.000887741
-0.00252297
-0.000989133
-0.00248543
-0.00109066
-0.00245144
-0.00119264
-0.00242066
-0.00129538
-0.00239275
-0.00139907
-0.00236734
-0.00150379
-0.00234389
-0.00161015
-0.00232148
-0.00172065
-0.0022996
-0.00229127
-0.00182303
-1.33932e-05
-0.000757521
-5.6518e-05
-0.00171346
-0.000125626
-0.002256
-0.000213455
-0.0025193
-0.000312659
-0.00261551
-0.000417609
-0.0026241
-0.00052475
-0.00259342
-0.000632208
-0.00254895
-0.000739192
-0.00250233
-0.000845515
-0.002458
-0.000951288
-0.00241719
-0.00105678
-0.00237994
-0.00116237
-0.00234585
-0.00126859
-0.00231444
-0.00137611
-0.00228522
-0.00148583
-0.00225762
-0.00159862
-0.00223109
-0.0017148
-0.0022053
-0.00183528
-0.00217913
-0.00214483
-0.00198172
-1.71993e-05
-0.000740322
-6.74721e-05
-0.00166319
-0.000144422
-0.00217905
-0.000239526
-0.0024242
-0.000345085
-0.00250995
-0.000455549
-0.00251364
-0.000567579
-0.00248139
-0.000679492
-0.00243704
-0.00079062
-0.0023912
-0.000900827
-0.00234779
-0.00101021
-0.00230781
-0.00111896
-0.00227119
-0.00122729
-0.00223751
-0.00133546
-0.00220627
-0.00144375
-0.00217694
-0.00155236
-0.00214902
-0.00166135
-0.0021221
-0.00177098
-0.00209568
-0.00188197
-0.00206814
-0.00203563
-0.00199117
-2.08619e-05
-0.00071946
-7.7911e-05
-0.00160614
-0.000162216
-0.00209475
-0.000264096
-0.00232232
-0.000375546
-0.0023985
-0.000491112
-0.00239807
-0.000607656
-0.00236484
-0.000723666
-0.00232103
-0.000838583
-0.00227628
-0.000952315
-0.00223406
-0.00106497
-0.00219516
-0.00117671
-0.00215945
-0.00128772
-0.0021265
-0.00139815
-0.00209584
-0.00150809
-0.002067
-0.00161756
-0.00203954
-0.00172657
-0.00201309
-0.00183506
-0.00198719
-0.00194226
-0.00196093
-0.00193343
-0.00204446
-2.43635e-05
-0.000695096
-8.78041e-05
-0.0015427
-0.000178982
-0.00200357
-0.000287153
-0.00221414
-0.000404054
-0.0022816
-0.000524334
-0.00227779
-0.000645042
-0.00224414
-0.000764819
-0.00220125
-0.00088319
-0.00215791
-0.00100009
-0.00211715
-0.00111563
-0.00207963
-0.00122992
-0.00204515
-0.0013431
-0.00201333
-0.00145523
-0.00198371
-0.00156633
-0.0019559
-0.00167632
-0.00192955
-0.00178507
-0.00190435
-0.00189228
-0.00187998
-0.00199726
-0.00185595
-0.00183182
-0.00209888
-2.76904e-05
-0.000667406
-9.71307e-05
-0.00147326
-0.000194707
-0.00190599
-0.000308704
-0.00210015
-0.000430641
-0.00215966
-0.000555276
-0.00215316
-0.000679833
-0.00211958
-0.000803093
-0.00207799
-0.00092466
-0.00203635
-0.0010445
-0.00199731
-0.00116271
-0.00196141
-0.00127941
-0.00192846
-0.00139467
-0.00189806
-0.00150856
-0.00186983
-0.00162104
-0.00184342
-0.00173206
-0.00181853
-0.00184147
-0.00179494
-0.00194901
-0.00177243
-0.00205426
-0.00175069
-0.00172947
-0.00215661
-3.08323e-05
-0.000636574
-0.000105878
-0.00139821
-0.000209391
-0.00180248
-0.000328767
-0.00198077
-0.000455349
-0.00203308
-0.000584002
-0.0020245
-0.00071212
-0.00199146
-0.000838608
-0.0019515
-0.000963141
-0.00191181
-0.00108572
-0.00187473
-0.00120644
-0.00184069
-0.00132543
-0.00180947
-0.00144275
-0.00178074
-0.00155845
-0.00175413
-0.00167252
-0.00172935
-0.0017849
-0.00170614
-0.0018955
-0.00168434
-0.00200417
-0.00166377
-0.00211069
-0.00164417
-0.00162539
-0.00221478
-3.37816e-05
-0.000602792
-0.00011404
-0.00131795
-0.000223037
-0.00169348
-0.000347368
-0.00185644
-0.000478223
-0.00190223
-0.000610583
-0.00189214
-0.000741996
-0.00186005
-0.000871484
-0.00182202
-0.000998787
-0.00178451
-0.00112394
-0.00174958
-0.00124705
-0.00171757
-0.00136825
-0.00168828
-0.00148761
-0.00166137
-0.00160521
-0.00163654
-0.00172104
-0.00161352
-0.00183509
-0.00159209
-0.00194732
-0.00157211
-0.00205767
-0.00155342
-0.00216604
-0.0015358
-0.00151914
-0.00227229
-3.65329e-05
-0.000566259
-0.000121612
-0.00123287
-0.000235655
-0.00157944
-0.000364531
-0.00172756
-0.00049931
-0.00176745
-0.000635082
-0.00175637
-0.000769541
-0.00172559
-0.000901817
-0.00168974
-0.00103171
-0.00165462
-0.00115929
-0.001622
-0.00128469
-0.00159218
-0.00140804
-0.00156493
-0.00152944
-0.00153997
-0.00164897
-0.00151701
-0.00176667
-0.00149581
-0.00188257
-0.00147619
-0.00199666
-0.00145801
-0.00210896
-0.00144113
-0.00221944
-0.00142532
-0.00141054
-0.00232803
-3.9082e-05
-0.000527177
-0.000128594
-0.00114336
-0.000247256
-0.00146077
-0.000380284
-0.00159454
-0.00051865
-0.00162908
-0.000657553
-0.00161747
-0.000794822
-0.00158832
-0.000929684
-0.00155488
-0.001062
-0.0015223
-0.00119187
-0.00149214
-0.00131944
-0.0014646
-0.00144487
-0.00143951
-0.00156827
-0.00141657
-0.00168974
-0.00139553
-0.00180937
-0.00137619
-0.00192719
-0.00135837
-0.00204326
-0.00134194
-0.00215761
-0.00132677
-0.00227028
-0.00131265
-0.00129957
-0.00238125
-4.14255e-05
-0.000485752
-0.000134986
-0.0010498
-0.000257849
-0.00133791
-0.000394649
-0.00145774
-0.000536277
-0.00148745
-0.000678038
-0.00147571
-0.000817886
-0.00144847
-0.000955138
-0.00141763
-0.00108971
-0.00138773
-0.00122172
-0.00136013
-0.00135135
-0.00133498
-0.00147876
-0.00131209
-0.0016041
-0.00129123
-0.00172748
-0.00127215
-0.00184901
-0.00125466
-0.00196876
-0.00123862
-0.00208681
-0.00122389
-0.00220323
-0.00121035
-0.00231807
-0.00119781
-0.00118629
-0.00243135
-4.35607e-05
-0.000442191
-0.000140787
-0.000952575
-0.000267443
-0.00121126
-0.000407643
-0.00131754
-0.000552218
-0.00134288
-0.000696572
-0.00133135
-0.000838771
-0.00130627
-0.000978213
-0.00127819
-0.00111486
-0.00125109
-0.00124886
-0.00122612
-0.00138041
-0.00120342
-0.0015097
-0.0011828
-0.00163689
-0.00116404
-0.00176211
-0.00114693
-0.00188547
-0.0011313
-0.00200709
-0.001117
-0.00212706
-0.00110393
-0.00224547
-0.00109195
-0.00236239
-0.00108089
-0.00107081
-0.00247786
-4.54849e-05
-0.000396706
-0.000145998
-0.000852062
-0.000276043
-0.00108121
-0.000419281
-0.0011743
-0.000566494
-0.00119567
-0.000713177
-0.00118467
-0.000857499
-0.00116195
-0.000998928
-0.00113676
-0.00113747
-0.00111255
-0.0012733
-0.00109029
-0.00140663
-0.00107009
-0.00153766
-0.00105177
-0.00166657
-0.00103513
-0.00179351
-0.00101999
-0.00191861
-0.00100619
-0.002042
-0.000993611
-0.00216378
-0.000982145
-0.00228406
-0.00097167
-0.00240291
-0.000962033
-0.000953307
-0.00252042
-4.71956e-05
-0.00034951
-0.000150618
-0.00074864
-0.000283655
-0.000948174
-0.000429573
-0.00102838
-0.000579117
-0.00104612
-0.000727867
-0.00103592
-0.000874082
-0.00101574
-0.00101729
-0.000993547
-0.00115754
-0.000972301
-0.00129502
-0.000952813
-0.00142996
-0.000935144
-0.00156259
-0.000919146
-0.00169308
-0.000904642
-0.0018216
-0.000891469
-0.0019483
-0.000879491
-0.00207331
-0.000868599
-0.00219676
-0.0008587
-0.00231875
-0.000849679
-0.00243938
-0.000841405
-0.000833957
-0.00255873
-4.86904e-05
-0.00030082
-0.000154644
-0.000642687
-0.000290279
-0.000812538
-0.000438525
-0.000880136
-0.000590097
-0.000894549
-0.000740652
-0.000885364
-0.000888524
-0.000867863
-0.0010333
-0.000848772
-0.00117505
-0.00083055
-0.001314
-0.000813866
-0.00145038
-0.00079876
-0.00158443
-0.000785101
-0.00171633
-0.000772736
-0.00184628
-0.000761526
-0.00197441
-0.000751354
-0.00210089
-0.000742126
-0.00222583
-0.000733759
-0.00234935
-0.000726154
-0.00247156
-0.000719196
-0.000712969
-0.00259255
-4.99668e-05
-0.000250853
-0.000158074
-0.000534579
-0.000295917
-0.000674695
-0.00044614
-0.000729914
-0.000599438
-0.000741251
-0.000751532
-0.00073327
-0.000900825
-0.00071857
-0.00104695
-0.000702649
-0.00119
-0.0006875
-0.00133021
-0.000673652
-0.00146784
-0.000661128
-0.00160312
-0.000649819
-0.00173626
-0.000639596
-0.00186745
-0.000630343
-0.00199684
-0.000621963
-0.00212459
-0.000614377
-0.00225083
-0.000607515
-0.00237569
-0.000601292
-0.00249928
-0.000595613
-0.000590559
-0.00262169
-5.10225e-05
-0.000199831
-0.000160906
-0.000424696
-0.000300567
-0.000535034
-0.000452418
-0.000578063
-0.00060714
-0.000586528
-0.000760508
-0.000579903
-0.00091098
-0.000568098
-0.00105822
-0.000555406
-0.00120236
-0.000543366
-0.00134363
-0.000532376
-0.00148231
-0.000522451
-0.00161863
-0.000513498
-0.00175281
-0.000505417
-0.00188504
-0.000498115
-0.00201549
-0.000491514
-0.00214431
-0.000485551
-0.00227166
-0.000480171
-0.00239765
-0.000475303
-0.00252239
-0.000470874
-0.000466955
-0.00264599
-5.18554e-05
-0.000147975
-0.000163137
-0.000313414
-0.000304228
-0.000393943
-0.000457359
-0.000424932
-0.000613203
-0.000430684
-0.000767577
-0.000425529
-0.000918982
-0.000416692
-0.00106712
-0.000407273
-0.00121211
-0.000398368
-0.00135424
-0.000390254
-0.00149375
-0.000382936
-0.0016309
-0.000376345
-0.00176592
-0.000370404
-0.00189898
-0.000365046
-0.00203029
-0.000360213
-0.00215998
-0.000355859
-0.0022882
-0.000351943
-0.0024151
-0.00034841
-0.00254077
-0.000345207
-0.000342391
-0.00266533
-5.24637e-05
-9.55116e-05
-0.000164765
-0.000201112
-0.000306897
-0.000251811
-0.000460962
-0.000270867
-0.000617624
-0.000274022
-0.000772734
-0.000270419
-0.000924825
-0.000264602
-0.00107361
-0.000258485
-0.00121925
-0.000252733
-0.001362
-0.000247507
-0.00150213
-0.000242802
-0.0016399
-0.000238573
-0.00177553
-0.000234771
-0.00190923
-0.000231352
-0.00204116
-0.000228278
-0.0021715
-0.000225521
-0.00230039
-0.000223053
-0.00242796
-0.00022084
-0.00255433
-0.000218845
-0.000217108
-0.00267961
-5.28458e-05
-4.26658e-05
-0.000165787
-8.81707e-05
-0.000308573
-0.000109025
-0.000463224
-0.000116217
-0.000620401
-0.000116844
-0.000775976
-0.000114845
-0.0009285
-0.000112077
-0.0010777
-0.000109281
-0.00122375
-0.000106692
-0.00136689
-0.000104358
-0.00150743
-0.000102269
-0.0016456
-0.000100403
-0.00178163
-9.87362e-05
-0.00191573
-9.72507e-05
-0.00204808
-9.593e-05
-0.00217884
-9.47609e-05
-0.00230816
-9.37317e-05
-0.00243618
-9.28258e-05
-0.002563
-9.20255e-05
-9.13519e-05
-0.00268875
-5.30008e-05
1.0335e-05
-0.000166202
2.50301e-05
-0.000309253
3.40259e-05
-0.000464142
3.86731e-05
-0.000621531
4.0545e-05
-0.000777298
4.0922e-05
-0.000930003
4.06283e-05
-0.00107938
4.00987e-05
-0.0012256
3.95217e-05
-0.00136892
3.89626e-05
-0.00150962
3.84368e-05
-0.00164797
3.79431e-05
-0.00178418
3.74767e-05
-0.00191846
3.70322e-05
-0.002051
3.66052e-05
-0.00218195
3.61919e-05
-0.00231147
3.57889e-05
-0.00243969
3.53942e-05
-0.00256673
3.50075e-05
3.46281e-05
-0.00269271
-5.29283e-05
6.32632e-05
-0.000166008
0.00013811
-0.000308936
0.000176954
-0.000463717
0.000193454
-0.000621013
0.000197841
-0.000776698
0.000196607
-0.000929331
0.000193261
-0.00107864
0.000189412
-0.0012248
0.000185674
-0.00136806
0.000182226
-0.00150871
0.000179089
-0.00164701
0.000176239
-0.00178317
0.000173643
-0.00191741
0.000171271
-0.00204991
0.000169099
-0.00218082
0.000167106
-0.0023103
0.000165274
-0.00243849
0.00016358
-0.00256549
0.000162009
0.000160578
-0.00269144
-5.2628e-05
0.000115891
-0.000165205
0.000250687
-0.000307622
0.00031937
-0.000461946
0.000347778
-0.000618843
0.000354739
-0.000774174
0.000351938
-0.00092648
0.000345567
-0.00107548
0.000338416
-0.00122134
0.000331529
-0.00136432
0.000325202
-0.00150469
0.000319461
-0.00164271
0.000314259
-0.0017786
0.000309537
-0.00191257
0.000305241
-0.0020448
0.000301325
-0.00217544
0.000297751
-0.00230465
0.000294487
-0.00243257
0.000291493
-0.00255929
0.000288733
0.000286244
-0.00268496
-5.21003e-05
0.000167992
-0.000163794
0.000362381
-0.000305309
0.000460885
-0.000458828
0.000501297
-0.000615022
0.000510933
-0.000769724
0.00050664
-0.00092145
0.000497293
-0.0010699
0.00048687
-0.00121523
0.000476855
-0.00135769
0.000467661
-0.00149755
0.000459326
-0.00163508
0.00045178
-0.00177047
0.000444936
-0.00190395
0.000438716
-0.00203568
0.000433055
-0.00216583
0.000427898
-0.00229454
0.000423197
-0.00242194
0.000418895
-0.00254814
0.000414937
0.000411378
-0.00267328
-5.1346e-05
0.000219338
-0.000161775
0.00047281
-0.000301998
0.000601109
-0.000454362
0.000653661
-0.000609548
0.000666119
-0.00076335
0.000660441
-0.000914243
0.000648186
-0.00106191
0.000634535
-0.00120647
0.000621419
-0.00134819
0.000609379
-0.00148733
0.000598464
-0.00162413
0.000588581
-0.00175881
0.00057962
-0.00189158
0.000571478
-0.00202259
0.000564069
-0.00215201
0.000557322
-0.00227999
0.000551175
-0.00240665
0.000545554
-0.0025321
0.000540384
0.000535734
-0.00265645
-5.03666e-05
0.000269704
-0.000159149
0.000581593
-0.00029769
0.000739649
-0.000448549
0.000804519
-0.000602421
0.000819991
-0.00075505
0.00081307
-0.000904861
0.000797998
-0.0010515
0.000781174
-0.00119508
0.000764994
-0.00133583
0.000750134
-0.00147402
0.000736656
-0.00160989
0.000724449
-0.00174365
0.000713376
-0.00187548
0.000703312
-0.00200556
0.00069415
-0.00213404
0.000685804
-0.00226107
0.000678197
-0.00238676
0.000671241
-0.00251121
0.000664841
0.000659074
-0.00263455
-4.91636e-05
0.000318868
-0.000155919
0.000688348
-0.000292384
0.000876115
-0.000441386
0.000953521
-0.000593639
0.000972244
-0.000744825
0.000964256
-0.000893307
0.00094648
-0.00103869
0.000926556
-0.00118105
0.000907359
-0.00132063
0.000889711
-0.00145767
0.000873692
-0.00159239
0.000859176
-0.00172502
0.000845999
-0.00185572
0.000834013
-0.00198466
0.000823092
-0.00211199
0.000813134
-0.00223784
0.00080405
-0.00236234
0.000795738
-0.00248558
0.000788083
0.000781165
-0.00260767
-4.77391e-05
0.000366607
-0.000152086
0.000792695
-0.000286082
0.00101011
-0.000432873
0.00110031
-0.000583201
0.00112257
-0.000732675
0.00111373
-0.000879584
0.00109339
-0.00102348
0.00107045
-0.00116442
0.0010483
-0.00130261
0.0010279
-0.00143829
0.00100937
-0.00157167
0.000992564
-0.00170297
0.000977292
-0.00183234
0.000963384
-0.00195994
0.000950697
-0.00208592
0.000939112
-0.0022104
0.00092853
-0.0023335
0.000918834
-0.00245531
0.000909892
0.000901781
-0.00257592
-4.60954e-05
0.000412702
-0.000147653
0.000894253
-0.000278782
0.00114124
-0.000423006
0.00124454
-0.000571101
0.00127067
-0.000718595
0.00126122
-0.00086369
0.00123848
-0.00100588
0.00121264
-0.00114518
0.0011876
-0.00128179
0.00116451
-0.00141592
0.0011435
-0.00154778
0.00112443
-0.00167756
0.00110707
-0.00180542
0.00109125
-0.00193151
0.00107678
-0.00205595
0.00106355
-0.00217887
0.00105145
-0.00230036
0.00104033
-0.00242054
0.00103006
0.00102071
-0.00253946
-4.42347e-05
0.000456937
-0.00014262
0.000992639
-0.000270482
0.0012691
-0.00041178
0.00138583
-0.000557332
0.00141622
-0.000702579
0.00140647
-0.000845624
0.00138153
-0.000985889
0.00135291
-0.00112335
0.00132506
-0.00125819
0.00129934
-0.00139059
0.0012759
-0.00152075
0.00125459
-0.00164886
0.00123518
-0.00177504
0.00121744
-0.00189945
0.00120119
-0.00202219
0.00118629
-0.00214337
0.00117263
-0.00226309
0.00116005
-0.00238143
0.00114841
0.00113774
-0.00249847
-4.21597e-05
0.000499097
-0.00013699
0.00108747
-0.000261179
0.00139329
-0.000399185
0.00152384
-0.000541883
0.00155892
-0.000684615
0.0015492
-0.000825375
0.00152229
-0.000963507
0.00149104
-0.00109894
0.0014605
-0.00123182
0.00143222
-0.00136233
0.00140641
-0.00149064
0.00138291
-0.00161692
0.00136145
-0.0017413
0.00134181
-0.00186388
0.00132377
-0.00198478
0.00130719
-0.00210408
0.00129192
-0.00222186
0.00127784
-0.00233821
0.00126476
0.00125269
-0.00245316
-3.98729e-05
0.00053897
-0.000130762
0.00117836
-0.000250868
0.00151339
-0.000385209
0.00165818
-0.000524736
0.00169844
-0.000664685
0.00168915
-0.000802927
0.00166053
-0.00093872
0.00162683
-0.00107194
0.00159372
-0.0012027
0.00156298
-0.00133117
0.00153487
-0.00145749
0.00150924
-0.00158182
0.00148578
-0.00170427
0.00146426
-0.00182493
0.00144443
-0.00194387
0.00142613
-0.00206118
0.00140923
-0.00217691
0.00139357
-0.00229112
0.00137897
0.0013654
-0.00240383
-3.73772e-05
0.000576347
-0.000123938
0.00126492
-0.00023954
0.001629
-0.000369837
0.00178848
-0.000505868
0.00183448
-0.000642761
0.00182604
-0.000778253
0.00179602
-0.000911504
0.00176008
-0.00104234
0.00172455
-0.00117082
0.00169146
-0.00129711
0.00166116
-0.00142133
0.00163346
-0.00154362
0.00160807
-0.00166405
0.00158469
-0.00178271
0.00156309
-0.00189964
0.00154306
-0.00201489
0.00152447
-0.00212849
0.00150718
-0.00224047
0.00149095
0.00147575
-0.00235082
-3.46757e-05
0.000611023
-0.000116516
0.00134676
-0.000227188
0.00173967
-0.000353048
0.00191434
-0.000485249
0.00196668
-0.000618807
0.0019596
-0.000751313
0.00192853
-0.00088182
0.00189059
-0.00101009
0.00185282
-0.00113615
0.00181753
-0.00126014
0.00178515
-0.00138217
0.00175549
-0.00150234
0.00172824
-0.00162072
0.00170308
-0.00173736
0.00167973
-0.00185228
0.00165798
-0.00196546
0.00163766
-0.00207693
0.00161864
-0.00218665
0.00160067
0.00158367
-0.00229457
-3.17721e-05
0.000642795
-0.000108498
0.00142349
-0.0002138
0.00184497
-0.000334817
0.00203536
-0.000462842
0.0020947
-0.000592775
0.00208953
-0.000722052
0.00205781
-0.000849611
0.00201815
-0.000975139
0.00197835
-0.00109864
0.00194103
-0.00122021
0.00190672
-0.00133997
0.00187525
-0.00145799
0.00184626
-0.00157432
0.00181941
-0.00168898
0.00179439
-0.00180195
0.00177094
-0.00191317
0.00174889
-0.0020226
0.00172807
-0.00213014
0.00170821
0.00168916
-0.00223564
-2.86711e-05
0.000671466
-9.98847e-05
0.0014947
-0.000199365
0.00194445
-0.000315117
0.00215111
-0.000438603
0.00221819
-0.000564607
0.00221554
-0.000690402
0.0021836
-0.000814797
0.00214254
-0.000937405
0.00210096
-0.00105819
0.00206182
-0.00117724
0.00202577
-0.00129466
0.00199266
-0.00141051
0.00196211
-0.00152483
0.00193373
-0.00163761
0.00190717
-0.00174879
0.00188212
-0.00185827
0.00185837
-0.0019659
0.0018357
-0.00207149
0.0018138
0.00179241
-0.00217474
-2.53788e-05
0.000696845
-9.06797e-05
0.00156
-0.000183875
0.00203765
-0.00029392
0.00226115
-0.000412483
0.00233675
-0.000534238
0.00233729
-0.000656279
0.00230564
-0.000777278
0.00226354
-0.000896767
0.00222045
-0.00101468
0.00217973
-0.00113108
0.00214217
-0.00124607
0.00210765
-0.00135974
0.00207578
-0.00147211
0.0020461
-0.00158317
0.00201823
-0.00169285
0.0019918
-0.001801
0.00196652
-0.00190738
0.00194207
-0.00201156
0.00191798
0.0018938
-0.00211294
-2.19037e-05
0.000718748
-8.08912e-05
0.00161899
-0.000167323
0.00212408
-0.0002712
0.00236503
-0.000384434
0.00244998
-0.000501594
0.00245445
-0.000619586
0.00242363
-0.000736929
0.00238089
-0.00085307
0.00233659
-0.0009679
0.00229456
-0.00108149
0.00225576
-0.00119394
0.00222011
-0.00130538
0.00218721
-0.00141586
0.00215658
-0.00152538
0.00212775
-0.00163387
0.00210029
-0.00174119
0.00207384
-0.00184705
0.00204793
-0.00195076
0.00202169
0.00199428
-0.00205125
-1.8257e-05
0.000737005
-7.05333e-05
0.00167126
-0.000149713
0.00220326
-0.000246938
0.00246226
-0.000354411
0.00255746
-0.000466604
0.00256665
-0.000580225
0.00253725
-0.000693628
0.00249429
-0.000806162
0.00244912
-0.00091768
0.00240607
-0.00102825
0.00236633
-0.00113803
0.00232989
-0.00124717
0.00229635
-0.0013558
0.00226521
-0.00146401
0.00223596
-0.00157182
0.0022081
-0.0016792
0.00218122
-0.0017861
0.00215484
-0.00189179
0.00212738
0.00209518
-0.00199269
-1.44535e-05
0.000751459
-5.96282e-05
0.00171644
-0.000131058
0.00227469
-0.000221126
0.00255232
-0.00032238
0.00265871
-0.000429205
0.00267347
-0.000538099
0.00264615
-0.00064723
0.00260342
-0.000755827
0.00255772
-0.000863687
0.00251393
-0.000970867
0.00247351
-0.00107753
0.00243655
-0.00118387
0.00240269
-0.00129011
0.00237145
-0.0013965
0.00234235
-0.00150322
0.00231482
-0.00161034
0.00228834
-0.0017181
0.00226259
-0.00182722
0.00223651
0.00220264
-0.00193469
-1.05122e-05
0.000761971
-4.82088e-05
0.00175414
-0.000111386
0.00233786
-0.000193773
0.00263471
-0.000288325
0.00275326
-0.000389355
0.0027745
-0.000493139
0.00274993
-0.000597637
0.00270792
-0.000701942
0.00266202
-0.000805788
0.00261778
-0.000909236
0.00257696
-0.00101251
0.00253983
-0.00111596
0.00250614
-0.00122006
0.00247555
-0.00132546
0.00244774
-0.00143299
0.00242235
-0.00154353
0.00239888
-0.00165745
0.00237651
-0.00177575
0.00235482
0.00234594
-0.00191904
-6.46943e-06
0.00076844
-3.63405e-05
0.00178401
-9.07672e-05
0.00239229
-0.000164938
0.00270888
-0.000252281
0.00284061
-0.000347065
0.00286929
-0.000445332
0.0028482
-0.000544807
0.00280739
-0.000644414
0.00276163
-0.000743788
0.00271715
-0.000842934
0.00267611
-0.00094204
0.00263893
-0.00104139
0.00260548
-0.00114129
0.00257545
-0.00124204
0.0025485
-0.00134389
0.0025242