/*--------------------------------*- C++ -*----------------------------------*\
  =========                 |
  \\      /  F ield         | OpenFOAM: The Open Source CFD Toolbox
   \\    /   O peration     | Website:  https://openfoam.org
    \\  /    A nd           | Version:  6.0
     \\/     M anipulation  |
\*---------------------------------------------------------------------------*/
FoamFile
{
    version     2.0;
    format      ascii;
    class       volScalarField;
    location    "17.5";
    object      p;
}
// * * * * * * * * * * * * * * * * * * * * * * * * * * * * * * * * * * * * * //

dimensions      [0 2 -2 0 0 0 0];

internalField   nonuniform List<scalar> 
8000
(
-0.275661
-0.276756
-0.277465
-0.277975
-0.2784
-0.27876
-0.27907
-0.279346
-0.279598
-0.279832
-0.280055
-0.280273
-0.28049
-0.280711
-0.280943
-0.281193
-0.281466
-0.281741
-0.282008
-0.282517
-0.275808
-0.276896
-0.277599
-0.278103
-0.278522
-0.278875
-0.279179
-0.279448
-0.279693
-0.27992
-0.280135
-0.280344
-0.280553
-0.280766
-0.280989
-0.28123
-0.281496
-0.281764
-0.282023
-0.282528
-0.276093
-0.277165
-0.277856
-0.278349
-0.278755
-0.279096
-0.279386
-0.27964
-0.27987
-0.280081
-0.28028
-0.280472
-0.280662
-0.280857
-0.281061
-0.281285
-0.281534
-0.281786
-0.282029
-0.282527
-0.276513
-0.277563
-0.278236
-0.278711
-0.279098
-0.279419
-0.279687
-0.27992
-0.280125
-0.280312
-0.280485
-0.280649
-0.280812
-0.280977
-0.281152
-0.281348
-0.28157
-0.281797
-0.282013
-0.2825
-0.277065
-0.278087
-0.278736
-0.279187
-0.279549
-0.279841
-0.280081
-0.280282
-0.280455
-0.280607
-0.280743
-0.280869
-0.280991
-0.281115
-0.281249
-0.281404
-0.281587
-0.281778
-0.281958
-0.282428
-0.277745
-0.278734
-0.279355
-0.279776
-0.280104
-0.280361
-0.280562
-0.280723
-0.280853
-0.280959
-0.281047
-0.281123
-0.281191
-0.28126
-0.281338
-0.281438
-0.281569
-0.281711
-0.281844
-0.282291
-0.27855
-0.279502
-0.280089
-0.280474
-0.280762
-0.280975
-0.281129
-0.28124
-0.281316
-0.281366
-0.281393
-0.281403
-0.281404
-0.281402
-0.281407
-0.281435
-0.281498
-0.281576
-0.281647
-0.282066
-0.279479
-0.280391
-0.280938
-0.28128
-0.281521
-0.281681
-0.281779
-0.28183
-0.281842
-0.281823
-0.281776
-0.281707
-0.281623
-0.281533
-0.281446
-0.281382
-0.281357
-0.281352
-0.281346
-0.281728
-0.280531
-0.2814
-0.281902
-0.282195
-0.282379
-0.282479
-0.282512
-0.282493
-0.282431
-0.282331
-0.282198
-0.282036
-0.281851
-0.281652
-0.281453
-0.281274
-0.281136
-0.281023
-0.28092
-0.281256
-0.28171
-0.28253
-0.282982
-0.283217
-0.283338
-0.283369
-0.283329
-0.283232
-0.283086
-0.282896
-0.282665
-0.282395
-0.282093
-0.281767
-0.281431
-0.28111
-0.280829
-0.280578
-0.280349
-0.280626
-0.283018
-0.283784
-0.284178
-0.284349
-0.284399
-0.284353
-0.284232
-0.28405
-0.283814
-0.283526
-0.283188
-0.2828
-0.282365
-0.281893
-0.281396
-0.280902
-0.280443
-0.280013
-0.279617
-0.279812
-0.284462
-0.285167
-0.285496
-0.285594
-0.285563
-0.285433
-0.285224
-0.284951
-0.28462
-0.28423
-0.28378
-0.283266
-0.28269
-0.282055
-0.281374
-0.280675
-0.279995
-0.279331
-0.278709
-0.278781
-0.28605
-0.286685
-0.286938
-0.286953
-0.286832
-0.28661
-0.286307
-0.285939
-0.28551
-0.285017
-0.284454
-0.283814
-0.28309
-0.282282
-0.281396
-0.28046
-0.27951
-0.278546
-0.277609
-0.277493
-0.287792
-0.288345
-0.28851
-0.28843
-0.28821
-0.287885
-0.287482
-0.287015
-0.286486
-0.285892
-0.285219
-0.284455
-0.283586
-0.2826
-0.281497
-0.280294
-0.279025
-0.277679
-0.276307
-0.27589
-0.289701
-0.290157
-0.29022
-0.29003
-0.289696
-0.289259
-0.288746
-0.288174
-0.287545
-0.286849
-0.286072
-0.285191
-0.284184
-0.283025
-0.281698
-0.280207
-0.27857
-0.276754
-0.27479
-0.273902
-0.291788
-0.292131
-0.292075
-0.291759
-0.291294
-0.290729
-0.290095
-0.289409
-0.288673
-0.287877
-0.286998
-0.286008
-0.284871
-0.283549
-0.282004
-0.280214
-0.278175
-0.275807
-0.273074
-0.271475
-0.294072
-0.294282
-0.294087
-0.293624
-0.293008
-0.292295
-0.291523
-0.290709
-0.289857
-0.288952
-0.287971
-0.286875
-0.28562
-0.284148
-0.2824
-0.280321
-0.277872
-0.274911
-0.271262
-0.268645
-0.296573
-0.296629
-0.29627
-0.295635
-0.294844
-0.29396
-0.293027
-0.292066
-0.291081
-0.290056
-0.288965
-0.287764
-0.286397
-0.284794
-0.282866
-0.280523
-0.277678
-0.274112
-0.269406
-0.265321
-0.299317
-0.299193
-0.298645
-0.297811
-0.296815
-0.295732
-0.294613
-0.293481
-0.292342
-0.291182
-0.289972
-0.288669
-0.287211
-0.285517
-0.283478
-0.28096
-0.277797
-0.273606
-0.267529
-0.261181
-0.302338
-0.302005
-0.301237
-0.300172
-0.298942
-0.297631
-0.296297
-0.294969
-0.293656
-0.292346
-0.291016
-0.289629
-0.288138
-0.286481
-0.284578
-0.282328
-0.279574
-0.27582
-0.269801
-0.262641
-0.305676
-0.305101
-0.304079
-0.302752
-0.301255
-0.299687
-0.298112
-0.296564
-0.295057
-0.293586
-0.292137
-0.290691
-0.289233
-0.28776
-0.286301
-0.284958
-0.283943
-0.283613
-0.285348
-0.295895
-0.309381
-0.308524
-0.307212
-0.30559
-0.303796
-0.301943
-0.300102
-0.298315
-0.296599
-0.294958
-0.293387
-0.291887
-0.29047
-0.289179
-0.288108
-0.287441
-0.287499
-0.288773
-0.292335
-0.302631
-0.313507
-0.312322
-0.310682
-0.308731
-0.306612
-0.304451
-0.302327
-0.300286
-0.298352
-0.296534
-0.294838
-0.293279
-0.29189
-0.290737
-0.289941
-0.289693
-0.290283
-0.292092
-0.295658
-0.303342
-0.318115
-0.316548
-0.31454
-0.312229
-0.30976
-0.307271
-0.30485
-0.302546
-0.300387
-0.298385
-0.296553
-0.294913
-0.293507
-0.292404
-0.291717
-0.291601
-0.292259
-0.293914
-0.2968
-0.30192
-0.323267
-0.321257
-0.318839
-0.31614
-0.313299
-0.310467
-0.307738
-0.305163
-0.302767
-0.300565
-0.298571
-0.296803
-0.295301
-0.294122
-0.29335
-0.293087
-0.293446
-0.294519
-0.296391
-0.299217
-0.32902
-0.326502
-0.323633
-0.320518
-0.317287
-0.3141
-0.311052
-0.308192
-0.305542
-0.303109
-0.300902
-0.298932
-0.297226
-0.295822
-0.294771
-0.294127
-0.293936
-0.294213
-0.294986
-0.295997
-0.33543
-0.332334
-0.328973
-0.325419
-0.321781
-0.318225
-0.314845
-0.311678
-0.308738
-0.306022
-0.303526
-0.301253
-0.299212
-0.297424
-0.295914
-0.294705
-0.293806
-0.293202
-0.292896
-0.292505
-0.342538
-0.338796
-0.334905
-0.33089
-0.32683
-0.32289
-0.319153
-0.315643
-0.312356
-0.309278
-0.306391
-0.303687
-0.301166
-0.298838
-0.296713
-0.294803
-0.293105
-0.291603
-0.290295
-0.288831
-0.350378
-0.345921
-0.341466
-0.336972
-0.332473
-0.328124
-0.323993
-0.320081
-0.316366
-0.312818
-0.309411
-0.306133
-0.302981
-0.299965
-0.297098
-0.294391
-0.291848
-0.289465
-0.287238
-0.284909
-0.358962
-0.353729
-0.348681
-0.343692
-0.338732
-0.33394
-0.329357
-0.324958
-0.320702
-0.316549
-0.312474
-0.308468
-0.304541
-0.30071
-0.297002
-0.293437
-0.290032
-0.286796
-0.283724
-0.280652
-0.368287
-0.362224
-0.35656
-0.35106
-0.345611
-0.340322
-0.335202
-0.3302
-0.325262
-0.320348
-0.315444
-0.310561
-0.305728
-0.300982
-0.296365
-0.291912
-0.287647
-0.28359
-0.279733
-0.275982
-0.378322
-0.371387
-0.365093
-0.359064
-0.353082
-0.347218
-0.341448
-0.335697
-0.32991
-0.324065
-0.318173
-0.312277
-0.306433
-0.300702
-0.29514
-0.28979
-0.284685
-0.279843
-0.275249
-0.270856
-0.38901
-0.381176
-0.37424
-0.367658
-0.361083
-0.35454
-0.347972
-0.341299
-0.334481
-0.327533
-0.320508
-0.313488
-0.30656
-0.299804
-0.293288
-0.287057
-0.28114
-0.275552
-0.270265
-0.265258
-0.400258
-0.391514
-0.383933
-0.376762
-0.36951
-0.362151
-0.354611
-0.346822
-0.338789
-0.330578
-0.3223
-0.314077
-0.306024
-0.298235
-0.290779
-0.283697
-0.277009
-0.270718
-0.264779
-0.259192
-0.41194
-0.402292
-0.394063
-0.386254
-0.378213
-0.369871
-0.361161
-0.352058
-0.342633
-0.333027
-0.323408
-0.313939
-0.304753
-0.295949
-0.287588
-0.279698
-0.272286
-0.26534
-0.258793
-0.252666
-0.423888
-0.413362
-0.40448
-0.395964
-0.386994
-0.37748
-0.36739
-0.356779
-0.345812
-0.334711
-0.323704
-0.31298
-0.302684
-0.292904
-0.283686
-0.275042
-0.266959
-0.259409
-0.252302
-0.245683
-0.435895
-0.424533
-0.414989
-0.405676
-0.395613
-0.384718
-0.373042
-0.360753
-0.348128
-0.335476
-0.323069
-0.311117
-0.299755
-0.289056
-0.279043
-0.269704
-0.261009
-0.25291
-0.245294
-0.238238
-0.447712
-0.435572
-0.425351
-0.415129
-0.403788
-0.391301
-0.37785
-0.363749
-0.349396
-0.335177
-0.321399
-0.308271
-0.29591
-0.284361
-0.273621
-0.263654
-0.254409
-0.24582
-0.23775
-0.230317
-0.459053
-0.446208
-0.435283
-0.424021
-0.411209
-0.396931
-0.381548
-0.365544
-0.34944
-0.333684
-0.318596
-0.304368
-0.291089
-0.278771
-0.26738
-0.256855
-0.247127
-0.238109
-0.229644
-0.221899
-0.469599
-0.456132
-0.444468
-0.432022
-0.417546
-0.401304
-0.383877
-0.365934
-0.348104
-0.330877
-0.314567
-0.299337
-0.285234
-0.272234
-0.260273
-0.249265
-0.239124
-0.229743
-0.220943
-0.212954
-0.479003
-0.465005
-0.452557
-0.438777
-0.422463
-0.404123
-0.384596
-0.364729
-0.345245
-0.326649
-0.30923
-0.293107
-0.278284
-0.264698
-0.252253
-0.240841
-0.230361
-0.220684
-0.211615
-0.203451
-0.4869
-0.472467
-0.459185
-0.443925
-0.425628
-0.40511
-0.383481
-0.361762
-0.340736
-0.320902
-0.302505
-0.285612
-0.27018
-0.256108
-0.24327
-0.231539
-0.220796
-0.210896
-0.201625
-0.193359
-0.492917
-0.478147
-0.463978
-0.447111
-0.426729
-0.404009
-0.38034
-0.356887
-0.334468
-0.313548
-0.294319
-0.27679
-0.260868
-0.246416
-0.233281
-0.221317
-0.210394
-0.200343
-0.190943
-0.182648
-0.496683
-0.481675
-0.466569
-0.447994
-0.425479
-0.400595
-0.375003
-0.349979
-0.326344
-0.304512
-0.284609
-0.266582
-0.250295
-0.235573
-0.222242
-0.210138
-0.199119
-0.188996
-0.17954
-0.171292
-0.497841
-0.482692
-0.46661
-0.446264
-0.421625
-0.39468
-0.367333
-0.340937
-0.316286
-0.293729
-0.273317
-0.254941
-0.238416
-0.223542
-0.210118
-0.197971
-0.186943
-0.176829
-0.167396
-0.159272
-0.496057
-0.480863
-0.463783
-0.441649
-0.414955
-0.386109
-0.35722
-0.32968
-0.304233
-0.281146
-0.260399
-0.241823
-0.225196
-0.210288
-0.196882
-0.18479
-0.173846
-0.163825
-0.154496
-0.146574
-0.491033
-0.475887
-0.45781
-0.43392
-0.405303
-0.374767
-0.344585
-0.316152
-0.290138
-0.266726
-0.24582
-0.2272
-0.210608
-0.195789
-0.182512
-0.170579
-0.159814
-0.149975
-0.140835
-0.133194
-0.482515
-0.467509
-0.448462
-0.422901
-0.392548
-0.360578
-0.32938
-0.300319
-0.273976
-0.250444
-0.229558
-0.211051
-0.194633
-0.18003
-0.166997
-0.155331
-0.144843
-0.135276
-0.126413
-0.119132
-0.470299
-0.455523
-0.435565
-0.40847
-0.376617
-0.343503
-0.311587
-0.282171
-0.255738
-0.232293
-0.211607
-0.19337
-0.177267
-0.163008
-0.150338
-0.139046
-0.128937
-0.119738
-0.111243
-0.104399
-0.45424
-0.439785
-0.419007
-0.390561
-0.357485
-0.323543
-0.291216
-0.261721
-0.235436
-0.212281
-0.191972
-0.174162
-0.158515
-0.144729
-0.132541
-0.121735
-0.11211
-0.103377
-0.0953463
-0.0890218
-0.434253
-0.420212
-0.398734
-0.369165
-0.335175
-0.300737
-0.268309
-0.239006
-0.213101
-0.190436
-0.170675
-0.153444
-0.138392
-0.125206
-0.11362
-0.103415
-0.0943808
-0.08622
-0.0787565
-0.0730388
-0.41032
-0.396785
-0.374759
-0.344328
-0.309753
-0.275157
-0.242935
-0.214088
-0.188785
-0.166798
-0.147751
-0.131247
-0.116923
-0.104463
-0.0935973
-0.0841052
-0.0757718
-0.0682933
-0.0615096
-0.0564941
-0.382486
-0.369553
-0.347153
-0.316147
-0.281332
-0.246913
-0.215195
-0.187053
-0.162562
-0.141431
-0.12325
-0.107611
-0.0941423
-0.0825266
-0.072495
-0.0638269
-0.056304
-0.0496226
-0.0436376
-0.0394113
-0.350862
-0.338626
-0.31605
-0.284773
-0.250064
-0.216149
-0.185215
-0.158013
-0.134526
-0.114412
-0.0972384
-0.0825874
-0.070089
-0.0594271
-0.0503368
-0.0425991
-0.0359968
-0.0302326
-0.0251645
-0.0217817
-0.315621
-0.304178
-0.281637
-0.250404
-0.21614
-0.183042
-0.153154
-0.127104
-0.104795
-0.0858415
-0.0697969
-0.0562414
-0.0448103
-0.0351954
-0.0271402
-0.0204319
-0.01486
-0.0101371
-0.00610001
-0.00360513
-0.276994
-0.266438
-0.244154
-0.213279
-0.17979
-0.1478
-0.119198
-0.0944921
-0.0735119
-0.0558421
-0.0410271
-0.0286522
-0.0183637
-0.00986716
-0.00292087
0.0026753
0.00711969
0.0106829
0.0135507
0.0149898
-0.235264
-0.225687
-0.203885
-0.173679
-0.141276
-0.110662
-0.0835622
-0.0603671
-0.0408458
-0.0245594
-0.0110514
8.2218e-05
0.00917819
0.0165091
0.022294
0.0267167
0.0299591
0.0322365
0.0336699
0.0336072
-0.190765
-0.182255
-0.161158
-0.131917
-0.10089
-0.0718958
-0.0464882
-0.0249484
-0.00699224
0.00783596
0.0199884
0.029854
0.0377455
0.0439031
0.0485115
0.0517333
0.0537096
0.0544804
0.0539372
0.0518036
-0.143868
-0.136507
-0.116331
-0.088337
-0.0589519
-0.0317951
-0.00824686
0.0115144
0.0278197
0.0411384
0.0519186
0.0605359
0.0672804
0.0723579
0.0759159
0.0780855
0.0788934
0.0779834
0.0748912
0.0706326
-0.0949806
-0.0888415
-0.0697939
-0.0433054
-0.0158013
0.0093245
0.0308663
0.0487406
0.0633201
0.0750865
0.0844891
0.0919018
0.0976116
0.101823
0.104697
0.106381
0.106777
0.105038
0.100461
0.0958452
-0.0445347
-0.0396832
-0.0219531
0.00279489
0.0282062
0.0511326
0.0705389
0.0864282
0.0992075
0.109368
0.117359
0.12356
0.128272
0.131737
0.1342
0.135937
0.136921
0.136171
0.133427
0.136966
0.00702584
0.0105324
0.0267723
0.049572
0.0727082
0.0932921
0.110453
0.124271
0.135179
0.143669
0.150188
0.155105
0.158722
0.161293
0.16308
0.164343
0.165072
0.164794
0.164405
0.170097
0.059239
0.0613552
0.0759546
0.0966294
0.11734
0.135466
0.150294
0.161969
0.170944
0.177708
0.182696
0.18627
0.188725
0.190314
0.191285
0.19186
0.192022
0.191476
0.191131
0.195712
0.11164
0.112333
0.125167
0.143573
0.161742
0.177325
0.189754
0.199234
0.206226
0.211212
0.21461
0.216767
0.217965
0.218444
0.218434
0.21813
0.21753
0.216409
0.215516
0.2186
0.163765
0.163015
0.173985
0.190016
0.205562
0.218547
0.22854
0.235794
0.240775
0.24395
0.24572
0.24641
0.246285
0.245566
0.244456
0.243124
0.241553
0.239546
0.23779
0.23948
0.215159
0.21296
0.221997
0.235581
0.24846
0.258824
0.266372
0.271394
0.274357
0.275709
0.275831
0.275028
0.273543
0.271577
0.269311
0.266887
0.264272
0.261292
0.2586
0.258953
0.265376
0.261737
0.268801
0.279905
0.290108
0.297862
0.302983
0.305794
0.306756
0.306298
0.304778
0.302479
0.299624
0.296394
0.292949
0.289406
0.285723
0.281752
0.278119
0.27721
0.313985
0.308929
0.314012
0.322638
0.330194
0.335382
0.338123
0.338769
0.33777
0.335537
0.332403
0.328632
0.324425
0.319945
0.315333
0.310684
0.305953
0.301017
0.296467
0.294357
0.360575
0.354141
0.357262
0.36345
0.368421
0.371116
0.371554
0.370105
0.367209
0.363258
0.358562
0.353363
0.347844
0.34215
0.336405
0.330686
0.324948
0.319093
0.313665
0.310417
0.404755
0.396995
0.398204
0.402029
0.40451
0.404816
0.403051
0.399601
0.394895
0.389302
0.383114
0.37655
0.369777
0.362924
0.356098
0.349364
0.342675
0.335956
0.329698
0.325375
0.446156
0.43714
0.436514
0.438081
0.4382
0.436247
0.432404
0.427068
0.420657
0.413519
0.405924
0.398075
0.390122
0.382179
0.374338
0.366653
0.35908
0.35156
0.344523
0.339193
0.48444
0.474247
0.47189
0.471337
0.469248
0.465192
0.459417
0.45233
0.444336
0.435764
0.426865
0.417824
0.408777
0.399825
0.391046
0.382483
0.374099
0.365846
0.358088
0.351823
0.519291
0.508017
0.504057
0.501547
0.497431
0.491449
0.483909
0.475224
0.465784
0.455904
0.445815
0.435687
0.425644
0.415772
0.40614
0.396781
0.387664
0.378749
0.370332
0.363213
0.550426
0.538178
0.532765
0.528488
0.522548
0.514838
0.505716
0.495599
0.484867
0.473815
0.462661
0.451563
0.440628
0.429936
0.419542
0.409475
0.399706
0.390204
0.381198
0.37331
0.577594
0.564489
0.557793
0.55196
0.54442
0.535196
0.524691
0.513323
0.501461
0.489386
0.477303
0.465357
0.453645
0.442237
0.43118
0.420495
0.410162
0.40015
0.390627
0.382065
0.600576
0.586741
0.578949
0.571791
0.56289
0.552383
0.540705
0.528278
0.515459
0.502519
0.48965
0.476986
0.464617
0.452604
0.440986
0.429781
0.418972
0.408531
0.398569
0.389433
0.619187
0.604759
0.596072
0.587834
0.577828
0.566279
0.553651
0.540365
0.526771
0.513129
0.499623
0.486378
0.473478
0.460975
0.448904
0.437278
0.426085
0.415297
0.404978
0.395375
0.633279
0.618398
0.609031
0.599971
0.589127
0.576788
0.563439
0.549503
0.535322
0.521149
0.507161
0.493476
0.480173
0.4673
0.454886
0.442942
0.431459
0.420408
0.409819
0.399861
0.642737
0.627554
0.617727
0.608114
0.596705
0.583836
0.570004
0.55563
0.541056
0.526526
0.512214
0.498234
0.484661
0.471539
0.458895
0.446738
0.43506
0.423834
0.413062
0.402865
0.647488
0.632152
0.622094
0.612203
0.600511
0.587375
0.573299
0.558707
0.543934
0.529226
0.514751
0.500623
0.486914
0.473667
0.460907
0.448644
0.436868
0.425554
0.41469
0.404373
0.647494
0.632157
0.622098
0.612208
0.600515
0.587379
0.573303
0.55871
0.543938
0.529229
0.514754
0.500626
0.486917
0.47367
0.460911
0.448647
0.436871
0.425557
0.414693
0.404375
0.642753
0.627569
0.617741
0.608129
0.596719
0.583849
0.570016
0.555642
0.541067
0.526537
0.512225
0.498244
0.484671
0.471549
0.458904
0.446747
0.435069
0.423843
0.41307
0.402873
0.633305
0.618424
0.609055
0.599995
0.589149
0.576809
0.563459
0.549522
0.53534
0.521167
0.507178
0.493493
0.480189
0.467315
0.454901
0.442957
0.431473
0.420422
0.409832
0.399874
0.619224
0.604794
0.596107
0.587867
0.577859
0.566309
0.553679
0.540392
0.526797
0.513154
0.499647
0.486401
0.4735
0.460997
0.448925
0.437299
0.426105
0.415316
0.404997
0.395394
0.600623
0.586787
0.578994
0.571833
0.56293
0.552421
0.540741
0.528312
0.515492
0.502551
0.48968
0.477015
0.464646
0.452632
0.441013
0.429808
0.418998
0.408556
0.398593
0.389457
0.577651
0.564545
0.557847
0.552012
0.544469
0.535243
0.524735
0.513365
0.501501
0.489425
0.477341
0.465393
0.45368
0.442271
0.431213
0.420527
0.410193
0.400181
0.390657
0.382094
0.550494
0.538244
0.532829
0.528549
0.522606
0.514893
0.505768
0.495649
0.484914
0.473861
0.462706
0.451605
0.44067
0.429976
0.419581
0.409512
0.399743
0.39024
0.381233
0.373344
0.519368
0.508093
0.50413
0.501617
0.497497
0.491512
0.483969
0.475281
0.465839
0.455956
0.445866
0.435737
0.425691
0.415819
0.406185
0.396825
0.387706
0.37879
0.370373
0.363252
0.484527
0.474333
0.471973
0.471416
0.469323
0.465263
0.459485
0.452395
0.444398
0.435824
0.426922
0.41788
0.408831
0.399877
0.391097
0.382532
0.374147
0.365893
0.358134
0.351868
0.446254
0.437236
0.436606
0.438169
0.438284
0.436327
0.43248
0.427141
0.420726
0.413586
0.405988
0.398137
0.390182
0.382238
0.374395
0.366708
0.359134
0.351613
0.344574
0.339243
0.404862
0.397101
0.398306
0.402126
0.404603
0.404904
0.403135
0.399681
0.394971
0.389376
0.383185
0.376619
0.369844
0.362989
0.356161
0.349425
0.342735
0.336014
0.329754
0.32543
0.360693
0.354256
0.357373
0.363556
0.368522
0.371212
0.371645
0.370192
0.367293
0.363338
0.35864
0.353438
0.347916
0.342221
0.336473
0.330753
0.325013
0.319156
0.313727
0.310477
0.314113
0.309055
0.314132
0.322753
0.330303
0.335485
0.338222
0.338864
0.337861
0.335624
0.332488
0.328714
0.324504
0.320022
0.315407
0.310757
0.306023
0.301086
0.296534
0.294422
0.265513
0.261871
0.268931
0.280028
0.290225
0.297974
0.30309
0.305896
0.306853
0.306392
0.304868
0.302567
0.299709
0.296477
0.293029
0.289484
0.285799
0.281826
0.278191
0.27728
0.215306
0.213104
0.222136
0.235714
0.248586
0.258944
0.266486
0.271503
0.274462
0.27581
0.275929
0.275122
0.273634
0.271665
0.269397
0.266971
0.264354
0.261372
0.258677
0.259029
0.163921
0.163168
0.174133
0.190157
0.205696
0.218674
0.228662
0.235911
0.240887
0.244058
0.245824
0.246511
0.246383
0.24566
0.244548
0.243214
0.24164
0.239631
0.237874
0.239561
0.111805
0.112495
0.125323
0.143723
0.161884
0.17746
0.189883
0.199358
0.206345
0.211326
0.214721
0.216874
0.218069
0.218545
0.218532
0.218226
0.217623
0.2165
0.215604
0.218686
0.0594126
0.0615261
0.0761197
0.096787
0.11749
0.135609
0.15043
0.1621
0.17107
0.177829
0.182813
0.186383
0.188835
0.190421
0.191389
0.191962
0.19212
0.191573
0.191225
0.195803
0.00720804
0.0107119
0.0269458
0.0497377
0.072866
0.0934424
0.110597
0.124409
0.135311
0.143797
0.150311
0.155224
0.158838
0.161406
0.16319
0.16445
0.165176
0.164897
0.164505
0.170194
-0.0443442
-0.0394955
-0.0217715
0.00296858
0.0283716
0.0512903
0.0706896
0.0865727
0.0993466
0.109502
0.117489
0.123686
0.128394
0.131856
0.134316
0.13605
0.137031
0.136279
0.133534
0.13707
-0.094782
-0.0886457
-0.0696044
-0.043124
-0.0156284
0.0094894
0.0310239
0.0488919
0.0634657
0.075227
0.0846252
0.0920338
0.0977401
0.101948
0.104819
0.1065
0.106895
0.105153
0.100575
0.0959588
-0.143662
-0.136303
-0.116134
-0.0881481
-0.0587717
-0.0316232
-0.00808237
0.0116723
0.0279718
0.0412852
0.0520608
0.060674
0.0674149
0.072489
0.0760441
0.0782112
0.0790168
0.0781049
0.0750113
0.0707522
-0.190552
-0.182044
-0.160953
-0.131721
-0.100703
-0.071717
-0.0463171
-0.024784
-0.00683392
0.00798894
0.0201367
0.029998
0.0378858
0.04404
0.0486454
0.0518645
0.0538384
0.0546071
0.0540622
0.0519277
-0.235044
-0.22547
-0.203674
-0.173476
-0.141082
-0.110476
-0.0833847
-0.0601965
-0.0406815
-0.0244005
-0.0108974
0.000231929
0.00932401
0.0166515
0.0224332
0.0268531
0.030093
0.032368
0.0337994
0.0337354
-0.276766
-0.266213
-0.243935
-0.21307
-0.17959
-0.147608
-0.119015
-0.0943155
-0.0733416
-0.0556774
-0.0408674
-0.028497
-0.0182125
-0.00971958
-0.00277655
0.00281668
0.00725839
0.0108192
0.0136847
0.0151222
-0.315388
-0.303947
-0.281413
-0.250188
-0.215933
-0.182844
-0.152965
-0.126922
-0.104619
-0.0856713
-0.0696319
-0.0560809
-0.0446539
-0.0350428
-0.0269909
-0.0202857
-0.0147167
-0.00999643
-0.00596172
-0.00346867
-0.350623
-0.33839
-0.31582
-0.284551
-0.249851
-0.215945
-0.18502
-0.157825
-0.134344
-0.114236
-0.0970681
-0.0824218
-0.0699277
-0.0592696
-0.0501828
-0.0424483
-0.0358489
-0.0300875
-0.025022
-0.0216411
-0.382242
-0.369311
-0.346918
-0.31592
-0.281114
-0.246704
-0.214994
-0.18686
-0.162375
-0.14125
-0.123075
-0.10744
-0.0939762
-0.0823643
-0.0723364
-0.0636716
-0.0561518
-0.0494732
-0.043491
-0.0392667
-0.410071
-0.396539
-0.374518
-0.344095
-0.30953
-0.274942
-0.242729
-0.213889
-0.188594
-0.166613
-0.14757
-0.131072
-0.116753
-0.104296
-0.0934342
-0.0839455
-0.0756153
-0.0681398
-0.0613588
-0.0563456
-0.434
-0.419961
-0.398489
-0.368928
-0.334946
-0.300518
-0.268098
-0.238802
-0.212905
-0.190245
-0.17049
-0.153264
-0.138217
-0.125035
-0.113453
-0.103251
-0.09422
-0.0860623
-0.0786017
-0.0728864
-0.453983
-0.439531
-0.418758
-0.39032
-0.357252
-0.32332
-0.291001
-0.261513
-0.235235
-0.212087
-0.191783
-0.173978
-0.158336
-0.144553
-0.132369
-0.121567
-0.111945
-0.103215
-0.0951874
-0.0888654
-0.47004
-0.455266
-0.435313
-0.408225
-0.37638
-0.343275
-0.311367
-0.281959
-0.255533
-0.232094
-0.211413
-0.193182
-0.177083
-0.162828
-0.150162
-0.138874
-0.128768
-0.119572
-0.11108
-0.104239
-0.482254
-0.467249
-0.448207
-0.422652
-0.392308
-0.360346
-0.329157
-0.300103
-0.273767
-0.250241
-0.229361
-0.210858
-0.194445
-0.179846
-0.166817
-0.155154
-0.14467
-0.135106
-0.126246
-0.118967
-0.49077
-0.475626
-0.457553
-0.433668
-0.40506
-0.374532
-0.344358
-0.315932
-0.289925
-0.266519
-0.245618
-0.227003
-0.210416
-0.195601
-0.182328
-0.170398
-0.159637
-0.149801
-0.140664
-0.133026
-0.495792
-0.480601
-0.463524
-0.441395
-0.414709
-0.385871
-0.356989
-0.329456
-0.304016
-0.280936
-0.260194
-0.241623
-0.225001
-0.210096
-0.196694
-0.184605
-0.173665
-0.163647
-0.154321
-0.146402
-0.497575
-0.482429
-0.46635
-0.446009
-0.421377
-0.394439
-0.367099
-0.34071
-0.316066
-0.293515
-0.273108
-0.254736
-0.238217
-0.223346
-0.209927
-0.197782
-0.186758
-0.176647
-0.167217
-0.159095
-0.496417
-0.481412
-0.466308
-0.447738
-0.425229
-0.400352
-0.374767
-0.34975
-0.326121
-0.304295
-0.284396
-0.266375
-0.250091
-0.235374
-0.222046
-0.209946
-0.198929
-0.18881
-0.179356
-0.171111
-0.492652
-0.477884
-0.463717
-0.446854
-0.426478
-0.403764
-0.380102
-0.356655
-0.334241
-0.313328
-0.294104
-0.276578
-0.260661
-0.246212
-0.233081
-0.221121
-0.2102
-0.200153
-0.190755
-0.182463
-0.486636
-0.472204
-0.458925
-0.443669
-0.425377
-0.404864
-0.383241
-0.361528
-0.340508
-0.320678
-0.302286
-0.285398
-0.26997
-0.255901
-0.243067
-0.231339
-0.220599
-0.210701
-0.201433
-0.19317
-0.47874
-0.464744
-0.452298
-0.438521
-0.422211
-0.403876
-0.384354
-0.364493
-0.345014
-0.326423
-0.309008
-0.292889
-0.27807
-0.264487
-0.252045
-0.240637
-0.230159
-0.220485
-0.211419
-0.203257
-0.469338
-0.455872
-0.44421
-0.431767
-0.417295
-0.401057
-0.383635
-0.365696
-0.347871
-0.330649
-0.314343
-0.299116
-0.285016
-0.27202
-0.260062
-0.249057
-0.238918
-0.22954
-0.220742
-0.212755
-0.458794
-0.445951
-0.435028
-0.423768
-0.410959
-0.396684
-0.381305
-0.365306
-0.349206
-0.333453
-0.318369
-0.304145
-0.290869
-0.278554
-0.267165
-0.256642
-0.246917
-0.237902
-0.229438
-0.221695
-0.447455
-0.435317
-0.425097
-0.414877
-0.403539
-0.391055
-0.377607
-0.363509
-0.34916
-0.334945
-0.32117
-0.308045
-0.295686
-0.28414
-0.273403
-0.263437
-0.254195
-0.245608
-0.23754
-0.230109
-0.43564
-0.42428
-0.414738
-0.405426
-0.395365
-0.384472
-0.372799
-0.360513
-0.347892
-0.335242
-0.322838
-0.310888
-0.299529
-0.288832
-0.27882
-0.269483
-0.26079
-0.252693
-0.245078
-0.238024
-0.423636
-0.413112
-0.404231
-0.395717
-0.386749
-0.377236
-0.367148
-0.356539
-0.345574
-0.334476
-0.32347
-0.312749
-0.302454
-0.292676
-0.28346
-0.274817
-0.266735
-0.259186
-0.252081
-0.245463
-0.411691
-0.402045
-0.393817
-0.386009
-0.377969
-0.369629
-0.36092
-0.351819
-0.342395
-0.332791
-0.323174
-0.313706
-0.304521
-0.295718
-0.287358
-0.279469
-0.272057
-0.265112
-0.258566
-0.25244
-0.400012
-0.391269
-0.38369
-0.37652
-0.369269
-0.361911
-0.354372
-0.346584
-0.338551
-0.330342
-0.322064
-0.313842
-0.305789
-0.298001
-0.290545
-0.283463
-0.276775
-0.270485
-0.264547
-0.25896
-0.388766
-0.380933
-0.373999
-0.367418
-0.360844
-0.354302
-0.347735
-0.341062
-0.334245
-0.327296
-0.320272
-0.313251
-0.306323
-0.299567
-0.29305
-0.286818
-0.280901
-0.275314
-0.270026
-0.265019
-0.378082
-0.371148
-0.364854
-0.358826
-0.352846
-0.346983
-0.341213
-0.335462
-0.329675
-0.323828
-0.317936
-0.312039
-0.306194
-0.300462
-0.294898
-0.289548
-0.284441
-0.279598
-0.275004
-0.27061
-0.368049
-0.361987
-0.356324
-0.350826
-0.345377
-0.340089
-0.334969
-0.329967
-0.325028
-0.320112
-0.315207
-0.310322
-0.305486
-0.300739
-0.29612
-0.291664
-0.287398
-0.28334
-0.279481
-0.275729
-0.358727
-0.353495
-0.348447
-0.34346
-0.338501
-0.33371
-0.329126
-0.324727
-0.320469
-0.316315
-0.312237
-0.308229
-0.304298
-0.300465
-0.296753
-0.293186
-0.289778
-0.286539
-0.283464
-0.280391
-0.350144
-0.345688
-0.341234
-0.336742
-0.332244
-0.327896
-0.323764
-0.319852
-0.316135
-0.312584
-0.309175
-0.305893
-0.302737
-0.299717
-0.296846
-0.294135
-0.291588
-0.289201
-0.286971
-0.284639
-0.342306
-0.338565
-0.334675
-0.330662
-0.326603
-0.322663
-0.318926
-0.315415
-0.312127
-0.309045
-0.306155
-0.303446
-0.300921
-0.298587
-0.296457
-0.294542
-0.292839
-0.291332
-0.29002
-0.288552
-0.335199
-0.332105
-0.328745
-0.325193
-0.321556
-0.318001
-0.31462
-0.311453
-0.30851
-0.30579
-0.30329
-0.301012
-0.298965
-0.297171
-0.295655
-0.294439
-0.293534
-0.292924
-0.292613
-0.292218
-0.32879
-0.326274
-0.323406
-0.320293
-0.317063
-0.313877
-0.310829
-0.307968
-0.305314
-0.302878
-0.300666
-0.29869
-0.296978
-0.295566
-0.294507
-0.293856
-0.293657
-0.293928
-0.294695
-0.295701
-0.323037
-0.321028
-0.318613
-0.315915
-0.313076
-0.310245
-0.307516
-0.304939
-0.30254
-0.300334
-0.298334
-0.29656
-0.29505
-0.293863
-0.293082
-0.292811
-0.293161
-0.294226
-0.29609
-0.29891
-0.317885
-0.31632
-0.314314
-0.312005
-0.309538
-0.307049
-0.304628
-0.302322
-0.300159
-0.298153
-0.296315
-0.294668
-0.293253
-0.292142
-0.291445
-0.291319
-0.291967
-0.293612
-0.29649
-0.301603
-0.313276
-0.312093
-0.310456
-0.308507
-0.306389
-0.304228
-0.302104
-0.300061
-0.298124
-0.2963
-0.294598
-0.293031
-0.291633
-0.29047
-0.289663
-0.289404
-0.289983
-0.291781
-0.295337
-0.303013
-0.309149
-0.308295
-0.306986
-0.305365
-0.303573
-0.30172
-0.299878
-0.298089
-0.296369
-0.294722
-0.293144
-0.291635
-0.290209
-0.288907
-0.287824
-0.287145
-0.287191
-0.288452
-0.292003
-0.302291
-0.305443
-0.304873
-0.303853
-0.302528
-0.301032
-0.299463
-0.297887
-0.296336
-0.294824
-0.293347
-0.29189
-0.290436
-0.288967
-0.287482
-0.286012
-0.284655
-0.283626
-0.283282
-0.285005
-0.295541
-0.302105
-0.301777
-0.301011
-0.299948
-0.298718
-0.297407
-0.296071
-0.294739
-0.29342
-0.292104
-0.290766
-0.289369
-0.287867
-0.286198
-0.284282
-0.282019
-0.279249
-0.275479
-0.269445
-0.262268
-0.299085
-0.298966
-0.29842
-0.297587
-0.296591
-0.295508
-0.294385
-0.293249
-0.292104
-0.290937
-0.289719
-0.288405
-0.286936
-0.28523
-0.283178
-0.280646
-0.277468
-0.273261
-0.26717
-0.260806
-0.296343
-0.296403
-0.296047
-0.295413
-0.294621
-0.293736
-0.292799
-0.291834
-0.290842
-0.28981
-0.288709
-0.287498
-0.28612
-0.284504
-0.282563
-0.280206
-0.277346
-0.273765
-0.269046
-0.264947
-0.293845
-0.29406
-0.293867
-0.293404
-0.292788
-0.292073
-0.291296
-0.290477
-0.289618
-0.288705
-0.287714
-0.286608
-0.285341
-0.283857
-0.282095
-0.280003
-0.27754
-0.274564
-0.270903
-0.268272
-0.291566
-0.291914
-0.291859
-0.291544
-0.291078
-0.29051
-0.289871
-0.28918
-0.288437
-0.287631
-0.286742
-0.285741
-0.284593
-0.283259
-0.2817
-0.279897
-0.277844
-0.275462
-0.272718
-0.271106
-0.289485
-0.289946
-0.29001
-0.289821
-0.289485
-0.289045
-0.288527
-0.287949
-0.287312
-0.286608
-0.28582
-0.284929
-0.283909
-0.282738
-0.281399
-0.279894
-0.278244
-0.276415
-0.27444
-0.273538
-0.287585
-0.288142
-0.288308
-0.288228
-0.288005
-0.287678
-0.28727
-0.286796
-0.28626
-0.285656
-0.284974
-0.284199
-0.283318
-0.28232
-0.281204
-0.279988
-0.278706
-0.277348
-0.275965
-0.275533
-0.285853
-0.286491
-0.286745
-0.286759
-0.286637
-0.286411
-0.286103
-0.285729
-0.285292
-0.28479
-0.284218
-0.283567
-0.282832
-0.282011
-0.281114
-0.280165
-0.279202
-0.278226
-0.277278
-0.277147
-0.284276
-0.284984
-0.285313
-0.28541
-0.285377
-0.285244
-0.28503
-0.284751
-0.284412
-0.284014
-0.283554
-0.283031
-0.282443
-0.281797
-0.281104
-0.280393
-0.2797
-0.279024
-0.278391
-0.278449
-0.282845
-0.283613
-0.284008
-0.284178
-0.284225
-0.284176
-0.28405
-0.283862
-0.283619
-0.283323
-0.282976
-0.282578
-0.282133
-0.281649
-0.281141
-0.280636
-0.280165
-0.279723
-0.279317
-0.279496
-0.281551
-0.282372
-0.282824
-0.283059
-0.283178
-0.283205
-0.28316
-0.283058
-0.282905
-0.282708
-0.282468
-0.282189
-0.281877
-0.28154
-0.281194
-0.280862
-0.28057
-0.280307
-0.280068
-0.280331
-0.280387
-0.281257
-0.281759
-0.28205
-0.282233
-0.282329
-0.282358
-0.282334