/*--------------------------------*- C++ -*----------------------------------*\
  =========                 |
  \\      /  F ield         | OpenFOAM: The Open Source CFD Toolbox
   \\    /   O peration     | Website:  https://openfoam.org
    \\  /    A nd           | Version:  6.0
     \\/     M anipulation  |
\*---------------------------------------------------------------------------*/
FoamFile
{
    version     2.0;
    format      ascii;
    class       volVectorField;
    location    "45";
    object      U;
}
// * * * * * * * * * * * * * * * * * * * * * * * * * * * * * * * * * * * * * //

dimensions      [0 1 -1 0 0 0 0];

internalField   nonuniform List<vector> 
4000
(
(0.0903929 0.00716365 5.48602e-20)
(0.289638 0.037761 -2.97799e-20)
(0.494267 0.0910438 3.50173e-20)
(0.687934 0.152475 -2.60339e-20)
(0.857114 0.212357 -1.16468e-20)
(0.994099 0.264624 3.52157e-21)
(1.09733 0.306087 -1.1405e-20)
(1.16984 0.336109 4.09717e-20)
(1.2171 0.35578 -3.40487e-20)
(1.24523 0.367023 7.97831e-21)
(1.25986 0.371932 -5.94864e-21)
(1.26557 0.372392 -3.8516e-20)
(1.26576 0.369905 3.72941e-20)
(1.2628 0.365579 1.41364e-20)
(1.25825 0.360179 -1.40622e-20)
(1.2531 0.354207 3.29064e-20)
(1.24795 0.347968 -5.13626e-22)
(1.24319 0.341669 -3.17763e-20)
(1.23906 0.335715 2.34998e-20)
(1.23579 0.330069 7.34506e-21)
(0.104143 0.0118506 -1.92209e-20)
(0.323498 0.052339 5.57504e-20)
(0.540235 0.114542 6.43181e-20)
(0.738125 0.18216 -3.02847e-20)
(0.904791 0.244898 5.26945e-20)
(1.03465 0.297057 8.31908e-20)
(1.1285 0.33633 -4.56098e-21)
(1.19136 0.363052 -1.4176e-20)
(1.22996 0.379108 7.01516e-20)
(1.25104 0.386939 3.41177e-20)
(1.26035 0.388903 -6.12934e-21)
(1.26227 0.386958 5.06095e-20)
(1.25989 0.382571 -5.40128e-20)
(1.25527 0.376765 8.40199e-20)
(1.24969 0.37021 -1.39898e-20)
(1.24394 0.363326 3.98234e-20)
(1.23846 0.35635 7.08438e-21)
(1.23355 0.34946 2.83259e-20)
(1.22936 0.34305 -2.69814e-20)
(1.22609 0.336951 6.42079e-21)
(0.118157 0.0176095 -2.99018e-20)
(0.356871 0.0692685 7.12325e-20)
(0.584046 0.140634 5.28318e-20)
(0.784176 0.213929 -7.97235e-21)
(0.946663 0.278655 8.19347e-20)
(1.06843 0.329836 -6.09642e-20)
(1.15274 0.366266 -4.63796e-21)
(1.2064 0.389317 5.3753e-20)
(1.23718 0.401635 1.70815e-20)
(1.25221 0.406101 2.37419e-20)
(1.25714 0.405255 -3.4965e-20)
(1.25608 0.401065 9.07573e-20)
(1.2518 0.394925 1.6791e-20)
(1.24601 0.387754 -7.99859e-20)
(1.23976 0.380125 1.16209e-19)
(1.23365 0.372379 -1.36752e-19)
(1.22802 0.364697 -6.23658e-20)
(1.22308 0.35723 1.04347e-20)
(1.21892 0.350369 6.04034e-20)
(1.21571 0.343806 -1.13274e-19)
(0.132205 0.0244554 -6.7588e-20)
(0.389177 0.0884508 -1.59248e-19)
(0.624966 0.169046 -1.37473e-19)
(0.825448 0.24738 -1.86944e-19)
(0.982376 0.313205 -1.05789e-19)
(1.09546 0.362608 -2.1902e-19)
(1.17036 0.395652 2.78236e-20)
(1.21547 0.414772 -1.15627e-19)
(1.23936 0.423311 -1.26345e-20)
(1.24928 0.424506 1.89486e-20)
(1.25071 0.421 -4.14318e-20)
(1.24741 0.414718 5.14311e-20)
(1.24177 0.406953 9.12953e-20)
(1.23521 0.39851 -1.28434e-19)
(1.22857 0.389869 2.03606e-20)
(1.22229 0.381297 5.8974e-20)
(1.21665 0.372927 9.84085e-20)
(1.21179 0.364895 -8.48878e-20)
(1.20773 0.357581 -4.03793e-21)
(1.20465 0.350543 9.88883e-20)
(0.146048 0.0323735 -1.27546e-19)
(0.41985 0.109721 3.49249e-19)
(0.662344 0.199438 -6.16252e-20)
(0.861441 0.282078 8.13844e-20)
(1.01173 0.348125 -7.9619e-20)
(1.11584 0.395038 2.44024e-19)
(1.18171 0.424267 -3.86118e-20)
(1.21908 0.439294 2.30384e-20)
(1.23701 0.444082 -1.13931e-20)
(1.24275 0.442132 3.74132e-20)
(1.24147 0.43612 2.41019e-20)
(1.23654 0.42789 3.01171e-20)
(1.22999 0.418609 -8.57926e-20)
(1.223 0.408972 1.24953e-19)
(1.21619 0.399365 -9.47904e-20)
(1.20992 0.389994 1.76712e-20)
(1.20438 0.380949 -6.03309e-20)
(1.19967 0.372357 1.26776e-20)
(1.19579 0.364587 1.42045e-20)
(1.1929 0.357068 -1.33596e-19)
(0.159442 0.0413192 9.33751e-21)
(0.448358 0.132855 -1.75938e-19)
(0.695619 0.231421 9.70061e-20)
(0.891791 0.31757 -3.38218e-19)
(1.03466 0.383002 1.63564e-19)
(1.1298 0.426812 -2.79953e-19)
(1.18721 0.451906 -2.17899e-19)
(1.21769 0.462766 -8.29012e-21)
(1.23061 0.463882 -7.35291e-20)
(1.23302 0.458933 -2.27643e-19)
(1.22972 0.45057 -2.81966e-20)
(1.22368 0.440521 -2.1631e-19)
(1.21662 0.429822 3.93033e-20)
(1.20946 0.419052 -3.08331e-20)
(1.20268 0.408518 1.80118e-20)
(1.19655 0.398368 -1.42408e-19)
(1.19122 0.38866 7.98217e-21)
(1.18675 0.379515 2.87156e-20)
(1.18309 0.371287 -6.50466e-20)
(1.18045 0.363284 5.68877e-20)
(0.172144 0.0512173 -7.23971e-20)
(0.474216 0.15757 3.21942e-19)
(0.724336 0.264564 2.22551e-21)
(0.916262 0.353393 -2.78246e-19)
(1.05121 0.417435 2.09527e-19)
(1.1376 0.457633 8.77238e-20)
(1.18726 0.478374 1.78633e-20)
(1.21176 0.485066 -1.46849e-19)
(1.22056 0.482629 2.3837e-19)
(1.22042 0.474842 -1.38533e-19)
(1.21571 0.464279 5.05706e-20)
(1.20902 0.452529 2.3244e-19)
(1.20177 0.440495 -2.0777e-19)
(1.19467 0.428648 2.27446e-19)
(1.18809 0.41722 -1.47308e-19)
(1.18221 0.40631 -2.89454e-20)
(1.17717 0.395949 3.46429e-20)
(1.17301 0.386259 4.3077e-20)
(1.16965 0.377575 5.89608e-20)
(1.16732 0.369091 3.56386e-20)
(0.183924 0.0619639 2.89391e-20)
(0.497001 0.18354 -2.89742e-19)
(0.748147 0.298412 5.1437e-20)
(0.934736 0.389083 6.70799e-19)
(1.06151 0.451038 -6.19602e-20)
(1.13958 0.487222 1.84802e-19)
(1.18227 0.503485 1.14926e-19)
(1.2017 0.506068 1.92508e-20)
(1.20723 0.500228 -1.31865e-19)
(1.20523 0.489769 2.15828e-19)
(1.19964 0.47715 -2.4452e-20)
(1.19269 0.463811 3.22868e-19)
(1.18552 0.450517 1.23039e-19)
(1.17868 0.437643 7.62535e-20)
(1.17243 0.425352 -1.58799e-19)
(1.16692 0.413701 3.34406e-20)
(1.16226 0.402703 1.21975e-19)
(1.15848 0.392478 3.06529e-20)
(1.15547 0.38334 -1.45973e-19)
(1.15353 0.37439 -3.61547e-20)
(0.194566 0.0734282 -1.61242e-19)
(0.516357 0.210399 5.19257e-19)
(0.766808 0.332488 -2.82527e-19)
(0.947202 0.424182 -2.59426e-19)
(1.06578 0.483442 -2.25281e-19)
(1.13608 0.515312 -1.89151e-19)
(1.17264 0.527053 -2.31871e-19)
(1.18789 0.52564 2.89151e-19)
(1.19091 0.516568 -2.04653e-19)
(1.18767 0.503608 -1.62452e-20)
(1.18167 0.489073 -1.97556e-21)
(1.17479 0.474246 -3.8598e-20)
(1.16795 0.459765 -9.80088e-20)
(1.16154 0.445911 -1.07831e-19)
(1.15576 0.432789 -5.75211e-21)
(1.15072 0.420421 -2.37807e-20)
(1.14652 0.408802 -5.71198e-20)
(1.14317 0.398055 -1.69486e-20)
(1.14059 0.388474 2.01221e-20)
(1.13908 0.379078 -1.18779e-19)
(0.203879 0.0854557 2.82242e-19)
(0.532006 0.237755 2.91381e-19)
(0.780178 0.366313 -1.80633e-19)
(0.953738 0.458246 1.11298e-19)
(1.06428 0.514297 1.91016e-19)
(1.12747 0.541651 -3.86053e-20)
(1.15876 0.5489 4.69812e-20)
(1.17065 0.543643 5.15585e-20)
(1.17188 0.531526 8.53763e-20)
(1.16795 0.516236 -9.91082e-20)
(1.16194 0.49992 4.86427e-20)
(1.15543 0.483704 -3.2083e-20)
(1.14912 0.468104 1.44773e-19)
(1.14331 0.453318 6.07331e-20)
(1.13812 0.439401 -1.40999e-19)
(1.13364 0.426341 7.59755e-20)
(1.12997 0.414123 3.79814e-20)
(1.12714 0.402873 -6.61891e-20)
(1.12503 0.392861 1.80395e-19)
(1.12404 0.383054 -1.31152e-19)
(0.211697 0.0978721 -2.07501e-19)
(0.543744 0.265197 -2.68833e-19)
(0.788211 0.399409 1.87186e-19)
(0.954503 0.49085 -1.7284e-19)
(1.05732 0.543274 -1.64855e-20)
(1.11412 0.566 -1.86002e-19)
(1.14099 0.56885 1.5523e-19)
(1.1503 0.559934 2.79386e-19)
(1.15038 0.544973 -3.88042e-19)
(1.14624 0.527522 2.0015e-20)
(1.14058 0.509556 1.45705e-20)
(1.13468 0.492045 -7.44263e-20)
(1.12911 0.475393 5.30961e-20)
(1.12404 0.459727 -2.10705e-20)
(1.11955 0.445052 1.35367e-19)
(1.11573 0.431331 -1.45708e-19)
(1.11268 0.41854 -4.71759e-20)
(1.11042 0.406806 1.26577e-19)
(1.10886 0.396383 -1.80124e-19)
(1.10844 0.386207 1.13852e-19)
(0.217886 0.110487 4.29955e-19)
(0.551448 0.292305 3.78932e-19)
(0.79095 0.431312 -6.38592e-20)
(0.949721 0.521591 -7.95867e-21)
(1.04524 0.570066 -1.90827e-19)
(1.09641 0.588136 8.13613e-20)
(1.11967 0.586733 3.89248e-19)
(1.12714 0.57437 -3.40421e-19)
(1.12664 0.556769 2.09675e-19)
(1.1227 0.537329 -1.7544e-20)
(1.11768 0.51784 1.23963e-19)
(1.11264 0.499126 -3.34013e-20)
(1.10796 0.481491 7.22207e-20)
(1.10378 0.464995 8.85725e-20)
(1.10012 0.449605 -5.27241e-20)
(1.09706 0.435258 5.75326e-20)
(1.09469 0.42192 -7.42838e-20)
(1.09307 0.409724 1.92253e-19)
(1.09213 0.398906 -1.12997e-19)
(1.09236 0.388411 8.04808e-20)
(0.222344 0.123101 -2.07942e-19)
(0.555067 0.318663 -3.87748e-19)
(0.788518 0.461575 -2.67412e-19)
(0.939671 0.550094 -1.80159e-20)
(1.02841 0.594389 6.26731e-20)
(1.07472 0.607848 -3.45013e-20)
(1.09515 0.602384 -2.21387e-19)
(1.10142 0.586807 -9.41021e-20)
(1.10084 0.56678 -1.67348e-19)
(1.09748 0.545517 -7.48631e-20)
(1.09337 0.524629 3.83131e-20)
(1.08937 0.504802 -1.80758e-19)
(1.08576 0.486252 -3.73679e-20)
(1.08261 0.468981 -3.43924e-20)
(1.07989 0.45292 -1.13285e-19)
(1.07768 0.437983 4.95832e-20)
(1.07608 0.424128 5.68225e-21)
(1.07516 0.411487 3.98467e-20)
(1.07491 0.400285 -1.69823e-20)
(1.07586 0.389517 -4.54722e-20)
(0.225004 0.135505 4.805e-19)
(0.554625 0.343862 4.18269e-19)
(0.781104 0.48978 5.11613e-19)
(0.924682 0.576015 -5.334e-20)
(1.00721 0.615986 -1.77908e-19)
(1.04942 0.624946 5.3381e-19)
(1.06774 0.615651 -2.56836e-19)
(1.07341 0.597108 2.79083e-19)
(1.07318 0.57487 -4.87861e-20)
(1.07072 0.551951 1.62953e-19)
(1.06774 0.529785 1.89745e-20)
(1.06496 0.508934 6.63502e-20)
(1.06257 0.489535 -1.40598e-20)
(1.06057 0.471544 5.91897e-20)
(1.05892 0.454857 -3.56633e-20)
(1.05766 0.43937 9.1594e-21)
(1.05691 0.425027 1.88938e-20)
(1.05677 0.41195 2.31015e-20)
(1.05728 0.400367 2.10963e-21)
(1.059 0.389381 6.42614e-22)
(0.225836 0.147491 -1.46676e-19)
(0.550213 0.367511 -4.07403e-19)
(0.768964 0.515539 -2.46982e-19)
(0.905115 0.599042 -4.26843e-19)
(0.982047 0.634626 4.50358e-19)
(1.02088 0.639257 -3.04704e-19)
(1.03777 0.626392 1.88326e-19)
(1.04335 0.605145 -6.87487e-20)
(1.04386 0.580913 -7.2451e-20)
(1.04254 0.556504 -4.9447e-20)
(1.04089 0.53318 2.65174e-20)
(1.03948 0.51139 2.19072e-20)
(1.03843 0.491206 5.89962e-21)
(1.03772 0.472543 -2.13642e-20)
(1.03727 0.455275 1.68465e-21)
(1.03708 0.439275 -1.50028e-21)
(1.03727 0.424471 -1.6667e-20)
(1.03797 0.410969 2.80384e-20)
(1.03929 0.399012 9.36455e-21)
(1.0418 0.387884 2.64532e-20)
(0.224842 0.158854 6.3523e-19)
(0.541984 0.389245 2.95326e-19)
(0.752402 0.5385 2.7656e-19)
(0.881367 0.618899 -1.59965e-19)
(0.953318 0.650107 1.74009e-20)
(0.989481 0.650628 2.20078e-19)
(1.00552 0.63448 2.45243e-20)
(1.01147 0.610801 4.20665e-20)
(1.01304 0.584797 4.09727e-20)
(1.01309 0.559063 -8.28877e-21)
(1.01292 0.534699 4.14519e-21)
(1.013 0.512054 -1.17921e-20)
(1.0134 0.491143 -1.42767e-20)
(1.01409 0.471852 1.76723e-20)
(1.01496 0.454035 4.79974e-21)
(1.01598 0.43755 4.65416e-21)
(1.01722 0.422305 -8.76921e-21)
(1.01885 0.408377 -2.07831e-21)
(1.02104 0.396051 4.79063e-20)
(1.02439 0.384875 -4.71282e-20)
(0.222061 0.169398 -4.46251e-19)
(0.530145 0.408728 -3.83362e-19)
(0.731769 0.558351 1.77161e-19)
(0.853853 0.635346 -2.1155e-19)
(0.921444 0.662256 -1.75966e-20)
(0.955577 0.658929 1.51174e-20)
(0.971311 0.639808 -2.85369e-20)
(0.978028 0.613977 -2.99794e-20)
(0.980911 0.586425 -3.06921e-20)
(0.982512 0.559533 -2.19342e-20)
(0.983937 0.53425 -3.0875e-20)
(0.985582 0.510832 4.27096e-20)
(0.987527 0.489249 -4.6764e-21)
(0.989712 0.469363 1.22069e-20)
(0.992032 0.451017 4.07987e-21)
(0.994406 0.434059 -6.9538e-20)
(0.996841 0.418377 -5.88311e-20)
(0.999498 0.403991 -6.29484e-20)
(1.0027 0.391213 -1.54411e-21)
(1.00714 0.379998 9.65538e-20)
(0.217562 0.178936 4.0045e-19)
(0.514952 0.425657 2.03468e-20)
(0.707453 0.57482 -4.27849e-20)
(0.823012 0.648183 4.84255e-20)
(0.886844 0.67093 1.23866e-19)
(0.91954 0.664054 -9.85282e-20)
(0.935438 0.642287 9.11729e-21)
(0.943249 0.614593 -2.78297e-20)
(0.947664 0.585723 -2.52907e-20)
(0.950939 0.557845 4.3803e-21)
(0.954035 0.531765 -5.59696e-20)
(0.9573 0.507656 -4.62455e-20)
(0.960819 0.485447 5.16153e-20)
(0.96456 0.464984 -1.82387e-20)
(0.968436 0.446107 -1.98749e-19)
(0.972327 0.428673 1.96007e-19)
(0.976154 0.412546 -1.15672e-19)
(0.980078 0.39762 -7.28868e-20)
(0.984662 0.384128 9.36524e-20)
(0.990674 0.37264 -1.15153e-19)
(0.211443 0.187299 -8.5714e-20)
(0.496703 0.439768 9.33259e-20)
(0.679869 0.58768 4.22664e-20)
(0.789292 0.657245 -6.17511e-20)
(0.849941 0.676016 1.68639e-20)
(0.881735 0.665921 -3.06828e-20)
(0.898206 0.641852 -1.55525e-20)
(0.907381 0.612594 2.08718e-20)
(0.913491 0.582642 9.99319e-22)
(0.918527 0.55396 -1.17819e-19)
(0.923327 0.527212 3.20639e-20)
(0.928206 0.502494 1.10171e-20)
(0.933268 0.47969 1.40122e-19)
(0.938536 0.458625 -3.53673e-19)
(0.943979 0.43914 3.2945e-19)
(0.949477 0.42112 1.74504e-19)
(0.954896 0.404427 -3.40241e-20)
(0.960478 0.388747 2.88659e-20)
(0.96707 0.374095 3.13716e-19)
(0.974957 0.361991 -1.31025e-19)
(0.203829 0.194336 -2.31757e-20)
(0.47573 0.450839 5.34815e-20)
(0.649458 0.596745 -4.4133e-20)
(0.753155 0.662405 5.66235e-20)
(0.811163 0.677431 -3.99468e-20)
(0.842533 0.664471 4.09401e-20)
(0.859923 0.638458 3.04113e-20)
(0.870684 0.607946 -8.11276e-20)
(0.878611 0.577168 8.10844e-20)
(0.885456 0.547884 5.59815e-20)
(0.891952 0.520632 2.73608e-20)
(0.898381 0.495422 4.95422e-21)
(0.904863 0.472079 1.10857e-19)
(0.911471 0.450379 -1.11212e-19)
(0.918243 0.430122 1.32984e-19)
(0.925111 0.411178 -2.79132e-19)
(0.931988 0.393358 3.11474e-19)
(0.939302 0.376056 -2.67371e-19)
(0.948 0.359024 -1.81786e-19)
(0.956993 0.345636 3.09036e-19)
(0.194869 0.199917 1.07704e-20)
(0.452393 0.458688 -2.38605e-20)
(0.616674 0.601874 -1.58697e-20)
(0.715066 0.663572 -5.35676e-20)
(0.770935 0.67512 1.78354e-20)
(0.802304 0.659668 4.44944e-21)
(0.820907 0.632079 -1.78112e-19)
(0.833432 0.600634 1.18789e-19)
(0.843267 0.569302 1.17329e-19)
(0.851954 0.539656 -1.62932e-19)
(0.860126 0.512119 1.89536e-19)
(0.868029 0.486632 -7.28436e-20)
(0.875768 0.462965 1.41837e-19)
(0.883421 0.440835 -2.26943e-19)
(0.891035 0.419957 4.71929e-19)
(0.898573 0.400085 -1.07236e-19)
(0.906057 0.380823 -2.96648e-20)
(0.914143 0.360958 3.0947e-19)
(0.923607 0.338601 -1.50842e-19)
(0.929624 0.316185 6.56291e-20)
(0.184729 0.203933 -7.17913e-20)
(0.427069 0.463175 9.91299e-20)
(0.581983 0.602966 -3.3959e-20)
(0.675491 0.660689 5.55141e-20)
(0.729685 0.669051 -2.67705e-20)
(0.76142 0.651494 -1.73138e-19)
(0.781483 0.622702 2.66166e-19)
(0.795915 0.590649 1.79403e-20)
(0.807733 0.559043 -2.82877e-20)
(0.818293 0.529288 4.84559e-21)
(0.828147 0.501713 8.56518e-20)
(0.837507 0.476222 1.47392e-19)
(0.846456 0.452575 8.88821e-20)
(0.855028 0.430503 -2.10893e-19)
(0.863212 0.409759 -5.98735e-20)
(0.870944 0.390153 -1.14202e-20)
(0.87832 0.37143 3.90219e-20)
(0.885914 0.352919 4.97078e-21)
(0.893694 0.333924 4.50298e-19)
(0.897125 0.316518 -3.14561e-19)
(0.173586 0.206296 1.79226e-19)
(0.400149 0.464197 -3.25137e-20)
(0.545852 0.599958 -1.19311e-19)
(0.634893 0.65373 3.97075e-19)
(0.68783 0.659219 7.32244e-20)
(0.720249 0.639949 -2.33328e-19)
(0.741973 0.610326 2.17366e-19)
(0.758423 0.577988 -4.83329e-20)
(0.772281 0.546385 1.9215e-19)
(0.784742 0.516763 8.70732e-20)
(0.7963 0.489374 -4.24867e-19)
(0.807155 0.464088 -4.96802e-20)
(0.817391 0.440657 5.90502e-19)
(0.827044 0.418818 -7.22652e-19)
(0.836092 0.398334 6.68541e-19)
(0.844468 0.379011 2.31277e-19)
(0.852228 0.360581 -8.23902e-19)
(0.859765 0.342485 3.97437e-19)
(0.866912 0.324418 -8.21438e-20)
(0.87026 0.308704 9.55537e-20)
(0.161631 0.206942 -3.1392e-19)
(0.372032 0.461692 -3.22907e-19)
(0.508748 0.592828 2.2089e-19)
(0.59373 0.642701 -2.7487e-19)
(0.645785 0.645643 -7.47005e-19)
(0.679154 0.625052 -2.33099e-20)
(0.702697 0.594964 -2.21171e-19)
(0.721249 0.562659 1.21768e-20)
(0.737182 0.531333 -4.31165e-19)
(0.751559 0.502091 -4.38777e-19)
(0.764826 0.47512 -2.97339e-19)
(0.777177 0.450268 -1.2195e-20)
(0.788705 0.427292 -7.38167e-19)
(0.799457 0.405945 -4.92775e-21)
(0.809435 0.386019 3.59722e-19)
(0.818609 0.367354 -3.58074e-19)
(0.827047 0.34974 -2.75512e-19)
(0.835071 0.332754 2.65203e-19)
(0.842506 0.316214 -1.90481e-19)
(0.846559 0.301964 3.67575e-20)
(0.149062 0.20583 2.4774e-19)
(0.343117 0.455637 1.92583e-19)
(0.471132 0.58159 -6.45705e-21)
(0.552446 0.62764 -1.54029e-19)
(0.60395 0.628367 3.81087e-19)
(0.638488 0.606841 6.08378e-19)
(0.663969 0.576645 -6.2698e-20)
(0.684676 0.544677 1.22802e-20)
(0.702708 0.513889 1.19851e-19)
(0.719012 0.485256 2.70207e-19)
(0.734006 0.458911 3.90929e-19)
(0.747884 0.434687 -3.15532e-19)
(0.760753 0.412343 3.12919e-19)
(0.772679 0.391645 -1.06625e-19)
(0.783685 0.3724 3.64093e-19)
(0.793768 0.354455 -1.4155e-19)
(0.803029 0.337626 -3.5085e-19)
(0.811789 0.321578 2.1185e-19)
(0.819901 0.306244 -3.01342e-19)
(0.824928 0.293177 -3.43094e-19)
(0.136078 0.202941 1.06973e-19)
(0.3138 0.446046 1.96428e-19)
(0.433453 0.566293 -2.07048e-19)
(0.511474 0.608616 1.03186e-20)
(0.562713 0.607458 3.55518e-20)
(0.598591 0.585375 2.85812e-19)
(0.626091 0.555414 -4.23561e-19)
(0.648979 0.524076 4.02986e-19)
(0.669109 0.494074 -3.82607e-20)
(0.687334 0.466267 1.1045e-19)
(0.704052 0.440739 1.77455e-19)
(0.719467 0.417316 -3.38216e-19)
(0.733707 0.395763 1.62744e-19)
(0.746861 0.375859 1.5442e-19)
(0.758977 0.357421 5.69017e-20)
(0.770084 0.340309 -2.92029e-19)
(0.780307 0.32435 9.83842e-19)
(0.789962 0.309258 -5.50231e-19)
(0.798902 0.294999 1.00107e-18)
(0.804961 0.282859 -6.48675e-20)
(0.122881 0.198275 7.65907e-20)
(0.28447 0.432969 4.61044e-19)
(0.396147 0.547022 1.6294e-19)
(0.47123 0.585724 3.42199e-19)
(0.522446 0.58301 8.86483e-20)
(0.559789 0.560733 -5.45454e-19)
(0.589352 0.531334 8.45466e-19)
(0.614418 0.500904 4.37532e-19)
(0.636625 0.471922 1.82646e-20)
(0.656749 0.445141 5.67262e-19)
(0.675175 0.420607 9.11555e-20)
(0.692122 0.398139 5.95227e-20)
(0.70774 0.37751 3.39671e-19)
(0.722141 0.358508 -1.26788e-19)
(0.7354 0.340959 -1.34356e-19)
(0.747574 0.324728 7.92238e-19)
(0.758813 0.309652 -6.62703e-19)
(0.769426 0.295482 2.56919e-20)
(0.779254 0.282201 8.38886e-19)
(0.786372 0.270866 -7.80775e-22)
(0.109668 0.191857 -9.86555e-19)
(0.255501 0.416487 -1.68364e-19)
(0.359631 0.523895 -2.26437e-19)
(0.432108 0.55909 -1.72533e-19)
(0.4835 0.55514 -4.36539e-19)
(0.522393 0.533017 1.49488e-19)
(0.554026 0.504491 -2.08938e-19)
(0.581241 0.475228 5.97185e-20)
(0.605481 0.447486 -3.02402e-19)
(0.627462 0.421917 -2.87094e-19)
(0.647563 0.398539 5.89445e-20)
(0.666019 0.377167 -4.64215e-19)
(0.683004 0.357582 3.7023e-19)
(0.698651 0.33958 -1.33762e-19)
(0.71306 0.322998 4.20551e-19)
(0.726315 0.307702 -9.07367e-19)
(0.738582 0.293537 -1.72137e-19)
(0.750155 0.280283 -3.25758e-19)
(0.760873 0.267928 -8.76064e-19)
(0.76904 0.257327 -1.41182e-19)
(0.0966313 0.183727 1.61167e-19)
(0.227253 0.396715 -1.95151e-20)
(0.324301 0.49706 -2.47377e-19)
(0.394483 0.52887 8.72942e-20)
(0.446209 0.52399 -1.7654e-19)
(0.486696 0.502349 -2.37933e-21)
(0.520374 0.474988 2.40875e-19)
(0.54968 0.447137 -3.59295e-19)
(0.575889 0.420838 1.40529e-19)
(0.599664 0.396656 -8.12109e-20)
(0.621387 0.374582 2.18348e-20)
(0.64131 0.354434 -4.02555e-19)
(0.659627 0.335998 -4.90296e-19)
(0.676494 0.319086 -1.85456e-20)
(0.692033 0.303537 5.46799e-19)
(0.70635 0.289223 2.57505e-20)
(0.719625 0.275998 6.92947e-19)
(0.732132 0.263668 -1.0099e-18)
(0.743717 0.252216 5.37805e-19)
(0.752906 0.242325 9.26656e-19)
(0.0839576 0.173948 -1.39672e-19)
(0.20007 0.373798 7.50404e-20)
(0.290531 0.466696 4.88091e-19)
(0.358707 0.495241 1.20417e-19)
(0.410886 0.489724 -1.62627e-19)
(0.452971 0.468877 1.28251e-19)
(0.488637 0.442952 5.05273e-19)
(0.519952 0.41674 -4.09835e-19)
(0.548043 0.392073 3.81362e-20)
(0.573533 0.369438 -1.49758e-19)
(0.596807 0.348806 5.4198e-19)
(0.618135 0.329997 3.87444e-19)
(0.637732 0.312812 -5.61334e-20)
(0.655774 0.297069 -5.89174e-19)
(0.672402 0.282619 3.10377e-20)
(0.687741 0.269336 -7.28702e-20)
(0.70198 0.257086 3.46848e-19)
(0.715374 0.245697 5.64883e-19)
(0.727787 0.235145 4.93996e-19)
(0.737959 0.225965 -8.25127e-19)
(0.0718232 0.162597 -8.71802e-20)
(0.174272 0.347908 3.72253e-19)
(0.258671 0.433011 -3.63285e-19)
(0.325105 0.458411 5.04777e-19)
(0.37782 0.452532 -2.74885e-19)
(0.421473 0.432766 1.96816e-19)
(0.45904 0.408528 5.00747e-19)
(0.492258 0.384164 -6.02143e-19)
(0.522125 0.361304 2.74442e-19)
(0.549233 0.340363 3.47806e-19)
(0.573969 0.321298 -4.73148e-19)
(0.596624 0.303938 -3.38902e-20)
(0.617431 0.288094 -3.80524e-19)
(0.636585 0.273597 6.1008e-19)
(0.654244 0.260307 -3.31348e-19)
(0.67055 0.248106 3.56044e-19)
(0.685694 0.236869 -6.46617e-20)
(0.699917 0.226445 2.20285e-19)
(0.713106 0.216804 5.02019e-20)
(0.72421 0.208351 -1.28807e-19)
(0.0603941 0.149771 -2.66785e-19)
(0.150159 0.319243 -6.14695e-19)
(0.229044 0.396235 1.61809e-19)
(0.29398 0.418608 -5.19102e-19)
(0.347279 0.412624 -4.91732e-19)
(0.392437 0.394202 -3.53584e-19)
(0.431792 0.371882 2.75727e-19)
(0.466785 0.349556 2.12204e-19)
(0.498303 0.328663 -1.55756e-21)
(0.526913 0.309551 -1.85324e-19)
(0.553009 0.29217 -3.34301e-19)
(0.576898 0.276357 3.01825e-19)
(0.598831 0.261939 -1.03907e-19)
(0.61902 0.24876 -5.15158e-19)
(0.637637 0.236689 3.35854e-19)
(0.65484 0.225618 -2.52327e-19)
(0.670821 0.215432 -1.02969e-19)
(0.685806 0.206002 -2.8826e-19)
(0.699713 0.197289 -2.61501e-19)
(0.711689 0.189593 6.76109e-20)
(0.0498241 0.13558 2.33092e-19)
(0.128005 0.288028 1.20921e-19)
(0.201943 0.356628 1.84964e-19)
(0.265606 0.376083 -6.30651e-19)
(0.319505 0.370228 6.75783e-19)
(0.366076 0.353392 3.28952e-21)
(0.407081 0.333197 5.55544e-21)
(0.443701 0.313082 -4.12702e-19)
(0.476729 0.294299 3.85602e-19)
(0.506711 0.277139 -2.68265e-19)
(0.534051 0.261547 8.12394e-20)
(0.559068 0.247372 -3.60641e-19)
(0.582031 0.234457 -1.71788e-19)
(0.603164 0.222661 -8.22171e-20)
(0.622658 0.211865 6.19307e-19)
(0.640678 0.201971 -3.04178e-19)
(0.657419 0.192876 -2.74739e-19)
(0.673093 0.18447 2.83085e-19)
(0.687653 0.176708 -2.32555e-19)
(0.700431 0.169801 1.81293e-19)
(0.0402535 0.120149 4.94468e-19)
(0.108059 0.254508 -2.98615e-19)
(0.177634 0.314468 4.47853e-20)
(0.240228 0.331108 5.23831e-19)
(0.294715 0.325592 2.07915e-19)
(0.34258 0.310557 2.58213e-19)
(0.385077 0.292673 2.57186e-19)
(0.423159 0.274923 5.46002e-19)
(0.457541 0.258379 -1.25284e-19)
(0.488753 0.243279 2.99211e-19)
(0.517206 0.22957 4.35311e-19)
(0.543234 0.217114 1.60533e-19)
(0.567119 0.205772 2.91057e-19)
(0.5891 0.19542 1.05742e-19)
(0.609377 0.185951 6.23778e-20)
(0.628128 0.177277 -4.51497e-20)
(0.645545 0.169311 3.62498e-19)
(0.661829 0.161958 2.23817e-19)
(0.676972 0.15517 -2.03362e-19)
(0.690475 0.149091 1.91882e-19)
(0.0318079 0.103616 -3.28175e-19)
(0.0905412 0.218948 3.71264e-20)
(0.156353 0.270054 -9.49145e-20)
(0.218063 0.283972 -2.88324e-19)
(0.273104 0.278982 -1.53031e-19)
(0.322121 0.265936 -2.78078e-19)
(0.365931 0.250524 1.29172e-19)
(0.405295 0.235274 -5.00672e-19)
(0.440861 0.22108 2.95808e-19)
(0.473148 0.208138 -4.0955e-19)
(0.502575 0.196393 -2.54632e-19)
(0.529487 0.185728 -3.3735e-19)
(0.554178 0.176022 7.73169e-20)
(0.576899 0.167167 -7.63463e-20)
(0.597861 0.159071 9.1563e-20)
(0.617248 0.151659 4.93599e-20)
(0.635253 0.144856 9.81372e-20)
(0.652066 0.138583 -8.20541e-19)
(0.667719 0.132792 4.08595e-19)
(0.681859 0.127576 -2.44994e-19)
(0.024597 0.086131 1.08357e-19)
(0.0756432 0.181632 2.18948e-19)
(0.138302 0.223703 -1.42953e-19)
(0.199301 0.23498 3.53064e-19)
(0.254835 0.230676 -5.68675e-20)
(0.304843 0.219779 4.0936e-19)
(0.349773 0.206979 7.91162e-20)
(0.390225 0.194343 -8.33066e-20)
(0.426795 0.182596 3.03161e-19)
(0.459993 0.171892 2.32134e-19)
(0.490244 0.162184 8.61783e-20)
(0.517905 0.153371 1.13458e-19)
(0.543279 0.145354 5.69784e-20)
(0.566627 0.138042 -2.41984e-19)
(0.588167 0.13136 -3.3803e-20)
(0.608094 0.125244 2.53249e-19)
(0.626593 0.119635 -1.73126e-19)
(0.643852 0.114467 -7.92177e-21)
(0.659935 0.109696 -3.63429e-19)
(0.674619 0.105377 7.32473e-19)
(0.0187137 0.0678523 2.90393e-19)
(0.0635267 0.142856 -3.49034e-19)
(0.123652 0.175746 1.63699e-19)
(0.184099 0.18445 -2.31921e-19)
(0.24005 0.180966 2.04558e-19)
(0.290871 0.172351 -3.55601e-19)
(0.336712 0.162275 -2.60692e-19)
(0.378048 0.152347 1.95499e-20)
(0.415433 0.143127 -3.56021e-19)
(0.449369 0.13473 -2.22452e-19)
(0.480288 0.127116 -3.85728e-19)
(0.508556 0.120207 -1.30851e-20)
(0.534484 0.113923 -1.50148e-19)
(0.558339 0.108194 3.801e-19)
(0.580349 0.10296 2.62393e-19)
(0.60071 0.0981706 -8.80402e-20)
(0.61961 0.0937795 -7.96592e-20)
(0.637227 0.0897374 -3.53035e-21)
(0.653659 0.086005 9.82474e-21)
(0.668787 0.0826128 1.44584e-19)
(0.0142334 0.0489477 -7.26224e-20)
(0.0543222 0.102933 -2.48702e-19)
(0.112542 0.126527 -1.55186e-19)
(0.172583 0.132713 -9.71812e-20)
(0.22886 0.130152 -2.01589e-19)
(0.280302 0.123923 3.45831e-19)
(0.326836 0.116661 -3.69442e-20)
(0.368843 0.109515 -8.33677e-20)
(0.406845 0.102883 3.4059e-21)
(0.441341 0.0968452 2.4562e-19)
(0.472767 0.0913722 -2.33575e-19)
(0.501494 0.0864068 2.28731e-19)
(0.527842 0.0818918 1.07543e-19)
(0.552081 0.0777764 -1.96208e-19)
(0.574446 0.0740173 4.29195e-20)
(0.595137 0.0705781 1.26515e-19)
(0.614338 0.067426 4.41973e-20)
(0.632227 0.064526 -3.05067e-20)
(0.648924 0.0618478 -2.66853e-19)
(0.664389 0.0594065 2.1258e-19)
(0.0112133 0.0295911 6.54887e-20)
(0.0481283 0.062183 7.95635e-20)
(0.105073 0.0763985 2.23858e-20)
(0.164849 0.0801062 -1.68917e-20)
(0.22135 0.0785431 4.80651e-20)
(0.273212 0.0747761 7.36194e-20)
(0.320213 0.0703914 2.79242e-20)
(0.362671 0.0660803 3.40954e-20)
(0.401087 0.0620809 -7.27944e-20)
(0.43596 0.0584409 1.36392e-19)
(0.467725 0.0551418 -3.22723e-20)
(0.496762 0.0521492 -2.63097e-21)
(0.52339 0.0494284 3.28513e-20)
(0.547888 0.0469487 3.70657e-20)
(0.570491 0.0446839 -9.98298e-20)
(0.591403 0.0426121 6.5602e-20)
(0.610807 0.0407137 4.31009e-20)
(0.628877 0.0389677 3.68387e-20)
(0.645752 0.0373552 7.91571e-20)
(0.661445 0.0358823 3.28144e-20)
(0.00969177 0.00996125 -1.34108e-20)
(0.0450109 0.0209328 2.78781e-20)
(0.101317 0.0257214 -3.90361e-20)
(0.160962 0.026975 2.45416e-20)
(0.217576 0.0264554 1.44362e-20)
(0.26965 0.0251946 6.48267e-21)
(0.316886 0.0237259 1.52952e-20)
(0.359571 0.0222817 -4.38841e-20)
(0.398196 0.0209419 2.80042e-20)
(0.433257 0.0197226 9.78441e-21)
(0.465194 0.0186175 -5.98713e-22)
(0.494385 0.0176152 6.04217e-20)
(0.521156 0.0167038 -1.83204e-20)
(0.545783 0.0158733 -1.75813e-20)
(0.568506 0.0151147 -1.69375e-20)
(0.589529 0.0144207 2.62333e-21)
(0.609034 0.0137848 -2.27102e-20)
(0.627195 0.0132 4.32372e-21)
(0.64416 0.0126598 8.55489e-22)
(0.659968 0.0121659 -2.88723e-21)
(0.0096881 -0.00976048 8.51925e-21)
(0.0450034 -0.0204852 -4.53478e-20)
(0.101308 -0.0251397 5.40945e-20)
(0.160952 -0.0263322 -4.06745e-20)
(0.217567 -0.0257929 -1.90163e-20)
(0.269642 -0.0245325 5.69445e-20)
(0.316879 -0.0230723 4.75665e-21)
(0.359564 -0.0216389 1.3397e-21)
(0.398189 -0.02031 2.67232e-20)
(0.433251 -0.0191009 1.38417e-20)
(0.465188 -0.0180052 -1.0909e-20)
(0.49438 -0.0170115 -3.83953e-20)
(0.52115 -0.0161082 3.61813e-21)
(0.545778 -0.0152851 -3.37847e-21)
(0.568501 -0.0145335 3.59233e-20)
(0.589524 -0.0138461 -2.16404e-20)
(0.60903 -0.0132165 2.97353e-20)
(0.627191 -0.0126378 -4.45901e-20)
(0.644155 -0.0121034 5.21341e-23)
(0.659964 -0.011615 -9.40706e-21)
(0.0112024 -0.0293918 -2.83018e-20)
(0.0481058 -0.0617378 1.42828e-19)
(0.105047 -0.0758193 9.63201e-20)
(0.164822 -0.0794657 6.37958e-20)
(0.221323 -0.0778825 7.97385e-20)
(0.273187 -0.0741156 -1.93061e-20)
(0.32019 -0.0697392 8.85185e-20)
(0.362649 -0.0654388 1.8183e-20)
(0.401067 -0.0614502 -7.86107e-21)
(0.435941 -0.0578202 -6.33044e-20)
(0.467708 -0.0545304 6.57879e-20)
(0.496745 -0.0515463 -8.94338e-20)
(0.523375 -0.0488334 6.50664e-20)
(0.547873 -0.046361 7.46408e-20)
(0.570476 -0.0441032 9.88973e-20)
(0.591389 -0.042038 -6.49158e-20)
(0.610794 -0.0401458 1.84331e-20)
(0.628864 -0.0384058 6.88537e-20)
(0.645739 -0.036799 -6.51164e-20)
(0.661433 -0.0353317 4.91425e-20)
(0.0142154 -0.0487512 -2.73686e-19)
(0.0542852 -0.102493 -1.3756e-19)
(0.112497 -0.125953 -1.5304e-19)
(0.172537 -0.132077 -1.20811e-20)
(0.228816 -0.129495 -8.2626e-20)
(0.280261 -0.123266 -1.01368e-19)
(0.326798 -0.116012 1.79306e-19)
(0.368808 -0.108876 9.14961e-20)
(0.406812 -0.102254 1.12941e-19)
(0.44131 -0.0962265 -1.22645e-19)
(0.472738 -0.0907625 9.09899e-20)
(0.501467 -0.0858055 1.11241e-19)
(0.527815 -0.0812982 3.92546e-20)
(0.552056 -0.07719 -3.73098e-20)
(0.574422 -0.0734376 8.1023e-21)
(0.595114 -0.0700049 -1.6066e-20)
(0.614316 -0.066859 -1.58232e-19)
(0.632205 -0.0639648 2.44458e-20)
(0.648902 -0.0612923 1.54014e-19)
(0.664369 -0.0588566 -2.06954e-19)
(0.018689 -0.0676601 -9.01574e-20)
(0.0634758 -0.142424 1.33484e-19)
(0.123591 -0.17518 3.09419e-20)
(0.184036 -0.183821 -5.78035e-20)
(0.239989 -0.180315 -1.63537e-19)
(0.290814 -0.171699 -3.50685e-19)
(0.336659 -0.16163 -3.34087e-19)
(0.377999 -0.151712 -2.41506e-20)
(0.415387 -0.142502 -1.94711e-19)
(0.449326 -0.134114 -2.91456e-19)
(0.480248 -0.126509 2.26302e-19)
(0.508518 -0.119607 -3.33801e-19)
(0.534448 -0.113331 6.66756e-20)
(0.558304 -0.107609 -2.11819e-20)
(0.580315 -0.102382 -7.02678e-20)
(0.600678 -0.0975988 -8.89728e-20)
(0.619579 -0.0932137 1.44201e-19)
(0.637197 -0.0891773 1.15414e-19)
(0.65363 -0.0854504 1.98576e-19)
(0.668759 -0.0820637 -2.97189e-19)
(0.0245661 -0.0859445 4.8883e-20)
(0.0755793 -0.181208 4.75307e-19)
(0.138225 -0.223147 1.36208e-19)
(0.199222 -0.234359 3.2944e-19)
(0.254758 -0.230033 -1.23169e-19)
(0.304771 -0.219134 1.89723e-19)
(0.349706 -0.206339 -5.98151e-20)
(0.390163 -0.193712 3.85353e-19)
(0.426737 -0.181975 -1.98438e-19)
(0.459939 -0.17128 2.33994e-19)
(0.490193 -0.16158 2.0331e-19)
(0.517856 -0.152775 2.17777e-19)
(0.543233 -0.144765 -1.94959e-19)
(0.566583 -0.13746 1.67582e-19)
(0.588125 -0.130784 -2.32981e-19)
(0.608053 -0.124674 -6.41773e-20)
(0.626554 -0.11907 -1.53893e-19)
(0.643814 -0.113908 -6.54167e-20)
(0.659897 -0.109143 2.59439e-19)
(0.674583 -0.104829 -4.2969e-19)
(0.0317716 -0.103437 -1.96898e-19)
(0.0904653 -0.218537 -2.27797e-20)
(0.156261 -0.26951 -7.85207e-20)
(0.217968 -0.283363 -2.76024e-19)
(0.273011 -0.278348 4.68583e-20)
(0.322034 -0.265298 -4.32716e-19)
(0.36585 -0.249892 -1.82178e-19)
(0.40522 -0.23465 -1.41283e-20)
(0.440792 -0.220465 -4.58652e-19)
(0.473083 -0.207531 -1.42641e-19)