/*--------------------------------*- C++ -*----------------------------------*\
  =========                 |
  \\      /  F ield         | OpenFOAM: The Open Source CFD Toolbox
   \\    /   O peration     | Website:  https://openfoam.org
    \\  /    A nd           | Version:  6.0
     \\/     M anipulation  |
\*---------------------------------------------------------------------------*/
FoamFile
{
    version     2.0;
    format      ascii;
    class       surfaceScalarField;
    location    "29";
    object      phi;
}
// * * * * * * * * * * * * * * * * * * * * * * * * * * * * * * * * * * * * * //

dimensions      [0 3 -1 0 0 0 0];

internalField   nonuniform List<scalar> 
24700
(
-1.28847e-06
1.10202e-06
1.86448e-07
-4.68505e-06
2.96729e-06
4.29293e-07
-9.78836e-06
4.52916e-06
5.74142e-07
-1.62477e-05
5.81411e-06
6.45206e-07
-2.37618e-05
6.85204e-06
6.62085e-07
-3.20767e-05
7.67442e-06
6.40433e-07
-4.09822e-05
8.31298e-06
5.92567e-07
-5.0309e-05
8.79878e-06
5.28015e-07
-5.99246e-05
9.16165e-06
4.54e-07
-6.97304e-05
9.42991e-06
3.7587e-07
-7.96579e-05
9.63005e-06
2.9747e-07
-8.96661e-05
9.78667e-06
2.21461e-07
-9.9738e-05
9.92235e-06
1.49578e-07
-0.000109878
1.00575e-05
8.28463e-08
-0.000120111
1.02104e-05
2.17439e-08
-0.000130474
1.03969e-05
-3.36638e-08
-0.000141021
1.06307e-05
-8.36287e-08
-0.000151815
1.09228e-05
-1.28646e-07
-0.000162927
1.12819e-05
-1.69399e-07
-0.000174435
1.17143e-05
-2.06722e-07
-0.000186417
1.22239e-05
-2.41567e-07
-0.000198955
1.28122e-05
-2.74981e-07
-0.000212125
1.34785e-05
-3.08084e-07
-0.000226004
1.42208e-05
-3.42048e-07
1.5038e-05
-3.78065e-07
-0.000240664
-1.2877e-06
2.38972e-06
-4.68097e-06
6.36055e-06
-9.77718e-06
9.62537e-06
-1.62244e-05
1.22613e-05
-2.37203e-05
1.43479e-05
-3.20095e-05
1.59637e-05
-4.08808e-05
1.71843e-05
-5.01634e-05
1.80814e-05
-5.97234e-05
1.87217e-05
-6.94605e-05
1.9167e-05
-7.93047e-05
1.94742e-05
-8.9213e-05
1.9695e-05
-9.9167e-05
1.98764e-05
-0.00010917
2.00603e-05
-0.000119243
2.02838e-05
-0.000129426
2.05793e-05
-0.000139769
2.09738e-05
-0.000150336
2.14897e-05
-0.000161198
2.2144e-05
-0.000172432
2.29489e-05
-0.00018412
2.39117e-05
-0.000196343
2.50347e-05
-0.00020918
2.63157e-05
-0.000222709
2.77498e-05
2.93334e-05
-0.000237004
-1.28639e-06
3.6761e-06
-4.67371e-06
9.74788e-06
-9.75694e-06
1.47086e-05
-1.61818e-05
1.86862e-05
-2.36435e-05
2.18096e-05
-3.18845e-05
2.42047e-05
-4.0691e-05
2.59908e-05
-4.98896e-05
2.72799e-05
-5.93434e-05
2.81755e-05
-6.89489e-05
2.87725e-05
-7.86326e-05
2.91579e-05
-8.83482e-05
2.94107e-05
-9.80738e-05
2.9602e-05
-0.000107809
2.97956e-05
-0.000117573
3.00481e-05
-0.000127403
3.04084e-05
-0.000137347
3.09182e-05
-0.000147469
3.16116e-05
-0.00015784
3.25152e-05
-0.000168539
3.36478e-05
-0.000179648
3.50211e-05
-0.000191253
3.66392e-05
-0.000203436
3.8499e-05
-0.000216279
4.0593e-05
4.29156e-05
-0.000229862
-1.28479e-06
4.96089e-06
-4.66404e-06
1.31271e-05
-9.72906e-06
1.97736e-05
-1.6122e-05
2.50791e-05
-2.35349e-05
2.92225e-05
-3.17068e-05
3.23765e-05
-4.04202e-05
3.47043e-05
-4.94978e-05
3.63576e-05
-5.87985e-05
3.74761e-05
-6.8214e-05
3.8188e-05
-7.76657e-05
3.86097e-05
-8.71022e-05
3.88471e-05
-9.64962e-05
3.89959e-05
-0.000105843
3.9142e-05
-0.000115156
3.93615e-05
-0.000124469
3.97212e-05
-0.000133829
4.02783e-05
-0.000143297
4.10799e-05
-0.000152946
4.21636e-05
-0.000162855
4.35567e-05
-0.00017311
4.52766e-05
-0.000183801
4.73304e-05
-0.000195018
4.97155e-05
-0.000206847
5.24225e-05
5.5444e-05
-0.000219376
-1.28322e-06
6.24411e-06
-4.65282e-06
1.64967e-05
-9.69516e-06
2.4816e-05
-1.60479e-05
3.14319e-05
-2.33987e-05
3.65733e-05
-3.14825e-05
4.04602e-05
-4.00773e-05
4.32991e-05
-4.90009e-05
4.52811e-05
-5.81066e-05
4.65818e-05
-6.728e-05
4.73614e-05
-7.64359e-05
4.77656e-05
-8.55158e-05
4.7927e-05
-9.44854e-05
4.79655e-05
-0.000103333
4.79892e-05
-0.000112066
4.80948e-05
-0.000120712
4.83677e-05
-0.000129316
4.88818e-05
-0.000137935
4.96995e-05
-0.000146643
5.0871e-05
-0.00015552
5.24343e-05
-0.000164658
5.44146e-05
-0.000174153
5.68245e-05
-0.0001841
5.96632e-05
-0.000194599
6.29212e-05
6.65898e-05
-0.000205745
-1.28198e-06
7.52608e-06
-4.64085e-06
1.98556e-05
-9.65666e-06
2.98318e-05
-1.59616e-05
3.77368e-05
-2.32385e-05
4.38502e-05
-3.12173e-05
4.8439e-05
-3.9671e-05
5.17528e-05
-4.84117e-05
5.40218e-05
-5.72862e-05
5.54563e-05
-6.61728e-05
5.6248e-05
-7.49782e-05
5.65711e-05
-8.36353e-05
5.65841e-05
-9.21006e-05
5.64308e-05
-0.000100353
5.62419e-05
-0.000108393
5.61348e-05
-0.00011624
5.62148e-05
-0.000123933
5.65744e-05
-0.000131526
5.7293e-05
-0.000139092
5.84363e-05
-0.000146713
6.00556e-05
-0.000154486
6.21874e-05
-0.000162513
6.48522e-05
-0.000170904
6.8054e-05
-0.000179769
7.17855e-05
7.60378e-05
-0.000189217
-1.28126e-06
8.80734e-06
-4.62853e-06
2.32029e-05
-9.61416e-06
3.48174e-05
-1.58641e-05
4.39868e-05
-2.30559e-05
5.10419e-05
-3.09142e-05
5.62973e-05
-3.92068e-05
6.00454e-05
-4.77395e-05
6.25545e-05
-5.63521e-05
6.40689e-05
-6.49147e-05
6.48107e-05
-7.33249e-05
6.49812e-05
-8.15049e-05
6.47641e-05
-8.94007e-05
6.43266e-05
-9.69801e-05
6.38212e-05
-0.000104232
6.33871e-05
-0.000111168
6.31501e-05
-0.000117816
6.32229e-05
-0.000124228
6.37047e-05
-0.000130471
6.46797e-05
-0.000136632
6.62164e-05
-0.000142811
6.83662e-05
-0.00014912
7.11618e-05
-0.000155683
7.46163e-05
-0.000162625
7.87273e-05
8.34886e-05
-0.000170075
-1.28108e-06
1.00884e-05
-4.6156e-06
2.65374e-05
-9.56689e-06
3.97687e-05
-1.57541e-05
5.0174e-05
-2.28491e-05
5.8137e-05
-3.05717e-05
6.40199e-05
-3.86842e-05
6.81579e-05
-4.69864e-05
7.08567e-05
-5.53107e-05
7.23933e-05
-6.35188e-05
7.30187e-05
-7.14977e-05
7.29602e-05
-7.91585e-05
7.24249e-05
-8.64342e-05
7.16023e-05
-9.32795e-05
7.06665e-05
-9.96702e-05
6.97778e-05
-0.000105604
6.90836e-05
-0.000111099
6.87187e-05
-0.000116199
6.88042e-05
-0.000120966
6.94467e-05
-0.000125486
7.07363e-05
-0.000129864
7.27446e-05
-0.000134225
7.55222e-05
-0.000138705
7.90964e-05
-0.000143453
8.34753e-05
8.86593e-05
-0.000148623
-1.28117e-06
1.13696e-05
-4.60085e-06
2.98571e-05
-9.5121e-06
4.46799e-05
-1.56269e-05
5.62888e-05
-2.26116e-05
6.51217e-05
-3.01814e-05
7.15897e-05
-3.80938e-05
7.60703e-05
-4.61429e-05
7.89058e-05
-5.41544e-05
8.04048e-05
-6.19811e-05
8.08453e-05
-6.94996e-05
8.04788e-05
-7.66087e-05
7.9534e-05
-8.32272e-05
7.82208e-05
-8.92944e-05
7.67337e-05
-9.477e-05
7.52534e-05
-9.96356e-05
7.39492e-05
-0.000103896
7.2979e-05
-0.00010758
7.24886e-05
-0.000110744
7.26108e-05
-0.000113471
7.34625e-05
-0.000115868
7.51419e-05
-0.000118071
7.77249e-05
-0.000120235
8.12607e-05
-0.000122535
8.57756e-05
9.12828e-05
-0.000125159
-1.28093e-06
1.26505e-05
-4.58188e-06
3.3158e-05
-9.44454e-06
4.95426e-05
-1.54735e-05
6.23178e-05
-2.23302e-05
7.19784e-05
-2.97258e-05
7.89852e-05
-3.74138e-05
8.37583e-05
-4.51838e-05
8.66759e-05
-5.28555e-05
8.80764e-05
-6.02736e-05
8.82634e-05
-6.73047e-05
8.751e-05
-7.3835e-05
8.60642e-05
-7.97683e-05
8.41542e-05
-8.50269e-05
8.19922e-05
-8.95518e-05
7.97784e-05
-9.33054e-05
7.77028e-05
-9.62734e-05
7.5947e-05
-9.84686e-05
7.46838e-05
-9.99333e-05
7.40755e-05
-0.000100743
7.42719e-05
-0.000101006
7.54056e-05
-0.000100868
7.75866e-05
-0.000100504
8.08968e-05
-0.00010012
8.53917e-05
9.11074e-05
-9.9945e-05
-1.27935e-06
1.39299e-05
-4.55494e-06
3.64336e-05
-9.35617e-06
5.43438e-05
-1.52803e-05
6.8242e-05
-2.19843e-05
7.86824e-05
-2.91763e-05
8.61773e-05
-3.66074e-05
9.11894e-05
-4.40638e-05
9.41323e-05
-5.13607e-05
9.53733e-05
-5.83363e-05
9.52391e-05
-6.48484e-05
9.4022e-05
-7.07709e-05
9.19867e-05
-7.5993e-05
8.93763e-05
-8.0419e-05
8.64182e-05
-8.39694e-05
8.33288e-05
-8.6584e-05
8.03173e-05
-8.82252e-05
7.75883e-05
-8.88835e-05
7.5342e-05
-8.85822e-05
7.37742e-05
-8.73829e-05
7.30727e-05
-8.53902e-05
7.34129e-05
-8.27545e-05
7.49509e-05
-7.96724e-05
7.78147e-05
-7.63851e-05
8.21044e-05
8.78949e-05
-7.31725e-05
-1.27503e-06
1.52049e-05
-4.51492e-06
3.96735e-05
-9.23605e-06
5.90649e-05
-1.50285e-05
7.40344e-05
-2.15453e-05
8.51993e-05
-2.84929e-05
9.31248e-05
-3.56211e-05
9.83176e-05
-4.27149e-05
0.000101226
-4.95868e-05
0.000102245
-5.60708e-05
0.000101723
-6.20175e-05
9.99687e-05
-6.7291e-05
9.72602e-05
-7.17668e-05
9.38521e-05
-7.53314e-05
8.99829e-05
-7.78842e-05
8.58816e-05
-7.934e-05
8.17731e-05
-7.96341e-05
7.78823e-05
-7.87286e-05
7.44366e-05
-7.66204e-05
7.1666e-05
-7.33497e-05
6.98019e-05
-6.90081e-05
6.90713e-05
-6.37463e-05
6.96892e-05
-5.77787e-05
7.1847e-05
-5.13853e-05
7.5711e-05
8.14179e-05
-4.49083e-05
-1.26624e-06
1.64711e-05
-4.45549e-06
4.28627e-05
-9.07054e-06
6.368e-05
-1.46943e-05
7.96581e-05
-2.09767e-05
9.14816e-05
-2.76231e-05
9.97713e-05
-3.43839e-05
0.000105078
-4.10446e-05
0.000107887
-4.74174e-05
0.000108618
-5.33348e-05
0.00010764
-5.86433e-05
0.000105277
-6.31999e-05
0.000101817
-6.68692e-05
9.75213e-05
-6.95223e-05
9.2636e-05
-7.10382e-05
8.73975e-05
-7.13062e-05
8.20411e-05
-7.02316e-05
7.68077e-05
-6.77433e-05
7.19482e-05
-6.38039e-05
6.77266e-05
-5.8422e-05
6.442e-05
-5.16657e-05
6.23151e-05
-4.3676e-05
6.16995e-05
-3.46783e-05
6.28493e-05
-2.49917e-05
6.60244e-05
7.14576e-05
-1.50313e-05
-1.25099e-06
1.77221e-05
-4.36939e-06
4.59811e-05
-8.8439e-06
6.81545e-05
-1.42501e-05
8.50643e-05
-2.02349e-05
9.74664e-05
-2.65037e-05
0.00010604
-3.28082e-05
0.000111383
-3.89364e-05
0.000114015
-4.47026e-05
0.000114384
-4.99406e-05
0.000112878
-5.44965e-05
0.000109833
-5.82243e-05
0.000105545
-6.09819e-05
0.000100279
-6.26293e-05
9.42834e-05
-6.30285e-05
8.77966e-05
-6.20456e-05
8.10581e-05
-5.95556e-05
7.43178e-05
-5.54511e-05
6.78438e-05
-4.96538e-05
6.19293e-05
-4.21302e-05
5.68964e-05
-3.29113e-05
5.30962e-05
-2.21139e-05
5.09021e-05
-9.96216e-06
5.06976e-05
3.19087e-06
5.28714e-05
5.77998e-05
1.68486e-05
-1.2272e-06
1.89493e-05
-4.24891e-06
4.90029e-05
-8.53912e-06
7.24447e-05
-1.36655e-05
9.01907e-05
-1.92716e-05
0.000103073
-2.50627e-05
0.000111831
-3.07927e-05
0.000117113
-3.62528e-05
0.000119475
-4.12616e-05
0.000119393
-4.5657e-05
0.000117274
-4.92883e-05
0.000113465
-5.20113e-05
0.000108268
-5.36829e-05
0.000101951
-5.41582e-05
9.47588e-05
-5.32888e-05
8.69272e-05
-5.09232e-05
7.86925e-05
-4.69105e-05
7.03051e-05
-4.11079e-05
6.20411e-05
-3.33925e-05
5.42139e-05
-2.36801e-05
4.7184e-05
-1.19499e-05
4.1366e-05
1.7245e-06
3.72277e-05
1.71396e-05
3.52825e-05
3.39218e-05
3.60891e-05
4.02314e-05
5.14902e-05
-1.19287e-06
2.01422e-05
-4.08649e-06
5.18965e-05
-8.1391e-06
7.64973e-05
-1.29092e-05
9.49608e-05
-1.80358e-05
0.000108199
-2.32231e-05
0.000117018
-2.82266e-05
0.000122116
-3.2841e-05
0.000124089
-3.68898e-05
0.000123442
-4.02167e-05
0.000120601
-4.26778e-05
0.000115926
-4.4135e-05
0.000109725
-4.44508e-05
0.000102266
-4.34832e-05
9.37912e-05
-4.10828e-05
8.45268e-05
-3.70907e-05
7.47005e-05
-3.13397e-05
6.45541e-05
-2.36589e-05
5.43603e-05
-1.38843e-05
4.44392e-05
-1.87697e-06
3.51767e-05
1.2448e-05
2.70411e-05
2.90812e-05
2.05944e-05
4.78674e-05
1.64964e-05
6.8438e-05
1.55185e-05
1.85341e-05
9.01353e-05
-1.14633e-06
2.12885e-05
-3.87533e-06
5.46255e-05
-7.62788e-06
8.02499e-05
-1.19511e-05
9.92841e-05
-1.64774e-05
0.000112725
-2.09074e-05
0.000121449
-2.49964e-05
0.000126205
-2.85409e-05
0.000127634
-3.13687e-05
0.00012627
-3.33293e-05
0.000122561
-3.4287e-05
0.000116883
-3.41137e-05
0.000109552
-3.26828e-05
0.000100835
-2.98641e-05
9.09724e-05
-2.55183e-05
8.0181e-05
-1.94932e-05
6.86754e-05
-1.16212e-05
5.66822e-05
-1.71957e-06
4.44587e-05
1.04038e-05
3.23159e-05
2.49354e-05
2.0645e-05
4.20287e-05
9.94781e-06
6.17572e-05
8.65824e-07
8.40467e-05
-5.79313e-06
0.000108574
-9.00915e-06
-7.52434e-06
0.000134633
-1.08636e-06
2.23749e-05
-3.60995e-06
5.71491e-05
-6.99181e-06
8.36317e-05
-1.07645e-05
0.000103057
-1.455e-05
0.000116511
-1.80422e-05
0.000124941
-2.09921e-05
0.000129155
-2.31948e-05
0.000129837
-2.44789e-05
0.000127554
-2.46979e-05
0.00012278
-2.3723e-05
0.000115908
-2.14367e-05
0.000107265
-1.77273e-05
9.7126e-05
-1.24829e-05
8.57281e-05
-5.58611e-06
7.32841e-05
3.09243e-06
5.99969e-05
1.36996e-05
4.6075e-05
2.64046e-05
3.17536e-05
4.14008e-05
1.73197e-05
5.88994e-05
3.14641e-06
7.91093e-05
-1.02621e-05
0.000102193
-2.22182e-05
0.00012819
-3.17899e-05
0.000156879
-3.76979e-05
-3.82049e-05
0.000187559
-1.01232e-06
2.33872e-05
-3.2866e-06
5.94233e-05
-6.2203e-06
8.65654e-05
-9.32705e-06
0.000106164
-1.22137e-05
0.000119397
-1.45622e-05
0.000127289
-1.61139e-05
0.000130707
-1.66567e-05
0.000130379
-1.60144e-05
0.000126912
-1.40392e-05
0.000120805
-1.06045e-05
0.000112474
-5.60059e-06
0.000102261
1.07028e-06
9.04552e-05
9.49834e-06
7.73e-05
1.97713e-05
6.30112e-05
3.19804e-05
4.77877e-05
4.62287e-05
3.18268e-05
6.26395e-05
1.53428e-05
8.13671e-05
-1.40788e-06
0.000102603
-1.80891e-05
0.000126571
-3.42301e-05
0.000153502
-4.91494e-05
0.000183562
-6.18504e-05
0.000216698
-7.08336e-05
-7.38232e-05
0.000252316
-9.24201e-07
2.43114e-05
-2.90326e-06
6.14024e-05
-5.30605e-06
8.89682e-05
-7.62177e-06
0.000108479
-9.43623e-06
0.000121212
-1.04128e-05
0.000128266
-1.02764e-05
0.000130571
-8.79978e-06
0.000128903
-5.79409e-06
0.000123906
-1.10125e-06
0.000116112
5.41106e-06
0.000105961
1.38528e-05
9.38196e-05
2.43141e-05
7.99939e-05
3.6867e-05
6.47471e-05
5.15682e-05
4.831e-05
6.84626e-05
3.08933e-05
8.75902e-05
1.26992e-05
0.000108996
-6.06305e-06
0.000132746
-2.51575e-05
0.000158945
-4.42882e-05
0.000187758
-6.30437e-05
0.000219416
-8.08074e-05
0.000254182
-9.66165e-05
0.000292219
-0.00010887
-0.000114792
0.000333188
-8.22464e-07
2.51339e-05
-2.45933e-06
6.30393e-05
-4.24449e-06
9.07534e-05
-5.63618e-06
0.000109871
-6.19231e-06
0.000121768
-5.55027e-06
0.000127624
-3.40989e-06
0.00012843
4.8001e-07
0.000125013
6.33136e-06
0.000118055
1.43233e-05
0.00010812
2.46061e-05
9.56786e-05
3.73024e-05
8.11233e-05
5.25069e-05
6.47893e-05
7.02854e-05
4.69686e-05
9.06723e-05
2.79231e-05
0.00011367
7.89551e-06
0.00013925
-1.28804e-05
0.000167356
-3.41698e-05
0.000197923
-5.5724e-05
0.000230894
-7.72594e-05
0.000266266
-9.84157e-05
0.000304136
-0.000118677
0.000344746
-0.000137227
0.000388459
-0.000152584
-0.000161672
0.000435339
-7.07796e-07
2.58417e-05
-1.95484e-06
6.42863e-05
-3.03231e-06
9.18309e-05
-3.36023e-06
0.000110199
-2.46105e-06
0.000120869
6.19214e-08
0.000125101
4.54273e-06
0.00012395
1.12666e-05
0.000118289
2.04796e-05
0.000108842
3.23945e-05
9.62052e-05
4.71933e-05
8.08798e-05
6.50271e-05
6.32896e-05
8.60128e-05
4.38036e-05
0.000110229
2.27525e-05
0.000137709
4.43569e-07
0.000168431
-2.28269e-05
0.000202314
-4.67639e-05
0.00023921
-7.10649e-05
0.000278899
-9.54136e-05
0.000321111
-0.000119471
0.000365556
-0.00014286
0.000412002
-0.000165124
0.000460412
-0.000185637
0.000511129
-0.0002033
-0.000215284
0.000564742
-5.80733e-07
2.64224e-05
-1.3893e-06
6.50949e-05
-1.66539e-06
9.2107e-05
-7.8298e-07
0.000109316
1.77863e-06
0.000118307
6.45842e-06
0.000120421
1.36331e-05
0.000116775
2.36317e-05
0.00010829
3.67452e-05
9.57281e-05
5.32318e-05
7.97185e-05
7.33193e-05
6.07923e-05
9.7203e-05
3.94059e-05
0.000125042
1.5965e-05
0.00015695
-9.15592e-06
0.000192989
-3.55951e-05
0.00023315
-6.29885e-05
0.000277342
-9.09555e-05
0.000325364
-0.000119087
0.000376885
-0.000146935
0.000431424
-0.00017401
0.000488339
-0.000199775
0.000546874
-0.000223659
0.000606305
-0.000245068
0.00066636
-0.000263355
-0.000277389
0.000728465
-4.41221e-07
2.68636e-05
-7.60398e-07
6.54141e-05
-1.36201e-07
9.14828e-05
2.11139e-06
0.000107069
6.55381e-06
0.000113865
1.368e-05
0.000113295
2.39175e-05
0.000106537
3.76471e-05
9.45607e-05
5.52137e-05
7.81616e-05
7.69303e-05
5.80019e-05
0.000103081
3.4642e-05
0.000133917
8.56978e-06
0.000169655
-1.97732e-05
0.000210468
-4.99691e-05
0.000256476
-8.16031e-05
0.000307731
-0.000114243
0.000364196
-0.000147421
0.000425718
-0.000180608
0.000491976
-0.000213193
0.000562417
-0.000244451
0.000636164
-0.000273522
0.000711909
-0.000299404
0.000787851
-0.00032101
0.000862089
-0.000337593
-0.000352255
0.000936956
-2.88171e-07
2.71518e-05
-6.26341e-08
6.51885e-05
1.56869e-06
8.98514e-05
5.34758e-06
0.00010329
1.19033e-05
0.000107309
2.17815e-05
0.000103417
3.54667e-05
9.28522e-05
5.33977e-05
7.66297e-05
7.59777e-05
5.55815e-05
0.000103579
3.04005e-05
0.000136545
1.67644e-06
0.000175186
-3.00719e-05
0.000219782
-6.43693e-05
0.000270574
-0.00010076
0.000327759
-0.000138788
0.000391489
-0.000177974
0.000461864
-0.000217796
0.000538919
-0.000257664
0.000622607
-0.000296882
0.000712749
-0.000334593
0.000808925
-0.000369698
0.000910236
-0.000400715
0.00101462
-0.00042539
0.00111696
-0.000439942
-0.000440016
0.00120473
-1.19619e-07
2.72714e-05
7.12844e-07
6.43561e-05
3.46958e-06
8.70947e-05
8.96122e-06
9.77983e-05
1.7881e-05
9.83893e-05
3.08366e-05
9.0461e-05
4.83735e-05
7.53154e-05
7.09904e-05
5.40128e-05
9.91488e-05
2.74232e-05
0.000133276
-3.72681e-06
0.000173767
-3.88143e-05
0.000220981
-7.72859e-05
0.000275242
-0.000118631
0.000336839
-0.000162357
0.000406026
-0.000207976
0.000483039
-0.000254986
0.000568108
-0.000302865
0.000661504
-0.000351059
0.0007636
-0.000398977
0.000875
-0.000445993
0.000996749
-0.000491448
0.00113069
-0.000534658
0.00128031
-0.000575009
0.00145321
-0.000612842
-0.00065332
0.00166652
6.92664e-08
2.72022e-05
1.58184e-06
6.28435e-05
5.59819e-06
8.30784e-05
1.3004e-05
9.03925e-05
2.45614e-05
8.68319e-05
4.09433e-05
7.40791e-05
6.2757e-05
5.35017e-05
9.05587e-05
2.6211e-05
0.000124861
-6.87876e-06
0.000166132
-4.49985e-05
0.000214799
-8.74809e-05
0.000271238
-0.000133725
0.000335778
-0.000183171
0.000408698
-0.000235277
0.000490233
-0.00028951
0.000580588
-0.000345341
0.000679965
-0.000402242
0.000788604
-0.000459697
0.000906846
-0.00051722
0.00103524
-0.000574384
0.00117466
-0.000630876
0.00132655
-0.000686547
0.00149307
-0.000741529
0.00167673
-0.000796501
-0.00085122
0.00187463
2.83474e-07
2.69187e-05
2.56229e-06
6.05647e-05
7.99156e-06
7.76491e-05
1.75366e-05
8.08474e-05
3.20316e-05
7.23369e-05
5.22151e-05
5.38957e-05
7.87531e-05
2.69637e-05
0.000112251
-7.28688e-06
0.000153257
-4.78845e-05
0.000202258
-9.39999e-05
0.000259677
-0.0001449
0.000325865
-0.000199912
0.000401092
-0.000258398
0.000485552
-0.000319737
0.000579362
-0.00038332
0.000682573
-0.000448552
0.000795188
-0.000514858
0.000917192
-0.0005817
0.00104858
-0.000648609
0.00118941
-0.000715211
0.00133981
-0.00078128
0.00150004
-0.000846771
0.00167032
-0.000911817
0.00185036
-0.000976535
-0.00103787
0.00203701
5.29708e-07
2.6389e-05
3.67646e-06
5.7418e-05
1.06938e-05
7.06317e-05
2.26293e-05
6.8912e-05
4.03892e-05
5.4577e-05
6.4775e-05
2.95099e-05
9.6503e-05
-4.76432e-06
0.000136212
-4.69963e-05
0.000184463
-9.61348e-05
0.000241726
-0.000151263
0.000308375
-0.00021155
0.000384675
-0.000276212
0.000470771
-0.000344493
0.000566685
-0.000415651
0.000672321
-0.000488956
0.000787466
-0.000563697
0.000911809
-0.000639201
0.00104495
-0.000714846
0.00118644
-0.000790095
0.00133575
-0.000864521
0.0014923
-0.000937834
0.00165543
-0.0010099
0.00182428
-0.00108067
0.00199761
-0.00114986
-0.00121349
0.00217323
8.15429e-07
2.55736e-05
4.94858e-06
5.32848e-05
1.37519e-05
6.18284e-05
2.83546e-05
5.43093e-05
4.97321e-05
3.31994e-05
7.87406e-05
5.01451e-07
0.000116132
-4.21557e-05
0.000162555
-9.34195e-05
0.000218547
-0.000152127
0.000284518
-0.000217234
0.000360736
-0.000287767
0.00044731
-0.000362786
0.000544182
-0.000441366
0.000651123
-0.000522593
0.000767738
-0.000605571
0.000893472
-0.000689431
0.00102763
-0.000773359
0.0011694
-0.000856612
0.00131785
-0.000938547
0.00147197
-0.00101864
0.00163064
-0.00109651
0.00179264
-0.00117189
0.0019566
-0.00124462
0.00212099
-0.00131426
-0.00137685
0.00228435
1.14828e-06
2.44253e-05
6.40289e-06
4.80302e-05
1.72116e-05
5.10197e-05
3.47808e-05
3.67401e-05
6.01472e-05
7.83307e-06
9.42071e-05
-3.35585e-05
0.000137725
-8.56735e-05
0.000191326
-0.00014702
0.000255478
-0.000216279
0.000330472
-0.000292229
0.000416404
-0.000373699
0.000513153
-0.000459535
0.000620381
-0.000548594
0.000737533
-0.000639745
0.000863849
-0.000731887
0.000998386
-0.000823969
0.00114005
-0.000915022
0.00128762
-0.00100418
0.00143977
-0.0010907
0.00159513
-0.001174
0.00175226
-0.00125363
0.00190966
-0.0013293
0.00206583
-0.00140079
0.0022193
-0.00146773
-0.00152672
0.00236916
1.53548e-06
2.28898e-05
8.06164e-06
4.1504e-05
2.11131e-05
3.79682e-05
4.19642e-05
1.5889e-05
7.16983e-05
-2.19011e-05
0.00011123
-7.30901e-05
0.000161303
-0.000135746
0.000222472
-0.00020819
0.000295081
-0.000288888
0.000379235
-0.000376382
0.000474777
-0.000469241
0.000581286
-0.000566043
0.000698069
-0.000665377
0.000824188
-0.000765863
0.000958481
-0.00086618
0.00109961
-0.000965097
0.0012461
-0.00106151
0.0013964
-0.00115447
0.0015489
-0.00124321
0.00170203
-0.00132713
0.00185421
-0.00140582
0.00200396
-0.00147905
0.00214987
-0.0015467
0.0022907
-0.00160855
-0.00166202
0.002426
1.98331e-06
2.09065e-05
9.94315e-06
3.35442e-05
2.54871e-05
2.24243e-05
4.99419e-05
-8.56575e-06
8.44161e-05
-5.63753e-05
0.00012981
-0.000118484
0.000186802
-0.000192738
0.000255822
-0.00027721
0.000337019
-0.000370085
0.000430233
-0.000469597
0.000534986
-0.000573994
0.000650477
-0.000681534
0.000775608
-0.000790508
0.00090902
-0.000899276
0.00104915
-0.00100631
0.0011943
-0.00111024
0.00134268
-0.0012099
0.00149252
-0.00130431
0.00164208
-0.00139277
0.00178974
-0.00147479
0.00193402
-0.00155009
0.00207359
-0.00161862
0.00220732
-0.00168043
0.00233435
-0.00173559
-0.00178231
0.00245464
2.49665e-06
1.84098e-05
1.20604e-05
2.39805e-05
3.03516e-05
4.13302e-06
5.87269e-05
-3.6941e-05
9.8289e-05
-9.59373e-05
0.000149882
-0.000170077
0.000214062
-0.000256919
0.000291066
-0.000354213
0.00038077
-0.000459789
0.000482675
-0.000571502
0.000595903
-0.000687222
0.000719221
-0.000804852
0.000851093
-0.00092238
0.000989744
-0.00103793
0.00113325
-0.00114981
0.00127961
-0.00125661
0.00142686
-0.00135715
0.00157314
-0.00145059
0.00171673
-0.00153636
0.00185614
-0.0016142
0.00199012
-0.00168408
0.00211767
-0.00174617
0.00223805
-0.00180081
0.00235082
-0.00184835
-0.00188778
0.00245628
3.07879e-06
1.5331e-05
1.44198e-05
1.26395e-05
3.57095e-05
-1.71567e-05
6.83035e-05
-6.95351e-05
0.000113258
-0.000140892
0.000171306
-0.000228124
0.000242816
-0.00032843
0.000327752
-0.000439149
0.00042564
-0.000557677
0.000535563
-0.000681425
0.000656187
-0.000807846
0.000785816
-0.000934481
0.000922476
-0.00105904
0.00106402
-0.00117947
0.00120823
-0.00129403
0.00135296
-0.00140133
0.00149617
-0.00150036
0.00163607
-0.00159049
0.00177113
-0.00167143
0.00190014
-0.00174321
0.00202219
-0.00180612
0.00213668
-0.00186066
0.0022433
-0.00190743
0.00234203
-0.00194708
-0.00197924
0.00243349
3.73119e-06
1.15999e-05
1.70207e-05
-6.5003e-07
4.15472e-05
-4.16832e-05
7.86252e-05
-0.000106613
0.000129213
-0.000191479
0.000193867
-0.000292779
0.000272693
-0.000407255
0.000365298
-0.000531754
0.000470779
-0.000663158
0.00058774
-0.000798386
0.000714356
-0.000934461
0.000848467
-0.00106859
0.000987708
-0.00119828
0.00112964
-0.0013214
0.00127189
-0.00143628
0.00141226
-0.0015417
0.00154884
-0.00163694
0.00168005
-0.00172169
0.00180466
-0.00179604
0.00192184
-0.00186039
0.0020311
-0.00191538
0.00213227
-0.00196182
0.00222543
-0.0020006
0.00231094
-0.00203259
-0.00205796
0.00238966
4.45353e-06
7.14633e-06
1.98554e-05
-1.60519e-05
4.78341e-05
-6.96619e-05
8.96141e-05
-0.000148393
0.000145993
-0.000247858
0.000217278
-0.000364063
0.000303224
-0.000493201
0.000403004
-0.000631535
0.000515217
-0.00077537
0.000637946
-0.000921116
0.000768872
-0.00106539
0.000905415
-0.00120514
0.0010449
-0.00133777
0.00118472
-0.00146122
0.00132249
-0.00157404
0.00145613
-0.00167534
0.00158397
-0.00176478
0.00170477
-0.00184249
0.00181772
-0.00190899
0.00192241
-0.00196508
0.00201876
-0.00201174
0.002107
-0.00205006
0.00218757
-0.00208117
0.00226109
-0.0021061
-0.00212544
0.00232856
5.24369e-06
1.90264e-06
2.29084e-05
-3.37166e-05
5.45224e-05
-0.000101276
0.000101161
-0.000195032
0.000163389
-0.000310086
0.000241181
-0.000441855
0.000333859
-0.000585879
0.000440085
-0.000737761
0.000557911
-0.000893196
0.00068489
-0.0010481
0.000818244
-0.00119874
0.000955053
-0.00134194
0.00109246
-0.00147517
0.00122783
-0.0015966
0.00135891
-0.00170512
0.00148389
-0.00180033
0.00160148
-0.00188236
0.00171084
-0.00195186
0.00181161
-0.00200976
0.00190381
-0.00205727
0.00198774
-0.00209567
0.00206395
-0.00212627
0.00213313
-0.00215035
0.00219609
-0.00216906
-0.00218323
0.00225388
6.09774e-06
-4.1951e-06
2.61571e-05
-5.37759e-05
6.15474e-05
-0.000136666
0.000113126
-0.000246611
0.000181147
-0.000378107
0.000265162
-0.00052587
0.000363983
-0.0006847
0.000475701
-0.000849479
0.000597799
-0.00101529
0.000727327
-0.00117762
0.000861121
-0.00133254
0.000996044
-0.00147687
0.00112919
-0.00160832
0.00125807
-0.00172547
0.0013807
-0.00182775
0.00149566
-0.00191529
0.00160208
-0.00198879
0.00169961
-0.00204938
0.00178829
-0.00209845
0.00186853
-0.00213751
0.00194094
-0.00216808
0.0020063
-0.00219164
0.00206548
-0.00220952
0.00211934
-0.00222293
-0.00223282
0.00216894
7.00995e-06
-1.12051e-05
2.95715e-05
-7.63374e-05
6.88286e-05
-0.000175923
0.000125344
-0.000303126
0.000198973
-0.000451735
0.000288763
-0.000615661
0.000392943
-0.000788879
0.000509
-0.000965536
0.00063386
-0.00114015
0.000764132
-0.00130789
0.000896383
-0.00146479
0.0010274
-0.00160788
0.00115439
-0.00173531
0.00127513
-0.00184622
0.00138805
-0.00194067
0.00149217
-0.00201941
0.0015871
-0.00208372
0.00167292
-0.0021352
0.00175007
-0.0021756
0.00181925
-0.00220668
0.00188129
-0.00223013
0.00193713
-0.00224747
0.00198768
-0.00226007
0.00203383
-0.00226909
-0.00227553
0.00207653
7.97276e-06
-1.91778e-05
3.31149e-05
-0.00010148
7.62702e-05
-0.000219079
0.000137624
-0.00036448
0.000216545
-0.000530656
0.000311498
-0.000710614
0.000420078
-0.000897459
0.000539162
-0.00108462
0.000665169
-0.00126616
0.00079437
-0.0014371
0.000923198
-0.00159361
0.00104852
-0.0017332
0.0011678
-0.00185459
0.00127922
-0.00195764
0.00138167
-0.00204311
0.00147466
-0.0021124
0.00155825
-0.00216731
0.00163291
-0.00220986
0.0016994
-0.00224208
0.00175861
-0.0022659
0.00181154
-0.00228305
0.00185914
-0.00229508
0.00190234
-0.00230327
0.00194199
-0.00230873
-0.00231244
0.00197891
8.97676e-06
-2.81546e-05
3.67435e-05
-0.000129246
8.37632e-05
-0.000266098
0.000149756
-0.000430473
0.00023352
-0.000614419
0.00033287
-0.000809965
0.000444744
-0.00100933
0.000565438
-0.00120531
0.000690949
-0.00139167
0.000817337
-0.00156348
0.00094106
-0.00171734
0.00105921
-0.00185135
0.00116964
-0.00196502
0.00127101
-0.00205901
0.00136269
-0.00213479
0.00144469
-0.00219439
0.00151746
-0.00224008
0.00158179
-0.00227419
0.00163864
-0.00229894
0.00168906
-0.00231631
0.00173407
-0.00232806
0.00177463
-0.00233564
0.0018116
-0.00234025
0.00184575
-0.00234288
-0.00234446
0.00187777
1.00107e-05
-3.81653e-05
4.04076e-05
-0.000159643
9.11874e-05
-0.000316878
0.000161517
-0.000500803
0.000249546
-0.000702448
0.000352397
-0.000912815
0.000466352
-0.00112329
0.000587191
-0.00132615
0.000710606
-0.00151509
0.000832596
-0.00168547
0.000949794
-0.00183453
0.00105965
-0.0019612
0.00116049
-0.00206587
0.00125148
-0.00215001
0.00133251
-0.00221582
0.00140398
-0.00226586
0.00146669
-0.00230279
0.00152165
-0.00232915
0.00156996
-0.00234725
0.0016127
-0.00235906
0.00165089
-0.00236625
0.00168544
-0.00237018
0.00171711
-0.00237192
0.00174657
-0.00237235
-0.00237226
0.00177438
1.10616e-05
-4.92268e-05
4.40522e-05
-0.000192634
9.84144e-05
-0.00037124
0.000172678
-0.000575067
0.00026428
-0.00079405
0.000369628
-0.00101816
0.000484389
-0.00123805
0.000603923
-0.00144569
0.000723753
-0.00163492
0.000839975
-0.0018017
0.000949529
-0.00194409
0.00105032
-0.002062
0.00114121
-0.00215676
0.00122188
-0.00223067
0.00129264
-0.00228658
0.00135427
-0.00232749
0.00140781
-0.00235633
0.0014544
-0.00237575
0.00149521
-0.00238805
0.0015313
-0.00239515
0.00156363
-0.00239858
0.00159302
-0.00239957
0.00162013
-0.00239904
0.00164553
-0.00239774
-0.00239637
0.00166964
1.21148e-05
-6.13417e-05
4.76181e-05
-0.000228137
0.000105311
-0.000428934
0.000183011
-0.000652766
0.000277395
-0.000888435
0.000384166
-0.00112493
0.000498445
-0.00135233
0.000615293
-0.00156254
0.000730218
-0.00174984
0.000839551
-0.00191103
0.000940658
-0.0020452
0.00103197
-0.00215331
0.00111287
-0.00223766
0.00118352
-0.00230132
0.00124462
-0.00234768
0.00129722
-0.00238009
0.00134251
-0.00240162
0.00138171
-0.00241495
0.00141597
-0.00242231
0.00144629
-0.00242547
0.00147355
-0.00242584
0.00149846
-0.00242447
0.00152159
-0.00242216
0.00154338
-0.00241953
-0.00241717
0.00156418
1.31546e-05
-7.44962e-05
5.10436e-05
-0.000266026
0.000111745
-0.000489635
0.000192296
-0.000733318
0.000288598
-0.000984736
0.000395682
-0.00123202
0.000508223
-0.00146487
0.000621125
-0.00167544
0.000730026
-0.00185874
0.000831621
-0.00201262
0.000923779
-0.00213735
0.00100548
-0.002235
0.00107661
-0.00230879
0.00113775
-0.00236246
0.00118991
-0.00239985
0.00123433
-0.0024245
0.00127228
-0.00243957
0.00130497
-0.00244765
0.0013335
-0.00245084
0.0013588
-0.00245077
0.00138162
-0.00244867
0.00140258
-0.00244543
0.00142215
-0.00244173
0.00144069
-0.00243807
-0.00243492
0.00145844
1.4164e-05
-8.86602e-05
5.4266e-05
-0.000306128
0.000117585
-0.000552954
0.000200334
-0.000816066
0.000297638
-0.00108204
0.000403927
-0.00133831
0.000513551
-0.00157449
0.000621401
-0.00178329
0.000723384
-0.00196072
0.000816655
-0.0021059
0.00089963
-0.00222033
0.000971824
-0.0023072
0.00103359
-0.00237056
0.00108586
-0.00241473
0.00112986
-0.00244384
0.00116692
-0.00246157
0.00119835
-0.002471
0.00122531
-0.00247461
0.00124882
-0.00247434
0.00126968
-0.00247164
0.00128856
-0.00246755
0.00130597
-0.00246284
0.0013223
-0.00245806
0.00133781
-0.00245359
-0.00244982
0.00135271
1.51257e-05
-0.000103786
5.72239e-05
-0.000348226
0.000122712
-0.000618442
0.000206949
-0.000900304
0.000304318
-0.00117941
0.00040874
-0.00144273
0.000514375
-0.00168013
0.000616247
-0.00188516
0.000710644
-0.00205512
0.00079525
-0.0021905
0.000869038
-0.00229412
0.000932025
-0.00237019
0.000984966
-0.0024235
0.00102905
-0.00245881
0.00106564
-0.00248044
0.00109613
-0.00249205
0.00112177
-0.00249664
0.00114366
-0.0024965
0.00116269
-0.00249338
0.00117959
-0.00248853
0.00119491
-0.00248287
0.00120906
-0.002477
0.00122236
-0.00247136
0.00123503