/*--------------------------------*- C++ -*----------------------------------*\
  =========                 |
  \\      /  F ield         | OpenFOAM: The Open Source CFD Toolbox
   \\    /   O peration     | Website:  https://openfoam.org
    \\  /    A nd           | Version:  6.0
     \\/     M anipulation  |
\*---------------------------------------------------------------------------*/
FoamFile
{
    version     2.0;
    format      ascii;
    class       volVectorField;
    location    "29";
    object      U;
}
// * * * * * * * * * * * * * * * * * * * * * * * * * * * * * * * * * * * * * //

dimensions      [0 1 -1 0 0 0 0];

internalField   nonuniform List<vector> 
12500
(
(-0.000261286 0.000224911 -5.51277e-22)
(-0.00153578 0.000610775 7.60042e-21)
(-0.00400402 0.000926596 -1.10068e-20)
(-0.00716222 0.00118085 5.0467e-21)
(-0.0107343 0.00138044 3.02268e-22)
(-0.0145474 0.00153204 -6.20703e-22)
(-0.0184636 0.00164267 -9.14836e-21)
(-0.0223807 0.00171932 5.01629e-21)
(-0.0262274 0.00176879 3.31196e-21)
(-0.0299572 0.00179753 3.35929e-21)
(-0.0335432 0.00181165 -5.67759e-21)
(-0.0369738 0.00181682 3.2983e-21)
(-0.0402497 0.00181823 -1.55094e-21)
(-0.0433807 0.00182058 2.62611e-21)
(-0.046384 0.00182802 -6.68877e-21)
(-0.0492817 0.00184416 9.6521e-21)
(-0.0520995 0.00187202 -1.83811e-21)
(-0.0548649 0.00191406 -6.80687e-21)
(-0.0576062 0.00197216 3.48135e-21)
(-0.0603515 0.00204761 -3.31767e-21)
(-0.0631321 0.00214112 2.96509e-21)
(-0.0659785 0.00225284 3.91355e-21)
(-0.0688778 0.00238304 3.96376e-22)
(-0.0717585 0.00253264 -1.11715e-20)
(-0.0749174 0.00269695 5.89166e-21)
(-0.000298532 0.000860091 1.00573e-20)
(-0.0016332 0.00225843 -2.59468e-20)
(-0.00414749 0.00334867 7.6416e-21)
(-0.00733894 0.00418045 5.09907e-21)
(-0.0109326 0.00479409 -4.0597e-21)
(-0.0147565 0.00522527 -2.30334e-20)
(-0.0186741 0.00550731 6.83933e-21)
(-0.0225837 0.00567071 -1.28961e-20)
(-0.026415 0.00574299 1.54079e-20)
(-0.0301222 0.00574889 -2.05406e-20)
(-0.0336787 0.00571052 1.09505e-20)
(-0.0370736 0.00564753 3.53298e-21)
(-0.0403079 0.00557724 -8.88888e-21)
(-0.0433919 0.00551478 -3.92164e-21)
(-0.0463431 0.00547314 2.86643e-20)
(-0.0491839 0.00546325 -2.5322e-20)
(-0.0519406 0.00549403 6.04829e-21)
(-0.0546413 0.00557241 1.04465e-20)
(-0.0573148 0.00570342 -2.38202e-21)
(-0.0599899 0.00589022 1.67845e-20)
(-0.0626983 0.00613403 3.04824e-21)
(-0.0654717 0.00643429 -1.09158e-21)
(-0.0682975 0.00679079 -2.10991e-20)
(-0.0711038 0.00720513 1.9389e-20)
(-0.0741886 0.007662 -3.69612e-20)
(-0.000375873 0.00149198 3.22518e-20)
(-0.00183466 0.0038966 1.07119e-20)
(-0.00444355 0.0057553 -1.40242e-20)
(-0.00770305 0.00715882 6.01575e-21)
(-0.0113407 0.00818088 5.62659e-21)
(-0.0151871 0.00888605 2.13242e-20)
(-0.0191076 0.00933391 -2.70496e-20)
(-0.0230026 0.0095783 -4.39071e-21)
(-0.0268033 0.00966738 -1.80617e-20)
(-0.0304654 0.00964403 -1.50586e-20)
(-0.0339635 0.0095463 1.94196e-20)
(-0.0372874 0.00940777 -6.49036e-20)
(-0.0404391 0.00925794 -2.02255e-21)
(-0.0434297 0.00912241 -3.8837e-20)
(-0.0462773 0.00902316 -4.56379e-21)
(-0.0490053 0.00897865 5.50205e-21)
(-0.0516409 0.00900389 -3.00174e-20)
(-0.0542131 0.00911059 -1.8752e-20)
(-0.056752 0.00930719 -2.21719e-20)
(-0.0592876 0.00959899 3.46962e-20)
(-0.0618533 0.00998795 1.2664e-20)
(-0.0644822 0.010473 -5.62294e-20)
(-0.067163 0.0110536 -2.7046e-20)
(-0.0698228 0.0117322 -3.01916e-20)
(-0.0727622 0.0124828 8.13914e-20)
(-0.000493147 0.00211846 -1.01011e-21)
(-0.0021397 0.00551917 -2.47697e-20)
(-0.00489144 0.00813656 -1.18713e-20)
(-0.00825351 0.0101024 7.3554e-21)
(-0.0119575 0.0115237 4.57647e-20)
(-0.0158375 0.0124938 -2.06205e-20)
(-0.0197625 0.0130984 4.39094e-20)
(-0.0236358 0.0134145 4.17643e-20)
(-0.0273911 0.0135107 2.53921e-20)
(-0.0309862 0.0134476 -3.82542e-22)
(-0.0343973 0.0132793 5.10545e-20)
(-0.0376159 0.0130532 8.82561e-21)
(-0.0406448 0.0128109 3.88527e-20)
(-0.0434965 0.0125886 8.91878e-20)
(-0.04619 0.0124175 -1.03333e-19)
(-0.0487501 0.012324 1.55164e-19)
(-0.0512052 0.0123295 3.37036e-20)
(-0.0535859 0.012451 -7.428e-20)
(-0.055924 0.0127008 -1.05243e-20)
(-0.0582517 0.0130869 2.69445e-20)
(-0.0606044 0.0136123 -1.34825e-20)
(-0.0630178 0.0142759 -8.05276e-21)
(-0.0654824 0.015077 -7.84425e-21)
(-0.0679244 0.0160194 -3.15689e-20)
(-0.0706484 0.017066 1.10617e-19)
(-0.000650122 0.00273759 1.67944e-20)
(-0.00254755 0.00712034 -7.79919e-20)
(-0.00548989 0.0104829 9.45182e-20)
(-0.00898851 0.012998 -3.75968e-20)
(-0.0127805 0.014806 4.49649e-20)
(-0.0167052 0.0160289 3.66508e-20)
(-0.020636 0.0167781 1.39008e-20)
(-0.0244805 0.0171534 6.75004e-22)
(-0.0281758 0.0172434 7.8091e-20)
(-0.0316824 0.0171267 5.3988e-20)
(-0.034979 0.0168726 -2.16269e-20)
(-0.0380586 0.0165424 -1.39064e-20)
(-0.0409258 0.0161897 5.86056e-20)
(-0.0435943 0.0158618 1.10275e-20)
(-0.0460846 0.0155991 2.98779e-20)
(-0.0484229 0.0154362 7.14716e-20)
(-0.0506393 0.0154019 -6.16819e-20)
(-0.0527665 0.0155188 4.97428e-20)
(-0.0548386 0.015804 -1.07098e-19)
(-0.0568904 0.0162687 8.9904e-20)
(-0.0589604 0.0169179 5.77271e-22)
(-0.0610878 0.0177508 -7.15261e-20)
(-0.063266 0.0187671 2.87745e-20)
(-0.0654198 0.0199726 6.52667e-20)
(-0.0678598 0.0213187 -9.60401e-20)
(-0.000846508 0.00334756 8.68533e-20)
(-0.00305719 0.00869458 -9.22005e-20)
(-0.00623702 0.0127852 -1.48333e-20)
(-0.00990525 0.0158333 1.86864e-20)
(-0.0138061 0.0180124 -4.03427e-20)
(-0.0177856 0.0194729 -6.28645e-20)
(-0.0217231 0.0203517 -5.22306e-20)
(-0.0255315 0.020771 -1.25834e-20)
(-0.0291523 0.020839 -8.97763e-20)
(-0.0325495 0.0206515 7.14381e-20)
(-0.0357045 0.0202929 -1.10889e-19)
(-0.0386128 0.0198381 5.60107e-20)
(-0.0412806 0.0193529 -1.85791e-20)
(-0.0437232 0.0188953 4.29969e-20)
(-0.0459628 0.0185156 -1.08035e-19)
(-0.048027 0.0182572 5.23078e-20)
(-0.049948 0.0181566 3.89157e-21)
(-0.0517609 0.0182434 2.31762e-20)
(-0.0535028 0.01854 1.39864e-19)
(-0.0552116 0.0190622 3.09475e-20)
(-0.0569299 0.0198179 -2.82881e-21)
(-0.0587015 0.0208072 8.82458e-21)
(-0.0605234 0.0220313 5.81237e-20)
(-0.0623196 0.0234987 1.65444e-20)
(-0.0644089 0.025149 5.42737e-20)
(-0.00108195 0.00394672 -5.41179e-20)
(-0.0036672 0.0102367 7.68217e-20)
(-0.0071301 0.0150348 4.81115e-21)
(-0.0109996 0.0185964 -9.37097e-20)
(-0.0150288 0.0211281 1.96941e-19)
(-0.0190719 0.0228087 -6.36492e-20)
(-0.0230159 0.0237999 9.28617e-20)
(-0.0267802 0.0242459 8.49281e-20)
(-0.0303117 0.0242738 -7.0243e-20)
(-0.0335787 0.023996 -1.02184e-19)
(-0.0365659 0.0235117 2.79569e-20)
(-0.0392715 0.0229087 -2.94639e-20)
(-0.0417036 0.0222649 -1.30258e-19)
(-0.0438792 0.0216491 1.58151e-19)
(-0.045822 0.0211218 -7.58043e-20)
(-0.0475617 0.0207358 -5.22411e-20)
(-0.0491323 0.0205362 4.77208e-22)
(-0.0505717 0.0205604 4.26229e-20)
(-0.0519202 0.0208379 1.75628e-20)
(-0.0532198 0.0213901 -6.87726e-20)
(-0.0545179 0.022229 7.84492e-20)
(-0.0558641 0.0233575 -1.36242e-19)
(-0.0572605 0.0247789 8.31537e-20)
(-0.0586308 0.0265061 -6.3635e-20)
(-0.0603046 0.0284663 1.66713e-20)
(-0.00135603 0.0045335 7.8722e-20)
(-0.00437572 0.0117414 -6.05394e-20)
(-0.00816538 0.0172232 -3.85088e-20)
(-0.0122656 0.0212758 -6.79658e-20)
(-0.0164404 0.0241394 -1.2423e-19)
(-0.020554 0.0260206 -9.17682e-20)
(-0.0245026 0.0271057 5.71729e-20)
(-0.0282134 0.0275598 -8.65689e-20)
(-0.0316399 0.0275283 1.09844e-19)
(-0.0347554 0.0271395 -1.78718e-19)
(-0.0375486 0.0265064 7.93583e-20)
(-0.0400206 0.0257295 1.67548e-19)
(-0.0421817 0.0248982 -2.35327e-19)
(-0.0440507 0.024092 3.35875e-20)
(-0.0456527 0.0233819 4.36787e-20)
(-0.0470191 0.0228306 4.22159e-20)
(-0.048186 0.0224927 -4.53588e-20)
(-0.0491941 0.0224148 -1.11532e-20)
(-0.0500873 0.022635 -3.32614e-20)
(-0.0509123 0.0231822 -2.77326e-20)
(-0.0517222 0.0240746 -1.5208e-19)
(-0.0525737 0.0253192 -1.02568e-20)
(-0.0534754 0.0269235 1.65477e-21)
(-0.0543521 0.0289064 -6.86725e-20)
(-0.0555476 0.0311829 7.06259e-20)
(-0.0016682 0.00510629 2.27274e-21)
(-0.00518023 0.0132037 2.47633e-20)
(-0.00933765 0.0193419 2.5776e-20)
(-0.0136951 0.0238604 1.49601e-20)
(-0.0180296 0.0270331 1.26428e-19)
(-0.0222175 0.0290942 1.18709e-19)
(-0.026166 0.0302537 -9.64715e-20)
(-0.0298115 0.030697 -2.93485e-20)
(-0.0331152 0.0305869 -2.60583e-20)
(-0.0360566 0.0300663 1.34417e-19)
(-0.0386289 0.0292613 4.82297e-20)
(-0.0408363 0.028284 -7.02108e-20)
(-0.0426916 0.0272348 -5.93944e-20)
(-0.0442151 0.0262036 1.43074e-19)
(-0.0454335 0.0252719 -3.52708e-20)
(-0.0463794 0.0245127 -4.27362e-20)
(-0.0470909 0.0239913 -5.96128e-20)
(-0.0476114 0.0237646 -4.63824e-20)
(-0.0479885 0.0238813 -5.91728e-20)
(-0.048274 0.02438 -3.86725e-20)
(-0.0485276 0.0252876 1.60653e-19)
(-0.0488148 0.026618 -7.90775e-20)
(-0.0491523 0.0283851 5.32267e-20)
(-0.0494677 0.0306169 -1.41475e-19)
(-0.0501238 0.0332162 5.70259e-20)
(-0.00201774 0.00566333 -7.0682e-20)
(-0.00607738 0.0146179 -1.84088e-20)
(-0.01064 0.021382 -1.43787e-19)
(-0.015277 0.0263391 -6.88805e-20)
(-0.019781 0.0297965 -1.35946e-19)
(-0.0240427 0.032016 -1.41725e-20)
(-0.0279822 0.0332307 7.28252e-20)
(-0.0315468 0.0336453 -4.43467e-20)
(-0.0347068 0.0334385 9.55499e-20)
(-0.0374486 0.0327668 -2.32106e-19)
(-0.0397707 0.0317682 -6.71677e-21)
(-0.041681 0.0305653 4.11129e-20)
(-0.0431948 0.0292683 -5.21423e-20)
(-0.0443339 0.0279771 4.74204e-20)
(-0.0451262 0.0267831 -3.62495e-20)
(-0.0456053 0.0257701 -7.76335e-20)
(-0.0458107 0.0250146 1.41559e-19)
(-0.0457882 0.0245856 8.77533e-20)
(-0.0455889 0.0245441 -1.81924e-20)
(-0.0452701 0.0249415 5.7855e-20)
(-0.0448991 0.0258164 -1.1413e-19)
(-0.0445514 0.0271929 1.64409e-19)
(-0.0442539 0.0290955 -2.24487e-19)
(-0.0439395 0.0315646 4.621e-20)
(-0.0439961 0.0344922 -8.75479e-20)
(-0.00240364 0.00620254 3.83536e-21)
(-0.00706273 0.0159778 -6.2872e-20)
(-0.0120632 0.0233341 9.31311e-20)
(-0.0169967 0.0286999 1.90919e-19)
(-0.0216743 0.0324167 -3.13758e-21)
(-0.0260035 0.0347732 2.16115e-20)
(-0.0299193 0.0360249 -8.1636e-20)
(-0.0333818 0.0363947 3.82214e-20)
(-0.0363717 0.036076 2.63346e-19)
(-0.0388836 0.0352373 -5.97439e-20)
(-0.0409221 0.034027 -7.05253e-20)
(-0.0424992 0.0325767 2.66484e-19)
(-0.043633 0.0310052 8.69816e-20)
(-0.0443468 0.0294211 4.13871e-20)
(-0.0446693 0.0279251 4.23525e-20)
(-0.0446345 0.0266113 1.15377e-19)
(-0.0442829 0.025568 -4.43185e-20)
(-0.0436619 0.0248775 1.17124e-19)
(-0.0428259 0.0246154 1.58433e-19)
(-0.0418375 0.0248488 -1.35087e-19)
(-0.0407723 0.0256319 2.0064e-19)
(-0.0397172 0.0270038 7.15363e-20)
(-0.0387116 0.0290044 -2.71447e-19)
(-0.0376971 0.0316926 3.9244e-19)
(-0.0370943 0.0349512 -3.17614e-19)
(-0.00282449 0.00672139 -1.79924e-19)
(-0.00813042 0.0172761 9.80757e-20)
(-0.0135954 0.0251874 -6.57989e-20)
(-0.0188357 0.03093 -6.2492e-20)
(-0.0236837 0.03488 -6.74316e-20)
(-0.0280664 0.0373528 -7.31463e-20)
(-0.0319359 0.0386252 2.00748e-20)
(-0.0352673 0.0389373 1.90646e-19)
(-0.038053 0.0384957 -4.08388e-20)
(-0.0402971 0.0374795 -1.06309e-19)
(-0.0420114 0.0360454 -6.49013e-20)
(-0.0432127 0.0343324 -2.65466e-20)
(-0.0439222 0.032466 7.84864e-20)
(-0.044165 0.0305619 -5.01296e-20)
(-0.0439699 0.0287286 -1.63527e-19)
(-0.0433713 0.0270698 -1.80371e-19)
(-0.0424096 0.0256853 7.19019e-20)
(-0.041133 0.0246713 -1.33776e-19)
(-0.0395984 0.0241201 1.16108e-19)
(-0.0378733 0.0241175 -3.27857e-19)
(-0.0360417 0.0247382 2.518e-19)
(-0.0342035 0.0260417 -3.32879e-19)
(-0.032413 0.0280904 -6.19679e-21)
(-0.0306243 0.0309697 -1.11962e-19)
(-0.0293013 0.0345573 3.28591e-19)
(-0.00327834 0.00721674 2.76072e-19)
(-0.00927283 0.0185043 4.04632e-20)
(-0.0152218 0.0269297 -2.65812e-20)
(-0.0207705 0.0330152 -1.12161e-20)
(-0.0257767 0.0371716 2.08626e-19)
(-0.0301891 0.0397407 6.78418e-20)
(-0.0339798 0.0410203 6.15022e-20)
(-0.0371403 0.0412661 -4.94371e-20)
(-0.039677 0.0406965 1.90608e-19)
(-0.0416047 0.0394995 -9.36987e-20)
(-0.0429435 0.0378382 6.04618e-20)
(-0.043716 0.0358568 1.53728e-19)
(-0.0439473 0.0336855 -8.71567e-20)
(-0.043664 0.0314445 9.43525e-20)
(-0.0428959 0.0292483 8.90837e-20)
(-0.0416767 0.0272082 3.04812e-20)
(-0.0400461 0.0254345 -7.50486e-20)
(-0.0380521 0.0240373 2.07552e-19)
(-0.0357529 0.0231263 -1.93063e-20)
(-0.0332201 0.0228092 -2.22135e-20)
(-0.0305459 0.0231859 2.48289e-19)
(-0.0278443 0.0243432 -1.76538e-19)
(-0.0251866 0.0263751 2.97306e-19)
(-0.0225439 0.0294047 -2.46426e-19)
(-0.0204373 0.0333109 3.16769e-19)
(-0.00376255 0.00768479 -1.33345e-19)
(-0.0104804 0.0196526 2.95583e-20)
(-0.0169239 0.028547 -3.07989e-20)
(-0.0227729 0.034939 -1.45788e-19)
(-0.0279138 0.0392745 8.45749e-21)
(-0.0323205 0.0419214 8.29703e-20)
(-0.0359869 0.0431976 -3.3744e-19)
(-0.0389234 0.0433733 2.51838e-19)
(-0.0411518 0.0426777 -2.45125e-19)
(-0.0426995 0.0413057 -1.54561e-19)
(-0.0435962 0.0394249 1.38584e-19)
(-0.0438715 0.0371826 -2.99807e-19)
(-0.0435552 0.0347107 2.52468e-19)
(-0.0426766 0.0321317 -8.02729e-20)
(-0.0412662 0.0295629 -2.29166e-19)
(-0.0393573 0.0271206 5.65932e-20)
(-0.0369883 0.024923 -5.31263e-20)
(-0.034206 0.0230922 1.99986e-20)
(-0.0310687 0.0217557 -7.15622e-20)
(-0.0276503 0.0210446 -2.37296e-19)
(-0.0240507 0.0210884 5.31562e-20)
(-0.020398 0.0220088 -8.52963e-23)
(-0.016783 0.0239424 -2.44325e-19)
(-0.0131984 0.0270652 1.71625e-19)
(-0.0102394 0.0312682 -1.48277e-19)
(-0.00427366 0.00812106 5.39747e-20)
(-0.0117411 0.0207094 9.9388e-20)
(-0.0186794 0.0300233 1.39057e-19)
(-0.0248088 0.0366828 7.15158e-20)
(-0.0300483 0.0411691 -7.01195e-20)
(-0.0343993 0.0438763 1.67258e-19)
(-0.0378804 0.0451416 1.23753e-19)
(-0.0405228 0.0452492 -4.50427e-20)
(-0.0423656 0.0444373 1.60825e-19)
(-0.0434503 0.0429065 -1.65406e-19)
(-0.0438175 0.0408272 -4.84958e-20)
(-0.0435058 0.0383473 4.92152e-20)
(-0.0425506 0.0355983 9.74819e-20)
(-0.0409854 0.0327016 1.16717e-21)
(-0.0388424 0.0297738 6.1653e-20)
(-0.0361548 0.0269323 1.13759e-19)
(-0.0329599 0.0242993 -1.93645e-19)
(-0.0293027 0.0220056 2.40649e-19)
(-0.0252399 0.0201937 8.11483e-20)
(-0.0208466 0.0190182 2.85868e-20)
(-0.0162284 0.0186407 -2.91633e-19)
(-0.0115274 0.0192249 4.12787e-20)
(-0.00685459 0.0209629 6.39762e-20)
(-0.00222837 0.0241035 -1.53299e-20)
(0.00166008 0.0285654 7.28588e-20)
(-0.00480733 0.00852046 4.23495e-21)
(-0.0130406 0.0216618 -2.56023e-19)
(-0.0204622 0.0313403 -6.37534e-21)
(-0.0268388 0.0382251 -6.45442e-20)
(-0.0321256 0.0428328 -4.24116e-19)
(-0.0363547 0.0455835 3.66138e-19)
(-0.0395711 0.0468334 -2.60486e-19)
(-0.0418289 0.0468798 -1.31021e-20)
(-0.0431862 0.0459692 -1.23007e-19)
(-0.0437001 0.0443068 2.12642e-19)
(-0.0434242 0.0420646 -2.28831e-19)
(-0.042407 0.0393891 -1.07111e-19)
(-0.040692 0.0364091 2.2655e-21)
(-0.0383183 0.0332418 -2.31595e-19)
(-0.0353215 0.0299994 3.15918e-19)
(-0.0317365 0.0267956 -3.6588e-19)
(-0.0276002 0.0237513 7.31162e-22)
(-0.0229562 0.0210004 5.60396e-20)
(-0.017859 0.0186952 -1.40137e-19)
(-0.0123831 0.0170096 1.35875e-19)
(-0.0066378 0.0161373 -1.92758e-19)
(-0.000777572 0.0162884 -1.27287e-19)
(0.0050669 0.0177234 2.37116e-19)
(0.0108494 0.0207879 -2.58618e-19)
(0.0157572 0.0254513 -4.96406e-21)
(-0.00535827 0.00887746 -2.1672e-19)
(-0.0143622 0.022496 2.48616e-19)
(-0.0222422 0.0324785 -7.67081e-20)
(-0.0288178 0.0395424 1.47652e-19)
(-0.0340839 0.0442399 1.59197e-19)
(-0.0381057 0.0470171 -1.40207e-19)
(-0.0409568 0.0482488 -9.29445e-20)
(-0.0427157 0.0482453 -1.1125e-19)
(-0.0434609 0.047261 1.01834e-19)
(-0.0432668 0.045505 -6.78837e-21)
(-0.0422011 0.0431499 1.48379e-19)
(-0.0403245 0.0403403 1.46211e-19)
(-0.0376903 0.0372001 -1.74593e-19)
(-0.0343455 0.0338402 3.42784e-19)
(-0.0303321 0.0303649 -2.27238e-19)
(-0.025689 0.0268794 -3.89578e-20)
(-0.0204556 0.0234969 4.42375e-19)
(-0.0146753 0.0203468 -2.04805e-19)
(-0.00840184 0.0175824 1.30425e-19)
(-0.00170778 0.015389 2.54668e-19)
(0.00529574 0.013986 -1.65214e-19)
(0.0124445 0.013629 1.74157e-20)
(0.0195909 0.0146566 -1.13432e-20)
(0.0266632 0.0175387 -6.76389e-20)
(0.0326992 0.0223254 1.27377e-19)
(-0.00592031 0.00918635 4.95274e-20)
(-0.0156864 0.0231974 -1.576e-19)
(-0.0239853 0.0334166 8.61329e-20)
(-0.0306951 0.040609 -1.05635e-21)
(-0.0358539 0.0453617 6.48192e-20)
(-0.039562 0.0481472 -1.11519e-19)
(-0.0419234 0.0493589 6.37916e-20)
(-0.0430421 0.0493197 1.73676e-19)
(-0.0430182 0.0482922 -5.27079e-21)
(-0.0419442 0.0464893 -8.8671e-20)
(-0.0399037 0.0440846 8.91313e-20)
(-0.0369708 0.0412205 -2.06717e-21)
(-0.0332109 0.0380158 -2.82122e-19)
(-0.0286818 0.0345736 1.04601e-19)
(-0.0234351 0.0309883 2.31118e-20)
(-0.0175181 0.0273525 -4.06385e-20)
(-0.0109763 0.0237659 -7.24331e-20)
(-0.00385782 0.0203442 2.77664e-19)
(0.00378194 0.0172307 6.7675e-20)
(0.0118704 0.0146085 -1.44995e-19)
(0.0202957 0.0127089 -1.74053e-20)
(0.0288868 0.0118228 1.99492e-19)
(0.0374848 0.0123678 -9.31551e-20)
(0.046002 0.0149639 3.99879e-20)
(0.0533009 0.0197787 2.69853e-20)
(-0.0064865 0.00944153 -9.91947e-20)
(-0.0169916 0.0237513 9.85877e-20)
(-0.0256537 0.0341334 -5.55658e-20)
(-0.0324148 0.0413981 -1.7835e-19)
(-0.0373593 0.0461678 -1.64162e-19)
(-0.0406241 0.0489409 -7.26647e-20)
(-0.0423449 0.0501298 -6.01494e-20)
(-0.0426522 0.0500702 -1.779e-19)
(-0.0416683 0.0490332 -7.1838e-20)
(-0.0395043 0.0472366 6.54585e-20)
(-0.0362603 0.0448557 -9.34604e-20)
(-0.0320254 0.0420316 -9.86678e-20)
(-0.0268789 0.0388794 -9.25424e-20)
(-0.0208923 0.0354953 1.6798e-19)
(-0.0141307 0.0319631 -3.52772e-19)
(-0.00665461 0.0283616 2.01342e-19)
(0.00147754 0.0247725 -3.44306e-19)
(0.0102066 0.0212905 -5.30383e-20)
(0.0194682 0.0180362 -1.88942e-19)
(0.0291848 0.0151732 -4.41048e-20)
(0.0392414 0.0129227 -5.37978e-20)
(0.0494615 0.011587 -1.79606e-19)
(0.0596823 0.011647 -1.96504e-20)
(0.0698219 0.0138885 1.09856e-19)
(0.0785524 0.0186342 -2.85705e-19)
(-0.00704923 0.00963783 8.50944e-20)
(-0.0182542 0.0241439 1.113e-19)
(-0.0272061 0.0346078 3.89808e-19)
(-0.0339159 0.0418832 -6.84354e-20)
(-0.0385165 0.046627 1.6283e-19)
(-0.0411834 0.0493638 3.87822e-19)
(-0.0420846 0.0505249 -1.05673e-19)
(-0.0413772 0.0504594 1.42991e-19)
(-0.0392057 0.0494474 8.33916e-20)
(-0.0357002 0.0477129 1.51074e-19)
(-0.0309771 0.0454346 -3.02557e-20)
(-0.0251412 0.0427547 2.04341e-20)
(-0.0182873 0.0397872 -5.2839e-20)
(-0.0105029 0.036624 2.85858e-19)
(-0.00187058 0.0333415 3.65801e-20)
(0.00753013 0.0300062 2.64903e-19)
(0.0176205 0.0266821 -6.7707e-20)
(0.0283204 0.0234388 2.42065e-19)
(0.0395457 0.0203653 3.39306e-20)
(0.0512023 0.0175876 1.22917e-19)
(0.0631637 0.0152892 -5.30195e-20)
(0.0752436 0.0137447 -9.3938e-21)
(0.0872821 0.0134574 2.91899e-19)
(0.0992395 0.0153696 1.79434e-19)
(0.109611 0.0199834 -7.48332e-20)
(-0.00760044 0.00977085 -2.06269e-19)
(-0.0194484 0.0243626 -2.09087e-19)
(-0.0285975 0.0348204 -2.18517e-19)
(-0.0351316 0.0420392 8.00558e-20)
(-0.0392349 0.0467096 -1.60759e-19)
(-0.0411221 0.0493825 -2.39468e-20)
(-0.0409942 0.0505079 -6.31213e-20)
(-0.0390349 0.0504485 -2.61698e-19)
(-0.0354101 0.0494945 -4.08322e-20)
(-0.0302683 0.0478773 6.70795e-20)
(-0.0237419 0.0457812 -2.10358e-19)
(-0.0159512 0.0433526 2.91493e-19)
(-0.00700694 0.040708 -3.95624e-19)
(0.00298548 0.0379401 9.51958e-20)
(0.0139231 0.0351235 -2.41996e-19)
(0.025702 0.0323186 -1.96244e-19)
(0.0382154 0.0295773 -1.11507e-20)
(0.0513506 0.0269484 -2.9607e-20)
(0.0649887 0.0244876 2.33847e-20)
(0.079001 0.0222733 -1.11785e-19)
(0.093231 0.020425 -7.73359e-20)
(0.107467 0.0191415 9.50057e-20)
(0.121548 0.0188764 -2.62704e-19)
(0.135528 0.0206713 8.53816e-20)
(0.147794 0.0251912 6.07013e-20)
(-0.00813169 0.0098371 -3.66034e-20)
(-0.0205466 0.024397 -6.07471e-20)
(-0.029779 0.0347549 2.35909e-19)
(-0.0359894 0.0418446 8.77281e-20)
(-0.0394155 0.04639 1.16079e-19)
(-0.0403123 0.0489678 -1.55007e-19)
(-0.0389137 0.0500467 2.60706e-22)
(-0.0354295 0.0500029 -1.25342e-19)
(-0.0300464 0.0491371 2.31631e-19)
(-0.02293 0.0476895 7.55712e-20)
(-0.0142278 0.0458518 8.47172e-20)
(-0.00407471 0.0437778 -3.36894e-19)
(0.00740284 0.0415909 4.15315e-19)
(0.0200814 0.0393905 -1.24732e-19)
(0.0338357 0.0372569 -8.92087e-20)
(0.0485345 0.0352547 2.67003e-19)
(0.0640361 0.0334353 1.19066e-19)
(0.0801854 0.0318399 -3.01309e-19)
(0.0968122 0.0305033 -1.25707e-19)
(0.11373 0.0294625 3.79307e-19)
(0.130724 0.0287643 -2.89722e-19)
(0.147523 0.0284884 1.74176e-19)
(0.163935 0.0289395 9.73258e-20)
(0.180156 0.0311308 -1.25167e-19)
(0.194627 0.0358023 -1.20718e-19)
(-0.00863421 0.00983416 -1.34661e-19)
(-0.0215192 0.024239 2.09206e-19)
(-0.0306972 0.0343985 8.90901e-20)
(-0.0364099 0.0412832 -1.28644e-19)
(-0.0389502 0.0456495 -2.0589e-20)
(-0.0386145 0.0480993 -1.34849e-19)
(-0.0356694 0.0491193 -5.37161e-20)
(-0.0303505 0.0490989 6.02566e-20)
(-0.0228642 0.0483494 -1.50543e-20)
(-0.013392 0.0471201 1.13664e-19)
(-0.00209561 0.045612 -9.86941e-20)
(0.0108769 0.043988 2.73022e-19)
(0.0253844 0.0423821 -3.3832e-19)
(0.041286 0.0409059 2.10948e-19)
(0.058435 0.0396533 2.61999e-19)
(0.0766719 0.0387042 -3.78601e-19)
(0.0958183 0.0381263 -1.15196e-19)
(0.11567 0.0379749 1.94069e-19)
(0.135994 0.0382928 -1.19793e-19)
(0.156522 0.0391081 1.1563e-19)
(0.17694 0.0404241 -2.80252e-19)
(0.196862 0.0421993 4.66697e-20)
(0.215987 0.0445035 1.82629e-19)
(0.23466 0.0481562 -2.93801e-19)
(0.251692 0.053787 7.94614e-20)
(-0.00909881 0.0097606 -1.24583e-19)
(-0.0223337 0.0238834 3.90392e-19)
(-0.0312936 0.0337433 7.49306e-20)
(-0.0363053 0.0403459 -2.02426e-19)
(-0.0377196 0.0444788 1.4496e-19)
(-0.035875 0.0467688 7.35693e-20)
(-0.0310716 0.0477189 1.17483e-19)
(-0.02357 0.0477312 -7.69242e-21)
(-0.0135959 0.0471268 -1.22045e-20)
(-0.00134604 0.0461638 -2.55671e-20)
(0.0130047 0.045052 -1.11725e-19)
(0.0292954 0.0439645 -3.77446e-21)
(0.0473712 0.0430474 2.60978e-19)
(0.0670757 0.0424268 -4.27901e-19)
(0.088243 0.0422158 3.04418e-19)
(0.110689 0.0425188 6.15936e-20)
(0.134205 0.0434351 1.08897e-19)
(0.158541 0.0450613 -5.61174e-20)
(0.1834 0.0474911 4.97931e-19)
(0.20842 0.0508129 -3.08476e-19)
(0.233147 0.0550846 2.46702e-19)
(0.256974 0.0602673 5.81159e-20)
(0.279304 0.0663181 -1.80793e-19)
(0.300426 0.0739281 1.5319e-19)
(0.319904 0.0831825 2.3754e-19)
(-0.00951558 0.00961579 -3.6239e-20)
(-0.0229547 0.0233276 -1.37672e-19)
(-0.0315031 0.0327868 -2.35227e-19)
(-0.035578 0.0390319 -1.34026e-19)
(-0.0355911 0.0428811 -1.87422e-20)
(-0.0319247 0.0449842 -5.28935e-20)
(-0.0249126 0.0458597 -2.44984e-19)
(-0.0148412 0.0459203 4.05711e-20)
(-0.00195558 0.0454955 -2.7508e-19)
(0.0135314 0.0448506 -2.13292e-20)
(0.0314308 0.0442028 -2.63653e-19)
(0.0515679 0.0437332 -9.38809e-20)
(0.0737738 0.0435976 5.38613e-20)
(0.0978771 0.0439348 -2.56359e-19)
(0.123696 0.0448751 2.32432e-21)
(0.151033 0.0465471 -2.20763e-19)
(0.179661 0.0490863 8.52216e-20)
(0.20932 0.0526439 -3.0826e-19)
(0.239697 0.0573983 -5.28458e-20)
(0.270405 0.0635692 -7.39173e-21)
(0.300926 0.0714138 -5.21828e-20)
(0.330505 0.081194 -5.35629e-20)
(0.358158 0.0933433 -2.68894e-20)
(0.383302 0.109119 -1.07556e-19)
(0.404601 0.12716 -2.30775e-19)
(-0.00987354 0.00939975 6.60906e-20)
(-0.0233422 0.0225717 1.74556e-19)
(-0.0312524 0.0315319 2.09748e-19)
(-0.0341187 0.0373501 -1.67579e-19)
(-0.0324172 0.0408732 3.10789e-19)
(-0.0265763 0.0427727 -1.68696e-19)
(-0.016965 0.0435805 9.15717e-20)
(-0.00389706 0.0437178 1.42693e-19)
(0.0123605 0.04352 1.29798e-19)
(0.031576 0.0432569 6.30921e-20)
(0.0535421 0.0431493 1.01944e-19)
(0.0780657 0.0433817 5.92595e-20)
(0.104959 0.044113 4.00397e-19)
(0.13403 0.0454861 -2.90936e-19)
(0.165082 0.047636 3.32139e-19)
(0.197905 0.0506992 -1.3803e-19)
(0.232273 0.0548238 2.9793e-19)
(0.267952 0.060184 -1.4151e-20)
(0.304697 0.0670017 -6.16989e-20)
(0.342262 0.0755778 -1.14188e-20)
(0.380412 0.0863323 2.34731e-19)
(0.418974 0.0999111 -2.30499e-19)
(0.458158 0.117612 1.61363e-19)
(0.49867 0.141241 1.80024e-19)
(0.537222 0.164632 3.75562e-20)
(-0.01016 0.0091126 4.57403e-20)
(-0.023451 0.0216179 -2.49813e-19)
(-0.0304592 0.0299875 -9.06641e-20)
(-0.0318053 0.0353194 8.27331e-20)
(-0.0280344 0.0384872 -2.54872e-19)
(-0.0196241 0.0401823 -5.02777e-20)
(-0.00698204 0.0409475 3.48365e-20)
(0.00954742 0.0412098 1.37543e-19)
(0.0296702 0.0413073 -3.48175e-19)
(0.0531289 0.0415104 2.64568e-20)
(0.0796892 0.0420382 -1.01733e-19)
(0.109129 0.0430715 -3.09024e-19)
(0.141227 0.0447632 2.10511e-19)
(0.175761 0.0472465 8.9959e-21)
(0.212498 0.0506427 -6.29427e-21)
(0.251201 0.055068 2.12076e-19)
(0.291627 0.0606412 -3.75056e-19)
(0.333541 0.0674923 2.97007e-19)
(0.376727 0.0757729 -5.4894e-20)
(0.42102 0.085667 1.73677e-19)
(0.466329 0.0973965 -2.85876e-19)
(0.512708 0.111251 1.64438e-19)
(0.560632 0.127794 -2.9581e-19)
(0.611016 0.147534 3.06874e-19)
(0.659016 0.164206 -9.52864e-20)
(-0.0103596 0.00875442 3.07912e-19)
(-0.023229 0.0204702 -5.02257e-20)
(-0.0290307 0.028168 3.69532e-19)
(-0.0285018 0.0329691 1.70951e-19)
(-0.022263 0.035771 1.36775e-20)
(-0.0108454 0.0372827 7.45636e-20)
(0.00529968 0.0380551 1.79796e-20)
(0.0257904 0.0385175 3.03481e-19)
(0.0502972 0.0390068 9.769e-20)
(0.078525 0.0397891 -1.30958e-20)
(0.110198 0.0410757 2.62469e-20)
(0.145047 0.0430355 1.00969e-19)
(0.182799 0.0458049 8.42246e-20)
(0.223172 0.0494941 1.80119e-19)
(0.265876 0.0541938 -2.0521e-19)
(0.31061 0.0599792 6.19698e-20)
(0.357075 0.0669141 1.87843e-20)
(0.404983 0.0750535 9.17488e-20)
(0.454073 0.0844447 2.48896e-19)
(0.504135 0.0951247 -1.62226e-19)
(0.555031 0.107107 1.40017e-20)
(0.606716 0.12037 -2.30905e-19)
(0.659374 0.134971 2.19152e-19)
(0.713442 0.151121 -2.13534e-19)
(0.764049 0.164808 1.98404e-20)
(-0.0104544 0.00832521 -2.56893e-19)
(-0.0226167 0.019135 1.96305e-19)
(-0.0268627 0.0260933 -3.19389e-19)
(-0.0240588 0.0303384 2.75471e-20)
(-0.0149085 0.0327876 2.24507e-19)
(-3.45125e-06 0.0341642 -3.73822e-19)
(0.0201538 0.0350237 2.96351e-19)
(0.0451333 0.0357937 -4.69946e-19)
(0.0745564 0.0368051 9.36213e-20)
(0.108073 0.0383137 1.99906e-20)
(0.145346 0.0405153 1.57657e-19)
(0.186033 0.0435583 -5.23757e-19)
(0.229781 0.0475515 9.0427e-20)
(0.276221 0.0525701 9.57415e-20)
(0.324969 0.0586609 -5.74017e-20)
(0.375629 0.0658446 -3.56001e-19)
(0.427806 0.0741183 1.67602e-19)
(0.481115 0.0834557 3.13863e-19)
(0.5352 0.093805 -3.3149e-19)
(0.589745 0.105083 2.40675e-19)
(0.644491 0.117164 -3.1286e-19)
(0.699237 0.129858 2.27605e-19)
(0.753875 0.143002 -6.38118e-20)
(0.808471 0.156786 3.65045e-19)
(0.8589 0.169121 -4.19348e-19)
(-0.0104228 0.00782492 3.68006e-20)
(-0.0215465 0.0176202 2.89946e-20)
(-0.0238405 0.0237892 7.10222e-20)
(-0.0183148 0.0274768 2.53197e-19)
(-0.00576538 0.0296146 -7.90615e-21)
(0.0131463 0.0309365 5.65374e-20)
(0.0378546 0.0319974 2.51418e-19)
(0.0678664 0.0332185 1.01392e-19)
(0.102734 0.0349183 -3.33743e-20)
(0.142031 0.0373345 2.841e-19)
(0.185327 0.040639 -3.23345e-19)
(0.232179 0.0449489 4.95973e-19)
(0.282123 0.0503341 -1.96737e-19)
(0.334667 0.0568232 3.56983e-19)
(0.389303 0.0644077 -1.20523e-19)
(0.445511 0.0730455 4.39589e-20)
(0.502772 0.0826627 5.32713e-20)
(0.560583 0.0931552 -1.03116e-19)
(0.618474 0.104388 8.62867e-20)
(0.676018 0.116191 5.55395e-20)
(0.732843 0.128358 7.68801e-20)
(0.788622 0.140628 1.63863e-19)
(0.843083 0.152748 -1.34892e-20)
(0.896106 0.16489 -7.511e-20)
(0.944639 0.176437 2.29687e-19)
(-0.0102395 0.00725363 -2.15169e-19)
(-0.0199427 0.0159368 2.27375e-20)
(-0.0198393 0.0212877 -4.08554e-19)
(-0.0110988 0.0244439 -9.75402e-20)
(0.00537832 0.026344 -1.8245e-19)
(0.0288478 0.0277265 -3.91306e-20)
(0.0586642 0.0291404 -1.9519e-19)
(0.0942504 0.0309928 -1.16554e-19)
(0.135065 0.0335818 1.54285e-19)
(0.18057 0.0371176 -2.57425e-19)
(0.230216 0.0417367 -7.1479e-20)
(0.283421 0.0475128 2.80205e-21)
(0.339573 0.0544644 -4.82846e-19)
(0.398032 0.0625617 2.05256e-19)
(0.458138 0.0717314 -2.99696e-19)
(0.519228 0.0818623 -9.37076e-21)
(0.580653 0.0928098 5.92724e-20)
(0.641793 0.1044 -9.60571e-20)
(0.702079 0.116431 -8.42935e-20)
(0.761003 0.12868 4.23861e-20)
(0.818124 0.140897 4.76221e-20)
(0.873066 0.152809 -3.08281e-19)
(0.925506 0.164147 1.75973e-19)
(0.975274 0.175046 8.98175e-20)
(1.02038 0.185928 2.57229e-20)
(-0.00987534 0.00661212 2.20244e-19)
(-0.0177222 0.0140991 -2.34926e-19)
(-0.0147261 0.0186277 3.29253e-19)
(-0.00223412 0.0213098 5.11186e-20)
(0.0187339 0.0230809 -1.5684e-20)
(0.0473336 0.024677 -1.10499e-19)
(0.0828175 0.0266326 1.66146e-20)
(0.124497 0.0293315 1.67777e-19)
(0.171702 0.0330405 -2.31354e-19)
(0.223752 0.0379297 2.42849e-19)
(0.279934 0.0440863 -2.56266e-20)
(0.339495 0.0515265 1.12937e-20)
(0.401646 0.0602038 3.15638e-19)
(0.465571 0.0700178 4.23057e-19)
(0.530449 0.0808225 -1.65495e-19)
(0.595474 0.0924347 2.94404e-19)
(0.659876 0.104642 1.49962e-19)
(0.722951 0.117211 -9.1527e-20)
(0.78407 0.129894 2.91314e-19)
(0.842698 0.142436 -1.06073e-20)
(0.898398 0.15458 -2.81281e-19)
(0.950824 0.166069 2.98017e-19)
(0.999703 0.17666 4.37333e-20)
(1.04492 0.186457 -1.86359e-19)
(1.08539 0.196552 5.84313e-20)
(-0.00929769 0.00590247 -3.06636e-19)
(-0.0147952 0.0121262 3.20301e-19)
(-0.00836284 0.0158561 -2.032e-19)
(0.00845619 0.0181556 -6.34469e-20)
(0.0345041 0.0199437 -1.41747e-19)
(0.0688134 0.0219441 2.50518e-19)
(0.110506 0.0246658 -1.45355e-19)
(0.158746 0.0284568 -6.6555e-20)
(0.212697 0.0335381 -1.9046e-19)
(0.271493 0.040024 4.93096e-21)
(0.334222 0.047936 -7.44489e-20)
(0.399924 0.0572163 3.6247e-20)
(0.46761 0.0677395 -3.81449e-19)
(0.536282 0.0793241 1.08665e-19)
(0.604959 0.0917461 -1.31309e-19)
(0.672715 0.104751 -1.06037e-19)
(0.738701 0.118066 3.27277e-20)
(0.802174 0.131413 -1.55253e-19)
(0.862511 0.144518 -6.72488e-20)
(0.919221 0.157121 1.92808e-19)
(0.971944 0.168979 8.24539e-20)
(1.02044 0.179878 -3.49993e-19)
(1.06458 0.189623 2.58527e-19)
(1.10436 0.198313 -4.90522e-20)
(1.13939 0.207392 -1.02222e-19)
(-0.00847089 0.0051288 -1.11914e-19)
(-0.0110677 0.0100435 -5.98431e-20)
(-0.000609533 0.0130299 -1.19863e-20)
(0.0211439 0.0150746 8.73323e-20)
(0.0528741 0.017064 9.49776e-20)
(0.0934615 0.0196962 8.26732e-20)
(0.141861 0.0234401 1.02722e-19)
(0.197048 0.0285915 1.56722e-19)
(0.257976 0.0353077 2.3937e-19)
(0.323551 0.0436276 2.36701e-19)
(0.392623 0.0534885 1.24916e-19)
(0.464007 0.0647417 -3.35217e-20)
(0.536502 0.0771698 8.40602e-21)
(0.608936 0.0905032 -1.15255e-20)
(0.680201 0.104439 9.88889e-20)
(0.749294 0.118658 -2.66671e-20)
(0.815345 0.132841 2.94488e-19)