1.275 	2.15223e-18 	-2.76991e-20 	-0.146785 	0.00641955 	-2.67037e-22
1.825 	2.15223e-18 	-1.39322e-20 	-0.284069 	0.00656829 	3.67566e-21
2.375 	2.15223e-18 	1.38775e-18 	-0.420246 	0.00125432 	-1.9154e-21
2.925 	2.15223e-18 	2.78958e-18 	-0.47766 	-0.00977666 	1.88419e-22
3.475 	2.15223e-18 	4.53849e-18 	-0.325711 	-0.0105112 	-9.56384e-22
4.025 	2.15223e-18 	6.28755e-18 	-0.270299 	-0.00363383 	-7.71684e-23
4.575 	2.15223e-18 	6.30203e-18 	-0.113508 	0.00189677 	1.06712e-21
5.125 	2.15223e-18 	6.31666e-18 	-0.0309805 	0.0048463 	-6.2256e-22
5.675 	2.15223e-18 	6.33144e-18 	0.0915034 	0.00343403 	-5.22503e-23
6.225 	2.15223e-18 	4.61166e-18 	0.183543 	0.000366503 	-8.8683e-24
