/*--------------------------------*- C++ -*----------------------------------*\
  =========                 |
  \\      /  F ield         | OpenFOAM: The Open Source CFD Toolbox
   \\    /   O peration     | Website:  https://openfoam.org
    \\  /    A nd           | Version:  6.0
     \\/     M anipulation  |
\*---------------------------------------------------------------------------*/
FoamFile
{
    version     2.0;
    format      ascii;
    class       volVectorField;
    location    "76";
    object      U;
}
// * * * * * * * * * * * * * * * * * * * * * * * * * * * * * * * * * * * * * //

dimensions      [0 1 -1 0 0 0 0];

internalField   nonuniform List<vector> 
4000
(
(0.14238 0.00905022 9.63937e-20)
(0.42689 0.0446428 -5.29855e-20)
(0.695101 0.10139 6.26942e-20)
(0.92718 0.160935 -4.66809e-20)
(1.11075 0.212975 -2.08788e-20)
(1.24355 0.252968 6.46841e-21)
(1.33107 0.280043 -2.03992e-20)
(1.38271 0.295681 7.31026e-20)
(1.40845 0.30241 -6.08194e-20)
(1.41696 0.302849 1.43355e-20)
(1.41486 0.29921 -1.0627e-20)
(1.40678 0.293147 -6.90127e-20)
(1.39569 0.285791 6.68953e-20)
(1.3834 0.277858 2.54203e-20)
(1.37094 0.269784 -2.52108e-20)
(1.3589 0.261814 5.91357e-20)
(1.3476 0.254066 -9.21825e-22)
(1.33723 0.246648 -5.70479e-20)
(1.32786 0.239881 4.20597e-20)
(1.31954 0.23345 1.33531e-20)
(0.157965 0.0157103 -3.39061e-20)
(0.4625 0.0638399 9.73857e-20)
(0.739665 0.130349 1.13144e-19)
(0.971303 0.195661 -5.36804e-20)
(1.14799 0.249682 9.29412e-20)
(1.2708 0.288882 1.47082e-19)
(1.34796 0.313575 -8.35851e-21)
(1.39053 0.326221 -2.54072e-20)
(1.40919 0.329981 1.24393e-19)
(1.41267 0.327793 6.07187e-20)
(1.40726 0.32197 -1.10376e-20)
(1.39716 0.314142 9.06339e-20)
(1.38494 0.305364 -9.71695e-20)
(1.37209 0.296273 1.51511e-19)
(1.35942 0.287233 -2.52098e-20)
(1.3474 0.278438 7.24971e-20)
(1.33626 0.269972 1.31119e-20)
(1.32612 0.261934 5.16031e-20)
(1.317 0.254658 -4.90088e-20)
(1.30898 0.247685 1.22514e-20)
(0.173361 0.0235382 -5.2572e-20)
(0.496426 0.0854131 1.20969e-19)
(0.78053 0.161742 9.04385e-20)
(1.00996 0.232212 -1.38105e-20)
(1.17875 0.287403 1.42091e-19)
(1.2914 0.3251 -1.08169e-19)
(1.35869 0.346928 -8.38344e-21)
(1.39306 0.356323 9.40311e-20)
(1.40563 0.357022 2.95322e-20)
(1.40497 0.35221 4.20981e-20)
(1.397 0.344245 -6.2358e-20)
(1.38545 0.334698 1.63138e-19)
(1.3725 0.324534 3.0617e-20)
(1.35938 0.314303 -1.44734e-19)
(1.34671 0.304304 2.12605e-19)
(1.33484 0.294682 -2.50829e-19)
(1.32394 0.285489 -1.15459e-19)
(1.31409 0.276825 1.93816e-20)
(1.30529 0.269026 1.11654e-19)
(1.2976 0.261488 -2.13351e-19)
(0.188325 0.0325061 -1.14596e-19)
(0.528136 0.109168 -2.71995e-19)
(0.817149 0.195208 -2.37427e-19)
(1.0428 0.27014 -3.21272e-19)
(1.20295 0.325703 -1.83539e-19)
(1.30554 0.361259 -3.80005e-19)
(1.36361 0.379827 4.84333e-20)
(1.3907 0.385791 -2.02941e-19)
(1.39813 0.383389 -2.26959e-20)
(1.39417 0.375988 3.35741e-20)
(1.3843 0.365938 -7.42471e-20)
(1.37178 0.354725 9.37039e-20)
(1.35847 0.34321 1.67382e-19)
(1.34531 0.33186 -2.3468e-19)
(1.3328 0.320908 3.88093e-20)
(1.32119 0.310457 1.10342e-19)
(1.31062 0.300534 1.85029e-19)
(1.30113 0.291242 -1.59562e-19)
(1.29268 0.282911 -7.68386e-21)
(1.28537 0.274791 1.89525e-19)
(0.202614 0.0425566 -2.13974e-19)
(0.557143 0.134854 5.91948e-19)
(0.849067 0.230336 -1.03213e-19)
(1.06959 0.30898 1.3958e-19)
(1.22066 0.364151 -1.35505e-19)
(1.31348 0.397009 4.20018e-19)
(1.36312 0.412011 -6.6947e-20)
(1.38386 0.414433 3.9465e-20)
(1.38705 0.408939 -2.11449e-20)
(1.38056 0.399008 6.62573e-20)
(1.36937 0.386941 4.31539e-20)
(1.35631 0.374115 5.59902e-20)
(1.34291 0.361287 -1.57447e-19)
(1.32993 0.348837 2.3278e-19)
(1.31772 0.336942 -1.7743e-19)
(1.30647 0.325664 3.50514e-20)
(1.29631 0.315012 -1.15106e-19)
(1.28724 0.305091 2.53899e-20)
(1.27919 0.296224 2.90183e-20)
(1.27231 0.287512 -2.64468e-19)
(0.215995 0.0536035 1.3368e-20)
(0.583014 0.16217 -2.95491e-19)
(0.875927 0.266682 1.6547e-19)
(1.09021 0.348258 -5.72791e-19)
(1.23197 0.402325 2.79322e-19)
(1.31552 0.432017 -4.77911e-19)
(1.35756 0.443228 -3.76069e-19)
(1.3729 0.442062 -1.44066e-20)
(1.37269 0.433524 -1.28932e-19)
(1.36435 0.421142 -4.0779e-19)
(1.35235 0.407132 -5.24902e-20)
(1.33912 0.392752 -3.99419e-19)
(1.32589 0.378649 7.13874e-20)
(1.31325 0.365122 -5.90511e-20)
(1.30147 0.352295 3.50779e-20)
(1.29069 0.340199 -2.7932e-19)
(1.28101 0.328822 1.13757e-20)
(1.27242 0.318279 5.44219e-20)
(1.26482 0.308874 -1.3403e-19)
(1.25842 0.299571 1.16311e-19)
(0.228247 0.0655333 -1.20192e-19)
(0.605381 0.190772 5.36668e-19)
(0.897469 0.303777 6.12645e-21)
(1.10462 0.387496 -4.65109e-19)
(1.23709 0.439815 3.55867e-19)
(1.31197 0.465961 1.50911e-19)
(1.34729 0.473238 3.06869e-20)
(1.35813 0.468492 -2.58729e-19)
(1.35531 0.456988 4.21778e-19)
(1.34574 0.44225 -2.52827e-19)
(1.33337 0.42638 8.8557e-20)
(1.32028 0.410505 4.3503e-19)
(1.30746 0.395168 -3.96629e-19)
(1.29533 0.380592 4.39054e-19)
(1.2841 0.366852 -2.85908e-19)
(1.27387 0.353948 -5.55861e-20)
(1.26473 0.341858 6.87926e-20)
(1.25668 0.330703 9.03698e-20)
(1.24959 0.320765 1.2661e-19)
(1.24373 0.310882 7.54459e-20)
(0.239168 0.0782074 4.65743e-20)
(0.623941 0.220283 -4.77647e-19)
(0.91353 0.341137 8.53819e-20)
(1.11289 0.426224 1.1213e-18)
(1.23625 0.476226 -1.02816e-19)
(1.30316 0.498534 3.15382e-19)
(1.33265 0.501805 1.99259e-19)
(1.33986 0.493534 3.26947e-20)
(1.33515 0.479171 -2.37784e-19)
(1.32488 0.462184 3.91452e-19)
(1.31255 0.44454 -4.96533e-20)
(1.29988 0.427237 6.15657e-19)
(1.28766 0.410711 2.43046e-19)
(1.27619 0.395118 1.55849e-19)
(1.26562 0.380489 -3.25207e-19)
(1.25603 0.366797 6.94392e-20)
(1.24751 0.35401 2.583e-19)
(1.24005 0.342259 7.0563e-20)
(1.23352 0.331798 -3.21129e-19)
(1.22826 0.321354 -8.17042e-20)
(0.248582 0.0914652 -2.64661e-19)
(0.638463 0.250302 8.53512e-19)
(0.924031 0.378274 -4.64981e-19)
(1.11514 0.463985 -4.30292e-19)
(1.22972 0.511181 -3.77937e-19)
(1.28942 0.529444 -3.22247e-19)
(1.31399 0.528703 -4.0353e-19)
(1.31836 0.517005 5.12108e-19)
(1.31241 0.499909 -3.72946e-19)
(1.30193 0.48079 -3.14355e-20)
(1.28997 0.461467 -1.65525e-21)
(1.27799 0.442803 -7.38674e-20)
(1.26655 0.42514 -1.9624e-19)
(1.25588 0.408569 -2.24935e-19)
(1.24607 0.39308 -1.20998e-20)
(1.23721 0.378625 -5.10631e-20)
(1.22938 0.365165 -1.3164e-19)
(1.22257 0.352838 -4.33573e-20)
(1.21665 0.34187 4.20296e-20)
(1.21205 0.330899 -2.94819e-19)
(0.256337 0.105127 4.56961e-19)
(0.648791 0.280411 4.77786e-19)
(0.92898 0.414702 -2.97447e-19)
(1.11155 0.500335 1.8403e-19)
(1.21781 0.544324 3.21905e-19)
(1.27112 0.558414 -7.04652e-20)
(1.2916 0.553713 7.98098e-20)
(1.2939 0.538721 9.58036e-20)
(1.28728 0.519037 1.60767e-19)
(1.27702 0.497911 -1.92925e-19)
(1.26575 0.477006 9.37267e-20)
(1.25466 0.457056 -7.00861e-20)
(1.24418 0.438311 3.0838e-19)
(1.23445 0.420807 1.4419e-19)
(1.22551 0.404497 -3.18627e-19)
(1.21747 0.389311 1.81209e-19)
(1.2104 0.375207 8.95199e-20)
(1.20429 0.362329 -1.76114e-19)
(1.19905 0.350875 4.75236e-19)
(1.19517 0.339421 -3.57212e-19)
(0.262312 0.119001 -3.35417e-19)
(0.654835 0.310187 -4.38138e-19)
(0.928459 0.449948 3.12385e-19)
(1.10238 0.534856 -2.87035e-19)
(1.20086 0.575318 -2.43687e-20)
(1.24858 0.585186 -3.30626e-19)
(1.26581 0.576628 2.71196e-19)
(1.26671 0.558502 5.28475e-19)
(1.25996 0.53639 -7.38359e-19)
(1.25028 0.51339 3.8165e-20)
(1.23998 0.491004 3.18933e-20)
(1.22999 0.469845 -1.60474e-19)
(1.22062 0.450081 1.05441e-19)
(1.21195 0.431695 -4.96593e-20)
(1.20401 0.414607 3.48018e-19)
(1.19686 0.398728 -3.75965e-19)
(1.19062 0.384013 -1.40943e-19)
(1.18528 0.370612 3.56719e-19)
(1.18078 0.3587 -5.62285e-19)
(1.17767 0.34682 3.55785e-19)
(0.266417 0.13288 6.99745e-19)
(0.656579 0.339207 6.2554e-19)
(0.922619 0.483558 -1.04414e-19)
(1.08791 0.567155 -1.38208e-20)
(1.17922 0.603853 -3.27219e-19)
(1.22216 0.609516 1.38892e-19)
(1.2369 0.597251 7.2314e-19)
(1.23703 0.576177 -6.41503e-19)
(1.2306 0.551808 4.27008e-19)
(1.22185 0.52707 -4.11929e-20)
(1.21275 0.503309 2.77797e-19)
(1.20404 0.481023 -5.99533e-20)
(1.19594 0.460305 1.74908e-19)
(1.18847 0.441093 2.42673e-19)
(1.18162 0.423276 -1.23839e-19)
(1.17546 0.406747 1.73872e-19)
(1.17012 0.391457 -2.68761e-19)
(1.16562 0.377562 6.79376e-19)
(1.16191 0.365217 -4.46506e-19)
(1.15966 0.352973 3.24244e-19)
(0.268597 0.146556 -3.4596e-19)
(0.65407 0.367057 -6.47692e-19)
(0.911672 0.515102 -4.48981e-19)
(1.06848 0.596868 -3.62511e-20)
(1.15326 0.629646 1.11508e-19)
(1.19221 0.631183 -6.01843e-20)
(1.20517 0.615399 -4.08294e-19)
(1.20509 0.591583 -1.88334e-19)
(1.19939 0.565136 -3.60677e-19)
(1.19185 0.538803 -2.00375e-19)
(1.18415 0.513775 9.80549e-20)
(1.17689 0.490445 -4.73079e-19)
(1.17021 0.468842 -1.26393e-19)
(1.16406 0.448863 -1.31861e-19)
(1.15842 0.430369 -4.08029e-19)
(1.15335 0.413235 1.82775e-19)
(1.14899 0.397408 -1.01967e-20)
(1.14538 0.383042 1.8782e-19)
(1.14255 0.370281 -7.88496e-20)
(1.14121 0.357733 -3.2264e-19)
(0.268829 0.159817 7.9927e-19)
(0.647417 0.393342 6.96805e-19)
(0.895884 0.54418 8.85056e-19)
(1.04444 0.623664 -9.14477e-20)
(1.12337 0.65244 -3.43824e-19)
(1.15907 0.649987 9.99533e-19)
(1.17091 0.630903 -5.2464e-19)
(1.17111 0.604568 6.00136e-19)
(1.16649 0.576231 -1.18313e-19)
(1.1604 0.548448 3.94075e-19)
(1.15429 0.522263 4.21446e-20)
(1.14863 0.497973 2.23072e-19)
(1.14349 0.475554 -5.25409e-20)
(1.1388 0.454868 2.46102e-19)
(1.13449 0.435752 -2.33722e-19)
(1.13061 0.418061 -2.78845e-21)
(1.1273 0.401731 1.15987e-19)
(1.12465 0.38691 2.04029e-19)
(1.12276 0.373742 -4.49259e-20)
(1.12238 0.360958 1.39105e-19)
(0.267122 0.172453 -2.47417e-19)
(0.636786 0.417687 -7.07232e-19)
(0.875569 0.570428 -4.32938e-19)
(1.01619 0.647247 -7.71359e-19)
(1.08992 0.672009 8.52634e-19)
(1.12309 0.66575 -6.36202e-19)
(1.1344 0.643615 4.17553e-19)
(1.13531 0.614997 -1.37909e-19)
(1.13207 0.584965 -1.98537e-19)
(1.12764 0.55588 -1.44925e-19)
(1.12326 0.528648 7.37626e-20)
(1.11931 0.503482 1.27611e-19)
(1.11584 0.480313 1.29965e-19)
(1.11272 0.458975 -1.48056e-19)
(1.10988 0.439286 -1.43061e-19)
(1.10732 0.421084 4.56433e-19)
(1.10515 0.404288 -1.73464e-20)
(1.10354 0.389025 -2.34683e-19)
(1.10264 0.375464 -6.78253e-21)
(1.10322 0.362534 -8.60313e-20)
(0.263519 0.184262 1.12437e-18)
(0.622393 0.439747 5.35507e-19)
(0.851079 0.593519 5.00173e-19)
(0.984128 0.667359 -3.06961e-19)
(1.05333 0.688157 4.30865e-20)
(1.08462 0.67832 4.55276e-19)
(1.09591 0.653407 7.15901e-20)
(1.09792 0.622755 1.72229e-19)
(1.0963 0.591227 2.01734e-19)
(1.09369 0.560993 4.19686e-20)
(1.09116 0.532826 1.44252e-19)
(1.08903 0.506866 -4.3261e-21)
(1.08731 0.483007 -4.8659e-20)
(1.08589 0.461064 -2.6421e-19)
(1.08464 0.440841 5.12976e-20)
(1.08353 0.422162 3.20053e-21)
(1.08263 0.404924 4.80181e-22)
(1.08213 0.389224 1.82122e-20)
(1.08227 0.375282 -8.3098e-20)
(1.08387 0.362322 1.10705e-19)
(0.258093 0.195054 -8.23379e-19)
(0.604499 0.45921 -7.17311e-19)
(0.822802 0.613165 3.59411e-19)
(0.948691 0.68378 -4.58868e-19)
(1.014 0.700722 -2.96305e-20)
(1.04401 0.68757 9.3822e-20)
(1.05574 0.660172 -8.38324e-20)
(1.05916 0.627745 -5.61868e-20)
(1.05937 0.594929 -1.9212e-19)
(1.05871 0.563703 -1.15703e-19)
(1.05811 0.534717 2.31311e-20)
(1.05785 0.508046 -1.88468e-19)
(1.05794 0.483553 4.81078e-20)
(1.0583 0.46104 -6.54717e-20)
(1.05878 0.440305 2.03434e-20)
(1.05928 0.421167 9.69881e-20)
(1.05981 0.403496 5.5622e-20)
(1.06054 0.387328 4.97888e-20)
(1.06188 0.372927 6.17955e-21)
(1.06476 0.359965 -6.35316e-20)
(0.250945 0.204653 7.99315e-19)
(0.583408 0.4758 1.30922e-20)
(0.791152 0.629125 -6.55535e-20)
(0.910317 0.696325 8.25491e-20)
(0.972325 0.70957 3.72191e-19)
(1.00159 0.693401 -2.52548e-19)
(1.01418 0.663828 1.75049e-19)
(1.01925 0.629897 -2.0678e-19)
(1.02145 0.596008 1.14381e-19)
(1.02282 0.563954 -7.19473e-20)
(1.0242 0.534269 5.29561e-20)
(1.02582 0.506968 2.95e-20)
(1.02775 0.481886 -4.58161e-20)
(1.02993 0.458819 1.34906e-21)
(1.03224 0.43757 6.38384e-20)
(1.03454 0.41797 -7.83498e-20)
(1.03671 0.399864 2.08712e-20)
(1.03895 0.38314 4.29893e-21)
(1.04193 0.367998 -2.98361e-20)
(1.04664 0.354811 3.02071e-20)
(0.242201 0.212899 -1.64517e-19)
(0.559452 0.489281 1.70819e-19)
(0.756567 0.641197 1.6477e-19)
(0.869457 0.704853 -2.54193e-19)
(0.928731 0.714603 1.4551e-19)
(0.957737 0.69574 -2.51391e-19)
(0.971508 0.66432 -9.63465e-21)
(0.978457 0.629166 -3.46631e-20)
(0.982745 0.594431 -3.09784e-20)
(0.986201 0.561726 2.59406e-20)
(0.989543 0.531472 -4.14794e-20)
(0.993023 0.503621 -4.30057e-20)
(0.996724 0.477976 -2.05269e-20)
(1.00066 0.45432 -8.61876e-21)
(1.00479 0.432462 7.87104e-21)
(1.00896 0.412273 1.57194e-20)
(1.01301 0.393588 -2.21653e-20)
(1.0172 0.376055 -3.08329e-21)
(1.02253 0.359668 2.58305e-20)
(1.02941 0.345912 -7.45139e-21)
(0.232012 0.219653 -5.75742e-20)
(0.532993 0.499457 1.52512e-19)
(0.719499 0.649223 -2.042e-19)
(0.826569 0.709256 2.79716e-19)
(0.883631 0.715752 4.22573e-20)
(0.912797 0.694542 -1.26921e-19)
(0.928037 0.661617 -2.89364e-20)
(0.93702 0.625537 3.58153e-20)
(0.943478 0.590204 -3.28228e-20)
(0.949026 0.557052 -8.44594e-21)
(0.954298 0.526395 1.15186e-20)
(0.959531 0.498116 -8.46187e-21)
(0.964836 0.471966 2.83307e-20)
(0.970293 0.447676 -3.80436e-20)
(0.97594 0.425018 3.84605e-20)
(0.981687 0.403849 -7.20288e-20)
(0.987426 0.383946 9.24268e-20)
(0.993648 0.364606 -8.28405e-20)
(1.00142 0.345566 -4.06644e-20)
(1.00953 0.330499 8.96419e-20)
(0.220547 0.224801 1.24536e-19)
(0.504414 0.506176 4.97986e-20)
(0.680413 0.653088 7.26321e-20)
(0.782114 0.709462 6.21414e-20)
(0.837441 0.712975 -6.57622e-20)
(0.867136 0.689782 1.71205e-20)
(0.884078 0.655706 1.04583e-20)
(0.895223 0.619011 -8.14777e-21)
(0.903902 0.58335 1.16967e-20)
(0.911542 0.549994 -3.60675e-20)
(0.918697 0.519167 6.5373e-20)
(0.925578 0.490696 -2.01931e-20)
(0.932287 0.464282 6.17467e-20)
(0.938909 0.439595 -9.42966e-20)
(0.945496 0.416318 2.03607e-19)
(0.952001 0.394182 -3.88109e-20)
(0.958452 0.372735 -1.0601e-20)
(0.965601 0.350581 1.52116e-19)
(0.974284 0.325621 -7.17304e-20)
(0.978963 0.300729 4.61353e-20)
(0.207988 0.228249 6.78599e-20)
(0.47411 0.509324 -2.20331e-19)
(0.639779 0.652718 -1.7603e-20)
(0.736553 0.705435 -5.94494e-20)
(0.790578 0.706258 1.52057e-20)
(0.821117 0.681455 -5.14095e-20)
(0.839953 0.646587 6.8302e-20)
(0.853357 0.609594 8.96665e-21)
(0.864299 0.573882 -1.03427e-20)
(0.874037 0.540581 6.52276e-21)
(0.883064 0.509844 4.53436e-20)
(0.891565 0.481476 8.26302e-20)
(0.899618 0.455178 4.55042e-20)
(0.907262 0.430644 -1.14114e-19)
(0.914484 0.407607 -4.04047e-20)
(0.921218 0.385867 4.41765e-21)
(0.927593 0.365141 2.89154e-20)
(0.934283 0.34467 7.14117e-21)
(0.941216 0.323677 2.74997e-19)
(0.943234 0.304521 -1.89801e-19)
(0.19453 0.229923 -5.88377e-20)
(0.442484 0.508824 7.32018e-20)
(0.598064 0.648073 -5.17925e-20)
(0.690342 0.697167 5.70798e-20)
(0.743452 0.69561 6.68066e-20)
(0.775102 0.669577 -1.08027e-19)
(0.795984 0.634275 1.18608e-19)
(0.81172 0.597296 -3.98733e-20)
(0.824949 0.561808 1.20438e-19)
(0.836792 0.528809 6.77533e-20)
(0.847698 0.498393 -2.53432e-19)
(0.857849 0.47034 -2.53947e-20)
(0.867329 0.444355 3.76568e-19)
(0.876178 0.420138 -4.66303e-19)
(0.884371 0.397434 4.31965e-19)
(0.891834 0.376034 1.55993e-19)
(0.898651 0.355636 -5.4044e-19)
(0.905286 0.335603 2.69858e-19)
(0.91155 0.315612 -5.10615e-20)
(0.913575 0.298339 6.41412e-20)
(0.180373 0.229773 -7.99165e-20)
(0.409942 0.504641 -9.45458e-20)
(0.555734 0.639154 6.2924e-20)
(0.643931 0.684683 -1.15206e-19)
(0.696468 0.681064 -3.87312e-19)
(0.729449 0.65418 -3.1242e-20)
(0.752492 0.618797 -1.22017e-19)
(0.770605 0.582143 -7.80168e-21)
(0.786131 0.547152 -2.86219e-19)
(0.800074 0.514706 -2.92927e-19)
(0.812847 0.484852 -2.12825e-19)
(0.824634 0.457361 -1.06201e-20)
(0.83553 0.431947 -5.1095e-19)
(0.84559 0.408336 -1.50282e-20)
(0.854819 0.386306 2.54657e-19)
(0.863183 0.365687 -2.50738e-19)
(0.870774 0.346242 -2.01643e-19)
(0.877968 0.327488 1.95368e-19)
(0.884566 0.309218 -1.378e-19)
(0.887406 0.293533 2.67603e-20)
(0.165724 0.227773 1.1134e-19)
(0.376887 0.496775 8.52571e-20)
(0.513246 0.625995 -1.39848e-20)
(0.597755 0.668037 -1.16345e-19)
(0.650018 0.662679 2.19705e-19)
(0.684506 0.635314 4.04631e-19)
(0.709788 0.600194 -4.66466e-20)
(0.730302 0.564162 -1.99535e-21)
(0.748125 0.529928 6.96736e-20)
(0.764164 0.498266 1.86817e-19)
(0.778812 0.469186 2.80519e-19)
(0.792259 0.442454 -2.36091e-19)
(0.804619 0.417793 2.22345e-19)
(0.815965 0.394945 -8.51103e-20)
(0.826323 0.373702 2.6804e-19)
(0.835694 0.353903 -1.05532e-19)
(0.844198 0.335342 -2.71367e-19)
(0.852214 0.317641 1.58196e-19)
(0.859573 0.300724 -2.34229e-19)
(0.863509 0.286359 -2.63558e-19)
(0.150788 0.223917 8.47825e-20)
(0.343717 0.485263 1.36124e-19)
(0.471044 0.608668 -1.4008e-19)
(0.552238 0.647313 -4.67352e-21)
(0.604481 0.640536 2.44049e-20)
(0.640607 0.613053 2.22517e-19)
(0.668174 0.578526 -3.19935e-19)
(0.691085 0.543401 3.01521e-19)
(0.711184 0.510169 -3.4704e-20)
(0.729297 0.47951 8.15006e-20)
(0.745805 0.4514 1.39226e-19)
(0.760916 0.425606 -2.6655e-19)
(0.774766 0.401863 1.21763e-19)
(0.787451 0.379929 1.18266e-19)
(0.799026 0.359609 4.47477e-20)
(0.809524 0.340755 -2.28098e-19)
(0.819092 0.323175 7.67572e-19)
(0.828098 0.306544 -4.35777e-19)
(0.836372 0.290826 7.83977e-19)
(0.841453 0.277487 -5.08406e-20)
(0.135771 0.218221 7.25693e-20)
(0.310817 0.470172 3.53118e-19)
(0.429553 0.587275 1.34578e-19)
(0.507785 0.622625 2.57503e-19)
(0.56022 0.614743 7.38641e-20)
(0.598074 0.587489 -4.3116e-19)
(0.627936 0.55387 6.74731e-19)
(0.653217 0.51992 3.57027e-19)
(0.675553 0.487922 1.66633e-20)
(0.695703 0.458466 4.62552e-19)
(0.714046 0.431504 8.07842e-20)
(0.730807 0.406806 4.77016e-20)
(0.746145 0.384115 2.76192e-19)
(0.760184 0.363202 -1.05869e-19)
(0.773004 0.343885 -1.06449e-19)
(0.784671 0.326018 6.46954e-19)
(0.795356 0.309423 -5.36237e-19)
(0.805415 0.293819 1.98085e-20)
(0.814668 0.279189 6.82947e-19)
(0.820916 0.266741 -7.77246e-22)
(0.120872 0.210719 -7.8666e-19)
(0.278559 0.451605 -1.13319e-19)
(0.389184 0.561951 -1.70793e-19)
(0.464782 0.59411 -1.35797e-19)
(0.517579 0.585428 -3.56711e-19)
(0.557211 0.558735 1.216e-19)
(0.589348 0.526322 -1.7522e-19)
(0.616946 0.493801 5.7757e-20)
(0.641458 0.463252 -2.54117e-19)
(0.663591 0.435186 -2.32827e-19)
(0.683725 0.409535 5.72509e-20)
(0.702104 0.386072 -3.85441e-19)
(0.718914 0.364554 3.14196e-19)
(0.7343 0.344764 -1.14259e-19)
(0.748369 0.326526 3.48748e-19)
(0.761213 0.3097 -7.53503e-19)
(0.773023 0.294115 -1.44297e-19)
(0.784134 0.279526 -2.71675e-19)
(0.794362 0.26592 -7.25915e-19)
(0.801761 0.25428 -1.18189e-19)
(0.106285 0.201465 1.24974e-19)
(0.247298 0.429692 -9.53544e-21)
(0.350322 0.532858 -2.09319e-19)
(0.423591 0.561938 7.4836e-20)
(0.476882 0.552745 -1.51475e-19)
(0.518306 0.526928 -1.29419e-21)
(0.552664 0.495999 2.0353e-19)
(0.582502 0.465144 -3.06833e-19)
(0.60911 0.436244 1.17079e-19)
(0.633152 0.409739 -6.88819e-20)
(0.655013 0.385548 2.08439e-20)
(0.67496 0.363449 -3.43819e-19)
(0.693199 0.343211 -4.16208e-19)
(0.7099 0.324629 -1.6434e-20)
(0.725192 0.307536 4.63635e-19)
(0.73919 0.291796 2.03627e-20)
(0.752097 0.277248 5.85908e-19)
(0.764227 0.263676 -8.5692e-19)
(0.775401 0.251065 4.53089e-19)
(0.783919 0.240203 7.87287e-19)
(0.0921937 0.19053 -1.20924e-19)
(0.217368 0.404593 6.46382e-20)
(0.313331 0.50019 4.24587e-19)
(0.384555 0.526299 1.06597e-19)
(0.438434 0.516873 -1.414e-19)
(0.481625 0.492225 1.13048e-19)
(0.518125 0.46304 4.42077e-19)
(0.550102 0.43407 -3.60588e-19)
(0.578704 0.407004 3.33131e-20)
(0.604563 0.382219 -1.31666e-19)
(0.628072 0.359623 4.74556e-19)
(0.649516 0.339004 3.39484e-19)
(0.669124 0.320145 -4.91848e-20)
(0.687086 0.302852 -5.11421e-19)
(0.703552 0.286968 2.77726e-20)
(0.718658 0.27236 -6.35407e-20)
(0.732612 0.258882 3.00433e-19)
(0.745707 0.246341 4.87877e-19)
(0.757782 0.234717 4.24926e-19)
(0.767372 0.22463 -7.12504e-19)
(0.078773 0.178001 -7.84874e-20)
(0.189083 0.376494 3.33574e-19)
(0.27855 0.464167 -3.22269e-19)
(0.347989 0.487411 4.54577e-19)
(0.402516 0.478011 -2.43742e-19)
(0.447419 0.454804 1.78881e-19)
(0.485952 0.427602 4.47586e-19)
(0.519944 0.400718 -5.41376e-19)
(0.550421 0.375657 2.46807e-19)
(0.577987 0.352736 3.1134e-19)
(0.603046 0.331861 -4.20988e-19)
(0.6259 0.312829 -2.77088e-20)
(0.646799 0.295439 -3.35048e-19)
(0.665952 0.279509 5.40591e-19)
(0.683527 0.264894 -2.91591e-19)
(0.699676 0.251467 3.12585e-19)
(0.714612 0.239094 -5.53019e-20)
(0.728606 0.227608 1.94257e-19)
(0.741524 0.216978 4.50948e-20)
(0.75213 0.207681 -1.12646e-19)
(0.066186 0.163982 -2.45897e-19)
(0.162734 0.345605 -5.58436e-19)
(0.24629 0.425031 1.46612e-19)
(0.314183 0.445513 -4.70958e-19)
(0.369385 0.436378 -4.47609e-19)
(0.415915 0.414861 -3.22589e-19)
(0.456347 0.389862 2.50568e-19)
(0.492211 0.365248 1.92221e-19)
(0.524425 0.342345 -6.86572e-22)
(0.553574 0.321422 -1.66936e-19)
(0.580069 0.302381 -3.03511e-19)
(0.604232 0.285034 2.72706e-19)
(0.62633 0.269196 -9.35453e-20)
(0.646589 0.2547 -4.60957e-19)
(0.665194 0.241411 2.99185e-19)
(0.682309 0.229213 -2.24333e-19)
(0.698149 0.217983 -9.1001e-20)
(0.712968 0.207577 -2.55649e-19)
(0.726664 0.197957 -2.29599e-19)
(0.73822 0.189477 5.97237e-20)
(0.0545829 0.148592 2.14217e-19)
(0.138586 0.31216 1.09859e-19)
(0.216835 0.383051 1.69607e-19)
(0.283402 0.400867 -5.84289e-19)
(0.339277 0.392215 6.24217e-19)
(0.38732 0.372614 5.23707e-22)
(0.429497 0.350015 4.24716e-21)
(0.46707 0.327835 -3.78825e-19)
(0.500868 0.307231 3.53317e-19)
(0.531459 0.288425 -2.46634e-19)
(0.559264 0.271321 7.23898e-20)
(0.584621 0.255747 -3.2767e-19)
(0.607814 0.241536 -1.55924e-19)
(0.629082 0.228539 -7.41886e-20)
(0.648625 0.216631 5.58212e-19)
(0.66662 0.205706 -2.73257e-19)
(0.68328 0.195658 -2.47059e-19)
(0.698843 0.186361 2.5219e-19)
(0.713246 0.17777 -2.07188e-19)
(0.725676 0.170142 1.61767e-19)
(0.0441001 0.13196 4.64584e-19)
(0.116878 0.276413 -2.81076e-19)
(0.19044 0.338514 4.15067e-20)
(0.255882 0.353752 4.89805e-19)
(0.312401 0.345778 1.95719e-19)
(0.361819 0.328295 2.4101e-19)
(0.405565 0.30827 2.39682e-19)
(0.444669 0.288671 5.07189e-19)
(0.479884 0.27049 -1.15541e-19)
(0.511765 0.253907 2.76938e-19)
(0.540742 0.238831 4.01201e-19)
(0.567167 0.225111 1.47568e-19)
(0.591339 0.212596 2.66108e-19)
(0.61351 0.201155 9.6385e-20)
(0.633892 0.190678 5.57205e-20)
(0.652672 0.18107 -4.05422e-20)
(0.670061 0.172239 3.27634e-19)
(0.686283 0.164079 2.01438e-19)
(0.701317 0.15654 -1.83096e-19)
(0.714537 0.1498 1.73321e-19)
(0.0348587 0.114231 -3.09972e-19)
(0.0978208 0.238638 3.38608e-20)
(0.167328 0.291728 -8.93242e-20)
(0.23183 0.304465 -2.72245e-19)
(0.288941 0.29734 -1.42786e-19)
(0.339576 0.28215 -2.6109e-19)
(0.384698 0.264852 1.22528e-19)
(0.425141 0.247963 -4.68525e-19)
(0.461593 0.232312 2.77157e-19)
(0.494599 0.218044 -3.81518e-19)
(0.524599 0.205077 -2.36069e-19)
(0.551958 0.193279 -3.12162e-19)
(0.576985 0.182521 7.15487e-20)
(0.599944 0.172689 -7.03765e-20)
(0.621059 0.163687 8.34061e-20)
(0.640524 0.155436 4.49117e-20)
(0.658546 0.147855 8.91294e-20)
(0.67534 0.140858 -7.46435e-19)
(0.690923 0.134393 3.71314e-19)
(0.70484 0.128578 -2.22712e-19)
(0.0269642 0.0955577 1.03574e-19)
(0.0815977 0.199123 2.0878e-19)
(0.147693 0.243015 -1.36091e-19)
(0.211425 0.25332 3.3617e-19)
(0.269056 0.247189 -5.30558e-20)
(0.320731 0.23444 3.8834e-19)
(0.367021 0.219998 7.58186e-20)
(0.408597 0.205927 -7.84244e-20)
(0.446096 0.192898 2.86016e-19)
(0.480056 0.181025 2.1769e-19)
(0.510921 0.170235 8.08771e-20)
(0.53907 0.160419 1.05567e-19)
(0.564822 0.151468 5.27302e-20)
(0.588449 0.14329 -2.24666e-19)
(0.610183 0.135803 -3.09792e-20)
(0.630227 0.128942 2.33135e-19)
(0.648784 0.12264 -1.59251e-19)
(0.666058 0.116829 -7.9564e-21)
(0.682108 0.111459 -3.32155e-19)
(0.696622 0.106603 6.69003e-19)
(0.0205052 0.0761035 2.79789e-19)
(0.0683614 0.158172 -3.34155e-19)
(0.131696 0.192712 1.57254e-19)
(0.194817 0.20064 -2.21236e-19)
(0.252879 0.195623 1.95991e-19)
(0.305401 0.185436 -3.39136e-19)
(0.352639 0.173955 -2.47933e-19)
(0.395134 0.162791 1.87277e-20)
(0.433481 0.15246 -3.36841e-19)
(0.468212 0.143045 -2.09728e-19)
(0.49978 0.134488 -3.61907e-19)
(0.528569 0.126702 -1.19354e-20)
(0.554908 0.119603 -1.40367e-19)
(0.579077 0.113115 3.5445e-19)
(0.601314 0.107176 2.43534e-19)
(0.621828 0.101733 -8.19873e-20)
(0.640818 0.0967357 -7.41202e-20)
(0.658481 0.0921297 -3.57061e-21)
(0.67491 0.0878722 9.14459e-21)
(0.689914 0.0840055 1.32945e-19)
(0.0155526 0.056039 -6.99416e-20)
(0.058234 0.1161 -2.40078e-19)
(0.119466 0.14117 -1.49524e-19)
(0.182124 0.146763 -9.34792e-20)
(0.240515 0.14295 -1.93493e-19)
(0.29368 0.13542 3.30784e-19)
(0.341636 0.126982 -3.59699e-20)
(0.384826 0.118791 -7.94784e-20)
(0.423815 0.111215 3.02278e-21)
(0.459131 0.104309 2.32468e-19)
(0.491232 0.0980291 -2.20641e-19)
(0.520507 0.0923121 2.15387e-19)
(0.547293 0.0870966 1.00668e-19)
(0.571873 0.0823287 -1.83646e-19)
(0.594493 0.0779627 4.01764e-20)
(0.615364 0.0739601 1.17564e-19)
(0.634683 0.0702856 4.0594e-20)
(0.652641 0.0669 -2.86808e-20)
(0.669359 0.0637695 -2.46341e-19)
(0.684742 0.0609162 1.96214e-19)
(0.0121595 0.0355405 6.35197e-20)
(0.0513064 0.0732327 7.68591e-20)
(0.111099 0.0887444 2.15297e-20)
(0.173433 0.092031 -1.626e-20)
(0.232041 0.0894866 4.63914e-20)
(0.285637 0.0846777 7.08043e-20)
(0.334074 0.0793387 2.68158e-20)
(0.377731 0.0741706 3.27675e-20)
(0.417151 0.0693903 -6.93111e-20)
(0.45286 0.0650278 1.29776e-19)
(0.485319 0.0610553 -3.06161e-20)
(0.514924 0.0574337 -2.4145e-21)
(0.542011 0.0541254 3.09046e-20)
(0.566871 0.0510977 3.48226e-20)
(0.58975 0.0483226 -9.34653e-20)
(0.610864 0.0457765 6.16074e-20)
(0.630406 0.0434382 4.02369e-20)
(0.648565 0.0412835 3.4345e-20)
(0.66548 0.0392901 7.34481e-20)
(0.681124 0.0374678 3.03355e-20)
(0.0103604 0.0147889 -1.30467e-20)
(0.0476376 0.0298995 2.71232e-20)
(0.106655 0.035801 -3.79117e-20)
(0.168803 0.0367949 2.38204e-20)
(0.227509 0.0355537 1.39402e-20)
(0.281316 0.0335025 6.18573e-21)
(0.329993 0.0312948 1.47149e-20)
(0.373883 0.0291761 -4.21193e-20)
(0.41352 0.0272146 2.68253e-20)
(0.449429 0.0254158 9.37708e-21)
(0.482071 0.0237681 -5.12665e-22)
(0.511844 0.0222569 5.73115e-20)
(0.539086 0.0208692 -1.74075e-20)
(0.56409 0.0195934 -1.66279e-20)
(0.587105 0.0184193 -1.59625e-20)
(0.608346 0.0173387 2.49097e-21)
(0.628005 0.0163439 -2.12319e-20)
(0.646269 0.0154259 4.10183e-21)
(0.663287 0.014575 7.95249e-22)
(0.679074 0.013794 -2.68115e-21)
(0.0101711 -0.00603265 8.30478e-21)
(0.0472542 -0.0135645 -4.42175e-20)
(0.106164 -0.0172925 5.26647e-20)
(0.168259 -0.0185923 -3.95584e-20)
(0.226942 -0.0185245 -1.84177e-20)
(0.280738 -0.0178105 5.5167e-20)
(0.32941 -0.0168799 4.57513e-21)
(0.3733 -0.0159428 1.24246e-21)
(0.412939 -0.0150799 2.5634e-20)
(0.448851 -0.0143101 1.32117e-20)
(0.481499 -0.0136291 -1.0468e-20)
(0.511279 -0.0130261 -3.65116e-20)
(0.538529 -0.0124901 3.5042e-21)
(0.563542 -0.0120115 -3.15853e-21)
(0.586567 -0.0115822 3.39261e-20)
(0.607818 -0.0111954 -2.0395e-20)
(0.627488 -0.010845 2.78914e-20)
(0.645761 -0.0105254 -4.18074e-20)
(0.662788 -0.0102331 4.96525e-23)
(0.678597 -0.0099696 -8.78719e-21)
(0.0115882 -0.0267404 -2.76502e-20)
(0.0501505 -0.056824 1.39598e-19)
(0.109619 -0.0701673 9.39866e-20)
(0.171795 -0.0737766 6.20498e-20)
(0.230334 -0.0724231 7.73907e-20)
(0.283898 -0.0689655 -1.87791e-20)
(0.332324 -0.0649142 8.55491e-20)
(0.375978 -0.060936 1.74001e-20)
(0.415404 -0.0572609 -7.72322e-21)
(0.451125 -0.0539329 -6.07759e-20)
(0.483601 -0.0509322 6.29319e-20)
(0.513226 -0.0482231 -8.53705e-20)
(0.540338 -0.0457706 6.19478e-20)
(0.565225 -0.0435438 7.08167e-20)
(0.588134 -0.0415168 9.34207e-20)
(0.60928 -0.0396674 -6.14973e-20)
(0.628854 -0.0379762 1.72755e-20)
(0.64704 -0.0364229 6.45377e-20)
(0.663981 -0.0349908 -6.1013e-20)
(0.67969 -0.0336868 4.60768e-20)
(0.0145897 -0.0471516 -2.68053e-19)
(0.0562885 -0.0995451 -1.34378e-19)
(0.116979 -0.122456 -1.49398e-19)
(0.179375 -0.128406 -1.1763e-20)
(0.237652 -0.125818 -8.04838e-20)
(0.290769 -0.119668 -9.82114e-20)
(0.338706 -0.112538 1.74042e-19)
(0.381894 -0.105554 8.82788e-20)
(0.420893 -0.0990967 1.08604e-19)
(0.45623 -0.0932363 -1.17776e-19)
(0.488359 -0.0879382 8.7206e-20)
(0.51767 -0.0831426 1.06262e-19)
(0.544497 -0.0787909 3.75371e-20)
(0.569124 -0.0748312 -3.55173e-20)
(0.591794 -0.0712199 7.4709e-21)
(0.612719 -0.0679199 -1.53268e-20)
(0.632091 -0.0648981 -1.49059e-19)
(0.650095 -0.0621195 2.33289e-20)
(0.666858 -0.0595559 1.44512e-19)
(0.682349 -0.0572223 -1.94174e-19)
(0.0191346 -0.0670865 -8.83312e-20)
(0.0655979 -0.141398 1.30581e-19)
(0.128172 -0.173795 3.00673e-20)
(0.19093 -0.18213 -5.66287e-20)
(0.248837 -0.17839 -1.59447e-19)
(0.301296 -0.169626 -3.40741e-19)
(0.34851 -0.159486 -3.23821e-19)
(0.391005 -0.149552 -2.32422e-20)
(0.429368 -0.140359 -1.87711e-19)
(0.464129 -0.132007 -2.8037e-19)
(0.495739 -0.124447 2.16758e-19)
(0.524581 -0.117596 -3.19867e-19)
(0.550979 -0.111372 6.33383e-20)
(0.575214 -0.105704 -2.04449e-20)
(0.597523 -0.100529 -6.65335e-20)
(0.618113 -0.0957974 -8.38839e-20)
(0.63718 -0.091461 1.36519e-19)
(0.654909 -0.0874705 1.08861e-19)
(0.671401 -0.0837881 1.86544e-19)
(0.686557 -0.0804434 -2.79412e-19)
(0.0251635 -0.0863699 4.79497e-20)
(0.0779765 -0.182062 4.64997e-19)
(0.14309 -0.22383 1.32941e-19)
(0.206361 -0.234609 3.21174e-19)
(0.263801 -0.229825 -1.20269e-19)
(0.315401 -0.218554 1.84229e-19)
(0.361667 -0.205496 -5.80323e-20)
(0.403247 -0.192688 3.72676e-19)
(0.440771 -0.180824 -1.91744e-19)
(0.474772 -0.170036 2.25375e-19)
(0.505695 -0.160262 1.95243e-19)
(0.533913 -0.151398 2.08506e-19)
(0.559744 -0.14334 -1.86193e-19)
(0.583458 -0.135995 1.59672e-19)
(0.605286 -0.129286 -2.21621e-19)
(0.625432 -0.123147 -6.07478e-20)
(0.64409 -0.117518 -1.4528e-19)
(0.661451 -0.112334 -6.13817e-20)
(0.677585 -0.10755 2.44257e-19)
(0.692294 -0.103219 -4.04284e-19)
(0.0325993 -0.104833 -1.92674e-19)
(0.093291 -0.221222 -2.25082e-20)
(0.161591 -0.272213 -7.66626e-20)
(0.225538 -0.285508 -2.69252e-19)
(0.282428 -0.279816 4.56031e-20)
(0.332983 -0.266175 -4.20687e-19)
(0.378083 -0.250314 -1.76557e-19)
(0.418538 -0.234729 -1.36801e-20)
(0.455026 -0.220276 -4.42573e-19)
(0.488089 -0.207121 -1.36915e-19)
(0.518163 -0.195195 -6.25797e-20)
(0.545611 -0.184371 -2.04137e-19)