/*--------------------------------*- C++ -*----------------------------------*\
  =========                 |
  \\      /  F ield         | OpenFOAM: The Open Source CFD Toolbox
   \\    /   O peration     | Website:  https://openfoam.org
    \\  /    A nd           | Version:  6.0
     \\/     M anipulation  |
\*---------------------------------------------------------------------------*/
FoamFile
{
    version     2.0;
    format      ascii;
    class       volVectorField;
    location    "89";
    object      U;
}
// * * * * * * * * * * * * * * * * * * * * * * * * * * * * * * * * * * * * * //

dimensions      [0 1 -1 0 0 0 0];

internalField   nonuniform List<vector> 
4000
(
(-0.00176843 0.0526441 -5.76899e-21)
(-0.00651621 0.120068 3.09998e-20)
(-0.0140728 0.159661 -3.76516e-20)
(-0.0230981 0.17898 2.86763e-20)
(-0.0327858 0.184041 1.395e-20)
(-0.0426334 0.179466 -4.21144e-20)
(-0.0522441 0.168637 -3.69232e-21)
(-0.0613202 0.153912 -1.25058e-21)
(-0.069647 0.136858 -2.21691e-20)
(-0.0770723 0.118464 -1.20461e-20)
(-0.083494 0.0993301 8.9023e-21)
(-0.0888551 0.0798106 3.37334e-20)
(-0.0931434 0.0601167 -2.36284e-21)
(-0.0963946 0.0403875 3.85611e-21)
(-0.0986921 0.0207308 -3.45342e-20)
(-0.100156 0.00124535 2.13917e-20)
(-0.100948 -0.0179697 -3.05871e-20)
(-0.101406 -0.0368257 4.66161e-20)
(-0.102064 -0.0552945 -6.15326e-23)
(-0.102315 -0.0734189 1.01486e-20)
(-0.00372247 0.0541314 1.95541e-20)
(-0.0105764 0.124173 -1.01149e-19)
(-0.0187737 0.165898 -6.98501e-20)
(-0.0276233 0.186818 -4.70768e-20)
(-0.036684 0.192959 -6.10117e-20)
(-0.0456648 0.18899 1.25071e-20)
(-0.0542991 0.178358 -7.06326e-20)
(-0.0623629 0.163483 -1.59877e-20)
(-0.0696779 0.145988 4.64237e-21)
(-0.0761052 0.126912 5.21375e-20)
(-0.0815427 0.106903 -5.80389e-20)
(-0.0859254 0.0863669 8.12332e-20)
(-0.089229 0.0655702 -6.13396e-20)
(-0.0914739 0.0447169 -7.30684e-20)
(-0.0927272 0.0239886 -1.00872e-19)
(-0.0930888 0.00356484 6.43077e-20)
(-0.0927025 -0.0163744 -2.17057e-20)
(-0.0919149 -0.0356728 -7.66374e-20)
(-0.0913159 -0.0542526 7.20762e-20)
(-0.0901198 -0.0720756 -5.4483e-20)
(-0.00571837 0.055101 1.9753e-19)
(-0.0147067 0.127235 1.014e-19)
(-0.0234543 0.170919 1.14212e-19)
(-0.0319595 0.193472 9.65429e-21)
(-0.0401658 0.200828 6.31466e-20)
(-0.0480042 0.197644 7.70127e-20)
(-0.0553489 0.187395 -1.44999e-19)
(-0.0620578 0.172545 -7.60496e-20)
(-0.0679959 0.154764 -1.01519e-19)
(-0.0730431 0.135139 1.05485e-19)
(-0.0771015 0.114363 -8.17014e-20)
(-0.0801007 0.0928891 -1.07899e-19)
(-0.0820043 0.0710362 -4.10597e-20)
(-0.0828161 0.0490679 3.74847e-20)
(-0.0825827 0.0272346 -1.04959e-20)
(-0.0813797 0.00579348 1.41344e-20)
(-0.0793254 -0.0149929 1.74195e-19)
(-0.0767633 -0.0348935 -2.52812e-20)
(-0.074333 -0.0537658 -1.78712e-19)
(-0.0711565 -0.0714578 2.35204e-19)
(-0.00769732 0.0554833 7.12698e-20)
(-0.0187919 0.129084 -9.62764e-20)
(-0.027981 0.174493 -2.39563e-20)
(-0.0359684 0.198672 4.75728e-20)
(-0.0430899 0.207361 1.3178e-19)
(-0.0495055 0.205138 2.86774e-19)
(-0.0552384 0.195467 2.81693e-19)
(-0.0602373 0.180834 2.5029e-20)
(-0.064418 0.162945 1.74372e-19)
(-0.067686 0.142929 2.68641e-19)
(-0.0699528 0.12152 -2.14304e-19)
(-0.0711467 0.0992133 3.18945e-19)
(-0.0712214 0.076373 -7.67686e-20)
(-0.0701641 0.0533124 1.7425e-20)
(-0.0679989 0.0303412 7.73974e-20)
(-0.0647757 0.00778826 1.04285e-19)
(-0.0605836 -0.0140004 -1.64956e-19)
(-0.0557496 -0.0347067 -1.39306e-19)
(-0.050958 -0.0540986 -2.44597e-19)
(-0.0453411 -0.0718667 3.54724e-19)
(-0.00959577 0.0552265 -3.69858e-20)
(-0.0227109 0.129581 -3.7862e-19)
(-0.0322233 0.17641 -1.11914e-19)
(-0.039528 0.202159 -2.72296e-19)
(-0.0453468 0.21227 1.04341e-19)
(-0.0500694 0.211173 -1.62834e-19)
(-0.053874 0.202275 5.88992e-20)
(-0.0568085 0.188061 -3.48993e-19)
(-0.0588476 0.170261 1.86732e-19)
(-0.0599301 0.150037 -2.21113e-19)
(-0.0599838 0.128161 -1.97407e-19)
(-0.0589413 0.105162 -2.25753e-19)
(-0.0567511 0.0814383 2.04499e-19)
(-0.0533867 0.0573409 -1.88387e-19)
(-0.0488517 0.0332247 2.59809e-19)
(-0.0431716 0.00947955 7.59489e-20)
(-0.0364067 -0.0134671 1.89724e-19)
(-0.0288567 -0.0351959 8.19011e-20)
(-0.0212426 -0.0553525 -3.32258e-19)
(-0.0128206 -0.0734216 5.34207e-19)
(-0.0113493 0.0543037 1.68093e-19)
(-0.0263425 0.128626 1.09487e-20)
(-0.03606 0.176498 6.86482e-20)
(-0.0425388 0.203701 2.37463e-19)
(-0.046865 0.215278 -3.43556e-20)
(-0.0496509 0.215442 3.87891e-19)
(-0.0512329 0.207503 1.75429e-19)
(-0.051765 0.193913 1.5041e-20)
(-0.0512896 0.176412 4.5264e-19)
(-0.0497872 0.156188 1.50715e-19)
(-0.0472097 0.134041 7.28339e-20)
(-0.0435015 0.110528 2.27364e-19)
(-0.0386126 0.0860697 2.10928e-19)
(-0.0325086 0.0610404 3.89095e-19)
(-0.0251781 0.0358235 -3.48225e-19)
(-0.0166275 0.0108529 4.98919e-19)
(-0.00689297 -0.0133705 1.10218e-20)
(0.0037609 -0.0363158 -6.41457e-19)
(0.0145884 -0.057471 8.38168e-19)
(0.0260939 -0.0760623 3.43739e-19)
(-0.0128975 0.0527195 -9.89099e-20)
(-0.0295736 0.126178 -1.81849e-19)
(-0.0393853 0.174643 -3.73675e-19)
(-0.0449284 0.20311 -1.1004e-20)
(-0.0476141 0.216135 6.59601e-20)
(-0.0482631 0.217655 -4.7784e-19)
(-0.0473684 0.210831 -3.56414e-19)
(-0.0451957 0.198058 -5.01673e-20)
(-0.041863 0.181068 -4.5599e-19)
(-0.0374013 0.161062 -3.19638e-19)
(-0.0317954 0.138864 -9.33666e-20)
(-0.0250095 0.115049 -3.04039e-19)
(-0.0170029 0.0900524 -4.27935e-21)
(-0.00774183 0.0642563 -4.11401e-19)
(0.00279275 0.0380532 1.73758e-19)
(0.0146054 0.0119004 -1.98325e-19)
(0.0276758 -0.0136457 1.56285e-19)
(0.041778 -0.0379415 -1.95922e-19)
(0.0561594 -0.0602864 -5.68859e-19)
(0.0709743 -0.0795962 -1.70105e-19)
(-0.0141894 0.050512 -3.84697e-20)
(-0.0323078 0.122261 -4.14721e-20)
(-0.0421169 0.170801 3.15592e-19)
(-0.0466562 0.200258 -5.16665e-19)
(-0.0476077 0.214638 7.54941e-20)
(-0.0459779 0.217543 -3.01317e-19)
(-0.0424106 0.211946 1.40713e-19)
(-0.0372857 0.200154 6.43875e-19)
(-0.030804 0.183868 -3.9442e-20)
(-0.0230553 0.164295 -4.88633e-19)
(-0.0140656 0.142275 8.57798e-20)
(-0.00382693 0.118393 1.65949e-20)
(0.0076836 0.093093 -1.07151e-19)
(0.0204916 0.0667507 5.70634e-21)
(0.0346153 0.0397513 9.21331e-19)
(0.0500615 0.012551 -1.27895e-19)
(0.0668155 -0.0142645 -2.61177e-19)
(0.0846882 -0.0399534 -4.73721e-19)
(0.102944 -0.0636062 4.81016e-19)
(0.121289 -0.0837817 2.03085e-19)
(-0.0151891 0.0477535 1.8714e-19)
(-0.0344749 0.11697 -2.46722e-19)
(-0.0442024 0.165013 3.47654e-19)
(-0.0477153 0.1951 3.50075e-19)
(-0.0468998 0.210649 3.2172e-19)
(-0.0429186 0.214887 6.53803e-19)
(-0.0365549 0.210562 4.26017e-19)
(-0.0283029 0.199862 -9.21663e-19)
(-0.0184511 0.18444 4.75544e-19)
(-0.00715513 0.165494 3.78384e-19)
(0.00551071 0.143868 -6.5579e-21)
(0.0195195 0.120158 4.33485e-19)
(0.0348702 0.0948049 3.43566e-19)
(0.0515735 0.068175 -1.83307e-19)
(0.0696401 0.0406306 6.37679e-19)
(0.0890718 0.0126041 -7.90313e-19)
(0.109849 -0.0153212 3.20876e-19)
(0.131814 -0.0423349 4.13619e-19)
(0.154274 -0.0673151 -9.49168e-20)
(0.176417 -0.0884273 8.15698e-19)
(-0.01588 0.0445478 3.83823e-19)
(-0.036038 0.11047 2.00009e-20)
(-0.0456231 0.157407 -1.36406e-19)
(-0.04813 0.187681 -1.42463e-19)
(-0.045575 0.204115 -6.66267e-19)
(-0.039242 0.209539 9.4933e-20)
(-0.0300378 0.206447 2.69957e-19)
(-0.0185662 0.196882 -1.31477e-19)
(-0.00520582 0.182428 1.09199e-19)
(0.00981724 0.164256 -2.64437e-20)
(0.0263753 0.14321 -1.44007e-19)
(0.0444023 0.119886 1.39289e-19)
(0.0638692 0.094724 -6.1337e-19)
(0.0847683 0.0680737 5.89773e-19)
(0.107099 0.0402681 -5.18606e-19)
(0.130853 0.0116991 1.58844e-19)
(0.155999 -0.0170838 3.7162e-19)
(0.182395 -0.0452412 -7.44117e-20)
(0.209425 -0.0714531 -2.56386e-19)
(0.235714 -0.0934672 -1.7067e-19)
(-0.016268 0.0410234 -4.80737e-19)
(-0.0369982 0.102991 -2.99518e-20)
(-0.0463948 0.1482 1.00943e-19)
(-0.0479495 0.178148 2.57549e-19)
(-0.0437325 0.195087 -3.63253e-19)
(-0.0351115 0.201448 -3.17937e-19)
(-0.0230961 0.199455 7.4736e-19)
(-0.00839128 0.190984 -4.12209e-19)
(0.00853632 0.177528 -2.68842e-19)
(0.0273891 0.160219 -3.91926e-19)
(0.0479843 0.139884 2.61817e-19)
(0.0702156 0.117119 -2.35964e-21)
(0.0940259 0.0923574 -4.94827e-19)
(0.119388 0.0659337 -8.26997e-19)
(0.146288 0.0381504 6.32084e-19)
(0.174706 0.00935166 -5.21753e-19)
(0.204587 -0.0199699 7.40625e-19)
(0.235793 -0.0489895 -2.06438e-19)
(0.267804 -0.0762163 4.42751e-19)
(0.2987 -0.0989622 -1.44791e-18)
(-0.0163821 0.037325 -9.80375e-19)
(-0.0373955 0.094808 6.39214e-19)
(-0.0465645 0.137686 8.6345e-20)
(-0.0472355 0.166745 1.68558e-20)
(-0.0414622 0.183727 -3.90982e-19)
(-0.0306582 0.190682 5.75304e-19)
(-0.0159121 0.189556 6.35768e-20)
(0.00198379 0.182046 -1.19096e-19)
(0.0224821 0.169538 -3.87046e-19)
(0.0452178 0.153107 4.19676e-19)
(0.0699564 0.133554 1.08037e-18)
(0.0965539 0.111465 -2.37761e-19)
(0.124927 0.0872652 5.49889e-19)
(0.15503 0.0612765 -6.58652e-19)
(0.186834 0.0337763 -6.40236e-19)
(0.220301 0.00506388 3.83782e-19)
(0.255344 -0.0244354 6.45541e-19)
(0.291793 -0.0539493 -2.094e-18)
(0.329244 -0.0818512 2.45397e-19)
(0.365311 -0.104994 3.23624e-19)
(-0.0162725 0.0336017 7.2736e-19)
(-0.0373047 0.0862254 2.39427e-19)
(-0.0462005 0.126216 1.23184e-18)
(-0.0460446 0.153809 6.30218e-20)
(-0.0388151 0.170314 -1.36844e-19)
(-0.0259358 0.177437 -6.52206e-19)
(-0.00854818 0.176861 5.53744e-19)
(0.0124871 0.170096 1.00167e-18)
(0.0365556 0.158407 6.74718e-19)
(0.0632353 0.142799 4.91553e-19)
(0.0922477 0.124036 4.29381e-19)
(0.123417 0.102685 -7.7365e-19)
(0.156638 0.0791602 -2.48023e-19)
(0.191842 0.053777 -1.83769e-19)
(0.228979 0.026796 1.98033e-18)
(0.267977 -0.0015164 -2.08526e-21)
(0.308692 -0.0307978 -5.02016e-19)
(0.350881 -0.060355 -1.62436e-19)
(0.39424 -0.0884662 1.44804e-18)
(0.436102 -0.11148 1.83374e-19)
(-0.0160062 0.0299956 -3.58113e-20)
(-0.0368244 0.0775506 -6.83279e-19)
(-0.0453764 0.114178 -1.01165e-18)
(-0.0444049 0.139742 -2.80316e-19)
(-0.035768 0.155228 1.54979e-19)
(-0.02087 0.162046 3.26305e-20)
(-0.000877413 0.161639 8.89348e-19)
(0.0233048 0.155336 -1.10409e-18)
(0.0510149 0.144275 -4.21362e-19)
(0.0817893 0.129379 -8.59374e-19)
(0.115317 0.111365 -7.40782e-19)
(0.151397 0.0907732 -6.63804e-19)
(0.189896 0.0680099 1.66059e-19)
(0.230718 0.0433846 -2.18714e-19)
(0.273763 0.0171538 9.52861e-19)
(0.318894 -0.0104309 -5.21632e-19)
(0.36587 -0.0390537 -1.66072e-18)
(0.414313 -0.0681129 -3.39756e-19)
(0.46396 -0.0958406 8.23062e-19)
(0.512178 -0.117992 -6.85925e-19)
(-0.0156587 0.0266297 -1.15673e-19)
(-0.0360611 0.0690682 8.35763e-19)
(-0.0441497 0.101957 -1.06158e-18)
(-0.0422875 0.124988 2.45411e-19)
(-0.0321878 0.138929 -5.03033e-19)
(-0.0152114 0.144961 1.12061e-18)
(0.00747799 0.144319 -8.03079e-19)
(0.0349582 0.138161 9.23454e-19)
(0.0665432 0.127502 -8.77351e-19)
(0.101746 0.113178 3.80189e-19)
(0.140231 0.095851 -1.82449e-19)
(0.181769 0.0760334 -4.67568e-19)
(0.226188 0.0541191 -5.86494e-19)
(0.273327 0.0304189 5.89635e-19)
(0.322995 0.00519665 -4.98359e-19)
(0.374932 -0.0212925 -1.1041e-18)
(0.428739 -0.0487557 1.15456e-18)
(0.483827 -0.0766843 -1.4765e-18)
(0.539878 -0.103331 6.67275e-19)
(0.594736 -0.12371 1.55638e-20)
(-0.015304 0.0235968 -1.05065e-18)
(-0.0351075 0.0610162 -1.12706e-18)
(-0.0425352 0.0899114 1.29897e-19)
(-0.0395784 0.109994 -1.07786e-18)
(-0.0278 0.121927 -9.45808e-20)
(-0.00850035 0.126729 -7.92009e-19)
(0.0171848 0.125466 -1.81893e-19)
(0.0483422 0.119148 -5.33701e-19)
(0.0842828 0.108673 5.5809e-21)
(0.124506 0.0947906 -2.3504e-19)
(0.16865 0.0781079 2.05102e-20)
(0.216435 0.0591061 -6.90608e-19)
(0.267609 0.0381685 7.75349e-19)
(0.321891 0.0156108 -1.09968e-18)
(0.378926 -0.00828855 3.97994e-19)
(0.43825 -0.033258 1.79109e-20)
(0.499234 -0.0590071 -6.34198e-19)
(0.561019 -0.0851126 1.59252e-18)
(0.623095 -0.109948 -3.76346e-19)
(0.684315 -0.127567 -2.33525e-19)
(-0.0150025 0.0209518 1.17665e-18)
(-0.03402 0.0535651 6.32318e-19)
(-0.04048 0.0783385 5.85407e-19)
(-0.0360552 0.0951764 8.68945e-20)
(-0.0221703 0.10474 7.88039e-19)
(-5.71263e-05 0.107951 1.13481e-18)
(0.0291952 0.105749 9.28906e-19)
(0.0647003 0.0990239 8.53686e-20)
(0.105775 0.0885671 6.86884e-19)
(0.151898 0.0750507 1.06617e-18)
(0.20265 0.059028 -2.77827e-19)
(0.257652 0.0409499 4.69012e-19)
(0.316498 0.0211886 3.7895e-19)
(0.3787 6.33789e-05 3.91107e-19)
(0.443648 -0.0221341 2.35029e-18)
(0.510588 -0.0451166 -8.8408e-19)
(0.578604 -0.0685887 -5.17641e-20)
(0.646538 -0.092208 1.03889e-18)
(0.713584 -0.114594 -5.89193e-19)
(0.780053 -0.128584 2.78632e-19)
(-0.0147893 0.0187062 -9.49173e-19)
(-0.0327972 0.0468049 5.95821e-20)
(-0.0378448 0.0674537 -7.51093e-19)
(-0.0313771 0.0808877 -9.65231e-20)
(-0.0147101 0.0878519 5.47817e-19)
(0.01099 0.0892319 -1.63126e-18)
(0.0446858 0.0858847 -2.91622e-21)
(0.0855177 0.0786047 7.61379e-19)
(0.132792 0.0680968 7.18471e-19)
(0.185926 0.0549638 -3.16186e-19)
(0.244382 0.0397098 1.06794e-19)
(0.30759 0.0227553 2.45167e-19)
(0.374887 0.00445703 -1.16249e-19)
(0.445473 -0.0148709 -1.32776e-18)
(0.518389 -0.0349379 3.3525e-19)
(0.59253 -0.0554593 9.40021e-19)
(0.666663 -0.0761535 -1.34587e-18)
(0.739381 -0.0967704 6.53225e-19)
(0.809602 -0.116266 1.76001e-19)
(0.879187 -0.126128 8.54574e-19)
(-0.0146649 0.0168286 -1.3808e-19)
(-0.0313658 0.0407411 -6.60057e-19)
(-0.0343961 0.0573752 3.02854e-19)
(-0.0250934 0.0673883 1.06459e-21)
(-0.0047103 0.0716736 -1.31383e-18)
(0.0256344 0.0711305 2.05076e-19)
(0.0649378 0.0665708 -3.91537e-20)
(0.112337 0.0587211 2.65846e-19)
(0.167075 0.0482172 -1.2201e-18)
(0.22843 0.0356026 -8.88942e-20)
(0.295637 0.021335 -2.93031e-19)
(0.367821 0.00580086 2.55837e-19)
(0.443945 -0.0106684 8.81326e-19)
(0.522793 -0.0277805 -1.35895e-19)
(0.602992 -0.045269 5.55445e-20)
(0.683057 -0.0628832 3.47448e-19)
(0.761464 -0.0803956 -9.00528e-20)
(0.836646 -0.097669 7.18146e-19)
(0.907515 -0.113902 -4.14864e-19)
(0.97677 -0.119848 -6.31541e-19)
(-0.0145902 0.0152502 1.2944e-19)
(-0.0295767 0.0353008 3.22969e-20)
(-0.0298148 0.0481226 2.6406e-19)
(-0.0166732 0.0548331 6.44404e-19)
(0.00859815 0.056512 3.6078e-19)
(0.0448873 0.0541103 3.75194e-20)
(0.0911777 0.0484251 -4.30511e-19)
(0.146534 0.0401374 1.09856e-19)
(0.21004 0.0298283 5.83648e-19)
(0.280715 0.0179877 -9.91529e-19)
(0.357439 0.00502474 7.51355e-19)
(0.438902 -0.00871823 -5.68921e-19)
(0.523592 -0.0229519 4.85415e-19)
(0.609823 -0.0374273 -1.05153e-18)
(0.695799 -0.0519264 1.16262e-18)
(0.779708 -0.0662575 -1.24467e-18)
(0.8598 -0.0802722 -3.24789e-19)
(0.934446 -0.0939031 1.01133e-18)
(1.00286 -0.106248 -3.42172e-19)
(1.06643 -0.110329 1.442e-19)
(-0.0144877 0.0138755 -9.74052e-20)
(-0.0272121 0.0303498 9.17759e-19)
(-0.0237172 0.0396285 -4.65644e-21)
(-0.00554842 0.0432718 -5.68102e-19)
(0.0259693 0.0425588 -3.8084e-19)
(0.0696628 0.0385148 6.98064e-19)
(0.124416 0.0319423 -2.76404e-19)
(0.189108 0.0234913 -3.48459e-20)
(0.26253 0.013695 5.79358e-19)
(0.343295 0.00298698 -7.19989e-19)
(0.42979 -0.00828366 8.03469e-20)
(0.520167 -0.0198384 -9.43152e-19)
(0.612391 -0.0314553 4.98215e-19)
(0.704325 -0.0429557 -1.42537e-18)
(0.793848 -0.0541928 2.2692e-18)
(0.878976 -0.0650428 -4.21286e-19)
(0.957969 -0.0754029 4.24377e-19)
(1.02942 -0.0851465 -1.09903e-18)
(1.09283 -0.0934331 1.71522e-20)
(1.14321 -0.102565 1.10188e-18)
(-0.0142482 0.0125968 -2.94308e-19)
(-0.024002 0.0257177 2.53268e-19)
(-0.0156848 0.0317631 -9.34143e-19)
(0.00883871 0.0326692 1.38069e-18)
(0.0480722 0.0299018 -9.96166e-19)
(0.100681 0.024568 5.12943e-20)
(0.165324 0.0174834 -1.07515e-18)
(0.240545 0.00927051 7.69055e-19)
(0.324677 0.000409276 -1.09819e-19)
(0.415777 -0.00873693 -6.8238e-19)
(0.511623 -0.0179027 -3.99787e-19)
(0.609782 -0.026903 4.23387e-19)
(0.707721 -0.0356156 2.79325e-19)
(0.802964 -0.0439631 -1.22772e-18)
(0.893242 -0.0518962 4.44835e-19)
(0.976634 -0.0593774 -6.4837e-19)
(1.05166 -0.0663654 8.32392e-20)
(1.11735 -0.0727815 -5.23854e-19)
(1.17341 -0.0782899 1.77883e-19)
(1.21841 -0.0841501 -7.34635e-19)
(-0.0137417 0.0113106 8.37966e-19)
(-0.0196462 0.0212293 -5.07358e-19)
(-0.00529384 0.0243712 4.17389e-19)
(0.0269961 0.0229421 -5.26153e-19)
(0.0754411 0.01856 8.81665e-19)
(0.138413 0.0124054 -1.61015e-20)
(0.21418 0.00530064 -1.08031e-19)
(0.300774 -0.00217125 -8.04845e-20)
(0.395899 -0.00960282 4.9186e-19)
(0.496925 -0.0167292 8.38235e-19)
(0.600963 -0.0234026 -4.94644e-19)
(0.705021 -0.0295665 4.81999e-19)
(0.806193 -0.0352293 8.76043e-19)
(0.901859 -0.0404373 -6.12673e-19)
(0.989846 -0.0452505 -1.22114e-18)
(1.06854 -0.0497226 2.21744e-18)
(1.13695 -0.0538863 -3.95018e-19)
(1.19464 -0.0577473 -1.19947e-19)
(1.24185 -0.0611745 1.24653e-18)
(1.27863 -0.0648578 -2.91639e-19)
(-0.0128296 0.00993182 -1.36203e-18)
(-0.0138353 0.016735 -9.05614e-19)
(0.00785954 0.0173121 -3.47364e-19)
(0.0493572 0.014006 6.70391e-19)
(0.108454 0.00853399 -1.51364e-18)
(0.183062 0.00212519 7.84218e-19)
(0.270871 -0.00441519 9.94691e-20)
(0.369207 -0.0105725 1.00462e-19)
(0.474993 -0.0160481 -1.03133e-18)
(0.584832 -0.0207168 -3.6408e-19)
(0.695191 -0.0245883 -6.4034e-19)
(0.802649 -0.027767 6.1785e-19)
(0.904141 -0.0304104 1.70982e-19)
(0.997173 -0.0326914 3.24205e-20)
(1.07994 -0.0347663 7.71178e-19)
(1.15139 -0.0367538 -7.908e-19)
(1.21115 -0.038724 -2.96872e-20)
(1.25948 -0.0406968 3.07042e-20)
(1.29715 -0.0425849 1.14318e-19)
(1.32514 -0.0448158 5.25173e-19)
(-0.0113753 0.00840384 4.33402e-19)
(-0.00626948 0.0121363 1.11466e-18)
(0.0241429 0.0104982 8.94002e-19)
(0.0762685 0.00582311 -3.08377e-19)
(0.147326 -0.000140518 1.07375e-18)
(0.234579 -0.0061575 -8.98866e-20)
(0.334928 -0.011483 -1.27884e-19)
(0.444811 -0.0157197 7.57465e-20)
(0.560265 -0.0187302 1.04199e-18)
(0.677129 -0.0205781 6.12386e-19)
(0.791352 -0.0214681 1.79579e-19)
(0.899311 -0.0216837 1.32203e-20)
(0.99808 -0.021529 -1.16052e-18)
(1.08559 -0.0212802 1.01052e-18)
(1.16066 -0.0211538 1.65164e-19)
(1.22297 -0.0212899 -2.80943e-19)
(1.2729 -0.0217516 -1.1521e-18)
(1.31137 -0.0225338 -8.48345e-20)
(1.33966 -0.0235475 4.31133e-19)
(1.3593 -0.0250741 -7.93514e-20)
(-0.00925154 0.00670304 -1.09646e-18)
(0.00332959 0.00740219 4.58621e-19)
(0.0438765 0.00392338 -2.24082e-18)
(0.107985 -0.00156028 9.19153e-19)
(0.192119 -0.00735121 -7.33781e-19)
(0.292678 -0.0122702 5.42051e-19)
(0.405568 -0.0156981 -8.42837e-19)
(0.526195 -0.0174234 7.74206e-20)
(0.649679 -0.0175333 -4.34088e-20)
(0.771205 -0.0163277 2.26174e-19)
(0.88644 -0.0142284 3.23033e-19)
(0.99188 -0.011692 -6.09375e-19)
(1.08506 -0.00913767 3.25281e-19)
(1.16462 -0.00689753 2.92211e-19)
(1.23022 -0.00519327 1.21747e-18)
(1.28234 -0.00413425 -5.38001e-19)
(1.3221 -0.00373248 -3.32774e-19)
(1.35098 -0.00392269 5.52547e-19)
(1.37067 -0.00457586 2.68076e-19)
(1.38289 -0.00593608 -5.49965e-19)
(-0.0063431 0.00483852 9.58226e-19)
(0.0152102 0.00257528 9.23339e-19)
(0.0673243 -0.00232273 2.67171e-19)
(0.14466 -0.00799457 1.1264e-18)
(0.242731 -0.0128901 5.55392e-19)
(0.356845 -0.0159701 -1.00115e-18)
(0.48173 -0.0168287 1.51814e-18)
(0.611684 -0.0155228 -7.4699e-19)
(0.740989 -0.0124284 7.44175e-19)
(0.864409 -0.00811302 9.57269e-19)
(0.977665 -0.00321009 -5.4638e-19)
(1.07773 0.00168847 1.04553e-19)
(1.16292 0.00610702 5.657e-19)
(1.2328 0.0097226 3.91538e-19)
(1.28793 0.0123681 8.77567e-19)
(1.32961 0.014012 -3.62998e-19)
(1.35958 0.0147246 -5.35567e-20)
(1.37974 0.0146472 5.11511e-19)
(1.392 0.0139494 -1.15168e-19)
(1.39811 0.012418 -2.03702e-21)
(-0.00254778 0.00284835 -4.94172e-19)
(0.029585 -0.00223119 -1.81549e-18)
(0.0946834 -0.00805517 4.28378e-19)
(0.186335 -0.0132279 -3.26386e-19)
(0.298886 -0.0164602 -7.56043e-19)
(0.426336 -0.01696 -5.4158e-19)
(0.5621 -0.0146403 -3.34136e-19)
(0.699402 -0.00991327 8.10753e-19)
(0.831889 -0.00349147 -4.80722e-19)
(0.954254 0.00378878 -4.93461e-19)
(1.06267 0.0111236 -6.13187e-19)
(1.15493 0.0178543 -1.00717e-19)
(1.23037 0.0235254 -7.44061e-20)
(1.28959 0.0278926 -1.36502e-18)
(1.33405 0.0308956 6.41272e-19)
(1.36573 0.0326131 -8.45716e-19)
(1.38681 0.0332125 2.46842e-19)
(1.39945 0.0329114 -1.89464e-18)
(1.4056 0.0319144 5.74519e-19)
(1.40694 0.0300406 6.90908e-19)
(0.00222426 0.000794302 -1.24582e-19)
(0.0466244 -0.00684285 8.82303e-19)
(0.12607 -0.0130066 5.67889e-20)
(0.232917 -0.0169253 1.36735e-19)
(0.360116 -0.017704 -2.78326e-19)
(0.500175 -0.0149261 -5.15457e-21)
(0.645157 -0.00893748 -6.87026e-21)
(0.787367 -0.000578831 -1.67091e-19)
(0.920165 0.00908471 5.95822e-19)
(1.03859 0.0189877 2.27703e-19)
(1.13966 0.0282327 1.02376e-18)
(1.2223 0.0361836 -2.76725e-19)
(1.28698 0.0424854 1.89029e-19)
(1.33531 0.0470321 -2.03948e-20)
(1.36952 0.0499053 5.14089e-19)
(1.39211 0.0513067 3.04331e-19)
(1.40552 0.051498 7.08775e-19)
(1.41196 0.0507594 -1.13254e-18)
(1.41332 0.0493158 1.39569e-18)
(1.4111 0.0470397 -4.41807e-19)
(0.00805049 -0.00124308 -1.14455e-18)
(0.0664499 -0.0110367 -3.59551e-19)
(0.161501 -0.0168478 2.79465e-19)
(0.284155 -0.0186993 1.76732e-19)
(0.425749 -0.0162444 1.83407e-19)
(0.577177 -0.00958431 1.84249e-19)
(0.729235 0.000395777 -4.64082e-19)
(0.873619 0.0123852 -1.88147e-19)
(1.00384 0.024996 6.05297e-20)
(1.11574 0.0370154 -5.57671e-19)
(1.20753 0.0475546 -2.47235e-19)
(1.2794 0.0560947 1.48778e-18)
(1.33301 0.0624517 -3.85548e-19)
(1.37083 0.0666976 -5.13989e-19)
(1.3957 0.0690691 -2.32819e-19)
(1.41039 0.0698855 1.66889e-19)
(1.41744 0.0694869 1.90075e-19)
(1.41897 0.0681953 -9.07505e-19)
(1.4167 0.0662433 1.28721e-18)
(1.41194 0.0635687 -1.1147e-18)
(0.0149943 -0.00316853 -1.27251e-19)
(0.089124 -0.0145543 3.60836e-20)
(0.200882 -0.0192121 -4.80951e-20)
(0.339629 -0.0181454 6.9368e-19)
(0.494909 -0.0117279 3.96043e-20)
(0.655986 -0.000722291 2.54768e-19)
(0.812622 0.0133682 -5.31544e-19)
(0.956342 0.0287701 -1.84552e-20)
(1.08131 0.0438524 7.30007e-19)
(1.18458 0.0573695 9.90803e-20)
(1.26578 0.0685539 -6.2369e-19)
(1.32644 0.0770887 -5.49215e-20)
(1.36924 0.0830095 -4.93223e-19)
(1.39738 0.0865828 4.96132e-19)
(1.41405 0.0881936 6.67143e-19)
(1.42215 0.0882595 -7.26729e-20)
(1.4241 0.0871751 -8.44399e-20)
(1.42187 0.0852809 2.57346e-19)
(1.41694 0.0828087 -8.05768e-19)
(1.41044 0.0797664 7.20449e-19)
(0.0231019 -0.00487507 1.30684e-19)
(0.114641 -0.0171144 -8.34691e-19)
(0.24399 -0.0197191 2.22741e-19)
(0.398746 -0.0148764 -6.97928e-19)
(0.566546 -0.00386263 2.40766e-19)
(0.735146 0.0117715 -8.91013e-19)
(0.893663 0.0298732 3.58826e-19)
(1.03398 0.0482712 -1.14946e-19)
(1.1514 0.0652145 -4.98745e-21)
(1.24451 0.0795578 1.13433e-19)
(1.31446 0.0907599 -4.10245e-19)
(1.36403 0.0987691 -5.77321e-19)
(1.39675 0.103864 -1.1457e-19)
(1.41631 0.1065 -5.13865e-20)
(1.42604 0.107188 -1.29257e-19)
(1.42878 0.106416 -4.10984e-20)
(1.42678 0.104609 -1.22703e-19)
(1.42175 0.102103 -1.0509e-19)
(1.41495 0.0991266 -3.03002e-19)
(1.4073 0.0957504 4.766e-19)
(0.0323976 -0.00624648 3.08345e-19)
(0.142919 -0.0184245 -3.43241e-19)
(0.290471 -0.0179973 7.40807e-19)
(0.460748 -0.00855193 -3.21499e-19)
(0.639479 0.00755465 8.59234e-19)
(0.813186 0.0278956 1.44627e-20)
(0.970862 0.0496988 4.29335e-19)
(1.10531 0.0705169 -1.16585e-19)
(1.21339 0.0886324 4.72639e-19)
(1.29543 0.103132 3.10898e-20)
(1.35404 0.113785 1.09888e-18)
(1.39309 0.120843 -7.53139e-19)
(1.41674 0.124825 1.03374e-19)
(1.42892 0.126351 1.92794e-19)
(1.43294 0.126029 9.69796e-19)
(1.43146 0.124387 -3.47086e-19)
(1.42647 0.121854 -6.73131e-20)
(1.41941 0.118747 -3.46175e-19)
(1.41133 0.11529 -3.31785e-20)
(1.40296 0.111605 1.7161e-19)
(0.0428796 -0.00715988 -1.45225e-19)
(0.173792 -0.0181922 4.23847e-19)
(0.339838 -0.0137042 -4.39375e-19)
(0.524745 0.00109846 1.71205e-19)
(0.712458 0.0226235 -2.08902e-19)
(0.888708 0.047538 7.60213e-19)
(1.04296 0.0725497 -1.07652e-19)
(1.16947 0.0951026 2.5492e-19)
(1.26699 0.113676 -1.52309e-19)
(1.33758 0.127706 -5.00504e-21)
(1.38523 0.13733 1.66602e-19)
(1.41464 0.143108 -1.28181e-19)
(1.43038 0.145781 3.29957e-19)
(1.43638 0.1461 -1.64984e-19)
(1.43583 0.144732 -7.04939e-19)
(1.4311 0.14222 6.95579e-19)
(1.4239 0.138973 -3.07498e-19)
(1.41543 0.135282 2.44723e-19)
(1.4065 0.131369 4.15847e-19)
(1.3977 0.127384 1.70799e-19)
(0.054516 -0.00748888 3.62701e-19)
(0.207006 -0.0161371 -7.48687e-19)
(0.39149 -0.00654361 1.42411e-19)
(0.589746 0.0142592 -1.04553e-19)
(0.784233 0.0413357 -4.24669e-19)
(0.960456 0.0704904 -3.31451e-19)
(1.10899 0.0980743 -6.59943e-20)
(1.22598 0.121619 -5.83832e-19)
(1.31224 0.139958 -3.5497e-20)
(1.3715 0.152963 -1.07068e-19)
(1.40891 0.16117 -2.87205e-19)
(1.42975 0.165433 -6.4269e-20)
(1.43873 0.166677 -2.16e-19)
(1.4397 0.165743 -3.53735e-19)
(1.43556 0.163327 3.57851e-19)
(1.42839 0.159959 4.62979e-20)
(1.4196 0.156017 9.21371e-20)
(1.41015 0.151754 -4.00757e-19)
(1.4007 0.147402 -1.15894e-20)
(1.39168 0.143113 -6.07526e-19)
(0.0672414 -0.00710739 3.9233e-19)
(0.242224 -0.012002 2.63176e-19)
(0.44472 0.00371895 -4.28514e-19)
(0.654709 0.0310197 6.68152e-19)
(0.85361 0.0635808 -7.33821e-20)
(1.02737 0.0964681 2.48814e-19)
(1.16825 0.125891 8.5987e-20)
(1.27465 0.149672 3.00935e-19)
(1.34943 0.167137 -2.35665e-19)
(1.39786 0.178653 7.73396e-20)
(1.42596 0.185148 -7.37867e-20)
(1.43935 0.187738 -3.10132e-20)
(1.44273 0.187488 6.05285e-20)
(1.43968 0.185293 -1.09906e-19)
(1.43278 0.181843 -3.27952e-20)
(1.42381 0.177637 -1.01076e-19)
(1.41391 0.173014 -1.62617e-19)
(1.40383 0.16819 1.05517e-19)
(1.39407 0.163406 -1.40929e-19)
(1.38497 0.158795 6.13943e-19)
(0.0809563 -0.00589403 -1.93985e-19)
(0.279031 -0.00556398 -5.54458e-19)
(0.49875 0.017245 -7.38018e-20)
(0.718585 0.0513716 -2.16154e-20)
(0.919508 0.0891578 -2.49445e-19)
(1.0886 0.125131 -4.08867e-19)
(1.22034 0.155608 1.32513e-19)
(1.31554 0.178901 -1.81947e-19)
(1.37904 0.194928 -2.0145e-19)
(1.4174 0.204577 1.11371e-19)
(1.43724 0.209148 -8.35897e-20)
(1.44432 0.209971 -1.67154e-19)
(1.44312 0.208206 -4.2685e-21)
(1.43693 0.20476 1.12977e-19)
(1.42796 0.200296 -1.13067e-19)
(1.41769 0.19527 1.5694e-19)
(1.40704 0.189974 4.28289e-20)
(1.39658 0.184589 1.0494e-19)
(1.38668 0.179373 2.00808e-19)
(1.37759 0.174412 -1.72257e-19)
(0.0955276 -0.00373682 1.84361e-19)
(0.316943 0.00335438 -1.43215e-20)
(0.552755 0.0341146 8.4765e-20)
(0.780363 0.0752111 -1.13498e-19)
(0.980992 0.117789 1.06561e-20)
(1.14354 0.156104 3.929e-19)
(1.26508 0.186841 -2.5665e-19)
(1.34891 0.208974 1.08124e-19)
(1.40163 0.223086 9.49461e-20)
(1.43085 0.230582 -2.63687e-19)
(1.44353 0.233088 2.46507e-19)
(1.44535 0.232098 2.32685e-21)
(1.44051 0.22882 -1.71056e-19)
(1.4319 0.224144 2.0556e-19)
(1.42142 0.218687 -8.09814e-20)
(1.41026 0.212853 6.15909e-20)
(1.39913 0.206883 -6.90261e-20)
(1.38847 0.200933 -2.80843e-20)
(1.37855 0.195279 -2.35947e-19)
(1.36954 0.189932 7.28898e-20)
(0.11079 -0.000538466 -6.08219e-20)
(0.355425 0.0148755 1.66099e-19)
(0.605893 0.0543225 2.6409e-20)
(0.839102 0.102349 1.09018e-19)
(1.03729 0.149144 5.2243e-20)
(1.19178 0.189 2.45464e-20)
(1.3025 0.219231 1.372e-19)
(1.37512 0.239609 -1.64688e-20)
(1.41782 0.251417 5.98795e-20)
(1.43891 0.25655 9.55465e-20)
(1.44551 0.256908 4.57625e-20)
(1.44304 0.254093 3.27159e-20)
(1.43535 0.249321 1.32205e-19)
(1.42494 0.243439 -1.27941e-19)
(1.41339 0.237004 2.72927e-20)
(1.40164 0.230365 -2.54637e-20)
(1.39025 0.223717 3.92726e-20)
(1.37953 0.217192 3.2819e-20)
(1.36967 0.211087 6.78251e-20)
(1.36079 0.205318 2.52974e-21)
(0.12655 0.00377901 3.61677e-20)
(0.393903 0.0290597 3.29907e-20)
(0.657338 0.0777762 -4.59178e-20)
(0.893968 0.132517 2.87056e-20)
(1.08781 0.182838 1.61701e-20)
(1.23311 0.223417 -5.04929e-20)
(1.33274 0.252424 1.65037e-20)
(1.39462 0.270534 3.15284e-21)
(1.42818 0.279737 2.82439e-20)
(1.4422 0.282367 -7.57736e-20)
(1.44372 0.280538 -1.99511e-22)
(1.43784 0.275911 2.08159e-20)
(1.42798 0.269672 -1.66081e-20)
(1.41627 0.262605 1.67595e-20)
(1.40401 0.255204 4.35423e-20)
(1.39191 0.24776 -2.47434e-20)
(1.38041 0.240425 6.92729e-21)
(1.36974 0.233313 2.69512e-20)
(1.36001 0.226741 -4.41531e-20)
(1.35131 0.220509 2.13868e-20)
(0.0942359 -0.00359462 6.32713e-20)
(0.30296 -0.0267342 -3.47869e-20)
(0.518772 -0.072882 4.10696e-20)
(0.723658 -0.127727 -3.05687e-20)
(0.902603 -0.181741 -1.37409e-20)
(1.047 -0.228949 4.22591e-21)
(1.15508 -0.266181 -1.34772e-20)
(1.2301 -0.292768 4.85357e-20)
(1.27807 -0.309729 -4.02918e-20)
(1.30566 -0.318892 9.10786e-21)
(1.31895 -0.322243 -7.0887e-21)
(1.32288 -0.321559 -4.54589e-20)
(1.32108 -0.318248 4.39779e-20)
(1.31608 -0.313339 1.67784e-20)
(1.3095 -0.307537 -1.60624e-20)
(1.30237 -0.301298 3.81886e-20)
(1.29532 -0.294892 -6.07947e-22)
(1.28869 -0.2885 -3.64179e-20)
(1.28272 -0.282464 2.64322e-20)
(1.27754 -0.276741 8.5775e-21)
(0.0805669 -0.000329629 -2.26161e-20)
(0.267986 -0.0154063 6.18061e-20)
(0.469599 -0.053212 7.22538e-20)
(0.668005 -0.10143 -3.48285e-20)
(0.847715 -0.151517 6.02784e-20)
(0.998381 -0.197536 9.71637e-20)
(1.11587 -0.235746 -5.34341e-21)
(1.20128 -0.264664 -1.69609e-20)
(1.25902 -0.284558 8.48433e-20)
(1.29489 -0.2967 4.15815e-20)
(1.31466 -0.302752 -7.51843e-21)
(1.32334 -0.304349 6.22355e-20)
(1.32485 -0.302884 -6.54537e-20)
(1.32203 -0.299437 1.04845e-19)
(1.31684 -0.294784 -1.69233e-20)
(1.31054 -0.289456 5.0758e-20)
(1.30395 -0.283789 9.56069e-21)
(1.29754 -0.277998 3.52343e-20)
(1.29164 -0.272428 -3.30812e-20)
(1.28646 -0.267149 9.14749e-21)
(0.0676082 0.00197939 -3.37727e-20)
(0.23376 -0.00645777 7.43746e-20)
(0.419969 -0.0365669 5.55676e-20)
(0.60989 -0.0780574 -8.84485e-21)
(0.788204 -0.123578 9.24181e-20)
(0.943419 -0.167542 -7.18679e-20)
(1.06939 -0.205904 -7.14392e-21)
(1.16506 -0.236533 6.50189e-20)
(1.23309 -0.258986 2.20416e-20)
(1.27814 -0.273954 2.95269e-20)
(1.30544 -0.282707 -4.29464e-20)
(1.31991 -0.286671 1.19452e-19)
(1.32561 -0.28717 2.24589e-20)
(1.3257 -0.285297 -1.02869e-19)
(1.32243 -0.281888 1.56303e-19)
(1.31735 -0.277542 -1.82948e-19)
(1.31148 -0.272658 -8.51447e-20)
(1.30548 -0.267498 1.52814e-20)
(1.29978 -0.26241 8.07353e-20)
(1.29469 -0.257571 -1.51698e-19)
(0.055511 0.00342615 -7.12059e-20)
(0.200794 0.000230774 -1.67502e-19)
(0.370718 -0.0229526 -1.47518e-19)
(0.550304 -0.0577992 -2.02077e-19)
(0.724961 -0.0982621 -1.19548e-19)
(0.882683 -0.139355 -2.53319e-19)
(1.01576 -0.177002 3.21985e-20)
(1.12115 -0.208619 -1.43324e-19)
(1.19968 -0.233144 -1.52613e-20)
(1.25464 -0.250684 2.3964e-20)
(1.29049 -0.262068 -5.38923e-20)
(1.31182 -0.268452 7.44746e-20)