/*--------------------------------*- C++ -*----------------------------------*\
  =========                 |
  \\      /  F ield         | OpenFOAM: The Open Source CFD Toolbox
   \\    /   O peration     | Website:  https://openfoam.org
    \\  /    A nd           | Version:  6.0
     \\/     M anipulation  |
\*---------------------------------------------------------------------------*/
FoamFile
{
    version     2.0;
    format      ascii;
    class       volScalarField;
    location    "1";
    object      p;
}
// * * * * * * * * * * * * * * * * * * * * * * * * * * * * * * * * * * * * * //

dimensions      [0 2 -2 0 0 0 0];

internalField   nonuniform List<scalar> 
12500
(
-0.224091
-0.231866
-0.23537
-0.236584
-0.236437
-0.234787
-0.231409
-0.226099
-0.218713
-0.209206
-0.197648
-0.184214
-0.169173
-0.152862
-0.135664
-0.117983
-0.100221
-0.0827647
-0.0659665
-0.050138
-0.0355481
-0.0224145
-0.0108447
-0.000869941
0.00675354
-0.226619
-0.234253
-0.237701
-0.238908
-0.238784
-0.237185
-0.233882
-0.228664
-0.221381
-0.21198
-0.200524
-0.187183
-0.17222
-0.155969
-0.138808
-0.121141
-0.103369
-0.0858784
-0.0690211
-0.0531088
-0.0384097
-0.0251416
-0.0134105
-0.00324408
0.00457439
-0.231594
-0.23895
-0.242287
-0.243477
-0.243397
-0.241899
-0.238742
-0.233705
-0.226624
-0.217432
-0.206178
-0.193021
-0.178213
-0.162079
-0.144993
-0.127355
-0.109564
-0.0920064
-0.0750336
-0.058957
-0.0440448
-0.0305141
-0.0184687
-0.00793033
0.000267501
-0.238882
-0.245831
-0.249003
-0.250167
-0.250149
-0.248794
-0.245849
-0.241075
-0.234289
-0.225402
-0.214445
-0.201557
-0.186975
-0.171013
-0.154037
-0.136441
-0.118622
-0.100965
-0.083823
-0.0675067
-0.0522845
-0.0383738
-0.0258758
-0.0148041
-0.00606094
-0.24829
-0.254716
-0.257672
-0.258796
-0.258853
-0.257677
-0.255002
-0.250564
-0.244156
-0.235662
-0.225087
-0.212545
-0.198256
-0.182515
-0.16568
-0.148136
-0.13028
-0.112494
-0.095132
-0.0785076
-0.0628895
-0.0484964
-0.0354279
-0.0236881
-0.014259
-0.25958
-0.26538
-0.268072
-0.269141
-0.269278
-0.268309
-0.265949
-0.26191
-0.25595
-0.247925
-0.237806
-0.225679
-0.211739
-0.196264
-0.179595
-0.162113
-0.144209
-0.126266
-0.108642
-0.0916506
-0.0755646
-0.0606054
-0.0468727
-0.0343614
-0.0241363
-0.272475
-0.277566
-0.27995
-0.280945
-0.281161
-0.280415
-0.278404
-0.274809
-0.269355
-0.261861
-0.252259
-0.240605
-0.227062
-0.211888
-0.195409
-0.177994
-0.160034
-0.141912
-0.123988
-0.106583
-0.0899736
-0.0743859
-0.0599228
-0.0465704
-0.035473
-0.286679
-0.290995
-0.293033
-0.293932
-0.294216
-0.293699
-0.292055
-0.288936
-0.28403
-0.277112
-0.268077
-0.256939
-0.243832
-0.228987
-0.212713
-0.195371
-0.177348
-0.159029
-0.140779
-0.122926
-0.105755
-0.0894996
-0.0742681
-0.0600402
-0.0480285
-0.301889
-0.305386
-0.307043
-0.307819
-0.308155
-0.307858
-0.306586
-0.303959
-0.299623
-0.293313
-0.284875
-0.274285
-0.261639
-0.247143
-0.231087
-0.213821
-0.195729
-0.1772
-0.158608
-0.140289
-0.122538
-0.105598
-0.0895889
-0.0744848
-0.0615514
-0.317806
-0.320461
-0.321709
-0.322333
-0.322694
-0.322597
-0.321687
-0.31955
-0.315792
-0.310101
-0.302277
-0.29225
-0.280081
-0.265944
-0.25011
-0.232921
-0.214757
-0.196014
-0.177073
-0.158284
-0.139953
-0.122338
-0.105568
-0.0896182
-0.0757883
-0.334152
-0.335961
-0.336778
-0.33722
-0.337572
-0.337646
-0.337071
-0.335406
-0.332215
-0.327138
-0.319927
-0.310465
-0.298772
-0.284994
-0.269382
-0.252267
-0.23403
-0.215073
-0.195788
-0.17654
-0.157649
-0.139387
-0.121899
-0.105164
-0.0904921
-0.350679
-0.351657
-0.352027
-0.352255
-0.35256
-0.352763
-0.352486
-0.35126
-0.348608
-0.344123
-0.337506
-0.328593
-0.317364
-0.303934
-0.288535
-0.271489
-0.253178
-0.234012
-0.214399
-0.194716
-0.175302
-0.156443
-0.138302
-0.120863
-0.105429
-0.367175
-0.367354
-0.367268
-0.36725
-0.367466
-0.367751
-0.367724
-0.366889
-0.364734
-0.360801
-0.354743
-0.346347
-0.335554
-0.322449
-0.307245
-0.290258
-0.271873
-0.252509
-0.232589
-0.212509
-0.192623
-0.173234
-0.154521
-0.136481
-0.120386
-0.383473
-0.382898
-0.382353
-0.38206
-0.382144
-0.382459
-0.382624
-0.382124
-0.380408
-0.376974
-0.371422
-0.363497
-0.353098
-0.340281
-0.325246
-0.308302
-0.28984
-0.270291
-0.250094
-0.229662
-0.209368
-0.189528
-0.17034
-0.151811
-0.135168
-0.399454
-0.39818
-0.397178
-0.396585
-0.396494
-0.396786
-0.397082
-0.39685
-0.395506
-0.392502
-0.387391
-0.379872
-0.369809
-0.357232
-0.342328
-0.325404
-0.30686
-0.28714
-0.2667
-0.24597
-0.225339
-0.205137
-0.185576
-0.166678
-0.14961
-0.415043
-0.413131
-0.411681
-0.410766
-0.410464
-0.41068
-0.411045
-0.41101
-0.40996
-0.407305
-0.402555
-0.395364
-0.385564
-0.373165
-0.358343
-0.341411
-0.322775
-0.302897
-0.282249
-0.261279
-0.240387
-0.219914
-0.200086
-0.18094
-0.163566
-0.43021
-0.427724
-0.42584
-0.424589
-0.424042
-0.424135
-0.424506
-0.424594
-0.423755
-0.42136
-0.416875
-0.40992
-0.400296
-0.387999
-0.373202
-0.356223
-0.337483
-0.317459
-0.296638
-0.275484
-0.254408
-0.233757
-0.213766
-0.194484
-0.17692
-0.444966
-0.441968
-0.439668
-0.438074
-0.437257
-0.437184
-0.437502
-0.437639
-0.436922
-0.434687
-0.430363
-0.423536
-0.413989
-0.401708
-0.386868
-0.369797
-0.350935
-0.330772
-0.309813
-0.288531
-0.267344
-0.246602
-0.226544
-0.207229
-0.189576
-0.459355
-0.455904
-0.453208
-0.451269
-0.450167
-0.449892
-0.450103
-0.450213
-0.449527
-0.447345
-0.443066
-0.43625
-0.426668
-0.414305
-0.399346
-0.382135
-0.363127
-0.342832
-0.321765
-0.300407
-0.279176
-0.25842
-0.23838
-0.219119
-0.201464
-0.473449
-0.469596
-0.466527
-0.464248
-0.46285
-0.462347
-0.4624
-0.462411
-0.461659
-0.459417
-0.455057
-0.448126
-0.438388
-0.425839
-0.410678
-0.393273
-0.374096
-0.353672
-0.332524
-0.311134
-0.289918
-0.269216
-0.249261
-0.230122
-0.212531
-0.48734
-0.483126
-0.479707
-0.477099
-0.475403
-0.474649
-0.474497
-0.474336
-0.47342
-0.470998
-0.466426
-0.459243
-0.449224
-0.436379
-0.420935
-0.40328
-0.383909
-0.363357
-0.342151
-0.320768
-0.299617
-0.279022
-0.259209
-0.240243
-0.222757
-0.501131
-0.496588
-0.492841
-0.489918
-0.487926
-0.486904
-0.486504
-0.486097
-0.484914
-0.482188
-0.477265
-0.469691
-0.45926
-0.446011
-0.4302
-0.412244
-0.392653
-0.371972
-0.350726
-0.329383
-0.308334
-0.287891
-0.268265
-0.249511
-0.232148
-0.514927
-0.510078
-0.506023
-0.502801
-0.50052
-0.499214
-0.498522
-0.497792
-0.496238
-0.493078
-0.487662
-0.479557
-0.468586
-0.454827
-0.438572
-0.420266
-0.400434
-0.379624
-0.358352
-0.337066
-0.316139
-0.295862
-0.276434
-0.257888
-0.240651
-0.528835
-0.52369
-0.519344
-0.515842
-0.513277
-0.511671
-0.510641
-0.50951
-0.507472
-0.503745
-0.497695
-0.48892
-0.477287
-0.46292
-0.446152
-0.427455
-0.407368
-0.386433
-0.36515
-0.343941
-0.323147
-0.303024
-0.283721
-0.265231
-0.248101
-0.542949
-0.537511
-0.53289
-0.529123
-0.526279
-0.524354
-0.522934
-0.521316
-0.518681
-0.514253
-0.507426
-0.497847
-0.485438
-0.470376
-0.453038
-0.43392
-0.413569
-0.39252
-0.371251
-0.350159
-0.329548
-0.309625
-0.290442
-0.271951
-0.255033
-0.557353
-0.551617
-0.546731
-0.542713
-0.539589
-0.53732
-0.535454
-0.533258
-0.529905
-0.524641
-0.516902
-0.506394
-0.493106
-0.477275
-0.459318
-0.439755
-0.419136
-0.397982
-0.37675
-0.35581
-0.335447
-0.315849
-0.297101
-0.279521
-0.263988
-0.572113
-0.566068
-0.560924
-0.556663
-0.553255
-0.550609
-0.54823
-0.545357
-0.541166
-0.534931
-0.526149
-0.5146
-0.500345
-0.483682
-0.465069
-0.445043
-0.42415
-0.402892
-0.381697
-0.360904
-0.34077
-0.321465
-0.303098
-0.286039
-0.270729
-0.587278
-0.580908
-0.575511
-0.57101
-0.567303
-0.564238
-0.561271
-0.557616
-0.55246
-0.545125
-0.535181
-0.52249
-0.507194
-0.489651
-0.470356
-0.449856
-0.428684
-0.407316
-0.386147
-0.36548
-0.345539
-0.326464
-0.308343
-0.291478
-0.276054
-0.602875
-0.596163
-0.590512
-0.58577
-0.58174
-0.578204
-0.574563
-0.570015
-0.563769
-0.555209
-0.543993
-0.530076
-0.513682
-0.495226
-0.475232
-0.45425
-0.432795
-0.41131
-0.390151
-0.369586
-0.349799
-0.330902
-0.312953
-0.296206
-0.280736
-0.618912
-0.61184
-0.605934
-0.60094
-0.596555
-0.592483
-0.588073
-0.582514
-0.575054
-0.565154
-0.552571
-0.537359
-0.519825
-0.500436
-0.479737
-0.458272
-0.436531
-0.414923
-0.393761
-0.373275
-0.353614
-0.334858
-0.317044
-0.300391
-0.284898
-0.635377
-0.627931
-0.621763
-0.616501
-0.611717
-0.607033
-0.601751
-0.59506
-0.586264
-0.574917
-0.560886
-0.544328
-0.525628
-0.505298
-0.483897
-0.461954
-0.43993
-0.418192
-0.397016
-0.376591
-0.357035
-0.3384
-0.320707
-0.304149
-0.288668
-0.652242
-0.644406
-0.637968
-0.632414
-0.627177
-0.621794
-0.615527
-0.607582
-0.597334
-0.584446
-0.568902
-0.550964
-0.531086
-0.50982
-0.487727
-0.465316
-0.443013
-0.421144
-0.399944
-0.379566
-0.360099
-0.341572
-0.323991
-0.307527
-0.292074
-0.669458
-0.661222
-0.654504
-0.648625
-0.642871
-0.636692
-0.629322
-0.62
-0.608192
-0.593681
-0.576576
-0.557237
-0.536185
-0.513997
-0.491229
-0.468365
-0.445789
-0.423789
-0.402559
-0.382218
-0.362827
-0.344397
-0.32692
-0.310549
-0.295137
-0.68696
-0.678318
-0.671307
-0.665065
-0.658718
-0.651638
-0.643042
-0.632223
-0.618755
-0.602556
-0.583856
-0.563114
-0.540902
-0.517816
-0.494397
-0.471096
-0.448258
-0.426127
-0.404861
-0.384548
-0.365224
-0.34688
-0.329502
-0.313219
-0.297854
-0.70467
-0.695619
-0.688301
-0.681648
-0.674625
-0.66653
-0.656583
-0.644153
-0.628939
-0.610999
-0.59069
-0.568553
-0.545209
-0.521255
-0.497213
-0.473495
-0.450406
-0.428148
-0.406843
-0.386549
-0.367282
-0.349017
-0.331728
-0.31553
-0.300215
-0.722492
-0.713035
-0.705392
-0.698276
-0.690484
-0.681255
-0.669832
-0.655685
-0.638651
-0.618938
-0.597018
-0.573512
-0.54907
-0.524286
-0.499652
-0.475541
-0.452214
-0.429832
-0.408485
-0.388205
-0.368986
-0.350791
-0.333586
-0.317466
-0.302203
-0.74032
-0.730463
-0.722477
-0.714837
-0.706176
-0.69569
-0.682673
-0.666711
-0.647802
-0.626296
-0.602782
-0.577943
-0.552448
-0.526876
-0.501685
-0.477205
-0.453653
-0.431154
-0.409764
-0.389492
-0.370314
-0.352182
-0.335054
-0.319006
-0.303794
-0.758035
-0.747788
-0.739437
-0.731205
-0.72157
-0.709706
-0.69498
-0.677124
-0.656297
-0.633
-0.607921
-0.581796
-0.555299
-0.528987
-0.503276
-0.478453
-0.454692
-0.432081
-0.410649
-0.390383
-0.371241
-0.353166
-0.336109
-0.320127
-0.304965
-0.775504
-0.764882
-0.756141
-0.747246
-0.736529
-0.723167
-0.70663
-0.686811
-0.664045
-0.638974
-0.612375
-0.58502
-0.557579
-0.530576
-0.504386
-0.479247
-0.455294
-0.432581
-0.411109
-0.390846
-0.371737
-0.353714
-0.336722
-0.320801
-0.305691
-0.792587
-0.781607
-0.772451
-0.762816
-0.750908
-0.735933
-0.717494
-0.695665
-0.670957
-0.644144
-0.616082
-0.587563
-0.559241
-0.531601
-0.504971
-0.479546
-0.45542
-0.432615
-0.411108
-0.390849
-0.371771
-0.353797
-0.336868
-0.321002
-0.305944
-0.809134
-0.797817
-0.788217
-0.777763
-0.764555
-0.747863
-0.727448
-0.703579
-0.676944
-0.64844
-0.618982
-0.589372
-0.560235
-0.532015
-0.504989
-0.479308
-0.455028
-0.432143
-0.410609
-0.390357
-0.371311
-0.353385
-0.336516
-0.320703
-0.3057
-0.824988
-0.813357
-0.803281
-0.791928
-0.777317
-0.758814
-0.736367
-0.710449
-0.681921
-0.651791
-0.621016
-0.590394
-0.560513
-0.53177
-0.504392
-0.478487
-0.454076
-0.431126
-0.409572
-0.389334
-0.370322
-0.352447
-0.335639
-0.319877
-0.304933
-0.839985
-0.828066
-0.817483
-0.805149
-0.78904
-0.768647
-0.74413
-0.716175
-0.685808
-0.65413
-0.622126
-0.590575
-0.560024
-0.530816
-0.503132
-0.477036
-0.452518
-0.429521
-0.40796
-0.387743
-0.368772
-0.350952
-0.334206
-0.318497
-0.303619
-0.853959
-0.841777
-0.830656
-0.817264
-0.799568
-0.777225
-0.750622
-0.720664
-0.688528
-0.655391
-0.622253
-0.589862
-0.558716
-0.529104
-0.50116
-0.47491
-0.450311
-0.427285
-0.405732
-0.385547
-0.366625
-0.348867
-0.33219
-0.316537
-0.301734
-0.866738
-0.854323
-0.842631
-0.828108
-0.808752
-0.784416
-0.755734
-0.723825
-0.690006
-0.655513
-0.621342
-0.588202
-0.556537
-0.526584
-0.498429
-0.47206
-0.44741
-0.424376
-0.402848
-0.382709
-0.363849
-0.346163
-0.329561
-0.31397
-0.299256
-0.878154
-0.865535
-0.853241
-0.83752
-0.816444
-0.790093
-0.75936
-0.725574
-0.690173
-0.654434
-0.619337
-0.585542
-0.553437
-0.523206
-0.494889
-0.468441
-0.443769
-0.420753
-0.39927
-0.379195
-0.36041
-0.342808
-0.326293
-0.310774
-0.296163
-0.888038
-0.875245
-0.86232
-0.845344
-0.822504
-0.794139
-0.761407
-0.725834
-0.688965
-0.652099
-0.616186
-0.581832
-0.549367
-0.518921
-0.490493
-0.464007
-0.439346
-0.416376
-0.39496
-0.374968
-0.356276
-0.338775
-0.322359
-0.306924
-0.292435
-0.896224
-0.883289
-0.869708
-0.851429
-0.826801
-0.796444
-0.761784
-0.724533
-0.686321
-0.648453
-0.611838
-0.577023
-0.544278
-0.513682
-0.485196
-0.458715
-0.4341
-0.411205
-0.389883
-0.369996
-0.351418
-0.334036
-0.317736
-0.3024
-0.288054
-0.902553
-0.889509
-0.87525
-0.855633
-0.829213
-0.796908
-0.760413
-0.721608
-0.682188
-0.643448
-0.606247
-0.571069
-0.538125
-0.507447
-0.478957
-0.452525
-0.427995
-0.405207
-0.384007
-0.364251
-0.34581
-0.328567
-0.312402
-0.297183
-0.283004
-0.906874
-0.893753
-0.878801
-0.857826
-0.829627
-0.795441
-0.757223
-0.717001
-0.676516
-0.637039
-0.59937
-0.563929
-0.530869
-0.500175
-0.471737
-0.445401
-0.420995
-0.39835
-0.377303
-0.357707
-0.339428
-0.322348
-0.306338
-0.291257
-0.277272
-0.909046
-0.89588
-0.880226
-0.857886
-0.827945
-0.791967
-0.752153
-0.710663
-0.669263
-0.629187
-0.591169
-0.555565
-0.522471
-0.49183
-0.463502
-0.437311
-0.413072
-0.390607
-0.369748
-0.350341
-0.332253
-0.315363
-0.299531
-0.284611
-0.270846
-0.908934
-0.895759
-0.879401
-0.855706
-0.82408
-0.786417
-0.745153
-0.702554
-0.660394
-0.619858
-0.581612
-0.545946
-0.512902
-0.482384
-0.454224
-0.428229
-0.404203
-0.381958
-0.361321
-0.342137
-0.32427
-0.307597
-0.29197
-0.277235
-0.26372
-0.906421
-0.893272
-0.876218
-0.851194
-0.81796
-0.778739
-0.736182
-0.692642
-0.649881
-0.609026
-0.570673
-0.535045
-0.502135
-0.471811
-0.443881
-0.418135
-0.394368
-0.372385
-0.35201
-0.333084
-0.31547
-0.299045
-0.283648
-0.269127
-0.255892
-0.901405
-0.888317
-0.870583
-0.844272
-0.809526
-0.768891
-0.725212
-0.680904
-0.637704
-0.596672
-0.558331
-0.522843
-0.490152
-0.460094
-0.432456
-0.407014
-0.383555
-0.361879
-0.341805
-0.323175
-0.305849
-0.289702
-0.274566
-0.260287
-0.247362
-0.893796
-0.880807
-0.862417
-0.83488
-0.798736
-0.756847
-0.712224
-0.667326
-0.62385
-0.582784
-0.544575
-0.509327
-0.476941
-0.447222
-0.41994
-0.394859
-0.371758
-0.350434
-0.330705
-0.312408
-0.295406
-0.279572
-0.264727
-0.250719
-0.238137
-0.883525
-0.870672
-0.851661
-0.822974
-0.785563
-0.74259
-0.697212
-0.651906
-0.608317
-0.567356
-0.5294
-0.494492
-0.462496
-0.433191
-0.406329
-0.381667
-0.358977
-0.338053
-0.318712
-0.30079
-0.28415
-0.268663
-0.254139
-0.240435
-0.228226
-0.870537
-0.857859
-0.838271
-0.808525
-0.769995
-0.72612
-0.680179
-0.634648
-0.59111
-0.550394
-0.512807
-0.478341
-0.44682
-0.418003
-0.391627
-0.367442
-0.345217
-0.324743
-0.305835
-0.288329
-0.27209
-0.256986
-0.242817
-0.229449
-0.217645
-0.854798
-0.842336
-0.822224
-0.791524
-0.752034
-0.707449
-0.661141
-0.615569
-0.572242
-0.531909
-0.494809
-0.460881
-0.429922
-0.401667
-0.375845
-0.352198
-0.330491
-0.310517
-0.292088
-0.275042
-0.259244
-0.244559
-0.23078
-0.217781
-0.206413
-0.836292
-0.824087
-0.803515
-0.771979
-0.7317
-0.686602
-0.640126
-0.594694
-0.551737
-0.511922
-0.475422
-0.442132
-0.411818
-0.3842
-0.358998
-0.335949
-0.314818
-0.295394
-0.277492
-0.260949
-0.245633
-0.231405
-0.21805
-0.205455
-0.194553
-0.815024
-0.803116
-0.782157
-0.749915
-0.709027
-0.663618
-0.617171
-0.572059
-0.529627
-0.490461
-0.454672
-0.422115
-0.39253
-0.365624
-0.341109
-0.318719
-0.298219
-0.279398
-0.26207
-0.246076
-0.231283
-0.217552
-0.204657
-0.1925
-0.182095
-0.791015
-0.779449
-0.758181
-0.725374
-0.684063
-0.638546
-0.592325
-0.547708
-0.505952
-0.467563
-0.432594
-0.400863
-0.372089
-0.345968
-0.322206
-0.300536
-0.280723
-0.262556
-0.245853
-0.230453
-0.216225
-0.20303
-0.190634
-0.17895
-0.169072
-0.764309
-0.753129
-0.731639
-0.698415
-0.656872
-0.611452
-0.565649
-0.521697
-0.480761
-0.443271
-0.409227
-0.378413
-0.35053
-0.325265
-0.302322
-0.281433
-0.262363
-0.244903
-0.228872
-0.214112
-0.200494
-0.187875
-0.176015
-0.164842
-0.15552
-0.734968
-0.724217
-0.702599
-0.669112
-0.627531
-0.582408
-0.537212
-0.494089
-0.454112
-0.417638
-0.384618
-0.354808
-0.327894
-0.303555
-0.281495
-0.261446
-0.243174
-0.226474
-0.211164
-0.197091
-0.184126
-0.172127
-0.160843
-0.150219
-0.141482
-0.703071
-0.692795
-0.671146
-0.637556
-0.596131
-0.551503
-0.507093
-0.464955
-0.426069
-0.390723
-0.358822
-0.330098
-0.304227
-0.280882
-0.259767
-0.240616
-0.223197
-0.207307
-0.192768
-0.179429
-0.167163
-0.155825
-0.145161
-0.135126
-0.127001
-0.668718
-0.658962
-0.637384
-0.603853
-0.562775
-0.518833
-0.475382
-0.434377
-0.396706
-0.362591
-0.331899
-0.30434
-0.27958
-0.257293
-0.237182
-0.218984
-0.202471
-0.187443
-0.173724
-0.161166
-0.149645
-0.139014
-0.129014
-0.119611
-0.112127
-0.632025
-0.622833
-0.60143
-0.56812
-0.527578
-0.484506
-0.442179
-0.402444
-0.366103
-0.333316
-0.303914
-0.277591
-0.254008
-0.232838
-0.213787
-0.196596
-0.181039
-0.166922
-0.154072
-0.142343
-0.131614
-0.121737
-0.11245
-0.103725
-0.0969125
-0.593125
-0.584541
-0.56342
-0.530492
-0.490668
-0.448641
-0.407589
-0.369254
-0.334348
-0.302977
-0.27494
-0.24992
-0.227572
-0.207573
-0.189632
-0.173495
-0.158943
-0.145784
-0.133849
-0.122997
-0.11311
-0.104037
-0.0955156
-0.0875218
-0.0814158
-0.552168
-0.544234
-0.523501
-0.491112
-0.452181
-0.411364
-0.371731
-0.334911
-0.301537
-0.27166
-0.245055
-0.221394
-0.200334
-0.181552
-0.164766
-0.149728
-0.136224
-0.124066
-0.113092
-0.103164
-0.094167
-0.0859526
-0.0782568
-0.071057
-0.0656997
-0.509315
-0.502074
-0.481833
-0.450137
-0.412266
-0.372813
-0.334727
-0.29953
-0.267772
-0.239459
-0.214344
-0.192092
-0.172361
-0.154838
-0.139243
-0.125339
-0.112918
-0.101799
-0.0918271
-0.0828687
-0.0748125
-0.0675133
-0.0607127
-0.0543821
-0.0498174
-0.464746
-0.458236
-0.43859
-0.407735
-0.371079
-0.333131
-0.296711
-0.26323
-0.233163
-0.206474
-0.182897
-0.162095
-0.143728
-0.127491
-0.113116
-0.100371
-0.0890594
-0.0790091
-0.0700718
-0.062122
-0.0550538
-0.048729
-0.0429003
-0.0375231
-0.0337897
-0.418649
-0.412908
-0.393956
-0.364081
-0.328786
-0.292472
-0.257823
-0.22614
-0.197828
-0.172812
-0.150813
-0.131491
-0.114514
-0.0995832
-0.0864423
-0.0748709
-0.0646816
-0.0557142
-0.0478307
-0.0409157
-0.0348717
-0.0295721
-0.0247894
-0.0204562
-0.0176128
-0.371225
-0.366285
-0.348123
-0.319359
-0.285559
-0.250995
-0.21821
-0.188397
-0.161893
-0.138591
-0.118199
-0.100379
-0.0848047
-0.0711897
-0.0592871
-0.0488891
-0.0398209
-0.0319353
-0.0251093
-0.0192413
-0.0142443
-0.0100081
-0.00634675
-0.00320001
-0.00142401
-0.322682
-0.318576
-0.301292
-0.273762
-0.241578
-0.208867
-0.178026
-0.150142
-0.125491
-0.103933
-0.08517
-0.0688642
-0.0546988
-0.0423965
-0.0317226
-0.0224821
-0.0145145
-0.00769006
-0.00190694
0.00291415
0.00684489
0.00996423
0.0123482
0.0139564
0.0142571
-0.273239
-0.269993
-0.253671
-0.227487
-0.197027
-0.166258
-0.13743
-0.111525
-0.0887605
-0.0689716
-0.051851
-0.0370653
-0.0243051
-0.0133023
-0.00383252
0.00428837
0.0112077
0.017037
0.0218515
0.025701
0.0286324
0.030645
0.0315439
0.0310396
0.0293814
-0.22312
-0.220757
-0.205472
-0.180734
-0.152094
-0.123345
-0.0965859
-0.0727004
-0.0518493
-0.0338457
-0.0183769
-0.00511278
0.00624928
0.0159701
0.0242679
0.0313221
0.0372761
0.0422361
0.0462698
0.0494273
0.0517653
0.0531891
0.0530808
0.0508545
0.0481157
-0.172554
-0.171092
-0.156912
-0.13371
-0.106971
-0.080306
-0.055661
-0.0338248
-0.0149072
0.00129898
0.0151099
0.0268516
0.03682
0.0452699
0.0524157
0.0584367
0.0634813
0.0676677
0.0710907
0.0738627
0.0761479
0.0778993
0.078238
0.0766931
0.0801698
-0.121766
-0.121221
-0.108207
-0.0866173
-0.0618501
-0.0373197
-0.0148236
0.00494189
0.0219132
0.0363148
0.0484644
0.0586827
0.0672582
0.0744389
0.0804341
0.0854201
0.0895451
0.0929319
0.0956891
0.0979521
0.0998909
0.101469
0.102141
0.102314
0.107603
-0.0709884
-0.0713721
-0.0595757
-0.0396643
-0.0169229
0.00543427
0.0257585
0.0434408
0.0584601
0.0710552
0.0815432
0.0902383
0.0974209
0.103331
0.108173
0.112117
0.11531
0.117875
0.119924
0.121591
0.12302
0.124165
0.124617
0.124878
0.129544
-0.0204542
-0.0217722
-0.0112363
0.00694504
0.0276196
0.0477784
0.0659189
0.0815152
0.0945844
0.105377
0.114207
0.121381
0.127171
0.131807
0.135485
0.13837
0.140602
0.142302
0.143577
0.144553
0.145358
0.145951
0.145983
0.145889
0.14954
0.0296072
0.0273534
0.0365958
0.0530084
0.0715893
0.089538
0.105495
0.119012
0.130141
0.139141
0.146322
0.151983
0.156383
0.159744
0.162252
0.164064
0.165312
0.166108
0.166552
0.166758
0.166833
0.16673
0.166134
0.165467
0.168149
0.0789691
0.0757829
0.0837087
0.0983271
0.114802
0.130542
0.144326
0.155781
0.164989
0.172215
0.177764
0.181924
0.184943
0.187034
0.188371
0.189102
0.18935
0.189219
0.1888
0.188192
0.187487
0.186628
0.185326
0.18401
0.185747
0.127409
0.123298
0.129894
0.142707
0.157077
0.170624
0.18226
0.19168
0.198994
0.204472
0.208412
0.211091
0.212746
0.213578
0.213751
0.213402
0.212647
0.211578
0.210278
0.208835
0.207327
0.205685
0.203656
0.201673
0.202499
0.174709
0.169687
0.174951
0.185959
0.198241
0.209623
0.219145
0.226568
0.232026
0.235791
0.238153
0.239379
0.239694
0.239286
0.23831
0.236894
0.235142
0.233139
0.23096
0.228681
0.226367
0.223948
0.221197
0.218554
0.218501
0.220658
0.214743
0.218681
0.227901
0.238125
0.247383
0.254839
0.260314
0.263962
0.266057
0.266882
0.26669
0.265696
0.264076
0.261976
0.259512
0.256781
0.253859
0.250813
0.247711
0.244605
0.241427
0.237977
0.234691
0.23379
0.265052
0.258266
0.260896
0.268355
0.276566
0.283754
0.289203
0.292788
0.294683
0.29516
0.294495
0.292929
0.290665
0.287869
0.284676
0.281194
0.27751
0.273693
0.269803
0.265901
0.262028
0.258118
0.253998
0.250092
0.248374
0.307694
0.300065
0.301414
0.307155
0.313409
0.318594
0.322105
0.323869
0.324075
0.322995
0.320895
0.318006
0.314519
0.31059
0.306343
0.301878
0.297275
0.292596
0.287893
0.283219
0.278611
0.274002
0.269246
0.264744
0.262242
0.348397
0.339956
0.340061
0.344138
0.348505
0.351766
0.353419
0.353439
0.352031
0.349462
0.34599
0.341836
0.337179
0.332165
0.32691
0.321506
0.316023
0.310519
0.305039
0.299631
0.294322
0.289051
0.283695
0.278626
0.275371
0.386982
0.377766
0.376673
0.379151
0.381714
0.38314
0.383026
0.38139
0.378447
0.374466
0.369692
0.364336
0.358569
0.352526
0.346315
0.340018
0.333701
0.327415
0.321199
0.315095
0.309124
0.303232
0.297312
0.291706
0.287733
0.423281
0.41333
0.411095
0.412051
0.412902
0.412594
0.410813
0.407615
0.403228
0.397916
0.391916
0.38543
0.378618
0.371606
0.364493
0.357357
0.350256
0.343234
0.336327
0.32957
0.32298
0.316507
0.310061
0.303949
0.299297
0.457134
0.446495
0.44318
0.442703
0.441947
0.440013
0.436673
0.432017
0.426282
0.419727
0.412584
0.405043
0.397256
0.38934
0.381388
0.373469
0.365636
0.357929
0.350379
0.343014
0.335849
0.328838
0.321907
0.315322
0.310031
0.488395
0.477116
0.472793
0.470981
0.468732
0.465292
0.460509
0.454504
0.447523
0.439822
0.431622
0.423107
0.414419
0.405669
0.396941
0.388299
0.379792
0.371454
0.36331
0.355386
0.347691
0.340186
0.33281
0.325788
0.319901
0.516929
0.505063
0.499811
0.49677
0.493151
0.488332
0.482229
0.474993
0.466874
0.458125
0.448961
0.439557
0.430047
0.420535
0.4111
0.4018
0.392677
0.383763
0.375079
0.366646
0.35847
0.350516
0.342735
0.335313
0.328879
0.542612
0.530214
0.524119
0.519964
0.515107
0.509043
0.501751
0.493405
0.484262
0.47457
0.464539
0.454335
0.444085
0.433888
0.423816
0.413924
0.404248
0.394816
0.385647
0.376756
0.368147
0.359793
0.35165
0.343865
0.336935
0.565333
0.552463
0.545617
0.54047
0.534513
0.527346
0.519
0.509672
0.499622
0.489097
0.478298
0.467386
0.456483
0.44568
0.435045
0.424629
0.414464
0.404575
0.394977
0.385682
0.376692
0.367983
0.359521
0.351416
0.344043
0.584993
0.571713
0.564213
0.558204
0.551293
0.543169
0.53391
0.523732
0.512898
0.501651
0.490188
0.478664
0.467195
0.455868
0.444747
0.433877
0.42329
0.413006
0.403037
0.393393
0.384074
0.37506
0.366323
0.357938
0.350181
0.601509
0.587883
0.57983
0.573095
0.565379
0.55645
0.546424
0.535531
0.524039
0.512185
0.500165
0.488127
0.476183
0.464416
0.452886
0.441636
0.430694
0.420078
0.409799
0.399862
0.390266
0.380996
0.372029
0.36341
0.355327
0.614808
0.600904
0.592404
0.585081
0.576716
0.567138
0.556494
0.545026
0.533003
0.520662
0.508192
0.49574
0.483413
0.471293
0.459434
0.447878
0.436651
0.425768
0.415238
0.405065
0.395248
0.385772
0.37662
0.367811
0.359465
0.624834
0.610719
0.601881
0.594114
0.58526
0.575192
0.564082
0.55218
0.539756
0.527047
0.514239
0.501475
0.488861
0.476473
0.464367
0.45258
0.441138
0.430054
0.419336
0.408985
0.399
0.38937
0.380078
0.371126
0.36258
0.631543
0.617287
0.608222
0.600158
0.590975
0.580579
0.569157
0.556965
0.544274
0.531319
0.518285
0.505312
0.492504
0.479938
0.467666
0.455725
0.444139
0.43292
0.422076
0.411607
0.40151
0.391777
0.382391
0.373343
0.364664
0.634907
0.62058
0.611401
0.603188
0.59384
0.58328
0.571702
0.559364
0.546539
0.53346
0.520312
0.507235
0.494331
0.481675
0.46932
0.457302
0.445643
0.434357
0.42345
0.412922
0.402768
0.392983
0.383551
0.374454
0.365708
0.634911
0.620584
0.611405
0.603192
0.593844
0.583283
0.571705
0.559367
0.546541
0.533463
0.520315
0.507237
0.494333
0.481677
0.469322
0.457304
0.445645
0.434359
0.423452
0.412924
0.40277
0.392985
0.383553
0.374456
0.36571
0.631555
0.617299
0.608233
0.600169
0.590985
0.580589
0.569167
0.556974
0.544283
0.531327
0.518293
0.505319
0.492512
0.479945
0.467673
0.455732
0.444145
0.432927
0.422082
0.411613
0.401516
0.391783
0.382397
0.373349
0.36467
0.624853
0.610738
0.601899
0.594132
0.585277
0.575208
0.564097
0.552195
0.539771
0.527061
0.514253
0.501488
0.488873
0.476485
0.464379
0.452592
0.441149
0.430064
0.419346
0.408996
0.39901
0.38938
0.380088
0.371135
0.36259
0.614835
0.60093
0.59243
0.585106
0.57674
0.567161
0.556516
0.545047
0.533023
0.520681
0.508211
0.495758
0.483431
0.47131
0.459451
0.447894
0.436666
0.425783
0.415253
0.40508
0.395262
0.385786
0.376633
0.367824
0.359478
0.601543
0.587918
0.579864
0.573127
0.56541
0.55648
0.546452
0.535559
0.524065
0.512211
0.500189
0.48815
0.476205
0.464438
0.452908
0.441657
0.430714
0.420098
0.409818
0.39988
0.390284
0.381014
0.372046
0.363427
0.355343
0.585036
0.571755
0.564254
0.558244
0.551331
0.543205
0.533945
0.523765
0.51293
0.501682
0.490218
0.478692
0.467222
0.455895
0.444773
0.433902
0.423314
0.41303
0.40306
0.393416
0.384096
0.375081
0.366344
0.357959
0.350201
0.565383
0.552512
0.545665
0.540517
0.534558
0.527389
0.519041
0.509711
0.49966
0.489133
0.478333
0.46742
0.456515
0.445712
0.435076
0.424658
0.414493
0.404603
0.395005
0.385709
0.376718
0.368009
0.359547
0.351441
0.344067
0.54267
0.530271
0.524175
0.520018
0.515159
0.509093
0.501798
0.49345
0.484306
0.474612
0.46458
0.454374
0.444123
0.433925
0.423852
0.413958
0.404281
0.394849
0.385679
0.376787
0.368178
0.359822
0.351679
0.343894
0.336963
0.516995
0.505127
0.499874
0.49683
0.49321
0.488388
0.482283
0.475044
0.466923
0.458173
0.449007
0.439602
0.43009
0.420577
0.41114
0.401839
0.392715
0.3838
0.375115
0.366681
0.358504
0.35055
0.342768
0.335345
0.328911
0.488468
0.477188
0.472864
0.471049
0.468797
0.465355
0.460569
0.454562
0.447579
0.439875
0.431674
0.423157
0.414467
0.405715
0.396986
0.388343
0.379835
0.371495
0.363351
0.355426
0.34773
0.340224
0.332847
0.325824
0.319937
0.457215
0.446575
0.443258
0.442778
0.442019
0.440083
0.436739
0.432081
0.426343
0.419786
0.412641
0.405098
0.397309
0.389391
0.381437
0.373517
0.365683
0.357975
0.350424
0.343058
0.335892
0.328879
0.321947
0.315362
0.310069
0.423369
0.413418
0.41118
0.412134
0.412982
0.41267
0.410885
0.407685
0.403295
0.39798
0.391979
0.38549
0.378676
0.371662
0.364548
0.35741
0.350308
0.343284
0.336376
0.329618
0.323027
0.316553
0.310106
0.303993
0.29934
0.387078
0.377861
0.376766
0.379241
0.3818
0.383222
0.383105
0.381466
0.37852
0.374536
0.36976
0.364402
0.358633
0.352588
0.346374
0.340075
0.333757
0.327469
0.321253
0.315147
0.309175
0.303282
0.29736
0.291753
0.287779
0.348501
0.340059
0.340161
0.344234
0.348598
0.351855
0.353505
0.353522
0.35211
0.349538
0.346063
0.341906
0.337247
0.332232
0.326975
0.321568
0.316084
0.310578
0.305097
0.299687
0.294376
0.289105
0.283747
0.278677
0.275421
0.307805
0.300175
0.301521
0.307259
0.313509
0.31869
0.322197
0.323957
0.32416
0.323077
0.320974
0.318082
0.314592
0.310661
0.306412
0.301945
0.29734
0.292659
0.287955
0.28328
0.27867
0.274059
0.269302
0.2648
0.262295
0.265171
0.258383
0.26101
0.268466
0.276673
0.283857
0.289302
0.292882
0.294774
0.295248
0.294579
0.29301
0.290744
0.287945
0.28475
0.281265
0.277579
0.273761
0.26987
0.265965
0.262091
0.258179
0.254058
0.25015
0.248431
0.220784
0.214868
0.218803
0.228019
0.238239
0.247492
0.254944
0.260414
0.264059
0.26615
0.266971
0.266776
0.26578
0.264157
0.262054
0.259588
0.256855
0.253931
0.250883
0.247779
0.244672
0.241492
0.238041
0.234754
0.233851
0.174843
0.16982
0.17508
0.186084
0.198362
0.209739
0.219256
0.226675
0.232129
0.23589
0.238249
0.239471
0.239783
0.239372
0.238394
0.236975
0.235221
0.233216
0.231034
0.228754
0.226438
0.224017
0.221265
0.21862
0.218565
0.12755
0.123438
0.130031
0.142839
0.157205
0.170746
0.182377
0.191793
0.199102
0.204576
0.208512
0.211188
0.21284
0.213669
0.213839
0.213488
0.21273
0.211659
0.210357
0.208912
0.207402
0.205759
0.203727
0.201743
0.202567
0.0791181
0.0759305
0.0838529
0.0984666
0.114936
0.130671
0.14445
0.1559
0.165103
0.172325
0.17787
0.182026
0.185043
0.18713
0.188464
0.189192
0.189438
0.189304
0.188883
0.188273
0.187567
0.186705
0.185402
0.184084
0.185819
0.0297638
0.0275085
0.0367474
0.0531551
0.0717305
0.0896737
0.105625
0.119137
0.130261
0.139257
0.146434
0.152091
0.156488
0.159846
0.16235
0.164159
0.165404
0.166198
0.16664
0.166843
0.166916
0.166811
0.166213
0.165544
0.168224
-0.0202902
-0.0216098
-0.0110774
0.00709886
0.0277678
0.0479208
0.0660557
0.0816466
0.0947107
0.105498
0.114324
0.121495
0.12728
0.131913
0.135588
0.13847
0.1407
0.142396
0.143669
0.144643
0.145446
0.146036
0.146067
0.145971
0.14962
-0.0708169
-0.0712022
-0.0594095
-0.0395033
-0.0167678
0.0055833