/*--------------------------------*- C++ -*----------------------------------*\
  =========                 |
  \\      /  F ield         | OpenFOAM: The Open Source CFD Toolbox
   \\    /   O peration     | Website:  https://openfoam.org
    \\  /    A nd           | Version:  6.0
     \\/     M anipulation  |
\*---------------------------------------------------------------------------*/
FoamFile
{
    version     2.0;
    format      ascii;
    class       surfaceScalarField;
    location    "1";
    object      phi;
}
// * * * * * * * * * * * * * * * * * * * * * * * * * * * * * * * * * * * * * //

dimensions      [0 3 -1 0 0 0 0];

internalField   nonuniform List<scalar> 
24700
(
-1.71169e-05
1.71783e-05
-6.14241e-08
-5.45547e-05
3.75605e-05
-1.22741e-07
-0.00010257
4.81578e-05
-1.42682e-07
-0.000154219
5.17832e-05
-1.3427e-07
-0.000204546
5.04337e-05
-1.06436e-07
-0.000250014
4.55329e-05
-6.50712e-08
-0.000288084
3.80848e-05
-1.41863e-08
-0.000316935
2.88068e-05
4.32377e-08
-0.000335271
1.82317e-05
1.04691e-07
-0.000342214
6.775e-06
1.67861e-07
-0.000337221
-5.22323e-06
2.30543e-07
-0.000320037
-1.74745e-05
2.90672e-07
-0.000290654
-2.973e-05
3.46382e-07
-0.000249275
-4.17752e-05
3.96073e-07
-0.000196285
-5.34281e-05
4.38463e-07
-0.00013222
-6.4538e-05
4.72632e-07
-5.77322e-05
-7.49855e-05
4.98063e-07
2.64338e-05
-8.46807e-05
5.1465e-07
0.000119471
-9.35596e-05
5.22655e-07
0.000220525
-0.000101577
5.22684e-07
0.000328702
-0.000108693
5.15673e-07
0.000443043
-0.000114844
5.02816e-07
0.000562446
-0.000119888
4.85554e-07
0.000685473
-0.000123492
4.64951e-07
-0.000124887
4.41199e-07
0.000809919
-1.67718e-05
3.39502e-05
-5.35182e-05
7.43069e-05
-0.000100687
9.53266e-05
-0.000151436
0.000102532
-0.00020086
9.98577e-05
-0.000245444
9.01167e-05
-0.000282658
7.52992e-05
-0.000310682
5.68311e-05
-0.000328224
3.57732e-05
-0.000334403
1.29537e-05
-0.000328678
-1.09481e-05
-0.000310796
-3.5356e-05
-0.000280754
-5.97725e-05
-0.000238761
-8.37678e-05
-0.000185213
-0.000106977
-0.000120654
-0.000129097
-4.5752e-05
-0.000149887
3.8735e-05
-0.000169168
0.000131984
-0.000186809
0.000233128
-0.000202721
0.000341262
-0.000216827
0.000455424
-0.000229005
0.000574522
-0.000238987
0.000697151
-0.000246121
-0.000248896
0.000821161
-1.60941e-05
5.00442e-05
-5.14789e-05
0.000109692
-9.69766e-05
0.000140824
-0.000145945
0.000151501
-0.00019358
0.000147492
-0.000236411
0.000132948
-0.000271927
0.000110816
-0.000298315
8.32188e-05
-0.000314282
5.17405e-05
-0.000318951
1.76221e-05
-0.000311782
-1.8117e-05
-0.000292528
-5.46098e-05
-0.000261194
-9.11062e-05
-0.000218005
-0.000126958
-0.00016337
-0.000161611
-9.78581e-05
-0.000194609
-2.21604e-05
-0.000225585
6.29376e-05
-0.000254266
0.000156585
-0.000280456
0.000257887
-0.000304024
0.000365921
-0.00032486
0.00047972
-0.000342804
0.000598213
-0.00035748
0.000720057
-0.000367965
-0.000372046
0.000843206
-1.51093e-05
6.51535e-05
-4.85049e-05
0.000143087
-9.15515e-05
0.000183871
-0.0001379
0.000197849
-0.000182895
0.000192487
-0.000223137
0.000173189
-0.000256143
0.000143823
-0.000280112
0.000107187
-0.000293754
6.53828e-05
-0.000296195
2.00631e-05
-0.000286901
-2.74105e-05
-0.000265635
-7.58762e-05
-0.000232414
-0.000124327
-0.000187483
-0.000171889
-0.000131277
-0.000217817
-6.43941e-05
-0.000261491
1.24394e-05
-0.000302419
9.84004e-05
-0.000340227
0.0001926
-0.000374655
0.000294108
-0.000405533
0.000401977
-0.000432729
0.000515232
-0.000456059
0.000632834
-0.000475083
0.000753525
-0.000488655
-0.000493933
0.000875412
-1.38539e-05
7.90075e-05
-4.46946e-05
0.000173928
-8.4575e-05
0.000223751
-0.000127524
0.000240798
-0.000169081
0.000234045
-0.000205943
0.000210051
-0.000235669
0.000173549
-0.000256474
0.000127992
-0.000267079
7.59877e-05
-0.000266615
1.95991e-05
-0.000254558
-3.94675e-05
-0.000230683
-9.97512e-05
-0.000195028
-0.000159982
-0.000147862
-0.000219055
-8.96524e-05
-0.000276026
-2.10356e-05
-0.000330108
5.72205e-05
-0.000380675
0.000144248
-0.000427254
0.000239113
-0.000469521
0.000340848
-0.000507267
0.000448472
-0.000540353
0.000561007
-0.000568595
0.00067745
-0.000591526
0.000796645
-0.000607849
-0.000614183
0.000916894
-1.23737e-05
9.13812e-05
-4.01722e-05
0.000201727
-7.62545e-05
0.000259834
-0.0001151
0.000279644
-0.000152491
0.000271436
-0.000185241
0.000242802
-0.00021097
0.000199277
-0.000227918
0.000144939
-0.00023482
8.28903e-05
-0.000230821
1.55996e-05
-0.000215409
-5.48789e-05
-0.00018838
-0.000126781
-0.000149795
-0.000198567
-9.99557e-05
-0.000268894
-3.93687e-05
-0.000336613
3.12876e-05
-0.000400765
0.000111197
-0.000460585
0.000199444
-0.000515501
0.000295047
-0.000565124
0.000396996
-0.000609216
0.000504283
-0.00064764
0.000615925
-0.000680237
0.000730958
-0.000706559
0.000848343
-0.000725234
-0.000732447
0.000966608
-1.07213e-05
0.000102102
-3.50823e-05
0.000226088
-6.68337e-05
0.000291585
-0.000100966
0.000313776
-0.000133542
0.000304011
-0.000161522
0.000270782
-0.0001826
0.000220355
-0.000195053
0.000157393
-0.000197641
8.54788e-05
-0.000189527
7.48518e-06
-0.00017022
-7.41856e-05
-0.000139541
-0.000157461
-9.75828e-05
-0.000240524
-4.46856e-05
-0.000321792
1.86003e-05
-0.000399899
9.15479e-05
-0.000473712
0.00017329
-0.000542327
0.000262861
-0.000605072
0.000359233
-0.000661496
0.000461357
-0.000711339
0.000568199
-0.000754482
0.000678775
-0.000790813
0.000792164
-0.000819947
0.00090745
-0.00084052
-0.000848407
0.00102341
-8.9533e-06
0.000111056
-2.95829e-05
0.000246717
-5.65818e-05
0.000318584
-8.54956e-05
0.00034269
-0.000112702
0.000331218
-0.000135336
0.000293416
-0.00015118
0.000236199
-0.000158566
0.000164779
-0.000156286
8.3199e-05
-0.000143531
-5.27081e-06
-0.000119838
-9.78783e-05
-8.5061e-05
-0.000192237
-3.9334e-05
-0.000286251
1.69587e-05
-0.000378084
8.32166e-05
-0.000466157
0.000158659
-0.000549155
0.000242367
-0.000626035
0.000333324
-0.000696029
0.000430459
-0.00075863
0.000532688
-0.000813569
0.000638961
-0.000860754
0.000748296
-0.000900148
0.000859819
-0.00093147
0.000972737
-0.000953439
-0.000961762
0.00108609
-7.12787e-06
0.000118184
-2.38387e-05
0.000263428
-4.57826e-05
0.000340528
-6.90875e-05
0.000365995
-9.04749e-05
0.000352605
-0.000107275
0.000310216
-0.000117383
0.000246307
-0.000119197
0.000166593
-0.000111555
7.55567e-05
-9.36846e-05
-2.31413e-05
-6.5164e-05
-0.000126399
-2.58886e-05
-0.000231513
2.39594e-05
-0.000336099
8.39421e-05
-0.000438067
0.000153402
-0.000535617
0.000231501
-0.000627254
0.000317265
-0.000711799
0.000409628
-0.000788393
0.000507483
-0.000856485
0.000609721
-0.000915807
0.000715279
-0.000966313
0.000823192
-0.00100806
0.00093263
-0.00104091
0.00104293
-0.00106374
-0.00107223
0.0011534
-5.30149e-06
0.000123485
-1.80133e-05
0.00027614
-3.47225e-05
0.000357237
-5.21482e-05
0.00038342
-6.73757e-05
0.000367833
-7.7953e-05
0.000320793
-8.19063e-05
0.000250261
-7.77159e-05
0.000162402
-6.42795e-05
6.21203e-05
-4.0876e-05
-4.65447e-05
-7.13404e-06
-0.000160141
3.69971e-05
-0.000275644
9.12761e-05
-0.000390378
0.000155202
-0.000501993
0.000228053
-0.000608467
0.000308927
-0.000708128
0.000396796
-0.000799667
0.000490547
-0.000882144
0.000589041
-0.000954979
0.000691155
-0.00101792
0.00079583
-0.00107099
0.000902121
-0.00111435
0.00100926
-0.00114804
0.00111669
-0.00117117
-0.00117954
0.001224
-3.52644e-06
0.000127012
-1.22616e-05
0.000284875
-2.36775e-05
0.000368653
-3.50754e-05
0.000394818
-4.39153e-05
0.000376673
-4.79807e-05
0.000324859
-4.54472e-05
0.000247727
-3.48951e-05
0.00015185
-1.52973e-05
4.25225e-05
1.40019e-05
-7.58439e-05
5.33095e-05
-0.000199449
0.000102609
-0.000324943
0.000161586
-0.000449356
0.000229666
-0.000570073
0.000306053
-0.000684854
0.000389778
-0.000791854
0.000479755
-0.000889643
0.000574829
-0.000977219
0.000673839
-0.00105399
0.000775658
-0.00111974
0.000879246
-0.00117458
0.000983697
-0.0012188
0.0010883
-0.00125265
0.00119263
-0.00127549
-0.00128344
0.00129653
-1.84832e-06
0.00012886
-6.72308e-06
0.00028975
-1.29014e-05
0.000374831
-1.82409e-05
0.000400158
-2.05772e-05
0.000379009
-1.79425e-05
0.000322224
-8.67883e-06
0.000238463
8.51597e-06
0.000134655
3.45768e-05
1.64617e-05
7.00773e-05
-0.000111344
0.000115244
-0.000244615
0.000169975
-0.000379675
0.000233871
-0.000513252
0.000306269
-0.000642471
0.000386289
-0.000764874
0.000472889
-0.000878454
0.000564924
-0.000981678
0.000661205
-0.0010735
0.000760557
-0.00115334
0.000861866
-0.00122105
0.000964129
-0.00127684
0.00106649
-0.00132117
0.00116833
-0.00135448
0.00126931
-0.00137648
-0.00138367
0.00136954
-3.04205e-07
0.000129164
-1.51551e-06
0.000290961
-2.61475e-06
0.00037593
-1.97427e-06
0.000399517
2.20318e-06
0.000374832
1.16287e-05
0.000312798
2.77794e-05
0.000222313
5.18223e-05
0.000110613
8.45817e-05
-1.62978e-05
0.00012653
-0.000153293
0.000177795
-0.000295879
0.000238171
-0.000440051
0.000307153
-0.000582235
0.000383977
-0.000719295
0.000467669
-0.000848565
0.000557107
-0.000967892
0.00065109
-0.00107566
0.000748401
-0.00117081
0.000847865
-0.0012528
0.0009484
-0.00132158
0.00104906
-0.0013775
0.00114906
-0.00142117
0.00124786
-0.00145328
0.00134527
-0.00147388
-0.00148001
0.0014416
1.07882e-06
0.000128085
3.26981e-06
0.00028877
7.00515e-06
0.000372195
1.34517e-05
0.000393071
2.40575e-05
0.000364226
4.0275e-05
0.000296581
6.3388e-05
0.0001992
9.44117e-05
7.95889e-05
0.00013404
-5.59261e-05
0.000182624
-0.000201877
0.000240166
-0.000353422
0.000306341
-0.000506225
0.000380516
-0.000656411
0.000461809
-0.000800588
0.000549141
-0.000935897
0.000641309
-0.00106006
0.00073706
-0.00117141
0.000835157
-0.00126891
0.000934444
-0.00135209
0.00103389
-0.00142103
0.00113262
-0.00147623
0.00122995
-0.00151851
0.00132546
-0.00154879
0.00141905
-0.00156747
-0.00157223
0.00151127
2.28438e-06
0.000125801
7.57136e-06
0.000283483
1.5831e-05
0.000363935
2.78327e-05
0.000381069
4.4701e-05
0.000347358
6.76334e-05
0.000273648
9.77111e-05
0.000169122
0.000135781
4.15193e-05
0.000182385
-0.00010253
0.000237729
-0.00025722
0.000301669
-0.000417362
0.000373728
-0.000578284
0.000453131
-0.000735814
0.000538859
-0.000886316
0.000629719
-0.00102676
0.000724428
-0.00115477
0.000821684
-0.00126867
0.00092025
-0.00136747
0.00101901
-0.00145085
0.00111699
-0.00151901
0.00121344
-0.00157267
0.00130778
-0.00161285
0.0013997
-0.00164071
0.00148925
-0.00165702
-0.00166013
0.00157716
3.30689e-06
0.000122494
1.13588e-05
0.000275431
2.37897e-05
0.000351505
4.10403e-05
0.000363819
6.39439e-05
0.000324454
9.34511e-05
0.000244141
0.000130434
0.000132139
0.000175554
-3.60098e-06
0.000229181
-0.000156157
0.000291347
-0.000319386
0.000361733
-0.000487748
0.000439689
-0.00065624
0.00052427
-0.000820395
0.000614308
-0.000976354
0.000708492
-0.00112094
0.000805458
-0.00125173
0.000903873
-0.00136708
0.00100251
-0.00146612
0.00110032
-0.00154865
0.00119643
-0.00161513
0.00129021
-0.00166644
0.00138121
-0.00170386
0.00146928
-0.00172878
0.00155457
-0.00174231
-0.00174355
0.00163799
4.15104e-06
0.000118343
1.46327e-05
0.000264949
3.08632e-05
0.000335274
5.30253e-05
0.000341656
8.16969e-05
0.000295782
0.000117593
0.000208245
0.000161373
8.83593e-05
0.000213496
-5.57241e-05
0.000274134
-0.000216795
0.000343118
-0.00038837
0.000419925
-0.000564556
0.000503701
-0.000740016
0.000593315
-0.000910008
0.000687435
-0.00107047
0.000784632
-0.00121814
0.00088347
-0.00135057
0.000982605
-0.00146622
0.00108085
-0.00156436
0.00117724
-0.00164504
0.00127103
-0.00170892
0.00136172
-0.00175714
0.00144906
-0.00179119
0.001533
-0.00181272
0.00161385
-0.00182316
-0.00182235
0.00169265
4.83068e-06
0.000113512
1.74217e-05
0.000252358
3.70856e-05
0.00031561
6.38149e-05
0.000314927
9.79692e-05
0.000261628
0.000140043
0.000166171
0.000190475
3.79269e-05
0.000249508
-0.000114757
0.000317089
-0.000284376
0.000392817
-0.000464097
0.000475933
-0.000647672
0.000565356
-0.000829438
0.000659745
-0.0010044
0.000757604
-0.00116833
0.000857388
-0.00131792
0.000957612
-0.00145079
0.00105694
-0.00156555
0.00115426
-0.00166168
0.00124871
-0.00173949
0.0013397
-0.00179991
0.00142691
-0.00184435
0.00151025
-0.00187453
0.00158983
-0.0018923
0.00166608
-0.00189942
-0.00189643
0.00174017
5.36718e-06
0.000108145
1.97791e-05
0.000237946
4.25368e-05
0.000292852
7.35048e-05
0.000283959
0.00011286
0.000222273
0.000160888
0.000118143
0.000217806
-1.89905e-05
0.000283616
-0.000180568
0.000358015
-0.000358775
0.000440336
-0.000546419
0.000529555
-0.000736891
0.000624336
-0.000924219
0.000723123
-0.00110318
0.000824253
-0.00126946
0.000926083
-0.00141975
0.0010271
-0.00155181
0.00112601
-0.00166446
0.00122181
-0.00175748
0.00131378
-0.00183146
0.00140151
-0.00188764
0.00148485
-0.00192769
0.00156389
-0.00195356
0.00163891
-0.00196733
0.00171047
-0.00197098
-0.00196576
0.0017798
5.78748e-06
0.000102358
2.17767e-05
0.000221957
4.73333e-05
0.000267296
8.22466e-05
0.000249046
0.000126542
0.000177978
0.000180307
6.43776e-05
0.000243527
-8.22103e-05
0.000315946
-0.000252987
0.000396977
-0.000439805
0.000485655
-0.000635097
0.000580662
-0.000831898
0.000680392
-0.00102395
0.000783067
-0.00120586
0.000886873
-0.00137327
0.000990092
-0.00152297
0.00109122
-0.00165294
0.00118905
-0.00176229
0.0012827
-0.00185113
0.00137163
-0.0019204
0.00145564
-0.00197165
0.00153477
-0.00200682
0.00160927
-0.00202807
0.00167961
-0.00203766
0.00174642
-0.0020378
-0.00203034
0.00181101
6.12189e-06
9.62357e-05
2.3499e-05
0.00020458
5.1617e-05
0.000239178
9.02315e-05
0.000210431
0.00013924
0.000128969
0.000198538
5.07987e-06
0.000267867
-0.000151539
0.000346687
-0.000331808
0.000434095
-0.000527213
0.0005288
-0.000729801
0.000629163
-0.000932261
0.0007333
-0.00112809
0.000839222
-0.00131178
0.000944985
-0.00147903
0.00104883
-0.00162682
0.00114932
-0.00175342
0.00124534
-0.00185831
0.00133621
-0.001942
0.00142159
-0.00200578
0.00150147
-0.00205152
0.00157609
-0.00208144
0.0016459
-0.00209788
0.00171147
-0.00210323
0.00177356
-0.00209988
-0.00209024
0.00183346
6.4019e-06
8.98338e-05
2.5036e-05
0.000185946
5.55427e-05
0.000208671
9.76715e-05
0.000168303
0.000151207
7.54334e-05
0.000215851
-5.95635e-05
0.000291084
-0.000226772
0.000376054
-0.000416778
0.00046951
-0.000620669
0.000569804
-0.000830096
0.000674967
-0.00103742
0.000782838
-0.00123596
0.000891238
-0.00142018
0.000998131
-0.00158593
0.00110177
-0.00173046
0.00120081
-0.00185246
0.00129431
-0.00195182
0.00138179
-0.00202947
0.00146312
-0.00208711
0.00153852
-0.00212693
0.00160844
-0.00215135
0.00167346
-0.0021629
0.00173429
-0.00216407
0.00179175
-0.00215734
-0.00214556
0.00184706
6.65803e-06
8.31758e-05
2.64767e-05
0.000166127
5.92651e-05
0.000175883
0.00010478
0.000122787
0.000162698
1.75157e-05
0.000232515
-0.00012938
0.000313429
-0.000307686
0.000404244
-0.000507594
0.000503333
-0.000719757
0.000608669
-0.000935432
0.000717949
-0.0011467
0.000828755
-0.00134676
0.000938751
-0.00153018
0.00104586
-0.00169304
0.00114841
-0.00183301
0.00124518
-0.00194923
0.00133546
-0.00204209
0.00141898
-0.00211299
0.00149586
-0.002164
0.00156652
-0.00219759
0.00163159
-0.00221642
0.00169181
-0.00222312
0.00174799
-0.00222025
0.00180096
-0.00221031
-0.00219647
0.00185188
6.91802e-06
7.62578e-05
2.79033e-05
0.000145142
6.2928e-05
0.000140858
0.000111756
7.39594e-05
0.000173945
-4.46737e-05
0.000248769
-0.000204204
0.000335114
-0.000394031
0.000431408
-0.000603888
0.000535619
-0.000823969
0.000645336
-0.00104515
0.000757931
-0.0012593
0.00087076
-0.00145959
0.000981387
-0.0016408
0.00108775
-0.0017994
0.0011883
-0.00193355
0.00128202
-0.00204295
0.00136843
-0.0021285
0.00144752
-0.00219208
0.00151964
-0.00223612
0.00158542
-0.00226337
0.00164562
-0.00227662
0.00170109
-0.00227859
0.00175269
-0.00227185
0.00180126
-0.00225888
-0.00224315
0.00184794
7.20546e-06
6.90523e-05
2.93861e-05
0.000122961
6.66544e-05
0.00010359
0.000118765
2.18486e-05
0.00018514
-0.000111048
0.000264799
-0.000283864
0.000356284
-0.000485516
0.000457618
-0.000705221
0.000566345
-0.000932696
0.000679671
-0.00115848
0.000794671
-0.0013743
0.000908529
-0.00157345
0.00101877
-0.00175104
0.00112341
-0.00190404
0.00122108
-0.00203122
0.00131101
-0.00213288
0.00139299
-0.00221049
0.00146727
-0.00226637
0.00153445
-0.0023033
0.00159534
-0.00232425
0.00165086
-0.00233213
0.00170192
-0.00232965
0.00174929
-0.00231922
0.00179334
-0.00230293
-0.00228434
0.00183453
7.538e-06
6.15143e-05
3.09796e-05
9.95199e-05
7.05396e-05
6.40298e-05
0.000125935
-3.35468e-05
0.000196418
-0.000181532
0.000280723
-0.000368168
0.000377009
-0.000581802
0.000482863
-0.000811076
0.000595404
-0.00104524
0.000711472
-0.00127454
0.000827889
-0.00149071
0.000941728
-0.00168729
0.00105054
-0.00185985
0.00115251
-0.00200601
0.00124648
-0.0021252
0.00133197
-0.00221837
0.00140906
-0.00228757
0.00147825
-0.00233556
0.00154037
-0.00236542
0.0015964
-0.00238029
0.00164743
-0.00238316
0.00169453
-0.00237676
0.00173878
-0.00236347
0.00178152
-0.00234566
-0.0023271
0.00182428
7.92992e-06
5.35844e-05
3.2724e-05
7.47258e-05
7.46489e-05
2.21049e-05
0.000133343
-9.22409e-05
0.000207849
-0.000256038
0.000296571
-0.000456891
0.000397252
-0.000682482
0.000507025
-0.00092085
0.000622587
-0.0011608
0.000740449
-0.0013924
0.000857241
-0.00160751
0.00097
-0.00180005
0.00107639
-0.00196624
0.00117479
-0.00210441
0.00126435
-0.00221475
0.00134487
-0.00229889
0.00141671
-0.00235941
0.00148062
-0.00239947
0.0015376
-0.00242239
0.00158876
-0.00243145
0.00163524
-0.00242964
0.00167813
-0.00241965
0.00171847
-0.00240381
0.00175721
-0.0023844
-0.00236451
0.00179462
8.38767e-06
4.51967e-05
3.46397e-05
4.84737e-05
7.90143e-05
-2.22697e-05
0.00014102
-0.000154247
0.000219441
-0.000334459
0.000312307
-0.000549756
0.000416909
-0.000787084
0.000529922
-0.00103386
0.00064764
-0.00127852
0.000766298
-0.00151106
0.000882409
-0.00172362
0.000993057
-0.0019107
0.00109608
-0.00206926
0.00119014
-0.00219847
0.00127469
-0.0022993
0.00134985
-0.00237404
0.00141622
-0.00242579
0.00147479
-0.00245804
0.00152669
-0.00247429
0.00157312
-0.00247788
0.00161523
-0.00247176
0.00165408
-0.0024585
0.00169055
-0.00244029
0.0017253
-0.00241915
-0.00239761
0.00175839
8.91372e-06
3.6283e-05
3.67327e-05
2.06548e-05
8.36387e-05
-6.91758e-05
0.000148952
-0.00021956
0.000231143
-0.00041665
0.000327821
-0.000646434
0.000435802
-0.000895065
0.000551304
-0.00114936
0.00067026
-0.00139747
0.000788697
-0.0016295
0.000903095
-0.00183802
0.00101067
-0.00201827
0.0011095
-0.0021681
0.00119858
-0.00228755
0.00127767
-0.0023784
0.0013472
-0.00244357
0.00140804
-0.00248663
0.00146132
-0.00251132
0.0015083
-0.00252127
0.00155022
-0.0025198
0.00158824
-0.00250978
0.00162337
-0.00249362
0.00165642
-0.00247334
0.00168798
-0.00245071
-0.00242789
0.00171826
9.50618e-06
2.67768e-05
3.89947e-05
-8.83368e-06
8.84983e-05
-0.000118679
0.000157085
-0.000288147
0.000242852
-0.000502417
0.000342948
-0.00074653
0.000453698
-0.00100581
0.000570884
-0.00126655
0.000690133
-0.00151672
0.000807345
-0.00174671
0.000919056
-0.00194973
0.00102269
-0.0021219
0.00111664
-0.00226205
0.00120023
-0.00237114
0.00127357
-0.00245174
0.00133737
-0.00250737
0.00139271
-0.00254197
0.00144087
-0.00255948
0.00148318
-0.00256358
0.0015209
-0.00255752
0.00155516
-0.00254404
0.00158691
-0.00252538
0.00161692
-0.00250335
0.00164572
-0.00247951
-0.00245566
0.00167349
1.01597e-05
1.66171e-05
4.14062e-05
-4.00802e-05
9.35476e-05
-0.000170821
0.000165331
-0.00035993
0.000254426
-0.000591513
0.000357483
-0.000849586
0.000470334
-0.00111867
0.000588361
-0.00138458
0.000706958
-0.00163532
0.000821984
-0.00186174
0.000930123
-0.00205787
0.00102908
-0.00222086
0.00111759
-0.00235056
0.00119536
-0.0024489
0.0012628
-0.00251919
0.00132089
-0.00256546
0.00137088
-0.00259196
0.00141415
-0.00260275
0.00145209
-0.00260151
0.00148593
-0.00259137
0.00151677
-0.00257488
0.00154551
-0.00255411
0.00157284
-0.00253067
0.00159924
-0.00250592
-0.00248132
0.0016249
1.08664e-05
5.7507e-06
4.39389e-05
-7.31527e-05
9.87243e-05
-0.000225606
0.000173581
-0.000434786
0.000265696
-0.000683629
0.000371197
-0.000955087
0.000485435
-0.0012329
0.000603446
-0.00150259
0.00072047
-0.00175234
0.000832425
-0.00197369
0.000936219
-0.00216166
0.0010299
-0.00231453
0.00111258
-0.00243325
0.00118432
-0.00252064
0.00124585
-0.00258072
0.00129835
-0.00261796
0.00134322
-0.00263683
0.00138191
-0.00264144
0.0014158
-0.0026354
0.0014461
-0.00262166
0.00147384
-0.00260262
0.00149985
-0.00258013
0.00152478
-0.0025556
0.00154904
-0.00253018
-0.00250506
0.00157278
1.16165e-05
-5.86584e-06
4.65583e-05
-0.000108094
0.000103954
-0.000283002
0.000181708
-0.000512539
0.000276478
-0.000778399
0.000383853
-0.00106246
0.000498734
-0.00134778
0.000615877
-0.00161973
0.000730462
-0.00186693
0.000838551
-0.00208178
0.000937356
-0.00226047
0.0010253
-0.00240248
0.00110191
-0.00250985
0.00116757
-0.0025863
0.00122328
-0.00263644
0.00127041
-0.00266509
0.00131045
-0.00267687
0.00134487
-0.00267587
0.00137504
-0.00266556
0.0014021
-0.00264873
0.00142704
-0.00262755
0.00145059
-0.00260368
0.00147333
-0.00257834
0.00149564
-0.00255249
-0.00252705
0.00151764
1.23993e-05
-1.82651e-05
4.92258e-05
-0.000144921
0.000109157
-0.000342933
0.000189578
-0.00059296
0.000286582
-0.000875404
0.00039522
-0.0011711
0.000509987
-0.00146255
0.00062544
-0.00173519
0.00073679
-0.00197828
0.00084033
-0.00218532
0.000933635
-0.00235377
0.00101554
-0.00248438
0.00108595
-0.00258026
0.00114559
-0.00264594
0.00119567
-0.00268652
0.00123771
-0.00270712
0.00127323
-0.0027124
0.00130373
-0.00270637
0.00133049
-0.00269232
0.00135462
-0.00267286
0.001377
-0.00264993
0.00139831
-0.00262499
0.00141904
-0.00259908
0.00143954
-0.00257298
-0.0025474
0.00145989
1.32032e-05
-3.14683e-05
5.19004e-05
-0.000183618
0.000114247
-0.00040528
0.000197055
-0.000675768
0.000295825
-0.000974173
0.000405087
-0.00128036
0.000518988
-0.00157645
0.000631973
-0.00184817
0.000739378
-0.00208568
0.000837804
-0.00228375
0.000925233
-0.0024412
0.00100092
-0.00256007
0.00106514
-0.00264449
0.00111891
-0.0026997
0.00116362
-0.00273124
0.00120087
-0.00274437
0.00123223
-0.00274375
0.00125913
-0.00273326
0.00128279
-0.00271599
0.00130425
-0.00269431
0.00132429
-0.00266997
0.00134353
-0.00264423
0.0013624
-0.00261795
0.00138118
-0.00259177
-0.00256617
0.00139996
1.40165e-05
-4.54848e-05
5.45406e-05
-0.000224142
0.00011914
-0.00046988
0.000204006
-0.000760634
0.000304034
-0.0010742
0.000413264
-0.00138959
0.000525568
-0.00168876
0.000635371
-0.00195797
0.00073822
-0.00218853
0.000831086
-0.00237661
0.000912388
-0.0025225
0.000981796
-0.00262948
0.00103994
-0.00270263
0.00108805
-0.00274781
0.0011277
-0.00277088
0.0011605
-0.00277718
0.00118803
-0.00277128
0.00121164
-0.00275687
0.00123249
-0.00273684
0.00125151
-0.00271333
0.00126941
-0.00268787
0.00128672
-0.00266154
0.00130384
-0.00263506
0.00132099
-0.00260892
-0.00258343
0.00133824
1.48273e-05
-6.03121e-05
5.71048e-05
-0.00026642
0.000123754
-0.000536529
0.000210306
-0.000847187
0.000311054
-0.00117495
0.000419596
-0.00149813
0.000529608
-0.00179877
0.000635586
-0.00206395
0.00073337
-0.00228632
0.000820348
-0.00246359
0.000895385
-0.00259754
0.000958555
-0.00269265
0.00101079
-0.00275487
0.00105353
-0.00279056
0.00108844
-0.00280578
0.00111714
-0.00280589
0.00114116
-0.00279529
0.00116178
-0.0027775
0.00118007
-0.00275513
0.00119686
-0.00273012
0.00121278
-0.00270379
0.0012283
-0.00267706
0.00124374
-0.00265051
0.00125932
-0.00262449
-0.00259918
0.00127508
1.56242e-05
-7.59363e-05
5.9553e-05
-0.000310349
0.000128009
-0.000604985
0.000215842
-0.000935019
0.000316753
-0.00127586
0.000423961
-0.00160534
0.000531032
-0.00190584
0.000632626
-0.00216555
0.000724936
-0.00237863
0.000805803
-0.00254446
0.000874539
-0.00266627
0.000931592
-0.0027497
0.00097816
-0.00280143
0.00101584
-0.00282823
0.00104633
-0.00283627
0.00107126
-0.00283082
0.00109208
-0.00281611
0.00110998
-0.0027954
0.00112593
-0.00277108
0.00114067
-0.00274485
0.00115475
-0.00271787
0.00116858
-0.00269089
0.00118243
-0.00266436
0.00119647
-0.00263854
-0.00261347
0.00121077
1.63958e-05
-9.23321e-05
6.18465e-05
-0.000355799
0.000131834
-0.000674972
0.00022051
-0.0010237
0.000321022
-0.00137637
0.000426272
-0.00171059
0.000529812
-0.00200938
0.000626543
-0.00226228
0.00071307
-0.00246515
0.000787701
-0.00261909
0.00085018
-0.00272875
0.000901295
-0.00280082
0.000942466
-0.00284261
0.000975396
-0.00286116
0.00100181
-0.00286269
0.00102328
-0.0028523
0.00104118
-0.00283401
0.0010566
-0.00281082
0.0010704
-0.00278488
0.00108324
-0.00275769
0.0010956
-0.00273023
0.00110782
-0.00270311
0.00112013
-0.00267668
0.00113269
-0.0026511
-0.00262632
0.00114554
1.71311e-05
-0.000109463
6.39494e-05
-0.000402618
0.000135162
-0.000746185
0.000224226
-0.00111276
0.000323774
-0.00147592
0.000426477
-0.0018133
0.000525958
-0.00210886
0.000617432
-0.00235375
0.000697956
-0.00254568
0.000766308
-0.00268744
0.000822642
-0.00278509
0.000868043
-0.00284622
0.000904107
-0.00287867
0.000932605
-0.00288966
0.000955248
-0.00288533
0.000973548
-0.0028706
0.000988766
-0.00284923
0.0010019
-0.00282395
0.00101372
-0.0027967
0.00102478
-0.00276876
0.00103551
-0.00274096
0.00104619
-0.00271379
0.00105703
-0.00268751
0.00106813
-0.0026622
-0.00263773
0.00107954
1.78198e-05
-0.000127283
6.58281e-05
-0.000450626
0.000137936
-0.000818293
0.000226918
-0.00120174
0.00032495
-0.00157395
0.000424557
-0.0019129
0.000519517
-0.00220382
0.000605421
-0.00243965
0.000679802
-0.00262006
0.000741903
-0.00274954
0.000792251
-0.00283544
0.000832187
-0.00288615
0.000863439
-0.00290992
0.000887809
-0.00291403
0.000906965
-0.00290449
0.000922339
-0.00288597
0.000935086
-0.00286197
0.000946104
-0.00283497
0.000956062
-0.00280666
0.000965452
-0.00277815
0.000974621
-0.00275013
0.000983816
-0.00272299
0.0009932
-0.0026969
0.00100287
-0.00267188
-0.00264772
0.00101286
1.84519e-05
-0.000145735
6.74522e-05
-0.000499626
0.000140105
-0.000890946
0.00022853
-0.00129017
0.000324515
-0.00166994
0.000420522
-0.00200891
0.000510565
-0.00229386
0.000590663
-0.00251975
0.000658834
-0.00268823
0.000714766
-0.00280547
0.000759324
-0.00287999
0.000794056
-0.00292089
0.000820783
-0.00293665
0.000841304
-0.00293455
0.000857226
-0.00292041
0.000869883
-0.00289863
0.000880329
-0.00287242
0.000889357
-0.002844
0.000897553
-0.00281485
0.000905332
-0.00278593
0.000912989
-0.00275779
0.000920725
-0.00273072
0.000928677
-0.00270485
0.000936923
-0.00268012
-0.00265629
0.000945494
1.90183e-05
-0.000164753
6.87949e-05
-0.000549403
0.000141628
-0.00096378
0.000229023
-0.00137756
0.000322454
-0.00176337
0.000414408
-0.00210086
0.000499207
-0.00237866
0.000573331
-0.00259388
0.000635285
-0.00275018
0.000685174
-0.00285536
0.000724157
-0.00291898
0.000753949
-0.00295068
0.000776421
-0.00295912
0.000793345
-0.00295147
0.000806247
-0.00293331
0.000816361
-0.00290874
0.000824634
-0.00288069
0.000831766
-0.00285113
0.000838259
-0.00282134
0.000844465
-0.00279213
0.000850628
-0.00276395
0.000856913
-0.00273701
0.000863431
-0.00271136
0.000870243
-0.00268693
-0.00266343
0.000877378
1.95105e-05
-0.000184264
6.98327e-05
-0.000599725
0.000142473
-0.00103642
0.000228374
-0.00146346
0.000318775
-0.00185377
0.000406278
-0.00218837
0.000485568
-0.00245795
0.000553611
-0.00266192
0.000609391
-0.00280596
0.000653394
-0.00289936
0.000687031
-0.00295261
0.000712137
-0.00297578
0.000730604
-0.00297759
0.000744149
-0.00296502
0.00075421
-0.00294337
0.000761914
-0.00291645
0.000768106
-0.00288689
0.000773398
-0.00285642
0.000778217
-0.00282616
0.000782858
-0.00279677
0.000787521
-0.00276861
0.000792338
-0.00274183
0.000797398
-0.00271642
0.00080275
-0.00269229
-0.0026691
0.000808417
1.99207e-05
-0.000204184
7.05459e-05
-0.00065035
0.000142616
-0.00110849
0.000226572
-0.00154742
0.000313507
-0.0019407
0.000396211
-0.00227107
0.000469788
-0.00253153
0.0005317
-0.00272383
0.00058139
-0.00285565
0.000619684
-0.00293766
0.000648204
-0.00298113
0.000668866
-0.00299645
0.00068355
-0.00299227
0.000693904
-0.00297537
0.000701265
-0.00295073
0.000706656
-0.00292184
0.000710826
-0.00289105
0.000714302
-0.0028599
0.000717446
-0.00282931
0.000720502
-0.00279983
0.000723633
-0.00277174
0.000726944
-0.00274514
0.000730502
-0.00271998
0.000734344
-0.00269613
-0.00267325
0.000738494
2.02423e-05
-0.000224427
7.09189e-05
-0.000701027
0.000142041
-0.00117961
0.000223622
-0.001629
0.000306692
-0.00202377
0.000384305
-0.00234868
0.000452019
-0.00259924
0.000507798
-0.00277961
0.000551511
-0.00289937
0.00058429
-0.00297044
0.000607917
-0.00300476
0.000624358
-0.00301289
0.000635456
-0.00300337
0.000642773
-0.00298269
0.000647542
-0.0029555
0.000650685
-0.00292498
0.000652858
-0.00289323
0.000654515
-0.00286155
0.000655958
-0.00283075
0.000657387
-0.00280126
0.000658932
-0.00277329
0.000660676
-0.00274688
0.000662669
-0.00272198
0.000664939
-0.0026984
-0.00267581
0.000667506
2.04693e-05
-0.000244896
7.09399e-05
-0.000751497
0.000140744
-0.00124942
0.000219542
-0.0017078
0.000298391
-0.00210262
0.000370671
-0.00242096
0.000432425
-0.002661
0.000482105
-0.00282929
0.00051998
-0.00293724
0.00054744
-0.0029979
0.000566393
-0.00302371
0.000578816
-0.00302531
0.000586495
-0.00301105
0.000590899
-0.00298709
0.000593156
-0.00295776
0.000594087
-0.00292591
0.000594265
-0.00289341
0.000594075
-0.00286136
0.00059377
-0.00283045
0.000593511
-0.002801
0.000593401
-0.00277318
0.000593503
-0.00274698
0.000593853
-0.00272233
0.000594471
-0.00269902
-0.00267672
0.000595377
2.05969e-05
-0.000265493
7.06012e-05
-0.000801502
0.000138725
-0.00131754
0.000214362
-0.00178343
0.000288676
-0.00217694
0.000355431
-0.00248772
0.00041117
-0.00271674
0.000454821
-0.00287294
0.000487013
-0.00296943
0.000509354
-0.00302024
0.000523835
-0.00303819
0.000532422
-0.0030339
0.000536826
-0.00301545
0.000538414
-0.00298868
0.000538212
-0.00295755
0.000536944
-0.00292465
0.000535108
-0.00289157
0.000533029
-0.00285928
0.000530914
-0.00282833
0.000528894
-0.00279898
0.000527047
-0.00277133
0.000525421
-0.00274535
0.000524041
-0.00272095
0.000522922
-0.0026979
-0.00267588
0.000522081
2.06214e-05
-0.000286114
6.9899e-05
-0.000850779
0.000135995
-0.00138364
0.000208122
-0.00185556
0.00027763
-0.00224644
0.000338714
-0.0025488
0.000388425
-0.00276645
0.000426142
-0.00291066
0.000452817
-0.00299611
0.000470233
-0.00303766
0.000480433
-0.00304839
0.000485345
-0.00303881
0.000486593