/*--------------------------------*- C++ -*----------------------------------*\
  =========                 |
  \\      /  F ield         | OpenFOAM: The Open Source CFD Toolbox
   \\    /   O peration     | Website:  https://openfoam.org
    \\  /    A nd           | Version:  6.0
     \\/     M anipulation  |
\*---------------------------------------------------------------------------*/
FoamFile
{
    version     2.0;
    format      ascii;
    class       surfaceScalarField;
    location    "17.9";
    object      phi;
}
// * * * * * * * * * * * * * * * * * * * * * * * * * * * * * * * * * * * * * //

dimensions      [0 3 -1 0 0 0 0];

internalField   nonuniform List<scalar> 
15760
(
-3.03978e-06
3.17301e-06
-1.33231e-07
-1.07167e-05
7.98809e-06
-3.1119e-07
-2.1906e-05
1.16127e-05
-4.23421e-07
-3.57022e-05
1.42827e-05
-4.86492e-07
-5.13865e-05
1.61981e-05
-5.13685e-07
-6.84028e-05
1.75318e-05
-5.15501e-07
-8.63349e-05
1.84321e-05
-5.0004e-07
-0.000104887
1.90257e-05
-4.73399e-07
-0.000123868
1.94208e-05
-4.40049e-07
-0.000143174
1.97093e-05
-4.03176e-07
-0.000162778
1.99693e-05
-3.6499e-07
-0.000182718
2.02664e-05
-3.26979e-07
-0.000203082
2.06541e-05
-2.90113e-07
-0.000224002
2.11753e-05
-2.55007e-07
-0.000245642
2.18619e-05
-2.22028e-07
-0.000268186
2.27358e-05
-1.91367e-07
-0.000291832
2.38084e-05
-1.63074e-07
-0.000316776
2.50814e-05
-1.37111e-07
-0.000343212
2.65497e-05
-1.13423e-07
2.82082e-05
-9.19566e-08
-0.000371329
-3.01768e-06
6.19069e-06
-1.06391e-05
1.56095e-05
-2.1743e-05
2.27167e-05
-3.54238e-05
2.79634e-05
-5.09606e-05
3.17348e-05
-6.77929e-05
3.43642e-05
-8.54992e-05
3.61384e-05
-0.000103777
3.73034e-05
-0.000122426
3.80702e-05
-0.000141336
3.86191e-05
-0.000160471
3.91041e-05
-0.00017986
3.9655e-05
-0.000199585
4.03796e-05
-0.000219774
4.13644e-05
-0.000240588
4.26755e-05
-0.00026221
4.43584e-05
-0.00028484
4.64385e-05
-0.000308681
4.89215e-05
-0.00033393
5.17988e-05
5.50603e-05
-0.000360782
-2.97565e-06
9.16634e-06
-1.04906e-05
2.31244e-05
-2.14296e-05
3.36557e-05
-3.48867e-05
4.14206e-05
-5.01367e-05
4.69848e-05
-6.66113e-05
5.08388e-05
-8.3878e-05
5.34051e-05
-0.000101621
5.50464e-05
-0.000119625
5.60744e-05
-0.000137762
5.67565e-05
-0.000155981
5.73223e-05
-0.000174293
5.79672e-05
-0.000192768
5.88551e-05
-0.000211524
6.01199e-05
-0.000230714
6.18658e-05
-0.000250523
6.41674e-05
-0.000271154
6.7069e-05
-0.000292817
7.05849e-05
-0.000315725
7.47066e-05
7.94202e-05
-0.000340085
-2.9169e-06
1.20832e-05
-1.02809e-05
3.04884e-05
-2.09845e-05
4.43593e-05
-3.41213e-05
5.45574e-05
-4.89599e-05
6.18234e-05
-6.49215e-05
6.68004e-05
-8.15584e-05
7.00419e-05
-9.85355e-05
7.20236e-05
-0.000115616
7.31544e-05
-0.000132646
7.37869e-05
-0.000149549
7.42254e-05
-0.000166313
7.47316e-05
-0.000182987
7.55287e-05
-0.00019967
7.68026e-05
-0.000216506
7.87024e-05
-0.000233678
8.13393e-05
-0.000251394
8.47852e-05
-0.00026988
8.90709e-05
-0.000289369
9.41949e-05
0.000100142
-0.00031009
-2.8456e-06
1.49288e-05
-1.00226e-05
3.76654e-05
-2.04319e-05
5.47686e-05
-3.31666e-05
6.72921e-05
-4.74886e-05
7.61454e-05
-6.28064e-05
8.21182e-05
-7.86544e-05
8.58899e-05
-9.4674e-05
8.80433e-05
-0.0001106
8.90801e-05
-0.000126247
8.94343e-05
-0.000141504
8.94828e-05
-0.000156327
8.95542e-05
-0.000170732
8.99336e-05
-0.000184794
9.08648e-05
-0.000198642
9.25504e-05
-0.000212452
9.51493e-05
-0.00022644
9.87729e-05
-0.000240851
0.000103482
-0.000255948
0.000109292
0.000116195
-0.000272002
-2.76622e-06
1.76951e-05
-9.72919e-06
4.46284e-05
-1.97975e-05
6.4837e-05
-3.20639e-05
7.95584e-05
-4.57839e-05
8.98654e-05
-6.03536e-05
9.66879e-05
-7.52879e-05
0.000100824
-9.02024e-05
0.000102958
-0.000104799
0.000103677
-0.000118856
0.000103491
-0.000132219
0.000102846
-0.0001448
0.000102136
-0.000156576
0.000101709
-0.000167586
0.000101875
-0.000177933
0.000102897
-0.000187782
0.000104998
-0.000197355
0.000108345
-0.000206921
0.000113048
-0.000216787
0.000119159
0.000126688
-0.00022728
-2.68275e-06
2.03778e-05
-9.41229e-06
5.13579e-05
-1.9103e-05
7.45276e-05
-3.08478e-05
9.13033e-05
-4.38976e-05
0.000102915
-5.76373e-05
0.000110428
-7.15641e-05
0.000114751
-8.52675e-05
0.000116661
-9.84155e-05
0.000116825
-0.000110744
0.000115819
-0.00012205
0.000114152
-0.000132195
0.00011228
-0.0001411
0.000110615
-0.000148758
0.000109533
-0.000155234
0.000109373
-0.000160669
0.000110434
-0.000165287
0.000112963
-0.000169384
0.000117146
-0.000173325
0.0001231
0.00013088
-0.000177517
-2.59795e-06
2.29758e-05
-9.07935e-06
5.78393e-05
-1.83614e-05
8.38097e-05
-2.95381e-05
0.00010248
-4.18583e-05
0.000115235
-5.46995e-05
0.000123269
-6.75447e-05
0.000127596
-7.99606e-05
0.000129077
-9.15823e-05
0.000128447
-0.000102103
0.00012634
-0.000111269
0.000123318
-0.000118878
0.00011989
-0.000124791
0.000116528
-0.000128935
0.000113676
-0.000131318
0.000111756
-0.000132047
0.000111162
-0.000131332
0.000112248
-0.000129496
0.000115309
-0.00012697
0.000120574
0.000128184
-0.000124274
-2.51269e-06
2.54885e-05
-8.73162e-06
6.40582e-05
-1.75728e-05
9.26509e-05
-2.81322e-05
0.000113039
-3.96597e-05
0.000126763
-5.1531e-05
0.00013514
-6.32207e-05
0.000139286
-7.42792e-05
0.000140136
-8.43145e-05
0.000138482
-9.29806e-05
0.000135006
-9.99717e-05
0.000130309
-0.000105023
0.000124941
-0.000107919
0.000119424
-0.000108509
0.000114266
-0.000106726
0.000109974
-0.000102615
0.000107051
-9.63527e-05
0.000105986
-8.82765e-05
0.000107233
-7.88923e-05
0.000111189
0.000118158
-6.88665e-05
-2.42569e-06
2.79141e-05
-8.36289e-06
6.99954e-05
-1.67216e-05
0.00010101
-2.65994e-05
0.000122917
-3.72512e-05
0.000137415
-4.80564e-05
0.000145945
-5.84892e-05
0.000149719
-6.80927e-05
0.000149739
-7.64577e-05
0.000146847
-8.32079e-05
0.000141756
-8.79925e-05
0.000135094
-9.04851e-05
0.000127434
-9.03923e-05
0.000119331
-8.74715e-05
0.000111345
-8.15594e-05
0.000104062
-7.26092e-05
9.81005e-05
-6.07359e-05
9.4113e-05
-4.62631e-05
9.27604e-05
-2.97664e-05
9.46928e-05
0.000100484
-1.20921e-05
-2.33352e-06
3.02477e-05
-7.95956e-06
7.56215e-05
-1.57757e-05
0.000108826
-2.48801e-05
0.000132022
-3.4534e-05
0.000147068
-4.41261e-05
0.000155538
-5.31384e-05
0.000158731
-6.11173e-05
0.000157718
-6.7649e-05
0.000153379
-7.23418e-05
0.000146449
-7.48137e-05
0.000137566
-7.46885e-05
0.000127309
-7.16008e-05
0.000116244
-6.52133e-05
0.000104958
-5.52493e-05
9.40976e-05
-4.15421e-05
8.43933e-05
-2.41013e-05
7.66722e-05
-3.19461e-06
7.18537e-05
2.05587e-05
7.09394e-05
7.49341e-05
4.61086e-05
-2.23107e-06
3.24787e-05
-7.50185e-06
8.08923e-05
-1.46893e-05
0.000116013
-2.28876e-05
0.00014022
-3.13639e-05
0.000155545
-3.95183e-05
0.000163692
-4.68466e-05
0.000166059
-5.29082e-05
0.00016378
-5.72988e-05
0.000157769
-5.9629e-05
0.000148779
-5.9507e-05
0.000137444
-5.65292e-05
0.000124331
-5.02787e-05
0.000109993
-4.03369e-05
9.5016e-05
-2.6313e-05
8.00737e-05
-7.89933e-06
6.59796e-05
1.50432e-05
5.37296e-05
4.23637e-05
4.45332e-05
7.34554e-05
3.98477e-05
4.13239e-05
0.000107066
-2.11242e-06
3.45911e-05
-6.96636e-06
8.57462e-05
-1.34071e-05
0.000122454
-2.05164e-05
0.000147329
-2.75618e-05
0.00016259
-3.39522e-05
0.000170082
-3.91979e-05
0.000171305
-4.28765e-05
0.000167458
-4.46043e-05
0.000159497
-4.40112e-05
0.000148186
-4.07212e-05
0.000134153
-3.43353e-05
0.000117945
-2.44222e-05
0.00010008
-1.05182e-05
8.1112e-05
7.85416e-06
6.17014e-05
3.1138e-05
4.26958e-05
5.9649e-05
2.52186e-05
9.34204e-05
1.07618e-05
0.000131951
1.31739e-06
-5.60972e-07
0.000173836
-1.97191e-06
3.65631e-05
-6.32926e-06
9.01036e-05
-1.18706e-05
0.000127995
-1.76522e-05
0.000153111
-2.293e-05
0.000167868
-2.71119e-05
0.000174264
-2.97152e-05
0.000173908
-3.03327e-05
0.000168076
-2.86032e-05
0.000157767
-2.41874e-05
0.00014377
-1.67465e-05
0.000126713
-5.92222e-06
0.000107121
8.68128e-06
8.54764e-05
2.75105e-05
6.22828e-05
5.10638e-05
3.8148e-05
7.98661e-05
1.38935e-05
0.000114392
-9.30726e-06
0.000154904
-2.975e-05
0.000201125
-4.49036e-05
-5.10701e-05
0.000251634
-1.80509e-06
3.83681e-05
-5.56928e-06
9.38677e-05
-1.0025e-05
0.000132451
-1.41837e-05
0.000157269
-1.72714e-05
0.000170956
-1.86764e-05
0.000175669
-1.79058e-05
0.000173138
-1.45518e-05
0.000164722
-8.26481e-06
0.00015148
1.26666e-06
0.000134239
1.43347e-05
0.000113645
3.12296e-05
9.02258e-05
5.22604e-05
6.44457e-05
7.77772e-05
3.67661e-05
0.000108194
7.7312e-06
0.000143999
-2.19114e-05
0.000185724
-5.10322e-05
0.000233828
-7.78541e-05
0.000288364
-9.94399e-05
-0.000110835
0.000348129
-1.60923e-06
3.99774e-05
-4.66945e-06
9.6928e-05
-7.82247e-06
0.000135604
-1.00107e-05
0.000159458
-1.04048e-05
0.00017135
-8.34713e-06
0.000173611
-3.30642e-06
0.000168097
5.15444e-06
0.000156261
1.74003e-05
0.000139235
3.37378e-05
0.000117901
5.44248e-05
9.29575e-05
7.96792e-05
6.49715e-05
0.000109691
3.44342e-05
0.000144641
1.81598e-06
0.000184735
-3.23635e-05
0.000230248
-6.74236e-05
0.000281553
-0.000102337
0.000339118
-0.00013542
0.000403309
-0.000163631
-0.000180938
0.000473412
-1.38306e-06
4.13604e-05
-3.61654e-06
9.91614e-05
-5.22243e-06
0.00013721
-5.0455e-06
0.000159281
-2.17116e-06
0.000168476
4.13741e-06
0.000167303
1.44861e-05
0.000157748
2.93808e-05
0.000141366
4.92434e-05
0.000119372
7.44177e-05
9.27268e-05
0.000105167
6.22086e-05
0.000141665
2.84734e-05
0.000183991
-7.8921e-06
0.000232129
-4.6322e-05
0.000285983
-8.62171e-05
0.000345421
-0.000126862
0.000410358
-0.000167274
0.000480855
-0.000205917
0.000557223
-0.000239998
-0.000263152
0.000639436
-1.12563e-06
4.2486e-05
-2.39776e-06
0.000100434
-2.18581e-06
0.000136998
7.94114e-07
0.000156301
7.57466e-06
0.000161695
1.90076e-05
0.00015587
3.58135e-05
0.000140942
5.8611e-05
0.000118569
8.79284e-05
9.00546e-05
0.000124201
5.64543e-05
0.000167755
1.86542e-05
0.000218786
-2.25569e-05
0.00027732
-6.64268e-05
0.000343187
-0.000112189
0.000415983
-0.000159013
0.000495068
-0.000205947
0.000579608
-0.000251813
0.0006687
-0.00029501
0.000761694
-0.000332993
-0.00036081
0.000859352
-8.34273e-07
4.33203e-05
-9.952e-07
0.000100594
1.33522e-06
0.000134668
7.60095e-06
0.000150035
1.89852e-05
0.000150311
3.64891e-05
0.000138366
6.09849e-05
0.000116447
9.32441e-05
8.63095e-05
0.000133946
4.93532e-05
0.000183667
6.73281e-06
0.000242863
-4.05422e-05
0.000311831
-9.15249e-05
0.000390661
-0.000145257
0.000479171
-0.000200698
0.000576818
-0.00025666
0.000682585
-0.000311715
0.00079486
-0.000364089
0.000911303
-0.000411452
0.00102901
-0.0004507
-0.00048049
0.00114869
-5.02451e-07
4.38228e-05
6.20716e-07
9.94713e-05
5.40937e-06
0.000129879
1.54974e-05
0.000139947
3.22476e-05
0.000133561
5.68389e-05
0.000113775
9.03214e-05
8.29641e-05
0.000133643
4.29881e-05
0.000187654
-4.65774e-06
0.000253097
-5.87109e-05
0.000330591
-0.000118036
0.000420601
-0.000181535
0.000523415
-0.000248071
0.000639111
-0.000316394
0.000767504
-0.000385052
0.000908047
-0.000452258
0.00105959
-0.000515634
0.00121956
-0.000571421
0.001381
-0.00061214
-0.000621664
0.00152217
-1.18577e-07
4.39413e-05
2.4953e-06
9.68574e-05
1.01349e-05
0.000122239
2.46499e-05
0.000125432
4.76052e-05
0.000110605
8.03742e-05
8.10057e-05
0.000124191
3.9147e-05
0.000180172
-1.29931e-05
0.000249313
-7.37985e-05
0.000332475
-0.000141873
0.000430373
-0.000215933
0.000543568
-0.00029473
0.000672491
-0.000376995
0.000817511
-0.000461414
0.00097908
-0.00054662
0.00115802
-0.000631204
0.0013561
-0.00071371
0.00157726
-0.000792576
0.0018315
-0.000866387
-0.000931245
0.00214109
3.37465e-07
4.36039e-05
4.69603e-06
9.24989e-05
1.56477e-05
0.000111288
3.52778e-05
0.000105802
6.53662e-05
8.05169e-05
0.00010748
3.88915e-05
0.000163018
-1.63906e-05
0.000233213
-8.31876e-05
0.000319115
-0.000159701
0.000421568
-0.000244326
0.000541181
-0.000335546
0.000678327
-0.000431876
0.000833169
-0.000531836
0.00100572
-0.000633966
0.00119598
-0.000736877
0.00140411
-0.000839334
0.00163077
-0.000940373
0.00187761
-0.00103942
0.00214753
-0.00113631
-0.00122334
0.00243963
8.89667e-07
4.27142e-05
7.30336e-06
8.60852e-05
2.21077e-05
9.64833e-05
4.76341e-05
8.02755e-05
8.58758e-05
4.22753e-05
0.000138571
-1.38038e-05
0.000207226
-8.50451e-05
0.000293092
-0.000169054
0.000397129
-0.000263738
0.000519952
-0.000367149
0.000661801
-0.000477395
0.000822526
-0.000592601
0.00100161
-0.000710921
0.00119823
-0.000830583
0.00141132
-0.000949966
0.00163968
-0.0010677
0.00188208
-0.00118277
0.00213724
-0.00129458
0.00240372
-0.00140279
-0.00149906
0.00267945
1.56649e-06
4.11477e-05
1.0408e-05
7.72437e-05
2.96883e-05
7.7203e-05
6.19811e-05
4.79827e-05
0.00010947
-5.21414e-06
0.000174011
-7.83448e-05
0.000257119
-0.000168153
0.000359915
-0.00027185
0.000483058
-0.000386881
0.000626682
-0.000510773
0.000790359
-0.000641072
0.000973102
-0.000775344
0.00117341
-0.00091123
0.00138935
-0.00104652
0.00161864
-0.00117926
0.00185876
-0.00130782
0.002107
-0.00143101
0.00236047
-0.00154804
0.00261615
-0.00165848
-0.00175541
0.0028725
2.397e-06
3.87507e-05
1.40992e-05
6.55415e-05
3.85524e-05
5.27498e-05
7.8548e-05
7.98703e-06
0.000136409
-6.30753e-05
0.000214012
-0.000155947
0.000312729
-0.00026687
0.000433343
-0.000392465
0.000575954
-0.000529493
0.000739923
-0.000674742
0.000923864
-0.000825012
0.0011257
-0.000977179
0.00134276
-0.0011283
0.00157196
-0.00127572
0.00180991
-0.00141721
0.00205309
-0.00155101
0.00229799
-0.0016759
0.0025411
-0.00179116
0.00277914
-0.00189651
-0.00198715
0.00301089
3.40758e-06
3.53431e-05
1.84536e-05
5.04955e-05
4.88283e-05
2.23751e-05
9.74881e-05
-4.06727e-05
0.000166803
-0.00013239
0.000258523
-0.000247667
0.000373669
-0.000382016
0.00051242
-0.000531215
0.00067402
-0.000691093
0.000856766
-0.000857488
0.00105807
-0.00102632
0.00127463
-0.00119374
0.0015026
-0.00135627
0.00173789
-0.001511
0.00197634
-0.00165565
0.00221397
-0.00178864
0.00244711
-0.00190905
0.00267251
-0.00201656
0.00288743
-0.00211144
-0.00219095
0.00309123
4.61919e-06
3.07239e-05
2.3526e-05
3.15887e-05
6.05891e-05
-1.4688e-05
0.000118841
-9.89246e-05
0.000200559
-0.000214108
0.000307159
-0.000354267
0.000439045
-0.000513902
0.000595483
-0.000687654
0.000774564
-0.000870174
0.000973278
-0.0010562
0.00118771
-0.00124076
0.00141335
-0.00141937
0.00164537
-0.00158829
0.00187904
-0.00174467
0.00210994
-0.00188655
0.00233421
-0.00201292
0.0025487
-0.00212353
0.00275096
-0.00221882
0.00293932
-0.0022998
-0.0023655
0.00311388
6.04561e-06
2.46783e-05
2.93415e-05
8.29278e-06
7.38367e-05
-5.91831e-05
0.000142506
-0.000167594
0.000237339
-0.00030894
0.000359153
-0.000476081
0.000507422
-0.000662171
0.000680186
-0.000860418
0.000874125
-0.00106411
0.00108479
-0.00126687
0.00130699
-0.00146295
0.00153521
-0.00164759
0.00176408
-0.00181716
0.00198871
-0.0019693
0.00220502
-0.00210286
0.00240984
-0.00221774
0.002601
-0.00231469
0.00277724
-0.00239506
0.00293812
-0.00246069
-0.00251201
0.00308463
7.69257e-06
1.69858e-05
3.58927e-05
-1.99074e-05
8.84933e-05
-0.000111784
0.00016823
-0.000247331
0.000276548
-0.000417259
0.000413358
-0.000612891
0.00057687
-0.000825683
0.000763625
-0.00104717
0.000968742
-0.00126923
0.00118638
-0.00148451
0.0014103
-0.00168687
0.00163443
-0.00187171
0.00185335
-0.00203608
0.00206266
-0.00217861
0.00225911
-0.00229931
0.00244066
-0.00239929
0.00260636
-0.00248039
0.00275621
-0.00254492
0.00289093
-0.0025954
-0.00263332
0.00301224
9.55746e-06
7.4283e-06
4.31371e-05
-5.3487e-05
0.000104397
-0.000173044
0.000195599
-0.000338532
0.000317341
-0.000539001
0.000468284
-0.000763834
0.000645073
-0.00100247
0.000842564
-0.00124466
0.00105434
-0.001481
0.0012734
-0.00170357
0.0014929
-0.00190637
0.00170677
-0.00208558
0.00191015
-0.00223946
0.00209959
-0.00236806
0.00227309
-0.00247281
0.0024299
-0.0025561
0.00257033
-0.00262081
0.00269544
-0.00267003
0.00280681
-0.00270677
-0.00273317
0.00290666
1.16293e-05
-4.20104e-06
5.09966e-05
-9.28543e-05
0.000121303
-0.000243351
0.00022405
-0.000441279
0.000358649
-0.000673601
0.000522178
-0.000927362
0.000709488
-0.00118978
0.000913723
-0.0014489
0.00112714
-0.00169442
0.00134202
-0.00191845
0.00155149
-0.00211584
0.00175007
-0.00228416
0.00193395
-0.00242334
0.002101
-0.00253511
0.00225058
-0.00262239
0.00238321
-0.00268872
0.00250022
-0.00273783
0.00260346
-0.00277327
0.00269499
-0.00279829
-0.00281536
0.00277718
1.38887e-05
-1.80898e-05
5.9358e-05
-0.000138324
0.000138885
-0.000322878
0.000252884
-0.000555278
0.00039923
-0.000819946
0.000573133
-0.00110127
0.000767557
-0.0013842
0.000974093
-0.00165543
0.00118408
-0.00190441
0.00138966
-0.00212403
0.00158451
-0.00231069
0.00176426
-0.00246391
0.00192648
-0.00258557
0.00207049
-0.00267912
0.00219692
-0.00274882
0.00230731
-0.00279911
0.00240372
-0.00283424
0.0024884
-0.00285795
0.00256357
-0.00287346
-0.00288331
0.00263151
1.63072e-05
-3.4397e-05
6.80733e-05
-0.00019009
0.000156745
-0.000411549
0.000281295
-0.000679828
0.000437734
-0.000976385
0.00061923
-0.00128276
0.000816926
-0.0015819
0.00102122
-0.00185973
0.00122308
-0.00210628
0.00141511
-0.00231606
0.00159209
-0.00248767
0.00175107
-0.00262289
0.00189114
-0.00272563
0.00201292
-0.0028009
0.0021181
-0.002854
0.00220892
-0.00288994
0.00228782
-0.00291314
0.00235715
-0.00292728
0.00241905
-0.00293536
-0.00293977
0.00247552
1.88473e-05
-5.32443e-05
7.69621e-05
-0.000248204
0.000174421
-0.000509009
0.000308406
-0.000813813
0.000472798
-0.00114078
0.000658684
-0.00146865
0.000855653
-0.00177887
0.00105341
-0.00205749
0.00124318
-0.00229605
0.00141858
-0.00249145
0.00157582
-0.00264491
0.00171353
-0.0027606
0.00183219
-0.0028443
0.00193353
-0.00290224
0.00201995
-0.00294042
0.00209406
-0.00296405
0.00215837
-0.00297745
0.00221514
-0.00298405
0.00226625
-0.00298647
-0.00298689
0.00231336
2.14625e-05
-7.47069e-05
8.58155e-05
-0.000312557
0.000191413
-0.000614606
0.000333319
-0.000955719
0.00050313
-0.00131059
0.000689988
-0.00165551
0.000882355
-0.00197124
0.00106984
-0.00224497
0.00124451
-0.00247071
0.00140137
-0.00264831
0.00153826
-0.00278181
0.00165532
-0.00287765
0.00175417
-0.00294315
0.00183734
-0.00298541
0.0019076
-0.00301068
0.00196766
-0.00302411
0.00201991
-0.0030297
0.00206635
-0.00303048
0.00210856
-0.00302868
-0.00302618
0.00214785
2.40979e-05
-9.88047e-05
9.44031e-05
-0.000382863
0.000207197
-0.0007274
0.000355168
-0.00110369
0.000527611
-0.00148303
0.000712023
-0.00183992
0.000896288
-0.0021555
0.00107053
-0.00241921
0.00122808
-0.00262827
0.00136562
-0.00278584
0.00148256
-0.00289875
0.00158031
-0.0029754
0.00166139
-0.00302423
0.00172874
-0.00305276
0.00178528
-0.00306722
0.00183359
-0.00307241
0.00187579
-0.00307191
0.00191359
-0.00306828
0.00194826
-0.00306335
-0.00305871
0.00198079
2.66916e-05
-0.000125496
0.000102483
-0.000458654
0.000221262
-0.000846179
0.00037318
-0.00125561
0.000545366
-0.00165522
0.000724121
-0.00201867
0.000897347
-0.00232873
0.0010562
-0.00257806
0.00119561
-0.00276768
0.00131391
-0.00290414
0.00141198
-0.00299681
0.00149219
-0.00305561
0.00155761
-0.00308966
0.00161138
-0.00310653
0.00165629
-0.00311213
0.00169468
-0.00311081
0.00172839
-0.00310561
0.00175877
-0.00309866
0.00178684
-0.00309143
-0.00308518
0.00181332
2.91771e-05
-0.000154673
0.000109811
-0.000539287
0.000233135
-0.000969503
0.000386718
-0.00140919
0.000555816
-0.00182431
0.000726074
-0.00218893
0.000885984
-0.00248864
0.00102812
-0.0027202
0.00114916
-0.00288871
0.00124899
-0.00300398
0.00132965
-0.00307747
0.00139421
-0.00312018
0.00144601
-0.00314145
0.00148811
-0.00314864
0.00152311
-0.00314713
0.00155301
-0.00314071
0.00157933
-0.00313193
0.00160316
-0.00312249
0.00162526
-0.00311353
-0.00310607
0.00164615
3.14861e-05
-0.00018616
0.000116156
-0.000623957
0.000242406
-0.00109575
0.00039532
-0.00156211
0.000558695
-0.00198769
0.000718098
-0.00234833
0.000863093
-0.00263363
0.000987931
-0.00284504
0.00109097
-0.00299175
0.0011735
-0.0030865
0.00123839
-0.00314237
0.00128914
-0.00317092
0.00132909
-0.00318141
0.00136114
-0.00318068
0.00138755
-0.00317354
0.00141001
-0.00316317
0.00142974
-0.00315166
0.00144758
-0.00314033
0.00146411
-0.00313006
-0.00312165
0.0014797
3.35511e-05
-0.000219711
0.00012131
-0.000711716
0.000248758
-0.0012232
0.00039872
-0.00171207
0.00055404
-0.00214301
0.000700755
-0.00249505
0.00082987
-0.00276275
0.000937398
-0.00295257
0.00102327
-0.00307762
0.00108985
-0.00315308
0.00114062
-0.00319313
0.0011792
-0.00320951
0.00120883
-0.00321103
0.00123208
-0.00320394
0.0012509
-0.00319236
0.00126667
-0.00317894
0.00128035
-0.00316533
0.00129258
-0.00315256
0.0013038
-0.00314128
-0.00313211
0.00131425
3.53128e-05
-0.000255023
0.000125107
-0.000801511
0.000251981
-0.00135007
0.000396854
-0.00185694
0.000542161
-0.00228832
0.000674885
-0.00262777
0.000787699
-0.00287556
0.000878346
-0.00304322
0.000948106
-0.00314738
0.00100017
-0.00320514
0.00103833
-0.0032313
0.00106618
-0.00323736
0.00108669
-0.00323155
0.00110213
-0.00321937
0.00111409
-0.00320432
0.00112369
-0.00318854
0.00113167
-0.00317332
0.00113853
-0.00315942
0.00114459
-0.00314734
-0.00313753
0.00115001
3.67087e-05
-0.000291732
0.000127401
-0.000892203
0.000251948
-0.00147462
0.000389805
-0.0019948
0.000523534
-0.00242205
0.00064144
-0.00274568
0.000737967
-0.00297209
0.000812455
-0.00311771
0.000867285
-0.00320221
0.000906199
-0.00324405
0.000933102
-0.0032582
0.000951404
-0.00325566
0.000963764
-0.00324391
0.000972101
-0.00322771
0.000977728
-0.00320995
0.000981514
-0.00319233
0.000984033
-0.00317584
0.000985664
-0.00316105
0.000986644
-0.00314832
-0.00313797
0.000987089
3.76951e-05
-0.000329427
0.000128111
-0.000982619
0.000248662
-0.00159517
0.000377838
-0.00212397
0.000498823
-0.00254303
0.0006015
-0.00284836
0.00068208
-0.00305267
0.000741304
-0.00317693
0.000782397
-0.00324331
0.000809417
-0.00327107
0.00082621
-0.00327499
0.000835916
-0.00326537
0.000840856
-0.00324885
0.000842628
-0.00322948
0.000842279
-0.0032096
0.000840487
-0.00319054
0.000837689
-0.00317304
0.000834178
-0.00315754
0.000830131
-0.00314427
-0.00313347
0.000825631
3.82361e-05
-0.000367663
0.000127198
-0.00107158
0.000242211
-0.00171019
0.000361328
-0.00224309
0.000468765
-0.00265047
0.000556143
-0.00293573
0.000621336
-0.00311786
0.000666268
-0.00322186
0.000694761
-0.0032718
0.000710992
-0.0032873
0.000718626
-0.00328263
0.000720486
-0.00326723
0.000718555
-0.00324692
0.00071414
-0.00322506
0.000708063
-0.00320352
0.000700845
-0.00318332
0.000692822
-0.00316502
0.000684218
-0.00314894
0.000675172
-0.00313522
-0.00312404
0.000665743
3.83073e-05
-0.000405971
0.000124667
-0.00115794
0.000232766
-0.00181829
0.000340729
-0.00235105
0.000434141
-0.00274388
0.000506404
-0.003008
0.000556911
-0.00316837
0.000588529
-0.00325348
0.00060546
-0.00328873
0.000611846
-0.00329369
0.000611091
-0.00328187
0.000605682
-0.00326182
0.000597285
-0.00323852
0.000586949
-0.00321473
0.000575312
-0.00319189
0.000562767
-0.00317077
0.000549574
-0.00315182
0.000535906
-0.00313527
0.000521877
-0.0031212
-0.0031097
0.000507533
3.78968e-05
-0.000443867
0.000120566
-0.00124061
0.000220557
-0.00191828
0.000316548
-0.00244705
0.000395724
-0.00282305
0.000453247
-0.00306552
0.000489837
-0.00320496
0.00050908
-0.00327272
0.00051537
-0.00329502
0.0005127
-0.00329102
0.000504167
-0.00327334
0.000491926
-0.00324958
0.000477354
-0.00322395
0.000461282
-0.00319865
0.000444196
-0.0031748
0.000426389
-0.00315297
0.00040806
-0.00313349
0.000389347
-0.00311656
0.000370346
-0.00310219
-0.00309045
0.000351097
3.70044e-05
-0.000480872
0.000114975
-0.00131858
0.000205861
-0.00200916
0.000289309
-0.00253049
0.000354259
-0.00288801
0.000397543
-0.0031088
0.000421004
-0.00322842
0.000428741
-0.00328046
0.000425188
-0.00329147
0.000414108
-0.00327994
0.000398274
-0.0032575
0.000379525
-0.00323083
0.000358987
-0.00320341
0.000337306
-0.00317697
0.000314846
-0.00315234
0.00029182
-0.00312994
0.000268376
-0.00311005
0.00024463
-0.00309281
0.000220665
-0.00307823
-0.00306631
0.000196524
3.56404e-05
-0.000516512
0.000108006
-0.00139095
0.000188979
-0.00209014
0.000259536
-0.00260105
0.00031044
-0.00293891
0.000340062
-0.00313842
0.000351167
-0.00323953
0.000348184
-0.00327748
0.000335465
-0.00327875
0.000316498
-0.00326097
0.000293728
-0.00323473
0.000268708
-0.00320581
0.000242349
-0.00317705
0.000215146
-0.00314977
0.000187361
-0.00312455
0.000159144
-0.00310172
0.000130603
-0.00308151
0.000101833
-0.00306404
7.29151e-05
-0.00304931
-0.00303729
4.38971e-05
3.3825e-05
-0.000550337
9.97896e-05
-0.00145691
0.000170229
-0.00216057
0.000227733
-0.00265855
0.000264899
-0.00297608
0.000281477
-0.003155
0.000280961
-0.00323901
0.000267952
-0.00326447
0.000246638
-0.00325743
0.000220199
-0.00323453
0.000190768
-0.0032053
0.000159647
-0.00317469
0.000127565
-0.00314497
9.48956e-05
-0.0031171
6.18195e-05
-0.00309148
2.84317e-05
-0.00306834
-5.19412e-06
-0.00304788
-3.8979e-05
-0.00303026
-7.2839e-05
-0.00301545
-0.00300342
-0.000106715
3.15866e-05
-0.000581924
9.04704e-05
-0.00151579
0.000149929
-0.00222003
0.000194377
-0.002703
0.000218201
-0.0029999
0.000222365
-0.00315917
0.000210912
-0.00322756
0.000188487
-0.00324204
0.000159051
-0.003228
0.000125467
-0.00320095
8.95803e-05
-0.00316942
5.24743e-05
-0.00313758
1.47296e-05
-0.00310722
-2.33749e-05
-0.003079
-6.17233e-05
-0.00305313
-0.000100268
-0.00302979
-0.000138969
-0.00300918
-0.00017776
-0.00299146
-0.000216551
-0.00297666
-0.0029647
-0.000255263
2.89602e-05
-0.000610884
8.02027e-05
-0.00156704
0.000128389
-0.00226822
0.000159905
-0.00273452
0.000170849
-0.00301084
0.000163224
-0.00315154
0.00014146
-0.0032058
0.000110149
-0.00321073
7.29816e-05
-0.00319083
3.2509e-05
-0.00316048
-9.68557e-06
-0.00312722
-5.27041e-05
-0.00309456
-9.6082e-05
-0.00306385
-0.000139612
-0.00303547
-0.000183229
-0.00300951
-0.000226928
-0.00298609
-0.000270702
-0.00296541
-0.000314499
-0.00294767
-0.000358215
-0.00293294
-0.00292117
-0.00040175
2.59863e-05
-0.00063687
6.91443e-05
-0.00161019
0.000105906
-0.00230498
0.00012472
-0.00275333
0.000123284
-0.00300941
0.000104476
-0.00313273
7.29759e-05
-0.00317429
3.32392e-05
-0.00317099
-1.13362e-05
-0.00314625
-5.8498e-05
-0.00311331
-0.000106898
-0.00307882
-0.000155791
-0.00304567
-0.000204802
-0.00301484
-0.000253773
-0.0029865
-0.000302675
-0.00296061
-0.000351541
-0.00293722
-0.000400401
-0.00291655
-0.000449224
-0.00289884
-0.000497891
-0.00288428
-0.0028728
-0.000546261
2.27093e-05
-0.000659579
5.74529e-05
-0.00164494
8.27621e-05
-0.00233029
8.91852e-05
-0.00275976
7.58949e-05
-0.00299612
4.64867e-05
-0.00310332
5.77223e-06
-0.00313358
-4.19873e-05
-0.00312323
-9.36982e-05
-0.00309454
-0.000147391
-0.00305962
-0.000201927
-0.00302429
-0.000256686
-0.00299091
-0.000311357
-0.00296016
-0.000365812
-0.00293204
-0.000420042
-0.00290638
-0.000474113
-0.00288315
-0.000528098
-0.00286256
-0.000581997
-0.00284494
-0.000635681
-0.00283059
-0.00281953
-0.000688948
1.91763e-05
-0.000678756
4.52831e-05
-0.00167105
5.92185e-05
-0.00234423
5.36267e-05
-0.00275416
2.9022e-05
-0.00297151
-1.04276e-05
-0.00306387
-5.98768e-05
-0.00308413
-0.000115301
-0.00306781
-0.000173912
-0.00303593
-0.000234006
-0.00299953
-0.000294629
-0.00296367
-0.000355268
-0.00293027
-0.000415655
-0.00289978
-0.00047567
-0.00287203
-0.000535307
-0.00284674
-0.00059465
-0.00282381
-0.000653823
-0.00280339
-0.000712873
-0.00278589
-0.00077167
-0.0027718
-0.00276128
-0.000829917
1.54362e-05
-0.000694192
3.27844e-05
-0.00168839
3.55175e-05
-0.00234696
1.83381e-05
-0.00273698
-1.70343e-05
-0.00293614
-6.59891e-05
-0.00301492
-0.000123726
-0.00302639
-0.000186486
-0.00300505
-0.000251782
-0.00297064
-0.00031816
-0.00293315
-0.000384831
-0.00289699
-0.000451376
-0.00286373
-0.000517559
-0.00283359
-0.000583253
-0.00280633
-0.000648427
-0.00278157
-0.000713161
-0.00275908
-0.000777615
-0.00273894
-0.000841907
-0.0027216
-0.000905916
-0.00270779
-0.00269799
-0.000969208
1.15384e-05
-0.00070573
2.00991e-05
-0.00169695
1.1881e-05
-0.00233874
-1.64184e-05
-0.00270869
-6.20088e-05
-0.00289055
-0.00011995
-0.00295698
-0.00018555
-0.00296079
-0.000255332
-0.00293527
-0.000327102
-0.00289887
-0.000399638
-0.00286061
-0.000472308
-0.00282432
-0.000544782
-0.00279125
-0.000616859
-0.00276152
-0.000688394
-0.0027348
-0.000759311
-0.00271065
-0.000829646
-0.00268874
-0.000899567
-0.00266901
-0.000969269
-0.0026519
-0.00103866
-0.00263839
-0.00262945
-0.0011072
7.53216e-06
-0.000713263
7.36069e-06
-0.00169678
-1.14897e-05
-0.00231989
-5.04101e-05
-0.00266976
-0.000105667
-0.00283529
-0.00017209
-0.00289056
-0.00024514
-0.00288774
-0.00032163
-0.00285878
-0.000399649
-0.00282085
-0.000478191
-0.00278207
-0.000556776
-0.00274574
-0.000635171
-0.00271286
-0.000713224
-0.00268346
-0.000790791
-0.00265723
-0.000867742
-0.0026337
-0.000944039
-0.00261245
-0.00101982
-0.00259323
-0.00109538
-0.00257634
-0.0011707
-0.00256308
-0.00255473
-0.00124542
3.46502e-06
-0.000716728
-5.30722e-06
-0.00168801
-3.44147e-05
-0.00229078
-8.34331e-05
-0.00262075
-0.000147805
-0.00277092
-0.000222209
-0.00281615
-0.000302296
-0.00280766
-0.000385168
-0.00277591
-0.000469179
-0.00273684
-0.000553529
-0.00269772
-0.000637887
-0.00266138
-0.000722133
-0.00262861
-0.000806199
-0.0025994
-0.000889982
-0.00257345
-0.000973336
-0.00255035
-0.00105615
-0.00252964
-0.00113851
-0.00251086
-0.00122082
-0.00249404
-0.00130328
-0.00248061
-0.00247152
-0.0013865
-6.17805e-07
-0.00071611
-1.77931e-05
-0.00167084
-5.67366e-05
-0.00225184
-0.000115312
-0.00256217
-0.000188248
-0.00269798
-0.000270136
-0.00273426
-0.000356838
-0.00272096
-0.000445735
-0.00268701
-0.00053543
-0.00264714
-0.000625311
-0.00260784
-0.000715199
-0.00257149
-0.000805107
-0.0025387
-0.000895108
-0.0025094
-0.000985232
-0.00248332
-0.00107543
-0.00246015
-0.00116558
-0.00243948
-0.0012557
-0.00242075
-0.00134613
-0.0024036
-0.00143745
-0.00238929
-0.00237659
-0.00153239
-4.67474e-06
-0.000711435
-2.9999e-05
-0.00164551
-7.83221e-05
-0.00220352
-0.000145905
-0.00249459
-0.000226855
-0.00261703
-0.000315732
-0.00264539
-0.000408613
-0.00262807
-0.000503143
-0.00259248
-0.00059814
-0.00255214
-0.000693156
-0.00251282
-0.00078814
-0.00247651
-0.000883243
-0.0024436
-0.000978719
-0.00241392
-0.00107486
-0.00238718
-0.00117194
-0.00236307
-0.00127016
-0.00234126
-0.00136965
-0.00232126
-0.00147097
-0.00230229
-0.00157637
-0.00228389
-0.00227749
-0.00167547
-8.65658e-06
-0.000702778
-4.1822e-05
-0.00161235
-9.90406e-05
-0.0021463
-0.000175077
-0.00241855
-0.000263503