/*--------------------------------*- C++ -*----------------------------------*\
  =========                 |
  \\      /  F ield         | OpenFOAM: The Open Source CFD Toolbox
   \\    /   O peration     | Website:  https://openfoam.org
    \\  /    A nd           | Version:  6.0
     \\/     M anipulation  |
\*---------------------------------------------------------------------------*/
FoamFile
{
    version     2.0;
    format      ascii;
    class       volScalarField;
    location    "35";
    object      p;
}
// * * * * * * * * * * * * * * * * * * * * * * * * * * * * * * * * * * * * * //

dimensions      [0 2 -2 0 0 0 0];

internalField   nonuniform List<scalar> 
4000
(
-0.444726
-0.430989
-0.418908
-0.405721
-0.390245
-0.372918
-0.354493
-0.335743
-0.317339
-0.29976
-0.283285
-0.268034
-0.254016
-0.241176
-0.229424
-0.21866
-0.208785
-0.199679
-0.191148
-0.183488
-0.452733
-0.438551
-0.425671
-0.411081
-0.393709
-0.374279
-0.353804
-0.333226
-0.313284
-0.294456
-0.276984
-0.260939
-0.246287
-0.232935
-0.220765
-0.209655
-0.199493
-0.190138
-0.181382
-0.173594
-0.458953
-0.444424
-0.430696
-0.414574
-0.395197
-0.373626
-0.351145
-0.328844
-0.3075
-0.287568
-0.26924
-0.252531
-0.237362
-0.223603
-0.211109
-0.199741
-0.189373
-0.179844
-0.170935
-0.163094
-0.463018
-0.448242
-0.433619
-0.415859
-0.394416
-0.370728
-0.346342
-0.322466
-0.299889
-0.279019
-0.259988
-0.242753
-0.22719
-0.213133
-0.200416
-0.188882
-0.178393
-0.168768
-0.15978
-0.151961
-0.464571
-0.449647
-0.434089
-0.414623
-0.391109
-0.365389
-0.339251
-0.313987
-0.290369
-0.268743
-0.249171
-0.231556
-0.215725
-0.201487
-0.18865
-0.177045
-0.166523
-0.156883
-0.147895
-0.140176
-0.463277
-0.448302
-0.431785
-0.410585
-0.385057
-0.357448
-0.329758
-0.303325
-0.278877
-0.256686
-0.236744
-0.218896
-0.202932
-0.18863
-0.175782
-0.164206
-0.153742
-0.144172
-0.135265
-0.127723
-0.458836
-0.443902
-0.426424
-0.403512
-0.376085
-0.346784
-0.317778
-0.290417
-0.265364
-0.242809
-0.222671
-0.204744
-0.188782
-0.174538
-0.161791
-0.150347
-0.140037
-0.130623
-0.121882
-0.114597
-0.450985
-0.436187
-0.41777
-0.393219
-0.364064
-0.333312
-0.303258
-0.275228
-0.249802
-0.227086
-0.206929
-0.189079
-0.173257
-0.159198
-0.146666
-0.13546
-0.1254
-0.116235
-0.107747
-0.100797
-0.439516
-0.424944
-0.40564
-0.379574
-0.348914
-0.31699
-0.286175
-0.257743
-0.232181
-0.209507
-0.189509
-0.171892
-0.156351
-0.142604
-0.130403
-0.119544
-0.109837
-0.101014
-0.0928705
-0.0863334
-0.424273
-0.41002
-0.389912
-0.362503
-0.3306
-0.297809
-0.266534
-0.237971
-0.212508
-0.19008
-0.170417
-0.153188
-0.138067
-0.124759
-0.11301
-0.102608
-0.0933572
-0.0849764
-0.0772729
-0.0712294
-0.405165
-0.391321
-0.370524
-0.341985
-0.309137
-0.275802
-0.244372
-0.215947
-0.190813
-0.168827
-0.149669
-0.132981
-0.118418
-0.105678
-0.0944993
-0.0846683
-0.075981
-0.0681465
-0.0609854
-0.0555232
-0.382162
-0.36882
-0.347476
-0.318057
-0.284585
-0.251037
-0.219755
-0.191729
-0.167144
-0.145789
-0.127302
-0.1113
-0.0974295
-0.0853806
-0.0748904
-0.0657428
-0.0577285
-0.0505501
-0.044043
-0.0392571
-0.3553
-0.342554
-0.320831
-0.290809
-0.257048
-0.223618
-0.192776
-0.165398
-0.141572
-0.121025
-0.103361
-0.0881837
-0.0751317
-0.0638932
-0.0542053
-0.0458517
-0.0386198
-0.0322117
-0.0264772
-0.0224548
-0.324679
-0.312624
-0.29071
-0.260382
-0.226671
-0.193681
-0.163561
-0.137064
-0.114189
-0.094611
-0.0779113
-0.0636827
-0.0515638
-0.0412448
-0.0324662
-0.025013
-0.0186734
-0.0131555
-0.00831168
-0.00510894
-0.290463
-0.279192
-0.257294
-0.226966
-0.193639
-0.1614
-0.132263
-0.10686
-0.0851096
-0.066645
-0.0510312
-0.0378588
-0.0267708
-0.0174651
-0.00968973
-0.00323604
0.00210167
0.00660556
0.0104441
0.012781
-0.252871
-0.242477
-0.22081
-0.190792
-0.158177
-0.126978
-0.0990632
-0.0749458
-0.0544736
-0.0372461
-0.0228201
-0.0107899
-0.000808974
0.00741158
0.0141094
0.0194809
0.0237198
0.0270917
0.0297872
0.0310934
-0.212181
-0.202754
-0.181538
-0.152134
-0.120539
-0.0906486
-0.0641726
-0.0415101
-0.0224467
-0.00655774
0.00660188
0.0174279
0.0262506
0.0333378
0.0389049
0.0431323
0.0461977
0.0483126
0.0496048
0.0494449
-0.168713
-0.160341
-0.139795
-0.1113
-0.0810128
-0.0526756
-0.0278302
-0.00676832
0.0107784
0.0252523
0.0370951
0.0466883
0.054339
0.0602835
0.0647033
0.0677577
0.0695846
0.0702245
0.0695807
0.0673931
-0.122834
-0.115597
-0.0959352
-0.0686265
-0.0399136
-0.0133484
0.00969737
0.0290335
0.0449759
0.0579812
0.0684883
0.0768658
0.0833991
0.0882905
0.091685
0.0937106
0.0943931
0.0933846
0.0902361
0.0859506
-0.0749431
-0.0689133
-0.0503392
-0.0244759
0.00242281
0.0270212
0.0481182
0.0656182
0.0798792
0.0913713
0.100535
0.107738
0.113262
0.11731
0.120038
0.121592
0.121875
0.120056
0.115444
0.110783
-0.0254663
-0.0207086
-0.00341009
0.0207735
0.0456452
0.0681063
0.0871233
0.102687
0.11519
0.125114
0.132899
0.138918
0.143469
0.14679
0.14912
0.150733
0.151605
0.150772
0.147974
0.151362
0.025158
0.028587
0.044438
0.0667336
0.0893942
0.109573
0.126398
0.139937
0.150609
0.158899
0.165242
0.170006
0.173486
0.175933
0.177604
0.178758
0.179385
0.179023
0.178548
0.184067
0.0764724
0.0785276
0.0927812
0.113011
0.133308
0.151086
0.165629
0.17707
0.185849
0.192446
0.19729
0.200736
0.203077
0.204562
0.205436
0.205918
0.205992
0.20537
0.204944
0.209374
0.128016
0.128664
0.141195
0.159215
0.177029
0.192318
0.204511
0.213799
0.220633
0.225485
0.228768
0.230824
0.231932
0.232327
0.232238
0.231857
0.231184
0.229997
0.229033
0.231993
0.179329
0.178551
0.18926
0.204959
0.220207
0.23295
0.242752
0.249855
0.254713
0.257786
0.259469
0.260084
0.259891
0.259109
0.257939
0.256548
0.25492
0.252862
0.25105
0.252637
0.229957
0.227746
0.236563
0.249868
0.262502
0.272674
0.280073
0.284982
0.287856
0.289137
0.289199
0.288345
0.286814
0.284805
0.282498
0.280032
0.277377
0.27436
0.271626
0.271897
0.279457
0.275822
0.282705
0.29358
0.303589
0.311196
0.31621
0.318943
0.319847
0.319345
0.317791
0.315464
0.312584
0.309331
0.305863
0.302295
0.298588
0.294595
0.290934
0.28996
0.3274
0.322363
0.327301
0.335746
0.343155
0.348238
0.35091
0.35151
0.350483
0.348233
0.34509
0.341312
0.3371
0.332615
0.327997
0.32334
0.318599
0.313655
0.309089
0.306932
0.373376
0.366975
0.369985
0.376037
0.380903
0.383533
0.383936
0.382472
0.379576
0.375632
0.370948
0.365763
0.360257
0.354576
0.34884
0.343128
0.337394
0.331543
0.326112
0.322832
0.416993
0.40928
0.410411
0.414139
0.416556
0.416832
0.415063
0.411627
0.406945
0.401383
0.395226
0.388695
0.381953
0.375128
0.368326
0.361612
0.354941
0.348237
0.341986
0.337645
0.457884
0.448927
0.448253
0.44976
0.44985
0.4479
0.444082
0.438785
0.432421
0.425334
0.41779
0.40999
0.402083
0.394182
0.386379
0.378726
0.371182
0.363689
0.356669
0.351333
0.49571
0.485587
0.483209
0.482629
0.480544
0.476519
0.470795
0.463771
0.455844
0.447341
0.438509
0.429533
0.420546
0.411649
0.402919
0.3944
0.386055
0.377838
0.370106
0.363847
0.530156
0.518962
0.515005
0.512498
0.508414
0.502489
0.495023
0.48642
0.477066
0.467271
0.457264
0.447215
0.437243
0.427438
0.417866
0.40856
0.399491
0.39062
0.382238
0.375135
0.560939
0.548779
0.54339
0.539141
0.533259
0.525628
0.5166
0.506583
0.495952
0.484999
0.473941
0.462932
0.452081
0.441465
0.43114
0.421134
0.411422
0.40197
0.393006
0.385143
0.587806
0.574797
0.568143
0.562361
0.554899
0.545774
0.535379
0.524126
0.512378
0.500415
0.488438
0.476591
0.464972
0.453649
0.442668
0.432053
0.421782
0.411827
0.402352
0.393823
0.610539
0.596807
0.589072
0.581982
0.573177
0.562785
0.551231
0.538931
0.526238
0.513419
0.500665
0.488109
0.47584
0.463919
0.452385
0.441255
0.430514
0.420134
0.410225
0.401128
0.628952
0.614632
0.606014
0.597859
0.587963
0.576542
0.564048
0.5509
0.537441
0.523928
0.510545
0.497414
0.484619
0.472214
0.460231
0.448686
0.437565
0.426842
0.416581
0.407022
0.642897
0.628129
0.618839
0.609874
0.599149
0.586947
0.573742
0.55995
0.54591
0.531873
0.518012
0.504447
0.491254
0.478482
0.466161
0.454301
0.442893
0.431911
0.421382
0.411472
0.652261
0.637192
0.627448
0.617937
0.606655
0.593928
0.580245
0.566021
0.551591
0.537201
0.523021
0.509163
0.495703
0.482686
0.470136
0.458065
0.446465
0.43531
0.4246
0.414453
0.656967
0.641746
0.631775
0.621988
0.610426
0.597436
0.583512
0.569071
0.554446
0.539878
0.525537
0.511532
0.497938
0.484797
0.472134
0.459957
0.44826
0.437017
0.426217
0.415951
0.656979
0.641758
0.631785
0.621999
0.610436
0.597445
0.583521
0.569079
0.554453
0.539886
0.525544
0.51154
0.497945
0.484804
0.47214
0.459963
0.448266
0.437023
0.426222
0.415957
0.652295
0.637225
0.62748
0.617967
0.606684
0.593956
0.580271
0.566046
0.551615
0.537224
0.523043
0.509184
0.495724
0.482706
0.470156
0.458084
0.446484
0.435328
0.424618
0.41447
0.642954
0.628185
0.618893
0.609925
0.599197
0.586993
0.573785
0.559991
0.54595
0.531911
0.518049
0.504482
0.491288
0.478516
0.466193
0.454332
0.442924
0.431941
0.421411
0.4115
0.629032
0.61471
0.606089
0.59793
0.58803
0.576605
0.564109
0.550957
0.537496
0.523981
0.510596
0.497463
0.484667
0.47226
0.460276
0.44873
0.437608
0.426884
0.416622
0.407062
0.610641
0.596908
0.589169
0.582073
0.573264
0.562867
0.551309
0.539005
0.526309
0.513488
0.500731
0.488173
0.475902
0.463979
0.452443
0.441312
0.430569
0.420188
0.410278
0.40118
0.587931
0.57492
0.568261
0.562472
0.555004
0.545874
0.535473
0.524216
0.512465
0.500498
0.488519
0.476669
0.465047
0.453722
0.442739
0.432122
0.42185
0.411893
0.402417
0.393885
0.561086
0.548924
0.543529
0.539273
0.533383
0.525746
0.516711
0.50669
0.496054
0.485097
0.474036
0.463023
0.452169
0.441551
0.431223
0.421216
0.411501
0.402048
0.393082
0.385217
0.530325
0.519128
0.515165
0.512649
0.508557
0.502625
0.495151
0.486543
0.477184
0.467384
0.457373
0.44732
0.437345
0.427537
0.417962
0.408654
0.399583
0.390709
0.382326
0.37522
0.495901
0.485775
0.48339
0.4828
0.480705
0.476672
0.470941
0.46391
0.455977
0.447469
0.438632
0.429652
0.420662
0.411761
0.403028
0.394506
0.386159
0.377939
0.370205
0.363943
0.458097
0.449135
0.448453
0.44995
0.45003
0.448071
0.444244
0.43894
0.432569
0.425476
0.417927
0.410123
0.402212
0.394307
0.3865
0.378844
0.371298
0.363802
0.356779
0.35144
0.417227
0.40951
0.410632
0.414348
0.416754
0.41702
0.415242
0.411797
0.407108
0.40154
0.395378
0.388841
0.382094
0.375265
0.368459
0.361742
0.355068
0.348362
0.342108
0.337764
0.373631
0.367225
0.370226
0.376265
0.38112
0.383738
0.38413
0.382658
0.379754
0.375803
0.371113
0.365922
0.360412
0.354726
0.348986
0.34327
0.337533
0.331679
0.326246
0.322962
0.327676
0.322634
0.327561
0.335994
0.343388
0.348459
0.351121
0.351712
0.350676
0.348418
0.345268
0.341485
0.337268
0.332778
0.328155
0.323494
0.318749
0.313802
0.309234
0.307072
0.279753
0.276112
0.282984
0.293845
0.30384
0.311434
0.316436
0.319159
0.320054
0.319545
0.317983
0.31565
0.312765
0.309506
0.306033
0.302461
0.29875
0.294754
0.291089
0.290111
0.230272
0.228056
0.236861
0.250152
0.262771
0.272928
0.280316
0.285214
0.288078
0.28935
0.289405
0.288544
0.287007
0.284992
0.28268
0.28021
0.27755
0.27453
0.271792
0.272059
0.179663
0.178879
0.189576
0.20526
0.220492
0.23322
0.24301
0.250101
0.254949
0.258013
0.259688
0.260296
0.260097
0.259309
0.258134
0.256738
0.255105
0.253043
0.251227
0.25281
0.128369
0.129011
0.141529
0.159533
0.177331
0.192604
0.204783
0.214059
0.220883
0.225726
0.229001
0.231049
0.23215
0.232539
0.232444
0.232059
0.23138
0.23019
0.229222
0.232177
0.0768427
0.0788918
0.0931325
0.113346
0.133626
0.151388
0.165916
0.177344
0.186112
0.1927
0.197535
0.200974
0.203308
0.204786
0.205655
0.206131
0.2062
0.205574
0.205145
0.209569
0.0255451
0.028968
0.0448058
0.0670842
0.089727
0.109889
0.126699
0.140225
0.150886
0.159166
0.1655
0.170256
0.173729
0.176169
0.177835
0.178984
0.179606
0.179239
0.17876
0.184274
-0.0250631
-0.0203116
-0.00302659
0.0211394
0.0459928
0.0684368
0.0874386
0.102989
0.11548
0.125393
0.13317
0.139181
0.143724
0.147038
0.149363
0.150971
0.151838
0.151001
0.1482
0.151583
-0.0745248
-0.0685014
-0.0499408
-0.0240954
0.00278454
0.0273654
0.0484467
0.0659328
0.0801817
0.0916632
0.100818
0.108012
0.113529
0.117571
0.120293
0.121842
0.122121
0.120299
0.115685
0.111023
-0.122402
-0.115171
-0.0955227
-0.0682322
-0.0395384
-0.0129912
0.0100385
0.0293605
0.0452906
0.0582851
0.0687827
0.0771519
0.0836779
0.088563
0.091952
0.0939729
0.0946513
0.0936397
0.0904894
0.0862036
-0.168268
-0.159902
-0.13937
-0.110892
-0.0806249
-0.052306
-0.027477
-0.00642951
0.0111046
0.0255675
0.0374007
0.0469854
0.0546288
0.0605669
0.0649811
0.0680309
0.0698537
0.0704902
0.069844
0.0676555
-0.211723
-0.202303
-0.181101
-0.151715
-0.120139
-0.0902674
-0.063808
-0.0411602
-0.0221096
-0.0062318
0.00691806
0.0177355
0.0265508
0.0336315
0.0391929
0.0434155
0.0464766
0.0485877
0.0498769
0.0497152
-0.252404
-0.242016
-0.220362
-0.190362
-0.157766
-0.126586
-0.0986879
-0.0745855
-0.0541262
-0.0369101
-0.0224939
-0.0104724
-0.000499054
0.00771487
0.0144069
0.0197733
0.0240078
0.0273758
0.0300678
0.0313717
-0.289986
-0.278721
-0.256835
-0.226526
-0.193219
-0.160998
-0.131878
-0.10649
-0.0847527
-0.0662995
-0.0506958
-0.037532
-0.0264518
-0.0171528
-0.00938334
-0.00293484
0.00239829
0.00689807
0.010733
0.0130672
-0.324194
-0.312145
-0.290244
-0.259933
-0.226241
-0.19327
-0.163167
-0.136685
-0.113823
-0.0942567
-0.0775672
-0.0633474
-0.0512362
-0.0409241
-0.0321514
-0.0247036
-0.0183687
-0.012855
-0.00801494
-0.00481504
-0.354809
-0.342069
-0.320357
-0.290352
-0.25661
-0.223198
-0.192374
-0.165011
-0.141198
-0.120662
-0.103009
-0.0878404
-0.0747962
-0.0635645
-0.0538827
-0.0455345
-0.0383073
-0.0319036
-0.0261729
-0.0221535
-0.381665
-0.36833
-0.346996
-0.317594
-0.284141
-0.250611
-0.219345
-0.191334
-0.166763
-0.145419
-0.126942
-0.110949
-0.0970867
-0.0850446
-0.0745604
-0.0654183
-0.0574088
-0.0502347
-0.0437315
-0.0389487
-0.404665
-0.390827
-0.37004
-0.341517
-0.308687
-0.27537
-0.243956
-0.215546
-0.190425
-0.16845
-0.149303
-0.132623
-0.118069
-0.105335
-0.0941625
-0.0843369
-0.0756544
-0.0678242
-0.060667
-0.055208
-0.423771
-0.409523
-0.389425
-0.362031
-0.330145
-0.297372
-0.266113
-0.237565
-0.212115
-0.189697
-0.170044
-0.152824
-0.137711
-0.12441
-0.112667
-0.10227
-0.0930241
-0.0846475
-0.0769478
-0.0709075
-0.439013
-0.424447
-0.405152
-0.3791
-0.348456
-0.316548
-0.285749
-0.257332
-0.231783
-0.20912
-0.189132
-0.171523
-0.155989
-0.142249
-0.130054
-0.1192
-0.109497
-0.100679
-0.0925391
-0.0860051
-0.450484
-0.43569
-0.417282
-0.392744
-0.363604
-0.332868
-0.302829
-0.274813
-0.2494
-0.226694
-0.206547
-0.188705
-0.172891
-0.158838
-0.146311
-0.13511
-0.125055
-0.115894
-0.10741
-0.100463
-0.458337
-0.443408
-0.425938
-0.403037
-0.375624
-0.346338
-0.317347
-0.29
-0.264959
-0.242414
-0.222285
-0.204366
-0.188411
-0.174174
-0.161431
-0.149993
-0.139686
-0.130277
-0.121539
-0.114257
-0.462782
-0.447811
-0.431302
-0.410112
-0.384597
-0.357002
-0.329325
-0.302905
-0.278469
-0.256288
-0.236355
-0.218515
-0.202557
-0.188261
-0.175418
-0.163847
-0.153387
-0.14382
-0.134916
-0.127377
-0.464081
-0.449162
-0.43361
-0.414153
-0.390651
-0.364943
-0.338818
-0.313567
-0.289959
-0.268343
-0.24878
-0.231171
-0.215347
-0.201114
-0.188282
-0.176682
-0.166163
-0.156526
-0.147541
-0.139824
-0.462534
-0.447763
-0.433146
-0.415394
-0.393961
-0.370284
-0.34591
-0.322045
-0.299478
-0.278618
-0.259594
-0.242367
-0.226809
-0.212758
-0.200045
-0.188515
-0.178029
-0.168407
-0.159421
-0.151605
-0.458477
-0.443953
-0.43023
-0.414114
-0.394746
-0.373185
-0.350715
-0.328424
-0.30709
-0.287166
-0.268845
-0.252143
-0.23698
-0.223225
-0.210735
-0.199371
-0.189006
-0.179479
-0.170572
-0.162732
-0.452265
-0.438088
-0.425212
-0.410628
-0.393264
-0.373843
-0.353377
-0.332809
-0.312875
-0.294054
-0.276589
-0.26055
-0.245903
-0.232555
-0.220389
-0.209282
-0.199122
-0.189769
-0.181014
-0.173228
-0.444267
-0.430536
-0.418458
-0.405276
-0.389806
-0.372487
-0.354069
-0.335328
-0.316932
-0.29936
-0.282891
-0.267645
-0.253631
-0.240795
-0.229046
-0.218284
-0.208412
-0.199307
-0.190777
-0.183118
0.0920357
0.0644398
0.044061
0.0342587
0.0254672
0.0136567
0.000433053
-0.0123392
-0.0243758
-0.0360816
-0.0476909
-0.0591753
-0.0704446
-0.0814599
-0.0922306
-0.102782
-0.113141
-0.123336
-0.133404
-0.143392
0.0347164
0.0207718
0.00846938
0.00107866
-0.00438266
-0.0107558
-0.0182016
-0.0256873
-0.0326241
-0.0390705
-0.0452526
-0.0512645
-0.0570793
-0.0626494
-0.0679541
-0.0729942
-0.0777736
-0.082291
-0.0865401
-0.0905118
0.0196098
0.0133969
0.00769203
0.00300609
-0.00112723
-0.00536679
-0.0099156
-0.014581
-0.0191512
-0.023581
-0.0279313
-0.0322589
-0.0365777
-0.040879
-0.0451559
-0.0494107
-0.0536511
-0.0578854
-0.0621208
-0.0663642
0.010306
0.00640629
0.00246377
-0.00129808
-0.00489368
-0.0084449
-0.012023
-0.0156118
-0.0191634
-0.022651
-0.0260772
-0.0294541
-0.0327879
-0.0360775
-0.0393198
-0.0425131
-0.0456579
-0.0487554
-0.0518067
-0.0548128
0.00287903
-0.000283266
-0.00329541
-0.0060129
-0.00861004
-0.0112106
-0.0138258
-0.016427
-0.0189954
-0.0215293
-0.0240341
-0.0265156
-0.0289772
-0.031421
-0.0338487
-0.0362621
-0.0386635
-0.0410555
-0.0434404
-0.0458207
-0.00291083
-0.00546286
-0.00774302
-0.00971857
-0.011618
-0.0135633
-0.015547
-0.0175293
-0.0194921
-0.0214379
-0.0233736
-0.0253028
-0.0272258
-0.0291422
-0.031052
-0.0329556
-0.0348534
-0.036746
-0.0386337
-0.040517
-0.00678907
-0.00878478
-0.0105141
-0.0120063
-0.0134575
-0.01496
-0.0165014
-0.0180469
-0.0195812
-0.0211063
-0.0226281
-0.024149
-0.0256691
-0.0271874
-0.0287037
-0.0302182
-0.031731
-0.0332427
-0.0347535
-0.0362636
-0.00934387
-0.0108924
-0.0122531
-0.0134488
-0.014617
-0.0158241
-0.0170625
-0.0183074
-0.0195468
-0.0207817
-0.0220157
-0.0232508
-0.0244867
-0.0257227
-0.0269583
-0.0281935
-0.0294282
-0.0306626
-0.0318967
-0.0331304
-0.0110998
-0.0122846
-0.0133834
-0.0143833
-0.0153582
-0.0163526
-0.0173677
-0.0183896
-0.01941
-0.0204279
-0.0214453
-0.0224636
-0.0234827
-0.024502
-0.0255213
-0.0265404
-0.0275593
-0.0285779
-0.0295963
-0.0306144
-0.0124373
-0.0133241
-0.0142185
-0.015074
-0.0159069
-0.0167414
-0.0175854
-0.0184352
-0.0192858
-0.0201355
-0.0209846
-0.0218339
-0.0226835
-0.0235332
-0.0243828
-0.0252322
-0.0260813
-0.0269301
-0.0277787
-0.0286269
-0.0135558
-0.0142079
-0.0149319
-0.0156634
-0.0163775
-0.0170812
-0.0177854
-0.0184933
-0.0192032
-0.0199133
-0.0206229
-0.0213321
-0.0220413
-0.0227504
-0.0234595
-0.0241684
-0.0248772
-0.0255858
-0.0262944
-0.0270028
-0.0145367
-0.0150118
-0.0155909
-0.0162063
-0.0168111
-0.0174002
-0.0179842
-0.0185701
-0.0191585
-0.0197479
-0.0203372
-0.0209263
-0.0215153
-0.0221046
-0.0226942
-0.0232841
-0.0238743
-0.0244648
-0.0250558
-0.0256473
-0.0153706
-0.0157057
-0.0161568
-0.0166618
-0.017163
-0.0176472
-0.0181235
-0.0186003
-0.0190799
-0.0195612
-0.0200431
-0.0205253
-0.021008
-0.0214916
-0.0219762
-0.022462
-0.022949
-0.0234373
-0.023927
-0.0244182
-0.0160472
-0.0162548
-0.0165877
-0.0169904
-0.0173958
-0.0177834
-0.0181607
-0.0185376
-0.0189176
-0.0193004
-0.0196847
-0.0200702
-0.0204574
-0.0208466
-0.0212382
-0.0216323
-0.0220292
-0.0224289
-0.0228315
-0.0232371
-0.0165619
-0.0166215
-0.016823
-0.0171162
-0.0174201
-0.0177048
-0.0179766
-0.0182476
-0.0185233
-0.0188041
-0.0190888
-0.0193772
-0.0196698
-0.0199671
-0.0202697
-0.0205777
-0.0208913
-0.0212107
-0.0215359
-0.021867
-0.017053
-0.016978
-0.0170141
-0.0171413
-0.0172929
-0.0174372
-0.0175757
-0.0177184
-0.0178714
-0.018036
-0.0182115
-0.0183974
-0.018594
-0.0188015
-0.0190202
-0.0192501
-0.019491
-0.0197427
-0.0200049
-0.0202774
-0.0170117
-0.0168356
-0.0166082
-0.0164123
-0.0162739
-0.0161837
-0.0161283
-0.0161015
-0.0161027
-0.0161327
-0.0161913
-0.0162772
-0.0163889
-0.016525
-0.0166842
-0.0168651
-0.0170664
-0.0172869
-0.0175252
-0.0177801
-0.0144743
-0.0140103
-0.0135166
-0.0131248
-0.0128436
-0.0126451
-0.0125081
-0.012424
-0.0123899
-0.0124035
-0.0124617
-0.012561
-0.0126976
-0.0128682
-0.0130697
-0.0132994
-0.0135544
-0.0138325
-0.0141311
-0.014448
-0.00292307
0.000765708
0.00205091
0.0013961
0.000297906
-0.000542414
-0.0011331
-0.00166307
-0.002233
-0.0028471
-0.0034796
-0.00411386
-0.00474639
-0.00537873
-0.00601175
-0.00664477
-0.00727641
-0.00790547
-0.00853105
-0.00915247
0.00908493
0.0213621
0.0251178
0.0224901
0.018642
0.0158518
0.0140286
0.0125222
0.0109925
0.00941841
0.00787441
0.00640491
0.00501238
0.00368405
0.0024098
0.00118517
8.24774e-06
-0.00112281
-0.00221036
-0.00325697
0.127409
0.127944
0.129041
0.130691
0.132893
0.135661
0.139016
0.142979
0.147569
0.152786
0.158619
0.165006
0.17184
0.17888
0.185722
0.19156
0.194906
0.192742
0.178534
0.13737
0.118024
0.118418
0.119167
0.120291
0.121752
0.12357
0.125681
0.128112
0.130738
0.133583
0.1364
0.139185
0.141454
0.143115
0.143199
0.141349
0.135522
0.124434
0.103032
0.0656612
0.106913
0.107128
0.107509
0.108071
0.108777
0.109624
0.110533
0.111479
0.112328
0.113021
0.113328
0.113123
0.112014
0.109743
0.105655
0.0992593
0.0895774
0.0759841
0.0577911
0.0353448
0.0947751
0.0948188
0.094876
0.0949483
0.0950127
0.0950417
0.0949712
0.0947383
0.0942365
0.0933624
0.0919544
0.0898493
0.0868146
0.0826165
0.0769805
0.0696717
0.0605418
0.0495142
0.0365411
0.0208383
0.0823198
0.0822353
0.0820514
0.0817645
0.0813608
0.080807
0.0800553
0.0790384
0.0776821
0.0758902
0.0735686
0.0705952
0.0668729
0.0622763
0.0567551
0.050221
0.0426845
0.0339697
0.0238232
0.0113734
0.0701382
0.0699748
0.06964
0.06913
0.0684368
0.0675329
0.0663861
0.0649439
0.0631604
0.0609698
0.0583267
0.0551625
0.0514486
0.0471238
0.042185
0.0365561
0.0302024
0.02291
0.0144324
0.00411562
0.0586437
0.0584412
0.0580314
0.0574108
0.0565757
0.0555076
0.0541873
0.0525807
0.0506627
0.0483942
0.0457552
0.0427071
0.0392401
0.0353119
0.0309145
0.0259786
0.0204699
0.0142453
0.00716637
-0.00119279
0.0480739
0.0478597
0.0474282
0.0467762
0.0459023
0.0447953
0.0434454
0.0418324
0.0399433
0.0377545
0.035256
0.0324221
0.0292465
0.0256978
0.021772
0.0174276
0.0126619
0.00740622
0.00160503
-0.00500855
0.0385277
0.0383183
0.0378975
0.037262
0.0364109
0.0353379
0.0340385
0.0325011
0.0307192
0.0286779
0.026372
0.0237838
0.0209116
0.017736
0.0142636
0.0104766
0.00639458
0.001994
-0.00271581
-0.00783429
0.0300107
0.0298149
0.0294216
0.0288273
0.028031
0.0270287
0.0258192
0.0243959
0.022757
0.0208933
0.0188041
0.0164789
0.0139212
0.0111208
0.00809045
0.00482393
0.00135032
-0.00232581
-0.0061395
-0.01004
0.0224739
0.0222951
0.0219366
0.021394
0.0206665
0.0197511
0.0186487
0.0173561
0.015875
0.014201
0.0123377
0.0102802
0.00803639
0.00560132
0.00298984
0.00020015
-0.00273441
-0.00579223
-0.00887077
-0.0118239
0.0158421
0.015681
0.0153584
0.0148699
0.0142145
0.0133903
0.0123997
0.0112421
0.00992131
0.00843626
0.00679352
0.00499223
0.00304375
0.000947707
-0.00127823
-0.00363283
-0.00608121
-0.00859593
-0.0110609
-0.0132919
0.0100339
0.0098888
0.00959888
0.00916003
0.00857168
0.00783338
0.00694932
0.00592093
0.00475407
0.00344915
0.00201357
0.000447763
-0.00123527
-0.0030317
-0.00491833
-0.00688678
-0.00889822
-0.0109249
-0.0128555
-0.0145032
0.0049766
0.00484334
0.00457812
0.00417727
0.00364125
0.0029716
0.00217518
0.00125674
0.000225336
-0.000916109
-0.00215944
-0.00350546
-0.00494439
-0.00647493
-0.00807278
-0.00972073
-0.0113651
-0.0129634
-0.0144042
-0.0155243
0.00061682
0.000489231
0.000236329
-0.000145198
-0.000653701
-0.00128599
-0.00203192
-0.00288259
-0.00382257
-0.00484214
-0.00592542
-0.00706941
-0.00826504
-0.00952228
-0.0108325
-0.0121946
-0.0135494
-0.0148249
-0.0158543
-0.0164374
-0.00307162
-0.00320078
-0.00345587
-0.00384056
-0.00435252
-0.00498889
-0.00573761
-0.0065883
-0.00751869
-0.00851094
-0.00953108
-0.0105576
-0.011555
-0.0125243
-0.0134615
-0.0144184
-0.0153942
-0.016369
-0.0171038
-0.0172575
-0.00608681
-0.00622317
-0.00649323
-0.00690129
-0.0074456
-0.00812576
-0.00893193
-0.00985786
-0.0108825
-0.0119887
-0.0131318
-0.0142689
-0.0153142
-0.0161989
-0.0168267
-0.0172033
-0.017373
-0.0175339
-0.0176724
-0.017368
-0.00840398
-0.00854877
-0.00884104
-0.00928368
-0.00987815
-0.0106253
-0.0115245
-0.0125746
-0.0137718
-0.0151088
-0.0165673
-0.0181108
-0.0196627
-0.0210865
-0.0221525
-0.0225487
-0.0219546
-0.0202736
-0.017905
-0.0157111
-0.00998309
-0.010135
-0.0104489
-0.010925
-0.011569
-0.0123819
-0.0133744
-0.0145498
-0.015927
-0.0175126
-0.0193369
-0.0214053
-0.0237465
-0.0263081
-0.0289824
-0.0313448
-0.0325966
-0.0311782
-0.0252413
-0.0135211
-0.010782
-0.0109409
-0.0112678
-0.0117649
-0.012438
-0.0132925
-0.014341
-0.0155964
-0.0170834
-0.0188294
-0.0208831
-0.0233029
-0.0261864
-0.0296523
-0.0338632
-0.0389203
-0.0446295
-0.0495809
-0.048688
-0.0259292
0.138035
0.138619
0.139921
0.141847
0.14454
0.147901
0.152172
0.157209
0.163391
0.170507
0.179147
0.188988
0.200971
0.214584
0.231407
0.250566
0.274912
0.302798
0.339657
0.381982
0.137997
0.138581
0.139883
0.141808
0.1445
0.147859
0.152128
0.157162
0.163341
0.170452
0.179084
0.188915
0.200881
0.214473
0.231258
0.250366
0.274621
0.302371
0.338998
0.38093
0.137922
0.138505
0.139806
0.14173
0.14442
0.147776
0.152041
0.15707
0.163241
0.170342
0.178959
0.18877
0.200704
0.214253
0.230964
0.249971
0.274044
0.301524
0.337688
0.378838
0.13781
0.138393
0.139693
0.141615
0.144301
0.147653
0.151912
0.156933
0.163093
0.170179
0.178773
0.188555
0.200441
0.213927
0.230526
0.249382
0.273183
0.300261
0.335733
0.375718
0.137662
0.138245
0.139542
0.141461
0.144144
0.14749
0.151741
0.156751
0.162897
0.169962
0.178528
0.188269
0.200093
0.213494
0.229947
0.248602
0.272044
0.298591
0.333141
0.371586
0.137477
0.138059
0.139355
0.14127
0.143948
0.147287
0.151528
0.156526
0.162653
0.169693
0.178223
0.187914
0.199661
0.212956
0.22923
0.247637
0.270631
0.296523
0.329926
0.366463
0.137256
0.137838
0.139131
0.141043
0.143714
0.147045
0.151275
0.156256
0.162362
0.169372
0.17786
0.187492
0.199147
0.212317
0.228378
0.246489
0.268954
0.294071
0.3261
0.360376
0.136999
0.137581
0.138871
0.140778
0.143442
0.146765
0.150981
0.155944
0.162025
0.169001
0.17744
0.187003
0.198555
0.211578
0.227396
0.245166
0.267021
0.291249
0.321681
0.353358
0.136706
0.137288
0.138575
0.140478
0.143134
0.146446
0.150648
0.155591
0.161644
0.16858
0.176965
0.18645
0.197886
0.210742
0.226289
0.243674
0.264842
0.288071
0.316687
0.345447
0.136379
0.136961
0.138245
0.140143
0.14279
0.146091
0.150276
0.155196
0.161218
0.168111
0.176436
0.185834
0.197143
0.209813
0.225064
0.242018
0.262429
0.284557
0.311139
0.336685
0.136017
0.136599
0.13788
0.139773
0.142411
0.145699
0.149866
0.154762
0.160751
0.167596
0.175856
0.185157
0.19633
0.208794
0.223726
0.240207
0.259797
0.280722
0.305063
0.32712
0.135621
0.136204
0.137482
0.139369
0.141998
0.145273
0.14942
0.154289
0.160242
0.167036
0.175226
0.184422
0.195449
0.207688
0.222281
0.238247
0.25696
0.276587
0.298485
0.316804
0.135191
0.135776
0.137051
0.138933
0.141551
0.144812
0.148938
0.15378
0.159694
0.166432
0.174548
0.183631
0.194504
0.206501
0.220738
0.236146
0.253935
0.272169
0.291437
0.305792
0.134728
0.135316
0.136588
0.138464
0.141071
0.144318
0.148422
0.153234
0.159107
0.165787
0.173825
0.182788
0.193499
0.205236
0.219104
0.233913
0.25074
0.267488
0.283955
0.294137
0.134233
0.134824
0.136093
0.137964
0.14056
0.143792
0.147872
0.152653
0.158484
0.165102
0.173057
0.181893
0.192436
0.203897
0.217384
0.231556
0.247396
0.262561
0.276082
0.281887
0.133706
0.134301
0.135568
0.137434
0.140018
0.143234
0.14729
0.152038
0.157822
0.164375
0.172244
0.180946
0.191312
0.202483
0.215577
0.229078
0.243914
0.257403
0.267873
0.269083
0.133149
0.133748
0.135014
0.136875
0.139448
0.142647
0.146677
0.151391
0.157128
0.163613
0.171391
0.179952
0.190136
0.201003
0.213695
0.226491
0.240314
0.252029
0.259386
0.255754
0.132561
0.133168
0.134435
0.136294
0.138856
0.142042
0.14605
0.150734
0.156428
0.16285
0.170542
0.178967
0.188972
0.199531
0.211823
0.223882
0.236691
0.246495
0.25067
0.241804
0.131943
0.132559
0.13383
0.13569
0.138248
0.141425
0.145418
0.15008
0.15574
0.16211
0.169728
0.178027
0.187866
0.198123
0.210023
0.221318
0.233111
0.240845
0.241748
0.22658
0.131291
0.131909
0.133175
0.135025
0.137559
0.140709
0.144655
0.149265
0.154841
0.161114
0.168582
0.176697
0.186258
0.196148
0.207519
0.218039
0.228749
0.234596
0.232692
0.210364
0.13133
0.131948
0.133214
0.135065
0.1376
0.140752
0.1447
0.149313
0.154892
0.161169
0.168641
0.176762
0.186329
0.196227
0.207607
0.218138
0.228862
0.234727
0.232846
0.210546
0.131979
0.132595
0.133868
0.135728
0.138287
0.141466
0.145461
0.150126
0.155788
0.162162
0.169784
0.178089
0.187934
0.198198
0.210107
0.221413
0.233219
0.240969
0.241895
0.226754
0.132596
0.133202
0.13447
0.13633
0.138894
0.142081
0.146091
0.150777
0.156474
0.162899
0.170595
0.179025
0.189036
0.199602
0.211903
0.223971
0.236793
0.246612
0.250809
0.24197
0.133181
0.133781
0.135048
0.13691
0.139483
0.142683
0.146716
0.151432
0.157171
0.16366
0.171441
0.180007
0.190196
0.20107
0.21377
0.226575
0.240411
0.25214
0.259517
0.255911
0.133737
0.134332
0.1356
0.137466
0.140051
0.143268
0.147326
0.152076
0.157863
0.164419
0.172291
0.180997
0.191369
0.202546
0.215648
0.229158
0.244005
0.257508
0.267996
0.269231
0.134262
0.134853
0.136123
0.137995
0.140591
0.143824
0.147906
0.15269
0.158522
0.165143
0.173102
0.181942
0.192489
0.203956
0.21745
0.231631
0.247481
0.26266
0.276198
0.282026
0.134755
0.135343
0.136615
0.138492
0.1411
0.144348
0.148454
0.153268
0.159143
0.165825
0.173867
0.182833
0.193549
0.205291
0.219165
0.233983
0.25082
0.26758
0.284063
0.294267
0.135216
0.135801
0.137076
0.138959
0.141578
0.14484
0.148967
0.153811
0.159727
0.166468
0.174587
0.183673
0.19455
0.206552
0.220795
0.23621
0.254008
0.272255
0.291537
0.305912
0.135644
0.136228
0.137505
0.139393
0.142023
0.145299
0.149447
0.154318
0.160273
0.167069
0.175262
0.184461
0.195492
0.207736
0.222334
0.238306
0.257027
0.276666
0.298577
0.316915
0.136038
0.136621
0.137902
0.139795
0.142434
0.145723
0.149891
0.154788
0.160779
0.167626
0.175889
0.185192
0.196369
0.208837
0.223774
0.240261
0.259859
0.280794
0.305147
0.327222
0.136398
0.13698
0.138264
0.140163
0.142811
0.146113
0.150298
0.15522
0.161244
0.168139
0.176466
0.185866
0.197178
0.209852
0.225108
0.242068
0.262486
0.284622
0.311215
0.336777
0.136724
0.137306
0.138593
0.140496
0.143153
0.146466
0.150668
0.155612
0.161667