/*--------------------------------*- C++ -*----------------------------------*\
  =========                 |
  \\      /  F ield         | OpenFOAM: The Open Source CFD Toolbox
   \\    /   O peration     | Website:  https://openfoam.org
    \\  /    A nd           | Version:  6.0
     \\/     M anipulation  |
\*---------------------------------------------------------------------------*/
FoamFile
{
    version     2.0;
    format      ascii;
    class       surfaceScalarField;
    location    "35";
    object      phi;
}
// * * * * * * * * * * * * * * * * * * * * * * * * * * * * * * * * * * * * * //

dimensions      [0 3 -1 0 0 0 0];

internalField   nonuniform List<scalar> 
7840
(
3.46528e-05
-0.000245577
0.000123245
-0.000775064
0.000249154
-0.00130962
0.000393925
-0.00180679
0.000540282
-0.0022332
0.000675134
-0.00257178
0.000790846
-0.00282156
0.000884771
-0.00299278
0.00095785
-0.00310103
0.00101304
-0.00316272
0.00105402
-0.00319234
0.00108435
-0.00320127
0.00110702
-0.0031978
0.00112435
-0.00318751
0.00113801
-0.00317401
0.00114916
-0.00315954
0.00115858
-0.00314544
0.00116679
-0.00313256
0.00117415
-0.00312142
-0.00311253
0.00118082
3.61081e-05
-0.000281685
0.000125815
-0.00086477
0.000249763
-0.00143357
0.000387951
-0.00194498
0.000523111
-0.00236836
0.000643376
-0.00269205
0.000742841
-0.00292103
0.000820478
-0.00307041
0.000878378
-0.00315893
0.000920111
-0.00320445
0.000949513
-0.00322174
0.000969997
-0.00322176
0.000984266
-0.00321207
0.000994299
-0.00319754
0.00100146
-0.00318117
0.00100667
-0.00316474
0.00101052
-0.0031493
0.00101343
-0.00313547
0.00101564
-0.00312363
-0.00311417
0.00101728
3.71636e-05
-0.000318849
0.00012682
-0.000954427
0.000247123
-0.00155387
0.000377012
-0.00207487
0.00049972
-0.00249107
0.000604893
-0.00279722
0.000688376
-0.00300451
0.000750576
-0.00313261
0.000794484
-0.00320284
0.000824038
-0.00323401
0.000843054
-0.00324076
0.000854702
-0.0032334
0.000861353
-0.00321872
0.000864663
-0.00320085
0.000865727
-0.00318224
0.000865258
-0.00316427
0.000863722
-0.00314776
0.000861424
-0.00313317
0.000858557
-0.00312076
-0.00311081
0.000855203
3.77812e-05
-0.00035663
0.000126212
-0.00104286
0.000241306
-0.00166896
0.000361454
-0.00219502
0.00047083
-0.00260045
0.000560762
-0.00288715
0.000628771
-0.00307252
0.000676486
-0.00318033
0.000707548
-0.0032339
0.00072606
-0.00325252
0.000735686
-0.00325038
0.000739292
-0.00323701
0.000738917
-0.00321834
0.000735918
-0.00319785
0.000731161
-0.00317748
0.000725193
-0.0031583
0.00071837
-0.00314094
0.000710928
-0.00312573
0.000703015
-0.00311285
-0.00310249
0.00069469
3.79343e-05
-0.000394564
0.000123988
-0.00112891
0.000232462
-0.00177744
0.000341718
-0.00230427
0.000437212
-0.00269594
0.00051203
-0.00296197
0.000565232
-0.00312572
0.000599436
-0.00321453
0.00061871
-0.00325317
0.000627157
-0.00326097
0.000628203
-0.00325143
0.000624384
-0.00323319
0.000617421
-0.00321138
0.000608407
-0.00318884
0.000598015
-0.00316709
0.000586661
-0.00314695
0.000574617
-0.0031289
0.000562069
-0.00311318
0.000549131
-0.00309991
-0.00308921
0.000535851
3.76085e-05
-0.000432173
0.000120185
-0.00121149
0.000220812
-0.00187806
0.000318299
-0.00240176
0.000399643
-0.00277729
0.000459679
-0.00302201
0.000498824
-0.00316487
0.000520461
-0.00323617
0.000528891
-0.0032616
0.000528095
-0.00326017
0.000521207
-0.00324454
0.000510431
-0.00322242
0.000497197
-0.00319815
0.000482373
-0.00317401
0.000466473
-0.00315119
0.000449808
-0.00313029
0.000432585
-0.00311167
0.000414951
-0.00309555
0.000397004
-0.00308196
-0.00307099
0.000378784
3.68014e-05
-0.000468974
0.000114881
-0.00128957
0.000206623
-0.00196981
0.00029172
-0.00248686
0.000358876
-0.00284444
0.0004046
-0.00306773
0.00043047
-0.00319074
0.000440422
-0.00324612
0.00043883
-0.00326001
0.000429468
-0.00325081
0.000415151
-0.00323022
0.000397769
-0.00320504
0.000378492
-0.00317887
0.000357999
-0.00315352
0.000336676
-0.00312986
0.000314748
-0.00310836
0.000292373
-0.0030893
0.00026967
-0.00307284
0.000246725
-0.00305902
-0.00304784
0.000223578
3.55215e-05
-0.000504496
0.000108178
-0.00136222
0.000190193
-0.00205182
0.000262506
-0.00255917
0.000315617
-0.00289755
0.000347588
-0.0030997
0.000360955
-0.00320411
0.000360022
-0.00324519
0.000349112
-0.0032491
0.000331732
-0.00323343
0.000310375
-0.00320887
0.000286643
-0.0031813
0.000261483
-0.00315371
0.000235419
-0.00312745
0.000208728
-0.00310317
0.000181573
-0.0030812
0.000154065
-0.00306179
0.000126304
-0.00304508
9.83718e-05
-0.00303108
-0.00301978
7.03144e-05
3.37871e-05
-0.000538283
0.000100205
-0.00142864
0.000171836
-0.00212345
0.000231166
-0.0026185
0.00027051
-0.0029369
0.000289336
-0.00311853
0.000290942
-0.00320571
0.000279837
-0.00323408
0.000260199
-0.00322946
0.000235239
-0.00320847
0.000207138
-0.00318076
0.00017724
-0.00315141
0.000146306
-0.00312277
0.000114733
-0.00309588
8.27139e-05
-0.00307115
5.03531e-05
-0.00304884
1.77283e-05
-0.00302917
-1.50795e-05
-0.00301228
-4.79861e-05
-0.00299818
-0.00298684
-8.09341e-05
3.16254e-05
-0.000569908
9.1105e-05
-0.00148812
0.000151871
-0.00218422
0.000198182
-0.00266481
0.000224139
-0.00296285
0.000230445
-0.00312484
0.000220982
-0.00319625
0.000200331
-0.00321343
0.000172458
-0.00320159
0.000140264
-0.00317628
0.000105639
-0.00314614
6.97024e-05
-0.00311547
3.30628e-05
-0.00308613
-3.98287e-06
-0.00305884
-4.13075e-05
-0.00303383
-7.88573e-05
-0.00301129
-0.000116588
-0.00299144
-0.000154433
-0.00297443
-0.000192301
-0.00296031
-0.00294902
-0.000230117
2.90703e-05
-0.000598979
8.10302e-05
-0.00154008
0.000130611
-0.0022338
0.000164003
-0.0026982
0.000177019
-0.00297587
0.00017143
-0.00311925
0.000151535
-0.00317635
0.000121885
-0.00318378
8.61852e-05
-0.00316589
4.70282e-05
-0.00313712
6.03756e-06
-0.00310515
-3.58561e-05
-0.00307358
-7.81659e-05
-0.00304382
-0.00012067
-0.00301633
-0.000163294
-0.0029912
-0.000206028
-0.00296856
-0.00024886
-0.0029486
-0.00029174
-0.00293155
-0.000334564
-0.00291749
-0.00290635
-0.000377232
2.61615e-05
-0.00062514
7.01387e-05
-0.00158406
0.000108358
-0.00227202
0.000129039
-0.00271889
0.000129606
-0.00297643
0.000112731
-0.00310237
8.29891e-05
-0.00314661
4.48135e-05
-0.00314561
1.62539e-06
-0.0031227
-4.42831e-05
-0.00309121
-9.15265e-05
-0.00305791
-0.000139333
-0.00302577
-0.000187308
-0.00299585
-0.000235282
-0.00296836
-0.00028322
-0.00294327
-0.000331148
-0.00292063
-0.000379095
-0.00290066
-0.000427028
-0.00288362
-0.00047483
-0.00286968
-0.00285882
-0.000522362
2.2943e-05
-0.000648083
5.8589e-05
-0.0016197
8.5396e-05
-0.00229883
9.36627e-05
-0.00272715
8.23011e-05
-0.00296507
5.47274e-05
-0.0030748
1.56717e-05
-0.00310756
-3.06136e-05
-0.00309932
-8.10063e-05
-0.00307231
-0.000133499
-0.00303872
-0.000186918
-0.00300449
-0.000240623
-0.00297206
-0.000294286
-0.00294219
-0.000347771
-0.00291487
-0.000401063
-0.00288997
-0.000454223
-0.00286747
-0.000507319
-0.00284756
-0.000560354
-0.00283058
-0.000613198
-0.00281684
-0.00280636
-0.000665653
1.94618e-05
-0.000667545
4.65369e-05
-0.00164678
6.1992e-05
-0.00231428
5.82087e-05
-0.00272337
3.54566e-05
-0.00294232
-2.2514e-06
-0.00303709
-5.01315e-05
-0.00305968
-0.000104157
-0.0030453
-0.00016151
-0.00301495
-0.000220449
-0.00297978
-0.00027999
-0.00294494
-0.000339603
-0.00291245
-0.000399007
-0.00288278
-0.000458077
-0.0028558
-0.000516799
-0.00283125
-0.000575256
-0.00280902
-0.000633563
-0.00278925
-0.000691772
-0.00277237
-0.000749752
-0.00275886
-0.00274891
-0.000807212
1.57666e-05
-0.000683312
3.41335e-05
-0.00166515
3.83931e-05
-0.00231854
2.29788e-05
-0.00270795
-1.06174e-05
-0.00290872
-5.79174e-05
-0.00298979
-0.000114166
-0.00300343
-0.000175594
-0.00298387
-0.000239684
-0.00295086
-0.000304946
-0.00291452
-0.000370566
-0.00287932
-0.00043611
-0.00284691
-0.000501334
-0.00281756
-0.000566103
-0.00279103
-0.000630385
-0.00276697
-0.000694253
-0.00274515
-0.000757866
-0.00272564
-0.000821338
-0.0027089
-0.000884553
-0.00269564
-0.00268638
-0.000947081
1.19072e-05
-0.000695219
2.15231e-05
-0.00167476
1.48259e-05
-0.00231184
-1.17577e-05
-0.00268137
-5.5647e-05
-0.00286484
-0.000112015
-0.00293342
-0.0001762
-0.00293924
-0.000244709
-0.00291536
-0.000315319
-0.00288026
-0.000386774
-0.00284306
-0.000458421
-0.00280768
-0.000529917
-0.00277541
-0.000601053
-0.00274642
-0.000671683
-0.0027204
-0.000741727
-0.00269693
-0.000811216
-0.00267566
-0.000880317
-0.00265654
-0.000949219
-0.00264
-0.00101784
-0.00262702
-0.00261858
-0.00108564
7.93288e-06
-0.000703152
8.84105e-06
-0.00167567
-8.50407e-06
-0.0022945
-4.57619e-05
-0.00264411
-9.93911e-05
-0.00281121
-0.000164315
-0.0028685
-0.000236016
-0.00286754
-0.000311288
-0.00284009
-0.000388188
-0.00280336
-0.000465682
-0.00276557
-0.00054327
-0.00273009
-0.000620708
-0.00269797
-0.000697838
-0.00266929
-0.000774515
-0.00264373
-0.000850608
-0.00262083
-0.000926074
-0.00260019
-0.00100106
-0.00258156
-0.00107583
-0.00256523
-0.00115038
-0.00255247
-0.0025446
-0.00122436
3.89168e-06
-0.000707043
-3.787e-06
-0.00166799
-3.14127e-05
-0.00226687
-7.8824e-05
-0.0025967
-0.000141639
-0.00274839
-0.000214614
-0.00279552
-0.000293413
-0.00278874
-0.000375116
-0.00275838
-0.000458047
-0.00272042
-0.00054138
-0.00268224
-0.000624766
-0.0026467
-0.000708076
-0.00261466
-0.000791236
-0.00258613
-0.000874141
-0.00256082
-0.000956645
-0.00253833
-0.00103863
-0.0025182
-0.0011202
-0.00249999
-0.00120172
-0.0024837
-0.00128342
-0.00247077
-0.00246216
-0.00136586
-1.70775e-07
-0.000706873
-1.62476e-05
-0.00165192
-5.37389e-05
-0.00222938
-0.000110764
-0.00253968
-0.00018221
-0.00267695
-0.000262735
-0.002715
-0.000348205
-0.00270327
-0.000435979
-0.00267061
-0.000524631
-0.00263177
-0.000613526
-0.00259334
-0.000702467
-0.00255776
-0.000791462
-0.00252567
-0.000880574
-0.00249702
-0.000969833
-0.00247156
-0.00105918
-0.00244898
-0.00114852
-0.00242887
-0.00123783
-0.00241068
-0.00132747
-0.00239407
-0.00141799
-0.00238024
-0.00236803
-0.00151212
-4.21244e-06
-0.00070266
-2.84408e-05
-0.00162769
-7.53459e-05
-0.00218248
-0.000141435
-0.00247359
-0.00022096
-0.00259742
-0.000308536
-0.00262742
-0.000400238
-0.00261157
-0.000493687
-0.00257716
-0.000587678
-0.00253778
-0.000681739
-0.00249928
-0.000775806
-0.00246369
-0.000870022
-0.00243145
-0.000964633
-0.00240241
-0.00105992
-0.00237627
-0.00115617
-0.00235273
-0.00125357
-0.00233147
-0.00135225
-0.002312
-0.00145275
-0.00229356
-0.00155731
-0.00227569
-0.00226964
-0.0016557
-8.18371e-06
-0.000694476
-4.02622e-05
-0.00159561
-9.61002e-05
-0.00212664
-0.000170699
-0.00239899
-0.000257762
-0.00251036
-0.000351898
-0.00253329
-0.000449392
-0.00251408
-0.000548101
-0.00247845
-0.000647
-0.00243888
-0.000745732
-0.00240055
-0.000844302
-0.00236512
-0.0009429
-0.00233286
-0.00104185
-0.00230346
-0.00114159
-0.00227652
-0.00124276
-0.00225157
-0.00134616
-0.00222806
-0.00145268
-0.00220549
-0.00156271
-0.00218353
-0.0016772
-0.0021612
-0.00213151
-0.00181534
-1.20733e-05
-0.000682403
-5.16784e-05
-0.001556
-0.00011596
-0.00206236
-0.000198522
-0.00231643
-0.000292597
-0.00241628
-0.000392818
-0.00243307
-0.000495676
-0.00241122
-0.00059924
-0.00237489
-0.000702632
-0.00233549
-0.00080557
-0.00229761
-0.000908066
-0.00226263
-0.00101025
-0.00223067
-0.00111232
-0.0022014
-0.00121447
-0.00217437
-0.00131696
-0.00214908
-0.00141997
-0.00212505
-0.00152358
-0.00210188
-0.00162801
-0.0020791
-0.00173396
-0.00205525
-0.00202687
-0.00183859
-1.58423e-05
-0.000666561
-6.26157e-05
-0.00150923
-0.000134841
-0.00199013
-0.00022483
-0.00222644
-0.000325412
-0.0023157
-0.000431267
-0.00232721
-0.000539088
-0.0023034
-0.000647132
-0.00226684
-0.000754652
-0.00222797
-0.000861432
-0.00219083
-0.000967505
-0.00215656
-0.00107299
-0.00212518
-0.00117804
-0.00209636
-0.00128277
-0.00206964
-0.00138727
-0.00204458
-0.00149156
-0.00202076
-0.0015956
-0.00199783
-0.00169936
-0.00197535
-0.00180213
-0.00195248
-0.0019284
-0.0019006
-1.94686e-05
-0.000647092
-7.30324e-05
-0.00145567
-0.000152701
-0.00191046
-0.000249597
-0.00212954
-0.000356205
-0.00220909
-0.000467273
-0.00221614
-0.000579682
-0.00219099
-0.00069186
-0.00215466
-0.000803167
-0.00211667
-0.000913436
-0.00208056
-0.0010227
-0.00204729
-0.00113106
-0.00201682
-0.0012386
-0.00198881
-0.00134539
-0.00196285
-0.00145143
-0.00193854
-0.00155664
-0.00191555
-0.00166089
-0.00189359
-0.00176389
-0.00187234
-0.001865
-0.00185137
-0.00183025
-0.00196314
-2.29343e-05
-0.000624158
-8.2898e-05
-0.0013957
-0.000169515
-0.00182385
-0.000272818
-0.00202624
-0.000384999
-0.00209691
-0.000500886
-0.00210026
-0.000617542
-0.00207433
-0.000733552
-0.00203865
-0.000848373
-0.00200184
-0.000961884
-0.00196705
-0.00107413
-0.00193505
-0.00118519
-0.00190577
-0.00129513
-0.00187887
-0.00140399
-0.00185399
-0.00151174
-0.00183079
-0.00161832
-0.00180897
-0.00172358
-0.00178833
-0.00182727
-0.00176865
-0.00192899
-0.00174965
-0.00173107
-0.00202817
-2.62253e-05
-0.000597933
-9.21911e-05
-0.00132974
-0.00018527
-0.00173077
-0.000294499
-0.00191701
-0.000411824
-0.00197959
-0.000532164
-0.00197992
-0.000652753
-0.00195374
-0.000772321
-0.00191909
-0.000890414
-0.00188375
-0.00100695
-0.00185051
-0.00112199
-0.00182001
-0.00123562
-0.00179214
-0.0013479
-0.00176659
-0.00145886
-0.00174303
-0.00156849
-0.00172116
-0.00167673
-0.00170074
-0.00178347
-0.00168159
-0.00188857
-0.00166355
-0.00199183
-0.00164639
-0.00162994
-0.00209296
-2.93306e-05
-0.000568602
-0.000100897
-0.00125817
-0.000199962
-0.0016317
-0.000314656
-0.00180232
-0.000436721
-0.00185752
-0.00056117
-0.00185547
-0.000685404
-0.00182951
-0.000808282
-0.00179621
-0.000929433
-0.0017626
-0.00104882
-0.00173112
-0.00116651
-0.00170231
-0.00128262
-0.00167603
-0.0013972
-0.001652
-0.00151031
-0.00162992
-0.00162195
-0.00160951
-0.0017321
-0.00159059
-0.00184071
-0.00157298
-0.00194772
-0.00155655
-0.00205303
-0.00154108
-0.00152648
-0.00215649
-3.22415e-05
-0.000536361
-0.000109007
-0.0011814
-0.000213592
-0.00152712
-0.000333308
-0.0016826
-0.000459728
-0.0017311
-0.000587964
-0.00172723
-0.000715569
-0.0017019
-0.000841527
-0.00167025
-0.000965539
-0.00163859
-0.00108761
-0.00160905
-0.00120784
-0.00158208
-0.00132633
-0.00155754
-0.00144319
-0.00153515
-0.00155846
-0.00151464
-0.0016722
-0.00149578
-0.0017844
-0.00147838
-0.00189508
-0.0014623
-0.00200421
-0.00144741
-0.00211179
-0.0014335
-0.00142053
-0.00221774
-3.49513e-05
-0.000501409
-0.000116514
-0.00109984
-0.000226164
-0.00141747
-0.000350477
-0.00155829
-0.000480883
-0.0016007
-0.000612596
-0.00159552
-0.000743312
-0.00157119
-0.000872128
-0.00154143
-0.000998813
-0.0015119
-0.00112341
-0.00148446
-0.00124604
-0.00145945
-0.00136683
-0.00143674
-0.0014859
-0.00141608
-0.00160333
-0.00139721
-0.00171918
-0.00137993
-0.0018335
-0.00136406
-0.00194632
-0.00134949
-0.00205767
-0.00133606
-0.00216758
-0.0013236
-0.00131208
-0.00227602
-3.74544e-05
-0.000463955
-0.000123414
-0.00101388
-0.000237683
-0.0013032
-0.000366178
-0.00142979
-0.000500215
-0.00146666
-0.000635107
-0.00146063
-0.000768682
-0.00143761
-0.000900139
-0.00140998
-0.00102931
-0.00138273
-0.00115627
-0.0013575
-0.00128117
-0.00133455
-0.00140415
-0.00131376
-0.00152535
-0.00129488
-0.00164487
-0.00127769
-0.0017628
-0.001262
-0.00187921
-0.00124766
-0.00199416
-0.00123454
-0.00210771
-0.00122251
-0.00221991
-0.0012114
-0.00120122
-0.00233078
-3.97459e-05
-0.000424209
-0.000129702
-0.000923926
-0.000248154
-0.00118475
-0.000380429
-0.00129752
-0.000517752
-0.00132934
-0.00065553
-0.00132285
-0.000791714
-0.00130143
-0.000925593
-0.0012761
-0.00105705
-0.00125127
-0.00118621
-0.00122834
-0.00131323
-0.00120753
-0.00143827
-0.00118871
-0.00156149
-0.00117166
-0.00168301
-0.00115617
-0.00180294
-0.00114207
-0.00192136
-0.00112923
-0.00203837
-0.00111753
-0.00215404
-0.00110684
-0.00226843
-0.00109701
-0.00108806
-0.00238158
-4.18216e-05
-0.000382388
-0.000135376
-0.000830372
-0.000257579
-0.00106254
-0.000393241
-0.00116186
-0.000533511
-0.00118907
-0.000673887
-0.00118247
-0.000812432
-0.00116288
-0.000948513
-0.00114002
-0.00108207
-0.00111772
-0.00121324
-0.00109717
-0.00134221
-0.00107856
-0.00146917
-0.00106175
-0.00159427
-0.00104655
-0.00171767
-0.00103278
-0.00183947
-0.00102027
-0.00195979
-0.00100891
-0.00207873
-0.000998593
-0.00219637
-0.000989195
-0.00231281
-0.000980573
-0.000972789
-0.00242808
-4.36776e-05
-0.00033871
-0.000140432
-0.000733618
-0.000265961
-0.000937012
-0.000404623
-0.00102319
-0.000547507
-0.00104618
-0.000690195
-0.00103978
-0.000830848
-0.00102223
-0.000968906
-0.00100196
-0.00110435
-0.000982277
-0.00123734
-0.000964181
-0.00136809
-0.000947813
-0.00149679
-0.000933051
-0.00162362
-0.000919723
-0.00174873
-0.000907666
-0.00187226
-0.000896745
-0.00199433
-0.000886846
-0.00211504
-0.000877879
-0.0022345
-0.000869731
-0.0023528
-0.000862276
-0.000855586
-0.00247
-4.53105e-05
-0.0002934
-0.000144866
-0.000634062
-0.0002733
-0.000808578
-0.000414579
-0.000881915
-0.000559748
-0.000901013
-0.000704463
-0.000895069
-0.000846971
-0.00087972
-0.000986773
-0.000862158
-0.00112389
-0.000845163
-0.0012585
-0.000829568
-0.00139083
-0.00081548
-0.0015211
-0.000802789
-0.00164947
-0.000791347
-0.00177613
-0.000781011
-0.00190121
-0.000771665
-0.00202484
-0.000763212
-0.00214715
-0.00075557
-0.00226824
-0.00074864
-0.0023882
-0.000742314
-0.000736666
-0.00250712
-4.67168e-05
-0.000246683
-0.000148676
-0.000532103
-0.000279596
-0.000677658
-0.000423114
-0.000738397
-0.000570239
-0.000753888
-0.000716695
-0.000748614
-0.000860801
-0.000735614
-0.00100211
-0.000720847
-0.00114067
-0.0007066
-0.0012767
-0.000693547
-0.00141041
-0.000681767
-0.00154203
-0.000671166
-0.00167176
-0.000661618
-0.00179977
-0.000653005
-0.0019262
-0.000645228
-0.00205121
-0.000638205
-0.00217491
-0.000631867
-0.00229743
-0.000626129
-0.00241884
-0.0006209
-0.000616253
-0.00253925
-4.78937e-05
-0.000198789
-0.000151857
-0.000428139
-0.000284847
-0.000544669
-0.000430228
-0.000593016
-0.000578983
-0.000605133
-0.000726892
-0.000600705
-0.000872336
-0.00059017
-0.00101491
-0.000578271
-0.00115469
-0.000566819
-0.0012919
-0.000556338
-0.00142678
-0.000546889
-0.00155955
-0.000538392
-0.00169043
-0.000530745
-0.00181958
-0.000523855
-0.00194717
-0.000517639
-0.00207334
-0.000512035
-0.00219822
-0.000506983
-0.00232193
-0.000502415
-0.00244457
-0.00049826
-0.000494581
-0.00256625
-4.88386e-05
-0.00014995
-0.000154407
-0.000322571
-0.00028905
-0.000410025
-0.00043592
-0.000446146
-0.000585979
-0.000455074
-0.000735053
-0.000451631
-0.000881572
-0.00044365
-0.00102517
-0.000434677
-0.00116593
-0.000426054
-0.0013041
-0.000418171
-0.00143992
-0.000411069
-0.00157362
-0.000404686
-0.00170542
-0.000398945
-0.0018355
-0.000393776
-0.00196402
-0.000389118
-0.00209114
-0.000384921
-0.00221698
-0.000381142
-0.00234166
-0.00037773
-0.0024653
-0.000374629
-0.000371892
-0.00258798
-4.95492e-05
-0.000100401
-0.000156322
-0.000215799
-0.000292205
-0.000274141
-0.000440191
-0.00029816
-0.000591228
-0.000304037
-0.000741176
-0.000301683
-0.000888504
-0.000296323
-0.00103287
-0.000290314
-0.00117437
-0.000284549
-0.00131326
-0.000279281
-0.0014498
-0.000274536
-0.00158421
-0.000270274
-0.00171671
-0.000266443
-0.00184749
-0.000262995
-0.00197672
-0.00025989
-0.00210455
-0.000257094
-0.00223111
-0.000254578
-0.00235653
-0.000252308
-0.00248091
-0.000250247
-0.000248432
-0.00260437
-5.00239e-05
-5.03773e-05
-0.0001576
-0.000108223
-0.00029431
-0.000137431
-0.000443039
-0.000149431
-0.000594728
-0.000152348
-0.00074526
-0.00015115
-0.000893128
-0.000148455
-0.001038
-0.000145439
-0.00118001
-0.000142546
-0.00131938
-0.000139905
-0.00145639
-0.000137526
-0.00159128
-0.00013539
-0.00172425
-0.00013347
-0.0018555
-0.000131742
-0.0019852
-0.000130187
-0.00211351
-0.000128787
-0.00224056
-0.000127528
-0.00236648
-0.000126392
-0.00249136
-0.000125361
-0.000124455
-0.00261534
-5.02614e-05
-1.15941e-07
-0.000158239
-2.4575e-07
-0.000295362
-3.08087e-07
-0.000444462
-3.30678e-07
-0.000596477
-3.32869e-07
-0.000747302
-3.26126e-07
-0.00089544
-3.16265e-07
-0.00104057
-3.05797e-07
-0.00118282
-2.95633e-07
-0.00132244
-2.86026e-07
-0.00145969
-2.77007e-07
-0.00159481
-2.68544e-07
-0.00172802
-2.60593e-07
-0.00185951
-2.53113e-07
-0.00198945
-2.46067e-07
-0.002118
-2.39424e-07
-0.0022453
-2.33155e-07
-0.00237146
-2.27226e-07
-0.0024966
-2.21591e-07
-2.16258e-07
-0.00262084
-5.02614e-05
5.01455e-05
-0.000158239
0.000107732
-0.000295362
0.000136815
-0.000444462
0.00014877
-0.000596477
0.000151682
-0.000747301
0.000150498
-0.00089544
0.000147822
-0.00104057
0.000144827
-0.00118282
0.000141955
-0.00132244
0.000139333
-0.00145969
0.000136972
-0.00159481
0.000134853
-0.00172802
0.000132949
-0.00185951
0.000131236
-0.00198945
0.000129695
-0.002118
0.000128308
-0.00224529
0.000127061
-0.00237146
0.000125937
-0.0024966
0.000124918
0.000124022
-0.00262084
-5.00239e-05
0.000100169
-0.0001576
0.000215307
-0.000294309
0.000273525
-0.000443038
0.000297499
-0.000594727
0.00030337
-0.000745259
0.00030103
-0.000893126
0.00029569
-0.001038
0.000289702
-0.00118
0.000283957
-0.00131938
0.000278708
-0.00145639
0.000273982
-0.00159127
0.000269737
-0.00172424
0.000265922
-0.0018555
0.000262488
-0.0019852
0.000259397
-0.00211351
0.000256615
-0.00224056
0.000254112
-0.00236647
0.000251853
-0.00249136
0.000249803
0.000247999
-0.00261534
-4.95493e-05
0.000149719
-0.000156322
0.000322079
-0.000292205
0.000409408
-0.00044019
0.000445484
-0.000591226
0.000454407
-0.000741174
0.000450978
-0.000888501
0.000443017
-0.00103286
0.000434064
-0.00117437
0.000425462
-0.00131326
0.000417598
-0.00144979
0.000410514
-0.0015842
0.000404148
-0.0017167
0.000398423
-0.00184748
0.000393269
-0.00197671
0.000388625
-0.00210454
0.000384442
-0.0022311
0.000380676
-0.00235652
0.000377275
-0.00248091
0.000374185
0.000371459
-0.00260436
-4.88387e-05
0.000198557
-0.000154407
0.000427648
-0.00028905
0.000544051
-0.000435919
0.000592353
-0.000585977
0.000604465
-0.00073505
0.000600051
-0.000881568
0.000589535
-0.00102516
0.000577658
-0.00116593
0.000566225
-0.00130409
0.000555764
-0.00143991
0.000546333
-0.00157362
0.000537853
-0.00170542
0.000530223
-0.00183549
0.000523347
-0.00196401
0.000517146
-0.00209113
0.000511554
-0.00221697
0.000506515
-0.00234165
0.00050196
-0.00246528
0.000497816
0.000494148
-0.00258797
-4.78939e-05
0.000246451
-0.000151857
0.000531611
-0.000284846
0.00067704
-0.000430226
0.000737733
-0.00057898
0.000753219
-0.000726888
0.000747958
-0.000872331
0.000734979
-0.00101491
0.000720233
-0.00115469
0.000706006
-0.00129189
0.000692972
-0.00142677
0.00068121
-0.00155954
0.000670627
-0.00169042
0.000661095
-0.00181957
0.000652497
-0.00194715
0.000644734
-0.00207332
0.000637724
-0.00219821
0.000631399
-0.00232192
0.000625672
-0.00244456
0.000620455
0.000615819
-0.00256623
-4.67171e-05
0.000293168
-0.000148676
0.00063357
-0.000279595
0.000807959
-0.000423112
0.000881249
-0.000570236
0.000900343
-0.00071669
0.000894413
-0.000860795
0.000879084
-0.0010021
0.000861542
-0.00114067
0.000844567
-0.00127669
0.000828992
-0.0014104
0.000814922
-0.00154202
0.000802249
-0.00167175
0.000790822
-0.00179975
0.000780502
-0.00192619
0.00077117
-0.00205119
0.000762731
-0.0021749
0.000755101
-0.00229741
0.000748184
-0.00241882
0.000741869
0.000736232
-0.00253923
-4.53108e-05
0.000338479
-0.000144866
0.000733125
-0.0002733
0.000936392
-0.000414577
0.00102253
-0.000559744
0.00104551
-0.000704458
0.00103913
-0.000846964
0.00102159
-0.000986765
0.00100134
-0.00112388
0.00098168
-0.00125849
0.000963604
-0.00139082
0.000947254
-0.00152108
0.000932509
-0.00164946
0.000919197
-0.00177611
0.000907156
-0.00190119
0.000896248
-0.00202482
0.000886364
-0.00214713
0.000877409
-0.00226822
0.000869274
-0.00238818
0.00086183
0.000855151
-0.0025071
-4.3678e-05
0.000382157
-0.000140432
0.000829879
-0.00026596
0.00106192
-0.00040462
0.00116119
-0.000547503
0.00118839
-0.000690189
0.00118181
-0.00083084
0.00116224
-0.000968896
0.0011394
-0.00110434
0.00111712
-0.00123733
0.00109659
-0.00136807
0.001078
-0.00149677
0.00106121
-0.0016236
0.00104603
-0.00174871
0.00103227
-0.00187224
0.00101977
-0.0019943
0.00100843
-0.00211502
0.000998122
-0.00223448
0.000988736
-0.00235278
0.000980126
0.000972353
-0.00246998
-4.18221e-05
0.000423979
-0.000135376
0.000923433
-0.000257579
0.00118412
-0.000393239
0.00129685
-0.000533507
0.00132866
-0.00067388
0.00132219
-0.000812423
0.00130078
-0.000948502
0.00127548
-0.00108205
0.00125067
-0.00121322
0.00122776
-0.00134219
0.00120697
-0.00146915
0.00118817
-0.00159425
0.00117113
-0.00171764
0.00115566
-0.00183944
0.00114158
-0.00195976
0.00112875
-0.0020787
0.00111706
-0.00219635
0.00110638
-0.00231278
0.00109656
0.00108763
-0.00242805
-3.97465e-05
0.000463726
-0.000129702
0.00101339
-0.000248153
0.00130257
-0.000380427
0.00142912
-0.000517747
0.00146598
-0.000655522
0.00145996
-0.000791705
0.00143697
-0.000925581
0.00140935
-0.00105704
0.00138213
-0.00118619
0.00135691
-0.00131321
0.00133399
-0.00143825
0.00131321
-0.00156147
0.00129435
-0.00168299
0.00127717
-0.00180291
0.0012615
-0.00192134
0.00124717
-0.00203834
0.00123406
-0.002154
0.00122205
-0.00226839
0.00121095
0.00120078
-0.00238155
-3.74551e-05
0.000501181
-0.000123414
0.00109935
-0.000237683
0.00141684
-0.000366176
0.00155761
-0.00050021
0.00160002
-0.000635099
0.00159485
-0.000768672
0.00157054
-0.000900126
0.00154081
-0.00102929
0.0015113
-0.00115625
0.00148387
-0.00128115
0.00145888
-0.00140413
0.00143619
-0.00152533
0.00141555
-0.00164485
0.00139669
-0.00176277
0.00137943
-0.00187918
0.00136357
-0.00199413
0.00134901
-0.00210768
0.0013356
-0.00221988
0.00132315
0.00131164
-0.00233074
-3.49522e-05
0.000536133
-0.000116515
0.00118091
-0.000226164
0.00152649
-0.000350474
0.00168192
-0.000480877
0.00173042
-0.000612587
0.00172656
-0.000743301
0.00170125
-0.000872114
0.00166962
-0.000998796
0.00163798
-0.00112339
0.00160847
-0.00124602
0.00158151
-0.00136681
0.00155698
-0.00148588
0.00153461
-0.0016033
0.00151412
-0.00171915
0.00149527
-0.00183346
0.00147789
-0.00194628
0.00146183
-0.00205763
0.00144695
-0.00216754
0.00143305
0.00142009
-0.00227598
-3.22425e-05
0.000568376
-0.000109008
0.00125768
-0.000213592
0.00163107
-0.000333306
0.00180164
-0.000459723
0.00185684
-0.000587955
0.00185479
-0.000715557
0.00182886
-0.000841512
0.00179558
-0.000965522
0.00176199
-0.00108759
0.00173053
-0.00120781
0.00170174
-0.00132631
0.00167548
-0.00144316
0.00165146
-0.00155843
0.00162939
-0.00167216
0.00160901
-0.00178437
0.00159009
-0.00189504
0.0015725
-0.00200417
0.00155608
-0.00211175
0.00154063
0.00152603
-0.00221769
-2.93318e-05
0.000597707
-0.000100899
0.00132924
-0.000199962
0.00173014
-0.000314653
0.00191633
-0.000436715
0.0019789
-0.000561162
0.00197924
-0.000685392
0.00195309
-0.000808267
0.00191845
-0.000929414
0.00188314
-0.0010488
0.00184991
-0.00116649
0.00181943
-0.00128259
0.00179158
-0.00139717
0.00176605
-0.00151028
0.0017425
-0.00162192
0.00172064
-0.00173206
0.00170024
-0.00184067
0.0016811
-0.00194767
0.00166308
-0.00205298
0.00164593
0.00162949
-0.00215644
-2.62267e-05
0.000623934
-9.21931e-05
0.00139521
-0.000185271
0.00182322
-0.000294497
0.00202556
-0.000411819
0.00209622
-0.000532155
0.00209958
-0.000652741
0.00207367
-0.000772305
0.00203802
-0.000890394
0.00200123
-0.00100693
0.00196645
-0.00112197
0.00193447
-0.00123559
0.0019052
-0.00134787
0.00187832
-0.00145883
0.00185346
-0.00156845
0.00183027
-0.00167669
0.00180847
-0.00178343
0.00178784
-0.00188852
0.00176818
-0.00199178
0.00174919
0.00173062
-0.00209291
-2.2936e-05
0.00064687
-8.29005e-05
0.00145517
-0.000169516
0.00190983
-0.000272816
0.00212886
-0.000384994
0.0022084
-0.000500877
0.00221546
-0.000617529
0.00219032
-0.000733535
0.00215402
-0.000848353
0.00211604
-0.00096186
0.00207996
-0.0010741
0.00204671
-0.00118515
0.00201626
-0.00129509
0.00198826
-0.00140395
0.00196231
-0.0015117
0.00193802
-0.00161827
0.00191504
-0.00172352
0.0018931
-0.00182721
0.00187187
-0.00192894
0.00185091
0.0018298
-0.00202811
-1.94706e-05
0.000666341
-7.30355e-05
0.00150874
-0.000152703
0.0019895
-0.000249597
0.00222575
-0.000356201
0.002315
-0.000467265
0.00232652
-0.000579669
0.00230273
-0.000691844
0.0022662
-0.000803147
0.00222735
-0.000913412
0.00219022
-0.00102267
0.00215597
-0.00113103
0.00212461
-0.00123856
0.0020958
-0.00134535
0.0020691
-0.00145138
0.00204406
-0.00155659
0.00202025
-0.00166084
0.00199734
-0.00176384
0.00197487
-0.00186494
0.00195201
0.00192794
-0.00196308
-1.58446e-05
0.000682185
-6.26196e-05
0.00155551
-0.000134844
0.00206172
-0.000224831
0.00231574
-0.000325408
0.00241558
-0.00043126
0.00243237
-0.000539077
0.00241054
-0.000647116
0.00237424
-0.000754631
0.00233486
-0.000861407
0.002297
-0.000967476
0.00226204
-0.00107296
0.00223009
-0.001178
0.00220084
-0.00128272
0.00217383
-0.00138722
0.00214855
-0.0014915
0.00212454
-0.00159554
0.00210138
-0.0016993
0.00207862
-0.00180206
0.00205478
0.00202641
-0.00190053
-1.2076e-05
0.000694261
-5.16832e-05
0.00159512
-0.000115964
0.002126
-0.000198524
0.00239829
-0.000292595
0.00250965
-0.000392811
0.00253259
-0.000495666
0.0025134
-0.000599225
0.0024778
-0.000702612
0.00243825
-0.000805546
0.00239993
-0.000908037
0.00236453
-0.00101022
0.00233228
-0.00111228
0.0023029
-0.00121443
0.00227598
-0.00131691
0.00225103
-0.00141992
0.00222754
-0.00152352
0.00220498
-0.00162794
0.00218304
-0.00173389
0.00216072
0.00213105
-0.00183852
-8.18685e-06
0.000702448
-4.02679e-05
0.0016272
-9.61059e-05
0.00218184
-0.000170702
0.00247289
-0.000257762
0.00259671
-0.000351893
0.00262672
-0.000449382
0.00261089
-0.000548087
0.0025765
-0.000646981
0.00253714
-0.000745709
0.00249866
-0.000844273
0.00246309
-0.000942866
0.00243087
-0.00104181
0.00240184
-0.00114155
0.00237572
-0.00124271
0.00235219
-0.00134611
0.00233094
-0.00145262
0.00231149
-0.00156264
0.00229306
-0.00167712
0.0022752
0.00226916
-0.00181523
-4.21605e-06
0.000706664
-2.84477e-05
0.00165143
-7.53533e-05
0.00222875
-0.00014144
0.00253898
-0.000220961
0.00267623
-0.000308532
0.00271429
-0.00040023
0.00270259
-0.000493674
0.00266994
-0.00058766
0.00263113
-0.000681716
0.00259272
-0.000775779
0.00255715
-0.000869989
0.00252508
-0.000964594
0.00249645
-0.00105988
0.002471
-0.00115612
0.00244843
-0.00125351
0.00242834