1.275 	2.15223e-18 	-2.76991e-20 	-0.345671
1.825 	2.15223e-18 	-1.39322e-20 	-0.397912
2.375 	2.15223e-18 	1.38775e-18 	-0.308086
2.925 	2.15223e-18 	2.78958e-18 	-0.181333
3.475 	2.15223e-18 	4.53849e-18 	-0.0863649
4.025 	2.15223e-18 	6.28755e-18 	-0.00273439
4.575 	2.15223e-18 	6.30203e-18 	0.0269333
5.125 	2.15223e-18 	6.31666e-18 	0.0451332
5.675 	2.15223e-18 	6.33144e-18 	0.0413251
6.225 	2.15223e-18 	4.61166e-18 	0.0369708
