/*--------------------------------*- C++ -*----------------------------------*\
  =========                 |
  \\      /  F ield         | OpenFOAM: The Open Source CFD Toolbox
   \\    /   O peration     | Website:  https://openfoam.org
    \\  /    A nd           | Version:  6.0
     \\/     M anipulation  |
\*---------------------------------------------------------------------------*/
FoamFile
{
    version     2.0;
    format      ascii;
    class       volScalarField;
    location    "35";
    object      p;
}
// * * * * * * * * * * * * * * * * * * * * * * * * * * * * * * * * * * * * * //

dimensions      [0 2 -2 0 0 0 0];

internalField   nonuniform List<scalar> 
12500
(
-0.244838
-0.245602
-0.246129
-0.246531
-0.246874
-0.247166
-0.247416
-0.247633
-0.247824
-0.247994
-0.248148
-0.248289
-0.248419
-0.248542
-0.248659
-0.248774
-0.248888
-0.249003
-0.249122
-0.249247
-0.249383
-0.249531
-0.24966
-0.249751
-0.250133
-0.244935
-0.245695
-0.246219
-0.246618
-0.246958
-0.247246
-0.247492
-0.247706
-0.247893
-0.24806
-0.24821
-0.248347
-0.248474
-0.248593
-0.248708
-0.248819
-0.24893
-0.249043
-0.249159
-0.249282
-0.249417
-0.249564
-0.249693
-0.249783
-0.250167
-0.245098
-0.245852
-0.246372
-0.246766
-0.247101
-0.247383
-0.247623
-0.24783
-0.24801
-0.24817
-0.248313
-0.248443
-0.248562
-0.248674
-0.248781
-0.248885
-0.248989
-0.249095
-0.249205
-0.249323
-0.249453
-0.249596
-0.249721
-0.249808
-0.250192
-0.245325
-0.246074
-0.246588
-0.246976
-0.247303
-0.247577
-0.247808
-0.248005
-0.248175
-0.248324
-0.248456
-0.248574
-0.248682
-0.248783
-0.248878
-0.248971
-0.249063
-0.249158
-0.249258
-0.249365
-0.249486
-0.249622
-0.249741
-0.249821
-0.250203
-0.245617
-0.24636
-0.246868
-0.247247
-0.247565
-0.247828
-0.248046
-0.24823
-0.248386
-0.248521
-0.248638
-0.248741
-0.248833
-0.248917
-0.248996
-0.249072
-0.249149
-0.249228
-0.249312
-0.249405
-0.249513
-0.249638
-0.249746
-0.249815
-0.250195
-0.245974
-0.246711
-0.247211
-0.24758
-0.247886
-0.248135
-0.248338
-0.248505
-0.248644
-0.24876
-0.248858
-0.248941
-0.249012
-0.249075
-0.249133
-0.249187
-0.249242
-0.2493
-0.249363
-0.249437
-0.249527
-0.249635
-0.24973
-0.249784
-0.250158
-0.246397
-0.247127
-0.247618
-0.247976
-0.248267
-0.248499
-0.248684
-0.248831
-0.248948
-0.249041
-0.249115
-0.249173
-0.249219
-0.249256
-0.249286
-0.249313
-0.24934
-0.24937
-0.249407
-0.249455
-0.249521
-0.249608
-0.249684
-0.249718
-0.250086
-0.246887
-0.24761
-0.24809
-0.248434
-0.248708
-0.248921
-0.249083
-0.249206
-0.249298
-0.249364
-0.249409
-0.249437
-0.249452
-0.249457
-0.249453
-0.249446
-0.249439
-0.249434
-0.249437
-0.249452
-0.249487
-0.249548
-0.249598
-0.249607
-0.249966
-0.247445
-0.248161
-0.24863
-0.248957
-0.249211
-0.249401
-0.249537
-0.249632
-0.249694
-0.249728
-0.24974
-0.249733
-0.249711
-0.249677
-0.249634
-0.249586
-0.249536
-0.249489
-0.249449
-0.249423
-0.24942
-0.249445
-0.249464
-0.249441
-0.24979
-0.248076
-0.248782
-0.249237
-0.249546
-0.249777
-0.24994
-0.250048
-0.250111
-0.250138
-0.250136
-0.25011
-0.250062
-0.249998
-0.249919
-0.249828
-0.249731
-0.24963
-0.249532
-0.24944
-0.249363
-0.249312
-0.249292
-0.24927
-0.249209
-0.249544
-0.248781
-0.249477
-0.249915
-0.250203
-0.250408
-0.250541
-0.250615
-0.250642
-0.250631
-0.250589
-0.250519
-0.250426
-0.250313
-0.250182
-0.250038
-0.249883
-0.249723
-0.249563
-0.249409
-0.249269
-0.249157
-0.249082
-0.249009
-0.248899
-0.249216
-0.249565
-0.250248
-0.250667
-0.25093
-0.251105
-0.251204
-0.251241
-0.251229
-0.251176
-0.251088
-0.250971
-0.250828
-0.250661
-0.250473
-0.250267
-0.250046
-0.249817
-0.249584
-0.249355
-0.24914
-0.248954
-0.248809
-0.24867
-0.248498
-0.248793
-0.250432
-0.251098
-0.251496
-0.25173
-0.251871
-0.251933
-0.251929
-0.251873
-0.251774
-0.251638
-0.25147
-0.251271
-0.251046
-0.250795
-0.25052
-0.250227
-0.249918
-0.249601
-0.249284
-0.248978
-0.248701
-0.248468
-0.248245
-0.247995
-0.24826
-0.251387
-0.252033
-0.252404
-0.252605
-0.252708
-0.252728
-0.25268
-0.252577
-0.252428
-0.252241
-0.252018
-0.251762
-0.251474
-0.251155
-0.250807
-0.250432
-0.250035
-0.249623
-0.249203
-0.248789
-0.248402
-0.24806
-0.24773
-0.247378
-0.247601
-0.252436
-0.253056
-0.253395
-0.253559
-0.25362
-0.253593
-0.253496
-0.253342
-0.253142
-0.2529
-0.25262
-0.252303
-0.25195
-0.251561
-0.251135
-0.250674
-0.250181
-0.249661
-0.249125
-0.248584
-0.248064
-0.247587
-0.24712
-0.246634
-0.246797
-0.253585
-0.254173
-0.254474
-0.254595
-0.254607
-0.25453
-0.254379
-0.254171
-0.253915
-0.253616
-0.253278
-0.2529
-0.252481
-0.252019
-0.251513
-0.250962
-0.250367
-0.249732
-0.249064
-0.248378
-0.2477
-0.247056
-0.246415
-0.245753
-0.245826
-0.254839
-0.255387
-0.255644
-0.255715
-0.255674
-0.255539
-0.255331
-0.255064
-0.254749
-0.254391
-0.253993
-0.253553
-0.253068
-0.252535
-0.251948
-0.251306
-0.250605
-0.249848
-0.249038
-0.248189
-0.247326
-0.246481
-0.245619
-0.244722
-0.244662
-0.256205
-0.256704
-0.256909
-0.256924
-0.256821
-0.256623
-0.25635
-0.25602
-0.255643
-0.255224
-0.254764
-0.254261
-0.253712
-0.253108
-0.252444
-0.251711
-0.250905
-0.250022
-0.249062
-0.248034
-0.246962
-0.245876
-0.24474
-0.243534
-0.243275
-0.257689
-0.25813
-0.258275
-0.258224
-0.258051
-0.257782
-0.257438
-0.257039
-0.256594
-0.25611
-0.255587
-0.255021
-0.254407
-0.253736
-0.252996
-0.252178
-0.251269
-0.250262
-0.249148
-0.24793
-0.246627
-0.245265
-0.243794
-0.242185
-0.241631
-0.259299
-0.25967
-0.259745
-0.25962
-0.259368
-0.259018
-0.258595
-0.258118
-0.2576
-0.257045
-0.256455
-0.255825
-0.255146
-0.254408
-0.253597
-0.252698
-0.251693
-0.250567
-0.249303
-0.247892
-0.246341
-0.24467
-0.242804
-0.24068
-0.239699
-0.26104
-0.261333
-0.261327
-0.261116
-0.260774
-0.260333
-0.25982
-0.259256
-0.258656
-0.258024
-0.257361
-0.256662
-0.255917
-0.255113
-0.254234
-0.25326
-0.252167
-0.250933
-0.249529
-0.247932
-0.246133
-0.244133
-0.241821
-0.239063
-0.23748
-0.262924
-0.263126
-0.263028
-0.26272
-0.262274
-0.261729
-0.261114
-0.260453
-0.259759
-0.259041
-0.258297
-0.257523
-0.256708
-0.255838
-0.254894
-0.253852
-0.252684
-0.251359
-0.249838
-0.248082
-0.246058
-0.243744
-0.240979
-0.237501
-0.235093
-0.264961
-0.26506
-0.264857
-0.264437
-0.263875
-0.263212
-0.262481
-0.261709
-0.26091
-0.260094
-0.25926
-0.258403
-0.257514
-0.256576
-0.25557
-0.25447
-0.253247
-0.25186
-0.250264
-0.248398
-0.246204
-0.243626
-0.24044
-0.236149
-0.232532
-0.267163
-0.267146
-0.266825
-0.266279
-0.265585
-0.264788
-0.263928
-0.26303
-0.262113
-0.261187
-0.260252
-0.259305
-0.258335
-0.25733
-0.256271
-0.255134
-0.253889
-0.252499
-0.250908
-0.249042
-0.246804
-0.244067
-0.240438
-0.234961
-0.229266
-0.269548
-0.269401
-0.268945
-0.268259
-0.267416
-0.26647
-0.265464
-0.264426
-0.263378
-0.262329
-0.261283
-0.260238
-0.259186
-0.258119
-0.257023
-0.255883
-0.254683
-0.253403
-0.252015
-0.250476
-0.248719
-0.246604
-0.243573
-0.238244
-0.23184
-0.272135
-0.271841
-0.271235
-0.270391
-0.269383
-0.268273
-0.267105
-0.265913
-0.264719
-0.263537
-0.262371
-0.261223
-0.260089
-0.258967
-0.257852
-0.256748
-0.255664
-0.254621
-0.253668
-0.252892
-0.252464
-0.25266
-0.253892
-0.25791
-0.271137
-0.274947
-0.274488
-0.273714
-0.272694
-0.271505
-0.270213
-0.26887
-0.267511
-0.266161
-0.264836
-0.263544
-0.262289
-0.261074
-0.259902
-0.258781
-0.25773
-0.256782
-0.255994
-0.25546
-0.255333
-0.255866
-0.25743
-0.260537
-0.266647
-0.280462
-0.27801
-0.277365
-0.276403
-0.275191
-0.273803
-0.272315
-0.270783
-0.269245
-0.26773
-0.266256
-0.264834
-0.263471
-0.262175
-0.260957
-0.259837
-0.258844
-0.258029
-0.257469
-0.25728
-0.257631
-0.258769
-0.261022
-0.264773
-0.270813
-0.282326
-0.281352
-0.280496
-0.279327
-0.277904
-0.276302
-0.274604
-0.272871
-0.271146
-0.269459
-0.267831
-0.266275
-0.264803
-0.263428
-0.262165
-0.261041
-0.260095
-0.259385
-0.258995
-0.259038
-0.259669
-0.261085
-0.263529
-0.267228
-0.272534
-0.281609
-0.285003
-0.283908
-0.282511
-0.280859
-0.279028
-0.277107
-0.275164
-0.273244
-0.27138
-0.269595
-0.267904
-0.266321
-0.264862
-0.263547
-0.262405
-0.261477
-0.260821
-0.260514
-0.260652
-0.261354
-0.262758
-0.265009
-0.268215
-0.272457
-0.279152
-0.288993
-0.287629
-0.28598
-0.284083
-0.282008
-0.279854
-0.277692
-0.275572
-0.273527
-0.271581
-0.269752
-0.268053
-0.266501
-0.265117
-0.263929
-0.262974
-0.262303
-0.261977
-0.262069
-0.262657
-0.263821
-0.265631
-0.268112
-0.271208
-0.275791
-0.293352
-0.291686
-0.289763
-0.287603
-0.285271
-0.282874
-0.280487
-0.278162
-0.275931
-0.27382
-0.271845
-0.270019
-0.268356
-0.266875
-0.2656
-0.26456
-0.263794
-0.263345
-0.263259
-0.263579
-0.264342
-0.265564
-0.267226
-0.26921
-0.272013
-0.298108
-0.296105
-0.293884
-0.291445
-0.288844
-0.286195
-0.283577
-0.281041
-0.27862
-0.276335
-0.274202
-0.272229
-0.270428
-0.268811
-0.267396
-0.266202
-0.265255
-0.264581
-0.264203
-0.264139
-0.264395
-0.264958
-0.265791
-0.26676
-0.268125
-0.303286
-0.300909
-0.298366
-0.295634
-0.292753
-0.289845
-0.28699
-0.284236
-0.281615
-0.279143
-0.276831
-0.274683
-0.272705
-0.270902
-0.269283
-0.26786
-0.266646
-0.265652
-0.264888
-0.264354
-0.264042
-0.263926
-0.263967
-0.264039
-0.264274
-0.308907
-0.306119
-0.303232
-0.300192
-0.297022
-0.293847
-0.290747
-0.287766
-0.284931
-0.282251
-0.279731
-0.277369
-0.275163
-0.273112
-0.271219
-0.269487
-0.267922
-0.266526
-0.2653
-0.264239
-0.263328
-0.262544
-0.261852
-0.261143
-0.260495
-0.314986
-0.311749
-0.308499
-0.305139
-0.30167
-0.29822
-0.294865
-0.291644
-0.288573
-0.285656
-0.282888
-0.28026
-0.277765
-0.275397
-0.273152
-0.271032
-0.269037
-0.267168
-0.265425
-0.2638
-0.262282
-0.260854
-0.259492
-0.258105
-0.256756
-0.32153
-0.317811
-0.314179
-0.310488
-0.306712
-0.302978
-0.299355
-0.295873
-0.292536
-0.28934
-0.286272
-0.283316
-0.280461
-0.277698
-0.275024
-0.272439
-0.269945
-0.267546
-0.265243
-0.263035
-0.260915
-0.258875
-0.256901
-0.254918
-0.252994
-0.328542
-0.324309
-0.320278
-0.316248
-0.312157
-0.308126
-0.304217
-0.300444
-0.296801
-0.293274
-0.289841
-0.286484
-0.283191
-0.279953
-0.276772
-0.273651
-0.2706
-0.267626
-0.264737
-0.261938
-0.25923
-0.25661
-0.254073
-0.251558
-0.249139
-0.336013
-0.331237
-0.326795
-0.32242
-0.318003
-0.31366
-0.309438
-0.305335
-0.301334
-0.29741
-0.293537
-0.289698
-0.285883
-0.282091
-0.27833
-0.274613
-0.270957
-0.267378
-0.263889
-0.260502
-0.257222
-0.254054
-0.250995
-0.247994
-0.245132
-0.343924
-0.338583
-0.333721
-0.328994
-0.324241
-0.319564
-0.314993
-0.310511
-0.306086
-0.301687
-0.29729
-0.292882
-0.288461
-0.284038
-0.279634
-0.275272
-0.270977
-0.266774
-0.262683
-0.258717
-0.254887
-0.251199
-0.247653
-0.2442
-0.240929
-0.352245
-0.346321
-0.341035
-0.33595
-0.330847
-0.325807
-0.320841
-0.315915
-0.310989
-0.306029
-0.301017
-0.29595
-0.290843
-0.285723
-0.280622
-0.275578
-0.270624
-0.265791
-0.261102
-0.256574
-0.252218
-0.248038
-0.244033
-0.240158
-0.236501
-0.360932
-0.354416
-0.348703
-0.343255
-0.337781
-0.33234
-0.326923
-0.321478
-0.315961
-0.310345
-0.304624
-0.298814
-0.292949
-0.287073
-0.281237
-0.275487
-0.269865
-0.264406
-0.259133
-0.254064
-0.249206
-0.244561
-0.240126
-0.235853
-0.231831
-0.369927
-0.362816
-0.356679
-0.350861
-0.34499
-0.3391
-0.333161
-0.32711
-0.320906
-0.314535
-0.308013
-0.30138
-0.294695
-0.288022
-0.281424
-0.274959
-0.268673
-0.2626
-0.256764
-0.251177
-0.245843
-0.240762
-0.235922
-0.231273
-0.226907
-0.379158
-0.371457
-0.3649
-0.358701
-0.352401
-0.346003
-0.33946
-0.332707
-0.325713
-0.318489
-0.311081
-0.303559
-0.296006
-0.288507
-0.281136
-0.273958
-0.26702
-0.260354
-0.253979
-0.247902
-0.24212
-0.236629
-0.23141
-0.226409
-0.221721
-0.388534
-0.380257
-0.373288
-0.366694
-0.359922
-0.352946
-0.345708
-0.338149
-0.330262
-0.322094
-0.313725
-0.30526
-0.296807
-0.288468
-0.280328
-0.27245
-0.264882
-0.257649
-0.250763
-0.244225
-0.238024
-0.232151
-0.22658
-0.221249
-0.216265
-0.397951
-0.38912
-0.381746
-0.374737
-0.367442
-0.359809
-0.351777
-0.343307
-0.334429
-0.325233
-0.315843
-0.306398
-0.29703
-0.287853
-0.278957
-0.270403
-0.262233
-0.254463
-0.247099
-0.24013
-0.233541
-0.227314
-0.221418
-0.215782
-0.210529
-0.407286
-0.397931
-0.390161
-0.382713
-0.374835
-0.366456
-0.357527
-0.348043
-0.338084
-0.327792
-0.317339
-0.306894
-0.296611
-0.286611
-0.276984
-0.267786
-0.259047
-0.250776
-0.242966
-0.235599
-0.228653
-0.222102
-0.21591
-0.209994
-0.2045
-0.416404
-0.406562
-0.398403
-0.390485
-0.381956
-0.372738
-0.362809
-0.352215
-0.341098
-0.32966
-0.318118
-0.306672
-0.295489
-0.284695
-0.274371
-0.264566
-0.255297
-0.246562
-0.238342
-0.230612
-0.22334
-0.216497
-0.210036
-0.203868
-0.198164
-0.425151
-0.414866
-0.406327
-0.3979
-0.388647
-0.378495
-0.367468
-0.35568
-0.343346
-0.330731
-0.318094
-0.305662
-0.29361
-0.282059
-0.271082
-0.260713
-0.250956
-0.241796
-0.233205
-0.225146
-0.217583
-0.210478
-0.203779
-0.197386
-0.191504
-0.433366
-0.422688
-0.413772
-0.404794
-0.39474
-0.383561
-0.371347
-0.358296
-0.344706
-0.330903
-0.317187
-0.303801
-0.290922
-0.278662
-0.26708
-0.256195
-0.245995
-0.236453
-0.227529
-0.219179
-0.211357
-0.204024
-0.197118
-0.190529
-0.184502
-0.440874
-0.429857
-0.420568
-0.410993
-0.40006
-0.387766
-0.374291
-0.35993
-0.345066
-0.330086
-0.315323
-0.30103
-0.287377
-0.274464
-0.262331
-0.25098
-0.240385
-0.230504
-0.221289
-0.212685
-0.204642
-0.197115
-0.190032
-0.183278
-0.177139
-0.447493
-0.436196
-0.426534
-0.416314
-0.404427
-0.390943
-0.37615
-0.360453
-0.344321
-0.328196
-0.312435
-0.297293
-0.28293
-0.269425
-0.2568
-0.245038
-0.234098
-0.223925
-0.214461
-0.205643
-0.197416
-0.189728
-0.182503
-0.175614
-0.169397
-0.453038
-0.441522
-0.431488
-0.420572
-0.407664
-0.392929
-0.376783
-0.359747
-0.342375
-0.325155
-0.308462
-0.292542
-0.277539
-0.26351
-0.250455
-0.23834
-0.227107
-0.21669
-0.20702
-0.198029
-0.189656
-0.181846
-0.174511
-0.16752
-0.16126
-0.457321
-0.445651
-0.435241
-0.423585
-0.409598
-0.393571
-0.376059
-0.357705
-0.339143
-0.320899
-0.303351
-0.286734
-0.271168
-0.256686
-0.243267
-0.230857
-0.219385
-0.208774
-0.198945
-0.189824
-0.181345
-0.173449
-0.16604
-0.15898
-0.152712
-0.46016
-0.448398
-0.437612
-0.425174
-0.410065
-0.392723
-0.373858
-0.354233
-0.334552
-0.315368
-0.297055
-0.279828
-0.263781
-0.248922
-0.235208
-0.222566
-0.210911
-0.200156
-0.190216
-0.181009
-0.172465
-0.164523
-0.157075
-0.14998
-0.14374
-0.461376
-0.449585
-0.438423
-0.425171
-0.408914
-0.390259
-0.370078
-0.34925
-0.328539
-0.308513
-0.289534
-0.271792
-0.255351
-0.240193
-0.226253
-0.213443
-0.201663
-0.190819
-0.180816
-0.171568
-0.163003
-0.155054
-0.147605
-0.140511
-0.134334
-0.460801
-0.449044
-0.437508
-0.42342
-0.406007
-0.386065
-0.364629
-0.342688
-0.321052
-0.300294
-0.280756
-0.262598
-0.245852
-0.230476
-0.216384
-0.20347
-0.191626
-0.180746
-0.170731
-0.161491
-0.152948
-0.145034
-0.137622
-0.130565
-0.124489
-0.458279
-0.446617
-0.434712
-0.419779
-0.401224
-0.380044
-0.357439
-0.334492
-0.31205
-0.29068
-0.270696
-0.252223
-0.235266
-0.219754
-0.205583
-0.192633
-0.180786
-0.169927
-0.159953
-0.150768
-0.142294
-0.134457
-0.127122
-0.12014
-0.1142
-0.453669
-0.442163
-0.429901
-0.414128
-0.394465
-0.372121
-0.348451
-0.324623
-0.301505
-0.279649
-0.259334
-0.240653
-0.223578
-0.208014
-0.19384
-0.180923
-0.169135
-0.158355
-0.148475
-0.139396
-0.131037
-0.123322
-0.116104
-0.109236
-0.103469
-0.446852
-0.435558
-0.422956
-0.406366
-0.385651
-0.362236
-0.337625
-0.313054
-0.289399
-0.267187
-0.246661
-0.227878
-0.21078
-0.19525
-0.181149
-0.168334
-0.156668
-0.146027
-0.136296
-0.127374
-0.119179
-0.11163
-0.104571
-0.0978586
-0.0923015
-0.437727
-0.426702
-0.413784
-0.396413
-0.374722
-0.350353
-0.32494
-0.299773
-0.275726
-0.253291
-0.232675
-0.213897
-0.19687
-0.181459
-0.167508
-0.154865
-0.143387
-0.132944
-0.123418
-0.114706
-0.106724
-0.0993879
-0.092533
-0.0860168
-0.0807066
-0.426217
-0.415514
-0.402312
-0.384214
-0.361644
-0.336451
-0.310388
-0.284782
-0.26049
-0.237968
-0.217382
-0.198715
-0.181855
-0.166646
-0.152922
-0.140522
-0.129297
-0.119113
-0.109849
-0.101401
-0.0936822
-0.0866072
-0.0800011
-0.0737248
-0.0686988
-0.412268
-0.401939
-0.388494
-0.369739
-0.346403
-0.320532
-0.29398
-0.268094
-0.243707
-0.221233
-0.200795
-0.182344
-0.165743
-0.150821
-0.1374
-0.125313
-0.114406
-0.104542
-0.0955988
-0.0874688
-0.0800662
-0.0733017
-0.066992
-0.0610008
-0.0562966
-0.395854
-0.385948
-0.372308
-0.35298
-0.329007
-0.302616
-0.275742
-0.249739
-0.225406
-0.203111
-0.182937
-0.164803
-0.148553
-0.133999
-0.120957
-0.109252
-0.0987284
-0.089246
-0.0806808
-0.072925
-0.0658918
-0.0594891
-0.0535254
-0.0478672
-0.0435222
-0.376972
-0.367538
-0.353759
-0.333956
-0.309485
-0.28274
-0.255715
-0.229756
-0.205623
-0.183635
-0.163838
-0.146121
-0.130308
-0.116203
-0.103611
-0.0923566
-0.0822797
-0.0732398
-0.0651115
-0.0577864
-0.0511774
-0.0451898
-0.039625
-0.03435
-0.030402
-0.355646
-0.34673
-0.332876
-0.312707
-0.287889
-0.26096
-0.233956
-0.208201
-0.184408
-0.162852
-0.143537
-0.126331
-0.111039
-0.0974572
-0.0853863
-0.0746469
-0.065079
-0.0565413
-0.0489081
-0.0420709
-0.0359426
-0.0304261
-0.0253167
-0.0204799
-0.0169692
-0.331928
-0.323574
-0.309715
-0.289297
-0.264289
-0.23735
-0.210535
-0.185138
-0.161822
-0.140813
-0.122083
-0.105475
-0.0907829
-0.0777946
-0.0663094
-0.0561467
-0.0471468
-0.0391688
-0.0320878
-0.0257958
-0.020206
-0.0152198
-0.0106277
-0.00629114
-0.0032657
-0.305891
-0.298141
-0.284352
-0.263812
-0.238775
-0.211998
-0.185538
-0.160647
-0.137936
-0.117584
-0.0995315
-0.0836028
-0.069582
-0.0572521
-0.0464119
-0.0368819
-0.0285041
-0.0211397
-0.0146655
-0.00897513
-0.00398259
0.000411202
0.00441747
0.00818022
0.0106636
-0.277636
-0.270529
-0.25689
-0.236358
-0.211455
-0.185009
-0.159063
-0.134819
-0.112831
-0.0932378
-0.0759491
-0.0607732
-0.0474873
-0.0358724
-0.0257289
-0.0168801
-0.00917172
-0.00246862
0.00334876
0.00838386
0.0127208
0.0164571
0.0198002
0.0229034
0.0247902
-0.247284
-0.240857
-0.227452
-0.207061
-0.182453
-0.156502
-0.131221
-0.107755
-0.0866025
-0.0678596
-0.0514115
-0.0370533
-0.0245573
-0.013705
-0.00430018
0.00382897
0.010831
0.0168351
0.0219547
0.0262879
0.0299148
0.0329269
0.0355222
0.0378737
0.0391238
-0.214977
-0.209267
-0.196178
-0.176063
-0.151909
-0.12661
-0.102137
-0.0795704
-0.0593537
-0.0415446
-0.0260053
-0.0125205
-0.000860133
0.00919207
0.0178275
0.025211
0.0314835
0.0367657
0.0411618
0.0447606
0.0476343
0.0498637
0.0516296
0.053133
0.0536792
-0.180879
-0.175916
-0.16323
-0.143522
-0.119974
-0.0954779
-0.0719445
-0.0503893
-0.0312004
-0.0143991
0.000171962
0.0127363
0.0235249
0.0327503
0.0405974
0.0472233
0.0527588
0.0573134
0.0609775
0.0638258
0.0659186
0.0673217
0.0681784
0.0686769
0.0682814
-0.145168
-0.140981
-0.128781
-0.109611
-0.0868147
-0.0632605
-0.0407894
-0.0203473
-0.00226863
0.0134592
0.0270108
0.0386162
0.048506
0.0568887
0.0639424
0.069815
0.0746261
0.0784697
0.0814154
0.083514
0.0848082
0.0853351
0.0851245
0.0842211
0.0823678
-0.108039
-0.104653
-0.0930214
-0.0745138
-0.0526063
-0.0301234
-0.00882635
0.0104107
0.0273055
0.0419018
0.0543896
0.0650041
0.0739759
0.0815099
0.0877794
0.0929253
0.0970577
0.100255
0.102561
0.103997
0.104575
0.104257
0.102777
0.0998418
0.0960332
-0.0696984
-0.0671354
-0.0561505
-0.0384229
-0.0175324
0.00376078
0.0237827
0.0417323
0.0573773
0.0707901
0.0821743
0.0917696
0.0998066
0.106489
0.11199
0.116449
0.119978
0.122654
0.12452
0.125595
0.125908
0.125329
0.123161
0.118718
0.114032
-0.0303656
-0.0286426
-0.0183775
-0.00153973
0.0182167
0.0382133
0.0568702
0.0734591
0.0877957
0.0999782
0.110222
0.118769
0.125851
0.131671
0.136403
0.140193
0.143161
0.145404
0.146998
0.148035
0.148663
0.14884
0.147705
0.144744
0.146904
0.00974112
0.0106086
0.0200847
0.0359308
0.0544471
0.0730522
0.0902649
0.105429
0.118406
0.129316
0.138384
0.145854
0.151956
0.156891
0.160834
0.16393
0.166306
0.168066
0.169306
0.170146
0.170745
0.171088
0.170693
0.169973
0.174349
0.0503897
0.0503909
0.0590155
0.0737788
0.0909616
0.108093
0.123794
0.137481
0.149054
0.158655
0.166515
0.17288
0.177974
0.181999
0.185124
0.187497
0.189243
0.190472
0.191286
0.191807
0.192173
0.192364
0.192036
0.191669
0.195549
0.0913466
0.0904751
0.098193
0.111793
0.127563
0.143152
0.157287
0.169451
0.179585
0.187848
0.194474
0.199706
0.203767
0.206851
0.209125
0.210731
0.211793
0.212419
0.21271
0.212779
0.21275
0.212608
0.212063
0.211505
0.214456
0.132377
0.130631
0.137395
0.149764
0.164054
0.178047
0.190573
0.201182
0.209851
0.216752
0.222123
0.226202
0.229207
0.231325
0.232716
0.233517
0.233847
0.233806
0.233488
0.232996
0.232434
0.231777
0.230759
0.229745
0.231805
0.173247
0.170628
0.1764
0.187483
0.200242
0.212598
0.223485
0.232518
0.239706
0.245233
0.249335
0.252248
0.25418
0.255311
0.255795
0.255761
0.25532
0.254566
0.253582
0.25246
0.251288
0.250027
0.248433
0.246868
0.248066
0.213725
0.21024
0.214991
0.224745
0.235937
0.246629
0.255862
0.26331
0.269012
0.273159
0.275989
0.277728
0.278579
0.278714
0.278276
0.277387
0.27615
0.274651
0.272965
0.271172
0.269345
0.267438
0.265228
0.263083
0.263456
0.253583
0.249243
0.252952
0.26135
0.270952
0.27997
0.287546
0.293413
0.297633
0.300407
0.301969
0.302539
0.30231
0.301445
0.30008
0.298329
0.296285
0.294027
0.291622
0.28914
0.286643
0.284077
0.281247
0.278524
0.278105
0.292598
0.287418
0.290076
0.297101
0.305108
0.312456
0.318386
0.322686
0.325441
0.326858
0.327167
0.32658
0.325281
0.323425
0.321138
0.318527
0.315677
0.312659
0.309533
0.306361
0.303195
0.299979
0.296542
0.293252
0.292073
0.330554
0.324554
0.32616
0.331812
0.338232
0.343927
0.348236
0.350995
0.352313
0.352399
0.351479
0.349757
0.347407
0.344576
0.341382
0.337923
0.334278
0.33051
0.326674
0.322824
0.319002
0.315154
0.311131
0.307294
0.305385
0.36724
0.360445
0.361009
0.3653
0.370156
0.37423
0.376954
0.378212
0.378131
0.376922
0.374805
0.371978
0.368606
0.364825
0.360747
0.356462
0.352041
0.347543
0.343015
0.338505
0.334049
0.329595
0.325014
0.32065
0.318041
0.402457
0.394896
0.394436
0.397391
0.40072
0.403219
0.404408
0.404214
0.402781
0.400322
0.397051
0.393157
0.388798
0.3841
0.379169
0.374086
0.368917
0.363714
0.35852
0.353377
0.348314
0.343282
0.338173
0.333307
0.330027
0.436013
0.427719
0.426265
0.427922
0.429774
0.430756
0.430469
0.428884
0.426156
0.422501
0.418126
0.413212
0.407907
0.402333
0.396585
0.390739
0.384855
0.37898
0.373151
0.367405
0.361766
0.356189
0.350582
0.34524
0.341321
0.467727
0.458737
0.456326
0.456737
0.457175
0.456708
0.455019
0.452111
0.448155
0.443365
0.437943
0.432061
0.425861
0.419456
0.412934
0.406366
0.399805
0.393293
0.386865
0.380551
0.37437
0.368282
0.362211
0.35642
0.351895
0.497428
0.487785
0.484463
0.483688
0.482787
0.480954
0.477942
0.473791
0.468681
0.462825
0.45642
0.44963
0.44259
0.435405
0.428157
0.420911
0.413716
0.40661
0.39962
0.392775
0.386089
0.379527
0.373026
0.366815
0.36172
0.524958
0.514706
0.510529
0.508641
0.506487
0.503378
0.499135
0.493827
0.487645
0.480799
0.47348
0.465848
0.458027
0.450118
0.442197
0.434323
0.426541
0.418883
0.411374
0.404038
0.396887
0.389888
0.382992
0.376392
0.370766
0.550169
0.539359
0.534389
0.531469
0.528158
0.523874
0.518499
0.512129
0.504962
0.497208
0.489052
0.480647
0.472111
0.463539
0.455001
0.446552
0.438231
0.430069
0.422086
0.414302
0.406726
0.39933
0.392074
0.385117
0.379003
0.572929
0.561613
0.555919
0.552059
0.547696
0.542346
0.535946
0.528615
0.520557
0.511982
0.50307
0.493966
0.484785
0.475613
0.466519
0.45755
0.448744
0.440127
0.431717
0.423529
0.41557
0.407818
0.40024
0.392961
0.386402
0.593117
0.581351
0.575009
0.570308
0.565006
0.558707
0.551395
0.54321
0.534361
0.525058
0.515474
0.50575
0.495995
0.486292
0.476704
0.467275
0.458039
0.449018
0.44023
0.431685
0.423388
0.415322
0.407459
0.399893
0.392939
0.610626
0.598469
0.591561
0.586126
0.580005
0.57288
0.564775
0.555848
0.546313
0.536377
0.52621
0.515948
0.505696
0.495533
0.485516
0.475688
0.466079
0.456709
0.447593
0.438739
0.430149
0.421811
0.413703
0.405888
0.398588
0.625365
0.612877
0.60549
0.599433
0.59262
0.584798
0.576024
0.566472
0.556359
0.54589
0.535232
0.524518
0.513848
0.503296
0.492918
0.482755
0.472832
0.463169
0.453777
0.444663
0.435828
0.427261
0.418947
0.410922
0.40333
0.637255
0.624501
0.616724
0.610164
0.602791
0.594405
0.585091
0.575034
0.564455
0.553555
0.542502
0.531422
0.520414
0.509549
0.498881
0.488447
0.478271
0.468371
0.458757
0.449433
0.4404
0.43165
0.423171
0.414976
0.407147
0.646236
0.63328
0.625208
0.618265
0.610469
0.601656
0.591934
0.581496
0.570563
0.559339
0.547987
0.536631
0.525368
0.514267
0.503379
0.49274
0.482374
0.472296
0.462514
0.453032
0.44385
0.434961
0.426357
0.418034
0.410026
0.652259
0.639167
0.630897
0.623698
0.615617
0.606517
0.596522
0.585827
0.574658
0.563216
0.551663
0.540122
0.528688
0.517429
0.506394
0.495618
0.485124
0.474925
0.465031
0.455444
0.446161
0.437181
0.428492
0.420083
0.411955
0.655293
0.642133
0.633763
0.626434
0.618209
0.608966
0.598832
0.588008
0.57672
0.565169
0.553514
0.541881
0.530361
0.519022
0.507912
0.497067
0.486509
0.47625
0.4663
0.456659
0.447326
0.438299
0.429568
0.421116
0.412927
0.655322
0.642162
0.633791
0.626461
0.618235
0.60899
0.598855
0.58803
0.576741
0.565189
0.553533
0.541899
0.530378
0.519038
0.507928
0.497083
0.486524
0.476265
0.466314
0.456672
0.44734
0.438312
0.429581
0.421128
0.412939
0.652347
0.639254
0.630981
0.623778
0.615693
0.60659
0.59659
0.585892
0.57472
0.563275
0.551719
0.540176
0.52874
0.517479
0.506442
0.495664
0.485168
0.474969
0.465073
0.455485
0.446201
0.437219
0.42853
0.42012
0.411991
0.646382
0.633424
0.625348
0.618399
0.610596
0.601776
0.592048
0.581603
0.570666
0.559437
0.54808
0.536721
0.525454
0.51435
0.503459
0.492817
0.482448
0.472368
0.462584
0.4531
0.443916
0.435026
0.42642
0.418096
0.410086
0.63746
0.624702
0.616919
0.61035
0.602968
0.594573
0.58525
0.575185
0.564598
0.553692
0.542632
0.531547
0.520534
0.509665
0.498993
0.488554
0.478375
0.468472
0.458855
0.449529
0.440493
0.431741
0.423259
0.415063
0.407231
0.625627
0.613135
0.605739
0.599671
0.592847
0.585012
0.576228
0.566665
0.556543
0.546065
0.5354
0.524678
0.514001
0.503444
0.493061
0.482892
0.472965
0.463298
0.453902
0.444785
0.435946
0.427377
0.41906
0.411033
0.403438
0.610945
0.598782
0.591864
0.586416
0.580281
0.573141
0.565022
0.556083
0.546537
0.53659
0.526414
0.516143
0.505884
0.495713
0.48569
0.475856
0.466241
0.456867
0.447746
0.438887
0.430294
0.421952
0.413841
0.406023
0.398719
0.593491
0.581719
0.575365
0.570649
0.56533
0.559014
0.551686
0.543486
0.534624
0.525308
0.515713
0.505979
0.496215
0.486504
0.476908
0.467472
0.45823
0.449204
0.44041
0.43186
0.423558
0.415488
0.407621
0.400052
0.393093
0.573358
0.562034
0.556327
0.55245
0.548067
0.542698
0.53628
0.528931
0.520859
0.51227
0.503345
0.494229
0.485037
0.475856
0.466753
0.457777
0.448963
0.440339
0.431923
0.42373
0.415766
0.408009
0.400427
0.393144
0.38658
0.550651
0.539833
0.534848
0.531908
0.528575
0.52427
0.518875
0.512486
0.505301
0.497531
0.489361
0.480943
0.472396
0.463813
0.455265
0.446807
0.438478
0.430308
0.422319
0.414528
0.406946
0.399545
0.392284
0.385323
0.379203
0.525491
0.51523
0.511037
0.509127
0.506949
0.503817
0.499551
0.494222
0.488021
0.481157
0.473823
0.466176
0.458343
0.450422
0.44249
0.434607
0.426815
0.419148
0.411632
0.40429
0.397132
0.390127
0.383225
0.37662
0.370988
0.498011
0.488358
0.485019
0.484221
0.483294
0.481434
0.478398
0.474224
0.469093
0.463218
0.456796
0.44999
0.442936
0.435738
0.428479
0.421222
0.414017
0.406901
0.399903
0.393051
0.386358
0.379789
0.373282
0.367066
0.361965
0.468358
0.459358
0.456928
0.457313
0.457724
0.457229
0.455513
0.45258
0.448602
0.443791
0.438351
0.432452
0.426237
0.419818
0.413283
0.406703
0.400132
0.39361
0.387173
0.38085
0.374662
0.368567
0.36249
0.356693
0.352161
0.43669
0.428384
0.42691
0.428542
0.430364
0.431315
0.431
0.429388
0.426637
0.42296
0.418565
0.413632
0.408312
0.402723
0.396961
0.391102
0.385207
0.379321
0.373482
0.367728
0.36208
0.356496
0.350882
0.345534
0.341607
0.403177
0.395604
0.395124
0.398052
0.401349
0.403816
0.404974
0.404753
0.403294
0.400812
0.39752
0.393607
0.38923
0.384517
0.379571
0.374474
0.369294
0.364079
0.358875
0.353723
0.348651
0.343611
0.338494
0.333622
0.330334
0.368002
0.361195
0.361736
0.365998
0.370821
0.374862
0.377555
0.378783
0.378675
0.377442
0.375303
0.372455
0.369065
0.365267
0.361174
0.356875
0.352442
0.347931
0.343392
0.338873
0.334407
0.329944
0.325356
0.320986
0.318368
0.331354
0.325342
0.326925
0.332547
0.338933
0.344593
0.348869
0.351597
0.352887
0.352948
0.352004
0.35026
0.347892
0.345043
0.341834
0.33836
0.334701
0.330921
0.327073
0.323213
0.319381
0.315524
0.311494
0.307649
0.305731
0.293435
0.288242
0.290877
0.297871
0.305843
0.313154
0.31905
0.323317
0.326043
0.327434
0.327718
0.327109
0.325791
0.323916
0.321613
0.318986
0.316122
0.313091
0.309953
0.306771
0.303594
0.300369
0.296924
0.293627
0.292438
0.254454
0.2501
0.253786
0.262151
0.271717
0.280698
0.288239
0.294072
0.298262
0.301008
0.302545
0.303093
0.302843
0.301959
0.300577
0.29881
0.296752
0.29448
0.292062
0.28957
0.287062
0.284486
0.281648
0.278917
0.278488
0.214626
0.211127
0.215854
0.225576
0.236731
0.247385
0.256581
0.263995
0.269665
0.273785
0.276588
0.278305
0.279134
0.279249
0.278794
0.277889
0.276637
0.275124
0.273425
0.271621
0.269783
0.267865
0.265647
0.263495
0.263858
0.174176
0.171542
0.177291
0.188341
0.201063
0.213379
0.224229
0.233228
0.240383
0.245881
0.249957
0.252845
0.254756
0.255867
0.256333
0.256283
0.255827
0.255058
0.254062
0.252928
0.251745
0.250473
0.24887
0.247297
0.248485
0.13333
0.131569
0.138309
0.150646
0.164898
0.178852
0.191339
0.201913
0.21055
0.217421
0.222765
0.22682
0.229803
0.231901
0.233273
0.234058
0.234372
0.234317
0.233986
0.233482
0.232908
0.23224
0.231213
0.23019
0.232241
0.0923203
0.091434
0.0991285
0.112696
0.128428
0.143978
0.158074
0.170202
0.180304
0.188536
0.195135
0.200343
0.204381
0.207445
0.2097
0.211289
0.212336
0.212948
0.213225
0.213282
0.213242
0.213089
0.212535
0.211968
0.214909
0.0513812
0.0513675
0.0599688
0.0746999
0.0918448
0.108937
0.1246
0.13825
0.14979
0.159361
0.167194
0.173533
0.178606
0.18261
0.185717
0.188072
0.189803
0.191018
0.191819
0.192328