/*--------------------------------*- C++ -*----------------------------------*\
  =========                 |
  \\      /  F ield         | OpenFOAM: The Open Source CFD Toolbox
   \\    /   O peration     | Website:  https://openfoam.org
    \\  /    A nd           | Version:  6.0
     \\/     M anipulation  |
\*---------------------------------------------------------------------------*/
FoamFile
{
    version     2.0;
    format      ascii;
    class       volVectorField;
    location    "35";
    object      U;
}
// * * * * * * * * * * * * * * * * * * * * * * * * * * * * * * * * * * * * * //

dimensions      [0 1 -1 0 0 0 0];

internalField   nonuniform List<vector> 
12500
(
(-0.000266125 0.000654444 -5.38283e-22)
(-0.00154272 0.00171901 7.4275e-21)
(-0.00400379 0.00257225 -1.07571e-20)
(-0.00714995 0.0032492 4.93241e-21)
(-0.0107076 0.00377881 2.95292e-22)
(-0.0145054 0.00418657 -6.06339e-22)
(-0.0184066 0.00449539 -8.94169e-21)
(-0.0223093 0.00472555 4.90293e-21)
(-0.0261425 0.00489481 3.2375e-21)
(-0.0298597 0.00501859 3.28354e-21)
(-0.0334333 0.00511013 -5.5499e-21)
(-0.0368513 0.00518071 3.22404e-21)
(-0.0401133 0.00523981 -1.51608e-21)
(-0.0432283 0.00529532 2.5672e-21)
(-0.0462122 0.00535366 -6.53866e-21)
(-0.0490859 0.00541996 9.43483e-21)
(-0.051874 0.00549819 -1.79632e-21)
(-0.0546027 0.00559126 -6.65428e-21)
(-0.0572992 0.00570116 3.40377e-21)
(-0.0599905 0.00582901 -3.24373e-21)
(-0.0627063 0.00597513 2.8987e-21)
(-0.0654756 0.00613918 3.8252e-21)
(-0.0682893 0.00632077 3.87793e-22)
(-0.071086 0.0065198 -1.09207e-20)
(-0.0741286 0.00673109 5.75863e-21)
(-0.000315246 0.0012833 9.8315e-21)
(-0.00166709 0.00335144 -2.53621e-20)
(-0.00418027 0.00497342 7.46862e-21)
(-0.00736002 0.00622468 4.98434e-21)
(-0.0109358 0.00716697 -3.96813e-21)
(-0.0147384 0.00785425 -2.25165e-20)
(-0.0186332 0.00833529 6.68549e-21)
(-0.0225199 0.0086534 -1.26077e-20)
(-0.0263287 0.00884672 1.50629e-20)
(-0.0300141 0.00894856 -2.00804e-20)
(-0.0335493 0.00898785 1.07048e-20)
(-0.036923 0.00898956 3.45489e-21)
(-0.0401352 0.00897502 -8.68999e-21)
(-0.0431955 0.00896231 -3.83349e-21)
(-0.0461202 0.00896648 2.80235e-20)
(-0.0489305 0.00899981 -2.47568e-20)
(-0.0516514 0.00907204 5.91378e-21)
(-0.0543098 0.00919048 1.02136e-20)
(-0.0569332 0.00936023 -2.3275e-21)
(-0.0595493 0.00958431 1.64086e-20)
(-0.0621885 0.00986364 2.98118e-21)
(-0.0648805 0.0101973 -1.06875e-21)
(-0.0676168 0.0105845 -2.06293e-20)
(-0.0703357 0.0110257 1.89559e-20)
(-0.0733007 0.0115063 -3.61342e-20)
(-0.00040385 0.00190549 3.15339e-20)
(-0.0018941 0.00496635 1.04716e-20)
(-0.00450751 0.00734818 -1.3713e-20)
(-0.00775552 0.0091662 5.88339e-21)
(-0.011372 0.0105146 5.50005e-21)
(-0.0151913 0.0114756 2.08488e-20)
(-0.0190819 0.0121234 -2.64481e-20)
(-0.0229461 0.0125242 -4.29521e-21)
(-0.0267163 0.0127362 -1.76615e-20)
(-0.0303487 0.0128104 -1.47248e-20)
(-0.033818 0.0127915 1.89863e-20)
(-0.0371137 0.0127178 -6.3463e-20)
(-0.0402372 0.0126227 -1.97973e-21)
(-0.0431986 0.0125345 -3.7978e-20)
(-0.0460151 0.0124768 -4.46363e-21)
(-0.0487088 0.0124695 5.37883e-21)
(-0.0513055 0.012528 -2.93567e-20)
(-0.0538331 0.0126646 -1.834e-20)
(-0.0563202 0.0128876 -2.16836e-20)
(-0.0587959 0.0132022 3.39305e-20)
(-0.0612918 0.0136102 1.23841e-20)
(-0.0638392 0.0141103 -5.49985e-20)
(-0.0664308 0.0147014 -2.64545e-20)
(-0.0690043 0.0153848 -2.95346e-20)
(-0.0718251 0.0161363 7.95907e-20)
(-0.000531499 0.00251901 -9.83428e-22)
(-0.00222263 0.00655791 -2.42174e-20)
(-0.00498393 0.00968694 -1.1613e-20)
(-0.00833454 0.0120606 7.19635e-21)
(-0.0120141 0.0138052 4.47512e-20)
(-0.0158618 0.0150306 -2.01611e-20)
(-0.0197504 0.0158364 4.29369e-20)
(-0.0235858 0.0163111 4.08422e-20)
(-0.0273036 0.0165328 2.48303e-20)
(-0.0308622 0.0165701 -3.72954e-22)
(-0.0342385 0.0164828 4.99272e-20)
(-0.0374235 0.0163229 8.63185e-21)
(-0.0404199 0.0161356 3.79971e-20)
(-0.0432391 0.0159594 8.72303e-20)
(-0.0458992 0.0158271 -1.01067e-19)
(-0.0484238 0.0157659 1.51768e-19)
(-0.0508398 0.0157979 3.29688e-20)
(-0.0531768 0.0159402 -7.26635e-20)
(-0.055465 0.0162052 -1.02944e-20)
(-0.0577352 0.0166007 2.63543e-20)
(-0.0600213 0.0171296 -1.31931e-20)
(-0.062357 0.0177907 -7.88498e-21)
(-0.0647368 0.0185829 -7.67966e-21)
(-0.0670977 0.0195086 -3.08943e-20)
(-0.0697084 0.0205339 1.08212e-19)
(-0.000697697 0.00312204 1.64277e-20)
(-0.00265135 0.00812062 -7.62776e-20)
(-0.00560752 0.0119806 9.24448e-20)
(-0.00909448 0.0148954 -3.6769e-20)
(-0.012859 0.0170228 4.39809e-20)
(-0.0167465 0.0185003 3.58526e-20)
(-0.020635 0.0194521 1.35982e-20)
(-0.0244355 0.019989 6.66071e-22)
(-0.0280871 0.0202083 7.63873e-20)
(-0.0315518 0.0201957 5.28143e-20)
(-0.0348087 0.0200261 -2.11509e-20)
(-0.037851 0.019765 -1.36025e-20)
(-0.0406831 0.0194692 5.73329e-20)
(-0.0433177 0.0191877 1.0787e-20)
(-0.0457745 0.0189626 2.92347e-20)
(-0.0480785 0.0188291 6.99276e-20)
(-0.0502584 0.0188161 -6.03422e-20)
(-0.0523455 0.0189465 4.86612e-20)
(-0.0543725 0.0192372 -1.04791e-19)
(-0.0563727 0.0196992 8.7972e-20)
(-0.0583827 0.0203376 5.67213e-22)
(-0.0604397 0.0211517 -7.00045e-20)
(-0.0625408 0.0221406 2.81529e-20)
(-0.0646223 0.0233086 6.38773e-20)
(-0.0669579 0.0246118 -9.39637e-20)
(-0.000901907 0.00371299 8.49713e-20)
(-0.00317865 0.00964944 -9.02015e-20)
(-0.00637569 0.0142208 -1.45046e-20)
(-0.0100318 0.0176587 1.8284e-20)
(-0.0139022 0.0201527 -3.94638e-20)
(-0.01784 0.021867 -6.1491e-20)
(-0.0217301 0.0229503 -5.10935e-20)
(-0.0254891 0.0235347 -1.2309e-20)
(-0.0290612 0.0237366 -8.78171e-20)
(-0.032412 0.0236583 6.98965e-20)
(-0.0355238 0.0233893 -1.08479e-19)
(-0.0383925 0.0230082 5.48007e-20)
(-0.041024 0.0225834 -1.81693e-20)
(-0.0434331 0.0221747 4.20665e-20)
(-0.045641 0.0218335 -1.05703e-19)
(-0.0476743 0.0216035 5.11915e-20)
(-0.0495636 0.0215213 3.81424e-21)
(-0.0513428 0.0216162 2.26785e-20)
(-0.053047 0.0219106 1.36879e-19)
(-0.0547128 0.02242 3.03004e-20)
(-0.0563807 0.0231521 -2.75952e-21)
(-0.058092 0.0241076 8.63954e-21)
(-0.0598476 0.0252869 5.68966e-20)
(-0.0615834 0.0266968 1.62038e-20)
(-0.06358 0.0282832 5.31129e-20)
(-0.00114356 0.00429041 -5.29439e-20)
(-0.00380265 0.0111396 7.51556e-20)
(-0.00728513 0.0163993 4.70893e-21)
(-0.0111416 0.0203396 -9.16788e-20)
(-0.0151376 0.0231809 1.92691e-19)
(-0.0191351 0.0251144 -6.22701e-20)
(-0.0230273 0.0263123 9.0859e-20)
(-0.0267376 0.0269277 8.3092e-20)
(-0.0302162 0.0270951 -6.87232e-20)
(-0.0334334 0.0269329 -9.99779e-20)
(-0.0363751 0.0265447 2.7355e-20)
(-0.0390398 0.0260217 -2.88312e-20)
(-0.0414359 0.025444 -1.27459e-19)
(-0.0435798 0.0248818 1.54769e-19)
(-0.0454945 0.0243962 -7.41869e-20)
(-0.0472083 0.0240401 -5.11269e-20)
(-0.0487541 0.0238584 4.74036e-22)
(-0.050168 0.023888 4.17284e-20)
(-0.0514887 0.024158 1.71922e-20)
(-0.0527565 0.0246894 -6.73186e-20)
(-0.0540162 0.0254941 7.68172e-20)
(-0.0553149 0.0265753 -1.3339e-19)
(-0.0566581 0.0279358 8.1425e-20)
(-0.0579819 0.0295862 -6.2311e-20)
(-0.059577 0.0314621 1.63435e-20)
(-0.00142204 0.00485301 7.70458e-20)
(-0.00452107 0.0125867 -5.9248e-20)
(-0.00833156 0.0185086 -3.76833e-20)
(-0.0124176 0.0229274 -6.6512e-20)
(-0.0165566 0.0260946 -1.21567e-19)
(-0.0206211 0.0282275 -8.97972e-20)
(-0.0245141 0.0295216 5.59529e-20)
(-0.0281673 0.03015 -8.47187e-20)
(-0.0315377 0.0302647 1.07494e-19)
(-0.0346009 0.0299989 -1.74899e-19)
(-0.0373473 0.0294701 7.76649e-20)
(-0.0397783 0.0287814 1.63975e-19)
(-0.0419047 0.0280239 -2.30319e-19)
(-0.043745 0.0272784 3.28752e-20)
(-0.0453236 0.0266159 4.27575e-20)
(-0.0466707 0.0260988 4.13241e-20)
(-0.0478212 0.0257813 -4.43916e-20)
(-0.048814 0.0257091 -1.0907e-20)
(-0.0496911 0.0259194 -3.25675e-20)
(-0.0504972 0.0264404 -2.71484e-20)
(-0.0512827 0.0272902 -1.4893e-19)
(-0.0521014 0.028476 -1.00506e-20)
(-0.0529649 0.0300047 1.62583e-21)
(-0.0538107 0.0318926 -6.7262e-20)
(-0.0549429 0.0340645 6.91598e-20)
(-0.00173665 0.00539949 2.22836e-21)
(-0.00533109 0.0139862 2.42333e-20)
(-0.00950948 0.020541 2.52295e-20)
(-0.0138513 0.025412 1.46354e-20)
(-0.0181476 0.0288816 1.23734e-19)
(-0.0222836 0.0311929 1.16185e-19)
(-0.0261734 0.0325639 -9.44154e-20)
(-0.0297586 0.0331868 -2.87305e-20)
(-0.033004 0.0332301 -2.55047e-20)
(-0.0358916 0.0328412 1.31559e-19)
(-0.0384164 0.0321499 4.72115e-20)
(-0.0405836 0.0312708 -6.87177e-20)
(-0.0424065 0.0303053 -5.81412e-20)
(-0.0439053 0.0293444 1.40053e-19)
(-0.045106 0.0284689 -3.45265e-20)
(-0.0460402 0.0277515 -4.18409e-20)
(-0.0467449 0.0272561 -5.8366e-20)
(-0.0472614 0.0270387 -4.54182e-20)
(-0.0476355 0.0271463 -5.79527e-20)
(-0.0479166 0.0276167 -3.78786e-20)
(-0.0481616 0.0284762 1.57356e-19)
(-0.0484322 0.0297386 -7.74647e-20)
(-0.0487478 0.0314172 5.21441e-20)
(-0.0490489 0.0335365 -1.38631e-19)
(-0.0496576 0.036011 5.58722e-20)
(-0.00208658 0.00592844 -6.91931e-20)
(-0.00622919 0.0153333 -1.80242e-20)
(-0.0108118 0.0224889 -1.40752e-19)
(-0.0154315 0.0277833 -6.74301e-20)
(-0.0198952 0.0315301 -1.33071e-19)
(-0.0241029 0.033998 -1.38715e-20)
(-0.0279816 0.0354264 7.12836e-20)
(-0.0314841 0.036026 -4.34146e-20)
(-0.0345844 0.0359804 9.35298e-20)
(-0.0372718 0.03545 -2.27206e-19)
(-0.0395468 0.0345757 -6.57847e-21)
(-0.0414185 0.0334824 4.02469e-20)
(-0.0429029 0.0322811 -5.10447e-20)
(-0.0440219 0.031072 4.64285e-20)
(-0.0448029 0.0299459 -3.54937e-20)
(-0.0452787 0.0289853 -7.60233e-20)
(-0.0454876 0.0282651 1.38631e-19)
(-0.0454734 0.0278526 8.59505e-20)
(-0.0452853 0.0278068 -1.78158e-20)
(-0.0449779 0.0281774 5.6684e-20)
(-0.044615 0.0290019 -1.11817e-19)
(-0.044268 0.0303041 1.61099e-19)
(-0.0439658 0.0321071 -2.19978e-19)
(-0.0436543 0.0344474 4.52796e-20)
(-0.0436795 0.0372299 -8.57596e-20)
(-0.00247076 0.00643819 3.75562e-21)
(-0.00721088 0.0166227 -6.15699e-20)
(-0.0122293 0.0243438 9.11755e-20)
(-0.0171438 0.0300307 1.86911e-19)
(-0.0217797 0.0340284 -3.07712e-21)
(-0.0260535 0.0366307 2.11579e-20)
(-0.0299074 0.0380981 -7.99222e-20)
(-0.0333071 0.0386582 3.74135e-20)
(-0.036237 0.0385085 2.57817e-19)
(-0.0386949 0.0378211 -5.84886e-20)
(-0.0406875 0.0367467 -6.90507e-20)
(-0.0422284 0.0354186 2.60908e-19)
(-0.0433364 0.0339565 8.51745e-20)
(-0.0440353 0.0324686 4.05301e-20)
(-0.0443534 0.0310546 4.14806e-20)
(-0.0443243 0.0298071 1.12992e-19)
(-0.0439871 0.0288121 -4.3407e-20)
(-0.0433874 0.0281494 1.14735e-19)
(-0.0425774 0.0278919 1.55215e-19)
(-0.0416169 0.0281042 -1.32348e-19)
(-0.0405774 0.0288386 1.966e-19)
(-0.0395411 0.0301332 7.0125e-20)
(-0.0385486 0.0320257 -2.66068e-19)
(-0.0375543 0.03457 3.8471e-19)
(-0.0369358 0.0376631 -3.11309e-19)
(-0.00288784 0.00692668 -1.76201e-19)
(-0.00827043 0.0178482 9.60249e-20)
(-0.0137507 0.0260964 -6.44261e-20)
(-0.0189702 0.0321427 -6.11809e-20)
(-0.0237756 0.0363642 -6.60262e-20)
(-0.0281026 0.0390793 -7.16135e-20)
(-0.0319105 0.0405686 1.9653e-20)
(-0.0351794 0.0410757 1.86654e-19)
(-0.0379062 0.0408108 -3.99784e-20)
(-0.040098 0.0399557 -1.04083e-19)
(-0.0417687 0.0386694 -6.35477e-20)
(-0.042937 0.0370921 -2.59908e-20)
(-0.0436251 0.0353499 7.6867e-20)
(-0.0438587 0.0335578 -4.90864e-20)
(-0.0436668 0.0318231 -1.60145e-19)
(-0.0430831 0.0302474 -1.76665e-19)
(-0.042147 0.0289277 7.0429e-20)
(-0.0409051 0.027957 -1.3105e-19)
(-0.0394118 0.0274238 1.13777e-19)
(-0.0377316 0.0274105 -3.21259e-19)
(-0.035944 0.0279888 2.46773e-19)
(-0.0341434 0.0292161 -3.26275e-19)
(-0.0323842 0.0311513 -6.09259e-21)
(-0.030633 0.0338733 -1.09785e-19)
(-0.0293092 0.0372749 3.22125e-19)
(-0.00333594 0.00739128 2.70368e-19)
(-0.00940056 0.0190026 3.9627e-20)
(-0.0153613 0.027736 -2.60346e-20)
(-0.020888 0.0341066 -1.09802e-20)
(-0.0258516 0.0385239 2.04287e-19)
(-0.0302094 0.0413308 6.64305e-20)
(-0.03394 0.0428274 6.02252e-20)
(-0.0370403 0.043272 -4.84087e-20)
(-0.0395205 0.0428858 1.86643e-19)
(-0.0413988 0.0418593 -9.17455e-20)
(-0.0426976 0.0403573 5.91999e-20)
(-0.0434416 0.0385252 1.50542e-19)
(-0.0436568 0.0364933 -8.53489e-20)
(-0.043371 0.0343813 9.24091e-20)
(-0.042614 0.0323021 8.72542e-20)
(-0.0414195 0.0303645 2.98548e-20)
(-0.0398262 0.0286753 -7.35286e-20)
(-0.0378806 0.0273407 2.03346e-19)
(-0.0356385 0.0264658 -1.89178e-20)
(-0.0331681 0.0261535 -2.17829e-20)
(-0.0305569 0.0264992 2.4336e-19)
(-0.027912 0.0275862 -1.73072e-19)
(-0.0253042 0.0295033 2.91501e-19)
(-0.0227163 0.0323645 -2.41657e-19)
(-0.0206228 0.0360646 3.10656e-19)
(-0.00381263 0.00782876 -1.30609e-19)
(-0.0105921 0.020077 2.89517e-20)
(-0.0170437 0.0292499 -3.01708e-20)
(-0.0228699 0.0359077 -1.42766e-19)
(-0.0279696 0.0404922 8.28473e-21)
(-0.0323242 0.043371 8.1254e-20)
(-0.0359338 0.0448628 -3.30436e-19)
(-0.038814 0.0452399 2.46613e-19)
(-0.0409905 0.0447332 -2.40035e-19)
(-0.0424937 0.0435398 -1.51351e-19)
(-0.0433557 0.0418289 1.35713e-19)
(-0.0436084 0.0397486 -2.9361e-19)
(-0.0432827 0.0374312 2.4726e-19)
(-0.0424093 0.0349984 -7.86131e-20)
(-0.0410192 0.0325658 -2.24467e-19)
(-0.0391455 0.0302468 5.54371e-20)
(-0.0368262 0.0281559 -5.20383e-20)
(-0.0341066 0.0264107 1.96036e-20)
(-0.0310425 0.0251327 -7.01107e-20)
(-0.0277047 0.024447 -2.32582e-19)
(-0.0241876 0.0244768 5.20934e-20)
(-0.0206118 0.0253383 -7.63128e-23)
(-0.0170657 0.0271607 -2.39626e-19)
(-0.0135531 0.0301074 1.68329e-19)
(-0.0106204 0.0340847 -1.45439e-19)
(-0.00431472 0.00823522 5.28719e-20)
(-0.0118339 0.0210614 9.73537e-20)
(-0.0187765 0.0306239 1.36196e-19)
(-0.0248834 0.0375289 7.00462e-20)
(-0.0300843 0.0422512 -6.86714e-20)
(-0.0343876 0.0451829 1.63803e-19)
(-0.0378175 0.046661 1.2119e-19)
(-0.0404098 0.0469705 -4.41078e-20)
(-0.0422073 0.0463512 1.57496e-19)
(-0.0432546 0.0450053 -1.61982e-19)
(-0.0435949 0.0431047 -4.74914e-20)
(-0.0432686 0.0407982 4.81962e-20)
(-0.0423129 0.0382175 9.54761e-20)
(-0.0407625 0.0354831 1.14127e-21)
(-0.0386503 0.0327103 6.0397e-20)
(-0.0360099 0.0300135 1.11451e-19)
(-0.0328782 0.0275107 -1.89732e-19)
(-0.0292989 0.0253277 2.35813e-19)
(-0.0253267 0.0236003 7.95522e-20)
(-0.0210329 0.0224755 2.80526e-20)
(-0.0165177 0.0221067 -2.85918e-19)
(-0.0119146 0.0226497 4.04681e-20)
(-0.00733066 0.024286 6.27345e-20)
(-0.00279414 0.0272472 -1.50441e-20)
(0.00105549 0.0314655 7.14493e-20)
(-0.00483822 0.00860619 4.15139e-21)
(-0.0131124 0.0219442 -2.50784e-19)
(-0.0205348 0.0318417 -6.23779e-21)
(-0.0268903 0.0389509 -6.32208e-20)
(-0.0321429 0.0437803 -4.15389e-19)
(-0.0363308 0.0467465 3.58593e-19)
(-0.0395039 0.0482043 -2.55113e-19)
(-0.0417204 0.0484512 -1.28278e-20)
(-0.0430419 0.0477347 -1.20465e-19)
(-0.0435285 0.0462612 2.08251e-19)
(-0.0432361 0.044204 -2.24107e-19)
(-0.0422154 0.0417108 -1.04904e-19)
(-0.0405116 0.0389104 2.21889e-21)
(-0.0381649 0.0359196 -2.26855e-19)
(-0.0352121 0.0328492 3.09467e-19)
(-0.0316885 0.0298102 -3.58452e-19)
(-0.027631 0.0269194 7.0653e-22)
(-0.0230819 0.0243052 5.49079e-20)
(-0.018094 0.0221126 -1.37359e-19)
(-0.0127382 0.0205067 1.33214e-19)
(-0.00711776 0.019671 -1.88978e-19)
(-0.00137774 0.0198047 -1.24837e-19)
(0.00435656 0.021154 2.32602e-19)
(0.0100307 0.0240414 -2.53735e-19)
(0.0148874 0.0284462 -4.87494e-21)
(-0.00537828 0.00893672 -2.12309e-19)
(-0.0144117 0.0227129 2.43539e-19)
(-0.0222899 0.0328852 -7.51369e-20)
(-0.0288471 0.0401521 1.44624e-19)
(-0.0340855 0.0450559 1.55923e-19)
(-0.038075 0.0480379 -1.37321e-19)
(-0.0408934 0.0494708 -9.10321e-20)
(-0.0426228 0.049664 -1.08953e-19)
(-0.043345 0.0488726 9.97322e-20)
(-0.043137 0.0473067 -6.64693e-21)
(-0.042069 0.0451401 1.45316e-19)
(-0.0402035 0.0425183 1.43197e-19)
(-0.0375957 0.0395659 -1.71006e-19)
(-0.034294 0.0363933 3.35756e-19)
(-0.0303412 0.0331039 -2.226e-19)
(-0.0257771 0.0298004 -3.81788e-20)
(-0.0206409 0.0265924 4.3345e-19)
(-0.0149755 0.0236037 -2.00678e-19)
(-0.00883249 0.0209801 1.27845e-19)
(-0.00228127 0.0188971 2.49678e-19)
(0.00457339 0.0175621 -1.61985e-19)
(0.0115775 0.0172172 1.70678e-20)
(0.0185906 0.0181819 -1.11309e-20)
(0.0255341 0.0208957 -6.63875e-20)
(0.0315062 0.0254126 1.25018e-19)
(-0.00592922 0.00922166 4.8524e-20)
(-0.0157136 0.0233541 -1.5439e-19)
(-0.0240091 0.0337351 8.43805e-20)
(-0.0307049 0.0411088 -1.03354e-21)
(-0.0358445 0.0460515 6.34922e-20)
(-0.0395317 0.0490297 -1.0923e-19)
(-0.0418739 0.0504336 6.24806e-20)
(-0.0429782 0.0505851 1.70099e-19)
(-0.0429476 0.0497467 -5.16079e-21)
(-0.0418772 0.0481322 -8.68403e-20)
(-0.0398526 0.0459162 8.72922e-20)
(-0.0369499 0.0432419 -2.02272e-21)
(-0.0332362 0.040229 -2.7632e-19)
(-0.0287707 0.0369807 1.02449e-19)
(-0.0236059 0.0335906 2.26344e-20)
(-0.0177898 0.0301495 -3.98156e-20)
(-0.0113681 0.026754 -7.09909e-20)
(-0.00438817 0.0235146 2.72084e-19)
(0.0030963 0.0205674 6.63444e-20)
(0.011016 0.0180852 -1.42132e-19)
(0.0192654 0.0162863 -1.70744e-20)
(0.0276847 0.0154455 1.95675e-19)
(0.0361236 0.0159566 -9.13672e-20)
(0.044489 0.0184001 3.92507e-20)
(0.0517094 0.0229389 2.65088e-20)
(-0.00648458 0.00945588 -9.71839e-20)
(-0.0169976 0.0238543 9.65813e-20)
(-0.025656 0.0343715 -5.44348e-20)
(-0.0324093 0.0417962 -1.74714e-19)
(-0.0373453 0.0467389 -1.60804e-19)
(-0.0406032 0.0496913 -7.11764e-20)
(-0.0423214 0.0510618 -5.89098e-20)
(-0.0426329 0.0511847 -1.74236e-19)
(-0.0416624 0.0503304 -7.03556e-20)
(-0.0395235 0.0487175 6.41088e-20)
(-0.0363182 0.0465219 -9.15314e-20)
(-0.0321374 0.0438859 -9.66286e-20)
(-0.027062 0.0409254 -9.06348e-20)
(-0.0211648 0.0377369 1.64538e-19)
(-0.0145118 0.0344039 -3.45539e-19)
(-0.00716408 0.031004 1.97254e-19)
(0.000819948 0.0276165 -3.37327e-19)
(0.00938173 0.0243317 -5.19754e-20)
(0.0184587 0.0212637 -1.85191e-19)
(0.0279764 0.0185661 -4.32495e-20)
(0.0378264 0.0164468 -5.2747e-20)
(0.0478439 0.0151902 -1.7617e-19)
(0.0578764 0.0152492 -1.93101e-20)
(0.0678378 0.0173602 1.07821e-19)
(0.0764715 0.0218291 -2.80466e-19)
(-0.00703728 0.00963457 8.33738e-20)
(-0.018241 0.0242005 1.09046e-19)
(-0.0271906 0.0347748 3.81879e-19)
(-0.0339006 0.0421896 -6.70423e-20)
(-0.0385057 0.0470891 1.59509e-19)
(-0.0411823 0.0499908 3.79875e-19)
(-0.0421004 0.0513216 -1.03506e-19)
(-0.0414191 0.0514284 1.4005e-19)
(-0.0392851 0.0505906 8.16736e-20)
(-0.0358305 0.0490324 1.47956e-19)
(-0.0311736 0.0469331 -2.96282e-20)
(-0.0254207 0.0444361 2.00121e-20)
(-0.0186681 0.0416559 -5.17552e-20)
(-0.0110046 0.0386852 2.79961e-19)
(-0.00251324 0.0356004 3.58194e-20)
(0.00672596 0.0324674 2.59486e-19)
(0.0166344 0.0293483 -6.63389e-20)
(0.0271329 0.0263097 2.37193e-19)
(0.038139 0.0234347 3.32715e-20)
(0.0495618 0.0208406 1.20508e-19)
(0.0612813 0.0186978 -5.20054e-20)
(0.0731236 0.0172628 -9.26373e-21)
(0.0849407 0.0170081 2.86389e-19)
(0.0966889 0.0188159 1.76155e-19)
(0.106939 0.0231569 -7.34493e-20)
(-0.00757971 0.00975355 -2.02096e-19)
(-0.0194191 0.024381 -2.04847e-19)
(-0.028569 0.034927 -2.14075e-19)
(-0.0351133 0.0422653 7.84297e-20)
(-0.0392361 0.0470743 -1.57476e-19)
(-0.0411521 0.0498973 -2.34551e-20)
(-0.0410635 0.0511794 -6.18278e-20)
(-0.0391554 0.0512809 -2.56311e-19)
(-0.0355958 0.0504908 -3.99853e-20)
(-0.0305346 0.0490405 6.56936e-20)
(-0.0241063 0.0471146 -2.06003e-19)
(-0.0164322 0.0448605 2.85462e-19)
(-0.00762462 0.0423955 -3.87438e-19)
(0.00221036 0.0398129 9.3232e-20)
(0.0129692 0.0371876 -2.37005e-19)
(0.0245481 0.0345799 -1.92224e-19)
(0.0368404 0.0320404 -1.09313e-20)
(0.0497348 0.0296157 -2.90223e-20)
(0.0631142 0.0273571 2.29001e-20)
(0.0768533 0.0253354 -1.09588e-19)
(0.0908019 0.0236586 -7.58386e-20)
(0.104761 0.022508 9.32063e-20)
(0.118583 0.0223055 -2.57784e-19)
(0.132318 0.024023 8.38066e-20)
(0.14443 0.0282766 5.95522e-20)
(-0.00810383 0.00980941 -3.58635e-20)
(-0.0205052 0.0243854 -5.95194e-20)
(-0.0297433 0.034812 2.31127e-19)
(-0.0359758 0.0420032 8.59448e-20)
(-0.0394384 0.0466708 1.13711e-19)
(-0.0403853 0.0493838 -1.51841e-19)
(-0.0390509 0.0506059 2.56548e-22)
(-0.035646 0.0507107 -1.2276e-19)
(-0.0303588 0.0499974 2.26857e-19)
(-0.0233564 0.0487058 7.40069e-20)
(-0.0147878 0.047028 8.29596e-20)
(-0.00478897 0.0451182 -3.2991e-19)
(0.00651256 0.0431005 4.06708e-19)
(0.0189928 0.0410752 -1.22142e-19)
(0.0325265 0.039123 -8.73638e-20)
(0.0469826 0.0373083 2.6151e-19)
(0.0622203 0.0356823 1.16648e-19)
(0.0780859 0.0342843 -2.95199e-19)
(0.0944114 0.0331461 -1.23221e-19)
(0.111014 0.0322985 3.71802e-19)
(0.127684 0.0317785 -2.84099e-19)
(0.144163 0.0316503 1.70824e-19)
(0.160276 0.0321874 9.55401e-20)
(0.176211 0.0343262 -1.22877e-19)
(0.190485 0.0387365 -1.18561e-19)
(-0.00860119 0.00979964 -1.31946e-19)
(-0.0214701 0.0242059 2.04983e-19)
(-0.0306609 0.0344177 8.7285e-20)
(-0.0364092 0.0413877 -1.26037e-19)
(-0.0390048 0.0458608 -2.01749e-20)
(-0.0387424 0.0484315 -1.32105e-19)
(-0.0358885 0.0495814 -5.26188e-20)
(-0.0306793 0.0496971 5.90163e-20)
(-0.0233224 0.0490882 -1.47491e-20)
(-0.0140003 0.0480034 1.11308e-19)
(-0.00287592 0.0466437 -9.66465e-20)
(0.00990179 0.0451724 2.67357e-19)
(0.0241911 0.0437242 -3.31297e-19)
(0.0398511 0.0424111 2.06568e-19)
(0.0567354 0.0413277 2.5658e-19)
(0.0746853 0.0405542 -3.70798e-19)
(0.0935238 0.0401579 -1.12846e-19)
(0.113049 0.0401934 1.90127e-19)
(0.133029 0.0407011 -1.17383e-19)
(0.1532 0.0417048 1.13365e-19)
(0.173254 0.0431997 -2.74801e-19)
(0.192815 0.0451307 4.57416e-20)
(0.211599 0.0475387 1.79252e-19)
(0.229943 0.0511601 -2.88514e-19)
(0.246722 0.0565294 7.81051e-20)
(-0.00906279 0.00972257 -1.2208e-19)
(-0.0222822 0.0238367 3.82534e-19)
(-0.0312637 0.0337359 7.34178e-20)
(-0.0363262 0.0404098 -1.98334e-19)
(-0.0378161 0.0446358 1.4202e-19)
(-0.0360697 0.0470334 7.20622e-20)
(-0.0313863 0.0481007 1.15074e-19)
(-0.0240266 0.0482369 -7.54554e-21)
(-0.0142172 0.0477612 -1.19583e-20)
(-0.00215552 0.046931 -2.50396e-20)
(0.0119829 0.045956 -1.09406e-19)
(0.0280366 0.0450095 -3.69196e-21)
(0.045851 0.0442379 2.55553e-19)
(0.06527 0.043768 -4.19016e-19)
(0.0861288 0.0437134 2.98099e-19)
(0.108245 0.0441789 6.03155e-20)
(0.131411 0.0452642 1.06649e-19)
(0.155381 0.0470654 -5.50049e-20)
(0.17986 0.0496755 4.87937e-19)
(0.204489 0.0531798 -3.02359e-19)
(0.228818 0.0576305 2.41911e-19)
(0.25225 0.0629783 5.70418e-20)
(0.274202 0.0691542 -1.77453e-19)
(0.294956 0.0767614 1.50415e-19)
(0.314118 0.0857562 2.33389e-19)
(-0.00947878 0.00957722 -3.552e-20)
(-0.0229058 0.0232749 -1.34909e-19)
(-0.0314867 0.0327635 -2.30501e-19)
(-0.0356292 0.0390686 -1.31331e-19)
(-0.0357396 0.042999 -1.83671e-20)
(-0.0321976 0.0451977 -5.18272e-20)
(-0.0253357 0.0461787 -2.39979e-19)
(-0.0154399 0.0463516 3.97424e-20)
(-0.00275561 0.0460442 -2.69407e-19)
(0.0125041 0.0455209 -2.08838e-20)
(0.03015 0.0449985 -2.58186e-19)
(0.0500079 0.0446583 -9.19287e-20)
(0.0719095 0.0446562 5.27417e-20)
(0.095685 0.0451318 -2.51031e-19)
(0.121155 0.0462158 2.27457e-21)
(0.148123 0.0480377 -2.16206e-19)
(0.176367 0.0507335 8.34788e-20)
(0.205629 0.054455 -3.01997e-19)
(0.235601 0.0593812 -5.18056e-20)
(0.265898 0.0657312 -7.26944e-21)
(0.296006 0.0737607 -5.11796e-20)
(0.325175 0.0837267 -5.25407e-20)
(0.352432 0.0960459 -2.6363e-20)
(0.377183 0.111894 -1.0564e-19)
(0.39811 0.129746 -2.26979e-19)
(-0.00983818 0.00936314 6.47579e-20)
(-0.0233013 0.0225194 1.71057e-19)
(-0.0312569 0.0315027 2.05539e-19)
(-0.034209 0.0373721 -1.64221e-19)
(-0.0326279 0.0409665 3.04514e-19)
(-0.0269387 0.0429513 -1.65288e-19)
(-0.0175088 0.043854 8.97114e-20)
(-0.00465108 0.0440931 1.39768e-19)
(0.0113678 0.0440022 1.27127e-19)
(0.0303164 0.04385 6.17869e-20)
(0.0519883 0.0438569 9.98342e-20)
(0.0761914 0.0442074 5.80305e-20)
(0.102739 0.0450607 3.92075e-19)
(0.131444 0.0465603 -2.84893e-19)
(0.162111 0.0488417 3.25251e-19)
(0.194534 0.0520424 -1.35186e-19)
(0.228494 0.0563116 2.9183e-19)
(0.26376 0.0618248 -1.38354e-20)
(0.300093 0.0688057 -6.04509e-20)
(0.337254 0.0775573 -1.12255e-20)
(0.375013 0.088502 2.30258e-19)
(0.413205 0.102289 -2.26346e-19)
(0.452053 0.120212 1.584e-19)
(0.492271 0.144032 1.77115e-19)
(0.530632 0.167469 3.70679e-20)
(-0.0101281 0.00907998 4.48189e-20)
(-0.0234232 0.0215716 -2.44847e-19)
(-0.0304918 0.029961 -8.8853e-20)
(-0.0319434 0.035338 8.10575e-20)
(-0.0283172 0.0385693 -2.49753e-19)
(-0.0200871 0.0403411 -4.92678e-20)
(-0.00765848 0.041192 3.41288e-20)
(0.00862551 0.0415466 1.34719e-19)
(0.028472 0.0417411 -3.41046e-19)
(0.0516246 0.042045 2.59079e-20)
(0.0778509 0.0426769 -9.96357e-20)
(0.106931 0.0438176 -3.0262e-19)
(0.138647 0.0456202 2.06147e-19)
(0.172781 0.0482184 8.80557e-21)
(0.209105 0.0517342 -6.16178e-21)
(0.247387 0.0562848 2.0771e-19)
(0.287392 0.0619902 -3.67387e-19)
(0.328891 0.0689818 2.90999e-19)
(0.371679 0.0774132 -5.37505e-20)
(0.415595 0.0874706 1.70388e-19)
(0.460559 0.0993785 -2.80418e-19)
(0.506636 0.11343 1.61502e-19)
(0.554316 0.130189 -2.90757e-19)
(0.604523 0.150138 3.02105e-19)
(0.652439 0.166911 -9.36863e-20)
(-0.0103332 0.0087273 3.0182e-19)
(-0.0232192 0.0204345 -4.92464e-20)
(-0.0290982 0.0281514 3.62198e-19)
(-0.0286964 0.0329938 1.67538e-19)
(-0.0226279 0.0358535 1.33879e-20)
(-0.01142 0.0374348 7.30663e-20)
(0.00447872 0.038285 1.7616e-20)
(0.0246884 0.0388311 2.97312e-19)
(0.0488813 0.0394084 9.56896e-20)
(0.0767649 0.0402821 -1.28222e-20)
(0.108066 0.0416628 2.5712e-20)
(0.14252 0.0437197 9.8892e-20)
(0.179858 0.0465891 8.24835e-20)
(0.219805 0.0503821 1.76392e-19)
(0.262076 0.05519 -2.0096e-19)
(0.306379 0.061089 6.07005e-20)
(0.352425 0.0681439 1.83805e-20)
(0.399932 0.0764111 8.98953e-20)
(0.448651 0.0859395 2.44027e-19)
(0.49838 0.0967673 -1.58986e-19)
(0.548992 0.108909 1.38198e-20)
(0.600452 0.122345 -2.26754e-19)
(0.652954 0.137135 2.15448e-19)
(0.706946 0.153475 -2.10197e-19)
(0.757552 0.167271 1.93568e-20)
(-0.0104352 0.00830461 -2.51828e-19)
(-0.0226295 0.0191129 1.92424e-19)
(-0.0269722 0.0260922 -3.13069e-19)
(-0.0243185 0.0303769 2.70061e-20)
(-0.0153656 0.0328799 2.20024e-19)
(-0.00070089 0.0343205 -3.66337e-19)
(0.0191763 0.0352509 2.90374e-19)
(0.043839 0.0360968 -4.60427e-19)
(0.0729113 0.0371878 9.17245e-20)
(0.106047 0.0387786 1.9576e-20)
(0.142914 0.0410648 1.54406e-19)
(0.183174 0.0441948 -5.12968e-19)
(0.226483 0.0482778 8.85602e-20)
(0.272479 0.0533897 9.37654e-20)
(0.320786 0.0595781 -5.62232e-20)
(0.371019 0.0668648 -3.48739e-19)
(0.422793 0.075248 1.64167e-19)
(0.475732 0.0847025 3.07594e-19)
(0.529489 0.0951775 -3.24994e-19)
(0.583761 0.106591 2.36048e-19)
(0.638296 0.118816 -3.07087e-19)
(0.692899 0.131666 2.23487e-19)
(0.747473 0.144974 -6.27926e-20)
(0.802087 0.158929 3.59338e-19)
(0.852593 0.171374 -4.1325e-19)
(-0.0104123 0.00781142 3.60906e-20)
(-0.0215863 0.0176142 2.84305e-20)
(-0.0239986 0.0238077 6.96539e-20)
(-0.0186484 0.0275349 2.48218e-19)
(-0.00632505 0.0297239 -7.74002e-21)
(0.0123145 0.0311051 5.54283e-20)
(0.0367083 0.032231 2.46391e-19)
(0.0663675 0.0335207 9.9349e-20)
(0.100849 0.0352919 -3.26907e-20)
(0.139731 0.0377815 2.78317e-19)
(0.18259 0.0411612 -3.16725e-19)
(0.228992 0.0455485 4.858e-19)
(0.278479 0.0510139 -1.92692e-19)
(0.330573 0.0575869 3.49656e-19)
(0.384774 0.06526 -1.18047e-19)
(0.440573 0.0739923 4.30601e-20)
(0.497462 0.0837111 5.21873e-20)
(0.55495 0.094313 -1.01092e-19)
(0.612575 0.105664 8.4573e-20)
(0.669918 0.117594 5.44586e-20)
(0.726614 0.129896 7.54456e-20)
(0.782342 0.142309 1.60996e-19)
(0.836831 0.154578 -1.31511e-20)
(0.889963 0.166876 -7.38352e-20)
(0.938653 0.178536 2.26446e-19)
(-0.010239 0.00724749 -2.11008e-19)
(-0.0200138 0.015948 2.22938e-20)
(-0.0200527 0.0213283 -4.00609e-19)
(-0.011515 0.0245252 -9.56442e-20)
(0.00470544 0.0264748 -1.78859e-19)
(0.0278696 0.0279128 -3.83689e-20)
(0.0573368 0.029386 -1.91313e-19)
(0.0925354 0.0313001 -1.14208e-19)
(0.132929 0.0339525 1.5118e-19)
(0.17799 0.037553 -2.52224e-19)
(0.227174 0.0422384 -7.00281e-20)
(0.279912 0.0480829 2.73541e-21)
(0.335603 0.0551061 -4.72979e-19)
(0.393617 0.0632794 2.01064e-19)
(0.453308 0.0725309 -2.93597e-19)
(0.514023 0.0827507 -9.18774e-21)
(0.575125 0.0937951 5.81079e-20)
(0.636005 0.105491 -9.41309e-20)
(0.696099 0.117637 -8.26272e-20)
(0.754906 0.13001 4.16122e-20)
(0.811988 0.142359 4.67905e-20)
(0.86697 0.154408 -3.02873e-19)
(0.919526 0.165887 1.72928e-19)
(0.969485 0.176932 8.84515e-20)
(1.01482 0.187934 2.55074e-20)
(-0.00988616 0.00661331 2.16022e-19)
(-0.0178286 0.014128 -2.3043e-19)
(-0.0150017 0.0186913 3.22899e-19)
(-0.00274215 0.021416 5.00951e-20)
(0.017937 0.0232354 -1.53777e-20)
(0.0461971 0.0248834 -1.08347e-19)
(0.0812969 0.0268928 1.62907e-20)
(0.122555 0.0296465 1.64438e-19)
(0.169309 0.033411 -2.26729e-19)
(0.220889 0.0383564 2.37954e-19)
(0.276593 0.0445709 -2.50999e-20)
(0.335681 0.0520716 1.10624e-20)
(0.397376 0.0608135 3.09242e-19)
(0.460878 0.070698 4.1448e-19)
(0.525376 0.0815805 -1.62134e-19)
(0.590076 0.0932793 2.88511e-19)
(0.65422 0.105583 1.47036e-19)
(0.71711 0.118258 -8.97102e-20)
(0.778121 0.131058 2.85756e-19)
(0.836721 0.143725 -1.03161e-20)
(0.892471 0.156001 -2.76138e-19)
(0.945022 0.167627 2.92757e-19)
(0.994096 0.178356 4.30896e-20)
(1.03957 0.188293 -1.83329e-19)
(1.08032 0.198516 5.74824e-20)
(-0.0093211 0.00591075 -3.00819e-19)
(-0.0149411 0.0121725 3.14187e-19)
(-0.00870728 0.0159428 -1.99323e-19)
(0.00784729 0.0182867 -6.22547e-20)
(0.0335722 0.020122 -1.38999e-19)
(0.067507 0.0221705 2.4563e-19)
(0.108781 0.0249404 -1.4251e-19)
(0.156568 0.0287792 -6.52363e-20)
(0.210042 0.0339082 -1.8668e-19)
(0.26835 0.0404423 4.83655e-21)
(0.330593 0.0484047 -7.29524e-20)
(0.395828 0.0577391 3.55173e-20)
(0.463079 0.0683222 -3.73755e-19)
(0.531363 0.0799745 1.0647e-19)
(0.599711 0.0924737 -1.28673e-19)
(0.667208 0.105566 -1.03942e-19)
(0.733012 0.118981 3.20923e-20)
(0.796383 0.132439 -1.52254e-19)
(0.8567 0.145666 -6.60248e-20)
(0.913469 0.158398 1.89188e-19)
(0.966324 0.170392 8.10029e-20)
(1.01502 0.181429 -3.438e-19)
(1.05941 0.191311 2.54103e-19)
(1.09949 0.200137 -4.82421e-20)
(1.13485 0.20935 -1.00619e-19)
(-0.00850819 0.00514382 -1.09836e-19)
(-0.0112571 0.0101064 -5.87268e-20)
(-0.00102975 0.0131384 -1.17753e-20)
(0.020425 0.0152289 8.56465e-20)
(0.0517967 0.0172639 9.31521e-20)
(0.0919744 0.0199402 8.10875e-20)
(0.139922 0.0237263 1.00719e-19)
(0.194628 0.0289183 1.5366e-19)
(0.25506 0.0356746 2.34653e-19)
(0.320137 0.0440357 2.32015e-19)
(0.388728 0.0539409 1.22422e-19)
(0.459662 0.0652441 -3.28448e-20)
(0.531758 0.0777301 8.24932e-21)
(0.603854 0.0911317 -1.13096e-20)
(0.674855 0.105148 9.69121e-20)
(0.743764 0.119459 -2.6169e-20)
(0.809716 0.133749 2.88749e-19)
(0.871998 0.147711 -1.29061e-19)