/*--------------------------------*- C++ -*----------------------------------*\
  =========                 |
  \\      /  F ield         | OpenFOAM: The Open Source CFD Toolbox
   \\    /   O peration     | Website:  https://openfoam.org
    \\  /    A nd           | Version:  6.0
     \\/     M anipulation  |
\*---------------------------------------------------------------------------*/
FoamFile
{
    version     2.0;
    format      ascii;
    class       surfaceScalarField;
    location    "2";
    object      phi;
}
// * * * * * * * * * * * * * * * * * * * * * * * * * * * * * * * * * * * * * //

dimensions      [0 3 -1 0 0 0 0];

internalField   nonuniform List<scalar> 
24700
(
-1.7677e-05
1.78509e-05
-1.73937e-07
-5.86397e-05
4.13669e-05
-4.04141e-07
-0.00011473
5.66391e-05
-5.48699e-07
-0.000180214
6.61151e-05
-6.30991e-07
-0.000251026
7.14806e-05
-6.69103e-07
-0.000324272
7.39225e-05
-6.76347e-07
-0.000397844
7.42334e-05
-6.61774e-07
-0.000470125
7.29122e-05
-6.31099e-07
-0.000539793
7.02561e-05
-5.87741e-07
-0.000605693
6.64342e-05
-5.33744e-07
-0.000666769
6.15462e-05
-4.7048e-07
-0.000722034
5.56634e-05
-3.99098e-07
-0.000770571
4.8858e-05
-3.20809e-07
-0.000811555
4.12215e-05
-2.37047e-07
-0.000844283
3.28773e-05
-1.49516e-07
-0.00086821
2.39867e-05
-6.01707e-08
-0.00088299
1.47512e-05
2.88296e-08
-0.000888514
5.40938e-06
1.15197e-07
-0.00088494
-3.77104e-06
1.96626e-07
-0.000872703
-1.2508e-05
2.7095e-07
-0.000852512
-2.05271e-05
3.36343e-07
-0.000825315
-2.7589e-05
3.91499e-07
-0.000792237
-3.35136e-05
4.35882e-07
-0.000754506
-3.82e-05
4.6945e-07
-4.16659e-05
4.93008e-07
-0.000713333
-1.71176e-05
3.49685e-05
-5.69441e-05
8.11934e-05
-0.000111631
0.000111326
-0.000175614
0.000130098
-0.000244911
0.000140778
-0.000316668
0.00014568
-0.000388794
0.000146359
-0.000459682
0.000143801
-0.000528024
0.000138598
-0.000592682
0.000131092
-0.00065262
0.000121484
-0.000706874
0.000109917
-0.000754549
9.65328e-05
-0.000794833
8.15061e-05
-0.000827027
6.50712e-05
-0.000850574
4.7534e-05
-0.000865101
2.92781e-05
-0.000870453
1.07612e-05
-0.000866726
-7.49793e-06
-0.00085429
-2.49445e-05
-0.000833789
-4.1028e-05
-0.000806123
-5.52552e-05
-0.000772397
-6.72391e-05
-0.000733855
-7.67417e-05
-8.37595e-05
-0.000691762
-1.60297e-05
5.09981e-05
-5.3636e-05
0.0001188
-0.00010557
0.00016326
-0.000166597
0.000191125
-0.000232904
0.000207085
-0.000301715
0.00021449
-0.00037097
0.000215615
-0.000439088
0.000211918
-0.00050478
0.000204291
-0.000566941
0.000193253
-0.000624574
0.000179117
-0.000676758
0.000162101
-0.000722638
0.000142413
-0.000761433
0.000120301
-0.000792451
9.60899e-05
-0.000815122
7.0205e-05
-0.000829024
4.31796e-05
-0.00083392
1.56571e-05
-0.000829796
-1.16216e-05
-0.000816894
-3.78465e-05
-0.000795733
-6.21896e-05
-0.00076711
-8.38774e-05
-0.000732084
-0.000102265
-0.000691917
-0.000116909
-0.000127703
-0.000647974
-1.44682e-05
6.54663e-05
-4.88624e-05
0.000153194
-9.67885e-05
0.000211186
-0.000153489
0.000247825
-0.000215399
0.000268995
-0.000279858
0.000278949
-0.000344861
0.000280617
-0.000408853
0.00027591
-0.000470578
0.000266016
-0.00052897
0.000251645
-0.000583085
0.000233232
-0.00063206
0.000211076
-0.000675096
0.00018545
-0.000711458
0.000156662
-0.000740477
0.000125109
-0.000761571
9.1299e-05
-0.000774266
5.58747e-05
-0.000778228
1.96188e-05
-0.0007733
-1.65495e-05
-0.000759549
-5.15973e-05
-0.000737311
-8.44277e-05
-0.000707226
-0.000113962
-0.000670256
-0.000139235
-0.000627671
-0.000159494
-0.000174406
-0.000580967
-1.25115e-05
7.79778e-05
-4.28364e-05
0.000183519
-8.56394e-05
0.00025399
-0.000136767
0.000298953
-0.000192979
0.000325206
-0.00025177
0.000337741
-0.000311206
0.000340053
-0.000369769
0.000334473
-0.000426237
0.000322484
-0.000479589
0.000304997
-0.000528939
0.000282581
-0.000573489
0.000255627
-0.000612512
0.000224472
-0.00064533
0.00018948
-0.000671314
0.000151093
-0.000689889
0.000109874
-0.000700542
6.65279e-05
-0.000702848
2.19242e-05
-0.0006965
-2.28965e-05
-0.00068137
-6.6728e-05
-0.000657565
-0.000108233
-0.000625509
-0.000146018
-0.00058601
-0.000178735
-0.0005403
-0.000205204
-0.000224688
-0.000490018
-1.02569e-05
8.82347e-05
-3.58264e-05
0.000209088
-7.25752e-05
0.000290738
-0.000117055
0.000343433
-0.000166415
0.000374566
-0.000218346
0.000389672
-0.000271005
0.000392712
-0.000322922
0.00038639
-0.00037291
0.000372472
-0.00041999
0.000352078
-0.000463334
0.000325924
-0.000502213
0.000294507
-0.000535974
0.000258233
-0.000564011
0.000217516
-0.000585751
0.000172834
-0.00060065
0.000124773
-0.000608186
7.40638e-05
-0.00060787
2.16083e-05
-0.000599273
-3.14938e-05
-0.000582073
-8.39279e-05
-0.000556136
-0.00013417
-0.000521623
-0.000180531
-0.000479113
-0.000221244
-0.000429738
-0.000254579
-0.000279178
-0.000375248
-7.81497e-06
9.60497e-05
-2.81439e-05
0.000229417
-5.81292e-05
0.000320724
-9.50957e-05
0.000380399
-0.000136638
0.000416108
-0.000180685
0.000433719
-0.000225508
0.000437535
-0.000269693
0.000430575
-0.000312092
0.00041487
-0.000351766
0.000391752
-0.000387937
0.000362095
-0.000419943
0.000326512
-0.000447202
0.000285492
-0.000469186
0.0002395
-0.000485394
0.000189042
-0.000495336
0.000134715
-0.000498516
7.7244e-05
-0.000494429
1.75208e-05
-0.000482567
-4.33553e-05
-0.000462461
-0.000104034
-0.000433749
-0.000162881
-0.00039631
-0.000217971
-0.000350436
-0.000267117
-0.000297064
-0.000307951
-0.000338246
-0.000237997
-5.30217e-06
0.000101352
-2.01264e-05
0.000244242
-4.28919e-05
0.000343489
-7.17291e-05
0.000409236
-0.000104721
0.0004491
-0.000140069
0.000469067
-0.000176188
0.000473655
-0.000211737
0.000466124
-0.000245609
0.000448742
-0.000276903
0.000423046
-0.000304885
0.000390078
-0.00032895
0.000350577
-0.000348583
0.000305125
-0.000363331
0.000254248
-0.000372771
0.000198482
-0.000376486
0.00013843
-0.000374039
7.47967e-05
-0.000364953
8.43538e-06
-0.000348707
-5.96015e-05
-0.000324745
-0.000127997
-0.000292536
-0.000195091
-0.000251695
-0.000258811
-0.000202198
-0.000316615
-0.000144696
-0.000365453
-0.000402
-8.0941e-05
-2.8339e-06
0.000104186
-1.21187e-05
0.000253526
-2.74821e-05
0.000358852
-4.78538e-05
0.000429608
-7.18281e-05
0.000473074
-9.79143e-05
0.000495153
-0.000124699
0.000500439
-0.000150933
0.000492358
-0.000175562
0.000473371
-0.000197724
0.000445208
-0.000216723
0.000409077
-0.000232001
0.000365855
-0.000243102
0.000316226
-0.00024964
0.000260785
-0.000251267
0.00020011
-0.000247645
0.000134809
-0.000238416
6.55673e-05
-0.00022317
-6.81069e-06
-0.000201425
-8.13465e-05
-0.000172616
-0.000156806
-0.000136121
-0.000231585
-9.13589e-05
-0.000303573
-3.79977e-05
-0.000369976
2.36536e-05
-0.000427105
-0.000470357
9.20104e-05
-5.17155e-07
0.000104703
-4.45287e-06
0.000257462
-1.25138e-05
0.000366913
-2.43831e-05
0.000441477
-3.91699e-05
0.000487861
-5.5715e-05
0.000511698
-7.28062e-05
0.000517531
-8.93111e-05
0.000508863
-0.000104244
0.000488304
-0.000116787
0.000457751
-0.000126282
0.000418573
-0.000132213
0.000371785
-0.000134168
0.000318182
-0.000131818
0.000258436
-0.000124882
0.000193173
-0.000113094
0.000123021
-9.61767e-05
4.86498e-05
-7.38053e-05
-2.91821e-05
-4.55761e-05
-0.000109576
-1.09778e-05
-0.000191404
3.06145e-05
-0.000273178
7.98865e-05
-0.000352845
0.000137409
-0.000427499
0.000203226
-0.000492922
-0.000543156
0.000276025
1.55596e-06
0.000103147
2.571e-06
0.000256447
1.43926e-06
0.000368045
-2.19527e-06
0.000445112
-7.93574e-06
0.000493602
-1.49668e-05
0.000518729
-2.23031e-05
0.000524867
-2.89551e-05
0.000515515
-3.40254e-05
0.000493375
-3.67529e-05
0.000460478
-3.65221e-05
0.000418342
-3.28512e-05
0.000368114
-2.53694e-05
0.0003107
-1.37893e-05
0.000246856
2.12148e-06
0.000177262
2.25689e-05
0.000102573
4.77617e-05
2.3457e-05
7.79426e-05
-5.9363e-05
0.000113423
-0.000145056
0.000154619
-0.000232601
0.000202088
-0.000320646
0.000256516
-0.000407273
0.000318606
-0.000489589
0.000388706
-0.000563022
-0.000620284
0.000465834
3.31318e-06
9.98337e-05
8.70252e-06
0.000251058
1.38766e-05
0.000362871
1.79176e-05
0.000441071
2.07725e-05
0.000490747
2.29157e-05
0.000516586
2.50887e-05
0.000522694
2.8114e-05
0.00051249
3.27788e-05
0.00048871
3.97718e-05
0.000453485
4.96593e-05
0.000408455
6.28862e-05
0.000354887
7.97925e-05
0.000293793
0.000100636
0.000226013
0.000125615
0.000152283
0.0001549
7.3289e-05
0.000188648
-1.02917e-05
0.000227039
-9.77536e-05
0.000270296
-0.000188313
0.00031873
-0.000281034
0.000372776
-0.000374693
0.000433033
-0.00046753
0.000500216
-0.000556772
0.000574869
-0.000637675
-0.000701758
0.000656343
4.7052e-06
9.51285e-05
1.37542e-05
0.000242009
2.44007e-05
0.000352225
3.52982e-05
0.000430173
4.60092e-05
0.000480036
5.66882e-05
0.000505907
6.78266e-05
0.000511556
8.0063e-05
0.000500253
9.4055e-05
0.000474718
0.000110403
0.000437137
0.000129616
0.000389242
0.000152101
0.000332403
0.000178172
0.000267723
0.000208068
0.000196116
0.000241976
0.000118375
0.000280045
3.52199e-05
0.00032241
-5.26563e-05
0.000369204
-0.000144548
0.000420582
-0.000239691
0.000476744
-0.000337196
0.000537985
-0.000435933
0.000604743
-0.000534288
0.00067763
-0.000629658
0.00075725
-0.000717295
-0.000787744
0.000843236
5.70686e-06
8.94217e-05
1.76101e-05
0.000230105
3.27397e-05
0.000337095
4.94655e-05
0.000413447
6.70487e-05
0.000462452
8.53615e-05
0.000487594
0.000104655
0.000492262
0.000125376
0.000479532
0.000148042
0.000452052
0.000173153
0.000412025
0.000201154
0.000361241
0.000232413
0.000301144
0.000267225
0.00023291
0.000305825
0.000157516
0.0003484
7.58008e-05
0.000395099
-1.14798e-05
0.00044605
-0.000103608
0.00050136
-0.000199858
0.000561124
-0.000299454
0.000625437
-0.000401509
0.000694432
-0.000504928
0.000768342
-0.000608198
0.000847573
-0.00070889
0.000932657
-0.000802379
-0.000878501
0.00102341
6.31646e-06
8.31052e-05
2.02288e-05
0.000216193
3.87607e-05
0.000318563
6.01453e-05
0.000392063
8.34365e-05
0.000439161
0.000108278
0.000462753
0.000134704
0.000465836
0.000162979
0.000451256
0.000193477
0.000421555
0.000226596
0.000378906
0.000262714
0.000325122
0.000302167
0.000261692
0.000345237
0.00018984
0.000392166
0.000110587
0.000443152
2.4815e-05
0.000498358
-6.66864e-05
0.000557911
-0.000163161
0.000621894
-0.00026384
0.000690337
-0.000367898
0.000763223
-0.000474395
0.000840504
-0.000582209
0.000922165
-0.00068986
0.00100833
-0.000795058
0.00109934
-0.000893387
-0.000974261
0.0011951
6.55375e-06
7.65515e-05
2.16419e-05
0.000201105
4.24744e-05
0.000297731
6.72867e-05
0.000367251
9.50243e-05
0.000411424
0.000125167
0.000432611
0.000157573
0.00043343
0.000192346
0.000416484
0.000229727
0.000384174
0.000270021
0.000338612
0.000313549
0.000281595
0.000360617
0.000214624
0.000411508
0.000138948
0.000466477
5.56192e-05
0.000525739
-3.44476e-05
0.00058947
-0.000130417
0.000657784
-0.000231475
0.000730722
-0.000336778
0.000808225
-0.000445401
0.00089013
-0.0005563
0.000976177
-0.000668256
0.00106607
-0.000779752
0.0011596
-0.00088859
0.00125682
-0.000990602
-0.00107508
0.00135763
6.45713e-06
7.00943e-05
2.19486e-05
0.000185613
4.40306e-05
0.000275649
7.10649e-05
0.000340216
0.000101985
0.000380503
0.00013618
0.000398416
0.000173384
0.000396227
0.000213573
0.000376294
0.000256884
0.000340862
0.000303548
0.000291948
0.000353839
0.000231303
0.000408052
0.000160411
0.000466475
8.05252e-05
0.000529374
-7.28013e-06
0.000596977
-0.00010205
0.000669447
-0.000202887
0.000746856
-0.000308885
0.000829157
-0.000419078
0.000916152
-0.000532396
0.00100748
-0.00064763
0.00110263
-0.000763405
0.00120099
-0.000878111
0.00130199
-0.000989592
0.00140535
-0.00109396
-0.00118065
0.00151092
6.08042e-06
6.40139e-05
2.13066e-05
0.000170387
4.37051e-05
0.00025325
7.18674e-05
0.000312054
0.000104805
0.000347566
0.000141889
0.000361331
0.000182789
0.000355327
0.000227404
0.000331679
0.000275802
0.000292464
0.000328165
0.000239586
0.000384746
0.000174723
0.000445832
9.93245e-05
0.000511718
1.46396e-05
0.000582669
-7.82318e-05
0.000658894
-0.000178275
0.000740498
-0.000284492
0.000827454
-0.00039584
0.000919555
-0.00051118
0.0010164
-0.000629238
0.00111736
-0.000748594
0.00122164
-0.000867681
0.00132829
-0.000984758
0.00143639
-0.00109769
0.00154532
-0.00120289
-0.00129021
0.00165488
5.48964e-06
5.85243e-05
1.9922e-05
0.000155955
4.18804e-05
0.000231292
7.0267e-05
0.000283667
0.000104248
0.000313585
0.00014325
0.00032233
0.00018694
0.000311637
0.000235194
0.000283425
0.000288053
0.000239605
0.000345682
0.000181956
0.000408327
0.000112078
0.000476274
3.13777e-05
0.000549804
-5.88904e-05
0.000629148
-0.000157576
0.000714437
-0.000263564
0.000805652
-0.000375707
0.000902579
-0.000492767
0.00100477
-0.000613374
0.00111154
-0.000736008
0.00122196
-0.00085901
0.00133489
-0.000980609
0.00144907
-0.00109894
0.00156329
-0.00121191
0.00167665
-0.00131625
-0.00140245
0.00178889
4.75947e-06
5.37648e-05
1.80357e-05
0.000142679
3.9019e-05
0.000210308
6.69792e-05
0.000255707
0.000101301
0.000279263
0.00014153
0.000282101
0.000187393
0.000265773
0.000238795
0.000232024
0.000295791
0.000182609
0.000358554
0.000119193
0.00042733
4.33013e-05
0.000502386
-4.3678e-05
0.000583951
-0.000140456
0.00067216
-0.000245784
0.000766986
-0.00035839
0.000868193
-0.000476913
0.000975286
-0.00059986
0.0010875
-0.000725586
0.00120379
-0.000852302
0.0013229
-0.000978112
0.00144336
-0.00110107
0.00156366
-0.00121925
0.00168237
-0.00133062
0.00179842
-0.0014323
-0.00151559
0.00191156
3.96915e-06
4.97957e-05
1.5908e-05
0.00013074
3.56301e-05
0.000190586
6.2807e-05
0.00022853
9.70888e-05
0.000244981
0.000138194
0.000240995
0.000185963
0.000218005
0.000240371
0.000177616
0.000301518
0.000121461
0.000369597
5.11147e-05
0.000444836
-3.19384e-05
0.000527445
-0.000126286
0.000617536
-0.000230547
0.000715061
-0.000343309
0.00081974
-0.000463069
0.000931018
-0.000588191
0.00104804
-0.000716879
0.00116964
-0.000847193
0.00129443
-0.000977084
0.00142078
-0.00110446
0.00154699
-0.00122728
0.00167136
-0.00134362
0.00179236
-0.00145162
0.0019089
-0.00154884
-0.00162748
0.0020208
3.19762e-06
4.6598e-05
1.38003e-05
0.000120137
3.22304e-05
0.000172156
5.85737e-05
0.000202187
9.27757e-05
0.000210779
0.000134766
0.000199004
0.000184534
0.000168237
0.000242156
0.000119994
0.000307785
5.58317e-05
0.000381618
-2.27183e-05
0.00046383
-0.00011415
0.000554504
-0.00021696
0.00065355
-0.000329593
0.000760636
-0.000450395
0.000875131
-0.000577565
0.000996077
-0.000709137
0.00112219
-0.000842996
0.00125192
-0.000976917
0.00138348
-0.00110864
0.00151499
-0.00123598
0.00164458
-0.00135687
0.00177049
-0.00146953
0.00189124
-0.00157237
0.00200583
-0.00166343
-0.00173585
0.0021142
2.51774e-06
4.40803e-05
1.19553e-05
0.0001107
2.93019e-05
0.00015481
5.50503e-05
0.000176439
8.94531e-05
0.000176377
0.000132671
0.000155787
0.000184857
0.00011605
0.000246191
5.86599e-05
0.000316867
-1.48437e-05
0.000397042
-0.000102893
0.000486771
-0.00020388
0.000585926
-0.000316115
0.000694118
-0.000437785
0.000810636
-0.000566913
0.000934416
-0.000701345
0.00106404
-0.000838765
0.0011978
-0.000976751
0.00133374
-0.00111285
0.00146978
-0.00124469
0.00160388
-0.00137007
0.00173409
-0.00148708
0.00185874
-0.00159418
0.00197652
-0.00169015
0.00208667
-0.00177359
-0.0018385
0.00218932
1.99035e-06
4.20899e-05
1.05767e-05
0.000102113
2.72509e-05
0.000138136
5.28869e-05
0.000150803
8.80366e-05
0.000141227
0.000133088
0.000110736
0.000188352
6.07866e-05
0.000254088
-7.07622e-06
0.000330482
-9.12384e-05
0.000417591
-0.000190002
0.000515264
-0.000301553
0.000623068
-0.000423918
0.000740221
-0.000554938
0.000865559
-0.000692252
0.000997541
-0.000833327
0.00113429
-0.000975514
0.00127368
-0.00111614
0.00141346
-0.00125263
0.00155136
-0.00138259
0.00168524
-0.00150396
0.00181323
-0.00161507
0.00193379
-0.00171473
0.00204587
-0.00180223
0.00214907
-0.00187679
-0.00193338
0.00224396
1.6592e-06
4.04307e-05
9.81317e-06
9.39592e-05
2.63751e-05
0.000121574
5.25578e-05
0.00012462
8.9185e-05
0.0001046
0.000136847
6.30738e-05
0.000195977
1.6564e-06
0.000266866
-7.79648e-05
0.000349624
-0.000173997
0.000444123
-0.0002845
0.000549914
-0.000407344
0.00066617
-0.000540175
0.000791648
-0.000680416
0.000924692
-0.000825296
0.00106328
-0.000971916
0.00120512
-0.00111736
0.00134778
-0.0012588
0.00148879
-0.00139364
0.00162586
-0.00151965
0.00175691
-0.00163501
0.00188024
-0.0017384
0.00199452
-0.00182901
0.00209872
-0.00190643
0.00219199
-0.00197006
-0.00201701
0.00227562
1.54714e-06
3.88836e-05
9.74765e-06
8.57587e-05
2.68441e-05
0.000104477
5.43309e-05
9.7133e-05
9.32583e-05
6.56724e-05
0.000144371
1.19606e-05
0.000208169
-6.21415e-05
0.000284901
-0.000154696
0.00037452
-0.000263616
0.000476617
-0.000386598
0.000590364
-0.00052109
0.000714469
-0.00066428
0.00084719
-0.000813137
0.000986379
-0.000964484
0.00112958
-0.00111512
0.00127418
-0.00126196
0.00141754
-0.00140216
0.00155717
-0.00153328
0.00169088
-0.00165336
0.00181684
-0.00176097
0.00193371
-0.00185528
0.00204063
-0.00193593
0.00213719
-0.002003
0.00222392
-0.0020568
-0.00209671
0.00230362
1.65847e-06
3.72251e-05
1.0401e-05
7.70161e-05
2.87027e-05
8.61755e-05
5.82718e-05
6.75639e-05
0.000100323
2.36209e-05
0.000155692
-4.34085e-05
0.000224868
-0.000131317
0.000307973
-0.000237801
0.000404711
-0.000360354
0.000514309
-0.000496196
0.000635485
-0.000642265
0.000766444
-0.000795239
0.000904939
-0.000951633
0.00104838
-0.00110792
0.00119395
-0.0012607
0.00133884
-0.00140685
0.00148036
-0.00154368
0.00161613
-0.00166904
0.00174419
-0.00178141
0.00186308
-0.00187986
0.00197189
-0.00196409
0.00207025
-0.00203429
0.00215834
-0.00209108
0.00223692
-0.00213538
-0.0021671
0.00230731
1.97795e-06
3.52472e-05
1.17345e-05
6.72596e-05
3.18816e-05
6.60284e-05
6.42658e-05
3.51797e-05
0.000110194
-2.23075e-05
0.000170513
-0.000103727
0.000245614
-0.000206418
0.000335402
-0.00032759
0.000439242
-0.000464194
0.000555924
-0.000612878
0.000683661
-0.000770002
0.000820148
-0.000931726
0.000962669
-0.00109415
0.00110826
-0.00125351
0.00125388
-0.00140632
0.00139665
-0.00154961
0.00153397
-0.001681
0.0016637
-0.00179877
0.00178423
-0.00190194
0.00189453
-0.00199017
0.00199413
-0.00206369
0.00208306
-0.00212322
0.00216179
-0.00216981
0.00223111
-0.00220469
-0.00222825
0.00229226
2.47863e-06
3.27685e-05
1.36692e-05
5.6069e-05
3.62317e-05
4.3466e-05
7.20714e-05
-6.60062e-07
0.000122507
-7.27428e-05
0.000188307
-0.000169528
0.000269678
-0.000287789
0.000366212
-0.000424124
0.000476857
-0.000574839
0.000599906
-0.000735927
0.00073305
-0.000903147
0.000873494
-0.00107217
0.00101812
-0.00123878
0.0011637
-0.00139909
0.00130711
-0.00154974
0.00144554
-0.00168804
0.00157661
-0.00181207
0.00169856
-0.00192072
0.00181019
-0.00201358
0.00191095
-0.00209092
0.00200079
-0.00215353
0.00208014
-0.00220257
0.00214977
-0.00223944
0.00221068
-0.00226561
-0.00228184
0.00226428
3.12728e-06
2.96413e-05
1.61041e-05
4.30922e-05
4.1558e-05
1.80121e-05
8.13739e-05
-4.04759e-05
0.000136796
-0.000128165
0.000208429
-0.00024116
0.000296194
-0.000375554
0.000399291
-0.000527221
0.00051618
-0.000691728
0.000644624
-0.000864371
0.0007818
-0.00104032
0.000924473
-0.00121484
0.00106923
-0.00138353
0.0012127
-0.00154256
0.00135181
-0.00168885
0.00148397
-0.0018202
0.00160717
-0.00193527
0.00172007
-0.00203361
0.00182195
-0.00211547
0.00191272
-0.00218169
0.00199274
-0.00223355
0.00206277
-0.0022726
0.00212381
-0.00230049
0.00217703
-0.00231882
-0.0023286
0.00222379
3.89026e-06
2.5751e-05
1.8933e-05
2.80494e-05
4.76528e-05
-1.07077e-05
9.18362e-05
-8.46594e-05
0.000152569
-0.000188898
0.000230196
-0.000318787
0.000324269
-0.000469627
0.000433514
-0.000636466
0.000555855
-0.000814069
0.000688514
-0.00099703
0.000828189
-0.00118
0.000971292
-0.00135795
0.00111422
-0.00152646
0.00125364
-0.00168197
0.00138665
-0.00182186
0.001511
-0.00194455
0.00162514
-0.00204941
0.00172821
-0.00213668
0.00181998
-0.00220723
0.00190076
-0.00226247
0.0019713
-0.00230409
0.0020326
-0.00233389
0.00208583
-0.00235372
0.00213224
-0.00236523
-0.00236951
0.00217314
4.73793e-06
2.10131e-05
2.20581e-05
1.07292e-05
5.43199e-05
-4.29694e-05
0.000103136
-0.000133476
0.000169348
-0.000255109
0.000252952
-0.000402391
0.000353044
-0.00056972
0.000467814
-0.000751236
0.00059462
-0.000940875
0.000730157
-0.00113257
0.000870711
-0.00132055
0.00101245
-0.00149969
0.00115174
-0.00166575
0.00128538
-0.00181561
0.00141081
-0.0019473
0.00152623
-0.00205997
0.00163058
-0.00215376
0.00172348
-0.00222958
0.00180518
-0.00228893
0.00187636
-0.00233366
0.00193803
-0.00236575
0.00199138
-0.00238724
0.00203766
-0.0024
0.00207812
-0.00240569
-0.00240538
0.002114
5.64691e-06
1.53662e-05
2.53973e-05
-9.02115e-06
6.13884e-05
-7.89606e-05
0.000114986
-0.000187073
0.000186701
-0.000326825
0.000276096
-0.000491786
0.000381736
-0.000675359
0.000501223
-0.000870724
0.000631345
-0.001071
0.000768319
-0.00126954
0.000908111
-0.00146034
0.00104678
-0.00163836
0.00118079
-0.00179976
0.00130723
-0.00194206
0.00142399
-0.00206406
0.00152975
-0.00216573
0.00162398
-0.00224798
0.00170678
-0.00231239
0.0017788
-0.00236094
0.001841
-0.00239586
0.00189459
-0.00241935
0.00194086
-0.00243351
0.00198108
-0.00244022
0.00201644
-0.00244106
-0.00243702
0.00204808
6.60044e-06
8.76572e-06
2.88857e-05
-3.13064e-05
6.87163e-05
-0.000118791
0.000127137
-0.000245494
0.000204247
-0.000403934
0.00029909
-0.00058663
0.000409637
-0.000785906
0.000532878
-0.000993964
0.00066505
-0.00120317
0.000801967
-0.00140646
0.000939397
-0.00159777
0.00107343
-0.00177239
0.00120077
-0.0019271
0.00131893
-0.00206021
0.00142628
-0.00217141
0.00152205
-0.00226151
0.00160621
-0.00233214
0.00167928
-0.00238546
0.00174222
-0.00242389
0.00179623
-0.00244987
0.00184262
-0.00246573
0.0018827
-0.00247358
0.0019177
-0.00247522
0.00194873
-0.00247209
-0.00246507
0.00197678
7.58721e-06
1.17851e-06
3.24734e-05
-5.61926e-05
7.61856e-05
-0.000162503
0.000139375
-0.000308683
0.000221644
-0.000486204
0.000321449
-0.000686434
0.000436115
-0.000900572
0.000562018
-0.00111987
0.0006949
-0.00133605
0.000830273
-0.00154183
0.000963846
-0.00173135
0.00109188
-0.00190043
0.00121146
-0.00204667
0.00132057
-0.00216932
0.00141814
-0.00226899
0.00150394
-0.0023473
0.00157835
-0.00240655
0.00164228
-0.00244939
0.00169692
-0.00247852
0.0017436
-0.00249654
0.00178366
-0.00250579
0.00181838
-0.00250831
0.00184893
-0.00250576
0.00187628
-0.00249945
-0.00249008
0.0019013
8.5994e-06
-7.42089e-06
3.61198e-05
-8.3713e-05
8.36948e-05
-0.000210078
0.000151506
-0.000376494
0.000238584
-0.000573283
0.00034273
-0.00079058
0.000460602
-0.00101844
0.000587987
-0.00124725
0.000720214
-0.00146828
0.000852622
-0.00167424
0.000981
-0.00185972
0.00110192
-0.00202135
0.00121293
-0.00215768
0.00131257
-0.00226896
0.00140031
-0.00235673
0.0014764
-0.00242338
0.00154162
-0.00247178
0.00159714
-0.00250492
0.00164431
-0.00252569
0.00168451
-0.00253674
0.00171908
-0.00254036
0.00174921
-0.00253844
0.00177595
-0.0025325
0.00180017
-0.00252367
-0.0025125
0.00182259
9.63067e-06
-1.70516e-05
3.97892e-05
-0.000113872
9.115e-05
-0.000261439
0.00016335
-0.000448694
0.000254777
-0.000664709
0.000362528
-0.000898332
0.000482595
-0.00113851
0.000610234
-0.00137489
0.000740469
-0.00159851
0.000868602
-0.00180237
0.000990648
-0.00198177
0.0011036
-0.0021343
0.00120553
-0.00225961
0.00129557
-0.00235899
0.00137368
-0.00243485
0.00144055
-0.00249025
0.00149726
-0.00252849
0.00154517
-0.00255283
0.00158571
-0.00256623
0.00162025
-0.00257129
0.00165007
-0.00257018
0.00167626
-0.00256463
0.00169974
-0.00255598
0.00172126
-0.00254519
-0.00253266
0.00174142
1.06745e-05
-2.77261e-05
4.34456e-05
-0.000146643
9.84587e-05
-0.000316452
0.000174732
-0.000524968
0.000269945
-0.000759923
0.000380471
-0.00100886
0.000501658
-0.0012597
0.000628318
-0.00150155
0.000755296
-0.00172549
0.000878006
-0.00192508
0.000992808
-0.00209657
0.0010972
-0.00223869
0.00118984
-0.00235225
0.00127038
-0.00243953
0.00133927
-0.00250375
0.00139753
-0.00254851
0.00144649
-0.00257745
0.00148759
-0.00259393
0.00152229
-0.00260093
0.00155192
-0.00260091
0.00157763
-0.00259589
0.00160042
-0.00258742
0.00162107
-0.00257664
0.00164022
-0.00256434
-0.00255079
0.00165835
1.17233e-05
-3.94494e-05
4.70507e-05
-0.00018197
0.000105526
-0.000374927
0.000185477
-0.000604918
0.000283829
-0.000858275
0.000396225
-0.00112125
0.000517428
-0.0013809
0.000641912
-0.00162604
0.000764488
-0.00184807
0.000880812
-0.00204141
0.000987695
-0.00220345
0.0010832
-0.0023342
0.00116655
-0.0024356
0.0012379
-0.00251089
0.00129812
-0.00256396
0.00134847
-0.00259886
0.00139043
-0.00261941
0.0014255
-0.002629
0.00145509
-0.00263051
0.00148043
-0.00262626
0.00150258
-0.00261804
0.0015224
-0.00260723
0.00154056
-0.00259479
0.00155757
-0.00258135
-0.00256705
0.00157383
1.27676e-05
-5.2217e-05
5.05627e-05
-0.000219765
0.000112253
-0.000436617
0.000195413
-0.000688079
0.000296184
-0.000959046
0.0004095
-0.00123457
0.000529621
-0.00150102
0.000650813
-0.00174723
0.000767988
-0.00196524
0.000877166
-0.00215058
0.000975686
-0.00230197
0.00106219
-0.0024207
0.00113645
-0.00250985
0.00119908
-0.00257351
0.00125124
-0.00261612
0.0012944
-0.00264202
0.00133011
-0.00265512
0.00135986
-0.00265875
0.00138496
-0.00265562
0.00140656
-0.00264785
0.00142558
-0.00263706
0.00144276
-0.00262441
0.00145866
-0.00261069
0.0014737
-0.0025964
-0.00258156
0.00148821
1.37964e-05
-6.60135e-05
5.39362e-05
-0.000259905
0.00011854
-0.000501221
0.000204377
-0.000773916
0.000306791
-0.00106146
0.000420059
-0.00134784
0.000538041
-0.001619
0.000654931
-0.00186412
0.000765876
-0.00207619
0.000867354
-0.00225206
0.000957278
-0.0023919
0.00103487
-0.0024983
0.00110039
-0.00257538
0.00115483
-0.00262795
0.0011996
-0.0026609
0.00123628
-0.0026787
0.00126643
-0.00268527
0.00129146
-0.00268378
0.00131262
-0.00267677
0.00133091
-0.00266615
0.00134714
-0.0026533
0.00136193
-0.0026392
0.00137575
-0.00262451
0.00138893
-0.00260958
-0.00259436
0.00140173
1.47973e-05
-8.08107e-05
5.71241e-05
-0.000302232
0.000124288
-0.000568384
0.000212215
-0.000861843
0.000315464
-0.00116471
0.000427726
-0.0014601
0.000542583
-0.00173386
0.000654292
-0.00197583
0.000758352
-0.00218025
0.000851771
-0.00234548
0.000933052
-0.00247318
0.00100196
-0.0025672
0.0010592
-0.00263261
0.00110605
-0.0026748
0.00114409
-0.00269894
0.00117494
-0.00270956
0.00120014
-0.00271046
0.001221
-0.00270465
0.00123866
-0.00269443
0.00125399
-0.00268148
0.00126768
-0.00266699
0.00128026
-0.00265178
0.0012921
-0.00263635
0.00130348
-0.00262095
-0.00260547
0.0013146
1.5757e-05
-9.65677e-05
6.00787e-05
-0.000346553
0.000129403
-0.000637709
0.000218792
-0.000951231
0.000322054
-0.00126797
0.000432386
-0.00157043
0.000543225
-0.0018447
0.000649019
-0.00208162
0.000745714
-0.00227694
0.000830892
-0.00243066
0.000903636
-0.00254592
0.000964209
-0.00262778
0.00101367
-0.00268208
0.00105354
-0.00271467
0.00108548
-0.00273087
0.00111111
-0.00273519
0.00113189
-0.00273123
0.00114903
-0.00272179
0.00116353
-0.00270893
0.00117617
-0.00269411
0.00118751
-0.00267834
0.001198
-0.00266227
0.00120793
-0.00264629
0.00121753
-0.00263055
-0.0026149
0.00122696
1.66618e-05
-0.000113229
6.27535e-05
-0.000392645
0.0001338
-0.000708755
0.000223993
-0.00104142
0.000326452
-0.00137043
0.000433989
-0.00167797
0.000540027
-0.00195074
0.000639321
-0.00218092
0.000728334
-0.00236595
0.000805242
-0.00250757
0.000869676
-0.00261036
0.000922333
-0.00268043
0.000964571
-0.00272431
0.000998049
-0.00274815
0.00102447
-0.00275729
0.0010454
-0.00275612
0.00106221
-0.00274804
0.00107599
-0.00273558
0.00108762
-0.00272056
0.00109776
-0.00270424
0.00110688
-0.00268746
0.00111535
-0.00267073
0.00112341
-0.00265434
0.00113123
-0.00263837
-0.00262262
0.00113895
1.74982e-05
-0.000130728
6.5105e-05
-0.000440252
0.000137401
-0.000781052
0.00022773
-0.00113175
0.000328595
-0.0014713
0.000432546
-0.00178192
0.000533118
-0.00205131
0.000625472
-0.00227327
0.000706635
-0.00244712
0.000775368
-0.0025763
0.000831806
-0.0026668
0.000877014
-0.00272564
0.000912566
-0.00275987
0.00094021
-0.00277579
0.000961633
-0.00277872
0.00097833
-0.00277282
0.000991543
-0.00276125
0.00100226
-0.00274629
0.00101122
-0.00272952
0.001019
-0.00271202
0.00102598
-0.00269445
0.00103247
-0.00267722
0.00103866
-0.00266053
0.00104469
-0.0026444
-0.0026286
0.00105067
1.82532e-05
-0.000148981
6.7094e-05
-0.000489093
0.000140146
-0.000854104
0.000229942
-0.00122155
0.000328463
-0.00156982
0.000428124
-0.00188158
0.000522687
-0.00214587
0.000607798
-0.00235838
0.000681069
-0.00252039
0.000741821
-0.00263705
0.000790636
-0.00271561
0.000828876
-0.00276388
0.000858267
-0.00278926
0.000880587
-0.00279811
0.000897473
-0.0027956
0.000910316
-0.00278566
0.000920239
-0.00277117
0.000928106
-0.00275416
0.000934562
-0.00273598
0.000940075
-0.00271753
0.000944978
-0.00269935
0.000949503
-0.00268175
0.000953812
-0.00266484
0.000958016
-0.0026486
-0.00263279
0.000962209
1.89146e-05
-0.000167896
6.86866e-05
-0.000538865
0.000141988
-0.000927405
0.000230596
-0.00131016
0.000326078
-0.0016653
0.000420838
-0.00197634
0.00050897
-0.002234
0.000586656
-0.00243607
0.000652097
-0.00258583
0.000705135
-0.00269009
0.000746735
-0.00275721
0.000778486
-0.00279563
0.000802206
-0.00281298
0.000819659
-0.00281557
0.000832401
-0.00280834
0.000841709
-0.00279497
0.000848583
-0.00277805
0.000853775
-0.00275935
0.000857832
-0.00274004
0.000861144
-0.00272084
0.000863985
-0.0027022
0.000866544
-0.00268431
0.000868952
-0.00266725
0.000871298
-0.00265095
-0.00263516
0.000873664
1.94717e-05
-0.000187367
6.98552e-05
-0.000589248
0.000142893
-0.00100044
0.000229684
-0.00139695
0.000321498
-0.00175711
0.000410843
-0.00206569
0.000492233
-0.00231539
0.00056242
-0.00250625
0.000620179
-0.00264359
0.000665819
-0.00273573
0.000700622
-0.00279201
0.000726345
-0.00282136
0.000744843
-0.00283148
0.000757829
-0.00282855
0.000766759
-0.00281727
0.000772791
-0.002801
0.000776805
-0.00278206
0.000779447
-0.00276199
0.00078118
-0.00274177
0.000782327
-0.00272199
0.000783112
-0.00270298
0.00078369
-0.00268489
0.000784167
-0.00266773
0.000784618
-0.0026514
-0.00263565
0.000785111
1.9915e-05
-0.000207282
7.05791e-05
-0.000639912
0.000142846
-0.00107271
0.000227227
-0.00148133
0.000314812
-0.0018447
0.000398325
-0.0021492
0.000472766
-0.00238983
0.00053547
-0.00256896
0.000585754
-0.00269387
0.000624341
-0.00277432
0.000652765