/*--------------------------------*- C++ -*----------------------------------*\
  =========                 |
  \\      /  F ield         | OpenFOAM: The Open Source CFD Toolbox
   \\    /   O peration     | Website:  https://openfoam.org
    \\  /    A nd           | Version:  6.0
     \\/     M anipulation  |
\*---------------------------------------------------------------------------*/
FoamFile
{
    version     2.0;
    format      ascii;
    class       surfaceScalarField;
    location    "61";
    object      phi;
}
// * * * * * * * * * * * * * * * * * * * * * * * * * * * * * * * * * * * * * //

dimensions      [0 3 -1 0 0 0 0];

internalField   nonuniform List<scalar> 
24700
(
-7.85073e-07
5.40612e-05
-5.32761e-05
-3.22024e-06
0.000141148
-0.000138712
-7.23419e-06
0.000210895
-0.000206881
-1.26396e-05
0.000265859
-0.000260454
-1.9169e-05
0.000308388
-0.000301859
-2.65057e-05
0.000340675
-0.000333339
-3.43111e-05
0.000364696
-0.00035689
-4.22494e-05
0.000382158
-0.00037422
-5.00059e-05
0.000394492
-0.000386736
-5.73014e-05
0.000402849
-0.000395553
-6.39012e-05
0.000408122
-0.000401522
-6.96203e-05
0.000410983
-0.000405264
-7.43252e-05
0.00041192
-0.000407215
-7.79326e-05
0.000411277
-0.00040767
-8.04061e-05
0.000409296
-0.000406822
-8.1751e-05
0.000406148
-0.000404803
-8.20082e-05
0.000401966
-0.000401708
-8.12471e-05
0.000396863
-0.000397624
-7.95586e-05
0.000390955
-0.000392644
-7.70486e-05
0.000384371
-0.000386882
-7.38328e-05
0.000377264
-0.00038048
-7.00338e-05
0.000369817
-0.000373616
-6.57808e-05
0.000362247
-0.0003665
-6.12127e-05
0.000354811
-0.000359379
0.000347844
-0.000352567
-5.64894e-05
-3.40968e-07
5.44022e-05
-1.68792e-06
0.000142495
-4.15261e-06
0.00021336
-7.69066e-06
0.000269397
-1.21462e-05
0.000312844
-1.7288e-05
0.000345817
-2.28422e-05
0.00037025
-2.85204e-05
0.000387837
-3.40419e-05
0.000400014
-3.91499e-05
0.000407957
-4.36235e-05
0.000412596
-4.72833e-05
0.000414643
-4.9995e-05
0.000414632
-5.16682e-05
0.00041295
-5.22539e-05
0.000409881
-5.17398e-05
0.000405634
-5.0145e-05
0.000400371
-4.7514e-05
0.000394232
-4.39109e-05
0.000387352
-3.94151e-05
0.000379876
-3.41176e-05
0.000371967
-2.8121e-05
0.00036382
-2.15413e-05
0.000355667
-1.4514e-05
0.000347783
0.000340539
-7.20878e-06
7.08473e-08
5.43313e-05
-2.50889e-07
0.000142816
-1.23851e-06
0.000214348
-2.9773e-06
0.000271136
-5.41541e-06
0.000315282
-8.40355e-06
0.000348805
-1.17309e-05
0.000373577
-1.51562e-05
0.000391262
-1.84319e-05
0.00040329
-2.13231e-05
0.000410848
-2.36208e-05
0.000414893
-2.51493e-05
0.000416171
-2.57701e-05
0.000415252
-2.53826e-05
0.000412563
-2.39217e-05
0.000408421
-2.13548e-05
0.000403067
-1.76766e-05
0.000396693
-1.2905e-05
0.00038946
-7.07704e-06
0.000381524
-2.45597e-07
0.000373044
7.52126e-06
0.0003642
1.61389e-05
0.000355203
2.5501e-05
0.000346305
3.54711e-05
0.000337813
0.000330146
4.58641e-05
4.4648e-07
5.38848e-05
1.07649e-06
0.000142186
1.47878e-06
0.000213945
1.45374e-06
0.000271161
9.58714e-07
0.000315777
6.6352e-08
0.000349698
-1.07298e-06
0.000374716
-2.2636e-06
0.000392452
-3.29078e-06
0.000404317
-3.94082e-06
0.000411498
-4.01549e-06
0.000414968
-3.34123e-06
0.000415497
-1.774e-06
0.000413685
7.99144e-07
0.000409989
4.46105e-06
0.000404759
9.26692e-06
0.000398261
1.52475e-05
0.000390712
2.24123e-05
0.000382296
3.07521e-05
0.000373184
4.02399e-05
0.000363556
5.08298e-05
0.00035361
6.24536e-05
0.000343579
7.50125e-05
0.000333746
8.83649e-05
0.000324461
0.000316206
0.000102305
7.82844e-07
5.3102e-05
2.28243e-06
0.000140687
3.9744e-06
0.000212253
5.56195e-06
0.000269574
6.91903e-06
0.00031442
8.04842e-06
0.000348568
9.04385e-06
0.000373721
1.00571e-05
0.000391439
1.12712e-05
0.000403103
1.28789e-05
0.00040989
1.5068e-05
0.000412779
1.80104e-05
0.000412555
2.18562e-05
0.000409839
2.67313e-05
0.000405114
3.27374e-05
0.000398753
3.99524e-05
0.000391046
4.84335e-05
0.000382231
5.82179e-05
0.000372511
6.93243e-05
0.000362078
8.17517e-05
0.000351129
9.54766e-05
0.000339885
0.000110446
0.000328609
0.000126568
0.000317624
0.000143692
0.000307337
0.000298313
0.000161585
1.0775e-06
5.20245e-05
3.35707e-06
0.000138407
6.22701e-06
0.000209383
9.31167e-06
0.000266489
1.24141e-05
0.000311317
1.54752e-05
0.000345507
1.85368e-05
0.000370659
2.17093e-05
0.000388267
2.51448e-05
0.000399667
2.90158e-05
0.000406019
3.34989e-05
0.000408296
3.8764e-05
0.00040729
4.4967e-05
0.000403636
5.22464e-05
0.000397835
6.07218e-05
0.000390277
7.04942e-05
0.000381274
8.16466e-05
0.000371079
9.42443e-05
0.000359914
0.000108334
0.000347988
0.000123941
0.000335522
0.000141066
0.00032276
0.000159671
0.000310004
0.00017967
0.000297626
0.000200901
0.000286106
0.000276115
0.000223099
1.32847e-06
5.0696e-05
4.29212e-06
0.000135444
8.21806e-06
0.000205457
1.2671e-05
0.000262036
1.73968e-05
0.000306592
2.22834e-05
0.000340621
2.73265e-05
0.000365616
3.25979e-05
0.000382995
3.82204e-05
0.000394045
4.43457e-05
0.000399894
5.11389e-05
0.000401502
5.87668e-05
0.000399662
6.73894e-05
0.000395014
7.71565e-05
0.000388068
8.82045e-05
0.000379229
0.000100656
0.000368822
0.000114619
0.000357115
0.000130187
0.000344345
0.000147436
0.00033074
0.000166418
0.000316539
0.000187158
0.000302021
0.000209637
0.000287525
0.000233773
0.000273489
0.000259396
0.000260483
0.000249314
0.000286197
1.53414e-06
4.91619e-05
5.08052e-06
0.000131897
9.9313e-06
0.000200607
1.56114e-05
0.000256356
2.18237e-05
0.000300379
2.84136e-05
0.000334031
3.53365e-05
0.000358694
4.26296e-05
0.000375702
5.03876e-05
0.000386287
5.87416e-05
0.00039154
6.78444e-05
0.0003924
7.78573e-05
0.000389649
8.89431e-05
0.000383928
0.00010126
0.000375751
0.000114959
0.00036553
0.000130184
0.000353598
0.000147065
0.000340234
0.000165723
0.000325687
0.000186264
0.0003102
0.000208769
0.000294034
0.000233291
0.000277499
0.000259832
0.000260984
0.00028832
0.000245001
0.00031857
0.000230233
0.000217658
0.000350226
1.69323e-06
4.74687e-05
5.71635e-06
0.000127874
1.13527e-05
0.00019497
1.81074e-05
0.000249601
2.56557e-05
0.000292831
3.38105e-05
0.000325876
4.24946e-05
0.000350009
5.17145e-05
0.000366482
6.15384e-05
0.000376463
7.20776e-05
0.000381001
8.34706e-05
0.000381007
9.58721e-05
0.000377248
0.000109444
0.000370356
0.000124351
0.000360844
0.000140757
0.000349125
0.00015882
0.000335535
0.000178695
0.000320359
0.000200529
0.000303853
0.000224457
0.000286272
0.000250593
0.000267898
0.00027902
0.000249072
0.000309767
0.000230237
0.000342776
0.000211992
0.000377852
0.000195158
0.00018093
0.00041458
1.80471e-06
4.56639e-05
6.19486e-06
0.000123484
1.24706e-05
0.000188695
2.01376e-05
0.000241934
2.88584e-05
0.00028411
3.84252e-05
0.000316309
4.87354e-05
0.000339699
5.97695e-05
0.000355448
7.15722e-05
0.00036466
8.42346e-05
0.000368339
9.78806e-05
0.000367361
0.000112656
0.000362472
0.000128719
0.000354292
0.000146237
0.000343325
0.000165383
0.000329979
0.000186328
0.000314589
0.000209249
0.000297438
0.000234316
0.000278786
0.000261695
0.000258893
0.000291536
0.000238057
0.000323957
0.000216651
0.00035902
0.000195174
0.00039669
0.000174322
0.000436763
0.000155085
0.000138931
0.000478762
1.86789e-06
4.37961e-05
6.51269e-06
0.000118839
1.32766e-05
0.000181931
2.16856e-05
0.000233525
3.14052e-05
0.00027439
4.22182e-05
0.000305496
5.40047e-05
0.000327913
6.67251e-05
0.000342728
8.04029e-05
0.000350982
9.51105e-05
0.000353631
0.000110956
0.000351515
0.000128075
0.000345354
0.00014662
0.000335748
0.000166757
0.000323188
0.000188663
0.000308073
0.000212523
0.000290729
0.000238527
0.000271434
0.000266871
0.000250442
0.000297751
0.000228013
0.000331353
0.000204455
0.000367837
0.000180166
0.000407309
0.000155702
0.000449763
0.000131867
0.000494998
0.000109851
9.14633e-05
0.000542465
1.88253e-06
4.19135e-05
6.66842e-06
0.000114053
1.37665e-05
0.000174833
2.27423e-05
0.000224549
3.32797e-05
0.000263853
4.51636e-05
0.000293612
5.82661e-05
0.00031481
7.25328e-05
0.000328461
8.79702e-05
0.000335545
0.000104634
0.000336968
0.000122616
0.000333532
0.000142041
0.000325929
0.000163052
0.000314736
0.000185813
0.000300427
0.000210502
0.000283384
0.00023731
0.000263921
0.000266441
0.000242302
0.000298113
0.00021877
0.00033255
0.000193576
0.000369977
0.000167029
0.000410601
0.000139542
0.000454579
0.000111724
0.000501951
8.44954e-05
0.000552526
5.92752e-05
3.83054e-05
0.000605684
1.84902e-06
4.00645e-05
6.66322e-06
0.000109239
1.39417e-05
0.000167554
2.33084e-05
0.000215183
3.44802e-05
0.000252681
4.72561e-05
0.000280836
6.15089e-05
0.000300557
7.71766e-05
0.000312793
9.4253e-05
0.000318468
0.000112779
0.000318441
0.000132835
0.000313477
0.00015453
0.000304234
0.000178001
0.000291265
0.000203406
0.000275023
0.000230919
0.000255871
0.000260738
0.000234103
0.000293075
0.000209965
0.000328165
0.00018368
0.000366258
0.000155483
0.000407618
0.000125669
0.000452501
9.46588e-05
0.000501123
6.31021e-05
0.000553583
3.20352e-05
0.000609719
3.13932e-06
-2.0812e-05
0.000668837
1.76864e-06
3.82959e-05
6.50187e-06
0.000104506
1.38117e-05
0.000160244
2.3398e-05
0.000205596
3.50251e-05
0.000241054
4.85177e-05
0.000267344
6.37588e-05
0.000285316
8.0686e-05
0.000295866
9.92867e-05
0.000299868
0.000119592
0.000298136
0.000141671
0.000291398
0.000165623
0.000280282
0.000191575
0.000265313
0.00021968
0.000246918
0.00025011
0.000225441
0.000283061
0.000201152
0.000318753
0.000174273
0.000357433
0.000145001
0.000399371
0.000113545
0.000444864
8.01762e-05
0.000494216
4.53068e-05
0.000547704
9.61347e-06
0.000605499
-2.57589e-05
0.000667482
-5.88445e-05
-8.62252e-05
0.000732896
1.64394e-06
3.66519e-05
6.19397e-06
9.99557e-05
1.33961e-05
0.000153042
2.30428e-05
0.00019595
3.49592e-05
0.000229138
4.9007e-05
0.000253296
6.50894e-05
0.000269234
8.31521e-05
0.000277803
0.000103183
0.000279837
0.00012521
0.000276109
0.000149294
0.000267313
0.000175531
0.000254045
0.000204042
0.000236802
0.000234973
0.000215987
0.000268495
0.000191919
0.000304802
0.000164844
0.000344117
0.000134957
0.000386691
0.000102427
0.000432808
6.7428e-05
0.000482785
3.01996e-05
0.000536963
-8.87076e-06
0.000595674
-4.90982e-05
0.000659161
-8.92461e-05
0.000727371
-0.000127055
-0.000158347
0.000799493
1.47917e-06
3.51728e-05
5.75524e-06
9.56796e-05
1.27278e-05
0.00014607
2.22965e-05
0.000186381
3.43598e-05
0.000217074
4.88282e-05
0.000238828
6.56348e-05
0.000252427
8.4743e-05
0.000258695
0.00010615
0.00025843
0.000129888
0.000252372
0.000156021
0.000241181
0.000184642
0.000225424
0.000215873
0.000205571
0.000249861
0.000182
0.000286775
0.000155005
0.000326808
0.000124811
0.000370181
9.15846e-05
0.000417142
5.54661e-05
0.000467972
1.65977e-05
0.000522991
-2.482e-05
0.000582555
-6.84343e-05
0.000647029
-0.000113572
0.000716715
-0.000158932
0.000791633
-0.000201972
-0.000237659
0.000870945
1.28069e-06
3.38921e-05
5.20889e-06
9.17514e-05
1.18548e-05
0.000139424
2.12385e-05
0.000176997
3.33437e-05
0.000204969
4.81399e-05
0.000224031
6.56015e-05
0.000234966
8.57201e-05
0.000238576
0.000108513
0.000235637
0.000134026
0.000226859
0.000162335
0.000212872
0.000193543
0.000194216
0.000227779
0.000171335
0.000265195
0.000144584
0.000305965
0.000114236
0.00035028
8.04948e-05
0.000398355
4.35099e-05
0.000450423
3.3978e-06
0.000506746
-3.97252e-05
0.000567617
-8.56909e-05
0.000633367
-0.000134184
0.000704355
-0.00018456
0.000780908
-0.000235485
0.000863108
-0.000284172
-0.000324678
0.000950127
1.05734e-06
3.28347e-05
4.58664e-06
8.82221e-05
1.0843e-05
0.000133167
1.99779e-05
0.000167862
3.20709e-05
0.000192876
4.71616e-05
0.000208941
6.52766e-05
0.000216851
8.64477e-05
0.000217405
0.000110724
0.00021136
0.000138178
0.000199404
0.000168909
0.000182141
0.000203041
0.000160084
0.000240719
0.000133656
0.00028211
0.000103193
0.000327393
6.89521e-05
0.000376762
3.11265e-05
0.000430414
-1.01426e-05
0.000488557
-5.47451e-05
0.000551405
-0.000102573
0.000619189
-0.000153474
0.000692164
-0.000207159
0.000770619
-0.000263016
0.000854845
-0.000319711
0.000944958
-0.000374284
-0.000419892
0.00104017
8.2069e-07
3.2014e-05
3.9292e-06
8.51136e-05
9.77616e-06
0.00012732
1.86538e-05
0.000158985
3.07467e-05
0.000180783
4.61755e-05
0.000193512
6.50307e-05
0.000197996
8.73969e-05
0.000195039
0.000113369
0.000185388
0.000143059
0.000169714
0.000176603
0.000148597
0.000214156
0.000122532
0.000255891
9.1921e-05
0.000301994
5.70895e-05
0.000352655
1.82909e-05
0.000408061
-2.42794e-05
0.000468387
-7.04687e-05
0.000533791
-0.000120149
0.000604411
-0.000173192
0.000680366
-0.00022943
0.000761777
-0.000288571
0.000848787
-0.000350025
0.000941564
-0.000412488
0.00104019
-0.000472915
-0.000523666
0.00114397
5.84894e-07
3.14291e-05
3.28582e-06
8.24127e-05
8.75554e-06
0.000121851
1.74337e-05
0.000150306
2.96186e-05
0.000168599
4.55221e-05
0.000177608
6.53109e-05
0.000178207
8.91357e-05
0.000171214
0.00011715
0.000157374
0.000149521
0.000137343
0.00018643
0.000111688
0.000228077
8.08848e-05
0.000274668
4.533e-05
0.000326411
5.3473e-06
0.0003835
-3.87984e-05
0.000446108
-8.68871e-05
0.000514367
-0.000138728
0.000588359
-0.000194142
0.000668107
-0.000252941
0.000753573
-0.000314896
0.000844675
-0.000379673
0.000941325
-0.000446675
0.00104347
-0.000514638
0.00115109
-0.000580533
-0.000636128
0.00126355
3.66307e-07
3.10628e-05
2.71273e-06
8.00663e-05
7.89603e-06
0.000116667
1.65078e-05
0.000141695
2.89674e-05
0.000156139
4.55878e-05
0.000160988
6.66237e-05
0.000157171
9.23045e-05
0.000145533
0.000122856
0.000126823
0.000158509
0.00010169
0.000199504
7.06924e-05
0.000246086
3.43024e-05
0.000298497
-7.08005e-06
0.000356957
-5.31133e-05
0.000421657
-0.000103498
0.000492731
-0.000157961
0.000570243
-0.000216239
0.000654163
-0.000278062
0.000744357
-0.000343134
0.000840577
-0.000411116
0.000942482
-0.000481577
0.00104968
-0.000553869
0.0011618
-0.000626761
0.0012786
-0.000697331
-0.000757016
0.00139948
1.82614e-07
3.08802e-05
2.2702e-06
7.79787e-05
7.32058e-06
0.000111617
1.60792e-05
0.000132936
2.90925e-05
0.000143126
4.67836e-05
0.000143297
6.95053e-05
0.000134449
9.75769e-05
0.000117462
0.000131305
9.30947e-05
0.000170993
6.20023e-05
0.00021694
2.47452e-05
0.000269436
-1.81931e-05
0.000328743
-6.63878e-05
0.000395084
-0.000119454
0.000468614
-0.000177028
0.000549401
-0.000238748
0.000637398
-0.000304237
0.000732425
-0.000373088
0.000834145
-0.000444855
0.000942061
-0.000519032
0.00105552
-0.000595039
0.00117378
-0.000672126
0.00129608
-0.000749067
0.00142184
-0.000823082
-0.000885546
0.00155037
5.16115e-08
3.08286e-05
2.01868e-06
7.60116e-05
7.15216e-06
0.000106484
1.63507e-05
0.000123738
3.02922e-05
0.000129184
4.95163e-05
0.000124073
7.44823e-05
0.000109483
0.000105606
8.63383e-05
0.000143278
5.54223e-05
0.000187873
1.74071e-05
0.000239743
-2.71247e-05
0.000299205
-7.76551e-05
0.000366523
-0.000133706
0.000441884
-0.000194815
0.000525374
-0.000260518
0.000616946
-0.000330321
0.000716404
-0.000403694
0.000823367
-0.000480052
0.000937262
-0.000558749
0.00105731
-0.000639076
0.00118252
-0.00072025
0.00131177
-0.000801374
0.00144389
-0.000881195
0.00157788
-0.000957064
-0.0010205
0.00171283
-1.02365e-08
3.08388e-05
2.01411e-06
7.39873e-05
7.50462e-06
0.000100993
1.75098e-05
0.000113732
3.28403e-05
0.000113854
5.41564e-05
0.000102757
8.20269e-05
8.1613e-05
0.000116964
5.14013e-05
0.000159439
1.29468e-05
0.000209886
-3.30394e-05
0.000268687
-8.59258e-05
0.000336159
-0.000145127
0.000412525
-0.000210073
0.000497895
-0.000280185
0.000592229
-0.000354852
0.000695322
-0.000433414
0.000806775
-0.000515147
0.000925984
-0.00059926
0.00105212
-0.000684886
0.00118413
-0.000771082
0.0013207
-0.000856829
0.00146034
-0.000941014
0.00160142
-0.00102227
0.00174244
-0.00109808
-0.0011605
0.00188244
1.07606e-08
3.08281e-05
2.30337e-06
7.16947e-05
8.47361e-06
9.48229e-05
1.97134e-05
0.000102493
3.69641e-05
9.66028e-05
6.1006e-05
7.87148e-05
9.25138e-05
5.01052e-05
0.000132088
1.18266e-05
0.000180266
-3.52308e-05
0.000237513
-9.02863e-05
0.000304208
-0.000152621
0.00038062
-0.000221539
0.000466879
-0.000296332
0.00056295
-0.000376256
0.000668612
-0.000460514
0.000783438
-0.00054824
0.000906791
-0.000638501
0.00103783
-0.000730296
0.0011755
-0.000822562
0.0013186
-0.000914177
0.00146572
-0.00100395
0.0016153
-0.00109059
0.00176542
-0.0011724
0.00191314
-0.00124579
-0.00130003
0.00205266
1.23802e-07
3.07043e-05
2.91972e-06
6.88987e-05
1.01282e-05
8.76144e-05
2.30746e-05
8.95462e-05
4.28252e-05
7.68522e-05
7.02725e-05
5.12675e-05
0.000106186
1.41913e-05
0.000151237
-3.3224e-05
0.000205996
-8.99902e-05
0.000270924
-0.000155214
0.000346343
-0.00022804
0.00043241
-0.000307606
0.000529091
-0.000393013
0.000636135
-0.0004833
0.00075306
-0.000577439
0.000879155
-0.000674334
0.00101349
-0.000772835
0.00115495
-0.000871755
0.00130228
-0.000969898
0.0014542
-0.00106609
0.00160945
-0.0011592
0.00176704
-0.00124819
0.00192665
-0.00133201
0.00209013
-0.00140927
-0.0014745
0.00226459
3.34906e-07
3.03694e-05
3.88388e-06
6.53498e-05
1.25102e-05
7.89881e-05
2.76596e-05
7.43968e-05
5.05114e-05
5.40004e-05
8.20564e-05
1.97226e-05
0.000123138
-2.68904e-05
0.000174465
-8.45513e-05
0.000236603
-0.000152128
0.000309949
-0.000228559
0.000394702
-0.000312793
0.000490836
-0.000403739
0.000598066
-0.000500244
0.000715845
-0.000601079
0.000843356
-0.000704949
0.000979529
-0.000810508
0.00112308
-0.00091639
0.00127258
-0.00102125
0.00142647
-0.00112379
0.00158323
-0.00122285
0.0017414
-0.00131737
0.00189974
-0.00140653
0.00205743
-0.00148969
0.00221438
-0.00156623
-0.00163135
0.00237124
6.44021e-07
2.97253e-05
5.19902e-06
6.07948e-05
1.5628e-05
6.85591e-05
3.34803e-05
5.65445e-05
6.00306e-05
2.745e-05
9.63453e-05
-1.65921e-05
0.00014331
-7.38549e-05
0.000201628
-0.00014287
0.000271801
-0.000222301
0.000354097
-0.000310855
0.000448515
-0.00040721
0.000554755
-0.00050998
0.000672208
-0.000617697
0.00079995
-0.000728821
0.000936766
-0.000841765
0.00108119
-0.000954932
0.00123157
-0.00106677
0.00138612
-0.0011758
0.00154304
-0.00128071
0.00170055
-0.00138036
0.00185703
-0.00147385
0.00201101
-0.00156052
0.00216129
-0.00163997
0.0023069
-0.00171183
-0.00177216
0.0024477
1.04772e-06
2.86776e-05
6.85601e-06
5.49865e-05
1.9464e-05
5.59511e-05
4.05036e-05
3.55049e-05
7.13214e-05
-3.36772e-06
0.000113027
-5.82977e-05
0.000166505
-0.000127333
0.000232399
-0.000208763
0.000311077
-0.00030098
0.000402599
-0.000402377
0.000506677
-0.000511288
0.000622661
-0.000625963
0.000749535
-0.000744571
0.000885947
-0.000865233
0.00103025
-0.00098607
0.00118058
-0.00110526
0.00133494
-0.00122112
0.00149127
-0.00133213
0.00164759
-0.00143702
0.00180201
-0.00153479
0.00195287
-0.00162471
0.00209874
-0.00170638
0.00223843
-0.00177966
0.00237104
-0.00184444
-0.00189792
0.0024968
1.53987e-06
2.71378e-05
8.83595e-06
4.76904e-05
2.39794e-05
4.08076e-05
4.86601e-05
1.08242e-05
8.42651e-05
-3.89727e-05
0.000131907
-0.000105939
0.000192414
-0.00018784
0.000266302
-0.000282652
0.00035373
-0.000388408
0.000454461
-0.000503108
0.000567837
-0.000624665
0.00069278
-0.000750906
0.000827817
-0.000879608
0.000971137
-0.00100855
0.00112067
-0.00113561
0.00127421
-0.0012588
0.00142947
-0.00137639
0.00158427
-0.00148693
0.00173655
-0.00158931
0.00188452
-0.00168275
0.00202666
-0.00176685
0.00216176
-0.00184149
0.00228893
-0.00190683
0.00240762
-0.00196313
-0.00200862
0.00251832
2.11302e-06
2.50247e-05
1.11143e-05
3.86891e-05
2.91222e-05
2.27997e-05
5.78551e-05
-1.79087e-05
9.87023e-05
-7.98199e-05
0.000152728
-0.000159965
0.000220641
-0.000255753
0.00030275
-0.000364761
0.000398918
-0.000484576
0.000508526
-0.000612716
0.000630468
-0.000746607
0.000763181
-0.000883619
0.000904707
-0.00102113
0.00105279
-0.00115664
0.001205
-0.00128781
0.00135884
-0.00141265
0.00151194
-0.00152948
0.00166206
-0.00163706
0.00180731
-0.00173455
0.00194609
-0.00182154
0.00207722
-0.00189798
0.00219987
-0.00196414
0.00231358
-0.00202053
0.00241821
-0.00206776
-0.00210497
0.00251456
2.75982e-06
2.22649e-05
1.36647e-05
2.77843e-05
3.48337e-05
1.63064e-06
6.79793e-05
-5.10543e-05
0.000114447
-0.000126287
0.000175191
-0.000220708
0.000250725
-0.000331288
0.000341068
-0.000455104
0.000445695
-0.000589203
0.000563523
-0.000730544
0.000692939
-0.000876022
0.000831863
-0.00102254
0.000977865
-0.00116714
0.0011283
-0.00130707
0.00128046
-0.00143998
0.00143175
-0.00156393
0.00157978
-0.00167751
0.0017225
-0.00177978
0.00185828
-0.00187033
0.00198591
-0.00194917
0.00210461
-0.00201668
0.00221401
-0.00207354
0.00231409
-0.00212062
0.00240515
-0.00215882
-0.00218799
0.00248818
3.47396e-06
1.8791e-05
1.6462e-05
1.47963e-05
4.10542e-05
-2.29616e-05
7.89165e-05
-8.89166e-05
0.000131295
-0.000178666
0.000198965
-0.000288378
0.000282161
-0.000414484
0.00038052
-0.000553462
0.000493043
-0.000701726
0.000618119
-0.00085562
0.000753586
-0.00101149
0.000896858
-0.00116582
0.00104508
-0.00131536
0.00119533
-0.00145732
0.00134477
-0.00158941
0.00149082
-0.00170998
0.00163128
-0.00181797
0.00176442
-0.00191292
0.00188901
-0.00199492
0.00200429
-0.00206444
0.00210995
-0.00212234
0.00220607
-0.00216966
0.00229305
-0.00220759
0.00237152
-0.00223729
-0.0022591
0.00244262
4.2506e-06
1.45404e-05
1.94833e-05
-4.36431e-07
4.77246e-05
-5.12029e-05
9.05459e-05
-0.000131738
0.000149031
-0.000237151
0.000223694
-0.000363042
0.000314403
-0.000505193
0.000420319
-0.000659379
0.000539899
-0.000821306
0.000670952
-0.000986673
0.000810771
-0.00115131
0.00095631
-0.00131135
0.0011044
-0.00146345
0.00125195
-0.00160487
0.00139617
-0.00173363
0.00153467
-0.00184848
0.00166558
-0.00194889
0.00178762
-0.00203496
0.00190001
-0.00210731
0.00200249
-0.00216692
0.00209521
-0.00221506
0.00217865
-0.0022531
0.00225352
-0.00228246
0.0023207
-0.00230447
-0.00231982
0.00238142
5.08623e-06
9.45411e-06
2.27077e-05
-1.80579e-05
5.4786e-05
-8.32811e-05
0.000102742
-0.000179694
0.000167422
-0.000301831
0.000248996
-0.000444616
0.000346868
-0.000603064
0.000459644
-0.000772155
0.000585176
-0.000946838
0.000720684
-0.00112218
0.000862953
-0.00129358
0.00100857
-0.00145697
0.00115418
-0.00160906
0.00129671
-0.00174741
0.00143356
-0.00187048
0.00156269
-0.00197761
0.00168269
-0.00206889
0.00179275
-0.00214502
0.00189262
-0.00220717
0.00198249
-0.00225679
0.00206291
-0.00229548
0.00213468
-0.00232487
0.00219872
-0.00234651
0.00225607
-0.00236182
-0.00237169
0.00230794
5.97806e-06
3.47605e-06
2.61148e-05
-3.81946e-05
6.21767e-05
-0.000119343
0.000115369
-0.000232886
0.00018622
-0.000372683
0.00027446
-0.000532856
0.000378942
-0.000707546
0.000497649
-0.000890861
0.000627799
-0.00107699
0.000766049
-0.00126043
0.000908756
-0.00143628
0.00105227
-0.00160049
0.00119323
-0.00175001
0.00132873
-0.0018829
0.00145651
-0.00199826
0.001575
-0.0020961
0.00168331
-0.0021772
0.00178116
-0.00224287
0.00186875
-0.00229477
0.00194669
-0.00233473
0.00201582
-0.00236462
0.00207717
-0.00238621
0.00213178
-0.00240113
0.00218074
-0.00241078
-0.00241613
0.00222518
6.92314e-06
-3.44709e-06
2.96818e-05
-6.09533e-05
6.98284e-05
-0.00015949
0.000128278
-0.000291335
0.000205152
-0.000449557
0.000299648
-0.000627352
0.000409988
-0.000817886
0.000533488
-0.00101436
0.000666741
-0.00121024
0.000805905
-0.0013996
0.000947035
-0.00157741
0.00108641
-0.00173986
0.0012208
-0.0018844
0.00134765
-0.00200976
0.00146517
-0.00211578
0.00157232
-0.00220325
0.00166874
-0.00227362
0.00175463
-0.00232876
0.00183062
-0.00237076
0.00189761
-0.00240172
0.00195668
-0.00242368
0.00200894
-0.00243847
0.00205549
-0.00244768
0.00209738
-0.00245267
-0.00245439
0.00213564
7.91754e-06
-1.13646e-05
3.33818e-05
-8.64175e-05
7.76624e-05
-0.00020377
0.000141301
-0.000354973
0.000223919
-0.000532175
0.000324095
-0.000727527
0.000439358
-0.00093315
0.000566342
-0.00114134
0.000701064
-0.00134496
0.000839291
-0.00153782
0.000976928
-0.00171505
0.00111035
-0.00187328
0.00123663
-0.00201068
0.00135368
-0.00212681
0.00146024
-0.00222235
0.00155584
-0.00229885
0.00164062
-0.0023584
0.00171521
-0.00240334
0.00178055
-0.00243609
0.00183776
-0.00245893
0.00188802
-0.00247395
0.00193248
-0.00248293
0.00197222
-0.00248742
0.0020082
-0.00248864
-0.00248749
0.0020413
8.95557e-06
-2.03202e-05
3.71818e-05
-0.000114644
8.55873e-05
-0.000252176
0.000154251
-0.000423637
0.000242203
-0.000620128
0.000347324
-0.000832649
0.000466417
-0.00105224
0.000595456
-0.00127038
0.000729966
-0.00147947
0.000865469
-0.00167333
0.000997885
-0.00184747
0.00112385
-0.00199924
0.00124087
-0.00212771
0.00134742
-0.00223335
0.0014428
-0.00231773
0.00152707
-0.00238311
0.00160081
-0.00243214
0.00166498
-0.00246752
0.00172076
-0.00249187
0.00176939
-0.00250756
0.00181206
-0.00251662
0.00184991
-0.00252078
0.00188391
-0.00252142
0.00191493
-0.00251966
-0.00251627
0.0019437
1.00293e-05
-3.03495e-05
4.10416e-05
-0.000145656
9.34986e-05
-0.000304633
0.000166924
-0.000497062
0.000259669
-0.000712873
0.00036886
-0.00094184
0.000490567
-0.00117395
0.000620166
-0.00139998
0.000752818
-0.00161213
0.000883954
-0.00180446
0.00100968
-0.00197319
0.00112704
-0.0021166
0.00123407
-0.00223475
0.00132983
-0.00232911
0.00141418
-0.00240208
0.00148765
-0.00245658
0.00155117
-0.00249566
0.00160596
-0.00252231
0.00165331
-0.00253922
0.00169449
-0.00254874
0.00173068
-0.00255281
0.00176291
-0.00255301
0.00179207
-0.00255059
0.00181889
-0.00254648
-0.00254136
0.00184398
1.11287e-05
-4.14782e-05
4.49139e-05
-0.000179441
0.00010128
-0.000360998
0.000179103
-0.000574885
0.000275979
-0.000809749
0.000388247
-0.00105411
0.000511275
-0.00129698
0.000639939
-0.00152865
0.000769182
-0.00174137
0.000894518
-0.0019298
0.00101239
-0.00209107
0.00112035
-0.00222456
0.00121705
-0.00233144
0.00130209
-0.00241415
0.00137586
-0.00247585
0.00143926
-0.00251998
0.00149352
-0.00254991
0.00153997
-0.00256876
0.00157995
-0.00257921
0.00161472
-0.00258351
0.00164537
-0.00258346
0.00167283
-0.00258047
0.00169786
-0.00257562
0.00172107
-0.00256969
-0.00256325
0.00174296
1.22411e-05
-5.37193e-05
4.87452e-05
-0.000215946
0.000108805
-0.000421059
0.000190563
-0.000656643
0.000290802
-0.000909988
0.00040507
-0.00116838
0.000528096
-0.00142
0.000654387
-0.00165494
0.00077883
-0.00186581
0.000897184
-0.00204815
0.00100636
-0.00220024
0.00110448
-0.00232268
0.0011908
-0.00241777
0.00126548
-0.00248883
0.00132932
-0.00253969
0.00138352
-0.00257418
0.00142947
-0.00259587
0.00146859
-0.00260788
0.00150219
-0.00261281
0.00153144
-0.00261276
0.00155733
-0.00260935
0.00158069
-0.00260382
0.00160213
-0.00259707
0.00162218
-0.00258974
-0.00258228
0.00164121
1.33522e-05
-6.70714e-05
5.24771e-05
-0.00025507
0.000115945
-0.000484526
0.000201085
-0.000741783
0.000303832
-0.00101273
0.00041897
-0.00128351
0.000540692
-0.00154173
0.00066328
-0.00177752
0.000781733
-0.00198426
0.000892193
-0.00215861
0.000992125
-0.00230017
0.00108027
-0.00241083
0.00115646
-0.00249395
0.00122132
-0.00255369
0.00127599
-0.00259436
0.00132188
-0.00262007
0.00136047
-0.00263446
0.00139317
-0.00264057
0.00142123
-0.00264086
0.00144571
-0.00263724
0.00146748
-0.00263113
0.00148724
-0.00262358
0.00150552
-0.00261534
0.00152271
-0.00260693
-0.00259869
0.00153912
1.44461e-05
-8.15175e-05
5.60484e-05
-0.000296673
0.000122567
-0.000551045
0.000210459
-0.000829675
0.000314797
-0.00111707
0.000429666
-0.00139838
0.000548842
-0.0016609
0.000666547
-0.00189523
0.000778043
-0.00209576
0.000879969
-0.00226054
0.000970398
-0.0023906
0.00104868
-0.00248911
0.00111516
-0.00256043
0.00117086
-0.00260939
0.00121718
-0.00264067
0.00125564
-0.00265853
0.00128774
-0.00266656
0.00131482
-0.00266765
0.00133804
-0.00266408
0.00135835
-0.00265754
0.00137649
-0.00264927
0.00139305
-0.00264014
0.00140845
-0.00263075
0.00142302
-0.0026215
-0.00261264
0.00143698
1.5506e-05
-9.70235e-05
5.93972e-05
-0.000340564
0.000128547
-0.000620195
0.000218495
-0.000919623
0.000323473
-0.00122205
0.000436954
-0.00151186
0.000552444
-0.00177639
0.000664262
-0.00200705
0.000768066
-0.00219956
0.000861071
-0.00235354
0.000941973
-0.00247151
0.00101069
-0.00255783
0.00106803
-0.00261777
0.0011153
-0.00265666
0.00115407
-0.00267944
0.00118591
-0.00269037
0.00121227
-0.00269292
0.00123442
-0.0026898
0.00125338
-0.00268305
0.00126999
-0.00267415
0.00128488
-0.00266416
0.00129851
-0.00265378
0.00131125
-0.00264349
0.00132335
-0.0026336
-0.00262426
0.00133496
1.65145e-05
-0.000113538
6.24628e-05
-0.000386512
0.000133767
-0.0006915
0.00022503
-0.00101089
0.000329689
-0.00132671
0.00044072
-0.00162289
0.000551512
-0.00188719
0.000656629
-0.00211216
0.000752229
-0.00229516
0.000836147
-0.00243746
0.000907689
-0.00254305
0.000967288
-0.00261743
0.00101611
-0.00266659
0.00105568
-0.00269623
0.00108766
-0.00271142
0.00111361
-0.00271632
0.0011349
-0.00271421
0.00115267
-0.00270757
0.00116784
-0.00269822
0.00118111
-0.00268742
0.00119301
-0.00267606
0.00120393
-0.0026647
0.00121415
-0.00265371
0.00122387
-0.00264331
-0.00263359
0.0012332
1.74545e-05
-0.000130993
6.5188e-05
-0.000434246
0.000138124
-0.000764436
0.000229932
-0.00110269
0.000333332
-0.00143011
0.000440933
-0.00173049
0.000546162
-0.00199242
0.000643954
-0.00220996
0.000731044
-0.00238225
0.000805896
-0.00251231
0.000868388
-0.00260554
0.000919389
-0.00266843
0.000960346
-0.00270754
0.000992936
-0.00272882
0.00101882
-0.00273731
0.00103951
-0.00273701
0.00105627
-0.00273097
0.00107012
-0.00272142
0.00108185
-0.00270995
0.00109205
-0.00269763
0.00110117
-0.00268517
0.00110951
-0.00267304
0.0011173
-0.0026615
0.0011247
-0.00265071
-0.00264068
0.00113178
1.83092e-05
-0.000149302
6.75205e-05
-0.000483457
0.000141531
-0.000838447
0.000233108
-0.00119427
0.000334349
-0.00153135
0.000437642
-0.00183379
0.000536597
-0.00209137
0.000626623
-0.00229998
0.000705073
-0.0024607
0.000771029
-0.00257827
0.000824878
-0.00265939
0.000867851
-0.00271141
0.000901595
-0.00274129
0.000927853
-0.00275508
0.000948262
-0.00275772
0.00096423
-0.00275298
0.000976908
-0.00274365
0.000987189
-0.0027317
0.000995748
-0.00271851
0.00100308
-0.00270496
0.00100955
-0.00269164
0.0010154
-0.00267889
0.00102082
-0.00266692
0.00102592
-0.00265581
-0.00264554
0.00103078
1.9063e-05
-0.000168365
6.94149e-05
-0.000533809
0.00014392
-0.000912953
0.000234497
-0.00128485
0.000332741
-0.0016296
0.000430966
-0.00193201
0.000523089
-0.00218349
0.000605072
-0.00238197
0.000674904
-0.00253054
0.000732242
-0.00263561
0.000777918
-0.00270507
0.00081344
-0.00274693
0.000840583
-0.00276843
0.000861102
-0.0027756
0.000876559
-0.00277318
0.000888254