/*--------------------------------*- C++ -*----------------------------------*\
  =========                 |
  \\      /  F ield         | OpenFOAM: The Open Source CFD Toolbox
   \\    /   O peration     | Website:  https://openfoam.org
    \\  /    A nd           | Version:  6.0
     \\/     M anipulation  |
\*---------------------------------------------------------------------------*/
FoamFile
{
    version     2.0;
    format      ascii;
    class       volVectorField;
    location    "21.5";
    object      U;
}
// * * * * * * * * * * * * * * * * * * * * * * * * * * * * * * * * * * * * * //

dimensions      [0 1 -1 0 0 0 0];

internalField   nonuniform List<vector> 
8000
(
(-0.000497171 0.000512917 -3.52414e-21)
(-0.00271244 0.00128423 1.88374e-20)
(-0.00679947 0.0018338 -2.29116e-20)
(-0.0118119 0.00221235 1.74469e-20)
(-0.0172587 0.00245822 8.49614e-21)
(-0.0228636 0.00260269 -2.55131e-20)
(-0.02843 0.00267264 -2.25509e-21)
(-0.0338309 0.00269095 -8.00424e-22)
(-0.0389965 0.00267699 -1.32435e-20)
(-0.0438979 0.00264708 -7.17512e-21)
(-0.0485365 0.00261491 5.35084e-21)
(-0.052935 0.00259182 2.03435e-20)
(-0.0571312 0.00258695 -1.52337e-21)
(-0.0611717 0.0026074 2.17965e-21)
(-0.065109 0.00265833 -2.0491e-20)
(-0.0690019 0.00274297 1.26258e-20)
(-0.072909 0.00286272 -1.80907e-20)
(-0.0768418 0.00301819 2.73761e-20)
(-0.0807527 0.00320987 -3.06655e-23)
(-0.0849747 0.00343053 5.91291e-21)
(-0.000582638 0.0016469 1.17029e-20)
(-0.00291946 0.0040998 -5.98065e-20)
(-0.00708152 0.00583031 -4.1308e-20)
(-0.0121325 0.00700515 -2.8053e-20)
(-0.0175879 0.00775104 -3.60887e-20)
(-0.0231759 0.0081709 7.94241e-21)
(-0.0287036 0.00835222 -4.16602e-20)
(-0.0340469 0.00836869 -9.35732e-21)
(-0.0391376 0.00828196 2.95673e-21)
(-0.0439487 0.00814359 3.11385e-20)
(-0.0484823 0.00799646 -3.39669e-20)
(-0.0527622 0.00787582 4.7249e-20)
(-0.056827 0.0078101 -3.53825e-20)
(-0.0607245 0.00782135 -4.19592e-20)
(-0.0645083 0.00792569 -5.78233e-20)
(-0.0682388 0.00813329 3.69278e-20)
(-0.0719763 0.00844883 -1.19434e-20)
(-0.0757341 0.00887439 -4.34909e-20)
(-0.0794642 0.00941177 4.11215e-20)
(-0.0835025 0.0100393 -3.05559e-20)
(-0.000754815 0.0027646 1.14398e-19)
(-0.00333642 0.0068746 5.92457e-20)
(-0.00764983 0.00976711 6.66285e-20)
(-0.0127789 0.0117226 5.54409e-21)
(-0.0182521 0.0129547 3.68258e-20)
(-0.0238073 0.0136369 4.59634e-20)
(-0.0292589 0.0139165 -8.35247e-20)
(-0.0344883 0.0139171 -4.42322e-20)
(-0.0394315 0.0137421 -5.76052e-20)
(-0.044064 0.0134779 6.14955e-20)
(-0.0483904 0.0131967 -4.69695e-20)
(-0.0524361 0.0129579 -6.04305e-20)
(-0.0562414 0.0128096 -2.2003e-20)
(-0.0598562 0.0127897 2.0904e-20)
(-0.0633366 0.0129263 -5.81179e-21)
(-0.0667458 0.0132375 8.38112e-21)
(-0.0701482 0.0137321 9.69977e-20)
(-0.0735602 0.0144146 -1.36197e-20)
(-0.0769335 0.0152891 -9.86048e-20)
(-0.0806106 0.016319 1.29989e-19)
(-0.0010119 0.00385592 3.9801e-20)
(-0.00395941 0.00958295 -5.62232e-20)
(-0.00849966 0.0136063 -1.41037e-20)
(-0.0137462 0.0163168 2.63659e-20)
(-0.0192471 0.0180128 7.48679e-20)
(-0.0247547 0.0189365 1.63918e-19)
(-0.0300946 0.0192933 1.6017e-19)
(-0.0351565 0.0192555 1.33057e-20)
(-0.0398825 0.0189674 9.822e-20)
(-0.0442524 0.0185495 1.50338e-19)
(-0.0482737 0.018103 -1.20129e-19)
(-0.0519744 0.017712 1.77783e-19)
(-0.0553972 0.0174451 -4.02535e-20)
(-0.0585947 0.0173574 1.01558e-20)
(-0.0616268 0.0174905 4.20402e-20)
(-0.0645611 0.0178722 5.58655e-20)
(-0.0674678 0.0185174 -8.79172e-20)
(-0.0703688 0.0194345 -7.3376e-20)
(-0.0732158 0.0206316 -1.29857e-19)
(-0.0763621 0.0220569 1.89023e-19)
(-0.00135133 0.00491195 -2.07946e-20)
(-0.00478253 0.0122014 -2.12861e-19)
(-0.0096235 0.0173131 -6.29615e-20)
(-0.0150262 0.0207435 -1.5343e-19)
(-0.0205649 0.0228732 5.79954e-20)
(-0.026011 0.0240107 -9.14683e-20)
(-0.0312054 0.024417 3.14544e-20)
(-0.0360493 0.0243114 -1.93728e-19)
(-0.0404927 0.0238772 1.022e-19)
(-0.0445209 0.0232683 -1.21878e-19)
(-0.0481454 0.0226144 -1.08388e-19)
(-0.0513969 0.0220243 -1.21358e-19)
(-0.0543212 0.0215888 1.10159e-19)
(-0.0569743 0.0213814 -9.89036e-20)
(-0.0594203 0.0214597 1.37722e-19)
(-0.0617331 0.0218641 3.98023e-20)
(-0.0639907 0.0226183 9.85209e-20)
(-0.0662228 0.0237374 4.3239e-20)
(-0.0683826 0.0252362 -1.71198e-19)
(-0.07084 0.0270476 2.7861e-19)
(-0.00176995 0.00592509 9.16665e-20)
(-0.00579797 0.0147093 7.05305e-21)
(-0.0110106 0.0208558 3.77623e-20)
(-0.0166062 0.0249629 1.31766e-19)
(-0.0221915 0.0274895 -2.01731e-20)
(-0.0275624 0.0288073 2.13971e-19)
(-0.0325791 0.0292307 9.49673e-20)
(-0.037157 0.0290226 7.98338e-21)
(-0.0412564 0.0284036 2.44198e-19)
(-0.0448693 0.0275591 8.00144e-20)
(-0.0480117 0.0266465 3.79572e-20)
(-0.0507178 0.0257996 1.2047e-19)
(-0.0530359 0.0251317 1.10423e-19)
(-0.0550259 0.0247375 2.01585e-19)
(-0.0567568 0.0246935 -1.8018e-19)
(-0.0583098 0.0250566 2.54685e-19)
(-0.0597731 0.025863 3.33766e-21)
(-0.0611868 0.0271392 -3.25522e-19)
(-0.0625086 0.0289111 4.21982e-19)
(-0.0641317 0.031097 1.74828e-19)
(-0.00226406 0.00688906 -5.40212e-20)
(-0.00699583 0.0170883 -9.80581e-20)
(-0.0126461 0.0242067 -2.04056e-19)
(-0.0184673 0.0289396 -6.04782e-21)
(-0.0241051 0.0318209 3.48185e-20)
(-0.0293851 0.0332823 -2.60565e-19)
(-0.034191 0.0336875 -1.93309e-19)
(-0.038456 0.0333403 -2.76528e-20)
(-0.0421526 0.032495 -2.44515e-19)
(-0.045281 0.0313663 -1.69293e-19)
(-0.0478623 0.0301378 -4.9338e-20)
(-0.0499338 0.0289674 -1.58864e-19)
(-0.0515466 0.027992 -2.58998e-21)
(-0.0527638 0.0273295 -2.10967e-19)
(-0.0536596 0.0270789 8.87424e-20)
(-0.0543233 0.0273184 -1.01247e-19)
(-0.0548553 0.028103 7.7556e-20)
(-0.0553092 0.0294765 -9.86984e-20)
(-0.0556517 0.0314831 -2.82042e-19)
(-0.056309 0.0340285 -8.5703e-20)
(-0.00282949 0.0077986 -1.98818e-20)
(-0.00836385 0.0193225 -2.15911e-20)
(-0.0145102 0.0273409 1.71085e-19)
(-0.0205829 0.0326424 -2.78405e-19)
(-0.0262728 0.0358328 4.08435e-20)
(-0.0314409 0.0373996 -1.60818e-19)
(-0.0359991 0.0377519 7.59982e-20)
(-0.0399018 0.0372302 3.41584e-19)
(-0.0431361 0.0361188 -2.1913e-20)
(-0.0457121 0.0346583 -2.54822e-19)
(-0.0476565 0.0330554 4.63026e-20)
(-0.0490096 0.0314909 8.97801e-21)
(-0.0498246 0.0301251 -5.23156e-20)
(-0.050167 0.0291006 5.29484e-21)
(-0.0501155 0.0285431 4.5962e-19)
(-0.0497678 0.0285578 -6.54472e-20)
(-0.0492385 0.0292262 -1.27662e-19)
(-0.048598 0.030619 -2.29039e-19)
(-0.0478273 0.0328089 2.33652e-19)
(-0.0473995 0.0356938 1.00739e-19)
(-0.00346147 0.00864898 1.00391e-19)
(-0.00988692 0.021397 -1.31344e-19)
(-0.0165773 0.0302354 1.85695e-19)
(-0.0229164 0.0360437 1.86932e-19)
(-0.0286475 0.0394955 1.72321e-19)
(-0.0336728 0.0411306 3.49432e-19)
(-0.0379373 0.0413991 2.25963e-19)
(-0.0414202 0.0406735 -4.85558e-19)
(-0.0441265 0.0392633 2.48324e-19)
(-0.0460778 0.0374303 1.9486e-19)
(-0.0473072 0.0354005 -2.76705e-21)
(-0.0478581 0.0333745 2.18125e-19)
(-0.0477849 0.0315342 1.70052e-19)
(-0.0471541 0.0300477 -9.25041e-20)
(-0.0460477 0.0290703 3.12568e-19)
(-0.0445713 0.0287409 -3.87465e-19)
(-0.0428543 0.0291769 1.55083e-19)
(-0.0409874 0.0304888 1.99432e-19)
(-0.038973 0.0327931 -4.64665e-20)
(-0.03735 0.0359893 4.00555e-19)
(-0.00415442 0.00943549 2.01736e-19)
(-0.0115464 0.0232971 1.04602e-20)
(-0.0188139 0.0328683 -7.24064e-20)
(-0.0254192 0.039117 -7.64822e-20)
(-0.0311648 0.0427824 -3.54177e-19)
(-0.0360002 0.0444524 5.01535e-20)
(-0.0399085 0.0446137 1.421e-19)
(-0.0428986 0.0436655 -6.83478e-20)
(-0.0449962 0.0419374 5.63797e-20)
(-0.0462369 0.0397065 -1.49497e-20)
(-0.0466618 0.0372129 -7.36454e-20)
(-0.0463177 0.0346716 6.9922e-20)
(-0.0452594 0.0322827 -3.03991e-19)
(-0.0435531 0.0302379 2.91425e-19)
(-0.0412818 0.0287235 -2.5242e-19)
(-0.0385575 0.0279176 7.79721e-20)
(-0.0355246 0.0279842 1.7742e-19)
(-0.0322964 0.0290899 -3.69077e-20)
(-0.0289043 0.0314173 -1.2276e-19)
(-0.0259788 0.0348838 -8.34557e-20)
(-0.00490166 0.0101528 -2.51292e-19)
(-0.0133194 0.0250071 -1.65343e-20)
(-0.0211785 0.0352163 5.29212e-20)
(-0.0280287 0.0418359 1.36065e-19)
(-0.0337398 0.0456677 -1.92094e-19)
(-0.0383143 0.0473448 -1.67628e-19)
(-0.0417792 0.0473859 3.91261e-19)
(-0.044177 0.0462123 -2.16199e-19)
(-0.0455586 0.0441675 -1.39464e-19)
(-0.0459764 0.0415381 -2.00113e-19)
(-0.0454818 0.0385711 1.32475e-19)
(-0.0441264 0.0354891 -3.58139e-21)
(-0.0419656 0.0325036 -2.47392e-19)
(-0.0390639 0.0298247 -4.04696e-19)
(-0.0355036 0.0276678 3.08318e-19)
(-0.0314004 0.0262527 -2.49807e-19)
(-0.0269121 0.0257995 3.54172e-19)
(-0.0221756 0.0265502 -9.92174e-20)
(-0.0172585 0.0287835 2.08524e-19)
(-0.0129172 0.0324609 -7.07934e-19)
(-0.00569508 0.0107947 -5.08933e-19)
(-0.0151779 0.0265094 3.33708e-19)
(-0.0236193 0.0372542 4.5385e-20)
(-0.0306671 0.0441712 8.77868e-21)
(-0.036265 0.0481234 -2.05764e-19)
(-0.0404751 0.0497864 3.02584e-19)
(-0.0433733 0.0497073 3.30293e-20)
(-0.0450406 0.0483248 -6.20477e-20)
(-0.045557 0.0459916 -1.9916e-19)
(-0.0449959 0.042997 2.15283e-19)
(-0.0434223 0.0395876 5.45821e-19)
(-0.0408956 0.0359852 -1.20581e-19)
(-0.0374734 0.0324029 2.72483e-19)
(-0.0332191 0.0290599 -3.2187e-19)
(-0.0282126 0.0261928 -3.08634e-19)
(-0.0225708 0.0240599 1.85565e-19)
(-0.0164627 0.0229424 3.06581e-19)
(-0.0100469 0.023176 -9.93459e-19)
(-0.00343114 0.0251734 1.16656e-19)
(0.00245876 0.0289791 1.58644e-19)
(-0.00652482 0.0113537 3.76863e-19)
(-0.0170885 0.0277838 1.23967e-19)
(-0.0260747 0.0389531 6.45793e-19)
(-0.0332397 0.0460896 3.32324e-20)
(-0.0386089 0.0501166 -7.18225e-20)
(-0.042309 0.0517504 -3.42017e-19)
(-0.0444696 0.0515643 2.90853e-19)
(-0.0452147 0.0500111 5.21829e-19)
(-0.0446577 0.0474484 3.47671e-19)
(-0.0428973 0.0441637 2.51008e-19)
(-0.040017 0.0403962 2.16398e-19)
(-0.0360884 0.0363576 -3.88587e-19)
(-0.0311761 0.0322516 -1.21722e-19)
(-0.0253454 0.0282926 -8.96566e-20)
(-0.0186751 0.024724 9.60728e-19)
(-0.0112825 0.0218297 -3.28442e-21)
(-0.0033453 0.0199465 -2.39437e-19)
(0.00496061 0.019515 -7.5492e-20)
(0.0134911 0.0211234 6.87116e-19)
(0.0211003 0.0249521 9.01528e-20)
(-0.00737919 0.0118216 -1.85837e-20)
(-0.0190118 0.028808 -3.56515e-19)
(-0.028472 0.0402806 -5.30387e-19)
(-0.0356354 0.0475526 -1.47586e-19)
(-0.0406153 0.0516072 8.1494e-20)
(-0.0436082 0.0532012 1.75484e-20)
(-0.0448008 0.0529325 4.65399e-19)
(-0.0443636 0.051267 -5.77203e-19)
(-0.0424471 0.0485655 -2.19556e-19)
(-0.0391799 0.0451107 -4.42482e-19)
(-0.0346697 0.0411303 -3.76885e-19)
(-0.029007 0.0368191 -3.3373e-19)
(-0.022271 0.0323602 8.34438e-20)
(-0.0145367 0.0279477 -1.08354e-19)
(-0.00588836 0.0238105 4.64278e-19)
(0.00355286 0.0202348 -2.54456e-19)
(0.0136002 0.0175897 -7.97727e-19)
(0.0240662 0.0164141 -1.60946e-19)
(0.0347868 0.0175063 3.93723e-19)
(0.0443471 0.0212436 -3.43069e-19)
(-0.00824472 0.0121895 -6.01293e-20)
(-0.0209024 0.0295582 4.36038e-19)
(-0.0307277 0.0412013 -5.56114e-19)
(-0.0377257 0.0485169 1.2854e-19)
(-0.0421038 0.0525481 -2.64772e-19)
(-0.044131 0.0540924 5.89774e-19)
(-0.0440542 0.0537732 -4.21522e-19)
(-0.042092 0.0520695 4.82265e-19)
(-0.0384348 0.0493467 -4.57264e-19)
(-0.0332446 0.0458833 1.95112e-19)
(-0.026659 0.041896 -9.46861e-20)
(-0.018796 0.0375604 -2.37752e-19)
(-0.00976016 0.0330328 -2.93786e-19)
(0.000350324 0.0284737 2.92748e-19)
(0.0114321 0.0240756 -2.45185e-19)
(0.0233475 0.0200929 -5.36144e-19)
(0.0358918 0.0168846 5.58174e-19)
(0.0488682 0.0150489 -7.12134e-19)
(0.0621269 0.0156019 3.20298e-19)
(0.073957 0.0191687 8.15372e-21)
(-0.00910633 0.0124492 -5.45168e-19)
(-0.022709 0.0300103 -5.88642e-19)
(-0.0327471 0.0416791 6.78339e-20)
(-0.0393652 0.0489367 -5.67675e-19)
(-0.0428691 0.0528871 -5.05265e-20)
(-0.0436031 0.0543696 -4.17583e-19)
(-0.0418743 0.0540338 -9.57996e-20)
(-0.0379503 0.0523748 -2.79987e-19)
(-0.0320614 0.0497656 2.48719e-21)
(-0.0244057 0.046486 -1.22512e-19)
(-0.0151553 0.0427467 8.70228e-21)
(-0.004464 0.0387096 -3.53057e-19)
(0.00752484 0.034507 3.8916e-19)
(0.0206716 0.0302623 -5.52181e-19)
(0.0348305 0.0261171 1.95664e-19)
(0.0498228 0.0222618 7.44636e-21)
(0.0654007 0.0189876 -3.11694e-19)
(0.081344 0.0168724 7.72935e-19)
(0.0975668 0.0171005 -1.8466e-19)
(0.112097 0.020546 -1.1978e-19)
(-0.00994764 0.0125931 6.11974e-19)
(-0.0243743 0.0301425 3.30446e-19)
(-0.0344239 0.0416797 3.07385e-19)
(-0.0403898 0.0487682 4.58899e-20)
(-0.0426807 0.0525732 4.15655e-19)
(-0.0417167 0.0539766 5.99124e-19)
(-0.0378647 0.0536562 4.9055e-19)
(-0.031439 0.0521257 4.39048e-20)
(-0.0227091 0.0497712 3.59262e-19)
(-0.011909 0.0468814 5.55129e-19)
(0.000751848 0.0436717 -1.4401e-19)
(0.0150767 0.040303 2.41694e-19)
(0.0308706 0.0368976 1.9516e-19)
(0.0479316 0.0335547 1.98553e-19)
(0.0660421 0.03037 1.17497e-18)
(0.0849443 0.0274569 -4.40417e-19)
(0.104301 0.0249872 -2.69249e-20)
(0.123819 0.0234057 5.11265e-19)
(0.143515 0.0239321 -2.89984e-19)
(0.161314 0.027603 1.43393e-19)
(-0.010751 0.0126159 -4.94896e-19)
(-0.0258341 0.0299364 3.17089e-20)
(-0.035638 0.041175 -3.96178e-19)
(-0.0406144 0.0479759 -5.15708e-20)
(-0.0412791 0.0515654 2.90017e-19)
(-0.0381281 0.0528685 -8.63377e-19)
(-0.031586 0.0525919 -6.36759e-22)
(-0.0220113 0.0512706 4.01808e-19)
(-0.0097098 0.0493088 3.7753e-19)
(0.00505016 0.0470121 -1.66218e-19)
(0.0220208 0.0446132 5.48145e-20)
(0.040958 0.0422898 1.27137e-19)
(0.0616046 0.0401784 -6.01912e-20)
(0.083677 0.0383847 -6.75441e-19)
(0.106853 0.0369934 1.71e-19)
(0.130746 0.0360723 4.70969e-19)
(0.154857 0.0356725 -6.7123e-19)
(0.178716 0.0360156 3.27445e-19)
(0.202426 0.0381926 8.8011e-20)
(0.224154 0.0432172 4.46041e-19)
(-0.0114971 0.0125136 -7.30749e-20)
(-0.0270159 0.0293789 -3.46774e-19)
(-0.0362523 0.0401464 1.59572e-19)
(-0.0398283 0.0465392 7.35369e-22)
(-0.0383709 0.0498437 -6.9548e-19)
(-0.0324522 0.0510271 1.08532e-19)
(-0.0225527 0.0508243 -2.06111e-20)
(-0.00907234 0.0497922 1.40406e-19)
(0.00764907 0.0483554 -6.42703e-19)
(0.0273104 0.046842 -4.50626e-20)
(0.0496261 0.0455114 -1.51016e-19)
(0.0743037 0.0445746 1.34328e-19)
(0.101021 0.0442097 4.53585e-19)
(0.129403 0.0445729 -7.01196e-20)
(0.158998 0.0458078 2.71799e-20)
(0.189235 0.0480381 1.78744e-19)
(0.219343 0.0513276 -4.41214e-20)
(0.248447 0.0558179 3.6139e-19)
(0.276462 0.0626069 -2.09243e-19)
(0.302157 0.072388 -3.31828e-19)
(-0.0121641 0.0122843 6.77807e-20)
(-0.0278359 0.0284632 1.65332e-20)
(-0.0361089 0.0385887 1.39057e-19)
(-0.0377896 0.0444602 3.40586e-19)
(-0.0336221 0.0474211 1.91122e-19)
(-0.0242562 0.0484786 1.99417e-20)
(-0.010228 0.0483929 -2.28163e-19)
(0.00802042 0.04774 5.84902e-20)
(0.0301144 0.0469624 3.07622e-19)
(0.055718 0.0464088 -5.2129e-19)
(0.0845075 0.0463642 3.93381e-19)
(0.116146 0.0470751 -2.9643e-19)
(0.150261 0.0487708 2.51627e-19)
(0.186419 0.0516848 -5.42856e-19)
(0.224097 0.0560794 5.97517e-19)
(0.262623 0.0622611 -6.39241e-19)
(0.301035 0.0705757 -1.66409e-19)
(0.33801 0.0816521 5.23286e-19)
(0.372385 0.0974635 -1.76395e-19)
(0.401017 0.118079 7.90059e-20)
(-0.0127262 0.0119269 -5.12992e-20)
(-0.0281957 0.0271889 4.84116e-19)
(-0.0350236 0.0365128 -2.03046e-21)
(-0.0342194 0.0417687 -3.00532e-19)
(-0.0266529 0.0443528 -2.02118e-19)
(-0.0130555 0.0453081 3.70281e-19)
(0.00597526 0.0454144 -1.46662e-19)
(0.0299482 0.0452602 -1.84761e-20)
(0.0584421 0.0452969 3.05657e-19)
(0.0910717 0.0458806 -3.7972e-19)
(0.12746 0.0473036 4.16477e-20)
(0.167215 0.0498206 -4.93758e-19)
(0.209922 0.053674 2.60104e-19)
(0.255131 0.0591217 -7.44495e-19)
(0.302373 0.0664763 1.18672e-18)
(0.35117 0.0761555 -2.17356e-19)
(0.401066 0.0888001 2.2762e-19)
(0.451926 0.105822 -5.90785e-19)
(0.504231 0.130244 3.1726e-21)
(0.550007 0.157866 6.75106e-19)
(-0.013151 0.0114403 -1.55415e-19)
(-0.0279785 0.0255617 1.34278e-19)
(-0.0327818 0.0339468 -4.94499e-19)
(-0.0287983 0.0385264 7.31397e-19)
(-0.0170351 0.040743 -5.2804e-19)
(0.00168385 0.0416691 2.72519e-20)
(0.0266864 0.0420967 -5.69388e-19)
(0.0574111 0.0426161 4.07102e-19)
(0.0933606 0.043673 -5.81597e-20)
(0.134062 0.0456096 -3.59288e-19)
(0.179037 0.0486935 -2.09704e-19)
(0.227785 0.0531407 2.21567e-19)
(0.27978 0.0591337 1.46612e-19)
(0.334482 0.0668389 -6.49129e-19)
(0.391368 0.0764229 2.34259e-19)
(0.449975 0.0880645 -3.46067e-19)
(0.509964 0.101975 4.1966e-20)
(0.571348 0.118599 -2.9495e-19)
(0.634975 0.139106 1.21901e-19)
(0.693591 0.159506 -4.44077e-19)
(-0.0133977 0.010823 4.42444e-19)
(-0.027045 0.0235935 -2.67962e-19)
(-0.029136 0.0309368 2.20801e-19)
(-0.021166 0.0348282 -2.78756e-19)
(-0.00429776 0.0367462 4.67261e-19)
(0.0205333 0.0377851 -8.17595e-21)
(0.0525532 0.0387385 -5.68824e-20)
(0.0910912 0.040185 -4.21753e-20)
(0.135522 0.0425461 2.59601e-19)
(0.185219 0.0461252 4.41449e-19)
(0.239527 0.051133 -2.60772e-19)
(0.297746 0.0577068 2.53569e-19)
(0.359142 0.0659231 4.63378e-19)
(0.42297 0.0758072 -3.249e-19)
(0.488503 0.087338 -6.60784e-19)
(0.555086 0.100444 1.20904e-18)
(0.622173 0.114985 -2.15812e-19)
(0.689418 0.130796 -7.02901e-20)
(0.757034 0.148203 7.59799e-19)
(0.819804 0.166294 -1.60102e-19)
(-0.013415 0.0100732 -7.20329e-19)
(-0.0252319 0.0213031 -4.79529e-19)
(-0.0238062 0.0275478 -1.84083e-19)
(-0.0109276 0.0308016 3.55142e-19)
(0.0120591 0.032565 -8.01755e-19)
(0.0440749 0.0339421 4.15198e-19)
(0.0841984 0.0357144 5.26197e-20)
(0.131588 0.03843 5.32091e-20)
(0.185414 0.0424621 -5.43827e-19)
(0.244807 0.0480455 -1.92054e-19)
(0.308836 0.0553002 -3.38602e-19)
(0.376507 0.064249 3.27067e-19)
(0.446788 0.0748305 9.29363e-20)
(0.51864 0.08691 1.82552e-20)
(0.591067 0.100286 4.27197e-19)
(0.663163 0.114689 -4.32504e-19)
(0.73414 0.129776 -1.80332e-20)
(0.803369 0.145142 1.07519e-20)
(0.870535 0.160633 5.90367e-20)
(0.932727 0.177795 3.3767e-19)
(-0.01314 0.00918983 2.29356e-19)
(-0.022352 0.0187177 5.90728e-19)
(-0.0164847 0.0238646 4.74058e-19)
(0.00233453 0.0266067 -1.63403e-19)
(0.0325403 0.0284451 5.68306e-19)
(0.0728603 0.030478 -4.78817e-20)
(0.122157 0.0334532 -6.74458e-20)
(0.179331 0.0378615 4.01512e-20)
(0.243245 0.0439952 5.49355e-19)
(0.312681 0.0519827 3.22803e-19)
(0.386332 0.0618142 9.42648e-20)
(0.462825 0.0733628 5.77242e-21)
(0.540772 0.0864045 -6.25955e-19)
(0.618823 0.100638 5.43894e-19)
(0.695728 0.115701 9.3454e-20)
(0.770391 0.131184 -1.53709e-19)
(0.841896 0.14664 -6.68183e-19)
(0.909533 0.161611 -5.6812e-20)
(0.972776 0.175634 2.64459e-19)
(1.03081 0.191849 -5.41412e-20)
(-0.0124987 0.00817393 -5.82048e-19)
(-0.018197 0.0158763 2.4353e-19)
(-0.00684496 0.0199946 -1.18895e-18)
(0.0190418 0.0224354 4.86931e-19)
(0.057623 0.0246715 -3.88323e-19)
(0.10736 0.0277697 2.86285e-19)
(0.166802 0.0324131 -4.44735e-19)
(0.234479 0.0389969 4.08267e-20)
(0.308828 0.0476877 -2.29249e-20)
(0.388169 0.0584611 1.19629e-19)
(0.470734 0.0711336 1.72817e-19)
(0.55473 0.0853959 -3.26635e-19)
(0.638414 0.100846 1.72957e-19)
(0.720186 0.117022 1.58958e-19)
(0.79865 0.133436 6.87506e-19)
(0.872674 0.149597 -2.98433e-19)
(0.941401 0.16503 -1.98804e-19)
(1.00427 0.179328 3.34562e-19)
(1.06087 0.191925 1.7911e-19)
(1.11176 0.206681 -3.36162e-19)
(-0.0114064 0.00703156 5.09873e-19)
(-0.0125429 0.0128348 4.91645e-19)
(0.00544596 0.0160717 1.41827e-19)
(0.0395964 0.0185134 5.9737e-19)
(0.0877187 0.0215636 2.93448e-19)
(0.147906 0.0262206 -5.28996e-19)
(0.218273 0.0330578 8.0121e-19)
(0.296842 0.0423216 -3.94288e-19)
(0.381497 0.0539965 3.93617e-19)
(0.470009 0.0678515 5.09378e-19)
(0.560109 0.0834878 -2.91115e-19)
(0.649601 0.100391 5.52892e-20)
(0.736484 0.117981 3.08548e-19)
(0.819047 0.135668 2.1751e-19)
(0.895939 0.152885 5.01466e-19)
(0.966199 0.169128 -2.0042e-19)
(1.02925 0.18397 -2.45231e-20)
(1.08487 0.197107 3.17278e-19)
(1.13303 0.20806 -6.81254e-20)
(1.17508 0.220745 3.50423e-22)
(-0.00977054 0.00577642 -2.63211e-19)
(-0.0051579 0.00967017 -9.67445e-19)
(0.0207113 0.0122609 2.27815e-19)
(0.0643543 0.0151012 -1.73428e-19)
(0.123132 0.0194706 -4.00322e-19)
(0.194641 0.0262465 -2.85799e-19)
(0.27641 0.0358302 -1.76562e-19)
(0.365812 0.0482516 4.28814e-19)
(0.460077 0.063247 -2.54671e-19)
(0.556377 0.0803262 -2.60796e-19)
(0.651977 0.0988454 -3.29985e-19)
(0.744396 0.118083 -5.44716e-20)
(0.83155 0.137316 -3.68334e-20)
(0.911838 0.155873 -7.63913e-19)
(0.984184 0.173186 3.70705e-19)
(1.04802 0.188812 -4.87451e-19)
(1.10323 0.202443 1.53456e-19)
(1.15009 0.213919 -1.16815e-18)
(1.18903 0.222971 3.5202e-19)
(1.22179 0.23315 4.46141e-19)
(-0.00749383 0.00443253 -6.60895e-20)
(0.00418755 0.0064863 4.7202e-19)
(0.0392463 0.00876236 3.02585e-20)
(0.0935961 0.0124942 7.28136e-20)
(0.164023 0.0187648 -1.48036e-19)
(0.247466 0.0282589 -2.4305e-21)
(0.34071 0.0411256 -3.79904e-21)
(0.440353 0.0570978 -8.93204e-20)
(0.542911 0.0755977 3.16798e-19)
(0.644996 0.0958364 1.22507e-19)
(0.743538 0.116921 5.56296e-19)
(0.83598 0.137957 -1.51705e-19)
(0.920405 0.158136 1.05988e-19)
(0.995579 0.176793 -1.38366e-20)
(1.06093 0.193441 2.93729e-19)
(1.11645 0.207773 1.79907e-19)
(1.16261 0.219655 4.34003e-19)
(1.20017 0.229097 -7.01236e-19)
(1.23007 0.236077 8.82984e-19)
(1.25416 0.243601 -2.79854e-19)
(-0.00447767 0.0030365 -6.15337e-19)
(0.0157096 0.00341713 -1.92068e-19)
(0.0612981 0.00581303 1.50131e-19)
(0.127497 0.0110195 9.46489e-20)
(0.210363 0.0198302 9.69616e-20)
(0.306006 0.0326443 9.83121e-20)
(0.410311 0.0492624 -2.4603e-19)
(0.519022 0.0690366 -1.01757e-19)
(0.627966 0.0910213 3.15553e-20)
(0.733336 0.114118 -3.01472e-19)
(0.831962 0.13722 -1.36431e-19)
(0.921491 0.159331 8.24587e-19)
(1.00046 0.17965 -2.12702e-19)
(1.06823 0.197614 -2.93489e-19)
(1.12491 0.212897 -1.39482e-19)
(1.17115 0.225391 9.64984e-20)
(1.20796 0.235159 1.17937e-19)
(1.23659 0.242388 -5.65401e-19)
(1.25831 0.247279 8.1873e-19)
(1.27499 0.25227 -7.09827e-19)
(-0.00062653 0.00163893 -6.96664e-20)
(0.0295982 0.00062856 1.99612e-20)
(0.0870441 0.00368557 -2.54325e-20)
(0.166099 0.0110285 3.71694e-19)
(0.261915 0.0230461 2.04605e-20)
(0.369595 0.039739 1.36494e-19)
(0.484011 0.0604543 -2.83561e-19)
(0.600053 0.0840893 -1.03442e-20)
(0.712995 0.109307 3.93979e-19)
(0.818861 0.134731 5.494e-20)
(0.914693 0.159118 -3.43385e-19)
(0.998657 0.181476 -3.01631e-20)
(1.06999 0.20112 -2.82402e-19)
(1.12885 0.217679 2.81115e-19)
(1.17605 0.231053 3.9081e-19)
(1.21289 0.241358 -4.30936e-20)
(1.24085 0.248857 -5.26101e-20)
(1.2615 0.253885 1.60362e-19)
(1.27633 0.256809 -5.15965e-19)
(1.28708 0.259567 4.54371e-19)
(0.00414759 0.000305121 6.99279e-20)
(0.0460039 -0.00168241 -4.51217e-19)
(0.116572 0.00268275 1.20766e-19)
(0.209284 0.0128835 -3.74532e-19)
(0.318207 0.0287658 1.28777e-19)
(0.43728 0.0498032 -4.78262e-19)
(0.560325 0.0747887 1.92915e-19)
(0.681485 0.102119 -6.14099e-20)
(0.795738 0.130085 -2.48964e-21)
(0.899278 0.157118 6.2882e-20)
(0.989708 0.181952 -2.29086e-19)
(1.06599 0.203722 -3.27185e-19)
(1.12826 0.221963 -6.71469e-20)
(1.17749 0.236564 -3.0146e-20)
(1.21521 0.247683 -7.65095e-20)
(1.24321 0.255655 -2.4942e-20)
(1.26333 0.26091 -7.46747e-20)
(1.27728 0.263892 -6.47721e-20)
(1.28659 0.265068 -1.92883e-19)
(1.29287 0.26597 3.06164e-19)
(0.00992031 -0.000885259 1.6826e-19)
(0.0650244 -0.00329125 -1.86859e-19)
(0.149859 0.00312768 4.02128e-19)
(0.256761 0.0169405 -1.73557e-19)
(0.378534 0.0372921 4.63856e-19)
(0.507863 0.0629973 6.59452e-21)
(0.637579 0.0922161 2.32967e-19)
(0.761322 0.122844 -6.2387e-20)
(0.874127 0.152879 2.60434e-19)
(0.972746 0.180682 1.88526e-20)
(1.05566 0.205108 6.20322e-19)
(1.12284 0.225535 -4.28257e-19)
(1.17536 0.2418 5.76848e-20)
(1.21499 0.254085 1.10129e-19)
(1.24383 0.262798 5.77311e-19)
(1.26402 0.268462 -2.07438e-19)
(1.27754 0.271627 -4.11485e-20)
(1.28611 0.272798 -2.18124e-19)
(1.2912 0.272487 -2.3018e-20)
(1.29423 0.271907 1.0919e-19)
(0.0167498 -0.00183935 -8.07959e-20)
(0.0866918 -0.00395214 2.33344e-19)
(0.186759 0.00535034 -2.38853e-19)
(0.308053 0.0235277 9.43617e-20)
(0.441978 0.0488546 -1.12769e-19)
(0.57996 0.0793669 4.13977e-19)
(0.714035 0.112556 -5.76478e-20)
(0.837694 0.145875 1.42095e-19)
(0.946454 0.17716 -8.36589e-20)
(1.03799 0.204858 -2.18918e-21)
(1.11191 0.228085 9.5632e-20)
(1.16926 0.246558 -7.41113e-20)
(1.21204 0.260455 1.92267e-19)
(1.24266 0.270251 -9.58457e-20)
(1.26362 0.276568 -4.22312e-19)
(1.2772 0.280067 4.19949e-19)
(1.2854 0.281367 -1.89304e-19)
(1.28984 0.280986 1.51175e-19)
(1.29182 0.279444 2.62257e-19)
(1.29257 0.277708 1.07753e-19)
(0.0246719 -0.00245323 2.01036e-19)
(0.110962 -0.00340662 -4.14271e-19)
(0.22699 0.00967139 7.92708e-20)
(0.362506 0.0329247 -5.75004e-20)
(0.507445 0.0635904 -2.31896e-19)
(0.652091 0.0988387 -1.82005e-19)
(0.788012 0.135516 -3.57719e-20)
(0.908998 0.170758 -3.24536e-19)
(1.01147 0.202409 -1.97668e-20)
(1.09433 0.229168 -6.03157e-20)
(1.15843 0.250528 -1.63775e-19)
(1.20589 0.266603 -3.63849e-20)
(1.23945 0.277918 -1.25398e-19)
(1.26201 0.285203 -2.09371e-19)
(1.27625 0.289245 2.14469e-19)
(1.28447 0.290787 2.95967e-20)
(1.28854 0.290465 5.89834e-20)
(1.28989 0.288778 -2.47234e-19)
(1.28964 0.286231 -6.16845e-21)
(1.28882 0.283597 -3.81643e-19)
(0.033695 -0.00261486 2.20449e-19)
(0.137706 -0.00139423 1.47025e-19)
(0.270137 0.0163846 -2.37022e-19)
(0.41931 0.0453426 3.70131e-19)
(0.573723 0.0815332 -3.98956e-20)
(0.722774 0.121229 1.38258e-19)
(0.858006 0.160726 4.78703e-20)
(0.97399 0.197021 1.69624e-19)
(1.06843 0.228161 -1.32822e-19)
(1.14163 0.253243 4.42791e-20)
(1.19569 0.272221 -4.2508e-20)
(1.23368 0.285624 -1.87162e-20)
(1.25891 0.294288 3.55758e-20)
(1.27453 0.29915 -6.55706e-20)
(1.28325 0.301101 -2.01615e-20)
(1.28724 0.300911 -6.16865e-20)
(1.28818 0.299199 -1.00296e-19)
(1.28729 0.296418 6.47499e-20)
(1.28549 0.29305 -8.88904e-20)
(1.28361 0.289705 3.84103e-19)
(0.0437967 -0.00220799 -1.10102e-19)
(0.166706 0.00233549 -3.11869e-19)
(0.315655 0.0257395 -4.15153e-20)
(0.477531 0.0609092 -1.12915e-20)
(0.639551 0.102611 -1.39694e-19)
(0.79062 0.14626 -2.29365e-19)
(0.922774 0.187771 7.50879e-20)
(1.03182 0.224216 -1.0318e-19)
(1.11701 0.254031 -1.15643e-19)
(1.18014 0.276833 6.44342e-20)
(1.22446 0.293071 -4.87019e-20)
(1.25375 0.303669 -9.85753e-20)
(1.2717 0.309726 -3.34428e-21)
(1.28154 0.312318 6.67723e-20)
(1.28585 0.312384 -6.81507e-20)
(1.2866 0.310679 9.45741e-20)
(1.28524 0.307775 2.54349e-20)
(1.28276 0.304069 6.41346e-20)
(1.2799 0.300018 1.25062e-19)
(1.27733 0.296089 -1.07144e-19)
(0.0549203 -0.00111662 1.05177e-19)
(0.197655 0.00801039 -9.30942e-21)
(0.362885 0.0379258 4.71798e-20)
(0.536151 0.0796597 -6.40406e-20)
(0.703686 0.126655 5.26012e-21)
(0.854406 0.173591 2.22229e-19)
(0.981374 0.216225 -1.45997e-19)
(1.08202 0.25194 6.18514e-20)
(1.15731 0.279725 5.45459e-20)
(1.21044 0.299786 -1.53349e-19)
(1.24564 0.31307 1.44133e-19)
(1.26722 0.320845 1.27675e-21)
(1.27901 0.324408 -1.01619e-19)
(1.28416 0.324913 1.22502e-19)
(1.28504 0.323296 -4.86311e-20)
(1.28338 0.320266 3.71947e-20)
(1.28035 0.316329 -4.15978e-20)
(1.27677 0.311826 -1.66326e-20)
(1.27321 0.30719 -1.45741e-19)
(1.27018 0.302756 4.46371e-20)
(0.0669736 0.000769975 -3.5473e-20)
(0.230164 0.0158233 9.51791e-20)
(0.411083 0.0530611 1.48367e-20)
(0.594125 0.101534 6.22434e-20)
(0.76497 0.15341 2.96982e-20)
(0.913123 0.202835 1.39209e-20)
(1.03318 0.24568 7.89368e-20)
(1.12446 0.279854 -9.58115e-21)
(1.18966 0.305027 3.48163e-20)
(1.23325 0.322027 5.59527e-20)
(1.26021 0.332261 2.70081e-20)
(1.27514 0.337277 1.93935e-20)
(1.28186 0.3385 7.86556e-20)
(1.2833 0.337104 -7.61408e-20)
(1.28157 0.333985 1.63469e-20)
(1.27813 0.329786 -1.5311e-20)
(1.27394 0.324938 2.3692e-20)
(1.26962 0.319727 1.98531e-20)
(1.26562 0.314571 4.1474e-20)
(1.2623 0.309674 1.74725e-21)
(0.0798294 0.003552 2.10287e-20)
(0.263771 0.0259208 1.92082e-20)
(0.459442 0.0711819 -2.65891e-20)
(0.65042 0.126381 1.66146e-20)
(0.822378 0.182555 9.38706e-21)
(0.966003 0.233591 -2.92013e-20)
(1.07784 0.275754 9.63804e-21)
(1.15925 0.307679 1.73704e-21)
(1.21458 0.329792 1.66266e-20)
(1.24936 0.343534 -4.45847e-20)
(1.26907 0.350712 -1.38873e-22)
(1.27841 0.353084 1.23613e-20)
(1.28104 0.352135 -9.8503e-21)
(1.27962 0.349013 9.96683e-21)
(1.27597 0.344546 2.60162e-20)
(1.27127 0.339297 -1.48046e-20)
(1.26628 0.333626 4.12021e-21)
(1.26149 0.327768 1.62259e-20)
(1.25721 0.322131 -2.67544e-20)
(1.25374 0.316788 1.28416e-20)
(0.0933277 0.00731402 5.86304e-20)
(0.297955 0.0383938 -3.18842e-20)
(0.507132 0.0922405 3.75435e-20)
(0.704068 0.153966 -2.79349e-20)
(0.875051 0.213719 -1.25299e-20)
(1.01251 0.265456 3.78731e-21)
(1.11526 0.306107 -1.22998e-20)
(1.18671 0.335188 4.42402e-20)
(1.23268 0.353919 -3.68423e-20)
(1.25954 0.364308 8.64535e-21)
(1.27304 0.368493 -6.44292e-21)
(1.2778 0.368363 -4.19798e-20)
(1.27722 0.365409 4.07231e-20)
(1.27364 0.360714 1.55073e-20)
(1.26859 0.355022 -1.54281e-20)
(1.26303 0.348814 3.62208e-20)
(1.25753 0.342378 -5.31295e-22)
(1.25247 0.335913 -3.51465e-20)
(1.24805 0.329815 2.60399e-20)
(1.24451 0.324027 8.20989e-21)
(0.107279 0.0121204 -2.05445e-20)
(0.332154 0.0532708 5.95845e-20)
(0.553328 0.116105 6.88446e-20)
(0.754195 0.183984 -3.24788e-20)
(0.922312 0.246503 5.65147e-20)
(1.05234 0.298037 8.94398e-20)
(1.14552 0.336436 -4.92369e-21)
(1.20726 0.3622 -1.53565e-20)
(1.24461 0.377337 7.58687e-20)
(1.26452 0.384362 3.69942e-20)
(1.27282 0.385659 -6.71337e-21)
(1.27391 0.383181 5.51543e-20)
(1.27087 0.378374 -5.91511e-20)
(1.26572 0.372237 9.21062e-20)
(1.25971 0.365416 -1.53667e-20)
(1.25358 0.358313 4.4021e-20)
(1.24779 0.351152 7.93473e-21)
(1.2426 0.344101 3.15073e-20)
(1.23814 0.337551 -2.9992e-20)
(1.23461 0.33131 7.21669e-21)
(0.121469 0.0180108 -3.19748e-20)
(0.365786 0.0705133 7.59047e-20)
(0.59724 0.142564 5.63879e-20)
(0.800045 0.216072 -8.54401e-21)
(0.96366 0.280488 8.78567e-20)
(1.08536 0.330961 -6.5606e-20)
(1.16886 0.36647 -5.14377e-21)
(1.22139 0.38856 5.79415e-20)
(1.25099 0.39999 1.84105e-20)
(1.26495 0.4037 2.5753e-20)
(1.26899 0.40224 -3.80278e-20)
(1.26722 0.397566 9.91537e-20)
(1.26236 0.391045 1.85131e-20)
(1.25611 0.383571 -8.783e-20)
(1.24947 0.375696 1.28317e-19)
(1.24303 0.367743 -1.51402e-19)
(1.23711 0.359881 -6.95028e-20)
(1.2319 0.352258 1.15183e-20)
(1.2275 0.345257 6.75058e-20)
(1.22404 0.33855 -1.27235e-19)
(0.135665 0.0249974 -7.19916e-20)
(0.398266 0.0900154 -1.69819e-19)
(0.638142 0.171334 -1.46823e-19)
(0.840999 0.249824 -1.99936e-19)
(0.998767 0.31525 -1.13438e-19)
(1.11159 0.363874 -2.35239e-19)
(1.1856 0.395967 2.98879e-20)
(1.2296 0.414135 -1.24942e-19)