1.275 	2.15223e-18 	-2.76991e-20 	-0.122314 	0.00449767 	-2.71437e-22
1.825 	2.15223e-18 	-1.39322e-20 	-0.261813 	-0.107254 	3.74284e-21
2.375 	2.15223e-18 	-2.66896e-23 	-0.244696 	-0.228937 	-1.64846e-21
