/*--------------------------------*- C++ -*----------------------------------*\
  =========                 |
  \\      /  F ield         | OpenFOAM: The Open Source CFD Toolbox
   \\    /   O peration     | Website:  https://openfoam.org
    \\  /    A nd           | Version:  6.0
     \\/     M anipulation  |
\*---------------------------------------------------------------------------*/
FoamFile
{
    version     2.0;
    format      ascii;
    class       surfaceScalarField;
    location    "18.2";
    object      phi;
}
// * * * * * * * * * * * * * * * * * * * * * * * * * * * * * * * * * * * * * //

dimensions      [0 3 -1 0 0 0 0];

internalField   nonuniform List<scalar> 
15760
(
-3.02494e-06
3.17635e-06
-1.51408e-07
-1.06664e-05
8.00425e-06
-3.62834e-07
-2.18046e-05
1.1644e-05
-5.05786e-07
-3.55371e-05
1.43291e-05
-5.96597e-07
-5.11467e-05
1.62581e-05
-6.48501e-07
-6.80778e-05
1.76033e-05
-6.72188e-07
-8.59141e-05
1.85124e-05
-6.76103e-07
-0.000104359
1.9112e-05
-6.66777e-07
-0.00012322
1.95103e-05
-6.49138e-07
-0.000142393
1.97994e-05
-6.26819e-07
-0.000161848
2.00575e-05
-6.02427e-07
-0.000181621
2.03502e-05
-5.7779e-07
-0.000201798
2.07314e-05
-5.54143e-07
-0.00022251
2.1244e-05
-5.32294e-07
-0.000243917
2.19202e-05
-5.12743e-07
-0.000266203
2.2782e-05
-4.95741e-07
-0.000289563
2.38411e-05
-4.81348e-07
-0.000314193
2.50996e-05
-4.6948e-07
-0.000340286
2.65527e-05
-4.5999e-07
2.81952e-05
-4.52726e-07
-0.000368028
-3.00308e-06
6.17943e-06
-1.05895e-05
1.55907e-05
-2.16432e-05
2.26977e-05
-3.52614e-05
2.79473e-05
-5.07249e-05
3.17217e-05
-6.74742e-05
3.43525e-05
-8.50875e-05
3.61256e-05
-0.000103262
3.72863e-05
-0.000121796
3.80448e-05
-0.000140578
3.85815e-05
-0.000159571
3.905e-05
-0.000178801
3.95802e-05
-0.000198349
4.02798e-05
-0.000218341
4.12356e-05
-0.000238934
4.25138e-05
-0.000260313
4.41602e-05
-0.000282672
4.62009e-05
-0.000306215
4.8642e-05
-0.000331138
5.14756e-05
5.46921e-05
-0.000357634
-2.96199e-06
9.14142e-06
-1.04441e-05
2.30728e-05
-2.13359e-05
3.35895e-05
-3.47344e-05
4.13458e-05
-4.99162e-05
4.69034e-05
-6.63139e-05
5.07503e-05
-8.34954e-05
5.3307e-05
-0.000101144
5.49352e-05
-0.000119045
5.59454e-05
-0.000137068
5.66047e-05
-0.00015516
5.7142e-05
-0.000173332
5.77524e-05
-0.000191652
5.85999e-05
-0.000210235
5.98181e-05
-0.000229233
6.15116e-05
-0.000248828
6.37552e-05
-0.000269221
6.6594e-05
-0.000290622
7.00431e-05
-0.000313241
7.4095e-05
7.87365e-05
-0.000337286
-2.90476e-06
1.20462e-05
-1.02393e-05
3.04074e-05
-2.09007e-05
4.42509e-05
-3.39854e-05
5.44305e-05
-4.87639e-05
6.1682e-05
-6.46585e-05
6.66449e-05
-8.1222e-05
6.98705e-05
-9.81195e-05
7.18327e-05
-0.000115113
7.29391e-05
-0.00013205
7.35414e-05
-0.000148851
7.39429e-05
-0.000165503
7.44049e-05
-0.000182053
7.51501e-05
-0.0001986
7.63642e-05
-0.000215284
7.81964e-05
-0.000232287
8.07582e-05
-0.000249815
8.4122e-05
-0.000268092
8.83198e-05
-0.000287348
9.33512e-05
9.92023e-05
-0.000307814
-2.83541e-06
1.48816e-05
-9.98751e-06
3.75595e-05
-2.03611e-05
5.46245e-05
-3.3052e-05
6.71214e-05
-4.73242e-05
7.59541e-05
-6.25876e-05
8.19083e-05
-7.83773e-05
8.56602e-05
-9.43355e-05
8.77909e-05
-0.000110197
8.88002e-05
-0.000125776
8.91207e-05
-0.000140961
8.91283e-05
-0.000155707
8.91507e-05
-0.000170029
8.94722e-05
-0.000184001
9.03362e-05
-0.00019775
9.19447e-05
-0.000211448
9.44569e-05
-0.000225311
9.79847e-05
-0.000239581
0.00010259
-0.000254519
0.000108289
0.000115076
-0.000270392
-2.75823e-06
1.76398e-05
-9.70143e-06
4.45027e-05
-1.97415e-05
6.46645e-05
-3.19736e-05
7.93536e-05
-4.56557e-05
8.96361e-05
-6.01851e-05
9.64377e-05
-7.50784e-05
0.000100553
-8.99519e-05
0.000102664
-0.000104509
0.000103357
-0.000118526
0.000103138
-0.000131851
0.000102454
-0.000144396
0.000101696
-0.000156136
0.000101212
-0.000167109
0.000101309
-0.000177416
0.000102252
-0.000187221
0.000104262
-0.000196743
0.000107506
-0.000206248
0.000112095
-0.00021604
0.000118082
0.000125479
-0.000226443
-2.67704e-06
2.03169e-05
-9.39214e-06
5.12178e-05
-1.90623e-05
7.43347e-05
-3.0783e-05
9.10743e-05
-4.38071e-05
0.00010266
-5.75216e-05
0.000110152
-7.14251e-05
0.000114457
-8.51089e-05
0.000116348
-9.8242e-05
0.00011649
-0.000110561
0.000115458
-0.000121866
0.000113758
-0.000132016
0.000111846
-0.000140934
0.00011013
-0.000148612
0.000108987
-0.000155113
0.000108753
-0.000160577
0.000109727
-0.000165226
0.000112154
-0.000169351
0.00011622
-0.000173313
0.000122043
0.000129681
-0.000177515
-2.59438e-06
2.29113e-05
-9.06653e-06
5.769e-05
-1.83357e-05
8.36039e-05
-2.94981e-05
0.000102237
-4.18046e-05
0.000114967
-5.46351e-05
0.000122983
-6.74743e-05
0.000127296
-7.9891e-05
0.000128765
-9.15224e-05
0.000128121
-0.000102063
0.000125999
-0.000111262
0.000122956
-0.000118918
0.000119502
-0.000124892
0.000116104
-0.000129112
0.000113207
-0.000131586
0.000111228
-0.00013242
0.00011056
-0.000131819
0.000111554
-0.000130104
0.000114504
-0.000127699
0.000119639
0.0001271
-0.000125118
-2.51103e-06
2.54223e-05
-8.72538e-06
6.39043e-05
-1.75606e-05
9.24391e-05
-2.81147e-05
0.000112791
-3.96396e-05
0.000126492
-5.15133e-05
0.000134856
-6.32127e-05
0.000138996
-7.42905e-05
0.000139843
-8.43573e-05
0.000138188
-9.30698e-05
0.000134711
-0.000100124
0.000130011
-0.000105259
0.000124636
-0.000108261
0.000119106
-0.000108979
0.000113925
-0.00010735
0.000109598
-0.000103414
0.000106624
-9.73493e-05
0.000105489
-8.94861e-05
0.000106641
-8.03238e-05
0.000110476
0.000117296
-7.05197e-05
-2.42558e-06
2.78479e-05
-8.36217e-06
6.98409e-05
-1.67209e-05
0.000100798
-2.66012e-05
0.000122671
-3.72599e-05
0.00013715
-4.80787e-05
0.000145675
-5.85345e-05
0.000149451
-6.81728e-05
0.000149481
-7.65875e-05
0.000146603
-8.34055e-05
0.000141529
-8.82793e-05
0.000134885
-9.08859e-05
0.000127243
-9.09355e-05
0.000119155
-8.81883e-05
0.000111178
-8.24829e-05
0.000103893
-7.37732e-05
9.79146e-05
-6.21726e-05
9.38882e-05
-4.79995e-05
9.24682e-05
-3.18212e-05
9.4298e-05
9.99462e-05
-1.44712e-05
-2.33456e-06
3.01824e-05
-7.96313e-06
7.54694e-05
-1.57842e-05
0.000108619
-2.48974e-05
0.000131784
-3.4566e-05
0.000146819
-4.41809e-05
0.00015529
-5.32268e-05
0.000158497
-6.12526e-05
0.000157507
-6.7848e-05
0.000153198
-7.26248e-05
0.000146306
-7.5205e-05
0.000137465
-7.52168e-05
0.000127255
-7.22992e-05
0.000116238
-6.61195e-05
0.000104998
-5.64047e-05
9.4178e-05
-4.29905e-05
8.45004e-05
-2.58861e-05
7.67839e-05
-5.35515e-06
7.19372e-05
1.79931e-05
7.09497e-05
7.48141e-05
4.31252e-05
-2.23288e-06
3.24153e-05
-7.50852e-06
8.07451e-05
-1.47046e-05
0.000115815
-2.29168e-05
0.000139996
-3.1414e-05
0.000155316
-3.95984e-05
0.000163475
-4.69684e-05
0.000165867
-5.3086e-05
0.000163625
-5.75504e-05
0.000157663
-5.99758e-05
0.000148731
-5.99751e-05
0.000137464
-5.71494e-05
0.000124429
-5.10873e-05
0.000110176
-4.13761e-05
9.52872e-05
-2.76305e-05
8.04324e-05
-9.54719e-06
6.64171e-05
1.30108e-05
5.42259e-05
3.98953e-05
4.50527e-05
7.051e-05
4.0335e-05
4.17007e-05
0.000103623
-2.11469e-06
3.453e-05
-6.97514e-06
8.56055e-05
-1.34273e-05
0.000122267
-2.05545e-05
0.000147123
-2.76257e-05
0.000162387
-3.40519e-05
0.000169901
-3.93456e-05
0.000171161
-4.30873e-05
0.000167366
-4.48962e-05
0.000159472
-4.44063e-05
0.000148241
-4.12458e-05
0.000134304
-3.5021e-05
0.000118204
-2.53065e-05
0.000100461
-1.16455e-05
8.16261e-05
6.43264e-06
6.23543e-05
2.93642e-05
4.34855e-05
5.74605e-05
2.61297e-05
9.07548e-05
1.17584e-05
0.000128755
2.33439e-06
3.7262e-07
0.000170084
-1.9744e-06
3.65044e-05
-6.33941e-06
8.99705e-05
-1.18945e-05
0.000127822
-1.76972e-05
0.000152926
-2.3005e-05
0.000167695
-2.72276e-05
0.000174123
-2.98848e-05
0.000173818
-3.05715e-05
0.000168053
-2.89296e-05
0.00015783
-2.46236e-05
0.000143935
-1.73186e-05
0.000126999
-6.66144e-06
0.000107547
7.73782e-06
8.60621e-05
2.63187e-05
6.30453e-05
4.95718e-05
3.91012e-05
7.80137e-05
1.50436e-05
0.000112112
-7.96864e-06
0.000152126
-2.82557e-05
0.000197786
-4.33261e-05
-4.95416e-05
0.000247701
-1.80767e-06
3.83121e-05
-5.58043e-06
9.37433e-05
-1.00519e-05
0.000132294
-1.42347e-05
0.000157109
-1.73565e-05
0.000170817
-1.88075e-05
0.000175574
-1.80968e-05
0.000173107
-1.48188e-05
0.000164775
-8.62707e-06
0.000151638
7.86972e-07
0.000134521
1.37115e-05
0.000114074
3.04326e-05
9.08262e-05
5.12536e-05
6.5241e-05
7.65185e-05
3.77804e-05
0.000106634
8.98594e-06
0.000142079
-2.04014e-05
0.000183377
-4.92666e-05
0.000230981
-7.58595e-05
0.000284947
-9.72922e-05
-0.000108695
0.0003441
-1.61187e-06
3.99239e-05
-4.68154e-06
9.6813e-05
-7.85226e-06
0.000135464
-1.00679e-05
0.000159325
-1.05008e-05
0.00017125
-8.49516e-06
0.000173569
-3.52175e-06
0.000168134
4.85419e-06
0.000156399
1.69949e-05
0.000139497
3.32041e-05
0.000118312
5.37365e-05
9.3542e-05
7.88061e-05
6.57566e-05
0.000108598
3.54486e-05
0.00014329
3.08869e-06
0.000183081
-3.08047e-05
0.000228236
-6.55563e-05
0.000279121
-0.000100152
0.000336196
-0.000132935
0.000399824
-0.000160921
-0.000178189
0.000469318
-1.38584e-06
4.13098e-05
-3.6298e-06
9.90569e-05
-5.25572e-06
0.00013709
-5.11008e-06
0.000159179
-2.28013e-06
0.00016842
3.96899e-06
0.00016732
1.4241e-05
0.000157862
2.90394e-05
0.000141601
4.87835e-05
0.000119753
7.38147e-05
9.32808e-05
0.000104393
6.29637e-05
0.00014069
2.94594e-05
0.000182782
-6.64366e-06
0.00023065
-4.47787e-05
0.000284192
-8.43471e-05
0.000343273
-0.000124638
0.000407798
-0.000164677
0.000477821
-0.000202957
0.000553643
-0.000236743
-0.000259803
0.000635257
-1.12865e-06
4.24384e-05
-2.41263e-06
0.000100341
-2.22358e-06
0.000136901
7.20351e-07
0.000156235
7.44973e-06
0.000161691
1.88142e-05
0.000155955
3.55319e-05
0.000141144
5.8219e-05
0.000118914
8.74015e-05
9.05705e-05
0.000123512
5.717e-05
0.000166876
1.95998e-05
0.000217685
-2.13497e-05
0.000275967
-6.49251e-05
0.000341547
-0.000110359
0.000414021
-0.000156822
0.000492747
-0.000203363
0.000576884
-0.000248814
0.00066552
-0.000291592
0.000757988
-0.000329211
-0.000356871
0.000855057
-8.37702e-07
4.32761e-05
-1.01225e-06
0.000100515
1.29171e-06
0.000134597
7.51578e-06
0.000150011
1.88407e-05
0.000150366
3.62654e-05
0.00013853
6.06595e-05
0.00011675
9.2792e-05
8.67811e-05
0.00013334
5.00227e-05
0.000182879
7.63092e-06
0.000241863
-3.93842e-05
0.000310588
-9.0075e-05
0.000389146
-0.000143483
0.000477355
-0.000198568
0.000574674
-0.000254141
0.000680088
-0.000308777
0.000791979
-0.000360706
0.000907996
-0.000407609
0.00102521
-0.000446425
-0.000475976
0.00114431
-5.06472e-07
4.37826e-05
6.00815e-07
9.94082e-05
5.35871e-06
0.000129839
1.53984e-05
0.000139971
3.20799e-05
0.000133684
5.65796e-05
0.000114031
8.99452e-05
8.33845e-05
0.000133122
4.36042e-05
0.000186959
-3.81441e-06
0.000252199
-5.76091e-05
0.00032946
-0.000116645
0.000419209
-0.000179824
0.000521738
-0.000246012
0.00063713
-0.00031396
0.000765207
-0.000382217
0.000905428
-0.000448999
0.00105665
-0.000511926
0.00121628
-0.000567244
0.00137734
-0.000607485
-0.00061661
0.00151798
-1.23389e-07
4.3906e-05
2.47184e-06
9.68129e-05
1.00755e-05
0.000122236
2.45344e-05
0.000125512
4.74104e-05
0.000110808
8.00742e-05
8.13669e-05
0.000123758
3.97008e-05
0.000179576
-1.22136e-05
0.000248523
-7.27612e-05
0.000331461
-0.000140548
0.000429108
-0.000214291
0.00054203
-0.000292746
0.000670667
-0.000374649
0.000815396
-0.000458689
0.000976684
-0.000543506
0.00115538
-0.000627694
0.00135326
-0.000709805
0.0015743
-0.000788284
0.00182854
-0.000861731
-0.000926323
0.00213826
3.31653e-07
4.35743e-05
4.66827e-06
9.24763e-05
1.55781e-05
0.000111326
3.51433e-05
0.000105947
6.51406e-05
8.0811e-05
0.000107135
3.93726e-05
0.000162522
-1.56863e-05
0.000232534
-8.2226e-05
0.000318224
-0.000158451
0.000420436
-0.00024276
0.000539786
-0.000333641
0.000676655
-0.000429616
0.000831217
-0.00052921
0.0010035
-0.000630973
0.00119352
-0.000733524
0.00140146
-0.000835639
0.00162802
-0.00093636
0.00187486
-0.00103512
0.00214491
-0.00113178
-0.00121864
0.00243722
8.82643e-07
4.26917e-05
7.27055e-06
8.60884e-05
2.20264e-05
9.65701e-05
4.74782e-05
8.04954e-05
8.56162e-05
4.2673e-05
0.000138176
-1.31876e-05
0.000206663
-8.41731e-05
0.00029233
-0.000167893
0.000396138
-0.000262259
0.000518709
-0.00036533
0.00066029
-0.000475222
0.000820744
-0.000590069
0.000999569
-0.000708035
0.00119595
-0.000827358
0.00140886
-0.000946428
0.0016371
-0.00106389
0.00187947
-0.00117873
0.00213471
-0.00129036
0.00240139
-0.00139846
-0.00149466
0.00267741
1.55804e-06
4.11336e-05
1.03694e-05
7.7277e-05
2.9594e-05
7.73455e-05
6.18018e-05
4.82876e-05
0.000109174
-4.69962e-06
0.000173565
-7.75783e-05
0.000256489
-0.000167097
0.000359071
-0.000270475
0.000481975
-0.000385163
0.000625343
-0.000508698
0.00078876
-0.000638639
0.000971253
-0.000772562
0.00117134
-0.000908121
0.0013871
-0.00104312
0.00161627
-0.0011756
0.00185636
-0.00130397
0.00210465
-0.00142702
0.00235828
-0.00154398
0.00261423
-0.00165441
-0.00175137
0.00287094
2.38693e-06
3.87467e-05
1.40542e-05
6.56097e-05
3.84438e-05
5.29559e-05
7.83438e-05
8.38752e-06
0.000136075
-6.24311e-05
0.000213513
-0.000155016
0.000312034
-0.000265618
0.000432425
-0.000390865
0.000574794
-0.000527533
0.000738516
-0.00067242
0.000922218
-0.000822341
0.00112384
-0.000974185
0.00134074
-0.00112502
0.00156983
-0.00127221
0.00180774
-0.00141352
0.00205098
-0.00154721
0.00229602
-0.00167206
0.00253937
-0.00178734
0.00277774
-0.00189278
-0.00198352
0.00300989
3.3957e-06
3.5351e-05
1.84018e-05
5.06036e-05
4.87047e-05
2.2653e-05
9.72582e-05
-4.0166e-05
0.000166432
-0.000131604
0.000257975
-0.00024656
0.000372917
-0.000380559
0.000511441
-0.00052939
0.000672808
-0.000688899
0.000855328
-0.000854939
0.00105643
-0.00102345
0.00127283
-0.00119058
0.00150071
-0.00135289
0.00173597
-0.00150747
0.00197448
-0.00165203
0.00221225
-0.00178499
0.00244562
-0.00190543
0.00267132
-0.00201304
0.00288662
-0.00210807
-0.00218774
0.00309083
4.60536e-06
3.07456e-05
2.34669e-05
3.17421e-05
6.04501e-05
-1.43302e-05
0.000118586
-9.83016e-05
0.000200151
-0.00021317
0.000306567
-0.000352976
0.000438246
-0.000512238
0.000594466
-0.00068561
0.000773333
-0.000867766
0.000971856
-0.00105346
0.00118614
-0.00123773
0.00141168
-0.00141612
0.00164369
-0.0015849
0.00187742
-0.00174119
0.00210846
-0.00188307
0.00233296
-0.00200948
0.00254773
-0.0021202
0.00275033
-0.00221564
0.00293907
-0.00229681
-0.0023627
0.00311404
6.02973e-06
2.47159e-05
2.92751e-05
8.49679e-06
7.36826e-05
-5.87378e-05
0.000142227
-0.000166846
0.0002369
-0.000307843
0.000358527
-0.000474603
0.000506593
-0.000660304
0.000679156
-0.000858173
0.000872913
-0.00106152
0.00108344
-0.00126399
0.00130555
-0.00145985
0.00153375
-0.00164433
0.00176268
-0.00181382
0.00198745
-0.00196597
0.00220397
-0.00209959
0.00240907
-0.00221458
0.00260054
-0.00231168
0.00277714
-0.00239223
0.00293838
-0.00245806
-0.00250957
0.00308526
7.67456e-06
1.70413e-05
3.5819e-05
-1.96476e-05
8.83249e-05
-0.000111244
0.00016793
-0.000246451
0.000276084
-0.000415998
0.00041271
-0.000611229
0.000576033
-0.000823627
0.000762613
-0.00104475
0.000967591
-0.0012665
0.00118514
-0.00148154
0.00140904
-0.00168375
0.00163322
-0.00186851
0.00185228
-0.00203288
0.00206179
-0.00217547
0.00225849
-0.00229629
0.00244034
-0.00239642
0.00260636
-0.0024777
0.00275655
-0.00254242
0.00289159
-0.0025931
-0.0026312
0.00301322
9.53734e-06
7.50399e-06
4.30563e-05
-5.31666e-05
0.000104216
-0.000172404
0.000195281
-0.000337516
0.000316861
-0.000537577
0.000467629
-0.000761997
0.000644251
-0.00100025
0.000841603
-0.0012421
0.00105329
-0.00147819
0.00127232
-0.00170057
0.00149187
-0.00190329
0.00170586
-0.0020825
0.00190942
-0.00223644
0.0020991
-0.00236516
0.00227288
-0.00247007
0.00242998
-0.00255353
0.00257071
-0.00261843
0.00269613
-0.00266784
0.00280778
-0.00270474
-0.0027313
0.00290788
1.16072e-05
-4.10319e-06
5.09096e-05
-9.2469e-05
0.000121112
-0.000242605
0.000223721
-0.000440125
0.000358163
-0.00067202
0.000521533
-0.000925368
0.000708705
-0.00118742
0.000912845
-0.00144624
0.00112623
-0.00169157
0.00134114
-0.00191549
0.00155071
-0.00211286
0.00174945
-0.00228124
0.00193355
-0.00242054
0.00210086
-0.00253247
0.00225071
-0.00261992
0.00238362
-0.00268644
0.0025009
-0.00273572
0.0026044
-0.00277133
0.00269615
-0.0027965
-0.0028137
0.00277854
1.38646e-05
-1.79678e-05
5.92656e-05
-0.00013787
0.000138686
-0.000322026
0.00025255
-0.000553989
0.000398749
-0.000818219
0.000572517
-0.00109914
0.000766838
-0.00138174
0.000973325
-0.00165273
0.00118333
-0.00190157
0.00138899
-0.00212115
0.00158398
-0.00230786
0.00176393
-0.00246119
0.00192639
-0.002583
0.00207065
-0.00267673
0.00219733
-0.0027466
0.00230796
-0.00279707
0.0024046
-0.00283236
0.00248949
-0.00285622
0.00256485
-0.00287185
-0.0028818
0.00263295
1.62815e-05
-3.42493e-05
6.79769e-05
-0.000189565
0.000156541
-0.00041059
0.000280963
-0.000678411
0.000437272
-0.000974528
0.000618659
-0.00128052
0.000816292
-0.00157937
0.00102058
-0.00185702
0.00122251
-0.0021035
0.00141466
-0.0023133
0.00159181
-0.00248501
0.00175101
-0.00262038
0.0018913
-0.00272329
0.00201331
-0.00279874
0.00211872
-0.00285201
0.00220975
-0.00288811
0.00228884
-0.00291145
0.00235834
-0.00292572
0.00242039
-0.0029339
-0.0029384
0.00247699
1.88202e-05
-5.30695e-05
7.68631e-05
-0.000247608
0.000174218
-0.000507945
0.000308084
-0.000812277
0.000472365
-0.00113881
0.000658174
-0.00146633
0.000855119
-0.00177632
0.00105292
-0.00205482
0.00124279
-0.00229337
0.00141833
-0.00248885
0.00157576
-0.00264244
0.00171368
-0.0027583
0.00183256
-0.00284217
0.00193411
-0.00290029
0.00202072
-0.00293862
0.00209501
-0.00296239
0.00215948
-0.00297592
0.00221638
-0.00298262
0.00226761
-0.00298513
-0.00298562
0.00231483
2.14344e-05
-7.45039e-05
8.57158e-05
-0.00031189
0.000191213
-0.000613443
0.000333014
-0.000954077
0.000502739
-0.00130853
0.000689553
-0.00165315
0.000881932
-0.0019687
0.00106949
-0.00224238
0.00124428
-0.00246816
0.00140131
-0.00264587
0.0015384
-0.00277953
0.00165565
-0.00287555
0.0017547
-0.00294122
0.00183805
-0.00298364
0.00190848
-0.00300905
0.00196869
-0.0030226
0.00202107
-0.0030283
0.00206761
-0.00302916
0.00210992
-0.00302744
-0.003025
0.00214929
2.40692e-05
-9.85732e-05
9.43047e-05
-0.000382125
0.000207007
-0.000726145
0.000354889
-0.00110196
0.000527271
-0.00148092
0.000711671
-0.00183755
0.000895981
-0.00215301
0.00107032
-0.00241672
0.00122802
-0.00262586
0.00136572
-0.00278357
0.00148285
-0.00289666
0.00158078
-0.00297348
0.00166203
-0.00302247
0.00172954
-0.00305115
0.00178622
-0.00306573
0.00183465
-0.00307103
0.00187696
-0.00307061
0.00191485
-0.00306705
0.0019496
-0.00306219
-0.0030576
0.0019822
2.66629e-05
-0.000125236
0.000102387
-0.00045785
0.000221085
-0.000844842
0.000372932
-0.00125381
0.000545083
-0.00165307
0.000723856
-0.00201632
0.000897154
-0.00232631
0.00105612
-0.00257569
0.00119568
-0.00276542
0.00131416
-0.00290205
0.00141239
-0.00299489
0.00149277
-0.00305386
0.00155834
-0.00308805
0.00161224
-0.00310505
0.00165727
-0.00311076
0.00169576
-0.00310952
0.00172955
-0.0031044
0.00176001
-0.00309751
0.00178815
-0.00309033
-0.00308414
0.00181469
2.9149e-05
-0.000154385
0.000109721
-0.000538421
0.000232974
-0.000968096
0.000386507
-0.00140734
0.000555595
-0.00182216
0.000725896
-0.00218662
0.000885898
-0.00248631
0.00102817
-0.00271796
0.00114935
-0.00288661
0.00124935
-0.00300204
0.00133016
-0.0030757
0.00139487
-0.00311856
0.00144679
-0.00313997
0.00148901
-0.00314727
0.0015241
-0.00314585
0.00155409
-0.00313951
0.00158048
-0.00313079
0.00160438
-0.0031214
0.00162654
-0.0031125
-0.00310508
0.00164748
3.1459e-05
-0.000185844
0.000116073
-0.000623035
0.000242266
-0.00109429
0.00039515
-0.00156022
0.000558538
-0.00198554
0.000718004
-0.00234608
0.000863104
-0.00263141
0.000988077
-0.00284293
0.00109127
-0.0029898
0.00117394
-0.00308471
0.00123897
-0.00314074
0.00128984
-0.00316943
0.00132991
-0.00318004
0.00136205
-0.00317941
0.00138854
-0.00317234
0.00141108
-0.00316204
0.00143087
-0.00315059
0.00144877
-0.00313931
0.00146536
-0.00312908
-0.00312072
0.00148099
3.35256e-05
-0.00021937
0.000121236
-0.000710746
0.00024864
-0.00122169
0.000398591
-0.00171017
0.000553945
-0.0021409
0.000700739
-0.00249288
0.000829968
-0.00276064
0.00093763
-0.00295059
0.00102364
-0.00307581
0.00109035
-0.00315143
0.00114124
-0.00319163
0.00117994
-0.00320813
0.00120966
-0.00320976
0.00123299
-0.00320274
0.00125189
-0.00319123
0.00126772
-0.00317788
0.00128145
-0.00316432
0.00129374
-0.00315159
0.00130501
-0.00314035
-0.00313122
0.00131551
3.52893e-05
-0.000254659
0.000125043
-0.0008005
0.000251888
-0.00134854
0.000396767
-0.00185505
0.000542125
-0.00228626
0.000674938
-0.00262569
0.00078787
-0.00287357
0.000878647
-0.00304137
0.000948537
-0.0031457
0.00100072
-0.00320361
0.00103899
-0.0032299
0.00106693
-0.00323607
0.00108753
-0.00323035
0.00110303
-0.00321825
0.00111506
-0.00320326
0.00112472
-0.00318753
0.00113275
-0.00317235
0.00113966
-0.0031585
0.00114576
-0.00314645
-0.00313668
0.00115123
3.66877e-05
-0.000291347
0.000127348
-0.00089116
0.00025188
-0.00147307
0.000389759
-0.00199293
0.000523551
-0.00242005
0.000641554
-0.0027437
0.000738199
-0.00297022
0.000812811
-0.00311598
0.00086776
-0.00320065
0.000906781
-0.00324263
0.000933779
-0.0032569
0.000952164
-0.00325446
0.000964595
-0.00324278
0.000972996
-0.00322665
0.00097868
-0.00320894
0.000982518
-0.00319137
0.000985085
-0.00317492
0.000986762
-0.00316018
0.000987785
-0.00314748
-0.00313717
0.000988273
3.76769e-05
-0.000329023
0.000128069
-0.000981552
0.000248618
-0.00159362
0.00037783
-0.00212214
0.000498888
-0.00254111
0.000601667
-0.00284647
0.000682361
-0.00305091
0.0007417
-0.00317532
0.000782902
-0.00324185
0.000810018
-0.00326974
0.000826895
-0.00327377
0.000836674
-0.00326423
0.000841678
-0.00324779
0.000843507
-0.00322848
0.00084321
-0.00320865
0.000841465
-0.00318963
0.000838714
-0.00317217
0.000835245
-0.00315671
0.00083124
-0.00314347
-0.00313271
0.00082678
3.82208e-05
-0.000367244
0.000127167
-0.0010705
0.000242192
-0.00170864
0.000361355
-0.00224131
0.000468872
-0.00264862
0.000556352
-0.00293395
0.000621655
-0.00311621
0.000666694
-0.00322036
0.000695285
-0.00327044
0.000711602
-0.00328606
0.000719311
-0.00328148
0.000721236
-0.00326616
0.000719363
-0.00324591
0.000715
-0.00322411
0.000708972
-0.00320262
0.000701799
-0.00318245
0.000693819
-0.00316419
0.000685256
-0.00314815
0.00067625
-0.00313447
-0.00312332
0.000666859
3.82952e-05
-0.000405539
0.000124648
-0.00115685
0.000232768
-0.00181676
0.000340787
-0.00234932
0.000434283
-0.00274212
0.000506647
-0.00300632
0.000557258
-0.00316683
0.000588976
-0.00325208
0.000605995
-0.00328746
0.000612458
-0.00329253
0.000611771
-0.0032808
0.000606421
-0.00326081
0.000598077
-0.00323757
0.000587789
-0.00321383
0.000576197
-0.00319103
0.000563695
-0.00316995
0.000550542
-0.00315104
0.000536915
-0.00313452
0.000522924
-0.00312048
-0.00310901
0.000508616
3.7888e-05
-0.000443427
0.000120558
-0.00123952
0.00022058
-0.00191679
0.000316633
-0.00244538
0.000395896
-0.00282138
0.000453516
-0.00306394
0.000490204
-0.00320351
0.000509539
-0.00327141
0.000515909
-0.00329383
0.000513309
-0.00328993
0.000504837
-0.00327232
0.00049265
-0.00324862
0.000478127
-0.00322305
0.000462101
-0.0031978
0.000445057
-0.00317398
0.000427292
-0.00315219
0.000409001
-0.00313275
0.000390326
-0.00311584
0.000371362
-0.00310151
-0.0030898
0.000352148
3.69987e-05
-0.000480426
0.000114978
-0.0013175
0.000205901
-0.00200771
0.000289417
-0.00252889
0.000354454
-0.00288642
0.000397832
-0.00310732
0.000421385
-0.00322707
0.000429206
-0.00327923
0.000425726
-0.00329035
0.00041471
-0.00327891
0.000398932
-0.00325655
0.000380233
-0.00322992
0.000359741
-0.00320256
0.000338103
-0.00317616
0.000315684
-0.00315156
0.000292697
-0.0031292
0.000269291
-0.00310934
0.000245581
-0.00309213
0.000221652
-0.00307758
-0.00306569
0.000197545
3.56379e-05
-0.000516064
0.000108019
-0.00138988
0.000189036
-0.00208873
0.000259663
-0.00259952
0.000310654
-0.00293741
0.000340365
-0.00313703
0.000351556
-0.00323826
0.00034865
-0.00327632
0.000335999
-0.0032777
0.00031709
-0.00326
0.000294371
-0.00323383
0.000269399
-0.00320495
0.000243084
-0.00317624
0.000215922
-0.003149
0.000188176
-0.00312382
0.000159996
-0.00310102
0.000131492
-0.00308084
0.000102757
-0.0030634
7.38727e-05
-0.0030487
-0.00303671
4.48876e-05
3.38255e-05
-0.00054989
9.98111e-05
-0.00145587
0.0001703
-0.00215922
0.000227876
-0.0026571
0.000265126
-0.00297466
0.000281789
-0.00315369
0.000281353
-0.00323782
0.000268415
-0.00326339
0.000247163
-0.00325645
0.000220778
-0.00323362
0.000191397
-0.00320444
0.00016032
-0.00317388
0.00012828
-0.0031442
9.56493e-05
-0.00311637
6.26108e-05
-0.00309078
2.92592e-05
-0.00306767
-4.33157e-06
-0.00304724
-3.80825e-05
-0.00302965
-7.19096e-05
-0.00301487
-0.00300286
-0.000105754
3.15898e-05
-0.000581479
9.04996e-05
-0.00151478
0.000150011
-0.00221873
0.000194531
-0.00270162
0.000218437
-0.00299856
0.000222683
-0.00315794
0.000211304
-0.00322644
0.000188945
-0.00324103
0.000159566
-0.00322707
0.000126033
-0.00320008
9.01926e-05
-0.0031686
5.31289e-05
-0.00313681
1.54239e-05
-0.00310649
-2.26428e-05
-0.0030783
-6.0955e-05
-0.00305247
-9.94651e-05
-0.00302916
-0.000138132
-0.00300858
-0.00017689
-0.00299089
-0.000215649
-0.00297611
-0.00296418
-0.000254331
2.8966e-05
-0.000610445
8.02385e-05
-0.00156605
0.00012848
-0.00226697
0.000160069
-0.00273321
0.000171091
-0.00300959
0.000163543
-0.00315039
0.000141849
-0.00320475
0.0001106
-0.00320978
7.34855e-05
-0.00318995
3.30609e-05
-0.00315966
-9.08996e-06
-0.00312645
-5.20679e-05
-0.00309383
-9.54076e-05
-0.00306315
-0.000138901
-0.00303481
-0.000182483
-0.00300889
-0.000226148
-0.00298549
-0.000269889
-0.00296484
-0.000313655
-0.00294712
-0.000357341
-0.00293243
-0.00292067
-0.000400845
2.59944e-05
-0.00063644
6.91858e-05
-0.00160924
0.000106005
-0.00230379
0.000124891
-0.00275209
0.00012353
-0.00300823
0.000104794
-0.00313165
7.33591e-05
-0.00317331
3.36799e-05
-0.0031701
-1.08448e-05
-0.00314543
-5.7961e-05
-0.00311254
-0.000106319
-0.0030781
-0.000155173
-0.00304498
-0.000204147
-0.00301418
-0.000253083
-0.00298587
-0.000301951
-0.00296002
-0.000350784
-0.00293666
-0.000399613
-0.00291601
-0.000448405
-0.00289833
-0.000497042
-0.00288379
-0.00287233
-0.000545384
2.27194e-05
-0.000659159
5.74991e-05
-0.00164402
8.28664e-05
-0.00232915
8.93596e-05
-0.00275859
7.61417e-05
-0.00299501
4.68017e-05
-0.00310231
6.14841e-06
-0.00313266
-4.15571e-05
-0.00312239
-9.322e-05
-0.00309376
-0.00014687
-0.00305889
-0.000201365
-0.0030236
-0.000256086
-0.00299026
-0.000310722
-0.00295955
-0.000365142
-0.00293145
-0.000419339
-0.00290582
-0.000473379
-0.00288262
-0.000527333
-0.00286205
-0.000581202
-0.00284446
-0.000634857
-0.00283013
-0.00281909
-0.000688097
1.91882e-05
-0.000678347
4.53332e-05
-0.00167017
5.93269e-05
-0.00234315
5.38034e-05
-0.00275306
2.92679e-05
-0.00297047
-1.01174e-05
-0.00306293
-5.95089e-05
-0.00308327
-0.000114882
-0.00306702
-0.000173447
-0.0030352
-0.0002335
-0.00299884
-0.000294084
-0.00296302
-0.000354686
-0.00292966
-0.000415038
-0.00289919
-0.00047502
-0.00287147
-0.000534625
-0.00284621
-0.000593938
-0.00282331
-0.00065308
-0.00280291
-0.000712102
-0.00278544
-0.000770871
-0.00277137
-0.00276087
-0.000829091
1.54496e-05
-0.000693797
3.28374e-05
-0.00168755
3.56286e-05
-0.00234594
1.85155e-05
-0.00273595
-1.6791e-05
-0.00293517
-6.56848e-05
-0.00301403
-0.000123367
-0.00302559
-0.000186078
-0.00300431
-0.000251331
-0.00296995
-0.000317669
-0.0029325
-0.000384303
-0.00289638
-0.000450812
-0.00286315
-0.000516962
-0.00283304
-0.000582623
-0.00280581
-0.000647766
-0.00278107
-0.000712469
-0.0027586
-0.000776894
-0.00273849
-0.000841158
-0.00272118
-0.00090514
-0.00270738
-0.00269761
-0.000968407
1.15531e-05
-0.00070535
2.01543e-05
-0.00169616
1.19937e-05
-0.00233778
-1.62417e-05
-0.00270771
-6.17693e-05
-0.00288964
-0.000119653
-0.00295615
-0.000185202
-0.00296004
-0.000254937
-0.00293457
-0.000326666
-0.00289822
-0.000399162
-0.00286
-0.000471796
-0.00282375
-0.000544235
-0.00279071
-0.000616279
-0.002761
-0.000687783
-0.00273431
-0.00075867
-0.00271019
-0.000828974
-0.0026883
-0.000898868
-0.00266859
-0.000968542
-0.0026515
-0.00103791
-0.00263801
-0.00262909
-0.00110643
7.54783e-06
-0.000712898
7.41749e-06
-0.00169603
-1.13764e-05
-0.00231898
-5.02351e-05
-0.00266885
-0.000105433
-0.00283444
-0.0001718
-0.00288978
-0.000244801
-0.00288704
-0.000321247
-0.00285813
-0.000399226
-0.00282024
-0.000477731
-0.0027815
-0.00055628
-0.0027452
-0.000634641
-0.00271235
-0.000712662
-0.00268298
-0.000790198
-0.00265677
-0.000867119
-0.00263326
-0.000943387
-0.00261203
-0.00101915
-0.00259284
-0.00109468
-0.00257597
-0.00116997
-0.00256272
-0.0025544
-0.00124466
3.48149e-06
-0.000716379
-5.24942e-06
-0.00168729
-3.43017e-05
-0.00228993
-8.32607e-05
-0.0026199
-0.000147576
-0.00277013
-0.000221928
-0.00281543
-0.000301968
-0.002807
-0.000384798
-0.0027753
-0.000468771
-0.00273627
-0.000553084
-0.00269719
-0.000637408
-0.00266088
-0.000721621
-0.00262813
-0.000805655
-0.00259895
-0.000889407
-0.00257302
-0.000972731
-0.00254994
-0.00105551
-0.00252925
-0.00113785
-0.0025105
-0.00122013
-0.00249369
-0.00130257
-0.00248028
-0.00247121
-0.00138576
-6.00739e-07
-0.000715779
-1.77348e-05
-0.00167016
-5.66245e-05
-0.00225104
-0.000115143
-0.00256138
-0.000188025
-0.00269724
-0.000269864
-0.00273359
-0.000356521
-0.00272034
-0.000445378
-0.00268644
-0.000535035
-0.00264661
-0.000624882
-0.00260734
-0.000714735
-0.00257102
-0.000804612
-0.00253826
-0.000894581
-0.00250898
-0.000984676
-0.00248292
-0.00107484
-0.00245977
-0.00116497
-0.00243912
-0.00125506
-0.00242041
-0.00134546
-0.00240328
-0.00143676
-0.00238899
-0.00237631
-0.00153167
-4.65726e-06
-0.000711121
-2.99407e-05
-0.00164488
-7.82115e-05
-0.00220277
-0.000145739
-0.00249385
-0.000226638
-0.00261635
-0.000315468
-0.00264476
-0.000408307
-0.0026275
-0.000502798
-0.00259195
-0.000597759
-0.00255165
-0.000692741
-0.00251236
-0.000787692
-0.00247607
-0.000882765
-0.00244318
-0.00097821
-0.00241353
-0.00107432
-0.00238681
-0.00117137
-0.00236272
-0.00126957
-0.00234093
-0.00136903
-0.00232095
-0.00147032
-0.002302
-0.00157569
-0.00228361
-0.00227723
-0.00167476
-8.63884e-06
-0.000702482
-4.1764e-05
-0.00161175
-9.8932e-05
-0.0021456
-0.000174916
-0.00241787
-0.000263293