/*--------------------------------*- C++ -*----------------------------------*\
  =========                 |
  \\      /  F ield         | OpenFOAM: The Open Source CFD Toolbox
   \\    /   O peration     | Website:  https://openfoam.org
    \\  /    A nd           | Version:  6.0
     \\/     M anipulation  |
\*---------------------------------------------------------------------------*/
FoamFile
{
    version     2.0;
    format      ascii;
    class       volScalarField;
    location    "56";
    object      p;
}
// * * * * * * * * * * * * * * * * * * * * * * * * * * * * * * * * * * * * * //

dimensions      [0 2 -2 0 0 0 0];

internalField   nonuniform List<scalar> 
12500
(
-0.396693
-0.397797
-0.398472
-0.398916
-0.399273
-0.399585
-0.39988
-0.400175
-0.400479
-0.400789
-0.401104
-0.401418
-0.401728
-0.402029
-0.402319
-0.402598
-0.402867
-0.403126
-0.403379
-0.403628
-0.403876
-0.404125
-0.404404
-0.404734
-0.404902
-0.391458
-0.392663
-0.39338
-0.393828
-0.39416
-0.394416
-0.394623
-0.394801
-0.394955
-0.395085
-0.395191
-0.395266
-0.395309
-0.395318
-0.395291
-0.395229
-0.395135
-0.395012
-0.394866
-0.394701
-0.394522
-0.394335
-0.394163
-0.394022
-0.393782
-0.386336
-0.387635
-0.38839
-0.388839
-0.389143
-0.389342
-0.389462
-0.38952
-0.389524
-0.389475
-0.38937
-0.389207
-0.388983
-0.388698
-0.388352
-0.387949
-0.387491
-0.386984
-0.386437
-0.385856
-0.38525
-0.384629
-0.384006
-0.383399
-0.382761
-0.38136
-0.382746
-0.383536
-0.383984
-0.384259
-0.3844
-0.384431
-0.384371
-0.384226
-0.383998
-0.383684
-0.383283
-0.382794
-0.382217
-0.381554
-0.38081
-0.37999
-0.379103
-0.378158
-0.377166
-0.376139
-0.375089
-0.374027
-0.372964
-0.371947
-0.376559
-0.37803
-0.378851
-0.379296
-0.379542
-0.379625
-0.379568
-0.37939
-0.379098
-0.378692
-0.378172
-0.377536
-0.376784
-0.375919
-0.374943
-0.373862
-0.372685
-0.371422
-0.370086
-0.36869
-0.367252
-0.365787
-0.364299
-0.362801
-0.361429
-0.371966
-0.373518
-0.37437
-0.37481
-0.375026
-0.37505
-0.374907
-0.374613
-0.374175
-0.373594
-0.372871
-0.372004
-0.370994
-0.369844
-0.36856
-0.367148
-0.36562
-0.363989
-0.362269
-0.360479
-0.358642
-0.356776
-0.354883
-0.352973
-0.351273
-0.367612
-0.369243
-0.370123
-0.370559
-0.370743
-0.370709
-0.37048
-0.370072
-0.369491
-0.368739
-0.367817
-0.366723
-0.36546
-0.364032
-0.362445
-0.360708
-0.358835
-0.356842
-0.354748
-0.352575
-0.350351
-0.3481
-0.345821
-0.343525
-0.341525
-0.36353
-0.365237
-0.366143
-0.366573
-0.366726
-0.366635
-0.366321
-0.365801
-0.36508
-0.364162
-0.363045
-0.361731
-0.360221
-0.35852
-0.356636
-0.354581
-0.35237
-0.350021
-0.347559
-0.345011
-0.342411
-0.339789
-0.337142
-0.334488
-0.332216
-0.359752
-0.361532
-0.362462
-0.362884
-0.363006
-0.362857
-0.362461
-0.361832
-0.360977
-0.359897
-0.358593
-0.357064
-0.355315
-0.353348
-0.351175
-0.348807
-0.346262
-0.343563
-0.340738
-0.33782
-0.33485
-0.331865
-0.328865
-0.325875
-0.323357
-0.35631
-0.358158
-0.35911
-0.359523
-0.359612
-0.359408
-0.358931
-0.358198
-0.357214
-0.35598
-0.354496
-0.352763
-0.350782
-0.348559
-0.346103
-0.343429
-0.340555
-0.337509
-0.334322
-0.331034
-0.327694
-0.324348
-0.321001
-0.317689
-0.314947
-0.353237
-0.355146
-0.356114
-0.356516
-0.356573
-0.356314
-0.355762
-0.35493
-0.353824
-0.352445
-0.350793
-0.348866
-0.346666
-0.344197
-0.341469
-0.338496
-0.335298
-0.331905
-0.328353
-0.324689
-0.320971
-0.317255
-0.313553
-0.309924
-0.306971
-0.350564
-0.352522
-0.353502
-0.35389
-0.353914
-0.353604
-0.352979
-0.352056
-0.350839
-0.349327
-0.34752
-0.345414
-0.34301
-0.340311
-0.337324
-0.334062
-0.330546
-0.326806
-0.322883
-0.31883
-0.314714
-0.310605
-0.306527
-0.302564
-0.2994
-0.348319
-0.350312
-0.351296
-0.351666
-0.351657
-0.351298
-0.350609
-0.349604
-0.348287
-0.346658
-0.344713
-0.342448
-0.33986
-0.336949
-0.333721
-0.330184
-0.326358
-0.322273
-0.31797
-0.313509
-0.308968
-0.304428
-0.299927
-0.295589
-0.292192
-0.346527
-0.348536
-0.349514
-0.349863
-0.349821
-0.349417
-0.34867
-0.347593
-0.346192
-0.344463
-0.342401
-0.339999
-0.337252
-0.334155
-0.330709
-0.326917
-0.322795
-0.318369
-0.313679
-0.308788
-0.303781
-0.298755
-0.293764
-0.288972
-0.285293
-0.345207
-0.34721
-0.34817
-0.348493
-0.348418
-0.347971
-0.347174
-0.346039
-0.344568
-0.34276
-0.340604
-0.338093
-0.335215
-0.331962
-0.328326
-0.324306
-0.319909
-0.315152
-0.310072
-0.304727
-0.29921
-0.293629
-0.28805
-0.282685
-0.278635
-0.344372
-0.346343
-0.347271
-0.347562
-0.347451
-0.346966
-0.346126
-0.344944
-0.343422
-0.341554
-0.339329
-0.336736
-0.333759
-0.330383
-0.326592
-0.322376
-0.31773
-0.312661
-0.307192
-0.301376
-0.295303
-0.289087
-0.282802
-0.2767
-0.272142
-0.344029
-0.345937
-0.346818
-0.347069
-0.346919
-0.346397
-0.345522
-0.344304
-0.342744
-0.340836
-0.338566
-0.335919
-0.332873
-0.329407
-0.325496
-0.321119
-0.316256
-0.310899
-0.305054
-0.298756
-0.292086
-0.285156
-0.278033
-0.270994
-0.26574
-0.344174
-0.345989
-0.346805
-0.347005
-0.346812
-0.346253
-0.345345
-0.344099
-0.342514
-0.340582
-0.338286
-0.335607
-0.332519
-0.328992
-0.324994
-0.320488
-0.315441
-0.309825
-0.303623
-0.296845
-0.289551
-0.28184
-0.273751
-0.265552
-0.259368
-0.344798
-0.346487
-0.347219
-0.347356
-0.347112
-0.346511
-0.345571
-0.3443
-0.342697
-0.340751
-0.338442
-0.335747
-0.332635
-0.329069
-0.325006
-0.320399
-0.315196
-0.309347
-0.302811
-0.295565
-0.287639
-0.279104
-0.269949
-0.26038
-0.252997
-0.345885
-0.347414
-0.348041
-0.348101
-0.347794
-0.347144
-0.346167
-0.34487
-0.343249
-0.341291
-0.338974
-0.336269
-0.333142
-0.329546
-0.325431
-0.320737
-0.315395
-0.309336
-0.302489
-0.294798
-0.286251
-0.276882
-0.266609
-0.25551
-0.246653
-0.347411
-0.348749
-0.349248
-0.349215
-0.348829
-0.348118
-0.347094
-0.345763
-0.344118
-0.342143
-0.339813
-0.337095
-0.333949
-0.330323
-0.326157
-0.321379
-0.315907
-0.309653
-0.302518
-0.294413
-0.285282
-0.275113
-0.263742
-0.251053
-0.240476
-0.349349
-0.350468
-0.350817
-0.350668
-0.350187
-0.349398
-0.348312
-0.346932
-0.345249
-0.343245
-0.34089
-0.338148
-0.334972
-0.331306
-0.327081
-0.322216
-0.316619
-0.310183
-0.302791
-0.294321
-0.284675
-0.273797
-0.261447
-0.247255
-0.234771
-0.351672
-0.352544
-0.352719
-0.352435
-0.351836
-0.350948
-0.349779
-0.348332
-0.346594
-0.344541
-0.342144
-0.33936
-0.336139
-0.332419
-0.328127
-0.323176
-0.317464
-0.310875
-0.303276
-0.294517
-0.284459
-0.272996
-0.259826
-0.244264
-0.229652
-0.354354
-0.354955
-0.354933
-0.354489
-0.353749
-0.352736
-0.351462
-0.349924
-0.348107
-0.345986
-0.343525
-0.340681
-0.337399
-0.333616
-0.329256
-0.324233
-0.318445
-0.311774
-0.304082
-0.295204
-0.284955
-0.273145
-0.259306
-0.242284
-0.225009
-0.357369
-0.357679
-0.357438
-0.35681
-0.355901
-0.354739
-0.353333
-0.351679
-0.34976
-0.347546
-0.345001
-0.342079
-0.338724
-0.334874
-0.330458
-0.325399
-0.319609
-0.312997
-0.305455
-0.296863
-0.287079
-0.275909
-0.262744
-0.245991
-0.227796
-0.360702
-0.360703
-0.36022
-0.359381
-0.358277
-0.356939
-0.355374
-0.353579
-0.351532
-0.349204
-0.346555
-0.343539
-0.340101
-0.336184
-0.331729
-0.326673
-0.320961
-0.314548
-0.307404
-0.29954
-0.291028
-0.282038
-0.2728
-0.264406
-0.262981
-0.364342
-0.364017
-0.363271
-0.362197
-0.360872
-0.359329
-0.35758
-0.355618
-0.353421
-0.350957
-0.348186
-0.345061
-0.341531
-0.337547
-0.333059
-0.328029
-0.322429
-0.316258
-0.309549
-0.30239
-0.294954
-0.287526
-0.280517
-0.274986
-0.275072
-0.368289
-0.367622
-0.366591
-0.365258
-0.363685
-0.361914
-0.359955
-0.357803
-0.355435
-0.352816
-0.349905
-0.346657
-0.343025
-0.338966
-0.334444
-0.329439
-0.323949
-0.318005
-0.311677
-0.305089
-0.298437
-0.292
-0.286121
-0.281392
-0.280299
-0.372548
-0.371524
-0.370187
-0.368573
-0.366731
-0.364707
-0.362517
-0.360155
-0.357595
-0.354802
-0.351735
-0.348348
-0.344598
-0.340448
-0.335875
-0.33087
-0.325452
-0.319669
-0.313606
-0.307389
-0.301193
-0.295233
-0.289739
-0.284981
-0.282504
-0.377135
-0.375737
-0.374076
-0.37216
-0.370026
-0.36773
-0.365291
-0.362699
-0.35993
-0.356946
-0.353703
-0.350156
-0.346264
-0.341997
-0.337337
-0.332288
-0.326878
-0.321162
-0.315225
-0.30918
-0.303165
-0.297332
-0.291818
-0.286723
-0.283009
-0.382072
-0.38028
-0.378276
-0.37604
-0.373599
-0.371014
-0.368308
-0.365471
-0.362474
-0.359278
-0.355836
-0.352101
-0.348035
-0.343609
-0.338814
-0.333658
-0.328175
-0.322422
-0.316477
-0.310436
-0.304405
-0.298489
-0.292769
-0.287271
-0.282599
-0.387383
-0.385176
-0.382812
-0.380241
-0.377477
-0.37459
-0.371603
-0.368504
-0.365261
-0.361829
-0.358157
-0.354198
-0.349913
-0.345277
-0.340283
-0.334947
-0.329305
-0.323414
-0.317344
-0.311178
-0.304999
-0.298885
-0.29289
-0.287011
-0.281636
-0.393097
-0.390451
-0.387709
-0.384791
-0.381692
-0.378491
-0.37521
-0.371832
-0.36832
-0.364621
-0.360681
-0.356451
-0.351891
-0.346981
-0.341718
-0.336122
-0.330235
-0.324112
-0.317822
-0.311439
-0.305032
-0.298666
-0.292385
-0.286178
-0.28031
-0.39924
-0.396128
-0.392993
-0.389717
-0.386275
-0.382749
-0.379159
-0.375482
-0.371671
-0.367667
-0.363411
-0.358851
-0.353951
-0.348693
-0.343084
-0.337149
-0.330936
-0.324503
-0.31792
-0.311256
-0.304575
-0.297936
-0.291379
-0.284897
-0.278686
-0.405832
-0.402228
-0.398686
-0.395043
-0.39125
-0.387389
-0.383474
-0.37947
-0.375323
-0.370965
-0.366333
-0.361375
-0.356059
-0.350377
-0.344342
-0.337993
-0.331382
-0.324577
-0.317646
-0.310659
-0.30368
-0.296763
-0.289948
-0.283234
-0.276773
-0.412891
-0.408766
-0.404805
-0.400789
-0.396637
-0.392427
-0.388164
-0.383801
-0.37927
-0.374498
-0.369419
-0.363986
-0.358174
-0.351986
-0.345451
-0.338618
-0.331551
-0.324323
-0.317008
-0.309674
-0.302385
-0.295192
-0.288134
-0.281215
-0.274557
-0.420421
-0.41575
-0.411359
-0.406965
-0.402445
-0.397869
-0.393229
-0.388462
-0.383489
-0.378232
-0.372626
-0.366633
-0.360241
-0.35347
-0.346365
-0.33899
-0.331421
-0.323736
-0.316011
-0.308318
-0.300715
-0.293251
-0.28596
-0.27885
-0.27202
-0.428417
-0.423176
-0.418347
-0.41357
-0.408671
-0.403708
-0.398652
-0.393427
-0.387941
-0.382116
-0.375895
-0.369253
-0.362199
-0.354773
-0.347039
-0.339076
-0.33097
-0.322806
-0.314661
-0.306602
-0.298686
-0.290955
-0.283439
-0.276144
-0.269149
-0.436862
-0.431032
-0.425759
-0.420594
-0.415301
-0.409919
-0.4044
-0.398648
-0.392568
-0.386084
-0.379155
-0.371776
-0.363983
-0.355839
-0.347427
-0.338843
-0.33018
-0.321525
-0.312956
-0.304534
-0.296309
-0.288316
-0.280579
-0.2731
-0.265939
-0.445722
-0.43929
-0.433571
-0.42801
-0.422304
-0.416463
-0.410419
-0.404062
-0.397294
-0.390054
-0.382323
-0.374125
-0.365524
-0.35661
-0.347486
-0.33826
-0.32903
-0.319884
-0.310894
-0.302115
-0.293587
-0.285339
-0.277384
-0.269719
-0.262391
-0.454951
-0.447909
-0.441743
-0.435779
-0.429632
-0.423283
-0.416641
-0.409587
-0.402031
-0.393934
-0.38531
-0.376217
-0.366752
-0.35703
-0.347174
-0.337297
-0.327502
-0.317872
-0.30847
-0.299343
-0.290522
-0.282024
-0.273856
-0.266005
-0.258508
-0.464483
-0.456832
-0.450222
-0.443843
-0.437219
-0.4303
-0.422975
-0.415124
-0.406675
-0.397623
-0.388022
-0.37797
-0.367598
-0.357046
-0.346449
-0.335926
-0.325575
-0.315473
-0.305674
-0.296212
-0.287107
-0.278368
-0.269992
-0.261957
-0.254294
-0.474238
-0.465986
-0.458935
-0.452126
-0.444982
-0.437419
-0.429316
-0.42056
-0.411113
-0.401014
-0.390362
-0.379303
-0.367997
-0.356606
-0.345272
-0.334115
-0.323227
-0.312671
-0.302491
-0.292709
-0.283334
-0.274364
-0.265788
-0.257573
-0.249752
-0.484119
-0.475282
-0.467796
-0.460535
-0.452816
-0.444526
-0.43554
-0.425771
-0.415225
-0.403995
-0.392236
-0.380136
-0.367885
-0.355659
-0.343605
-0.331835
-0.320432
-0.309446
-0.298905
-0.288821
-0.27919
-0.270001
-0.261235
-0.252847
-0.244879
-0.49401
-0.484612
-0.476697
-0.468956
-0.460599
-0.451489
-0.441513
-0.430622
-0.418884
-0.406455
-0.393549
-0.380392
-0.3672
-0.354158
-0.341408
-0.329054
-0.317163
-0.305772
-0.294894
-0.284527
-0.274657
-0.265265
-0.256322
-0.247771
-0.239669
-0.50378
-0.493853
-0.485514
-0.477259
-0.468193
-0.458164
-0.447088
-0.434975
-0.421964
-0.408286
-0.394209
-0.379997
-0.365884
-0.352053
-0.338642
-0.325738
-0.313392
-0.301625
-0.290434
-0.279806
-0.269716
-0.260137
-0.251032
-0.24233
-0.234114
-0.513282
-0.502866
-0.494106
-0.485297
-0.475442
-0.464392
-0.452111
-0.438685
-0.424341
-0.409383
-0.394132
-0.378883
-0.363879
-0.3493
-0.335268
-0.321853
-0.309087
-0.296974
-0.285499
-0.274633
-0.264345
-0.254598
-0.245348
-0.236512
-0.228201
-0.522355
-0.511496
-0.502318
-0.492908
-0.48218
-0.470008
-0.456425
-0.441613
-0.425893
-0.409643
-0.393234
-0.376983
-0.361133
-0.345852
-0.331245
-0.317361
-0.304214
-0.291789
-0.280059
-0.268982
-0.258519
-0.248626
-0.239251
-0.230298
-0.221916
-0.530828
-0.519575
-0.509979
-0.499917
-0.488231
-0.474841
-0.459873
-0.443621
-0.426504
-0.408974
-0.391441
-0.374235
-0.357593
-0.341665
-0.326534
-0.312228
-0.29874
-0.28604
-0.274085
-0.262826
-0.252213
-0.242199
-0.23272
-0.22367
-0.215243
-0.538517
-0.526927
-0.516909
-0.506141
-0.493414
-0.478719
-0.462301
-0.444576
-0.426065
-0.407286
-0.388681
-0.370581
-0.353209
-0.336695
-0.321095
-0.306416
-0.29263
-0.279693
-0.267549
-0.256138
-0.245404
-0.235294
-0.225735
-0.216611
-0.208165
-0.545236
-0.533365
-0.522923
-0.511392
-0.497546
-0.481475
-0.463561
-0.444355
-0.424476
-0.4045
-0.384888
-0.365966
-0.347936
-0.3309
-0.31489
-0.299889
-0.285852
-0.272718
-0.260421
-0.248892
-0.238066
-0.227889
-0.218276
-0.209103
-0.200665
-0.550789
-0.538698
-0.527826
-0.515479
-0.500446
-0.482945
-0.463515
-0.442844
-0.421646
-0.400543
-0.380004
-0.36034
-0.341727
-0.32424
-0.307882
-0.292614
-0.278374
-0.265087
-0.252675
-0.241062
-0.230178
-0.219963
-0.210324
-0.201128
-0.192729
-0.554986
-0.542737
-0.531428
-0.518215
-0.50194
-0.482976
-0.462035
-0.439941
-0.417493
-0.395349
-0.373974
-0.353657
-0.334543
-0.316677
-0.300036
-0.284559
-0.270166
-0.25677
-0.244285
-0.232626
-0.221719
-0.211499
-0.201864
-0.192672
-0.184343
-0.557637
-0.545292
-0.533542
-0.51942
-0.501865
-0.481429
-0.459006
-0.435554
-0.411947
-0.38886
-0.36675
-0.345875
-0.326347
-0.308179
-0.291321
-0.275694
-0.261201
-0.247745
-0.235229
-0.223563
-0.21267
-0.20248
-0.192879
-0.183723
-0.175496
-0.558561
-0.546181
-0.533986
-0.518924
-0.500069
-0.478177
-0.454327
-0.429606
-0.404945
-0.38103
-0.358293
-0.336959
-0.317106
-0.298714
-0.28171
-0.265994
-0.251456
-0.237989
-0.225488
-0.213858
-0.203018
-0.192893
-0.18336
-0.17427
-0.166178
-0.557586
-0.545232
-0.532592
-0.516571
-0.496418
-0.47311
-0.447915
-0.422031
-0.396438
-0.371815
-0.348567
-0.326879
-0.306793
-0.288258
-0.271179
-0.255437
-0.240912
-0.227486
-0.215047
-0.203497
-0.19275
-0.182728
-0.173297
-0.164308
-0.156384
-0.554555
-0.542286
-0.529207
-0.512221
-0.490793
-0.466136
-0.439697
-0.412778
-0.386386
-0.361186
-0.337545
-0.31561
-0.295385
-0.27679
-0.259708
-0.244007
-0.229553
-0.216222
-0.203895
-0.19247
-0.181859
-0.17198
-0.162688
-0.153833
-0.146113
-0.549326
-0.5372
-0.523692
-0.505752
-0.483097
-0.457181
-0.429623
-0.401809
-0.374761
-0.349119
-0.325209
-0.303135
-0.282865
-0.264295
-0.247286
-0.231692
-0.21737
-0.204188
-0.192025
-0.180773
-0.170342
-0.160646
-0.15153
-0.142847
-0.135366
-0.541777
-0.529851
-0.515932
-0.497067
-0.473254
-0.446191
-0.417654
-0.389098
-0.361545
-0.335601
-0.311546
-0.289442
-0.269225
-0.250764
-0.233903
-0.218484
-0.204357
-0.191382
-0.179435
-0.168404
-0.158198
-0.148729
-0.139829
-0.131355
-0.124147
-0.531809
-0.520135
-0.505833
-0.486089
-0.461209
-0.433129
-0.40377
-0.374634
-0.346731
-0.320626
-0.296551
-0.274528
-0.25446
-0.236193
-0.219557
-0.204383
-0.190513
-0.177803
-0.166126
-0.155367
-0.145434
-0.136235
-0.127593
-0.119367
-0.112468
-0.519342
-0.507975
-0.493324
-0.472764
-0.446927
-0.417981
-0.387966
-0.358419
-0.330325
-0.3042
-0.28023
-0.258397
-0.238573
-0.220586
-0.204251
-0.189391
-0.175842
-0.163458
-0.152106
-0.141671
-0.132059
-0.123175
-0.114833
-0.106896
-0.100342
-0.504325
-0.493316
-0.478361
-0.457064
-0.430399
-0.400748
-0.370254
-0.340468
-0.312341
-0.286338
-0.262596
-0.241059
-0.221574
-0.203951
-0.187994
-0.173518
-0.160355
-0.148355
-0.137384
-0.127326
-0.118085
-0.109564
-0.101566
-0.0939617
-0.0877877
-0.486731
-0.476129
-0.460922
-0.438985
-0.411634
-0.381451
-0.35066
-0.320809
-0.292806
-0.267062
-0.243668
-0.222533
-0.20348
-0.186304
-0.1708
-0.156777
-0.144064
-0.132509
-0.121976
-0.112348
-0.10353
-0.09542
-0.0878126
-0.0805852
-0.0748277
-0.466557
-0.456411
-0.441015
-0.418546
-0.390665
-0.360131
-0.329227
-0.299483
-0.271757
-0.246406
-0.223476
-0.202844
-0.184313
-0.167665
-0.152688
-0.139187
-0.126988
-0.115938
-0.1059
-0.0967565
-0.088413
-0.0807644
-0.073597
-0.0667933
-0.0614882
-0.44383
-0.434187
-0.418671
-0.39579
-0.367544
-0.336845
-0.30601
-0.276543
-0.249243
-0.224414
-0.202059
-0.182027
-0.164104
-0.148061
-0.133682
-0.120768
-0.109146
-0.0986604
-0.0891749
-0.0805718
-0.0727566
-0.0656217
-0.0589463
-0.0526159
-0.047799
-0.418598
-0.409505
-0.393946
-0.370783
-0.342344
-0.311665
-0.281082
-0.252054
-0.225322
-0.201137
-0.179462
-0.160121
-0.142887
-0.127523
-0.11381
-0.101548
-0.090562
-0.0806992
-0.0718227
-0.0638157
-0.0565839
-0.0500178
-0.0438902
-0.0380873
-0.0337969
-0.39094
-0.382439
-0.366919
-0.343613
-0.315154
-0.284682
-0.254525
-0.226093
-0.200064
-0.176637
-0.15574
-0.137176
-0.120706
-0.10609
-0.0931041
-0.0815524
-0.0712605
-0.062076
-0.053864
-0.0465088
-0.0399171
-0.0339778
-0.0284594
-0.0232456
-0.019528
-0.360953
-0.353088
-0.337695
-0.314387
-0.286085
-0.256
-0.226439
-0.198751
-0.17355
-0.150987
-0.130958
-0.113248
-0.0976103
-0.0838016
-0.071601
-0.0608129
-0.0512666
-0.0428121
-0.0353172
-0.0286685
-0.0227741
-0.0175227
-0.0126817
-0.00813072
-0.00504202
-0.328763
-0.321573
-0.306397
-0.283232
-0.25526
-0.225738
-0.196933
-0.170126
-0.14587
-0.124268
-0.105188
-0.0884012
-0.0736553
-0.0607076
-0.0493399
-0.0393609
-0.0306043
-0.0229249
-0.0161948
-0.0103043
-0.00516387
-0.000664431
0.00342175
0.00722327
0.00963043
-0.294512
-0.288036
-0.273169
-0.250293
-0.222821
-0.194029
-0.16613
-0.140333
-0.117127
-0.096572
-0.0785128
-0.0627093
-0.0489058
-0.0368622
-0.0263652
-0.0172298
-0.00929625
-0.00242644
0.00350073
0.00858898
0.0129231
0.0166054
0.019852
0.0228122
0.0245048
-0.258365
-0.252639
-0.238174
-0.21573
-0.188922
-0.161019
-0.134165
-0.109494
-0.0874329
-0.0680027
-0.0510266
-0.0362562
-0.0234355
-0.0123284
-0.00272816
0.00554237
0.0126339
0.0186753
0.0237774
0.0280342
0.0315218
0.0343305
0.0366575
0.0386838
0.039604
-0.220505
-0.215561
-0.201589
-0.179717
-0.153728
-0.126861
-0.101182
-0.077742
-0.0569114
-0.0386735
-0.0228335
-0.00913717
0.00267037
0.0128198
0.02151
0.0289087
0.0351558
0.0403676
0.0446406
0.0480532
0.0506697
0.0525642
0.053894
0.0548305
0.0547362
-0.181127
-0.176994
-0.163606
-0.14244
-0.117417
-0.0917243
-0.0673346
-0.0452215
-0.0256963
-0.00870916
0.00595022
0.0185404
0.029314
0.038496
0.046277
0.0528144
0.0582354
0.0626397
0.0661012
0.0686736
0.0704036
0.0713352
0.0715045
0.0709321
0.0692712
-0.140442
-0.137147
-0.124428
-0.104095
-0.0801761
-0.0557814
-0.0327869
-0.0120845
0.00606922
0.0217549
0.0351962
0.046655
0.0563821
0.0645973
0.0714852
0.077195
0.0818432
0.0855124
0.0882488
0.0900738
0.0910067
0.0910084
0.0897966
0.0870309
0.083272
-0.098673
-0.0962373
-0.0842687
-0.0648889
-0.0421978
-0.019214
0.002292
0.0215093
0.0382336
0.0525733
0.0647637
0.0750695
0.0837398
0.0909925
0.0970097
0.10194
0.105901
0.108972
0.111197
0.112598
0.11321
0.112893
0.110888
0.106449
0.101757
-0.0560511
-0.0544918
-0.0433487
-0.025031
-0.00368098
0.0177921
0.0377277
0.0553952
0.0706395
0.0835938
0.0945031
0.103633
0.111233
0.117518
0.122671
0.126846
0.130169
0.132741
0.134639
0.135964
0.136872
0.137305
0.136306
0.133332
0.135967
-0.0128057
-0.0121385
-0.00189071
0.0152651
0.0351733
0.0550485
0.0733434
0.0894059
0.103127
0.114661
0.124261
0.132193
0.138702
0.144002
0.148274
0.151674
0.154331
0.156356
0.157845
0.158929
0.159775
0.160351
0.160122
0.159553
0.164493
0.0308212
0.0305858
0.0398762
0.055782
0.0741618
0.0923654
0.108961
0.123374
0.135536
0.145621
0.153887
0.160597
0.165994
0.170287
0.173656
0.176254
0.178211
0.179642
0.180653
0.18137
0.181939
0.182326
0.182152
0.181955
0.186341
0.0745876
0.0734436
0.081723
0.0963033
0.113082
0.129554
0.144406
0.157134
0.167709
0.176323
0.183233
0.188702
0.192965
0.196227
0.198661
0.200417
0.201622
0.202389
0.202821
0.203039
0.20317
0.203189
0.20278
0.202378
0.205745
0.118252
0.116198
0.123422
0.136614
0.151733
0.16643
0.179504
0.190523
0.199495
0.206621
0.212162
0.216374
0.219486
0.221694
0.223166
0.224045
0.224451
0.22449
0.224259
0.223863
0.223413
0.222874
0.221959
0.221072
0.223473
0.161575
0.158614
0.164746
0.176501
0.189919
0.202809
0.214086
0.223385
0.230745
0.236378
0.240543
0.24349
0.245439
0.246578
0.247067
0.247041
0.246612
0.245878
0.244926
0.24385
0.242742
0.241553
0.240023
0.23855
0.240019
0.20432
0.200459
0.205475
0.215757
0.227447
0.238514
0.247988
0.255567
0.261318
0.265461
0.268252
0.269934
0.270717
0.270781
0.270276
0.269328
0.268042
0.266506
0.264798
0.263001
0.261189
0.259307
0.257122
0.255032
0.255611
0.246255
0.241508
0.24539
0.25418
0.264129
0.273373
0.281053
0.286923
0.291079
0.293746
0.295175
0.2956
0.295223
0.294215
0.292715
0.290841
0.288689
0.286339
0.283861
0.281327
0.278797
0.276213
0.273368
0.270662
0.270389
0.287154
0.281537
0.284282
0.291572
0.299785
0.307221
0.313126
0.317314
0.319899
0.321113
0.321201
0.320388
0.318868
0.316799
0.314314
0.31152
0.308507
0.305346
0.302098
0.298828
0.295584
0.292308
0.288818
0.28551
0.284422
0.3268
0.320335
0.321947
0.327745
0.33424
0.339896
0.344062
0.346603
0.347654
0.347448
0.346226
0.344203
0.341564
0.338457
0.335005
0.331309
0.327449
0.32349
0.319486
0.315494
0.311553
0.307605
0.303496
0.299606
0.297737
0.364982
0.357694
0.358189
0.362516
0.367328
0.371247
0.373721
0.374662
0.374225
0.372643
0.370151
0.366955
0.36323
0.359115
0.354725
0.350152
0.345469
0.340735
0.335997
0.331305
0.326692
0.322101
0.317401
0.312953
0.310337
0.401497
0.393419
0.392821
0.395713
0.398888
0.401127
0.401968
0.40137
0.399501
0.396595
0.392882
0.388558
0.383787
0.378702
0.373409
0.367992
0.362518
0.357039
0.351596
0.346234
0.34098
0.335779
0.33052
0.32554
0.322212
0.436155
0.42732
0.425665
0.427169
0.428771
0.429398
0.428677
0.426608
0.423373
0.419206
0.414327
0.408927
0.403161
0.397151
0.390997
0.384775
0.378547
0.372358
0.366246
0.360248
0.354386
0.34861
0.342828
0.337345
0.33334
0.468773
0.459222
0.456555
0.456731
0.456832
0.455928
0.453728
0.450267
0.44574
0.44038
0.434401
0.427985
0.421277
0.414394
0.407426
0.400445
0.393505
0.386648
0.379905
0.37331
0.366878
0.360566
0.354296
0.34834
0.343695
0.499181
0.488958
0.485331
0.484252
0.482939
0.480596
0.477008
0.472243
0.466507
0.460031
0.453023
0.445655
0.438067
0.430367
0.422639
0.414948
0.407344
0.399862
0.392532
0.38538
0.378419
0.37161
0.364889
0.358492
0.353248
0.527221
0.516374
0.511849
0.509596
0.506966
0.503287
0.498411
0.492439
0.485584
0.478075
0.470115
0.461868
0.453466
0.44501
0.436579
0.428233
0.420014
0.411957
0.404085
0.39642
0.388972
0.381708
0.374574
0.367769
0.361969
0.552746
0.541326
0.535973
0.532639
0.528799
0.523895
0.517842
0.510765
0.502888
0.494436
0.485605
0.476555
0.46741
0.458265
0.449193
0.440248
0.43147
0.422888
0.414523
0.406392
0.398502
0.390824
0.383317
0.376139
0.369829
0.575623
0.563685
0.55758
0.553267
0.548334
0.542325
0.53521
0.52714
0.518342
0.509042
0.499429
0.489657
0.479844
0.470079
0.46043
0.450948
0.441668
0.432615
0.423807
0.415258
0.406972
0.398925
0.391084
0.383571
0.3768
0.59573
0.583333
0.57656
0.571377
0.565475
0.558489
0.550436
0.541488
0.531879
0.52183
0.511527
0.501117
0.490714
0.480403
0.470246
0.46029
0.450567
0.441099
0.431901
0.422984
0.41435
0.405979
0.397845
0.390035
0.382857
0.612962
0.600167
0.592815
0.586879
0.58014
0.57231
0.563449
0.553745
0.543436
0.532742
0.521844
0.510886
0.499976
0.489193
0.478599
0.468235
0.45813
0.448306
0.438773
0.429539
0.420606
0.411958
0.403572
0.395506
0.387976
0.627226
0.614097
0.606259
0.599694
0.592256
0.583722
0.574187
0.563853
0.55296
0.541728
0.530335
0.51892
0.507586
0.496411
0.485452
0.474748
0.464327
0.454205
0.444393
0.434896
0.425714
0.416835
0.40824
0.399961
0.392136
0.638444
0.625047
0.616821
0.609756
0.601761
0.592668
0.582598
0.571762
0.560406
0.548747
0.536961
0.525181
0.513511
0.502025
0.490776
0.479802
0.469128
0.45877
0.448736
0.43903
0.429651
0.420589
0.411829
0.40338
0.39532
0.646553
0.632955
0.624443
0.61701
0.608607
0.599103
0.588638
0.577435
0.565738
0.553764
0.541688
0.529641
0.517723
0.506007
0.494544
0.483371
0.472512
0.46198
0.451783
0.441924
0.432399
0.423203
0.414322
0.405746
0.397514
0.651504
0.637774
0.629081
0.621415
0.612755
0.602991
0.592277
0.58084
0.568926
0.556753
0.544492
0.532275
0.520199
0.508337
0.496738
0.485439
0.474461
0.463819
0.453518
0.443561
0.433945
0.424663
0.415704
0.407048
0.398707
0.653265
0.639473
0.630705
0.622945
0.614179
0.604308
0.593491
0.581957
0.569953
0.557695
0.545357
0.533067
0.520925
0.509001
0.497345
0.485991
0.474964
0.464275
0.45393
0.443932
0.434277
0.42496
0.415968
0.407278
0.398892
0.651818
0.638034
0.629297
0.621582
0.612866
0.603042
0.592269
0.580775
0.568807
0.556582
0.544273
0.53201
0.519893
0.507991
0.496357
0.485023
0.474014
0.463342
0.453014
0.443031
0.433391
0.424088
0.415108
0.40643
0.398065
0.64716
0.633455
0.624857
0.617327
0.608813
0.599191
0.58861
0.577292
0.565487
0.553411
0.541239
0.529103
0.517102
0.505308
0.493773
0.482533
0.471611
0.461021
0.45077
0.440859
0.431288
0.422048
0.413125
0.404506
0.396225
0.639306
0.625749
0.617396
0.610188
0.602031
0.592765
0.582521
0.571517
0.560001
0.548191
0.536262
0.524351
0.512557
0.500956
0.4896
0.478526
0.46776
0.457315
0.447201
0.437419
0.42797
0.418844
0.410023
0.401508
0.393377
0.628283
0.614944
0.60694
0.600192
0.592542
0.583783
0.574022
0.563468
0.552365
0.540936
0.529357
0.517769
0.506273
0.494948
0.483848
0.473014
0.46247
0.452235
0.442317
0.432721
0.423447
0.414483
0.405809
0.397444
0.389527
0.614136
0.601082
0.593529
0.587374
0.58038
0.572277
0.563142
0.55317
0.542606
0.53167
0.520547
0.509377
0.498269
0.487302
0.476536
0.466012
0.455759
0.445796
0.436133
0.426778
0.417732
0.40898
0.400496
0.392327
0.384684
0.596923
0.58422
0.577218
0.571785
0.565591
0.558291
0.549921
0.540663
0.530756
0.520426
0.50986
0.499204
0.48857
0.478044
0.467687
0.457545
0.447648
0.438018
0.428668
0.419609
0.410843
0.402351
0.394101
0.386171
0.378864
0.576718
0.564431
0.558073
0.553488
0.548233
0.541876
0.534407
0.52599
0.516859
0.507243
0.497334
0.487284
0.477211
0.467204
0.45733
0.447638
0.438161
0.428925
0.419946
0.411237
0.402802
0.394617
0.386645
0.378995
0.372082
0.55361
0.5418
0.536177
0.532557
0.528375
0.523097
0.51666
0.509206
0.500965
0.492168
0.483013
0.473659
0.46423
0.454819
0.4455
0.436324
0.427331
0.418548
0.409995
0.401687
0.393633
0.385803
0.378151
0.370823
0.364358
0.527702
0.516426
0.511622
0.509079
0.506097
0.502028
0.496748
0.490375
0.483133
0.475257
0.466949
0.458377
0.449671
0.440932
0.432236
0.423642
0.415192
0.406919
0.398845
0.390991
0.383366
0.375936
0.368646
0.361679
0.355716
0.499109
0.488424
0.484517
0.483153
0.481489
0.478751
0.474747
0.469568
0.46343
0.45657
0.4492
0.441492
0.433585
0.425588
0.417582
0.409631
0.401784
0.394075
0.386533
0.379181
0.372033
0.365048
0.35816
0.351593
0.346181
0.467962
0.45792
0.454979
0.45489
0.454654
0.45336
0.450745
0.446865
0.441929
0.436177
0.429828
0.423062
0.416028
0.408839
0.401586
0.394338
0.387148
0.380056
0.373095
0.366293
0.359667
0.353172
0.346726
0.340594
0.335779
0.434404
0.425053
0.423142
0.424412
0.425703
0.425958
0.424834
0.422352
0.41871
0.414152
0.408902
0.403153
0.397058
0.390741
0.384299
0.377809
0.371329
0.364904
0.35857
0.352363
0.346303
0.34034
0.334377
0.328713
0.32454
0.398591
0.389975
0.389148
0.39185
0.394757
0.396657
0.397118
0.396124
0.393861
0.390575
0.386499
0.381832
0.376739
0.371353
0.365777
0.360096
0.354374
0.348661
0.343
0.33743
0.331978
0.326588
0.321145
0.315983
0.312491
0.36069
0.352848
0.353151
0.357348
0.361947
0.365575
0.367707
0.368282
0.367476
0.365533
0.362696
0.359173
0.355139
0.350736
0.346076
0.34125
0.33633
0.331372
0.326423
0.32153
0.316726
0.311948
0.307062
0.302434
0.299662
0.32088
0.313849
0.315317
0.321058
0.327414
0.332842
0.336718
0.338935
0.339653
0.339117
0.337578
0.335253
0.332329
0.328955
0.325254
0.321325
0.317245
0.313079
0.308879
0.304699
0.300577
0.29645
0.292157
0.288091
0.286076
0.279351
0.273161
0.275821
0.283143
0.291307
0.298594
0.304276
0.308197
0.310498
0.311424
0.311233
0.310154
0.308382
0.306077
0.303372
0.300373
0.297167
0.293824
0.290403
0.286966
0.283559
0.280116
0.276452
0.272976
0.271752
0.236303
0.230981
0.234848
0.243775
0.253783
0.262975
0.270514
0.276189
0.280121
0.282556
0.283755
0.283959
0.283374
0.28217
0.280489
0.278447
0.27614
0.273644
0.271026
0.268356
0.265691
0.262962
0.259957
0.257096
0.256699
0.191945
0.187513
0.192593
0.203134
0.215007
0.226136
0.23557
0.243038
0.248641
0.252618
0.255241
0.256758
0.257386
0.257306
0.25667
0.255603
0.254209
0.252574
0.250773
0.248885
0.246979
0.244987
0.242668
0.240444
0.240911
0.146496
0.142971
0.149259
0.161409
0.175153
0.188237
0.199589
0.208879
0.216178
0.221725
0.225794
0.228644
0.230501
0.231559
0.231978
0.231892
0.231417
0.230645
0.229662
0.228558
0.227415
0.226172
0.224555
0.222983
0.224352
0.100182
0.097575
0.105056
0.118795
0.134402
0.149442
0.162724
0.173849
0.182863
0.189995
0.195523
0.199716
0.20281
0.205009
0.206482
0.207374
0.207808
0.207888
0.207707
0.20737
0.206975
0.20647
0.205552
0.204633
0.206946
0.0532345
0.0515537
0.0602009
0.0754951
0.09294
0.109924
0.125133
0.138097
0.14883
0.157552
0.164543
0.170081
0.17441
0.177743
0.180259
0.182111
0.18343
0.184331
0.184916
0.185302
0.185608
0.185795
0.185533
0.185237
0.18854
0.00589224
0.00514032
0.0149178
0.0317186
0.0509606
0.0698614
0.0869801
0.101775
0.114222
0.124529
0.132979
0.139853
0.145407
0.149859
0.153396
0.156179
0.158347
0.16002
0.161309
0.162346
0.163272
0.164055
0.164334
0.164554
0.168885
-0.0416025
-0.0414274
-0.0305657
-0.0123209
0.00866204
0.0294371
0.0484364
0.0650407
0.0791861
0.0910663
0.100962
0.10916
0.11592
0.121469
0.126
0.129678
0.132644