/*--------------------------------*- C++ -*----------------------------------*\
  =========                 |
  \\      /  F ield         | OpenFOAM: The Open Source CFD Toolbox
   \\    /   O peration     | Website:  https://openfoam.org
    \\  /    A nd           | Version:  6.0
     \\/     M anipulation  |
\*---------------------------------------------------------------------------*/
FoamFile
{
    version     2.0;
    format      ascii;
    class       volVectorField;
    location    "56";
    object      U;
}
// * * * * * * * * * * * * * * * * * * * * * * * * * * * * * * * * * * * * * //

dimensions      [0 1 -1 0 0 0 0];

internalField   nonuniform List<vector> 
12500
(
(1.77873e-05 -0.0258617 -1.29891e-21)
(-0.00130477 -0.0621378 1.76833e-20)
(-0.0046243 -0.0867057 -2.57258e-20)
(-0.00912218 -0.102327 1.18655e-20)
(-0.0143115 -0.111248 7.42876e-22)
(-0.0198674 -0.115268 -1.52796e-21)
(-0.0255267 -0.115787 -2.18759e-20)
(-0.0310891 -0.11386 1.20707e-20)
(-0.0364099 -0.110256 7.94407e-21)
(-0.0413881 -0.105511 8.14298e-21)
(-0.0459571 -0.099979 -1.37884e-20)
(-0.0500772 -0.093877 8.061e-21)
(-0.0537304 -0.0873193 -3.79876e-21)
(-0.0569163 -0.080349 6.43537e-21)
(-0.0596487 -0.0729622 -1.64816e-20)
(-0.0619539 -0.0651258 2.40171e-20)
(-0.0638694 -0.0567921 -4.66991e-21)
(-0.0654423 -0.047909 -1.69161e-20)
(-0.0667291 -0.0384286 8.57796e-21)
(-0.0677939 -0.0283128 -8.19836e-21)
(-0.0687044 -0.0175389 7.40843e-21)
(-0.0695321 -0.00610403 9.94913e-21)
(-0.0703772 0.00597134 9.4618e-22)
(-0.0713756 0.0186519 -2.82532e-20)
(-0.0724464 0.0318965 1.57944e-20)
(0.000732373 -0.0248355 2.20905e-20)
(0.000278156 -0.0594878 -5.95323e-20)
(-0.00264598 -0.0828436 1.78067e-20)
(-0.00703679 -0.0976043 1.18737e-20)
(-0.0122921 -0.105965 -9.54339e-21)
(-0.0180108 -0.109677 -5.41457e-20)
(-0.0238762 -0.110094 1.62205e-20)
(-0.0296516 -0.108231 -3.05205e-20)
(-0.0351691 -0.104823 3.67345e-20)
(-0.0403141 -0.100377 -4.92494e-20)
(-0.0450127 -0.0952214 2.64783e-20)
(-0.049223 -0.0895513 8.35993e-21)
(-0.0529277 -0.0834619 -2.15924e-20)
(-0.0561292 -0.0769791 -9.67493e-21)
(-0.0588459 -0.0700819 7.01e-20)
(-0.0611097 -0.0627209 -6.19811e-20)
(-0.0629643 -0.0548319 1.47339e-20)
(-0.0644633 -0.0463463 2.56802e-20)
(-0.0656701 -0.0371998 -6.18612e-21)
(-0.0666556 -0.0273382 4.18618e-20)
(-0.0674953 -0.0167238 7.35407e-21)
(-0.0682684 -0.0053412 -2.37736e-21)
(-0.069073 0.00679825 -5.23491e-20)
(-0.0700314 0.0196643 4.83603e-20)
(-0.0711251 0.0332181 -9.70671e-20)
(0.00137696 -0.0236877 6.99783e-20)
(0.00169055 -0.0565762 2.44401e-20)
(-0.000898743 -0.0786584 -3.17368e-20)
(-0.00521241 -0.0925498 1.35366e-20)
(-0.0105392 -0.100375 1.31811e-20)
(-0.0164068 -0.103824 4.95979e-20)
(-0.022448 -0.104197 -6.3006e-20)
(-0.0283928 -0.102464 -9.90683e-21)
(-0.0340516 -0.0993198 -4.22775e-20)
(-0.0392969 -0.0952399 -3.546e-20)
(-0.0440481 -0.0905276 4.64673e-20)
(-0.0482608 -0.0853551 -1.54585e-19)
(-0.051918 -0.0797984 -4.44578e-21)
(-0.0550245 -0.0738654 -9.2699e-20)
(-0.0576028 -0.0675181 -1.08069e-20)
(-0.0596897 -0.0606904 1.35325e-20)
(-0.061335 -0.0533008 -7.17809e-20)
(-0.0625991 -0.0452635 -4.48244e-20)
(-0.0635525 -0.0364967 -5.34077e-20)
(-0.064274 -0.0269293 8.41081e-20)
(-0.0648485 -0.0165076 3.0862e-20)
(-0.0653647 -0.00520202 -1.34819e-19)
(-0.0659201 0.006987 -6.50343e-20)
(-0.0666235 0.0200362 -7.17508e-20)
(-0.0675284 0.0339058 2.07688e-19)
(0.00194131 -0.0224274 -2.73573e-21)
(0.00290816 -0.0534258 -5.59735e-20)
(0.000582525 -0.0741827 -2.61047e-20)
(-0.00369223 -0.0872022 1.60837e-20)
(-0.00910345 -0.094521 1.04651e-19)
(-0.0151129 -0.0977559 -4.79119e-20)
(-0.0213075 -0.0981451 1.01602e-19)
(-0.0273865 -0.0966067 9.66675e-20)
(-0.0331407 -0.093795 5.92906e-20)
(-0.0384307 -0.0901521 -1.1222e-21)
(-0.0431696 -0.0859542 1.19911e-19)
(-0.0473098 -0.0813511 2.05984e-20)
(-0.0508345 -0.0763993 9.15826e-20)
(-0.05375 -0.0710885 2.09794e-19)
(-0.056082 -0.0653637 -2.43512e-19)
(-0.0578719 -0.059141 3.65601e-19)
(-0.0591748 -0.0523212 7.91632e-20)
(-0.0600582 -0.0448 -1.742e-19)
(-0.0606004 -0.0364767 -2.49708e-20)
(-0.0608889 -0.0272615 6.43688e-20)
(-0.0610196 -0.0170829 -3.10503e-20)
(-0.0610931 -0.00589537 -1.75818e-20)
(-0.0612089 0.00631453 -1.75521e-20)
(-0.0614643 0.0195336 -7.25062e-20)
(-0.0619904 0.0337171 2.73478e-19)
(0.0024158 -0.0210627 3.54632e-20)
(0.00390868 -0.050057 -1.72666e-19)
(0.00176616 -0.0694451 2.10169e-19)
(-0.00251523 -0.0815952 -8.46554e-20)
(-0.00803005 -0.088439 1.00909e-19)
(-0.0141806 -0.091509 8.20678e-20)
(-0.020513 -0.091974 3.12598e-20)
(-0.0266989 -0.0906966 4.94364e-22)
(-0.0325118 -0.0882871 1.77909e-19)
(-0.0378015 -0.0851534 1.22752e-19)
(-0.0424749 -0.0815446 -5.04958e-20)
(-0.0464814 -0.0775878 -3.22062e-20)
(-0.0498031 -0.0733203 1.34521e-19)
(-0.0524473 -0.068714 2.56095e-20)
(-0.0544417 -0.0636961 6.79206e-20)
(-0.0558314 -0.0581648 1.64191e-19)
(-0.0566764 -0.0520018 -1.43655e-19)
(-0.0570509 -0.0450827 1.16515e-19)
(-0.0570414 -0.0372859 -2.46867e-19)
(-0.0567455 -0.0285005 2.06949e-19)
(-0.056272 -0.0186344 8.5532e-22)
(-0.055736 -0.00762318 -1.62313e-19)
(-0.0552423 0.00456396 6.73217e-20)
(-0.054881 0.0179278 1.49399e-19)
(-0.0548643 0.0324154 -2.31947e-19)
(0.00279132 -0.0196006 1.81363e-19)
(0.00467166 -0.046488 -2.00002e-19)
(0.00262392 -0.064471 -3.35067e-20)
(-0.00171517 -0.0757581 4.06294e-20)
(-0.00735729 -0.0821597 -8.98863e-20)
(-0.0136528 -0.0851138 -1.415e-19)
(-0.0201124 -0.0857133 -1.17411e-19)
(-0.0263842 -0.0847612 -2.84927e-20)
(-0.0322267 -0.0828225 -2.04623e-19)
(-0.0374805 -0.0802703 1.60261e-19)
(-0.0420464 -0.0773264 -2.52847e-19)
(-0.0458706 -0.0740963 1.26841e-19)
(-0.0489336 -0.0705983 -4.39604e-20)
(-0.0512423 -0.066787 9.83918e-20)
(-0.0528252 -0.062572 -2.46961e-19)
(-0.0537298 -0.0578326 1.17245e-19)
(-0.0540202 -0.0524302 7.54249e-21)
(-0.0537767 -0.0462185 5.29161e-20)
(-0.0530942 -0.039052 3.16695e-19)
(-0.0520819 -0.0307952 6.75169e-20)
(-0.0508632 -0.0213316 -8.24589e-21)
(-0.0495708 -0.010574 1.94085e-20)
(-0.0483196 0.00153071 1.30391e-19)
(-0.047198 0.0150019 3.56724e-20)
(-0.0465031 0.0297766 1.25322e-19)
(0.00305935 -0.0180478 -1.13182e-19)
(0.00517881 -0.0427358 1.66721e-19)
(0.00313196 -0.0592839 1.01777e-20)
(-0.00131906 -0.0697169 -2.05807e-19)
(-0.00711431 -0.0757092 4.32154e-19)
(-0.0135607 -0.0785944 -1.41306e-19)
(-0.0201396 -0.0793838 2.0555e-19)
(-0.0264801 -0.078818 1.89526e-19)
(-0.0323288 -0.0774153 -1.57753e-19)
(-0.0375181 -0.0755139 -2.29343e-19)
(-0.0419439 -0.0733094 6.26837e-20)
(-0.0455489 -0.0708867 -6.59571e-20)
(-0.0483109 -0.0682465 -2.92964e-19)
(-0.0502352 -0.0653267 3.53456e-19)
(-0.0513499 -0.0620197 -1.69273e-19)
(-0.051703 -0.0581856 -1.16972e-19)
(-0.0513614 -0.0536642 -4.61416e-22)
(-0.0504107 -0.0482845 9.28807e-20)
(-0.0489543 -0.0418739 3.89134e-20)
(-0.0471133 -0.0342677 -1.53196e-19)
(-0.0450283 -0.0253198 1.69726e-19)
(-0.0428531 -0.0149142 -2.99458e-19)
(-0.040718 -0.00296964 1.80756e-19)
(-0.038718 0.0105581 -1.39093e-19)
(-0.0372386 0.0255953 3.98417e-20)
(0.00321201 -0.0164111 1.60199e-19)
(0.00541441 -0.0388173 -1.28117e-19)
(0.00327165 -0.0539062 -8.25852e-20)
(-0.00134585 -0.0634959 -1.46143e-19)
(-0.0073192 -0.0691102 -2.69595e-19)
(-0.0139213 -0.07197 -2.00713e-19)
(-0.0206112 -0.0729995 1.24218e-19)
(-0.027004 -0.0728747 -1.89261e-19)
(-0.0328373 -0.0720667 2.41523e-19)
(-0.0379378 -0.0708795 -3.93639e-19)
(-0.042197 -0.0694839 1.74853e-19)
(-0.0455541 -0.0679459 3.69786e-19)
(-0.0479837 -0.0662506 -5.19112e-19)
(-0.0494881 -0.0643207 7.38551e-20)
(-0.0500932 -0.0620324 9.52239e-20)
(-0.0498458 -0.0592269 9.27332e-20)
(-0.0488137 -0.0557211 -1.01764e-19)
(-0.0470863 -0.0513167 -2.68288e-20)
(-0.0447748 -0.0458099 -7.17385e-20)
(-0.042013 -0.039001 -6.13084e-20)
(-0.0389603 -0.0307076 -3.26134e-19)
(-0.0357953 -0.020777 -2.08038e-20)
(-0.0326705 -0.00909125 2.63338e-21)
(-0.0296977 0.00442674 -1.46676e-19)
(-0.0273567 0.0196938 1.55965e-19)
(0.00324233 -0.014698 3.96743e-21)
(0.00536599 -0.0347507 5.25416e-20)
(0.00303066 -0.0483613 5.42809e-20)
(-0.00180477 -0.0571192 3.29793e-20)
(-0.0079768 -0.0623842 2.71558e-19)
(-0.0147347 -0.0652562 2.55197e-19)
(-0.0215229 -0.0665686 -2.09193e-19)
(-0.0279479 -0.0669307 -6.24339e-20)
(-0.0337422 -0.0667664 -5.65293e-20)
(-0.0387288 -0.0663467 2.93082e-19)
(-0.0427964 -0.0658198 1.03923e-19)
(-0.0458808 -0.0652353 -1.5425e-19)
(-0.0479529 -0.0645652 -1.28772e-19)
(-0.0490111 -0.0637198 3.1153e-19)
(-0.049077 -0.062561 -7.69313e-20)
(-0.0481942 -0.0609119 -9.21179e-20)
(-0.0464294 -0.0585662 -1.28538e-19)
(-0.0438735 -0.0552961 -9.90375e-20)
(-0.0406441 -0.0508621 -1.24763e-19)
(-0.0368878 -0.0450231 -8.1223e-20)
(-0.0327844 -0.0375511 3.37966e-19)
(-0.0285408 -0.0282467 -1.64774e-19)
(-0.0243387 -0.0169434 1.10587e-19)
(-0.0203202 -0.00352075 -2.8981e-19)
(-0.0170678 0.0119334 1.25264e-19)
(0.00314463 -0.0129177 -1.41387e-19)
(0.00502519 -0.0305571 -3.75729e-20)
(0.00240432 -0.0426757 -3.00829e-19)
(-0.00269372 -0.0506132 -1.44166e-19)
(-0.00907666 -0.0555532 -2.88067e-19)
(-0.0159814 -0.058468 -3.02074e-20)
(-0.0228462 -0.0600962 1.55861e-19)
(-0.0292747 -0.0609793 -9.40006e-20)
(-0.0349984 -0.0614944 2.05288e-19)
(-0.0398396 -0.0618814 -4.98854e-19)
(-0.0436856 -0.062268 -1.35603e-20)
(-0.0464697 -0.0626909 8.85369e-20)
(-0.048159 -0.0631126 -1.12455e-19)
(-0.0487469 -0.0634347 1.01233e-19)
(-0.0482496 -0.0635077 -7.70391e-20)
(-0.0467052 -0.0631394 -1.63733e-19)
(-0.0441765 -0.0621009 2.97925e-19)
(-0.0407536 -0.0601339 1.8286e-19)
(-0.0365586 -0.056959 -3.8398e-20)
(-0.0317496 -0.0522863 1.17782e-19)
(-0.0265278 -0.0458321 -2.33404e-19)
(-0.0211319 -0.0373366 3.33647e-19)
(-0.0157806 -0.0265696 -4.55214e-19)
(-0.0106613 -0.0133518 9.49532e-20)
(-0.00647319 0.00223314 -1.81204e-19)
(0.00291504 -0.0110817 7.44345e-21)
(0.00438889 -0.0262622 -1.26817e-19)
(0.0013969 -0.0368805 1.93117e-19)
(-0.0039977 -0.0440084 3.97817e-19)
(-0.0105913 -0.0486428 -5.62612e-21)
(-0.0176204 -0.051622 4.54103e-20)
(-0.0245258 -0.0535871 -1.71729e-19)
(-0.0309147 -0.055011 8.21216e-20)
(-0.036522 -0.0562245 5.57911e-19)
(-0.0411724 -0.0574383 -1.27369e-19)
(-0.0447538 -0.0587629 -1.48797e-19)
(-0.0471984 -0.0602255 5.65384e-19)
(-0.04847 -0.0617837 1.82013e-19)
(-0.0485568 -0.0633348 8.63067e-20)
(-0.0474683 -0.0647232 8.73875e-20)
(-0.0452356 -0.0657451 2.41327e-19)
(-0.0419148 -0.0661522 -9.22267e-20)
(-0.0375928 -0.0656562 2.39679e-19)
(-0.0323929 -0.0639352 3.22854e-19)
(-0.0264831 -0.060644 -2.75595e-19)
(-0.0200861 -0.0554314 4.049e-19)
(-0.0134752 -0.0479611 1.39279e-19)
(-0.00691368 -0.0379188 -5.36227e-19)
(-0.000651426 -0.025045 7.69135e-19)
(0.00447481 -0.00940372 -6.48373e-19)
(0.0025521 -0.00920432 -3.49799e-19)
(0.00346029 -0.0218974 2.00745e-19)
(2.29245e-05 -0.0310138 -1.34996e-19)
(-0.00568758 -0.0373421 -1.30208e-19)
(-0.0124748 -0.0416842 -1.39244e-19)
(-0.0195877 -0.0447395 -1.52825e-19)
(-0.0264783 -0.0470493 4.28068e-20)
(-0.0327638 -0.0490171 4.00607e-19)
(-0.0381873 -0.0509286 -8.76645e-20)
(-0.0425793 -0.052967 -2.24847e-19)
(-0.0458308 -0.0552284 -1.36287e-19)
(-0.0478746 -0.0577346 -5.6434e-20)
(-0.0486726 -0.0604429 1.61398e-19)
(-0.0482082 -0.0632524 -1.05618e-19)
(-0.0464841 -0.0660077 -3.40957e-19)
(-0.0435232 -0.0684996 -3.72263e-19)
(-0.0393734 -0.070466 1.47758e-19)
(-0.0341149 -0.0715922 -2.7334e-19)
(-0.0278698 -0.071514 2.306e-19)
(-0.020813 -0.069826 -6.56749e-19)
(-0.0131877 -0.0660989 4.98186e-19)
(-0.00530376 -0.0599012 -6.52834e-19)
(0.00252362 -0.0508092 -9.75191e-21)
(0.00996457 -0.0384538 -2.14002e-19)
(0.0160142 -0.0228542 6.56862e-19)
(0.00205739 -0.00730363 5.34833e-19)
(0.00225009 -0.0175011 8.10213e-20)
(-0.00169179 -0.0251216 -5.31593e-20)
(-0.00771929 -0.0306599 -2.34294e-20)
(-0.0146629 -0.0347168 4.28669e-19)
(-0.0217961 -0.0378497 1.39318e-19)
(-0.0285918 -0.0404978 1.26062e-19)
(-0.0346835 -0.0429954 -1.02576e-19)
(-0.0398268 -0.0455832 3.95428e-19)
(-0.0438616 -0.0484186 -1.95886e-19)
(-0.0466851 -0.0515858 1.27417e-19)
(-0.048233 -0.0551049 3.18599e-19)
(-0.0484669 -0.058938 -1.81568e-19)
(-0.0473675 -0.0629922 1.93618e-19)
(-0.0449314 -0.0671195 1.82153e-19)
(-0.0411737 -0.0711141 6.27788e-20)
(-0.036133 -0.0747086 -1.50758e-19)
(-0.0298813 -0.0775693 4.1737e-19)
(-0.0225361 -0.0792947 -3.86747e-20)
(-0.0142764 -0.0794187 -4.17623e-20)
(-0.00536355 -0.077425 4.84166e-19)
(0.003855 -0.0727691 -3.38786e-19)
(0.0130063 -0.0648878 5.6602e-19)
(0.0216637 -0.0532627 -4.63318e-19)
(0.0286123 -0.0378319 6.20576e-19)
(0.00143616 -0.00540106 -2.55277e-19)
(0.000777387 -0.0131188 5.81312e-20)
(-0.00370946 -0.0192585 -6.0743e-20)
(-0.0100337 -0.024017 -2.9653e-19)
(-0.0170723 -0.0277905 1.71598e-20)
(-0.0241365 -0.0309922 1.68846e-19)
(-0.0307278 -0.0339589 -6.93779e-19)
(-0.0365026 -0.0369546 5.18408e-19)
(-0.0412334 -0.0401756 -5.06692e-19)
(-0.044773 -0.0437542 -3.20367e-19)
(-0.0470274 -0.0477645 2.85672e-19)
(-0.0479381 -0.0522278 -6.16115e-19)
(-0.0474695 -0.0571151 5.17721e-19)
(-0.0456018 -0.0623473 -1.66145e-19)
(-0.0423283 -0.0677921 -4.67118e-19)
(-0.037658 -0.073257 1.15036e-19)
(-0.0316215 -0.0784807 -1.09012e-19)
(-0.0242822 -0.0831227 3.84884e-20)
(-0.015751 -0.0867546 -1.4452e-19)
(-0.00620797 -0.0888555 -4.60895e-19)
(0.00407029 -0.0888207 1.04843e-19)
(0.0146992 -0.0859774 -2.16039e-21)
(0.0252444 -0.0795914 -4.51163e-19)
(0.0351696 -0.0689441 3.16315e-19)
(0.0429945 -0.0538415 -2.84724e-19)
(0.000697726 -0.00352136 1.02554e-19)
(-0.000929692 -0.00880274 1.9567e-19)
(-0.00598023 -0.0134884 2.77624e-19)
(-0.012557 -0.0174787 1.42853e-19)
(-0.0196034 -0.0209663 -1.41791e-19)
(-0.0264795 -0.0242199 3.39459e-19)
(-0.0327244 -0.027473 2.52123e-19)
(-0.0380221 -0.0309195 -9.36291e-20)
(-0.0421666 -0.0347108 3.29022e-19)
(-0.0450262 -0.0389542 -3.39607e-19)
(-0.0465189 -0.0437142 -9.99973e-20)
(-0.0465948 -0.0490142 1.01536e-19)
(-0.0452243 -0.0548372 1.97621e-19)
(-0.0423909 -0.0611226 3.02334e-21)
(-0.0380888 -0.0677608 1.22843e-19)
(-0.0323249 -0.0745829 2.26537e-19)
(-0.0251251 -0.081347 -3.83785e-19)
(-0.0165465 -0.0877223 4.72873e-19)
(-0.00669387 -0.0932702 1.52882e-19)
(0.00425408 -0.0974306 4.89726e-20)
(0.0160085 -0.0995179 -5.50335e-19)
(0.0281497 -0.0987262 7.79887e-20)
(0.0401823 -0.0941208 1.19012e-19)
(0.0514537 -0.0847231 -2.69529e-20)
(0.0601514 -0.0701402 1.39456e-19)
(-0.000144254 -0.00169192 7.17913e-21)
(-0.00283387 -0.00461104 -5.03386e-19)
(-0.00844257 -0.00788269 -1.39958e-20)
(-0.0152023 -0.0111206 -1.28895e-19)
(-0.0221414 -0.0143175 -8.52091e-19)
(-0.0286797 -0.0175993 7.38897e-19)
(-0.0344009 -0.0210973 -5.27976e-19)
(-0.0390218 -0.0249348 -2.77727e-20)
(-0.0423606 -0.0292176 -2.5005e-19)
(-0.0443043 -0.0340269 4.3216e-19)
(-0.044785 -0.0394162 -4.65145e-19)
(-0.0437647 -0.045411 -2.16984e-19)
(-0.041223 -0.0520062 3.71077e-21)
(-0.0371516 -0.0591622 -4.6345e-19)
(-0.0315508 -0.066797 6.31272e-19)
(-0.0244315 -0.0747736 -7.24561e-19)
(-0.0158216 -0.0828834 3.46202e-21)
(-0.00577684 -0.090823 1.10058e-19)
(0.00560054 -0.0981674 -2.67619e-19)
(0.018133 -0.104342 2.54918e-19)
(0.0315222 -0.108603 -3.627e-19)
(0.0453169 -0.11002 -2.32021e-19)
(0.0589653 -0.107443 4.25329e-19)
(0.0717047 -0.099567 -4.59329e-19)
(0.0813146 -0.0857205 -5.15599e-21)
(-0.00107187 5.8273e-05 -4.07208e-19)
(-0.00488909 -0.000605748 4.86785e-19)
(-0.0110243 -0.00251928 -1.52042e-19)
(-0.0178712 -0.00502628 2.93752e-19)
(-0.0245597 -0.00792813 3.19118e-19)
(-0.0305792 -0.0112114 -2.82516e-19)
(-0.0355639 -0.0149067 -1.86094e-19)
(-0.0392675 -0.0190672 -2.24696e-19)
(-0.0415353 -0.0237518 2.06695e-19)
(-0.0422743 -0.0290135 -1.45501e-20)
(-0.0414336 -0.0348927 3.00926e-19)
(-0.038989 -0.0414138 2.95908e-19)
(-0.0349337 -0.0485817 -3.5084e-19)
(-0.0292718 -0.0563764 6.86535e-19)
(-0.0220167 -0.0647445 -4.52535e-19)
(-0.0131913 -0.0735861 -7.34282e-20)
(-0.00283387 -0.0827359 8.64098e-19)
(0.00899178 -0.0919357 -4.00576e-19)
(0.0221789 -0.1008 2.47016e-19)
(0.0365475 -0.108774 4.75534e-19)
(0.0517911 -0.115092 -3.0781e-19)
(0.0674309 -0.118734 3.38582e-20)
(0.0828694 -0.118337 -1.99815e-20)
(0.0972569 -0.112215 -1.1417e-19)
(0.107893 -0.0993298 2.34164e-19)
(-0.00206335 0.00169999 9.23165e-20)
(-0.0070414 0.0031496 -3.0629e-19)
(-0.0136442 0.00252058 1.68149e-19)
(-0.020456 0.000714315 -2.42805e-21)
(-0.0267232 -0.00189109 1.28848e-19)
(-0.0320123 -0.00514892 -2.22526e-19)
(-0.0360133 -0.00899214 1.28108e-19)
(-0.03852 -0.0134041 3.50056e-19)
(-0.0394065 -0.0183961 -1.04745e-20)
(-0.038602 -0.0239902 -1.78243e-19)
(-0.0360735 -0.0302101 1.78651e-19)
(-0.0318134 -0.0370745 -5.21605e-21)
(-0.0258316 -0.0445933 -5.64551e-19)
(-0.0181503 -0.0527612 2.09794e-19)
(-0.00880231 -0.0615502 4.61371e-20)
(0.00216826 -0.0708966 -7.81627e-20)
(0.0147018 -0.0806824 -1.37802e-19)
(0.0287146 -0.0907073 5.36387e-19)
(0.0440843 -0.100649 1.25376e-19)
(0.0606203 -0.110008 -2.73207e-19)
(0.0780061 -0.118052 -3.10848e-20)
(0.09574 -0.123726 3.57174e-19)
(0.113194 -0.125496 -1.67695e-19)
(0.129477 -0.121265 6.81088e-20)
(0.14136 -0.109542 4.71514e-20)
(-0.00309369 0.00320525 -1.84622e-19)
(-0.00923038 0.00659284 1.91686e-19)
(-0.0162139 0.00715537 -1.08628e-19)
(-0.0228426 0.00600879 -3.51001e-19)
(-0.0284911 0.00369518 -3.25587e-19)
(-0.0328093 0.000486496 -1.43676e-19)
(-0.0355473 -0.00345695 -1.2048e-19)
(-0.0365413 -0.00805035 -3.5645e-19)
(-0.0356959 -0.0132564 -1.44484e-19)
(-0.0329637 -0.019064 1.32173e-19)
(-0.0283312 -0.0254755 -1.88526e-19)
(-0.0218094 -0.0324986 -1.9848e-19)
(-0.0134284 -0.0401411 -1.85233e-19)
(-0.00323306 -0.0484047 3.32211e-19)
(0.00871721 -0.0572785 -7.0014e-19)
(0.022348 -0.0667279 3.9317e-19)
(0.0375667 -0.0766787 -6.70486e-19)
(0.0542559 -0.0869911 -1.01107e-19)
(0.0722628 -0.0974203 -3.56506e-19)
(0.0913739 -0.107558 -7.98319e-20)
(0.111257 -0.116754 -9.91698e-20)
(0.13139 -0.124006 -3.20231e-19)
(0.151131 -0.127689 -2.97173e-20)
(0.169618 -0.125313 1.85804e-19)
(0.183104 -0.11488 -4.96667e-19)
(-0.00413571 0.00454891 1.57683e-19)
(-0.0113909 0.0096663 2.14531e-19)
(-0.0186397 0.0113071 7.59702e-19)
(-0.0249122 0.0107663 -1.33924e-19)
(-0.0297195 0.00873141 3.21547e-19)
(-0.0327998 0.00558965 7.70341e-19)
(-0.0339663 0.00158876 -2.10964e-19)
(-0.0330999 -0.00312093 2.86493e-19)
(-0.0301372 -0.00845356 1.67287e-19)
(-0.0250554 -0.0143627 3.03705e-19)
(-0.0178622 -0.0208253 -6.03303e-20)
(-0.00858986 -0.0278325 4.1657e-20)
(0.00270857 -0.035382 -1.03065e-19)
(0.0159604 -0.0434732 5.7097e-19)
(0.0310734 -0.0521008 7.43831e-20)
(0.0479342 -0.0612471 5.20022e-19)
(0.0664056 -0.0708695 -1.30191e-19)
(0.0863226 -0.0808804 4.64155e-19)
(0.107485 -0.0911129 6.1392e-20)
(0.129641 -0.101265 2.26305e-19)
(0.152431 -0.110821 -9.36563e-20)
(0.17531 -0.11891 -9.04949e-21)
(0.197637 -0.123949 5.08254e-19)
(0.218666 -0.123143 2.96923e-19)
(0.234244 -0.113982 -1.28709e-19)
(-0.00516105 0.00571 -3.82174e-19)
(-0.0134549 0.0123196 -4.03238e-19)
(-0.0208248 0.0149051 -4.25101e-19)
(-0.0265432 0.014902 1.56671e-19)
(-0.030263 0.0131227 -3.17e-19)
(-0.0318137 0.010058 -4.75518e-20)
(-0.0310741 0.00603569 -1.25724e-19)
(-0.027972 0.00126799 -5.22481e-19)
(-0.0224777 -0.00411182 -8.12285e-20)
(-0.0145948 -0.0100207 1.34271e-19)
(-0.00435467 -0.0164076 -4.2035e-19)
(0.00818667 -0.0232415 5.83577e-19)
(0.022949 -0.0305033 -7.8952e-19)
(0.0398275 -0.0381804 1.88517e-19)
(0.0586908 -0.0462611 -4.79235e-19)
(0.0793788 -0.0547295 -3.83931e-19)
(0.1017 -0.063557 -2.03411e-20)
(0.125429 -0.0726891 -5.44735e-20)
(0.150303 -0.0820209 4.67158e-20)
(0.176011 -0.0913523 -2.06001e-19)
(0.202151 -0.100319 -1.3934e-19)
(0.228145 -0.108259 1.65574e-19)
(0.253352 -0.113775 -4.51148e-19)
(0.277237 -0.113938 1.4335e-19)
(0.295491 -0.1058 9.76065e-20)
(-0.0061414 0.00667286 -6.7768e-20)
(-0.0153534 0.0145125 -1.16794e-19)
(-0.022671 0.0178898 4.57829e-19)
(-0.0276125 0.0183419 1.71481e-19)
(-0.029975 0.0167844 2.28295e-19)
(-0.029681 0.0137984 -3.06541e-19)
(-0.0266773 0.00978383 7.46447e-22)
(-0.0209403 0.00500954 -2.49643e-19)
(-0.0124765 -0.000345918 4.63404e-19)
(-0.00131893 -0.00616319 1.50993e-19)
(0.0124744 -0.0123613 1.68077e-19)
(0.0288194 -0.0188837 -6.74472e-19)
(0.0476042 -0.0256894 8.27983e-19)
(0.0686866 -0.032746 -2.49568e-19)
(0.0918902 -0.0400249 -1.76068e-19)
(0.117002 -0.0474975 5.23789e-19)
(0.143768 -0.0551301 2.2853e-19)
(0.171892 -0.0628771 -5.78173e-19)
(0.201035 -0.0706668 -2.32098e-19)
(0.23081 -0.0783728 7.03502e-19)
(0.260752 -0.0857681 -5.2266e-19)
(0.290234 -0.0924252 3.10879e-19)
(0.31859 -0.0972699 1.62101e-19)
(0.345556 -0.0974706 -2.07999e-19)
(0.367089 -0.0897877 -1.93327e-19)
(-0.00704949 0.00742779 -2.48801e-19)
(-0.017018 0.0162162 4.01638e-19)
(-0.0240795 0.0202157 1.72677e-19)
(-0.0279956 0.021027 -2.51113e-19)
(-0.0287073 0.0196472 -4.04359e-20)
(-0.0262307 0.0167345 -2.66382e-19)
(-0.0205823 0.012751 -1.06508e-19)
(-0.01179 0.00801684 1.20053e-19)
(0.000100371 0.00275214 -3.05543e-20)
(0.0150223 -0.00288888 2.26921e-19)
(0.0328859 -0.00879538 -1.97069e-19)
(0.0535737 -0.0148843 5.46421e-19)
(0.0769363 -0.0210895 -6.74272e-19)
(0.102787 -0.0273544 4.21523e-19)
(0.1309 -0.0336268 5.17423e-19)
(0.161002 -0.0398544 -7.42815e-19)
(0.192771 -0.0459823 -2.21649e-19)
(0.225835 -0.051949 3.72451e-19)
(0.259768 -0.0576812 -2.26689e-19)
(0.294091 -0.0630792 2.10864e-19)
(0.328252 -0.0679994 -5.07149e-19)
(0.361544 -0.072215 8.73129e-20)
(0.393229 -0.0750373 3.08659e-19)
(0.423312 -0.0739405 -4.78314e-19)
(0.448589 -0.0655655 1.35776e-19)
(-0.00785991 0.00797124 -2.29988e-19)
(-0.0183822 0.017415 7.48858e-19)
(-0.0249519 0.0218537 1.45106e-19)
(-0.0275666 0.022917 -3.94545e-19)
(-0.0263085 0.0216629 2.84517e-19)
(-0.0212877 0.0188126 1.45406e-19)
(-0.0125919 0.0148813 2.33012e-19)
(-0.000303931 0.0102329 -1.55904e-20)
(0.015486 0.00512503 -2.47283e-20)
(0.0346722 -0.000256289 -5.13688e-20)
(0.0571259 -0.00577227 -2.23152e-19)
(0.0826884 -0.0113143 -5.977e-21)
(0.111164 -0.0167921 5.21888e-19)
(0.142316 -0.0221245 -8.48706e-19)
(0.175859 -0.0272336 6.04665e-19)
(0.211458 -0.0320393 1.2245e-19)
(0.248722 -0.0364553 2.14132e-19)
(0.287203 -0.0403854 -1.03266e-19)
(0.326391 -0.0437192 9.38599e-19)
(0.365711 -0.0463243 -5.72922e-19)
(0.404495 -0.0480465 4.464e-19)
(0.441897 -0.0487289 9.84451e-20)
(0.476981 -0.04793 -3.06188e-19)
(0.509824 -0.0433759 2.53598e-19)
(0.538562 -0.0318588 3.75486e-19)
(-0.00854954 0.0083055 -6.67594e-20)
(-0.0193817 0.0181063 -2.63914e-19)
(-0.0251898 0.0227926 -4.54604e-19)
(-0.0261966 0.0239933 -2.60843e-19)
(-0.0226221 0.0228081 -3.67342e-20)
(-0.0146696 0.0200082 -1.04209e-19)
(-0.00250105 0.0161516 -4.85784e-19)
(0.0137415 0.0116391 8.10588e-20)
(0.0339169 0.00675999 -5.49126e-19)
(0.0578715 0.00172784 -4.2419e-20)
(0.0854277 -0.00329456 -5.28001e-19)
(0.116374 -0.00817714 -1.87314e-19)
(0.150458 -0.0128096 1.06912e-19)
(0.18738 -0.0170916 -5.10267e-19)
(0.226789 -0.0209253 5.1771e-21)
(0.268286 -0.0242083 -4.32961e-19)
(0.311416 -0.0268272 1.64577e-19)
(0.355677 -0.0286496 -5.91196e-19)
(0.400512 -0.029513 -9.7174e-20)
(0.445311 -0.02921 -1.18021e-20)
(0.489376 -0.0274808 -9.43655e-20)
(0.531806 -0.0240246 -9.72964e-20)
(0.571477 -0.0182068 -5.23042e-20)
(0.607872 -0.00756522 -1.83817e-19)
(0.638901 0.0101404 -3.69107e-19)
(-0.00909769 0.00843807 1.21924e-19)
(-0.0199544 0.0183 3.34693e-19)
(-0.0246942 0.0230396 4.05433e-19)
(-0.0237531 0.0242607 -3.26015e-19)
(-0.0174842 0.0230879 6.09186e-19)
(-0.00618486 0.0203301 -3.32544e-19)
(0.00990573 0.0165782 1.81634e-19)
(0.0305794 0.012262 2.84146e-19)
(0.0556345 0.0076964 2.59216e-19)
(0.0848574 0.00311664 1.26229e-19)
(0.118007 -0.00129646 2.04486e-19)
(0.154803 -0.00539817 1.19323e-19)
(0.194918 -0.00906672 7.99596e-19)
(0.237974 -0.0121935 -5.79391e-19)
(0.283542 -0.0146749 6.58049e-19)
(0.331147 -0.0164052 -2.70755e-19)
(0.380274 -0.0172685 5.77998e-19)
(0.430382 -0.0171287 -3.15672e-20)
(0.480919 -0.0158143 -1.18135e-19)
(0.531347 -0.013095 -1.91917e-20)
(0.58116 -0.00865111 4.23501e-19)
(0.629915 -0.00199233 -4.00312e-19)
(0.677466 0.00799003 2.8105e-19)
(0.724265 0.0236795 2.88962e-19)
(0.765945 0.0421763 5.37959e-20)
(-0.00948558 0.00838047 8.43946e-20)
(-0.0200397 0.0180171 -4.78467e-19)
(-0.0233645 0.0226199 -1.75124e-19)
(-0.0200978 0.0237484 1.61213e-19)
(-0.0107222 0.0225379 -4.99188e-19)
(0.00436949 0.0198236 -9.89817e-20)
(0.0248552 0.0162199 6.9006e-20)
(0.0504511 0.0121778 2.73663e-19)
(0.0808819 0.00803046 -6.95843e-19)
(0.115857 0.00402754 5.28e-20)
(0.155051 0.000360172 -2.04626e-19)
(0.198092 -0.0028215 -6.18921e-19)
(0.244555 -0.00539573 4.21794e-19)
(0.293958 -0.00725998 1.77346e-20)
(0.345771 -0.00832375 -1.19647e-20)
(0.399421 -0.00850258 4.15004e-19)
(0.454311 -0.00771226 -7.29504e-19)
(0.509842 -0.00586288 5.69796e-19)
(0.565436 -0.00285196 -1.08839e-19)
(0.620575 0.00144232 3.13263e-19)
(0.674833 0.00716367 -5.2102e-19)
(0.72793 0.0144941 2.84523e-19)
(0.779916 0.0238399 -5.01165e-19)
(0.831356 0.0360152 4.94421e-19)
(0.877617 0.04753 -1.6202e-19)
(-0.00969554 0.00814711 5.67595e-19)
(-0.0195769 0.0172884 -9.60347e-20)
(-0.0210969 0.0215757 7.1311e-19)
(-0.0150857 0.0225099 3.3249e-19)
(-0.00215384 0.0212249 2.69548e-20)
(0.017207 0.0185724 1.46915e-19)
(0.042583 0.0151811 3.57015e-20)
(0.0736015 0.0115146 6.03944e-19)
(0.109895 0.0079161 1.95159e-19)
(0.151072 0.00464145 -2.59338e-20)
(0.196699 0.00188239 5.35427e-20)
(0.246281 -0.000216705 2.04155e-19)
(0.299266 -0.00154718 1.68896e-19)
(0.355038 -0.00202779 3.5678e-19)
(0.412937 -0.00159851 -4.09035e-19)
(0.472269 -0.000215609 1.21071e-19)
(0.532329 0.00215231 3.8656e-20)
(0.592434 0.00552736 1.76562e-19)
(0.651944 0.00992414 4.63806e-19)
(0.710302 0.0153484 -3.08258e-19)
(0.76706 0.021789 1.85025e-20)
(0.821903 0.0292055 -4.06421e-19)
(0.874724 0.0376008 3.70878e-19)
(0.925742 0.047292 -3.49785e-19)
(0.971051 0.0562655 4.16465e-20)
(-0.00971006 0.00775423 -4.73471e-19)
(-0.018504 0.0161523 3.75809e-19)
(-0.0177831 0.0199645 -6.16154e-19)
(-0.0085646 0.0206217 5.34445e-20)
(0.00841203 0.0192467 4.39408e-19)
(0.0325489 0.0166982 -7.36072e-19)
(0.0633281 0.0136102 5.86833e-19)
(0.100269 0.0104499 -9.3493e-19)
(0.142887 0.00756129 1.87049e-19)
(0.190663 0.00519583 3.97851e-20)
(0.243017 0.00353436 3.14696e-19)
(0.299303 0.00270247 -1.04998e-18)
(0.358803 0.00278137 1.82275e-19)
(0.420743 0.00381581 1.90989e-19)
(0.484303 0.00582018 -1.13484e-19)
(0.548651 0.00878348 -6.95088e-19)
(0.612964 0.0126734 3.30197e-19)
(0.676466 0.017439 6.00118e-19)
(0.738454 0.0230123 -6.23778e-19)
(0.79833 0.029306 4.4603e-19)
(0.855618 0.036207 -5.63412e-19)
(0.909971 0.0435632 4.04446e-19)
(0.961189 0.051224 -1.06043e-19)
(1.00931 0.0593757 5.99439e-19)
(1.05149 0.067199 -6.76051e-19)
(-0.00951061 0.00721879 6.7715e-20)
(-0.0167557 0.0146534 5.53905e-20)
(-0.0133093 0.0178573 1.36558e-19)
(-0.000375411 0.018182 4.91488e-19)
(0.0211723 0.01673 -1.55661e-20)
(0.0506182 0.0143585 1.11126e-19)
(0.0873219 0.0116971 4.97476e-19)
(0.13067 0.00920654 2.01539e-19)
(0.180029 0.00722014 -6.6522e-20)
(0.234714 0.00597254 5.68393e-19)
(0.293966 0.00561961 -6.4701e-19)
(0.356946 0.00625302 9.93612e-19)
(0.422743 0.00791103 -3.93442e-19)
(0.490393 0.010587 7.09975e-19)
(0.558911 0.0142369 -2.39965e-19)
(0.627319 0.0187859 8.68438e-20)
(0.694688 0.0241347 1.04797e-19)
(0.760171 0.0301643 -1.9487e-19)
(0.823031 0.03674 1.65379e-19)
(0.88267 0.0437124 1.04098e-19)
(0.938632 0.0509162 1.3991e-19)
(0.990607 0.0581639 2.86442e-19)
(1.03842 0.0652712 -2.96833e-20)
(1.0821 0.0723729 -1.29119e-19)
(1.11986 0.0794537 3.65668e-19)
(-0.00907643 0.00655779 -3.95989e-19)
(-0.0142622 0.0128407 4.34737e-20)
(-0.00755626 0.0153367 -7.8662e-19)
(0.00964547 0.0153079 -1.89074e-19)
(0.0363245 0.0138277 -3.56443e-19)
(0.07163 0.0117425 -7.68347e-20)
(0.114774 0.00966722 -3.85918e-19)
(0.164976 0.00804365 -2.31595e-19)
(0.221419 0.00718089 3.07475e-19)
(0.283208 0.00728115 -5.15143e-19)
(0.349365 0.00845862 -1.43424e-19)
(0.418823 0.0107539 4.60842e-21)
(0.490452 0.0141459 -9.63424e-19)
(0.563091 0.0185628 4.08519e-19)
(0.635587 0.0238922 -5.92409e-19)
(0.706842 0.0299913 -1.73941e-20)
(0.775855 0.0366966 1.12269e-19)
(0.841754 0.0438322 -1.87401e-19)
(0.903831 0.0512169 -1.61634e-19)
(0.961548 0.0586687 7.60802e-20)
(1.01455 0.0660078 8.32459e-20)
(1.06263 0.0730556 -5.41606e-19)
(1.10574 0.0796485 3.06882e-19)
(1.14402 0.0859015 1.46133e-19)
(1.17653 0.0922671 3.3097e-20)
(-0.00838365 0.00578788 4.04964e-19)
(-0.0109486 0.0107668 -4.48216e-19)
(-0.000399956 0.0124952 6.33348e-19)
(0.0216626 0.012133 9.94726e-20)
(0.0540593 0.0107148 -3.06193e-20)
(0.0957793 0.00906577 -2.16722e-19)
(0.145853 0.00777336 3.2856e-20)
(0.203296 0.00724569 3.32868e-19)
(0.267057 0.00775048 -4.60994e-19)
(0.335992 0.00943887 4.85164e-19)
(0.408862 0.0123639 -5.10904e-20)
(0.484346 0.0164966 2.44169e-20)
(0.561085 0.0217406 6.30591e-19)
(0.637725 0.0279471 8.37641e-19)
(0.712978 0.0349299 -3.2914e-19)
(0.785668 0.0424795 5.73217e-19)
(0.854781 0.0503774 2.84226e-19)
(0.919494 0.0584069 -1.77647e-19)
(0.979196 0.0663629 5.43775e-19)
(1.03349 0.0740579 -2.68183e-20)
(1.08219 0.0813258 -5.09113e-19)
(1.12527 0.0880224 5.27127e-19)
(1.16286 0.0940299 6.90069e-20)
(1.19526 0.0994643 -3.14173e-19)
(1.22217 0.105007 9.96833e-20)
(-0.0074048 0.00492542 -5.63136e-19)
(-0.00673458 0.00848772 6.1093e-19)
(0.00828599 0.00943372 -3.90318e-19)
(0.0358361 0.00880491 -1.2243e-19)
(0.0745508 0.00758425 -2.76342e-19)
(0.123226 0.00656323 4.91582e-19)
(0.180671 0.00628614 -2.86618e-19)
(0.245645 0.00710894 -1.31837e-19)
(0.316818 0.00923723 -3.78502e-19)
(0.392753 0.0127492 1.02114e-20)
(0.471918 0.0176155 -1.48993e-19)
(0.552727 0.0237188 7.14056e-20)
(0.633598 0.0308739 -7.5845e-19)
(0.71302 0.038848 2.16891e-19)
(0.78962 0.0473815 -2.57959e-19)
(0.862215 0.0562067 -2.05159e-19)
(0.929859 0.0650653 6.30107e-20)
(0.991859 0.0737209 -2.93157e-19)
(1.04778 0.0819686 -1.20305e-19)
(1.09744 0.08964 3.57395e-19)
(1.14085 0.0966052 1.45652e-19)
(1.17824 0.102771 -6.21278e-19)
(1.20992 0.108076 4.48935e-19)
(1.23637 0.112655 -8.3507e-20)
(1.25774 0.117249 -1.70373e-19)
(-0.00610868 0.00398699 -2.04942e-19)
(-0.00153595 0.00606277 -1.13729e-19)