/*--------------------------------*- C++ -*----------------------------------*\
  =========                 |
  \\      /  F ield         | OpenFOAM: The Open Source CFD Toolbox
   \\    /   O peration     | Website:  https://openfoam.org
    \\  /    A nd           | Version:  6.0
     \\/     M anipulation  |
\*---------------------------------------------------------------------------*/
FoamFile
{
    version     2.0;
    format      ascii;
    class       volScalarField;
    location    "17.3";
    object      p;
}
// * * * * * * * * * * * * * * * * * * * * * * * * * * * * * * * * * * * * * //

dimensions      [0 2 -2 0 0 0 0];

internalField   nonuniform List<scalar> 
8000
(
-0.276172
-0.277271
-0.277982
-0.278493
-0.27892
-0.279281
-0.279593
-0.279871
-0.280125
-0.280361
-0.280587
-0.280808
-0.281028
-0.281254
-0.28149
-0.281745
-0.282024
-0.282306
-0.282579
-0.283099
-0.276319
-0.27741
-0.278116
-0.278621
-0.279042
-0.279397
-0.279702
-0.279973
-0.280219
-0.280449
-0.280667
-0.280879
-0.281091
-0.281307
-0.281535
-0.281781
-0.282053
-0.282327
-0.282592
-0.283109
-0.276605
-0.277681
-0.278374
-0.278867
-0.279275
-0.279617
-0.279909
-0.280165
-0.280396
-0.28061
-0.280811
-0.281006
-0.2812
-0.281398
-0.281607
-0.281835
-0.28209
-0.282348
-0.282596
-0.283106
-0.277026
-0.278079
-0.278754
-0.27923
-0.279619
-0.279941
-0.280211
-0.280445
-0.280652
-0.280841
-0.281016
-0.281183
-0.281348
-0.281517
-0.281696
-0.281896
-0.282123
-0.282356
-0.282578
-0.283076
-0.27758
-0.278605
-0.279256
-0.279708
-0.280071
-0.280364
-0.280605
-0.280807
-0.280982
-0.281135
-0.281274
-0.281402
-0.281527
-0.281654
-0.281792
-0.28195
-0.282139
-0.282335
-0.28252
-0.283001
-0.278262
-0.279253
-0.279875
-0.280297
-0.280627
-0.280885
-0.281087
-0.281249
-0.281381
-0.281488
-0.281578
-0.281655
-0.281726
-0.281798
-0.281879
-0.281982
-0.282118
-0.282265
-0.282402
-0.28286
-0.27907
-0.280024
-0.280612
-0.280997
-0.281286
-0.2815
-0.281655
-0.281766
-0.281844
-0.281894
-0.281923
-0.281935
-0.281937
-0.281937
-0.281945
-0.281976
-0.282043
-0.282125
-0.2822
-0.282629
-0.280002
-0.280915
-0.281463
-0.281805
-0.282046
-0.282207
-0.282306
-0.282357
-0.28237
-0.282351
-0.282305
-0.282237
-0.282154
-0.282065
-0.281981
-0.281919
-0.281897
-0.281895
-0.281893
-0.282286
-0.281057
-0.281926
-0.282429
-0.282721
-0.282906
-0.283006
-0.28304
-0.283021
-0.282959
-0.282859
-0.282726
-0.282564
-0.282379
-0.282181
-0.281982
-0.281805
-0.281669
-0.281559
-0.28146
-0.281806
-0.282238
-0.283058
-0.28351
-0.283746
-0.283867
-0.283898
-0.283857
-0.28376
-0.283614
-0.283423
-0.283191
-0.282921
-0.282618
-0.282291
-0.281955
-0.281635
-0.281356
-0.281107
-0.280881
-0.281167
-0.283549
-0.284315
-0.284709
-0.28488
-0.284929
-0.284883
-0.284761
-0.284578
-0.284341
-0.284052
-0.283712
-0.283323
-0.282887
-0.282413
-0.281915
-0.28142
-0.280962
-0.280532
-0.280139
-0.280343
-0.284995
-0.2857
-0.286028
-0.286126
-0.286094
-0.285963
-0.285754
-0.285479
-0.285146
-0.284755
-0.284303
-0.283787
-0.283208
-0.28257
-0.281887
-0.281186
-0.280504
-0.279841
-0.279219
-0.279301
-0.286586
-0.28722
-0.287473
-0.287486
-0.287365
-0.287142
-0.286838
-0.286468
-0.286037
-0.285542
-0.284976
-0.284333
-0.283606
-0.282793
-0.281904
-0.280964
-0.280011
-0.279045
-0.278108
-0.277999
-0.288331
-0.288883
-0.289047
-0.288966
-0.288744
-0.288418
-0.288014
-0.287545
-0.287014
-0.286416
-0.285741
-0.284973
-0.2841
-0.283109
-0.282001
-0.280792
-0.279517
-0.278168
-0.276792
-0.276382
-0.290242
-0.290697
-0.290759
-0.290568
-0.290233
-0.289794
-0.289279
-0.288705
-0.288073
-0.287375
-0.286594
-0.285709
-0.284697
-0.283532
-0.282199
-0.2807
-0.279055
-0.277232
-0.275261
-0.274376
-0.292332
-0.292674
-0.292616
-0.292299
-0.291833
-0.291266
-0.29063
-0.289942
-0.289203
-0.288403
-0.287521
-0.286526
-0.285385
-0.284056
-0.282503
-0.280704
-0.278654
-0.276274
-0.273529
-0.271927
-0.294619
-0.294828
-0.294631
-0.294166
-0.293549
-0.292834
-0.292059
-0.291244
-0.290388
-0.289481
-0.288496
-0.287396
-0.286135
-0.284656
-0.282899
-0.280809
-0.278346
-0.275369
-0.271701
-0.269071
-0.297123
-0.297177
-0.296817
-0.296181
-0.295387
-0.294501
-0.293566
-0.292603
-0.291615
-0.290588
-0.289493
-0.288287
-0.286915
-0.285303
-0.283365
-0.281009
-0.278147
-0.274559
-0.269826
-0.265718
-0.299871
-0.299745
-0.299195
-0.298359
-0.297361
-0.296277
-0.295155
-0.294021
-0.292879
-0.291716
-0.290503
-0.289195
-0.28773
-0.286028
-0.283979
-0.281445
-0.278262
-0.274045
-0.267933
-0.26155
-0.302896
-0.302562
-0.301791
-0.300724
-0.299491
-0.298179
-0.296842
-0.295512
-0.294196
-0.292883
-0.291549
-0.290158
-0.28866
-0.286994
-0.285079
-0.282812
-0.280035
-0.276251
-0.270193
-0.262988
-0.306238
-0.305662
-0.304637
-0.303308
-0.301809
-0.300238
-0.29866
-0.29711
-0.2956
-0.294126
-0.292673
-0.291222
-0.289757
-0.288273
-0.286801
-0.285438
-0.284395
-0.284028
-0.285709
-0.296176
-0.309948
-0.309089
-0.307775
-0.306149
-0.304353
-0.302497
-0.300654
-0.298865
-0.297146
-0.295502
-0.293927
-0.292421
-0.290996
-0.289693
-0.288606
-0.287918
-0.287946
-0.289181
-0.292689
-0.30291
-0.31408
-0.312892
-0.31125
-0.309295
-0.307174
-0.305009
-0.302883
-0.30084
-0.298903
-0.297081
-0.295381
-0.293815
-0.292416
-0.291251
-0.290437
-0.290166
-0.290725
-0.292495
-0.29601
-0.303624
-0.318694
-0.317123
-0.315113
-0.312799
-0.310326
-0.307835
-0.305411
-0.303104
-0.300941
-0.298935
-0.297098
-0.295451
-0.294033
-0.292917
-0.29221
-0.292069
-0.292695
-0.294311
-0.297148
-0.302206
-0.323852
-0.321838
-0.319417
-0.316715
-0.31387
-0.311036
-0.308304
-0.305725
-0.303326
-0.301119
-0.299118
-0.297342
-0.295827
-0.294632
-0.293839
-0.29355
-0.293876
-0.29491
-0.296737
-0.299509
-0.329613
-0.32709
-0.324218
-0.321099
-0.317864
-0.314674
-0.311623
-0.30876
-0.306104
-0.303666
-0.301451
-0.299471
-0.297751
-0.296329
-0.295255
-0.294584
-0.29436
-0.2946
-0.295331
-0.296296
-0.336029
-0.33293
-0.329564
-0.326006
-0.322365
-0.318805
-0.315421
-0.31225
-0.309305
-0.306581
-0.304077
-0.301791
-0.299734
-0.297926
-0.296393
-0.295155
-0.294225
-0.293584
-0.293241
-0.29281
-0.343146
-0.339399
-0.335503
-0.331484
-0.32742
-0.323476
-0.319735
-0.31622
-0.312927
-0.309839
-0.306942
-0.304223
-0.301685
-0.299334
-0.297185
-0.295246
-0.293518
-0.291982
-0.290639
-0.28914
-0.350994
-0.346532
-0.342071
-0.337573
-0.33307
-0.328717
-0.324581
-0.320663
-0.31694
-0.313381
-0.309961
-0.306666
-0.303495
-0.300456
-0.297563
-0.294828
-0.292255
-0.28984
-0.287581
-0.285222
-0.359587
-0.354348
-0.349294
-0.344301
-0.339337
-0.33454
-0.32995
-0.325544
-0.321278
-0.317112
-0.313022
-0.308997
-0.305048
-0.301194
-0.297459
-0.293867
-0.290433
-0.287168
-0.284067
-0.280967
-0.368921
-0.362851
-0.357182
-0.351677
-0.346223
-0.340928
-0.335801
-0.33079
-0.325839
-0.32091
-0.315988
-0.311085
-0.306228
-0.301458
-0.296815
-0.292335
-0.288043
-0.283959
-0.280075
-0.276298
-0.378965
-0.372023
-0.365723
-0.359688
-0.353701
-0.347831
-0.342051
-0.336289
-0.330488
-0.324625
-0.318713
-0.312795
-0.306927
-0.30117
-0.295582
-0.290207
-0.285075
-0.280208
-0.275589
-0.271172
-0.389661
-0.38182
-0.374879
-0.36829
-0.361709
-0.355158
-0.348579
-0.341892
-0.335057
-0.328089
-0.321043
-0.313999
-0.307046
-0.300265
-0.293723
-0.287467
-0.281525
-0.275914
-0.270603
-0.265574
-0.400918
-0.392166
-0.384579
-0.377402
-0.370143
-0.362773
-0.35522
-0.347415
-0.339362
-0.331129
-0.322828
-0.31458
-0.306502
-0.298688
-0.291208
-0.284101
-0.27739
-0.271077
-0.265116
-0.259508
-0.412607
-0.402952
-0.394717
-0.386901
-0.378851
-0.370497
-0.361771
-0.352648
-0.343202
-0.333572
-0.323928
-0.314434
-0.305223
-0.296395
-0.288009
-0.280097
-0.272662
-0.265695
-0.259128
-0.252982
-0.424563
-0.414029
-0.40514
-0.396617
-0.387636
-0.378107
-0.367999
-0.357366
-0.346375
-0.335249
-0.324216
-0.313467
-0.303146
-0.293342
-0.284101
-0.275435
-0.267331
-0.259761
-0.252635
-0.245998
-0.436575
-0.425206
-0.415655
-0.406333
-0.396257
-0.385345
-0.373648
-0.361335
-0.348685
-0.336006
-0.323573
-0.311596
-0.300209
-0.289487
-0.279451
-0.270092
-0.261376
-0.253259
-0.245625
-0.238552
-0.448397
-0.43625
-0.426021
-0.415789
-0.404433
-0.391926
-0.378451
-0.364324
-0.349944
-0.335698
-0.321894
-0.308741
-0.296356
-0.284785
-0.274024
-0.264036
-0.254772
-0.246166
-0.238079
-0.23063
-0.45974
-0.446888
-0.435956
-0.424682
-0.411852
-0.397552
-0.382143
-0.366111
-0.349979
-0.334195
-0.319081
-0.304829
-0.291527
-0.279187
-0.267776
-0.257231
-0.247485
-0.238451
-0.229969
-0.222209
-0.470287
-0.456813
-0.44514
-0.432681
-0.418185
-0.401918
-0.384464
-0.366491
-0.348633
-0.331379
-0.315043
-0.299788
-0.285663
-0.272643
-0.260662
-0.249636
-0.239478
-0.230081
-0.221266
-0.213262
-0.47969
-0.465685
-0.453228
-0.439432
-0.423096
-0.404729
-0.385172
-0.365276
-0.345763
-0.32714
-0.309696
-0.293549
-0.278704
-0.265098
-0.252635
-0.241206
-0.230709
-0.221018
-0.211934
-0.203757
-0.487583
-0.473143
-0.459851
-0.444574
-0.426253
-0.405705
-0.384047
-0.362297
-0.341243
-0.321381
-0.30296
-0.286045
-0.270592
-0.256501
-0.243645
-0.231897
-0.22114
-0.211225
-0.20194
-0.193661
-0.493594
-0.478818
-0.464637
-0.447751
-0.427343
-0.404592
-0.380892
-0.357409
-0.334962
-0.314016
-0.294764
-0.277212
-0.26127
-0.2468
-0.233648
-0.221669
-0.210731
-0.200667
-0.191253
-0.182946
-0.497351
-0.482338
-0.467219
-0.448623
-0.42608
-0.401165
-0.375542
-0.350488
-0.326825
-0.304968
-0.285042
-0.266995
-0.250688
-0.235949
-0.222602
-0.210483
-0.19945
-0.189314
-0.179845
-0.171586
-0.498498
-0.483344
-0.467249
-0.44688
-0.422211
-0.395235
-0.367856
-0.341431
-0.316754
-0.294172
-0.273739
-0.255342
-0.2388
-0.223909
-0.21047
-0.198308
-0.187267
-0.177141
-0.167696
-0.159562
-0.496701
-0.481502
-0.464408
-0.442249
-0.415526
-0.386647
-0.357727
-0.330159
-0.304686
-0.281577
-0.260808
-0.242214
-0.22557
-0.210646
-0.197225
-0.18512
-0.174164
-0.164131
-0.154791
-0.146859
-0.491662
-0.476511
-0.458418
-0.434503
-0.405856
-0.375288
-0.345076
-0.316615
-0.290577
-0.267143
-0.246217
-0.227579
-0.210971
-0.196137
-0.182846
-0.170901
-0.160125
-0.150274
-0.141124
-0.133474
-0.483126
-0.468115
-0.449052
-0.423465
-0.393081
-0.36108
-0.329854
-0.300766
-0.2744
-0.250847
-0.229943
-0.211419
-0.194985
-0.180368
-0.167323
-0.155644
-0.145146
-0.135569
-0.126696
-0.119406
-0.470891
-0.45611
-0.436135
-0.409014
-0.37713
-0.343986
-0.312043
-0.282601
-0.256147
-0.232682
-0.211978
-0.193726
-0.177609
-0.163336
-0.150654
-0.139351
-0.129232
-0.120023
-0.111519
-0.104668
-0.45481
-0.44035
-0.419555
-0.391084
-0.357978
-0.324007
-0.291654
-0.262134
-0.235829
-0.212656
-0.19233
-0.174505
-0.158845
-0.145047
-0.132847
-0.122032
-0.112397
-0.103655
-0.0956163
-0.0892847
-0.434801
-0.420755
-0.39926
-0.369665
-0.335646
-0.30118
-0.268728
-0.239402
-0.213478
-0.190796
-0.171019
-0.153776
-0.138711
-0.125514
-0.113918
-0.103703
-0.0946599
-0.0864909
-0.0790198
-0.0732957
-0.410843
-0.397304
-0.375261
-0.344805
-0.310203
-0.27558
-0.243335
-0.214467
-0.189147
-0.167144
-0.148082
-0.131566
-0.117231
-0.10476
-0.0938849
-0.0843842
-0.0760428
-0.0685568
-0.0617661
-0.0567448
-0.382985
-0.370048
-0.347631
-0.3166
-0.281759
-0.247316
-0.215576
-0.187415
-0.162907
-0.141761
-0.123568
-0.107917
-0.0944383
-0.0828131
-0.0727729
-0.0640969
-0.0565667
-0.0498785
-0.0438872
-0.0396557
-0.351336
-0.339096
-0.316504
-0.285203
-0.250469
-0.216531
-0.185577
-0.158357
-0.134855
-0.114728
-0.0975428
-0.0828813
-0.0703734
-0.0597029
-0.0506048
-0.04286
-0.0362512
-0.0304808
-0.0254072
-0.0220198
-0.316069
-0.304622
-0.282066
-0.25081
-0.216523
-0.183403
-0.153498
-0.127432
-0.105108
-0.086143
-0.0700878
-0.0565227
-0.0450831
-0.0354606
-0.0273984
-0.0206838
-0.0151061
-0.0103777
-0.00633565
-0.00383681
-0.277416
-0.266856
-0.244557
-0.213662
-0.180151
-0.148141
-0.119523
-0.0948024
-0.0738098
-0.056129
-0.0413045
-0.0289211
-0.0186249
-0.0101216
-0.00316919
0.00243256
0.00688206
0.0104501
0.0133221
0.0147646
-0.235661
-0.22608
-0.204264
-0.174038
-0.141615
-0.110984
-0.0838688
-0.0606606
-0.0411282
-0.024832
-0.0113155
-0.000174337
0.00892836
0.0162653
0.0220555
0.0264831
0.0297299
0.0320113
0.0334482
0.033388
-0.191136
-0.182623
-0.161512
-0.132253
-0.101209
-0.0721982
-0.0467769
-0.0252255
-0.00725942
0.0075774
0.0197374
0.0296096
0.037507
0.0436699
0.0482829
0.0515088
0.0534888
0.0542628
0.0537222
0.05159
-0.144215
-0.13685
-0.116662
-0.0886511
-0.0592497
-0.0320787
-0.00851828
0.0112533
0.0275674
0.0408936
0.0516804
0.0603036
0.0670532
0.0721352
0.0756972
0.0778704
0.0786814
0.0777738
0.074683
0.0704252
-0.0953022
-0.0891606
-0.0701016
-0.0435979
-0.0160794
0.00905916
0.0306116
0.0484949
0.0630821
0.074855
0.0842635
0.0916812
0.0973955
0.101611
0.104488
0.106175
0.106575
0.104837
0.100261
0.0956466
-0.0448326
-0.039979
-0.0222386
0.00252299
0.0279472
0.0508847
0.0703003
0.0861974
0.0989833
0.109149
0.117146
0.123351
0.128067
0.131535
0.134002
0.135741
0.136728
0.13598
0.133237
0.13678
0.00675068
0.010259
0.0265081
0.0493199
0.0724674
0.0930609
0.11023
0.124054
0.134968
0.143463
0.149986
0.154907
0.158527
0.161101
0.16289
0.164156
0.164887
0.164612
0.164225
0.16992
0.0589856
0.0611031
0.0757108
0.0963961
0.117117
0.135251
0.150085
0.161766
0.170746
0.177513
0.182505
0.186082
0.188539
0.190131
0.191105
0.191682
0.191845
0.191302
0.190958
0.195543
0.111407
0.112101
0.124942
0.143358
0.161535
0.177124
0.189559
0.199044
0.20604
0.211029
0.214429
0.216589
0.217789
0.21827
0.218261
0.21796
0.217361
0.216242
0.21535
0.218437
0.163552
0.162803
0.173779
0.189818
0.205371
0.21836
0.228358
0.235616
0.2406
0.243777
0.245548
0.246241
0.246118
0.245399
0.244291
0.242961
0.24139
0.239385
0.237631
0.239323
0.214964
0.212765
0.221808
0.235398
0.248283
0.258651
0.266202
0.271227
0.274192
0.275546
0.275669
0.274867
0.273383
0.271418
0.269153
0.26673
0.264116
0.261137
0.258445
0.258801
0.265198
0.261559
0.268627
0.279736
0.289944
0.297702
0.302825
0.305638
0.3066
0.306143
0.304624
0.302326
0.299471
0.296242
0.292798
0.289255
0.285572
0.281602
0.277969
0.277062
0.313823
0.308767
0.313852
0.322483
0.330042
0.335232
0.337975
0.338622
0.337623
0.33539
0.332257
0.328486
0.324279
0.319799
0.315187
0.310539
0.305807
0.300871
0.296322
0.294213
0.360428
0.353992
0.357116
0.363308
0.368281
0.370977
0.371416
0.369967
0.367071
0.363119
0.358423
0.353223
0.347704
0.34201
0.336264
0.330546
0.324807
0.318951
0.313524
0.310277
0.40462
0.39686
0.39807
0.401897
0.40438
0.404687
0.402921
0.399471
0.394764
0.389171
0.382981
0.376416
0.369643
0.362789
0.355962
0.349227
0.342538
0.335819
0.32956
0.325238
0.446034
0.437016
0.436391
0.43796
0.438079
0.436126
0.432282
0.426945
0.420533
0.413393
0.405797
0.397947
0.389993
0.382049
0.374207
0.36652
0.358947
0.351427
0.344389
0.339059
0.484328
0.474134
0.471777
0.471224
0.469135
0.465078
0.459302
0.452214
0.444218
0.435644
0.426743
0.417701
0.408652
0.399699
0.390918
0.382354
0.373969
0.365716
0.357956
0.351692
0.519188
0.507913
0.503953
0.501443
0.497326
0.491342
0.4838
0.475113
0.465671
0.455788
0.445697
0.435568
0.425523
0.41565
0.406016
0.396655
0.387537
0.378621
0.370204
0.363084
0.550332
0.538081
0.532668
0.52839
0.522449
0.514737
0.505612
0.495493
0.484758
0.473704
0.462548
0.451447
0.440511
0.429817
0.419421
0.409352
0.399582
0.390079
0.381071
0.373183
0.577507
0.564399
0.557703
0.551869
0.544326
0.5351
0.524592
0.513221
0.501356
0.489279
0.477193
0.465244
0.45353
0.44212
0.431061
0.420375
0.41004
0.400027
0.390503
0.38194
0.600495
0.586657
0.578864
0.571704
0.562801
0.552291
0.54061
0.528179
0.515358
0.502414
0.489542
0.476876
0.464504
0.452489
0.440869
0.429663
0.418852
0.408409
0.398446
0.389309
0.61911
0.604679
0.595991
0.587751
0.577742
0.56619
0.553558
0.540269
0.526672
0.513027
0.499518
0.48627
0.473367
0.460862
0.448789
0.437161
0.425966
0.415176
0.404856
0.395253
0.633205
0.618322
0.608952
0.599891
0.589043
0.576701
0.563349
0.549409
0.535225
0.521049
0.507057
0.49337
0.480064
0.467188
0.454772
0.442826
0.431341
0.420289
0.409698
0.399739
0.642666
0.627479
0.61765
0.608035
0.596623
0.583751
0.569915
0.555538
0.540959
0.526427
0.512112
0.498129
0.484552
0.471428
0.458782
0.446623
0.434943
0.423716
0.412942
0.402744
0.647417
0.632078
0.622018
0.612125
0.600429
0.58729
0.573211
0.558614
0.543838
0.529126
0.514649
0.500517
0.486806
0.473557
0.460795
0.448529
0.436751
0.425435
0.41457
0.404251
0.647422
0.632083
0.622022
0.612129
0.600433
0.587294
0.573214
0.558618
0.543841
0.52913
0.514652
0.50052
0.486809
0.47356
0.460797
0.448531
0.436754
0.425438
0.414572
0.404254
0.64268
0.627493
0.617664
0.608048
0.596636
0.583763
0.569926
0.555548
0.54097
0.526437
0.512121
0.498138
0.484562
0.471437
0.45879
0.446631
0.434951
0.423724
0.41295
0.402751
0.633229
0.618346
0.608975
0.599912
0.589063
0.576721
0.563368
0.549427
0.535242
0.521065
0.507073
0.493385
0.480079
0.467203
0.454786
0.44284
0.431354
0.420302
0.409711
0.399751
0.619144
0.604712
0.596023
0.587781
0.577771
0.566218
0.553584
0.540294
0.526696
0.51305
0.499541
0.486292
0.473388
0.460883
0.448809
0.437181
0.425985
0.415195
0.404875
0.39527
0.600538
0.5867
0.578905
0.571743
0.562838
0.552326
0.540643
0.528212
0.515389
0.502444
0.489571
0.476903
0.464532
0.452516
0.440895
0.429688
0.418876
0.408433
0.398469
0.389332
0.57756
0.564451
0.557752
0.551916
0.544371
0.535143
0.524633
0.51326
0.501394
0.489315
0.477228
0.465278
0.453563
0.442152
0.431092
0.420405
0.41007
0.400056
0.390531
0.381967
0.550394
0.538142
0.532727
0.528446
0.522502
0.514787
0.505661
0.495539
0.484803
0.473747
0.46259
0.451487
0.44055
0.429855
0.419458
0.409388
0.399617
0.390113
0.381105
0.373216
0.51926
0.507983
0.50402
0.501507
0.497387
0.491401
0.483856
0.475166
0.465723
0.455838
0.445745
0.435615
0.425568
0.415693
0.406058
0.396697
0.387578
0.378661
0.370243
0.363122
0.484409
0.474213
0.471854
0.471297
0.469205
0.465144
0.459365
0.452274
0.444276
0.4357
0.426797
0.417753
0.408703
0.399748
0.390966
0.382401
0.374015
0.365761
0.358
0.351734
0.446124
0.437105
0.436477
0.438041
0.438157
0.4362
0.432353
0.427013
0.420598
0.413456
0.405858
0.398006
0.39005
0.382104
0.374261
0.366573
0.358998
0.351477
0.344438
0.339107
0.40472
0.396958
0.398165
0.401987
0.404466
0.404768
0.402999
0.399545
0.394836
0.38924
0.383048
0.376481
0.369706
0.36285
0.356022
0.349285
0.342595
0.335874
0.329614
0.325291
0.360536
0.354099
0.357219
0.363406
0.368374
0.371066
0.371501
0.370048
0.36715
0.363195
0.358496
0.353294
0.347773
0.342077
0.336329
0.330609
0.324869
0.319012
0.313583
0.310334
0.313941
0.308883
0.313964
0.32259
0.330143
0.335329
0.338068
0.338711
0.337709
0.335473
0.332337
0.328563
0.324354
0.319872
0.315258
0.310608
0.305874
0.300937
0.296386
0.294276
0.265325
0.261683
0.268748
0.279851
0.290053
0.297806
0.302925
0.305733
0.306692
0.306232
0.30471
0.302409
0.299552
0.29632
0.292874
0.289329
0.285645
0.281673
0.278039
0.277129
0.2151
0.212899
0.221937
0.235521
0.2484
0.258763
0.266309
0.27133
0.27429
0.275641
0.275761
0.274957
0.27347
0.271502
0.269235
0.26681
0.264194
0.261213
0.25852
0.258873
0.163697
0.162945
0.173916
0.189949
0.205496
0.21848
0.228472
0.235725
0.240705
0.243879
0.245647
0.246336
0.24621
0.245489
0.244379
0.243046
0.241474
0.239466
0.23771
0.2394
0.11156
0.112252
0.125088
0.143497
0.161668
0.177251
0.18968
0.19916
0.206152
0.211137
0.214534
0.216691
0.217888
0.218366
0.218355
0.218051
0.21745
0.216329
0.215435
0.21852
0.0591473
0.0612624
0.0758649
0.0965435
0.117257
0.135385
0.150214
0.16189
0.170864
0.177628
0.182616
0.186189
0.188644
0.190233
0.191204
0.191779
0.19194
0.191394
0.191049
0.19563
0.00692074
0.0104266
0.0266704
0.0494751
0.0726155
0.0932023
0.110365
0.124185
0.135093
0.143584
0.150103
0.15502
0.158638
0.161209
0.162995
0.164259
0.164988
0.16471
0.164321
0.170014
-0.0446544
-0.0398032
-0.0220684
0.00268598
0.0281027
0.0510333
0.0704426
0.0863342
0.0991151
0.109276
0.117269
0.123471
0.128183
0.131649
0.134113
0.13585
0.136834
0.136084
0.13334
0.13688
-0.095116
-0.0889769
-0.0699236
-0.0434274
-0.0159165
0.0092148
0.0307607
0.0486383
0.0632203
0.0749887
0.0843931
0.0918071
0.0975182
0.101731
0.104605
0.10629
0.106687
0.104948
0.10037
0.0957558
-0.144021
-0.136658
-0.116476
-0.088473
-0.0590796
-0.0319161
-0.00836241
0.0114031
0.027712
0.0410335
0.0518161
0.0604355
0.0671819
0.0722609
0.0758202
0.077991
0.0787999
0.0778906
0.0747986
0.0705403
-0.190935
-0.182424
-0.161319
-0.132068
-0.101031
-0.0720287
-0.0466145
-0.0250692
-0.0071086
0.00772337
0.0198791
0.0297474
0.0376414
0.0438012
0.0484114
0.0516349
0.0536127
0.0543848
0.0538425
0.0517095
-0.235453
-0.225874
-0.204064
-0.173846
-0.141432
-0.110808
-0.0836999
-0.0604981
-0.0409713
-0.0246802
-0.0111681
-3.08852e-05
0.00906824
0.016402
0.0221893
0.0266143
0.0298587
0.032138
0.033573
0.0335115
-0.277201
-0.266643
-0.24435
-0.213463
-0.179961
-0.147959
-0.119348
-0.0946338
-0.073647
-0.0559714
-0.0411514
-0.0287721
-0.0184797
-0.00997975
-0.00303033
0.00256868
0.00701567
0.0105813
0.0134513
0.0148922
-0.315847
-0.304403
-0.281852
-0.250604
-0.216326
-0.183215
-0.153316
-0.127257
-0.10494
-0.0859798
-0.0699293
-0.0563684
-0.0449327
-0.0353137
-0.0272546
-0.0205429
-0.0149678
-0.010242
-0.0062022
-0.00370508
-0.351108
-0.33887
-0.316284
-0.284991
-0.250266
-0.216337
-0.18539
-0.158177
-0.134681
-0.114559
-0.097379
-0.0827219
-0.070218
-0.0595511
-0.0504563
-0.0427145
-0.0361084
-0.0303407
-0.0252695
-0.021884
-0.382752
-0.369817
-0.347406
-0.316383
-0.28155
-0.247115
-0.215383
-0.187229
-0.162728
-0.141587
-0.123399
-0.107752
-0.0942779
-0.0826565
-0.0726197
-0.0639468
-0.0564196
-0.0497341
-0.0437454
-0.039516
-0.410605
-0.397068
-0.37503
-0.344581
-0.309988
-0.275374
-0.243137
-0.214276
-0.188962
-0.166965
-0.147908
-0.131396
-0.117066
-0.104599
-0.0937272
-0.0842297
-0.0758913
-0.0684082
-0.0616202
-0.0566011
-0.434557
-0.420514
-0.399024
-0.369437
-0.335426
-0.300969
-0.268524
-0.239206
-0.213289
-0.190612
-0.170841
-0.153602
-0.138541
-0.125348
-0.113755
-0.103544
-0.0945041
-0.0863381
-0.0788698
-0.073148
-0.454562
-0.440105
-0.419315
-0.390851
-0.357753
-0.323791
-0.291445
-0.261933
-0.235634
-0.212468
-0.192147
-0.174327
-0.158671
-0.144876
-0.132681
-0.121869
-0.112237
-0.103498
-0.0954622
-0.089133
-0.470639
-0.45586
-0.435891
-0.408776
-0.376901
-0.343765
-0.31183
-0.282396
-0.255948
-0.232489
-0.21179
-0.193543
-0.17743
-0.163162
-0.150483
-0.139184
-0.129068
-0.119862
-0.111361
-0.104512
-0.482872
-0.467862
-0.448804
-0.423224
-0.392848
-0.360855
-0.329636
-0.300556
-0.274196
-0.250649
-0.22975
-0.211231
-0.194802
-0.180189
-0.167148
-0.155473
-0.144978
-0.135403
-0.126534
-0.119247
-0.491405
-0.476256
-0.458167
-0.434258
-0.405618
-0.375059
-0.344854
-0.316401
-0.290369
-0.266941
-0.24602
-0.227387
-0.210783
-0.195954
-0.182667
-0.170725
-0.159952
-0.150105
-0.140957
-0.13331
-0.496442
-0.481245
-0.464154
-0.442001
-0.415285
-0.386414
-0.357502
-0.329941
-0.304474
-0.281371
-0.260608
-0.242018
-0.225379
-0.210458
-0.197041
-0.18494
-0.173987
-0.163958
-0.154621
-0.146692
-0.498237
-0.483086
-0.466994
-0.44663
-0.421968
-0.394999
-0.367627
-0.341209
-0.316538
-0.293963
-0.273534
-0.255142
-0.238605
-0.223717
-0.210282
-0.198124
-0.187087
-0.176963
-0.167521
-0.15939
-0.49709
-0.482078
-0.466963
-0.448371
-0.425834
-0.400926
-0.37531
-0.350262
-0.326606
-0.304755
-0.284834
-0.266791
-0.250489
-0.235754
-0.22241
-0.210295
-0.199265
-0.189132
-0.179666
-0.17141
-0.493332
-0.478558
-0.46438
-0.447497
-0.427095
-0.404351
-0.380658
-0.357181
-0.334739
-0.313799
-0.294552
-0.277005
-0.261067
-0.246601
-0.233453
-0.221477
-0.210542
-0.20048
-0.19107
-0.182766
-0.487321
-0.472883
-0.459593
-0.44432
-0.426004
-0.405462
-0.383809
-0.362066
-0.341017
-0.321161
-0.302744
-0.285834
-0.270385
-0.256298
-0.243446
-0.231701
-0.220946
-0.211034
-0.201752
-0.193476
-0.479428
-0.465425
-0.452971
-0.439178
-0.422846
-0.404484
-0.384933
-0.365042
-0.345535
-0.326916
-0.309477
-0.293334
-0.278493
-0.264891
-0.252431
-0.241005
-0.230511
-0.220823
-0.211741
-0.203567
-0.470026
-0.456554
-0.444884
-0.432427
-0.417935
-0.401672
-0.384223
-0.366256
-0.348402
-0.331152
-0.314821
-0.29957
-0.285448
-0.272432
-0.260454
-0.249431
-0.239275
-0.229881
-0.221069
-0.213067
-0.459481
-0.446631
-0.4357
-0.424429
-0.411602
-0.397305
-0.381901
-0.365874
-0.349746
-0.333966
-0.318856
-0.304608
-0.291309
-0.278972
-0.267564
-0.257022
-0.247279
-0.238247
-0.229767
-0.222009
-0.448139
-0.435994
-0.425767
-0.415536
-0.404183
-0.39168
-0.378208
-0.364085
-0.349709
-0.335467
-0.321666
-0.308516
-0.296134
-0.284566
-0.273807
-0.263822
-0.254561
-0.245956
-0.237872
-0.230425
-0.43632
-0.424952
-0.415403
-0.406082
-0.396009
-0.385099
-0.373404
-0.361095
-0.348448
-0.335772
-0.323343
-0.311368
-0.299984
-0.289264
-0.279231
-0.269873
-0.26116
-0.253045
-0.245413
-0.238341
-0.424309
-0.413777
-0.40489
-0.396368
-0.387389
-0.377862
-0.367756
-0.357126
-0.346137
-0.335014
-0.323983
-0.313237
-0.302917
-0.293115
-0.283877
-0.275212
-0.26711
-0.259541
-0.252417
-0.245782
-0.412356
-0.402703
-0.394469
-0.386654
-0.378605
-0.370253
-0.361529
-0.352408
-0.342963
-0.333335
-0.323694
-0.314201
-0.304992
-0.296164
-0.28778
-0.279869
-0.272436
-0.26547
-0.258904
-0.252759
-0.400669
-0.391919
-0.384334
-0.377158
-0.369899
-0.362531
-0.354978
-0.347175
-0.339123
-0.330892
-0.322591
-0.314344
-0.306267
-0.298454
-0.290974
-0.283869
-0.277158
-0.270846
-0.264886
-0.25928
-0.389415
-0.381575
-0.374635
-0.368048
-0.361468
-0.354917
-0.348339
-0.341653
-0.334819
-0.327851
-0.320804
-0.313761
-0.306808
-0.300027
-0.293485
-0.287229
-0.281288
-0.275677
-0.270367
-0.265339
-0.378721
-0.37178
-0.365481
-0.359448
-0.353462
-0.347592
-0.341813
-0.336051
-0.330249
-0.324386
-0.318474
-0.312555
-0.306686
-0.300929
-0.29534
-0.289964
-0.284832
-0.279965
-0.275346
-0.270929
-0.368679
-0.362611
-0.356943
-0.351439
-0.345986
-0.340691
-0.335564
-0.330553
-0.325602
-0.320672
-0.315749
-0.310843
-0.305985
-0.301214
-0.296569
-0.292087
-0.287794
-0.283709
-0.279824
-0.276047
-0.359348
-0.35411
-0.349057
-0.344065
-0.339102
-0.334305
-0.329716
-0.325309
-0.321041
-0.316874
-0.312781
-0.308754
-0.304803
-0.300946
-0.297209
-0.293614
-0.290178
-0.286911
-0.283808
-0.280708
-0.350756
-0.346295
-0.341836
-0.33734
-0.332837
-0.328485
-0.324348
-0.320429
-0.316704
-0.313143
-0.30972
-0.306422
-0.303247
-0.300204
-0.297308
-0.294569
-0.291994
-0.289576
-0.287315
-0.284953
-0.34291
-0.339164
-0.33527
-0.331252
-0.327189
-0.323245
-0.319504
-0.315988
-0.312692
-0.309602
-0.306701
-0.303978
-0.301435
-0.29908
-0.296926
-0.294983
-0.29325
-0.291711
-0.290364
-0.288863
-0.335794
-0.332696
-0.329332
-0.325776
-0.322135
-0.318576
-0.315192
-0.31202
-0.309071
-0.306345
-0.303835
-0.301544
-0.299482
-0.297668
-0.296129
-0.294886
-0.29395
-0.293305
-0.292957
-0.292523
-0.329378
-0.326858
-0.323987
-0.32087
-0.317636
-0.314446
-0.311395
-0.30853
-0.305872
-0.303429
-0.301209
-0.299223
-0.297496
-0.296068
-0.294987
-0.294308
-0.294078
-0.294312
-0.295038
-0.295999
-0.323618
-0.321606
-0.319187
-0.316486
-0.313643
-0.310809
-0.308076
-0.305495
-0.303093
-0.300882
-0.298875
-0.297092
-0.29557
-0.294367
-0.293566
-0.293269
-0.293587
-0.294614
-0.296434
-0.299201
-0.31846
-0.316891
-0.314883
-0.31257
-0.310099
-0.307608
-0.305183
-0.302874
-0.300708
-0.298697
-0.296853
-0.295198
-0.293773
-0.292647
-0.291932
-0.291782
-0.292399
-0.294006
-0.296835
-0.301888
-0.313845
-0.31266
-0.31102
-0.309067
-0.306947
-0.304782
-0.302655
-0.300609
-0.298668
-0.29684
-0.295133
-0.29356
-0.292152
-0.290977
-0.290153
-0.289871
-0.29042
-0.29218
-0.295686
-0.303295
-0.309712
-0.308857
-0.307545
-0.305921
-0.304126
-0.30227
-0.300425
-0.298632
-0.296909
-0.295258
-0.293676
-0.292161
-0.290727
-0.289414
-0.288316
-0.287616
-0.287633
-0.288856
-0.292355
-0.302569
-0.306003
-0.30543
-0.304408
-0.30308
-0.301581
-0.30001
-0.29843
-0.296876
-0.295361
-0.29388
-0.292419
-0.290959
-0.289483
-0.287989
-0.286505
-0.285129
-0.284074
-0.283694
-0.285364
-0.295821
-0.302661
-0.302331
-0.301563
-0.300497
-0.299264
-0.29795
-0.296611
-0.295276
-0.293954
-0.292634
-0.291292
-0.289891
-0.288382
-0.286705
-0.284777
-0.282497
-0.279707
-0.275908
-0.269836
-0.262615
-0.299638
-0.299517
-0.298969
-0.298134
-0.297135
-0.296049
-0.294923
-0.293784
-0.292636
-0.291465
-0.290243
-0.288925
-0.287449
-0.285736
-0.283673
-0.281127
-0.27793
-0.273698
-0.267574
-0.261176
-0.296894
-0.296952
-0.296594
-0.295958
-0.295163
-0.294275
-0.293335
-0.292367
-0.291371
-0.290336
-0.289231
-0.288015
-0.286632
-0.285008
-0.283058
-0.280689
-0.277814
-0.274213
-0.269468
-0.265348
-0.294394
-0.294607
-0.294412
-0.293947
-0.293328
-0.29261
-0.291831
-0.291009
-0.290146
-0.28923
-0.288235
-0.287124
-0.285852
-0.284361
-0.282591
-0.280489
-0.278013
-0.275024
-0.271346
-0.268705
-0.292114
-0.292459
-0.292403
-0.292085
-0.291617
-0.291046
-0.290405
-0.289711
-0.288964
-0.288155
-0.287263
-0.286257
-0.285104
-0.283764
-0.282198
-0.280387
-0.278325
-0.275933
-0.27318
-0.271567
-0.290031
-0.29049
-0.290553
-0.290361
-0.290023
-0.28958
-0.289061
-0.28848
-0.28784
-0.287132
-0.286341
-0.285446
-0.284422
-0.283245
-0.2819
-0.280389
-0.278733
-0.276899
-0.274919
-0.274023
-0.28813
-0.288684
-0.288849
-0.288767
-0.288543
-0.288213
-0.287803
-0.287327
-0.286788
-0.286181
-0.285496
-0.284718
-0.283833
-0.282831
-0.281711
-0.280491
-0.279205
-0.277844
-0.276461
-0.276039
-0.286396
-0.287032
-0.287285
-0.287297
-0.287173
-0.286945
-0.286636
-0.28626
-0.285821
-0.285317
-0.284742
-0.284088
-0.28335
-0.282527
-0.281626
-0.280675
-0.279711
-0.278735
-0.277789
-0.277669
-0.284818
-0.285524
-0.285852
-0.285947
-0.285913
-0.285778
-0.285563
-0.285282
-0.284942
-0.284542
-0.284081
-0.283555
-0.282966
-0.282317
-0.281623
-0.280911
-0.280219
-0.279546
-0.278915
-0.278985
-0.283384
-0.284151
-0.284545
-0.284714
-0.28476
-0.28471
-0.284583
-0.284394
-0.284149
-0.283853
-0.283504
-0.283106
-0.28266
-0.282176
-0.281668
-0.281163
-0.280694
-0.280255
-0.279853
-0.280045
-0.282088
-0.282908
-0.283359
-0.283593
-0.283711
-0.283738
-0.283693
-0.28359
-0.283437
-0.283239
-0.282999
-0.28272
-0.282408
-0.282072
-0.281727
-0.281396
-0.281108
-0.280849
-0.280615
-0.28089
-0.280922
-0.28179
-0.282292
-0.282583