1.275 	2.15223e-18 	-2.76991e-20 	-0.137228 	0.0089944 	-2.5328e-22
1.825 	2.15223e-18 	-1.39322e-20 	-0.264889 	0.00128888 	3.43442e-21
2.375 	2.15223e-18 	-2.66896e-23 	-0.322529 	-0.0263062 	-1.60494e-21
