/*--------------------------------*- C++ -*----------------------------------*\
  =========                 |
  \\      /  F ield         | OpenFOAM: The Open Source CFD Toolbox
   \\    /   O peration     | Website:  https://openfoam.org
    \\  /    A nd           | Version:  6.0
     \\/     M anipulation  |
\*---------------------------------------------------------------------------*/
FoamFile
{
    version     2.0;
    format      ascii;
    class       surfaceScalarField;
    location    "15.7";
    object      phi;
}
// * * * * * * * * * * * * * * * * * * * * * * * * * * * * * * * * * * * * * //

dimensions      [0 3 -1 0 0 0 0];

internalField   nonuniform List<scalar> 
15760
(
-3.18251e-06
3.07142e-06
1.11091e-07
-1.12013e-05
7.72521e-06
2.93536e-07
-2.28838e-05
1.12379e-05
4.44654e-07
-3.72971e-05
1.38441e-05
5.69213e-07
-5.37078e-05
1.57393e-05
6.71427e-07
-7.1554e-05
1.70909e-05
7.55379e-07
-9.04208e-05
1.80419e-05
8.24892e-07
-0.000110019
1.87147e-05
8.83416e-07
-0.000130167
1.92139e-05
9.33953e-07
-0.000150775
1.9629e-05
9.79026e-07
-0.000171832
2.0036e-05
1.02067e-06
-0.000193391
2.04988e-05
1.06048e-06
-0.00021556
2.107e-05
1.09961e-06
-0.00023849
2.17908e-05
1.13889e-06
-0.000262361
2.26918e-05
1.17882e-06
-0.000287373
2.37929e-05
1.21962e-06
-0.000313738
2.51033e-05
1.26131e-06
-0.000341664
2.66219e-05
1.30366e-06
-0.000371351
2.83408e-05
1.34636e-06
3.02536e-05
1.38904e-06
-0.000402993
-3.15561e-06
6.22704e-06
-1.11079e-05
1.56775e-05
-2.26889e-05
2.28189e-05
-3.69656e-05
2.81208e-05
-5.32018e-05
3.19755e-05
-7.08308e-05
3.47199e-05
-8.94311e-05
3.66422e-05
-0.000108705
3.79891e-05
-0.000128463
3.89718e-05
-0.000148606
3.97714e-05
-0.000169112
4.05421e-05
-0.000190027
4.14141e-05
-0.000211452
4.24949e-05
-0.000233531
4.38701e-05
-0.000256443
4.56038e-05
-0.000280389
4.77386e-05
-0.000305581
5.02957e-05
-0.000332234
5.3275e-05
-0.000360556
5.6662e-05
6.04437e-05
-0.000390746
-3.10204e-06
9.32907e-06
-1.09214e-05
2.34968e-05
-2.22993e-05
3.41969e-05
-3.63033e-05
4.21247e-05
-5.21923e-05
4.78645e-05
-6.93907e-05
5.19182e-05
-8.74643e-05
5.47158e-05
-0.000106101
5.66254e-05
-0.000125091
5.79627e-05
-0.000144319
5.89992e-05
-0.000163744
5.99671e-05
-0.000183394
6.10642e-05
-0.000203355
6.24558e-05
-0.000223761
6.42757e-05
-0.000244783
6.66264e-05
-0.000266624
6.95791e-05
-0.000289501
7.31728e-05
-0.00031364
7.74135e-05
-0.000339261
8.22839e-05
8.77649e-05
-0.000366582
-3.02613e-06
1.23552e-05
-1.06551e-05
3.11258e-05
-2.17408e-05
4.52826e-05
-3.53518e-05
5.57357e-05
-5.07407e-05
6.32534e-05
-6.73195e-05
6.8497e-05
-8.46366e-05
7.20329e-05
-0.000102358
7.43463e-05
-0.000120249
7.5854e-05
-0.000138165
7.69151e-05
-0.000156037
7.78397e-05
-0.000173867
7.88943e-05
-0.000191717
8.03054e-05
-0.000209702
8.22607e-05
-0.000227984
8.49089e-05
-0.000246764
8.83585e-05
-0.000266267
9.26756e-05
-0.000286735
9.78819e-05
-0.000308415
0.000103964
0.0001109
-0.00033155
-2.93365e-06
1.52889e-05
-1.03266e-05
3.85188e-05
-2.10475e-05
5.60034e-05
-3.4166e-05
6.88543e-05
-4.8928e-05
7.80155e-05
-6.47311e-05
8.43001e-05
-8.11029e-05
8.84046e-05
-9.76817e-05
9.09251e-05
-0.000114202
9.2374e-05
-0.000130481
9.31948e-05
-0.000146415
9.37729e-05
-0.000161965
9.44444e-05
-0.00017716
9.55005e-05
-0.000192089
9.71898e-05
-0.000206897
9.97169e-05
-0.000221779
0.00010324
-0.00023697
0.000107867
-0.000252737
0.000113649
-0.000269362
0.000120589
0.00012867
-0.000287133
-2.83092e-06
1.81198e-05
-9.95546e-06
4.56433e-05
-2.02564e-05
6.63044e-05
-3.28058e-05
8.14036e-05
-4.68427e-05
9.20524e-05
-6.17503e-05
9.92077e-05
-7.70337e-05
0.000103688
-9.23014e-05
0.000106193
-0.00010725
0.000107323
-0.000121656
0.0001076
-0.000135365
0.000107482
-0.000148292
0.000107372
-0.000160421
0.000107629
-0.0001718
0.000108569
-0.000182548
0.000110465
-0.000192848
0.00011354
-0.000202945
0.000117964
-0.000213134
0.000123839
-0.00022375
0.000131206
0.000140064
-0.000235145
-2.72389e-06
2.08437e-05
-9.5594e-06
5.24788e-05
-1.94017e-05
7.61467e-05
-3.13255e-05
9.33275e-05
-4.45651e-05
0.000105292
-5.84909e-05
0.000113133
-7.25868e-05
0.000117784
-8.6431e-05
0.000120037
-9.96814e-05
0.000120573
-0.000112065
0.000119984
-0.000123375
0.000118791
-0.000133466
0.000117463
-0.000142263
0.000116425
-0.000149761
0.000116068
-0.000156037
0.000116741
-0.000161252
0.000118755
-0.000165653
0.000122364
-0.000169568
0.000127754
-0.000173399
0.000135036
0.000144257
-0.000177592
-2.61713e-06
2.34608e-05
-9.15185e-06
5.90135e-05
-1.85081e-05
8.55029e-05
-2.9764e-05
0.000104583
-4.21517e-05
0.00011768
-5.50329e-05
0.000126015
-6.78743e-05
0.000130625
-8.02272e-05
0.00013239
-9.17116e-05
0.000132058
-0.000102006
0.000130279
-0.000110843
0.000127628
-0.000118012
0.000124631
-0.000123362
0.000121776
-0.000126821
0.000119526
-0.000128403
0.000118323
-0.000128226
0.000118578
-0.000126528
0.000120666
-0.000123668
0.000124895
-0.000120128
0.000131496
0.000140613
-0.000116484
-2.5131e-06
2.59739e-05
-8.73903e-06
6.52395e-05
-1.75854e-05
9.43493e-05
-2.81343e-05
0.000115132
-3.96196e-05
0.000129165
-5.13997e-05
0.000137795
-6.29309e-05
0.000142157
-7.37444e-05
0.000143203
-8.34286e-05
0.000141742
-9.16169e-05
0.000138467
-9.7983e-05
0.000133995
-0.000102243
0.000128891
-0.000104164
0.000123698
-0.000103584
0.000118946
-0.000100432
0.00011517
-9.4759e-05
0.000112906
-8.6767e-05
0.000112674
-7.68337e-05
0.000114961
-6.55279e-05
0.00012019
0.000128682
-5.35968e-05
-2.41156e-06
2.83854e-05
-8.31832e-06
7.11462e-05
-1.66252e-05
0.000102656
-2.64178e-05
0.000124925
-3.69353e-05
0.000139682
-4.75395e-05
0.000148399
-5.76849e-05
0.000152302
-6.6893e-05
0.000152412
-7.47309e-05
0.00014958
-8.0797e-05
0.000144533
-8.47131e-05
0.000137911
-8.61252e-05
0.000130303
-8.47127e-05
0.000122285
-8.02095e-05
0.000114443
-7.24359e-05
0.000107397
-6.13415e-05
0.000101811
-4.70566e-05
9.8389e-05
-2.9947e-05
9.78516e-05
-1.06638e-05
0.000100907
0.000108182
9.8359e-06
-2.30961e-06
3.06951e-05
-7.87789e-06
7.67145e-05
-1.55991e-05
0.000110377
-2.45604e-05
0.000133886
-3.40085e-05
0.000149131
-4.33144e-05
0.000157705
-5.19401e-05
0.000160928
-5.9409e-05
0.00015988
-6.52814e-05
0.000155452
-6.91365e-05
0.000148388
-7.056e-05
0.000139334
-6.91403e-05
0.000128884
-6.4475e-05
0.00011762
-5.6191e-05
0.000106159
-4.39803e-05
9.51862e-05
-2.76569e-05
8.54877e-05
-7.23251e-06
7.79646e-05
1.69891e-05
7.363e-05
4.43035e-05
7.35928e-05
7.89706e-05
7.3515e-05
-2.20209e-06
3.28971e-05
-7.39792e-06
8.19104e-05
-1.44611e-05
0.000117441
-2.24755e-05
0.000141901
-3.06946e-05
0.00015735
-3.85016e-05
0.000165512
-4.53725e-05
0.000167799
-5.08437e-05
0.000165352
-5.44845e-05
0.000159093
-5.58746e-05
0.000149778
-5.45867e-05
0.000138046
-5.01767e-05
0.000124474
-4.2183e-05
0.000109626
-3.01393e-05
9.41152e-05
-1.36084e-05
7.86554e-05
7.75524e-06
6.4124e-05
3.4108e-05
5.16118e-05
6.52768e-05
4.24613e-05
0.000100567
3.83021e-05
4.09935e-05
0.000138545
-2.08249e-06
3.49796e-05
-6.85322e-06
8.66811e-05
-1.31524e-05
0.00012374
-2.00518e-05
0.0001488
-2.68057e-05
0.000164104
-3.2807e-05
0.000171513
-3.75471e-05
0.000172539
-4.05819e-05
0.000168386
-4.15015e-05
0.000160013
-3.99055e-05
0.000148182
-3.53815e-05
0.000133522
-2.74884e-05
0.000116581
-1.57454e-05
9.78833e-05
3.66504e-07
7.80033e-05
2.1384e-05
5.76378e-05
4.78066e-05
3.77014e-05
7.99901e-05
1.94283e-05
0.000117968
4.48353e-06
0.00016116
-4.88965e-06
-5.79174e-06
0.000207945
-1.94414e-06
3.69238e-05
-6.21681e-06
9.09538e-05
-1.16087e-05
0.000129132
-1.71649e-05
0.000154356
-2.21285e-05
0.000169067
-2.5892e-05
0.000175277
-2.79552e-05
0.000174602
-2.789e-05
0.000168321
-2.53108e-05
0.000157433
-1.98494e-05
0.000142721
-1.11328e-05
0.000124806
1.23851e-06
0.000104209
1.77092e-05
8.14125e-05
3.87835e-05
5.6929e-05
6.50255e-05
3.13958e-05
9.70299e-05
5.69703e-06
0.000135333
-1.88749e-05
0.000180226
-4.0409e-05
0.000231374
-5.6038e-05
-6.15374e-05
0.00028712
-1.78133e-06
3.87051e-05
-5.46347e-06
9.46359e-05
-9.76687e-06
0.000133435
-1.36903e-05
0.00015828
-1.64463e-05
0.000171823
-1.74079e-05
0.000176238
-1.60652e-05
0.000173259
-1.19905e-05
0.000164246
-4.81135e-06
0.000150254
5.8103e-06
0.000132099
2.01976e-05
0.000110418
3.86779e-05
8.57289e-05
6.16041e-05
5.84864e-05
8.93794e-05
2.91537e-05
0.000122481
-1.70627e-06
0.000161472
-3.32933e-05
0.000206958
-6.43614e-05
0.000259455
-9.29062e-05
0.000318994
-0.000115577
-0.00012668
0.000384137
-1.59002e-06
4.02951e-05
-4.57198e-06
9.76179e-05
-7.57097e-06
0.000136434
-9.5143e-06
0.000160223
-9.55777e-06
0.000171867
-7.0277e-06
0.000173708
-1.37534e-06
0.000167607
7.85596e-06
0.000155015
2.10529e-05
0.000137057
3.85466e-05
0.000114606
6.06222e-05
8.83428e-05
8.75285e-05
5.88225e-05
0.000119491
2.65238e-05
0.000156734
-8.08936e-06
0.000199516
-4.44882e-05
0.000248175
-8.19521e-05
0.000303163
-0.00011935
0.000365024
-0.000154766
0.000434141
-0.000184694
-0.000202145
0.000509606
-1.36771e-06
4.16628e-05
-3.52513e-06
9.97753e-05
-4.97252e-06
0.000137881
-4.53649e-06
0.000159787
-1.28528e-06
0.000168615
5.53553e-06
0.000166887
1.65506e-05
0.000156592
3.22857e-05
0.00013928
5.31844e-05
0.000116159
7.9613e-05
8.81769e-05
0.000111858
5.60981e-05
0.000150117
2.05631e-05
0.000194496
-1.78551e-05
0.000245006
-5.85993e-05
0.000301586
-0.000101068
0.000364152
-0.000144519
0.000432685
-0.000187882
0.00050733
-0.000229412
0.000588459
-0.000265823
-0.00028962
0.000675934
-1.11242e-06
4.27752e-05
-2.30678e-06
0.00010097
-1.92581e-06
0.0001375
1.33598e-06
0.000156525
8.53124e-06
0.00016142
2.05317e-05
0.000154887
3.80782e-05
0.000139045
6.18103e-05
0.000115548
9.22773e-05
8.56916e-05
0.000129935
5.05196e-05
0.000175127
1.09053e-05
0.000228065
-3.23749e-05
0.00028879
-7.85797e-05
0.00035714
-0.00012695
0.000432727
-0.000176654
0.000514933
-0.000226725
0.000602974
-0.000275924
0.000696041
-0.000322479
0.000793603
-0.000363384
-0.00039242
0.000896403
-8.20743e-07
4.3596e-05
-8.96479e-07
0.000101045
1.62193e-06
0.000134982
8.20367e-06
0.000149943
2.00549e-05
0.000149569
3.81993e-05
0.000136743
6.35309e-05
0.000113714
9.68423e-05
8.22364e-05
0.000138832
4.37023e-05
0.000190092
-7.41151e-07
0.00025109
-5.00922e-05
0.000322125
-0.00010341
0.000403284
-0.000159739
0.000494375
-0.000218041
0.000594843
-0.000277122
0.000703665
-0.000335547
0.000819255
-0.000391514
0.000939373
-0.000442597
0.00106134
-0.000485349
-0.000517059
0.00118598
-4.8567e-07
4.40817e-05
7.36937e-07
9.98228e-05
5.74261e-06
0.000129976
1.61938e-05
0.000139492
3.34792e-05
0.000132284
5.88022e-05
0.00011142
9.32355e-05
7.92805e-05
0.000137747
3.77253e-05
0.000193201
-1.17517e-05
0.000260348
-6.78889e-05
0.000339804
-0.000129548
0.00043202
-0.000195625
0.000537255
-0.000264974
0.000655543
-0.000336329
0.000786644
-0.000408224
0.000929958
-0.000478861
0.0010843
-0.000545856
0.00124714
-0.000605441
0.00141181
-0.000650016
-0.000662762
0.00155751
-9.54272e-08
4.41771e-05
2.63949e-06
9.70879e-05
1.05358e-05
0.00012208
2.54747e-05
0.000124553
4.90492e-05
0.000108709
8.26584e-05
7.78105e-05
0.000127558
3.43807e-05
0.00018488
-1.95967e-05
0.000255627
-8.24982e-05
0.000340654
-0.000152916
0.000440653
-0.000229548
0.000556146
-0.000311119
0.000687501
-0.000396328
0.000834995
-0.000483822
0.00099896
-0.000572189
0.00118007
-0.00065997
0.00137988
-0.000745666
0.0016021
-0.000827659
0.0018565
-0.000904413
-0.000971413
0.00216515
3.70043e-07
4.3807e-05
4.8785e-06
9.25794e-05
1.6137e-05
0.000110822
3.62646e-05
0.000104426
6.70706e-05
7.7903e-05
0.000110147
3.47336e-05
0.000166911
-2.23831e-05
0.000238603
-9.12889e-05
0.000326269
-0.000170164
0.000430728
-0.000257375
0.000552545
-0.000351365
0.000692025
-0.000450598
0.000849233
-0.000553536
0.00102406
-0.000658653
0.00121636
-0.000764485
0.00142611
-0.000869722
0.00165376
-0.000973317
0.00190072
-0.00107462
0.00216968
-0.00117338
-0.00126179
0.00246006
9.34455e-07
4.28726e-05
7.53352e-06
8.59803e-05
2.27043e-05
9.56507e-05
4.88128e-05
7.83173e-05
8.78814e-05
3.88344e-05
0.000141671
-1.90557e-05
0.000211698
-9.24099e-05
0.000299212
-0.000178803
0.000405148
-0.0002761
0.000530076
-0.000382303
0.000674165
-0.000495454
0.000837168
-0.000613602
0.00101845
-0.000734817
0.00121704
-0.000857242
0.00143172
-0.000979167
0.00166113
-0.00109914
0.00190387
-0.00121605
0.0021585
-0.00132925
0.00242347
-0.00143834
-0.00153513
0.00269681
1.62584e-06
4.12467e-05
1.06937e-05
7.69124e-05
3.04077e-05
7.59368e-05
6.33751e-05
4.53498e-05
0.000111807
-9.59753e-06
0.000177574
-8.48229e-05
0.000262192
-0.000177027
0.000366761
-0.000283372
0.000491894
-0.000401234
0.000637653
-0.000528062
0.000803509
-0.00066131
0.000988354
-0.000798446
0.00119055
-0.00093701
0.001408
-0.0010747
0.0016383
-0.00120946
0.00187878
-0.00133962
0.00212662
-0.00146389
0.00237885
-0.00158148
0.00263244
-0.00169192
-0.00178858
0.00288588
2.47273e-06
3.8774e-05
1.44465e-05
6.49387e-05
3.94055e-05
5.09778e-05
8.01725e-05
4.58288e-06
0.000139091
-6.85165e-05
0.000218043
-0.000163775
0.000318385
-0.000277369
0.000440855
-0.000405842
0.000585479
-0.000545859
0.000751516
-0.000694099
0.000937453
-0.000847247
0.00114107
-0.00100206
0.00135955
-0.00115549
0.00158967
-0.00130481
0.00182791
-0.00144771
0.00207069
-0.00158239
0.00231442
-0.00170763
0.00255562
-0.00182268
0.00279103
-0.00192733
-0.00201704
0.0030195
3.50096e-06
3.52731e-05
1.88664e-05
4.95732e-05
4.98214e-05
2.00228e-05
9.93482e-05
-4.49439e-05
0.000169829
-0.000138997
0.000263001
-0.000256947
0.000379848
-0.000394216
0.000520475
-0.000546469
0.000684023
-0.000709407
0.000868657
-0.000878733
0.00107165
-0.00105023
0.00128952
-0.00121994
0.00151832
-0.00138429
0.00175383
-0.00154031
0.00199182
-0.0016857
0.00222828
-0.00181886
0.00245958
-0.00193892
0.00268251
-0.00204561
0.00289446
-0.00213928
-0.00221743
0.00309484
4.73102e-06
3.0542e-05
2.4006e-05
3.02982e-05
6.17229e-05
-1.7694e-05
0.000120931
-0.000104153
0.000203906
-0.000221971
0.00031203
-0.000365071
0.00044564
-0.000527827
0.0006039
-0.000704728
0.000784763
-0.00089027
0.000985068
-0.00107904
0.00120075
-0.00126591
0.00142713
-0.00144633
0.00165932
-0.00161648
0.00189249
-0.00177349
0.00212223
-0.00191543
0.0023447
-0.00204133
0.00255683
-0.00215104
0.0027563
-0.00224508
0.00294157
-0.00232455
-0.0023887
0.00311284
6.17622e-06
2.43658e-05
2.98885e-05
6.58588e-06
7.51068e-05
-6.29123e-05
0.000144811
-0.000173857
0.000240967
-0.000318127
0.000364335
-0.000488439
0.000514288
-0.00067778
0.000688732
-0.000879172
0.000884186
-0.00108572
0.00109604
-0.0012909
0.00131896
-0.00148883
0.00154732
-0.00167469
0.00177568
-0.00184485
0.00199918
-0.00199698
0.00221375
-0.00213
0.00241633
-0.00224392
0.00260487
-0.00233958
0.00277824
-0.00241846
0.00293616
-0.00248247
-0.00253224
0.0030797
7.8419e-06
1.65239e-05
3.65044e-05
-2.20767e-05
8.98901e-05
-0.000116298
0.000170722
-0.000254689
0.0002804
-0.000427805
0.000418742
-0.000626781
0.000583827
-0.000842865
0.000772033
-0.00106738
0.000978311
-0.001292
0.00119666
-0.00150925
0.00142074
-0.0017129
0.0016444
-0.00189835
0.00186225
-0.00206269
0.00206991
-0.00220464
0.00226425
-0.00232435
0.00244335
-0.00242302
0.00260641
-0.00250263
0.00275354
-0.0025656
0.00288559
-0.00261452
-0.002651
0.00300436
9.72509e-06
6.79882e-06
4.38091e-05
-5.61607e-05
0.000105906
-0.000178394
0.000198241
-0.000347025
0.00032134
-0.000550903
0.000473737
-0.000779178
0.000651916
-0.00102104
0.000850556
-0.00126602
0.00106307
-0.00150452
0.00128234
-0.00172852
0.00150145
-0.00193202
0.00171434
-0.00211124
0.0019162
-0.00226455
0.00210368
-0.00239213
0.00227491
-0.00249557
0.00242928
-0.00257738
0.00256722
-0.00264057
0.00268991
-0.00268829
0.002799
-0.00272361
-0.00274876
0.00289675
1.18144e-05
-5.01559e-06
5.17227e-05
-9.6069e-05
0.000122903
-0.000249575
0.000226795
-0.000450918
0.000362705
-0.000686813
0.000527552
-0.000944026
0.000716006
-0.0012095
0.000921033
-0.00147104
0.00113475
-0.00171823
0.00134935
-0.00194313
0.00155797
-0.00214063
0.00175516
-0.00230843
0.00193724
-0.00244663
0.0021022
-0.0025571
0.00224954
-0.00264291
0.00237989
-0.00270773
0.00249469
-0.00275537
0.00259586
-0.00278946
0.0026855
-0.00281325
-0.00282926
0.00276601
1.40898e-05
-1.91054e-05
6.01294e-05
-0.000142109
0.00014055
-0.000329995
0.000255676
-0.000566044
0.000403241
-0.000834378
0.000578275
-0.00111906
0.000773548
-0.00140477
0.000980491
-0.00167799
0.00119035
-0.00192809
0.00139522
-0.002148
0.00158885
-0.00233426
0.00176697
-0.00248655
0.00192728
-0.00260694
0.00206923
-0.00269904
0.00219356
-0.00276724
0.00230193
-0.0028161
0.00239645
-0.0028499
0.00247942
-0.00287243
0.00255307
-0.0028869
-0.00289587
0.00261967
1.65224e-05
-3.56279e-05
6.88791e-05
-0.000194465
0.000158444
-0.000419561
0.000284071
-0.000691671
0.000441597
-0.000991904
0.000623991
-0.00130145
0.000822214
-0.00160299
0.00102653
-0.00188231
0.00122788
-0.00212943
0.00141888
-0.002339
0.0015944
-0.00250979
0.00175164
-0.00264379
0.00188981
-0.00274511
0.00200966
-0.00281889
0.00211298
-0.00287056
0.00220207
-0.00290519
0.0022794
-0.00292723
0.00234734
-0.00294037
0.00240802
-0.00294758
-0.00295127
0.00246342
1.90741e-05
-5.4702e-05
7.77892e-05
-0.00025318
0.000176121
-0.000517893
0.0003111
-0.000826649
0.000476408
-0.00115721
0.000662932
-0.00148798
0.000860101
-0.00180016
0.00105754
-0.00207975
0.00124648
-0.00231837
0.00142061
-0.00251313
0.00157629
-0.00266546
0.00171226
-0.00277976
0.00182914
-0.00286198
0.00192875
-0.0029185
0.00201356
-0.00295537
0.00208622
-0.00297784
0.00214925
-0.00299026
0.00220488
-0.00299601
0.00225502
-0.00299771
-0.00299751
0.00230127
2.16975e-05
-7.63995e-05
8.66488e-05
-0.000318132
0.000193076
-0.00062432
0.000335863
-0.000969436
0.000506394
-0.00132774
0.000693618
-0.0016752
0.000885876
-0.00199242
0.00107275
-0.00226662
0.00124636
-0.00249198
0.00140183
-0.0026686
0.00153715
-0.00280078
0.00165255
-0.00289517
0.00174979
-0.00295923
0.00183145
-0.00300016
0.00190035
-0.00302427
0.00195921
-0.0030367
0.00201041
-0.00304146
0.00205593
-0.00304152
0.00209734
-0.00303912
-0.00303609
0.00213591
2.43373e-05
-0.000100737
9.52263e-05
-0.000389021
0.000208787
-0.000737881
0.000357502
-0.00111815
0.00053045
-0.00150069
0.000714963
-0.00185971
0.000898849
-0.00217631
0.00107225
-0.00244003
0.00122861
-0.00264834
0.00136471
-0.0028047
0.00148013
-0.0029162
0.00157637
-0.0029914
0.00165602
-0.00303888
0.00172209
-0.00306623
0.00177749
-0.00307967
0.0018248
-0.00308401
0.00186614
-0.00308279
0.00190317
-0.00307856
0.00193718
-0.00307312
-0.00306801
0.0019691
2.69312e-05
-0.000127668
0.000103279
-0.000465368
0.000222742
-0.000857344
0.000375249
-0.00127066
0.000547723
-0.00167317
0.000726335
-0.00203833
0.00089896
-0.00234893
0.00105682
-0.00259788
0.00119496
-0.00278648
0.00131187
-0.00292161
0.00140851
-0.00301284
0.00148737
-0.00307026
0.00155156
-0.00310308
0.00160423
-0.0031189
0.00164819
-0.00312363
0.00168576
-0.00312157
0.00171873
-0.00311577
0.00174847
-0.0031083
0.00177597
-0.00310062
-0.00309396
0.00180192
2.94125e-05
-0.000157081
0.000110563
-0.000546519
0.000234472
-0.000981253
0.00038848
-0.00142467
0.000557656
-0.00184234
0.00072756
-0.00220823
0.0008867
-0.00250807
0.00102776
-0.00273894
0.00114752
-0.00290625
0.00124602
-0.00302011
0.00132539
-0.00309221
0.00138877
-0.00313364
0.00143951
-0.00315382
0.00148069
-0.00316008
0.00151487
-0.00315782
0.00154407
-0.00315077
0.00156977
-0.00314147
0.00159304
-0.00313157
0.00161464
-0.00312221
-0.00311438
0.00163505
3.17127e-05
-0.000188793
0.000116849
-0.000631655
0.000243575
-0.00110798
0.000396747
-0.00157784
0.000560009
-0.0020056
0.000718883
-0.0023671
0.000862993
-0.00265218
0.000986709
-0.00286265
0.00108852
-0.00300806
0.00116981
-0.00310141
0.00123356
-0.00315595
0.00128327
-0.00318335
0.00132232
-0.00319286
0.00135357
-0.00319134
0.00137929
-0.00318354
0.00140115
-0.00317263
0.00142033
-0.00316065
0.00143768
-0.00314892
0.00145376
-0.00313829
-0.00312953
0.00146891
3.37646e-05
-0.000222558
0.000121931
-0.000719822
0.000249737
-0.00123578
0.000399796
-0.0017279
0.000554836
-0.00216064
0.00070089
-0.00251316
0.000829053
-0.00278034
0.000935463
-0.00296906
0.00102017
-0.00309277
0.00108563
-0.00316687
0.00113538
-0.0032057
0.00117306
-0.00322103
0.00120191
-0.00322171
0.00122448
-0.00321391
0.0012427
-0.00320176
0.00125794
-0.00318786
0.00127113
-0.00317384
0.00128292
-0.00316071
0.00129372
-0.00314909
-0.00313958
0.00130377
3.55092e-05
-0.000258067
0.000125645
-0.000809957
0.000252758
-0.0013629
0.00039758
-0.00187272
0.000542467
-0.00230553
0.000674436
-0.00264513
0.000786269
-0.00289218
0.000875832
-0.00305863
0.000944512
-0.00316145
0.000995567
-0.00321792
0.00103283
-0.00324297
0.0010599
-0.0032481
0.00107973
-0.00324154
0.00109457
-0.00322875
0.00110601
-0.00321319
0.00111513
-0.00319699
0.00112267
-0.00318138
0.00112911
-0.00316715
0.00113477
-0.00315475
-0.00314463
0.00113982
3.68846e-05
-0.000294952
0.000127847
-0.000900919
0.000252518
-0.00148757
0.000390191
-0.00201039
0.00052339
-0.00243873
0.000640481
-0.00276222
0.000736029
-0.00298773
0.000809488
-0.00313208
0.000863328
-0.00321529
0.000901341
-0.00325594
0.000927453
-0.00326908
0.000945067
-0.00326572
0.000956829
-0.0032533
0.000964638
-0.00323656
0.000969789
-0.00321835
0.000973138
-0.00320033
0.000975249
-0.00318349
0.000976492
-0.00316839
0.000977101
-0.00315536
-0.00314472
0.00097719
3.78478e-05
-0.0003328
0.00012846
-0.000991532
0.000249025
-0.00160813
0.000377905
-0.00213927
0.000498276
-0.0025591
0.00060011
-0.00286405
0.000679733
-0.00306735
0.000737992
-0.00319034
0.000778185
-0.00325548
0.0008044
-0.00328215
0.000820493
-0.00328517
0.00082959
-0.00327481
0.000833997
-0.00325771
0.000835291
-0.00323785
0.000834507
-0.00321756
0.000832309
-0.00319814
0.000829128
-0.00318031
0.00082525
-0.00316452
0.000820851
-0.00315096
-0.00313988
0.000816011
3.83634e-05
-0.000371163
0.000127449
-0.00108062
0.000242377
-0.00172306
0.000361102
-0.002258
0.000467869
-0.00266586
0.000554396
-0.00295058
0.000618671
-0.00313162
0.000662708
-0.00323438
0.000690383
-0.00328315
0.000705894
-0.00329766
0.000712903
-0.00329218
0.000714218
-0.00327613
0.000711805
-0.00325529
0.000706952
-0.003233
0.000700471
-0.00321108
0.000692872
-0.00319054
0.000684485
-0.00317193
0.000675533
-0.00315556
0.00066615
-0.00314158
-0.00313013
0.000656396
3.84081e-05
-0.000409571
0.000124821
-0.00116703
0.000232745
-0.00183099
0.000340243
-0.00236549
0.000432948
-0.00275857
0.00050437
-0.003022
0.000554006
-0.00318126
0.000584799
-0.00326517
0.000600989
-0.00329934
0.000606727
-0.0033034
0.00060541
-0.00329086
0.000599507
-0.00327023
0.000590667
-0.00324645
0.000579924
-0.00322226
0.000567906
-0.00319906
0.000555001
-0.00317763
0.000541461
-0.00315839
0.00052746
-0.00314156
0.000513107
-0.00312723
-0.00311547
0.00049845
3.79705e-05
-0.000447542
0.000120627
-0.00124969
0.000220366
-0.00193072
0.000315834
-0.00246096
0.000394287
-0.00283702
0.000450991
-0.00307871
0.000486761
-0.00321703
0.000505245
-0.00328366
0.000510861
-0.00330496
0.000507605
-0.00330015
0.00049856
-0.00328182
0.000485865
-0.00325753
0.000470882
-0.00323147
0.000454428
-0.0032058
0.000436981
-0.00318162
0.00041883
-0.00315948
0.000400169
-0.00313973
0.000381135
-0.00312253
0.000361823
-0.00310791
-0.00309592
0.000342273
3.70511e-05
-0.000484593
0.000114949
-0.00132758
0.000205516
-0.00202129
0.000288402
-0.00254385
0.000352626
-0.00290125
0.00039512
-0.0031212
0.000417814
-0.00323972
0.000424853
-0.0032907
0.000420685
-0.00330079
0.00040907
-0.00328853
0.000392766
-0.00326551
0.000373595
-0.00323836
0.000352671
-0.00321055
0.000330628
-0.00318376
0.000307823
-0.00315881
0.000284467
-0.00313612
0.000260704
-0.00311596
0.000236649
-0.00309847
0.000212385
-0.00308365
-0.00307149
0.000187955
3.56609e-05
-0.000520253
0.000107899
-0.00139982
0.000188501
-0.0021019
0.000258469
-0.00261382
0.000308654
-0.00295143
0.000337522
-0.00315007
0.000347911
-0.00325011
0.000344283
-0.00328707
0.000331001
-0.00328751
0.000311541
-0.00326907
0.000288334
-0.00324231
0.00026292
-0.00321295
0.000236194
-0.00318382
0.000208646
-0.00315621
0.000180531
-0.0031307
0.000151996
-0.00310759
0.000123148
-0.00308712
9.40794e-05
-0.00306941
6.48728e-05
-0.00305444
-0.00304219
3.55757e-05
3.38206e-05
-0.000554074
9.96089e-05
-0.00146561
0.000169637
-0.00217192
0.000226537
-0.00267072
0.000262998
-0.00298789
0.000278859
-0.00316593
0.000277675
-0.00324893
0.000264071
-0.00327346
0.000242237
-0.00326568
0.00021534
-0.00324217
0.000185501
-0.00321247
0.000154006
-0.00318145
0.000121575
-0.00315139
8.8574e-05
-0.00312321
5.51801e-05
-0.0030973
2.14857e-05
-0.00307389
-1.24369e-05
-0.00305319
-4.65094e-05
-0.00303533
-8.06479e-05
-0.0030203
-0.00300805
-0.000114793
3.15589e-05
-0.000585633
9.0225e-05
-0.00152428
0.000149241
-0.00223094
0.000193079
-0.00271455
0.000216219
-0.00301103
0.000219705
-0.00316942
0.000207628
-0.00323685
0.000184651
-0.00325049
0.000154731
-0.00323576
0.000120719
-0.00320816
8.44463e-05
-0.00317619
4.6984e-05
-0.00314399
8.90439e-06
-0.00311331
-2.95191e-05
-0.00308479
-6.81742e-05
-0.00305865
-0.000107015
-0.00303505
-0.000146003
-0.00301421
-0.000185072
-0.00299626
-0.000224131
-0.00298125
-0.00296907
-0.000263103
2.89112e-05
-0.000614544
7.99013e-05
-0.00157527
0.000127622
-0.00227866
0.000158531
-0.00274546
0.000168814
-0.00302132
0.000160548
-0.00316115
0.000138202
-0.00321451
0.000106376
-0.00321866
6.87558e-05
-0.00319813
2.78797e-05
-0.00316729
-1.46823e-05
-0.00313363
-5.80423e-05
-0.00310063
-0.000101743
-0.00306961
-0.000145581
-0.00304095
-0.000189495
-0.00301473
-0.00023348
-0.00299107
-0.000277531
-0.00297015
-0.000321597
-0.0029522
-0.000365573
-0.00293727
-0.00292529
-0.000409358
2.5918e-05
-0.000640462
6.87952e-05
-0.00161814
0.000105078
-0.00231494
0.000123292
-0.00276368
0.000121221
-0.00301924
0.000101808
-0.00314174
6.97612e-05
-0.00318246
2.95426e-05
-0.00317844
-1.54589e-05
-0.00315313
-6.30037e-05
-0.00311974
-0.000111755
-0.00308488
-0.000160977
-0.00305141
-0.0002103
-0.00302029
-0.000259569
-0.00299168
-0.000308758
-0.00296554
-0.000357902
-0.00294192
-0.000407031
-0.00292103
-0.000456114
-0.00290312
-0.000505032
-0.00288835
-0.00287668
-0.000553644
2.26239e-05
-0.000663086
5.70642e-05
-0.00165258
8.18862e-05
-0.00233977
8.77211e-05
-0.00276951
7.38235e-05
-0.00300535
4.38434e-05
-0.00311176
2.61558e-06
-0.00314123
-4.55974e-05
-0.00313023
-9.77118e-05
-0.00310102
-0.000151771
-0.00306568
-0.000206644
-0.00303001
-0.000261721
-0.00299633
-0.000316695
-0.00296531
-0.000371439
-0.00293694
-0.000425948
-0.00291104
-0.000480288
-0.00288758
-0.000534534
-0.00286678
-0.000588686
-0.00284896
-0.000642613
-0.00283442
-0.00282318
-0.000696114
1.90761e-05
-0.000682162
4.48624e-05
-0.00167837
5.8308e-05
-0.00235321
5.21429e-05
-0.00276335
2.69581e-05
-0.00298016
-1.30322e-05
-0.00307177
-6.2965e-05
-0.0030913
-0.000118817
-0.00307438
-0.000177812
-0.00304202
-0.000238258
-0.00300524
-0.000299207
-0.00296906
-0.000360154
-0.00293538
-0.000420835
-0.00290463
-0.000481132
-0.00287664
-0.000541039
-0.00285113
-0.000600645
-0.00282798
-0.00066007
-0.00280735
-0.000719366
-0.00278967
-0.0007784
-0.00277539
-0.0027647
-0.000836873
1.53233e-05
-0.000697485
3.23386e-05
-0.00169539
3.45836e-05
-0.00235546
1.68482e-05
-0.00274561
-1.90779e-05
-0.00294424
-6.85441e-05
-0.0030223
-0.000126738
-0.0030331
-0.000189904
-0.00301121
-0.000255568
-0.00297636
-0.000322283
-0.00293852
-0.000389271
-0.00290207
-0.000456116
-0.00286854
-0.000522586
-0.00283816
-0.000588554
-0.00281067
-0.000653991
-0.00278569
-0.000718979
-0.00276299
-0.000783679
-0.00274265
-0.00084821
-0.00272514
-0.00091245
-0.00271115
-0.00270119
-0.000975961
1.1415e-05
-0.0007089
1.96344e-05
-0.00170361
1.09336e-05
-0.00234676
-1.79033e-05
-0.00271677
-6.40216e-05
-0.00289812
-0.000122448
-0.00296387
-0.000188481
-0.00296707
-0.000258649
-0.00294104
-0.000330772
-0.00290424
-0.000403633
-0.00286566
-0.00047661
-0.00282909
-0.000549377
-0.00279577
-0.000621734
-0.00276581
-0.000693537
-0.00273887
-0.000764712
-0.00271452
-0.000835294
-0.00269241
-0.000905455
-0.00267249
-0.000975389
-0.0026552
-0.00104501
-0.00264153
-0.00263244
-0.00111376
7.40015e-06
-0.000716301
6.88269e-06
-0.00170309
-1.24424e-05
-0.00232743
-5.1881e-05
-0.00267734
-0.000107641
-0.00284236
-0.000174523
-0.00289699
-0.000247984
-0.00289361
-0.000324844
-0.00286418
-0.000403201
-0.00282588
-0.000482059
-0.0027868
-0.000560942
-0.00275021
-0.000639623
-0.00271709
-0.000717949
-0.00268748
-0.000795779
-0.00266104
-0.000872983
-0.00263731
-0.000949522
-0.00261587
-0.00102554
-0.00259647
-0.00110133
-0.00257942
-0.00117687
-0.00256599
-0.00255751
-0.0012518
3.32627e-06
-0.000719627
-5.7936e-06
-0.00169397
-3.53656e-05
-0.00229786
-8.48825e-05
-0.00262782
-0.000149734
-0.00277751
-0.000224575
-0.00282215
-0.000305053
-0.00281313
-0.000388278
-0.00278096
-0.000472615
-0.00274154
-0.00055727
-0.00270215
-0.000641919
-0.00266556
-0.000726443
-0.00263257
-0.000810777
-0.00260315
-0.000894819
-0.002577
-0.000978421
-0.00255371
-0.00106147
-0.00253282
-0.00114407
-0.00251388
-0.0012266
-0.00249688
-0.00130929
-0.0024833
-0.00247408
-0.00139272
-7.61605e-07
-0.000718865
-1.82836e-05
-0.00167645
-5.76799e-05
-0.00225846
-0.000116734
-0.00256876
-0.000190127
-0.00270411
-0.00027243
-0.00273985
-0.000359505
-0.00272606
-0.000448742
-0.00269172
-0.00053875
-0.00265154
-0.000628927
-0.00261197
-0.000719095
-0.00257539
-0.000809275
-0.00254239
-0.000899538
-0.00251288
-0.000989917
-0.00248662
-0.00108036
-0.00246327
-0.00117075
-0.00244243
-0.0012611
-0.00242353
-0.00135177
-0.00240622
-0.00144332
-0.00239175
-0.00237891
-0.00153848
-4.82207e-06
-0.000714043
-3.049e-05
-0.00165078
-7.9253e-05
-0.0022097
-0.000147295
-0.00250072
-0.000228681
-0.00262273
-0.000317953
-0.00265058
-0.000411191
-0.00263282
-0.000506045
-0.00259687
-0.000601344
-0.00255624
-0.000696645
-0.00251667
-0.000791901
-0.00248014
-0.000887267
-0.00244702
-0.000982998
-0.00241715
-0.00107939
-0.00239023
-0.00117671
-0.00236594
-0.00127517
-0.00234396
-0.0013749
-0.0023238
-0.00147645
-0.00230467
-0.00158209
-0.00228611
-0.00227961
-0.00168139
-8.80605e-06
-0.000705237
-4.23103e-05
-0.00161727
-9.99553e-05
-0.00215205
-0.000176432
-0.00242425
-0.000265273
-0.00253389
-0.00036103