/*--------------------------------*- C++ -*----------------------------------*\
  =========                 |
  \\      /  F ield         | OpenFOAM: The Open Source CFD Toolbox
   \\    /   O peration     | Website:  https://openfoam.org
    \\  /    A nd           | Version:  6.0
     \\/     M anipulation  |
\*---------------------------------------------------------------------------*/
FoamFile
{
    version     2.0;
    format      ascii;
    class       surfaceScalarField;
    location    "46";
    object      phi;
}
// * * * * * * * * * * * * * * * * * * * * * * * * * * * * * * * * * * * * * //

dimensions      [0 3 -1 0 0 0 0];

internalField   nonuniform List<scalar> 
7840
(
-2.41095e-06
1.53244e-06
8.78501e-07
-8.58123e-06
4.29461e-06
1.87568e-06
-1.76213e-05
6.69602e-06
2.34402e-06
-2.87808e-05
8.71061e-06
2.44893e-06
-4.14451e-05
1.03493e-05
2.31506e-06
-5.51255e-05
1.16458e-05
2.03454e-06
-6.94474e-05
1.2648e-05
1.67395e-06
-8.41385e-05
1.34109e-05
1.28009e-06
-9.90161e-05
1.39929e-05
8.84822e-07
-0.000113977
1.44518e-05
5.08899e-07
-0.000128985
1.48433e-05
1.65059e-07
-0.000144064
1.52188e-05
-1.39708e-07
-0.000159286
1.56241e-05
-4.02517e-07
-0.000174761
1.60988e-05
-6.23448e-07
-0.000190632
1.66754e-05
-8.04793e-07
-0.000207061
1.73795e-05
-9.50619e-07
-0.000224223
1.8229e-05
-1.06661e-06
-0.000242298
1.92349e-05
-1.15981e-06
-0.000261463
2.04021e-05
-1.23751e-06
2.17355e-05
-1.30704e-06
-0.000281891
-2.41227e-06
3.94471e-06
-8.57919e-06
1.04615e-05
-1.76048e-05
1.57216e-05
-2.87336e-05
1.98394e-05
-4.13463e-05
2.2962e-05
-5.49501e-05
2.52496e-05
-6.91659e-05
2.68638e-05
-8.37164e-05
2.79614e-05
-9.84138e-05
2.86903e-05
-0.000113149
2.9187e-05
-0.000127881
2.95754e-05
-0.000142628
2.99656e-05
-0.000157457
3.04532e-05
-0.000172476
3.11181e-05
-0.000187826
3.20249e-05
-0.000203669
3.32219e-05
-0.000220181
3.47414e-05
-0.000237545
3.65994e-05
-0.000255943
3.87996e-05
4.13452e-05
-0.000275553
-2.41569e-06
6.36041e-06
-8.57918e-06
1.6625e-05
-1.75826e-05
2.4725e-05
-2.86606e-05
3.09174e-05
-4.11854e-05
3.54868e-05
-5.46554e-05
3.87196e-05
-6.86828e-05
4.08912e-05
-8.29804e-05
4.2259e-05
-9.73498e-05
4.30597e-05
-0.000111671
4.35078e-05
-0.000125891
4.37956e-05
-0.000140018
4.4093e-05
-0.000154112
4.45466e-05
-0.000168273
4.52799e-05
-0.000182641
4.63922e-05
-0.000197377
4.79585e-05
-0.000212665
5.00291e-05
-0.000228694
5.26286e-05
-0.000245657
5.57624e-05
5.94332e-05
-0.000263745
-2.42206e-06
8.78247e-06
-8.58343e-06
2.27864e-05
-1.75588e-05
3.37004e-05
-2.8569e-05
4.19276e-05
-4.09739e-05
4.78916e-05
-5.42599e-05
5.20057e-05
-6.80265e-05
5.46578e-05
-8.19721e-05
5.62046e-05
-9.58825e-05
5.69701e-05
-0.000109621
5.72459e-05
-0.000123118
5.72927e-05
-0.000136365
5.73407e-05
-0.000149409
5.75905e-05
-0.000162342
5.82126e-05
-0.000175296
5.93464e-05
-0.000188437
6.10995e-05
-0.000201954
6.35462e-05
-0.000216052
6.67261e-05
-0.00023094
7.06509e-05
7.53258e-05
-0.000246833
-2.43211e-06
1.12146e-05
-8.5936e-06
2.89479e-05
-1.75365e-05
4.26433e-05
-2.84641e-05
5.28552e-05
-4.07214e-05
6.0149e-05
-5.37806e-05
6.50649e-05
-6.72251e-05
6.81023e-05
-8.07358e-05
6.97152e-05
-9.40781e-05
7.03124e-05
-0.000107093
7.02606e-05
-0.000119688
6.98878e-05
-0.000131833
6.94859e-05
-0.000143554
6.93118e-05
-0.00015493
6.95877e-05
-0.000166083
7.05001e-05
-0.000177181
7.21972e-05
-0.000188421
7.47868e-05
-0.000200028
7.83326e-05
-0.000212239
8.28614e-05
8.83865e-05
-0.000225299
-2.44608e-06
1.36607e-05
-8.6095e-06
3.51113e-05
-1.75146e-05
5.15485e-05
-2.83448e-05
6.36853e-05
-4.04289e-05
7.2233e-05
-5.32233e-05
7.78594e-05
-6.62946e-05
8.11736e-05
-7.93031e-05
8.27237e-05
-9.19908e-05
8.3e-05
-0.000104171
8.24411e-05
-0.000115724
8.14403e-05
-0.000126588
8.03505e-05
-0.000136764
7.94874e-05
-0.000146306
7.913e-05
-0.000155326
7.95196e-05
-0.000163985
8.08563e-05
-0.000172492
8.32942e-05
-0.000181094
8.69347e-05
-0.000190066
9.18332e-05
9.80215e-05
-0.000199701
-2.46324e-06
1.61239e-05
-8.62761e-06
4.12757e-05
-1.74855e-05
6.04064e-05
-2.81989e-05
7.43988e-05
-4.00807e-05
8.41147e-05
-5.25722e-05
9.03509e-05
-6.52229e-05
9.38244e-05
-7.76726e-05
9.51735e-05
-8.96376e-05
9.4965e-05
-0.000100901
9.37045e-05
-0.000111307
9.18466e-05
-0.00012076
8.98031e-05
-0.000129221
8.79489e-05
-0.000136716
8.66243e-05
-0.00014333
8.61343e-05
-0.000149218
8.67436e-05
-0.000154593
8.86692e-05
-0.000159728
9.20703e-05
-0.000164946
9.70513e-05
0.00010368
-0.000170605
-2.48149e-06
1.86054e-05
-8.63973e-06
4.74339e-05
-1.74316e-05
6.91983e-05
-2.79979e-05
8.4965e-05
-3.96367e-05
9.57535e-05
-5.17766e-05
0.000102491
-6.39527e-05
0.000106
-7.57857e-05
0.000107006
-8.69667e-05
0.000106146
-9.72468e-05
0.000103985
-0.000106432
0.000101032
-0.000114381
9.77527e-05
-0.000121012
9.458e-05
-0.000126305
9.19172e-05
-0.000130311
9.01403e-05
-0.000133161
8.9593e-05
-0.000135068
9.05762e-05
-0.00013633
9.3333e-05
-0.000137326
9.80471e-05
0.000104854
-0.0001385
-2.49704e-06
2.11024e-05
-8.63188e-06
5.35687e-05
-1.73236e-05
7.789e-05
-2.76925e-05
9.53339e-05
-3.90247e-05
0.000107086
-5.07402e-05
0.000114206
-6.23639e-05
0.000117624
-7.35016e-05
0.000118144
-8.38229e-05
0.000116467
-9.30483e-05
0.00011321
-0.000100944
0.000108927
-0.000107322
0.00010413
-0.000112043
9.93016e-05
-0.000115032
9.49062e-05
-0.000116288
9.13957e-05
-0.000115901
8.92058e-05
-0.000114069
8.87443e-05
-0.000111108
9.03719e-05
-0.000107456
9.43954e-05
0.000101065
-0.000103667
-2.50432e-06
2.36067e-05
-8.58403e-06
5.96484e-05
-1.7119e-05
8.64249e-05
-2.72102e-05
0.000105425
-3.81356e-05
0.000118011
-4.93112e-05
0.000125382
-6.02578e-05
0.000128571
-7.05734e-05
0.00012846
-7.99125e-05
0.000125806
-8.79712e-05
0.000121269
-9.44797e-05
0.000115436
-9.9201e-05
0.000108852
-0.000101937
0.000102038
-0.000102543
9.55123e-05
-0.000100948
8.98001e-05
-9.71791e-05
8.54371e-05
-9.13949e-05
8.29602e-05
-8.39103e-05
8.28873e-05
-7.52212e-05
8.57063e-05
9.18573e-05
-6.60133e-05
-2.4962e-06
2.61029e-05
-8.47066e-06
6.56229e-05
-1.67629e-05
9.47171e-05
-2.6456e-05
0.000115118
-3.68223e-05
0.000128377
-4.72787e-05
0.000135838
-5.73486e-05
0.000138641
-6.66308e-05
0.000137742
-7.47744e-05
0.00013395
-8.14617e-05
0.000127956
-8.63964e-05
0.000120371
-8.93003e-05
0.000111755
-8.99175e-05
0.000102655
-8.80286e-05
9.36234e-05
-8.34759e-05
8.52474e-05
-7.61997e-05
7.81608e-05
-6.62846e-05
7.30451e-05
-5.40122e-05
7.06148e-05
-3.99171e-05
7.16112e-05
7.67733e-05
-2.48331e-05
-2.46463e-06
2.85676e-05
-8.26244e-06
7.14207e-05
-1.61912e-05
0.000102646
-2.53157e-05
0.000124243
-3.49037e-05
0.000137965
-4.43758e-05
0.00014531
-5.32637e-05
0.000147529
-6.11748e-05
0.000145653
-6.77648e-05
0.00014054
-7.27158e-05
0.000132907
-7.57217e-05
0.000123377
-7.64796e-05
0.000112513
-7.46892e-05
0.000100865
-7.00634e-05
8.89976e-05
-6.23531e-05
7.75371e-05
-5.13894e-05
6.71971e-05
-3.71462e-05
5.88019e-05
-1.98224e-05
5.32911e-05
5.12183e-08
5.17376e-05
5.53282e-05
2.14963e-05
-2.40148e-06
3.0969e-05
-7.92897e-06
7.69482e-05
-1.53356e-05
0.000110053
-2.36642e-05
0.000132571
-3.21754e-05
0.000146476
-4.02928e-05
0.000153428
-4.75577e-05
0.000154793
-5.35914e-05
0.000151687
-5.80654e-05
0.000145014
-6.06774e-05
0.000135519
-6.11323e-05
0.000123831
-5.91283e-05
0.000110509
-5.43493e-05
9.60856e-05
-4.6467e-05
8.11154e-05
-3.51574e-05
6.62275e-05
-2.01398e-05
5.21795e-05
-1.2476e-06
3.99097e-05
2.14615e-05
3.0582e-05
4.75362e-05
2.56628e-05
2.69686e-05
7.58958e-05
-2.29974e-06
3.32688e-05
-7.4421e-06
8.20906e-05
-1.41296e-05
0.00011674
-2.13756e-05
0.000139817
-2.84256e-05
0.000153526
-3.46989e-05
0.000159701
-3.97413e-05
0.000159836
-4.31862e-05
0.000155132
-4.47245e-05
0.000146552
-4.40799e-05
0.000134875
-4.09886e-05
0.00012074
-3.51813e-05
0.000104702
-2.63686e-05
8.72729e-05
-1.42312e-05
6.89779e-05
1.57969e-06
5.04166e-05
2.14197e-05
3.23394e-05
4.55919e-05
1.57375e-05
7.42274e-05
1.94651e-06
0.000107059
-7.16887e-06
-8.98887e-06
0.000143017
-2.15447e-06
3.54232e-05
-6.77919e-06
8.67153e-05
-1.25159e-05
0.000122477
-1.83351e-05
0.000145637
-2.34531e-05
0.000158644
-2.72703e-05
0.000163518
-2.93223e-05
0.000161888
-2.9242e-05
0.000155051
-2.67315e-05
0.000144042
-2.15398e-05
0.000129683
-1.34448e-05
0.000112645
-2.23657e-06
9.34938e-05
1.23005e-05
7.27358e-05
3.0407e-05
5.08714e-05
5.23666e-05
2.8457e-05
7.85139e-05
6.19218e-06
0.000109212
-1.49606e-05
0.000144769
-3.36107e-05
0.000185205
-4.76049e-05
-5.34483e-05
0.000229665
-1.96352e-06
3.73868e-05
-5.92519e-06
9.0677e-05
-1.04501e-05
0.000127002
-1.44477e-05
0.000149634
-1.70842e-05
0.000161281
-1.77179e-05
0.000164152
-1.58495e-05
0.000160019
-1.10862e-05
0.000150288
-3.11709e-06
0.000136073
8.30282e-06
0.000118263
2.33634e-05
9.75846e-05
4.22085e-05
7.46487e-05
6.49473e-05
4.99969e-05
9.16723e-05
2.41465e-05
0.000122487
-2.35766e-06
0.000157544
-2.88648e-05
0.00019708
-5.44966e-05
0.000241425
-7.79562e-05
0.000290895
-9.70741e-05
-0.000107646
0.000345092
-1.72742e-06
3.91142e-05
-4.8725e-06
9.3822e-05
-7.90233e-06
0.000130031
-9.64181e-06
0.000151374
-9.18061e-06
0.00016082
-5.80502e-06
0.000160777
1.05275e-06
0.000153162
1.18487e-05
0.000139492
2.69466e-05
0.000120975
4.6626e-05
9.85835e-05
7.10822e-05
7.31284e-05
0.000100421
4.53099e-05
0.000134652
1.57656e-05
0.000173689
-1.48904e-05
0.000217361
-4.60291e-05
0.00026545
-7.69546e-05
0.000317768
-0.000106815
0.000374272
-0.00013446
0.000435238
-0.00015804
-0.000173357
0.000500949
-1.4483e-06
4.05625e-05
-3.61813e-06
9.59919e-05
-4.85184e-06
0.000131265
-3.86272e-06
0.000150385
3.65813e-07
0.000156591
8.65339e-06
0.000152489
2.16752e-05
0.00014014
3.99947e-05
0.000121173
6.40789e-05
9.68904e-05
9.42991e-05
6.83633e-05
0.00013092
3.65079e-05
0.000174076
2.15379e-06
0.000223744
-3.39024e-05
0.000279704
-7.08508e-05
0.000341507
-0.000107832
0.000408451
-0.000143899
0.000479613
-0.000177976
0.000553957
-0.000208804
0.000630755
-0.000234838
-0.000253842
0.00071124
-1.12796e-06
4.16905e-05
-2.15799e-06
9.70219e-05
-1.27695e-06
0.000130384
2.94218e-06
0.000146166
1.16527e-05
0.000147881
2.58139e-05
0.000138328
4.62459e-05
0.000119708
7.36625e-05
9.37561e-05
0.000108684
6.18694e-05
0.000151832
2.52148e-05
0.000203517
-1.51773e-05
0.000264004
-5.83333e-05
0.000333368
-0.000103266
0.000411424
-0.000148907
0.000497629
-0.000194037
0.000590948
-0.000237218
0.000689677
-0.000276705
0.000791244
-0.000310371
0.00089237
-0.000335964
-0.000355881
0.000994409
-7.65324e-07
4.24558e-05
-4.79593e-07
9.67362e-05
2.8586e-06
0.000127046
1.08448e-05
0.000138179
2.47973e-05
0.000133928
4.58432e-05
0.000117282
7.49767e-05
9.05743e-05
0.00011309
5.56427e-05
0.000160987
1.39729e-05
0.000219378
-3.31768e-05
0.000288875
-8.46742e-05
0.000369969
-0.000139427
0.00046301
-0.000196307
0.000568177
-0.000254073
0.000685411
-0.000311271
0.000814289
-0.000366096
0.000953705
-0.000416121
0.00110087
-0.000457539
0.00124805
-0.000483137
-0.000479655
0.00137182
-3.54786e-07
4.28106e-05
1.44385e-06
9.49375e-05
7.61762e-06
0.000120872
1.99563e-05
0.000125841
3.99655e-05
0.000113919
6.89587e-05
8.82887e-05
0.000108114
5.14193e-05
0.000158501
5.25537e-06
0.000221092
-4.86181e-05
0.000296758
-0.000108842
0.000386267
-0.000174183
0.000490295
-0.000243455
0.000609461
-0.000315473
0.000744405
-0.000389018
0.000895961
-0.000462826
0.00106547
-0.0005356
0.00125534
-0.000605992
0.00147038
-0.000672587
0.00172174
-0.000734493
-0.000790934
0.00203302
1.18058e-07
4.26925e-05
3.66218e-06
9.13934e-05
1.31026e-05
0.000111432
3.04443e-05
0.000108499
5.73945e-05
8.69689e-05
9.54556e-05
5.02276e-05
0.000145974
9.00579e-07
0.000210158
-5.89281e-05
0.000289069
-0.000127529
0.000383614
-0.000203388
0.000494534
-0.000285103
0.000622412
-0.000371333
0.000767708
-0.000460769
0.000930837
-0.000552147
0.00111231
-0.000644295
0.00131292
-0.000736214
0.00153412
-0.000827192
0.00177846
-0.000916929
0.00204959
-0.00100562
-0.00108665
0.00234531
6.72703e-07
4.20198e-05
6.24202e-06
8.58241e-05
1.94477e-05
9.82261e-05
4.2523e-05
8.54235e-05
7.7379e-05
5.21129e-05
0.00012569
1.91646e-06
0.000188926
-6.23355e-05
0.000268347
-0.000138349
0.000364974
-0.000224156
0.00047956
-0.000317974
0.000612563
-0.000418106
0.000764142
-0.000522912
0.000934177
-0.000630804
0.00112232
-0.000740287
0.00132805
-0.000850029
0.00155079
-0.000958949
0.00178991
-0.00106632
0.00204481
-0.00117183
0.00231452
-0.00127532
-0.00136845
0.00259631
1.33494e-06
4.06849e-05
9.266e-06
7.7893e-05
2.68119e-05
8.06801e-05
5.64361e-05
5.57994e-05
0.000100238
8.31124e-06
0.000160019
-5.78653e-05
0.000237291
-0.000139607
0.000333231
-0.000234289
0.000448637
-0.000339562
0.000583869
-0.000453206
0.000738819
-0.000573056
0.000912907
-0.000697
0.00110511
-0.000823004
0.001314
-0.000949184
0.00153786
-0.00107388
0.00177466
-0.00119575
0.00202214
-0.00131381
0.00227779
-0.00142748
0.00253883
-0.00153635
-0.00163293
0.00280331
2.13332e-06
3.85515e-05
1.28223e-05
6.72041e-05
3.53582e-05
5.81442e-05
7.24183e-05
1.87394e-05
0.000126249
-4.55194e-05
0.0001987
-0.000130317
0.000291191
-0.000232097
0.000404634
-0.000347732
0.000539362
-0.000474291
0.000695069
-0.000608913
0.000870794
-0.000748781
0.00106495
-0.000891153
0.00127539
-0.00103345
0.00149953
-0.00117333
0.00173446
-0.00130881
0.00197703
-0.00143832
0.00222396
-0.00156074
0.00247186
-0.00167537
0.00271737
-0.00178187
-0.00187459
0.00295903
3.09577e-06
3.54558e-05
1.69931e-05
5.33068e-05
4.52284e-05
2.99089e-05
9.0651e-05
-2.66833e-05
0.000155578
-0.000110447
0.00024178
-0.000216519
0.000350397
-0.000340713
0.000481833
-0.000479169
0.000635679
-0.000628136
0.000810673
-0.000783907
0.00100474
-0.000942851
0.00121511
-0.00110152
0.00143847
-0.0012568
0.00167114
-0.00140599
0.00190929
-0.00154697
0.00214914
-0.00167817
0.00238701
-0.00179861
0.0026195
-0.00190785
0.00284358
-0.00200595
-0.0020893
0.00305828
4.24632e-06
3.12094e-05
2.18435e-05
3.57096e-05
5.65191e-05
-4.76679e-06
0.00011122
-8.13842e-05
0.000188212
-0.000187439
0.000289002
-0.000317309
0.000414207
-0.000465918
0.000563437
-0.000628398
0.000735237
-0.000799937
0.000927136
-0.000975806
0.00113578
-0.0011515
0.00135717
-0.00132292
0.00158694
-0.00148657
0.00182063
-0.00163968
0.00205395
-0.00178029
0.00228301
-0.00190722
0.00250441
-0.00202002
0.00271538
-0.00211882
0.00291378
-0.00220435
-0.00227488
0.00309936
5.60259e-06
2.56069e-05
2.74126e-05
1.38996e-05
6.92631e-05
-4.66173e-05
0.000134082
-0.000146203
0.000223909
-0.000277266
0.000339745
-0.000433145
0.000481392
-0.000607565
0.000647351
-0.000794358
0.000834859
-0.000987445
0.00104006
-0.00118101
0.0012583
-0.00136974
0.00148451
-0.00154913
0.00171359
-0.00171565
0.00194075
-0.00186685
0.00216183
-0.00200136
0.00237338
-0.00211878
0.00257285
-0.00221949
0.00275853
-0.0023045
0.00292947
-0.00237529
-0.0024317
0.00308628
7.17431e-06
1.84325e-05
3.37074e-05
-1.26335e-05
8.34152e-05
-9.63251e-05
0.000159042
-0.00022183
0.000262171
-0.000380394
0.000393004
-0.000563979
0.000550203
-0.000764764
0.000730877
-0.000975031
0.000930764
-0.00118733
0.0011446
-0.00139484
0.00136661
-0.00159174
0.001591
-0.00177351
0.00181243
-0.00193708
0.00202637
-0.00208079
0.00222928
-0.00220427
0.00241871
-0.00230821
0.00259325
-0.00239403
0.00275241
-0.00246367
0.00289647
-0.00251934
-0.00256209
0.00302686
8.96261e-06
9.46994e-06
4.06996e-05
-4.43704e-05
9.8846e-05
-0.000154472
0.000185747
-0.000308731
0.000302243
-0.00049689
0.000447411
-0.000709147
0.000618461
-0.000935814
0.000810894
-0.00116746
0.00101891
-0.00139535
0.00123602
-0.00161195
0.00145566
-0.00181139
0.00167186
-0.00198971
0.00187962
-0.00214483
0.00207516
-0.00227633
0.00225606
-0.00238517
0.00242111
-0.00247325
0.00257014
-0.00254306
0.00270382
-0.00259735
0.00282338
-0.0026389
-0.00266958
0.00293087
1.09597e-05
-1.4898e-06
4.83241e-05
-8.17348e-05
0.00011534
-0.000221487
0.000213686
-0.000407076
0.000343135
-0.00062634
0.000501304
-0.000867315
0.000683701
-0.00111821
0.000884138
-0.0013679
0.00109543
-0.00160664
0.0013102
-0.00182672
0.00152168
-0.00202287
0.00172425
-0.00219229
0.0019138
-0.00233437
0.00208774
-0.00245028
0.00224497
-0.0025424
0.00238554
-0.00261382
0.0025104
-0.00266793
0.00262111
-0.00270806
0.00271952
-0.00273731
-0.00275802
0.00280796
1.3149e-05
-1.46388e-05
5.64793e-05
-0.000125065
0.000132597
-0.000297605
0.000242204
-0.000516683
0.000383661
-0.000767796
0.000552827
-0.00103648
0.000743371
-0.00130875
0.00094751
-0.00157204
0.00115701
-0.00181614
0.00136415
-0.00203387
0.00156253
-0.00222125
0.00174743
-0.0023772
0.00191602
-0.00250296
0.00206709
-0.00260136
0.00220085
-0.00267616
0.00231847
-0.00273143
0.00242172
-0.00277118
0.00251268
-0.00279902
0.0025935
-0.00281812
-0.00283099
0.00266647
1.55046e-05
-3.01434e-05
6.50277e-05
-0.000174588
0.000150242
-0.00038282
0.00027053
-0.000636971
0.000422506
-0.000919773
0.000600065
-0.00121404
0.000795051
-0.00150374
0.000998375
-0.00177536
0.00120126
-0.00201902
0.00139624
-0.00222885
0.00157781
-0.00240282
0.0017426
-0.00254198
0.00188918
-0.00264954
0.00201775
-0.00272993
0.0021296
-0.00278802
0.00222674
-0.00282856
0.00231141
-0.00285585
0.00238592
-0.00287353
0.0024524
-0.0028846
-0.00289152
0.00251292
1.79915e-05
-4.81349e-05
7.37979e-05
-0.000230395
0.000167832
-0.000476854
0.000297806
-0.000766945
0.000458311
-0.00108028
0.000641192
-0.00139692
0.000836669
-0.00169922
0.00103481
-0.0019735
0.00122687
-0.00221108
0.00140623
-0.00240821
0.00156869
-0.00256528
0.00171239
-0.00268568
0.00183734
-0.00277449
0.00194489
-0.00283748
0.00203718
-0.0028803
0.00211665
-0.00290804
0.00218576
-0.00292497
0.00224676
-0.00293453
0.0023016
-0.00293944
-0.00294194
0.00235203
2.05653e-05
-6.87002e-05
8.25887e-05
-0.000292418
0.000184876
-0.000579141
0.000323141
-0.00090521
0.000489761
-0.0012469
0.000674615
-0.00158178
0.000866672
-0.00189127
0.00105572
-0.00216255
0.00123365
-0.00238902
0.00139512
-0.00256967
0.00153747
-0.00270764
0.00166035
-0.00280856
0.00176501
-0.00287915
0.00185368
-0.00292614
0.00192897
-0.00295559
0.00199353
-0.00297259
0.00204974
-0.00298118
0.00209966
-0.00298445
0.00214495
-0.00298472
-0.002984
0.002187
2.31734e-05
-9.18736e-05
9.11756e-05
-0.00036042
0.000200858
-0.000688823
0.00034566
-0.00105001
0.000515687
-0.00141692
0.000699101
-0.00176519
0.000884128
-0.0020763
0.00106087
-0.00233929
0.00122236
-0.00255051
0.0013648
-0.00271211
0.00148713
-0.00282996
0.00159033
-0.00291175
0.0016766
-0.00296543
0.00174872
-0.00299827
0.00180953
-0.00301639
0.00186159
-0.00302465
0.00190709
-0.00302668
0.00194779
-0.00302515
0.00198506
-0.00302199
-0.0030189
0.00201996
2.57556e-05
-0.000117629
9.93192e-05
-0.000433984
0.000215263
-0.000804767
0.000364563
-0.00119931
0.000535144
-0.00158751
0.00071385
-0.0019439
0.000888746
-0.0022512
0.0010508
-0.00250134
0.00119452
-0.00269423
0.00131776
-0.00283535
0.00142093
-0.00293314
0.00150608
-0.0029969
0.00157607
-0.00303541
0.00163392
-0.00305612
0.00168244
-0.00306491
0.00172399
-0.0030662
0.00176047
-0.00306317
0.00179334
-0.00305801
0.00182366
-0.00305232
-0.00304746
0.00185222
2.82466e-05
-0.000145876
0.000106776
-0.000512514
0.000227607
-0.000925598
0.000379174
-0.00135088
0.000547468
-0.0017558
0.000718524
-0.00211495
0.000880821
-0.00241349
0.00102662
-0.00264714
0.0011521
-0.00281972
0.0012567
-0.00293995
0.00134207
-0.0030185
0.00141103
-0.00306587
0.00146679
-0.00309117
0.00151239
-0.00310172
0.00155044
-0.00310296
0.00158304
-0.0030988
0.00161175
-0.00309188
0.00163774
-0.00308401
0.00166185
-0.00307642
-0.00307023
0.00168462
3.05785e-05
-0.000176454
0.000113313
-0.000595248
0.000237464
-0.00104975
0.000388985
-0.0015024
0.000552307
-0.00191912
0.000713221
-0.00227587
0.000861125
-0.0025614
0.000989859
-0.00277587
0.0010973
-0.00292716
0.0011843
-0.00302695
0.00125346
-0.00308766
0.00130808
-0.00312048
0.00135146
-0.00313456
0.00138651
-0.00313676
0.00141555
-0.003132
0.00144035
-0.0031236
0.00146218
-0.00311372
0.00148197
-0.00310379
0.00150033
-0.00309478
-0.00308756
0.00151765
3.26837e-05
0.000118714
0.000244491
0.000393675
0.000549614
0.000698408
0.000830774
0.000942269
0.00103236
0.00110307
0.00115765
0.00119962
0.00123222
0.00125808
0.0012792
0.00129704
0.00131262
0.00132663
0.00133954
0.00135162
3.27526e-05
0.000177482
0.000118901
0.000598117
0.000244759
0.00105416
0.000393919
0.00150793
0.000549695
0.00192528
0.000698193
0.00228219
0.000830166
0.00256752
0.000941219
0.00278156
0.00103086
0.00293232
0.00110115
0.00303156
0.00115534
0.00309176
0.00119698
0.00312414
0.00122929
0.00313785
0.0012549
0.00313976
0.0012758
0.00313476
0.00129344
0.00312614
0.00130884
0.00311609
0.00132269
0.00310601
0.00133544
0.00309686
0.00308951
0.00134738
3.06539e-05
0.000146828
0.000113531
0.00051524
0.000237808
0.000929886
0.000389364
0.00135638
0.000552581
0.00176206
0.000713243
0.00212153
0.000860774
0.00241999
0.000989058
0.00265328
0.00109602
0.00282535
0.00118255
0.00294503
0.00125127
0.00302304
0.0013055
0.00306992
0.00134854
0.00309481
0.00138329
0.00310501
0.00141208
0.00310597
0.00143665
0.00310157
0.00145828
0.00309446
0.00147788
0.00308641
0.00149606
0.00307867
0.00307235
0.00151322
2.83269e-05
0.000118501
0.000107021
0.000436546
0.000228021
0.000808886
0.000379686
0.00120471
0.000547944
0.00159381
0.000718809
0.00195066
0.000880769
0.00225803
0.00102612
0.00250793
0.0011511
0.00270037
0.00125519
0.00284094
0.00134007
0.00293817
0.00140858
0.00300141
0.00146393
0.00303945
0.00150918
0.00305976
0.00154693
0.00306822
0.00157926
0.00306925
0.00160774
0.00306598
0.00163352
0.00306063
0.00165742
0.00305477
0.00304976
0.00168001
2.58391e-05
9.26619e-05
9.95851e-05
0.0003628
0.000215739
0.000692732
0.000365199
0.00105525
0.000535822
0.00142318
0.000714412
0.00177207
0.00088903
0.00208341
0.00105067
0.00234629
0.00119389
0.00255715
0.00131658
0.00271824
0.00141921
0.00283554
0.00150384
0.00291677
0.00157336
0.00296993
0.0016308
0.00300233
0.00167894
0.00302007
0.00172018
0.00302801
0.00175638
0.00302978
0.00178899
0.00302802
0.00181909
0.00302467
0.00302141
0.00184744
2.32583e-05
6.94035e-05
9.14568e-05
0.000294602
0.000201384
0.000582805
0.000346407
0.000910232
0.000516558
0.00125303
0.000699945
0.00158868
0.000884774
0.00189858
0.00106116
0.0021699
0.00122217
0.00239614
0.00136405
0.00257637
0.00148578
0.0027138
0.0015884
0.00281416
0.00167413
0.00288421
0.00174576
0.0029307
0.00180612
0.00295971
0.00185779
0.00297634
0.00190296
0.00298461
0.00194336
0.00298762
0.00198036
0.00298767
0.00298675
0.00201501
2.065e-05
4.87535e-05
8.28788e-05
0.000232373
0.00018544
0.000480244
0.00032398
0.000771692
0.000490806
0.00108621
0.000675732
0.00140376
0.00086769
0.00170662
0.00105646
0.00198114
0.00123396
0.00221864
0.00139487
0.00241545
0.00153661
0.00257206
0.00165886
0.00269191
0.0017629
0.00278016
0.00185099
0.00284261
0.00192575
0.00288495
0.00198984
0.00291225
0.00204564
0.00292881
0.00209519
0.00293807
0.00214015
0.00294271
0.00294499
0.00218192
1.80742e-05
3.06793e-05
7.40903e-05
0.000176357
0.000168419
0.000385916
0.000298716
0.000641394
0.000459504
0.000925419
0.00064256
0.0012207
0.000838053
0.00151113
0.00103602
0.00178317
0.00122774
0.00202693
0.00140659
0.0022366
0.00156844
0.00241021
0.00171147
0.00254889
0.00183574
0.0026559
0.00194262
0.00273573
0.00203428
0.00279329
0.00211318
0.00283335
0.00218179
0.00286021
0.00224234
0.00287752
0.00229678
0.00288827
0.00289492
0.00234685
1.55839e-05
1.50955e-05
6.53164e-05
0.000126624
0.000150839
0.000300393
0.000271487
0.000520746
0.000423816
0.00077309
0.000601651
0.00104287
0.000796774
0.00131601
0.00100006
0.00157989
0.0012027
0.00182428
0.00139727
0.00204203
0.00157827
0.0022292
0.00174238
0.00238478
0.00188824
0.00251004
0.00201606
0.0026079
0.0021272
0.00268215
0.00222365
0.0027369
0.00230771
0.00277615
0.00238166
0.00280357
0.00244764
0.00282229
0.00283484
0.00250773
1.32235e-05
1.87195e-06
5.67591e-05
8.30887e-05
0.000133191
0.000223961
0.000243186
0.000410752
0.000385052
0.000631224
0.000554586
0.000873332
0.000745391
0.0011252
0.000949632
0.00137564
0.00115904
0.00161487
0.00136589
0.00183518
0.00156378
0.00203131
0.00174806
0.0022005
0.00191591
0.0023422
0.0020662
0.00245762
0.00219915
0.0025492
0.00231597
0.00262007
0.00241848
0.00267365
0.00250876
0.00271328
0.00258896
0.00274209
0.00276241
0.00266138
1.10287e-05
-9.1567e-06
4.8591e-05
4.55264e-05
0.000115921
0.000156631
0.00021467
0.000312002
0.000344572
0.000501322
0.000503188
0.000714717
0.000685962
0.000942429
0.000886647
0.00117496
0.001098
0.00140352
0.00131264
0.00162054
0.00152378
0.00182017
0.00172582
0.00199845
0.00191468
0.00215334
0.00208783
0.00228447
0.00224419
0.00239284
0.00238387
0.00248039
0.00250787
0.00254965
0.00261776
0.0026034
0.00271541
0.00264444
0.00267467
0.00280316
9.0257e-06
-1.81824e-05
4.09519e-05
1.36002e-05
9.94072e-05
9.81758e-05
0.000186719
0.00022469
0.000303698
0.000384343
0.000449374
0.000569041
0.000620901
0.000770901
0.000813719
0.000982142
0.00102197
0.00119526
0.00123913
0.00140339
0.00145861
0.00160069
0.00167443
0.00178264
0.0018816
0.00194617
0.0020764
0.00208966
0.00225644
0.0022128
0.00242055
0.00231628
0.00256861
0.00240158
0.00270134
0.00247067
0.00281998
0.0025258
0.00256803
0.00292662
7.23218e-06
-2.54146e-05
3.3946e-05
-1.31136e-05
8.39557e-05
4.81661e-05
0.000159994
0.000148651
0.000263622
0.000280715
0.000395008
0.000437656
0.000552763
0.000613146
0.000733942
0.000800964
0.000934225
0.000994977
0.0011483
0.00118932
0.00137034
0.00137865
0.00159454
0.00155843
0.00181556
0.00172515
0.00202888
0.00187635
0.002231
0.00201068
0.00241949
0.00212778
0.00259302
0.00222806
0.00275113
0.00231256
0.00289412
0.0023828
0.00243867
0.00302349
5.65683e-06
-3.10714e-05
2.76415e-05
-3.50983e-05
6.97878e-05
6.01977e-06
0.000135016
8.34228e-05
0.000225351
0.000190381
0.000341767
0.00032124
0.000484027
0.000470886
0.000650586
0.000634404
0.000838628
0.000806936
0.00104424
0.000983705
0.00126272
0.00116017
0.00148897
0.00133219
0.00171785
0.00149626
0.00194459
0.00164961
0.00216501
0.00179026
0.00237572
0.00191707
0.00257419
0.00202959
0.00275876
0.00212799
0.00292854
0.00221302
0.00228303
0.00308418
4.29956e-06
-3.5371e-05
2.20699e-05
-5.28686e-05
5.70393e-05
-2.89497e-05
0.000112149
2.83136e-05
0.000189652
0.000112878
0.000291036
0.000219855
0.000416891
0.000345031
0.000566788
0.000484507
0.00073923
0.000634494
0.000931691
0.000791244
0.00114077
0.000951086
0.00136242
0.00111054
0.00159223
0.00126645
0.00182573
0.00141611
0.00205861
0.00155738
0.00228699
0.00168869
0.0025075
0.00180907
0.00271741
0.00191809
0.00291462
0.00201581
0.00209874
0.0030989
3.15151e-06
-3.85225e-05
1.72269e-05
-6.6944e-05
4.57604e-05
-5.74832e-05
9.15943e-05
-1.75203e-05
0.000157036
4.74363e-05
0.00024384
0.000133051
0.000353127
0.000235744
0.000485275
0.000352359
0.000639837
0.000479933
0.000815509
0.000615573
0.00101017
0.000756424
0.001221
0.000899712
0.00144463
0.00104282
0.00167736
0.00118339
0.00191533
0.00131941
0.00215473
0.00144929
0.00239191
0.0015719
0.00262346
0.00168654
0.00284639
0.00179288
0.00188535
0.00305979
2.1955e-06
-4.0718e-05
1.30746e-05
-7.78231e-05
3.59213e-05
-8.03299e-05
7.34025e-05
-5.50015e-05
0.000127754
-6.91524e-06
0.000200814
5.99905e-05
0.000293987
0.000142571
0.000408165
0.00023818
0.000543656
0.000344442
0.00070012
0.000459109
0.000876555
0.00057999
0.00107133
0.00070494
0.00128225
0.000831897
0.00150669
0.000958945
0.0017417
0.0010844
0.00198409
0.00120689
0.00223057
0.00132542
0.00247773
0.00143938
0.00272224
0.00154837
0.00164494
0.00296264
1.40737e-06
-4.21253e-05
9.54758e-06
-8.59633e-05
2.74247e-05
-9.8207e-05
5.74874e-05
-8.50642e-05
0.000101822
-5.12503e-05
0.000162221
-4.08297e-07
0.000240182
6.46106e-05
0.00033687
0.000141492
0.000453064
0.000228248
0.0005891
0.000323073
0.00074484
0.00042425
0.000919664
0.000530115
0.00111251
0.000639054
0.0013219
0.000749548
0.00154607
0.000860238
0.00178294
0.000970016
0.00203024
0.00107813
0.00228538
0.00118423
0.00254559
0.00128816
0.00138156
0.00280897
7.58403e-07
-4.28837e-05
6.56114e-06
-9.1766e-05
2.01244e-05
-0.00011177
4.36617e-05
-0.000108601
7.90685e-05
-8.66572e-05
0.000128008
-4.93477e-05
0.00019194
6.78728e-07
0.000272114
6.13175e-05
0.00036954
0.000130821
0.000484955
0.000207658
0.000618794
0.000290411
0.000771187
0.000377722
0.000941978
0.000468263
0.00113077
0.000560753
0.00133701
0.000653999
0.00156005
0.000746979
0.00179922
0.000838958
0.00205384
0.000929608
0.00232292
0.00101908
0.00110066
0.00260382
2.18676e-07
-4.31024e-05
4.02298e-06
-9.55703e-05
1.385e-05
-0.000121597
3.16794e-05
-0.000126431
5.91998e-05
-0.000114178
9.79011e-05
-8.8049e-05
0.000149121
-5.05413e-05
0.00021406
-3.62107e-06
0.000293772
5.11089e-05
0.000389154
0.000112276
0.000500933
0.000178633
0.000629671
0.000248984
0.0007758
0.000322134
0.0009397
0.000396854
0.00112183
0.00047187
0.00132293
0.000545874
0.00154438
0.000617508
0.00178866
0.000685334
0.00205935
0.000748389
0.000805551
0.00235445
-2.39329e-07
-4.28631e-05
1.84528e-06
-9.76549e-05
8.43276e-06
-0.000128185
2.12822e-05
-0.00013928
4.1878e-05
-0.000134773
7.15199e-05
-0.000117691
0.000111377
-9.03987e-05
0.000162515
-5.4759e-05
0.000225901
-1.22766e-05
0.0003024
3.57767e-05
0.000392773
8.82588e-05
0.000497686
0.000144071
0.000617739
0.000202082
0.000753547
0.000261045
0.000905909
0.000319508
0.00107612
0.000375667
0.00126653
0.000427098
0.00148188
0.000469976
0.00173329
0.000496981
0.000494471
0.00204437
-6.3689e-07
-4.22262e-05
-4.39022e-08
-9.82479e-05
3.72864e-06
-0.000131957
1.2241e-05
-0.000147793
2.67877e-05
-0.00014932
4.84818e-05
-0.000139385
7.83089e-05
-0.000120226
0.000117158
-9.36079e-05
0.00016583
-6.09489e-05
0.000225037
-2.34304e-05
0.000295388
1.7908e-05
0.000377372
6.20877e-05
0.000471334
0.000108119
0.000577447
0.000154932
0.000695647
0.000201309
0.00082551
0.000245803
0.000965953
0.000286655
0.00111426
0.000321669
0.00126285
0.000348386
0.000368526
0.0013888
-9.89982e-07
-4.12362e-05
-1.69904e-06
-9.75389e-05
-3.73291e-07
-0.000133283
4.37514e-06
-0.000152541
1.36744e-05
-0.000158619
2.84689e-05
-0.000154179
4.95712e-05
-0.000141328
7.76926e-05
-0.000121729
0.000113454
-9.671e-05
0.000157381
-6.73572e-05
0.000209886
-3.45975e-05
0.00027124
7.33956e-07
0.000341522
3.78371e-05
0.000420555
7.58994e-05
0.000507809
0.000114055
0.000602271
0.000151341