/*--------------------------------*- C++ -*----------------------------------*\
  =========                 |
  \\      /  F ield         | OpenFOAM: The Open Source CFD Toolbox
   \\    /   O peration     | Website:  https://openfoam.org
    \\  /    A nd           | Version:  6.0
     \\/     M anipulation  |
\*---------------------------------------------------------------------------*/
FoamFile
{
    version     2.0;
    format      ascii;
    class       volVectorField;
    location    "46";
    object      U;
}
// * * * * * * * * * * * * * * * * * * * * * * * * * * * * * * * * * * * * * //

dimensions      [0 1 -1 0 0 0 0];

internalField   nonuniform List<vector> 
4000
(
(-0.000404057 0.000122942 -3.20166e-21)
(-0.00225565 0.00044008 1.71117e-20)
(-0.00570461 0.000759801 -2.08101e-20)
(-0.00994908 0.00105946 1.58454e-20)
(-0.0145636 0.0013246 7.71532e-21)
(-0.0193032 0.00154834 -2.31662e-20)
(-0.0239923 0.00173035 -2.04768e-21)
(-0.0285171 0.00187456 -7.27048e-22)
(-0.0328151 0.00198749 -1.202e-20)
(-0.0368614 0.00207709 -6.51131e-21)
(-0.0406588 0.0021519 4.85712e-21)
(-0.0442303 0.00222032 1.8464e-20)
(-0.0476125 0.00229022 -1.38507e-21)
(-0.0508505 0.00236858 1.97504e-21)
(-0.0539948 0.00246135 -1.85889e-20)
(-0.0571043 0.00257319 1.14519e-20)
(-0.0602388 0.00270765 -1.6406e-20)
(-0.0633839 0.00286852 2.48221e-20)
(-0.0664296 0.00306035 -2.7661e-23)
(-0.0698963 0.0032754 5.35079e-21)
(-0.000466083 0.00107001 1.06289e-20)
(-0.00241729 0.00281496 -5.43015e-20)
(-0.00594011 0.0041439 -3.7499e-20)
(-0.0102336 0.00512166 -2.54666e-20)
(-0.014874 0.00580478 -3.27545e-20)
(-0.0196184 0.00624642 7.2192e-21)
(-0.0242931 0.0064988 -3.78067e-20)
(-0.0287864 0.00661104 -8.48927e-21)
(-0.0330372 0.00662805 2.68785e-21)
(-0.0370221 0.00659026 2.82624e-20)
(-0.040745 0.00653335 -3.08155e-20)
(-0.0442298 0.00648819 4.28583e-20)
(-0.0475144 0.00648076 -3.20874e-20)
(-0.0506449 0.00653212 -3.80449e-20)
(-0.0536732 0.00665843 -5.24206e-20)
(-0.0566596 0.00687066 3.34819e-20)
(-0.0596656 0.00717504 -1.08138e-20)
(-0.0626786 0.0075775 -3.93989e-20)
(-0.0655887 0.00808606 3.72579e-20)
(-0.068916 0.0086714 -2.76106e-20)
(-0.000603864 0.00201172 1.03835e-19)
(-0.0027701 0.00517238 5.37697e-20)
(-0.0064493 0.00749762 6.0465e-20)
(-0.0108451 0.00914033 5.02846e-21)
(-0.015539 0.0102283 3.34155e-20)
(-0.0202935 0.0108747 4.17256e-20)
(-0.0249401 0.011184 -7.57653e-20)
(-0.029371 0.0112501 -4.01292e-20)
(-0.0335289 0.011156 -5.22309e-20)
(-0.0373932 0.0109745 5.57902e-20)
(-0.0409701 0.0107684 -4.25983e-20)
(-0.0442859 0.0105913 -5.47721e-20)
(-0.0473805 0.0104877 -1.99236e-20)
(-0.0503027 0.0104934 1.89435e-20)
(-0.053107 0.0106355 -5.26215e-21)
(-0.0558568 0.0109322 7.60659e-21)
(-0.0586176 0.0113931 8.78668e-20)
(-0.0613803 0.0120269 -1.2345e-20)
(-0.0640349 0.0128459 -8.92837e-20)
(-0.0671044 0.0137991 1.17521e-19)
(-0.000817375 0.00294454 3.6087e-20)
(-0.00331346 0.00750114 -5.10355e-20)
(-0.00723063 0.0108019 -1.27978e-20)
(-0.0117809 0.0130887 2.3897e-20)
(-0.0165551 0.014561 6.78942e-20)
(-0.0213247 0.0153915 1.48662e-19)
(-0.0259291 0.0157366 1.45242e-19)
(-0.0302675 0.0157343 1.20454e-20)
(-0.0342878 0.0155051 8.90428e-20)
(-0.0379739 0.0151538 1.36269e-19)
(-0.0413355 0.0147703 -1.08889e-19)
(-0.044402 0.0144312 1.61127e-19)
(-0.0472167 0.0142005 -3.64248e-20)
(-0.0498317 0.0141298 9.2166e-21)
(-0.0523057 0.0142587 3.80698e-20)
(-0.0547071 0.0146138 5.05644e-20)
(-0.0571073 0.0152097 -7.95761e-20)
(-0.0595029 0.0160593 -6.63769e-20)
(-0.0617842 0.0171805 -1.17459e-19)
(-0.0644801 0.0185008 1.70773e-19)
(-0.00110657 0.00386522 -1.8861e-20)
(-0.00404614 0.00979052 -1.93009e-19)
(-0.00828098 0.0140385 -5.70817e-20)
(-0.0130358 0.0169414 -1.39103e-19)
(-0.0179151 0.0187708 5.25611e-20)
(-0.0227031 0.0197585 -8.29174e-20)
(-0.0272507 0.0201119 2.84749e-20)
(-0.0314665 0.020012 -1.75566e-19)
(-0.0353056 0.0196162 9.2585e-20)
(-0.0387576 0.0190601 -1.10432e-19)
(-0.0418368 0.0184611 -9.81997e-20)
(-0.0445765 0.017919 -1.0989e-19)
(-0.0470239 0.0175182 9.9753e-20)
(-0.0492356 0.0173279 -8.94981e-20)
(-0.0512754 0.017402 1.24653e-19)
(-0.0532184 0.0177783 3.60098e-20)
(-0.0551441 0.0184784 8.9098e-20)
(-0.0570571 0.0195216 3.9096e-20)
(-0.0588489 0.020934 -1.54754e-19)
(-0.0610593 0.0226216 2.51787e-19)
(-0.00147133 0.00477072 8.30407e-20)
(-0.00496597 0.0120301 6.42643e-21)
(-0.0095949 0.0171898 3.42132e-20)
(-0.0146007 0.0206746 1.1941e-19)
(-0.0196061 0.0228282 -1.83133e-20)
(-0.024413 0.0239415 1.93867e-19)
(-0.0288871 0.024271 8.59984e-20)
(-0.032949 0.0240397 7.22303e-21)
(-0.0365635 0.0234399 2.21131e-19)
(-0.0397268 0.0226376 7.2425e-20)
(-0.0424587 0.0217764 3.43384e-20)
(-0.0447967 0.0209802 1.0904e-19)
(-0.0467925 0.0203547 9.99143e-20)
(-0.0485074 0.0199885 1.82343e-19)
(-0.0500115 0.019953 -1.62975e-19)
(-0.0513876 0.0203001 2.30253e-19)
(-0.052726 0.0210623 2.93167e-21)
(-0.0540419 0.0222684 -2.94166e-19)
(-0.0552298 0.0239569 3.81172e-19)
(-0.0568463 0.0260129 1.57962e-19)
(-0.00191135 0.00565793 -4.89438e-20)
(-0.00606934 0.0142093 -8.87814e-20)
(-0.0111635 0.0202383 -1.84823e-19)
(-0.0164604 0.0242652 -5.4765e-21)
(-0.0216073 0.0267064 3.14993e-20)
(-0.026428 0.0279106 -2.35995e-19)
(-0.0308075 0.0281821 -1.75057e-19)
(-0.0346815 0.0277833 -2.5052e-20)
(-0.038026 0.0269397 -2.2137e-19)
(-0.0408457 0.0258456 -1.53219e-19)
(-0.0431662 0.0246702 -4.46508e-20)
(-0.0450297 0.0235607 -1.43731e-19)
(-0.0464918 0.0226454 -2.35028e-21)
(-0.047619 0.0220346 -1.9077e-19)
(-0.0484876 0.0218203 8.02367e-20)
(-0.0491899 0.0220731 -9.15416e-20)
(-0.0498285 0.022841 7.0038e-20)
(-0.0504324 0.0241681 -8.9224e-20)
(-0.0509025 0.0261111 -2.54641e-19)
(-0.05182 0.0285359 -7.73459e-20)
(-0.00242593 0.00652326 -1.7962e-20)
(-0.00735047 0.0163165 -1.95153e-20)
(-0.0129732 0.023166 1.54917e-19)
(-0.0185925 0.0276907 -2.52034e-19)
(-0.0238867 0.0303806 3.69817e-20)
(-0.0287075 0.0316406 -1.45538e-19)
(-0.0329635 0.0318207 6.88121e-20)
(-0.0366088 0.0312202 3.09112e-19)
(-0.0396332 0.0300943 -1.98505e-20)
(-0.0420511 0.0286635 -2.30495e-19)
(-0.0438945 0.0271202 4.19362e-20)
(-0.0452101 0.0256342 8.12578e-21)
(-0.0460572 0.0243566 -4.72294e-20)
(-0.0465067 0.0234211 4.85613e-21)
(-0.0466411 0.0229444 4.15235e-19)
(-0.0465623 0.0230211 -5.91861e-20)
(-0.0463877 0.0237217 -1.15241e-19)
(-0.0461629 0.0251132 -2.06595e-19)
(-0.0457994 0.0272792 2.10792e-19)
(-0.0459148 0.0300708 9.09562e-20)
(-0.00301359 0.00736215 9.08739e-20)
(-0.0088004 0.018338 -1.18843e-19)
(-0.0150038 0.0259528 1.68042e-19)
(-0.020964 0.0309278 1.69155e-19)
(-0.0263981 0.0338267 1.55954e-19)
(-0.0311921 0.0351098 3.16234e-19)
(-0.035283 0.0351698 2.04455e-19)
(-0.0386473 0.0343391 -4.39256e-19)
(-0.0412914 0.0328995 2.24589e-19)
(-0.0432407 0.0310934 1.76166e-19)
(-0.0445348 0.0291334 -2.47083e-21)
(-0.0452245 0.0272097 1.97068e-19)
(-0.0453722 0.0254951 1.53566e-19)
(-0.0450517 0.0241482 -8.35956e-20)
(-0.0443511 0.0233133 2.8218e-19)
(-0.0433816 0.0231156 -3.49803e-19)
(-0.0422766 0.0236562 1.39918e-19)
(-0.0411016 0.0250364 1.79884e-19)
(-0.0397839 0.0273801 -4.19546e-20)
(-0.0389932 0.0305304 3.61613e-19)
(-0.00367165 0.00816853 1.82417e-19)
(-0.0104059 0.0202572 9.45542e-21)
(-0.0172271 0.0285755 -6.55036e-20)
(-0.0235294 0.0339506 -6.92254e-20)
(-0.0290776 0.0370205 -3.20446e-19)
(-0.0337989 0.0382987 4.53571e-20)
(-0.037664 0.038218 1.28533e-19)
(-0.0406764 0.0371399 -6.17848e-20)
(-0.042862 0.0353681 5.09573e-20)
(-0.0442599 0.0331623 -1.35583e-20)
(-0.0449179 0.0307507 -6.65602e-20)
(-0.0448914 0.0283396 6.31353e-20)
(-0.044245 0.0261208 -2.74495e-19)
(-0.0430544 0.0242769 2.63094e-19)
(-0.0414109 0.0229824 -2.27778e-19)
(-0.0394342 0.0223983 7.03946e-20)
(-0.0372739 0.0226668 1.59945e-19)
(-0.0350181 0.0239374 -3.33811e-20)
(-0.0326158 0.0263939 -1.10674e-19)
(-0.0308102 0.0298844 -7.5305e-20)
(-0.00439565 0.00893437 -2.27154e-19)
(-0.0121481 0.0220535 -1.49905e-20)
(-0.019605 0.0310064 4.78463e-20)
(-0.0262285 0.0367292 1.23067e-19)
(-0.0318408 0.0399344 -1.73752e-19)
(-0.0364173 0.0411872 -1.5161e-19)
(-0.0399689 0.040957 3.53797e-19)
(-0.0425303 0.0396306 -1.95504e-19)
(-0.0441511 0.0375285 -1.26073e-19)
(-0.0448867 0.034922 -1.80807e-19)
(-0.0447953 0.0320489 1.19661e-19)
(-0.0439381 0.0291253 -3.31843e-21)
(-0.0423815 0.0263571 -2.23383e-19)
(-0.0402016 0.0239467 -3.65162e-19)
(-0.0374913 0.022098 2.78158e-19)
(-0.0343765 0.0210118 -2.25184e-19)
(-0.0310221 0.0208805 3.19256e-19)
(-0.0275397 0.02192 -8.95138e-20)
(-0.0239056 0.0244005 1.877e-19)
(-0.0209647 0.0281959 -6.38495e-19)
(-0.00517884 0.00964946 -4.59858e-19)
(-0.0140019 0.023702 3.01643e-19)
(-0.0220882 0.0332124 4.10373e-20)
(-0.0289842 0.039228 7.93493e-21)
(-0.0345796 0.0425357 -1.86076e-19)
(-0.0389055 0.0437509 2.73626e-19)
(-0.0420187 0.0433771 2.98607e-20)
(-0.0439905 0.0418222 -5.60949e-20)
(-0.0448983 0.0394186 -1.79948e-19)
(-0.0448176 0.0364437 1.94506e-19)
(-0.0438204 0.0331374 4.92876e-19)
(-0.0419757 0.0297185 -1.08914e-19)
(-0.0393534 0.0263976 2.45851e-19)
(-0.03603 0.0233897 -2.90288e-19)
(-0.0320982 0.0209221 -2.7816e-19)
(-0.0276874 0.0192343 1.67323e-19)
(-0.0229759 0.0185753 2.76171e-19)
(-0.0180973 0.0192451 -8.94545e-19)
(-0.013058 0.0216348 1.05193e-19)
(-0.00884053 0.0256775 1.42959e-19)
(-0.00601179 0.0103015 3.40489e-19)
(-0.0159345 0.0251728 1.12028e-19)
(-0.0246154 0.035154 5.83922e-19)
(-0.0317019 0.041404 3.00594e-20)
(-0.0371616 0.0447837 -6.49399e-20)
(-0.0410883 0.0459578 -3.09242e-19)
(-0.0435906 0.0454616 2.62999e-19)
(-0.0447811 0.0437213 4.71679e-19)
(-0.0447695 0.0410775 3.14137e-19)
(-0.0436563 0.037808 2.26679e-19)
(-0.0415315 0.0341489 1.95295e-19)
(-0.0384764 0.030312 -3.5076e-19)
(-0.0345684 0.0265028 -1.09818e-19)
(-0.0298869 0.022936 -8.07797e-20)
(-0.024525 0.0198502 8.65845e-19)
(-0.0186141 0.0175135 -3.12043e-21)
(-0.0123428 0.0162294 -2.15539e-19)
(-0.00586314 0.0163947 -6.76672e-20)
(0.000792621 0.0185613 6.18121e-19)
(0.00646311 0.0227674 8.08438e-20)
(-0.00688215 0.0108764 -1.67745e-20)
(-0.0179055 0.0264326 -3.22271e-19)
(-0.0271124 0.0367863 -4.79585e-19)
(-0.0342688 0.0432066 -1.33483e-19)
(-0.0394293 0.046628 7.3708e-20)
(-0.0427567 0.0477642 1.5892e-20)
(-0.0444163 0.047181 4.20753e-19)
(-0.0445664 0.0453214 -5.21813e-19)
(-0.0433535 0.0425323 -1.98455e-19)
(-0.0409074 0.0390892 -3.99747e-19)
(-0.0373421 0.035219 -3.40321e-19)
(-0.0327579 0.0311198 -3.01143e-19)
(-0.0272466 0.0269804 7.52833e-20)
(-0.0208978 0.0230001 -9.76547e-20)
(-0.01381 0.0194093 4.18206e-19)
(-0.00611923 0.0164841 -2.29376e-19)
(0.00197635 0.0145639 -7.17988e-19)
(0.0103129 0.0141402 -1.44496e-19)
(0.0188476 0.0159614 3.53948e-19)
(0.0262015 0.0202286 -3.09112e-19)
(-0.00777478 0.0113596 -5.43285e-20)
(-0.0198667 0.0274452 3.94249e-19)
(-0.0294932 0.0380595 -5.02928e-19)
(-0.0365542 0.0445781 1.16231e-19)
(-0.0412004 0.0480084 -2.39471e-19)
(-0.0436685 0.0491129 5.33428e-19)
(-0.0441839 0.0484883 -3.81161e-19)
(-0.0429537 0.0465948 4.3595e-19)
(-0.040164 0.0437858 -4.13297e-19)
(-0.0359788 0.0403352 1.76214e-19)
(-0.0305419 0.03646 -8.55697e-20)
(-0.023981 0.0323412 -2.14575e-19)
(-0.0164133 0.0281435 -2.64898e-19)
(-0.00795083 0.0240369 2.63901e-19)
(0.00128933 0.0202212 -2.20867e-19)
(0.0111563 0.0169482 -4.82514e-19)
(0.0214354 0.0145546 5.02229e-19)
(0.0319549 0.0135944 -6.40171e-19)
(0.042694 0.0150261 2.87853e-19)
(0.0520383 0.0192671 7.92349e-21)
(-0.0086721 0.0117367 -4.92814e-19)
(-0.0217628 0.0281745 -5.32394e-19)
(-0.0316593 0.0389221 6.133e-20)
(-0.0384101 0.0454566 -5.13645e-19)
(-0.0422691 0.048857 -4.57649e-20)
(-0.0435502 0.0499352 -3.77766e-19)
(-0.0425408 0.0493192 -8.66559e-20)
(-0.0394978 0.0474885 -2.5318e-19)
(-0.0346485 0.0448068 2.22541e-21)
(-0.0281934 0.0415502 -1.10721e-19)
(-0.0203115 0.0379308 7.76626e-21)
(-0.011167 0.0341166 -3.18679e-19)
(-0.000915315 0.0302491 3.50929e-19)
(0.0102907 0.0264633 -4.97739e-19)
(0.0222934 0.0229115 1.76173e-19)
(0.0349034 0.0197878 6.58232e-21)
(0.0478673 0.0173692 -2.80238e-19)
(0.0609944 0.0161979 6.94546e-19)
(0.074335 0.0174001 -1.65827e-19)
(0.0860785 0.0216231 -1.08096e-19)
(-0.00955466 0.0119948 5.53425e-19)
(-0.0235317 0.0285865 2.98949e-19)
(-0.0335005 0.0393244 2.78124e-19)
(-0.0396711 0.0457808 4.15283e-20)
(-0.0424059 0.0491046 3.76193e-19)
(-0.0420981 0.0501566 5.42148e-19)
(-0.0390971 0.0495977 4.43884e-19)
(-0.0337082 0.0479296 3.96133e-20)
(-0.0261992 0.0455309 3.24795e-19)
(-0.0168075 0.0426879 5.01702e-19)
(-0.00575035 0.0396179 -1.30075e-19)
(0.00676498 0.0364879 2.18263e-19)
(0.0205316 0.0334292 1.76241e-19)
(0.0353355 0.0305522 1.79203e-19)
(0.050949 0.0279638 1.05812e-18)
(0.0671068 0.025783 -3.96512e-19)
(0.0834709 0.0241711 -2.41693e-20)
(0.0997848 0.0235425 4.59193e-19)
(0.116211 0.0250595 -2.6031e-19)
(0.130898 0.0295258 1.29361e-19)
(-0.0104016 0.0121238 -4.47795e-19)
(-0.0251046 0.0286524 2.88358e-20)
(-0.0348942 0.0392232 -3.58808e-19)
(-0.0401526 0.0454967 -4.66986e-20)
(-0.041356 0.048689 2.62662e-19)
(-0.0389773 0.0497092 -7.81648e-19)
(-0.033426 0.0492512 -4.13066e-22)
(-0.0250536 0.0478411 3.63565e-19)
(-0.0141652 0.0458779 3.41474e-19)
(-0.00103338 0.0436663 -1.50339e-19)
(0.0140866 0.0414417 4.94815e-20)
(0.0309409 0.0393884 1.14839e-19)
(0.049262 0.0376518 -5.44222e-20)
(0.0687564 0.0363485 -6.08892e-19)
(0.0890938 0.0355739 1.54177e-19)
(0.109883 0.0353995 4.23653e-19)
(0.130629 0.0358626 -6.0352e-19)
(0.150898 0.0371463 2.94349e-19)
(0.170949 0.0402657 7.89822e-20)
(0.189238 0.0459831 4.02022e-19)
(-0.0111909 0.0121166 -6.63136e-20)
(-0.0264056 0.0283503 -3.14103e-19)
(-0.0357027 0.0385865 1.44462e-19)
(-0.0396479 0.0445659 5.54508e-22)
(-0.0388353 0.0475681 -6.29999e-19)
(-0.0338174 0.0485484 9.82928e-20)
(-0.0250621 0.0482323 -1.86269e-20)
(-0.0129637 0.0471707 1.2708e-19)
(0.00213869 0.0457855 -5.81522e-19)
(0.0199407 0.0444058 -4.05911e-20)
(0.0401519 0.0432956 -1.36318e-19)
(0.0624737 0.0426742 1.21485e-19)
(0.0865781 0.0427309 4.09329e-19)
(0.112085 0.0436358 -6.33095e-20)
(0.138539 0.0455467 2.44454e-20)
(0.165366 0.0485954 1.60989e-19)
(0.191792 0.0528341 -3.96734e-20)
(0.216975 0.0583581 3.24414e-19)
(0.240974 0.0661431 -1.88293e-19)
(0.262935 0.0764981 -2.98574e-19)
(-0.0118987 0.0119692 6.13917e-20)
(-0.0273495 0.0276676 1.48615e-20)
(-0.0357703 0.0373978 1.26023e-19)
(-0.037923 0.0429734 3.08666e-19)
(-0.034524 0.0457321 1.73155e-19)
(-0.0262066 0.0466715 1.80603e-20)
(-0.0134962 0.0465452 -2.06691e-19)
(0.00317116 0.0459255 5.3007e-20)
(0.0234232 0.0452547 2.78387e-19)
(0.0469254 0.0448844 -4.71635e-19)
(0.0733556 0.0451074 3.55722e-19)
(0.102381 0.0461816 -2.67881e-19)
(0.133633 0.0483528 2.27167e-19)
(0.166689 0.0518764 -4.89749e-19)
(0.201031 0.0570419 5.38521e-19)
(0.235991 0.064185 -5.75954e-19)
(0.2706 0.0736777 -1.49737e-19)
(0.30353 0.0861629 4.70739e-19)
(0.333669 0.103495 -1.58735e-19)
(0.35832 0.12502 7.19406e-20)
(-0.0124986 0.0116806 -4.65614e-20)
(-0.0278389 0.0266008 4.39159e-19)
(-0.0349188 0.0356599 -1.88798e-21)
(-0.0347108 0.040735 -2.7254e-19)
(-0.0280609 0.0432157 -1.83322e-19)
(-0.0156863 0.0441361 3.35744e-19)
(0.00182649 0.0442712 -1.32982e-19)
(0.0239943 0.0442076 -1.67635e-20)
(0.0504038 0.0443983 2.76721e-19)
(0.08068 0.0452046 -3.43833e-19)
(0.11446 0.0469287 3.75926e-20)
(0.151376 0.0498403 -4.4645e-19)
(0.191037 0.0542029 2.34964e-19)
(0.233033 0.0603043 -6.72301e-19)
(0.27694 0.0684968 1.07115e-18)
(0.322327 0.0792516 -1.95972e-19)
(0.368806 0.0932866 2.05733e-19)
(0.416341 0.11213 -5.34145e-19)
(0.465491 0.138725 1.82164e-21)
(0.508894 0.167849 6.20061e-19)
(-0.0129591 0.011251 -1.41247e-19)
(-0.0277609 0.0251555 1.22106e-19)
(-0.0329423 0.0333962 -4.48996e-19)
(-0.0297064 0.0379022 6.63947e-19)
(-0.019039 0.0401062 -4.7925e-19)
(-0.00174942 0.0410719 2.46665e-20)
(0.0215032 0.0415871 -5.16339e-19)
(0.050171 0.0422414 3.6905e-19)
(0.0837745 0.0434834 -5.27947e-20)
(0.121865 0.045662 -3.25362e-19)
(0.163999 0.0490563 -1.89656e-19)
(0.209721 0.0538982 2.00393e-19)
(0.258561 0.0603922 1.32488e-19)
(0.310049 0.0687325 -5.86687e-19)
(0.363743 0.0791204 2.11727e-19)
(0.419274 0.0917763 -3.12761e-19)
(0.47641 0.106964 3.77118e-20)
(0.535313 0.12521 -2.67848e-19)
(0.59696 0.147667 1.13408e-19)
(0.654096 0.169486 -4.07121e-19)
(-0.0132418 0.0106813 4.02034e-19)
(-0.0269826 0.0233459 -2.43251e-19)
(-0.0296039 0.0306519 2.00441e-19)
(-0.0225654 0.0345636 -2.53013e-19)
(-0.00700732 0.0365466 4.24302e-19)
(0.0161521 0.037685 -7.55047e-21)
(0.0461577 0.0387687 -5.16066e-20)
(0.0823628 0.0403765 -3.82434e-20)
(0.124175 0.0429342 2.3529e-19)
(0.171014 0.0467535 3.99763e-19)
(0.222281 0.0520583 -2.36188e-19)
(0.277352 0.0590031 2.29415e-19)
(0.335577 0.0676855 4.19059e-19)
(0.396306 0.0781552 -2.93918e-19)
(0.458919 0.0904172 -5.98071e-19)
(0.522873 0.104425 1.09474e-18)
(0.587734 0.12006 -1.95405e-19)
(0.653281 0.137186 -6.40404e-20)
(0.719855 0.156167 6.96136e-19)
(0.781921 0.175446 -1.44905e-19)
(-0.0132989 0.00997283 -6.55199e-19)
(-0.0253487 0.0211948 -4.36172e-19)
(-0.0246356 0.0274937 -1.67437e-19)
(-0.0129073 0.0308452 3.22868e-19)
(0.0085182 0.0327335 -7.28504e-19)
(0.0385859 0.034252 3.76973e-19)
(0.0764041 0.0361784 4.77351e-20)
(0.121173 0.0390624 4.8132e-20)
(0.172116 0.043284 -4.93131e-19)
(0.228438 0.0490895 -1.74111e-19)
(0.289295 0.0566148 -3.06707e-19)
(0.353796 0.0659026 2.96088e-19)
(0.421018 0.0769135 8.41212e-20)
(0.490038 0.0895352 1.64279e-20)
(0.559975 0.103586 3.87281e-19)
(0.630025 0.118811 -3.91789e-19)
(0.699499 0.134872 -1.64987e-20)
(0.767842 0.151359 9.09334e-21)
(0.834827 0.168174 5.28253e-20)
(0.897137 0.18644 3.11206e-19)
(-0.013072 0.00912744 2.0874e-19)
(-0.0226809 0.018734 5.37685e-19)
(-0.0177406 0.0240098 4.31515e-19)
(-0.000325844 0.0269083 -1.48624e-19)
(0.0280336 0.0289122 5.16468e-19)
(0.0661017 0.0311081 -4.34647e-20)
(0.112789 0.0342417 -6.12628e-20)
(0.167061 0.0388083 3.64359e-20)
(0.227865 0.0451111 4.98311e-19)
(0.294089 0.053295 2.92569e-19)
(0.364543 0.0633711 8.53607e-20)
(0.437983 0.0752361 5.2011e-21)
(0.513147 0.0886899 -5.67069e-19)
(0.588805 0.103452 4.92564e-19)
(0.663811 0.119175 8.48927e-20)
(0.737146 0.135455 -1.39256e-19)
(0.80795 0.151838 -6.0814e-19)
(0.875537 0.167844 -5.244e-20)
(0.9394 0.18304 2.4203e-19)
(0.998362 0.200366 -5.03099e-20)
(-0.0124913 0.00814878 -5.30568e-19)
(-0.0187792 0.0160067 2.21972e-19)
(-0.0086014 0.0203118 -1.08293e-18)
(0.015594 0.0229481 4.43134e-19)
(0.0520166 0.0253696 -3.53282e-19)
(0.0991831 0.0286329 2.60422e-19)
(0.155718 0.0334217 -4.04115e-19)
(0.220248 0.0401411 3.71193e-20)
(0.29133 0.048975 -2.07458e-20)
(0.367425 0.0599226 1.0842e-19)
(0.44691 0.0728275 1.56651e-19)
(0.528135 0.0874082 -2.96152e-19)
(0.609487 0.103287 1.56638e-19)
(0.689466 0.12002 1.44084e-19)
(0.766749 0.137127 6.2448e-19)
(0.840236 0.154112 -2.70725e-19)
(0.909071 0.170484 -1.81399e-19)
(0.972659 0.185802 3.05673e-19)
(1.03054 0.199491 1.65209e-19)
(1.08301 0.215399 -3.07776e-19)
(-0.0114762 0.00704442 4.65355e-19)
(-0.0134267 0.0130713 4.48751e-19)
(0.00310907 0.0165366 1.29166e-19)
(0.0352539 0.0191933 5.44289e-19)
(0.080889 0.0224291 2.6709e-19)
(0.138191 0.0272353 -4.8121e-19)
(0.205383 0.0341917 7.2843e-19)
(0.280625 0.0435626 -3.58363e-19)
(0.361963 0.0553584 3.57426e-19)
(0.447333 0.0693801 4.62312e-19)
(0.53463 0.0852621 -2.64112e-19)
(0.621802 0.102519 5.01378e-20)
(0.706954 0.120595 2.79975e-19)
(0.788437 0.138907 1.97491e-19)
(0.864921 0.156888 4.56009e-19)
(0.935421 0.174015 -1.81774e-19)
(0.9993 0.189835 -2.18433e-20)
(1.05625 0.204002 2.90325e-19)
(1.10613 0.215996 -6.20739e-20)
(1.15014 0.229854 4.71842e-22)
(-0.00993743 0.00582851 -2.40364e-19)
(-0.00639677 0.0100058 -8.83384e-19)
(0.017712 0.0128503 2.07871e-19)
(0.0590161 0.0159064 -1.58177e-19)
(0.114976 0.0204433 -3.6474e-19)
(0.183307 0.0273379 -2.59917e-19)
(0.261692 0.0370071 -1.60494e-19)
(0.347686 0.0495089 3.89959e-19)
(0.43871 0.0646165 -2.31518e-19)
(0.532127 0.0818793 -2.36743e-19)
(0.625362 0.10069 -2.99702e-19)
(0.716052 0.120354 -4.95112e-20)
(0.802173 0.140161 -3.33247e-20)
(0.882132 0.15944 -6.94143e-19)
(0.954809 0.177605 3.37414e-19)
(1.01955 0.194181 -4.43603e-19)
(1.07614 0.208822 1.40384e-19)
(1.12471 0.221326 -1.06819e-18)
(1.16559 0.231364 3.21693e-19)
(1.20039 0.242679 4.10103e-19)
(-0.00777995 0.00452442 -6.02731e-20)
(0.00253776 0.0069123 4.31705e-19)
(0.0355049 0.00945169 2.76213e-20)
(0.0871733 0.0133823 6.65087e-20)
(0.154465 0.0197867 -1.35187e-19)
(0.234486 0.0293591 -2.10954e-21)
(0.324221 0.0422767 -3.35338e-21)
(0.420492 0.0583134 -8.12134e-20)
(0.520032 0.0769387 2.88124e-19)
(0.619643 0.0974081 1.11497e-19)
(0.716388 0.118863 5.05603e-19)
(0.807777 0.140427 -1.38074e-19)
(0.891891 0.161291 9.64099e-20)
(0.967437 0.180773 -1.26983e-20)
(1.03374 0.19835 2.67222e-19)
(1.09066 0.213677 1.64009e-19)
(1.13851 0.226571 3.96566e-19)
(1.17795 0.237002 -6.4127e-19)
(1.20977 0.244893 8.0865e-19)
(1.23579 0.253456 -2.56604e-19)
(-0.00490637 0.00316718 -5.63786e-19)
(0.0135931 0.00392148 -1.75588e-19)
(0.0567414 0.00657423 1.37503e-19)
(0.11992 0.0119461 8.6623e-20)
(0.199367 0.0208444 8.83418e-20)
(0.291411 0.0336921 8.97359e-20)
(0.392188 0.0503335 -2.24193e-19)
(0.497696 0.0701752 -9.26986e-20)
(0.603986 0.0923264 2.87867e-20)
(0.707413 0.115732 -2.74259e-19)
(0.804889 0.13931 -1.24021e-19)
(0.894058 0.162067 7.50293e-19)
(0.973379 0.183182 -1.93426e-19)
(1.0421 0.202056 -2.67261e-19)
(1.10017 0.218318 -1.27306e-19)
(1.14809 0.23181 8.791e-20)
(1.18672 0.242553 1.07836e-19)
(1.21719 0.250695 -5.17144e-19)
(1.24068 0.256397 7.49711e-19)
(1.25903 0.262288 -6.50518e-19)
(-0.00122137 0.00180518 -6.41612e-20)
(0.0269621 0.00119433 1.84311e-20)
(0.08161 0.00448531 -2.31857e-20)
(0.157322 0.0119457 3.40246e-19)
(0.249486 0.0239967 1.84973e-20)
(0.353479 0.040681 1.24723e-19)
(0.464466 0.0614067 -2.58736e-19)
(0.577607 0.0851373 -9.40903e-21)
(0.688376 0.110592 3.59062e-19)
(0.792909 0.136429 5.00069e-20)
(0.888253 0.161413 -3.12787e-19)
(0.972495 0.184532 -2.73515e-20)
(1.04473 0.205064 -2.57287e-19)
(1.10495 0.222586 2.56079e-19)
(1.15379 0.236946 3.56389e-19)
(1.19239 0.248212 -3.93272e-20)
(1.22213 0.25661 -4.81067e-20)
(1.24446 0.262447 1.46601e-19)
(1.26081 0.266068 -4.72451e-19)
(1.27295 0.269573 4.15762e-19)
(0.00336376 0.000501135 6.4008e-20)
(0.0428009 -0.00107782 -4.1408e-19)
(0.110213 0.00348177 1.10913e-19)
(0.199292 0.0137401 -3.42975e-19)
(0.304397 0.0295986 1.17816e-19)
(0.419797 0.050595 -4.37381e-19)
(0.539634 0.0755996 1.76239e-19)
(0.658309 0.103081 -5.59854e-20)
(0.770952 0.131382 -2.21862e-21)
(0.873789 0.158947 5.72905e-20)
(0.964345 0.184497 -2.09055e-19)
(1.04144 0.207126 -2.98377e-19)
(1.105 0.226313 -6.12261e-20)
(1.15582 0.24189 -2.7477e-20)
(1.19526 0.253961 -6.98204e-20)
(1.22497 0.26282 -2.27769e-20)
(1.2467 0.268873 -6.8198e-20)
(1.2621 0.272547 -5.91948e-20)
(1.27268 0.274305 -1.76496e-19)
(1.28006 0.275807 2.80291e-19)
(0.00892628 -0.000668024 1.54789e-19)
(0.0612153 -0.00267618 -1.7178e-19)
(0.142548 0.00388122 3.69403e-19)
(0.245571 0.0176829 -1.59165e-19)
(0.363443 0.0379573 4.25259e-19)
(0.489221 0.0636054 5.84225e-21)
(0.616061 0.092878 2.13243e-19)
(0.73782 0.12374 -5.68381e-20)
(0.849608 0.154224 2.37931e-19)
(0.94812 0.182681 1.72346e-20)
(1.03168 0.207927 5.66347e-19)
(1.10005 0.22928 -3.91061e-19)
(1.1541 0.24651 5.26843e-20)
(1.1954 0.259743 1.00536e-19)
(1.2259 0.269341 5.27063e-19)
(1.24765 0.275798 -1.89381e-19)
(1.26257 0.279649 -3.75954e-20)
(1.27235 0.281396 -1.99305e-19)
(1.27847 0.281561 -2.10382e-20)
(1.28237 0.281454 9.98062e-20)
(0.0155269 -0.00161207 -7.46364e-20)
(0.082248 -0.00336013 2.15066e-19)
(0.178489 0.00600951 -2.19482e-19)
(0.295718 0.0241029 8.69702e-20)
(0.42575 0.0493086 -1.03301e-19)
(0.560408 0.07977 3.79743e-19)
(0.692027 0.113074 -5.26367e-20)
(0.814248 0.146731 1.30239e-19)
(0.922567 0.178586 -7.65018e-20)
(1.01451 0.207049 -1.83415e-21)
(1.08947 0.231173 8.7535e-20)
(1.14826 0.250602 -6.76968e-20)
(1.19265 0.265448 1.75699e-19)
(1.22491 0.276133 -8.75172e-20)
(1.24739 0.283247 -3.85609e-19)
(1.26234 0.287435 3.83425e-19)
(1.27172 0.289312 -1.72849e-19)
(1.27714 0.289404 1.37998e-19)
(1.27994 0.288247 2.39448e-19)
(1.28138 0.286883 9.82596e-20)
(0.0232046 -0.00222946 1.85563e-19)
(0.105868 -0.00287537 -3.82219e-19)
(0.217781 0.0101852 7.32139e-20)
(0.349115 0.0332824 -5.29833e-20)
(0.490261 0.0637985 -2.13049e-19)
(0.6319 0.0990269 -1.67065e-19)
(0.765846 0.135905 -3.27589e-20)
(0.885941 0.171601 -2.97527e-19)
(0.988492 0.203938 -1.79593e-20)
(1.07218 0.231551 -5.51881e-20)
(1.13758 0.253852 -1.49843e-19)
(1.18658 0.27088 -3.32983e-20)
(1.22174 0.283097 -1.14659e-19)
(1.24581 0.291193 -1.9127e-19)
(1.2614 0.295936 1.9583e-19)
(1.27078 0.298065 2.69639e-20)
(1.27582 0.298223 5.37122e-20)
(1.27797 0.296923 -2.25546e-19)
(1.27839 0.294688 -5.68839e-21)
(1.27812 0.292348 -3.4766e-19)
(0.0319721 -0.0024102 2.04018e-19)
(0.131959 -0.000964162 1.35898e-19)
(0.260031 0.0167023 -2.18574e-19)
(0.404982 0.0454383 3.413e-19)
(0.555791 0.0814709 -3.66625e-20)
(0.702223 0.121202 1.27202e-19)
(0.835983 0.161003 4.39778e-20)
(0.951588 0.197871 1.55712e-19)
(1.04653 0.229797 -1.21891e-19)
(1.12085 0.255796 4.05323e-20)
(1.17637 0.275728 -3.89525e-20)
(1.21591 0.290051 -1.71521e-20)
(1.24264 0.299551 3.25247e-20)
(1.25961 0.305138 -5.98972e-20)
(1.26949 0.307695 -1.83636e-20)
(1.27446 0.308 -5.6214e-20)
(1.27619 0.306686 -9.13821e-20)
(1.27595 0.304223 5.90217e-20)
(1.2747 0.301111 -8.08501e-20)
(1.27328 0.298004 3.49266e-19)
(0.0418117 -0.00203951 -1.02075e-19)
(0.16032 0.00262289 -2.88603e-19)
(0.30472 0.0258133 -3.83689e-20)
(0.46241 0.0607063 -1.0306e-20)
(0.621091 0.102265 -1.28907e-19)
(0.769973 0.146027 -2.11353e-19)
(0.901149 0.187953 6.91137e-20)
(1.01027 0.225082 -9.49326e-20)
(1.09631 0.255764 -1.06306e-19)
(1.16074 0.279515 5.91289e-20)
(1.20655 0.296694 -4.46781e-20)
(1.23732 0.308159 -9.02516e-20)
(1.25664 0.314975 -2.96077e-21)
(1.26766 0.318205 6.10717e-20)
(1.27296 0.318791 -6.21208e-20)
(1.27452 0.317504 8.62445e-20)
(1.27381 0.314932 2.32231e-20)
(1.27187 0.311492 5.83911e-20)
(1.26947 0.307656 1.13616e-19)
(1.26729 0.303928 -9.72728e-20)
(0.0526722 -0.00100231 9.75881e-20)
(0.19066 0.00811435 -8.82131e-21)
(0.351211 0.0377129 4.35565e-20)
(0.520402 0.0791306 -5.92306e-20)
(0.684921 0.126019 4.79162e-21)
(0.833902 0.173162 2.04941e-19)
(0.960349 0.216326 -1.34645e-19)
(1.06144 0.252822 5.68696e-20)
(1.13781 0.281528 5.00559e-20)
(1.19233 0.302545 -1.40833e-19)
(1.229 0.316734 1.32168e-19)
(1.25195 0.325313 1.13419e-21)
(1.26496 0.329557 -9.2867e-20)
(1.27112 0.330619 1.11884e-19)
(1.27283 0.329447 -4.43039e-20)
(1.27184 0.326772 3.38627e-20)
(1.26936 0.323118 -3.79096e-20)
(1.26624 0.318843 -1.51472e-20)
(1.26307 0.314394 -1.32151e-19)
(1.26039 0.310135 4.0386e-20)
(0.064467 0.000811838 -3.30268e-20)
(0.222604 0.0157055 8.83544e-20)
(0.398776 0.0525255 1.37295e-20)
(0.57792 0.100661 5.76512e-20)
(0.746113 0.152487 2.7427e-20)
(0.892965 0.202223 1.28504e-20)
(1.0129 0.245706 7.28401e-20)
(1.10491 0.280739 -8.87748e-21)
(1.17133 0.306866 3.20119e-20)
(1.21634 0.324807 5.1402e-20)
(1.24468 0.335896 2.47442e-20)
(1.26085 0.341647 1.77277e-20)
(1.26863 0.343475 7.18324e-20)
(1.27093 0.342566 -6.95063e-20)
(1.26991 0.339831 1.48989e-20)
(1.26704 0.335938 -1.38689e-20)
(1.26331 0.331336 2.15544e-20)
(1.25939 0.326327 1.80269e-20)
(1.25572 0.321338 3.75214e-20)
(1.25273 0.316601 1.60634e-21)
(0.0770747 0.00350357 1.95725e-20)
(0.255703 0.025547 1.78712e-20)
(0.446625 0.070296 -2.47015e-20)
(0.633936 0.125155 1.54262e-20)
(0.803623 0.181352 8.68826e-21)
(0.946354 0.232808 -2.70249e-20)
(1.0584 0.275705 8.90209e-21)
(1.14075 0.308546 1.59543e-21)
(1.19736 0.331622 1.53138e-20)
(1.23352 0.346275 -4.09841e-20)
(1.25451 0.354252 -1.07971e-22)
(1.26496 0.35729 1.13015e-20)
(1.2685 0.356879 -9.00419e-21)
(1.26782 0.354183 9.10641e-21)
(1.26475 0.350052 2.36585e-20)
(1.26054 0.345073 -1.34181e-20)
(1.25596 0.339622 3.75928e-21)
(1.25152 0.333948 1.46436e-20)
(1.24755 0.328467 -2.41177e-20)
(1.24437 0.323275 1.15777e-20)
(0.0775005 -0.00350763 5.31315e-20)
(0.256878 -0.0255824 -2.91751e-20)
(0.448413 -0.0703719 3.44022e-20)
(0.636153 -0.125237 -2.5603e-20)
(0.806061 -0.181387 -1.15665e-20)
(0.948827 -0.232744 3.57478e-21)
(1.06077 -0.275507 -1.14349e-20)
(1.14293 -0.308197 4.13086e-20)
(1.19932 -0.331126 -3.45395e-20)
(1.23526 -0.345645 7.89044e-21)
(1.25606 -0.353511 -6.09118e-21)
(1.26633 -0.356458 -3.98626e-20)
(1.26974 -0.355977 3.87944e-20)
(1.26894 -0.353228 1.50125e-20)
(1.26579 -0.349057 -1.44461e-20)
(1.2615 -0.344048 3.4684e-20)
(1.25685 -0.338573 -4.26616e-22)
(1.25235 -0.332882 -3.375e-20)
(1.24833 -0.327387 2.47418e-20)
(1.2451 -0.322182 8.23576e-21)
(0.0648638 -0.000801912 -1.9072e-20)
(0.223728 -0.0157046 5.1416e-20)
(0.400527 -0.0525556 6.00846e-20)
(0.58014 -0.100701 -2.90572e-20)
(0.74861 -0.152491 5.0166e-20)
(0.895549 -0.202144 8.13636e-20)
(1.01542 -0.245503 -4.60873e-21)
(1.10726 -0.280391 -1.46006e-20)
(1.17346 -0.306367 7.22219e-20)
(1.21823 -0.324167 3.56768e-20)
(1.24636 -0.335133 -6.67098e-21)
(1.26234 -0.340782 5.42514e-20)
(1.26995 -0.342529 -5.81299e-20)
(1.27213 -0.341557 9.30537e-20)
(1.271 -0.338775 -1.5184e-20)
(1.26804 -0.334846 4.62551e-20)
(1.26424 -0.330217 9.04585e-21)
(1.26025 -0.325187 3.29947e-20)
(1.25652 -0.320183 -3.09809e-20)
(1.25348 -0.315431 8.61238e-21)
(0.0530372 0.00102406 -2.81836e-20)
(0.191722 -0.00808087 6.1467e-20)
(0.352904 -0.0376996 4.57563e-20)
(0.522599 -0.079128 -7.28869e-21)
(0.687452 -0.125992 7.64517e-20)
(0.83658 -0.173066 -6.04499e-20)
(0.96301 -0.216121 -6.29513e-21)
(1.06396 -0.252478 5.43619e-20)
(1.14012 -0.281035 1.80955e-20)
(1.19441 -0.301905 2.52778e-20)
(1.23084 -0.315961 -3.72372e-20)
(1.25358 -0.324425 1.03781e-19)
(1.2664 -0.328575 2.01221e-20)
(1.27241 -0.329563 -9.14233e-20)
(1.27399 -0.328334 1.40629e-19)
(1.27289 -0.325616 -1.66369e-19)
(1.27033 -0.321929 -7.90613e-20)
(1.26713 -0.317629 1.35529e-20)
(1.26389 -0.313162 7.61347e-20)
(1.26115 -0.308886 -1.4403e-19)
(0.0421431 0.00207072 -5.90299e-20)
(0.161312 -0.00256121 -1.38424e-19)
(0.306337 -0.0257601 -1.21984e-19)
(0.46456 -0.0606623 -1.66276e-19)
(0.623627 -0.102205 -9.88401e-20)