/*--------------------------------*- C++ -*----------------------------------*\
  =========                 |
  \\      /  F ield         | OpenFOAM: The Open Source CFD Toolbox
   \\    /   O peration     | Website:  https://openfoam.org
    \\  /    A nd           | Version:  6.0
     \\/     M anipulation  |
\*---------------------------------------------------------------------------*/
FoamFile
{
    version     2.0;
    format      ascii;
    class       volScalarField;
    location    "82";
    object      p;
}
// * * * * * * * * * * * * * * * * * * * * * * * * * * * * * * * * * * * * * //

dimensions      [0 2 -2 0 0 0 0];

internalField   nonuniform List<scalar> 
12500
(
-0.486281
-0.487715
-0.488548
-0.48914
-0.489791
-0.490613
-0.491657
-0.492932
-0.494411
-0.496051
-0.497797
-0.499596
-0.501396
-0.503148
-0.50481
-0.506344
-0.507723
-0.508925
-0.509941
-0.510761
-0.511369
-0.511776
-0.512195
-0.512783
-0.511569
-0.497114
-0.498296
-0.499036
-0.499644
-0.500391
-0.501387
-0.502678
-0.504264
-0.50611
-0.508161
-0.510357
-0.512633
-0.514927
-0.51718
-0.519341
-0.521362
-0.523205
-0.52484
-0.526247
-0.527411
-0.528307
-0.528943
-0.529541
-0.530267
-0.529037
-0.50789
-0.508777
-0.509397
-0.510004
-0.510834
-0.511993
-0.51352
-0.515406
-0.517607
-0.520061
-0.522695
-0.525437
-0.528212
-0.530954
-0.533598
-0.536088
-0.538374
-0.540418
-0.542189
-0.543665
-0.544815
-0.545643
-0.546376
-0.5472
-0.545969
-0.518515
-0.519067
-0.519542
-0.520127
-0.521021
-0.522323
-0.524067
-0.526235
-0.528773
-0.53161
-0.534663
-0.53785
-0.541087
-0.544296
-0.547402
-0.550339
-0.553045
-0.55547
-0.557576
-0.55933
-0.560697
-0.561677
-0.562499
-0.563373
-0.562152
-0.528891
-0.529075
-0.52938
-0.52992
-0.530853
-0.532273
-0.534207
-0.536627
-0.539473
-0.542663
-0.546106
-0.549708
-0.553378
-0.557025
-0.560565
-0.563919
-0.567014
-0.569789
-0.572195
-0.574191
-0.575736
-0.576824
-0.577681
-0.578545
-0.577331
-0.538922
-0.538713
-0.538824
-0.539295
-0.540238
-0.541742
-0.543828
-0.546463
-0.549576
-0.553079
-0.55687
-0.560848
-0.56491
-0.568956
-0.572891
-0.576624
-0.580071
-0.583158
-0.585825
-0.588022
-0.589701
-0.590849
-0.591681
-0.592464
-0.591238
-0.548515
-0.5479
-0.547798
-0.548172
-0.54909
-0.550639
-0.552833
-0.555633
-0.558963
-0.562726
-0.566813
-0.571114
-0.575516
-0.57991
-0.58419
-0.588253
-0.592005
-0.59536
-0.598243
-0.600595
-0.602359
-0.603516
-0.60426
-0.604883
-0.603609
-0.55759
-0.556567
-0.556236
-0.556486
-0.557342
-0.558889
-0.561138
-0.564045
-0.56753
-0.571488
-0.575807
-0.580366
-0.585044
-0.589724
-0.594287
-0.598623
-0.602624
-0.606192
-0.60924
-0.611696
-0.613496
-0.614607
-0.615199
-0.61558
-0.614211
-0.566076
-0.564658
-0.564087
-0.564187
-0.564942
-0.566435
-0.568679
-0.571628
-0.575196
-0.579278
-0.583752
-0.588493
-0.593373
-0.598264
-0.60304
-0.60758
-0.611764
-0.615484
-0.618638
-0.621143
-0.622924
-0.623936
-0.624314
-0.62437
-0.622851
-0.573922
-0.572133
-0.57132
-0.571244
-0.571859
-0.573246
-0.575422
-0.578339
-0.581913
-0.586035
-0.590582
-0.595421
-0.600418
-0.605439
-0.610348
-0.615014
-0.619308
-0.62311
-0.626307
-0.6288
-0.630504
-0.631361
-0.631466
-0.63112
-0.629385
-0.581095
-0.578972
-0.57792
-0.57765
-0.578086
-0.579314
-0.581356
-0.584166
-0.587665
-0.591742
-0.596273
-0.60112
-0.606146
-0.611207
-0.616163
-0.620872
-0.625198
-0.629007
-0.632175
-0.634591
-0.636157
-0.636801
-0.636575
-0.635749
-0.633727
-0.587584
-0.585177
-0.583896
-0.583416
-0.583639
-0.584659
-0.586502
-0.589133
-0.592474
-0.59642
-0.600844
-0.60561
-0.610573
-0.615585
-0.620499
-0.625167
-0.629441
-0.633179
-0.636244
-0.638513
-0.639874
-0.640241
-0.639622
-0.638239
-0.635848
-0.593399
-0.590766
-0.589275
-0.588574
-0.588556
-0.589322
-0.590909
-0.593291
-0.596398
-0.60013
-0.604362
-0.608958
-0.61377
-0.618647
-0.623434
-0.627975
-0.632116
-0.635703
-0.638588
-0.640635
-0.641719
-0.641739
-0.640659
-0.638637
-0.635776
-0.598574
-0.595778
-0.594099
-0.593176
-0.592896
-0.593372
-0.594652
-0.596723
-0.599527
-0.60297
-0.606933
-0.611279
-0.61586
-0.62052
-0.6251
-0.629436
-0.633364
-0.636721
-0.639348
-0.641094
-0.641822
-0.641417
-0.639801
-0.637047
-0.633599
-0.603163
-0.60027
-0.598431
-0.597287
-0.596733
-0.59689
-0.597825
-0.599536
-0.601979
-0.60507
-0.608697
-0.612724
-0.617004
-0.621376
-0.625676
-0.629733
-0.633375
-0.636426
-0.638717
-0.640081
-0.640369
-0.639453
-0.637215
-0.633631
-0.629458
-0.607237
-0.604313
-0.602344
-0.600987
-0.600153
-0.599975
-0.600536
-0.601851
-0.603891
-0.606582
-0.60982
-0.613472
-0.617392
-0.621416
-0.625374
-0.629087
-0.632372
-0.635044
-0.636919
-0.637819
-0.637578
-0.636058
-0.633108
-0.628596
-0.623545
-0.610887
-0.607991
-0.60592
-0.604363
-0.60325
-0.602732
-0.602904
-0.603802
-0.605411
-0.607669
-0.61048
-0.613717
-0.617231
-0.620857
-0.624418
-0.627726
-0.630589
-0.632809
-0.63419
-0.634539
-0.63368
-0.631461
-0.627709
-0.622184
-0.616104
-0.614215
-0.611396
-0.60925
-0.607508
-0.606126
-0.60527
-0.605053
-0.605526
-0.606691
-0.608498
-0.610859
-0.613651
-0.616725
-0.619913
-0.623028
-0.625876
-0.628252
-0.629947
-0.630752
-0.630463
-0.628893
-0.625885
-0.621254
-0.614657
-0.607422
-0.617334
-0.61463
-0.612431
-0.610518
-0.608882
-0.607699
-0.607101
-0.607156
-0.607878
-0.60923
-0.611131
-0.613461
-0.616069
-0.618782
-0.621407
-0.623739
-0.62556
-0.626653
-0.626798
-0.625783
-0.623415
-0.619537
-0.613967
-0.606282
-0.597816
-0.620365
-0.617797
-0.61556
-0.613492
-0.611617
-0.610127
-0.609166
-0.608818
-0.60911
-0.610013
-0.611453
-0.613309
-0.61543
-0.617635
-0.619724
-0.621479
-0.622676
-0.623084
-0.622481
-0.620652
-0.617406
-0.612593
-0.60605
-0.597312
-0.587608
-0.62343
-0.621001
-0.618734
-0.616523
-0.614428
-0.612652
-0.611354
-0.610626
-0.610507
-0.610975
-0.611956
-0.613331
-0.614944
-0.616606
-0.618107
-0.61922
-0.619713
-0.619351
-0.61791
-0.615183
-0.61099
-0.605199
-0.597684
-0.587975
-0.577103
-0.626649
-0.624345
-0.622047
-0.619702
-0.617405
-0.615369
-0.613759
-0.612679
-0.612172
-0.612218
-0.612746
-0.61363
-0.614709
-0.615785
-0.616639
-0.617038
-0.616741
-0.615517
-0.613149
-0.609445
-0.60425
-0.597467
-0.589022
-0.578476
-0.56659
-0.630135
-0.627925
-0.625585
-0.623112
-0.620629
-0.618355
-0.616462
-0.615056
-0.614181
-0.613819
-0.613892
-0.61427
-0.614782
-0.615221
-0.615362
-0.614963
-0.613787
-0.611605
-0.608217
-0.603455
-0.597201
-0.589406
-0.580072
-0.568813
-0.556154
-0.633989
-0.631826
-0.629426
-0.626826
-0.624168
-0.621677
-0.619524
-0.617814
-0.616589
-0.615824
-0.615434
-0.61528
-0.615182
-0.614925
-0.614277
-0.612996
-0.610847
-0.607617
-0.603121
-0.597217
-0.589818
-0.580915
-0.57055
-0.558385
-0.545164
-0.638296
-0.636122
-0.633636
-0.630904
-0.628079
-0.625384
-0.622988
-0.620989
-0.619421
-0.618249
-0.617377
-0.616656
-0.615896
-0.614875
-0.61336
-0.611113
-0.607913
-0.603562
-0.597902
-0.590813
-0.582228
-0.572126
-0.560439
-0.546802
-0.533126
-0.643123
-0.64087
-0.638267
-0.635392
-0.632399
-0.629509
-0.626879
-0.624597
-0.622682
-0.621087
-0.619702
-0.618367
-0.616883
-0.615027
-0.612568
-0.609282
-0.604969
-0.59946
-0.592629
-0.584396
-0.574726
-0.563609
-0.551004
-0.53705
-0.523579
-0.648518
-0.646113
-0.643357
-0.640322
-0.637156
-0.634068
-0.631203
-0.628631
-0.626354
-0.624308
-0.622368
-0.620362
-0.618087
-0.615322
-0.611848
-0.607463
-0.601996
-0.595318
-0.587345
-0.578043
-0.567423
-0.555531
-0.542434
-0.528394
-0.514458
-0.654509
-0.65188
-0.648931
-0.645716
-0.642362
-0.639067
-0.635954
-0.633075
-0.630408
-0.62787
-0.62532
-0.622579
-0.619441
-0.615696
-0.611145
-0.605616
-0.598977
-0.591143
-0.582076
-0.57179
-0.560336
-0.547802
-0.534294
-0.520045
-0.505777
-0.661109
-0.658186
-0.655003
-0.651581
-0.64802
-0.644499
-0.641118
-0.637902
-0.634805
-0.631722
-0.6285
-0.624952
-0.620879
-0.616088
-0.610408
-0.603707
-0.595896
-0.586939
-0.576846
-0.565671
-0.553502
-0.540454
-0.526652
-0.512317
-0.497988
-0.668317
-0.665034
-0.661577
-0.657921
-0.654128
-0.650355
-0.646674
-0.64308
-0.639501
-0.635811
-0.631844
-0.627414
-0.622334
-0.616437
-0.60959
-0.601705
-0.592742
-0.582713
-0.571669
-0.559701
-0.546924
-0.533467
-0.519462
-0.505117
-0.490835
-0.676122
-0.672421
-0.668652
-0.664733
-0.660679
-0.65662
-0.6526
-0.648577
-0.644453
-0.640082
-0.635291
-0.6299
-0.623745
-0.616692
-0.608653
-0.599588
-0.589507
-0.578466
-0.566554
-0.553888
-0.540599
-0.526824
-0.512692
-0.498401
-0.48425
-0.684506
-0.680337
-0.676222
-0.672011
-0.667663
-0.663281
-0.658871
-0.654358
-0.649615
-0.64448
-0.63878
-0.632349
-0.625055
-0.616806
-0.607562
-0.597336
-0.586184
-0.574199
-0.561502
-0.548226
-0.534509
-0.520486
-0.506278
-0.49207
-0.478072
-0.693448
-0.688769
-0.684277
-0.679745
-0.67507
-0.670319
-0.665461
-0.660386
-0.654939
-0.648949
-0.642249
-0.634702
-0.626211
-0.616737
-0.606291
-0.594934
-0.582765
-0.56991
-0.556507
-0.5427
-0.528625
-0.514406
-0.500155
-0.486039
-0.472195
-0.702919
-0.697695
-0.692802
-0.687923
-0.682883
-0.677713
-0.67234
-0.666618
-0.660372
-0.653429
-0.645639
-0.6369
-0.627166
-0.616449
-0.604814
-0.592367
-0.579243
-0.56559
-0.551556
-0.537286
-0.522907
-0.508532
-0.494253
-0.480224
-0.466517
-0.712889
-0.707093
-0.701778
-0.696526
-0.691082
-0.685434
-0.679469
-0.673005
-0.665856
-0.657856
-0.648886
-0.638889
-0.627874
-0.615909
-0.60311
-0.589623
-0.575607
-0.561226
-0.546629
-0.531954
-0.517315
-0.502808
-0.48851
-0.474553
-0.460956
-0.723318
-0.716931
-0.711177
-0.705528
-0.699636
-0.693445
-0.686798
-0.679488
-0.671324
-0.662162
-0.651925
-0.640611
-0.628291
-0.615086
-0.601158
-0.586685
-0.571843
-0.5568
-0.5417
-0.526668
-0.511804
-0.497182
-0.482862
-0.46896
-0.455447
-0.734159
-0.727168
-0.720964
-0.714891
-0.708503
-0.701693
-0.694265
-0.685995
-0.6767
-0.666272
-0.654689
-0.642013
-0.628375
-0.61395
-0.598937
-0.583536
-0.567932
-0.552288
-0.536739
-0.521391
-0.506325
-0.491599
-0.477255
-0.463387
-0.449933
-0.745355
-0.737753
-0.73109
-0.724566
-0.717626
-0.710112
-0.701794
-0.692443
-0.681899
-0.670107
-0.65711
-0.643039
-0.628085
-0.61247
-0.596423
-0.580154
-0.56385
-0.547662
-0.531709
-0.516078
-0.500832
-0.486008
-0.471634
-0.457785
-0.444368
-0.756834
-0.748622
-0.741494
-0.734488
-0.726933
-0.718618
-0.709294
-0.698735
-0.686829
-0.673583
-0.659117
-0.643634
-0.62738
-0.610616
-0.593589
-0.576514
-0.559568
-0.542888
-0.526571
-0.510687
-0.495276
-0.480359
-0.46595
-0.452104
-0.438709
-0.768512
-0.759697
-0.752098
-0.744575
-0.736332
-0.727113
-0.716657
-0.704766
-0.691388
-0.676613
-0.660641
-0.643743
-0.626218
-0.608353
-0.590406
-0.572586
-0.555054
-0.537927
-0.521283
-0.505169
-0.489607
-0.474603
-0.460156
-0.446301
-0.432918
-0.780288
-0.770883
-0.762808
-0.754727
-0.745716
-0.735481
-0.723764
-0.71042
-0.695474
-0.679109
-0.661609
-0.643311
-0.624554
-0.605645
-0.586839
-0.568333
-0.550268
-0.532739
-0.5158
-0.499478
-0.483778
-0.468691
-0.454205
-0.440334
-0.426958
-0.792046
-0.782072
-0.773514
-0.764829
-0.754961
-0.743589
-0.730486
-0.715574
-0.698979
-0.680981
-0.661951
-0.642282
-0.622345
-0.602453
-0.582851
-0.563718
-0.54517
-0.527277
-0.510073
-0.493564
-0.47774
-0.462577
-0.448053
-0.434161
-0.420792
-0.803653
-0.793136
-0.78409
-0.774746
-0.763925
-0.751296
-0.736682
-0.720102
-0.701793
-0.682141
-0.661597
-0.640601
-0.619544
-0.598734
-0.578401
-0.558696
-0.539713
-0.521496
-0.504055
-0.48738
-0.471444
-0.456213
-0.441655
-0.427743
-0.414385
-0.814962
-0.803935
-0.794392
-0.784329
-0.772453
-0.758446
-0.742209
-0.723876
-0.70381
-0.682503
-0.660477
-0.638211
-0.6161
-0.594443
-0.573442
-0.553223
-0.533851
-0.515345
-0.497696
-0.480875
-0.464842
-0.449555
-0.43497
-0.42104
-0.407702
-0.825812
-0.814312
-0.804261
-0.793414
-0.780381
-0.764879
-0.746916
-0.726766
-0.704923
-0.681981
-0.658524
-0.635055
-0.611966
-0.589532
-0.567928
-0.547251
-0.527534
-0.508776
-0.490946
-0.474001
-0.457889
-0.442559
-0.427955
-0.414016
-0.400709
-0.836029
-0.824099
-0.813527
-0.801827
-0.787532
-0.770428
-0.750657
-0.728647
-0.70503
-0.680494
-0.655672
-0.631078
-0.607088
-0.583952
-0.561811
-0.540729
-0.520714
-0.501739
-0.483758
-0.466712
-0.45054
-0.435181
-0.420573
-0.406632
-0.393373
-0.845431
-0.833117
-0.822008
-0.809383
-0.793727
-0.774926
-0.753285
-0.729399
-0.704033
-0.677963
-0.651855
-0.626222
-0.601416
-0.577653
-0.55504
-0.533608
-0.513339
-0.494186
-0.476084
-0.458963
-0.442751
-0.427383
-0.412784
-0.398856
-0.385662
-0.853827
-0.841177
-0.829514
-0.815893
-0.798785
-0.77821
-0.75466
-0.728904
-0.701841
-0.674313
-0.647011
-0.620432
-0.594898
-0.570586
-0.547567
-0.52584
-0.505364
-0.486069
-0.467879
-0.45071
-0.434483
-0.419125
-0.404553
-0.390654
-0.377547
-0.861021
-0.848087
-0.835852
-0.821166
-0.802525
-0.78012
-0.754647
-0.727057
-0.698366
-0.669476
-0.641081
-0.613656
-0.587483
-0.5627
-0.539341
-0.517377
-0.49674
-0.477345
-0.4591
-0.441913
-0.425696
-0.410373
-0.395848
-0.381996
-0.369
-0.866817
-0.853651
-0.840826
-0.825011
-0.804773
-0.780504
-0.753122
-0.723757
-0.693531
-0.663386
-0.634009
-0.605841
-0.579123
-0.553949
-0.530318
-0.508173
-0.487424
-0.467971
-0.449708
-0.432534
-0.416357
-0.401094
-0.386639
-0.372855
-0.359994
-0.871021
-0.857675
-0.844242
-0.827244
-0.805362
-0.779221
-0.749971
-0.718914
-0.687263
-0.655983
-0.625742
-0.59694
-0.56977
-0.544287
-0.520454
-0.498187
-0.477377
-0.457908
-0.439666
-0.42254
-0.406434
-0.391258
-0.376899
-0.363206
-0.350508
-0.87344
-0.859968
-0.845913
-0.827687
-0.804136
-0.776141
-0.745092
-0.712448
-0.679498
-0.647215
-0.616234
-0.586907
-0.559383
-0.533672
-0.509707
-0.487379
-0.46656
-0.447123
-0.428942
-0.411902
-0.395899
-0.380842
-0.366604
-0.353028
-0.340523
-0.873893
-0.860347
-0.845659
-0.826176
-0.800953
-0.771151
-0.738394
-0.70429
-0.670182
-0.637034
-0.60544
-0.575704
-0.547923
-0.522068
-0.498043
-0.475715
-0.454943
-0.435585
-0.417509
-0.400592
-0.384729
-0.369823
-0.355736
-0.342305
-0.330023
-0.872208
-0.85864
-0.843315
-0.822561
-0.795688
-0.76415
-0.729803
-0.694383
-0.659267
-0.6254
-0.593326
-0.563294
-0.535355
-0.509442
-0.48543
-0.463167
-0.442496
-0.423268
-0.405342
-0.388591
-0.372905
-0.358185
-0.344279
-0.331022
-0.318995
-0.868227
-0.85469
-0.838729
-0.816707
-0.78823
-0.755055
-0.719257
-0.682678
-0.646716
-0.61228
-0.579859
-0.549648
-0.521651
-0.495766
-0.471841
-0.449708
-0.429198
-0.410152
-0.392424
-0.375882
-0.360413
-0.345914
-0.332222
-0.319172
-0.307433
-0.861811
-0.848355
-0.831769
-0.808501
-0.77849
-0.743799
-0.706707
-0.669141
-0.632501
-0.597649
-0.565017
-0.534744
-0.506789
-0.481018
-0.457257
-0.435321
-0.415032
-0.396222
-0.378741
-0.362453
-0.347242
-0.333004
-0.31956
-0.30675
-0.295333
-0.852837
-0.839512
-0.82232
-0.797848
-0.766397
-0.730334
-0.69212
-0.653748
-0.616602
-0.58149
-0.548783
-0.518564
-0.490752
-0.465183
-0.441663
-0.419993
-0.399985
-0.381468
-0.364285
-0.348297
-0.333389
-0.31945
-0.306291
-0.293756
-0.282695
-0.841204
-0.828059
-0.81029
-0.784675
-0.7519
-0.714627
-0.675478
-0.636488
-0.599012
-0.563795
-0.531148
-0.5011
-0.473531
-0.448252
-0.42505
-0.403715
-0.384052
-0.365884
-0.349051
-0.333413
-0.318852
-0.305254
-0.292418
-0.280195
-0.269524
-0.826832
-0.813917
-0.795611
-0.768932
-0.73497
-0.696666
-0.656776
-0.617361
-0.57973
-0.544565
-0.51211
-0.482349
-0.455124
-0.430222
-0.407416
-0.386486
-0.367232
-0.349472
-0.333043
-0.317804
-0.303636
-0.290422
-0.277949
-0.266075
-0.255831
-0.809666
-0.797029
-0.778237
-0.750591
-0.715596
-0.676451
-0.636026
-0.59638
-0.55877
-0.523808
-0.491678
-0.462316
-0.435533
-0.411096
-0.388764
-0.368311
-0.34953
-0.332237
-0.316268
-0.301478
-0.287752
-0.274965
-0.262896
-0.251412
-0.241629
-0.789675
-0.777365
-0.758148
-0.729649
-0.693789
-0.654006
-0.61325
-0.573568
-0.536151
-0.501542
-0.469866
-0.441014
-0.41477
-0.390884
-0.369104
-0.349198
-0.330955
-0.314189
-0.298735
-0.284449
-0.271212
-0.2589
-0.247277
-0.236224
-0.226938
-0.766853
-0.754918
-0.735346
-0.706122
-0.66958
-0.629365
-0.588487
-0.548961
-0.511906
-0.477795
-0.446696
-0.418462
-0.392854
-0.369603
-0.348452
-0.329162
-0.311522
-0.295344
-0.280462
-0.266732
-0.254035
-0.242244
-0.231113
-0.220535
-0.211782
-0.741218
-0.729707
-0.70986
-0.680051
-0.643017
-0.602582
-0.561789
-0.522605
-0.486076
-0.452603
-0.422201
-0.394689
-0.369806
-0.347274
-0.326826
-0.308223
-0.291251
-0.275721
-0.261468
-0.248347
-0.236243
-0.225022
-0.21443
-0.204371
-0.196187
-0.712814
-0.701775
-0.681741
-0.651499
-0.614169
-0.573726
-0.533221
-0.494561
-0.458713
-0.42601
-0.396419
-0.369729
-0.34566
-0.323924
-0.304253
-0.286404
-0.270162
-0.255341
-0.241774
-0.229319
-0.217859
-0.207259
-0.197256
-0.187766
-0.180186
-0.68171
-0.671191
-0.651065
-0.620547
-0.583122
-0.54288
-0.50286
-0.464897
-0.429878
-0.398071
-0.369398
-0.343622
-0.32045
-0.299587
-0.280762
-0.263731
-0.248282
-0.234229
-0.221405
-0.20967
-0.198909
-0.188984
-0.179624
-0.170752
-0.163813
-0.647998
-0.638045
-0.617927
-0.587298
-0.549977
-0.510142
-0.470796
-0.433694
-0.399642
-0.368848
-0.341194
-0.316419
-0.29422
-0.2743
-0.256385
-0.240234
-0.225637
-0.212408
-0.200384
-0.189426
-0.17942
-0.170225
-0.161566
-0.15337
-0.147109
-0.611791
-0.602451
-0.582447
-0.551873
-0.514855
-0.475624
-0.437131
-0.401043
-0.368089
-0.338414
-0.311869
-0.288174
-0.267019
-0.248104
-0.231159
-0.215945
-0.202254
-0.189904
-0.178734
-0.168608
-0.159415
-0.151011
-0.143116
-0.135661
-0.130127
-0.573228
-0.564546
-0.544761
-0.51441
-0.477888
-0.439452
-0.401979
-0.367049
-0.335308
-0.306851
-0.281496
-0.258951
-0.238901
-0.221047
-0.205123
-0.190894
-0.178158
-0.166737
-0.156473
-0.147235
-0.138912
-0.131363
-0.124305
-0.117669
-0.112922
-0.532465
-0.524483
-0.505027
-0.475063
-0.439225
-0.401761
-0.365467
-0.331823
-0.301402
-0.274249
-0.250157
-0.228822
-0.209928
-0.193181
-0.17832
-0.165116
-0.153375
-0.142924
-0.133612
-0.125312
-0.117918
-0.11129
-0.105152
-0.0994294
-0.0955258
-0.489677
-0.482436
-0.463417
-0.434001
-0.399025
-0.362702
-0.327729
-0.29549
-0.266483
-0.24071
-0.217941
-0.197866
-0.18017
-0.164564
-0.150795
-0.138645
-0.127925
-0.118474
-0.110148
-0.102829
-0.0964146
-0.0907745
-0.0856472
-0.0809356
-0.0779084
-0.445056
-0.438595
-0.420118
-0.391407
-0.357461
-0.322434
-0.288913
-0.258183
-0.230673
-0.206345
-0.18495
-0.166174
-0.149706
-0.135263
-0.122604
-0.111518
-0.101831
-0.0933904
-0.0860671
-0.0797522
-0.0743558
-0.0697601
-0.0657261
-0.0621235
-0.060029
-0.39881
-0.393162
-0.37533
-0.347474
-0.314715
-0.281126
-0.249175
-0.220047
-0.194107
-0.171278
-0.151297
-0.133849
-0.118627
-0.105358
-0.0938097
-0.0837852
-0.0751219
-0.0676839
-0.0613587
-0.0560555
-0.051698
-0.0481876
-0.0453316
-0.0430103
-0.0421152
-0.351156
-0.346355
-0.329267
-0.302404
-0.270979
-0.238957
-0.208679
-0.181236
-0.156926
-0.135641
-0.117107
-0.101007
-0.0870396
-0.074941
-0.0644892
-0.0555014
-0.0478302
-0.0413596
-0.0360039
-0.0317011
-0.0283954
-0.0260252
-0.0245367
-0.0239733
-0.0249118
-0.302326
-0.298399
-0.282147
-0.25641
-0.226451
-0.19611
-0.1676
-0.14191
-0.119283
-0.0995808
-0.082518
-0.0677779
-0.0550646
-0.0441216
-0.0347353
-0.0267331
-0.0199807
-0.0143825
-0.00988517
-0.00646399
-0.00409479
-0.00281483
-0.00293236
-0.00488166
-0.0082626
-0.252558
-0.249528
-0.234199
-0.209707
-0.181334
-0.152777
-0.126113
-0.102239
-0.0813392
-0.0632509
-0.0476799
-0.0343099
-0.0228486
-0.013044
-0.00468567
0.00239762
0.00834015
0.0132355
0.0171326
0.020061
0.0220617
0.0229833
0.0219732
0.0181637
0.0137729
-0.202099
-0.199983
-0.185655
-0.162517
-0.135836
-0.109151
-0.0844028
-0.0623945
-0.04326
-0.0268132
-0.0127531
-0.00076481
0.00944029
0.0181115
0.025459
0.0316588
0.0368563
0.0411665
0.0446802
0.0475146
0.0498548
0.0516353
0.0517597
0.0495765
0.053563
-0.151187
-0.150004
-0.136749
-0.115062
-0.0901639
-0.0654274
-0.0426511
-0.022551
-0.00521297
0.00956897
0.0220999
0.0326922
0.0416298
0.0491577
0.055484
0.060785
0.0652101
0.0688838
0.0719196
0.0744662
0.0767195
0.0786425
0.0796123
0.0801286
0.0867954
-0.100076
-0.0998349
-0.0877157
-0.0675634
-0.044527
-0.0217996
-0.00104087
0.0171185
0.0326361
0.0457342
0.05672
0.0659017
0.0735571
0.0799259
0.0852124
0.0895911
0.093212
0.0962038
0.0986874
0.10081
0.102739
0.104429
0.105433
0.106329
0.112375
-0.0490126
-0.0497207
-0.0387904
-0.0202431
0.0008691
0.0215401
0.0402484
0.0564445
0.0701252
0.0815263
0.0909546
0.0987122
0.105069
0.110258
0.114476
0.117893
0.120655
0.122887
0.12471
0.12626
0.127685
0.128953
0.129685
0.130336
0.135236
0.00175557
9.74401e-05
0.00979564
0.0266814
0.045822
0.0644038
0.0810415
0.0952624
0.107099
0.116797
0.124661
0.130985
0.136031
0.140022
0.143146
0.145566
0.147419
0.148825
0.149893
0.150745
0.151507
0.152136
0.152287
0.152385
0.15621
0.0519863
0.0493817
0.0578148
0.0729971
0.0901343
0.106609
0.121169
0.133414
0.143408
0.151405
0.157706
0.162595
0.166323
0.169103
0.171115
0.172511
0.17342
0.173951
0.174203
0.174284
0.1743
0.174192
0.173643
0.173078
0.175867
0.101442
0.0978994
0.105045
0.118497
0.133614
0.147978
0.160466
0.170747
0.178911
0.185219
0.189966
0.193425
0.195838
0.197405
0.198296
0.198653
0.198595
0.198221
0.19762
0.196886
0.196107
0.195215
0.193924
0.192666
0.194466
0.149892
0.145424
0.151271
0.162979
0.176077
0.188342
0.198778
0.207116
0.213475
0.218115
0.221326
0.223371
0.224479
0.22484
0.224613
0.223929
0.222898
0.221609
0.22014
0.218576
0.216988
0.215303
0.213268
0.21132
0.212176
0.197112
0.191738
0.196284
0.206251
0.217344
0.227536
0.235953
0.242384
0.246971
0.249976
0.251679
0.252335
0.25216
0.251332
0.249999
0.248284
0.246286
0.244086
0.241754
0.239363
0.236971
0.234507
0.231746
0.229125
0.229078
0.242888
0.236629
0.239886
0.248128
0.257246
0.265406
0.271848
0.27642
0.279279
0.28069
0.280925
0.280225
0.278796
0.276806
0.274392
0.271666
0.26872
0.265626
0.262446
0.259245
0.256071
0.252852
0.249394
0.246124
0.245212
0.287012
0.279897
0.281884
0.288431
0.295619
0.301802
0.306328
0.309098
0.310285
0.310153
0.308966
0.306954
0.30431
0.301193
0.29773
0.294024
0.290158
0.286196
0.282194
0.278209
0.274281
0.270341
0.26622
0.262328
0.260588
0.329289
0.321349
0.322097
0.326994
0.332311
0.336583
0.339264
0.3403
0.33988
0.338266
0.335712
0.332439
0.328629
0.324428
0.319956
0.315307
0.310555
0.30576
0.30097
0.296235
0.291587
0.286962
0.282216
0.277732
0.275202
0.369532
0.360805
0.360354
0.363658
0.367175
0.369617
0.370533
0.369914
0.367962
0.364935
0.361078
0.356602
0.351679
0.346445
0.341011
0.335463
0.329868
0.324279
0.31874
0.313293
0.307964
0.302695
0.297361
0.292317
0.289035
0.407567
0.398093
0.396494
0.398273
0.400076
0.400778
0.400022
0.397836
0.394433
0.390069
0.384981
0.379368
0.373393
0.367182
0.360839
0.354441
0.34805
0.341713
0.335467
0.32935
0.323383
0.31751
0.311629
0.306057
0.302063
0.443231
0.433056
0.430367
0.430702
0.430886
0.429951
0.427623
0.423966
0.419204
0.413587
0.407345
0.400666
0.393705
0.38658
0.379384
0.372192
0.365056
0.358019
0.351114
0.344372
0.337809
0.331378
0.324989
0.318925
0.314261
0.476372
0.465545
0.461834
0.460815
0.459487
0.457027
0.453237
0.448214
0.442189
0.43541
0.428096
0.42043
0.412554
0.40458
0.396596
0.388666
0.380841
0.373156
0.365641
0.358321
0.35121
0.344264
0.33741
0.330889
0.3256
0.506852
0.495427
0.490768
0.488496
0.485773
0.481907
0.476773
0.470496
0.463311
0.455465
0.447169
0.438596
0.429882
0.421131
0.412422
0.403818
0.39536
0.387083
0.37901
0.371163
0.363551
0.356136
0.348859
0.341919
0.336053
0.534546
0.522578
0.517053
0.513638
0.509644
0.504502
0.498148
0.490734
0.4825
0.473687
0.464502
0.455109
0.445636
0.436181
0.426818
0.417603
0.408575
0.399762
0.391186
0.382862
0.374798
0.366962
0.359304
0.351985
0.345592
0.559341
0.546891
0.540588
0.536147
0.531014
0.524731
0.517289
0.50886
0.49969
0.490017
0.48004
0.469916
0.459767
0.449686
0.439741
0.429983
0.420447
0.411158
0.402133
0.393386
0.384921
0.376712
0.368717
0.361058
0.354194
0.58114
0.568269
0.561282
0.555938
0.549807
0.542524
0.53413
0.524814
0.514827
0.504402
0.493733
0.482972
0.472234
0.461606
0.451153
0.440921
0.430942
0.421238
0.411823
0.402707
0.393893
0.385358
0.37707
0.369115
0.361835
0.599858
0.586631
0.579059
0.572942
0.565957
0.557821
0.548615
0.538544
0.527862
0.516797
0.50554
0.494237
0.482997
0.471905
0.461021
0.450386
0.440031
0.429974
0.420228
0.410799
0.401688
0.392877
0.38434
0.376133
0.368496
0.615426
0.60191
0.593855
0.587099
0.57941
0.570572
0.560698
0.550008
0.538754
0.527165
0.515426
0.503677
0.492028
0.480555
0.469316
0.458352
0.447688
0.437342
0.427324
0.417639
0.408284
0.399249
0.390508
0.382093
0.374162
0.627789
0.614052
0.605619
0.598363
0.590124
0.580737
0.570343
0.55917
0.547472
0.535476
0.523361
0.511268
0.499299
0.487531
0.476018
0.464797
0.453894
0.443324
0.433095
0.42321
0.413667
0.404456
0.395558
0.386981
0.378817
0.636907
0.623019
0.614316
0.606701
0.598067
0.588288
0.577524
0.566007
0.553993
0.541707
0.529327
0.516989
0.504794
0.492817
0.481109
0.469706
0.458634
0.447905
0.437526
0.427499
0.417822
0.408486
0.399476
0.390785
0.382454
0.642755
0.628787
0.619923
0.612091
0.60322
0.593208
0.582223
0.570502
0.558303
0.545846
0.53331
0.520829
0.508501
0.496401
0.484579
0.47307
0.461898
0.451075
0.440608
0.430498
0.420742
0.411332
0.402256
0.393497
0.385065
0.645323
0.631346
0.622432
0.614526
0.605576
0.595488
0.584434
0.572651
0.560395
0.547888
0.535306
0.522782
0.510416
0.498279
0.486424
0.474884
0.463682
0.452832
0.442339
0.432203
0.422422
0.41299
0.403894
0.395115
0.386647
0.644618
0.630702
0.621847
0.614011
0.60514
0.595135
0.584161
0.572456
0.560273
0.547834
0.535316
0.522851
0.51054
0.498454
0.486646
0.47515
0.463989
0.453176
0.442718
0.432615
0.422865
0.41346
0.404391
0.39564
0.387202
0.640661
0.626876
0.618188
0.610563
0.601928
0.592162
0.581419
0.56993
0.557949
0.545697
0.533351
0.521046
0.508882
0.496934
0.485253
0.473875
0.462824
0.452114
0.441753
0.43174
0.422075
0.412749
0.403752
0.395075
0.386732
0.633486
0.619902
0.611489
0.604214
0.595969
0.586596
0.576231
0.565097
0.553445
0.541496
0.529431
0.517384
0.50546
0.493733
0.482258
0.471073
0.460201
0.449659
0.439454
0.429589
0.420063
0.410866
0.401985
0.393429
0.385247
0.623146
0.609831
0.601795
0.595007
0.587303
0.578475
0.568633
0.557989
0.54679
0.53526
0.52358
0.51189
0.500296
0.488875
0.477684
0.466762
0.456138
0.445826
0.435838
0.426177
0.416843
0.407824
0.399105
0.390716
0.382756
0.609706
0.596726
0.589169
0.582999
0.575981
0.567846
0.558668
0.548645
0.538022
0.527023
0.515833
0.504595
0.493419
0.482385
0.471555
0.460969
0.450657
0.440639
0.430926
0.421524
0.412434
0.403642
0.39513
0.386951
0.379275
0.593247
0.580665
0.573683
0.568257
0.562068
0.554767
0.54639
0.537117
0.527188
0.516829
0.506229
0.495537
0.484865
0.474299
0.463903
0.453722
0.443788
0.434124
0.424743
0.415654
0.40686
0.398343
0.390079
0.382154
0.374822
0.573863
0.561742
0.555426
0.550863
0.545636
0.539308
0.531863
0.523464
0.514343
0.50473
0.494818
0.48476
0.474676
0.464655
0.454765
0.445056
0.435563
0.426312
0.417318
0.408596
0.400148
0.391951
0.38398
0.37635
0.369416
0.551664
0.540063
0.534497
0.53091
0.526772
0.521546
0.51516
0.507752
0.49955
0.490784
0.481653
0.472317
0.4629
0.453498
0.444184
0.435011
0.42602
0.417238
0.408686
0.40038
0.392326
0.384498
0.376859
0.369564
0.363082
0.526772
0.515745
0.511008
0.508501
0.505572
0.50157
0.496362
0.490058
0.482879
0.475057
0.466796
0.458263
0.44959
0.440877
0.432205
0.423631
0.415199
0.406941
0.398882
0.391042
0.38343
0.376013
0.368748
0.361825
0.355846
0.499323
0.488922
0.485085
0.483752
0.482142
0.479478
0.475559
0.470464
0.464406
0.457619
0.450312
0.442661
0.434803
0.426848
0.418879
0.410962
0.403145
0.395464
0.387947
0.380619
0.373493
0.366532
0.35968
0.353166
0.347737
0.469464
0.459737
0.456864
0.456791
0.456598
0.455376
0.452849
0.449062
0.444217
0.438549
0.432275
0.425578
0.418603
0.411467
0.404261
0.397056
0.389904
0.382849
0.37592
0.36915
0.362553
0.356089
0.34969
0.343619
0.338783
0.437356
0.428348
0.426493
0.427752
0.429066
0.429381
0.428339
0.42595
0.422401
0.417931
0.412762
0.407086
0.401056
0.394797
0.388408
0.381964
0.375527
0.369142
0.362846
0.356675
0.350648
0.344721
0.338812
0.333216
0.329014
0.403172
0.394922
0.39413
0.396785
0.399681
0.401616
0.402143
0.401231
0.399056
0.395854
0.391856
0.38726
0.382232
0.376902
0.371378
0.365742
0.360062
0.354389
0.348765
0.343232
0.337814
0.332463
0.327079
0.32199
0.31846
0.367093
0.359637
0.359946
0.364045
0.368587
0.372212
0.374382
0.375019
0.374283
0.372412
0.369642
0.366182
0.362204
0.35785
0.353233
0.348446
0.343561
0.338636
0.33372
0.328859
0.324085
0.319346
0.314523
0.309969
0.307148
0.329313
0.322682
0.324118
0.329698
0.335936
0.34131
0.345183
0.347429
0.348191
0.347705
0.346214
0.343934
0.341049
0.337708
0.334036
0.330131
0.326073
0.321928
0.317748
0.313589
0.309491
0.305397
0.301167
0.297175
0.295097
0.290036
0.284256
0.286835
0.29392
0.301888
0.309056
0.314681
0.318586
0.320894
0.321837
0.321665
0.320603
0.318845
0.31655
0.313851
0.310854
0.307648
0.304304
0.300885
0.297452
0.294053
0.290632
0.287026
0.28362
0.28232
0.249473
0.244566
0.248293
0.256892
0.266612
0.275604
0.283017
0.288619
0.292509
0.294917
0.296096
0.296282
0.295676
0.294449
0.292742
0.290671
0.288332
0.285805
0.283159
0.280466
0.277784
0.275058
0.2721
0.269302
0.268813
0.207843
0.203827
0.208699
0.218806
0.230283
0.241114
0.250339
0.257664
0.263163
0.267059
0.269612
0.271064
0.271628
0.271482
0.270777
0.269639
0.268172
0.266464
0.264594
0.262642
0.260681
0.258661
0.256366
0.254189
0.254549
0.165374
0.162261
0.168262
0.179858
0.193083
0.205755
0.2168
0.225861
0.232984
0.238384
0.242323
0.245051
0.246791
0.24773
0.248028
0.247819
0.247216
0.246317
0.245207
0.243982
0.242728
0.241403
0.239768
0.238213
0.239458
0.122298
0.120096
0.127202
0.140253
0.155199
0.169698
0.182559
0.193358
0.202108
0.209016
0.214344
0.218351
0.221264
0.223282
0.224572
0.225276
0.225516
0.225396
0.225013
0.224473
0.223881
0.223208
0.222192
0.221231
0.223402
0.0788534
0.0775656
0.0857422
0.1002
0.116826
0.133122
0.147781
0.160307
0.170678
0.179089
0.185801
0.191077
0.195154
0.198236
0.200498
0.202088
0.203135
0.20375
0.204037
0.204115
0.204109
0.203999
0.203493
0.203024
0.206151
0.0352812
0.0349064
0.0441086
0.0599113
0.0781612
0.0962113
0.112636
0.126867
0.138842
0.148741
0.156823
0.163354
0.168577