/*--------------------------------*- C++ -*----------------------------------*\
  =========                 |
  \\      /  F ield         | OpenFOAM: The Open Source CFD Toolbox
   \\    /   O peration     | Website:  https://openfoam.org
    \\  /    A nd           | Version:  6.0
     \\/     M anipulation  |
\*---------------------------------------------------------------------------*/
FoamFile
{
    version     2.0;
    format      ascii;
    class       surfaceScalarField;
    location    "82";
    object      phi;
}
// * * * * * * * * * * * * * * * * * * * * * * * * * * * * * * * * * * * * * //

dimensions      [0 3 -1 0 0 0 0];

internalField   nonuniform List<scalar> 
24700
(
-2.55299e-06
9.81544e-05
-9.56014e-05
-9.63939e-06
0.000231155
-0.000224068
-2.06597e-05
0.000315662
-0.000304642
-3.49456e-05
0.000363002
-0.000348716
-5.1809e-05
0.000382573
-0.000365709
-7.05904e-05
0.000381998
-0.000363216
-9.06798e-05
0.000367227
-0.000347138
-0.000111519
0.000342729
-0.00032189
-0.000132593
0.000311721
-0.000290647
-0.000153423
0.000276425
-0.000255595
-0.000173555
0.000238295
-0.000218163
-0.000192558
0.000198225
-0.000179223
-0.00021002
0.000156724
-0.000139261
-0.00022556
0.000114048
-9.85086e-05
-0.000238831
7.03077e-05
-5.70365e-05
-0.000249541
2.55389e-05
-1.48291e-05
-0.000257467
-2.02409e-05
2.81673e-05
-0.000262481
-6.69972e-05
7.2011e-05
-0.000264569
-0.000114653
0.000116741
-0.000263859
-0.000163074
0.000162363
-0.000260638
-0.000212057
0.000208835
-0.000255366
-0.000261328
0.000256056
-0.000248681
-0.00031055
0.000303864
-0.0002414
-0.000359352
0.000352072
-0.00040735
0.000400446
-0.000234496
-1.98941e-06
0.000100144
-7.8633e-06
0.000237029
-1.73473e-05
0.000325146
-2.99829e-05
0.000375637
-4.52051e-05
0.000397795
-6.24166e-05
0.000399209
-8.10293e-05
0.00038584
-0.000100484
0.000362183
-0.000120253
0.000331491
-0.000139844
0.000296016
-0.000158788
0.000257239
-0.000176646
0.000216084
-0.000193007
0.000173085
-0.000207491
0.000128533
-0.000219764
8.25803e-05
-0.000229545
3.53197e-05
-0.000236627
-1.31591e-05
-0.000240895
-6.27291e-05
-0.000242349
-0.000113199
-0.000241124
-0.000164299
-0.00023751
-0.00021567
-0.000231965
-0.000266874
-0.000225115
-0.0003174
-0.000217761
-0.000366706
-0.000414264
-0.000210847
-1.34221e-06
0.000101486
-5.79375e-06
0.00024148
-1.34328e-05
0.000332785
-2.40319e-05
0.000386236
-3.71661e-05
0.000410929
-5.23128e-05
0.000414356
-6.89162e-05
0.000402444
-8.6424e-05
0.000379691
-0.000104305
0.000349372
-0.000122058
0.000313768
-0.000139211
0.000274392
-0.000155325
0.000232198
-0.000169996
0.000187755
-0.000182856
0.000141394
-0.000193587
9.33107e-05
-0.000201922
4.36553e-05
-0.000207668
-7.41348e-06
-0.000210714
-5.96827e-05
-0.000211056
-0.000112857
-0.000208813
-0.000166542
-0.000204247
-0.000220236
-0.000197777
-0.000273344
-0.000189985
-0.000325191
-0.000181629
-0.000375063
-0.000422275
-0.000173619
-6.23792e-07
0.00010211
-3.46421e-06
0.000244321
-8.97012e-06
0.000338291
-1.71618e-05
0.000394428
-2.77699e-05
0.000421537
-4.03603e-05
0.000426946
-5.44205e-05
0.000416504
-6.94152e-05
0.000394685
-8.48177e-05
0.000364775
-0.000100126
0.000329077
-0.000114873
0.000289139
-0.000128628
0.000245953
-0.000141
0.000200127
-0.000151641
0.000152034
-0.000160248
0.000101918
-0.000166574
4.99809e-05
-0.000170431
-3.55681e-06
-0.000171704
-5.84091e-05
-0.000170368
-0.000114193
-0.000166502
-0.000170408
-0.000160308
-0.00022643
-0.000152134
-0.000281519
-0.000142485
-0.000334841
-0.00013205
-0.000385497
-0.000432618
-0.000121707
1.48012e-07
0.000101962
-9.26376e-07
0.000245395
-4.04859e-06
0.000341413
-9.49706e-06
0.000399876
-1.7171e-05
0.000429211
-2.67376e-05
0.000436513
-3.77401e-05
0.000427506
-4.96706e-05
0.000406616
-6.20154e-05
0.000377119
-7.42817e-05
0.000341343
-8.60118e-05
0.000300869
-9.67896e-05
0.00025673
-0.000106243
0.00020958
-0.000114046
0.000159837
-0.000119917
0.000107789
-0.000123623
5.36868e-05
-0.00012498
-2.19907e-06
-0.000123863
-5.95263e-05
-0.00012021
-0.000117846
-0.000114041
-0.000176578
-0.000105475
-0.000234996
-9.47583e-05
-0.000292235
-8.2293e-05
-0.000347306
-6.86835e-05
-0.000399106
-0.000446528
-5.47737e-05
9.50486e-07
0.000101011
1.75172e-06
0.000244594
1.20973e-06
0.000341955
-1.21436e-06
0.0004023
-5.59715e-06
0.000433594
-1.1719e-05
0.000442635
-1.91906e-05
0.000434978
-2.75425e-05
0.000414968
-3.62834e-05
0.00038586
-4.49368e-05
0.000349997
-5.3061e-05
0.000308993
-6.02586e-05
0.000263928
-6.618e-05
0.000215502
-7.05224e-05
0.000164179
-7.30267e-05
0.000110293
-7.34742e-05
5.41344e-05
-7.16843e-05
-3.989e-06
-6.75136e-05
-6.3697e-05
-6.08601e-05
-0.0001245
-5.16739e-05
-0.000185764
-3.99776e-05
-0.000246692
-2.58984e-05
-0.000306314
-9.7145e-06
-0.00036349
8.06908e-06
-0.00041689
-0.000465095
2.66358e-05
1.75763e-06
9.92537e-05
4.48924e-06
0.000241862
6.65532e-06
0.000339789
7.46379e-06
0.000401492
6.65708e-06
0.000434401
4.33247e-06
0.000444959
8.00506e-07
0.00043851
-3.51843e-06
0.000419287
-8.16494e-06
0.000390507
-1.26858e-05
0.000354518
-1.66604e-05
0.000312968
-1.97135e-05
0.000266981
-2.15194e-05
0.000217308
-2.17992e-05
0.000164459
-2.03159e-05
0.00010881
-1.68657e-05
5.06842e-05
-1.12707e-05
-9.584e-06
-3.37214e-06
-7.15955e-05
6.97177e-06
-0.000134843
1.98799e-05
-0.000198672
3.5429e-05
-0.000262241
5.3616e-05
-0.000324501
7.42958e-05
-0.00038417
9.70727e-05
-0.000439667
-0.000489176
0.000121154
2.54119e-06
9.67125e-05
7.19597e-06
0.000237207
1.21175e-05
0.000334868
1.62776e-05
0.000397332
1.92407e-05
0.000431438
2.0976e-05
0.000443224
2.17056e-05
0.00043778
2.17905e-05
0.000419202
2.16493e-05
0.000390648
2.17048e-05
0.000354462
2.23521e-05
0.000312321
2.39421e-05
0.000265391
2.67763e-05
0.000214474
3.11099e-05
0.000160125
3.71591e-05
0.000102761
4.51122e-05
4.2731e-05
5.51423e-05
-1.96141e-05
6.74187e-05
-8.38719e-05
8.2115e-05
-0.00014954
9.94088e-05
-0.000215966
0.000119466
-0.000282298
0.000142402
-0.000347437
0.000168202
-0.00040997
0.000196587
-0.000468051
-0.000519373
0.000226784
3.27241e-06
9.34401e-05
9.77757e-06
0.000230702
1.74133e-05
0.000327232
2.4943e-05
0.000389802
3.17625e-05
0.000424618
3.77117e-05
0.000437275
4.29174e-05
0.000432575
4.76718e-05
0.000414447
5.23441e-05
0.000385976
5.732e-05
0.000349486
6.29649e-05
0.000306676
6.96037e-05
0.000258752
7.75142e-05
0.000206563
8.69295e-05
0.00015071
9.80464e-05
9.16441e-05
0.000111039
2.97388e-05
0.000126072
-3.46472e-05
0.000143319
-0.000101119
0.000162973
-0.000169194
0.000185255
-0.000238248
0.0002104
-0.000307444
0.000238623
-0.00037566
0.000270031
-0.000441378
0.000304458
-0.000502478
-0.000556071
0.000341156
3.92388e-06
8.95162e-05
1.21411e-05
0.000222485
2.23581e-05
0.000317015
3.31666e-05
0.000378994
4.38112e-05
0.000413973
5.40059e-05
0.00042708
6.37783e-05
0.000422802
7.33446e-05
0.000404881
8.30167e-05
0.000376304
9.31371e-05
0.000339366
0.000104038
0.000295775
0.000116016
0.000246774
0.000129327
0.000193252
0.000144184
0.000135853
0.000160768
7.50602e-05
0.000179239
1.12677e-05
0.000199754
-5.51626e-05
0.000222485
-0.000123849
0.000247632
-0.000194341
0.000275438
-0.000266053
0.000306184
-0.00033819
0.000340157
-0.000409633
0.000377567
-0.000478788
0.000418353
-0.000543265
-0.000599511
0.000461793
4.47123e-06
8.5045e-05
1.42008e-05
0.000212755
2.67769e-05
0.000304439
4.06642e-05
0.000365106
5.49799e-05
0.000399658
6.93216e-05
0.000412738
8.36177e-05
0.000408506
9.80036e-05
0.000390495
0.000112728
0.000361579
0.000128085
0.000324009
0.000144368
0.000279492
0.000161849
0.000229294
0.00018076
0.000174341
0.000201299
0.000115314
0.000223635
5.27245e-05
0.000247918
-1.30154e-05
0.000274298
-8.15425e-05
0.00030294
-0.000152491
0.000334042
-0.000225443
0.000367852
-0.000299863
0.000404668
-0.000375006
0.00044482
-0.000449785
0.000488587
-0.000522555
0.000536003
-0.00059068
-0.000649874
0.000586366
4.8946e-06
8.01504e-05
1.58839e-05
0.000201766
3.05157e-05
0.000289807
4.71788e-05
0.000348443
6.4893e-05
0.000381943
8.31544e-05
0.000394477
0.000101796
0.000389864
0.000120873
0.000371419
0.000140565
0.000341887
0.000161116
0.000303459
0.00018278
0.000257828
0.0002058
0.000206274
0.000230391
0.00014975
0.000256738
8.89658e-05
0.000285005
2.44582e-05
0.000315337
-4.33473e-05
0.000347879
-0.000114085
0.000382792
-0.000187404
0.000420262
-0.000262914
0.000460525
-0.000340126
0.00050387
-0.000418351
0.000550633
-0.000496547
0.000601129
-0.000573052
0.000655457
-0.000645009
-0.000707353
0.000712936
5.17995e-06
7.49704e-05
1.7135e-05
0.000189811
3.34527e-05
0.000273489
5.24998e-05
0.000329396
7.32338e-05
0.000361209
9.50692e-05
0.000372642
0.000117755
0.000367179
0.000141265
0.000347908
0.000165716
0.000317436
0.000191297
0.000277878
0.000218223
0.000230901
0.000246712
0.000177785
0.000276964
0.000119498
0.00030916
5.67697e-05
0.000343462
-9.84342e-06
0.000380018
-7.99038e-05
0.000418976
-0.000153043
0.000460487
-0.000228915
0.000504725
-0.000307152
0.000551896
-0.000387297
0.000602254
-0.000468709
0.000656103
-0.000550396
0.000713749
-0.000630698
0.000775323
-0.000706583
-0.000772182
0.000840152
5.31993e-06
6.96505e-05
1.79204e-05
0.000177211
3.55068e-05
0.000255903
5.64789e-05
0.000308424
7.97702e-05
0.000337918
0.000104738
0.000347673
0.000131062
0.000340855
0.000158647
0.000320324
0.000187545
0.000288538
0.000217896
0.000247527
0.000249882
0.000198915
0.000283698
0.000143968
0.000319538
8.36579e-05
0.000357583
1.87251e-05
0.000398001
-5.02619e-05
0.000440952
-0.000122854
0.000486584
-0.000198675
0.000535046
-0.000277376
0.000586486
-0.000358591
0.000641066
-0.000441877
0.000698978
-0.000526621
0.000760448
-0.000611867
0.000825724
-0.000695974
0.000894922
-0.00077578
-0.000844627
0.000967366
5.31441e-06
6.43361e-05
1.82312e-05
0.000164294
3.66461e-05
0.000237488
5.90454e-05
0.000286025
8.43784e-05
0.000312585
0.000111975
0.000320077
0.000141463
0.000311366
0.000172692
0.000289095
0.000205663
0.000255567
0.000240475
0.000212716
0.000277282
0.000162109
0.000316266
0.000104984
0.000357621
4.23037e-05
0.000401535
-2.51894e-05
0.000448192
-9.69193e-05
0.000497763
-0.000172425
0.0005504
-0.000251312
0.000606238
-0.000333215
0.000665391
-0.000417744
0.000727954
-0.000504441
0.00079402
-0.000592687
0.000863696
-0.000681543
0.000937112
-0.000769389
0.00101431
-0.000852981
-0.000924929
0.00109461
5.17075e-06
5.91654e-05
1.80845e-05
0.00015138
3.68919e-05
0.000218681
6.02155e-05
0.000262701
8.70602e-05
0.000285741
0.000116759
0.000290378
0.000148915
0.00027921
0.00018334
0.000254669
0.00022
0.000218907
0.000258965
0.000173751
0.000300376
0.000120698
0.000344411
6.09482e-05
0.000391272
-4.55724e-06
0.000441164
-7.50812e-05
0.000494285
-0.00015004
0.000550813
-0.000228953
0.000610899
-0.000311398
0.000674647
-0.000396962
0.000742111
-0.000485208
0.000813291
-0.000575621
0.000888142
-0.000667538
0.000966602
-0.000760003
0.00104862
-0.000851408
0.00113412
-0.00093848
-0.0010132
0.00122239
4.90378e-06
5.42616e-05
1.75242e-05
0.00013876
3.63212e-05
0.000199884
6.00982e-05
0.000238924
8.79535e-05
0.000257885
0.000119257
0.000259075
0.000153613
0.000244854
0.000190823
0.000217459
0.000230837
0.000178894
0.000273716
0.000130872
0.000319599
7.48147e-05
0.000368676
1.18711e-05
0.000421163
-5.70434e-05
0.000477279
-0.000131198
0.000537234
-0.000209995
0.000601203
-0.000292922
0.000669305
-0.0003795
0.00074159
-0.000469247
0.000818016
-0.000561635
0.000898446
-0.000656051
0.000982653
-0.000751745
0.00107036
-0.000847706
0.00116127
-0.000942326
0.00125515
-0.00103235
-0.00110931
0.00135125
4.5355e-06
4.97261e-05
1.66201e-05
0.000126675
3.50661e-05
0.000181438
5.88949e-05
0.000215095
8.73339e-05
0.000229446
0.000119822
0.000226586
0.000156
0.000208676
0.000195681
0.000177778
0.000238826
0.000135749
0.000285507
8.41904e-05
0.000335879
2.44425e-05
0.000390149
-4.23987e-05
0.000448548
-0.000115443
0.000511306
-0.000193956
0.000578622
-0.000277312
0.000650639
-0.000364938
0.000727412
-0.000456273
0.000808887
-0.000550722
0.000894879
-0.000647627
0.000985067
-0.000746238
0.001079
-0.000845675
0.00117613
-0.000944839
0.00127592
-0.00104211
0.00137789
-0.00113432
-0.00121272
0.0014813
4.09441e-06
4.56317e-05
1.54654e-05
0.000115304
3.33081e-05
0.000163595
5.68917e-05
0.000191512
8.56043e-05
0.000200734
0.000118987
0.000193203
0.000156745
0.000170919
0.000198737
0.000135786
0.000244958
8.95277e-05
0.000295511
3.36377e-05
0.000350576
-3.06224e-05
0.000410379
-0.000102202
0.00047516
-0.000180223
0.000545133
-0.000263929
0.000620455
-0.000352633
0.000701188
-0.000445672
0.000787271
-0.000542356
0.000878489
-0.000641939
0.000974456
-0.000743595
0.00107462
-0.000846399
0.00117826
-0.000949315
0.00128456
-0.00105114
0.0013927
-0.00115025
0.00150198
-0.00124361
-0.0013224
0.00161166
3.61439e-06
4.20173e-05
1.41729e-05
0.000104745
3.127e-05
0.000146498
5.44451e-05
0.000168337
8.32739e-05
0.000171905
0.000117429
0.000159048
0.00015671
0.000131637
0.000201049
9.14476e-05
0.000250495
4.00812e-05
0.000305196
-2.10628e-05
0.00036536
-9.07862e-05
0.000431222
-0.000168064
0.000503001
-0.000252003
0.00058086
-0.000341788
0.000664859
-0.000436632
0.00075492
-0.000535733
0.000850795
-0.000638231
0.000952043
-0.000743188
0.00105802
-0.000849577
0.00116791
-0.000956282
0.0012807
-0.00106211
0.00139531
-0.00116575
0.00151067
-0.00126561
0.00162588
-0.00135882
-0.00143677
0.00174025
3.13296e-06
3.88843e-05
1.28677e-05
9.50107e-05
2.92021e-05
0.000130164
5.19589e-05
0.00014558
8.09224e-05
0.000142941
0.000115922
0.000124048
0.000156878
9.06817e-05
0.000203814
4.45117e-05
0.00025685
-1.29552e-05
0.000316178
-8.0391e-05
0.000382024
-0.000156632
0.000454603
-0.000240643
0.000534072
-0.000331472
0.000620481
-0.000428196
0.000713726
-0.000529877
0.000813515
-0.000635522
0.000919342
-0.000744058
0.00103048
-0.000854326
0.00114599
-0.000965085
0.00126474
-0.00107503
0.00138547
-0.00118284
0.00150685
-0.00128713
0.00162762
-0.00138638
0.00174679
-0.00147799
-0.00155369
0.00186371
2.6889e-06
3.61954e-05
1.168e-05
8.60196e-05
2.73645e-05
0.000114479
4.98537e-05
0.000123091
7.9155e-05
0.00011364
0.000115273
8.79307e-05
0.000158263
4.76911e-05
0.000208255
-5.47997e-06
0.000265438
-7.01383e-05
0.000330036
-0.000144989
0.00040226
-0.000228857
0.000482261
-0.000320644
0.000570071
-0.000419282
0.000665553
-0.000523679
0.000768364
-0.000632687
0.00087792
-0.000745078
0.000993394
-0.000859532
0.00111372
-0.000974656
0.00123765
-0.00108901
0.00136375
-0.00120113
0.00149052
-0.00130962
0.00161648
-0.00141309
0.00174027
-0.00151017
0.00186088
-0.00159859
-0.00167056
0.00197775
2.31928e-06
3.38761e-05
1.0734e-05
7.76049e-05
2.60068e-05
9.92064e-05
4.85335e-05
0.000100564
7.85498e-05
8.36237e-05
0.000116244
5.02369e-05
0.000161814
2.12064e-06
0.00021549
-5.91559e-05
0.000277516
-0.000132164
0.000348113
-0.000215587
0.000427433
-0.000308176
0.000515493
-0.000408704
0.000612126
-0.000515915
0.000716932
-0.000628485
0.000829247
-0.000745002
0.000948135
-0.000863965
0.0010724
-0.000983795
0.00120062
-0.00110288
0.00133121
-0.0012196
0.0014625
-0.00133242
0.00159282
-0.00143993
0.00172059
-0.00154087
0.0018445
-0.00163407
0.00196361
-0.0017177
-0.00178449
0.00207754
2.05639e-06
3.18198e-05
1.01388e-05
6.95225e-05
2.53473e-05
8.39978e-05
4.83497e-05
7.75616e-05
7.96059e-05
5.23675e-05
0.000119484
1.0359e-05
0.000168316
-4.67119e-05
0.000226413
-0.000117253
0.000294037
-0.000199788
0.000371358
-0.000292908
0.000458399
-0.000395217
0.00055497
-0.000505275
0.000660624
-0.000621569
0.000774621
-0.000742481
0.000895915
-0.000866296
0.00102317
-0.000991223
0.00115481
-0.00111544
0.00128907
-0.00123713
0.00142408
-0.00135461
0.00155796
-0.0014663
0.00168891
-0.00157089
0.00181534
-0.00166729
0.001936
-0.00175474
0.00205023
-0.00183193
-0.00189229
0.00215803
1.92495e-06
2.98948e-05
9.97845e-06
6.1469e-05
2.55555e-05
6.84207e-05
4.9573e-05
5.35441e-05
8.26999e-05
1.92407e-05
0.000125468
-3.24086e-05
0.000178318
-9.95619e-05
0.000241602
-0.000180537
0.00031555
-0.000273736
0.000400214
-0.000377572
0.000495407
-0.00049041
0.000600655
-0.000610523
0.000715153
-0.000736067
0.000837761
-0.000865088
0.000967015
-0.00099555
0.00110118
-0.00112539
0.00123832
-0.00125258
0.00137639
-0.0013752
0.00151332
-0.00149154
0.00164712
-0.00160011
0.00177597
-0.00169973
0.00189823
-0.00178955
0.00201242
-0.00186892
0.00211715
-0.00193667
-0.00198889
0.00221376
1.9397e-06
2.79551e-05
1.03061e-05
5.31026e-05
2.67387e-05
5.19881e-05
5.23725e-05
2.79103e-05
8.80585e-05
-1.64453e-05
0.00013446
-7.88104e-05
0.000192087
-0.000157189
0.000261279
-0.000249729
0.000342162
-0.000354619
0.000434592
-0.000470001
0.000538093
-0.000593912
0.000651827
-0.000724257
0.000774573
-0.000858813
0.000904753
-0.000995268
0.00104048
-0.00113128
0.00117966
-0.00126457
0.00132007
-0.00139298
0.00145948
-0.00151461
0.00159578
-0.00162784
0.00172705
-0.00173138
0.00185164
-0.00182432
0.0019682
-0.00190611
0.00207572
-0.00197644
0.00217414
-0.00203509
-0.00208036
0.0022656
2.10644e-06
2.58487e-05
1.11435e-05
4.40655e-05
2.89408e-05
3.41908e-05
5.68115e-05
3.95708e-08
9.57505e-05
-5.53843e-05
0.000146509
-0.000129569
0.000209607
-0.000220287
0.000285304
-0.000325426
0.000373545
-0.00044286
0.000473904
-0.000570359
0.000585539
-0.000705547
0.000707182
-0.0008459
0.00083716
-0.00098879
0.000973451
-0.00113156
0.00111379
-0.00127162
0.00125577
-0.00140655
0.00139699
-0.00153421
0.00153518
-0.00165281
0.00166831
-0.00176096
0.00179466
-0.00185773
0.00191293
-0.00194259
0.00202223
-0.00201541
0.00212219
-0.0020764
0.00221306
-0.00212596
-0.00216308
0.00229578
2.42043e-06
2.34282e-05
1.24805e-05
3.40055e-05
3.2143e-05
1.45282e-05
6.2853e-05
-3.06704e-05
0.0001057
-9.82316e-05
0.000161466
-0.000185335
0.000230613
-0.000289434
0.00031324
-0.000408053
0.000409025
-0.000538645
0.000517179
-0.000678513
0.000636426
-0.000824795
0.000765027
-0.000974501
0.000900841
-0.00112461
0.00104144
-0.00127216
0.00118423
-0.00141441
0.00132662
-0.00154894
0.00146616
-0.00167374
0.00160064
-0.00178729
0.00172825
-0.00188857
0.0018476
-0.00197707
0.00195773
-0.00205272
0.00205817
-0.00211585
0.00214886
-0.00216709
0.00223012
-0.00220721
-0.00223596
0.00230299
2.87014e-06
2.05581e-05
1.4283e-05
2.25926e-05
3.62783e-05
-7.46709e-06
7.03802e-05
-6.47723e-05
0.000117716
-0.000145567
0.000179028
-0.000246647
0.000254643
-0.000365049
0.000344413
-0.000497823
0.000447665
-0.000641897
0.000563173
-0.000794021
0.000689175
-0.000950797
0.000823443
-0.00110877
0.000963397
-0.00126456
0.00110626
-0.00141502
0.00124922
-0.00155737
0.00138962
-0.00168934
0.00152509
-0.00180921
0.00165364
-0.00191584
0.00177378
-0.00200871
0.0018845
-0.0020878
0.0019853
-0.00215352
0.0020761
-0.00220665
0.00215722
-0.00224821
0.00222929
-0.00227929
-0.00230025
0.00229358
3.43962e-06
1.71185e-05
1.6501e-05
9.53121e-06
4.1246e-05
-3.2212e-05
7.92205e-05
-0.000102747
0.000131523
-0.000197869
0.000198782
-0.000313906
0.000281102
-0.000447369
0.000378001
-0.000594722
0.000488373
-0.000752269
0.000610495
-0.000916143
0.000742092
-0.00108239
0.000880462
-0.00124714
0.00102264
-0.00140674
0.00116561
-0.00155798
0.00130646
-0.00169823
0.00144261
-0.00182549
0.0015719
-0.00193849
0.00169269
-0.00203663
0.00180388
-0.00211991
0.00190492
-0.00218884
0.00199572
-0.00224432
0.00207661
-0.00228754
0.00214824
-0.00231983
0.00221148
-0.00234252
-0.0023564
0.00226763
4.11131e-06
1.30072e-05
1.90771e-05
-5.43457e-06
4.69277e-05
-6.00627e-05
8.91704e-05
-0.000144989
0.000146803
-0.000255502
0.000220256
-0.00038736
0.000309323
-0.000536435
0.000413101
-0.0006985
0.000529981
-0.00086915
0.000657705
-0.00104387
0.000793485
-0.00121817
0.000934194
-0.00138785
0.00107658
-0.00154912
0.00121749
-0.0016989
0.00135409
-0.00183483
0.001484
-0.0019554
0.0016054
-0.00205989
0.00171707
-0.0021483
0.00181837
-0.00222121
0.00190921
-0.00227967
0.0019899
-0.00232501
0.00206111
-0.00235876
0.00212376
-0.00238247
0.00217889
-0.00239766
-0.00240534
0.00222782
4.8685e-06
8.13866e-06
2.19534e-05
-2.25194e-05
5.32014e-05
-9.13107e-05
0.000100016
-0.000191804
0.000163217
-0.000318703
0.000242951
-0.000467093
0.000338607
-0.000632092
0.000448783
-0.000808676
0.000571315
-0.000991682
0.000703394
-0.00117595
0.000841757
-0.00135654
0.000982932
-0.00152902
0.0011235
-0.00168969
0.00126033
-0.00183573
0.00139079
-0.00196528
0.00151283
-0.00207744
0.00162507
-0.00217213
0.00172677
-0.00225
0.00181776
-0.00231221
0.00189837
-0.00236027
0.00196926
-0.0023959
0.00203137
-0.00242087
0.00208579
-0.00243689
0.00213367
-0.00244553
-0.00244795
0.00217627
5.69684e-06
2.44182e-06
2.50764e-05
-4.1899e-05
5.9949e-05
-0.000126183
0.000111547
-0.000243402
0.000180428
-0.000387585
0.000266363
-0.000553028
0.000368254
-0.000733982
0.00048413
-0.000924552
0.00061124
-0.00111879
0.000746244
-0.00131095
0.000885471
-0.00149576
0.00102522
-0.00166877
0.00116205
-0.00182652
0.00129301
-0.00196669
0.00141577
-0.00208805
0.00152875
-0.00219042
0.00163105
-0.00227443
0.00172241
-0.00234136
0.00180312
-0.00239292
0.00187386
-0.00243101
0.00193558
-0.00245763
0.0019894
-0.0024747
0.00203651
-0.00248399
0.00207806
-0.00248709
-0.00248515
0.00211526
6.58476e-06
-4.14294e-06
2.83991e-05
-6.37133e-05
6.7061e-05
-0.000164845
0.000123558
-0.000299899
0.000198103
-0.000462129
0.000289997
-0.000644923
0.000397577
-0.000841562
0.000518255
-0.00104523
0.000648692
-0.00124923
0.000785066
-0.00144732
0.000923404
-0.0016341
0.00105992
-0.00180529
0.00119129
-0.0019579
0.00131487
-0.00209027
0.00142879
-0.00220197
0.00153195
-0.00229357
0.00162396
-0.00236644
0.00170505
-0.00242245
0.00177587
-0.00246374
0.0018374
-0.00249254
0.00189078
-0.00251101
0.00193724
-0.00252115
0.00197797
-0.00252473
0.00201411
-0.00252323
-0.00251777
0.00204674
7.52319e-06
-1.16661e-05
3.18796e-05
-8.80698e-05
7.4435e-05
-0.000207401
0.000135855
-0.000361319
0.000215916
-0.00054219
0.000313369
-0.000742376
0.000425915
-0.000954108
0.000550327
-0.00116964
0.000682707
-0.00138161
0.00081884
-0.00158346
0.000954581
-0.00176984
0.0010862
-0.00193691
0.00121066
-0.00208235
0.00132573
-0.00220534
0.00143005
-0.00230629
0.00152305
-0.00238658
0.00160484
-0.00244824
0.00167605
-0.00249365
0.00173763
-0.00252532
0.00179079
-0.00254569
0.00183676
-0.00255698
0.0018768
-0.00256119
0.00191207
-0.00256
0.00194362
-0.00255479
-0.00254656
0.00197241
8.50458e-06
-2.01707e-05
3.54797e-05
-0.000115045
8.19723e-05
-0.000253893
0.000148245
-0.000427592
0.00023355
-0.000627495
0.000336006
-0.000844832
0.000452637
-0.00107074
0.00057958
-0.00129658
0.000712444
-0.00151447
0.00084674
-0.00171775
0.000978299
-0.0019014
0.0011036
-0.00206222
0.00122001
-0.00219876
0.0013258
-0.00231113
0.00142016
-0.00240064
0.00150303
-0.00246945
0.00157497
-0.00252017
0.00163692
-0.0025556
0.00169009
-0.00257849
0.00173578
-0.00259137
0.00177527
-0.00259648
0.00180979
-0.00259571
0.00184042
-0.00259063
0.0018681
-0.00258247
-0.0025721
0.00189364
9.52182e-06
-2.96925e-05
3.91613e-05
-0.000144684
8.95742e-05
-0.000304306
0.000160535
-0.000498552
0.000250686
-0.000717646
0.00035745
-0.000951597
0.000477152
-0.00119044
0.000605334
-0.00142477
0.000737211
-0.00164635
0.000868158
-0.0018487
0.000994133
-0.00202738
0.00111197
-0.00218006
0.00121952
-0.00230631
0.00131562
-0.00240723
0.00139999
-0.00248502
0.00147306
-0.00254252
0.00153574
-0.00258284
0.00158922
-0.00260909
0.00163485
-0.00262413
0.00167398
-0.0026305
0.00170788
-0.00263038
0.00173768
-0.00262551
0.00176436
-0.00261731
0.00178875
-0.00260686
-0.00259487
0.00181152
1.05672e-05
-4.02597e-05
4.28846e-05
-0.000177002
9.71384e-05
-0.00035856
0.000172528
-0.000573942
0.000267009
-0.000812128
0.000377264
-0.00106185
0.000498927
-0.0013121
0.000627017
-0.00155286
0.00075648
-0.00177581
0.000882706
-0.00197492
0.00100193
-0.0021466
0.00111145
-0.00228957
0.00120966
-0.00240452
0.00129597
-0.00249354
0.00137062
-0.00255967
0.00143442
-0.00260632
0.00148856
-0.00263699
0.00153441
-0.00265494
0.00157339
-0.0026631
0.00160682
-0.00266394
0.00163591
-0.00265946
0.00166167
-0.00265128
0.00168499
-0.00264062
0.00170655
-0.00262841
-0.00261523
0.00172691
1.16317e-05
-5.18914e-05
4.66064e-05
-0.000211976
0.000104557
-0.000416511
0.000184026
-0.00065341
0.000282214
-0.000910316
0.000395043
-0.00117468
0.000517496
-0.00143456
0.000644174
-0.00167953
0.000769895
-0.00190153
0.000890219
-0.00209525
0.00100178
-0.00225816
0.00110241
-0.00239021
0.00119111
-0.00249321
0.00126781
-0.00257024
0.00133318
-0.00262504
0.00138838
-0.00266152
0.00143479
-0.00268339
0.00147387
-0.00269402
0.00150702
-0.00269626
0.00153551
-0.00269243
0.00156045
-0.0026844
0.00158275
-0.00267357
0.00160314
-0.00266101
0.00162222
-0.00264749
-0.00263344
0.00164042
1.27048e-05
-6.45963e-05
5.02792e-05
-0.000249551
0.000111719
-0.00047795
0.000194828
-0.000736519
0.000296007
-0.0010115
0.000410421
-0.00128909
0.000532478
-0.00155661
0.000656482
-0.00180354
0.00077728
-0.00202233
0.000890737
-0.00220871
0.000993987
-0.00236141
0.00108545
-0.00248167
0.0011647
-0.00257245
0.00123215
-0.0026377
0.00128885
-0.00268175
0.00133619
-0.00270885
0.00137567
-0.00272287
0.00140877
-0.00272712
0.00143683
-0.00272432
0.00146105
-0.00271665
0.00148239
-0.00270574
0.00150166
-0.00269284
0.00151947
-0.00267883
0.00153631
-0.00266433
-0.00264966
0.00155254
1.37742e-05
-7.83704e-05
5.38518e-05
-0.000289628
0.000118507
-0.000542606
0.000204739
-0.000822751
0.000308119
-0.00111488
0.000423091
-0.00140407
0.000543586
-0.00167711
0.000663757
-0.00192371
0.000778623
-0.0021372
0.000884476
-0.00231456
0.00097902
-0.00245596
0.00106127
-0.00256393
0.00113133
-0.00264251
0.00119005
-0.00269642
0.00123876
-0.00273046
0.00127899
-0.00274909
0.0013123
-0.00275618
0.00134014
-0.00275495
0.00136376
-0.00274795
0.00138424
-0.00273712
0.00140243
-0.00272393
0.001419
-0.00270941
0.00143448
-0.00269431
0.00144926
-0.0026791
-0.002664
0.0014636
1.48262e-05
-9.31966e-05
5.72707e-05
-0.000332073
0.000124807
-0.000610142
0.000213575
-0.000911518
0.000318313
-0.00121961
0.000432807
-0.00151856
0.000550634
-0.00179493
0.000665943
-0.00203902
0.000774062
-0.00224532
0.000871801
-0.0024123
0.000957467
-0.00254162
0.00103066
-0.00263712
0.00109194
-0.00270379
0.00114252
-0.002747
0.00118393
-0.00277187
0.00121779
-0.00278294
0.00124563
-0.00278403
0.00126883
-0.00277816
0.00128855
-0.00276767
0.00130572
-0.00275429
0.00132109
-0.00273929
0.00133522
-0.00272354
0.00134854
-0.00270763
0.00136135
-0.00269192
-0.00267653
0.00137388
1.5846e-05
-0.000109043
6.04812e-05
-0.000376708
0.000130508
-0.000680169
0.000221168
-0.00100218
0.000326391
-0.00132484
0.000439395
-0.00163157
0.000553537
-0.00190908
0.000663109
-0.00214859
0.000763862
-0.00234607
0.000853186
-0.00250162
0.000929993
-0.00261843
0.000994415
-0.00270154
0.00104743
-0.00275681
0.00109051
-0.00279008
0.00112531
-0.00280667
0.00115346
-0.0028111
0.00117645
-0.00280702
0.00119555
-0.00279725
0.00121179
-0.00278391
0.001226
-0.0027685
0.00123879
-0.00275209
0.00125065
-0.0027354
0.00126191
-0.00271889
0.00127282
-0.00270283
-0.00268726
0.00128355
1.68186e-05
-0.000125861
6.34297e-05
-0.000423319
0.000135505
-0.000752245
0.000227373
-0.00109405
0.000332202
-0.00142967
0.000442754
-0.00174212
0.000552308
-0.00201863
0.00065543
-0.00225171
0.000748387
-0.00243903
0.000829177
-0.00258241
0.000897299
-0.00268655
0.000953361
-0.0027576
0.000998673
-0.00280212
0.00103488
-0.00282629
0.00106371
-0.00283549
0.00108676
-0.00283414
0.00110542
-0.00282568
0.00112086
-0.00281269
0.00113397
-0.00279702
0.00114546
-0.00277999
0.00115586
-0.00276249
0.00116555
-0.00274509
0.00117481
-0.00272815
0.00118384
-0.00271186
-0.00269619
0.00119277
1.77285e-05
-0.00014359
6.60649e-05
-0.000471656
0.000139707
-0.000825887
0.000232073
-0.00118641
0.000335646
-0.00153324
0.000442854
-0.00184933
0.000547043
-0.00212282
0.000643169
-0.00234784
0.000728071
-0.00252393
0.000800365
-0.00265471
0.00086009
-0.00274628
0.000908263
-0.00280577
0.000946445
-0.0028403
0.000976398
-0.00285624
0.00099984
-0.00285894
0.00101831
-0.00285261
0.00103308
-0.00284046
0.00104519
-0.0028248
0.00105543
-0.00280726
0.0010644
-0.00278895
0.00107252
-0.00277061
0.00108011
-0.00275269
0.00108741
-0.00273544
0.00109455
-0.002719
-0.00270329
0.00110166
1.85609e-05
-0.000162151
6.83399e-05
-0.000521435
0.000143033
-0.00090058
0.000235181
-0.00127856
0.00033667
-0.00163473
0.000439734
-0.00195239
0.000537915
-0.002221
0.000626652
-0.00243658
0.000703393
-0.00260067
0.000767351
-0.00271866
0.00081905
-0.00279797
0.000859837
-0.00284656
0.000891454
-0.00287192
0.000915711
-0.0028805
0.000934284
-0.00287751
0.000948612
-0.00286694
0.000959856
-0.0028517
0.000968919
-0.00283386
0.000976482
-0.00281482
0.000983044
-0.00279552
0.000988963
-0.00277653
0.000994496
-0.00275822
0.000999824
-0.00274077
0.00100507
-0.00272424
-0.00270853
0.00101031
1.93015e-05
-0.000181452
7.02129e-05
-0.000572346
0.000145422
-0.000975789
0.000236641
-0.00136978
0.000335273
-0.00173336
0.000433492
-0.00205061
0.000525156
-0.00231266
0.000606254
-0.00251767
0.000674856
-0.00266927
0.00073073
-0.00277454
0.00077482
-0.00284206
0.000808733
-0.00288047
0.000834319
-0.0028975
0.000853387
-0.00289957
0.000867537
-0.00289166
0.000878092
-0.00287749
0.000886089
-0.0028597
0.000892312
-0.00284008
0.000897337
-0.00281985
0.000901581
-0.00279976
0.000905338
-0.00278029
0.000908816
-0.0027617
0.000912162
-0.00274412
0.000915469
-0.00272755
-0.00271187
0.000918805
1.99376e-05
-0.00020139
7.16491e-05
-0.000624057
0.000146827
-0.00105097
0.000236429
-0.00145938
0.000331496
-0.00182843
0.000424275
-0.00214339
0.00050904
-0.00239743
0.000582377
-0.00259101
0.000642961
-0.00272986
0.000691068
-0.00282265
0.000727992
-0.00287899
0.000755526
-0.00290801
0.000775574
-0.00291755
0.000789899
-0.00291389
0.000800003
-0.00290176
0.000807084
-0.00288457
0.000812055
-0.00286467
0.00081559
-0.00284362
0.000818173
-0.00282243
0.000820149
-0.00280173
0.000821759
-0.0027819
0.000823175
-0.00276311
0.000824512
-0.00274545
0.000825846
-0.00272889
-0.00271326
0.000827234
2.04576e-05
-0.000221847
7.26209e-05
-0.000676221
0.00014722
-0.00112557
0.000234551
-0.00154671
0.00032542
-0.0019193
0.000412271
-0.00223024
0.000489875
-0.00247503
0.000555431
-0.00265657
0.000608197
-0.00278262
0.000648895
-0.00286334
0.000679097