/*--------------------------------*- C++ -*----------------------------------*\
  =========                 |
  \\      /  F ield         | OpenFOAM: The Open Source CFD Toolbox
   \\    /   O peration     | Website:  https://openfoam.org
    \\  /    A nd           | Version:  6.0
     \\/     M anipulation  |
\*---------------------------------------------------------------------------*/
FoamFile
{
    version     2.0;
    format      ascii;
    class       volVectorField;
    location    "82";
    object      U;
}
// * * * * * * * * * * * * * * * * * * * * * * * * * * * * * * * * * * * * * //

dimensions      [0 1 -1 0 0 0 0];

internalField   nonuniform List<vector> 
12500
(
(-0.00126528 0.0484846 -9.83439e-22)
(-0.00483631 0.113879 1.48104e-20)
(-0.0107046 0.155096 -2.15256e-20)
(-0.0179842 0.177844 9.86936e-21)
(-0.0261241 0.186848 5.52001e-22)
(-0.0347441 0.185929 -1.14475e-21)
(-0.0435116 0.178058 -1.79165e-20)
(-0.0521513 0.165465 9.81261e-21)
(-0.06044 0.149754 6.57555e-21)
(-0.0681942 0.132029 6.61692e-21)
(-0.0752598 0.113013 -1.12914e-20)
(-0.0815062 0.0931495 6.54506e-21)
(-0.0868231 0.0726887 -3.10032e-21)
(-0.0911194 0.0517527 5.28376e-21)
(-0.0943252 0.0303871 -1.34676e-20)
(-0.0963936 0.00859724 1.92812e-20)
(-0.0973059 -0.0136262 -3.55393e-21)
(-0.0970754 -0.0362897 -1.37911e-20)
(-0.0957548 -0.0593848 7.17905e-21)
(-0.0934375 -0.0828805 -6.84517e-21)
(-0.0902409 -0.106717 6.03998e-21)
(-0.0863204 -0.130804 7.80606e-21)
(-0.0820908 -0.155019 8.66966e-22)
(-0.0783281 -0.179236 -2.25718e-20)
(-0.0739197 -0.20329 1.18909e-20)
(-0.00270675 0.0495717 2.02456e-20)
(-0.00792573 0.116963 -5.17105e-20)
(-0.0143663 0.159909 1.50166e-20)
(-0.0215671 0.184068 1.01268e-20)
(-0.0292277 0.194147 -8.025e-21)
(-0.0371231 0.193971 -4.59168e-20)
(-0.0450255 0.186539 1.35476e-20)
(-0.0527253 0.174106 -2.59614e-20)
(-0.0600389 0.158303 3.09496e-20)
(-0.0668047 0.140256 -4.12247e-20)
(-0.0728801 0.120709 2.19425e-20)
(-0.0781405 0.100119 7.41389e-21)
(-0.0824786 0.0787533 -1.80159e-20)
(-0.085806 0.0567519 -7.87871e-21)
(-0.0880554 0.034183 5.83665e-20)
(-0.089184 0.0110807 -5.18896e-20)
(-0.089177 -0.0125273 1.2523e-20)
(-0.0880529 -0.036601 2.15001e-20)
(-0.0858696 -0.0610753 -4.54464e-21)
(-0.0827256 -0.0858523 3.41573e-20)
(-0.0787418 -0.110797 6.49266e-21)
(-0.0740756 -0.135737 -2.63878e-21)
(-0.0691557 -0.160479 -4.36079e-20)
(-0.0647942 -0.184833 3.9737e-20)
(-0.0597907 -0.208527 -7.63468e-20)
(-0.00417627 0.0503137 6.61232e-20)
(-0.0110653 0.119312 2.15182e-20)
(-0.0180291 0.163815 -2.88082e-20)
(-0.0250529 0.189352 1.25503e-20)
(-0.0320981 0.200548 1.11879e-20)
(-0.0391017 0.201202 4.31992e-20)
(-0.0459463 0.19431 -5.51767e-20)
(-0.0524943 0.18214 -9.46701e-21)
(-0.0586062 0.166344 -3.72866e-20)
(-0.0641467 0.148069 -3.11709e-20)
(-0.0689892 0.128074 3.9558e-20)
(-0.073019 0.106841 -1.34295e-19)
(-0.0761361 0.0846515 -4.78416e-21)
(-0.0782582 0.0616685 -8.15234e-20)
(-0.079324 0.0379841 -9.85152e-21)
(-0.0792962 0.0136619 1.11475e-20)
(-0.0781656 -0.0112342 -6.40261e-20)
(-0.0759551 -0.0366195 -4.01983e-20)
(-0.0727253 -0.0623752 -4.71932e-20)
(-0.0685761 -0.0883402 7.34473e-20)
(-0.0636273 -0.114307 2.65994e-20)
(-0.0580319 -0.140027 -1.21095e-19)
(-0.0522203 -0.165237 -5.80098e-20)
(-0.0470334 -0.189687 -6.53054e-20)
(-0.0412332 -0.212996 1.72807e-19)
(-0.00564319 0.0506722 -1.34681e-21)
(-0.0141937 0.120829 -5.05144e-20)
(-0.021623 0.166678 -2.52912e-20)
(-0.0283731 0.193529 1.59881e-20)
(-0.0346714 0.205873 9.42042e-20)
(-0.0406207 0.207435 -4.18845e-20)
(-0.0462193 0.201184 9.03986e-20)
(-0.0514067 0.189388 8.67727e-20)
(-0.0560923 0.173707 5.25903e-20)
(-0.0601721 0.155308 -6.14253e-22)
(-0.0635396 0.134972 1.06822e-19)
(-0.066094 0.113199 1.87862e-20)
(-0.0677464 0.0902944 8.2284e-20)
(-0.0684238 0.0664423 1.91156e-19)
(-0.0680731 0.04176 -2.22274e-19)
(-0.0666644 0.0163395 3.35798e-19)
(-0.0641941 -0.00972192 7.37182e-20)
(-0.060688 -0.0362998 -1.63161e-19)
(-0.0562071 -0.0632278 -2.28127e-20)
(-0.0508477 -0.0902887 5.81885e-20)
(-0.0447239 -0.11721 -3.03298e-20)
(-0.0379781 -0.143669 -1.89879e-20)
(-0.0310299 -0.169333 -1.8022e-20)
(-0.024742 -0.193894 -7.0635e-20)
(-0.0178952 -0.216849 2.42505e-19)
(-0.00707443 0.0506183 3.57304e-20)
(-0.0172459 0.121434 -1.63574e-19)
(-0.0250774 0.168376 1.98802e-19)
(-0.0314633 0.196449 -7.83698e-20)
(-0.0368946 0.209947 9.49093e-20)
(-0.0416398 0.212484 7.82074e-20)
(-0.0458163 0.206973 2.98009e-20)
(-0.0494448 0.195661 2.69125e-21)
(-0.0524887 0.180214 1.67302e-19)
(-0.0548798 0.161812 1.17108e-19)
(-0.0565361 0.141255 -4.58374e-20)
(-0.0573748 0.119067 -3.0321e-20)
(-0.057321 0.0955773 1.28374e-19)
(-0.0563138 0.0709932 2.39041e-20)
(-0.0543103 0.0454563 6.72398e-20)
(-0.0512889 0.0190841 1.59795e-19)
(-0.0472512 -0.00799756 -1.36164e-19)
(-0.0422251 -0.0356318 1.09446e-19)
(-0.0362687 -0.063614 -2.40814e-19)
(-0.0294716 -0.0916806 2.02641e-19)
(-0.0219378 -0.119502 1.6742e-21)
(-0.0137945 -0.14669 -1.6337e-19)
(-0.00543993 -0.17284 6.39049e-20)
(0.00224901 -0.197575 1.47283e-19)
(0.0104092 -0.220259 -2.13347e-19)
(-0.00843594 0.0501346 1.8742e-19)
(-0.0201549 0.12107 -1.98469e-19)
(-0.0283227 0.168811 -3.05907e-20)
(-0.0342657 0.197978 4.06291e-20)
(-0.0387274 0.212612 -8.58862e-20)
(-0.0421385 0.216175 -1.33278e-19)
(-0.044736 0.211492 -1.12001e-19)
(-0.0466256 0.200776 -2.70085e-20)
(-0.047829 0.185684 -1.92433e-19)
(-0.0483181 0.167406 1.57334e-19)
(-0.0480398 0.146763 -2.41579e-19)
(-0.0469328 0.124301 1.23832e-19)
(-0.0449394 0.100374 -3.93866e-20)
(-0.0420125 0.0752145 9.55016e-20)
(-0.038121 0.048986 -2.41613e-19)
(-0.0332521 0.0218284 1.20258e-19)
(-0.0274128 -0.00611047 1.03116e-20)
(-0.0206317 -0.0346501 5.25875e-20)
(-0.0129628 -0.0635584 3.20718e-19)
(-0.00448629 -0.0925379 7.33694e-20)
(0.00470581 -0.121215 -5.06343e-21)
(0.0145036 -0.149139 2.06577e-20)
(0.0245382 -0.175835 1.34142e-19)
(0.033926 -0.200844 3.93391e-20)
(0.0436538 -0.223376 1.23347e-19)
(-0.00969436 0.0492182 -1.16561e-19)
(-0.0228552 0.119706 1.65265e-19)
(-0.0312931 0.167917 1.07069e-20)
(-0.0367299 0.198013 -2.01524e-19)
(-0.0401427 0.213734 4.26866e-19)
(-0.0421156 0.218347 -1.37255e-19)
(-0.0430041 0.214568 2.02262e-19)
(-0.0430007 0.204551 1.85182e-19)
(-0.0421889 0.189933 -1.52791e-19)
(-0.0405854 0.171911 -2.25032e-19)
(-0.0381695 0.151323 6.18928e-20)
(-0.0349049 0.128737 -6.58092e-20)
(-0.0307534 0.104534 -2.92986e-19)
(-0.025684 0.0789672 3.6061e-19)
(-0.019678 0.0522234 -1.74062e-19)
(-0.0127318 0.0244602 -1.20266e-19)
(-0.00485789 -0.00415913 2.6915e-21)
(0.00391454 -0.0334396 1.01391e-19)
(0.0135365 -0.0631339 4.10839e-20)
(0.0239374 -0.092924 -1.60563e-19)
(0.035037 -0.122405 1.87442e-19)
(0.0467418 -0.151077 -3.20689e-19)
(0.0587166 -0.178389 1.97438e-19)
(0.0700793 -0.203786 -1.48866e-19)
(0.0815973 -0.226306 4.11489e-20)
(-0.0108191 0.0478811 1.74912e-19)
(-0.025286 0.117344 -1.33904e-19)
(-0.0339295 0.165662 -8.43743e-20)
(-0.0388152 0.196484 -1.49438e-19)
(-0.0411268 0.213205 -2.72354e-19)
(-0.0415894 0.218865 -2.01046e-19)
(-0.0406719 0.216041 1.26945e-19)
(-0.0386541 0.20681 -1.92748e-19)
(-0.0356844 0.192781 2.45135e-19)
(-0.0318275 0.175143 -4.01026e-19)
(-0.0270994 0.154751 1.7959e-19)
(-0.0214915 0.132195 3.8204e-19)
(-0.0149873 0.107879 -5.40193e-19)
(-0.00757316 0.0820795 7.77198e-20)
(0.000756273 0.0550026 1.02849e-19)
(0.00999503 0.0268204 9.92336e-20)
(0.0201253 -0.00229408 -1.04602e-19)
(0.0311169 -0.0321402 -2.4155e-20)
(0.0429253 -0.0624666 -8.00293e-20)
(0.0554885 -0.0929488 -6.53254e-20)
(0.068736 -0.123165 -3.65848e-19)
(0.0825866 -0.152579 -2.52028e-20)
(0.0967396 -0.180567 4.56253e-21)
(0.110323 -0.20646 -1.64234e-19)
(0.123819 -0.229103 1.66354e-19)
(-0.0117842 0.0461503 5.5911e-21)
(-0.0273947 0.114016 5.4302e-20)
(-0.0361823 0.162054 5.74339e-20)
(-0.0404918 0.193362 3.20963e-20)
(-0.0416798 0.210955 2.79978e-19)
(-0.040595 0.217623 2.64459e-19)
(-0.0378124 0.215776 -2.14425e-19)
(-0.0336975 0.207398 -6.684e-20)
(-0.0284652 0.194052 -5.89158e-20)
(-0.0222316 0.176919 3.04667e-19)
(-0.0150521 0.156858 1.11914e-19)
(-0.00694875 0.13448 -1.60032e-19)
(0.00207113 0.110211 -1.38756e-19)
(0.012003 0.0843508 3.34372e-19)
(0.0228384 0.0571208 -8.24527e-20)
(0.0345617 0.0287056 -1.01664e-19)
(0.0471496 -0.000716771 -1.42572e-19)
(0.0605707 -0.030947 -1.1206e-19)
(0.0747835 -0.0617395 -1.44455e-19)
(0.0897326 -0.0927759 -9.43651e-20)
(0.105354 -0.123633 3.91988e-19)
(0.121573 -0.153752 -1.94085e-19)
(0.13812 -0.182443 1.30586e-19)
(0.154143 -0.208912 -3.46683e-19)
(0.169779 -0.231791 1.37551e-19)
(-0.01257 0.0440679 -1.59569e-19)
(-0.02914 0.109791 -4.18541e-20)
(-0.038014 0.157146 -3.22828e-19)
(-0.0417418 0.188661 -1.55161e-19)
(-0.0418134 0.206958 -3.04739e-19)
(-0.0391806 0.214551 -3.18916e-20)
(-0.0345144 0.213668 1.63944e-19)
(-0.0282619 0.20618 -1.01214e-19)
(-0.020705 0.193591 2.17797e-19)
(-0.0120133 0.177062 -5.32432e-19)
(-0.00228414 0.157453 -1.70165e-20)
(0.00842744 0.135391 9.55811e-20)
(0.0200889 0.111319 -1.21767e-19)
(0.0326766 0.0855587 1.13146e-19)
(0.0461681 0.0583462 -8.64581e-20)
(0.0605387 0.0298757 -1.87912e-19)
(0.0757596 0.000327073 3.44671e-19)
(0.0917977 -0.0301063 2.15598e-19)
(0.108613 -0.0611914 -4.44873e-20)
(0.126155 -0.0926262 1.4394e-19)
(0.144362 -0.124 -2.83459e-19)
(0.163158 -0.154747 4.08259e-19)
(0.1823 -0.184125 -5.5713e-19)
(0.200963 -0.211203 1.14002e-19)
(0.218896 -0.234388 -2.09103e-19)
(-0.0131649 0.0416885 8.7423e-21)
(-0.0304945 0.104764 -1.45077e-19)
(-0.0394012 0.151029 2.10537e-19)
(-0.0425592 0.182446 4.31606e-19)
(-0.041549 0.201235 -7.84962e-21)
(-0.037403 0.209626 4.89077e-20)
(-0.0308744 0.20965 -1.86328e-19)
(-0.0224867 0.203052 8.59894e-20)
(-0.0125872 0.191264 6.05724e-19)
(-0.0013995 0.175414 -1.37279e-19)
(0.0109348 0.156358 -1.65785e-19)
(0.0243265 0.134729 6.26079e-19)
(0.0387167 0.110988 2.08611e-19)
(0.0540623 0.0854713 1.00489e-19)
(0.0703276 0.0584303 1.03454e-19)
(0.0874789 0.0300666 2.80366e-19)
(0.105483 0.000560427 -1.0885e-19)
(0.124304 -0.029903 2.90253e-19)
(0.143903 -0.061107 3.94237e-19)
(0.164231 -0.0927724 -3.36143e-19)
(0.185226 -0.124512 5.01233e-19)
(0.206802 -0.15577 1.79864e-19)
(0.228733 -0.185764 -6.79803e-19)
(0.250235 -0.213429 9.82609e-19)
(0.270632 -0.236931 -7.73897e-19)
(-0.0135659 0.0390773 -4.16312e-19)
(-0.0314471 0.0990617 2.23133e-19)
(-0.0403357 0.143837 -1.50026e-19)
(-0.0429492 0.174823 -1.41397e-19)
(-0.0409147 0.193854 -1.54008e-19)
(-0.0353202 0.202873 -1.6662e-19)
(-0.0269865 0.203704 4.48471e-20)
(-0.0165053 0.197954 4.37312e-19)
(-0.0042858 0.186974 -9.19893e-20)
(0.00939452 0.171847 -2.45358e-19)
(0.02435 0.153415 -1.51693e-19)
(0.0404564 0.132313 -6.21821e-20)
(0.0576283 0.109012 1.89071e-19)
(0.0758037 0.0838613 -1.19205e-19)
(0.0949341 0.057124 -3.95765e-19)
(0.114978 0.0290082 -4.41888e-19)
(0.135897 -0.000305758 1.76886e-19)
(0.157655 -0.0306408 -3.318e-19)
(0.180211 -0.0617972 2.91942e-19)
(0.203516 -0.0935208 -8.22151e-19)
(0.2275 -0.125455 6.33776e-19)
(0.252063 -0.157067 -8.3868e-19)
(0.276981 -0.187553 -1.52591e-20)
(0.301525 -0.215717 -2.80233e-19)
(0.324575 -0.239481 8.02445e-19)
(-0.0137793 0.0363063 6.39703e-19)
(-0.0320034 0.0928298 9.33026e-20)
(-0.0408253 0.135735 -6.16401e-20)
(-0.0429271 0.165948 -2.53852e-20)
(-0.0399405 0.184937 4.77567e-19)
(-0.0329842 0.19437 1.56072e-19)
(-0.0229301 0.195861 1.42371e-19)
(-0.0104282 0.190874 -1.13912e-19)
(0.00405555 0.180667 4.42851e-19)
(0.0201928 0.166271 -2.19008e-19)
(0.037755 0.148503 1.40105e-19)
(0.0565836 0.127991 3.64161e-19)
(0.0765676 0.105213 -2.08157e-19)
(0.0976273 0.080524 2.27998e-19)
(0.119702 0.0541973 2.16729e-19)
(0.142745 0.0264464 7.44354e-20)
(0.166712 -0.00254782 -1.87378e-19)
(0.191566 -0.0326145 5.16779e-19)
(0.217261 -0.0635684 -4.84959e-20)
(0.243742 -0.0951787 -5.69033e-20)
(0.270929 -0.127121 6.27269e-19)
(0.298696 -0.158896 -4.46574e-19)
(0.32681 -0.1897 7.52053e-19)
(0.3546 -0.218209 -6.20987e-19)
(0.380519 -0.2421 7.77789e-19)
(-0.0138204 0.0334511 -3.11433e-19)
(-0.0321856 0.0862284 6.83582e-20)
(-0.0408918 0.126916 -7.20544e-20)
(-0.0425152 0.15601 -3.34718e-19)
(-0.0386532 0.174651 1.96793e-20)
(-0.0304317 0.184245 1.91327e-19)
(-0.0187568 0.186208 -7.77652e-19)
(-0.00432507 0.181856 5.82891e-19)
(0.0123483 0.172346 -5.6884e-19)
(0.0308888 0.158649 -3.61594e-19)
(0.0510283 0.141549 3.26182e-19)
(0.0725767 0.12166 -7.14056e-19)
(0.0953996 0.0994552 6.04645e-19)
(0.119401 0.0752966 -1.9215e-19)
(0.144511 0.0494614 -5.5868e-19)
(0.170674 0.0221681 1.39173e-19)
(0.197845 -0.00640051 -1.30761e-19)
(0.225977 -0.0360766 5.11909e-20)
(0.25502 -0.0666847 -1.785e-19)
(0.284904 -0.0980122 -5.99157e-19)
(0.315528 -0.129764 1.34169e-19)
(0.346731 -0.161481 -1.85724e-22)
(0.378252 -0.192374 -6.17856e-19)
(0.409488 -0.221009 4.33981e-19)
(0.438497 -0.244811 -3.62165e-19)
(-0.0137125 0.0305866 1.26707e-19)
(-0.0320308 0.0794232 2.31678e-19)
(-0.0405692 0.11759 3.21486e-19)
(-0.0417386 0.145229 1.65452e-19)
(-0.0370697 0.163201 -1.61733e-19)
(-0.0276745 0.17268 3.85992e-19)
(-0.0144763 0.17489 2.86505e-19)
(0.00179466 0.171003 -1.03357e-19)
(0.0205833 0.162075 3.75327e-19)
(0.0414762 0.149008 -3.86748e-19)
(0.064171 0.132543 -1.14546e-19)
(0.0884504 0.113275 1.16131e-19)
(0.11416 0.0916666 2.32942e-19)
(0.14119 0.0680791 2.63241e-21)
(0.16946 0.0427922 1.50662e-19)
(0.198909 0.0160286 2.81155e-19)
(0.229483 -0.0120256 -4.80743e-19)
(0.261124 -0.0412015 6.00773e-19)
(0.293764 -0.0713267 2.04896e-19)
(0.327309 -0.1022 7.34538e-20)
(0.361625 -0.133549 -7.37256e-19)
(0.3965 -0.164954 1.04286e-19)
(0.431624 -0.195658 1.62023e-19)
(0.466467 -0.22413 -3.80745e-20)
(0.498766 -0.247544 1.77335e-19)
(-0.0134852 0.0277835 9.80399e-21)
(-0.0315873 0.0725769 -5.96483e-19)
(-0.0398985 0.107972 -1.41792e-20)
(-0.0406199 0.133844 -1.49514e-19)
(-0.0351899 0.150829 -9.79326e-19)
(-0.0246893 0.159898 8.4547e-19)
(-0.0100427 0.162104 -6.0191e-19)
(0.00799963 0.158482 -3.04119e-20)
(0.028854 0.149985 -2.86743e-19)
(0.0520771 0.137442 4.98053e-19)
(0.0773399 0.121549 -5.3887e-19)
(0.104403 0.10287 -2.54417e-19)
(0.133096 0.0818536 4.5138e-21)
(0.163297 0.0588554 -5.60774e-19)
(0.194916 0.0341552 7.67998e-19)
(0.227879 0.00797942 -8.98362e-19)
(0.262118 -0.0194803 4.5234e-22)
(0.297552 -0.0480493 1.38368e-19)
(0.334081 -0.0775518 -3.51653e-19)
(0.371571 -0.107788 3.42907e-19)
(0.409836 -0.138501 -4.85643e-19)
(0.448596 -0.169305 -3.20911e-19)
(0.48747 -0.199491 5.96215e-19)
(0.525996 -0.227451 -6.48664e-19)
(0.561709 -0.250101 -9.89104e-21)
(-0.0131724 0.0251042 -5.08271e-19)
(-0.0309103 0.0658403 5.7968e-19)
(-0.0389223 0.0982706 -1.78412e-19)
(-0.0391715 0.122099 3.41732e-19)
(-0.0329882 0.137791 3.67666e-19)
(-0.0214078 0.146156 -3.23782e-19)
(-0.0053422 0.148094 -2.15309e-19)
(0.0144521 0.144516 -2.58446e-19)
(0.0373751 0.136274 2.36645e-19)
(0.062964 0.124125 -1.63698e-20)
(0.0908713 0.108713 3.48661e-19)
(0.120842 0.0905671 3.45897e-19)
(0.152692 0.0701188 -4.18506e-19)
(0.186287 0.0477129 8.25126e-19)
(0.221521 0.0236279 -5.52074e-19)
(0.258302 -0.00190578 -9.64694e-20)
(0.296531 -0.0286886 1.09094e-18)
(0.336089 -0.0565357 -5.06349e-19)
(0.376824 -0.0852611 3.26399e-19)
(0.418537 -0.114659 6.38937e-19)
(0.460969 -0.144476 -4.14636e-19)
(0.503756 -0.174358 4.4147e-20)
(0.54642 -0.203652 -2.8828e-20)
(0.588562 -0.230701 -1.66243e-19)
(0.627678 -0.252143 3.07031e-19)
(-0.0128093 0.0226002 1.16788e-19)
(-0.0300555 0.0593448 -3.66612e-19)
(-0.0376768 0.0886799 2.00564e-19)
(-0.0373886 0.110231 -2.51342e-21)
(-0.0304051 0.124355 1.49845e-19)
(-0.0177078 0.131732 -2.57486e-19)
(-0.000183427 0.133141 1.47196e-19)
(0.0214182 0.129378 4.01985e-19)
(0.046493 0.121204 -1.32324e-20)
(0.0745695 0.109303 -2.07608e-19)
(0.10529 0.0942657 2.09109e-19)
(0.138387 0.076586 -3.80635e-21)
(0.173664 0.0566717 -6.72496e-19)
(0.210968 0.0348566 2.48961e-19)
(0.250168 0.0114168 5.47433e-20)
(0.291136 -0.0134125 -9.89619e-20)
(0.333724 -0.0394217 -1.80468e-19)
(0.377751 -0.0664119 6.83957e-19)
(0.422984 -0.0941819 1.67561e-19)
(0.469138 -0.122513 -3.61134e-19)
(0.515855 -0.15115 -4.4255e-20)
(0.562672 -0.179761 4.97377e-19)
(0.609001 -0.207762 -2.32572e-19)
(0.654485 -0.233475 9.89192e-20)
(0.696793 -0.253233 6.34893e-20)
(-0.0124292 0.0203092 -2.32779e-19)
(-0.0290724 0.0531952 2.30206e-19)
(-0.0361843 0.0793665 -1.29035e-19)
(-0.0352405 0.0984594 -4.13433e-19)
(-0.0273402 0.110778 -3.79623e-19)
(-0.0134071 0.116915 -1.67606e-19)
(0.00570694 0.117549 -1.39109e-19)
(0.02927 0.113382 -4.11573e-19)
(0.0566851 0.105092 -1.67253e-19)
(0.0874808 0.0932928 1.53171e-19)
(0.121294 0.0785235 -2.18575e-19)
(0.157846 0.0612417 -2.31068e-19)
(0.196922 0.0418313 -2.19055e-19)
(0.238337 0.0206141 4.03729e-19)
(0.281918 -0.00213614 -8.46888e-19)
(0.327478 -0.0261789 4.90321e-19)
(0.374792 -0.0512928 -8.38965e-19)
(0.423586 -0.0772631 -1.30083e-19)
(0.473521 -0.103871 -4.66462e-19)
(0.524197 -0.130883 -1.0886e-19)
(0.575142 -0.158037 -1.33173e-19)
(0.625782 -0.185022 -4.44605e-19)
(0.675419 -0.211324 -4.71907e-20)
(0.723718 -0.235292 2.68919e-19)
(0.768754 -0.252898 -6.68312e-19)
(-0.0120602 0.0182532 2.00205e-19)
(-0.0279976 0.047465 2.6043e-19)
(-0.0344453 0.0704625 9.04766e-19)
(-0.0326638 0.0869733 -1.58488e-19)
(-0.0236476 0.0973006 3.76392e-19)
(-0.00826209 0.101985 8.94864e-19)
(0.0126814 0.101632 -2.43851e-19)
(0.0384771 0.0968672 3.30189e-19)
(0.068543 0.0882942 1.92584e-19)
(0.102412 0.0764665 3.5073e-19)
(0.139717 0.0618732 -7.04613e-20)
(0.18016 0.0449367 4.77152e-20)
(0.223492 0.0260181 -1.2755e-19)
(0.269481 0.00542766 6.77254e-19)
(0.317882 -0.016563 8.57329e-20)
(0.368416 -0.0397075 6.3752e-19)
(0.420751 -0.0637729 -1.645e-19)
(0.474488 -0.0885297 5.90368e-19)
(0.529157 -0.113743 8.37986e-20)
(0.584221 -0.139167 3.01649e-19)
(0.639085 -0.164536 -1.29369e-19)
(0.693072 -0.189556 -2.25818e-20)
(0.745387 -0.213791 7.14733e-19)
(0.795702 -0.235662 4.35144e-19)
(0.842714 -0.250718 -1.73535e-19)
(-0.0117218 0.016438 -4.8244e-19)
(-0.0268481 0.0421938 -4.85599e-19)
(-0.0324317 0.0620601 -5.05664e-19)
(-0.0295586 0.0759232 1.85635e-19)
(-0.0191347 0.0841297 -3.71031e-19)
(-0.00197213 0.0872013 -5.51384e-20)
(0.0211596 0.0856958 -1.45434e-19)
(0.049585 0.0801781 -6.03998e-19)
(0.082739 0.0711914 -9.51388e-20)
(0.120158 0.0592353 1.55492e-19)
(0.161458 0.044755 -4.90396e-19)
(0.206311 0.0281409 6.81647e-19)
(0.254411 0.00973306 -9.30403e-19)
(0.305443 -0.010169 2.25606e-19)
(0.35906 -0.0312957 -5.74651e-19)
(0.414856 -0.0533961 -4.70171e-19)
(0.472355 -0.0762287 -2.75866e-20)
(0.531007 -0.0995534 -7.20779e-20)
(0.59019 -0.123126 5.59901e-20)
(0.649228 -0.146697 -2.72285e-19)
(0.707407 -0.170001 -1.87784e-19)
(0.763965 -0.192768 2.30456e-19)
(0.818048 -0.214643 -6.37866e-19)
(0.869326 -0.234166 2.0609e-19)
(0.917292 -0.246404 1.36958e-19)
(-0.0114222 0.014853 -8.51144e-20)
(-0.0256164 0.0373863 -1.40196e-19)
(-0.0300834 0.0542085 5.46965e-19)
(-0.0257866 0.0654153 2.02476e-19)
(-0.0135665 0.0714326 2.67432e-19)
(0.0058085 0.072791 -3.5705e-19)
(0.0316072 0.0700225 7.66675e-22)
(0.0631813 0.0636486 -2.88995e-19)
(0.0999768 0.0541643 5.34286e-19)
(0.141521 0.0420244 1.75321e-19)
(0.1874 0.0276367 1.98656e-19)
(0.237222 0.0113631 -7.84925e-19)
(0.290592 -0.00647457 9.74306e-19)
(0.347079 -0.0255871 -2.91858e-19)
(0.406189 -0.0457084 -2.10427e-19)
(0.467357 -0.0665865 6.34775e-19)
(0.529933 -0.0879771 2.85615e-19)
(0.593199 -0.109638 -7.21878e-19)
(0.656375 -0.131328 -3.02419e-19)
(0.718656 -0.152804 9.13231e-19)
(0.779234 -0.173818 -6.95752e-19)
(0.837305 -0.194128 4.19366e-19)
(0.892005 -0.213471 2.32378e-19)
(0.943023 -0.230542 -2.99062e-19)
(0.990709 -0.239874 -2.71867e-19)
(-0.0111567 0.0134733 -3.13007e-19)
(-0.0242682 0.0330148 4.86575e-19)
(-0.0273073 0.0469148 2.06234e-19)
(-0.0211754 0.0555094 -2.97348e-19)
(-0.00667575 0.0593294 -4.75902e-20)
(0.0154526 0.0589373 -3.10376e-19)
(0.044506 0.0548574 -1.23483e-19)
(0.0798522 0.0475833 1.38844e-19)
(0.120933 0.0375742 -3.43778e-20)
(0.167244 0.0252486 2.63122e-19)
(0.218308 0.0109836 -2.29115e-19)
(0.273638 -0.00488273 6.35317e-19)
(0.332707 -0.0220459 -7.91453e-19)
(0.394924 -0.0402273 4.9406e-19)
(0.459615 -0.0591677 6.1799e-19)
(0.526019 -0.0786203 -8.95763e-19)
(0.593299 -0.0983469 -2.72769e-19)
(0.660561 -0.118116 4.61974e-19)
(0.726886 -0.137701 -2.83681e-19)
(0.791365 -0.156883 2.74999e-19)
(0.85314 -0.17545 -6.64105e-19)
(0.911419 -0.193208 1.11619e-19)
(0.965404 -0.209994 4.31398e-19)
(1.01487 -0.22466 -6.92402e-19)
(1.0609 -0.231225 1.8313e-19)
(-0.0109067 0.012262 -2.88641e-19)
(-0.0227416 0.029024 9.04636e-19)
(-0.0239794 0.0401476 1.72771e-19)
(-0.0155249 0.04622 -4.66697e-19)
(0.00182385 0.0478921 3.33879e-19)
(0.0273372 0.0457744 1.69328e-19)
(0.0603207 0.040399 2.7016e-19)
(0.100137 0.0322442 -1.73624e-20)
(0.146195 0.0217439 -2.78339e-20)
(0.197928 0.00928931 -5.90321e-20)
(0.254753 -0.00476782 -2.59301e-19)
(0.316042 -0.0201106 -9.87642e-21)
(0.381093 -0.036451 6.07721e-19)
(0.449114 -0.0535244 -1.00179e-18)
(0.519217 -0.0710838 7.1304e-19)
(0.590433 -0.0888959 1.45145e-19)
(0.661735 -0.106739 2.56984e-19)
(0.732071 -0.124405 -1.32183e-19)
(0.800409 -0.141696 1.17243e-18)
(0.86578 -0.158433 -7.23395e-19)
(0.927326 -0.174452 5.78011e-19)
(0.984309 -0.189636 1.35186e-19)
(1.03608 -0.203917 -4.22551e-19)
(1.08262 -0.216223 3.57826e-19)
(1.12527 -0.220547 5.32266e-19)
(-0.0106409 0.0111739 -8.34864e-20)
(-0.02095 0.0253383 -3.18971e-19)
(-0.0199512 0.0338445 -5.43527e-19)
(-0.00861793 0.0375224 -3.08731e-19)
(0.0122214 0.0371473 -4.31119e-20)
(0.0418202 0.0333883 -1.21628e-19)
(0.0794661 0.0267957 -5.63248e-19)
(0.124484 0.0178429 9.31259e-20)
(0.176215 0.00694709 -6.34075e-19)
(0.233979 -0.00552133 -4.95521e-20)
(0.297044 -0.019232 -6.10171e-19)
(0.364591 -0.0338882 -2.18093e-19)
(0.4357 -0.0492212 1.25515e-19)
(0.509345 -0.0649852 -5.96989e-19)
(0.58441 -0.0809537 5.29607e-21)
(0.659719 -0.0969172 -5.15648e-19)
(0.734074 -0.112682 1.9962e-19)
(0.806305 -0.128072 -7.17926e-19)
(0.875323 -0.142929 -1.22402e-19)
(0.940156 -0.157116 -1.30997e-20)
(0.999994 -0.170525 -1.1894e-19)
(1.05418 -0.183104 -1.19749e-19)
(1.10223 -0.194803 -5.74717e-20)
(1.14432 -0.20457 -2.35286e-19)
(1.18085 -0.208384 -4.9506e-19)
(-0.0103167 0.0101605 1.5364e-19)
(-0.0187868 0.0218698 4.03233e-19)
(-0.0150562 0.0279219 4.83293e-19)
(-0.000230571 0.0293618 -3.85766e-19)
(0.0247933 0.0270847 7.14902e-19)
(0.0592196 0.0218221 -3.87873e-19)
(0.102282 0.0141492 2.10455e-19)
(0.153224 0.00454118 3.28221e-19)
(0.211269 -0.0065954 2.99169e-19)
(0.275576 -0.0189074 1.45654e-19)
(0.345206 -0.0320847 2.35694e-19)
(0.419105 -0.0458531 1.37164e-19)
(0.496098 -0.0599685 9.29881e-19)
(0.57491 -0.0742125 -6.75578e-19)
(0.654199 -0.0883897 7.72484e-19)
(0.732605 -0.102326 -3.19062e-19)
(0.808808 -0.115866 6.90547e-19)
(0.881586 -0.128875 -3.17489e-20)
(0.949861 -0.141239 -1.42417e-19)
(1.01275 -0.152862 -2.09718e-20)
(1.06956 -0.163672 5.24285e-19)
(1.11985 -0.17362 -4.94148e-19)
(1.1634 -0.182558 3.55418e-19)
(1.20021 -0.190007 3.74746e-19)
(1.22619 -0.198294 6.87407e-20)
(-0.00988367 0.00917381 1.06119e-19)
(-0.0161308 0.0185286 -5.75956e-19)
(-0.00911895 0.0222866 -2.08794e-19)
(0.00985687 0.0216662 1.90481e-19)
(0.0397909 0.0176691 -5.86174e-19)
(0.0797989 0.0110882 -1.15662e-19)
(0.129014 0.00252507 8.01519e-20)
(0.186549 -0.00754005 3.16765e-19)
(0.251452 -0.018709 -8.02253e-19)
(0.322661 -0.0306457 6.11882e-20)
(0.398982 -0.0430632 -2.34944e-19)
(0.479084 -0.0557156 -7.15521e-19)
(0.561519 -0.0683924 4.8734e-19)
(0.644762 -0.0809138 2.15893e-20)
(0.727271 -0.0931276 -1.55337e-20)
(0.807554 -0.104906 4.90353e-19)
(0.884236 -0.116145 -8.60282e-19)
(0.956117 -0.12676 6.78175e-19)
(1.02222 -0.136682 -1.2735e-19)
(1.08183 -0.145862 3.78273e-19)
(1.13449 -0.15426 -6.26186e-19)
(1.17998 -0.16184 3.47891e-19)
(1.21837 -0.168498 -6.01738e-19)
(1.24992 -0.174046 5.95712e-19)
(1.2722 -0.180213 -1.99552e-19)
(-0.00928648 0.00817126 7.10279e-19)
(-0.0128534 0.0152316 -1.15235e-19)
(-0.00196222 0.0168482 8.50225e-19)
(0.0218517 0.0143608 3.93116e-19)
(0.0574314 0.00885678 3.15107e-20)
(0.103759 0.00118409 1.71411e-19)
(0.159813 -0.00803158 4.11543e-20)
(0.224515 -0.0183065 6.99127e-19)
(0.296677 -0.029253 2.25271e-19)
(0.374958 -0.0405559 -3.0414e-20)
(0.457865 -0.0519588 6.04539e-20)
(0.543764 -0.0632543 2.33419e-19)
(0.630929 -0.074277 1.94666e-19)
(0.717612 -0.0848988 4.15625e-19)
(0.802122 -0.0950228 -4.74159e-19)
(0.882904 -0.104579 1.41427e-19)
(0.958611 -0.11352 4.5698e-20)
(1.02816 -0.121815 2.07552e-19)
(1.09076 -0.129446 5.48404e-19)
(1.14592 -0.136403 -3.6428e-19)
(1.19345 -0.142684 2.54436e-20)
(1.23342 -0.148287 -4.75724e-19)
(1.26614 -0.153169 4.36444e-19)
(1.29208 -0.157254 -3.96712e-19)
(1.30965 -0.161957 5.37917e-20)
(-0.00846838 0.00711872 -5.9198e-19)
(-0.0088241 0.0119108 4.51965e-19)
(0.00658619 0.0115316 -7.34477e-19)
(0.0359432 0.00738233 6.33258e-20)
(0.0778941 0.000611302 5.16159e-19)
(0.131235 -0.00788993 -8.59742e-19)
(0.194732 -0.0174788 6.82279e-19)
(0.267048 -0.0276739 -1.08304e-18)
(0.346695 -0.0381051 2.15906e-19)
(0.432004 -0.0484878 4.62606e-20)
(0.521146 -0.0586073 3.64419e-19)
(0.612175 -0.0683082 -1.21033e-18)
(0.703111 -0.0774846 2.09372e-19)
(0.792033 -0.0860724 2.20535e-19)
(0.877173 -0.0940408 -1.31092e-19)
(0.957002 -0.101384 -8.06462e-19)
(1.0303 -0.108112 3.81646e-19)
(1.09617 -0.114246 6.95935e-19)
(1.1541 -0.119811 -7.2143e-19)
(1.20389 -0.12483 5.15679e-19)
(1.24562 -0.129325 -6.45961e-19)
(1.27966 -0.133311 4.64243e-19)
(1.30655 -0.136763 -1.17218e-19)
(1.32693 -0.139646 6.69474e-19)
(1.33991 -0.14318 -7.32945e-19)
(-0.00737386 0.00599273 8.44783e-20)
(-0.00391587 0.00851963 6.68286e-20)
(0.0166885 0.0062857 1.62808e-19)
(0.0522985 0.000692142 5.81397e-19)
(0.101319 -0.00708134 -1.82985e-20)
(0.162303 -0.0161149 1.29732e-19)
(0.233736 -0.0257611 5.78832e-19)
(0.313958 -0.0355524 2.33877e-19)
(0.401118 -0.0451487 -7.70938e-20)
(0.493178 -0.0543101 6.56168e-19)
(0.587954 -0.0628799 -7.46574e-19)
(0.683208 -0.0707703 1.14425e-18)
(0.776749 -0.077949 -4.53068e-19)
(0.866557 -0.0844267 8.17028e-19)
(0.950881 -0.090244 -2.7589e-19)
(1.02832 -0.095459 9.96928e-20)
(1.09787 -0.100137 1.19894e-19)
(1.15892 -0.10434 -2.22876e-19)
(1.21127 -0.108125 1.88664e-19)
(1.25504 -0.111534 1.19911e-19)
(1.29061 -0.114599 1.58993e-19)
(1.31861 -0.117338 3.20339e-19)
(1.33978 -0.119729 -3.48399e-20)
(1.35491 -0.121765 -1.43566e-19)
(1.36361 -0.124503 3.8695e-19)
(-0.00595055 0.00478132 -4.93605e-19)
(0.00199115 0.00503618 5.2023e-20)
(0.0284933 0.0010912 -9.36642e-19)
(0.0710604 -0.00571436 -2.23563e-19)
(0.127805 -0.0142011 -4.19075e-19)
(0.196977 -0.0234407 -8.9742e-20)
(0.276709 -0.0327979 -4.49317e-19)
(0.364951 -0.0418364 -2.68892e-19)
(0.459439 -0.0502641 3.56075e-19)
(0.557736 -0.0579053 -5.94258e-19)
(0.657312 -0.06468 -1.65033e-19)
(0.755673 -0.0705843 5.95479e-21)
(0.850497 -0.0756713 -1.10628e-18)
(0.939759 -0.0800323 4.68164e-19)
(1.02183 -0.0837787 -6.77268e-19)
(1.09555 -0.0870261 -1.97476e-20)
(1.1602 -0.0898821 1.27478e-19)
(1.21553 -0.0924375 -2.11406e-19)
(1.26168 -0.0947619 -1.82542e-19)
(1.29908 -0.0969028 8.46491e-20)
(1.32843 -0.0988869 9.12939e-20)
(1.35054 -0.100722 -5.972e-19)
(1.36634 -0.102374 3.37698e-19)
(1.37671 -0.103852 1.56268e-19)
(1.38157 -0.106092 2.86353e-20)
(-0.00415023 0.00348379 5.04041e-19)
(0.00900717 0.00146477 -5.36893e-19)
(0.0421328 -0.00403628 7.53654e-19)
(0.0923452 -0.011802 1.1786e-19)
(0.157412 -0.0206874 -3.59292e-20)
(0.235211 -0.0297794 -2.53922e-19)
(0.323455 -0.038478 3.80706e-20)
(0.419639 -0.046401 3.86776e-19)
(0.521048 -0.0533283 -5.33553e-19)
(0.624838 -0.059171 5.60054e-19)
(0.728167 -0.0639452 -5.9052e-20)
(0.828358 -0.0677451 2.80496e-20)
(0.923052 -0.0707162 7.20913e-19)
(1.01034 -0.0730294 9.55758e-19)
(1.08882 -0.0748586 -3.74778e-19)
(1.15765 -0.0763631 6.48708e-19)
(1.2165 -0.077676 3.18686e-19)
(1.26549 -0.0788975 -1.99077e-19)
(1.30511 -0.0800943 6.04397e-19)
(1.3361 -0.0813018 -3.21352e-20)
(1.3594 -0.0825301 -5.60362e-19)
(1.37601 -0.0837676 5.74045e-19)
(1.38694 -0.0849624 7.30237e-20)
(1.39314 -0.0861313 -3.35578e-19)
(1.39471 -0.0881034 1.06331e-19)
(-0.00192918 0.00210968 -6.99761e-19)
(0.017231 -0.00216503 7.31612e-19)
(0.0577201 -0.00904579 -4.63941e-19)
(0.116239 -0.0174949 -1.44478e-19)
(0.190154 -0.0264377 -3.25005e-19)
(0.2769 -0.0350053 5.75404e-19)
(0.373701 -0.0426614 -3.34288e-19)
(0.477546 -0.0491067 -1.53295e-19)
(0.585247 -0.0542208 -4.38174e-19)
(0.693576 -0.0580257 1.173e-20)
(0.799441 -0.0606517 -1.71301e-19)
(0.900079 -0.0623 8.15739e-20)
(0.993214 -0.0632079 -8.65113e-19)
(1.07716 -0.0636166 2.46743e-19)
(1.15087 -0.0637469 -2.91929e-19)
(1.21389 -0.0637824 -2.29731e-19)
(1.26631 -0.0638607 6.93872e-20)
(1.30863 -0.0640721 -3.26073e-19)
(1.34168 -0.0644638 -1.31601e-19)
(1.36648 -0.0650465 3.91147e-19)
(1.38412 -0.0658046 1.56112e-19)
(1.39574 -0.0667009 -6.68719e-19)
(1.4024 -0.0676636 4.78714e-19)
(1.40504 -0.0687124 -8.93451e-20)
(1.4039 -0.0705795 -1.76529e-19)
(0.00075194 0.000677364 -2.53745e-19)
(0.0267489 -0.00580062 -1.35726e-19)
(0.0753465 -0.0138534 -2.68156e-20)
(0.142794 -0.0226791 2.00017e-19)
(0.225996 -0.0313117 2.17492e-19)
(0.321873 -0.0389605 1.89347e-19)
(0.427097 -0.045187 2.36058e-19)
(0.538114 -0.0498084 3.60126e-19)
(0.651269 -0.0528337 5.50315e-19)
(0.763002 -0.0544188 5.42731e-19)
(0.870064 -0.0548206 2.85242e-19)
(0.969729 -0.0543486 -7.72078e-20)
(1.05993 -0.0533225 1.91888e-20)
(1.13934 -0.0520367 -2.11876e-20)
(1.20731 -0.0507367 2.21722e-19)
(1.26386 -0.0496069 -5.27682e-20)
(1.3095 -0.0487684 6.26411e-19)
(1.3451 -0.0482835 -2.84373e-19)
(1.37178 -0.0481663 1.61243e-21)
(1.39077 -0.0483942 1.81757e-19)
(1.40329 -0.0489206 -4.02636e-19)
(1.41052 -0.0496815 6.47342e-19)
(1.41355 -0.0505857 -5.1824e-19)
(1.41326 -0.0516544 8.90615e-20)
(1.40994 -0.0535245 -3.19382e-19)
(0.00392827 -0.000787467 5.43945e-19)
(0.0376331 -0.00936957 3.66989e-19)
(0.0950781 -0.0183468 -2.35086e-19)
(0.172024 -0.0272082 1.04144e-18)
(0.264847 -0.0351389 -9.0228e-19)
(0.369887 -0.0414649 1.89685e-19)
(0.483211 -0.0458846 -1.42891e-19)
(0.600709 -0.0483685 -6.31991e-19)