1.275 	2.15223e-18 	-2.76991e-20 	-0.394441
1.825 	2.15223e-18 	-1.39322e-20 	-0.366246
2.375 	2.15223e-18 	1.38775e-18 	-0.433117
2.925 	2.15223e-18 	2.78958e-18 	-0.253742
3.475 	2.15223e-18 	4.53849e-18 	-0.119542
4.025 	2.15223e-18 	6.28755e-18 	-0.0986972
4.575 	2.15223e-18 	6.30203e-18 	-0.162568
5.125 	2.15223e-18 	6.31666e-18 	-0.112779
5.675 	2.15223e-18 	6.33144e-18 	-0.0654876
6.225 	2.15223e-18 	4.61166e-18 	-0.11654
