/*--------------------------------*- C++ -*----------------------------------*\
  =========                 |
  \\      /  F ield         | OpenFOAM: The Open Source CFD Toolbox
   \\    /   O peration     | Website:  https://openfoam.org
    \\  /    A nd           | Version:  6.0
     \\/     M anipulation  |
\*---------------------------------------------------------------------------*/
FoamFile
{
    version     2.0;
    format      ascii;
    class       surfaceScalarField;
    location    "49";
    object      phi;
}
// * * * * * * * * * * * * * * * * * * * * * * * * * * * * * * * * * * * * * //

dimensions      [0 3 -1 0 0 0 0];

internalField   nonuniform List<scalar> 
7840
(
3.45495e-05
-0.000245176
0.00012289
-0.000773433
0.000248473
-0.00130661
0.000392928
-0.00180253
0.000539041
-0.00222801
0.000673752
-0.00256601
0.000789423
-0.00281554
0.000883386
-0.00298672
0.000956554
-0.00309507
0.00101186
-0.00315691
0.00105296
-0.00318668
0.00108341
-0.00319575
0.00110619
-0.00319238
0.00112363
-0.00318216
0.0011374
-0.00316871
0.00114864
-0.00315427
0.00115817
-0.00314019
0.0011665
-0.00312732
0.00117397
-0.00311618
-0.00310729
0.00118077
3.60031e-05
-0.00028118
0.000125466
-0.000862896
0.000249115
-0.00143026
0.000387032
-0.00194045
0.000522003
-0.00236298
0.000642181
-0.00268619
0.00074165
-0.00291501
0.000819354
-0.00306442
0.000877361
-0.00315307
0.000919214
-0.00319877
0.000948738
-0.00321621
0.000969339
-0.00321635
0.00098372
-0.00320676
0.000993859
-0.0031923
0.00100113
-0.00317598
0.00100644
-0.00315958
0.00101041
-0.00314416
0.00101343
-0.00313034
0.00101577
-0.00311852
-0.00310907
0.00101754
3.70587e-05
-0.000318238
0.000126483
-0.00095232
0.000246517
-0.00155029
0.00037618
-0.00207011
0.000498751
-0.00248555
0.000603883
-0.00279132
0.000687405
-0.00299853
0.000749695
-0.00312671
0.000793719
-0.0031971
0.000823397
-0.00322844
0.000842534
-0.00323534
0.000854296
-0.00322811
0.000861057
-0.00321352
0.000864474
-0.00319572
0.000865645
-0.00317715
0.000865287
-0.00315922
0.000863866
-0.00314274
0.000861691
-0.00312817
0.000858953
-0.00311578
-0.00310585
0.000855737
3.76779e-05
-0.000355916
0.000125892
-0.00104053
0.000240749
-0.00166515
0.000360716
-0.00219008
0.000470002
-0.00259484
0.000559932
-0.00288125
0.000628007
-0.0030666
0.000675827
-0.00317453
0.000707011
-0.00322828
0.000725647
-0.00324708
0.000735392
-0.00324509
0.000739111
-0.00323183
0.000738846
-0.00321325
0.000735955
-0.00319282
0.000731307
-0.0031725
0.000725453
-0.00315337
0.000718749
-0.00313603
0.000711434
-0.00312085
0.000703653
-0.003108
-0.00309767
0.000695469
3.78342e-05
-0.00039375
0.000123688
-0.00112639
0.000231961
-0.00177342
0.000341078
-0.0022992
0.000436522
-0.00269028
0.000511371
-0.0029561
0.000564658
-0.00311989
0.000598977
-0.00320885
0.000618376
-0.00324768
0.000626946
-0.00325565
0.000628109
-0.00324625
0.000624403
-0.00322813
0.000617548
-0.0032064
0.000608644
-0.00318392
0.000598364
-0.00316222
0.000587127
-0.00314213
0.000575206
-0.00312411
0.000562786
-0.00310843
0.000549984
-0.00309519
-0.00308453
0.000536846
3.75131e-05
-0.000431263
0.000119911
-0.00120879
0.000220369
-0.00187388
0.000317757
-0.00239659
0.000399086
-0.00277161
0.000459178
-0.00301619
0.000498424
-0.00315914
0.000520182
-0.00323061
0.000528738
-0.00325623
0.000528063
-0.00325497
0.000521291
-0.00323948
0.000510627
-0.00321746
0.000497503
-0.00319327
0.00048279
-0.00316921
0.000467004
-0.00314644
0.000450459
-0.00312559
0.00043336
-0.00310702
0.000415857
-0.00309093
0.000398046
-0.00307738
-0.00306645
0.000379968
3.67118e-05
-0.000467975
0.000114633
-0.00128671
0.00020624
-0.00196549
0.000291274
-0.00248162
0.000358446
-0.00283878
0.000404246
-0.00306199
0.000430226
-0.00318512
0.000440303
-0.00324069
0.000438837
-0.00325477
0.000429595
-0.00324573
0.000415392
-0.00322528
0.000398122
-0.00320019
0.000378956
-0.00317411
0.000358576
-0.00314883
0.000337369
-0.00312523
0.000315562
-0.00310378
0.000293314
-0.00308477
0.000270742
-0.00306836
0.000247933
-0.00305458
-0.00304344
0.000224928
3.54387e-05
-0.000503414
0.00010796
-0.00135923
0.00018987
-0.0020474
0.000262152
-0.0025539
0.000315303
-0.00289193
0.000347366
-0.00309406
0.000360852
-0.0031986
0.000360046
-0.00323988
0.00034926
-0.00324398
0.000331999
-0.00322847
0.000310756
-0.00320403
0.000287136
-0.00317657
0.000262088
-0.00314906
0.000236137
-0.00312288
0.000209565
-0.00309866
0.000182531
-0.00307675
0.000155151
-0.00305739
0.000127522
-0.00304073
9.97259e-05
-0.00302678
-0.00301553
7.18091e-05
3.37121e-05
-0.000537126
0.000100016
-0.00142553
0.000171573
-0.00211895
0.000230899
-0.00261323
0.000270305
-0.00293134
0.000289234
-0.00311299
0.000290963
-0.00320033
0.000279986
-0.0032289
0.000260471
-0.00322447
0.000235629
-0.00320363
0.000207642
-0.00317605
0.000177856
-0.00314679
0.000147035
-0.00311824
0.000115577
-0.00309142
8.3677e-05
-0.00306676
5.14393e-05
-0.00304451
1.89418e-05
-0.00302489
-1.37346e-05
-0.00300805
-4.65059e-05
-0.00299401
-0.00298272
-7.93151e-05
3.15586e-05
-0.000568685
9.0946e-05
-0.00148492
0.000151665
-0.00217967
0.000197997
-0.00265956
0.000224031
-0.00295737
0.00023045
-0.00311941
0.000221113
-0.00319099
0.000200589
-0.00320838
0.000172839
-0.00319672
0.000140762
-0.00317155
0.00010625
-0.00314154
7.04265e-05
-0.00311096
3.39008e-05
-0.00308171
-3.02844e-06
-0.00305449
-4.02334e-05
-0.00302955
-7.76598e-05
-0.00300708
-0.000115263
-0.00298729
-0.000152978
-0.00297034
-0.000190712
-0.00295627
-0.00294504
-0.000228391
2.90121e-05
-0.000597697
8.09009e-05
-0.00153681
0.00013046
-0.00222923
0.000163893
-0.00269299
0.000176999
-0.00297048
0.000171529
-0.00311394
0.000151763
-0.00317123
0.000122239
-0.00317886
8.66606e-05
-0.00316114
4.762e-05
-0.00313251
6.74323e-06
-0.00310066
-3.5037e-05
-0.00306918
-7.7232e-05
-0.00303952
-0.000119619
-0.0030121
-0.000162123
-0.00298705
-0.000204733
-0.00296447
-0.000247439
-0.00294458
-0.00029019
-0.00292759
-0.000332882
-0.00291358
-0.0029025
-0.000375417
2.61121e-05
-0.000623809
7.00381e-05
-0.00158073
0.000108257
-0.00226745
0.000128997
-0.00271373
0.000129665
-0.00297115
0.000112914
-0.00309718
8.33008e-05
-0.00314162
4.52509e-05
-0.00314081
2.18314e-06
-0.00311807
-4.36093e-05
-0.00308672
-9.07386e-05
-0.00305353
-0.000138431
-0.00302149
-0.00018629
-0.00299166
-0.000234147
-0.00296425
-0.000281965
-0.00293923
-0.00032977
-0.00291667
-0.000377591
-0.00289676
-0.000425396
-0.00287978
-0.000473069
-0.00286591
-0.0028551
-0.00052047
2.29023e-05
-0.000646711
5.85156e-05
-0.00161635
8.53417e-05
-0.00229428
9.36818e-05
-0.00272207
8.24302e-05
-0.00295989
5.4983e-05
-0.00306974
1.60562e-05
-0.00310269
-3.01043e-05
-0.00309465
-8.03774e-05
-0.0030678
-0.000132754
-0.00303434
-0.000186059
-0.00300022
-0.000239649
-0.0029679
-0.000293197
-0.00293811
-0.000346564
-0.00291088
-0.000399736
-0.00288606
-0.000452773
-0.00286363
-0.000505745
-0.00284379
-0.000558653
-0.00282687
-0.000611369
-0.00281319
-0.00280278
-0.000663695
1.94296e-05
-0.000666141
4.64893e-05
-0.00164341
6.19805e-05
-0.00230977
5.82827e-05
-0.00271838
3.56468e-05
-0.00293726
-1.93278e-06
-0.00303216
-4.96843e-05
-0.00305494
-0.000103586
-0.00304074
-0.00016082
-0.00301056
-0.000219643
-0.00297552
-0.000279071
-0.0029408
-0.000338568
-0.0029084
-0.000397856
-0.00287882
-0.000456808
-0.00285193
-0.000515411
-0.00282745
-0.000573746
-0.00280529
-0.00063193
-0.0027856
-0.000690013
-0.00276879
-0.000747867
-0.00275534
-0.00274544
-0.0008052
1.57428e-05
-0.000681884
3.41098e-05
-0.00166177
3.84203e-05
-0.00231408
2.31013e-05
-0.00270306
-1.03741e-05
-0.00290378
-5.75446e-05
-0.00298499
-0.000113666
-0.00299882
-0.000174971
-0.00297944
-0.000238943
-0.00294659
-0.000304089
-0.00291037
-0.000369595
-0.00287529
-0.000435024
-0.00284297
-0.000500132
-0.00281372
-0.000564784
-0.00278727
-0.000628946
-0.00276329
-0.000692694
-0.00274155
-0.000756184
-0.00272211
-0.000819532
-0.00270544
-0.000882622
-0.00269225
-0.00268304
-0.000945027
1.18913e-05
-0.000693775
2.15213e-05
-0.0016714
1.48876e-05
-0.00230744
-1.15928e-05
-0.00267658
-5.5358e-05
-0.00286002
-0.000111596
-0.00292875
-0.000175654
-0.00293476
-0.000244042
-0.00291105
-0.000314534
-0.0028761
-0.000385875
-0.00283903
-0.000457407
-0.00280376
-0.000528789
-0.00277159
-0.000599809
-0.0027427
-0.000670322
-0.00271676
-0.000740247
-0.00269337
-0.000809616
-0.00267218
-0.000878596
-0.00265313
-0.000947376
-0.00263666
-0.00101587
-0.00262375
-0.00261537
-0.00108355
7.92442e-06
-0.000701699
8.85926e-06
-0.00167234
-8.41169e-06
-0.00229017
-4.55601e-05
-0.00263943
-9.90629e-05
-0.00280651
-0.000163857
-0.00286395
-0.000235432
-0.00286318
-0.000310584
-0.0028359
-0.000387368
-0.00279932
-0.000464747
-0.00276165
-0.000542222
-0.00272628
-0.000619545
-0.00269427
-0.00069656
-0.00266568
-0.00077312
-0.0026402
-0.000849095
-0.00261739
-0.000924442
-0.00259683
-0.000999303
-0.00257827
-0.00107395
-0.00256201
-0.00114839
-0.00254932
-0.00254151
-0.00122224
3.89014e-06
-0.000705589
-3.75082e-06
-0.0016647
-3.12934e-05
-0.00226263
-7.85904e-05
-0.00259213
-0.000141277
-0.00274383
-0.000214124
-0.00279111
-0.000292798
-0.00278451
-0.000374382
-0.00275432
-0.000457198
-0.0027165
-0.000540417
-0.00267843
-0.000623691
-0.00264301
-0.000706887
-0.00261107
-0.000789933
-0.00258264
-0.000872722
-0.00255741
-0.000955109
-0.00253501
-0.00103698
-0.00251496
-0.00111842
-0.00249683
-0.00119982
-0.00248061
-0.00128139
-0.00246775
-0.00245919
-0.00136371
-1.65962e-07
-0.000705423
-1.61954e-05
-0.00164867
-5.35962e-05
-0.00222523
-0.000110504
-0.00253522
-0.000181821
-0.00267251
-0.000262218
-0.00271071
-0.000347565
-0.00269916
-0.000435222
-0.00266666
-0.000523759
-0.00262796
-0.000612542
-0.00258965
-0.000701372
-0.00255418
-0.000790255
-0.00252219
-0.000879254
-0.00249364
-0.000968398
-0.00246827
-0.00105763
-0.00244577
-0.00114685
-0.00242575
-0.00123604
-0.00240764
-0.00132555
-0.0023911
-0.00141594
-0.00237735
-0.00236521
-0.00150993
-4.20184e-06
-0.000701222
-2.83744e-05
-0.0016245
-7.5183e-05
-0.00217842
-0.000141151
-0.00246925
-0.000220548
-0.00259311
-0.000307997
-0.00262326
-0.000399578
-0.00260758
-0.000492911
-0.00257333
-0.00058679
-0.00253408
-0.000680741
-0.0024957
-0.000774698
-0.00246022
-0.000868805
-0.00242808
-0.000963305
-0.00239914
-0.00105849
-0.00237309
-0.00115462
-0.00234964
-0.0012519
-0.00232846
-0.00135046
-0.00230908
-0.00145084
-0.00229073
-0.00155526
-0.00227294
-0.00226694
-0.00165352
-8.1679e-06
-0.000693054
-4.01834e-05
-0.00159248
-9.59199e-05
-0.00212269
-0.000170396
-0.00239478
-0.000257332
-0.00250618
-0.000351342
-0.00252925
-0.000448717
-0.0025102
-0.000547312
-0.00247473
-0.0006461
-0.0024353
-0.000744725
-0.00239708
-0.000843187
-0.00236176
-0.000941679
-0.00232959
-0.00104052
-0.00230029
-0.00114016
-0.00227345
-0.00124122
-0.00224858
-0.00134452
-0.00222516
-0.00145092
-0.00220268
-0.00156084
-0.00218081
-0.00167522
-0.00215856
-0.00212897
-0.0018132
-1.20528e-05
-0.000681001
-5.15888e-05
-0.00155294
-0.000115765
-0.00205851
-0.000198204
-0.00231234
-0.000292152
-0.00241223
-0.000392249
-0.00242915
-0.00049499
-0.00240746
-0.000598441
-0.00237128
-0.000701724
-0.00233201
-0.000804557
-0.00229424
-0.000906949
-0.00225937
-0.00100903
-0.00222751
-0.001111
-0.00219833
-0.00121305
-0.00217139
-0.00131544
-0.00214619
-0.00141835
-0.00212225
-0.00152187
-0.00209916
-0.00162621
-0.00207647
-0.00173206
-0.0020527
-0.00202441
-0.00183662
-1.58176e-05
-0.000665183
-6.25166e-05
-0.00150625
-0.000134633
-0.00198639
-0.000224499
-0.00222247
-0.000324954
-0.00231178
-0.000430688
-0.00232342
-0.000538393
-0.00229976
-0.000646327
-0.00226335
-0.00075374
-0.0022246
-0.000860417
-0.00218757
-0.000966388
-0.0021534
-0.00107177
-0.00212212
-0.00117672
-0.00209339
-0.00128135
-0.00206676
-0.00138576
-0.00204179
-0.00148996
-0.00201805
-0.00159391
-0.0019952
-0.00169758
-0.0019728
-0.00180027
-0.00195001
-0.00192601
-0.00189867
-1.94402e-05
-0.000645743
-7.29252e-05
-0.00145276
-0.000152483
-0.00190683
-0.000249255
-0.0021257
-0.000355738
-0.00220529
-0.000466686
-0.00221247
-0.000578981
-0.00218746
-0.00069105
-0.00215128
-0.000802253
-0.0021134
-0.000912421
-0.0020774
-0.00102159
-0.00204423
-0.00112985
-0.00201386
-0.0012373
-0.00198594
-0.001344
-0.00196006
-0.00144994
-0.00193584
-0.00155507
-0.00191293
-0.00165923
-0.00189104
-0.00176216
-0.00186988
-0.00186319
-0.00184898
-0.00182794
-0.00196126
-2.29027e-05
-0.00062284
-8.27837e-05
-0.00139288
-0.000169288
-0.00182033
-0.000272466
-0.00202252
-0.000384523
-0.00209323
-0.000500292
-0.0020967
-0.000616836
-0.00207092
-0.00073274
-0.00203537
-0.000847459
-0.00199868
-0.000960871
-0.00196399
-0.00107302
-0.00193208
-0.00118398
-0.00190289
-0.00129384
-0.00187609
-0.00140261
-0.00185129
-0.00151028
-0.00182817
-0.00161677
-0.00180643
-0.00172195
-0.00178587
-0.00182556
-0.00176626
-0.00192722
-0.00174733
-0.00172882
-0.00202633
-2.61908e-05
-0.00059665
-9.20707e-05
-0.001327
-0.000185035
-0.00172737
-0.00029414
-0.00191342
-0.000411342
-0.00197603
-0.000531566
-0.00197648
-0.000652045
-0.00195044
-0.000771508
-0.00191591
-0.0008895
-0.00188069
-0.00100594
-0.00184754
-0.00112089
-0.00181714
-0.00123443
-0.00178936
-0.00134662
-0.00176389
-0.0014575
-0.00174041
-0.00156705
-0.00171862
-0.0016752
-0.00169827
-0.00178187
-0.0016792
-0.0018869
-0.00166124
-0.00199009
-0.00164414
-0.00162775
-0.00209116
-2.92934e-05
-0.000567356
-0.000100772
-0.00125552
-0.00019972
-0.00162842
-0.00031429
-0.00179885
-0.000436234
-0.00185409
-0.000560568
-0.00185215
-0.000684693
-0.00182632
-0.000807469
-0.00179313
-0.000928521
-0.00175963
-0.00104781
-0.00172825
-0.00116542
-0.00169953
-0.00128143
-0.00167334
-0.00139593
-0.00164939
-0.00150896
-0.00162738
-0.00162052
-0.00160706
-0.0017306
-0.0015882
-0.00183914
-0.00157066
-0.00194607
-0.0015543
-0.00205131
-0.0015389
-0.00152435
-0.00215471
-3.22021e-05
-0.000535154
-0.000108877
-0.00117885
-0.000213344
-0.00152395
-0.000332938
-0.00167926
-0.000459237
-0.00172779
-0.000587359
-0.00172402
-0.000714857
-0.00169882
-0.000840713
-0.00166728
-0.000964628
-0.00163572
-0.0010866
-0.00160628
-0.00120674
-0.00157939
-0.00132515
-0.00155493
-0.00144192
-0.00153262
-0.00155712
-0.00151219
-0.00167078
-0.0014934
-0.00178291
-0.00147607
-0.00189352
-0.00146006
-0.00200259
-0.00144523
-0.0021101
-0.00143138
-0.00141846
-0.00221599
-3.49098e-05
-0.000500244
-0.000116379
-0.00109738
-0.000225911
-0.00141442
-0.000350101
-0.00155507
-0.000480387
-0.0015975
-0.000611987
-0.00159242
-0.000742598
-0.00156821
-0.000871313
-0.00153856
-0.000997903
-0.00150913
-0.00112241
-0.00148177
-0.00124495
-0.00145685
-0.00136566
-0.00143422
-0.00148465
-0.00141363
-0.001602
-0.00139484
-0.00171778
-0.00137762
-0.00183202
-0.00136182
-0.00194477
-0.00134731
-0.00205606
-0.00133394
-0.00216591
-0.00132153
-0.00131008
-0.0022743
-3.74108e-05
-0.000462833
-0.000123275
-0.00101151
-0.000237426
-0.00130027
-0.000365798
-0.00142669
-0.000499716
-0.00146358
-0.000634495
-0.00145765
-0.000767965
-0.00143474
-0.000899322
-0.0014072
-0.0010284
-0.00138005
-0.00115527
-0.0013549
-0.00128008
-0.00133204
-0.00140298
-0.00131132
-0.0015241
-0.00129251
-0.00164355
-0.00127539
-0.00176141
-0.00125976
-0.00187775
-0.00124548
-0.00199263
-0.00123242
-0.00210612
-0.00122045
-0.00221826
-0.00120939
-0.00119927
-0.00232907
-3.97005e-05
-0.000423133
-0.000129559
-0.000921655
-0.000247891
-0.00118193
-0.000380044
-0.00129454
-0.000517248
-0.00132638
-0.000654914
-0.00131998
-0.000790994
-0.00129866
-0.000924774
-0.00127342
-0.00105614
-0.00124869
-0.00118521
-0.00122584
-0.00131214
-0.0012051
-0.00143711
-0.00118635
-0.00156025
-0.00116937
-0.0016817
-0.00115394
-0.00180155
-0.00113991
-0.00191991
-0.00112712
-0.00203685
-0.00111548
-0.00215246
-0.00110484
-0.00226679
-0.00109506
-0.00108617
-0.00237989
-4.17744e-05
-0.000381359
-0.000135229
-0.000828201
-0.000257312
-0.00105985
-0.00039285
-0.001159
-0.000533002
-0.00118623
-0.000673267
-0.00117971
-0.000811707
-0.00116022
-0.00094769
-0.00113744
-0.00108115
-0.00111522
-0.00121223
-0.00109476
-0.00134112
-0.00107622
-0.001468
-0.00105947
-0.00159303
-0.00104434
-0.00171635
-0.00103062
-0.00183808
-0.00101817
-0.00195834
-0.00100687
-0.00207721
-0.000996602
-0.0021948
-0.000987255
-0.00231118
-0.000978681
-0.000970944
-0.0024264
-4.36287e-05
-0.00033773
-0.000140281
-0.000731548
-0.000265689
-0.000934443
-0.000404226
-0.00102047
-0.000546992
-0.00104346
-0.000689569
-0.00103714
-0.000830118
-0.00101967
-0.000968078
-0.000999481
-0.00110343
-0.000979875
-0.00123633
-0.000961852
-0.001367
-0.000945551
-0.00149562
-0.000930852
-0.00162237
-0.000917583
-0.00174742
-0.000905583
-0.00187088
-0.000894714
-0.00199288
-0.000884867
-0.00211353
-0.000875948
-0.00223294
-0.000867848
-0.00235118
-0.000860438
-0.000853791
-0.00246833
-4.52598e-05
-0.00029247
-0.000144712
-0.000632096
-0.000273022
-0.000806133
-0.000414176
-0.000879313
-0.000559226
-0.000898414
-0.00070383
-0.000892533
-0.000846234
-0.000877262
-0.000985939
-0.000859777
-0.00112296
-0.000842854
-0.00125749
-0.000827326
-0.00138974
-0.000813301
-0.00151992
-0.000800669
-0.00164822
-0.000789281
-0.0017748
-0.000778998
-0.00189982
-0.000769702
-0.00202339
-0.000761296
-0.00214564
-0.000753699
-0.00226667
-0.000746813
-0.00238658
-0.000740528
-0.00073492
-0.00250545
-4.66644e-05
-0.000245806
-0.000148517
-0.000530243
-0.000279312
-0.000675338
-0.000422704
-0.000735922
-0.000569709
-0.000751408
-0.000716053
-0.000746189
-0.000860056
-0.00073326
-0.00100127
-0.000718565
-0.00113974
-0.000704384
-0.00127567
-0.000691392
-0.0014093
-0.00067967
-0.00154085
-0.000669124
-0.0016705
-0.000659627
-0.00179844
-0.000651062
-0.00192481
-0.000643331
-0.00204975
-0.000636351
-0.0021734
-0.000630054
-0.00229585
-0.000624356
-0.00241722
-0.000619166
-0.000614555
-0.00253758
-4.78394e-05
-0.000197966
-0.000151694
-0.000426388
-0.000284556
-0.000542476
-0.000429809
-0.000590668
-0.000578444
-0.000602774
-0.000726241
-0.000598392
-0.00087158
-0.000587921
-0.00101406
-0.000576087
-0.00115375
-0.000564695
-0.00129087
-0.000554272
-0.00142566
-0.000544875
-0.00155836
-0.000536428
-0.00168916
-0.000528828
-0.00181824
-0.000521982
-0.00194576
-0.000515808
-0.00207187
-0.000510243
-0.00219669
-0.000505229
-0.00232035
-0.000500698
-0.00244294
-0.000496577
-0.000492931
-0.00256456
-4.87823e-05
-0.000149184
-0.000154239
-0.000320932
-0.000288753
-0.000407962
-0.000435493
-0.000443928
-0.00058543
-0.000452837
-0.00073439
-0.000449432
-0.000880803
-0.000441507
-0.0010243
-0.000432592
-0.00116497
-0.000424025
-0.00130305
-0.000416194
-0.00143878
-0.000409139
-0.00157241
-0.000402801
-0.00170414
-0.000397103
-0.00183415
-0.000391973
-0.0019626
-0.000387352
-0.00208965
-0.000383191
-0.00221543
-0.000379447
-0.00234007
-0.000376066
-0.00246365
-0.000372997
-0.000370289
-0.00258629
-4.94909e-05
-9.96932e-05
-0.000156149
-0.000214274
-0.0002919
-0.000272211
-0.000439754
-0.000296074
-0.000590667
-0.000301923
-0.0007405
-0.000299599
-0.000887721
-0.000294287
-0.00103198
-0.00028833
-0.00117339
-0.000282614
-0.00131219
-0.000277392
-0.00144864
-0.000272691
-0.00158297
-0.000268469
-0.0017154
-0.000264675
-0.00184611
-0.000261263
-0.00197527
-0.000258191
-0.00210304
-0.000255426
-0.00222955
-0.000252941
-0.00235491
-0.000250699
-0.00247924
-0.000248666
-0.000246878
-0.00260265
-4.99634e-05
-4.97298e-05
-0.000157421
-0.000106816
-0.000293995
-0.000135637
-0.00044259
-0.00014748
-0.000594153
-0.000150361
-0.000744568
-0.000149183
-0.000892328
-0.000146528
-0.0010371
-0.000143556
-0.00117901
-0.000140708
-0.00131829
-0.000138107
-0.00145522
-0.000135766
-0.00159002
-0.000133665
-0.00172292
-0.000131778
-0.0018541
-0.000130081
-0.00198374
-0.000128555
-0.00211198
-0.000127183
-0.00223897
-0.000125949
-0.00236483
-0.000124838
-0.00248967
-0.000123832
-0.000122948
-0.00261359
-5.01986e-05
4.68771e-07
-0.000158054
1.03989e-06
-0.000295038
1.34653e-06
-0.000444001
1.48366e-06
-0.000595887
1.52577e-06
-0.000746593
1.522e-06
-0.00089462
1.49991e-06
-0.00103965
1.47264e-06
-0.0011818
1.44542e-06
-0.00132133
1.41991e-06
-0.00145849
1.39636e-06
-0.00159353
1.37462e-06
-0.00172666
1.35445e-06
-0.00185808
1.33561e-06
-0.00198795
1.31791e-06
-0.00211644
1.30119e-06
-0.00224367
1.28531e-06
-0.00236978
1.27014e-06
-0.00249487
1.25556e-06
1.24156e-06
-0.00261906
-5.01962e-05
5.0665e-05
-0.000158048
0.000108892
-0.000295027
0.000138326
-0.000443987
0.000150443
-0.00059587
0.000153409
-0.000746573
0.000152225
-0.000894598
0.000149525
-0.00103962
0.0001465
-0.00118178
0.000143597
-0.0013213
0.000140945
-0.00145846
0.000138557
-0.0015935
0.000136413
-0.00172663
0.000134486
-0.00185805
0.000132751
-0.00198792
0.000131189
-0.0021164
0.000129784
-0.00224363
0.000128519
-0.00236974
0.000127378
-0.00249483
0.000126342
0.00012543
-0.00261902
-4.99561e-05
0.000100621
-0.000157402
0.000216337
-0.000293964
0.000274888
-0.000442547
0.000299027
-0.000594101
0.000304962
-0.000744508
0.000302632
-0.00089226
0.000297277
-0.00103703
0.000291267
-0.00117893
0.000285497
-0.00131821
0.000280224
-0.00145513
0.000275476
-0.00158992
0.000271212
-0.00172282
0.000267378
-0.00185399
0.000263928
-0.00198363
0.000260821
-0.00211187
0.000258024
-0.00223885
0.000255507
-0.00236471
0.000253235
-0.00248954
0.000251173
0.000249357
-0.00261347
-4.94788e-05
0.0001501
-0.000156116
0.000322975
-0.000291847
0.000410618
-0.000439682
0.000446863
-0.00059058
0.00045586
-0.0007404
0.000452452
-0.000887608
0.000444485
-0.00103186
0.000435517
-0.00117326
0.000426897
-0.00131205
0.000419016
-0.00144849
0.000411916
-0.00158281
0.000405535
-0.00171523
0.000399798
-0.00184594
0.000394632
-0.00197509
0.000389976
-0.00210285
0.000385783
-0.00222935
0.000382007
-0.00235471
0.000378597
-0.00247904
0.000375498
0.000372764
-0.00260245
-4.87653e-05
0.000198865
-0.000154194
0.000428403
-0.000288678
0.000545103
-0.000435393
0.000593577
-0.000585308
0.000605775
-0.000734249
0.000601393
-0.000880645
0.000590882
-0.00102412
0.000578997
-0.00116478
0.000567554
-0.00130285
0.000557081
-0.00143857
0.00054764
-0.00157219
0.000539151
-0.0017039
0.000531513
-0.0018339
0.00052463
-0.00196235
0.000518423
-0.00208939
0.000512825
-0.00221516
0.000507781
-0.00233979
0.00050322
-0.00246336
0.000499072
0.000495399
-0.00258599
-4.78176e-05
0.000246683
-0.000151636
0.000532221
-0.00028446
0.000677927
-0.00042968
0.000738797
-0.000578286
0.000754381
-0.000726058
0.000749164
-0.000871376
0.000736199
-0.00101383
0.000721454
-0.0011535
0.000707224
-0.00129061
0.000694185
-0.00142539
0.000682419
-0.00155807
0.000671832
-0.00168885
0.000662298
-0.00181792
0.000653698
-0.00194543
0.000645933
-0.00207153
0.000638923
-0.00219634
0.000632596
-0.00231999
0.000626869
-0.00244257
0.000621651
0.000617014
-0.00256419
-4.66376e-05
0.00029332
-0.000148445
0.000634029
-0.000279194
0.000808676
-0.000422545
0.000882148
-0.000569515
0.000901352
-0.000715829
0.000895478
-0.000859804
0.000880174
-0.00100099
0.000862642
-0.00113944
0.000845671
-0.00127535
0.000830097
-0.00140896
0.00081603
-0.00154049
0.000803359
-0.00167013
0.000791935
-0.00179805
0.000781618
-0.0019244
0.00077229
-0.00204933
0.000763854
-0.00217297
0.000756228
-0.00229541
0.000749314
-0.00241676
0.000743003
0.000737368
-0.00253712
-4.52281e-05
0.000338548
-0.000144626
0.000733428
-0.000272882
0.000936932
-0.000413987
0.00102325
-0.000558995
0.00104636
-0.000703563
0.00104005
-0.000845935
0.00102255
-0.00098561
0.00100232
-0.0011226
0.000982665
-0.0012571
0.000964598
-0.00138933
0.000948257
-0.00151949
0.00093352
-0.00164778
0.000920217
-0.00177434
0.000908184
-0.00189934
0.000897285
-0.00202289
0.000887409
-0.00214513
0.000878462
-0.00226615
0.000870335
-0.00238604
0.0008629
0.000856227
-0.0025049
-4.3592e-05
0.00038214
-0.000140182
0.000830018
-0.000265526
0.00106228
-0.000404006
0.00116173
-0.000546723
0.00118908
-0.000689258
0.00118258
-0.00082977
0.00116306
-0.000967695
0.00114024
-0.00110301
0.00111798
-0.00123589
0.00109747
-0.00136653
0.0010789
-0.00149513
0.00106212
-0.00162186
0.00104695
-0.00174688
0.0010332
-0.00187032
0.00102073
-0.0019923
0.00100939
-0.00211294
0.000999099
-0.00223233
0.000989726
-0.00235056
0.000981128
0.000973366
-0.00246769
-4.17327e-05
0.000423873
-0.000135116
0.000923401
-0.000257126
0.00118428
-0.000392599
0.00129721
-0.000532694
0.00132917
-0.000672911
0.0013228
-0.000811308
0.00130146
-0.000947252
0.00127619
-0.00108068
0.00125141
-0.00121173
0.00122852
-0.00134058
0.00120775
-0.00146743
0.00118897
-0.00159244
0.00117195
-0.00171573
0.0011565
-0.00183744
0.00114244
-0.00195768
0.00112963
-0.00207653
0.00111796
-0.00219411
0.0011073
-0.00231047
0.00109749
0.00108857
-0.00242567
-3.96537e-05
0.000463527
-0.000129432
0.00101318
-0.000247681
0.00130253
-0.00037976
0.00142928
-0.0005169
0.00146631
-0.000654512
0.00146041
-0.000790544
0.00143749
-0.00092428
0.00140992
-0.00105561
0.00138274
-0.00118464
0.00135755
-0.00131153
0.00133465
-0.00143647
0.0013139
-0.00155958
0.00129506
-0.001681
0.00127792
-0.00180083
0.00126227
-0.00191916
0.00124796
-0.00203608
0.00123488
-0.00215167
0.00122288
-0.00226599
0.0012118
0.00120166
-0.00237907
-3.7359e-05
0.000500886
-0.000123133
0.00109895
-0.000237191
0.00141659
-0.00036548
0.00155757
-0.000499327
0.00160016
-0.000634045
0.00159513
-0.000767461
0.0015709
-0.000898769
0.00154123
-0.0010278
0.00151177
-0.00115463
0.00148438
-0.0012794
0.00145942
-0.00140227
0.00143677
-0.00152336
0.00141615
-0.00164277
0.00139733
-0.0017606
0.0013801
-0.00187691
0.00136427
-0.00199177
0.00134974
-0.00210524
0.00133635
-0.00221736
0.00132393
0.00131245
-0.00232816
-3.48528e-05
0.000535739
-0.000116223
0.00118032
-0.000225652
0.00152602
-0.000349749
0.00168167
-0.000479956
0.00173037
-0.000611488
0.00172666
-0.000742039
0.00170145
-0.0008707
0.00166989
-0.000997239
0.00163831
-0.0011217
0.00160884
-0.0012442
0.00158193
-0.00136487
0.00155744
-0.00148382
0.0015351
-0.00160114
0.00151465
-0.00171688
0.00149584
-0.0018311
0.00147849
-0.00194382
0.00146246
-0.00205509
0.00144762
-0.00216491
0.00143375
0.00142081
-0.00227328
-3.21401e-05
0.000567879
-0.000108706
0.00125689
-0.00021306
0.00163038
-0.00033255
0.00180116
-0.000458762
0.00185658
-0.000586809
0.00185471
-0.00071424
0.00182889
-0.000840037
0.00179569
-0.000963898
0.00176217
-0.00108582
0.00173076
-0.00120591
0.00170202
-0.00132428
0.0016758
-0.00144101
0.00165184
-0.00155617
0.00162981
-0.0016698
0.00160946
-0.0017819
0.00159059
-0.00189247
0.00157304
-0.00200152
0.00155666
-0.002109
0.00154124
0.00152668
-0.00221487
-2.92264e-05
0.000597105
-0.000100586
0.00132825
-0.000199409
0.0017292
-0.000313867
0.00191562
-0.000435714
0.00197843
-0.000559965
0.00197896
-0.000684017
0.00195294
-0.000806728
0.0019184
-0.00092772
0.00188316
-0.00104695
0.00185
-0.00116451
0.00181957
-0.00128048
0.00179177
-0.00139493
0.00176629
-0.00150792
0.0017428
-0.00161944
0.00172099
-0.00172948
0.00170063
-0.00183799
0.00168154
-0.00194489
0.00166356
-0.00205011
0.00164645
0.00163005
-0.00215348
-2.61187e-05
0.000623224
-9.18697e-05
0.001394
-0.000184697
0.00182203
-0.000293678
0.0020246
-0.000410775
0.00209552
-0.000530907
0.00209909
-0.000651307
0.00207334
-0.0007707
0.00203779
-0.000888627
0.00200109
-0.00100501
0.00196638
-0.0011199
0.00193446
-0.00123338
0.00190526
-0.00134553
0.00187844
-0.00145636
0.00185363
-0.00156587
0.0018305
-0.00167399
0.00180875
-0.00178062
0.00178817
-0.00188561
0.00176856
-0.00198877
0.00174961
0.0017311
-0.00208982
-2.28256e-05
0.000646049
-8.25674e-05
0.00145374
-0.000168923
0.00190838
-0.000271966
0.00212764
-0.000383907
0.00220746
-0.000499577
0.00221476
-0.000616035
0.0021898
-0.000731861
0.00215362
-0.00084651
0.00211574
-0.000959857
0.00207973
-0.00107194
0.00204655
-0.00118285
0.00201617
-0.00129265
0.00198824
-0.00140137
0.00196235
-0.001509
0.00193812
-0.00161545
0.0019152
-0.00172059
0.00189331
-0.00182416
0.00187214
-0.00192578
0.00185123
0.00183018
-0.00202487
-1.93584e-05
0.000665408
-7.26935e-05
0.00150708
-0.00015209
0.00198778
-0.000248715
0.00222427
-0.000355071
0.00231382
-0.000465911
0.0023256
-0.000578112
0.002302
-0.000690099
0.00226561
-0.000801225
0.00222686
-0.000911323
0.00218982
-0.00102042
0.00215565
-0.00112862
0.00212437
-0.00123602
0.00209563
-0.00134266
0.002069
-0.00144856
0.00204402
-0.00155364
0.00202028
-0.00165776
0.00199743
-0.00176064
0.00197502
-0.00186163
0.00195222
0.00192822
-0.00195967
-1.57311e-05
0.000681139
-6.22697e-05
0.00155362
-0.000134212
0.00205972
-0.000223917
0.00231397
-0.000324235
0.00241414
-0.000429852
0.00243122
-0.000537456
0.0024096
-0.000645299
0.00237345
-0.00075263
0.00233419
-0.000859232
0.00229643
-0.000965133
0.00226155
-0.00107045
0.00222969
-0.00117534
0.00220051
-0.00127991
0.00217357
-0.00138427
0.00214837
-0.00148841
0.00212442
-0.00159232
0.00210134
-0.00169594
0.00207864
-0.00179858
0.00205487
0.00202658
-0.00189694
-1.19619e-05
0.000693101
-5.13267e-05
0.00159298
-0.000115315
0.00212371
-0.00019758
0.00239624
-0.000291378
0.00250794
-0.000391349
0.00253119
-0.00049398
0.00251223
-0.000597335
0.0024768
-0.00070053
0.00243739
-0.000803282
0.00239918
-0.000905599
0.00236387
-0.00100761
0.0023317
-0.00110951
0.00230241
-0.0012115
0.00227556
-0.00131383
0.0022507
-0.00141668
0.00222728
-0.00152014
0.00220479
-0.00162442
0.00218292
-0.00173023
0.00216067
0.00213108
-0.00183473
-8.07299e-06
0.000701174
-3.99066e-05
0.00162481
-9.54413e-05
0.00217924
-0.00016973
0.00247053
-0.000256503
0.00259471
-0.000350376
0.00262506
-0.000447632
0.00260949
-0.000546123
0.00257529
-0.000644817
0.00253608
-0.000743356
0.00249772
-0.000841738
0.00246225
-0.000940154
0.00243012
-0.00103892
0.00240118
-0.00113849
0.00237513
-0.00123949
0.00235169
-0.00134272
0.00233051
-0.00144907
0.00231114
-0.00155893
0.00229278
-0.00167325
0.002275
0.002269
-0.00181117
-4.10326e-06
0.000705277
-2.80834e-05
0.00164879
-7.46757e-05
0.00222584
-0.000140441
0.00253629
-0.000219662
0.00267393
-0.000306962
0.00271236
-0.000398415
0.00270094
-0.000491637
0.00266852
-0.000585415
0.00262986
-0.000679274
0.00259157
-0.000773147
0.00255612
-0.000867174
0.00252415
-0.000961599
0.0024956
-0.00105671
0.00247024
-0.00115278
0.00244776
-0.00125
0.00242774