/*--------------------------------*- C++ -*----------------------------------*\
  =========                 |
  \\      /  F ield         | OpenFOAM: The Open Source CFD Toolbox
   \\    /   O peration     | Website:  https://openfoam.org
    \\  /    A nd           | Version:  6.0
     \\/     M anipulation  |
\*---------------------------------------------------------------------------*/
FoamFile
{
    version     2.0;
    format      ascii;
    class       volVectorField;
    location    "49";
    object      U;
}
// * * * * * * * * * * * * * * * * * * * * * * * * * * * * * * * * * * * * * //

dimensions      [0 1 -1 0 0 0 0];

internalField   nonuniform List<vector> 
4000
(
(0.0909473 0.00717973 5.50359e-20)
(0.290984 0.0378012 -2.98792e-20)
(0.496123 0.0910671 3.5135e-20)
(0.690033 0.152416 -2.61205e-20)
(0.859227 0.212153 -1.16829e-20)
(0.99606 0.264231 3.53525e-21)
(1.09905 0.30549 -1.14367e-20)
(1.17128 0.335314 4.1076e-20)
(1.21826 0.354811 -3.41278e-20)
(1.24615 0.365909 7.99765e-21)
(1.26058 0.370706 -5.96172e-21)
(1.26613 0.371079 -3.85696e-20)
(1.26618 0.36853 3.73368e-20)
(1.26311 0.364159 1.41433e-20)
(1.25847 0.358727 -1.4068e-20)
(1.25324 0.352734 3.29041e-20)
(1.24803 0.346481 -5.18928e-22)
(1.2432 0.340174 -3.17466e-20)
(1.23901 0.334216 2.34679e-20)
(1.23569 0.328567 7.3264e-21)
(0.104703 0.0118864 -1.92849e-20)
(0.324827 0.0524192 5.59155e-20)
(0.542029 0.114604 6.45115e-20)
(0.740106 0.182128 -3.03771e-20)
(0.906739 0.244706 5.28469e-20)
(1.03641 0.296667 8.3417e-20)
(1.13002 0.335734 -4.57721e-21)
(1.19261 0.362266 -1.42086e-20)
(1.23096 0.378158 7.02964e-20)
(1.25183 0.385858 3.41801e-20)
(1.26097 0.387722 -6.13403e-21)
(1.26274 0.385703 5.06752e-20)
(1.26026 0.381262 -5.40527e-20)
(1.25554 0.375418 8.40707e-20)
(1.24989 0.368836 -1.39942e-20)
(1.24406 0.361933 3.98056e-20)
(1.23852 0.354946 7.06907e-21)
(1.23355 0.348048 2.82844e-20)
(1.22931 0.341635 -2.69422e-20)
(1.22598 0.335533 6.40903e-21)
(0.118717 0.017665 -2.99951e-20)
(0.35817 0.0693862 7.14089e-20)
(0.58576 0.140731 5.29632e-20)
(0.786026 0.213918 -7.99143e-21)
(0.948442 0.278471 8.21291e-20)
(1.07001 0.329448 -6.11312e-20)
(1.15408 0.365673 -4.63486e-21)
(1.20749 0.388542 5.38585e-20)
(1.23805 0.400708 1.71046e-20)
(1.25288 0.405056 2.37793e-20)
(1.25767 0.404122 -3.50156e-20)
(1.2565 0.399867 9.08381e-20)
(1.25212 0.393681 1.67904e-20)
(1.24625 0.386476 -8.00183e-20)
(1.23993 0.378824 1.1619e-19)
(1.23375 0.371062 -1.36684e-19)
(1.22806 0.363368 -6.22852e-20)
(1.22307 0.355896 1.04388e-20)
(1.21887 0.349031 6.0293e-20)
(1.21561 0.342465 -1.13028e-19)
(0.13276 0.0245297 -6.7757e-20)
(0.390433 0.0886024 -1.5965e-19)
(0.626587 0.169171 -1.37843e-19)
(0.827158 0.247383 -1.87386e-19)
(0.983985 0.313025 -1.0604e-19)
(1.09686 0.362221 -2.19493e-19)
(1.17152 0.395065 2.78874e-20)
(1.21641 0.414012 -1.15824e-19)
(1.2401 0.422412 -1.26614e-20)
(1.24986 0.423501 1.89771e-20)
(1.25117 0.419915 -4.14759e-20)
(1.24777 0.413577 5.14448e-20)
(1.24204 0.405771 9.13009e-20)
(1.23542 0.397299 -1.28455e-19)
(1.22871 0.388637 2.03346e-20)
(1.22238 0.38005 5.89126e-20)
(1.21669 0.37167 9.82659e-20)
(1.21177 0.363631 -8.47655e-20)
(1.20767 0.356314 -4.02334e-21)
(1.20455 0.349272 9.86441e-20)
(0.146592 0.0324656 -1.27828e-19)
(0.421052 0.109902 3.50053e-19)
(0.663859 0.199585 -6.17518e-20)
(0.863006 0.282091 8.15595e-20)
(1.01317 0.347946 -7.97568e-20)
(1.11708 0.394651 2.44486e-19)
(1.18272 0.423687 -3.86797e-20)
(1.21988 0.438552 2.30833e-20)
(1.23765 0.443212 -1.13889e-20)
(1.24325 0.441166 3.74498e-20)
(1.24186 0.435084 2.4121e-20)
(1.23684 0.426804 3.01091e-20)
(1.23023 0.417487 -8.5803e-20)
(1.22317 0.407823 1.2491e-19)
(1.21631 0.398197 -9.47405e-20)
(1.20999 0.388811 1.76316e-20)
(1.2044 0.379757 -6.02557e-20)
(1.19965 0.371159 1.26336e-20)
(1.19573 0.363385 1.41423e-20)
(1.19279 0.355862 -1.33199e-19)
(0.159968 0.0414271 9.33113e-21)
(0.449495 0.13306 -1.76284e-19)
(0.697022 0.231583 9.72287e-20)
(0.893209 0.317587 -3.38856e-19)
(1.03594 0.382821 1.63887e-19)
(1.13088 0.426425 -2.80395e-19)
(1.18808 0.451334 -2.18181e-19)
(1.21838 0.462042 -8.29419e-21)
(1.23115 0.463041 -7.35922e-20)
(1.23345 0.458007 -2.2779e-19)
(1.23006 0.449582 -2.81908e-20)
(1.22395 0.439487 -2.16315e-19)
(1.21682 0.428755 3.93182e-20)
(1.20961 0.417961 -3.08088e-20)
(1.20278 0.407409 1.79916e-20)
(1.19661 0.397245 -1.42165e-19)
(1.19123 0.387527 8.0336e-21)
(1.18672 0.378376 2.86922e-20)
(1.18303 0.370144 -6.48149e-20)
(1.18035 0.362136 5.67019e-20)
(0.172649 0.051339 -7.25441e-20)
(0.47528 0.157793 3.2252e-19)
(0.725621 0.264735 2.25527e-21)
(0.917534 0.353408 -2.78661e-19)
(1.05234 0.417249 2.09853e-19)
(1.13854 0.457245 8.78296e-20)
(1.18801 0.477811 1.79183e-20)
(1.21235 0.484361 -1.46931e-19)
(1.22103 0.481818 2.38542e-19)
(1.22079 0.473954 -1.38545e-19)
(1.216 0.463334 5.0621e-20)
(1.20925 0.451544 2.3238e-19)
(1.20194 0.439479 -2.07637e-19)
(1.19479 0.42761 2.27225e-19)
(1.18816 0.416164 -1.47161e-19)
(1.18225 0.405241 -2.89186e-20)
(1.17717 0.394871 3.45661e-20)
(1.17297 0.385174 4.29295e-20)
(1.16958 0.376486 5.8731e-20)
(1.16722 0.367997 3.55062e-20)
(0.184403 0.0620968 2.89497e-20)
(0.497985 0.183775 -2.90151e-19)
(0.749311 0.298584 5.15407e-20)
(0.935866 0.389091 6.7168e-19)
(1.0625 0.450845 -6.20506e-20)
(1.14039 0.486832 1.84931e-19)
(1.18291 0.502929 1.15022e-19)
(1.2022 0.505382 1.92964e-20)
(1.20762 0.499445 -1.31896e-19)
(1.20553 0.488916 2.15865e-19)
(1.19988 0.476247 -2.44106e-20)
(1.19288 0.46287 3.22678e-19)
(1.18566 0.449549 1.2289e-19)
(1.17878 0.436653 7.61053e-20)
(1.17249 0.424345 -1.58489e-19)
(1.16695 0.412682 3.33806e-20)
(1.16225 0.401674 1.21624e-19)
(1.15843 0.391442 3.04979e-20)
(1.15539 0.3823 -1.45394e-19)
(1.15342 0.373343 -3.59855e-20)
(0.195015 0.0735695 -1.6147e-19)
(0.517258 0.21064 5.199e-19)
(0.767851 0.332656 -2.82863e-19)
(0.948194 0.424179 -2.59669e-19)
(1.06663 0.483238 -2.25508e-19)
(1.13676 0.514919 -1.89289e-19)
(1.17318 0.526504 -2.31974e-19)
(1.1883 0.524971 2.89233e-19)
(1.19124 0.515811 -2.04632e-19)
(1.18793 0.502787 -1.62355e-20)
(1.18187 0.488207 -1.995e-21)
(1.17495 0.473346 -3.85748e-20)
(1.16806 0.458839 -9.78811e-20)
(1.16162 0.444964 -1.07617e-19)
(1.1558 0.431826 -5.73916e-21)
(1.15073 0.419446 -2.37153e-20)
(1.14649 0.407817 -5.68887e-20)
(1.14312 0.397064 -1.68442e-20)
(1.1405 0.387478 2.00494e-20)
(1.13897 0.378075 -1.1805e-19)
(0.204296 0.0856025 2.82421e-19)
(0.532821 0.237996 2.91657e-19)
(0.781101 0.36647 -1.80762e-19)
(0.954599 0.458227 1.11426e-19)
(1.06501 0.51408 1.91081e-19)
(1.12804 0.541253 -3.85658e-20)
(1.15921 0.548357 4.70107e-20)
(1.17099 0.542989 5.15326e-20)
(1.17215 0.530793 8.53243e-20)
(1.16816 0.515445 -9.90135e-20)
(1.16211 0.499088 4.85998e-20)
(1.15555 0.48284 -3.20035e-20)
(1.14921 0.467215 1.44451e-19)
(1.14337 0.452411 6.04912e-20)
(1.13814 0.438477 -1.40551e-19)
(1.13363 0.425406 7.56627e-20)
(1.12994 0.413178 3.78102e-20)
(1.12708 0.401921 -6.57647e-20)
(1.12494 0.391904 1.7916e-19)
(1.12392 0.38209 -1.30211e-19)
(0.212079 0.0980212 -2.07604e-19)
(0.544472 0.265431 -2.6894e-19)
(0.789018 0.399549 1.87263e-19)
(0.955239 0.490811 -1.72902e-19)
(1.05793 0.543042 -1.65609e-20)
(1.11459 0.565596 -1.85922e-19)
(1.14135 0.56831 1.55235e-19)
(1.15058 0.559294 2.79135e-19)
(1.1506 0.544259 -3.87696e-19)
(1.14641 0.526757 2.0001e-20)
(1.1407 0.508753 1.45377e-20)
(1.13478 0.491212 -7.42518e-20)
(1.12917 0.474538 5.30278e-20)
(1.12407 0.458853 -2.09932e-20)
(1.11956 0.444163 1.34689e-19)
(1.11571 0.430431 -1.44956e-19)
(1.11263 0.41763 -4.67983e-20)
(1.11035 0.40589 1.2564e-19)
(1.10877 0.395461 -1.784e-19)
(1.10832 0.385278 1.12752e-19)
(0.218232 0.110636 4.30083e-19)
(0.552088 0.292527 3.79017e-19)
(0.791645 0.43143 -6.38937e-20)
(0.950341 0.521528 -7.94791e-21)
(1.04574 0.569815 -1.90819e-19)
(1.09679 0.587723 8.13754e-20)
(1.11996 0.586194 3.88892e-19)
(1.12735 0.57374 -3.40076e-19)
(1.1268 0.556073 2.09307e-19)
(1.12283 0.536586 -1.74764e-20)
(1.11778 0.517061 1.2362e-19)
(1.1127 0.49832 -3.33886e-20)
(1.10801 0.480664 7.19463e-20)
(1.1038 0.464151 8.8071e-20)
(1.10012 0.448747 -5.25283e-20)
(1.09703 0.434388 5.70967e-20)
(1.09464 0.421042 -7.34315e-20)
(1.09299 0.408839 1.90077e-19)
(1.09203 0.398016 -1.11388e-19)
(1.09224 0.387513 7.9276e-20)
(0.222653 0.123245 -2.07839e-19)
(0.555622 0.318867 -3.87629e-19)
(0.789106 0.461667 -2.67347e-19)
(0.940183 0.550005 -1.79607e-20)
(1.02881 0.594118 6.26282e-20)
(1.07502 0.607425 -3.44378e-20)
(1.09537 0.601845 -2.2114e-19)
(1.10158 0.586184 -9.39208e-20)
(1.10096 0.566098 -1.66934e-19)
(1.09757 0.544792 -7.4473e-20)
(1.09344 0.523872 3.81371e-20)
(1.08941 0.50402 -1.79893e-19)
(1.08579 0.48545 -3.7036e-20)
(1.08261 0.468163 -3.40009e-20)
(1.07987 0.452088 -1.12104e-19)
(1.07764 0.43714 4.90558e-20)
(1.07602 0.423277 5.7965e-21)
(1.07508 0.410629 3.91234e-20)
(1.07481 0.399422 -1.6707e-20)
(1.07574 0.388648 -4.39661e-20)
(0.225276 0.135642 4.80223e-19)
(0.555099 0.344043 4.18137e-19)
(0.781592 0.489841 5.11124e-19)
(0.925094 0.575896 -5.33011e-20)
(1.00753 0.615692 -1.7755e-19)
(1.04965 0.62451 5.33013e-19)
(1.0679 0.615108 -2.5623e-19)
(1.07352 0.59649 2.78291e-19)
(1.07326 0.574197 -4.85839e-20)
(1.07077 0.55124 1.62316e-19)
(1.06778 0.529045 1.89177e-20)
(1.06498 0.508171 6.57844e-20)
(1.06257 0.488753 -1.39128e-20)
(1.06055 0.470747 5.84372e-20)
(1.05889 0.454047 -3.47593e-20)
(1.05761 0.43855 9.26696e-21)
(1.05684 0.424199 1.84484e-20)
(1.05668 0.411116 2.21833e-20)
(1.05717 0.399528 2.39021e-21)
(1.05887 0.388536 -1.54684e-22)
(0.22607 0.147619 -1.46532e-19)
(0.550608 0.367666 -4.06886e-19)
(0.769358 0.515565 -2.46681e-19)
(0.905436 0.59889 -4.26199e-19)
(0.982279 0.634308 4.49462e-19)
(1.02104 0.638806 -3.03774e-19)
(1.03787 0.625843 1.87662e-19)
(1.04341 0.604528 -6.8591e-20)
(1.0439 0.580247 -7.20243e-20)
(1.04257 0.555803 -4.91247e-20)
(1.0409 0.532453 2.63626e-20)
(1.03947 0.510642 2.14561e-20)
(1.03842 0.49044 5.31381e-21)
(1.03769 0.471764 -2.08025e-20)
(1.03722 0.454484 2.42506e-21)
(1.03702 0.438474 -3.83686e-21)
(1.03719 0.423663 -1.6724e-20)
(1.03787 0.410155 2.95334e-20)
(1.03918 0.398194 9.49798e-21)
(1.04167 0.387059 2.71952e-20)
(0.225041 0.15897 6.34059e-19)
(0.542305 0.389369 2.94743e-19)
(0.75271 0.538488 2.76069e-19)
(0.881604 0.618712 -1.59564e-19)
(0.953478 0.649762 1.72672e-20)
(0.989578 0.65016 2.19406e-19)
(1.00557 0.633923 2.43382e-20)
(1.0115 0.610182 4.15099e-20)
(1.01305 0.584135 4.02846e-20)
(1.01309 0.558369 -8.5585e-21)
(1.01291 0.533981 3.47859e-21)
(1.01297 0.511317 -1.18585e-20)
(1.01337 0.49039 -1.41526e-20)
(1.01405 0.471086 1.90973e-20)
(1.01491 0.453259 4.59313e-21)
(1.01591 0.436765 4.6811e-21)
(1.01714 0.421513 -8.83967e-21)
(1.01875 0.40758 -2.2079e-21)
(1.02093 0.395249 4.87425e-20)
(1.02427 0.384067 -4.81523e-20)
(0.222225 0.169499 -4.45111e-19)
(0.530397 0.408817 -3.82385e-19)
(0.731998 0.558298 1.76516e-19)
(0.854016 0.635123 -2.10624e-19)
(0.921539 0.661883 -1.75786e-20)
(0.955621 0.658442 1.47266e-20)
(0.971322 0.639241 -2.83164e-20)
(0.978019 0.613354 -2.99364e-20)
(0.980891 0.585763 -2.99662e-20)
(0.982484 0.558843 -2.15323e-20)
(0.983902 0.533538 -3.12134e-20)
(0.985541 0.510103 4.39284e-20)
(0.987478 0.488505 -4.94074e-21)
(0.989655 0.468608 1.26227e-20)
(0.991966 0.450252 4.02233e-21)
(0.994329 0.433287 -7.05317e-20)
(0.996753 0.417598 -5.95618e-20)
(0.999397 0.403207 -6.37064e-20)
(1.00258 0.390426 -1.60685e-21)
(1.00702 0.379205 9.76881e-20)
(0.217693 0.179021 3.98908e-19)
(0.51514 0.425708 2.04893e-20)
(0.70761 0.574724 -4.2783e-20)
(0.823107 0.647921 4.83717e-20)
(0.886882 0.670527 1.22722e-19)
(0.919537 0.663546 -9.791e-20)
(0.935411 0.641707 8.23721e-21)
(0.943208 0.613964 -2.69514e-20)
(0.947617 0.585059 -2.60578e-20)
(0.950888 0.557156 4.76691e-21)
(0.95398 0.531056 -5.66351e-20)
(0.957242 0.506931 -4.67164e-20)
(0.960756 0.484709 5.22074e-20)
(0.964492 0.464236 -1.83705e-20)
(0.968362 0.44535 -2.00494e-19)
(0.972245 0.427909 1.97827e-19)
(0.976063 0.411777 -1.16614e-19)
(0.979977 0.396848 -7.34487e-20)
(0.984549 0.383353 9.45547e-20)
(0.990549 0.371861 -1.16208e-19)
(0.211544 0.187366 -8.5433e-20)
(0.496833 0.439781 9.3087e-20)
(0.679962 0.58754 4.15624e-20)
(0.789329 0.656943 -6.06691e-20)
(0.849929 0.675582 1.61033e-20)
(0.881691 0.665391 -2.9479e-20)
(0.898145 0.641257 -1.5635e-20)
(0.907313 0.611955 2.12104e-20)
(0.91342 0.581973 1.1578e-21)
(0.918455 0.553268 -1.18801e-19)
(0.923255 0.526503 3.25052e-20)
(0.928132 0.501771 1.13124e-20)
(0.933192 0.478955 1.41207e-19)
(0.938458 0.457881 -3.56116e-19)
(0.943897 0.438388 3.31733e-19)
(0.94939 0.420363 1.75668e-19)
(0.954804 0.403665 -3.41452e-20)
(0.960378 0.387982 2.90973e-20)
(0.966962 0.373329 3.15943e-19)
(0.974838 0.361225 -1.31986e-19)
(0.203902 0.194383 -2.30008e-20)
(0.475808 0.450811 5.29449e-20)
(0.649494 0.596559 -4.31976e-20)
(0.75314 0.662063 5.53148e-20)
(0.811107 0.676965 -4.05326e-20)
(0.842453 0.663917 4.20376e-20)
(0.859833 0.637847 3.08007e-20)
(0.870591 0.607296 -8.19394e-20)
(0.878519 0.576491 8.18491e-20)
(0.885366 0.547188 5.6417e-20)
(0.891864 0.51992 2.74909e-20)
(0.898293 0.494698 5.02956e-21)
(0.904775 0.471345 1.11488e-19)
(0.911384 0.449636 -1.11797e-19)
(0.918155 0.429372 1.33724e-19)
(0.92502 0.410423 -2.80734e-19)
(0.931896 0.392599 3.13225e-19)
(0.939206 0.375294 -2.68861e-19)
(0.9479 0.358261 -1.82921e-19)
(0.956887 0.344874 3.10869e-19)
(0.194916 0.199942 9.98509e-21)
(0.452423 0.458617 -2.4439e-20)
(0.61666 0.601642 -1.65025e-20)
(0.715006 0.663188 -5.44436e-20)
(0.770843 0.67462 1.83975e-20)
(0.802194 0.65909 4.3701e-21)
(0.820793 0.63145 -1.79562e-19)
(0.833318 0.599971 1.19748e-19)
(0.843158 0.568617 1.18125e-19)
(0.851849 0.538954 -1.63919e-19)
(0.860024 0.511403 1.90542e-19)
(0.867929 0.485905 -7.32543e-20)
(0.87567 0.462229 1.4251e-19)
(0.883324 0.440091 -2.28044e-19)
(0.890938 0.419206 4.74183e-19)
(0.898476 0.399328 -1.07789e-19)
(0.905961 0.380061 -2.98217e-20)
(0.914046 0.360191 3.10876e-19)
(0.923508 0.337828 -1.51538e-19)
(0.92952 0.315408 6.58579e-20)
(0.184753 0.203936 -7.29696e-20)
(0.427059 0.463061 1.01616e-19)
(0.581926 0.602687 -3.41614e-20)
(0.675393 0.660264 5.63782e-20)
(0.729561 0.668518 -2.71066e-20)
(0.761285 0.650891 -1.74212e-19)
(0.781347 0.622054 2.67866e-19)
(0.795784 0.589972 1.80207e-20)
(0.807608 0.558347 -2.84384e-20)
(0.818174 0.528577 4.8564e-21)
(0.828033 0.500991 8.60278e-20)
(0.837396 0.475491 1.47998e-19)
(0.846348 0.451837 8.92674e-20)
(0.854922 0.429758 -2.1177e-19)
(0.863106 0.409008 -6.00774e-20)
(0.870839 0.389398 -1.15284e-20)
(0.878215 0.37067 3.91412e-20)
(0.885811 0.352156 4.96514e-21)
(0.893591 0.333158 4.52041e-19)
(0.897019 0.31575 -3.15813e-19)
(0.173589 0.206277 1.81364e-19)
(0.400104 0.464039 -3.33392e-20)
(0.545759 0.599633 -1.20021e-19)
(0.634764 0.653263 4.00214e-19)
(0.687681 0.658653 7.33754e-20)
(0.720094 0.63932 -2.34558e-19)
(0.741821 0.609657 2.18392e-19)
(0.758279 0.577296 -4.84557e-20)
(0.772144 0.545677 1.92887e-19)
(0.784612 0.516044 8.73142e-20)
(0.796177 0.488646 -4.26534e-19)
(0.807036 0.463352 -4.98964e-20)
(0.817276 0.439915 5.92638e-19)
(0.826931 0.41807 -7.25231e-19)
(0.835981 0.397581 6.70922e-19)
(0.844357 0.378255 2.32067e-19)
(0.852118 0.359822 -8.26811e-19)
(0.859654 0.341724 3.98789e-19)
(0.866801 0.323655 -8.24558e-20)
(0.870147 0.307941 9.59e-20)
(0.161617 0.206901 -3.16316e-19)
(0.371957 0.461491 -3.25236e-19)
(0.508625 0.592457 2.22462e-19)
(0.593575 0.642194 -2.7654e-19)
(0.645616 0.645044 -7.50806e-19)
(0.678983 0.624397 -2.32732e-20)
(0.702532 0.594275 -2.22176e-19)
(0.721093 0.56195 1.23169e-20)
(0.737036 0.530612 -4.32733e-19)
(0.751421 0.501361 -4.40332e-19)
(0.764696 0.474383 -2.9829e-19)
(0.777052 0.449526 -1.22184e-20)
(0.788584 0.426545 -7.40599e-19)
(0.799339 0.405194 -4.87185e-21)
(0.80932 0.385264 3.60874e-19)
(0.818494 0.366597 -3.59236e-19)
(0.826934 0.348981 -2.76357e-19)
(0.834958 0.331994 2.66015e-19)
(0.842393 0.315453 -1.91075e-19)
(0.846444 0.301204 3.68823e-20)
(0.149032 0.205766 2.49261e-19)
(0.343018 0.455393 1.93758e-19)
(0.470986 0.581173 -6.40748e-21)
(0.552272 0.627093 -1.54551e-19)
(0.603766 0.627735 3.82906e-19)
(0.638305 0.60616 6.10771e-19)
(0.663795 0.575936 -6.2902e-20)
(0.684513 0.543952 1.24007e-20)
(0.702556 0.513154 1.2036e-19)
(0.71887 0.484515 2.71128e-19)
(0.733871 0.458165 3.92174e-19)
(0.747755 0.433936 -3.16472e-19)
(0.760629 0.41159 3.13917e-19)
(0.772558 0.39089 -1.06907e-19)
(0.783567 0.371642 3.65193e-19)
(0.793652 0.353697 -1.41968e-19)
(0.802914 0.336866 -3.51833e-19)
(0.811674 0.320819 2.12485e-19)
(0.819786 0.305485 -3.02184e-19)
(0.824812 0.29242 -3.44108e-19)
(0.136037 0.202853 1.07338e-19)
(0.313682 0.445761 1.97242e-19)
(0.433289 0.565832 -2.07918e-19)
(0.511286 0.608029 1.04676e-20)
(0.562519 0.606794 3.57068e-20)
(0.598401 0.584668 2.867e-19)
(0.625911 0.554683 -4.2491e-19)
(0.648812 0.523334 4.04257e-19)
(0.668953 0.493325 -3.83453e-20)
(0.687188 0.465513 1.10791e-19)
(0.703914 0.439983 1.77939e-19)
(0.719336 0.416558 -3.39134e-19)
(0.733582 0.395003 1.63226e-19)
(0.746739 0.375098 1.54858e-19)
(0.758859 0.35666 5.70546e-20)
(0.769967 0.339548 -2.92831e-19)
(0.780192 0.323589 9.86549e-19)
(0.789848 0.308498 -5.5171e-19)
(0.798788 0.294241 1.00384e-18)
(0.804846 0.282103 -6.50409e-20)
(0.12283 0.198165 7.6743e-20)
(0.284337 0.432643 4.62667e-19)
(0.39597 0.546519 1.63427e-19)
(0.471033 0.5851 3.43406e-19)
(0.522245 0.582315 8.88959e-20)
(0.559596 0.56 -5.47077e-19)
(0.58917 0.530583 8.47881e-19)
(0.61425 0.500144 4.38673e-19)
(0.636468 0.471159 1.82879e-20)
(0.656602 0.444375 5.68714e-19)
(0.675037 0.419841 9.13382e-20)
(0.691991 0.397373 5.96794e-20)
(0.707615 0.376744 3.40529e-19)
(0.722021 0.357742 -1.27088e-19)
(0.735283 0.340194 -1.34713e-19)
(0.747459 0.323964 7.94213e-19)
(0.758701 0.308889 -6.64396e-19)
(0.769314 0.294721 2.57574e-20)
(0.779143 0.281444 8.41022e-19)
(0.786261 0.270112 -7.80381e-22)
(0.109609 0.191725 -9.89785e-19)
(0.255359 0.416122 -1.69094e-19)
(0.359446 0.523351 -2.27246e-19)
(0.431907 0.55843 -1.73094e-19)
(0.483298 0.554415 -4.37783e-19)
(0.5222 0.532259 1.49926e-19)
(0.553846 0.503719 -2.09448e-19)
(0.581074 0.474451 5.98111e-20)
(0.605326 0.446708 -3.03139e-19)
(0.627317 0.42114 -2.87849e-19)
(0.647427 0.397763 5.90201e-20)
(0.665891 0.376392 -4.65338e-19)
(0.682881 0.356808 3.71069e-19)
(0.698533 0.338808 -1.34058e-19)
(0.712946 0.322228 4.21561e-19)
(0.726203 0.306934 -9.09536e-19)
(0.738473 0.292772 -1.72537e-19)
(0.750047 0.279521 -3.26533e-19)
(0.760766 0.26717 -8.78206e-19)
(0.768933 0.256573 -1.41536e-19)
(0.0965681 0.183575 1.61733e-19)
(0.227106 0.396313 -1.96366e-20)
(0.324114 0.496477 -2.48057e-19)
(0.394282 0.528175 8.75186e-20)
(0.44601 0.523235 -1.76974e-19)
(0.486507 0.501568 -2.38405e-21)
(0.520198 0.474196 2.4147e-19)
(0.549517 0.446344 -3.60143e-19)
(0.575738 0.420046 1.40882e-19)
(0.599524 0.395866 -8.13967e-20)
(0.621255 0.373795 2.18645e-20)
(0.641185 0.353649 -4.03457e-19)
(0.659508 0.335217 -4.91404e-19)
(0.676381 0.318307 -1.85822e-20)
(0.691924 0.302762 5.48034e-19)
(0.706244 0.288452 2.582e-20)
(0.719521 0.27523 6.94535e-19)
(0.73203 0.262904 -1.0122e-18)
(0.743616 0.251456 5.39055e-19)
(0.752806 0.24157 9.28839e-19)
(0.0838919 0.173776 -1.40034e-19)
(0.199922 0.37336 7.52439e-20)
(0.290346 0.466077 4.89309e-19)
(0.35851 0.494514 1.20682e-19)
(0.410692 0.488943 -1.63023e-19)
(0.452788 0.468072 1.28535e-19)
(0.488467 0.442141 5.06384e-19)
(0.519795 0.41593 -4.10721e-19)
(0.547898 0.391267 3.8215e-20)
(0.573399 0.368636 -1.50066e-19)
(0.596682 0.348008 5.43106e-19)
(0.618017 0.329204 3.88236e-19)
(0.637619 0.312023 -5.6251e-20)
(0.655666 0.296284 -5.90414e-19)
(0.672298 0.281838 3.10961e-20)
(0.687641 0.268561 -7.30229e-20)
(0.701882 0.256315 3.47584e-19)
(0.715279 0.24493 5.66102e-19)
(0.727692 0.234384 4.95088e-19)
(0.737866 0.225208 -8.26967e-19)
(0.0717571 0.162407 -8.73735e-20)
(0.174127 0.347437 3.73084e-19)
(0.258492 0.432357 -3.64129e-19)
(0.324917 0.457653 5.05841e-19)
(0.377636 0.451725 -2.75492e-19)
(0.4213 0.43194 1.97206e-19)
(0.45888 0.407699 5.01766e-19)
(0.492111 0.383338 -6.03318e-19)
(0.521989 0.360484 2.74968e-19)
(0.549107 0.339549 3.48472e-19)
(0.573852 0.320491 -4.74073e-19)
(0.596514 0.303136 -3.39764e-20)
(0.617326 0.287298 -3.81286e-19)
(0.636485 0.272806 6.11273e-19)
(0.654148 0.259522 -3.32012e-19)
(0.670457 0.247326 3.56764e-19)
(0.685604 0.236094 -6.4806e-20)
(0.699829 0.225675 2.20727e-19)
(0.71302 0.21604 5.02975e-20)
(0.724126 0.207592 -1.29082e-19)
(0.0603295 0.149563 -2.67306e-19)
(0.15002 0.318742 -6.15977e-19)
(0.228874 0.39555 1.62156e-19)
(0.293803 0.417822 -5.20153e-19)
(0.347107 0.411792 -4.92682e-19)
(0.392276 0.393356 -3.54241e-19)
(0.431644 0.371036 2.76247e-19)
(0.466649 0.348716 2.126e-19)
(0.498178 0.32783 -1.56635e-21)
(0.526797 0.308726 -1.85673e-19)
(0.552901 0.291353 -3.34899e-19)
(0.576797 0.275547 3.02371e-19)
(0.598736 0.261136 -1.041e-19)
(0.618929 0.247963 -5.16125e-19)
(0.63755 0.235898 3.36496e-19)
(0.654756 0.224833 -2.52813e-19)
(0.67074 0.214653 -1.03172e-19)
(0.685727 0.205229 -2.88825e-19)
(0.699636 0.196523 -2.62037e-19)
(0.711614 0.188832 6.77491e-20)
(0.0497628 0.135356 2.33557e-19)
(0.127875 0.2875 1.21176e-19)
(0.201786 0.355914 1.85323e-19)
(0.265443 0.375271 -6.31788e-19)
(0.319348 0.369375 6.77004e-19)
(0.365929 0.352527 3.32527e-21)
(0.406947 0.332335 5.57697e-21)
(0.443578 0.312229 -4.13423e-19)
(0.476616 0.293455 3.86271e-19)
(0.506607 0.276304 -2.68721e-19)
(0.533954 0.26072 8.13976e-20)
(0.558978 0.246554 -3.61276e-19)
(0.581945 0.233646 -1.72089e-19)
(0.603084 0.221858 -8.23646e-20)
(0.622581 0.21107 6.20431e-19)
(0.640604 0.201182 -3.04738e-19)
(0.657348 0.192094 -2.75245e-19)
(0.673023 0.183695 2.8363e-19)
(0.687585 0.175939 -2.33005e-19)
(0.700365 0.169039 1.81652e-19)
(0.0401971 0.119911 4.9531e-19)
(0.107941 0.253955 -2.99112e-19)
(0.177493 0.313728 4.48721e-20)
(0.240082 0.330273 5.24721e-19)
(0.294576 0.32472 2.08238e-19)
(0.342451 0.309676 2.58632e-19)
(0.384959 0.291797 2.57602e-19)
(0.423051 0.274057 5.46887e-19)
(0.457442 0.257523 -1.25496e-19)
(0.488662 0.242435 2.99695e-19)
(0.517122 0.228735 4.36026e-19)
(0.543156 0.216289 1.60797e-19)
(0.567046 0.204955 2.9155e-19)
(0.58903 0.194611 1.05924e-19)
(0.609311 0.18515 6.24962e-20)
(0.628065 0.176484 -4.52331e-20)
(0.645484 0.168526 3.63151e-19)
(0.66177 0.16118 2.24232e-19)
(0.676915 0.154398 -2.03737e-19)
(0.69042 0.148326 1.92242e-19)
(0.0317577 0.103366 -3.2871e-19)
(0.0904374 0.218373 3.72061e-20)
(0.15623 0.269292 -9.5069e-20)
(0.217938 0.283117 -2.88772e-19)
(0.272984 0.278092 -1.53286e-19)
(0.32201 0.26504 -2.78509e-19)
(0.36583 0.249636 1.29352e-19)
(0.405204 0.234397 -5.01443e-19)
(0.440778 0.220216 2.96251e-19)
(0.473072 0.207285 -4.10186e-19)
(0.502504 0.195551 -2.55035e-19)
(0.529421 0.184896 -3.37885e-19)
(0.554117 0.1752 7.74392e-20)
(0.576842 0.166353 -7.64697e-20)
(0.597806 0.158266 9.17208e-20)
(0.617197 0.150862 4.94465e-20)
(0.635204 0.144067 9.83117e-20)
(0.652019 0.137802 -8.21977e-19)
(0.667672 0.132019 4.09318e-19)
(0.681815 0.12681 -2.45435e-19)
(0.0245543 0.0858692 1.08512e-19)
(0.0755559 0.181037 2.19267e-19)
(0.138199 0.222921 -1.43159e-19)
(0.199197 0.234107 3.53576e-19)
(0.254737 0.229771 -5.69588e-20)
(0.304753 0.218871 4.09945e-19)
(0.349691 0.206079 7.92152e-20)
(0.390151 0.193456 -8.34272e-20)
(0.426729 0.181723 3.03592e-19)
(0.459933 0.171032 2.32474e-19)
(0.490189 0.161335 8.63024e-20)
(0.517854 0.152533 1.13632e-19)
(0.543232 0.144526 5.70686e-20)
(0.566583 0.137224 -2.42357e-19)
(0.588126 0.130552 -3.38593e-20)
(0.608055 0.124444 2.53662e-19)
(0.626556 0.118843 -1.73409e-19)
(0.643816 0.113683 -7.92696e-21)
(0.659901 0.10892 -3.64053e-19)
(0.674586 0.104609 7.33772e-19)
(0.0186795 0.0675813 2.90768e-19)
(0.0634576 0.142246 -3.49519e-19)
(0.123572 0.174947 1.63916e-19)
(0.184018 0.183563 -2.32243e-19)
(0.239974 0.180048 2.04826e-19)
(0.290802 0.171432 -3.56078e-19)
(0.336651 0.161366 -2.61045e-19)
(0.377993 0.151452 1.95722e-20)
(0.415384 0.142246 -3.56512e-19)
(0.449325 0.133863 -2.22764e-19)
(0.480249 0.126261 -3.86286e-19)
(0.50852 0.119364 -1.31062e-20)
(0.534451 0.113091 -1.50368e-19)
(0.558309 0.107372 3.80669e-19)
(0.580321 0.102148 2.62798e-19)
(0.600684 0.0973677 -8.81728e-20)
(0.619585 0.0929854 -7.97804e-20)
(0.637204 0.0889516 -3.5328e-21)
(0.653637 0.0852273 9.83903e-21)
(0.668766 0.081843 1.44831e-19)
(0.0142086 0.0486694 -7.27179e-20)
(0.0542726 0.10231 -2.49009e-19)
(0.112485 0.125715 -1.55381e-19)
(0.172527 0.131814 -9.73036e-20)
(0.228809 0.129224 -2.01843e-19)
(0.280256 0.122995 3.46277e-19)
(0.326796 0.115745 -3.6983e-20)
(0.368808 0.108614 -8.34763e-20)
(0.406815 0.101997 3.41389e-21)
(0.441315 0.0959732 2.45953e-19)
(0.472744 0.0905134 -2.33894e-19)
(0.501474 0.0855603 2.2905e-19)
(0.527824 0.0810566 1.077e-19)
(0.552066 0.0769518 -1.96494e-19)
(0.574432 0.0732027 4.29819e-20)
(0.595124 0.069773 1.26709e-19)
(0.614327 0.0666299 4.42714e-20)
(0.632217 0.0637386 -3.05493e-20)
(0.648914 0.0610688 -2.67287e-19)
(0.664381 0.0586355 2.12934e-19)
(0.0111985 0.0293075 6.55635e-20)
(0.0480993 0.0615506 7.96595e-20)
(0.105041 0.0755768 2.2415e-20)
(0.164819 0.0791984 -1.69114e-20)
(0.221324 0.0776077 4.81229e-20)
(0.27319 0.0738415 7.3709e-20)
(0.320195 0.0694693 2.79587e-20)
(0.362657 0.0651739 3.41362e-20)
(0.401077 0.0611903 -7.28867e-20)
(0.435952 0.0575651 1.36567e-19)
(0.46772 0.0542798 -3.23144e-20)
(0.496758 0.0512998 -2.63539e-21)
(0.523389 0.0485907 3.28972e-20)
(0.547888 0.0461219 3.7118e-20)
(0.570492 0.0438674 -9.99748e-20)
(0.591405 0.0418054 6.56948e-20)
(0.61081 0.0399163 4.31648e-20)
(0.62888 0.0381792 3.6894e-20)
(0.645755 0.0365751 7.92815e-20)
(0.661449 0.0351106 3.28689e-20)
(0.00968729 0.00967418 -1.34249e-20)
(0.0450033 0.0202945 2.79071e-20)
(0.101311 0.0248935 -3.90776e-20)
(0.160958 0.0260615 2.45677e-20)
(0.217576 0.0255151 1.44523e-20)
(0.269653 0.0242558 6.49119e-21)
(0.316891 0.0228 1.53127e-20)
(0.359578 0.021372 -4.39356e-20)
(0.398205 0.0200485 2.80378e-20)
(0.433268 0.0188444 9.79609e-21)
(0.465206 0.0177533 -6.00158e-22)
(0.494399 0.0167639 6.05001e-20)
(0.52117 0.0158646 -1.83437e-20)
(0.545798 0.0150452 -1.76047e-20)
(0.568521 0.0142971 -1.69608e-20)
(0.589545 0.0136131 2.62671e-21)
(0.609051 0.0129866 -2.27439e-20)
(0.627212 0.0124109 4.32937e-21)
(0.644176 0.0118794 8.56824e-22)
(0.659985 0.0113938 -2.89183e-21)
(0.00969422 -0.0100491 8.52761e-21)
(0.0450176 -0.0211262 -4.53916e-20)
(0.101328 -0.0259706 5.41478e-20)
(0.160976 -0.0272483 -4.07151e-20)
(0.217593 -0.0267356 -1.90362e-20)
(0.269669 -0.0254733 5.70034e-20)
(0.316907 -0.0239999 4.76202e-21)
(0.359592 -0.02255 1.34186e-21)
(0.398219 -0.0212047 2.67537e-20)
(0.433281 -0.0199802 1.38584e-20)
(0.465218 -0.0188703 -1.09214e-20)
(0.49441 -0.0178635 -3.84436e-20)
(0.521181 -0.016948 3.62184e-21)
(0.545809 -0.0161136 -3.38346e-21)
(0.568531 -0.0153514 3.59718e-20)
(0.589555 -0.014654 -2.16702e-20)
(0.60906 -0.0140148 2.97783e-20)
(0.627221 -0.013427 -4.4655e-20)
(0.644186 -0.0128838 5.21999e-23)
(0.659994 -0.012387 -9.42168e-21)
(0.0112191 -0.02968 -2.83274e-20)
(0.0481419 -0.0623782 1.42952e-19)
(0.105093 -0.0766496 9.64062e-20)
(0.164872 -0.0803813 6.38568e-20)
(0.221376 -0.0788248 7.9816e-20)
(0.273239 -0.0750561 -1.93262e-20)
(0.320241 -0.0706666 8.86099e-20)
(0.3627 -0.0663497 1.82041e-20)
(0.401117 -0.0623446 -7.8677e-21)
(0.43599 -0.0586992 -6.33761e-20)
(0.467756 -0.0553952 6.5865e-20)
(0.496792 -0.052398 -8.95411e-20)
(0.523422 -0.0496729 6.51467e-20)
(0.547919 -0.0471892 7.47367e-20)
(0.570522 -0.0449207 9.90307e-20)
(0.591434 -0.0428454 -6.50006e-20)
(0.610838 -0.0409436 1.84604e-20)
(0.628908 -0.0391945 6.89549e-20)
(0.645782 -0.0375789 -6.52124e-20)
(0.661476 -0.0361031 4.92165e-20)
(0.0142426 -0.049037 -2.73901e-19)
(0.0543429 -0.10313 -1.37676e-19)
(0.112569 -0.126779 -1.53171e-19)
(0.172615 -0.132989 -1.20915e-20)
(0.228894 -0.130434 -8.26998e-20)
(0.280338 -0.124204 -1.01472e-19)
(0.326873 -0.116937 1.79474e-19)
(0.36888 -0.109785 9.15919e-20)
(0.406882 -0.103147 1.13063e-19)
(0.441378 -0.0971038 -1.22782e-19)
(0.472804 -0.0916257 9.10935e-20)
(0.501531 -0.0866557 1.11372e-19)
(0.527879 -0.0821363 3.93001e-20)
(0.552118 -0.0780168 -3.73558e-20)
(0.574483 -0.0742539 8.11628e-21)
(0.595173 -0.0708111 -1.60851e-20)
(0.614375 -0.0676556 -1.58453e-19)
(0.632263 -0.0647524 2.44751e-20)
(0.648959 -0.0620711 1.5424e-19)
(0.664425 -0.0596268 -2.07265e-19)
(0.0187263 -0.0679417 -9.02173e-20)
(0.0635544 -0.143053 1.33595e-19)
(0.123689 -0.175999 3.09722e-20)
(0.18414 -0.184727 -5.78408e-20)
(0.240093 -0.181249 -1.63672e-19)
(0.290915 -0.172632 -3.51002e-19)
(0.336756 -0.162551 -3.34402e-19)
(0.378092 -0.152617 -2.41745e-20)
(0.415477 -0.143391 -1.94912e-19)
(0.449413 -0.134988 -2.91767e-19)
(0.480332 -0.127369 2.2656e-19)
(0.508599 -0.120455 -3.34178e-19)
(0.534527 -0.114167 6.67599e-20)
(0.558382 -0.108434 -2.12033e-20)
(0.580391 -0.103196 -7.03608e-20)
(0.600752 -0.0984031 -8.9097e-20)
(0.619651 -0.0940086 1.44393e-19)
(0.637269 -0.0899632 1.15575e-19)
(0.6537 -0.0862276 1.98867e-19)
(0.668827 -0.0828324 -2.9763e-19)
(0.024613 -0.0862199 4.89159e-20)
(0.0756779 -0.181827 4.75641e-19)
(0.138347 -0.223955 1.36312e-19)
(0.199351 -0.235256 3.29702e-19)
(0.254887 -0.230959 -1.23257e-19)
(0.304896 -0.22006 1.89891e-19)
(0.349825 -0.207254 -5.98634e-20)
(0.390277 -0.194612 3.85722e-19)
(0.426847 -0.182859 -1.98629e-19)
(0.460044 -0.17215 2.34236e-19)
(0.490294 -0.162436 2.0353e-19)
(0.517955 -0.153619 2.18024e-19)
(0.543329 -0.145597 -1.95189e-19)
(0.566675 -0.138281 1.67787e-19)
(0.588216 -0.131596 -2.33272e-19)
(0.608141 -0.125476 -6.42631e-20)
(0.62664 -0.119863 -1.54107e-19)
(0.643898 -0.114692 -6.55141e-20)
(0.659981 -0.109918 2.59813e-19)
(0.674664 -0.105596 -4.30328e-19)
(0.0318272 -0.103704 -1.97011e-19)
(0.0905828 -0.219142 -2.28011e-20)
(0.156406 -0.270305 -7.8571e-20)
(0.218122 -0.284246 -2.76223e-19)
(0.273164 -0.279264 4.69056e-20)
(0.322182 -0.266215 -4.33065e-19)
(0.365991 -0.250799 -1.82333e-19)
(0.405355 -0.235543 -1.41394e-20)
(0.44092 -0.221343 -4.59096e-19)
(0.473206 -0.208395 -1.42794e-19)