/*--------------------------------*- C++ -*----------------------------------*\
  =========                 |
  \\      /  F ield         | OpenFOAM: The Open Source CFD Toolbox
   \\    /   O peration     | Website:  https://openfoam.org
    \\  /    A nd           | Version:  6.0
     \\/     M anipulation  |
\*---------------------------------------------------------------------------*/
FoamFile
{
    version     2.0;
    format      ascii;
    class       volVectorField;
    location    "20.1";
    object      U;
}
// * * * * * * * * * * * * * * * * * * * * * * * * * * * * * * * * * * * * * //

dimensions      [0 1 -1 0 0 0 0];

internalField   nonuniform List<vector> 
8000
(
(-0.000508204 0.000599654 -3.5618e-21)
(-0.002764 0.00149954 1.90388e-20)
(-0.00692015 0.00214421 -2.31569e-20)
(-0.012015 0.00259219 1.76337e-20)
(-0.017551 0.00288792 8.58716e-21)
(-0.0232492 0.00306768 -2.57866e-20)
(-0.0289116 0.00316246 -2.27926e-21)
(-0.0344108 0.00319848 -8.08977e-22)
(-0.0396771 0.00319771 -1.33859e-20)
(-0.0446824 0.00317857 -7.25238e-21)
(-0.0494292 0.00315631 5.4083e-21)
(-0.0539411 0.00314343 2.05625e-20)
(-0.058257 0.00314988 -1.5394e-21)
(-0.0624248 0.0031833 2.20361e-21)
(-0.066498 0.00324912 -2.07132e-20)
(-0.0705354 0.00335066 1.27631e-20)
(-0.0745955 0.00348925 -1.82885e-20)
(-0.0786966 0.00366508 2.76763e-20)
(-0.0828048 0.00387803 -3.10228e-23)
(-0.0872021 0.00412143 5.97959e-21)
(-0.00059746 0.00175326 1.18283e-20)
(-0.00297836 0.00436086 -6.04491e-20)
(-0.0072091 0.00620401 -4.17522e-20)
(-0.0123398 0.00746053 -2.83543e-20)
(-0.0178802 0.00826533 -3.64769e-20)
(-0.0235563 0.00872774 8.02695e-21)
(-0.0291741 0.00894045 -4.21085e-20)
(-0.034609 0.00898122 -9.45821e-21)
(-0.0397933 0.00891498 2.98811e-21)
(-0.0447006 0.0087958 3.14733e-20)
(-0.0493341 0.00866846 -3.43335e-20)
(-0.0537186 0.00856964 4.77598e-20)
(-0.0578936 0.00852868 -3.5766e-20)
(-0.0619084 0.00856826 -4.24152e-20)
(-0.0658175 0.00870467 -5.84544e-20)
(-0.0696813 0.00894807 3.73295e-20)
(-0.0735604 0.0093028 -1.20764e-20)
(-0.0774744 0.00976999 -4.39733e-20)
(-0.0813893 0.0103499 4.1577e-20)
(-0.0855907 0.011023 -3.09065e-20)
(-0.00077443 0.00288831 1.15631e-19)
(-0.00340417 0.0071764 5.98842e-20)
(-0.00778473 0.0101975 6.73469e-20)
(-0.0129888 0.012246 5.60407e-21)
(-0.0185402 0.0135455 3.72229e-20)
(-0.0241751 0.0142771 4.6457e-20)
(-0.029707 0.0145941 -8.44269e-20)
(-0.0350172 0.0146251 -4.47092e-20)
(-0.0400419 0.0144772 -5.8229e-20)
(-0.0447574 0.0142399 6.21589e-20)
(-0.0491691 0.0139874 -4.74776e-20)
(-0.0533035 0.0137809 -6.10874e-20)
(-0.057202 0.0136697 -2.22438e-20)
(-0.0609156 0.0136924 2.11317e-20)
(-0.0645014 0.0138771 -5.87674e-21)
(-0.068023 0.014242 8.47105e-21)
(-0.0715449 0.0147954 9.80673e-20)
(-0.0750901 0.0155403 -1.37652e-20)
(-0.0786242 0.0164784 -9.97024e-20)
(-0.0824407 0.0175765 1.3146e-19)
(-0.00103703 0.00399399 4.02343e-20)
(-0.00403703 0.00991887 -5.68286e-20)
(-0.00864199 0.0140848 -1.42555e-20)
(-0.0139571 0.0168983 2.66533e-20)
(-0.0195272 0.0186692 7.5679e-20)
(-0.0251033 0.0196483 1.65691e-19)
(-0.0305104 0.0200477 1.61904e-19)
(-0.0356384 0.0200453 1.34513e-20)
(-0.0404295 0.0197896 9.92846e-20)
(-0.0448642 0.0194047 1.5197e-19)
(-0.0489507 0.0189941 -1.21433e-19)
(-0.052718 0.018644 1.79715e-19)
(-0.0562097 0.0184245 -4.06971e-20)
(-0.0594799 0.0183915 1.02648e-20)
(-0.0625891 0.0185869 4.25029e-20)
(-0.0656057 0.0190385 5.64844e-20)
(-0.0686002 0.0197606 -8.88878e-20)
(-0.0716011 0.0207598 -7.41943e-20)
(-0.0745744 0.0220409 -1.31316e-19)
(-0.077826 0.0235568 1.91166e-19)
(-0.00138236 0.00506084 -2.10205e-20)
(-0.00487051 0.0125637 -2.15175e-19)
(-0.00977299 0.0178292 -6.36454e-20)
(-0.0152366 0.0213711 -1.55096e-19)
(-0.0208335 0.0235819 5.8627e-20)
(-0.0263348 0.0247794 -9.24609e-20)
(-0.0315809 0.0252324 3.17989e-20)
(-0.0364731 0.0251656 -1.95833e-19)
(-0.0409616 0.0247674 1.03313e-19)
(-0.0450324 0.0241953 -1.23203e-19)
(-0.0486973 0.023582 -1.09568e-19)
(-0.051988 0.0230387 -1.22685e-19)
(-0.0549511 0.0226578 1.11365e-19)
(-0.0576438 0.0225142 -9.99914e-20)
(-0.0601314 0.022666 1.39236e-19)
(-0.0624884 0.0231539 4.02435e-20)
(-0.0647935 0.0240009 9.96185e-20)
(-0.0670831 0.02522 4.37285e-20)
(-0.0693254 0.0268222 -1.73124e-19)
(-0.0718446 0.028746 2.81724e-19)
(-0.0018069 0.00608097 9.26723e-20)
(-0.0058962 0.0150892 7.12706e-21)
(-0.0111666 0.0213981 3.81751e-20)
(-0.0168145 0.0256229 1.33202e-19)
(-0.0224461 0.0282353 -2.03896e-20)
(-0.0278573 0.0296166 2.16302e-19)
(-0.0329083 0.0300887 9.60048e-20)
(-0.0375146 0.0299212 8.0709e-21)
(-0.0416367 0.0293393 2.46864e-19)
(-0.0452669 0.0285328 8.08897e-20)
(-0.0484216 0.0276623 3.83735e-20)
(-0.0511353 0.0268643 1.21788e-19)
(-0.0534575 0.0262544 1.11635e-19)
(-0.0554488 0.025929 2.03805e-19)
(-0.0571798 0.0259656 -1.82165e-19)
(-0.0587322 0.0264217 2.57511e-19)
(-0.0601955 0.0273336 3.38898e-21)
(-0.0616168 0.0287255 -3.29171e-19)
(-0.0629695 0.0306185 4.26743e-19)
(-0.0646038 0.0329379 1.76766e-19)
(-0.00230661 0.00704804 -5.4614e-20)
(-0.00710366 0.0174772 -9.9137e-20)
(-0.0128077 0.0247631 -2.0629e-19)
(-0.0186723 0.0296179 -6.11333e-21)
(-0.0243438 0.0325878 3.52015e-20)
(-0.0296485 0.0341143 -2.63411e-19)
(-0.0344704 0.0345687 -1.9542e-19)
(-0.0387428 0.0342613 -2.79541e-20)
(-0.0424382 0.0334517 -2.47187e-19)
(-0.045557 0.0323589 -1.71145e-19)
(-0.0481202 0.0311701 -4.98778e-20)
(-0.0501654 0.0300464 -1.60606e-19)
(-0.0517444 0.0291274 -2.61692e-21)
(-0.052921 0.0285334 -2.13289e-19)
(-0.0537708 0.0283652 8.97245e-20)
(-0.0543843 0.0287024 -1.02366e-19)
(-0.0548632 0.0296005 7.84272e-20)
(-0.055269 0.0311018 -9.97843e-20)
(-0.0555851 0.0332451 -2.85223e-19)
(-0.0561976 0.0359438 -8.66661e-20)
(-0.002877 0.00795696 -2.0104e-20)
(-0.00848012 0.0197117 -2.1831e-20)
(-0.0146763 0.0278996 1.72961e-19)
(-0.0207834 0.0333249 -2.8146e-19)
(-0.0264946 0.0366047 4.12917e-20)
(-0.0316718 0.0382363 -1.62582e-19)
(-0.0362276 0.0386362 7.68292e-20)
(-0.0401163 0.0381513 3.45325e-19)
(-0.0433253 0.0370713 -2.21524e-20)
(-0.0458642 0.0356409 -2.57616e-19)
(-0.0477594 0.034071 4.6809e-20)
(-0.0490513 0.032546 9.07553e-21)
(-0.0497932 0.0312293 -5.28941e-20)
(-0.0500512 0.0302667 5.34852e-21)
(-0.0499053 0.0297868 4.64699e-19)
(-0.0494547 0.0298971 -6.6168e-20)
(-0.0488156 0.0306811 -1.29082e-19)
(-0.0480672 0.0322087 -2.31617e-19)
(-0.047209 0.0345474 2.36282e-19)
(-0.046678 0.0376039 1.01846e-19)
(-0.00351309 0.00880342 1.01498e-19)
(-0.0100101 0.0217787 -1.32795e-19)
(-0.0167462 0.0307855 1.87743e-19)
(-0.0231114 0.0367168 1.8899e-19)
(-0.0288518 0.0402569 1.74215e-19)
(-0.0338712 0.0419547 3.53266e-19)
(-0.0381153 0.0422672 2.28441e-19)
(-0.0415638 0.0415731 -4.90883e-19)
(-0.0442212 0.0401869 2.51048e-19)
(-0.0461086 0.0383749 1.96998e-19)
(-0.0472584 0.0363671 -2.79766e-21)
(-0.0477137 0.0343678 2.20522e-19)
(-0.0475283 0.032563 1.71924e-19)
(-0.0467692 0.0311247 -9.35217e-20)
(-0.0455195 0.0302121 3.1602e-19)
(-0.0438863 0.0299681 -3.91747e-19)
(-0.0420013 0.0305139 1.56804e-19)
(-0.0399648 0.0319608 2.01663e-19)
(-0.0378003 0.034421 -4.69928e-20)
(-0.0360154 0.0378046 4.049e-19)
(-0.00420914 0.00958322 2.03978e-19)
(-0.0116746 0.0236644 1.05747e-20)
(-0.0189842 0.0333998 -7.32068e-20)
(-0.0256076 0.0397686 -7.73233e-20)
(-0.0313513 0.0435192 -3.58071e-19)
(-0.0361667 0.0452479 5.07069e-20)
(-0.0400381 0.0454478 1.43661e-19)
(-0.0429743 0.0445237 -6.90991e-20)
(-0.0450008 0.0428098 5.69988e-20)
(-0.0461524 0.0405875 -1.51135e-20)
(-0.0464689 0.0381006 -7.44539e-20)
(-0.0459963 0.0355684 7.06882e-20)
(-0.0447885 0.0331949 -3.07332e-19)
(-0.0429115 0.0311767 2.94625e-19)
(-0.0404492 0.0297056 -2.55199e-19)
(-0.037515 0.0289652 7.88313e-20)
(-0.0342562 0.029126 1.79383e-19)
(-0.0307967 0.0303581 -3.73122e-20)
(-0.0271928 0.0328418 -1.24139e-19)
(-0.0240498 0.0365077 -8.43558e-20)
(-0.00495844 0.0102917 -2.54088e-19)
(-0.0134507 0.0253546 -1.67113e-20)
(-0.0213482 0.0357211 5.35079e-20)
(-0.0282094 0.0424555 1.37563e-19)
(-0.0339083 0.0463677 -1.9421e-19)
(-0.0384499 0.048098 -1.69471e-19)
(-0.0418623 0.0481708 3.95558e-19)
(-0.0441883 0.0470122 -2.18574e-19)
(-0.0454782 0.0449699 -1.40995e-19)
(-0.0457834 0.0423341 -2.02308e-19)
(-0.0451538 0.0393554 1.33928e-19)
(-0.0436395 0.0362602 -3.62219e-21)
(-0.0412945 0.0332644 -2.50104e-19)
(-0.0381824 0.0305833 -4.09133e-19)
(-0.0343859 0.028439 3.11697e-19)
(-0.0300222 0.027059 -2.52547e-19)
(-0.0252521 0.026673 3.58066e-19)
(-0.0202246 0.0275303 -1.003e-19)
(-0.0150367 0.029911 2.10869e-19)
(-0.0104283 0.0337943 -7.15506e-19)
(-0.00575286 0.0109232 -5.14605e-19)
(-0.0153103 0.0268327 3.37414e-19)
(-0.0237865 0.0377256 4.5888e-20)
(-0.0308384 0.0447503 8.87572e-21)
(-0.0364147 0.0487765 -2.08028e-19)
(-0.0405799 0.050486 3.05912e-19)
(-0.0434112 0.0504306 3.33921e-20)
(-0.0449899 0.0490531 -6.27294e-20)
(-0.0453956 0.0467095 -2.01343e-19)
(-0.0447001 0.0436922 2.17643e-19)
(-0.0429669 0.0402507 5.51797e-19)
(-0.0402532 0.03661 -1.21902e-19)
(-0.0366147 0.0329873 2.7546e-19)
(-0.0321133 0.0296074 -3.25385e-19)
(-0.0268287 0.0267142 -3.11997e-19)
(-0.0208791 0.0245758 1.87594e-19)
(-0.0144367 0.0234863 3.09945e-19)
(-0.00767364 0.0237939 -1.00436e-18)
(-0.000732353 0.0259182 1.17929e-19)
(0.00546581 0.0299288 1.60345e-19)
(-0.00658267 0.0114711 3.81067e-19)
(-0.0172199 0.0280803 1.25343e-19)
(-0.0262371 0.0393863 6.52929e-19)
(-0.0333998 0.0466218 3.35963e-20)
(-0.0387382 0.0507151 -7.26129e-20)
(-0.0423819 0.0523877 -3.45773e-19)
(-0.0444618 0.0522167 2.94049e-19)
(-0.0451021 0.0506582 5.27551e-19)
(-0.0444158 0.0480724 3.51481e-19)
(-0.0425001 0.0447485 2.53753e-19)
(-0.0394366 0.0409282 2.1876e-19)
(-0.0352944 0.0368255 -3.92835e-19)
(-0.0301357 0.0326474 -1.23053e-19)
(-0.0240236 0.0286134 -9.06287e-20)
(-0.0170364 0.0249744 9.71175e-19)
(-0.00929205 0.0220258 -3.33011e-21)
(-0.000971827 0.0201202 -2.42034e-19)
(0.00773347 0.0197169 -7.63389e-20)
(0.0166389 0.0214185 6.94618e-19)
(0.0245871 0.0254417 9.11723e-20)
(-0.00743628 0.0119274 -1.87943e-20)
(-0.0191402 0.0290759 -3.60468e-19)
(-0.0286271 0.0406725 -5.36245e-19)
(-0.0357814 0.0480333 -1.49208e-19)
(-0.0407214 0.0521456 8.23896e-20)
(-0.043646 0.0537701 1.77423e-20)
(-0.0447437 0.0535078 4.70503e-19)
(-0.0441853 0.0518271 -5.83532e-19)
(-0.0421206 0.0490903 -2.21962e-19)
(-0.0386767 0.0455812 -4.47325e-19)
(-0.0339592 0.0415289 -3.81007e-19)
(-0.0280561 0.0371294 -3.37371e-19)
(-0.0210437 0.032568 8.43533e-20)
(-0.0129947 0.0280429 -1.09529e-19)
(-0.00399204 0.02379 4.69301e-19)
(0.0058424 0.0201069 -2.57228e-19)
(0.0163181 0.0173815 -8.0632e-19)
(0.0272315 0.0161769 -1.62687e-19)
(0.0383716 0.0173157 3.97949e-19)
(0.0482908 0.0212265 -3.46598e-19)
(-0.00830037 0.0122839 -6.07989e-20)
(-0.0210259 0.0297969 4.40859e-19)
(-0.0308727 0.0415501 -5.62245e-19)
(-0.0378542 0.0489432 1.29959e-19)
(-0.0421822 0.0530225 -2.67677e-19)
(-0.0441285 0.0545887 5.96238e-19)
(-0.0439413 0.0542674 -4.26139e-19)
(-0.0418398 0.0525393 4.87545e-19)
(-0.0380135 0.0497705 -4.62265e-19)
(-0.0326231 0.0462403 1.97245e-19)
(-0.0258039 0.042165 -9.57224e-20)
(-0.0176714 0.0377208 -2.40345e-19)
(-0.00832725 0.0330649 -2.96981e-19)
(0.00213274 0.0283602 2.95928e-19)
(0.0136065 0.0238047 -2.47837e-19)
(0.0259559 0.0196637 -5.41898e-19)
(0.038972 0.0163156 5.64156e-19)
(0.0524406 0.0143874 -7.19705e-19)
(0.0661598 0.0149306 3.23725e-19)
(0.0783604 0.0186401 8.13247e-21)
(-0.00916 0.0125326 -5.51209e-19)
(-0.0228258 0.03022 -5.95134e-19)
(-0.032879 0.0419841 6.85839e-20)
(-0.0394717 0.0493071 -5.73897e-19)
(-0.0429139 0.0532954 -5.10713e-20)
(-0.0435524 0.0547908 -4.22153e-19)
(-0.0416957 0.0544447 -9.68464e-20)
(-0.0376115 0.052753 -2.83044e-19)
(-0.0315296 0.0500891 2.51766e-21)
(-0.0236465 0.0467326 -1.23849e-19)
(-0.0141322 0.0428934 8.79605e-21)
(-0.00313817 0.0387328 -3.56908e-19)
(0.00919479 0.0343825 3.93393e-19)
(0.0227292 0.0299672 -5.58177e-19)
(0.0373204 0.0256318 1.97772e-19)
(0.0527886 0.0215756 7.51011e-21)
(0.0688811 0.0181079 -3.14987e-19)
(0.0853598 0.0158383 7.81068e-19)
(0.102083 0.0159963 -1.86554e-19)
(0.116993 0.0195473 -1.20908e-19)
(-0.00999891 0.0126662 6.18734e-19)
(-0.0244826 0.0303239 3.34083e-19)
(-0.0345393 0.0419412 3.1076e-19)
(-0.040469 0.0490822 4.63926e-20)
(-0.0426844 0.0529143 4.20203e-19)
(-0.0416077 0.0543215 6.05674e-19)
(-0.0376069 0.0539826 4.95903e-19)
(-0.0309967 0.0524122 4.43877e-20)
(-0.0220457 0.049996 3.63186e-19)
(-0.0109864 0.0470219 5.61192e-19)
(0.00197349 0.0437042 -1.45582e-19)
(0.0166392 0.0402025 2.44333e-19)
(0.0328177 0.0366376 1.97295e-19)
(0.0503085 0.0331082 2.00725e-19)
(0.0688945 0.0297116 1.18764e-18)
(0.0883159 0.0265675 -4.45157e-19)
(0.10823 0.0238632 -2.71933e-20)
(0.128325 0.0220746 5.16534e-19)
(0.148565 0.0224752 -2.92927e-19)
(0.166757 0.0262138 1.44761e-19)
(-0.0107995 0.0126794 -5.00341e-19)
(-0.025932 0.0300905 3.20457e-20)
(-0.0357329 0.0413937 -4.00498e-19)
(-0.0406599 0.0482338 -5.21304e-20)
(-0.0412324 0.0518392 2.93174e-19)
(-0.0379482 0.0531367 -8.72785e-19)
(-0.0312328 0.0528339 -6.49472e-22)
(-0.0214449 0.0514661 4.0619e-19)
(-0.00888956 0.0494367 3.81648e-19)
(0.00616609 0.0470507 -1.68031e-19)
(0.0234756 0.044539 5.54138e-20)
(0.042796 0.0420776 1.28525e-19)
(0.0638713 0.039801 -6.08534e-20)
(0.0864179 0.0378132 -6.82766e-19)
(0.110113 0.0361992 1.72858e-19)
(0.134567 0.0350298 4.75941e-19)
(0.159275 0.0343683 -6.78247e-19)
(0.183751 0.0344649 3.30821e-19)
(0.208046 0.0364703 8.8871e-20)
(0.230197 0.0415309 4.50027e-19)
(-0.0115426 0.0125684 -7.38623e-20)
(-0.0271014 0.0295071 -3.50558e-19)
(-0.0363223 0.0403235 1.61316e-19)
(-0.0398327 0.0467421 7.49538e-22)
(-0.0382629 0.0500512 -7.03043e-19)
(-0.0321865 0.0512196 1.09714e-19)
(-0.022085 0.050983 -2.08366e-20)
(-0.00835834 0.0498984 1.41935e-19)
(0.00865416 0.0483895 -6.49709e-19)
(0.0286519 0.0467834 -4.55577e-20)
(0.0513498 0.0453376 -1.52666e-19)
(0.0764554 0.0442612 1.35796e-19)
(0.103646 0.0437296 4.58527e-19)
(0.132544 0.0438968 -7.08875e-20)
(0.162697 0.0449043 2.74756e-20)
(0.193529 0.0468766 1.80625e-19)
(0.224264 0.0498844 -4.46056e-20)
(0.254016 0.0540911 3.64911e-19)
(0.282661 0.0606555 -2.11478e-19)
(0.308833 0.070429 -3.34853e-19)
(-0.0122063 0.012331 6.85213e-20)
(-0.0279067 0.0285667 1.67229e-20)
(-0.0361487 0.0387259 1.40568e-19)
(-0.0377441 0.0446098 3.44284e-19)
(-0.0334401 0.0475641 1.93198e-19)
(-0.0238877 0.0485975 2.01582e-20)
(-0.00962417 0.0484709 -2.30641e-19)
(0.00890825 0.0477602 5.9124e-20)
(0.0313345 0.0469073 3.10974e-19)
(0.0573183 0.0462592 -5.26976e-19)
(0.0865344 0.0460993 3.97676e-19)
(0.118644 0.0466715 -2.99666e-19)
(0.153271 0.0482021 2.54363e-19)
(0.189978 0.0509209 -5.48731e-19)
(0.228236 0.0550864 6.03911e-19)
(0.267369 0.061001 -6.46035e-19)
(0.30641 0.0690087 -1.68111e-19)
(0.344032 0.0797426 5.28346e-19)
(0.379064 0.0952167 -1.78227e-19)
(0.40826 0.115682 7.94303e-20)
(-0.0127645 0.0119661 -5.18522e-20)
(-0.028249 0.0272691 4.89347e-19)
(-0.0350271 0.0366119 -2.05064e-21)
(-0.0341139 0.0418673 -3.03782e-19)
(-0.026382 0.0444342 -2.043e-19)
(-0.0125647 0.045357 3.74286e-19)
(0.00673954 0.0454164 -1.48248e-19)
(0.0310383 0.0452005 -1.86756e-20)
(0.0599088 0.0451601 3.08986e-19)
(0.0929633 0.0456498 -3.83856e-19)
(0.129821 0.0469598 4.21024e-20)
(0.170085 0.0493422 -4.99142e-19)
(0.21333 0.0530358 2.62922e-19)
(0.2591 0.0582943 -7.52504e-19)
(0.306913 0.0654243 1.19929e-18)
(0.356278 0.074836 -2.19697e-19)
(0.406725 0.0871595 2.29738e-19)
(0.458098 0.10379 -5.96376e-19)
(0.510863 0.127758 3.49823e-21)
(0.556989 0.15502 6.79359e-19)
(-0.0131847 0.0114725 -1.57076e-19)
(-0.0280108 0.0256196 1.35705e-19)
(-0.0327416 0.0340097 -4.99807e-19)
(-0.0286208 0.038577 7.39257e-19)
(-0.0166587 0.0407668 -5.33721e-19)
(0.00231872 0.0416533 2.75492e-20)
(0.0276373 0.0420294 -5.75548e-19)
(0.0587332 0.0424851 4.11514e-19)
(0.0951053 0.0434653 -5.87877e-20)
(0.136275 0.0453107 -3.63201e-19)
(0.181757 0.0482871 -2.11989e-19)
(0.231041 0.0526075 2.23989e-19)
(0.283587 0.0584515 1.48192e-19)
(0.338841 0.0659812 -6.56029e-19)
(0.396263 0.0753589 2.36782e-19)
(0.455369 0.0867581 -3.49612e-19)
(0.5158 0.100384 4.23798e-20)
(0.577542 0.11667 -2.97579e-19)
(0.641419 0.136785 1.22469e-19)
(0.700201 0.156853 -4.47228e-19)
(-0.0134258 0.0108484 4.47178e-19)
(-0.0270518 0.0236302 -2.70845e-19)
(-0.0290435 0.0309657 2.23175e-19)
(-0.020903 0.0348341 -2.81755e-19)
(-0.00379726 0.0367174 4.72273e-19)
(0.0213356 0.0377113 -8.257e-21)
(0.053718 0.0386106 -5.74979e-20)
(0.0926746 0.0399935 -4.26341e-20)
(0.137573 0.0422807 2.6242e-19)
(0.187779 0.0457738 4.46256e-19)
(0.242622 0.0506817 -2.63608e-19)
(0.301389 0.0571389 2.56326e-19)
(0.36333 0.0652189 4.68355e-19)
(0.427677 0.0749438 -3.28392e-19)
(0.493685 0.0862895 -6.67556e-19)
(0.560677 0.0991819 1.22114e-18)
(0.628086 0.11348 -2.18008e-19)
(0.695544 0.129015 -7.09216e-20)
(0.763242 0.146107 7.65328e-19)
(0.826026 0.163917 -1.61657e-19)
(-0.013436 0.010092 -7.27984e-19)
(-0.025208 0.0213192 -4.84621e-19)
(-0.0236514 0.0275447 -1.86037e-19)
(-0.0105642 0.0307669 3.58925e-19)
(0.0127035 0.0324893 -8.10325e-19)
(0.0450684 0.0338184 4.19659e-19)
(0.0856033 0.0355363 5.31881e-20)
(0.133459 0.0381906 5.37919e-20)
(0.187794 0.0421535 -5.49723e-19)
(0.247725 0.0476577 -1.94137e-19)
(0.312304 0.0548208 -3.42269e-19)
(0.380517 0.0636628 3.30601e-19)
(0.451309 0.0741193 9.38982e-20)
(0.523621 0.0860528 1.8407e-20)
(0.596436 0.0992593 4.31427e-19)
(0.668826 0.11347 -4.36893e-19)
(0.73999 0.128342 -1.81743e-20)
(0.809284 0.143473 1.10134e-20)
(0.876382 0.158703 5.97609e-20)
(0.93844 0.175609 3.39854e-19)
(-0.0131521 0.00920182 2.31784e-19)
(-0.0222911 0.0187139 5.96971e-19)
(-0.0162565 0.0238317 4.79065e-19)
(0.00281425 0.0265354 -1.65137e-19)
(0.0333488 0.0283292 5.74378e-19)
(0.0740679 0.0303133 -4.83947e-20)
(0.123825 0.033236 -6.81702e-20)
(0.181508 0.0375873 4.05838e-20)
(0.245963 0.0436577 5.55302e-19)
(0.315953 0.0515731 3.26309e-19)
(0.390148 0.0613205 9.52947e-20)
(0.46715 0.0727695 5.8509e-21)
(0.545548 0.0856932 -6.32556e-19)
(0.62397 0.0997877 5.49636e-19)
(0.70115 0.11469 9.43564e-20)
(0.775975 0.129991 -1.55293e-19)
(0.847523 0.145246 -6.74252e-19)
(0.91508 0.160005 -5.71298e-20)
(0.978121 0.173802 2.6653e-19)
(1.03588 0.189775 -5.44059e-20)
(-0.0124993 0.00817894 -5.88138e-19)
(-0.0180919 0.0158532 2.46078e-19)
(-0.00653129 0.0199343 -1.20145e-18)
(0.0196542 0.0223322 4.92084e-19)
(0.058615 0.0245224 -3.92444e-19)
(0.108802 0.0275734 2.89329e-19)
(0.16875 0.0321684 -4.495e-19)
(0.236972 0.0387008 4.12627e-20)
(0.31188 0.0473346 -2.31758e-20)
(0.39177 0.0580415 1.20924e-19)
(0.474848 0.0706344 1.74666e-19)
(0.559292 0.0847999 -3.30118e-19)
(0.643339 0.100133 1.74821e-19)
(0.725369 0.11617 1.60614e-19)
(0.803977 0.132424 6.94224e-19)
(0.878023 0.148405 -3.01454e-19)
(0.946655 0.163644 -2.00533e-19)
(1.00932 0.177739 3.37336e-19)
(1.06561 0.190134 1.80214e-19)
(1.11614 0.204654 -3.38787e-19)
(-0.0113928 0.00702941 5.15159e-19)
(-0.0123857 0.0127931 4.96736e-19)
(0.00585753 0.0159867 1.43319e-19)
(0.0403576 0.0183834 6.0364e-19)
(0.0889116 0.0213889 2.96557e-19)
(0.149598 0.0260027 -5.34619e-19)
(0.220509 0.032797 8.09766e-19)
(0.299645 0.0420155 -3.98507e-19)
(0.384859 0.0536385 3.97846e-19)
(0.473892 0.06743 5.14838e-19)
(0.564445 0.0829867 -2.94236e-19)
(0.654299 0.0997896 5.58893e-20)
(0.741434 0.117258 3.11767e-19)
(0.824128 0.134799 2.19719e-19)
(0.901029 0.15185 5.06304e-19)
(0.971181 0.16791 -2.02487e-19)
(1.03402 0.18256 -2.48872e-20)
(1.08935 0.195502 3.19815e-19)
(1.13714 0.206269 -6.87354e-20)
(1.17878 0.21873 3.12191e-22)
(-0.00973971 0.00576702 -2.65929e-19)
(-0.00494031 0.00961097 -9.77432e-19)
(0.0212332 0.0121545 2.30181e-19)
(0.0652788 0.0149501 -1.75235e-19)
(0.12454 0.0192784 -4.04529e-19)
(0.196591 0.0260168 -2.88845e-19)
(0.278932 0.0355641 -1.7845e-19)
(0.368906 0.0479454 4.33384e-19)
(0.463707 0.0628914 -2.57388e-19)
(0.560474 0.0799061 -2.63605e-19)
(0.656444 0.0983403 -3.33477e-19)
(0.749118 0.11747 -5.50465e-20)
(0.8364 0.136569 -3.72736e-20)
(0.91669 0.154971 -7.71593e-19)
(0.988923 0.17211 3.74219e-19)
(1.05255 0.187551 -4.92111e-19)
(1.10747 0.200992 1.54706e-19)
(1.15397 0.212283 -1.17773e-18)
(1.19253 0.221165 3.54967e-19)
(1.22489 0.231138 4.49292e-19)
(-0.00744231 0.004416 -6.6779e-20)
(0.00447401 0.00641123 4.7683e-19)
(0.0398902 0.00863834 3.05714e-20)
(0.0946962 0.0123283 7.35641e-20)
(0.165654 0.0185637 -1.49565e-19)
(0.249673 0.0280274 -2.4648e-21)
(0.343503 0.0408638 -3.84637e-21)
(0.443703 0.0567991 -9.02684e-20)
(0.54675 0.0752485 3.20162e-19)
(0.649225 0.0954166 1.23793e-19)
(0.748035 0.116406 5.62113e-19)
(0.840614 0.13732 -1.5327e-19)
(0.925044 0.157353 1.07054e-19)
(1.00011 0.175845 -1.39363e-20)
(1.06524 0.192313 2.96584e-19)
(1.12048 0.206461 1.81553e-19)
(1.1663 0.21816 4.37688e-19)
(1.2035 0.22743 -7.07015e-19)
(1.23303 0.23426 8.89896e-19)
(1.25676 0.241605 -2.81977e-19)
(-0.004402 0.00301325 -6.21517e-19)
(0.0160732 0.00332854 -1.94032e-19)
(0.0620744 0.00567628 1.51643e-19)
(0.128782 0.0108462 9.56085e-20)
(0.212221 0.0196292 9.79815e-20)
(0.308462 0.0324202 9.93315e-20)
(0.413348 0.0490127 -2.48615e-19)
(0.522579 0.0687501 -1.02816e-19)
(0.631943 0.0906787 3.18888e-20)
(0.737608 0.113694 -3.04628e-19)
(0.83639 0.136687 -1.37835e-19)
(0.925939 0.158661 8.32993e-19)
(1.0048 0.178822 -2.14888e-19)
(1.07237 0.196612 -2.96358e-19)
(1.12878 0.211715 -1.40736e-19)
(1.17469 0.22403 9.74241e-20)
(1.21116 0.233631 1.18923e-19)
(1.23945 0.240707 -5.70038e-19)
(1.26084 0.245468 8.25148e-19)
(1.27721 0.25031 -7.15242e-19)
(-0.000523238 0.00160972 -7.03341e-20)
(0.0300465 0.000529644 2.01478e-20)
(0.0879613 0.00354192 -2.56989e-20)
(0.167573 0.0108558 3.75459e-19)
(0.263995 0.0228543 2.06895e-20)
(0.37228 0.0395308 1.37896e-19)
(0.487254 0.0602227 -2.86507e-19)
(0.603758 0.0838169 -1.04503e-20)
(0.717034 0.108968 3.98072e-19)
(0.823089 0.134296 5.55007e-20)
(0.918967 0.158558 -3.46899e-19)
(1.00285 0.180765 -3.04773e-20)
(1.07399 0.200242 -2.85152e-19)
(1.13259 0.216625 2.83899e-19)
(1.17949 0.229824 3.94475e-19)
(1.21599 0.239964 -4.34905e-20)
(1.24363 0.247313 -5.30428e-20)
(1.26398 0.25221 1.617e-19)
(1.27852 0.255027 -5.19985e-19)
(1.28903 0.257666 4.57981e-19)
(0.00428181 0.000271089 7.06367e-20)
(0.0465435 -0.00178761 -4.55684e-19)
(0.117636 0.00253893 1.21952e-19)
(0.210948 0.0127201 -3.78313e-19)
(0.320497 0.028592 1.30087e-19)
(0.440167 0.049618 -4.83141e-19)
(0.563725 0.0745786 1.94895e-19)
(0.685274 0.101859 -6.20507e-20)
(0.799763 0.129746 -2.52072e-21)
(0.903388 0.156666 6.3521e-20)
(0.993763 0.181359 -2.31378e-19)
(1.06988 0.202968 -3.30411e-19)
(1.1319 0.221038 -6.77798e-20)
(1.18084 0.235468 -3.04292e-20)
(1.21825 0.246423 -7.7216e-20)
(1.24595 0.254246 -2.51629e-20)
(1.26578 0.259372 -7.53286e-20)
(1.27946 0.262246 -6.53235e-20)
(1.28854 0.263336 -1.94419e-19)
(1.29462 0.264146 3.08523e-19)
(0.0100885 -0.000922575 1.69889e-19)
(0.0656604 -0.00339785 -1.88679e-19)
(0.151072 0.00299121 4.06074e-19)
(0.25861 0.016795 -1.75286e-19)
(0.381016 0.0371445 4.68492e-19)
(0.510915 0.0628405 6.68234e-21)
(0.641085 0.092029 2.35316e-19)
(0.765129 0.122595 -6.30406e-20)
(0.878072 0.152534 2.63059e-19)
(0.976678 0.180208 1.90257e-20)
(1.05946 0.204481 6.26442e-19)
(1.12641 0.224742 -4.32443e-19)
(1.17865 0.240837 5.82646e-20)
(1.21799 0.252961 1.11205e-19)
(1.24653 0.261526 5.826e-19)
(1.26645 0.267061 -2.09329e-19)
(1.27972 0.270118 -4.15064e-20)
(1.28807 0.271201 -2.19927e-19)
(1.29298 0.270821 -2.3177e-20)
(1.29585 0.270172 1.1006e-19)
(0.0169545 -0.00187805 -8.15455e-20)
(0.0874278 -0.00405454 2.35561e-19)
(0.188121 0.00522925 -2.4119e-19)
(0.310075 0.0234088 9.52582e-20)
(0.444626 0.0487401 -1.13903e-19)
(0.583136 0.079242 4.18081e-19)
(0.71759 0.112391 -5.82434e-20)
(0.84146 0.145633 1.43488e-19)
(0.950264 0.176805 -8.44999e-20)
(1.04171 0.204361 -2.22588e-21)
(1.11543 0.227426 9.65475e-20)
(1.17253 0.245733 -7.48195e-20)
(1.21502 0.259469 1.94084e-19)
(1.24536 0.269116 -9.67567e-20)
(1.26605 0.275304 -4.26151e-19)
(1.27939 0.278693 4.2372e-19)
(1.28739 0.279904 -1.90946e-19)
(1.29165 0.279453 1.52483e-19)
(1.29348 0.277858 2.64439e-19)
(1.29409 0.27607 1.08645e-19)
(0.0249151 -0.00249105 2.02916e-19)
(0.111799 -0.00349869 -4.18163e-19)
(0.228496 0.00957388 8.00076e-20)
(0.364686 0.0328403 -5.80482e-20)
(0.510229 0.0635145 -2.34166e-19)
(0.655346 0.0987474 -1.83792e-19)
(0.791566 0.135372 -3.61321e-20)
(0.912672 0.17052 -3.27719e-19)
(1.01511 0.202043 -1.99701e-20)
(1.09781 0.228648 -6.09068e-20)
(1.16168 0.249844 -1.65358e-19)
(1.20887 0.265758 -3.67403e-20)
(1.24216 0.276923 -1.26588e-19)
(1.26446 0.284076 -2.11311e-19)
(1.27846 0.288006 2.16423e-19)
(1.28648 0.289457 2.98425e-20)
(1.29037 0.289063 5.94725e-20)
(1.29158 0.28732 -2.49391e-19)
(1.29121 0.284732 -6.23266e-21)
(1.29029 0.282058 -3.84857e-19)
(0.0339783 -0.00264931 2.22453e-19)
(0.138643 -0.00146954 1.4838e-19)
(0.271778 0.0163186 -2.3926e-19)
(0.421627 0.0452997 3.73626e-19)
(0.576608 0.0814998 -4.02865e-20)
(0.726065 0.121171 1.39584e-19)
(0.861513 0.160601 4.83332e-20)
(0.977535 0.196786 1.71255e-19)
(1.07187 0.227783 -1.34101e-19)
(1.14487 0.252707 4.47045e-20)
(1.19868 0.271523 -4.29114e-20)
(1.2364 0.284772 -1.88841e-20)
(1.26138 0.293301 3.59079e-20)
(1.27677 0.298047 -6.6173e-20)
(1.28529 0.299903 -2.03407e-20)
(1.28911 0.299638 -6.22404e-20)
(1.28991 0.297866 -1.0118e-19)
(1.2889 0.295042 6.5324e-20)
(1.287 0.29164 -8.96525e-20)
(1.28503 0.288264 3.87407e-19)
(0.0441205 -0.00223636 -1.11083e-19)
(0.16774 0.00228344 -3.14705e-19)
(0.317419 0.0257125 -4.18973e-20)
(0.479959 0.0609135 -1.14102e-20)
(0.642502 0.102623 -1.40998e-19)
(0.793905 0.146236 -2.31526e-19)
(0.926195 0.187662 7.57951e-20)
(1.03521 0.223982 -1.04154e-19)
(1.12025 0.253646 -1.16727e-19)
(1.18315 0.276287 6.50387e-20)
(1.22721 0.292369 -4.9156e-20)
(1.25625 0.302825 -9.94891e-20)
(1.27398 0.30876 -3.36946e-21)
(1.28361 0.311252 6.73916e-20)
(1.28776 0.311238 -6.87758e-20)
(1.28837 0.309471 9.54385e-20)
(1.28689 0.306518 2.56715e-20)
(1.28431 0.302777 6.47124e-20)
(1.28137 0.298699 1.26166e-19)
(1.27872 0.294745 -1.08085e-19)
(0.0552843 -0.00113609 1.06104e-19)
(0.198781 0.00798787 -9.37061e-21)
(0.364757 0.0379443 4.76201e-20)
(0.538666 0.0797153 -6.46249e-20)
(0.706668 0.126712 5.31843e-21)
(0.857648 0.173598 2.24298e-19)
(0.984681 0.216132 -1.4735e-19)
(1.08524 0.251709 6.24326e-20)
(1.16034 0.279337 5.50616e-20)
(1.21324 0.299239 -1.54774e-19)
(1.24819 0.312375 1.45474e-19)
(1.26954 0.320021 1.29082e-21)
(1.28113 0.323477 -1.02561e-19)
(1.28611 0.323896 1.23634e-19)
(1.28685 0.32221 -4.90818e-20)
(1.28506 0.319129 3.75373e-20)
(1.28194 0.315152 -4.19798e-20)
(1.27828 0.310619 -1.67907e-20)
(1.27464 0.30596 -1.47061e-19)
(1.27155 0.301504 4.50481e-20)
(0.0673768 0.000762213 -3.57724e-20)
(0.231374 0.0158362 9.6013e-20)
(0.413045 0.0531304 1.49719e-20)
(0.596697 0.101644 6.28006e-20)
(0.76795 0.153512 2.9971e-20)
(0.916293 0.202872 1.40495e-20)
(1.03635 0.245602 7.96584e-20)
(1.1275 0.279629 -9.66568e-21)
(1.19249 0.304644 3.51381e-20)
(1.23585 0.321489 5.6468e-20)
(1.26258 0.331585 2.72579e-20)
(1.2773 0.336484 1.95738e-20)
(1.28385 0.337613 7.93862e-20)
(1.28514 0.336143 -7.685e-20)
(1.2833 0.332966 1.64987e-20)
(1.27976 0.328723 -1.54572e-20)
(1.27548 0.323841 2.39115e-20)
(1.27109 0.318604 2.0038e-20)
(1.26702 0.313427 4.1861e-20)
(1.26364 0.308511 1.75898e-21)
(0.0802697 0.00355864 2.1207e-20)
(0.265055 0.0259741 1.93716e-20)
(0.461474 0.0713061 -2.68191e-20)
(0.653023 0.126545 1.6759e-20)
(0.825327 0.182701 9.47051e-21)
(0.969078 0.233657 -2.94618e-20)
(1.08087 0.275692 9.72438e-21)
(1.16212 0.307463 1.75412e-21)
(1.21723 0.329419 1.67767e-20)
(1.25179 0.343014 -4.4992e-20)
(1.27129 0.350065 -1.40901e-22)
(1.28045 0.352332 1.24762e-20)
(1.28293 0.3513 -9.94214e-21)
(1.28138 0.348114 1.00594e-20)
(1.27762 0.343597 2.6262e-20)
(1.27284 0.33831 -1.49465e-20)
(1.26778 0.332608 4.15877e-21)
(1.26292 0.326727 1.63831e-20)
(1.25859 0.32107 -2.70124e-20)
(1.25505 0.315709 1.2966e-20)
(0.0938023 0.00733756 5.91081e-20)
(0.299301 0.0384917 -3.21504e-20)
(0.509214 0.0924221 3.78621e-20)
(0.706676 0.154185 -2.81738e-20)
(0.877945 0.213908 -1.26391e-20)
(1.01548 0.265549 3.82084e-21)
(1.11813 0.306063 -1.24084e-20)
(1.18941 0.334987 4.46327e-20)
(1.23517 0.353563 -3.71731e-20)
(1.26182 0.363814 8.72378e-21)
(1.27513 0.367883 -6.50111e-21)
(1.27973 0.367659 -4.23715e-20)
(1.27902 0.364631 4.11068e-20)
(1.27533 0.35988 1.56569e-20)
(1.2702 0.354144 -1.55762e-20)
(1.26456 0.347902 3.65746e-20)
(1.25899 0.341438 -5.35047e-22)
(1.25387 0.33495 -3.54964e-20)
(1.2494 0.328834 2.63e-20)
(1.2458 0.323028 8.29605e-21)
(0.107784 0.012163 -2.07124e-20)
(0.333551 0.0534165 6.00692e-20)
(0.555439 0.116346 6.94148e-20)
(0.756784 0.184257 -3.27533e-20)
(0.925129 0.246733 5.69911e-20)
(1.05518 0.298158 9.02077e-20)
(1.14825 0.336411 -4.96818e-21)
(1.2098 0.362017 -1.54957e-20)
(1.24695 0.377005 7.65449e-20)
(1.26667 0.383901 3.73296e-20)
(1.27479 0.385092 -6.77792e-21)
(1.27575 0.382529 5.567e-20)
(1.27259 0.377657 -5.97185e-20)
(1.26735 0.371469 9.29977e-20)
(1.26126 0.364609 -1.55163e-20)
(1.25507 0.357474 4.44674e-20)
(1.24922 0.350287 8.02121e-21)
(1.24397 0.343214 3.18349e-20)
(1.23947 0.336646 -3.03018e-20)
(1.23589 0.330387 7.29891e-21)
(0.122 0.0180743 -3.22372e-20)
(0.367219 0.0707088 7.64947e-20)
(0.599361 0.142863 5.68357e-20)
(0.802594 0.216397 -8.61481e-21)
(0.966386 0.280756 8.8587e-20)
(1.08807 0.331109 -6.6174e-20)
(1.17144 0.366467 -5.19719e-21)
(1.22378 0.388401 5.84433e-20)
(1.25319 0.399688 1.85691e-20)
(1.26697 0.403277 2.59864e-20)
(1.27086 0.40172 -3.83785e-20)
(1.26897 0.39697 1.001e-19)
(1.26402 0.390391 1.86997e-20)
(1.25769 0.382871 -8.86913e-20)
(1.25098 0.374959 1.29624e-19)
(1.24447 0.366976 -1.52964e-19)
(1.2385 0.359089 -7.02467e-20)
(1.23325 0.351444 1.16379e-20)
(1.22879 0.344424 6.82343e-20)
(1.22529 0.337699 -1.28658e-19)
(0.136218 0.0250833 -7.25478e-20)
(0.399722 0.0902616 -1.71154e-19)
(0.640254 0.171691 -1.48002e-19)
(0.84349 0.250198 -2.01556e-19)
(1.00139 0.315555 -1.14382e-19)
(1.11416 0.36405 -2.37217e-19)
(1.18804 0.395988 3.01401e-20)
(1.23186 0.414003 -1.26044e-19)