/*--------------------------------*- C++ -*----------------------------------*\
  =========                 |
  \\      /  F ield         | OpenFOAM: The Open Source CFD Toolbox
   \\    /   O peration     | Website:  https://openfoam.org
    \\  /    A nd           | Version:  6.0
     \\/     M anipulation  |
\*---------------------------------------------------------------------------*/
FoamFile
{
    version     2.0;
    format      ascii;
    class       surfaceScalarField;
    location    "28";
    object      phi;
}
// * * * * * * * * * * * * * * * * * * * * * * * * * * * * * * * * * * * * * //

dimensions      [0 3 -1 0 0 0 0];

internalField   nonuniform List<scalar> 
7840
(
3.48055e-05
-0.000247566
0.00012369
-0.000780683
0.000249862
-0.00131828
0.000394727
-0.00181761
0.000540936
-0.00224518
0.000675406
-0.00258404
0.000790559
-0.00283347
0.000883831
-0.00300399
0.000956236
-0.00311141
0.00101078
-0.00317231
0.00105117
-0.00320121
0.00108098
-0.00320957
0.00110319
-0.00320562
0.00112011
-0.00319495
0.0011334
-0.00318116
0.00114421
-0.00316644
0.0011533
-0.00315213
0.00116121
-0.00313906
0.00116826
-0.00312775
-0.0031187
0.00117463
3.62495e-05
-0.000283815
0.000126204
-0.000870637
0.000250337
-0.00144241
0.000388522
-0.00195579
0.000523444
-0.0023801
0.000643264
-0.00270386
0.000742148
-0.00293236
0.000819146
-0.00308099
0.000876413
-0.00316868
0.000917556
-0.00321345
0.000946429
-0.00323009
0.000966447
-0.00322958
0.000980305
-0.00321948
0.000989967
-0.00320462
0.000996789
-0.00318798
0.00100168
-0.00317132
0.00100523
-0.00315568
0.00100784
-0.00314167
0.00100976
-0.00312967
-0.00312005
0.00101111
3.72914e-05
-0.000321107
0.000127148
-0.000960494
0.000247559
-0.00156282
0.000377357
-0.00208559
0.000499754
-0.0025025
0.000604441
-0.00280854
0.000687338
-0.00301526
0.000748925
-0.00314257
0.000792244
-0.003212
0.000821262
-0.00324247
0.000839802
-0.00324863
0.00085103
-0.00324081
0.000857307
-0.00322575
0.000860276
-0.00320759
0.000861023
-0.00318872
0.000860252
-0.00317055
0.000858423
-0.00315385
0.00085584
-0.00313909
0.000852689
-0.00312652
-0.00311641
0.000849055
3.78933e-05
-0.000359
0.000126475
-0.00104908
0.000241604
-0.00167795
0.000361585
-0.00220557
0.000470595
-0.00261151
0.000560017
-0.00289797
0.000627448
-0.00308269
0.000674582
-0.0031897
0.000705099
-0.00324252
0.000723122
-0.00326049
0.000732317
-0.00325782
0.000735541
-0.00324403
0.000734822
-0.00322503
0.000731505
-0.00320427
0.000726448
-0.00318367
0.000720191
-0.00316429
0.000713087
-0.00314675
0.000705368
-0.00313137
0.000697181
-0.00311833
-0.00310782
0.000688584
3.80293e-05
-0.000397029
0.000124185
-0.00113523
0.000232626
-0.00178639
0.000341652
-0.0023146
0.000436738
-0.00270659
0.000511037
-0.00297227
0.000563677
-0.00313533
0.000597334
-0.00322336
0.000616106
-0.00326129
0.000624107
-0.00326849
0.000624759
-0.00325847
0.000620588
-0.00323986
0.000613304
-0.00321775
0.00060399
-0.00319495
0.000593311
-0.00317299
0.000581679
-0.00315266
0.000569363
-0.00313443
0.000556546
-0.00311856
0.000543342
-0.00310513
-0.00309427
0.000529798
3.76854e-05
-0.000434715
0.000120317
-0.00121786
0.00022085
-0.00188692
0.000318055
-0.0024118
0.000398964
-0.0027875
0.00045848
-0.00303178
0.000497086
-0.00317393
0.000518211
-0.00324449
0.000526177
-0.00326926
0.000524971
-0.00326728
0.000517719
-0.00325122
0.000506616
-0.00322876
0.00049308
-0.00320421
0.000477969
-0.00317984
0.000461794
-0.00315681
0.00044486
-0.00313573
0.000427372
-0.00311694
0.000409477
-0.00310066
0.000391271
-0.00308692
-0.0030758
0.000372794
3.68597e-05
-0.000471574
0.000114948
-0.00129595
0.000206543
-0.00197852
0.000291318
-0.00249658
0.000358023
-0.00285421
0.000403235
-0.00307699
0.00042859
-0.00319929
0.000438064
-0.00325396
0.000436043
-0.00326723
0.000426301
-0.00325754
0.000411645
-0.00323657
0.000393955
-0.00321107
0.00037439
-0.00318465
0.000353622
-0.00315908
0.000332032
-0.00313522
0.000309844
-0.00311354
0.000287212
-0.00309431
0.000264254
-0.0030777
0.000241057
-0.00306372
-0.0030524
0.000217662
3.55611e-05
-0.000507135
0.000108184
-0.00136857
0.000190006
-0.00206034
0.000261967
-0.00256854
0.000314619
-0.00290686
0.000346091
-0.00310846
0.000358971
-0.00321217
0.00035759
-0.00325258
0.00034628
-0.00325593
0.000328547
-0.00323981
0.000306871
-0.00321489
0.000282846
-0.00318704
0.00025741
-0.00315921
0.00023108
-0.00313275
0.000204131
-0.00310827
0.000176721
-0.00308613
0.000148964
-0.00306656
0.000120955
-0.00304969
9.27788e-05
-0.00303555
-0.0030241
6.44801e-05
3.38084e-05
-0.000540944
0.000100154
-0.00143492
0.000171555
-0.00213174
0.00023051
-0.0026275
0.000269395
-0.00294574
0.000287738
-0.00312681
0.000288882
-0.00321331
0.000277358
-0.00324106
0.000257347
-0.00323591
0.000232054
-0.00321452
0.000203651
-0.00318649
0.000173473
-0.00315687
0.000142272
-0.00312801
0.00011044
-0.00310092
7.81704e-05
-0.003076
4.55627e-05
-0.00305352
1.26944e-05
-0.00303369
-2.03537e-05
-0.00301665
-5.34975e-05
-0.0030024
-0.00299092
-8.66793e-05
3.1629e-05
-0.000572573
9.10021e-05
-0.00149429
0.000151507
-0.00219225
0.00019743
-0.00267342
0.000222931
-0.00297124
0.000228772
-0.00313265
0.000218872
-0.00320341
0.000197827
-0.00322001
0.000169603
-0.00320769
0.000137095
-0.00318201
0.00010218
-0.00315157
6.59734e-05
-0.00312066
2.90753e-05
-0.00309111
-8.2207e-06
-0.00306362
-4.57901e-05
-0.00303843
-8.35804e-05
-0.00301573
-0.000121548
-0.00299572
-0.000159626
-0.00297857
-0.000197724
-0.00296431
-0.00295288
-0.000235767
2.90573e-05
-0.00060163
8.08806e-05
-0.00154612
0.000130176
-0.00224154
0.000163171
-0.00270641
0.000175739
-0.00298381
0.000169704
-0.00312661
0.000149396
-0.0031831
0.000119374
-0.00318999
8.33423e-05
-0.00317166
4.38851e-05
-0.00314255
2.61702e-06
-0.00311031
-3.95385e-05
-0.0030785
-8.20996e-05
-0.00304855
-0.000124848
-0.00302087
-0.00016771
-0.00299557
-0.000210678
-0.00297276
-0.000253741
-0.00295266
-0.000296848
-0.00293546
-0.000339896
-0.00292126
-0.00290999
-0.000382783
2.6133e-05
-0.000627763
6.99478e-05
-0.00158993
0.000107863
-0.00227946
0.000128144
-0.00272669
0.000128274
-0.00298394
0.000110972
-0.00310931
8.08376e-05
-0.00315297
4.23101e-05
-0.00315146
-1.19374e-06
-0.00312816
-4.73901e-05
-0.00309635
-9.49016e-05
-0.00306279
-0.000142962
-0.00303044
-0.000191182
-0.00300033
-0.000239395
-0.00297266
-0.000287565
-0.0029474
-0.000335722
-0.00292461
-0.000383893
-0.00290449
-0.000432047
-0.00288731
-0.000480066
-0.00287324
-0.00286225
-0.00052781
2.29003e-05
-0.000650663
5.83622e-05
-0.00162539
8.48516e-05
-0.00230595
9.27188e-05
-0.00273456
8.09328e-05
-0.00297215
5.29507e-05
-0.00308133
1.3522e-05
-0.00311354
-3.30979e-05
-0.00310484
-8.37925e-05
-0.00307746
-0.000136563
-0.00304358
-0.000190242
-0.00300912
-0.000244195
-0.00297649
-0.000298098
-0.00294643
-0.000351815
-0.00291894
-0.000405334
-0.00289388
-0.000458716
-0.00287123
-0.000512032
-0.00285117
-0.000565281
-0.00283406
-0.000618336
-0.00282018
-0.00280958
-0.000670997
1.94063e-05
-0.00067007
4.62794e-05
-0.00165227
6.1408e-05
-0.00232108
5.72288e-05
-0.00273038
3.40657e-05
-0.00294899
-4.03293e-06
-0.00304323
-5.22683e-05
-0.0030653
-0.000106613
-0.0030505
-0.000164256
-0.00301982
-0.000223463
-0.00298438
-0.000283258
-0.00294932
-0.000343113
-0.00291664
-0.000402752
-0.00288679
-0.000462049
-0.00285964
-0.000520993
-0.00283494
-0.000579667
-0.00281255
-0.000638188
-0.00279265
-0.000696607
-0.00277564
-0.000754792
-0.002762
-0.00275193
-0.000812451
1.56998e-05
-0.000685769
3.38504e-05
-0.00167042
3.77781e-05
-0.002325
2.19739e-05
-0.00271458
-1.20194e-05
-0.002915
-5.9693e-05
-0.00299556
-0.000116281
-0.00300872
-0.000178015
-0.00298876
-0.000242384
-0.00295545
-0.000307906
-0.00291885
-0.000373774
-0.00288345
-0.000439555
-0.00285085
-0.000505009
-0.00282134
-0.000570001
-0.00279465
-0.0006345
-0.00277044
-0.00069858
-0.00274847
-0.000762401
-0.00272883
-0.000826078
-0.00271196
-0.000889492
-0.00269859
-0.0026892
-0.000952214
1.18305e-05
-0.0006976
2.12189e-05
-0.00167981
1.41876e-05
-0.00231797
-1.27781e-05
-0.00268761
-5.70505e-05
-0.00287073
-0.000113776
-0.00293883
-0.000178285
-0.00294421
-0.000247088
-0.00291996
-0.000317968
-0.00288457
-0.000389677
-0.00284714
-0.000461565
-0.00281156
-0.000533294
-0.00277912
-0.000604656
-0.00274997
-0.000675505
-0.0027238
-0.000745761
-0.00270018
-0.000815458
-0.00267877
-0.000884762
-0.00265952
-0.000953864
-0.00264286
-0.00102268
-0.00262977
-0.00262122
-0.00109066
7.84776e-06
-0.000705448
8.52028e-06
-0.00168048
-9.15867e-06
-0.00230029
-4.67896e-05
-0.00264998
-0.000100788
-0.00281673
-0.000166054
-0.00287357
-0.000238066
-0.00287219
-0.000313621
-0.0028444
-0.000390782
-0.00280741
-0.000468523
-0.0027694
-0.000546347
-0.00273374
-0.000624013
-0.00270146
-0.000701366
-0.00267262
-0.000778258
-0.00264691
-0.00085456
-0.00262388
-0.000930231
-0.0026031
-0.00100541
-0.00258434
-0.00108038
-0.00256789
-0.00115513
-0.00255502
-0.00254705
-0.00122929
3.79949e-06
-0.000709247
-4.12052e-06
-0.00167256
-3.20776e-05
-0.00227234
-7.98521e-05
-0.00260221
-0.000143022
-0.00275356
-0.000216326
-0.00280026
-0.000295423
-0.0027931
-0.000377398
-0.00276243
-0.000460583
-0.00272422
-0.000544156
-0.00268583
-0.000627773
-0.00265012
-0.000711307
-0.00261792
-0.000794685
-0.00258924
-0.000877804
-0.00256379
-0.000960515
-0.00254117
-0.0010427
-0.00252091
-0.00112447
-0.00250258
-0.00120618
-0.00248617
-0.00128808
-0.00247313
-0.00246441
-0.00137072
-2.68737e-07
-0.000708978
-1.65903e-05
-0.00165624
-5.4409e-05
-0.00223452
-0.000111787
-0.00254483
-0.000183574
-0.00268177
-0.000264415
-0.00271942
-0.000350171
-0.00270734
-0.000438208
-0.00267439
-0.000527105
-0.00263533
-0.000616234
-0.0025967
-0.000705401
-0.00256096
-0.000794615
-0.00252871
-0.000883941
-0.00249992
-0.00097341
-0.00247432
-0.00106297
-0.00245161
-0.0011525
-0.00243138
-0.00124201
-0.00241307
-0.00133185
-0.00239634
-0.00142258
-0.0023824
-0.00237008
-0.00151691
-4.31497e-06
-0.000704664
-2.87897e-05
-0.00163176
-7.60167e-05
-0.00218729
-0.000142447
-0.0024784
-0.000222301
-0.00260192
-0.000310179
-0.00263155
-0.000402157
-0.00261536
-0.00049586
-0.00258069
-0.000590088
-0.0025411
-0.000684376
-0.00250241
-0.000778663
-0.00246667
-0.000873092
-0.00243428
-0.000967912
-0.0024051
-0.00106341
-0.00237883
-0.00115986
-0.00235516
-0.00125746
-0.00233378
-0.00135634
-0.00231419
-0.00145705
-0.00229563
-0.00156181
-0.00227764
-0.00227151
-0.00166038
-8.28968e-06
-0.000696374
-4.06144e-05
-0.00159944
-9.67679e-05
-0.00213114
-0.000171698
-0.00240347
-0.000259077
-0.00251454
-0.000353502
-0.00253712
-0.000451262
-0.0025176
-0.000550216
-0.00248174
-0.000649344
-0.00244197
-0.000748297
-0.00240346
-0.000847078
-0.00236789
-0.000945881
-0.00233548
-0.00104503
-0.00230595
-0.00114497
-0.00227888
-0.00124633
-0.0022538
-0.00134994
-0.00223017
-0.00145665
-0.00220748
-0.00156687
-0.00218541
-0.00168155
-0.00216296
-0.00213313
-0.00181994
-1.21817e-05
-0.000684192
-5.20318e-05
-0.00155959
-0.000116622
-0.00206655
-0.000199504
-0.00232059
-0.000293882
-0.00242016
-0.000394382
-0.00243662
-0.000497496
-0.00241449
-0.000601295
-0.00237794
-0.000704909
-0.00233836
-0.00080806
-0.00230031
-0.00091076
-0.00226519
-0.00101314
-0.00223309
-0.0011154
-0.0022037
-0.00121774
-0.00217654
-0.00132041
-0.00215113
-0.00142359
-0.00212699
-0.00152737
-0.0021037
-0.00163197
-0.00208082
-0.00173808
-0.00205685
-0.00202834
-0.00184286
-1.59523e-05
-0.00066824
-6.29682e-05
-0.00151257
-0.000135494
-0.00199402
-0.000225792
-0.00223029
-0.000326666
-0.00231928
-0.00043279
-0.0023305
-0.000540856
-0.00230642
-0.000649128
-0.00226966
-0.000756862
-0.00223062
-0.000863847
-0.00219333
-0.000970117
-0.00215892
-0.00107579
-0.00212742
-0.00118102
-0.00209847
-0.00128593
-0.00207163
-0.0013906
-0.00204646
-0.00149505
-0.00202253
-0.00159926
-0.0019995
-0.00170317
-0.00197691
-0.00180609
-0.00195393
-0.00192975
-0.00190468
-1.95795e-05
-0.00064866
-7.33825e-05
-0.00145877
-0.000153344
-0.00191406
-0.000250538
-0.00213309
-0.000357428
-0.0022124
-0.000468753
-0.00221917
-0.000581399
-0.00219378
-0.000693797
-0.00215727
-0.000805311
-0.00211911
-0.000915778
-0.00208286
-0.00102523
-0.00204946
-0.00113377
-0.00201888
-0.00124149
-0.00199075
-0.00134844
-0.00196468
-0.00145464
-0.00194026
-0.00156001
-0.00191717
-0.0016644
-0.0018951
-0.00176755
-0.00187376
-0.00186878
-0.0018527
-0.00183148
-0.00196705
-2.30454e-05
-0.000625615
-8.32444e-05
-0.00139857
-0.000170146
-0.00182716
-0.000273737
-0.0020295
-0.000386189
-0.00209994
-0.000502324
-0.00210304
-0.000619208
-0.00207689
-0.000735431
-0.00204104
-0.000850452
-0.00200409
-0.000964153
-0.00196916
-0.00107658
-0.00193704
-0.00118781
-0.00190765
-0.00129792
-0.00188064
-0.00140694
-0.00185566
-0.00151485
-0.00183235
-0.00162157
-0.00181045
-0.00172696
-0.00178971
-0.00183078
-0.00176994
-0.00193263
-0.00175085
-0.00173219
-0.00203192
-2.63361e-05
-0.000599279
-9.25329e-05
-0.00133237
-0.000185888
-0.0017338
-0.000295395
-0.00192
-0.000412982
-0.00198236
-0.000533561
-0.00198246
-0.000654371
-0.00195609
-0.000774144
-0.00192127
-0.00089243
-0.0018858
-0.00100915
-0.00185244
-0.00112437
-0.00182182
-0.00123816
-0.00179385
-0.0013506
-0.0017682
-0.00146172
-0.00174454
-0.00157149
-0.00172258
-0.00167987
-0.00170207
-0.00178674
-0.00168284
-0.00189196
-0.00166472
-0.00199533
-0.00164748
-0.00163095
-0.00209657
-2.94407e-05
-0.000569838
-0.000101234
-0.00126058
-0.000200567
-0.00163447
-0.00031553
-0.00180503
-0.000437847
-0.00186004
-0.000562528
-0.00185778
-0.000686974
-0.00183164
-0.000810051
-0.00179819
-0.000931389
-0.00176446
-0.00105095
-0.00173288
-0.00116882
-0.00170396
-0.00128508
-0.00167759
-0.00139982
-0.00165346
-0.00151307
-0.00163129
-0.00162485
-0.0016108
-0.00173513
-0.00159179
-0.00184387
-0.0015741
-0.00195099
-0.0015576
-0.0020564
-0.00154206
-0.00152738
-0.00215996
-3.23506e-05
-0.000537487
-0.000109338
-0.00118359
-0.000214184
-0.00152962
-0.000334161
-0.00168506
-0.000460824
-0.00173338
-0.000589283
-0.00172932
-0.000717095
-0.00170383
-0.000843245
-0.00167204
-0.000967438
-0.00164027
-0.00108968
-0.00161063
-0.00121007
-0.00158357
-0.00132872
-0.00155894
-0.00144572
-0.00153646
-0.00156114
-0.00151587
-0.00167501
-0.00149693
-0.00178734
-0.00147946
-0.00189813
-0.00146331
-0.00200737
-0.00144836
-0.00211505
-0.00143438
-0.00142134
-0.0022211
-3.50592e-05
-0.000502428
-0.000116839
-0.00110181
-0.000226743
-0.00141972
-0.000351308
-0.00156049
-0.000481949
-0.00160274
-0.000613879
-0.00159739
-0.000744796
-0.00157291
-0.000873798
-0.00154304
-0.00100066
-0.00151341
-0.00112542
-0.00148587
-0.00124821
-0.00146078
-0.00136915
-0.00143799
-0.00148836
-0.00141725
-0.00160593
-0.00139831
-0.0017219
-0.00138096
-0.00183634
-0.00136502
-0.00194927
-0.00135038
-0.00206073
-0.0013369
-0.00217073
-0.00132437
-0.0013128
-0.00227927
-3.75609e-05
-0.000464867
-0.000123732
-0.00101564
-0.000238249
-0.0013052
-0.000366989
-0.00143175
-0.000501255
-0.00146847
-0.000636357
-0.00146229
-0.000770127
-0.00143914
-0.000901764
-0.0014114
-0.0010311
-0.00138407
-0.00115823
-0.00135875
-0.00128328
-0.00133573
-0.00140641
-0.00131486
-0.00152774
-0.00129591
-0.00164739
-0.00127866
-0.00176545
-0.00126291
-0.00188197
-0.0012485
-0.00199703
-0.00123532
-0.00211068
-0.00122324
-0.00222298
-0.00121208
-0.00120185
-0.00233393
-3.98509e-05
-0.000425016
-0.000130015
-0.000925477
-0.000248708
-0.00118651
-0.000381221
-0.00129924
-0.000518766
-0.00133092
-0.000656748
-0.0013243
-0.000793122
-0.00130277
-0.000927178
-0.00127735
-0.00105881
-0.00125244
-0.00118812
-0.00122944
-0.00131528
-0.00120856
-0.00144047
-0.00118968
-0.00156382
-0.00117256
-0.00168547
-0.00115701
-0.00180551
-0.00114286
-0.00192405
-0.00112997
-0.00204116
-0.00111821
-0.00215692
-0.00110748
-0.0022714
-0.00109759
-0.00108861
-0.00238465
-4.19252e-05
-0.000383091
-0.000135683
-0.00083172
-0.000258122
-0.00106407
-0.000394016
-0.00116334
-0.000534503
-0.00119044
-0.000675078
-0.00118373
-0.000813807
-0.00116404
-0.00095006
-0.00114109
-0.00108378
-0.00111872
-0.0012151
-0.00109812
-0.00134422
-0.00107945
-0.00147131
-0.00106258
-0.00159655
-0.00104733
-0.00172006
-0.0010335
-0.00184198
-0.00102095
-0.0019624
-0.00100954
-0.00208144
-0.000999175
-0.00219919
-0.000989735
-0.00231571
-0.000981072
-0.000973249
-0.00243107
-4.37799e-05
-0.000339311
-0.000140734
-0.000734766
-0.000266493
-0.000938311
-0.000405382
-0.00102445
-0.000548478
-0.00104734
-0.000691361
-0.00104084
-0.000832195
-0.0010232
-0.000970421
-0.00100287
-0.00110602
-0.000983123
-0.00123916
-0.000964974
-0.00137005
-0.000948555
-0.00149889
-0.000933745
-0.00162584
-0.000920371
-0.00175107
-0.000908271
-0.00187471
-0.000897307
-0.00199688
-0.000887369
-0.0021177
-0.000878363
-0.00223725
-0.000870179
-0.00235563
-0.000862689
-0.000855965
-0.00247292
-4.54114e-05
-0.0002939
-0.000145163
-0.000635014
-0.000273823
-0.000809651
-0.000415325
-0.000882953
-0.0005607
-0.000901966
-0.000705607
-0.000895938
-0.000848292
-0.000880519
-0.00098826
-0.000862899
-0.00112553
-0.000845854
-0.00126029
-0.000830214
-0.00139276
-0.000816084
-0.00152315
-0.000803353
-0.00165165
-0.000791872
-0.00177842
-0.0007815
-0.00190361
-0.000772119
-0.00202735
-0.000763633
-0.00214975
-0.000755959
-0.00227093
-0.000748998
-0.00239098
-0.000742642
-0.000736966
-0.00250997
-4.68166e-05
-0.000247083
-0.000148969
-0.000532862
-0.000280111
-0.000678509
-0.000423847
-0.000739216
-0.000571176
-0.000754638
-0.000717819
-0.000749295
-0.0008621
-0.000736238
-0.00100357
-0.000721425
-0.00114229
-0.000707138
-0.00127845
-0.000694049
-0.0014123
-0.000682235
-0.00154405
-0.000671602
-0.0016739
-0.000662024
-0.00180202
-0.000653381
-0.00192857
-0.000645576
-0.00205367
-0.000638526
-0.00217747
-0.000632162
-0.00230007
-0.000626399
-0.00242156
-0.000621147
-0.000616477
-0.00254205
-4.79925e-05
-0.000199091
-0.000152147
-0.000428707
-0.000285355
-0.000545301
-0.000430951
-0.00059362
-0.000579907
-0.000605682
-0.000728001
-0.000601201
-0.000873617
-0.000590622
-0.00101635
-0.000578689
-0.00115629
-0.000567206
-0.00129364
-0.000556698
-0.00142865
-0.000547223
-0.00156155
-0.000538702
-0.00169254
-0.000531032
-0.0018218
-0.000524119
-0.00194949
-0.000517883
-0.00207576
-0.000512258
-0.00220074
-0.000507186
-0.00232454
-0.0005026
-0.00244726
-0.000498427
-0.000494731
-0.002569
-4.89366e-05
-0.000150154
-0.000154694
-0.00032295
-0.000289554
-0.000410441
-0.000436636
-0.000446538
-0.000586893
-0.000455424
-0.00073615
-0.000451944
-0.000882839
-0.000443933
-0.00102659
-0.000434935
-0.00116751
-0.000426292
-0.00130581
-0.000418391
-0.00144177
-0.000411271
-0.0015756
-0.000404872
-0.00170751
-0.000399115
-0.0018377
-0.000393931
-0.00196633
-0.000389258
-0.00209354
-0.000385048
-0.00221947
-0.000381256
-0.00234424
-0.00037783
-0.00246795
-0.000374717
-0.000371968
-0.00259071
-4.96467e-05
-0.000100508
-0.000156607
-0.00021599
-0.000292705
-0.000274343
-0.000440901
-0.000298342
-0.000592135
-0.000304191
-0.000742265
-0.000301814
-0.000889761
-0.000296437
-0.00103428
-0.000290415
-0.00117593
-0.000284639
-0.00131496
-0.000279361
-0.00145163
-0.000274608
-0.00158616
-0.000270337
-0.00171878
-0.000266498
-0.00184967
-0.000263041
-0.001979
-0.000259928
-0.00210692
-0.000257125
-0.00223358
-0.000254602
-0.00235908
-0.000252325
-0.00248354
-0.000250257
-0.000248436
-0.00260707
-5.0121e-05
-5.03865e-05
-0.000157883
-0.000108228
-0.000294807
-0.00013742
-0.000443746
-0.000149403
-0.00059563
-0.000152306
-0.000746343
-0.000151101
-0.000894379
-0.000148401
-0.00103941
-0.000145383
-0.00118156
-0.000142489
-0.00132108
-0.000139847
-0.00145822
-0.000137467
-0.00159322
-0.00013533
-0.00172631
-0.000133409
-0.00185767
-0.000131681
-0.00198748
-0.000130124
-0.00211588
-0.000128723
-0.00224302
-0.000127463
-0.00236901
-0.000126326
-0.00249398
-0.000125294
-0.000124387
-0.00261803
-5.03584e-05
-2.81054e-08
-0.000158522
-6.37157e-08
-0.000295858
-8.36034e-08
-0.000445168
-9.29274e-08
-0.000597379
-9.60589e-08
-0.000748383
-9.60584e-08
-0.000896689
-9.47332e-08
-0.00104198
-9.29887e-08
-0.00118438
-9.12052e-08
-0.00132413
-8.95103e-08
-0.00146151
-8.79302e-08
-0.00159676
-8.64584e-08
-0.00173008
-8.50807e-08
-0.00186168
-8.37834e-08
-0.00199172
-8.25543e-08
-0.00212036
-8.13834e-08
-0.00224775
-8.0262e-08
-0.00237399
-7.91826e-08
-0.00249921
-7.81396e-08
-7.71305e-08
-0.00262352
-5.03586e-05
5.03305e-05
-0.000158523
0.0001081
-0.000295859
0.000137253
-0.000445169
0.000149217
-0.00059738
0.000152114
-0.000748385
0.000150909
-0.000896691
0.000148211
-0.00104198
0.000145197
-0.00118438
0.000142307
-0.00132414
0.000139668
-0.00146152
0.000137292
-0.00159676
0.000135157
-0.00173008
0.000133239
-0.00186168
0.000131513
-0.00199172
0.000129959
-0.00212037
0.000128561
-0.00224775
0.000127303
-0.002374
0.000126168
-0.00249921
0.000125138
0.000124233
-0.00262352
-5.01215e-05
0.000100452
-0.000157885
0.000215864
-0.000294809
0.000274177
-0.000443749
0.000298157
-0.000595634
0.000304
-0.000746348
0.000301623
-0.000894384
0.000296248
-0.00103942
0.00029023
-0.00118157
0.000284457
-0.00132108
0.000279183
-0.00145822
0.000274432
-0.00159323
0.000270165
-0.00172632
0.000266328
-0.00185768
0.000262874
-0.00198748
0.000259763
-0.00211588
0.000256962
-0.00224302
0.000254442
-0.00236902
0.000252167
-0.00249399
0.000250101
0.000248282
-0.00261804
-4.96475e-05
0.0001501
-0.000156609
0.000322825
-0.000292709
0.000410277
-0.000440906
0.000446355
-0.000592141
0.000455234
-0.000742272
0.000451754
-0.000889769
0.000443745
-0.00103429
0.000434751
-0.00117594
0.000426111
-0.00131498
0.000418213
-0.00145164
0.000411096
-0.00158617
0.0004047
-0.00171879
0.000398946
-0.00184968
0.000393764
-0.00197901
0.000389094
-0.00210694
0.000384886
-0.00223359
0.000381096
-0.0023591
0.000377672
-0.00248356
0.000374561
0.000371814
-0.00260709
-4.89378e-05
0.000199037
-0.000154697
0.000428584
-0.000289559
0.000545139
-0.000436643
0.000593439
-0.000586902
0.000605493
-0.00073616
0.000601012
-0.000882851
0.000590435
-0.00102661
0.000578505
-0.00116752
0.000567026
-0.00130583
0.000556521
-0.00144178
0.000547049
-0.00157561
0.000538531
-0.00170753
0.000530864
-0.00183772
0.000523953
-0.00196634
0.000517719
-0.00209355
0.000512096
-0.00221949
0.000507027
-0.00234426
0.000502443
-0.00246797
0.000498272
0.000494578
-0.00259073
-4.79941e-05
0.000247031
-0.000152151
0.000532741
-0.000285362
0.00067835
-0.00043096
0.000739037
-0.000579918
0.000754451
-0.000728014
0.000749108
-0.000873632
0.000736053
-0.00101637
0.000721243
-0.0011563
0.00070696
-0.00129366
0.000693873
-0.00142867
0.000682062
-0.00156157
0.000671432
-0.00169256
0.000661856
-0.00182182
0.000653216
-0.00194952
0.000645413
-0.00207579
0.000638365
-0.00220076
0.000632003
-0.00232456
0.000626243
-0.00244728
0.000620992
0.000616325
-0.00256903
-4.68185e-05
0.00029385
-0.000148974
0.000634897
-0.000280119
0.000809495
-0.000423859
0.000882776
-0.00057119
0.000901782
-0.000717836
0.000895753
-0.000862118
0.000880336
-0.00100359
0.000862718
-0.00114231
0.000845677
-0.00127848
0.00083004
-0.00141233
0.000815913
-0.00154408
0.000803185
-0.00167393
0.000791706
-0.00180205
0.000781337
-0.00192859
0.000771958
-0.0020537
0.000763473
-0.0021775
0.000755801
-0.0023001
0.000748843
-0.0024216
0.000742489
0.000736814
-0.00254209
-4.54137e-05
0.000339264
-0.00014517
0.000734653
-0.000273833
0.000938159
-0.000415338
0.00102428
-0.000560717
0.00104716
-0.000705626
0.00104066
-0.000848313
0.00102302
-0.000988283
0.00100269
-0.00112555
0.000982948
-0.00126032
0.000964801
-0.00139279
0.000948386
-0.00152318
0.000933578
-0.00165168
0.000920207
-0.00177846
0.000908108
-0.00190364
0.000897147
-0.00202738
0.000887211
-0.00214979
0.000878206
-0.00227097
0.000870024
-0.00239102
0.000862536
0.000855814
-0.00251001
-4.37825e-05
0.000383046
-0.000140741
0.000831611
-0.000266505
0.00106392
-0.000405398
0.00116317
-0.000548497
0.00119026
-0.000691383
0.00118355
-0.00083222
0.00116386
-0.000970448
0.00114092
-0.00110605
0.00111855
-0.00123919
0.00109795
-0.00137009
0.00107928
-0.00149892
0.00106242
-0.00162588
0.00104716
-0.00175111
0.00103334
-0.00187475
0.00102079
-0.00199692
0.00100938
-0.00211774
0.00099902
-0.0022373
0.000989582
-0.00235568
0.00098092
0.000973099
-0.00247296
-4.19281e-05
0.000424974
-0.000135691
0.000925374
-0.000258135
0.00118637
-0.000394034
0.00129907
-0.000534525
0.00133075
-0.000675104
0.00132413
-0.000813836
0.00130259
-0.000950092
0.00127717
-0.00108381
0.00125227
-0.00121514
0.00122927
-0.00134426
0.0012084
-0.00147135
0.00118951
-0.00159659
0.0011724
-0.0017201
0.00115686
-0.00184202
0.00114271
-0.00196245
0.00112981
-0.00208149
0.00111806
-0.00219924
0.00110733
-0.00231576
0.00109744
0.00108846
-0.00243112
-3.98542e-05
0.000464828
-0.000130024
0.00101554
-0.000248723
0.00130507
-0.000381242
0.00143159
-0.000518791
0.0014683
-0.000656777
0.00146211
-0.000793155
0.00143897
-0.000927214
0.00141123
-0.00105884
0.0013839
-0.00118816
0.00135859
-0.00131533
0.00133557
-0.00144052
0.0013147
-0.00156387
0.00129576
-0.00168552
0.0012785
-0.00180557
0.00126275
-0.0019241
0.00124835
-0.00204121
0.00123517
-0.00215698
0.00122309
-0.00227146
0.00121193
0.0012017
-0.0023847
-3.75645e-05
0.000502393
-0.000123742
0.00110172
-0.000238266
0.00141959
-0.000367012
0.00156034
-0.000501283
0.00160257
-0.000636389
0.00159722
-0.000770163
0.00157274
-0.000901804
0.00154287
-0.00103115
0.00151324
-0.00115827
0.00148571
-0.00128333
0.00146062
-0.00140646
0.00143783
-0.0015278
0.00141709
-0.00164745
0.00139816
-0.0017655
0.0013808
-0.00188203
0.00136487
-0.00199709
0.00135023
-0.00211074
0.00133675
-0.00222304
0.00132422
0.00131266
-0.002334
-3.50632e-05
0.000537456
-0.00011685
0.00118351
-0.000226761
0.0015295
-0.000351333
0.00168491
-0.00048198
0.00173322
-0.000613915
0.00172915
-0.000744836
0.00170366
-0.000873842
0.00167188
-0.00100071
0.00164011
-0.00112547
0.00161048
-0.00124826
0.00158341
-0.00136921
0.00155878
-0.00148842
0.00153631
-0.00160599
0.00151572
-0.00172197
0.00149678
-0.0018364
0.00147931
-0.00194934
0.00146316
-0.0020608
0.00144821
-0.00217081
0.00143423
0.00142119
-0.00227935
-3.2355e-05
0.000569811
-0.00010935
0.0012605
-0.000214204
0.00163436
-0.000334188
0.00180489
-0.000460858
0.00185989
-0.000589323
0.00185762
-0.000717139
0.00183148
-0.000843294
0.00179803
-0.000967491
0.00176431
-0.00108974
0.00173272
-0.00121013
0.0017038
-0.00132878
0.00167743
-0.00144579
0.00165331
-0.00156121
0.00163114
-0.00167508
0.00161065
-0.00178741
0.00159164
-0.0018982
0.00157396
-0.00200745
0.00155746
-0.00211513
0.00154192
0.00152724
-0.00222118
-2.94454e-05
0.000599257
-0.000101247
0.0013323
-0.000200589
0.0017337
-0.00031556
0.00191987
-0.000437884
0.00198221
-0.000562571
0.00198231
-0.000687023
0.00195593
-0.000810105
0.00192112
-0.000931446
0.00188565
-0.00105101
0.00185229
-0.00116888
0.00182167
-0.00128515
0.0017937
-0.00139989
0.00176805
-0.00151315
0.0017444
-0.00162493
0.00172243
-0.00173521
0.00170193
-0.00184395
0.00168269
-0.00195107
0.00166458
-0.00205649
0.00164733
0.0016308
-0.00216005
-2.63412e-05
0.000625598
-9.25471e-05
0.00139851
-0.000185912
0.00182706
-0.000295428
0.00202938
-0.000413022
0.00209981
-0.000533608
0.00210289
-0.000654423
0.00207675
-0.000774202
0.00204089
-0.000892493
0.00200394
-0.00100922
0.00196901
-0.00112444
0.00193689
-0.00123824
0.0019075
-0.00135068
0.0018805
-0.0014618
0.00185551
-0.00157158
0.00183221
-0.00167995
0.0018103
-0.00178683
0.00178957
-0.00189205
0.0017698
-0.00199542
0.00175071
0.00173205
-0.00209667
-2.30508e-05
0.000648649
-8.32596e-05
0.00145872
-0.000170172
0.00191397
-0.000273772
0.00213298
-0.000386233
0.00221227
-0.000502375
0.00221903
-0.000619265
0.00219364
-0.000735494
0.00215712
-0.00085052
0.00211896
-0.000964226
0.00208272
-0.00107666
0.00204932
-0.00118789
0.00201874
-0.00129801
0.00199061
-0.00140703
0.00196454
-0.00151494
0.00194012
-0.00162166
0.00191703
-0.00172706
0.00189496
-0.00183088
0.00187363
-0.00193273
0.00185256
0.00183134
-0.00203203
-1.95852e-05
0.000668234
-7.33988e-05
0.00151253
-0.000153372
0.00199395
-0.000250577
0.00223019
-0.000357475
0.00231917
-0.000468809
0.00233037
-0.000581461
0.00230629
-0.000693865
0.00226953
-0.000805384
0.00223048
-0.000915856
0.00219319
-0.00102532
0.00215878
-0.00113386
0.00212728
-0.00124158
0.00209833
-0.00134854
0.0020715
-0.00145474
0.00204633
-0.00156011
0.0020224
-0.00166451
0.00199936
-0.00176766
0.00197677
-0.0018689
0.0019538
0.00192961
-0.00196716
-1.59583e-05
0.000684192
-6.29856e-05
0.00155956
-0.000135524
0.00206649
-0.000225833
0.0023205
-0.000326717
0.00242005
-0.000432849
0.0024365
-0.000540923
0.00241436
-0.000649201
0.00237781
-0.000756941
0.00233822
-0.000863932
0.00230018
-0.000970206
0.00226506
-0.00107589
0.00223296
-0.00118112
0.00220356
-0.00128603
0.00217641
-0.00139071
0.002151
-0.00149516
0.00212685
-0.00159938
0.00210357
-0.00170329
0.00208068
-0.00180621
0.00205672
0.00202821
-0.00190481
-1.2188e-05
0.00069638
-5.20501e-05
0.00159942
-0.000116653
0.00213109
-0.000199548
0.00240339
-0.000293937
0.00251444
-0.000394446
0.00253701
-0.000497567
0.00251749
-0.000601374
0.00248161
-0.000704994
0.00244184
-0.000808151
0.00240334
-0.000910857
0.00236776
-0.00101325
0.00233535
-0.00111551
0.00230582
-0.00121785
0.00227876
-0.00132052
0.00225367
-0.00142371
0.00223005
-0.0015275
0.00220735
-0.0016321
0.00218528
-0.00173821
0.00216283
0.002133
-0.001843
-8.29625e-06
0.000704676
-4.06337e-05
0.00163176
-9.68016e-05
0.00218726
-0.000171745
0.00247833
-0.000259135
0.00260183
-0.000353571
0.00263144
-0.000451339
0.00261525
-0.0005503
0.00258057
-0.000649436
0.00254098
-0.000748394
0.0025023
-0.000847181
0.00246655
-0.00094599
0.00243416
-0.00104514
0.00240498
-0.00114509
0.0023787
-0.00124646
0.00235504
-0.00135006
0.00233365
-0.00145678
0.00231407
-0.00156701
0.00229551
-0.00168169
0.00227752
0.00227139
-0.00182008
-4.32176e-06
0.000708998
-2.881e-05
0.00165625
-7.60522e-05
0.0022345
-0.000142497
0.00254478
-0.000222364
0.0026817
-0.000310252
0.00271933
-0.000402239
0.00270724
-0.00049595
0.00267428
-0.000590186
0.00263522
-0.000684481
0.00259659
-0.000778773
0.00256084
-0.000873208
0.0025286
-0.000968033
0.0024998
-0.00106354
0.00247421