/*--------------------------------*- C++ -*----------------------------------*\
  =========                 |
  \\      /  F ield         | OpenFOAM: The Open Source CFD Toolbox
   \\    /   O peration     | Website:  https://openfoam.org
    \\  /    A nd           | Version:  6.0
     \\/     M anipulation  |
\*---------------------------------------------------------------------------*/
FoamFile
{
    version     2.0;
    format      ascii;
    class       volScalarField;
    location    "44";
    object      p;
}
// * * * * * * * * * * * * * * * * * * * * * * * * * * * * * * * * * * * * * //

dimensions      [0 2 -2 0 0 0 0];

internalField   nonuniform List<scalar> 
8000
(
-0.243306
-0.244192
-0.244777
-0.245203
-0.245558
-0.245854
-0.246104
-0.24632
-0.24651
-0.24668
-0.246836
-0.246982
-0.247122
-0.24726
-0.247401
-0.247554
-0.24772
-0.247849
-0.247915
-0.248446
-0.243456
-0.244335
-0.244915
-0.245335
-0.245684
-0.245973
-0.246217
-0.246425
-0.246608
-0.246772
-0.246921
-0.24706
-0.247194
-0.247326
-0.247463
-0.247612
-0.247775
-0.247903
-0.247968
-0.2485
-0.243701
-0.244573
-0.245145
-0.245556
-0.245893
-0.246171
-0.246401
-0.246597
-0.246766
-0.246915
-0.247049
-0.247174
-0.247294
-0.247413
-0.247537
-0.247674
-0.247828
-0.247948
-0.248005
-0.248534
-0.244042
-0.244906
-0.245468
-0.245866
-0.246187
-0.246447
-0.246658
-0.246833
-0.246981
-0.247108
-0.24722
-0.247322
-0.247419
-0.247515
-0.247617
-0.247734
-0.247871
-0.247975
-0.248016
-0.248537
-0.244478
-0.245334
-0.245883
-0.246264
-0.246565
-0.246801
-0.246986
-0.247133
-0.247251
-0.247348
-0.247428
-0.247498
-0.247562
-0.247626
-0.247696
-0.247783
-0.247892
-0.247972
-0.247988
-0.248497
-0.245011
-0.245859
-0.246394
-0.246754
-0.247028
-0.247234
-0.247386
-0.247497
-0.247577
-0.247633
-0.247672
-0.247698
-0.247719
-0.247738
-0.247764
-0.247809
-0.24788
-0.247925
-0.247906
-0.248396
-0.245646
-0.246485
-0.247001
-0.247335
-0.247578
-0.247746
-0.247857
-0.247924
-0.247957
-0.247963
-0.247949
-0.247921
-0.247884
-0.247846
-0.247814
-0.247802
-0.247821
-0.247818
-0.24775
-0.248216
-0.246387
-0.247215
-0.247709
-0.248012
-0.248216
-0.248341
-0.248403
-0.248417
-0.248393
-0.24834
-0.248262
-0.248166
-0.248058
-0.247946
-0.247839
-0.247754
-0.247703
-0.247635
-0.247504
-0.247937
-0.247242
-0.248054
-0.248522
-0.248788
-0.248947
-0.24902
-0.249026
-0.248979
-0.24889
-0.248766
-0.248612
-0.248435
-0.248241
-0.248039
-0.247838
-0.247659
-0.247516
-0.247362
-0.247146
-0.247537
-0.248217
-0.249011
-0.249445
-0.249667
-0.249774
-0.249789
-0.24973
-0.249615
-0.249452
-0.249248
-0.249008
-0.248737
-0.248442
-0.24813
-0.247813
-0.247515
-0.247255
-0.246985
-0.246658
-0.24699
-0.249324
-0.250091
-0.250485
-0.250655
-0.250702
-0.250651
-0.250522
-0.250331
-0.250087
-0.249795
-0.24946
-0.249084
-0.248672
-0.248231
-0.247776
-0.24733
-0.246919
-0.246498
-0.246021
-0.246272
-0.250573
-0.251303
-0.251648
-0.251758
-0.251737
-0.251612
-0.251405
-0.251132
-0.250802
-0.250417
-0.24998
-0.249489
-0.248948
-0.248363
-0.247744
-0.24712
-0.246519
-0.245899
-0.245218
-0.245352
-0.251977
-0.252657
-0.252941
-0.252981
-0.252881
-0.252675
-0.252384
-0.252025
-0.251604
-0.251123
-0.25058
-0.24997
-0.249292
-0.248547
-0.247743
-0.246907
-0.246072
-0.245194
-0.244236
-0.244196
-0.253546
-0.254161
-0.254371
-0.254328
-0.25414
-0.253843
-0.253461
-0.25301
-0.252496
-0.251918
-0.251268
-0.250538
-0.24972
-0.248807
-0.247802
-0.246725
-0.245608
-0.244403
-0.243068
-0.242764
-0.255294
-0.255826
-0.255947
-0.255806
-0.255516
-0.255116
-0.254633
-0.254085
-0.253475
-0.252798
-0.252044
-0.251198
-0.250242
-0.24916
-0.247943
-0.246602
-0.245161
-0.243552
-0.241714
-0.24101
-0.257234
-0.257662
-0.257674
-0.257419
-0.25701
-0.256493
-0.255898
-0.255243
-0.25453
-0.253754
-0.252897
-0.251939
-0.250852
-0.249608
-0.248182
-0.246567
-0.244769
-0.242689
-0.240205
-0.23891
-0.259378
-0.259682
-0.259565
-0.259174
-0.258625
-0.257972
-0.257248
-0.256472
-0.255648
-0.254766
-0.253806
-0.252739
-0.251531
-0.25014
-0.248521
-0.246644
-0.244489
-0.241912
-0.238668
-0.236528
-0.261746
-0.2619
-0.261629
-0.261078
-0.260366
-0.259553
-0.258679
-0.257764
-0.256813
-0.255814
-0.254746
-0.253574
-0.252257
-0.25074
-0.248958
-0.246851
-0.244366
-0.241298
-0.237184
-0.233797
-0.264357
-0.264336
-0.263884
-0.263145
-0.262241
-0.261242
-0.260192
-0.259115
-0.258018
-0.256889
-0.255707
-0.254439
-0.253037
-0.251442
-0.24957
-0.247323
-0.244581
-0.240993
-0.235685
-0.230259
-0.26724
-0.267015
-0.266352
-0.265394
-0.264267
-0.263051
-0.261798
-0.260535
-0.259271
-0.258001
-0.256709
-0.255368
-0.25395
-0.252414
-0.250711
-0.248776
-0.246494
-0.243405
-0.238277
-0.232272
-0.270428
-0.269966
-0.269059
-0.26785
-0.266469
-0.265006
-0.263522
-0.262049
-0.260601
-0.259181
-0.257783
-0.256404
-0.255048
-0.253742
-0.252555
-0.251639
-0.25128
-0.251937
-0.255279
-0.268373
-0.273966
-0.273229
-0.272043
-0.270548
-0.268881
-0.267143
-0.265403
-0.2637
-0.262054
-0.260477
-0.258975
-0.257568
-0.25629
-0.255218
-0.254487
-0.254339
-0.255167
-0.257554
-0.26277
-0.275614
-0.277903
-0.276847
-0.275343
-0.273531
-0.271548
-0.269511
-0.267496
-0.265548
-0.263696
-0.261958
-0.260355
-0.258922
-0.257718
-0.256845
-0.256464
-0.256821
-0.258267
-0.261254
-0.266421
-0.276468
-0.282295
-0.28087
-0.27901
-0.276848
-0.274523
-0.272166
-0.269861
-0.267661
-0.265597
-0.263697
-0.261989
-0.260519
-0.259355
-0.258605
-0.258416
-0.258993
-0.260585
-0.263467
-0.267914
-0.275177
-0.287202
-0.285351
-0.283093
-0.280551
-0.277862
-0.27517
-0.272566
-0.270105
-0.267825
-0.265753
-0.263923
-0.26238
-0.26119
-0.260442
-0.260255
-0.260764
-0.262115
-0.264428
-0.267795
-0.272503
-0.292681
-0.290342
-0.287645
-0.284697
-0.281625
-0.278584
-0.275672
-0.272944
-0.270434
-0.268169
-0.266178
-0.264499
-0.263183
-0.262295
-0.26191
-0.262105
-0.262941
-0.264439
-0.266617
-0.269245
-0.298788
-0.295893
-0.292718
-0.289339
-0.285867
-0.282467
-0.279236
-0.276224
-0.273459
-0.27096
-0.268745
-0.266839
-0.265273
-0.264087
-0.263319
-0.263001
-0.263143
-0.263718
-0.264717
-0.265714
-0.305568
-0.30205
-0.298357
-0.294526
-0.290641
-0.286868
-0.2833
-0.279976
-0.276912
-0.274112
-0.271582
-0.269331
-0.267375
-0.26573
-0.264414
-0.263432
-0.262773
-0.262401
-0.262297
-0.262042
-0.313057
-0.308847
-0.304603
-0.300302
-0.295988
-0.291824
-0.287889
-0.284206
-0.280772
-0.277578
-0.274615
-0.271882
-0.269383
-0.267128
-0.265122
-0.263367
-0.26185
-0.260545
-0.259431
-0.258182
-0.321273
-0.316308
-0.311484
-0.306697
-0.301936
-0.297352
-0.293004
-0.28889
-0.284988
-0.281276
-0.277739
-0.274372
-0.271182
-0.268178
-0.265372
-0.26277
-0.26037
-0.258162
-0.256125
-0.254043
-0.330216
-0.324442
-0.319013
-0.313726
-0.308495
-0.303446
-0.298613
-0.293966
-0.289469
-0.285092
-0.280825
-0.276671
-0.272649
-0.268783
-0.265095
-0.261605
-0.25832
-0.255244
-0.252357
-0.249529
-0.339865
-0.333237
-0.327187
-0.321383
-0.315646
-0.310067
-0.304649
-0.299338
-0.294089
-0.288883
-0.283725
-0.27864
-0.27367
-0.268856
-0.264237
-0.259841
-0.255686
-0.251782
-0.248103
-0.244581
-0.350168
-0.342655
-0.335974
-0.329633
-0.323338
-0.317138
-0.311002
-0.304866
-0.298692
-0.292485
-0.286283
-0.280145
-0.274138
-0.268324
-0.262753
-0.257459
-0.252462
-0.247771
-0.243349
-0.239171
-0.361044
-0.352631
-0.345313
-0.338408
-0.331481
-0.324536
-0.317523
-0.310378
-0.303095
-0.295724
-0.288347
-0.281062
-0.273963
-0.267127
-0.260609
-0.254442
-0.248642
-0.243209
-0.238094
-0.233296
-0.372375
-0.363065
-0.355109
-0.347596
-0.339938
-0.332098
-0.324019
-0.31567
-0.307101
-0.298421
-0.289769
-0.281279
-0.273066
-0.265214
-0.257776
-0.250777
-0.244221
-0.238096
-0.232335
-0.226961
-0.384008
-0.37382
-0.365224
-0.357042
-0.348528
-0.339613
-0.330267
-0.320521
-0.310506
-0.300406
-0.290414
-0.280696
-0.271379
-0.262542
-0.254229
-0.246449
-0.23919
-0.232427
-0.226071
-0.22017
-0.395744
-0.384719
-0.375476
-0.366547
-0.357022
-0.346835
-0.336017
-0.324699
-0.313111
-0.301517
-0.29016
-0.279226
-0.26884
-0.25907
-0.249938
-0.241436
-0.233534
-0.22619
-0.219292
-0.212921
-0.40735
-0.395541
-0.385641
-0.375862
-0.365154
-0.353487
-0.341006
-0.32797
-0.314722
-0.301605
-0.288896
-0.276788
-0.265392
-0.254753
-0.24487
-0.23571
-0.22723
-0.219365
-0.211982
-0.205203
-0.418551
-0.406027
-0.395449
-0.384699
-0.372621
-0.359277
-0.344967
-0.330109
-0.315163
-0.300535
-0.286522
-0.273307
-0.260976
-0.249545
-0.238985
-0.22924
-0.220247
-0.211925
-0.204117
-0.196996
-0.429038
-0.415881
-0.404595
-0.392738
-0.379102
-0.363902
-0.34764
-0.330906
-0.314269
-0.298183
-0.282945
-0.268712
-0.255535
-0.243398
-0.232241
-0.221985
-0.212551
-0.203837
-0.195668
-0.188273
-0.438475
-0.424775
-0.412742
-0.399633
-0.384264
-0.367065
-0.348778
-0.330166
-0.311895
-0.29444
-0.278079
-0.262933
-0.249011
-0.236261
-0.224592
-0.213906
-0.204104
-0.195068
-0.186603
-0.179005
-0.446505
-0.432358
-0.419532
-0.405029
-0.387776
-0.368484
-0.348154
-0.327718
-0.30791
-0.289205
-0.271846
-0.255905
-0.241347
-0.228082
-0.215993
-0.204958
-0.194868
-0.18558
-0.176888
-0.16916
-0.452761
-0.438266
-0.424596
-0.408571
-0.389323
-0.367898
-0.345568
-0.32341
-0.3022
-0.28239
-0.264172
-0.247565
-0.232488
-0.218813
-0.206398
-0.195103
-0.184804
-0.17534
-0.166492
-0.158708
-0.456875
-0.442131
-0.427571
-0.409918
-0.388613
-0.365078
-0.340845
-0.317113
-0.294668
-0.273917
-0.254993
-0.237857
-0.222382
-0.208408
-0.195766
-0.184303
-0.17388
-0.164317
-0.155389
-0.147624
-0.45849
-0.443596
-0.428107
-0.408756
-0.385388
-0.359824
-0.33384
-0.308719
-0.28523
-0.26372
-0.244252
-0.226731
-0.210986
-0.196826
-0.184062
-0.172525
-0.162066
-0.152486
-0.143555
-0.135887
-0.457272
-0.442325
-0.425883
-0.404805
-0.379428
-0.351977
-0.324439
-0.298146
-0.273823
-0.251744
-0.231902
-0.214145
-0.198262
-0.184036
-0.171257
-0.159746
-0.149343
-0.139829
-0.130977
-0.123483
-0.452918
-0.438013
-0.420614
-0.397829
-0.370556
-0.341413
-0.312557
-0.285332
-0.260399
-0.237951
-0.217908
-0.200067
-0.184183
-0.170012
-0.15733
-0.145948
-0.135694
-0.126335
-0.117645
-0.110405
-0.445167
-0.430397
-0.412062
-0.387643
-0.358644
-0.328048
-0.298139
-0.270239
-0.244928
-0.222313
-0.202247
-0.184478
-0.16873
-0.154739
-0.142269
-0.131121
-0.121115
-0.112001
-0.103562
-0.0966531
-0.433809
-0.419264
-0.400046
-0.374114
-0.343607
-0.311836
-0.28116
-0.252852
-0.227399
-0.204821
-0.184909
-0.167368
-0.151896
-0.138213
-0.126071
-0.115266
-0.105609
-0.0968339
-0.0887357
-0.082237
-0.418687
-0.40446
-0.38444
-0.357165
-0.325414
-0.29277
-0.261627
-0.233181
-0.20782
-0.185482
-0.165898
-0.148741
-0.133685
-0.120437
-0.108742
-0.0983907
-0.0891865
-0.0808502
-0.0731885
-0.0671801
-0.399709
-0.385889
-0.365181
-0.336775
-0.304075
-0.27088
-0.239575
-0.211259
-0.18622
-0.164317
-0.145234
-0.128612
-0.11411
-0.101424
-0.0902958
-0.0805112
-0.0718671
-0.0640736
-0.0569509
-0.0515204
-0.376842
-0.363524
-0.342268
-0.31298
-0.279649
-0.246234
-0.215068
-0.187144
-0.162647
-0.141369
-0.12295
-0.107009
-0.093194
-0.0811953
-0.070751
-0.0616457
-0.0536709
-0.0465299
-0.0400577
-0.0352999
-0.350122
-0.337399
-0.315762
-0.285867
-0.25224
-0.218934
-0.188201
-0.160916
-0.137171
-0.116694
-0.0990927
-0.0839708
-0.0709689
-0.0597758
-0.0501295
-0.0418142
-0.0346178
-0.0282435
-0.0225402
-0.0185425
-0.319647
-0.307613
-0.285784
-0.255577
-0.221991
-0.189117
-0.159097
-0.132685
-0.109883
-0.0903688
-0.0737255
-0.059547
-0.0474731
-0.0371949
-0.0284534
-0.0210344
-0.0147264
-0.00923851
-0.00442227
-0.00124092
-0.285579
-0.274327
-0.252511
-0.222298
-0.189088
-0.156955
-0.127908
-0.102582
-0.0808979
-0.0624906
-0.0469272
-0.0337994
-0.0227515
-0.0134819
-0.00573922
0.000684587
0.00599464
0.0104723
0.0142869
0.0166054
-0.248137
-0.23776
-0.216171
-0.18626
-0.153752
-0.122649
-0.0948165
-0.0707682
-0.0503549
-0.0331782
-0.0187967
-0.00680583
0.00314005
0.0113292
0.0179986
0.0233444
0.0275596
0.0309092
0.0335844
0.0348756
-0.207594
-0.198184
-0.177041
-0.147736
-0.116239
-0.0864352
-0.0600319
-0.0374305
-0.018419
-0.00257459
0.0105462
0.0213381
0.0301305
0.0371909
0.0427339
0.0469398
0.0499855
0.0520821
0.0533583
0.0531881
-0.164274
-0.155915
-0.135438
-0.107033
-0.0768346
-0.0485741
-0.0237927
-0.00278418
0.0147175
0.0291528
0.0409623
0.0505263
0.0581514
0.0640732
0.0684731
0.0715099
0.073321
0.0739471
0.0732929
0.0711009
-0.118539
-0.111313
-0.0917135
-0.0644872
-0.035853
-0.00935504
0.0136352
0.0329253
0.0488292
0.0618018
0.0722806
0.0806336
0.0871454
0.0920181
0.0953962
0.0974076
0.0980777
0.0970601
0.0939074
0.0896211
-0.0707876
-0.064767
-0.046249
-0.0204592
0.00637041
0.0309107
0.0519602
0.0694213
0.0836501
0.0951149
0.104255
0.111438
0.116944
0.120977
0.123691
0.125232
0.125506
0.123681
0.119068
0.114403
-0.0214456
-0.0166945
0.000554053
0.0246729
0.0494849
0.0718966
0.090874
0.106406
0.118883
0.128784
0.13655
0.142553
0.147089
0.150397
0.152717
0.154318
0.15518
0.154341
0.15154
0.154911
0.0290499
0.0324747
0.0482821
0.0705216
0.0931316
0.113269
0.130062
0.143575
0.154228
0.1625
0.168829
0.17358
0.177049
0.179486
0.181148
0.182293
0.182912
0.182543
0.18206
0.18756
0.0802422
0.0822956
0.0965119
0.116694
0.136949
0.154694
0.169212
0.180633
0.189397
0.195982
0.200815
0.204253
0.206587
0.208064
0.208931
0.209406
0.209474
0.208847
0.208414
0.212827
0.131671
0.13232
0.14482
0.1628
0.18058
0.195844
0.208018
0.217293
0.224117
0.228961
0.232238
0.234289
0.235392
0.235783
0.235689
0.235304
0.234626
0.233436
0.232466
0.235413
0.182877
0.182102
0.192785
0.208453
0.223675
0.236399
0.24619
0.253284
0.258137
0.261207
0.262887
0.2635
0.263306
0.262522
0.261351
0.259958
0.258327
0.256267
0.254451
0.256029
0.233406
0.2312
0.239997
0.253278
0.265894
0.276053
0.283447
0.288353
0.291225
0.292507
0.29257
0.291717
0.290188
0.28818
0.285874
0.283408
0.280753
0.277736
0.275
0.275264
0.282816
0.279188
0.286056
0.296914
0.306911
0.314512
0.319525
0.32226
0.323167
0.322669
0.32112
0.318797
0.315922
0.312673
0.309208
0.305643
0.301937
0.297946
0.294285
0.293307
0.330677
0.325649
0.330578
0.339012
0.346414
0.351497
0.354172
0.354779
0.353759
0.351516
0.348381
0.34461
0.340406
0.335927
0.331314
0.326661
0.321924
0.316984
0.31242
0.310261
0.376579
0.370189
0.373195
0.379241
0.384107
0.386742
0.387152
0.385698
0.382813
0.37888
0.374206
0.36903
0.363534
0.357861
0.352133
0.346427
0.3407
0.334854
0.329426
0.326146
0.420131
0.412431
0.413562
0.417289
0.419711
0.419996
0.418239
0.414816
0.410148
0.404599
0.398456
0.391936
0.385206
0.378391
0.371598
0.364892
0.358228
0.351532
0.345286
0.340947
0.460967
0.452024
0.451353
0.452864
0.452964
0.451026
0.447223
0.441943
0.435595
0.428523
0.420995
0.413209
0.405316
0.397427
0.389634
0.381991
0.374456
0.36697
0.359957
0.354625
0.498746
0.488639
0.486268
0.485695
0.483623
0.479614
0.473908
0.466903
0.458994
0.450509
0.441694
0.432734
0.423762
0.414878
0.406161
0.397653
0.389318
0.381109
0.373385
0.367131
0.533154
0.521977
0.518029
0.515532
0.511465
0.505559
0.498113
0.489531
0.480198
0.470422
0.460434
0.450402
0.440446
0.430656
0.421097
0.411804
0.402746
0.393884
0.385511
0.378413
0.563907
0.551765
0.546387
0.542152
0.536288
0.528679
0.519672
0.509678
0.499069
0.488138
0.477099
0.466109
0.455275
0.444674
0.434364
0.424371
0.414671
0.40523
0.396275
0.388419
0.590753
0.577763
0.571122
0.565355
0.557913
0.548811
0.53844
0.527211
0.515486
0.503545
0.491589
0.479762
0.468161
0.456854
0.445888
0.435287
0.425029
0.415084
0.40562
0.397098
0.613474
0.599761
0.59204
0.584967
0.576183
0.565815
0.554286
0.542011
0.529342
0.516546
0.503813
0.491277
0.479027
0.467123
0.455604
0.444489
0.43376
0.423392
0.413494
0.404405
0.631883
0.617581
0.608978
0.600841
0.590967
0.57957
0.567102
0.553979
0.540544
0.527055
0.513693
0.500583
0.487807
0.475419
0.463453
0.451922
0.440814
0.430103
0.419853
0.410303
0.645832
0.631082
0.621807
0.61286
0.602157
0.58998
0.5768
0.563034
0.549018
0.535004
0.521166
0.507621
0.494447
0.481693
0.469387
0.457542
0.446147
0.435178
0.424659
0.414758
0.655207
0.640156
0.630427
0.620934
0.609674
0.596971
0.583313
0.569114
0.554709
0.540342
0.526183
0.512346
0.498904
0.485904
0.473371
0.461315
0.449728
0.438584
0.427885
0.417748
0.659933
0.64473
0.634772
0.625003
0.613462
0.600495
0.586595
0.572178
0.557576
0.543031
0.528711
0.514727
0.501151
0.488027
0.475379
0.463217
0.451533
0.440302
0.429512
0.419256
0.659972
0.644768
0.634809
0.625037
0.613494
0.600525
0.586623
0.572205
0.557602
0.543056
0.528735
0.51475
0.501173
0.488048
0.4754
0.463237
0.451553
0.440321
0.429531
0.419273
0.655324
0.64027
0.630537
0.621037
0.60977
0.597062
0.583399
0.569195
0.554786
0.540415
0.526253
0.512413
0.49897
0.485968
0.473432
0.461374
0.449786
0.438641
0.427941
0.417801
0.646026
0.631272
0.621989
0.613031
0.602318
0.590131
0.576943
0.563169
0.549147
0.535127
0.521283
0.507734
0.494556
0.481798
0.469489
0.457641
0.446244
0.435272
0.424751
0.414847
0.632154
0.617846
0.609232
0.60108
0.591191
0.579781
0.567301
0.554167
0.540723
0.527226
0.513857
0.500741
0.487959
0.475566
0.463595
0.45206
0.440948
0.430235
0.419981
0.410427
0.613821
0.6001
0.592364
0.585272
0.576471
0.566085
0.554541
0.542252
0.529572
0.516765
0.504024
0.491479
0.479222
0.467311
0.455786
0.444666
0.433933
0.42356
0.413659
0.404565
0.591175
0.578175
0.571516
0.565727
0.558262
0.54914
0.53875
0.527505
0.515766
0.503812
0.491845
0.480008
0.468398
0.457083
0.446111
0.435503
0.425239
0.41529
0.40582
0.397292
0.564402
0.552249
0.546851
0.542589
0.536699
0.529065
0.520037
0.510024
0.499398
0.488452
0.4774
0.466398
0.455554
0.444944
0.434625
0.424625
0.414918
0.405471
0.396511
0.388648
0.533721
0.522531
0.518559
0.516033
0.511935
0.506002
0.498531
0.489928
0.480575
0.470782
0.460779
0.450734
0.440767
0.430966
0.421397
0.412095
0.40303
0.394162
0.385782
0.378676
0.499383
0.489262
0.486864
0.486258
0.484152
0.480113
0.474379
0.467349
0.45942
0.450915
0.442084
0.433109
0.424123
0.415228
0.406499
0.397981
0.389638
0.381422
0.373691
0.367428
0.461672
0.452713
0.452013
0.453488
0.45355
0.451579
0.447745
0.442438
0.436067
0.428974
0.421427
0.413625
0.405717
0.397815
0.39001
0.382356
0.374812
0.367318
0.360297
0.354955
0.420902
0.413185
0.414284
0.417971
0.420353
0.420601
0.418811
0.415359
0.410665
0.405093
0.39893
0.392393
0.385646
0.378817
0.372011
0.365293
0.358619
0.351914
0.34566
0.34131
0.377412
0.371004
0.373976
0.37998
0.384803
0.387397
0.387772
0.386287
0.383374
0.379416
0.374721
0.369526
0.364013
0.358324
0.352582
0.346864
0.341125
0.335269
0.329833
0.326541
0.33157
0.326523
0.331416
0.339805
0.347161
0.352202
0.354839
0.355412
0.354363
0.352094
0.348935
0.345144
0.340921
0.336426
0.331798
0.327132
0.322383
0.317432
0.31286
0.310688
0.283765
0.280117
0.286948
0.297759
0.307708
0.315264
0.320237
0.322936
0.323812
0.323287
0.321713
0.319369
0.316474
0.313207
0.309727
0.306147
0.302429
0.298427
0.294756
0.293765
0.234408
0.232182
0.24094
0.254172
0.266738
0.27685
0.284201
0.28907
0.29191
0.293163
0.293201
0.292325
0.290775
0.288749
0.286427
0.283946
0.281278
0.278249
0.275503
0.275753
0.183928
0.183132
0.193776
0.209393
0.224563
0.237239
0.246985
0.254041
0.25886
0.261899
0.263553
0.264143
0.263928
0.263125
0.261937
0.260528
0.258884
0.256811
0.254985
0.256548
0.132767
0.133395
0.145854
0.163782
0.18151
0.196723
0.208852
0.218087
0.224876
0.229689
0.232939
0.234966
0.236047
0.236419
0.236307
0.235907
0.235214
0.234011
0.23303
0.235962
0.0813795
0.0834108
0.0975866
0.117716
0.137917
0.155611
0.170082
0.181463
0.19019
0.196744
0.20155
0.204963
0.207274
0.208732
0.209582
0.21004
0.210093
0.209454
0.20901
0.213407
0.0302234
0.0336259
0.0493928
0.0715796
0.0941343
0.11422
0.130965
0.144437
0.155053
0.163294
0.169595
0.174321
0.177768
0.180185
0.18183
0.182959
0.183563
0.183182
0.182688
0.188171
-0.0202408
-0.015512
0.00169641
0.0257627
0.0505191
0.0728782
0.0918082
0.107298
0.119738
0.129607
0.137346
0.143324
0.147838
0.151127
0.153429
0.155015
0.155862
0.155012
0.152202
0.155559
-0.0695566
-0.0635581
-0.0450796
-0.0193418
0.00743251
0.0319201
0.0529221
0.0703413
0.0845333
0.095966
0.105078
0.112236
0.117722
0.121735
0.124433
0.12596
0.126221
0.124386
0.119768
0.115101
-0.117287
-0.110083
-0.0905218
-0.0633464
-0.0347669
-0.00832129
0.0146216
0.03387
0.0497374
0.0626782
0.0731295
0.0814584
0.0879494
0.0928041
0.096167
0.0981655
0.098825
0.0977992
0.0946425
0.0903561
-0.163006
-0.154669
-0.134229
-0.105874
-0.0757286
-0.0475197
-0.022785
-0.00181779
0.0156479
0.030052
0.0418344
0.0513749
0.0589799
0.0648844
0.0692697
0.0722943
0.0740954
0.0747135
0.0740542
0.0718615
-0.206317
-0.196927
-0.17582
-0.146563
-0.115117
-0.085364
-0.0590066
-0.0364456
-0.0174693
-0.00165548
0.0114389
0.022208
0.0309809
0.0380245
0.0435533
0.0477474
0.0507833
0.0528717
0.0541416
0.0539687
-0.246855
-0.236499
-0.214943
-0.185077
-0.15262
-0.121565
-0.093777
-0.0697681
-0.049389
-0.0322421
-0.0178861
-0.00591727
0.00400973
0.0121827
0.0188385
0.0241728
0.0283784
0.0317199
0.0343883
0.0356754
-0.284298
-0.273067
-0.251282
-0.221111
-0.187949
-0.155862
-0.126858
-0.10157
-0.079919
-0.0615403
-0.0460015
-0.0328948
-0.0218649
-0.0126107
-0.00488108
0.00153173
0.00683258
0.0113025
0.0151104
0.0174244
-0.318374
-0.306359
-0.284559
-0.254391
-0.22085
-0.18802
-0.15804
-0.131664
-0.108894
-0.0894073
-0.0727873
-0.0586288
-0.0465719
-0.0363083
-0.0275791
-0.0201703
-0.013871
-0.00839043
-0.00358044
-0.000403234
-0.348861
-0.336157
-0.314546
-0.284687
-0.251101
-0.217836
-0.187142
-0.159891
-0.136176
-0.115724
-0.0981448
-0.0830416
-0.0700555
-0.0588759
-0.0492409
-0.040935
-0.0337465
-0.0273789
-0.0216813
-0.0176872
-0.3756
-0.3623
-0.341067
-0.311811
-0.278517
-0.24514
-0.21401
-0.186117
-0.161648
-0.140394
-0.121995
-0.106071
-0.0922706
-0.080284
-0.0698499
-0.0607531
-0.0527852
-0.04565
-0.0391827
-0.0344282
-0.39849
-0.384688
-0.364
-0.335622
-0.302955
-0.269794
-0.238522
-0.210235
-0.185221
-0.16334
-0.144275
-0.127668
-0.113179
-0.100504
-0.0893841
-0.0796067
-0.0709684
-0.0631796
-0.0560609
-0.0506329
-0.417497
-0.403286
-0.383284
-0.356033
-0.32431
-0.291696
-0.260583
-0.232163
-0.206824
-0.184504
-0.164937
-0.147793
-0.132748
-0.119509
-0.107821
-0.0974758
-0.0882762
-0.0799432
-0.0722843
-0.0662775
-0.432651
-0.418122
-0.398919
-0.373007
-0.342525
-0.310779
-0.280128
-0.251842
-0.226409
-0.203847
-0.183948
-0.166419
-0.150956
-0.137279
-0.125143
-0.114342
-0.104688
-0.0959149
-0.0878181
-0.0813197
-0.444046
-0.429291
-0.410969
-0.386566
-0.357586
-0.327011
-0.297123
-0.269241
-0.243947
-0.221345
-0.20129
-0.18353
-0.167788
-0.153802
-0.141335
-0.130189
-0.120185
-0.111071
-0.102631
-0.0957217
-0.451837
-0.436947
-0.419558
-0.396786
-0.369527
-0.340401
-0.311561
-0.28435
-0.25943
-0.236992
-0.216957
-0.199122
-0.183242
-0.169073
-0.156392
-0.14501
-0.134756
-0.125395
-0.116703
-0.10946
-0.456234
-0.441302
-0.424868
-0.403798
-0.378432
-0.350992
-0.323466
-0.297183
-0.272869
-0.250797
-0.230959
-0.213205
-0.197324
-0.183097
-0.170317
-0.158804
-0.148397
-0.13888
-0.130023
-0.122525
-0.457498
-0.442618
-0.427136
-0.40779
-0.384428
-0.358871
-0.332893
-0.307778
-0.284294
-0.262787
-0.24332
-0.225798
-0.210052
-0.195889
-0.183122
-0.17158
-0.161115
-0.151529
-0.142592
-0.134917
-0.45593
-0.441199
-0.426645
-0.408994
-0.387691
-0.364158
-0.339927
-0.316197
-0.293752
-0.273001
-0.254075
-0.236935
-0.221455
-0.207475
-0.194826
-0.183355
-0.172924
-0.163353
-0.154415
-0.146642
-0.451865
-0.437382
-0.423717
-0.407691
-0.388442
-0.367015
-0.344682
-0.322522
-0.301308
-0.281493
-0.263269
-0.246655
-0.231569
-0.217886
-0.205461
-0.194155
-0.183845
-0.17437
-0.16551
-0.157714
-0.445658
-0.431522
-0.418699
-0.404195
-0.386937
-0.367639
-0.347303
-0.32686
-0.307044
-0.28833
-0.270961
-0.255009
-0.24044
-0.227162
-0.21506
-0.204012
-0.193907
-0.184605
-0.175898
-0.168155
-0.437676
-0.423987
-0.411957
-0.398845
-0.383469
-0.366261
-0.347964
-0.329341
-0.311058
-0.293589
-0.277215
-0.262054
-0.248117
-0.23535
-0.223665
-0.212962
-0.203143
-0.194089
-0.185606
-0.17799
-0.428286
-0.415139
-0.403856
-0.391996
-0.378351
-0.36314
-0.346864
-0.330115
-0.313463
-0.29736
-0.282104
-0.267852
-0.254656
-0.242499
-0.231322
-0.221046
-0.211591
-0.202856
-0.194665
-0.187249
-0.417845
-0.40533
-0.394755
-0.384002
-0.371915
-0.358557
-0.344232
-0.329355
-0.314389
-0.29974
-0.285706
-0.272469
-0.260115
-0.248661
-0.238076
-0.228307
-0.219289
-0.210942
-0.20311
-0.195964
-0.406688
-0.394887
-0.38499
-0.375208
-0.364491
-0.35281
-0.340311
-0.327254
-0.313984
-0.300843
-0.288109
-0.275974
-0.264551
-0.253885
-0.243974
-0.234786
-0.226277
-0.218383
-0.210972
-0.204164
-0.395125
-0.384106
-0.374867
-0.365935
-0.356402
-0.3462
-0.335363
-0.324022
-0.312409
-0.300789
-0.289403
-0.278439
-0.268023
-0.258221
-0.249058
-0.240523
-0.232588
-0.225211
-0.21828
-0.211877
-0.383427
-0.373246
-0.364653
-0.35647
-0.347947
-0.339018
-0.329653
-0.319885
-0.309843
-0.299714
-0.28969
-0.279939
-0.270587
-0.261716
-0.253367
-0.24555
-0.238254
-0.231454
-0.22506
-0.219122
-0.371832
-0.362527
-0.354574
-0.34706
-0.339395
-0.331543
-0.323446
-0.315074
-0.306477
-0.297767
-0.289081
-0.280555
-0.272304
-0.264413
-0.256935
-0.249895
-0.243297
-0.237131
-0.231327
-0.225911
-0.360535
-0.352126
-0.344812
-0.337906
-0.330973
-0.324019
-0.316988
-0.309821
-0.302512
-0.295109
-0.287697
-0.280374
-0.273234
-0.266355
-0.259793
-0.253581
-0.247735
-0.242255
-0.237092
-0.232248
-0.349691
-0.342181
-0.335502
-0.329163
-0.322864
-0.316655
-0.310505
-0.304349
-0.298149
-0.291911
-0.285673
-0.279496
-0.273445
-0.267585
-0.261966
-0.256623
-0.251575
-0.246832
-0.242358
-0.238128
-0.339417
-0.33279
-0.326743
-0.320941
-0.315202
-0.309617
-0.304187
-0.298858
-0.293586
-0.28835
-0.283156
-0.278031
-0.273016
-0.268154
-0.263483
-0.259034
-0.254824
-0.250863
-0.247125
-0.243546
-0.329795
-0.324022
-0.318595
-0.31331
-0.308079
-0.303027
-0.298185
-0.293524
-0.289006
-0.284601
-0.2803
-0.276106
-0.272038
-0.268121
-0.264379
-0.260831
-0.257486
-0.254349
-0.251398
-0.248507
-0.320876
-0.315911
-0.311088
-0.306304
-0.301545
-0.296961
-0.292607
-0.288482
-0.284563
-0.280827
-0.277258
-0.273852
-0.270615
-0.267559
-0.264697
-0.262035
-0.259571
-0.257295
-0.25519
-0.253038
-0.312682
-0.308469
-0.304227
-0.29993
-0.29562
-0.291458
-0.287522
-0.283832
-0.280385
-0.27717
-0.274177
-0.271407
-0.268863
-0.266556
-0.264493
-0.262674
-0.261089
-0.259712
-0.258524
-0.257201
-0.305213
-0.30169
-0.298
-0.294174
-0.290294
-0.286527
-0.282961
-0.279634
-0.27656
-0.273743
-0.271188
-0.268902
-0.266903
-0.265207
-0.263832
-0.262785
-0.262055
-0.261608
-0.261424
-0.261088
-0.298448
-0.295548
-0.292375
-0.289003
-0.28554
-0.282148
-0.278923
-0.275912
-0.273142
-0.27063
-0.268393
-0.266455
-0.264848
-0.263612
-0.262786
-0.262403
-0.262471
-0.262968
-0.263883
-0.264794
-0.292354
-0.290008
-0.287315
-0.284375
-0.281314
-0.278285
-0.275382
-0.272659
-0.270148
-0.267875
-0.265866
-0.264159
-0.262804
-0.261868
-0.261426
-0.261556
-0.262317
-0.263735
-0.265825
-0.268362
-0.286881
-0.285024
-0.28277
-0.280239
-0.277564
-0.274887
-0.272296
-0.269846
-0.267568
-0.265492
-0.263647
-0.262079
-0.260853
-0.26006
-0.259817
-0.260262
-0.261539
-0.263771
-0.267048
-0.271661
-0.281975
-0.280545
-0.278691
-0.276541
-0.274234
-0.271896
-0.269608
-0.267421
-0.265365
-0.263463
-0.261745
-0.260253
-0.259057
-0.258263
-0.258022
-0.258535
-0.260056
-0.262857
-0.267214
-0.274376
-0.277577
-0.276518
-0.275022
-0.273226
-0.271263
-0.269248
-0.267254
-0.265324
-0.263483
-0.261747
-0.260137
-0.258685
-0.257452
-0.256538
-0.256106
-0.256402
-0.25778
-0.260688
-0.265768
-0.275713
-0.273626
-0.272889
-0.271714
-0.270238
-0.268594
-0.266882
-0.265167
-0.263485
-0.261854
-0.260281
-0.258776
-0.257352
-0.256048
-0.254938
-0.254159
-0.253954
-0.254716
-0.257029
-0.262161
-0.274899
-0.270067
-0.269609
-0.268716
-0.267529
-0.266174
-0.264741
-0.263284
-0.261835
-0.260405
-0.258993
-0.257594
-0.256202
-0.254822
-0.253482
-0.25225
-0.251282
-0.250864
-0.251456
-0.254726
-0.267724
-0.266849
-0.266634
-0.265989
-0.265056
-0.263959
-0.262774
-0.261551
-0.260315
-0.259071
-0.257813
-0.256522
-0.255172
-0.253733
-0.252167
-0.250424
-0.248443
-0.246114
-0.242979
-0.237797
-0.231772
-0.26393
-0.263926
-0.263496
-0.262785
-0.261913
-0.260947
-0.259929
-0.258881
-0.257806
-0.256692
-0.255514
-0.25424
-0.252822
-0.2512
-0.249294
-0.247008
-0.244227
-0.240602
-0.235246
-0.22981
-0.261277
-0.261456
-0.261212
-0.260691
-0.260012
-0.259235
-0.258394
-0.257509
-0.256582
-0.2556
-0.254538
-0.253364
-0.252035
-0.250495
-0.248684
-0.246541
-0.24402
-0.240912
-0.23674
-0.233334
-0.258865
-0.259202
-0.259115
-0.258756
-0.258243
-0.257625
-0.256936
-0.256191
-0.255392
-0.254527
-0.253576
-0.25251
-0.251292
-0.249883
-0.248237
-0.246325
-0.244134
-0.241511
-0.238194
-0.236024
-0.256674
-0.257145
-0.257192
-0.25697
-0.256597
-0.256116
-0.255555
-0.25493
-0.254244
-0.253486
-0.25264
-0.251683
-0.250588
-0.249328
-0.247877
-0.246228
-0.244391
-0.242259
-0.239691
-0.238354
-0.254691
-0.255273
-0.255432
-0.255327
-0.255073
-0.254708
-0.254259
-0.253741
-0.253155
-0.252497
-0.251754
-0.25091
-0.249947
-0.24885
-0.247608
-0.246234
-0.244751
-0.243084
-0.241155
-0.240404
-0.252904
-0.253577
-0.253829
-0.253822
-0.25367
-0.253407
-0.253057
-0.252634
-0.252144
-0.251583
-0.250943
-0.250216
-0.249391
-0.248462
-0.247431
-0.24632
-0.24516
-0.243893
-0.242465
-0.24211
-0.251304
-0.252048
-0.252377
-0.252453
-0.252389
-0.252215
-0.251954
-0.251621
-0.251222
-0.250757
-0.250222
-0.249613
-0.248927
-0.248166
-0.247336
-0.246465
-0.245584
-0.244643
-0.243594
-0.243501
-0.24988
-0.250679
-0.25107
-0.251216
-0.251228
-0.251135
-0.250956
-0.250707
-0.250395
-0.250024
-0.249593
-0.249101
-0.248552
-0.247949
-0.247303
-0.246642
-0.245995
-0.245311
-0.244543
-0.244624
-0.248622
-0.249461
-0.249902
-0.250108
-0.250187
-0.250165
-0.250061
-0.249891
-0.249663
-0.249382
-0.249051
-0.248672
-0.24825
-0.247791
-0.247308
-0.246825
-0.246368
-0.245884
-0.245322
-0.245521
-0.24752
-0.248387
-0.248868
-0.249125
-0.249262
-0.249303
-0.249267
-0.24917
-0.249021
-0.248825
-0.248587
-0.248312
-0.248005
-0.247673
-0.247328
-0.246993
-0.246687
-0.246356
-0.245949
-0.246229
-0.246564
-0.24745
-0.247963