/*--------------------------------*- C++ -*----------------------------------*\
  =========                 |
  \\      /  F ield         | OpenFOAM: The Open Source CFD Toolbox
   \\    /   O peration     | Website:  https://openfoam.org
    \\  /    A nd           | Version:  6.0
     \\/     M anipulation  |
\*---------------------------------------------------------------------------*/
FoamFile
{
    version     2.0;
    format      ascii;
    class       volScalarField;
    location    "46";
    object      p;
}
// * * * * * * * * * * * * * * * * * * * * * * * * * * * * * * * * * * * * * //

dimensions      [0 2 -2 0 0 0 0];

internalField   nonuniform List<scalar> 
12500
(
-0.283117
-0.283829
-0.284321
-0.284698
-0.285021
-0.285296
-0.285533
-0.28574
-0.285925
-0.286093
-0.286248
-0.286393
-0.286531
-0.286666
-0.2868
-0.286936
-0.287076
-0.287222
-0.287378
-0.287546
-0.287731
-0.287936
-0.288116
-0.288247
-0.288761
-0.282673
-0.283422
-0.283937
-0.284327
-0.284659
-0.28494
-0.285179
-0.285385
-0.285566
-0.285726
-0.285871
-0.286002
-0.286124
-0.286239
-0.286349
-0.286458
-0.286568
-0.286681
-0.286798
-0.286924
-0.287064
-0.287217
-0.287341
-0.287408
-0.287868
-0.282292
-0.283078
-0.283614
-0.284016
-0.284356
-0.284639
-0.284877
-0.285079
-0.285252
-0.285401
-0.285531
-0.285644
-0.285745
-0.285835
-0.285918
-0.285995
-0.28607
-0.286144
-0.286219
-0.286298
-0.286388
-0.286489
-0.286553
-0.286553
-0.286958
-0.281981
-0.282804
-0.283359
-0.283772
-0.284116
-0.2844
-0.284634
-0.284828
-0.284989
-0.285123
-0.285234
-0.285326
-0.285401
-0.285462
-0.285512
-0.285553
-0.285588
-0.285619
-0.285648
-0.285677
-0.285714
-0.285759
-0.285762
-0.285692
-0.286044
-0.281748
-0.282606
-0.28318
-0.283601
-0.283948
-0.284229
-0.284455
-0.284638
-0.284784
-0.284899
-0.284988
-0.285053
-0.285099
-0.285126
-0.285139
-0.285139
-0.28513
-0.285113
-0.285091
-0.285067
-0.285048
-0.285034
-0.284974
-0.284834
-0.285133
-0.281601
-0.282493
-0.283083
-0.28351
-0.283856
-0.284132
-0.284348
-0.284516
-0.284643
-0.284735
-0.284797
-0.284833
-0.284843
-0.284833
-0.284804
-0.284759
-0.2847
-0.284631
-0.284554
-0.284472
-0.284393
-0.284319
-0.284194
-0.283982
-0.284232
-0.281549
-0.282472
-0.283076
-0.283505
-0.283848
-0.284115
-0.284317
-0.284467
-0.284572
-0.284638
-0.284669
-0.28467
-0.284642
-0.284589
-0.284513
-0.284417
-0.284304
-0.284178
-0.28404
-0.283896
-0.283753
-0.283615
-0.283423
-0.283137
-0.28334
-0.2816
-0.28255
-0.283164
-0.283594
-0.28393
-0.284185
-0.28437
-0.284498
-0.284576
-0.284612
-0.284609
-0.284571
-0.284499
-0.284399
-0.284271
-0.284118
-0.283946
-0.283756
-0.283552
-0.283339
-0.283128
-0.282921
-0.28266
-0.282298
-0.282457
-0.281763
-0.282736
-0.283357
-0.283783
-0.284109
-0.284348
-0.284512
-0.284614
-0.284663
-0.284665
-0.284623
-0.284542
-0.284423
-0.284269
-0.284083
-0.283869
-0.283629
-0.283368
-0.283091
-0.282803
-0.282517
-0.282236
-0.281901
-0.281459
-0.281576
-0.282047
-0.283037
-0.28366
-0.284078
-0.28439
-0.284609
-0.284749
-0.284822
-0.284838
-0.284802
-0.284718
-0.28459
-0.284418
-0.284206
-0.283957
-0.283673
-0.283359
-0.28302
-0.28266
-0.282288
-0.281917
-0.281555
-0.281138
-0.280611
-0.280688
-0.282459
-0.283459
-0.284079
-0.284485
-0.284779
-0.284974
-0.285086
-0.285127
-0.285107
-0.28503
-0.2849
-0.28472
-0.284492
-0.284217
-0.283898
-0.283538
-0.283141
-0.282714
-0.282262
-0.281794
-0.281327
-0.280872
-0.280363
-0.279741
-0.279777
-0.283009
-0.28401
-0.28462
-0.285009
-0.28528
-0.285448
-0.285528
-0.285534
-0.285474
-0.285353
-0.285175
-0.284941
-0.284652
-0.284309
-0.283914
-0.283471
-0.282983
-0.282457
-0.2819
-0.281323
-0.280746
-0.280183
-0.279567
-0.278835
-0.278827
-0.283703
-0.284695
-0.285288
-0.285654
-0.285897
-0.286033
-0.286078
-0.286046
-0.285944
-0.285777
-0.285548
-0.285257
-0.284904
-0.284489
-0.284014
-0.283481
-0.282893
-0.282257
-0.28158
-0.280878
-0.280172
-0.279481
-0.278737
-0.277876
-0.277815
-0.284546
-0.285518
-0.286087
-0.286424
-0.286633
-0.286733
-0.286739
-0.286665
-0.286519
-0.286304
-0.286022
-0.285672
-0.285254
-0.284765
-0.284206
-0.283576
-0.28288
-0.282122
-0.281312
-0.280465
-0.279608
-0.278764
-0.277865
-0.276844
-0.276715
-0.285544
-0.286484
-0.287019
-0.287319
-0.28749
-0.287548
-0.287511
-0.287393
-0.2872
-0.286935
-0.2866
-0.286191
-0.285706
-0.285141
-0.284495
-0.283765
-0.282953
-0.282064
-0.281105
-0.280093
-0.279059
-0.278032
-0.276942
-0.27572
-0.275499
-0.286699
-0.287593
-0.288086
-0.288342
-0.288466
-0.288478
-0.288394
-0.288227
-0.287985
-0.287669
-0.287279
-0.286811
-0.28626
-0.28562
-0.284885
-0.284053
-0.283121
-0.282091
-0.280969
-0.279772
-0.278533
-0.277287
-0.27596
-0.274485
-0.274132
-0.288014
-0.288848
-0.289287
-0.289491
-0.289562
-0.28952
-0.289383
-0.289163
-0.288869
-0.288501
-0.288056
-0.287529
-0.286912
-0.286197
-0.285376
-0.28444
-0.283385
-0.282208
-0.280913
-0.279512
-0.278038
-0.276533
-0.274918
-0.273119
-0.272579
-0.28949
-0.290249
-0.290624
-0.290766
-0.290774
-0.29067
-0.290473
-0.290196
-0.289846
-0.289421
-0.288919
-0.288333
-0.287651
-0.286863
-0.285957
-0.28492
-0.283742
-0.282416
-0.280938
-0.279316
-0.277582
-0.275776
-0.273813
-0.271606
-0.270796
-0.291124
-0.291795
-0.292093
-0.292163
-0.292099
-0.291924
-0.291659
-0.291317
-0.290904
-0.290419
-0.289857
-0.289209
-0.288462
-0.287602
-0.286612
-0.285476
-0.284177
-0.282701
-0.281037
-0.279184
-0.277166
-0.27502
-0.272647
-0.269931
-0.26874
-0.292918
-0.293485
-0.293696
-0.293681
-0.293532
-0.293276
-0.292933
-0.292516
-0.292032
-0.291479
-0.290851
-0.290137
-0.289322
-0.288389
-0.287317
-0.286084
-0.284668
-0.283046
-0.281196
-0.279106
-0.276787
-0.274268
-0.271425
-0.268086
-0.266361
-0.294869
-0.29532
-0.29543
-0.295318
-0.295072
-0.294721
-0.294286
-0.293783
-0.293217
-0.292586
-0.291884
-0.291098
-0.29021
-0.2892
-0.288045
-0.286717
-0.285188
-0.283425
-0.281397
-0.279073
-0.276449
-0.273536
-0.270175
-0.266101
-0.263649
-0.29698
-0.297302
-0.297297
-0.297074
-0.296716
-0.296255
-0.295714
-0.29511
-0.294449
-0.293728
-0.29294
-0.292071
-0.291103
-0.290012
-0.288772
-0.287352
-0.285716
-0.283825
-0.281635
-0.279098
-0.276187
-0.272889
-0.269005
-0.264121
-0.260704
-0.299253
-0.299433
-0.2993
-0.298951
-0.298464
-0.297877
-0.297214
-0.296493
-0.295721
-0.294896
-0.294009
-0.293046
-0.291988
-0.290811
-0.289486
-0.287979
-0.28625
-0.284255
-0.281936
-0.279229
-0.276075
-0.272429
-0.268038
-0.262252
-0.257475
-0.301694
-0.301721
-0.301445
-0.300954
-0.300321
-0.299589
-0.298787
-0.297932
-0.297032
-0.296087
-0.295088
-0.29402
-0.292865
-0.291598
-0.290193
-0.288616
-0.286828
-0.284781
-0.282414
-0.279641
-0.276364
-0.272462
-0.267522
-0.260451
-0.253453
-0.304315
-0.304175
-0.303741
-0.30309
-0.302294
-0.3014
-0.300439
-0.299433
-0.298389
-0.297309
-0.296184
-0.295001
-0.293744
-0.292391
-0.29092
-0.289306
-0.287522
-0.285539
-0.283317
-0.280802
-0.277923
-0.274539
-0.270075
-0.263025
-0.255103
-0.30713
-0.306809
-0.306202
-0.305374
-0.304396
-0.303321
-0.302184
-0.301009
-0.299806
-0.298577
-0.297315
-0.296009
-0.294647
-0.293213
-0.291694
-0.29008
-0.288369
-0.286571
-0.284717
-0.282876
-0.28119
-0.279896
-0.279329
-0.280994
-0.291193
-0.310159
-0.309642
-0.308843
-0.307821
-0.306643
-0.305369
-0.30404
-0.302681
-0.301305
-0.299915
-0.298507
-0.297074
-0.295605
-0.294094
-0.292537
-0.290941
-0.289325
-0.287733
-0.286242
-0.284984
-0.284178
-0.284154
-0.285364
-0.289099
-0.299898
-0.313427
-0.312695
-0.311687
-0.310453
-0.309057
-0.307569
-0.306032
-0.304476
-0.302915
-0.301355
-0.299794
-0.298228
-0.296652
-0.295064
-0.293472
-0.291895
-0.290369
-0.288958
-0.287761
-0.286926
-0.286672
-0.287294
-0.289135
-0.29289
-0.301546
-0.316961
-0.315992
-0.314757
-0.313292
-0.311663
-0.309945
-0.308188
-0.306424
-0.304669
-0.302932
-0.301213
-0.299509
-0.297821
-0.296153
-0.294518
-0.292944
-0.291474
-0.29018
-0.28916
-0.28855
-0.288524
-0.289298
-0.291076
-0.294154
-0.300509
-0.320793
-0.319562
-0.318079
-0.316367
-0.314488
-0.312527
-0.310539
-0.308558
-0.306603
-0.304682
-0.302798
-0.300952
-0.299143
-0.297382
-0.295682
-0.294075
-0.292606
-0.291338
-0.290356
-0.289765
-0.289685
-0.290245
-0.291541
-0.293635
-0.297794
-0.324953
-0.323433
-0.32168
-0.319704
-0.317563
-0.315348
-0.313119
-0.310914
-0.308751
-0.30664
-0.304584
-0.302583
-0.300639
-0.298759
-0.296961
-0.295271
-0.293727
-0.292382
-0.291299
-0.290548
-0.290201
-0.29032
-0.29093
-0.291978
-0.29424
-0.329473
-0.327633
-0.325589
-0.323333
-0.320916
-0.318437
-0.315961
-0.313525
-0.311147
-0.308837
-0.306596
-0.304422
-0.302317
-0.300286
-0.298341
-0.296504
-0.294803
-0.293277
-0.291966
-0.290913
-0.290152
-0.289703
-0.289553
-0.289605
-0.290306
-0.334384
-0.33219
-0.329833
-0.327282
-0.324578
-0.321827
-0.319095
-0.31642
-0.313818
-0.311296
-0.308851
-0.30648
-0.304179
-0.301949
-0.299799
-0.297742
-0.295798
-0.293991
-0.292347
-0.290886
-0.28962
-0.288548
-0.287643
-0.286798
-0.286267
-0.339712
-0.337127
-0.334436
-0.331577
-0.328575
-0.325544
-0.322549
-0.319626
-0.316786
-0.314032
-0.311357
-0.308752
-0.306209
-0.303724
-0.301301
-0.298947
-0.296675
-0.2945
-0.292436
-0.290494
-0.288674
-0.286969
-0.285352
-0.283726
-0.28224
-0.345478
-0.342467
-0.339421
-0.33624
-0.332932
-0.329611
-0.326345
-0.32316
-0.320064
-0.317051
-0.314109
-0.311223
-0.308381
-0.305575
-0.302805
-0.300076
-0.297396
-0.294776
-0.292228
-0.289757
-0.287364
-0.285041
-0.282772
-0.280473
-0.278247
-0.351698
-0.348225
-0.344804
-0.341291
-0.337667
-0.334049
-0.330497
-0.327032
-0.323652
-0.320343
-0.317086
-0.313862
-0.310654
-0.307455
-0.304262
-0.301081
-0.297921
-0.294795
-0.291715
-0.288689
-0.28572
-0.282809
-0.279946
-0.277063
-0.274252
-0.358378
-0.354411
-0.350597
-0.346742
-0.342794
-0.338866
-0.335013
-0.331242
-0.327541
-0.323888
-0.320257
-0.316626
-0.312978
-0.309308
-0.305616
-0.301912
-0.298212
-0.294532
-0.290888
-0.287295
-0.283761
-0.280292
-0.276887
-0.273493
-0.270196
-0.365519
-0.361026
-0.356805
-0.352599
-0.348317
-0.344066
-0.339887
-0.335775
-0.331705
-0.327648
-0.323574
-0.319459
-0.315291
-0.311071
-0.306807
-0.302519
-0.298229
-0.29396
-0.289735
-0.285574
-0.281491
-0.277497
-0.273594
-0.26974
-0.266022
-0.373109
-0.368063
-0.363424
-0.358861
-0.354234
-0.349639
-0.345103
-0.340603
-0.336105
-0.331572
-0.326973
-0.322291
-0.317522
-0.312677
-0.307778
-0.302853
-0.297936
-0.293057
-0.288246
-0.283525
-0.278913
-0.274422
-0.270057
-0.265781
-0.261682
-0.381125
-0.375505
-0.37044
-0.365513
-0.360527
-0.355562
-0.350627
-0.345683
-0.340684
-0.335592
-0.330382
-0.325047
-0.319596
-0.314058
-0.308468
-0.302868
-0.2973
-0.291803
-0.286408
-0.281142
-0.276023
-0.271063
-0.266266
-0.261597
-0.257142
-0.389532
-0.383323
-0.377828
-0.37253
-0.367167
-0.361798
-0.356411
-0.350952
-0.345369
-0.339628
-0.333715
-0.327641
-0.321436
-0.315146
-0.308823
-0.302522
-0.296292
-0.290177
-0.284211
-0.278418
-0.272816
-0.267413
-0.262211
-0.257172
-0.252381
-0.398282
-0.391476
-0.38555
-0.379873
-0.374109
-0.368292
-0.362389
-0.356332
-0.350072
-0.343586
-0.336879
-0.329987
-0.322963
-0.315875
-0.308791
-0.301775
-0.294884
-0.288162
-0.281642
-0.275345
-0.269285
-0.263465
-0.257881
-0.252494
-0.247384
-0.40731
-0.399907
-0.393552
-0.387487
-0.381292
-0.374972
-0.368475
-0.36173
-0.354693
-0.347363
-0.339776
-0.331995
-0.324102
-0.316183
-0.308323
-0.300592
-0.29305
-0.285739
-0.278689
-0.271914
-0.265421
-0.259209
-0.253268
-0.247552
-0.242143
-0.416537
-0.408546
-0.401766
-0.395299
-0.388634
-0.381746
-0.374569
-0.367034
-0.359118
-0.350851
-0.342306
-0.333578
-0.324779
-0.316013
-0.307374
-0.29894
-0.290766
-0.282891
-0.275336
-0.268111
-0.261212
-0.254635
-0.24836
-0.242335
-0.236649
-0.425869
-0.417304
-0.410107
-0.40322
-0.396037
-0.388505
-0.380552
-0.372122
-0.363227
-0.353937
-0.344368
-0.334652
-0.324925
-0.315309
-0.305904
-0.296787
-0.288007
-0.279597
-0.271568
-0.26392
-0.256645
-0.249728
-0.243145
-0.236832
-0.230892
-0.435192
-0.426079
-0.41847
-0.411142
-0.403384
-0.395123
-0.386292
-0.376863
-0.366894
-0.356508
-0.345865
-0.335135
-0.324476
-0.314021
-0.303872
-0.2941
-0.284748
-0.275835
-0.267364
-0.259325
-0.251702
-0.244472
-0.237605
-0.231028
-0.22486
-0.444379
-0.43475
-0.426738
-0.418938
-0.410541
-0.401459
-0.391646
-0.381118
-0.369992
-0.358451
-0.346703
-0.334951
-0.323371
-0.312102
-0.301241
-0.29085
-0.28096
-0.271581
-0.262702
-0.254304
-0.246362
-0.238849
-0.231725
-0.224906
-0.218538
-0.453288
-0.443182
-0.434772
-0.426466
-0.417358
-0.40736
-0.396462
-0.384745
-0.372396
-0.35966
-0.346794
-0.334029
-0.321554
-0.309504
-0.297971
-0.287003
-0.276617
-0.266809
-0.257558
-0.248835
-0.240606
-0.232838
-0.225484
-0.218449
-0.21191
-0.461762
-0.451225
-0.442423
-0.433568
-0.423673
-0.412662
-0.400586
-0.387604
-0.373982
-0.360032
-0.346055
-0.332303
-0.31897
-0.306186
-0.294027
-0.282527
-0.271688
-0.261492
-0.251906
-0.242892
-0.234409
-0.226417
-0.218861
-0.211637
-0.204958
-0.469634
-0.458716
-0.449525
-0.440077
-0.429314
-0.4172
-0.403863
-0.389556
-0.374634
-0.359472
-0.344409
-0.329711
-0.31557
-0.302104
-0.289372
-0.277389
-0.266144
-0.255602
-0.24572
-0.236451
-0.227747
-0.219563
-0.211835
-0.204449
-0.197662
-0.476726
-0.465483
-0.455904
-0.445813
-0.434106
-0.420805
-0.40614
-0.390472
-0.374243
-0.357892
-0.341785
-0.326197
-0.311307
-0.297218
-0.28397
-0.271558
-0.259954
-0.24911
-0.238974
-0.229487
-0.220597
-0.212254
-0.204384
-0.196866
-0.190003
-0.482853
-0.471345
-0.461377
-0.450593
-0.437868
-0.42331
-0.40727
-0.390226
-0.372709
-0.355211
-0.33812
-0.321707
-0.306137
-0.291491
-0.277786
-0.265001
-0.253088
-0.24199
-0.23164
-0.221975
-0.212935
-0.204467
-0.196488
-0.188867
-0.181961
-0.487829
-0.476118
-0.465758
-0.454233
-0.440425
-0.424557
-0.407117
-0.388706
-0.369942
-0.351359
-0.333356
-0.316195
-0.30002
-0.284886
-0.270789
-0.257688
-0.24552
-0.234213
-0.223695
-0.213892
-0.204741
-0.196183
-0.188127
-0.180435
-0.17352
-0.491468
-0.479615
-0.468862
-0.456549
-0.441607
-0.424395
-0.405554
-0.38581
-0.36586
-0.34627
-0.327441
-0.309617
-0.292917
-0.27737
-0.262948
-0.249591
-0.237222
-0.225757
-0.215115
-0.205217
-0.195994
-0.187384
-0.179285
-0.171553
-0.164665
-0.493586
-0.481655
-0.470507
-0.457368
-0.441254
-0.422686
-0.402469
-0.38145
-0.360394
-0.33989
-0.320331
-0.301936
-0.284796
-0.268912
-0.254235
-0.240685
-0.22817
-0.216599
-0.205881
-0.195931
-0.186677
-0.178053
-0.169946
-0.16221
-0.155382
-0.494008
-0.482061
-0.470517
-0.456524
-0.439219
-0.419307
-0.397763
-0.375548
-0.353485
-0.332173
-0.311988
-0.29312
-0.275628
-0.259488
-0.244626
-0.230946
-0.218346
-0.206721
-0.195976
-0.18602
-0.176777
-0.168178
-0.1601
-0.152394
-0.145663
-0.492568
-0.480667
-0.46873
-0.453864
-0.43537
-0.414151
-0.391352
-0.368041
-0.345085
-0.323081
-0.302381
-0.283141
-0.26539
-0.249075
-0.234101
-0.220359
-0.207731
-0.196108
-0.185386
-0.175471
-0.166283
-0.157751
-0.14974
-0.142099
-0.1355
-0.489115
-0.47732
-0.464997
-0.449256
-0.429594
-0.407129
-0.38317
-0.358881
-0.335157
-0.312586
-0.291486
-0.27198
-0.254063
-0.237656
-0.222646
-0.208907
-0.196314
-0.184749
-0.174102
-0.164276
-0.155189
-0.146766
-0.13886
-0.131323
-0.124893
-0.483513
-0.471884
-0.459188
-0.442583
-0.421797
-0.398169
-0.373167
-0.348032
-0.323677
-0.300668
-0.279288
-0.259622
-0.241633
-0.225219
-0.210249
-0.196582
-0.184087
-0.172637
-0.162119
-0.152433
-0.143493
-0.135221
-0.127463
-0.120068
-0.113842
-0.475649
-0.464241
-0.451192
-0.43375
-0.411906
-0.387221
-0.361307
-0.335472
-0.310629
-0.287316
-0.265777
-0.246059
-0.228095
-0.211759
-0.196904
-0.18338
-0.171046
-0.15977
-0.149437
-0.13994
-0.131196
-0.123121
-0.115551
-0.108338
-0.102353
-0.465427
-0.454296
-0.440921
-0.422688
-0.399871
-0.374252
-0.347574
-0.321192
-0.29601
-0.27253
-0.250954
-0.231292
-0.213448
-0.197275
-0.182613
-0.169301
-0.157192
-0.146152
-0.136058
-0.126804
-0.118304
-0.110473
-0.103134
-0.0961445
-0.0904371
-0.452777
-0.441977
-0.428311
-0.409346
-0.385662
-0.35925
-0.331966
-0.305198
-0.279828
-0.256318
-0.234826
-0.215326
-0.197697
-0.181772
-0.167379
-0.154351
-0.142533
-0.131787
-0.121989
-0.113032
-0.104828
-0.097287
-0.0902249
-0.0835025
-0.0781095
-0.437654
-0.427235
-0.413322
-0.393703
-0.369273
-0.342221
-0.314499
-0.287508
-0.262102
-0.238698
-0.217409
-0.198176
-0.180854
-0.165262
-0.151215
-0.138539
-0.127077
-0.116687
-0.107244
-0.0986373
-0.09078
-0.0835792
-0.0768412
-0.0704308
-0.0653893
-0.420036
-0.410048
-0.395941
-0.375758
-0.350717
-0.32319
-0.295201
-0.268153
-0.242863
-0.219695
-0.198726
-0.179863
-0.162939
-0.14776
-0.134133
-0.12188
-0.110838
-0.100865
-0.0918344
-0.0836346
-0.0761776
-0.0693679
-0.0630035
-0.0569526
-0.0522996
-0.399931
-0.390421
-0.376179
-0.355537
-0.330033
-0.3022
-0.27412
-0.247179
-0.222149
-0.199349
-0.17881
-0.160415
-0.143977
-0.12929
-0.116156
-0.104392
-0.0938344
-0.0843395
-0.0757789
-0.0680418
-0.0610397
-0.0546742
-0.048736
-0.043095
-0.0388677
-0.377368
-0.368384
-0.354073
-0.333086
-0.307275
-0.279313
-0.251315
-0.224641
-0.200015
-0.177703
-0.157703
-0.139869
-0.123999
-0.109879
-0.097307
-0.0860969
-0.0760853
-0.0671275
-0.0590952
-0.0518777
-0.0453865
-0.0395211
-0.0340656
-0.0288891
-0.0251272
-0.352405
-0.34399
-0.329685
-0.308476
-0.28252
-0.254606
-0.226861
-0.20061
-0.176522
-0.154816
-0.135453
-0.118267
-0.103043
-0.0895606
-0.0776145
-0.0670193
-0.0576119
-0.0492483
-0.0418009
-0.03516
-0.0292375
-0.023931
-0.01902
-0.0143703
-0.0111212
-0.325124
-0.31732
-0.3031
-0.2818
-0.255864
-0.228171
-0.200846
-0.175166
-0.151743
-0.130752
-0.11212
-0.0956617
-0.0811537
-0.0683721
-0.0571107
-0.0471858
-0.0384362
-0.03072
-0.0239117
-0.0179034
-0.0126079
-0.00792239
-0.00362444
0.000424568
0.00310405
-0.29563
-0.288479
-0.274425
-0.253168
-0.227419
-0.200119
-0.173373
-0.148403
-0.125765
-0.105587
-0.08777
-0.0721123
-0.0583832
-0.0463578
-0.0358318
-0.0266247
-0.0185792
-0.0115575
-0.00543782
-0.000115256
0.0044952
0.00849475
0.0121019
0.0154635
0.0175191
-0.264053
-0.25759
-0.243788
-0.222712
-0.197312
-0.170571
-0.144555
-0.120426
-0.0986812
-0.0794083
-0.0624817
-0.0476876
-0.0347911
-0.0235683
-0.0138185
-0.00536647
0.00193906
0.00822956
0.0136205
0.0182113
0.0220826
0.0253298
0.0281608
0.0307419
0.0321355
-0.23054
-0.224801
-0.211339
-0.190579
-0.165688
-0.139663
-0.114519
-0.0913508
-0.0705995
-0.0523128
-0.0363432
-0.0224669
-0.0104471
-6.26991e-05
0.00888167
0.016554
0.0230977
0.0286354
0.0332729
0.0371005
0.0401905
0.0426272
0.0446008
0.0463058
0.0469731
-0.195258
-0.190277
-0.177239
-0.156932
-0.132704
-0.107544
-0.083402
-0.0613054
-0.0416371
-0.0244088
-0.00945371
0.00345959
0.0145682
0.0240891
0.0322109
0.0390932
0.0448691
0.0496497
0.053527
0.0565763
0.0588585
0.0604426
0.0614803
0.0621534
0.0618556
-0.158393
-0.154197
-0.141671
-0.121945
-0.0985266
-0.0743704
-0.0513527
-0.0304271
-0.0119221
0.00418411
0.0180755
0.0299891
0.0401614
0.0488048
0.0561007
0.0621992
0.0672218
0.0712638
0.0743957
0.0766686
0.0781262
0.0788091
0.0787522
0.077988
0.0761972
-0.120142
-0.116757
-0.104826
-0.0858078
-0.0633354
-0.0403114
-0.0185275
0.0011374
0.0184074
0.0333357
0.0461209
0.057005
0.0662237
0.0739857
0.0804669
0.0858105
0.0901278
0.0934983
0.0959662
0.0975509
0.0982695
0.0980829
0.0967213
0.093862
0.0900629
-0.0807165
-0.0781652
-0.0669072
-0.0487154
-0.0273165
-0.00554168
0.0149097
0.0332336
0.049205
0.0629055
0.0745468
0.0843749
0.0926252
0.0995051
0.105189
0.10982
0.113511
0.116339
0.118346
0.119553
0.119992
0.11953
0.117442
0.112998
0.108285
-0.0403395
-0.0386387
-0.0281278
-0.0108718
0.00933747
0.0297583
0.0487893
0.0657015
0.0803179
0.0927458
0.103208
0.111953
0.119217
0.125205
0.130094
0.134032
0.137141
0.139517
0.141238
0.142399
0.143152
0.143448
0.142373
0.139387
0.141828
0.000767844
0.00160264
0.0112968
0.0275157
0.0464309
0.0654048
0.0829387
0.0983777
0.11159
0.122705
0.131955
0.13959
0.145843
0.150919
0.154994
0.158216
0.160712
0.162588
0.16394
0.164891
0.165605
0.166059
0.165734
0.165062
0.169745
0.042371
0.0423288
0.0511439
0.0662353
0.0837648
0.101212
0.117184
0.131098
0.142865
0.152634
0.160642
0.167139
0.172356
0.176495
0.179729
0.182205
0.184052
0.18538
0.186292
0.186911
0.18738
0.18767
0.187413
0.187112
0.191266
0.0842339
0.0833083
0.0911897
0.105075
0.121141
0.136995
0.151353
0.163701
0.173989
0.182383
0.189123
0.194459
0.198615
0.201788
0.204147
0.205836
0.206981
0.207688
0.208061
0.208215
0.208276
0.208223
0.207747
0.207256
0.210441
0.12612
0.124309
0.13121
0.143822
0.158361
0.17257
0.185274
0.196026
0.204811
0.21181
0.217264
0.221418
0.224492
0.226675
0.228129
0.228993
0.229386
0.22941
0.229159
0.228736
0.22825
0.227669
0.226712
0.225759
0.228021
0.167794
0.1651
0.170984
0.182269
0.195231
0.207757
0.21878
0.227917
0.235186
0.240778
0.244935
0.247895
0.249871
0.251045
0.251572
0.251581
0.251185
0.250478
0.249546
0.248479
0.247369
0.24617
0.244626
0.243113
0.244486
0.209024
0.205453
0.21029
0.220208
0.231559
0.242381
0.251709
0.259225
0.264974
0.269157
0.272014
0.273776
0.274648
0.274803
0.274388
0.273524
0.272315
0.270847
0.269196
0.267444
0.265664
0.263805
0.261634
0.259532
0.260054
0.249579
0.245143
0.248915
0.25744
0.267162
0.276269
0.283904
0.289804
0.294041
0.296823
0.298386
0.298955
0.298725
0.297861
0.2965
0.294755
0.292722
0.29048
0.288095
0.28564
0.283176
0.280645
0.277843
0.275152
0.274859
0.289236
0.283952
0.28665
0.293769
0.301857
0.309257
0.315211
0.319514
0.322258
0.323656
0.323943
0.323333
0.322013
0.320138
0.317837
0.315216
0.312361
0.309344
0.306225
0.303066
0.299919
0.296726
0.293306
0.290039
0.288965
0.327779
0.321666
0.323292
0.329005
0.335472
0.341185
0.345487
0.34822
0.349501
0.349545
0.34858
0.346814
0.344425
0.341558
0.338333
0.334849
0.331185
0.327404
0.323561
0.319711
0.315896
0.312059
0.308043
0.30422
0.302397
0.364999
0.358082
0.358645
0.362969
0.367839
0.371901
0.374589
0.375795
0.375653
0.37438
0.372199
0.369309
0.36588
0.362047
0.357923
0.353599
0.349145
0.344621
0.340074
0.335553
0.331093
0.326638
0.322055
0.317696
0.315155
0.400693
0.393002
0.392525
0.395486
0.3988
0.401258
0.402385
0.402116
0.4006
0.398057
0.394704
0.390731
0.386299
0.381535
0.376543
0.371408
0.366194
0.360954
0.355729
0.350564
0.345486
0.340444
0.335324
0.330455
0.327227
0.434672
0.426241
0.424752
0.426391
0.428203
0.429118
0.428747
0.427065
0.424236
0.420479
0.416005
0.410997
0.405606
0.399952
0.394131
0.388221
0.382281
0.376357
0.370488
0.36471
0.359047
0.353451
0.347826
0.342473
0.338591
0.466753
0.45762
0.455161
0.455531
0.455905
0.455351
0.453556
0.450534
0.44646
0.441552
0.436017
0.430028
0.423728
0.417231
0.410626
0.403983
0.397356
0.390787
0.384309
0.377954
0.371741
0.365626
0.35953
0.353721
0.34922
0.496767
0.486975
0.483592
0.482758
0.481773
0.479833
0.476699
0.472417
0.467174
0.461187
0.454656
0.447748
0.440597
0.43331
0.425969
0.418639
0.41137
0.404197
0.39715
0.390256
0.383531
0.376935
0.370403
0.364168
0.359084
0.524556
0.51415
0.509901
0.507938
0.505682
0.502451
0.498071
0.492618
0.48629
0.479302
0.471847
0.464086
0.456146
0.448126
0.440104
0.432138
0.424273
0.416542
0.408969
0.401578
0.39438
0.387342
0.380409
0.37378
0.368154
0.549972
0.539004
0.533953
0.530944
0.527518
0.523098
0.517574
0.511048
0.503725
0.49582
0.487519
0.478976
0.470313
0.461623
0.452976
0.444429
0.43602
0.427778
0.419725
0.41188
0.404252
0.396812
0.389516
0.382524
0.376401
0.572884
0.561406
0.555624
0.551665
0.547175
0.541679
0.535119
0.527624
0.519403
0.510669
0.501605
0.492357
0.483042
0.473747
0.464538
0.455466
0.446566
0.437865
0.42938
0.421127
0.413111
0.405311
0.397689
0.390371
0.383795
0.593171
0.581239
0.574805
0.569997
0.56456
0.558107
0.550628
0.542273
0.533255
0.523787
0.514046
0.504174
0.49428
0.484449
0.474742
0.465206
0.455872
0.446764
0.437897
0.429283
0.420926
0.412808
0.404899
0.397291
0.390312
0.610726
0.598402
0.591397
0.58585
0.579589
0.572305
0.564029
0.554928
0.545221
0.535116
0.524789
0.514376
0.503982
0.493687
0.483549
0.47361
0.463901
0.454441
0.445244
0.436318
0.427666
0.419273
0.411117
0.403258
0.395929
0.625459
0.612803
0.605318
0.599146
0.592191
0.584207
0.575262
0.565533
0.555246
0.544607
0.533788
0.522921
0.512107
0.501422
0.490922
0.480646
0.470621
0.460866
0.451392
0.442204
0.433305
0.424683
0.416319
0.408248
0.400623
0.637292
0.624369
0.616495
0.609819
0.602305
0.593758
0.584273
0.574041
0.563287
0.552219
0.541004
0.529771
0.51862
0.507622
0.496831
0.486284
0.476006
0.466013
0.456316
0.446919
0.437821
0.429015
0.420485
0.412243
0.40438
0.646163
0.633039
0.624872
0.617817
0.609882
0.600912
0.591022
0.580412
0.569308
0.557918
0.546405
0.534898
0.523493
0.512261
0.501251
0.4905
0.480032
0.469862
0.459998
0.450442
0.441196
0.432251
0.423597
0.415227
0.407183
0.652026
0.638768
0.630407
0.6231
0.614886
0.605636
0.595478
0.584617
0.573282
0.561678
0.549968
0.53828
0.526707
0.515318
0.504164
0.493278
0.482684
0.472396
0.462421
0.452761
0.443415
0.43438
0.425642
0.417187
0.409024
0.654849
0.641525
0.633069
0.625641
0.617293
0.607908
0.59762
0.586637
0.57519
0.563482
0.551677
0.5399
0.528246
0.516781
0.505557
0.494605
0.48395
0.473604
0.463575
0.453864
0.444471
0.435391
0.426613
0.418116
0.409894
0.654617
0.641296
0.632847
0.625428
0.61709
0.607715
0.597436
0.586462
0.575023
0.563322
0.551524
0.539753
0.528103
0.516644
0.505423
0.494476
0.483824
0.473482
0.463456
0.453748
0.444357
0.43528
0.426504
0.418009
0.40979
0.65133
0.63808
0.629738
0.62246
0.614277
0.605058
0.594928
0.584093
0.572781
0.561198
0.549508
0.537837
0.526279
0.514905
0.503764
0.49289
0.482307
0.472029
0.462063
0.452412
0.443075
0.434047
0.425316
0.416867
0.408713
0.645004
0.631892
0.623758
0.61675
0.608867
0.599948
0.590105
0.579538
0.568474
0.557119
0.545638
0.53416
0.522781
0.511572
0.500584
0.489854
0.479404
0.469251
0.459402
0.449862
0.440629
0.431697
0.423053
0.414694
0.406666
0.635669
0.622764
0.614936
0.608325
0.600883
0.592408
0.58299
0.572818
0.56212
0.551101
0.53993
0.528738
0.517623
0.506659
0.495898
0.485379
0.475127
0.465158
0.455483
0.446106
0.437027
0.428239
0.419724
0.411497
0.403656
0.623373
0.61074
0.603314
0.597226
0.590364
0.582472
0.573612
0.563962
0.553745
0.54317
0.532408
0.521593
0.510826
0.500184
0.489723
0.479483
0.469492
0.459767
0.450321
0.44116
0.432285
0.423686
0.415342
0.40729
0.399693
0.608179
0.595882
0.58895
0.583505
0.577357
0.570185
0.562014
0.553008
0.543387
0.53336
0.523103
0.512754
0.502418
0.492175
0.482085
0.47219
0.462521
0.453099
0.443936
0.435042
0.426421
0.418056
0.409923
0.402087
0.394793
0.590162
0.578264
0.571914
0.567227
0.561924
0.555603
0.548248
0.540005
0.53109
0.521713
0.512055
0.502258
0.492432
0.482663
0.473013
0.463529
0.454243
0.445179
0.436353
0.427777
0.419456
0.41137
0.40349
0.395909
0.388971
0.569416
0.557975
0.552291
0.548471
0.544135
0.538791
0.532374
0.525009
0.516906
0.508278
0.499309
0.490148
0.480911
0.471687
0.462544
0.453532
0.444688
0.436037
0.4276
0.419391
0.411417
0.403654
0.396065
0.388779
0.382249
0.546046
0.535119
0.530179
0.527328
0.524076
0.519828
0.514465
0.508087
0.500897
0.493111
0.484919
0.476474
0.4679
0.459291
0.450719
0.44224
0.433893
0.425709
0.41771
0.409915
0.402333
0.394936
0.387678
0.380722
0.374651
0.520173
0.509814
0.505688
0.503899
0.501838
0.498799
0.494599
0.489311
0.483132
0.476278
0.468944
0.461292
0.453452
0.445522
0.437583
0.429694
0.421899
0.414232
0.40672
0.399384
0.392239
0.385249
0.378358
0.371768
0.366201
0.491929
0.482188
0.478941
0.4783
0.477529
0.475801
0.472866
0.468765
0.463687
0.457848
0.451451
0.444663
0.437622
0.430435
0.423186
0.415941
0.408749
0.401647
0.394667
0.387835
0.381167
0.374625
0.368139
0.361948
0.356928
0.461463
0.452386
0.450073
0.450654
0.451262
0.45094
0.449362
0.446538
0.442644
0.437899
0.43251
0.426653
0.420474
0.414087
0.407582
0.401031
0.394489
0.387998
0.381593
0.375306
0.369156
0.3631
0.357055
0.351294
0.346862
0.428932
0.420561
0.419231
0.421098
0.423162
0.424329
0.424194
0.422728
0.420094
0.416513
0.412198
0.407334
0.402073
0.396538
0.390826
0.385016
0.379169
0.37333
0.36754
0.361836
0.356241
0.350709
0.34514
0.339839
0.336032
0.394507
0.38688
0.386573
0.389777
0.393364
0.396093
0.397474
0.397437
0.396132
0.393779
0.390597
0.386779
0.382488
0.377852
0.372978
0.367951
0.362837
0.357689
0.35255
0.347464
0.342461
0.337488
0.332428
0.327615
0.324467
0.358369
0.351521
0.352265
0.356849
0.36201
0.366361
0.369322
0.370777
0.37086
0.36979
0.367793
0.36507
0.361792
0.358097
0.354099
0.34989
0.345544
0.341119
0.336663
0.332228
0.327848
0.323467
0.31895
0.314651
0.312195
0.320711
0.314671
0.316487
0.322477
0.329252
0.335274
0.339866
0.342865
0.344386
0.344647
0.343877
0.342289
0.340061
0.337341
0.334251
0.33089
0.32734
0.323665
0.319919
0.316161
0.312432
0.308675
0.30473
0.30097
0.299237
0.281733
0.276526
0.279425
0.286835
0.29525
0.302977
0.309239
0.313823
0.316822
0.318451
0.318945
0.318523
0.317374
0.315655
0.313497
0.311007
0.308273
0.305368
0.302353
0.299291
0.296236
0.293128
0.289783
0.286584
0.285607
0.241647
0.237292
0.241274
0.250105
0.260171
0.269623
0.277582
0.28378
0.288287
0.291311
0.293094
0.293862
0.293812
0.293112
0.291902
0.290296
0.288391
0.286267
0.283992
0.28164
0.279273
0.276833
0.274111
0.271493
0.271301
0.200669
0.197182
0.202238
0.212477
0.224189
0.235372
0.245042
0.252871
0.258904
0.263342
0.266429
0.2684
0.269462
0.26979
0.269533
0.268814
0.26774
0.266396
0.264861
0.263218
0.26154
0.259778
0.257692
0.255666
0.256295
0.159023
0.156416
0.162527
0.174146
0.187485
0.20039
0.211771
0.221236
0.228802
0.234661
0.23906
0.242239
0.244414
0.245769
0.246461
0.246622
0.246367
0.24579
0.244978
0.244025
0.243022
0.241926
0.240472
0.239039
0.240524
0.116941
0.11522
0.122356
0.135314
0.150245
0.164849
0.177926
0.189021
0.198116
0.205394
0.211101
0.215484
0.218764
0.221136
0.222762
0.223785
0.224323
0.224482
0.224357
0.224053
0.223679
0.223203
0.222341
0.221471
0.223853
0.0746545
0.0738218
0.0819455
0.0961878
0.112661
0.128925
0.143672
0.156377
0.166988
0.175672
0.182675
0.188248
0.192619
0.195988
0.198525
0.200378
0.201673
0.20252
0.203022
0.203298
0.203475
0.203531
0.203153
0.202749
0.20606
0.0324016
0.0324549
0.0415184
0.0569775
0.0749275
0.0927998
0.109175
0.123459
0.135561
0.145632
0.153912
0.160655
0.166094
0.170435
0.173853
0.176497
0.178499
0.17997