/*--------------------------------*- C++ -*----------------------------------*\
  =========                 |
  \\      /  F ield         | OpenFOAM: The Open Source CFD Toolbox
   \\    /   O peration     | Website:  https://openfoam.org
    \\  /    A nd           | Version:  6.0
     \\/     M anipulation  |
\*---------------------------------------------------------------------------*/
FoamFile
{
    version     2.0;
    format      ascii;
    class       volScalarField;
    location    "14";
    object      p;
}
// * * * * * * * * * * * * * * * * * * * * * * * * * * * * * * * * * * * * * //

dimensions      [0 2 -2 0 0 0 0];

internalField   nonuniform List<scalar> 
12500
(
-0.281117
-0.28218
-0.282898
-0.283438
-0.283902
-0.284304
-0.28466
-0.284985
-0.285288
-0.285578
-0.28586
-0.286139
-0.286418
-0.2867
-0.286989
-0.287287
-0.287598
-0.287925
-0.288271
-0.288641
-0.289041
-0.289474
-0.289903
-0.290312
-0.291087
-0.281223
-0.282277
-0.282989
-0.283525
-0.283984
-0.284383
-0.284735
-0.285055
-0.285355
-0.285641
-0.285919
-0.286193
-0.286467
-0.286744
-0.287028
-0.287321
-0.287626
-0.287948
-0.288288
-0.288652
-0.289047
-0.289475
-0.289898
-0.290301
-0.291073
-0.281439
-0.282477
-0.283178
-0.283704
-0.284155
-0.284545
-0.284889
-0.285202
-0.285493
-0.285771
-0.28604
-0.286306
-0.28657
-0.286838
-0.287112
-0.287394
-0.287689
-0.287999
-0.288329
-0.288682
-0.289066
-0.289484
-0.289898
-0.290289
-0.291056
-0.281764
-0.282776
-0.28346
-0.283973
-0.284411
-0.284789
-0.285121
-0.285422
-0.285701
-0.285966
-0.286222
-0.286474
-0.286725
-0.286978
-0.287236
-0.287503
-0.287781
-0.288075
-0.288387
-0.288724
-0.289092
-0.289494
-0.289894
-0.290269
-0.291027
-0.282192
-0.283173
-0.283835
-0.28433
-0.284751
-0.285113
-0.285428
-0.285713
-0.285975
-0.286223
-0.286461
-0.286694
-0.286926
-0.287158
-0.287395
-0.28764
-0.287896
-0.288166
-0.288456
-0.288769
-0.289115
-0.289497
-0.289877
-0.29023
-0.290976
-0.282718
-0.283662
-0.284298
-0.284771
-0.285171
-0.285512
-0.285807
-0.28607
-0.286311
-0.286536
-0.286751
-0.28696
-0.287166
-0.287373
-0.287582
-0.287798
-0.288024
-0.288265
-0.288525
-0.288808
-0.289125
-0.289481
-0.289835
-0.29016
-0.290891
-0.283338
-0.284239
-0.284845
-0.285293
-0.285668
-0.285983
-0.286253
-0.28649
-0.286704
-0.286901
-0.287088
-0.287266
-0.287441
-0.287614
-0.287789
-0.287969
-0.288158
-0.288361
-0.288583
-0.288829
-0.28911
-0.289431
-0.289754
-0.290046
-0.290758
-0.284044
-0.2849
-0.285473
-0.285891
-0.286237
-0.286523
-0.286762
-0.286968
-0.287149
-0.287314
-0.287465
-0.287607
-0.287743
-0.287876
-0.288009
-0.288145
-0.288289
-0.288446
-0.28862
-0.28882
-0.289056
-0.289336
-0.28962
-0.289872
-0.290562
-0.284831
-0.28564
-0.286177
-0.286563
-0.286875
-0.287127
-0.287331
-0.2875
-0.287644
-0.287769
-0.287879
-0.287977
-0.288068
-0.288153
-0.288235
-0.288319
-0.288408
-0.288509
-0.288628
-0.288771
-0.288953
-0.289183
-0.28942
-0.289625
-0.29029
-0.285694
-0.286454
-0.286953
-0.287303
-0.287579
-0.287792
-0.287956
-0.288084
-0.288184
-0.288263
-0.288325
-0.288374
-0.288411
-0.28844
-0.288464
-0.288486
-0.288512
-0.288546
-0.288597
-0.288674
-0.288791
-0.288959
-0.28914
-0.289292
-0.289929
-0.286628
-0.287341
-0.2878
-0.288111
-0.288346
-0.288516
-0.288635
-0.288716
-0.288767
-0.288795
-0.288803
-0.288795
-0.288772
-0.288738
-0.288694
-0.288645
-0.288597
-0.288554
-0.288526
-0.288524
-0.288563
-0.288659
-0.288772
-0.288862
-0.289469
-0.287633
-0.288297
-0.288714
-0.288984
-0.289174
-0.289297
-0.289366
-0.289395
-0.289392
-0.289363
-0.289311
-0.28924
-0.289151
-0.289046
-0.288927
-0.288799
-0.288665
-0.288535
-0.288415
-0.28832
-0.288267
-0.288275
-0.288307
-0.288324
-0.288897
-0.288705
-0.289323
-0.289696
-0.289922
-0.290063
-0.290134
-0.290149
-0.290121
-0.290059
-0.289968
-0.289852
-0.289713
-0.289552
-0.28937
-0.289169
-0.288952
-0.288725
-0.288494
-0.28827
-0.288066
-0.287906
-0.287808
-0.287742
-0.287672
-0.288205
-0.289847
-0.290417
-0.290746
-0.290923
-0.291012
-0.291027
-0.290983
-0.290894
-0.290768
-0.290611
-0.290427
-0.290216
-0.289979
-0.289716
-0.289428
-0.289116
-0.288787
-0.288445
-0.288103
-0.287775
-0.287486
-0.287263
-0.287074
-0.286895
-0.287379
-0.29106
-0.291583
-0.291864
-0.29199
-0.292021
-0.291976
-0.291869
-0.291714
-0.291521
-0.291296
-0.29104
-0.290755
-0.29044
-0.290093
-0.289714
-0.289304
-0.288865
-0.288404
-0.287931
-0.287461
-0.287024
-0.286647
-0.286307
-0.285986
-0.286403
-0.292349
-0.292824
-0.293054
-0.293124
-0.293094
-0.292983
-0.292808
-0.292584
-0.292321
-0.292024
-0.291696
-0.291335
-0.290941
-0.290511
-0.290041
-0.28953
-0.288979
-0.288391
-0.287775
-0.287147
-0.286536
-0.285976
-0.285443
-0.284935
-0.285254
-0.293719
-0.294144
-0.29432
-0.294329
-0.294232
-0.29405
-0.293803
-0.293505
-0.293168
-0.292798
-0.292396
-0.29196
-0.291489
-0.290976
-0.290417
-0.289807
-0.289143
-0.288425
-0.287659
-0.286856
-0.286047
-0.285266
-0.284492
-0.283731
-0.2839
-0.295179
-0.295551
-0.295667
-0.29561
-0.295439
-0.295181
-0.294854
-0.294479
-0.294065
-0.293618
-0.293141
-0.292632
-0.292085
-0.291493
-0.290849
-0.290144
-0.28937
-0.288523
-0.2876
-0.28661
-0.285578
-0.284538
-0.283462
-0.282361
-0.2823
-0.296738
-0.297051
-0.297103
-0.296971
-0.29672
-0.296377
-0.295966
-0.295506
-0.29501
-0.294485
-0.293932
-0.293349
-0.292728
-0.292062
-0.291338
-0.290543
-0.289665
-0.288692
-0.287613
-0.286427
-0.28515
-0.28381
-0.282365
-0.280813
-0.280406
-0.298408
-0.298656
-0.298634
-0.29842
-0.29808
-0.297644
-0.29714
-0.296589
-0.296006
-0.295397
-0.294766
-0.294107
-0.293414
-0.292675
-0.291876
-0.290999
-0.290024
-0.288932
-0.2877
-0.286314
-0.284776
-0.2831
-0.281216
-0.279082
-0.278169
-0.3002
-0.300376
-0.300272
-0.299966
-0.299526
-0.298987
-0.298381
-0.29773
-0.297052
-0.296354
-0.295638
-0.294901
-0.294135
-0.293325
-0.292454
-0.2915
-0.290437
-0.289235
-0.287861
-0.286281
-0.284476
-0.282439
-0.280057
-0.277205
-0.275581
-0.302131
-0.302225
-0.302028
-0.301619
-0.301067
-0.300414
-0.299694
-0.298933
-0.29815
-0.297354
-0.296548
-0.295727
-0.294884
-0.294002
-0.293062
-0.292037
-0.290896
-0.2896
-0.288102
-0.286349
-0.284296
-0.281905
-0.279009
-0.27534
-0.272757
-0.304218
-0.304217
-0.303915
-0.30339
-0.302713
-0.301933
-0.301087
-0.300204
-0.299306
-0.298402
-0.297496
-0.296585
-0.29566
-0.294704
-0.293698
-0.292611
-0.291408
-0.290042
-0.288455
-0.286572
-0.284315
-0.281608
-0.278213
-0.273622
-0.269687
-0.30648
-0.306371
-0.30595
-0.305294
-0.304479
-0.303557
-0.302571
-0.301554
-0.300528
-0.299505
-0.298491
-0.297482
-0.296471
-0.295442
-0.294375
-0.293243
-0.292009
-0.290626
-0.289028
-0.287121
-0.284787
-0.28187
-0.27796
-0.272092
-0.265965
-0.308939
-0.308706
-0.30815
-0.307348
-0.306378
-0.3053
-0.304161
-0.302996
-0.301831
-0.300679
-0.299547
-0.298434
-0.297334
-0.296236
-0.295123
-0.293977
-0.292773
-0.291482
-0.290061
-0.288449
-0.286558
-0.284227
-0.280888
-0.275127
-0.268187
-0.311621
-0.311244
-0.310536
-0.309571
-0.308431
-0.307181
-0.305875
-0.30455
-0.303235
-0.301944
-0.300687
-0.299466
-0.298276
-0.297114
-0.295972
-0.294846
-0.293734
-0.292648
-0.291613
-0.290693
-0.290021
-0.289827
-0.29045
-0.293385
-0.305026
-0.314553
-0.31401
-0.31313
-0.311985
-0.310658
-0.309222
-0.307735
-0.306239
-0.304763
-0.303327
-0.301939
-0.300606
-0.299328
-0.298106
-0.296944
-0.295852
-0.29485
-0.293981
-0.293318
-0.292985
-0.293194
-0.294271
-0.296663
-0.301619
-0.31375
-0.317763
-0.317029
-0.315956
-0.314613
-0.313083
-0.311446
-0.309767
-0.30809
-0.306446
-0.304858
-0.303336
-0.301889
-0.300523
-0.299243
-0.298064
-0.297005
-0.296105
-0.295423
-0.295054
-0.295139
-0.295889
-0.29759
-0.300581
-0.305517
-0.315422
-0.321281
-0.320328
-0.31904
-0.317481
-0.315731
-0.313881
-0.311999
-0.310132
-0.308315
-0.30657
-0.304911
-0.303348
-0.301891
-0.300551
-0.299346
-0.298305
-0.297471
-0.296912
-0.296719
-0.297021
-0.297984
-0.299816
-0.302714
-0.306946
-0.314494
-0.325138
-0.323934
-0.322409
-0.320614
-0.31863
-0.316554
-0.31446
-0.312397
-0.310401
-0.308495
-0.306696
-0.305014
-0.303459
-0.302047
-0.300796
-0.299736
-0.298912
-0.298383
-0.298226
-0.298538
-0.299431
-0.301026
-0.30341
-0.306625
-0.311917
-0.329363
-0.327875
-0.326088
-0.32404
-0.321807
-0.319495
-0.31718
-0.314915
-0.312735
-0.310665
-0.308718
-0.306907
-0.305242
-0.303734
-0.302403
-0.301275
-0.300386
-0.299782
-0.29952
-0.299661
-0.300268
-0.301394
-0.303057
-0.30519
-0.308528
-0.333986
-0.332177
-0.330103
-0.327785
-0.32529
-0.322731
-0.320188
-0.317715
-0.315347
-0.313104
-0.311
-0.309044
-0.307243
-0.305606
-0.304148
-0.302886
-0.301848
-0.301063
-0.300567
-0.300391
-0.300562
-0.301089
-0.301954
-0.303047
-0.30477
-0.339032
-0.336865
-0.33448
-0.331875
-0.329105
-0.32629
-0.323513
-0.320826
-0.318259
-0.315832
-0.313554
-0.311428
-0.309457
-0.307645
-0.305999
-0.30453
-0.303254
-0.302187
-0.301346
-0.300743
-0.300382
-0.300251
-0.300319
-0.300469
-0.300908
-0.344524
-0.341961
-0.339241
-0.336333
-0.333277
-0.330198
-0.327179
-0.324268
-0.321491
-0.318861
-0.316382
-0.31405
-0.311863
-0.309818
-0.307915
-0.306159
-0.304557
-0.303115
-0.30184
-0.300732
-0.299786
-0.298984
-0.298294
-0.297613
-0.297047
-0.35048
-0.347483
-0.344406
-0.341181
-0.337828
-0.334477
-0.331206
-0.328058
-0.325052
-0.322193
-0.319476
-0.316892
-0.31443
-0.312084
-0.309848
-0.307722
-0.305709
-0.303812
-0.302032
-0.300369
-0.298814
-0.297353
-0.295962
-0.294554
-0.293199
-0.356913
-0.353445
-0.34999
-0.346437
-0.342778
-0.339144
-0.33561
-0.332206
-0.328944
-0.325818
-0.322815
-0.319919
-0.317114
-0.314389
-0.31174
-0.309164
-0.306664
-0.304244
-0.301908
-0.299658
-0.297489
-0.295394
-0.29336
-0.291315
-0.289322
-0.363827
-0.359855
-0.356004
-0.352112
-0.348138
-0.34421
-0.340394
-0.33671
-0.333155
-0.329713
-0.326363
-0.323083
-0.319857
-0.316673
-0.313528
-0.310426
-0.307373
-0.304378
-0.301451
-0.298598
-0.295822
-0.293124
-0.290498
-0.287887
-0.285357
-0.37122
-0.366714
-0.362452
-0.358212
-0.353914
-0.349678
-0.345557
-0.341556
-0.337658
-0.333838
-0.330069
-0.326325
-0.322593
-0.318866
-0.315149
-0.311453
-0.307792
-0.304184
-0.300644
-0.297186
-0.293818
-0.290547
-0.287372
-0.284247
-0.281244
-0.379081
-0.374013
-0.36933
-0.364735
-0.360102
-0.355537
-0.351079
-0.346715
-0.342413
-0.338141
-0.333867
-0.329572
-0.325247
-0.320897
-0.316538
-0.312191
-0.307881
-0.303635
-0.299474
-0.295417
-0.291476
-0.287661
-0.283975
-0.280376
-0.276941
-0.387386
-0.381736
-0.376624
-0.371669
-0.366686
-0.361766
-0.356929
-0.352142
-0.347362
-0.342551
-0.337682
-0.332743
-0.32774
-0.322693
-0.317632
-0.312591
-0.307605
-0.302709
-0.297928
-0.293285
-0.288794
-0.284464
-0.280297
-0.276255
-0.272414
-0.3961
-0.389853
-0.384308
-0.378986
-0.373636
-0.368328
-0.363057
-0.357774
-0.352429
-0.346984
-0.341423
-0.335751
-0.329991
-0.324183
-0.318372
-0.312607
-0.306932
-0.301385
-0.295996
-0.290786
-0.285769
-0.280951
-0.276332
-0.271873
-0.267648
-0.405173
-0.398323
-0.392344
-0.386649
-0.380908
-0.375166
-0.369396
-0.363532
-0.357525
-0.351345
-0.344996
-0.338504
-0.331918
-0.325298
-0.318706
-0.312201
-0.305834
-0.299647
-0.293667
-0.287913
-0.282396
-0.277117
-0.272072
-0.267219
-0.262632
-0.414542
-0.407088
-0.400679
-0.3946
-0.388438
-0.382207
-0.375858
-0.369319
-0.362544
-0.355527
-0.348297
-0.340911
-0.333443
-0.325974
-0.318583
-0.311336
-0.304287
-0.297476
-0.290928
-0.284658
-0.278668
-0.272956
-0.267512
-0.262287
-0.257358
-0.424126
-0.416076
-0.409242
-0.402768
-0.396145
-0.389357
-0.38234
-0.37502
-0.367372
-0.359419
-0.351224
-0.342881
-0.33449
-0.326153
-0.317958
-0.309978
-0.302266
-0.294856
-0.287769
-0.28101
-0.274576
-0.26846
-0.262642
-0.257068
-0.251823
-0.433827
-0.4252
-0.417947
-0.41106
-0.403929
-0.396506
-0.388721
-0.380512
-0.371884
-0.362903
-0.353675
-0.344327
-0.33499
-0.325779
-0.316791
-0.308098
-0.299748
-0.291769
-0.284173
-0.276956
-0.270109
-0.263616
-0.257452
-0.251553
-0.246017
-0.443534
-0.434353
-0.42669
-0.419366
-0.411668
-0.403524
-0.394864
-0.385657
-0.375951
-0.365864
-0.355548
-0.345168
-0.334876
-0.324801
-0.315041
-0.305663
-0.296709
-0.288195
-0.280122
-0.272481
-0.26525
-0.25841
-0.251928
-0.24573
-0.239932
-0.453115
-0.443414
-0.435349
-0.427558
-0.419227
-0.410266
-0.400625
-0.390315
-0.379444
-0.368188
-0.356749
-0.345325
-0.334088
-0.323171
-0.312671
-0.302645
-0.293122
-0.28411
-0.275597
-0.267564
-0.259983
-0.252827
-0.246055
-0.239583
-0.233553
-0.462427
-0.452245
-0.443784
-0.435491
-0.426452
-0.416576
-0.405847
-0.39434
-0.382232
-0.369765
-0.357187
-0.344727
-0.332569
-0.320845
-0.309644
-0.299011
-0.288962
-0.27949
-0.270575
-0.262186
-0.254287
-0.246845
-0.239813
-0.233096
-0.226866
-0.471309
-0.460694
-0.451842
-0.443004
-0.433179
-0.422288
-0.410374
-0.397588
-0.384192
-0.37049
-0.356779
-0.343307
-0.330265
-0.317779
-0.305923
-0.29473
-0.284199
-0.274311
-0.265032
-0.256322
-0.24814
-0.240446
-0.233184
-0.226251
-0.219852
-0.479591
-0.468595
-0.459355
-0.449925
-0.439232
-0.427231
-0.414045
-0.39992
-0.385203
-0.370267
-0.355446
-0.341003
-0.327126
-0.313931
-0.301475
-0.289771
-0.278806
-0.268544
-0.258942
-0.24995
-0.24152
-0.233607
-0.226147
-0.219026
-0.212493
-0.487094
-0.475773
-0.466145
-0.456073
-0.444432
-0.431234
-0.416706
-0.4012
-0.385156
-0.369007
-0.353117
-0.337757
-0.323106
-0.309261
-0.296262
-0.284103
-0.272752
-0.262162
-0.252279
-0.243044
-0.234403
-0.226306
-0.21868
-0.211403
-0.204771
-0.49363
-0.482043
-0.472027
-0.46126
-0.448594
-0.434128
-0.418206
-0.401304
-0.383949
-0.366628
-0.349728
-0.333518
-0.318161
-0.303733
-0.290252
-0.277694
-0.26601
-0.25514
-0.245019
-0.235582
-0.226768
-0.218523
-0.210764
-0.203364
-0.196666
-0.499008
-0.487218
-0.476811
-0.465299
-0.451541
-0.435749
-0.418408
-0.400116
-0.381489
-0.363058
-0.345222
-0.328238
-0.31225
-0.297311
-0.283413
-0.270514
-0.258551
-0.24745
-0.237138
-0.22754
-0.218593
-0.210237
-0.202381
-0.194889
-0.188162
-0.503039
-0.491109
-0.480308
-0.468003
-0.453098
-0.435945
-0.417182
-0.397534
-0.377695
-0.358233
-0.339546
-0.321875
-0.305338
-0.289961
-0.275715
-0.262538
-0.250351
-0.23907
-0.228613
-0.218899
-0.209859
-0.201431
-0.193513
-0.185964
-0.179243
-0.505536
-0.493531
-0.482332
-0.469195
-0.453104
-0.434576
-0.414414
-0.393466
-0.372498
-0.352097
-0.332656
-0.314391
-0.29739
-0.281654
-0.267131
-0.253739
-0.241386
-0.229978
-0.219425
-0.20964
-0.20055
-0.19209
-0.184147
-0.176576
-0.169898
-0.506323
-0.494304
-0.482707
-0.468706
-0.451409
-0.431516
-0.410004
-0.387836
-0.365837
-0.344605
-0.324514
-0.305753
-0.28838
-0.272366
-0.257637
-0.244096
-0.231637
-0.220157
-0.209558
-0.199749
-0.190653
-0.182201
-0.174271
-0.166715
-0.160117
-0.505229
-0.49326
-0.481266
-0.466382
-0.447879
-0.426658
-0.403868
-0.380581
-0.357664
-0.335718
-0.31509
-0.295937
-0.278283
-0.262074
-0.247215
-0.233591
-0.221087
-0.209591
-0.198998
-0.189214
-0.180158
-0.171756
-0.163878
-0.156374
-0.149893
-0.502102
-0.490243
-0.477859
-0.462088
-0.442398
-0.41991
-0.395938
-0.37165
-0.347944
-0.325408
-0.30436
-0.284921
-0.267081
-0.250763
-0.235848
-0.222212
-0.209726
-0.198271
-0.187738
-0.178028
-0.169057
-0.160751
-0.152965
-0.145551
-0.139225
-0.496805
-0.485114
-0.472353
-0.455705
-0.434874
-0.411201
-0.386163
-0.361007
-0.33665
-0.313656
-0.292309
-0.272691
-0.254763
-0.23842
-0.223528
-0.209948
-0.197544
-0.18619
-0.175772
-0.166187
-0.157351
-0.149183
-0.141531
-0.134248
-0.128113
-0.489222
-0.477756
-0.464636
-0.447138
-0.42523
-0.400479
-0.374509
-0.348632
-0.323767
-0.300452
-0.278928
-0.259241
-0.241321
-0.22504
-0.210249
-0.196797
-0.18454
-0.173347
-0.163099
-0.153692
-0.145039
-0.137057
-0.129582
-0.122471
-0.116565
-0.479255
-0.46807
-0.454619
-0.436315
-0.413417
-0.387713
-0.360958
-0.334516
-0.309295
-0.285795
-0.264218
-0.244571
-0.226756
-0.210624
-0.196012
-0.182759
-0.170714
-0.159743
-0.149724
-0.140548
-0.132128
-0.124379
-0.117126
-0.110229
-0.10459
-0.466836
-0.455984
-0.442236
-0.423188
-0.399404
-0.372888
-0.34551
-0.318664
-0.293239
-0.269694
-0.248186
-0.228688
-0.211074
-0.195177
-0.180822
-0.167839
-0.156074
-0.145387
-0.135653
-0.126763
-0.118629
-0.111161
-0.104176
-0.097538
-0.0922031
-0.451916
-0.441449
-0.427448
-0.407732
-0.383186
-0.356013
-0.32818
-0.301096
-0.275621
-0.252167
-0.230849
-0.211606
-0.194287
-0.17871
-0.164689
-0.152049
-0.140629
-0.130288
-0.120899
-0.112351
-0.104555
-0.0974185
-0.0907502
-0.0844164
-0.0794241
-0.434475
-0.424442
-0.41024
-0.389948
-0.364776
-0.337112
-0.308998
-0.281844
-0.25647
-0.233242
-0.212232
-0.193346
-0.176415
-0.161241
-0.14763
-0.135402
-0.124394
-0.114461
-0.105476
-0.097326
-0.0899228
-0.0831698
-0.0768683
-0.0708875
-0.0662757
-0.414519
-0.404968
-0.390625
-0.369861
-0.344213
-0.31623
-0.288011
-0.260952
-0.235828
-0.212956
-0.192367
-0.173939
-0.157483
-0.142793
-0.129666
-0.117918
-0.107386
-0.0979231
-0.0894006
-0.0817065
-0.0747513
-0.068436
-0.0625547
-0.0569781
-0.0527848
-0.39208
-0.383056
-0.36864
-0.34752
-0.321552
-0.293428
-0.26528
-0.238479
-0.213748
-0.191356
-0.171295
-0.15342
-0.137524
-0.123393
-0.11082
-0.0996189
-0.0896252
-0.0806926
-0.0726918
-0.0655112
-0.059061
-0.0532401
-0.0478364
-0.0427196
-0.0389855
-0.367215
-0.358763
-0.344346
-0.322996
-0.296872
-0.268785
-0.240881
-0.214494
-0.190293
-0.168498
-0.149068
-0.131833
-0.116576
-0.103075
-0.0911212
-0.0805289
-0.0711331
-0.0627887
-0.0553673
-0.0487579
-0.0428712
-0.0376046
-0.0327411
-0.028147
-0.0249206
-0.340007
-0.332168
-0.317831
-0.296381
-0.270269
-0.242395
-0.214903
-0.189079
-0.165537
-0.14445
-0.125745
-0.109231
-0.0946843
-0.0818774
-0.0706028
-0.0606751
-0.0519317
-0.0442296
-0.0374425
-0.0314611
-0.0261972
-0.0215476
-0.0172939
-0.0132971
-0.0106359
-0.310562
-0.303377
-0.289203
-0.267789
-0.241855
-0.214367
-0.187449
-0.162329
-0.139567
-0.119289
-0.101392
-0.0856742
-0.0719007
-0.059845
-0.0493008
-0.0400861
-0.0320423
-0.0250304
-0.0189277
-0.0136282
-0.00904579
-0.00507904
-0.00151333
0.00179924
0.00384029
-0.27901
-0.272516
-0.258591
-0.237351
-0.21176
-0.184826
-0.158633
-0.134351
-0.112478
-0.0931
-0.07609
-0.0612311
-0.048286
-0.0370285
-0.0272563
-0.0187926
-0.0114849
-0.00520049
0.000176931
0.00474778
0.00859402
0.0118109
0.0146029
0.0171382
0.0185202
-0.245501
-0.239732
-0.226144
-0.205216
-0.18013
-0.153909
-0.128584
-0.10526
-0.0843773
-0.0659828
-0.0499265
-0.035982
-0.0239101
-0.0134875
-0.00451718
0.00317027
0.00971945
0.0152541
0.019881
0.0236911
0.0267584
0.0291666
0.0311028
0.0327642
0.0334205
-0.210203
-0.205192
-0.192028
-0.171548
-0.147122
-0.121764
-0.0974405
-0.0751857
-0.0553842
-0.038046
-0.0230018
-0.0100177
0.00114586
0.0107079
0.0188585
0.0257587
0.031543
0.0363231
0.0401921
0.043226
0.0454866
0.0470427
0.0480424
0.0486706
0.0483588
-0.173302
-0.169077
-0.156424
-0.136524
-0.112906
-0.0885505
-0.0653506
-0.0442663
-0.0256273
-0.00940995
0.0045721
0.0165585
0.0267879
0.0354748
0.042802
0.048921
0.0539544
0.0579983
0.061124
0.0633832
0.06482
0.0654732
0.0653748
0.064563
0.062753
-0.134997
-0.131585
-0.119525
-0.100332
-0.0776602
-0.0544379
-0.0324725
-0.0126495
0.0047545
0.0197943
0.0326711
0.0436292
0.0529066
0.060714
0.0672287
0.0725952
0.076926
0.0803011
0.0827657
0.0843396
0.085039
0.0848219
0.0834187
0.0805223
0.0767075
-0.0955017
-0.0929231
-0.081538
-0.0631709
-0.0415737
-0.0196022
0.00102876
0.0195094
0.0356139
0.0494256
0.0611586
0.0710613
0.0793715
0.0862982
0.0920177
0.0966741
0.100381
0.103217
0.105224
0.106426
0.106849
0.106362
0.104248
0.0998058
0.095105
-0.0550395
-0.0533117
-0.0426752
-0.0252451
-0.00483963
0.015775
0.0349829
0.0520495
0.0667973
0.0793353
0.0898886
0.0987086
0.106032
0.112069
0.116995
0.12096
0.124087
0.126475
0.1282
0.129359
0.130102
0.130383
0.129317
0.126378
0.128683
-0.013833
-0.0129715
-0.00315381
0.0132371
0.0323452
0.0515092
0.0692163
0.0848066
0.0981478
0.109372
0.118712
0.12642
0.132734
0.137858
0.14197
0.145221
0.147737
0.149627
0.150986
0.15194
0.15265
0.153098
0.152788
0.152148
0.156721
0.0278819
0.0278664
0.0368022
0.0520626
0.0697808
0.0874134
0.103554
0.117616
0.129508
0.139383
0.147479
0.15405
0.159327
0.163514
0.166785
0.169291
0.171159
0.172502
0.173424
0.174048
0.174516
0.174804
0.174561
0.17428
0.178344
0.0698682
0.0689693
0.0769681
0.0910181
0.107268
0.123302
0.137823
0.150314
0.160724
0.169221
0.176048
0.181455
0.185669
0.18889
0.191286
0.193005
0.194171
0.194895
0.195278
0.195438
0.195501
0.195449
0.194984
0.194507
0.197618
0.111888
0.110104
0.117119
0.129891
0.144607
0.15899
0.171852
0.182742
0.191645
0.198742
0.20428
0.208503
0.211634
0.213863
0.215354
0.216247
0.216662
0.216702
0.216461
0.216046
0.215562
0.214981
0.214033
0.213091
0.21529
0.153706
0.151039
0.157031
0.168471
0.181604
0.194298
0.205472
0.214741
0.222123
0.22781
0.232047
0.235073
0.237104
0.238322
0.238884
0.238922
0.238547
0.237856
0.236934
0.235874
0.234765
0.233567
0.23203
0.230524
0.231841
0.195087
0.191544
0.196485
0.206552
0.218067
0.229048
0.238521
0.246163
0.25202
0.256293
0.259226
0.261051
0.261975
0.262172
0.26179
0.260952
0.259763
0.25831
0.256669
0.254923
0.253145
0.251286
0.249119
0.247022
0.247494
0.235802
0.231394
0.235265
0.243932
0.25381
0.263069
0.27084
0.27686
0.281199
0.284067
0.285702
0.28633
0.286149
0.285324
0.283994
0.282274
0.28026
0.278031
0.275655
0.273205
0.270741
0.268209
0.26541
0.262721
0.262384
0.275626
0.270369
0.273161
0.280415
0.288651
0.296195
0.302278
0.306693
0.309533
0.311012
0.311366
0.310811
0.309537
0.307699
0.305427
0.302828
0.29999
0.296984
0.293872
0.290717
0.287569
0.284374
0.280954
0.277688
0.276574
0.314342
0.308257
0.30997
0.315811
0.322417
0.328265
0.332688
0.335527
0.336897
0.337016
0.336113
0.334399
0.332051
0.329218
0.32602
0.322555
0.318905
0.315134
0.311297
0.307449
0.303632
0.299791
0.295774
0.291948
0.290089
0.351741
0.344852
0.345496
0.34994
0.354941
0.359128
0.361929
0.363233
0.363174
0.36197
0.359846
0.357004
0.353612
0.349809
0.345709
0.341401
0.33696
0.332443
0.3279
0.323379
0.318915
0.314455
0.309869
0.305506
0.302932
0.387619
0.379957
0.379554
0.382626
0.386062
0.388637
0.389868
0.389689
0.388249
0.385769
0.382468
0.378538
0.374139
0.369401
0.36443
0.359309
0.354105
0.348869
0.343647
0.33848
0.333397
0.328348
0.323223
0.318348
0.31509
0.421787
0.413384
0.411964
0.413707
0.41563
0.416653
0.416377
0.414777
0.412017
0.408317
0.403889
0.398919
0.393557
0.387925
0.382121
0.376223
0.37029
0.364369
0.358499
0.352718
0.347048
0.341443
0.335811
0.330451
0.326541
0.454062
0.444957
0.442559
0.443024
0.443501
0.443044
0.441336
0.438387
0.434375
0.429518
0.424023
0.418067
0.411793
0.405314
0.398722
0.392087
0.385465
0.378896
0.372415
0.366055
0.359833
0.353708
0.347603
0.341785
0.337259
0.484274
0.474509
0.471181
0.470433
0.469541
0.467689
0.464632
0.460416
0.455227
0.449284
0.442788
0.435907
0.428777
0.421504
0.414173
0.406849
0.39958
0.392405
0.385353
0.378452
0.371716
0.365108
0.358565
0.352319
0.347213
0.512264
0.501885
0.497685
0.495798
0.493626
0.490472
0.48616
0.480765
0.474484
0.467533
0.460108
0.452369
0.444444
0.436435
0.428418
0.420454
0.412588
0.404852
0.397272
0.389871
0.38266
0.375609
0.368662
0.362021
0.356374
0.537885
0.526943
0.521934
0.518993
0.51564
0.511288
0.505822
0.499345
0.492062
0.484188
0.47591
0.467384
0.458732
0.450048
0.441404
0.432855
0.424441
0.416192
0.408129
0.400272
0.392629
0.385173
0.377862
0.370857
0.364712
0.561006
0.549553
0.543806
0.539905
0.535479
0.53004
0.52353
0.516075
0.507886
0.499177
0.49013
0.480894
0.471585
0.462291
0.453081
0.444004
0.435096
0.426384
0.417887
0.409619
0.401588
0.393769
0.386129
0.378797
0.372201
0.581504
0.569597
0.56319
0.558432
0.553048
0.546642
0.539204
0.53088
0.521887
0.512436
0.502707
0.492841
0.482949
0.473115
0.463403
0.453858
0.444513
0.435391
0.426509
0.417878
0.409503
0.401364
0.393436
0.385811
0.378812
0.599274
0.586973
0.579989
0.574482
0.568264
0.561017
0.552773
0.543695
0.534004
0.52391
0.513588
0.503176
0.492779
0.482477
0.472329
0.462378
0.452654
0.443178
0.433963
0.425018
0.416345
0.40793
0.399752
0.391874
0.384525
0.614224
0.601591
0.594119
0.587978
0.581055
0.573099
0.564175
0.554462
0.544183
0.533549
0.522728
0.511856
0.501034
0.490338
0.479824
0.469532
0.45949
0.449715
0.44022
0.43101
0.422088
0.413442
0.405054
0.396963
0.389317
0.626278
0.613376
0.605508
0.598854
0.591362
0.582832
0.573359
0.563133
0.552381
0.54131
0.530087
0.518845
0.50768
0.496666
0.485857
0.47529
0.464991
0.454976
0.445255
0.435833
0.42671
0.417877
0.409321
0.401058
0.393172
0.635372
0.622267
0.614099
0.607057
0.599134
0.590171
0.580284
0.569671
0.558561
0.54716
0.535635
0.524112
0.512688
0.501435
0.490403
0.479629
0.469136
0.458941
0.44905
0.439467
0.430193
0.421219
0.412537
0.404143
0.396075
0.641461
0.628219
0.619851
0.612547
0.604335
0.595082
0.584917
0.574045
0.562696
0.551074
0.539346
0.527636
0.516039
0.504625
0.493445
0.482532
0.471909
0.461592
0.451587
0.441898
0.432522
0.423455
0.414687
0.406206
0.398016
0.644512
0.631202
0.622733
0.615299
0.606941
0.597543
0.587239
0.576236
0.564767
0.553035
0.541205
0.529401
0.517717
0.506223
0.494968
0.483985
0.473298
0.46292
0.452858
0.443115
0.433688
0.424574
0.415764
0.407239
0.398988
0.64451
0.631201
0.622731
0.615297
0.60694
0.597542
0.587237
0.576235
0.564766
0.553034
0.541204
0.5294
0.517716
0.506222
0.494967
0.483984
0.473297
0.462919
0.452858
0.443114
0.433687
0.424573
0.415763
0.407239
0.398987
0.641456
0.628215
0.619846
0.612543
0.604331
0.595078
0.584913
0.574041
0.562692
0.551071
0.539342
0.527632
0.516036
0.504622
0.493442
0.482529
0.471907
0.461589
0.451585
0.441895
0.432519
0.423452
0.414685
0.406204
0.398014
0.635364
0.622259
0.614092
0.60705
0.599127
0.590164
0.580277
0.569665
0.558555
0.547155
0.535629
0.524107
0.512683
0.50143
0.490399
0.479625
0.469132
0.458936
0.449045
0.439463
0.430189
0.421216
0.412533
0.404139
0.396071
0.626267
0.613365
0.605497
0.598844
0.591352
0.582823
0.57335
0.563125
0.552373
0.541302
0.53008
0.518837
0.507673
0.496659
0.48585
0.475284
0.464985
0.45497
0.445249
0.435828
0.426704
0.417872
0.409316
0.401053
0.393166
0.61421
0.601577
0.594105
0.587965
0.581043
0.573087
0.564163
0.554451
0.544173
0.533538
0.522718
0.511847
0.501025
0.490329
0.479815
0.469524
0.459482
0.449707
0.440212
0.431003
0.422081
0.413435
0.405047
0.396956
0.38931
0.599257
0.586956
0.579972
0.574466
0.568248
0.561002
0.552758
0.543681
0.533991
0.523898
0.513576
0.503164
0.492768
0.482466
0.472319
0.462368
0.452644
0.443168
0.433953
0.425008
0.416336
0.407921
0.399743
0.391866
0.384517
0.581483
0.569577
0.56317
0.558412
0.553029
0.546624
0.539187
0.530864
0.521872
0.512422
0.502692
0.492827
0.482936
0.473102
0.46339
0.453845
0.444501
0.435379
0.426498
0.417867
0.409492
0.401354
0.393425
0.385801
0.378803
0.560981
0.549529
0.543782
0.539883
0.535457
0.530019
0.52351
0.516056
0.507868
0.499159
0.490113
0.480878
0.471569
0.462276
0.453066
0.443989
0.435082
0.426371
0.417874
0.409606
0.401575
0.393757
0.386118
0.378785
0.37219
0.537858
0.526916
0.521907
0.518967
0.515615
0.511264
0.5058
0.499324
0.492042
0.484168
0.475891
0.467366
0.458715
0.450031
0.441388
0.432839
0.424425
0.416176
0.408114
0.400257
0.392615
0.38516
0.377848
0.370844
0.3647
0.512232
0.501854
0.497654
0.495769
0.493598
0.490445
0.486134
0.480741
0.474461
0.467511
0.460086
0.452348
0.444424
0.436415
0.4284
0.420436
0.41257
0.404834
0.397255
0.389854
0.382645
0.375593
0.368647
0.362006
0.35636
0.484239
0.474474
0.471147
0.4704
0.46951
0.467659
0.464604
0.460388
0.455201
0.449259
0.442764
0.435884
0.428755
0.421483
0.414152
0.406828
0.39956
0.392386
0.385335
0.378434
0.371698
0.365091
0.358548
0.352303
0.347197
0.454023
0.444918
0.442521
0.442988
0.443467
0.443011
0.441305
0.438357
0.434346
0.42949
0.423997
0.418041
0.411768
0.40529
0.398699
0.392065
0.385443
0.378875
0.372395
0.366034
0.359813
0.353689
0.347584
0.341767
0.337241
0.421744
0.413341
0.411922
0.413667
0.415592
0.416617
0.416343
0.414744
0.411985
0.408286
0.40386
0.398891
0.393529
0.387899
0.382096
0.376198
0.370266
0.364346
0.358476
0.352695
0.347026
0.341422
0.335791
0.330431
0.326522
0.387572
0.37991
0.379508
0.382583
0.386021
0.388597
0.38983
0.389653
0.388215
0.385736
0.382436
0.378507
0.374109
0.369372
0.364402
0.359282
0.354078
0.348844
0.343622
0.338456
0.333374
0.328326
0.323201
0.318326
0.315069
0.351689
0.344801
0.345447
0.349892
0.354896
0.359085
0.361888
0.363194
0.363136
0.361934
0.359811
0.35697
0.35358
0.349778
0.345678
0.341372
0.336931
0.332416
0.327873
0.323353
0.31889
0.314431
0.309845
0.305483
0.30291
0.314287
0.308202
0.309916
0.315759
0.322368
0.328219
0.332644
0.335484
0.336857
0.336977
0.336076
0.334363
0.332017
0.329184
0.325987
0.322524
0.318875
0.315104
0.311268
0.30742
0.303604
0.299764
0.295748
0.291923
0.290065
0.275566
0.27031
0.273102
0.280359
0.288598
0.296144
0.30223
0.306647
0.309489
0.31097
0.311325
0.310772
0.309499
0.307662
0.305391
0.302794
0.299957
0.296952
0.293841
0.290686
0.28754
0.284345
0.280926
0.27766
0.276547
0.235737
0.23133
0.235202
0.243872
0.253753
0.263014
0.270789
0.276811
0.281152
0.284021
0.285658
0.286288
0.286109
0.285285
0.283956
0.282238
0.280225
0.277996
0.275621
0.273172
0.270709
0.268178
0.265379
0.262692
0.262355
0.195018
0.191475
0.196418
0.206487
0.218006
0.228989
0.238465
0.24611
0.251969
0.256244
0.259179
0.261006
0.261931
0.26213
0.261749
0.260913
0.259725
0.258273
0.256633
0.254888
0.253111
0.251252
0.249087
0.24699
0.247464
0.153632
0.150965
0.156959
0.168402
0.181538
0.194235
0.205412
0.214685
0.222069
0.227758
0.231997
0.235025
0.237057
0.238277
0.238841
0.238879
0.238506
0.237816
0.236895
0.235836
0.234728
0.233532
0.231995
0.230491
0.231808
0.111809
0.110025
0.117042
0.129817
0.144537
0.158924
0.171788
0.182681
0.191587
0.198687
0.204227
0.208452
0.211584
0.213815
0.215307
0.216202
0.216618
0.216659
0.21642
0.216006
0.215523
0.214943
0.213996
0.213054
0.215255
0.0697838
0.0688854
0.0768863
0.0909396
0.107193
0.123231
0.137756
0.15025
0.160663
0.169162
0.175991
0.1814
0.185616
0.188839
0.191237
0.192957
0.194125
0.19485
0.195234
0.195395
0.195459
0.195408
0.194944
0.194469
0.197581
0.0277924
0.0277773
0.0367154
0.0519793
0.0697014
0.087338
0.103483
0.117548
0.129443
0.13932
0.147419
0.153992
0.15927
0.163459
0.166732
0.169239
0.17111
0.172454