/*--------------------------------*- C++ -*----------------------------------*\
  =========                 |
  \\      /  F ield         | OpenFOAM: The Open Source CFD Toolbox
   \\    /   O peration     | Website:  https://openfoam.org
    \\  /    A nd           | Version:  6.0
     \\/     M anipulation  |
\*---------------------------------------------------------------------------*/
FoamFile
{
    version     2.0;
    format      ascii;
    class       surfaceScalarField;
    location    "14";
    object      phi;
}
// * * * * * * * * * * * * * * * * * * * * * * * * * * * * * * * * * * * * * //

dimensions      [0 3 -1 0 0 0 0];

internalField   nonuniform List<scalar> 
24700
(
-1.83401e-06
1.74472e-06
8.9285e-08
-6.59203e-06
4.53314e-06
2.24887e-07
-1.36967e-05
6.77787e-06
3.2677e-07
-2.26776e-05
8.57946e-06
4.01504e-07
-3.31513e-05
1.00191e-05
4.54591e-07
-4.48079e-05
1.11658e-05
4.90698e-07
-5.74002e-05
1.20786e-05
5.13744e-07
-7.07354e-05
1.28082e-05
5.2698e-07
-8.4667e-05
1.33985e-05
5.33065e-07
-9.90888e-05
1.38876e-05
5.34144e-07
-0.000113929
1.43088e-05
5.31914e-07
-0.000129148
1.4691e-05
5.27695e-07
-0.00014473
1.50593e-05
5.22491e-07
-0.000160683
1.54356e-05
5.17042e-07
-0.000177033
1.58385e-05
5.11876e-07
-0.000193824
1.62837e-05
5.07346e-07
-0.000211112
1.67841e-05
5.0367e-07
-0.000228963
1.73501e-05
5.00952e-07
-0.000247451
1.79893e-05
4.99208e-07
-0.000266657
1.8707e-05
4.98373e-07
-0.000286661
1.9506e-05
4.9832e-07
-0.000307547
2.0387e-05
4.98864e-07
-0.000329395
2.13484e-05
4.99769e-07
-0.000352284
2.23876e-05
5.00781e-07
2.35042e-05
5.01661e-07
-0.000376289
-1.81798e-06
3.5627e-06
-6.53642e-06
9.25158e-06
-1.35824e-05
1.38238e-05
-2.24878e-05
1.74849e-05
-3.28701e-05
2.04014e-05
-4.44192e-05
2.27149e-05
-5.68874e-05
2.45468e-05
-7.00803e-05
2.60012e-05
-8.38498e-05
2.7168e-05
-9.80876e-05
2.81254e-05
-0.00011272
2.89412e-05
-0.000127704
2.96746e-05
-0.000143021
3.03768e-05
-0.000158678
3.10922e-05
-0.000174698
3.18587e-05
-0.000191123
3.27085e-05
-0.000208006
3.36679e-05
-0.000225414
3.47581e-05
-0.00024342
3.59949e-05
-0.000262102
3.73891e-05
-0.000281543
3.89469e-05
-0.000301826
4.06697e-05
-0.000323032
4.25544e-05
-0.00034524
4.45957e-05
4.67923e-05
-0.000368528
-1.78614e-06
5.34885e-06
-6.42584e-06
1.38913e-05
-1.3355e-05
2.0753e-05
-2.21102e-05
2.62401e-05
-3.23107e-05
3.06019e-05
-4.36465e-05
3.40508e-05
-5.58684e-05
3.67687e-05
-6.87795e-05
3.89123e-05
-8.22282e-05
4.06167e-05
-9.61021e-05
4.19992e-05
-0.000110323
4.3162e-05
-0.000124842
4.41939e-05
-0.000139638
4.51723e-05
-0.00015471
4.6164e-05
-0.000170078
4.72269e-05
-0.000185779
4.84097e-05
-0.000201864
4.97532e-05
-0.000218396
5.12901e-05
-0.000235447
5.30453e-05
-0.000253094
5.50361e-05
-0.00027142
5.7273e-05
-0.000290509
5.9759e-05
-0.000310445
6.24901e-05
-0.000331308
6.54584e-05
6.8662e-05
-0.000353177
-1.73997e-06
7.08881e-06
-6.26505e-06
1.84164e-05
-1.30239e-05
2.75118e-05
-2.15596e-05
3.47759e-05
-3.14945e-05
4.05367e-05
-4.25186e-05
4.50748e-05
-5.43806e-05
4.86308e-05
-6.68801e-05
5.14118e-05
-7.98604e-05
5.3597e-05
-9.32031e-05
5.53419e-05
-0.000106823
5.67821e-05
-0.000120665
5.80357e-05
-0.000134698
5.92057e-05
-0.000148916
6.0382e-05
-0.000163332
6.16421e-05
-0.000177975
6.30528e-05
-0.000192891
6.46697e-05
-0.000208139
6.65385e-05
-0.000223789
6.86948e-05
-0.000239917
7.11639e-05
-0.000256606
7.3962e-05
-0.000273942
7.70951e-05
-0.000292011
8.05595e-05
-0.000310899
8.43458e-05
8.84508e-05
-0.000330687
-1.68154e-06
8.77036e-06
-6.06082e-06
2.27956e-05
-1.26022e-05
3.40531e-05
-2.08573e-05
4.3031e-05
-3.04518e-05
5.01313e-05
-4.10762e-05
5.56992e-05
-5.24769e-05
6.00314e-05
-6.44486e-05
6.33835e-05
-7.68287e-05
6.5977e-05
-8.9491e-05
6.80042e-05
-0.000102342
6.96328e-05
-0.000115315
7.10095e-05
-0.000128372
7.22627e-05
-0.000141495
7.35049e-05
-0.000154688
7.48343e-05
-0.000167971
7.63358e-05
-0.000181383
7.80819e-05
-0.000194977
8.01327e-05
-0.000208818
8.25363e-05
-0.000222983
8.53286e-05
-0.000237555
8.85335e-05
-0.000252622
9.21624e-05
-0.000268276
9.62137e-05
-0.000284608
0.000100678
0.00010555
-0.000301708
-1.61342e-06
1.03838e-05
-5.8214e-06
2.70036e-05
-1.21061e-05
4.03378e-05
-2.00288e-05
5.09537e-05
-2.92196e-05
5.93221e-05
-3.93693e-05
6.58489e-05
-5.02217e-05
7.08838e-05
-6.15666e-05
7.47285e-05
-7.32341e-05
7.76445e-05
-8.50891e-05
7.98592e-05
-9.70273e-05
8.1571e-05
-0.000108972
8.2954e-05
-0.00012087
8.41611e-05
-0.000132693
8.53276e-05
-0.000144431
8.65722e-05
-0.000156094
8.79994e-05
-0.000167712
8.96995e-05
-0.000179329
9.17495e-05
-0.000191005
9.42127e-05
-0.000202815
9.71382e-05
-0.000214842
0.000100561
-0.000227181
0.000104501
-0.00023993
0.000108962
-0.000253188
0.000113936
0.000119419
-0.000267057
-1.53844e-06
1.19222e-05
-5.55593e-06
3.10211e-05
-1.15534e-05
4.63353e-05
-1.91026e-05
5.85028e-05
-2.78385e-05
6.8058e-05
-3.74526e-05
7.54631e-05
-4.76864e-05
8.11176e-05
-5.83244e-05
8.53665e-05
-6.91889e-05
8.8509e-05
-8.01349e-05
9.08052e-05
-9.10463e-05
9.24825e-05
-0.000101833
9.37407e-05
-0.000112428
9.47565e-05
-0.000122787
9.56867e-05
-0.000132886
9.66712e-05
-0.000142721
9.78344e-05
-0.000152308
9.92863e-05
-0.000161682
0.000101123
-0.000170895
0.000103426
-0.00018002
0.000106262
-0.00018914
0.000109682
-0.000198356
0.000113717
-0.000207776
0.000118382
-0.000217515
0.000123675
0.000129593
-0.000227689
-1.45948e-06
1.33817e-05
-5.27377e-06
3.48354e-05
-1.09625e-05
5.2024e-05
-1.81078e-05
6.56482e-05
-2.63501e-05
7.63003e-05
-3.53824e-05
8.44953e-05
-4.49438e-05
9.0679e-05
-5.48139e-05
9.52366e-05
-6.48073e-05
9.85024e-05
-7.47687e-05
0.000100767
-8.45698e-05
0.000102284
-9.41057e-05
0.000103277
-0.000103294
0.000103944
-0.000112071
0.000104465
-0.000120398
0.000104997
-0.000128251
0.000105688
-0.000135631
0.000106667
-0.00014256
0.000108052
-0.000149081
0.000109947
-0.000155259
0.000112441
-0.000161181
0.000115604
-0.000166953
0.000119489
-0.000172696
0.000124126
-0.000178546
0.000129525
0.000135689
-0.000184642
-1.37933e-06
1.4761e-05
-4.98383e-06
3.84399e-05
-1.03504e-05
5.73907e-05
-1.70717e-05
7.23694e-05
-2.47936e-05
8.40222e-05
-3.32109e-05
9.29126e-05
-4.20614e-05
9.95295e-05
-5.11206e-05
0.000104296
-6.01959e-05
0.000107578
-6.91222e-05
0.000109693
-7.77584e-05
0.00011092
-8.59849e-05
0.000111503
-9.37013e-05
0.000111661
-0.000100827
0.00011159
-0.000107299
0.000111469
-0.000113076
0.000111465
-0.000118138
0.000111729
-0.00012249
0.000112404
-0.000126161
0.000113618
-0.000129209
0.000115488
-0.000131718
0.000118113
-0.000133802
0.000121573
-0.000135599
0.000125923
-0.000137269
0.000131195
0.000137407
-0.000138986
-1.30042e-06
1.60615e-05
-4.69387e-06
4.18333e-05
-9.73235e-06
6.24291e-05
-1.60178e-05
7.86549e-05
-2.3202e-05
9.12063e-05
-3.09821e-05
0.000100693
-3.90959e-05
0.000107643
-4.73156e-05
0.000112515
-5.54428e-05
0.000115705
-6.33038e-05
0.000117554
-7.07459e-05
0.000118362
-7.76343e-05
0.000118392
-8.38514e-05
0.000117878
-8.92955e-05
0.000117034
-9.38823e-05
0.000116056
-9.75464e-05
0.000115129
-0.000100244
0.000114427
-0.000101957
0.000114117
-0.000102697
0.000114358
-0.000102508
0.000115299
-0.00010147
0.000117075
-9.97021e-05
0.000119805
-9.73617e-05
0.000123582
-9.46409e-05
0.000128474
0.000134525
-9.17591e-05
-1.22466e-06
1.72861e-05
-4.40995e-06
4.50186e-05
-9.11961e-06
6.71388e-05
-1.49637e-05
8.4499e-05
-2.15994e-05
9.78421e-05
-2.87274e-05
0.000107821
-3.60862e-05
0.000115002
-4.34469e-05
0.000119876
-5.06071e-05
0.000122865
-5.73862e-05
0.000124333
-6.36216e-05
0.000124597
-6.91653e-05
0.000123935
-7.38826e-05
0.000122595
-7.76515e-05
0.000120803
-8.03639e-05
0.000118769
-8.19282e-05
0.000116693
-8.22728e-05
0.000114771
-8.13521e-05
0.000113196
-7.9152e-05
0.000112158
-7.56972e-05
0.000111844
-7.10579e-05
0.000112436
-6.53548e-05
0.000114102
-5.87635e-05
0.000116991
-5.15147e-05
0.000121225
0.000126897
-4.38869e-05
-1.15334e-06
1.84395e-05
-4.13594e-06
4.80012e-05
-8.5192e-06
7.15221e-05
-1.39194e-05
8.98992e-05
-1.99987e-05
0.000103921
-2.64616e-05
0.000114284
-3.30491e-05
0.00012159
-3.95329e-05
0.00012636
-4.5709e-05
0.000129041
-5.13927e-05
0.000130017
-5.64142e-05
0.000129619
-6.06147e-05
0.000128136
-6.38449e-05
0.000125825
-6.59637e-05
0.000122922
-6.68397e-05
0.000119644
-6.63533e-05
0.000116207
-6.44022e-05
0.00011282
-6.09075e-05
0.000109702
-5.5823e-05
0.000107073
-4.91451e-05
0.000105166
-4.09246e-05
0.000104215
-3.12774e-05
0.000104455
-2.03945e-05
0.000106108
-8.54863e-06
0.000109379
0.000114441
3.9078e-06
-1.08703e-06
1.95265e-05
-3.87332e-06
5.07875e-05
-7.93309e-06
7.55818e-05
-1.28863e-05
9.48524e-05
-1.83993e-05
0.000109434
-2.41806e-05
0.000120065
-2.99749e-05
0.000127384
-3.55563e-05
0.000131941
-4.07221e-05
0.000134207
-4.52867e-05
0.000134582
-4.90766e-05
0.000133409
-5.1926e-05
0.000130985
-5.36747e-05
0.000127574
-5.41659e-05
0.000123413
-5.32467e-05
0.000118725
-5.0771e-05
0.000113731
-4.66036e-05
0.000108653
-4.06288e-05
0.000103727
-3.27606e-05
9.92052e-05
-2.29574e-05
9.5363e-05
-1.1239e-05
9.24969e-05
2.29523e-06
9.09208e-05
1.74468e-05
9.09566e-05
3.39007e-05
9.29255e-05
9.71246e-05
5.12167e-05
-1.02559e-06
2.05521e-05
-3.62104e-06
5.3383e-05
-7.35801e-06
7.93188e-05
-1.1857e-05
9.93513e-05
-1.67869e-05
0.000114364
-2.186e-05
0.000125138
-2.68254e-05
0.000132349
-3.14615e-05
0.000136577
-3.55691e-05
0.000138314
-3.8965e-05
0.000137977
-4.1476e-05
0.00013592
-4.29344e-05
0.000132444
-4.31739e-05
0.000127814
-4.20274e-05
0.000122266
-3.93258e-05
0.000116024
-3.48996e-05
0.000109305
-2.85828e-05
0.000102336
-2.02212e-05
9.53651e-05
-9.68392e-06
8.86679e-05
3.11838e-06
8.25607e-05
1.8211e-05
7.74044e-05
3.55266e-05
7.36051e-05
5.4874e-05
7.16092e-05
7.59024e-05
7.18972e-05
7.49542e-05
9.80729e-05
-9.6822e-07
2.15203e-05
-3.37579e-06
5.57906e-05
-6.7858e-06
8.27288e-05
-1.08154e-05
0.000103381
-1.51338e-05
0.000118683
-1.9456e-05
0.00012946
-2.3535e-05
0.000136428
-2.71546e-05
0.000140197
-3.01207e-05
0.000141281
-3.22555e-05
0.000140112
-3.33901e-05
0.000137054
-3.33598e-05
0.000132413
-3.19987e-05
0.000126452
-2.91362e-05
0.000119404
-2.45948e-05
0.000111482
-1.81891e-05
0.000102899
-9.72867e-06
9.38758e-05
9.75973e-07
8.46604e-05
1.41013e-05
7.55426e-05
2.97916e-05
6.68705e-05
4.81303e-05
5.90656e-05
6.91023e-05
5.26331e-05
9.25448e-05
4.81667e-05
0.000118088
4.6354e-05
4.79512e-05
0.000145091
-9.13581e-07
2.24339e-05
-3.13225e-06
5.80092e-05
-6.20403e-06
8.58006e-05
-9.73812e-06
0.000106915
-1.34006e-05
0.000122345
-1.69068e-05
0.000132966
-2.00128e-05
0.000139534
-2.25065e-05
0.000142691
-2.42001e-05
0.000142974
-2.49223e-05
0.000140834
-2.45118e-05
0.000136644
-2.2811e-05
0.000130713
-1.9661e-05
0.000123302
-1.48961e-05
0.000114639
-8.34029e-06
0.000104926
1.96098e-07
9.43626e-05
1.09165e-05
8.31554e-05
2.4035e-05
7.15419e-05
3.97671e-05
5.98105e-05
5.83117e-05
4.83259e-05
7.98198e-05
3.75574e-05
0.000104348
2.81051e-05
0.00013179
2.07241e-05
0.000161788
1.63568e-05
1.61316e-05
0.000193607
-8.59945e-07
2.32938e-05
-2.8836e-06
6.00329e-05
-5.59693e-06
8.85139e-05
-8.59565e-06
0.000109914
-1.15383e-05
0.000125288
-1.4137e-05
0.000135565
-1.61475e-05
0.000141545
-1.73604e-05
0.000143904
-1.75918e-05
0.000143206
-1.6677e-05
0.000139919
-1.44628e-05
0.000134429
-1.0802e-05
0.000127052
-5.54739e-06
0.000118048
1.45352e-06
0.000107638
1.03642e-05
9.60157e-05
2.13641e-05
8.33628e-05
3.4652e-05
6.98675e-05
5.04479e-05
5.5746e-05
6.89888e-05
4.12695e-05
9.05159e-05
2.67988e-05
0.000115246
1.28273e-05
0.000143321
3.06461e-08
0.000174723
-1.06783e-05
0.000209147
-1.80675e-05
-2.05238e-05
0.000245803
-8.05357e-07
2.40992e-05
-2.62204e-06
6.18496e-05
-4.94643e-06
9.08383e-05
-7.35441e-06
0.000112322
-9.49137e-06
0.000127425
-1.10611e-05
0.000137135
-1.18146e-05
0.000142298
-1.154e-05
0.000143629
-1.00543e-05
0.00014172
-7.19545e-06
0.000137061
-2.81677e-06
0.000130051
3.21905e-06
0.000121016
1.1045e-05
0.000110222
2.07948e-05
9.78882e-05
3.26093e-05
8.42013e-05
4.66416e-05
6.93304e-05
6.30651e-05
5.34441e-05
8.20783e-05
3.67328e-05
0.00010391
1.94383e-05
0.000128813
1.89548e-06
0.00015705
-1.54094e-05
0.000188843
-3.1763e-05
0.000224291
-4.61259e-05
0.000263196
-5.69731e-05
-6.21027e-05
0.000304775
-7.47769e-07
2.48469e-05
-2.33922e-06
6.3441e-05
-4.23311e-06
9.27322e-05
-5.97833e-06
0.000114067
-7.20048e-06
0.000128647
-7.58846e-06
0.000137523
-6.88186e-06
0.000141592
-4.86021e-06
0.000141607
-1.33417e-06
0.000138194
3.86132e-06
0.000131865
1.08725e-05
0.00012304
1.98309e-05
0.000112057
3.08575e-05
9.91954e-05
4.40662e-05
8.46795e-05
5.95682e-05
6.86993e-05
7.74782e-05
5.14204e-05
9.79215e-05
3.30008e-05
0.000121044
1.36103e-05
0.000147023
-6.54073e-06
0.000176076
-2.71578e-05
0.000208461
-4.77943e-05
0.000244449
-6.77512e-05
0.000284252
-8.59288e-05
0.00032784
-0.000100561
-0.000108805
0.000374542
-6.85108e-07
2.55321e-05
-2.02648e-06
6.47824e-05
-3.43675e-06
9.41425e-05
-4.43002e-06
0.00011506
-4.6045e-06
0.000128821
-3.62648e-06
0.000136545
-1.21606e-06
0.000139181
2.8645e-06
0.000137527
8.81968e-06
0.000132239
1.6827e-05
0.000123858
2.70414e-05
0.000112825
3.95977e-05
9.95012e-05
5.4612e-05
8.4181e-05
7.21833e-05
6.71083e-05
9.23942e-05
4.84884e-05
0.000115314
2.85004e-05
0.000141005
7.31016e-06
0.000169529
-1.49141e-05
0.000200967
-3.79782e-05
0.000235433
-6.16239e-05
0.000273101
-8.54624e-05
0.000314211
-0.000108861
0.00035904
-0.000130758
0.000407756
-0.000149277
-0.000160992
0.000459943
-6.15269e-07
2.61473e-05
-1.67485e-06
6.58419e-05
-2.53641e-06
9.5004e-05
-2.67106e-06
0.000115195
-1.64136e-06
0.000127792
9.17581e-07
0.000133986
5.31437e-06
0.000134785
1.1814e-05
0.000131027
2.06468e-05
0.000123406
3.20143e-05
0.00011249
4.60922e-05
9.87472e-05
6.30312e-05
8.25622e-05
8.29555e-05
6.42567e-05
0.000105961
4.41032e-05
0.00013211
2.23389e-05
0.000161433
-8.22687e-07
0.000193924
-2.51808e-05
0.000229546
-5.05356e-05
0.00026824
-7.66723e-05
0.000309951
-0.000103335
0.000354664
-0.000130175
0.000402453
-0.000156649
0.000453525
-0.000181831
0.0005082
-0.000203952
-0.000219235
0.000566443
-5.36006e-07
2.66833e-05
-1.27479e-06
6.65807e-05
-1.51007e-06
9.52393e-05
-6.61516e-07
0.000114346
1.75243e-06
0.000125378
6.13686e-06
0.000129601
1.28387e-05
0.000128083
2.21607e-05
0.000121705
3.43705e-05
0.000111196
4.9706e-05
9.71548e-05
6.83772e-05
8.00759e-05
9.05653e-05
6.03742e-05
0.000116418
3.84036e-05
0.000146046
1.44756e-05
0.000179511
-1.1126e-05
0.00021682
-3.8132e-05
0.000257916
-6.62762e-05
0.000302666
-9.52856e-05
0.000350863
-0.00012487
0.000402236
-0.000154708
0.000456479
-0.000184418
0.000513322
-0.000213492
0.000572653
-0.000241162
0.000634694
-0.000265992
-0.000284397
0.000699856
-4.44758e-07
2.71281e-05
-8.15709e-07
6.69517e-05
-3.33648e-07
9.47573e-05
1.64144e-06
0.000112371
5.64365e-06
0.000121376
1.21271e-05
0.000123118
2.14864e-05
0.000118723
3.40722e-05
0.000109119
5.01998e-05
9.50686e-05
7.0155e-05
7.71995e-05
9.41946e-05
5.60364e-05
0.000122544
3.2025e-05
0.000155391
5.55653e-06
0.000192879
-2.30122e-05
0.000235093
-5.33403e-05
0.000282048
-8.50867e-05
0.000333667
-0.000117896
0.000389764
-0.000151383
0.000450016
-0.000185122
0.000513945
-0.000218637
0.000580908
-0.000251381
0.000650134
-0.000282718
0.000720846
-0.000311875
0.000792611
-0.000337756
-0.000358218
0.000866431
-3.3843e-07
2.74665e-05
-2.85309e-07
6.68986e-05
1.02005e-06
9.34519e-05
4.28521e-06
0.000109106
1.01047e-05
0.000115556
1.89897e-05
0.000114233
3.13911e-05
0.000106322
4.77153e-05
9.27952e-05
6.83341e-05
7.44498e-05
9.35889e-05
5.19447e-05
0.000123791
2.58338e-05
0.00015922
-3.40379e-06
0.000200115
-3.53378e-05
0.000246666
-6.95635e-05
0.000299006
-0.00010568
0.000357191
-0.000143272
0.000421183
-0.000181888
0.000490819
-0.000221018
0.000565769
-0.000260072
0.000645476
-0.000298344
0.000729071
-0.000334976
0.00081528
-0.000368927
0.00090235
-0.000398945
0.000988341
-0.000423747
-0.000444674
0.0010748
-2.13199e-07
2.76797e-05
3.30912e-07
6.63545e-05
2.58234e-06
9.12005e-05
7.32327e-06
0.000104365
1.52157e-05
0.000107664
2.68348e-05
0.000102614
4.2694e-05
9.04628e-05
6.32611e-05
7.22281e-05
8.89681e-05
4.87428e-05
0.000120215
2.06982e-05
0.000157368
-1.13192e-05
0.000200758
-4.6794e-05
0.000250675
-8.52546e-05
0.000307359
-0.000126248
0.000370999
-0.00016932
0.000441719
-0.000213992
0.000519577
-0.000259746
0.000604555
-0.000305996
0.000696538
-0.000352056
0.000795283
-0.000397088
0.000900325
-0.000440018
0.00101078
-0.00047938
0.0011247
-0.000512866
0.00123722
-0.000536271
-0.000543277
0.00133583
-6.4897e-08
2.77446e-05
1.04915e-06
6.52404e-05
4.38813e-06
8.78615e-05
1.08148e-05
9.79384e-05
2.10644e-05
9.74141e-05
3.57811e-05
8.78972e-05
5.55442e-05
7.06997e-05
8.08845e-05
4.68878e-05
0.000112292
1.73353e-05
0.000150218
-1.72281e-05
0.000195074
-5.61754e-05
0.000247227
-9.89467e-05
0.000306993
-0.000145021
0.000374637
-0.000193892
0.00045037
-0.000245053
0.000534357
-0.00029798
0.000626736
-0.000352125
0.000727647
-0.000406906
0.000837298
-0.000461707
0.000956081
-0.000515871
0.00108477
-0.000568712
0.0012249
-0.000619502
0.00137951
-0.000667479
0.00155562
-0.000712379
-0.000756792
0.00176913
1.12832e-07
2.76318e-05
1.89034e-06
6.34629e-05
6.47942e-06
8.32724e-05
1.48281e-05
8.95897e-05
2.77486e-05
8.44936e-05
4.59567e-05
6.96891e-05
7.00977e-05
4.65587e-05
0.000100761
1.62247e-05
0.000138485
-2.03886e-05
0.000183756
-6.24998e-05
0.000237006
-0.000109425
0.000298602
-0.000160542
0.000368841
-0.00021526
0.00044795
-0.000273001
0.000536084
-0.000333187
0.000633339
-0.000395235
0.000739774
-0.000458559
0.000855445
-0.000522577
0.00098047
-0.000586732
0.00111512
-0.00065052
0.00125994
-0.000713537
0.00141597
-0.00077553
0.00158495
-0.000836458
0.00176915
-0.000896581
-0.000954097
0.00196646
3.25675e-07
2.73061e-05
2.87494e-06
6.09136e-05
8.89839e-06
7.7249e-05
1.94319e-05
7.90563e-05
3.53664e-05
6.85591e-05
5.74883e-05
4.75671e-05
8.65038e-05
1.75432e-05
0.00012305
-2.03213e-05
0.000167695
-6.50338e-05
0.000220934
-0.000115739
0.000283178
-0.00017167
0.000354745
-0.000232109
0.000435848
-0.000296363
0.000526596
-0.000363748
0.000626989
-0.00043358
0.000736931
-0.000505177
0.000856247
-0.000577875
0.000984708
-0.000651039
0.00112207
-0.000724096
0.00126812
-0.000796565
0.00142268
-0.000868104
0.0015857
-0.000938544
0.00175712
-0.00100788
0.00193653
-0.00107599
-0.00113898
0.00212142
5.80238e-07
2.67259e-05
4.02513e-06
5.74687e-05
1.16891e-05
6.9585e-05
2.46959e-05
6.60494e-05
4.40137e-05
4.92413e-05
7.04942e-05
2.10867e-05
0.000104893
-1.68558e-05
0.000147876
-6.33045e-05
0.000200014
-0.000117171
0.000261768
-0.000177493
0.00033348
-0.000243381
0.000415351
-0.000313981
0.000507439
-0.000388451
0.000609645
-0.000465954
0.00072172
-0.000545655
0.000843274
-0.00062673
0.000973788
-0.000708389
0.00111264
-0.000789896
0.00125914
-0.000870595
0.00141252
-0.000949946
0.00157197
-0.00102755
0.00173659
-0.00110316
0.00190535
-0.00117664
0.00207699
-0.00124763
-0.00131176
0.00224976
8.83165e-07
2.58427e-05
5.36269e-06
5.29892e-05
1.48937e-05
6.0054e-05
3.06847e-05
5.02584e-05
5.37751e-05
2.6151e-05
8.50707e-05
-1.0209e-05
0.000125359
-5.71436e-05
0.000175304
-0.00011325
0.000235439
-0.000177306
0.000306142
-0.000248196
0.000387618
-0.000324857
0.000479883
-0.000406246
0.000582754
-0.000491322
0.000695845
-0.000579045
0.000818575
-0.000668385
0.000950185
-0.00075834
0.00108976
-0.000847966
0.00123627
-0.0009364
0.00138856
-0.00102289
0.00154543
-0.00110681
0.00170558
-0.0011877
0.00186766
-0.00126524
0.00203022
-0.00133921
0.00219179
-0.00140919
-0.00147118
0.00235121
1.24074e-06
2.4602e-05
6.9076e-06
4.73223e-05
1.85494e-05
4.84122e-05
3.7452e-05
3.13558e-05
6.47146e-05
-1.11167e-06
0.000101279
-4.67735e-05
0.000147935
-0.0001038
0.000205309
-0.000170624
0.000273841
-0.000245838
0.000353762
-0.000328117
0.00044507
-0.000416165
0.000547515
-0.000508691
0.000660596
-0.000604403
0.000783565
-0.000702014
0.000915453
-0.000800273
0.0010551
-0.000897986
0.00120119
-0.000994055
0.00135229
-0.00108751
0.00150693
-0.00117752
0.00166356
-0.00126344
0.00182065
-0.0013448
0.00197669
-0.00142128
0.00213017
-0.00149269
0.00227972
-0.00155873
-0.00161616
0.0024247
1.65852e-06
2.29434e-05
8.67667e-06
4.03042e-05
2.26854e-05
3.44035e-05
4.50352e-05
9.00604e-06
7.68672e-05
-3.29437e-05
0.000119132
-8.90384e-05
0.000172584
-0.000157251
0.000237756
-0.000235797
0.000314937
-0.000323018
0.000404133
-0.000417314
0.000505057
-0.000517089
0.000617115
-0.000620749
0.000739419
-0.000726706
0.00087081
-0.000833406
0.00100991
-0.000939368
0.00115515
-0.00104323
0.00130486
-0.00114377
0.00145733
-0.00123998
0.00161083
-0.00133103
0.00176371
-0.00141632
0.00191439
-0.00149548
0.00206141
-0.0015683
0.00220348
-0.00163475
0.00233949
-0.00169475
-0.00174592
0.00246925
2.14103e-06
2.08024e-05
1.06824e-05
3.17628e-05
2.73203e-05
1.77655e-05
5.34512e-05
-1.71248e-05
9.02317e-05
-6.97242e-05
0.000138584
-0.000137391
0.000199175
-0.000217842
0.000272385
-0.000309007
0.000358271
-0.000408905
0.00045654
-0.000515583
0.000566538
-0.000627087
0.00068726
-0.000741471
0.000817381
-0.000856827
0.000955312
-0.000971337
0.00109927
-0.00108332
0.00124735
-0.00119131
0.00139762
-0.00129404
0.00154819
-0.00139054
0.00169727
-0.00148011
0.00184324
-0.0015623
0.00198469
-0.00163692
0.0021204
-0.00170401
0.00224941
-0.00176377
0.00237104
-0.00181638
-0.00186035
0.00248547
2.69153e-06
1.81109e-05
1.2932e-05
2.15223e-05
3.24604e-05
-1.76284e-06
6.26922e-05
-4.73567e-05
0.000104764
-0.000111796
0.000159522
-0.000192148
0.000227483
-0.000285804
0.0003088
-0.000390323
0.000403217
-0.000503322
0.00051006
-0.000622426
0.00062824
-0.000745267
0.000756291
-0.000869522
0.000892434
-0.000992971
0.00103467
-0.00111357
0.00118086
-0.00122952
0.00132888
-0.00133932
0.00147664
-0.0014418
0.00162223
-0.00153614
0.00176398
-0.00162186
0.00190047
-0.00169878
0.00203058
-0.00176702
0.00215346
-0.0018269
0.00226859
-0.00187889
0.00237571
-0.0019235
-0.00195998
0.00247534
3.31191e-06
1.47989e-05
1.54271e-05
9.4072e-06
3.80975e-05
-2.44332e-05
7.27235e-05
-8.19827e-05
0.000120376
-0.000159449
0.000181763
-0.000253535
0.000257182
-0.000361223
0.000346471
-0.000479613
0.000448985
-0.000605835
0.000563591
-0.000737032
0.000688715
-0.00087039
0.000822409
-0.00100322
0.000962462
-0.00113302
0.00110652
-0.00125763
0.00125222
-0.00137522
0.00139729
-0.00148439
0.00153969
-0.0015842
0.00167765
-0.0016741
0.00180974
-0.00175395
0.00193488
-0.00182392
0.00205234
-0.00188448
0.00216172
-0.00193628
0.00226291
-0.00198008
0.00235607
-0.00201666
-0.00204591
0.00244199
4.00259e-06
1.07964e-05
1.81627e-05
-4.75293e-06
4.42087e-05
-5.04792e-05
8.34816e-05
-0.000121256
0.00013693
-0.000212897
0.000205053
-0.000321659
0.000287846
-0.000444015
0.00038475
-0.000576517
0.000494649
-0.000715734
0.000615898
-0.000858282
0.000746412
-0.0010009
0.000883782
-0.00114059
0.00102543
-0.00127467
0.00116874
-0.00140095
0.00131126
-0.00151774
0.00145077
-0.0016239
0.00158537
-0.00171881
0.00171361
-0.00180234
0.00183441
-0.00187474
0.00194711
-0.00193662
0.00205142
-0.00198879
0.00214735
-0.00203222
0.00223521
-0.00206794
0.00231548
-0.00209694
-0.00211957
0.00238914
4.76246e-06
6.0339e-06
2.11277e-05
-2.11181e-05
5.07553e-05
-8.01069e-05
9.48736e-05
-0.000165374
0.000154241
-0.000272264
0.00022907
-0.000396488
0.000318963
-0.000533909
0.000422886
-0.000680439
0.000539185
-0.000832033
0.000665676
-0.000984773
0.000799775
-0.001135
0.000938672
-0.00127948
0.00107952
-0.00141551
0.0012196
-0.00154103
0.00135651
-0.00165464
0.00148821
-0.0017556
0.00161315
-0.00184375
0.00173023
-0.00191942
0.00183884
-0.00198335
0.00193876
-0.00203654
0.00203011
-0.00208014
0.00211328
-0.00211539
0.00218888
-0.00214353
0.00225764
-0.0021657
-0.00218257
0.00232064
5.58882e-06
4.45076e-07
2.43039e-05
-3.98332e-05
5.76828e-05
-0.000113486
0.000106777
-0.000214469
0.000172079
-0.000337566
0.000253427
-0.000477835
0.000349947
-0.000630429
0.000460054
-0.000790546
0.000581522
-0.000953501
0.000711626
-0.00111488
0.00084734
-0.00127072
0.000985554
-0.0014177
0.00112329
-0.00155325
0.00125788
-0.00167563
0.00138712
-0.00178388
0.00150932
-0.0018778
0.00162333
-0.00195775
0.00172852
-0.00202461
0.00182472
-0.00207955
0.00191213
-0.00212395
0.00199124
-0.00215925
0.00206274
-0.00218689
0.00212743
-0.00220822
0.00218619
-0.00222446
-0.00223647
0.00224009
6.47729e-06
-6.03221e-06
2.76662e-05
-6.10221e-05
6.49205e-05
-0.00015074
0.000119043
-0.000268591
0.000190173
-0.000408696
0.000277688
-0.00056535
0.000380158
-0.000732899
0.000495396
-0.000905784
0.000620592
-0.0010787
0.000752528
-0.00124681
0.000887827
-0.00140602
0.00102321
-0.00155308
0.00115573
-0.00168577
0.00128293
-0.00180283
0.00140294
-0.00190389
0.0015145
-0.00198935
0.00161694
-0.00206019
0.00171009
-0.00211777
0.00179422
-0.00216368
0.00186988
-0.00219961
0.00193783
-0.0022272
0.00199894
-0.00224801
0.00205415
-0.00226343
0.00210438
-0.00227468
-0.00228273
0.00215064
7.4217e-06
-1.34539e-05
3.11827e-05
-8.47832e-05
7.23823e-05
-0.00019194
0.000131493
-0.000327702
0.000208216
-0.000485419
0.000301377
-0.000658511
0.000408929
-0.00084045
0.000528057
-0.00102491
0.000655397
-0.00120604
0.000787316
-0.00137873
0.000920216
-0.00153892
0.00105081
-0.00168368
0.00117634
-0.00181129
0.00129467
-0.00192116
0.0014044
-0.00201362
0.00150475
-0.0020897
0.00159553
-0.00215097
0.00167701
-0.00219925
0.0017498
-0.00223647
0.00181474
-0.00226454
0.00187276
-0.00228523
0.00192485
-0.0023001
0.00197196
-0.00231054
0.00201498
-0.00231771
-0.00232258
0.00205483
8.41401e-06
-2.18679e-05
3.48142e-05
-0.000111183
7.99675e-05
-0.000237093
0.00014393
-0.000391665
0.000225873
-0.000567361
0.000323998
-0.000756636
0.000435595
-0.000952047
0.000557232
-0.00114655
0.000685055
-0.00133386
0.000815134
-0.00150881
0.000943803
-0.00166758
0.00106792
-0.0018078
0.00118506
-0.00192843
0.00129354
-0.00202965
0.00139244
-0.00211252
0.0014815
-0.00217876
0.00156096
-0.00223044
0.00163148
-0.00226976
0.00169392
-0.00229892
0.00174931
-0.00231993
0.00179868
-0.00233459
0.00184302
-0.00234444
0.00188326
-0.00235078
0.00192022
-0.00235467
-0.00235705
0.00195469
9.44427e-06
-3.13122e-05
3.8515e-05
-0.000140254
8.75624e-05
-0.00028614
0.000156136
-0.000460239
0.000242794
-0.000654019
0.000345052
-0.000858895
0.000459525
-0.00106652
0.000582205
-0.00126923
0.000708851
-0.00146051
0.000835382
-0.00163534
0.000958218
-0.00179042
0.00107452
-0.0019241
0.00118229
-0.0020362
0.00128036
-0.00212772
0.00136834
-0.0022005
0.00144642
-0.00225683
0.00151523
-0.00229925
0.00157571
-0.00233024
0.0016289
-0.00235212
0.00167592
-0.00236695
0.00171782
-0.00237649
0.00175556
-0.00238218
0.00178998
-0.0023852
0.00182181
-0.0023865
-0.00238693
0.0018517
1.05006e-05
-4.18128e-05
4.2233e-05
-0.000171987
9.50426e-05
-0.00033895
0.000167884
-0.00053308
0.000258625
-0.00074476
0.000364062
-0.000964332
0.000480149
-0.00118261
0.000602385
-0.00139147
0.00072627
-0.00158439
0.000847728
-0.0017568
0.000963421
-0.00190611
0.00107092
-0.0020316
0.00116875
-0.00213402
0.00125628
-0.00221525
0.00133359
-0.00227781
0.00140128
-0.00232453
0.0014603
-0.00235827
0.00151175
-0.00238169
0.0015568
-0.00239717
0.00159656
-0.00240671
0.00163204
-0.00241197
0.00166414
-0.00241428
0.0016936
-0.00241466
0.00172104
-0.00241394
-0.00241286
0.00174697
1.15694e-05
-5.33823e-05
4.59114e-05
-0.000206328
0.000102277
-0.000395315
0.000178941
-0.000609744
0.000273024
-0.000838843
0.00038059
-0.0010719
0.000496987
-0.001299
0.000617329
-0.00151181
0.000737008
-0.00170407
0.000852107
-0.0018719
0.000959661
-0.00201367
0.00105775
-0.00212968
0.00114543
-0.0022217
0.00122259
-0.00229241
0.00128975
-0.00234497
0.00134783
-0.00238261
0.00139798
-0.00240842
0.00144143
-0.00242514
0.00147936
-0.00243509
0.00151284
-0.00244019
0.00154281
-0.00244195
0.00157006
-0.00244153
0.00159523
-0.00243983
0.00161883
-0.00243754
-0.00243529
0.00164126
1.26356e-05
-6.60178e-05
4.94894e-05
-0.000243182
0.00010913
-0.000454956
0.00018908
-0.000689694
0.000285673
-0.000935436
0.00039426
-0.00118049
0.000509668
-0.00141441
0.000626761
-0.0016289
0.000740977
-0.00181829
0.000848698
-0.00197962
0.000947434
-0.0021124
0.00103581
-0.00221806
0.00111343
-0.00229932
0.00118065
-0.00235963
0.00123834
-0.00240266
0.00128767
-0.00243194
0.00132991
-0.00245066
0.00136631
-0.00246154
0.00139803
-0.00246681
0.00142606
-0.00246822
0.00145125
-0.00246714
0.00147427
-0.00246455
0.00149567
-0.00246123
0.00151584
-0.00245772
-0.00245455
0.0015351
1.36826e-05
-7.97004e-05
5.29041e-05
-0.000282404
0.000115469
-0.000517521
0.000198085
-0.00077231
0.000296288
-0.00103364
0.00040477
-0.00128897
0.000517942
-0.00152758
0.000630569
-0.00174153
0.000738281
-0.001926
0.00083788
-0.00207922
0.000927414
-0.00220194
0.00100607
-0.00229672
0.00107395
-0.00236721
0.00113182
-0.0024175
0.00118081
-0.00245165
0.00122225
-0.00247337
0.00125746
-0.00248587
0.00128767
-0.00249175
0.00131396
-0.0024931
0.00133724
-0.0024915
0.00135822
-0.00248812
0.00137749
-0.00248383
0.00139549
-0.00247922
0.00141254
-0.00247477
-0.00247087
0.00142886
1.46933e-05
-9.43938e-05
5.60924e-05
-0.000323803
0.000121164
-0.000582593
0.000205762
-0.000856907
0.000304638
-0.00113252
0.000411901
-0.00139623
0.000521682
-0.00163736
0.000628795
-0.00184864
0.000729196
-0.0020264
0.000820189
-0.00217021
0.000900393
-0.00228214
0.000969536
-0.00236586
0.00102817
-0.00242584
0.00107736
-0.00246669
0.00111844
-0.00249274
0.00115281
-0.00250775
0.0011818
-0.00251485
0.00120656
-0.00251651
0.00122807
-0.00251461
0.00124713
-0.00251056
0.00126436
-0.00250535
0.00128023
-0.0024997
0.00129511
-0.0024941
0.00130924
-0.0024889
-0.00248442
0.00132278
1.56502e-05
-0.000110044
5.8993e-05
-0.000367146
0.000126099
-0.000649699
0.000211945
-0.000942754
0.000310544
-0.00123111
0.000415525
-0.00150121
0.000520884
-0.00174272
0.000621622
-0.00194938
0.000714129
-0.00211891
0.00079627
-0.00225235
0.000867228
-0.0023531
0.000927226
-0.00242586
0.000977183
-0.00247579
0.00101841
-0.00250791
0.00105235
-0.00252668
0.00108042
-0.00253581
0.00110387
-0.00253831
0.00112379
-0.00253643
0.00114105
-0.00253187
0.00115632
-0.00252583
0.00117012
-0.00251916
0.00118286
-0.00251243
0.0011948
-0.00250604
0.00120616
-0.00250025
-0.0024953
0.00121703
1.65358e-05