/*--------------------------------*- C++ -*----------------------------------*\
  =========                 |
  \\      /  F ield         | OpenFOAM: The Open Source CFD Toolbox
   \\    /   O peration     | Website:  https://openfoam.org
    \\  /    A nd           | Version:  6.0
     \\/     M anipulation  |
\*---------------------------------------------------------------------------*/
FoamFile
{
    version     2.0;
    format      ascii;
    class       volVectorField;
    location    "14";
    object      U;
}
// * * * * * * * * * * * * * * * * * * * * * * * * * * * * * * * * * * * * * //

dimensions      [0 1 -1 0 0 0 0];

internalField   nonuniform List<vector> 
12500
(
(-0.000379864 0.000408866 -6.18742e-22)
(-0.00217775 0.00104537 8.53359e-21)
(-0.00562087 0.00152821 -1.23633e-20)
(-0.0100093 0.001892 5.6709e-21)
(-0.014976 0.00216153 3.40184e-22)
(-0.0203022 0.0023564 -6.97167e-22)
(-0.0258172 0.0024931 -1.02881e-20)
(-0.0313961 0.0025855 5.64196e-21)
(-0.0369537 0.00264527 3.72629e-21)
(-0.0424347 0.00268232 3.78035e-21)
(-0.0478066 0.00270503 -6.39387e-21)
(-0.0530547 0.00272056 3.71518e-21)
(-0.0581776 0.00273497 -1.74815e-21)
(-0.0631841 0.00275338 2.96086e-21)
(-0.0680905 0.00278004 -7.54714e-21)
(-0.0729183 0.00281846 1.08974e-20)
(-0.0776927 0.00287139 -2.07322e-21)
(-0.0824405 0.00294093 -7.69358e-21)
(-0.0871893 0.00302854 3.93751e-21)
(-0.0919666 0.00313508 -3.75723e-21)
(-0.0968033 0.00326082 3.3597e-21)
(-0.101729 0.00340547 4.4407e-21)
(-0.106727 0.00356891 4.55166e-22)
(-0.11173 0.00375163 -1.26939e-20)
(-0.117043 0.00394871 6.72761e-21)
(-0.000432206 0.00131081 1.12911e-20)
(-0.00230282 0.00334881 -2.91363e-20)
(-0.0057863 0.00489419 8.58395e-21)
(-0.0101918 0.00605654 5.73096e-21)
(-0.0151573 0.00691524 -4.56167e-21)
(-0.020467 0.00753341 -2.58993e-20)
(-0.0259526 0.00796423 7.68958e-21)
(-0.031491 0.00825238 -1.45117e-20)
(-0.036998 0.00843543 1.73404e-20)
(-0.0424194 0.0085451 -2.31202e-20)
(-0.0477232 0.00860824 1.23331e-20)
(-0.0528951 0.00864757 3.98345e-21)
(-0.0579339 0.00868229 -1.00204e-20)
(-0.0628488 0.00872852 -4.42818e-21)
(-0.0676562 0.00879961 3.23407e-20)
(-0.0723779 0.00890645 -2.85905e-20)
(-0.0770392 0.00905764 6.82626e-21)
(-0.0816676 0.00925966 1.18041e-20)
(-0.0862908 0.00951699 -2.7012e-21)
(-0.090937 0.00983226 1.90027e-20)
(-0.0956375 0.0102062 3.46853e-21)
(-0.100422 0.0106378 -1.21769e-21)
(-0.105276 0.0111266 -2.39368e-20)
(-0.11013 0.0116738 2.20504e-20)
(-0.11529 0.0122643 -4.22027e-20)
(-0.000537249 0.00219719 3.62178e-20)
(-0.00255404 0.00561473 1.20355e-20)
(-0.00611896 0.00820728 -1.57622e-20)
(-0.0105593 0.0101568 6.76587e-21)
(-0.0155227 0.0115956 6.32464e-21)
(-0.0208 0.0126295 2.3983e-20)
(-0.0262272 0.0133476 -3.04288e-20)
(-0.0316849 0.0138248 -4.94345e-21)
(-0.0370914 0.0141242 -2.03319e-20)
(-0.0423942 0.014299 -1.69595e-20)
(-0.0475624 0.0143944 2.18721e-20)
(-0.0525826 0.0144486 -7.31365e-20)
(-0.0574544 0.0144939 -2.28935e-21)
(-0.0621871 0.0145574 -4.38145e-20)
(-0.0667977 0.0146617 -5.16363e-21)
(-0.0713084 0.0148253 6.20378e-21)
(-0.0757451 0.015063 -3.39269e-20)
(-0.0801359 0.0153858 -2.12126e-20)
(-0.0845095 0.0158016 -2.50986e-20)
(-0.088895 0.0163149 3.92858e-20)
(-0.0933248 0.0169274 1.43779e-20)
(-0.0978305 0.0176374 -6.37704e-20)
(-0.102398 0.0184443 -3.07306e-20)
(-0.106955 0.0193503 -3.43654e-20)
(-0.111811 0.0203298 9.29411e-20)
(-0.000693185 0.00305812 -1.11865e-21)
(-0.00292783 0.00781919 -2.78232e-20)
(-0.00661522 0.0114335 -1.33612e-20)
(-0.0111088 0.0141512 8.26992e-21)
(-0.0160709 0.0161553 5.14637e-20)
(-0.0213013 0.0175924 -2.31923e-20)
(-0.0266433 0.0185864 4.93975e-20)
(-0.0319825 0.0192416 4.70038e-20)
(-0.0372411 0.019646 2.85842e-20)
(-0.042369 0.0198738 -4.34296e-22)
(-0.0473373 0.019988 5.7513e-20)
(-0.0521338 0.0200423 9.94756e-21)
(-0.0567588 0.0200819 4.3807e-20)
(-0.0612224 0.0201452 1.0064e-19)
(-0.0655422 0.0202641 -1.16649e-19)
(-0.0697409 0.0204652 1.75262e-19)
(-0.0738454 0.0207695 3.81347e-20)
(-0.0778846 0.0211934 -8.39993e-20)
(-0.0818887 0.0217486 -1.19318e-20)
(-0.0858881 0.0224422 3.04977e-20)
(-0.0899172 0.0232769 -1.52996e-20)
(-0.09401 0.024251 -9.17193e-21)
(-0.0981534 0.0253639 -8.94296e-21)
(-0.102273 0.0266194 -3.59404e-20)
(-0.106682 0.0279808 1.26298e-19)
(-0.000897432 0.00388477 1.88813e-20)
(-0.00341904 0.0099404 -8.76765e-20)
(-0.00726974 0.0145417 1.06287e-19)
(-0.0118363 0.0180014 -4.22858e-20)
(-0.0167995 0.02055 5.05875e-20)
(-0.0219712 0.022373 4.12533e-20)
(-0.0272039 0.0236273 1.56528e-20)
(-0.03239 0.0244454 7.71964e-22)
(-0.0374568 0.0249391 8.79529e-20)
(-0.0423575 0.0252031 6.08377e-20)
(-0.0470659 0.0253179 -2.43744e-20)
(-0.0515711 0.025352 -1.57016e-20)
(-0.0558748 0.0253636 6.60906e-20)
(-0.0599877 0.0254023 1.24321e-20)
(-0.0639281 0.0255099 3.37398e-20)
(-0.0677196 0.0257211 8.07662e-20)
(-0.07139 0.0260642 -6.97196e-20)
(-0.0749696 0.0265613 5.62707e-20)
(-0.0784903 0.0272287 -1.21237e-19)
(-0.0819846 0.0280771 1.01866e-19)
(-0.0854895 0.0291108 6.74856e-22)
(-0.0890422 0.0303287 -8.11995e-20)
(-0.0926322 0.0317307 3.26503e-20)
(-0.0961813 0.0333229 7.42254e-20)
(-0.100009 0.0350571 -1.09649e-19)
(-0.0011468 0.00466965 9.76889e-20)
(-0.00402117 0.0119594 -1.03724e-19)
(-0.00807566 0.0175041 -1.66703e-20)
(-0.0127359 0.0216729 2.10392e-20)
(-0.0177048 0.02474 -4.53994e-20)
(-0.0228088 0.0269268 -7.07506e-20)
(-0.0279115 0.0284217 -5.88132e-20)
(-0.0329139 0.0293837 -1.41758e-20)
(-0.0377493 0.0299474 -1.01121e-19)
(-0.0423756 0.0302268 8.05179e-20)
(-0.0467692 0.0303191 -1.24995e-19)
(-0.0509216 0.0303076 6.31604e-20)
(-0.0548356 0.0302631 -2.09556e-20)
(-0.0585228 0.0302464 4.85372e-20)
(-0.0620024 0.0303094 -1.22011e-19)
(-0.0652986 0.0304956 5.91267e-20)
(-0.0684406 0.0308412 4.415e-21)
(-0.0714602 0.0313751 2.62052e-20)
(-0.0743913 0.0321192 1.58376e-19)
(-0.0772694 0.0330885 3.51298e-20)
(-0.0801346 0.0342905 -3.14997e-21)
(-0.0830287 0.0357255 1.00251e-20)
(-0.0859446 0.0373948 6.60285e-20)
(-0.0888011 0.0393078 1.88247e-20)
(-0.0919263 0.0414041 6.19782e-20)
(-0.00143768 0.0054068 -6.08634e-20)
(-0.00472671 0.0138607 8.64235e-20)
(-0.00902473 0.0202976 5.42046e-21)
(-0.0138004 0.0251362 -1.0547e-19)
(-0.0187818 0.0286903 2.21724e-19)
(-0.0238118 0.0312148 -7.16598e-20)
(-0.0287673 0.0329268 1.04583e-19)
(-0.0335594 0.0340104 9.56752e-20)
(-0.0381288 0.0346212 -7.9126e-20)
(-0.0424385 0.0348917 -1.15178e-19)
(-0.0464688 0.0349349 3.15137e-20)
(-0.0502133 0.0348478 -3.32253e-20)
(-0.0536764 0.0347139 -1.47001e-19)
(-0.0568708 0.0346051 1.78587e-19)
(-0.0598161 0.0345834 -8.56469e-20)
(-0.0625378 0.0347018 -5.90665e-20)
(-0.0650658 0.0350052 5.37938e-22)
(-0.067434 0.0355304 4.82467e-20)
(-0.0696786 0.0363063 1.99111e-20)
(-0.0718384 0.0373541 -7.79302e-20)
(-0.0739578 0.0386855 8.90242e-20)
(-0.0760845 0.0403037 -1.54686e-19)
(-0.0782161 0.0422129 9.44565e-20)
(-0.0802695 0.0444273 -7.24311e-20)
(-0.0825833 0.046874 1.89229e-20)
(-0.00176624 0.00609194 8.86614e-20)
(-0.00552741 0.0156322 -6.81811e-20)
(-0.0101075 0.0229032 -4.33637e-20)
(-0.015021 0.0283667 -7.65478e-20)
(-0.0200231 0.0323719 -1.39911e-19)
(-0.0249754 0.0352039 -1.0336e-19)
(-0.0297699 0.0371065 6.44213e-20)
(-0.0343292 0.0382864 -9.7567e-20)
(-0.0386024 0.038919 1.23822e-19)
(-0.0425588 0.0391536 -2.01512e-19)
(-0.0461831 0.039118 8.95177e-20)
(-0.0494715 0.0389222 1.89091e-19)
(-0.0524302 0.0386614 -2.65677e-19)
(-0.0550729 0.0384185 3.79284e-20)
(-0.0574198 0.0382659 4.93869e-20)
(-0.0594969 0.0382665 4.77688e-20)
(-0.0613354 0.0384747 -5.12619e-20)
(-0.0629706 0.0389365 -1.25723e-20)
(-0.0644418 0.0396898 -3.7648e-20)
(-0.0657914 0.0407634 -3.14229e-20)
(-0.0670692 0.042176 -1.72583e-19)
(-0.0683298 0.0439355 -1.16796e-20)
(-0.0695777 0.0460509 1.89698e-21)
(-0.0707299 0.0485437 -7.8126e-20)
(-0.0721388 0.051328 8.05255e-20)
(-0.0021286 0.00672239 2.5799e-21)
(-0.00641455 0.0172654 2.78856e-20)
(-0.0113135 0.025307 2.90438e-20)
(-0.0163868 0.0313454 1.68339e-20)
(-0.0214189 0.0357615 1.42428e-19)
(-0.0262916 0.0388676 1.33767e-19)
(-0.0309136 0.0409315 -1.08705e-19)
(-0.0352204 0.0421806 -3.3094e-20)
(-0.0391713 0.0428081 -2.93839e-20)
(-0.0427425 0.0429784 1.51598e-19)
(-0.0459236 0.0428328 5.4446e-20)
(-0.0487143 0.0424929 -7.92129e-20)
(-0.0511225 0.0420651 -6.70858e-20)
(-0.0531628 0.0416426 1.61622e-19)
(-0.054856 0.0413078 -3.98356e-20)
(-0.0562284 0.0411341 -4.83106e-20)
(-0.0573117 0.0411863 -6.74539e-20)
(-0.0581432 0.0415212 -5.25126e-20)
(-0.0587646 0.042187 -6.70654e-20)
(-0.0592226 0.0432233 -4.38906e-20)
(-0.0595733 0.0446581 1.82326e-19)
(-0.0598795 0.0465072 -8.97874e-20)
(-0.0601552 0.0487875 6.04677e-20)
(-0.0603202 0.0515307 -1.61004e-19)
(-0.0607452 0.0546392 6.49102e-20)
(-0.00252099 0.00729699 -7.96764e-20)
(-0.00737916 0.0187551 -2.07604e-20)
(-0.0126309 0.027499 -1.62054e-19)
(-0.017885 0.0340583 -7.76418e-20)
(-0.0229558 0.0388416 -1.53214e-19)
(-0.0277474 0.0421858 -1.59765e-20)
(-0.0321865 0.0443799 8.20916e-20)
(-0.0362233 0.0456701 -5.00096e-20)
(-0.0398279 0.0462651 1.07764e-19)
(-0.0429852 0.0463428 -2.61842e-19)
(-0.0456904 0.0460559 -7.61112e-21)
(-0.0479468 0.0455368 4.64104e-20)
(-0.0497645 0.0449012 -5.88753e-20)
(-0.0511591 0.0442518 5.36116e-20)
(-0.0521514 0.0436809 -4.09571e-20)
(-0.0527679 0.043272 -8.78181e-20)
(-0.0530405 0.043101 1.60241e-19)
(-0.0530074 0.0432366 9.94272e-20)
(-0.052713 0.0437401 -2.05689e-20)
(-0.0522083 0.0446643 6.56591e-20)
(-0.0515561 0.0460502 -1.29517e-19)
(-0.0508297 0.0479256 1.8678e-19)
(-0.0500545 0.0503198 -2.55118e-19)
(-0.0491573 0.0532793 5.25355e-20)
(-0.048534 0.0566964 -9.97483e-20)
(-0.00293986 0.00781582 4.32594e-21)
(-0.00841214 0.0200991 -7.09519e-20)
(-0.014047 0.0294737 1.04992e-19)
(-0.0195 0.0364962 2.15229e-19)
(-0.0246166 0.0416002 -3.54901e-21)
(-0.0293241 0.0451442 2.43629e-20)
(-0.033569 0.0474367 -9.2058e-20)
(-0.0373176 0.0487398 4.30836e-20)
(-0.0405527 0.049276 2.97059e-19)
(-0.0432682 0.0492345 -6.73914e-20)
(-0.0454663 0.0487778 -7.96262e-20)
(-0.0471546 0.0480465 3.0088e-19)
(-0.0483457 0.0471645 9.82961e-20)
(-0.0490562 0.0462426 4.68103e-20)
(-0.0493068 0.0453816 4.79029e-20)
(-0.0491235 0.0446748 1.30505e-19)
(-0.0485378 0.0442094 -5.01931e-20)
(-0.0475882 0.0440672 1.32641e-19)
(-0.046321 0.0443242 1.79567e-19)
(-0.0447915 0.0450499 -1.53211e-19)
(-0.0430698 0.0463026 2.27718e-19)
(-0.0412407 0.0481275 8.13401e-20)
(-0.0393439 0.0505724 -3.08604e-19)
(-0.037319 0.0537054 4.46425e-19)
(-0.0355953 0.0574124 -3.61342e-19)
(-0.00338193 0.00827996 -2.0311e-19)
(-0.00950426 0.0212972 1.10597e-19)
(-0.0155476 0.0312283 -7.42051e-20)
(-0.0212134 0.0386537 -7.04537e-20)
(-0.0263787 0.0440295 -7.60401e-20)
(-0.0309955 0.0477341 -8.24758e-20)
(-0.0350316 0.0500929 2.26222e-20)
(-0.0384709 0.0513823 2.15012e-19)
(-0.04131 0.051836 -4.60327e-20)
(-0.0435538 0.0516526 -1.19924e-19)
(-0.0452119 0.0510019 -7.32424e-20)
(-0.0462974 0.0500312 -2.99689e-20)
(-0.0468259 0.04887 8.86733e-20)
(-0.046815 0.0476353 -5.66185e-20)
(-0.0462857 0.0464348 -1.84878e-19)
(-0.0452625 0.0453703 -2.04071e-19)
(-0.0437759 0.0445395 8.1362e-20)
(-0.0418639 0.0440378 -1.5152e-19)
(-0.0395736 0.0439577 1.31645e-19)
(-0.0369639 0.0443883 -3.71752e-19)
(-0.0341124 0.0454104 2.85754e-19)
(-0.0311165 0.0470929 -3.78037e-19)
(-0.0280332 0.0495104 -7.15577e-21)
(-0.0248209 0.0527623 -1.275e-19)
(-0.0219552 0.0567348 3.73556e-19)
(-0.00384415 0.00869107 3.11666e-19)
(-0.0106461 0.022351 4.56521e-20)
(-0.0171172 0.0327623 -2.99958e-20)
(-0.0230034 0.0405282 -1.26465e-20)
(-0.028214 0.0461254 2.35262e-19)
(-0.032727 0.0499509 7.65053e-20)
(-0.0365331 0.0523449 6.93638e-20)
(-0.0396352 0.0535962 -5.57548e-20)
(-0.0420454 0.053948 2.15021e-19)
(-0.0437806 0.0536058 -1.05743e-19)
(-0.0448595 0.0527448 6.8206e-20)
(-0.0453016 0.0515161 1.73542e-19)
(-0.045126 0.0500529 -9.84476e-20)
(-0.0443524 0.0484756 1.06607e-19)
(-0.0430015 0.0468963 1.00689e-19)
(-0.0410968 0.045423 3.44689e-20)
(-0.0386666 0.0441626 -8.50083e-20)
(-0.0357474 0.043223 2.35e-19)
(-0.032386 0.0427139 -2.18947e-20)
(-0.0286435 0.0427467 -2.52996e-20)
(-0.0246046 0.0434294 2.81693e-19)
(-0.0203803 0.0448623 -2.00533e-19)
(-0.0160474 0.0471577 3.3785e-19)
(-0.0115902 0.0504592 -2.80376e-19)
(-0.00754727 0.0546638 3.59831e-19)
(-0.00432367 0.00905109 -1.50604e-19)
(-0.0118278 0.0232626 3.33328e-20)
(-0.018738 0.0340768 -3.47655e-20)
(-0.0248438 0.0421189 -1.64426e-19)
(-0.0300876 0.0478863 9.54943e-21)
(-0.0344743 0.0517927 9.35591e-20)
(-0.0380191 0.0541925 -3.80527e-19)
(-0.0407454 0.0553849 2.84021e-19)
(-0.0426822 0.0556208 -2.76477e-19)
(-0.0438601 0.0551108 -1.74398e-19)
(-0.0443082 0.0540332 1.56376e-19)
(-0.0440535 0.0525407 -3.3848e-19)
(-0.0431202 0.0507672 2.85094e-19)
(-0.0415305 0.0488336 -9.06532e-20)
(-0.0393057 0.0468533 -2.59046e-19)
(-0.036468 0.0449374 6.40145e-20)
(-0.0330437 0.0431987 -6.01024e-20)
(-0.0290665 0.0417552 2.27072e-20)
(-0.0245813 0.0407331 -8.10234e-20)
(-0.0196504 0.0402669 -2.69067e-19)
(-0.0143643 0.0404958 6.02512e-20)
(-0.00884743 0.0415596 -1.26114e-22)
(-0.00319887 0.0436206 -2.77773e-19)
(0.00256402 0.0468848 1.9511e-19)
(0.00781796 0.0512756 -1.68403e-19)
(-0.0048177 0.00936189 6.09774e-20)
(-0.0130389 0.0240344 1.1218e-19)
(-0.0203902 0.0351729 1.56855e-19)
(-0.0267043 0.0434258 8.06515e-20)
(-0.0319572 0.049311 -7.90732e-20)
(-0.0361823 0.0532591 1.88596e-19)
(-0.0394204 0.0556372 1.39542e-19)
(-0.0417169 0.0567541 -5.07977e-20)
(-0.0431193 0.0568667 1.81388e-19)
(-0.0436731 0.0561894 -1.86571e-19)
(-0.0434194 0.0549016 -5.47368e-20)
(-0.0423942 0.0531552 5.55343e-20)
(-0.0406283 0.0510822 1.10017e-19)
(-0.0381476 0.048801 1.3221e-21)
(-0.0349753 0.0464225 6.96623e-20)
(-0.0311333 0.0440565 1.28667e-19)
(-0.0266458 0.0418176 -2.191e-19)
(-0.0215435 0.0398296 2.72411e-19)
(-0.0158685 0.0382315 9.1983e-20)
(-0.00968207 0.0371794 3.25326e-20)
(-0.00307907 0.0368456 -3.30791e-19)
(0.00380315 0.037416 4.67808e-20)
(0.0108422 0.039117 7.26436e-20)
(0.0179815 0.0422389 -1.75025e-20)
(0.0244856 0.0467543 8.26791e-20)
(-0.00532337 0.00962498 4.74774e-21)
(-0.014268 0.0246681 -2.88924e-19)
(-0.0220513 0.0360514 -7.20138e-21)
(-0.0285494 0.0444484 -7.27943e-20)
(-0.0337728 0.0503986 -4.78166e-19)
(-0.0377846 0.0543494 4.12751e-19)
(-0.0406523 0.0566806 -2.93636e-19)
(-0.0424449 0.0577097 -1.48053e-20)
(-0.0432294 0.057699 -1.38685e-19)
(-0.0430677 0.0568651 2.39768e-19)
(-0.0420143 0.0553872 -2.5807e-19)
(-0.0401157 0.0534151 -1.20837e-19)
(-0.0374109 0.0510763 2.50103e-21)
(-0.0339319 0.0484838 -2.61512e-19)
(-0.0297053 0.0457424 3.56816e-19)
(-0.0247544 0.0429561 -4.13527e-19)
(-0.0191028 0.040235 7.76943e-22)
(-0.0127789 0.037703 6.33584e-20)
(-0.00582158 0.035505 -1.58737e-19)
(0.00170984 0.0338139 1.54077e-19)
(0.00971833 0.0328324 -2.18534e-19)
(0.0180551 0.0327956 -1.4453e-19)
(0.026575 0.0340065 2.69466e-19)
(0.0351785 0.0368669 -2.94131e-19)
(0.0429854 0.0414281 -5.64507e-21)
(-0.0058376 0.00984137 -2.44667e-19)
(-0.0155023 0.0251643 2.80523e-19)
(-0.0236958 0.0367116 -8.65578e-20)
(-0.0303383 0.0451848 1.66473e-19)
(-0.0354759 0.0511464 1.79464e-19)
(-0.0392027 0.0550615 -1.58046e-19)
(-0.0416144 0.0573227 -1.04712e-19)
(-0.0428038 0.0582558 -1.25383e-19)
(-0.042859 0.0581284 1.14778e-19)
(-0.0418589 0.0571589 -7.69905e-21)
(-0.0398729 0.0555256 1.67284e-19)
(-0.0369596 0.053375 1.64884e-19)
(-0.0331681 0.0508292 -1.97021e-19)
(-0.0285386 0.0479934 3.86866e-19)
(-0.0231039 0.0449632 -2.56618e-19)
(-0.0168916 0.0418323 -4.40424e-20)
(-0.00992765 0.0387005 5.0013e-19)
(-0.00224033 0.0356834 -2.31585e-19)
(0.00613291 0.0329228 1.47722e-19)
(0.015135 0.0305981 2.88653e-19)
(0.0246679 0.0289344 -1.87294e-19)
(0.0345734 0.0282122 1.97156e-20)
(0.0446864 0.0288187 -1.29252e-20)
(0.0548663 0.0312951 -7.70143e-20)
(0.0640527 0.0358084 1.44553e-19)
(-0.00635694 0.0100114 5.59228e-20)
(-0.0167276 0.0255223 -1.77653e-19)
(-0.0252946 0.0371514 9.70877e-20)
(-0.0320241 0.0456316 -1.21236e-21)
(-0.0369994 0.0515502 7.30298e-20)
(-0.0403466 0.0553912 -1.25607e-19)
(-0.04219 0.0575606 7.18498e-20)
(-0.0426476 0.0583932 1.95657e-19)
(-0.0418283 0.0581615 -5.98004e-21)
(-0.0398295 0.0570863 -9.98999e-20)
(-0.0367358 0.0553453 1.00394e-19)
(-0.0326195 0.0530818 -2.31453e-21)
(-0.0275416 0.0504123 -3.18134e-19)
(-0.0215529 0.0474338 1.17929e-19)
(-0.014696 0.0442307 2.60323e-20)
(-0.00700677 0.0408834 -4.58831e-20)
(0.00148206 0.0374759 -8.1983e-20)
(0.0107372 0.0341074 3.13923e-19)
(0.0207188 0.0309053 7.66401e-20)
(0.031369 0.0280412 -1.64199e-19)
(0.0425887 0.0257464 -1.97799e-20)
(0.0542117 0.0243328 2.26471e-19)
(0.0660575 0.0242684 -1.05728e-19)
(0.0779559 0.026258 4.55321e-20)
(0.0886328 0.0306247 3.06667e-20)
(-0.00687744 0.0101348 -1.11903e-19)
(-0.0179276 0.0257402 1.11198e-19)
(-0.0268149 0.0373672 -6.26056e-20)
(-0.0335542 0.0457833 -2.00921e-19)
(-0.0382673 0.0516034 -1.84924e-19)
(-0.0411137 0.0553317 -8.17521e-20)
(-0.0422468 0.0573886 -6.77506e-20)
(-0.0418099 0.0581183 -2.00284e-19)
(-0.0399333 0.0577994 -8.09303e-20)
(-0.0367324 0.0566555 7.3787e-20)
(-0.0323076 0.0548651 -1.05282e-19)
(-0.0267458 0.0525696 -1.11097e-19)
(-0.0201213 0.0498811 -1.04275e-19)
(-0.0124985 0.0468897 1.8948e-19)
(-0.00393307 0.0436695 -3.97863e-19)
(0.0055255 0.0402866 2.27366e-19)
(0.0158313 0.0368065 -3.88843e-19)
(0.0269388 0.0333057 -5.99646e-20)
(0.0387976 0.0298858 -2.13818e-19)
(0.0513426 0.0266941 -5.00057e-20)
(0.0644689 0.0239448 -6.09652e-20)
(0.0780015 0.021954 -2.03863e-19)
(0.0917511 0.0212489 -2.24616e-20)
(0.105541 0.0227084 1.25013e-19)
(0.117864 0.0268474 -3.24244e-19)
(-0.00739454 0.0102108 9.59901e-20)
(-0.0190837 0.0258146 1.25459e-19)
(-0.0282195 0.0373536 4.39042e-19)
(-0.0348688 0.0456333 -7.70365e-20)
(-0.0391941 0.0512983 1.83307e-19)
(-0.041389 0.054875 4.36536e-19)
(-0.0416368 0.0567989 -1.18947e-19)
(-0.0401058 0.0574248 1.60937e-19)
(-0.0369469 0.0570383 9.38156e-20)
(-0.0322934 0.0558674 1.70037e-19)
(-0.0262615 0.0540928 -3.4015e-20)
(-0.0189526 0.0518566 2.30197e-20)
(-0.0104558 0.0492695 -5.96009e-20)
(-0.000850901 0.0464176 3.22007e-19)
(0.0097893 0.0433681 4.11591e-20)
(0.0213962 0.0401756 2.98792e-19)
(0.0339031 0.0368887 -7.64717e-20)
(0.0472419 0.0335593 2.73528e-19)
(0.06134 0.0302566 3.84696e-20)
(0.0761124 0.0270879 1.39228e-19)
(0.0914377 0.0242243 -6.01662e-20)
(0.107125 0.0219462 -1.08855e-20)
(0.12298 0.0207939 3.31593e-19)
(0.138858 0.0218027 2.0432e-19)
(0.153033 0.025695 -8.48256e-20)
(-0.00790293 0.010238 -2.32426e-19)
(-0.0201747 0.0257414 -2.35381e-19)
(-0.0294664 0.0371044 -2.45924e-19)
(-0.0359009 0.0451739 9.01189e-20)
(-0.0396842 0.0506268 -1.809e-19)
(-0.041045 0.0540128 -2.69447e-20)
(-0.0401964 0.0557839 -7.10019e-20)
(-0.0373313 0.0563061 -2.94363e-19)
(-0.0326208 0.0558733 -4.59484e-20)
(-0.0262149 0.0547192 7.54401e-20)
(-0.0182447 0.0530291 -2.36622e-19)
(-0.00882629 0.0509486 3.27993e-19)
(0.00193613 0.0485907 -4.45277e-19)
(0.0139457 0.0460428 1.07211e-19)
(0.0271092 0.0433708 -2.7257e-19)
(0.0413338 0.0406244 -2.21264e-19)
(0.0565235 0.0378419 -1.26345e-20)
(0.0725766 0.0350564 -3.35134e-20)
(0.0893826 0.0323061 2.6341e-20)
(0.106818 0.0296518 -1.26574e-19)
(0.124726 0.0272006 -8.76658e-20)
(0.142881 0.0251525 1.07877e-19)
(0.161075 0.0239884 -2.98544e-19)
(0.179248 0.0248371 9.71229e-20)
(0.195527 0.0285969 6.87426e-20)
(-0.00839643 0.0102147 -4.1187e-20)
(-0.0211763 0.0255155 -6.82514e-20)
(-0.0305076 0.036613 2.65457e-19)
(-0.0365752 0.0443982 9.86511e-20)
(-0.0396309 0.0495821 1.3051e-19)
(-0.03994 0.0527394 -1.74267e-19)
(-0.0377456 0.0543392 3.43634e-22)
(-0.0332644 0.0547595 -1.40884e-19)
(-0.0266866 0.0543029 2.60364e-19)
(-0.018178 0.0532107 8.49688e-20)
(-0.00788385 0.0516746 9.5319e-20)
(0.00406606 0.0498464 -3.78801e-19)
(0.0175521 0.0478459 4.67217e-19)
(0.0324593 0.0457667 -1.40261e-19)
(0.0486721 0.0436811 -1.00406e-19)
(0.0660689 0.0416435 3.0081e-19)
(0.084518 0.0396936 1.34371e-19)
(0.103873 0.037859 -3.40066e-19)
(0.12397 0.0361607 -1.42225e-19)
(0.144624 0.0346226 4.29117e-19)
(0.165613 0.0332846 -3.28249e-19)
(0.186646 0.0322329 1.97488e-19)
(0.207469 0.0317996 1.10685e-19)
(0.228146 0.0330846 -1.42379e-19)
(0.246834 0.0370654 -1.36901e-19)
(-0.00886773 0.0101389 -1.51427e-19)
(-0.0220603 0.0251318 2.35345e-19)
(-0.031289 0.0358734 1.00193e-19)
(-0.036807 0.0433009 -1.44641e-19)
(-0.0389155 0.0481612 -2.31378e-20)
(-0.0379178 0.0510548 -1.51494e-19)
(-0.0340872 0.052468 -6.03048e-20)
(-0.0276639 0.0527914 6.77234e-20)
(-0.0188563 0.0523368 -1.69334e-20)
(-0.00784515 0.0513534 1.27677e-19)
(0.00521094 0.0500408 -1.10893e-19)
(0.0201687 0.0485593 3.06873e-19)
(0.0368932 0.0470383 -3.80408e-19)
(0.0552508 0.0455827 2.37208e-19)
(0.0751022 0.0442779 2.94879e-19)
(0.0962954 0.0431935 -4.26356e-19)
(0.118659 0.0423851 -1.29876e-19)
(0.141993 0.0418954 2.18943e-19)
(0.166069 0.0417548 -1.35236e-19)
(0.190617 0.0419827 1.30856e-19)
(0.215315 0.0425837 -3.17259e-19)
(0.239752 0.0435372 5.2778e-20)
(0.263554 0.0449618 2.07424e-19)
(0.286912 0.0477913 -3.34236e-19)
(0.308325 0.0529185 9.02722e-20)
(-0.00930814 0.0100083 -1.39915e-19)
(-0.0227941 0.024585 4.3864e-19)
(-0.0317485 0.0348807 8.41566e-20)
(-0.0365006 0.04188 -2.27344e-19)
(-0.0374054 0.0463666 1.62825e-19)
(-0.0348057 0.0489673 8.27046e-20)
(-0.0290058 0.0501856 1.31926e-19)
(-0.0202695 0.0504239 -8.58523e-21)
(-0.00882313 0.0500031 -1.37316e-20)
(0.00513757 0.0491805 -2.87732e-20)
(0.0214403 0.0481633 -1.25533e-19)
(0.0399277 0.0471208 -4.27401e-21)
(0.0604487 0.046193 2.93236e-19)
(0.0828504 0.0454984 -4.81128e-19)
(0.10697 0.0451399 3.42316e-19)
(0.132624 0.0452093 6.92927e-20)
(0.159605 0.0457918 1.22601e-19)
(0.187664 0.046968 -6.34258e-20)
(0.216501 0.0488158 5.62068e-19)
(0.245752 0.0514112 -3.48473e-19)
(0.274955 0.0548128 2.79101e-19)
(0.303488 0.059011 6.59367e-20)
(0.330685 0.064038 -2.05214e-19)
(0.356665 0.0707671 1.74069e-19)
(0.380607 0.0796914 2.6935e-19)
(-0.00970728 0.00982036 -4.05754e-20)
(-0.0233399 0.0238701 -1.54622e-19)
(-0.0318151 0.0336321 -2.64102e-19)
(-0.0355484 0.0401382 -1.50372e-19)
(-0.0349529 0.0442089 -2.10179e-20)
(-0.0304136 0.0464972 -5.93006e-20)
(-0.0222672 0.047523 -2.74951e-19)
(-0.0108017 0.0476997 4.55977e-20)
(0.00373688 0.0473562 -3.0876e-19)
(0.0211364 0.046756 -2.39579e-20)
(0.0412083 0.0461131 -2.96011e-19)
(0.063778 0.0456035 -1.05423e-19)
(0.0886753 0.0453757 6.05252e-20)
(0.115726 0.0455591 -2.88056e-19)
(0.144742 0.0462714 2.59363e-21)
(0.175517 0.0476258 -2.48382e-19)
(0.207815 0.0497386 9.60027e-20)
(0.241362 0.0527381 -3.47327e-19)
(0.275834 0.0567763 -5.96719e-20)
(0.310832 0.0620443 -8.26105e-21)
(0.345836 0.0687755 -5.88941e-20)
(0.380086 0.0772255 -6.03241e-20)
(0.412571 0.087861 -2.99597e-20)
(0.442596 0.102166 -1.21167e-19)
(0.468315 0.119563 -2.60252e-19)
(-0.0100527 0.0095724 7.42932e-20)
(-0.0236534 0.022983 1.95907e-19)
(-0.0314083 0.0321277 2.35324e-19)
(-0.0338297 0.0380841 -1.87917e-19)
(-0.0313947 0.0417084 3.48679e-19)
(-0.0245338 0.043679 -1.8918e-19)
(-0.0136185 0.044531 1.0274e-19)
(0.00103592 0.0446869 1.6014e-19)
(0.0191608 0.0444815 1.45633e-19)
(0.0405224 0.0441824 7.08196e-20)
(0.06491 0.0440066 1.14403e-19)
(0.0921245 0.0441323 6.65205e-20)
(0.121968 0.0447103 4.49661e-19)
(0.154237 0.0458723 -3.26818e-19)
(0.188714 0.0477388 3.73315e-19)
(0.225165 0.0504279 -1.55202e-19)
(0.263338 0.0540646 3.3531e-19)
(0.302961 0.0587941 -1.57661e-20)
(0.343753 0.0648014 -6.94901e-20)
(0.385425 0.0723415 -1.27223e-20)
(0.427693 0.0817787 2.64516e-19)
(0.470315 0.0936885 -2.59027e-19)
(0.513372 0.109302 1.81964e-19)
(0.557414 0.130696 2.01829e-19)
(0.59818 0.152835 4.16075e-20)
(-0.0103291 0.00926131 5.13887e-20)
(-0.0236837 0.0219202 -2.80005e-19)
(-0.0304366 0.0303709 -1.01662e-19)
(-0.0312098 0.0357329 9.28657e-20)
(-0.0265513 0.0388963 -2.85756e-19)
(-0.0169415 0.0405631 -5.62993e-20)
(-0.002791 0.0412816 3.90634e-20)
(0.0155526 0.0414809 1.54298e-19)
(0.037791 0.0414989 -3.90477e-19)
(0.0636603 0.0416037 2.96928e-20)
(0.0929159 0.0420099 -1.1412e-19)
(0.12532 0.0428917 -3.46824e-19)
(0.160633 0.0443924 2.36292e-19)
(0.198601 0.0466333 1.01322e-20)
(0.23896 0.04972 -7.11272e-21)
(0.281428 0.0537495 2.38494e-19)
(0.325714 0.0588175 -4.218e-19)
(0.371524 0.0650258 3.34215e-19)
(0.418579 0.0724922 -6.17736e-20)
(0.466638 0.0813612 1.95298e-19)
(0.515527 0.0918097 -3.21485e-19)
(0.565194 0.104073 1.84575e-19)
(0.615948 0.118659 -3.30795e-19)
(0.668565 0.136293 3.41237e-19)
(0.71783 0.151751 -1.06441e-19)
(-0.0105185 0.00888379 3.44931e-19)
(-0.0233717 0.0206792 -5.61474e-20)
(-0.0287971 0.0283692 4.13991e-19)
(-0.0275404 0.0331081 1.91582e-19)
(-0.0202286 0.0358163 1.53961e-20)
(-0.00739793 0.0372171 8.3557e-20)
(0.0104951 0.0378691 2.01818e-20)
(0.0330621 0.0382051 3.40192e-19)
(0.0599639 0.0385622 1.09546e-19)
(0.090892 0.0392037 -1.47006e-20)
(0.12555 0.0403361 2.94108e-20)
(0.163642 0.0421207 1.13224e-19)
(0.204859 0.0446835 9.45194e-20)
(0.248874 0.0481218 2.02327e-19)
(0.295345 0.05251 -2.30484e-19)
(0.343909 0.0579045 6.96535e-20)
(0.394199 0.0643473 2.11386e-20)
(0.445849 0.0718694 1.03166e-19)
(0.498519 0.0804924 2.79775e-19)
(0.551908 0.0902267 -1.82537e-19)
(0.605785 0.101061 1.56059e-20)
(0.660006 0.112951 -2.58477e-19)
(0.714618 0.125927 2.44574e-19)
(0.769963 0.140327 -2.36586e-19)
(0.821166 0.153006 2.28203e-20)
(-0.0105992 0.00843668 -2.87652e-19)
(-0.0226505 0.0192601 2.19859e-19)
(-0.026376 0.0261352 -3.57685e-19)
(-0.0226608 0.0302415 3.08293e-20)
(-0.0122201 0.0325245 2.51491e-19)
(0.00434536 0.0337256 -4.18763e-19)
(0.0265232 0.0344098 3.32069e-19)
(0.0538712 0.035009 -5.26652e-19)
(0.0859931 0.0358546 1.04914e-19)
(0.122515 0.0371992 2.2433e-20)
(0.163064 0.0392329 1.76881e-19)
(0.207258 0.0420952 -5.87596e-19)
(0.254688 0.0458831 1.01448e-19)
(0.304923 0.0506574 1.07486e-19)
(0.357507 0.056448 -6.44642e-20)
(0.411965 0.0632568 -3.99976e-19)
(0.467819 0.0710609 1.88309e-19)
(0.524595 0.0798136 3.52588e-19)
(0.581849 0.0894443 -3.72157e-19)
(0.639178 0.0998541 2.70019e-19)
(0.69624 0.110906 -3.50198e-19)
(0.752751 0.122409 2.54558e-19)
(0.80852 0.134188 -7.06842e-20)
(0.863562 0.146489 4.04095e-19)
(0.913949 0.157914 -4.61184e-19)
(-0.0105461 0.00791723 4.11167e-20)
(-0.0214448 0.0176651 3.24349e-20)
(-0.0230489 0.0236873 7.93619e-20)
(-0.0163994 0.0271747 2.83333e-19)
(-0.00231114 0.029091 -8.88666e-21)
(0.0185393 0.0301906 6.32562e-20)
(0.0455693 0.0310398 2.81554e-19)
(0.0782646 0.0320644 1.13585e-19)
(0.116149 0.0335829 -3.74226e-20)
(0.158754 0.0358292 3.18462e-19)
(0.205603 0.0389675 -3.62624e-19)
(0.256189 0.043104 5.56347e-19)
(0.309974 0.0482947 -2.2077e-19)
(0.366384 0.0545519 4.00724e-19)
(0.424823 0.0618487 -1.35314e-19)
(0.484677 0.0701238 4.93648e-20)
(0.545334 0.0792846 5.98207e-20)
(0.606202 0.0892098 -1.157e-19)
(0.666726 0.0997508 9.68587e-20)
(0.726405 0.110731 6.23395e-20)
(0.784802 0.12194 8.607e-20)
(0.841545 0.13313 1.82643e-19)
(0.89632 0.14405 -1.55064e-20)
(0.948996 0.154884 -8.35703e-20)
(0.996814 0.165543 2.51887e-19)
(-0.0103305 0.00732353 -2.40462e-19)
(-0.0196721 0.0159007 2.54254e-20)
(-0.018683 0.0210513 -4.5678e-19)
(-0.00857768 0.0239601 -1.0904e-19)
(0.00971541 0.0255994 -2.04131e-19)
(0.0354285 0.0267304 -4.37496e-20)
(0.0678892 0.0279139 -2.18488e-19)
(0.106486 0.0295613 -1.30563e-19)
(0.150633 0.0319698 1.7284e-19)
(0.199736 0.0353434 -2.8845e-19)
(0.253171 0.0398086 -8.0119e-20)
(0.310276 0.0454252 3.19407e-21)
(0.370344 0.0521949 -5.41735e-19)
(0.432635 0.0600685 2.3034e-19)
(0.496386 0.0689529 -3.3638e-19)
(0.560834 0.0787172 -1.05148e-20)
(0.625236 0.0891991 6.64798e-20)
(0.68889 0.100211 -1.07788e-19)
(0.75116 0.111543 -9.45654e-20)
(0.811485 0.122969 4.73469e-20)
(0.869393 0.134249 5.30235e-20)
(0.924495 0.145124 -3.4341e-19)
(0.976476 0.155343 1.95865e-19)
(1.02519 0.165036 9.90242e-20)
(1.06895 0.174987 2.74403e-20)
(-0.00992048 0.00665513 2.45949e-19)
(-0.0172431 0.0139781 -2.62316e-19)
(-0.0131387 0.0182616 3.67876e-19)
(0.000986007 0.0206619 5.72723e-20)
(0.0240723 0.0221483 -1.754e-20)
(0.0552409 0.02348 -1.23525e-19)
(0.0937038 0.0252028 1.85748e-20)
(0.138721 0.0277036 1.87826e-19)
(0.189559 0.0312458 -2.59083e-19)
(0.245455 0.0359903 2.72109e-19)
(0.305604 0.0420107 -2.87533e-20)
(0.369148 0.0493051 1.26221e-20)
(0.435183 0.0578065 3.53969e-19)
(0.502781 0.0673925 4.74652e-19)
(0.571011 0.0778955 -1.85695e-19)
(0.638967 0.0891128 3.30265e-19)
(0.705799 0.100817 1.68058e-19)
(0.770737 0.112764 -1.02636e-19)
(0.833111 0.124704 3.26048e-19)
(0.892368 0.136387 -1.22124e-20)
(0.948074 0.14757 -3.14023e-19)
(0.999912 0.158019 3.31902e-19)
(1.04766 0.167516 4.8143e-20)
(1.09125 0.17616 -2.06349e-19)
(1.12987 0.185256 6.46529e-20)
(-0.00928085 0.00591371 -3.42138e-19)
(-0.0140632 0.0119152 3.57565e-19)
(-0.00627313 0.0153627 -2.26834e-19)
(0.0124711 0.0173578 -7.07432e-20)
(0.0409597 0.0188514 -1.58407e-19)
(0.0781761 0.0205895 2.80091e-19)
(0.123183 0.0230907 -1.62558e-19)
(0.175073 0.0267031 -7.4497e-20)
(0.232922 0.031641 -2.13229e-19)
(0.295757 0.0380048 5.49708e-21)
(0.362549 0.0457977 -8.34191e-20)
(0.432212 0.0549391 4.06509e-20)
(0.50363 0.0652791 -4.27733e-19)
(0.575683 0.0766122 1.21861e-19)
(0.647286 0.0886918 -1.4728e-19)
(0.717425 0.101246 -1.1885e-19)
(0.785191 0.11399 3.66329e-20)
(0.849806 0.126643 -1.73847e-19)
(0.91064 0.138934 -7.50469e-20)
(0.967224 0.150615 2.15493e-19)
(1.01924 0.161465 9.17463e-20)
(1.06651 0.171297 -3.89657e-19)
(1.10898 0.179947 2.87166e-19)
(1.14674 0.187517 -5.43738e-20)
(1.1796 0.195538 -1.12776e-19)
(-0.00837416 0.00510372 -1.24665e-19)
(-0.0100349 0.00973769 -6.66881e-20)
(0.00205629 0.0124114 -1.33009e-20)
(0.0260488 0.01414 9.75716e-20)
(0.0605567 0.0158383 1.06079e-19)
(0.104393 0.0182239 9.23291e-20)
(0.156432 0.0217721 1.14852e-19)
(0.215551 0.0267744 1.75264e-19)
(0.280589 0.033376 2.6786e-19)
(0.350319 0.0415967 2.64989e-19)
(0.423452 0.0513491 1.39943e-19)
(0.498658 0.0624576 -3.75785e-20)
(0.574605 0.0746766 9.37038e-21)
(0.650002 0.0877114 -1.29043e-20)
(0.723651 0.101238 1.10849e-19)
(0.794484 0.114924 -2.97963e-20)
(0.861606 0.128446 3.29771e-19)
(0.924308 0.141503 -1.47582e-19)
(0.982081 0.153829 2.46525e-21)
(1.03461 0.165204 1.05e-19)