1.275 	2.15223e-18 	-2.76991e-20 	-0.139986 	0.00413377 	-2.55894e-22
1.825 	2.15223e-18 	-1.39322e-20 	-0.263483 	0.0101008 	3.44738e-21
2.375 	2.15223e-18 	-2.66896e-23 	-0.346821 	0.023911 	-1.66761e-21
