/*--------------------------------*- C++ -*----------------------------------*\
  =========                 |
  \\      /  F ield         | OpenFOAM: The Open Source CFD Toolbox
   \\    /   O peration     | Website:  https://openfoam.org
    \\  /    A nd           | Version:  6.0
     \\/     M anipulation  |
\*---------------------------------------------------------------------------*/
FoamFile
{
    version     2.0;
    format      ascii;
    class       volScalarField;
    location    "13.4";
    object      p;
}
// * * * * * * * * * * * * * * * * * * * * * * * * * * * * * * * * * * * * * //

dimensions      [0 2 -2 0 0 0 0];

internalField   nonuniform List<scalar> 
8000
(
-0.288631
-0.289845
-0.290627
-0.291189
-0.291663
-0.292074
-0.292439
-0.292776
-0.293097
-0.29341
-0.293723
-0.294043
-0.294375
-0.294727
-0.295106
-0.295527
-0.295995
-0.296442
-0.296842
-0.2979
-0.288788
-0.289989
-0.290761
-0.291316
-0.291783
-0.292185
-0.292542
-0.292871
-0.293183
-0.293488
-0.293791
-0.2941
-0.294422
-0.294762
-0.29513
-0.295541
-0.295999
-0.296437
-0.296827
-0.297881
-0.289107
-0.290282
-0.291036
-0.291575
-0.292026
-0.292413
-0.292754
-0.293066
-0.293361
-0.293647
-0.293931
-0.294219
-0.294519
-0.294837
-0.295183
-0.295572
-0.296011
-0.29643
-0.296799
-0.297844
-0.289582
-0.290719
-0.291446
-0.291962
-0.292391
-0.292754
-0.29307
-0.293356
-0.293624
-0.293881
-0.294134
-0.29439
-0.294656
-0.29494
-0.295251
-0.295606
-0.296013
-0.296404
-0.296741
-0.297772
-0.290204
-0.291294
-0.291988
-0.292474
-0.29287
-0.293201
-0.293483
-0.293734
-0.293963
-0.29418
-0.29439
-0.294601
-0.294819
-0.295054
-0.295315
-0.295622
-0.295984
-0.296335
-0.296628
-0.297637
-0.290966
-0.292003
-0.292655
-0.293103
-0.29346
-0.293749
-0.293987
-0.294191
-0.29437
-0.294534
-0.294687
-0.294837
-0.294993
-0.295161
-0.295356
-0.295597
-0.295899
-0.296195
-0.296431
-0.297411
-0.291858
-0.292837
-0.293443
-0.293845
-0.294154
-0.294391
-0.294574
-0.29472
-0.294837
-0.294933
-0.295014
-0.295088
-0.295162
-0.295246
-0.295354
-0.295511
-0.295733
-0.295956
-0.29612
-0.297062
-0.292874
-0.293792
-0.294346
-0.294696
-0.294948
-0.295123
-0.295241
-0.295316
-0.295357
-0.295372
-0.295366
-0.295345
-0.295319
-0.295297
-0.295296
-0.295344
-0.295463
-0.295593
-0.295669
-0.296562
-0.294008
-0.294864
-0.295361
-0.295652
-0.295838
-0.295943
-0.295985
-0.295978
-0.295931
-0.295851
-0.295741
-0.295609
-0.295461
-0.295311
-0.295177
-0.295088
-0.295077
-0.295087
-0.295054
-0.295887
-0.29526
-0.296052
-0.296488
-0.296713
-0.296825
-0.296849
-0.296805
-0.296706
-0.296561
-0.296373
-0.296147
-0.295886
-0.295599
-0.295298
-0.295001
-0.294746
-0.29457
-0.294426
-0.294254
-0.295012
-0.296631
-0.297358
-0.297727
-0.297877
-0.297907
-0.297843
-0.297705
-0.297506
-0.297254
-0.296951
-0.296597
-0.296196
-0.295753
-0.295278
-0.294792
-0.294335
-0.293953
-0.293609
-0.293256
-0.293914
-0.298127
-0.298786
-0.299081
-0.299149
-0.299089
-0.298929
-0.29869
-0.298386
-0.298022
-0.297598
-0.297113
-0.296564
-0.295952
-0.295286
-0.294585
-0.29389
-0.293252
-0.292647
-0.292046
-0.29256
-0.299757
-0.300342
-0.300555
-0.300533
-0.300373
-0.300109
-0.299764
-0.299351
-0.298874
-0.298331
-0.297714
-0.297016
-0.296234
-0.295366
-0.294428
-0.293456
-0.292508
-0.291563
-0.290615
-0.290902
-0.301534
-0.302035
-0.302157
-0.302032
-0.301764
-0.301388
-0.300931
-0.300407
-0.299818
-0.299158
-0.298416
-0.297578
-0.296628
-0.295557
-0.294368
-0.293088
-0.29177
-0.29039
-0.28895
-0.288874
-0.303472
-0.303878
-0.303895
-0.303656
-0.303266
-0.302769
-0.302193
-0.301554
-0.300854
-0.300083
-0.299225
-0.298256
-0.29715
-0.295884
-0.29444
-0.292829
-0.291085
-0.289163
-0.287043
-0.286388
-0.30559
-0.305886
-0.305781
-0.30541
-0.304884
-0.304252
-0.303547
-0.302787
-0.301974
-0.301095
-0.300128
-0.29904
-0.297793
-0.296345
-0.294654
-0.292701
-0.290488
-0.287925
-0.284912
-0.283376
-0.307908
-0.308075
-0.307829
-0.307307
-0.306624
-0.305839
-0.304991
-0.304099
-0.303165
-0.302174
-0.301099
-0.299901
-0.298526
-0.296913
-0.294993
-0.292706
-0.290013
-0.286754
-0.282669
-0.279875
-0.310452
-0.310467
-0.310056
-0.309359
-0.308496
-0.307537
-0.306524
-0.305482
-0.304412
-0.3033
-0.302113
-0.300804
-0.299311
-0.297551
-0.295425
-0.292828
-0.289665
-0.285689
-0.28038
-0.275827
-0.313253
-0.313088
-0.312486
-0.311586
-0.310516
-0.309354
-0.308153
-0.306938
-0.305714
-0.304464
-0.303157
-0.301741
-0.300148
-0.298283
-0.296021
-0.293208
-0.289659
-0.284961
-0.278141
-0.271041
-0.316345
-0.315971
-0.315145
-0.314012
-0.312704
-0.311313
-0.309896
-0.308484
-0.307084
-0.305683
-0.304252
-0.302746
-0.301107
-0.299259
-0.297104
-0.294517
-0.291317
-0.286978
-0.280125
-0.272009
-0.319773
-0.319153
-0.318069
-0.31667
-0.315094
-0.313443
-0.311784
-0.310152
-0.308558
-0.306993
-0.305437
-0.303861
-0.302237
-0.300544
-0.298787
-0.297035
-0.295457
-0.294351
-0.294934
-0.30375
-0.323587
-0.322678
-0.3213
-0.319601
-0.317725
-0.315788
-0.313864
-0.311992
-0.310187
-0.308448
-0.306762
-0.305118
-0.303513
-0.301971
-0.30056
-0.299432
-0.298866
-0.299305
-0.301722
-0.310348
-0.327843
-0.326595
-0.324883
-0.322851
-0.320648
-0.318401
-0.316193
-0.314066
-0.31204
-0.310117
-0.308295
-0.306573
-0.304968
-0.303529
-0.30235
-0.301595
-0.301521
-0.302473
-0.304945
-0.311111
-0.332599
-0.330957
-0.328869
-0.326473
-0.323917
-0.321342
-0.318835
-0.316442
-0.314185
-0.312067
-0.310091
-0.308263
-0.306609
-0.305179
-0.304064
-0.303397
-0.303356
-0.304143
-0.305976
-0.309733
-0.337917
-0.335819
-0.333312
-0.330523
-0.327592
-0.324671
-0.321854
-0.319184
-0.316681
-0.314348
-0.312185
-0.310198
-0.308408
-0.306858
-0.305614
-0.304762
-0.304401
-0.304616
-0.305493
-0.30713
-0.343854
-0.341232
-0.338265
-0.335055
-0.33173
-0.328451
-0.325309
-0.322346
-0.319573
-0.316986
-0.31458
-0.312353
-0.310315
-0.308494
-0.306928
-0.305666
-0.30475
-0.304196
-0.304041
-0.304031
-0.35046
-0.347246
-0.343778
-0.340123
-0.336387
-0.332734
-0.329251
-0.325968
-0.322883
-0.319984
-0.317251
-0.314675
-0.312255
-0.310004
-0.307944
-0.306096
-0.304476
-0.303078
-0.301917
-0.300644
-0.357779
-0.353903
-0.349896
-0.345775
-0.341611
-0.337565
-0.333713
-0.330066
-0.326607
-0.323307
-0.320138
-0.317082
-0.314133
-0.311298
-0.308593
-0.306034
-0.303628
-0.301373
-0.299279
-0.297041
-0.365839
-0.361234
-0.356654
-0.352049
-0.347438
-0.342974
-0.338709
-0.334633
-0.330708
-0.326893
-0.323152
-0.319469
-0.315841
-0.312282
-0.308811
-0.305452
-0.30222
-0.299124
-0.296172
-0.293148
-0.374653
-0.369258
-0.364077
-0.35897
-0.353891
-0.348967
-0.344225
-0.339626
-0.335114
-0.330641
-0.326177
-0.321713
-0.317265
-0.312861
-0.308535
-0.304322
-0.30025
-0.296339
-0.292597
-0.288887
-0.384211
-0.377974
-0.372172
-0.366547
-0.360966
-0.355522
-0.350211
-0.344964
-0.339717
-0.334424
-0.329075
-0.323685
-0.318294
-0.312951
-0.307711
-0.302619
-0.297711
-0.293017
-0.288534
-0.284189
-0.39448
-0.387363
-0.380924
-0.374761
-0.36863
-0.362583
-0.356579
-0.35053
-0.344375
-0.338091
-0.331699
-0.325253
-0.318822
-0.31248
-0.306295
-0.300322
-0.294599
-0.289153
-0.283972
-0.279021
-0.405398
-0.397375
-0.39029
-0.383563
-0.376816
-0.370052
-0.3632
-0.356168
-0.348919
-0.341473
-0.3339
-0.326294
-0.318758
-0.311386
-0.304254
-0.297417
-0.290909
-0.284748
-0.278909
-0.273375
-0.416868
-0.40793
-0.400195
-0.392865
-0.38541
-0.377785
-0.369901
-0.36169
-0.353161
-0.344399
-0.335531
-0.326695
-0.318023
-0.30962
-0.301561
-0.293893
-0.286639
-0.279804
-0.273343
-0.267258
-0.428756
-0.418913
-0.410524
-0.402536
-0.394255
-0.385593
-0.376475
-0.366882
-0.356902
-0.346697
-0.336455
-0.326357
-0.316548
-0.307137
-0.298188
-0.289734
-0.281781
-0.274317
-0.267277
-0.260678
-0.440889
-0.430168
-0.421118
-0.412399
-0.403144
-0.393249
-0.382683
-0.371518
-0.359942
-0.348203
-0.336549
-0.325188
-0.314271
-0.303896
-0.294108
-0.284921
-0.276321
-0.268279
-0.260704
-0.253637
-0.45305
-0.441496
-0.431775
-0.422228
-0.411829
-0.400487
-0.388268
-0.375364
-0.362085
-0.348765
-0.335698
-0.323107
-0.311133
-0.299853
-0.289289
-0.279428
-0.270239
-0.261672
-0.253611
-0.246131
-0.464985
-0.452658
-0.442247
-0.431755
-0.42002
-0.40702
-0.39296
-0.378192
-0.363148
-0.348242
-0.333799
-0.320036
-0.307075
-0.294962
-0.283691
-0.273223
-0.263506
-0.25447
-0.245976
-0.238142
-0.476401
-0.463375
-0.452245
-0.440671
-0.427403
-0.412545
-0.396495
-0.379781
-0.36296
-0.346506
-0.330754
-0.315902
-0.302039
-0.289174
-0.277271
-0.266266
-0.256086
-0.246642
-0.237773
-0.229647
-0.486972
-0.473331
-0.461443
-0.448638
-0.433645
-0.41676
-0.398616
-0.37993
-0.361367
-0.34344
-0.326474
-0.310632
-0.295962
-0.282435
-0.269982
-0.258513
-0.24794
-0.238153
-0.228968
-0.220618
-0.496346
-0.482181
-0.469488
-0.455299
-0.438407
-0.419369
-0.399084
-0.378452
-0.358228
-0.338938
-0.320875
-0.304157
-0.288785
-0.274691
-0.261773
-0.249921
-0.239027
-0.228963
-0.219528
-0.211022
-0.504154
-0.489562
-0.47601
-0.460291
-0.44136
-0.420096
-0.39768
-0.375183
-0.35342
-0.332902
-0.313877
-0.296409
-0.280448
-0.265887
-0.252596
-0.240443
-0.229307
-0.219037
-0.209417
-0.200827
-0.510021
-0.495099
-0.480632
-0.463257
-0.442191
-0.418688
-0.394213
-0.369981
-0.346833
-0.325247
-0.305409
-0.287324
-0.270893
-0.255973
-0.242405
-0.230039
-0.21874
-0.208337
-0.198605
-0.190004
-0.513573
-0.498419
-0.482989
-0.46386
-0.440618
-0.414926
-0.38852
-0.362722
-0.338375
-0.315896
-0.295406
-0.276846
-0.260071
-0.244902
-0.231157
-0.21867
-0.207293
-0.196835
-0.187064
-0.178528
-0.514454
-0.499165
-0.482732
-0.461791
-0.436392
-0.408624
-0.380465
-0.353309
-0.327968
-0.304787
-0.283812
-0.264925
-0.247935
-0.232634
-0.218817
-0.206305
-0.194938
-0.184506
-0.174774
-0.16638
-0.512333
-0.497002
-0.479546
-0.456782
-0.429307
-0.399633
-0.369942
-0.341664
-0.31555
-0.291866
-0.270581
-0.251519
-0.23445
-0.219136
-0.205356
-0.192919
-0.181655
-0.171333
-0.161722
-0.153547
-0.506913
-0.491633
-0.473157
-0.448611
-0.419201
-0.387842
-0.356878
-0.327732
-0.30108
-0.277098
-0.255681
-0.2366
-0.219588
-0.204385
-0.190755
-0.178497
-0.16743
-0.157307
-0.147901
-0.140024
-0.497944
-0.482806
-0.463342
-0.437107
-0.405958
-0.37318
-0.341226
-0.311482
-0.284532
-0.260459
-0.23909
-0.220147
-0.203334
-0.188369
-0.175005
-0.163031
-0.15226
-0.142426
-0.133314
-0.125813
-0.485228
-0.470323
-0.449933
-0.422155
-0.389513
-0.355613
-0.322971
-0.292906
-0.265899
-0.241944
-0.220803
-0.202157
-0.185682
-0.171084
-0.158103
-0.146525
-0.13615
-0.126701
-0.117973
-0.110928
-0.468625
-0.454044
-0.432823
-0.403694
-0.369845
-0.335146
-0.302128
-0.272019
-0.245194
-0.221562
-0.200826
-0.182633
-0.16664
-0.152537
-0.140059
-0.128987
-0.119115
-0.11015
-0.101903
-0.0953932
-0.448058
-0.433892
-0.411967
-0.381722
-0.346981
-0.311821
-0.27874
-0.248861
-0.222452
-0.199341
-0.179183
-0.161597
-0.146222
-0.132743
-0.120889
-0.110437
-0.101174
-0.0927987
-0.0851365
-0.0792505
-0.423513
-0.409857
-0.387384
-0.35629
-0.320995
-0.285715
-0.252881
-0.223496
-0.197725
-0.175325
-0.15591
-0.139077
-0.124456
-0.111726
-0.100613
-0.0908945
-0.0823515
-0.0746759
-0.0677106
-0.0625442
-0.395044
-0.381993
-0.359152
-0.327504
-0.292003
-0.256941
-0.224652
-0.196013
-0.171088
-0.149576
-0.131058
-0.115116
-0.101376
-0.0895129
-0.0792561
-0.0703816
-0.0626679
-0.0558072
-0.0496582
-0.0452979
-0.362767
-0.350417
-0.327411
-0.295518
-0.26016
-0.225646
-0.194184
-0.166524
-0.142639
-0.122177
-0.104695
-0.0897684
-0.0770222
-0.066136
-0.0568418
-0.0489178
-0.0421434
-0.0362179
-0.0310032
-0.0275022
-0.326862
-0.315311
-0.292354
-0.260535
-0.225665
-0.192011
-0.161638
-0.13517
-0.112498
-0.0932273
-0.0769027
-0.0630978
-0.0514432
-0.0416266
-0.0333886
-0.0265139
-0.0207887
-0.0159225
-0.0117556
-0.00915707
-0.287567
-0.276909
-0.254227
-0.2228
-0.188748
-0.156247
-0.127203
-0.102116
-0.0808078
-0.0628516
-0.0477845
-0.0351858
-0.0246972
-0.016021
-0.00891266
-0.00316969
0.00140918
0.00509773
0.00807823
0.00960475
-0.245171
-0.235499
-0.213319
-0.182597
-0.149675
-0.118596
-0.0910949
-0.0675569
-0.0477405
-0.0311974
-0.0174642
-0.00613122
0.0031421
0.0106315
0.0165582
0.0211085
0.0244668
0.0268508
0.0283771
0.0283794
-0.200011
-0.191414
-0.169963
-0.140244
-0.108743
-0.0793274
-0.0535593
-0.0317127
-0.0134933
0.00156312
0.0139153
0.023957
0.0320045
0.0383005
0.0430316
0.0463626
0.0484369
0.049294
0.048818
0.0467222
-0.152465
-0.145025
-0.124521
-0.0960881
-0.0662733
-0.0387385
-0.0148689
0.00516461
0.0217027
0.0352227
0.0461787
0.0549506
0.0618317
0.0670296
0.0706938
0.0729574
0.0738476
0.073003
0.06995
0.0657117
-0.102943
-0.0967358
-0.0773861
-0.0504987
-0.0226088
0.0028532
0.0246787
0.0427922
0.0575755
0.0695177
0.0790737
0.0866213
0.0924507
0.0967681
0.0997358
0.101505
0.101975
0.100287
0.0957358
0.0911518
-0.051883
-0.0469732
-0.0289685
-0.00386132
0.0218931
0.0451153
0.0647693
0.0808662
0.0938216
0.104133
0.112257
0.118574
0.12339
0.126948
0.129496
0.131313
0.132369
0.131672
0.128965
0.132598
0.000269117
0.00382382
0.0203105
0.0434301
0.0668679
0.0877089
0.105083
0.119079
0.130136
0.138755
0.145385
0.150401
0.154106
0.156757
0.158617
0.159951
0.160744
0.160521
0.160187
0.165986
0.0530485
0.0552024
0.0700208
0.0909771
0.11195
0.130296
0.145304
0.157128
0.166228
0.173098
0.178178
0.181833
0.184361
0.186016
0.18705
0.187685
0.187902
0.187405
0.187112
0.191786
0.105988
0.106708
0.119733
0.138385
0.156777
0.172545
0.185124
0.194725
0.201818
0.206889
0.21036
0.212582
0.213838
0.21437
0.21441
0.214156
0.213602
0.212523
0.211675
0.214837
0.158623
0.15789
0.169024
0.185264
0.200998
0.214134
0.224248
0.231598
0.236657
0.239896
0.241721
0.24246
0.242378
0.241699
0.240628
0.239333
0.237798
0.235824
0.234105
0.235859
0.210495
0.208303
0.217479
0.231238
0.24427
0.254755
0.262396
0.26749
0.270509
0.271907
0.272067
0.271297
0.269841
0.267902
0.265663
0.263265
0.260676
0.257719
0.255054
0.255459
0.261159
0.257517
0.264695
0.275942
0.286267
0.294113
0.299301
0.302162
0.303159
0.302729
0.30123
0.29895
0.296111
0.292896
0.289466
0.285939
0.282272
0.278315
0.2747
0.273831
0.310183
0.305114
0.310287
0.319027
0.326675
0.331928
0.334713
0.335387
0.334405
0.332183
0.329056
0.325289
0.321086
0.31661
0.312002
0.307359
0.302633
0.297703
0.293163
0.291083
0.357154
0.350699
0.353888
0.360162
0.365198
0.367934
0.368393
0.366953
0.364058
0.360101
0.355398
0.350191
0.344663
0.338962
0.333211
0.32749
0.321749
0.315891
0.310466
0.307239
0.401682
0.393893
0.39515
0.399035
0.401557
0.401881
0.400117
0.396658
0.391937
0.386326
0.380117
0.373533
0.366741
0.359871
0.35303
0.346284
0.339585
0.332856
0.326593
0.322282
0.443399
0.434345
0.433749
0.435353
0.43549
0.433535
0.429675
0.424315
0.417873
0.410704
0.403077
0.395198
0.387216
0.379247
0.371383
0.363678
0.356087
0.348552
0.341504
0.336178
0.481964
0.471728
0.469384
0.468846
0.466755
0.462678
0.456871
0.449745
0.441709
0.433093
0.424152
0.415071
0.405987
0.397001
0.388191
0.379601
0.371194
0.362919
0.355144
0.348877
0.517064
0.50574
0.501778
0.499266
0.49513
0.489111
0.481524
0.472788
0.463295
0.453361
0.44322
0.433045
0.422956
0.413043
0.403374
0.393982
0.384835
0.375893
0.367456
0.360327
0.548416
0.536112
0.530684
0.526389
0.520413
0.512652
0.503471
0.493292
0.482496
0.471382
0.460169
0.449015
0.438029
0.427289
0.416853
0.406747
0.396944
0.38741
0.378379
0.370476
0.575768
0.562603
0.55588
0.550016
0.542426
0.53314
0.522565
0.511125
0.499191
0.487047
0.474898
0.462889
0.45112
0.43966
0.428555
0.417828
0.407456
0.397409
0.387856
0.379275
0.598902
0.585003
0.577175
0.569973
0.561012
0.550433
0.538677
0.52617
0.513273
0.500257
0.487316
0.474584
0.462154
0.450084
0.438414
0.427163
0.416312
0.405832
0.395838
0.386678
0.617633
0.603136
0.594407
0.586116
0.576041
0.564413
0.5517
0.538328
0.52465
0.510928
0.497345
0.484029
0.471063
0.4585
0.446374
0.434699
0.423461
0.412632
0.402278
0.392648
0.631812
0.616862
0.607445
0.598327
0.587407
0.574983
0.561544
0.547517
0.533249
0.518992
0.504924
0.491164
0.477793
0.464857
0.452385
0.44039
0.42886
0.417768
0.407141
0.397154
0.641327
0.626071
0.616192
0.606517
0.595028
0.58207
0.568144
0.553678
0.539012
0.524396
0.510002
0.495946
0.482302
0.469116
0.456413
0.444203
0.432477
0.421208
0.410397
0.40017
0.646102
0.630693
0.620581
0.610626
0.598852
0.585625
0.571455
0.556767
0.541903
0.527107
0.512549
0.498344
0.484564
0.471252
0.458433
0.446115
0.434291
0.422933
0.41203
0.401681
0.6461
0.630692
0.62058
0.610624
0.59885
0.585623
0.571453
0.556766
0.541901
0.527105
0.512548
0.498342
0.484562
0.471251
0.458431
0.446114
0.43429
0.422932
0.412028
0.40168
0.641322
0.626066
0.616187
0.606512
0.595023
0.582065
0.56814
0.553673
0.539008
0.524392
0.509998
0.495942
0.482298
0.469112
0.456409
0.444199
0.432473
0.421204
0.410393
0.400166
0.631803
0.616853
0.607437
0.598319
0.587399
0.574975
0.561537
0.54751
0.533241
0.518984
0.504916
0.491157
0.477785
0.46485
0.452378
0.440383
0.428853
0.417761
0.407134
0.397147
0.61762
0.603124
0.594395
0.586105
0.57603
0.564402
0.551689
0.538317
0.524639
0.510917
0.497335
0.484019
0.471052
0.45849
0.446364
0.434689
0.423451
0.412622
0.402269
0.392639
0.598886
0.584987
0.57716
0.569958
0.560998
0.550419
0.538663
0.526156
0.513259
0.500243
0.487302
0.474571
0.462141
0.450071
0.438402
0.42715
0.416299
0.40582
0.395826
0.386666
0.575749
0.562583
0.555861
0.549997
0.542408
0.533122
0.522548
0.511108
0.499174
0.48703
0.474882
0.462873
0.451104
0.439644
0.428539
0.417812
0.40744
0.397394
0.387841
0.37926
0.548393
0.536088
0.530661
0.526367
0.520391
0.512631
0.50345
0.493272
0.482476
0.471362
0.46015
0.448996
0.43801
0.42727
0.416834
0.406728
0.396926
0.387392
0.378361
0.370458
0.517037
0.505712
0.501751
0.49924
0.495104
0.489086
0.4815
0.472764
0.463271
0.453337
0.443197
0.433022
0.422934
0.413021
0.403352
0.39396
0.384814
0.375872
0.367435
0.360307
0.481932
0.471695
0.469352
0.468816
0.466726
0.46265
0.456843
0.449718
0.441682
0.433067
0.424126
0.415046
0.405962
0.396976
0.388166
0.379577
0.371169
0.362895
0.355121
0.348854
0.443362
0.434308
0.433713
0.435319
0.435456
0.433502
0.429643
0.424283
0.417843
0.410674
0.403048
0.395169
0.387188
0.379219
0.371355
0.36365
0.35606
0.348525
0.341477
0.336152
0.40164
0.393852
0.39511
0.398996
0.401519
0.401844
0.400082
0.396623
0.391903
0.386292
0.380084
0.3735
0.366709
0.359839
0.352999
0.346253
0.339554
0.332826
0.326564
0.322254
0.357107
0.350652
0.353843
0.360118
0.365156
0.367893
0.368353
0.366914
0.364019
0.360064
0.355362
0.350155
0.344628
0.338927
0.333177
0.327456
0.321715
0.315858
0.310434
0.307207
0.310131
0.305062
0.310237
0.318978
0.326628
0.331882
0.334669
0.335344
0.334363
0.332141
0.329016
0.32525
0.321047
0.316571
0.311964
0.307321
0.302596
0.297667
0.293128
0.291049
0.261101
0.257459
0.264639
0.275888
0.286215
0.294063
0.299253
0.302114
0.303112
0.302683
0.301186
0.298906
0.296068
0.292854
0.289425
0.285898
0.282231
0.278275
0.274661
0.273793
0.210431
0.208239
0.217417
0.231179
0.244213
0.2547
0.262342
0.267438
0.270458
0.271857
0.272018
0.271249
0.269794
0.267856
0.265618
0.263221
0.260632
0.257676
0.255012
0.255418
0.158553
0.15782
0.168957
0.185199
0.200935
0.214074
0.224189
0.231541
0.236601
0.239842
0.241668
0.242408
0.242327
0.241649
0.240579
0.239285
0.237751
0.235777
0.234058
0.235814
0.105911
0.106632
0.119659
0.138313
0.156709
0.172479
0.18506
0.194663
0.201758
0.20683
0.210303
0.212525
0.213782
0.214316
0.214357
0.214103
0.213551
0.212473
0.211625
0.214788
0.0529645
0.055119
0.06994
0.0908997
0.111876
0.130225
0.145235
0.157061
0.166162
0.173034
0.178116
0.181772
0.184301
0.185958
0.186993
0.187629
0.187846
0.18735
0.187058
0.191734
0.000177818
0.00373322
0.0202228
0.0433461
0.0667875
0.0876316
0.105009
0.119006
0.130066
0.138686
0.145318
0.150335
0.154041
0.156694
0.158555
0.15989
0.160684
0.160462
0.160129
0.165929
-0.0519818
-0.0470712
-0.0290633
-0.00395211
0.0218062
0.0450319
0.0646888
0.0807883
0.0937459
0.104059
0.112185
0.118504
0.123321
0.126881
0.12943
0.131247
0.132304
0.131609
0.128901
0.132536
-0.10305
-0.0968415
-0.0774884
-0.0505965
-0.0227023
0.00276352
0.0245923
0.0427086
0.0574943
0.0694387
0.0789966
0.0865459
0.0923768
0.0966955
0.0996645
0.101434
0.101905
0.100219
0.0956673
0.0910834
-0.152579
-0.145139
-0.124631
-0.0961932
-0.0663736
-0.0388347
-0.0149614
0.00507519
0.021616
0.0351383
0.0460964
0.0548701
0.0617528
0.0669522
0.0706177
0.0728823
0.0737735
0.0729296
0.0698771
0.0656387
-0.200133
-0.191535
-0.17008
-0.140356
-0.10885
-0.0794301
-0.0536581
-0.031808
-0.0135857
0.00147325
0.0138277
0.0238714
0.0319207
0.0382182
0.0429507
0.046283
0.0483583
0.0492164
0.0487412
0.0466456
-0.245301
-0.235629
-0.213445
-0.182717
-0.14979
-0.118705
-0.0912
-0.0676583
-0.0478387
-0.0312928
-0.0175571
-0.00622196
0.00305331
0.0105445
0.0164727
0.0210244
0.024384
0.0267692
0.0282964
0.0282993
-0.287706
-0.277047
-0.25436
-0.222927
-0.188869
-0.156363
-0.127314
-0.102224
-0.0809119
-0.0629526
-0.0478828
-0.0352817
-0.024791
-0.0161129
-0.00900275
-0.00325821
0.00132209
0.00501199
0.00799373
0.00952105
-0.32701
-0.315457
-0.292496
-0.26067
-0.225793
-0.192134
-0.161756
-0.135284
-0.112607
-0.0933339
-0.0770064
-0.0631989
-0.0515419
-0.0417232
-0.0334833
-0.0266068
-0.0208801
-0.0160123
-0.011844
-0.00924451
-0.362923
-0.350572
-0.327561
-0.295661
-0.260297
-0.225776
-0.194309
-0.166644
-0.142755
-0.122289
-0.104804
-0.0898746
-0.0771259
-0.0662374
-0.0569411
-0.0490152
-0.042239
-0.0363118
-0.0310955
-0.0275934
-0.395207
-0.382155
-0.35931
-0.327654
-0.292146
-0.257077
-0.224783
-0.196139
-0.17121
-0.149694
-0.131173
-0.115228
-0.101484
-0.089619
-0.0793599
-0.0704834
-0.0627677
-0.0559052
-0.0497545
-0.0453929
-0.423684
-0.410027
-0.387549
-0.356448
-0.321146
-0.285858
-0.253018
-0.223629
-0.197852
-0.175448
-0.156029
-0.139193
-0.12457
-0.111837
-0.100721
-0.0910007
-0.0824556
-0.074778
-0.0678109
-0.0626431
-0.448236
-0.434069
-0.41214
-0.381888
-0.347139
-0.311971
-0.278884
-0.249
-0.222585
-0.19947
-0.179308
-0.161718
-0.146341
-0.132859
-0.121002
-0.110548
-0.101283
-0.092905
-0.0852407
-0.0793533
-0.468811
-0.454228
-0.433003
-0.403867
-0.370009
-0.335303
-0.302278
-0.272163
-0.245333
-0.221696
-0.200957
-0.18276
-0.166763
-0.152657
-0.140177
-0.129102
-0.119227
-0.11026
-0.102011
-0.0954998
-0.485421
-0.470514
-0.450119
-0.422334
-0.389684
-0.355777
-0.323128
-0.293056
-0.266043
-0.242084
-0.220938
-0.202288
-0.185811
-0.171209
-0.158225
-0.146644
-0.136267
-0.126815
-0.118086
-0.111038
-0.498143
-0.483004
-0.463534
-0.437293
-0.406136
-0.37335
-0.341388
-0.311638
-0.284682
-0.260604
-0.239231
-0.220284
-0.203467
-0.188499
-0.175131
-0.163155
-0.152381
-0.142545
-0.13343
-0.125928
-0.507117
-0.491836
-0.473355
-0.448803
-0.419384
-0.388018
-0.357046
-0.327893
-0.301236
-0.277248
-0.255826
-0.236741
-0.219725
-0.204519
-0.190886
-0.178625
-0.167555
-0.157429
-0.148021
-0.140142
-0.512542
-0.49721
-0.479749
-0.456979
-0.429496
-0.399814
-0.370116
-0.34183
-0.315711
-0.292021
-0.270731
-0.251665
-0.234592
-0.219274
-0.205491
-0.193051
-0.181784
-0.17146
-0.161847
-0.153669
-0.514668
-0.499377
-0.48294
-0.461993
-0.436587
-0.40881
-0.380643
-0.353481
-0.328133
-0.304946
-0.283967
-0.265075
-0.248082
-0.232777
-0.218956
-0.206441
-0.195072
-0.184638
-0.174903
-0.166506
-0.51379
-0.498635
-0.483201
-0.464066
-0.440817
-0.415117
-0.388703
-0.362899
-0.338545
-0.316061
-0.295565
-0.277001
-0.260222
-0.245049
-0.231301
-0.218811
-0.207431
-0.196971
-0.187197
-0.178659
-0.51024
-0.495317
-0.480847
-0.463467
-0.442394
-0.418883
-0.394401
-0.370161
-0.347008
-0.325416
-0.305573
-0.287483
-0.271049
-0.256125
-0.242553
-0.230184
-0.218882
-0.208477
-0.198742
-0.190139
-0.504376
-0.489782
-0.476227
-0.460504
-0.441566
-0.420295
-0.397872
-0.375368
-0.353599
-0.333075
-0.314045
-0.296572
-0.280607
-0.266043
-0.252749
-0.240592
-0.229453
-0.21918
-0.209558
-0.200966
-0.49657
-0.482403
-0.469707
-0.455514
-0.438616
-0.419572
-0.399279
-0.37864
-0.358411
-0.339115
-0.321047
-0.304325
-0.288948
-0.27485
-0.261929
-0.250074
-0.239178
-0.229111
-0.219673
-0.211165
-0.487196
-0.473552
-0.461663
-0.448853
-0.433856
-0.416965
-0.398815
-0.380122
-0.361553
-0.343621
-0.32665
-0.310804
-0.296129
-0.282599
-0.270142
-0.25867
-0.248095
-0.238305
-0.229118
-0.220765
-0.476625
-0.463597
-0.452465
-0.440887
-0.427615
-0.412752
-0.396696
-0.379976
-0.36315
-0.34669
-0.330933
-0.316077
-0.30221
-0.289342
-0.277435
-0.266427
-0.256244
-0.246798
-0.237927
-0.229798
-0.465208
-0.452879
-0.442466
-0.431971
-0.420233
-0.407228
-0.393163
-0.378389
-0.36334
-0.348429
-0.333981
-0.320215
-0.30725
-0.295134
-0.283859
-0.273388
-0.263668
-0.25463
-0.246134
-0.238297
-0.453272
-0.441716
-0.431993
-0.422444
-0.412041
-0.400696
-0.388471
-0.375564
-0.362279
-0.348955
-0.335884
-0.323289
-0.311311
-0.300028
-0.289461
-0.279598
-0.270406
-0.261836
-0.253773
-0.24629
-0.441109
-0.430386
-0.421334
-0.412613
-0.403356
-0.393457
-0.382888
-0.371719
-0.360138
-0.348395
-0.336738
-0.325373
-0.314453
-0.304074
-0.294284
-0.285094
-0.276492
-0.268448
-0.26087
-0.253802
-0.428975
-0.419129
-0.410738
-0.402749
-0.394466
-0.385801
-0.37668
-0.367084
-0.3571
-0.346891
-0.336646
-0.326544
-0.316733
-0.307319
-0.298368
-0.289911
-0.281956
-0.274491
-0.267448
-0.260847
-0.417085
-0.408144
-0.400408
-0.393076
-0.385619
-0.377991
-0.370105
-0.361891
-0.35336
-0.344595
-0.335723
-0.326886
-0.318211
-0.309805
-0.301744
-0.294074
-0.286818
-0.279982
-0.273519
-0.267432
-0.405612
-0.397586
-0.390501
-0.383772
-0.377023
-0.370257
-0.363403
-0.356369
-0.349118
-0.34167
-0.334094
-0.326487
-0.318949
-0.311575
-0.304442
-0.297603
-0.291093
-0.284931
-0.27909
-0.273555
-0.394692
-0.387572
-0.381132
-0.374968
-0.368835
-0.362787
-0.356781
-0.350731
-0.344573
-0.338288
-0.331895
-0.325448
-0.319015
-0.312672
-0.306486
-0.300512
-0.294788
-0.28934
-0.284159
-0.279206
-0.38442
-0.378181
-0.372377
-0.366751
-0.361168
-0.355723
-0.350411
-0.345163
-0.339915
-0.334622
-0.329272
-0.323882
-0.31849
-0.313147
-0.307906
-0.302813
-0.297905
-0.293209
-0.288726
-0.28438
-0.374859
-0.369462
-0.36428
-0.359172
-0.354091
-0.349166
-0.344423
-0.339824
-0.335312
-0.330839
-0.326375
-0.321912
-0.317464
-0.31306
-0.308734
-0.304521
-0.300448
-0.296538
-0.292794
-0.289085
-0.366043
-0.361436
-0.356855
-0.352248
-0.347636
-0.343171
-0.338906
-0.33483
-0.330905
-0.32709
-0.323351
-0.319669
-0.316042
-0.312483
-0.309014
-0.305655
-0.302423
-0.299328
-0.296376
-0.293352
-0.357981
-0.354103
-0.350094
-0.345971
-0.341806
-0.33776
-0.333908
-0.330261
-0.326803
-0.323504
-0.320337
-0.317283
-0.314336
-0.311503
-0.3088
-0.306242
-0.303837
-0.301583
-0.299489
-0.297251
-0.35066
-0.347445
-0.343975
-0.340318
-0.33658
-0.332927
-0.329444
-0.326161
-0.323078
-0.32018
-0.31745
-0.314877
-0.31246
-0.310212
-0.308154
-0.306309
-0.304691
-0.303294
-0.302134
-0.300862
-0.344052
-0.341429
-0.33846
-0.335248
-0.331922
-0.328642
-0.3255
-0.322538
-0.319767
-0.317183
-0.31478
-0.312556
-0.310522
-0.308705
-0.307143
-0.305884
-0.30497
-0.304419
-0.304265
-0.304255
-0.338115
-0.336015
-0.333506
-0.330715
-0.327782
-0.324862
-0.322044
-0.319375
-0.316874
-0.314544
-0.312385
-0.310403
-0.308618
-0.307073
-0.305833
-0.304985
-0.304629
-0.304846
-0.305725
-0.307363
-0.332797
-0.331152
-0.329062
-0.326664
-0.324107
-0.321531
-0.319024
-0.316633
-0.314378
-0.312264
-0.310293
-0.30847
-0.306821
-0.305397
-0.304288
-0.303626
-0.30359
-0.304381
-0.306217
-0.309973
-0.32804
-0.326789
-0.325075
-0.323041
-0.320837
-0.31859
-0.316383
-0.314258
-0.312235
-0.310316
-0.308498
-0.306781
-0.305183
-0.303751
-0.302578
-0.30183
-0.301762
-0.302719
-0.305195
-0.311361
-0.323784
-0.322871
-0.321491
-0.31979
-0.317914
-0.315977
-0.314054
-0.312184
-0.310383
-0.308648
-0.306968
-0.30533
-0.303732
-0.302196
-0.300793
-0.299673
-0.299114
-0.29956
-0.301981
-0.310608
-0.319969
-0.319345
-0.31826
-0.316859
-0.315282
-0.313632
-0.311974
-0.310345
-0.308755
-0.307195
-0.305645
-0.304076
-0.302459
-0.300773
-0.299025
-0.297281
-0.295712
-0.294615
-0.295204
-0.304022
-0.31654
-0.316162
-0.315334
-0.3142
-0.312892
-0.311501
-0.310086
-0.308678
-0.307282
-0.305887
-0.304462
-0.302964
-0.301333
-0.299493
-0.297347
-0.294769
-0.291579
-0.28725
-0.280408
-0.272302
-0.313446
-0.313278
-0.312673
-0.311772
-0.310702
-0.309542
-0.308344
-0.307132
-0.305913
-0.304669
-0.303369
-0.301961
-0.300376
-0.29852
-0.296267
-0.293463
-0.289924
-0.285236
-0.278426
-0.271334
-0.310643
-0.310653
-0.310241
-0.309543
-0.308681
-0.307723
-0.306714
-0.305676
-0.304611
-0.303505
-0.302326
-0.301025
-0.29954
-0.29779
-0.295673
-0.293085
-0.289931
-0.285965
-0.280664
-0.276118
-0.308095
-0.308257
-0.30801
-0.307488
-0.306806
-0.306024
-0.305179
-0.304291
-0.303363
-0.302379
-0.301312
-0.300121
-0.298755
-0.297152
-0.29524
-0.292962
-0.290279
-0.287028
-0.28295
-0.280162
-0.305771
-0.306064
-0.305957
-0.305587
-0.305062
-0.304432
-0.303731
-0.302977
-0.302169
-0.301297
-0.300337
-0.299258
-0.298021
-0.296582
-0.2949
-0.292955
-0.290752
-0.288196
-0.285189
-0.283659
-0.303647
-0.30405
-0.304066
-0.303827
-0.303439
-0.302944
-0.302373
-0.301739
-0.301045
-0.300281
-0.29943
-0.29847
-0.297373
-0.296116
-0.294681
-0.293078
-0.291343
-0.289428
-0.287314
-0.286666
-0.301701
-0.3022
-0.302321
-0.302197
-0.30193
-0.301558
-0.301105
-0.300586
-0.300003
-0.29935
-0.298616
-0.297785
-0.296844
-0.295782
-0.294601
-0.29333
-0.29202
-0.290648
-0.289214
-0.289145
-0.299916
-0.300498
-0.300711
-0.30069
-0.300532
-0.300271
-0.29993
-0.299522
-0.299051
-0.298514
-0.297905
-0.297215
-0.296441
-0.295582
-0.294651
-0.293688
-0.292748
-0.291811
-0.290869
-0.291164
-0.298276
-0.298933
-0.299228
-0.299298
-0.299239
-0.299082
-0.298847
-0.298548
-0.29819
-0.297772
-0.297294
-0.296752
-0.296149
-0.295491
-0.294798
-0.29411
-0.293481
-0.292883
-0.292289
-0.29281
-0.296769
-0.297495
-0.297864
-0.298016
-0.298048
-0.297987
-0.297852
-0.297658
-0.297411
-0.297114
-0.296767
-0.296373
-0.295937
-0.29547
-0.294992
-0.294543
-0.294168
-0.293831
-0.293485
-0.294151
-0.295387
-0.296178
-0.296615
-0.29684
-0.296954
-0.296982
-0.296941
-0.296847
-0.296706
-0.296524
-0.296304
-0.29605
-0.29577
-0.295476
-0.295187
-0.294939
-0.29477
-0.294633
-0.294468
-0.295234
-0.294123
-0.294978