/*--------------------------------*- C++ -*----------------------------------*\
  =========                 |
  \\      /  F ield         | OpenFOAM: The Open Source CFD Toolbox
   \\    /   O peration     | Website:  https://openfoam.org
    \\  /    A nd           | Version:  6.0
     \\/     M anipulation  |
\*---------------------------------------------------------------------------*/
FoamFile
{
    version     2.0;
    format      ascii;
    class       volScalarField;
    location    "11.5";
    object      p;
}
// * * * * * * * * * * * * * * * * * * * * * * * * * * * * * * * * * * * * * //

dimensions      [0 2 -2 0 0 0 0];

internalField   nonuniform List<scalar> 
8000
(
-0.296613
-0.29795
-0.298806
-0.299425
-0.299955
-0.300424
-0.300853
-0.301262
-0.301665
-0.30207
-0.302485
-0.302918
-0.303375
-0.303864
-0.304395
-0.304987
-0.305643
-0.306242
-0.306751
-0.308369
-0.296808
-0.298124
-0.298968
-0.299577
-0.300098
-0.300558
-0.300979
-0.30138
-0.301773
-0.302169
-0.302574
-0.302997
-0.303444
-0.303922
-0.304441
-0.305024
-0.30567
-0.306262
-0.306762
-0.308377
-0.297188
-0.298466
-0.299285
-0.299875
-0.300378
-0.300821
-0.301224
-0.301607
-0.301982
-0.302358
-0.302743
-0.303144
-0.303568
-0.304023
-0.30452
-0.30508
-0.305707
-0.306283
-0.306761
-0.308369
-0.297745
-0.298968
-0.299751
-0.300313
-0.300789
-0.301204
-0.301581
-0.301936
-0.302282
-0.302627
-0.302979
-0.303346
-0.303734
-0.304152
-0.304612
-0.305137
-0.305733
-0.306281
-0.306726
-0.308318
-0.298465
-0.29962
-0.300358
-0.300882
-0.301321
-0.3017
-0.302039
-0.302355
-0.30266
-0.302961
-0.303268
-0.303585
-0.303922
-0.304288
-0.304694
-0.305167
-0.305717
-0.306226
-0.306624
-0.30819
-0.299334
-0.300412
-0.301096
-0.301574
-0.301967
-0.302298
-0.302588
-0.302852
-0.303102
-0.303346
-0.303591
-0.303843
-0.304111
-0.304405
-0.30474
-0.305143
-0.305629
-0.306081
-0.306417
-0.307946
-0.300336
-0.301332
-0.301956
-0.302379
-0.302716
-0.302989
-0.303217
-0.303416
-0.303598
-0.303768
-0.303934
-0.304102
-0.304282
-0.304484
-0.304724
-0.305034
-0.305435
-0.305813
-0.306071
-0.307548
-0.301459
-0.30237
-0.302928
-0.303289
-0.30356
-0.303763
-0.303918
-0.304039
-0.304136
-0.304216
-0.304285
-0.30435
-0.304419
-0.304506
-0.304627
-0.304819
-0.305109
-0.30539
-0.30555
-0.306962
-0.302691
-0.303519
-0.304006
-0.304298
-0.304493
-0.304616
-0.304685
-0.304714
-0.304713
-0.304687
-0.304642
-0.304583
-0.30452
-0.304466
-0.304442
-0.304486
-0.304634
-0.304788
-0.304829
-0.30616
-0.304027
-0.304772
-0.305186
-0.305401
-0.305512
-0.305544
-0.305516
-0.305442
-0.30533
-0.305185
-0.305009
-0.304809
-0.304592
-0.304373
-0.304172
-0.304035
-0.304006
-0.303997
-0.303888
-0.30512
-0.305464
-0.30613
-0.306466
-0.306597
-0.306616
-0.306549
-0.306415
-0.306228
-0.305995
-0.30572
-0.305403
-0.305047
-0.304658
-0.304249
-0.303843
-0.303487
-0.303237
-0.303016
-0.302712
-0.303816
-0.307007
-0.307596
-0.307849
-0.30789
-0.307808
-0.307633
-0.307385
-0.307079
-0.30672
-0.306309
-0.305845
-0.305325
-0.304752
-0.304135
-0.303495
-0.302882
-0.302358
-0.301862
-0.301293
-0.30222
-0.308665
-0.309175
-0.309342
-0.309283
-0.309092
-0.308802
-0.308435
-0.308005
-0.307519
-0.306973
-0.306361
-0.305677
-0.304916
-0.30408
-0.303185
-0.302276
-0.30142
-0.300564
-0.299625
-0.300283
-0.310453
-0.310881
-0.310951
-0.310784
-0.310475
-0.310062
-0.30957
-0.309016
-0.308403
-0.307726
-0.306974
-0.306133
-0.305189
-0.304134
-0.30297
-0.301731
-0.300481
-0.299165
-0.297701
-0.297938
-0.312389
-0.312727
-0.312691
-0.312403
-0.311964
-0.311419
-0.310797
-0.310116
-0.309379
-0.308577
-0.307695
-0.30671
-0.305597
-0.304331
-0.302895
-0.301303
-0.299599
-0.29771
-0.295522
-0.295097
-0.314497
-0.314731
-0.314574
-0.314151
-0.313569
-0.312879
-0.312119
-0.311306
-0.310444
-0.309522
-0.308519
-0.307404
-0.306139
-0.304678
-0.302979
-0.301024
-0.298822
-0.296255
-0.293119
-0.291702
-0.316803
-0.316917
-0.31662
-0.316043
-0.315299
-0.31445
-0.313537
-0.312582
-0.31159
-0.310548
-0.309428
-0.308193
-0.306789
-0.305152
-0.303209
-0.3009
-0.298187
-0.294887
-0.290623
-0.287812
-0.319338
-0.31931
-0.31885
-0.318096
-0.317168
-0.316139
-0.315055
-0.313944
-0.31281
-0.311638
-0.310399
-0.309046
-0.307514
-0.30572
-0.303558
-0.300919
-0.297705
-0.293652
-0.288117
-0.283406
-0.32214
-0.321941
-0.321291
-0.320332
-0.319195
-0.317961
-0.316685
-0.315397
-0.314103
-0.31279
-0.311425
-0.309958
-0.308317
-0.306407
-0.304096
-0.301223
-0.297599
-0.292795
-0.285732
-0.278364
-0.325248
-0.324845
-0.323973
-0.32278
-0.321405
-0.319939
-0.318447
-0.31696
-0.315488
-0.31402
-0.312526
-0.310962
-0.309266
-0.30736
-0.305139
-0.302471
-0.299167
-0.294695
-0.287596
-0.279165
-0.328709
-0.328062
-0.326933
-0.325475
-0.323831
-0.322106
-0.320372
-0.318665
-0.316998
-0.315363
-0.31374
-0.312098
-0.310405
-0.308635
-0.306785
-0.304908
-0.30316
-0.30181
-0.301987
-0.310126
-0.332576
-0.331639
-0.330214
-0.328457
-0.326514
-0.324505
-0.322507
-0.320561
-0.318683
-0.316872
-0.315114
-0.313395
-0.311709
-0.31007
-0.308539
-0.307253
-0.306473
-0.306619
-0.308608
-0.31654
-0.336904
-0.335624
-0.333863
-0.331772
-0.329503
-0.327186
-0.324906
-0.322707
-0.320608
-0.31861
-0.316709
-0.314902
-0.3132
-0.311642
-0.310315
-0.30937
-0.309048
-0.309678
-0.31173
-0.317255
-0.341752
-0.340069
-0.337929
-0.335473
-0.332852
-0.330208
-0.327631
-0.325166
-0.322834
-0.320638
-0.318575
-0.316648
-0.314876
-0.313303
-0.31201
-0.311121
-0.310802
-0.311244
-0.312657
-0.315832
-0.347177
-0.345028
-0.342464
-0.339613
-0.336617
-0.33363
-0.330742
-0.328
-0.325418
-0.322998
-0.320736
-0.318632
-0.316702
-0.314981
-0.313529
-0.312426
-0.311764
-0.311622
-0.312088
-0.313218
-0.353234
-0.350551
-0.347521
-0.344247
-0.340856
-0.337509
-0.334297
-0.331258
-0.328399
-0.325715
-0.323192
-0.320825
-0.31862
-0.316599
-0.314796
-0.313257
-0.312022
-0.31111
-0.310559
-0.310109
-0.359972
-0.356685
-0.353148
-0.349426
-0.345622
-0.3419
-0.338343
-0.334977
-0.331796
-0.328782
-0.325911
-0.323168
-0.320551
-0.31807
-0.315745
-0.3136
-0.311651
-0.309896
-0.308358
-0.306698
-0.367431
-0.36347
-0.359388
-0.355197
-0.350962
-0.346844
-0.342911
-0.339171
-0.335599
-0.332163
-0.328828
-0.325575
-0.322398
-0.319303
-0.316309
-0.313434
-0.310692
-0.308086
-0.305632
-0.303043
-0.375639
-0.370938
-0.366277
-0.361597
-0.356912
-0.352368
-0.348013
-0.343827
-0.339768
-0.335788
-0.331851
-0.327939
-0.324051
-0.320203
-0.316422
-0.312734
-0.309163
-0.305722
-0.302425
-0.299073
-0.384604
-0.379103
-0.373837
-0.368652
-0.363491
-0.358478
-0.35363
-0.3489
-0.344226
-0.339556
-0.334861
-0.330135
-0.325396
-0.32068
-0.316026
-0.311476
-0.307063
-0.302814
-0.298738
-0.294714
-0.394317
-0.387966
-0.382073
-0.376365
-0.370694
-0.365148
-0.359709
-0.354304
-0.348861
-0.343336
-0.33772
-0.332034
-0.326326
-0.320652
-0.315071
-0.309637
-0.304391
-0.299363
-0.294557
-0.289906
-0.404741
-0.397503
-0.390969
-0.384717
-0.378486
-0.372317
-0.366158
-0.359917
-0.353528
-0.346974
-0.34028
-0.333509
-0.326738
-0.32005
-0.313517
-0.307201
-0.301142
-0.29537
-0.289875
-0.284624
-0.415811
-0.407661
-0.400478
-0.393655
-0.386792
-0.379882
-0.372842
-0.36558
-0.358057
-0.350303
-0.342395
-0.334438
-0.326545
-0.318817
-0.311335
-0.304156
-0.297317
-0.290838
-0.284692
-0.278866
-0.427426
-0.418359
-0.410522
-0.403085
-0.395495
-0.387693
-0.379585
-0.3711
-0.362257
-0.35315
-0.343919
-0.334714
-0.325673
-0.316908
-0.308498
-0.300492
-0.292914
-0.285769
-0.27901
-0.27264
-0.439449
-0.429475
-0.420979
-0.412872
-0.404431
-0.395557
-0.386172
-0.376263
-0.365929
-0.355348
-0.34472
-0.334237
-0.324053
-0.314279
-0.304983
-0.296196
-0.287926
-0.280161
-0.272831
-0.265954
-0.4517
-0.44085
-0.431688
-0.422833
-0.413389
-0.403241
-0.392364
-0.38084
-0.368875
-0.356733
-0.344676
-0.332922
-0.321627
-0.31089
-0.300761
-0.291248
-0.282339
-0.274003
-0.266147
-0.258813
-0.463961
-0.452279
-0.44244
-0.432737
-0.422113
-0.410476
-0.3979
-0.384599
-0.3709
-0.357157
-0.343676
-0.330687
-0.318336
-0.306699
-0.295799
-0.285621
-0.276132
-0.267279
-0.258946
-0.251207
-0.475971
-0.46352
-0.452982
-0.442308
-0.430312
-0.416971
-0.402513
-0.387311
-0.371823
-0.35648
-0.341616
-0.327456
-0.314122
-0.301659
-0.290059
-0.279282
-0.269273
-0.259961
-0.251204
-0.24312
-0.487433
-0.474286
-0.463019
-0.451235
-0.437665
-0.422424
-0.405936
-0.38876
-0.371477
-0.354577
-0.338403
-0.323157
-0.308926
-0.295719
-0.283496
-0.27219
-0.261728
-0.252017
-0.242894
-0.234528
-0.498016
-0.484259
-0.472222
-0.459176
-0.443839
-0.426529
-0.407914
-0.388744
-0.369708
-0.351332
-0.333946
-0.317716
-0.302686
-0.288826
-0.276061
-0.264302
-0.253456
-0.24341
-0.233981
-0.2254
-0.507366
-0.493091
-0.480233
-0.46577
-0.448494
-0.428994
-0.408211
-0.38708
-0.366377
-0.346639
-0.328163
-0.311065
-0.295342
-0.280924
-0.267705
-0.255572
-0.244415
-0.234102
-0.224431
-0.215705
-0.51511
-0.500412
-0.486679
-0.470653
-0.4513
-0.429543
-0.40661
-0.383606
-0.361364
-0.340404
-0.320974
-0.303136
-0.286834
-0.27196
-0.258379
-0.245954
-0.234564
-0.224055
-0.214209
-0.205409
-0.520871
-0.505848
-0.491183
-0.473469
-0.451948
-0.427927
-0.402923
-0.37818
-0.354559
-0.33254
-0.312308
-0.293865
-0.277105
-0.261882
-0.248034
-0.235407
-0.223865
-0.213232
-0.203283
-0.194483
-0.524276
-0.509025
-0.493378
-0.47388
-0.450155
-0.423929
-0.396988
-0.370684
-0.345872
-0.322972
-0.302101
-0.283195
-0.266103
-0.250643
-0.236629
-0.223892
-0.212282
-0.201605
-0.191626
-0.182901
-0.524968
-0.509586
-0.492918
-0.471581
-0.445678
-0.417366
-0.388672
-0.36102
-0.335226
-0.311638
-0.290296
-0.271076
-0.253784
-0.238203
-0.224129
-0.211379
-0.199789
-0.189148
-0.179218
-0.170645
-0.522617
-0.507196
-0.489488
-0.466307
-0.438313
-0.408092
-0.377874
-0.349111
-0.322561
-0.298486
-0.276849
-0.257469
-0.24011
-0.22453
-0.210506
-0.197842
-0.186366
-0.175845
-0.166046
-0.157702
-0.51693
-0.501561
-0.482819
-0.457838
-0.427901
-0.396
-0.36452
-0.334906
-0.307836
-0.28348
-0.261728
-0.242344
-0.225057
-0.209602
-0.195739
-0.183266
-0.171998
-0.161686
-0.152103
-0.144068
-0.507658
-0.492433
-0.47269
-0.446008
-0.414332
-0.381021
-0.348568
-0.318375
-0.291026
-0.266598
-0.244911
-0.225682
-0.208608
-0.193404
-0.17982
-0.167644
-0.156684
-0.146672
-0.137392
-0.129746
-0.494606
-0.479616
-0.458937
-0.430706
-0.397542
-0.363124
-0.330004
-0.299511
-0.272126
-0.247835
-0.226395
-0.207478
-0.190758
-0.175936
-0.162748
-0.150979
-0.140428
-0.130811
-0.121927
-0.114747
-0.477639
-0.462974
-0.441459
-0.411877
-0.377516
-0.342318
-0.308844
-0.278331
-0.25115
-0.227203
-0.206186
-0.187739
-0.171516
-0.157203
-0.144533
-0.133283
-0.123245
-0.114124
-0.105732
-0.0990978
-0.456684
-0.442436
-0.420214
-0.38952
-0.354284
-0.318646
-0.285135
-0.254876
-0.228133
-0.204728
-0.184308
-0.166485
-0.150897
-0.137223
-0.12519
-0.114573
-0.105157
-0.0966366
-0.0888397
-0.0828408
-0.431731
-0.417995
-0.395226
-0.363693
-0.327922
-0.292189
-0.258951
-0.229212
-0.20313
-0.180457
-0.160798
-0.143747
-0.128929
-0.116018
-0.10474
-0.09487
-0.0861859
-0.078377
-0.0712884
-0.0660205
-0.402839
-0.38971
-0.366578
-0.334504
-0.298549
-0.263062
-0.230396
-0.201429
-0.176218
-0.154453
-0.135711
-0.119568
-0.105645
-0.0936174
-0.0832096
-0.0741964
-0.0663539
-0.0593717
-0.0531108
-0.0486602
-0.370129
-0.357705
-0.334413
-0.302111
-0.266326
-0.231415
-0.199604
-0.171641
-0.147493
-0.126799
-0.109112
-0.0940013
-0.0810894
-0.070053
-0.0606216
-0.052572
-0.0456812
-0.0396459
-0.0343308
-0.0307499
-0.333785
-0.322161
-0.298929
-0.266722
-0.231451
-0.19743
-0.166737
-0.139991
-0.117077
-0.0975961
-0.0810848
-0.0671132
-0.0553087
-0.0453565
-0.0369952
-0.0300078
-0.0241786
-0.0192144
-0.0149582
-0.0122896
-0.294047
-0.283321
-0.260375
-0.228583
-0.194159
-0.16132
-0.131983
-0.106644
-0.0851171
-0.0669699
-0.0517341
-0.0389853
-0.0283622
-0.0195648
-0.0123467
-0.00650395
-0.00183329
0.00194133
0.00499976
0.00658583
-0.25121
-0.241475
-0.219046
-0.187982
-0.154717
-0.123329
-0.0955627
-0.0717966
-0.0517834
-0.0350687
-0.0211842
-0.00971722
-0.000324182
0.00727257
0.0132958
0.0179332
0.0213712
0.0238289
0.0254201
0.0254674
-0.205614
-0.196959
-0.175274
-0.145239
-0.113424
-0.0837295
-0.0577218
-0.0356706
-0.0172752
-0.00206563
0.0104211
0.0205816
0.0287349
0.0351251
0.0399402
0.0433463
0.0454883
0.0464058
0.0459779
0.0439094
-0.15764
-0.150148
-0.129427
-0.100704
-0.0706042
-0.0428184
-0.0187347
0.00148087
0.0181752
0.0318307
0.0429056
0.0517825
0.0587566
0.0640371
0.0677744
0.0701029
0.0710505
0.0702525
0.0672291
0.0630057
-0.107701
-0.101448
-0.0818984
-0.0547469
-0.026601
-0.00091529
0.0210998
0.0393738
0.0542943
0.0663555
0.0760158
0.0836556
0.0895668
0.0939573
0.0969903
0.0988179
0.0993397
0.0976906
0.0931589
0.0885961
-0.0562372
-0.051288
-0.0331012
-0.00775599
0.0182264
0.041646
0.0614661
0.0777029
0.0907776
0.101192
0.109407
0.115804
0.120691
0.124314
0.126922
0.128794
0.129901
0.129244
0.126562
0.130261
-0.00369629
-0.000108805
0.0165416
0.0398736
0.0635124
0.0845256
0.102044
0.116159
0.127319
0.136026
0.142733
0.147817
0.151584
0.154291
0.156203
0.157587
0.158426
0.158243
0.157948
0.16382
0.049455
0.0516349
0.0665989
0.0877426
0.10889
0.127385
0.142515
0.154441
0.163626
0.17057
0.175714
0.179426
0.182006
0.183709
0.184788
0.185466
0.185723
0.185262
0.185006
0.189745
0.102748
0.103488
0.11664
0.135455
0.153998
0.169891
0.182572
0.192257
0.19942
0.204551
0.208074
0.210342
0.21164
0.212211
0.212288
0.21207
0.211551
0.210504
0.209688
0.212904
0.155717
0.154997
0.166242
0.182621
0.198482
0.211722
0.221919
0.229336
0.23445
0.237736
0.239601
0.240376
0.240327
0.239678
0.238636
0.237371
0.235863
0.233914
0.232222
0.234022
0.207904
0.205718
0.214987
0.228864
0.242001
0.252569
0.260275
0.265421
0.268481
0.269914
0.270103
0.269358
0.267926
0.266009
0.263792
0.261416
0.258847
0.25591
0.253266
0.253708
0.258861
0.255219
0.262474
0.273818
0.284227
0.292138
0.297375
0.300272
0.301298
0.30089
0.299411
0.297146
0.294322
0.291121
0.287706
0.284193
0.28054
0.276596
0.272997
0.272158
0.308157
0.303083
0.308318
0.317135
0.324847
0.330148
0.332967
0.333663
0.332698
0.330487
0.32737
0.32361
0.319413
0.314943
0.310343
0.305707
0.30099
0.296067
0.291538
0.289481
0.35538
0.348912
0.35215
0.358484
0.363566
0.366333
0.366812
0.365382
0.362492
0.358537
0.353834
0.348625
0.343097
0.337396
0.331645
0.325925
0.320187
0.314331
0.308912
0.305701
0.400137
0.392331
0.393623
0.397551
0.400103
0.400444
0.398687
0.395227
0.3905
0.384882
0.378664
0.372072
0.365272
0.358395
0.351549
0.344798
0.338096
0.331366
0.325104
0.320804
0.442063
0.432987
0.432414
0.434046
0.434198
0.432247
0.428382
0.42301
0.416554
0.409369
0.401726
0.393831
0.385835
0.377853
0.369978
0.362264
0.354666
0.347124
0.340073
0.334753
0.480816
0.470553
0.46822
0.467698
0.465609
0.461524
0.4557
0.448554
0.440494
0.431856
0.422892
0.413789
0.404685
0.395681
0.386855
0.378252
0.369832
0.361547
0.353766
0.347499
0.516082
0.504728
0.500768
0.498258
0.494113
0.488075
0.480463
0.471697
0.462174
0.45221
0.44204
0.431838
0.421724
0.411789
0.402099
0.392689
0.383527
0.374572
0.366124
0.358992
0.54758
0.535242
0.529807
0.525504
0.519509
0.51172
0.502505
0.49229
0.481457
0.470307
0.45906
0.447874
0.436858
0.426092
0.415631
0.405504
0.395683
0.386133
0.377088
0.369179
0.575057
0.561854
0.555118
0.549236
0.541618
0.532296
0.521681
0.510199
0.498223
0.486038
0.47385
0.461805
0.450003
0.438512
0.42738
0.416629
0.406235
0.396169
0.386601
0.37801
0.598295
0.584357
0.576509
0.569282
0.560286
0.549664
0.537862
0.525308
0.512363
0.499302
0.486319
0.473548
0.461081
0.448978
0.437278
0.426
0.415125
0.404625
0.394612
0.385441
0.617111
0.602573
0.593818
0.585497
0.575381
0.563704
0.55094
0.537517
0.523788
0.510018
0.49639
0.483031
0.470026
0.457427
0.445269
0.433566
0.422302
0.41145
0.401077
0.391433
0.631354
0.616361
0.606916
0.597762
0.586796
0.574321
0.560827
0.546746
0.532423
0.518116
0.504
0.490196
0.476784
0.46381
0.451305
0.43928
0.427723
0.416606
0.405958
0.395956
0.640914
0.625615
0.615704
0.60599
0.594452
0.58144
0.567457
0.552933
0.538213
0.523544
0.509101
0.494999
0.481313
0.468088
0.45535
0.443109
0.431356
0.420061
0.409229
0.398984
0.645715
0.630261
0.620116
0.61012
0.598295
0.585013
0.570784
0.556039
0.541118
0.526268
0.51166
0.497408
0.483585
0.470235
0.45738
0.445031
0.433178
0.421794
0.410869
0.400503
0.645718
0.630265
0.620119
0.610123
0.598298
0.585015
0.570787
0.556041
0.54112
0.52627
0.511662
0.49741
0.483587
0.470236
0.457381
0.445032
0.433179
0.421796
0.41087
0.400504
0.640925
0.625625
0.615713
0.605999
0.594461
0.581447
0.567464
0.55294
0.538219
0.52355
0.509106
0.495004
0.481318
0.468093
0.455355
0.443113
0.431359
0.420065
0.409232
0.398987
0.631372
0.616379
0.606932
0.597777
0.58681
0.574333
0.560839
0.546757
0.532434
0.518125
0.504009
0.490205
0.476792
0.463818
0.451312
0.439287
0.427729
0.416612
0.405964
0.395961
0.617135
0.602597
0.593841
0.585518
0.5754
0.563722
0.550957
0.537532
0.523803
0.510031
0.496402
0.483043
0.470037
0.457438
0.445279
0.433575
0.422311
0.411459
0.401085
0.391441
0.598327
0.584387
0.576538
0.569309
0.560311
0.549687
0.537883
0.525327
0.512382
0.499319
0.486335
0.473563
0.461095
0.448991
0.437291
0.426012
0.415137
0.404636
0.394623
0.38545
0.575095
0.561891
0.555153
0.549269
0.541648
0.532324
0.521707
0.510223
0.498245
0.486058
0.473869
0.461823
0.45002
0.438528
0.427395
0.416643
0.406249
0.396182
0.386613
0.378022
0.547625
0.535285
0.529848
0.525542
0.519544
0.511752
0.502535
0.492318
0.481483
0.470332
0.459083
0.447895
0.436878
0.426111
0.415649
0.405521
0.395699
0.386148
0.377102
0.369193
0.516133
0.504777
0.500814
0.498302
0.494153
0.488112
0.480497
0.471729
0.462204
0.452237
0.442066
0.431862
0.421747
0.41181
0.402119
0.392709
0.383545
0.374589
0.36614
0.359008
0.480872
0.470608
0.468273
0.467746
0.465654
0.461565
0.455739
0.44859
0.440528
0.431887
0.422921
0.413817
0.404711
0.395705
0.386878
0.378273
0.369853
0.361567
0.353784
0.347517
0.442125
0.433048
0.432471
0.4341
0.434248
0.432293
0.428424
0.423049
0.416591
0.409403
0.401758
0.393861
0.385863
0.37788
0.370003
0.362287
0.354689
0.347145
0.340093
0.334772
0.400205
0.392397
0.393685
0.397609
0.400157
0.400494
0.398733
0.395269
0.39054
0.384919
0.378699
0.372104
0.365303
0.358424
0.351576
0.344824
0.338121
0.331389
0.325126
0.320825
0.355452
0.348982
0.352216
0.358546
0.363624
0.366387
0.366861
0.365428
0.362534
0.358577
0.353871
0.34866
0.34313
0.337427
0.331675
0.325953
0.320213
0.314356
0.308936
0.305724
0.308234
0.303157
0.308388
0.317201
0.324909
0.330205
0.333019
0.333712
0.332743
0.33053
0.327409
0.323647
0.319448
0.314976
0.310374
0.305737
0.301018
0.296094
0.291564
0.289505
0.258941
0.255297
0.262548
0.273888
0.284291
0.292198
0.29743
0.300323
0.301346
0.300935
0.299453
0.297186
0.294359
0.291156
0.287739
0.284224
0.280569
0.276624
0.273024
0.272184
0.207988
0.205799
0.215064
0.228937
0.242068
0.252632
0.260333
0.265475
0.268531
0.269961
0.270147
0.2694
0.267965
0.266046
0.263826
0.261448
0.258878
0.255939
0.253294
0.253735
0.155804
0.155081
0.166322
0.182697
0.198552
0.211787
0.221979
0.229392
0.234502
0.237785
0.239647
0.240419
0.240368
0.239716
0.238673
0.237405
0.235896
0.233945
0.232251
0.23405
0.102837
0.103574
0.116723
0.135533
0.15407
0.169958
0.182634
0.192315
0.199474
0.204601
0.208122
0.210387
0.211682
0.212251
0.212326
0.212106
0.211585
0.210536
0.209719
0.212934
0.0495457
0.0517233
0.0666834
0.0878222
0.108964
0.127453
0.142579
0.1545
0.163682
0.170622
0.175763
0.179472
0.18205
0.18375
0.184827
0.185503
0.185758
0.185295
0.185037
0.189775
-0.00360439
-1.92119e-05
0.0166275
0.0399545
0.0635879
0.0845958
0.102109
0.11622
0.127376
0.136079
0.142783
0.147864
0.151628
0.154333
0.156243
0.157625
0.158463
0.158277
0.157981
0.163852
-0.0561447
-0.0511977
-0.0330146
-0.00767419
0.0183028
0.0417172
0.0615323
0.0777647
0.0908354
0.101247
0.109458
0.115852
0.120737
0.124358
0.126963
0.128833
0.129938
0.129279
0.126596
0.130293
-0.107609
-0.101358
-0.0818115
-0.0546646
-0.0265241
-0.000843495
0.0211667
0.0394363
0.0543529
0.0664105
0.0760677
0.0837046
0.0896132
0.0940013
0.0970322
0.0988579
0.0993779
0.0977271
0.0931942
0.0886306
-0.157548
-0.150058
-0.12934
-0.100621
-0.0705271
-0.0427464
-0.0186674
0.00154377
0.0182342
0.0318862
0.0429579
0.051832
0.0588036
0.0640818
0.067817
0.0701437
0.0710896
0.0702902
0.0672657
0.0630415
-0.205523
-0.19687
-0.175188
-0.145158
-0.113348
-0.0836576
-0.0576546
-0.0356076
-0.0172161
-0.00200994
0.0104737
0.0206315
0.0287822
0.0351702
0.0399833
0.0433877
0.045528
0.0464441
0.0460151
0.0439458
-0.25112
-0.241388
-0.218961
-0.187901
-0.154641
-0.123258
-0.0954958
-0.0717338
-0.0517244
-0.035013
-0.0211316
-0.00966728
-0.00027666
0.00731792
0.0133392
0.0179749
0.0214112
0.0238676
0.0254575
0.0255039
-0.29396
-0.283236
-0.260293
-0.228504
-0.194084
-0.16125
-0.131917
-0.106582
-0.0850585
-0.0669146
-0.0516817
-0.0389355
-0.0283148
-0.0195195
-0.0123033
-0.00646224
-0.00179312
0.0019801
0.0050373
0.00662233
-0.3337
-0.322079
-0.298849
-0.266644
-0.231377
-0.197361
-0.166671
-0.139929
-0.11702
-0.0975414
-0.0810329
-0.0670638
-0.0552615
-0.0453114
-0.0369519
-0.0299662
-0.0241385
-0.0191757
-0.0149207
-0.0122531
-0.370048
-0.357625
-0.334335
-0.302036
-0.266255
-0.231348
-0.199541
-0.171581
-0.147436
-0.126745
-0.10906
-0.0939524
-0.0810428
-0.0700082
-0.0605787
-0.0525307
-0.0456414
-0.0396074
-0.0342934
-0.0307136
-0.402762
-0.389634
-0.366503
-0.334432
-0.29848
-0.262997
-0.230334
-0.20137
-0.176162
-0.1544
-0.13566
-0.11952
-0.105599
-0.0935732
-0.0831671
-0.0741555
-0.0663144
-0.0593334
-0.0530738
-0.0486241
-0.431658
-0.417923
-0.395155
-0.363624
-0.327856
-0.292126
-0.258891
-0.229155
-0.203076
-0.180405
-0.160749
-0.1437
-0.128883
-0.115975
-0.104698
-0.0948296
-0.0861469
-0.0783392
-0.0712518
-0.0659848
-0.456614
-0.442368
-0.420147
-0.389455
-0.354221
-0.318585
-0.285077
-0.254821
-0.228081
-0.204678
-0.18426
-0.166439
-0.150853
-0.13718
-0.125149
-0.114533
-0.105118
-0.0965993
-0.0888034
-0.0828056
-0.477575
-0.46291
-0.441396
-0.411815
-0.377456
-0.34226
-0.308788
-0.278278
-0.251099
-0.227154
-0.206139
-0.187695
-0.171473
-0.157162
-0.144493
-0.133244
-0.123207
-0.114087
-0.105696
-0.099063
-0.494546
-0.479557
-0.458879
-0.430649
-0.397486
-0.36307
-0.329951
-0.29946
-0.272077
-0.247789
-0.22635
-0.207435
-0.190717
-0.175895
-0.162709
-0.150941
-0.140391
-0.130775
-0.121892
-0.114712
-0.507603
-0.492379
-0.472636
-0.445955
-0.41428
-0.380969
-0.348518
-0.318327
-0.290979
-0.266554
-0.244868
-0.22564
-0.208567
-0.193365
-0.179782
-0.167607
-0.156647
-0.146636
-0.137358
-0.129712
-0.51688
-0.501513
-0.48277
-0.457789
-0.427853
-0.395952
-0.364474
-0.334861
-0.307792
-0.283437
-0.261686
-0.242304
-0.225018
-0.209564
-0.195702
-0.183229
-0.171963
-0.161651
-0.152069
-0.144035
-0.522573
-0.507152
-0.489445
-0.466262
-0.438268
-0.408048
-0.377831
-0.349069
-0.32252
-0.298445
-0.27681
-0.257431
-0.240073
-0.224494
-0.21047
-0.197806
-0.186331
-0.175811
-0.166012
-0.15767
-0.524929
-0.509547
-0.492879
-0.471541
-0.445638
-0.417326
-0.388632
-0.36098
-0.335187
-0.3116
-0.290259
-0.27104
-0.253748
-0.238168
-0.224095
-0.211344
-0.199756
-0.189115
-0.179186
-0.170613
-0.524241
-0.508992
-0.493344
-0.473845
-0.450119
-0.423893
-0.396951
-0.370648
-0.345836
-0.322936
-0.302065
-0.28316
-0.266069
-0.250609
-0.236596
-0.223859
-0.21225
-0.201573
-0.191594
-0.182869
-0.520841
-0.505819
-0.491154
-0.473438
-0.451916
-0.427895
-0.40289
-0.378147
-0.354526
-0.332506
-0.312275
-0.293831
-0.277072
-0.26185
-0.248002
-0.235375
-0.223833
-0.213201
-0.203251
-0.194451
-0.515084
-0.500387
-0.486654
-0.470627
-0.451273
-0.429514
-0.406581
-0.383575
-0.361333
-0.340373
-0.320943
-0.303104
-0.286803
-0.271929
-0.258348
-0.245923
-0.234533
-0.224024
-0.214178
-0.205378
-0.507345
-0.49307
-0.480212
-0.465748
-0.448471
-0.428969
-0.408185
-0.387053
-0.36635
-0.346611
-0.328134
-0.311036
-0.295313
-0.280895
-0.267676
-0.255542
-0.244385
-0.234072
-0.2244
-0.215674
-0.497999
-0.484242
-0.472205
-0.459158
-0.443819
-0.426508
-0.407892
-0.38872
-0.369683
-0.351306
-0.33392
-0.317689
-0.302658
-0.288797
-0.276033
-0.264273
-0.253427
-0.243381
-0.233951
-0.22537
-0.487419
-0.474273
-0.463006
-0.451221
-0.437649
-0.422406
-0.405917
-0.388739
-0.371455
-0.354553
-0.338378
-0.323131
-0.308899
-0.295692
-0.283468
-0.272162
-0.261699
-0.251988
-0.242864
-0.234498
-0.475961
-0.46351
-0.452972
-0.442298
-0.430299
-0.416957
-0.402497
-0.387294
-0.371804
-0.356459
-0.341594
-0.327433
-0.314097
-0.301633
-0.290033
-0.279255
-0.269245
-0.259932
-0.251175
-0.24309
-0.463954
-0.452272
-0.442433
-0.432729
-0.422104
-0.410465
-0.397888
-0.384584
-0.370883
-0.357138
-0.343656
-0.330665
-0.318313
-0.306675
-0.295774
-0.285595
-0.276104
-0.267251
-0.258917
-0.251177
-0.451696
-0.440845
-0.431683
-0.422828
-0.413382
-0.403233
-0.392354
-0.380828
-0.368861
-0.356717
-0.344659
-0.332902
-0.321606
-0.310868
-0.300737
-0.291223
-0.282313
-0.273976
-0.266119
-0.258783
-0.439446
-0.429473
-0.420977
-0.412869
-0.404427
-0.395552
-0.386165
-0.376254
-0.365918
-0.355334
-0.344705
-0.33422
-0.324034
-0.314258
-0.30496
-0.296172
-0.287901
-0.280133
-0.272802
-0.265924
-0.427426
-0.418358
-0.410521
-0.403084
-0.395493
-0.38769
-0.37958
-0.371094
-0.362249
-0.35314
-0.343906
-0.334699
-0.325656
-0.316889
-0.308477
-0.300469
-0.292889
-0.285742
-0.278982
-0.27261
-0.415812
-0.407662
-0.400479
-0.393655
-0.386792
-0.37988
-0.37284
-0.365576
-0.358051
-0.350295
-0.342384
-0.334426
-0.326531
-0.3188
-0.311315
-0.304134
-0.297293
-0.290812
-0.284664
-0.278836
-0.404744
-0.397505
-0.390971
-0.384719
-0.378487
-0.372318
-0.366158
-0.359916
-0.353525
-0.346968
-0.340273
-0.333499
-0.326725
-0.320034
-0.313499
-0.30718
-0.301119
-0.295344
-0.289847
-0.284594
-0.394321
-0.38797
-0.382076
-0.376368
-0.370697
-0.36515
-0.359711
-0.354304
-0.34886
-0.343333
-0.337715
-0.332027
-0.326315
-0.320638
-0.315055
-0.309618
-0.304368
-0.299338
-0.294529
-0.289875
-0.384609
-0.379107
-0.37384
-0.368655
-0.363495
-0.358481
-0.353633
-0.348902
-0.344227
-0.339556
-0.334859
-0.33013
-0.325389
-0.320669
-0.316012
-0.311459
-0.307042
-0.30279
-0.29871
-0.294683
-0.375644
-0.370942
-0.366281
-0.361601
-0.356917
-0.352372
-0.348017
-0.343831
-0.339771
-0.33579
-0.331852
-0.327937
-0.324046
-0.320195
-0.31641
-0.312719
-0.309143
-0.305698
-0.302398
-0.299042
-0.367438
-0.363476
-0.359393
-0.355201
-0.350967
-0.346849
-0.342917
-0.339177
-0.335605
-0.332167
-0.328831
-0.325576
-0.322396
-0.319298
-0.316299
-0.31342
-0.310674
-0.308064
-0.305605
-0.303012
-0.359978
-0.35669
-0.353153
-0.349431
-0.345628
-0.341906
-0.33835
-0.334984
-0.331804
-0.328789
-0.325916
-0.323172
-0.320552
-0.318067
-0.315738
-0.313588
-0.311634
-0.309874
-0.308331
-0.306667
-0.35324
-0.350556
-0.347526
-0.344253
-0.340862
-0.337517
-0.334305
-0.331267
-0.328409
-0.325724
-0.3232
-0.320831
-0.318624
-0.316598
-0.314792
-0.313248
-0.312007
-0.311089
-0.310533
-0.310077
-0.347183
-0.345033
-0.342469
-0.339619
-0.336624
-0.333638
-0.330752
-0.32801
-0.325429
-0.32301
-0.320746
-0.318641
-0.316708
-0.314983
-0.313526
-0.312418
-0.31175
-0.311602
-0.312061
-0.313186
-0.341757
-0.340073
-0.337933
-0.335478
-0.332858
-0.330216
-0.327641
-0.325178
-0.322847
-0.320651
-0.318587
-0.316658
-0.314883
-0.313307
-0.312009
-0.311115
-0.310789
-0.311224
-0.31263
-0.315798
-0.336908
-0.335626
-0.333866
-0.331776
-0.329509
-0.327194
-0.324916
-0.322719
-0.320621
-0.318624
-0.316723
-0.314914
-0.313209
-0.311647
-0.310315
-0.309364
-0.309035
-0.309658
-0.311701
-0.317219
-0.332577
-0.331639
-0.330216
-0.328459
-0.326518
-0.324512
-0.322516
-0.320573
-0.318697
-0.316886
-0.315128
-0.313408
-0.311718
-0.310075
-0.308538
-0.307246
-0.306459
-0.306597
-0.308577
-0.3165
-0.328707
-0.32806
-0.326932
-0.325475
-0.323833
-0.322112
-0.32038
-0.318676
-0.31701
-0.315377
-0.313753
-0.31211
-0.310414
-0.308639
-0.306783
-0.3049
-0.303144
-0.301785
-0.301952
-0.310082
-0.325241
-0.324839
-0.323968
-0.322778
-0.321405
-0.319943
-0.318453
-0.316968
-0.315499
-0.314031
-0.312537
-0.310972
-0.309273
-0.307363
-0.305136
-0.30246
-0.299148
-0.294666
-0.287556
-0.279115
-0.322129
-0.321931
-0.321283
-0.320327
-0.319192
-0.317961
-0.316688
-0.315403
-0.314111
-0.312799
-0.311433
-0.309964
-0.308321
-0.306406
-0.30409
-0.301209
-0.297575
-0.292761
-0.285688
-0.278309
-0.319322
-0.319296
-0.318838
-0.318086
-0.317161
-0.316135
-0.315055
-0.313946
-0.312813
-0.311643
-0.310403
-0.309048
-0.307513
-0.305714
-0.303547
-0.3009
-0.297677
-0.293613
-0.288067
-0.283345
-0.316781
-0.316898
-0.316604
-0.316029
-0.315288
-0.314442
-0.313532
-0.312579
-0.311589
-0.310547
-0.309427
-0.30819
-0.306782
-0.305141
-0.303192
-0.300875
-0.298153
-0.294842
-0.290566
-0.287743
-0.314469
-0.314708
-0.314553
-0.314133
-0.313554
-0.312867
-0.312109
-0.311298
-0.310437
-0.309516
-0.308512
-0.307395
-0.306126
-0.30466
-0.302955
-0.300992
-0.298781
-0.296203
-0.293055
-0.291626
-0.312357
-0.312699
-0.312666
-0.312381
-0.311945
-0.311402
-0.310782
-0.310103
-0.309366
-0.308565
-0.307681
-0.306694
-0.305577
-0.304306
-0.302864
-0.301264
-0.299551
-0.29765
-0.295451
-0.295014
-0.310416
-0.310849
-0.310922
-0.310758
-0.310452
-0.310041
-0.309551
-0.308998
-0.308386
-0.307708
-0.306954
-0.30611
-0.305163
-0.304102
-0.302932
-0.301685
-0.300425
-0.299099
-0.297624
-0.297848
-0.308624
-0.30914
-0.309309
-0.309254
-0.309065
-0.308777
-0.308411
-0.307983
-0.307497
-0.306949
-0.306336
-0.305648
-0.304883
-0.304042
-0.30314
-0.302224
-0.301358
-0.300492
-0.299542
-0.300188
-0.306963
-0.307557
-0.307815
-0.307858
-0.307778
-0.307605
-0.307358
-0.307053
-0.306694
-0.306282
-0.305815
-0.305291
-0.304714
-0.304092
-0.303446
-0.302825
-0.302292
-0.301785
-0.301206
-0.30212
-0.305418
-0.30609
-0.306429
-0.306564
-0.306584
-0.306518
-0.306385
-0.306199
-0.305966
-0.305689
-0.305369
-0.30501
-0.304617
-0.304202
-0.30379
-0.303426
-0.303167
-0.302937
-0.302622
-0.303714
-0.30398
-0.304732
-0.305148
-0.305366
-0.305479
-0.305513
-0.305485
-0.305411
-0.305299
-0.305151
-0.304974
-0.30477
-0.304549
-0.304324
-0.304117
-0.303972
-0.303934
-0.303916
-0.303796
-0.305016
-0.302645
-0.303478
-0.303969