/*--------------------------------*- C++ -*----------------------------------*\
  =========                 |
  \\      /  F ield         | OpenFOAM: The Open Source CFD Toolbox
   \\    /   O peration     | Website:  https://openfoam.org
    \\  /    A nd           | Version:  6.0
     \\/     M anipulation  |
\*---------------------------------------------------------------------------*/
FoamFile
{
    version     2.0;
    format      ascii;
    class       volVectorField;
    location    "11.5";
    object      U;
}
// * * * * * * * * * * * * * * * * * * * * * * * * * * * * * * * * * * * * * //

dimensions      [0 1 -1 0 0 0 0];

internalField   nonuniform List<vector> 
8000
(
(-0.00066764 0.000792862 -3.91774e-21)
(-0.00356675 0.00194484 2.09432e-20)
(-0.00886779 0.00275671 -2.54823e-20)
(-0.0153639 0.00332057 1.94083e-20)
(-0.0224547 0.00370101 9.45637e-21)
(-0.029819 0.00394775 -2.8398e-20)
(-0.0372335 0.00410117 -2.51215e-21)
(-0.044559 0.00419407 -8.94879e-22)
(-0.0517233 0.00425313 -1.4766e-20)
(-0.0587021 0.00430006 -8.00811e-21)
(-0.0655052 0.00435247 5.96411e-21)
(-0.0721663 0.0044244 2.27228e-20)
(-0.0787345 0.00452669 -1.68691e-21)
(-0.0852675 0.00466728 2.45067e-21)
(-0.0918287 0.00485129 -2.29477e-20)
(-0.0984991 0.0050809 1.41538e-20)
(-0.105353 0.00535573 -2.03233e-20)
(-0.112291 0.00567599 3.07678e-20)
(-0.119052 0.00604324 -3.40509e-23)
(-0.126817 0.00643271 6.73366e-21)
(-0.000776136 0.00228408 1.30101e-20)
(-0.00380565 0.00559744 -6.65047e-20)
(-0.0091529 0.00792494 -4.59538e-20)
(-0.015639 0.00953432 -3.12184e-20)
(-0.0226774 0.010613 -4.01758e-20)
(-0.0299547 0.011305 8.82964e-21)
(-0.0372528 0.0117271 -4.6405e-20)
(-0.0444355 0.0119742 -1.04383e-20)
(-0.0514329 0.0121235 3.27578e-21)
(-0.0582217 0.0122383 3.47154e-20)
(-0.0648122 0.0123697 -3.79099e-20)
(-0.0712386 0.0125593 5.27661e-20)
(-0.0775509 0.0128391 -3.95481e-20)
(-0.0838077 0.0132331 -4.69546e-20)
(-0.0900739 0.0137571 -6.48198e-20)
(-0.0964324 0.0144182 4.13399e-20)
(-0.102962 0.015216 -1.34541e-20)
(-0.109564 0.0161519 -4.89367e-20)
(-0.115972 0.0172318 4.62884e-20)
(-0.123373 0.0183814 -3.46573e-20)
(-0.00098855 0.00372874 1.27213e-19)
(-0.00427528 0.00914429 6.59135e-20)
(-0.00971627 0.0129495 7.4139e-20)
(-0.016186 0.0155775 6.17309e-21)
(-0.0231248 0.017333 4.09885e-20)
(-0.030234 0.0184509 5.11732e-20)
(-0.0373057 0.019122 -9.30208e-20)
(-0.0442105 0.0195017 -4.92949e-20)
(-0.0508818 0.0197168 -6.42551e-20)
(-0.0572988 0.0198715 6.8588e-20)
(-0.063473 0.0200508 -5.24213e-20)
(-0.0694395 0.0203241 -6.7521e-20)
(-0.0752496 0.0207458 -2.45993e-20)
(-0.0809638 0.0213574 2.33777e-20)
(-0.08665 0.022187 -6.57028e-21)
(-0.0923953 0.0232485 9.34506e-21)
(-0.0982846 0.0245432 1.08978e-19)
(-0.104226 0.0260755 -1.52218e-20)
(-0.109944 0.0278576 -1.111e-19)
(-0.11663 0.0297654 1.47744e-19)
(-0.00129872 0.0050998 4.43054e-20)
(-0.00496529 0.0125228 -6.25316e-20)
(-0.0105504 0.0177442 -1.57019e-20)
(-0.0170035 0.0213466 2.93538e-20)
(-0.0238032 0.0237436 8.33587e-20)
(-0.0306726 0.0252554 1.82555e-19)
(-0.0374188 0.0261432 1.78444e-19)
(-0.0439218 0.0266201 1.48521e-20)
(-0.0501211 0.0268609 1.09523e-19)
(-0.0559987 0.0270095 1.67722e-19)
(-0.0615678 0.0271852 -1.34145e-19)
(-0.066865 0.0274856 1.98512e-19)
(-0.0719431 0.0279894 -4.50986e-20)
(-0.0768654 0.0287577 1.13012e-20)
(-0.0817039 0.0298342 4.7154e-20)
(-0.086552 0.0312427 6.27889e-20)
(-0.0915049 0.0329893 -9.86526e-20)
(-0.0964804 0.0350841 -8.25032e-20)
(-0.10119 0.0375503 -1.46336e-19)
(-0.106836 0.0402136 2.14587e-19)
(-0.00169826 0.00637511 -2.31367e-20)
(-0.00586135 0.01568 -2.36951e-19)
(-0.0116444 0.0222344 -7.01072e-20)
(-0.0180885 0.0267507 -1.70854e-19)
(-0.0247202 0.0297405 6.45855e-20)
(-0.0312906 0.0316026 -1.01898e-19)
(-0.0376264 0.032663 3.50681e-20)
(-0.0436204 0.0331891 -2.15964e-19)
(-0.0492195 0.0334009 1.13965e-19)
(-0.05441 0.0334809 -1.35963e-19)
(-0.059207 0.0335817 -1.20994e-19)
(-0.0636482 0.0338304 -1.35596e-19)
(-0.0677885 0.0343318 1.23172e-19)
(-0.0716941 0.0351699 -1.10704e-19)
(-0.0754422 0.0364079 1.54217e-19)
(-0.0791342 0.0380846 4.46884e-20)
(-0.0828795 0.0402158 1.10747e-19)
(-0.0866103 0.0428223 4.87266e-20)
(-0.0900252 0.0459447 -1.92876e-19)
(-0.0943387 0.0493597 3.16772e-19)
(-0.00217746 0.00753868 1.02121e-19)
(-0.00694621 0.0185752 7.81937e-21)
(-0.0129842 0.0263602 4.20629e-20)
(-0.0194353 0.0317149 1.46758e-19)
(-0.0258816 0.0352368 -2.24576e-20)
(-0.032108 0.0373948 2.38394e-19)
(-0.0379651 0.0385739 1.0586e-19)
(-0.0433616 0.0390907 8.89373e-21)
(-0.048254 0.0392068 2.72381e-19)
(-0.0526335 0.039141 8.93318e-20)
(-0.0565175 0.0390781 4.23917e-20)
(-0.0599449 0.0391751 1.34569e-19)
(-0.0629714 0.0395649 1.23458e-19)
(-0.0656665 0.0403582 2.25643e-19)
(-0.0681129 0.0416431 -2.01702e-19)
(-0.0704216 0.04348 2.85751e-19)
(-0.0727195 0.0459017 4.0367e-21)
(-0.0749594 0.0489474 -3.65919e-19)
(-0.0768303 0.0526847 4.75003e-19)
(-0.0795604 0.0568455 1.98964e-19)
(-0.00272617 0.00858111 -6.01776e-20)
(-0.00820081 0.021181 -1.0929e-19)
(-0.0145526 0.0300785 -2.27346e-19)
(-0.0210337 0.0361829 -6.73842e-21)
(-0.0272879 0.0401656 3.88213e-20)
(-0.0331387 0.0425567 -2.90356e-19)
(-0.038465 0.0437931 -2.15466e-19)
(-0.0431948 0.0442346 -3.08075e-20)
(-0.0472962 0.0441799 -2.72711e-19)
(-0.0507665 0.0438804 -1.88928e-19)
(-0.0536256 0.0435511 -5.50748e-20)
(-0.0559126 0.0433782 -1.77441e-19)
(-0.0576835 0.0435243 -2.83501e-21)
(-0.0590098 0.0441303 -2.35948e-19)
(-0.0599794 0.0453157 9.94658e-20)
(-0.0607138 0.047171 -1.13442e-19)
(-0.0613603 0.0497559 8.72021e-20)
(-0.0618992 0.0531396 -1.10672e-19)
(-0.062017 0.0574311 -3.17142e-19)
(-0.06296 0.0623263 -9.66661e-20)
(-0.00333462 0.00949932 -2.21994e-20)
(-0.00960519 0.023483 -2.40891e-20)
(-0.0163287 0.0333624 1.90642e-19)
(-0.0228671 0.0401173 -3.10268e-19)
(-0.0289296 0.0444813 4.55172e-20)
(-0.0343834 0.0470368 -1.79246e-19)
(-0.03914 0.048265 8.47091e-20)
(-0.0431502 0.0485625 3.80876e-19)
(-0.0463962 0.0482588 -2.43827e-20)
(-0.0488828 0.0476333 -2.8431e-19)
(-0.0506324 0.0469271 5.16813e-20)
(-0.0516838 0.0463538 9.97703e-21)
(-0.0520918 0.0461053 -5.85495e-20)
(-0.0519279 0.0463562 5.77808e-21)
(-0.0512838 0.0472632 5.14435e-19)
(-0.0502911 0.0489572 -7.31985e-20)
(-0.0491196 0.0515383 -1.43139e-19)
(-0.0477841 0.0551213 -2.57256e-19)
(-0.0459806 0.0598776 2.62363e-19)
(-0.0449825 0.065484 1.13727e-19)
(-0.00399405 0.0102957 1.1191e-19)
(-0.011139 0.0254783 -1.46453e-19)
(-0.0182876 0.0362004 2.07017e-19)
(-0.0249095 0.0434985 2.08355e-19)
(-0.0307825 0.0481586 1.92048e-19)
(-0.0358219 0.0508077 3.89446e-19)
(-0.0399766 0.051963 2.51883e-19)
(-0.0432237 0.0520507 -5.41325e-19)
(-0.0455627 0.0514245 2.76903e-19)
(-0.0470078 0.0503847 2.17363e-19)
(-0.0475847 0.0491933 -3.03523e-21)
(-0.047331 0.0480864 2.43501e-19)
(-0.0462987 0.0472833 1.9003e-19)
(-0.0445565 0.0469927 -1.03328e-19)
(-0.0421973 0.0474139 3.49699e-19)
(-0.0393609 0.0487284 -4.33602e-19)
(-0.0362401 0.0510926 1.7376e-19)
(-0.0328908 0.0546893 2.23784e-19)
(-0.0290347 0.0597809 -5.24417e-20)
(-0.0259905 0.0660533 4.51492e-19)
(-0.00469689 0.0109764 2.25083e-19)
(-0.0127814 0.0271727 1.16451e-20)
(-0.0203987 0.038593 -8.07415e-20)
(-0.0271225 0.0463217 -8.52459e-20)
(-0.0328019 0.0511906 -3.94742e-19)
(-0.0374047 0.0538637 5.58858e-20)
(-0.0409215 0.0548874 1.58394e-19)
(-0.0433604 0.0547097 -7.61589e-20)
(-0.0447417 0.0537008 6.28283e-20)
(-0.0450915 0.0521743 -1.66728e-20)
(-0.0444404 0.0504049 -8.21387e-20)
(-0.042825 0.0486443 7.79115e-20)
(-0.0402927 0.0471332 -3.39433e-19)
(-0.0369067 0.0461115 3.25281e-19)
(-0.0327569 0.0458226 -2.82097e-19)
(-0.0279881 0.0465073 8.71437e-20)
(-0.0228146 0.0483958 1.98559e-19)
(-0.0173384 0.0517657 -4.13589e-20)
(-0.0113265 0.0570102 -1.37663e-19)
(-0.0061744 0.063869 -9.36086e-20)
(-0.00543674 0.0115499 -2.80387e-19)
(-0.0145105 0.0285776 -1.83584e-20)
(-0.0226245 0.0405486 5.90208e-20)
(-0.0294527 0.048593 1.51632e-19)
(-0.0349179 0.0535837 -2.1409e-19)
(-0.0390448 0.0562166 -1.86792e-19)
(-0.0418706 0.057061 4.36003e-19)
(-0.0434389 0.0565797 -2.40903e-19)
(-0.0437947 0.0551517 -1.55409e-19)
(-0.0429801 0.053095 -2.23023e-19)
(-0.0410327 0.0506879 1.47665e-19)
(-0.0379897 0.0481873 -3.99884e-21)
(-0.0338934 0.0458456 -2.75833e-19)
(-0.0287993 0.0439253 -4.51541e-19)
(-0.0227904 0.0427099 3.44005e-19)
(-0.0160114 0.0425025 -2.78995e-19)
(-0.00869473 0.0436216 3.95774e-19)
(-0.000990716 0.0464704 -1.10924e-19)
(0.00726784 0.0516242 2.34374e-19)
(0.0145603 0.0589415 -7.90822e-19)
(-0.00620784 0.0120249 -5.67894e-19)
(-0.0163025 0.0297057 3.72185e-19)
(-0.0249185 0.0420794 5.06162e-20)
(-0.0318283 0.0503239 9.78088e-21)
(-0.0370307 0.0553521 -2.29248e-19)
(-0.0406117 0.0578888 3.37093e-19)
(-0.0426595 0.0585215 3.68271e-20)
(-0.0432576 0.0577222 -6.91419e-20)
(-0.0424806 0.0558717 -2.21761e-19)
(-0.0403903 0.0532845 2.39772e-19)
(-0.037036 0.050232 6.07924e-19)
(-0.0324584 0.0469644 -1.34353e-19)
(-0.0266967 0.0437318 3.03441e-19)
(-0.0197984 0.0408051 -3.58644e-19)
(-0.011837 0.0384949 -3.43937e-19)
(-0.00295227 0.03716 2.06965e-19)
(0.00661004 0.0372134 3.42481e-19)
(0.0166524 0.0392112 -1.10936e-18)
(0.0272595 0.0439721 1.30113e-19)
(0.0367188 0.0515636 1.76079e-19)
(-0.00700441 0.0124087 4.20526e-19)
(-0.0181299 0.0305679 1.38186e-19)
(-0.0272238 0.0431962 7.19701e-19)
(-0.0341572 0.0515257 3.69812e-20)
(-0.0390078 0.0565112 -8.00072e-20)
(-0.0419271 0.0589053 -3.80851e-19)
(-0.0430575 0.0593115 3.23908e-19)
(-0.0425267 0.0582074 5.80869e-19)
(-0.040443 0.055971 3.8706e-19)
(-0.036893 0.0529066 2.79241e-19)
(-0.0319427 0.0492702 2.40644e-19)
(-0.0256419 0.0452934 -4.32592e-19)
(-0.0180319 0.0412079 -1.35674e-19)
(-0.00915609 0.0372733 -9.96743e-20)
(0.000920549 0.0338052 1.0696e-18)
(0.0120649 0.0311973 -3.68061e-21)
(0.0240226 0.0299459 -2.66735e-19)
(0.0365531 0.0307743 -8.43081e-20)
(0.0496528 0.0348078 7.65654e-19)
(0.0613364 0.0424376 9.77256e-20)
(-0.00781986 0.0127061 -2.08174e-20)
(-0.0199604 0.0311709 -3.97484e-19)
(-0.0294711 0.0439053 -5.91012e-19)
(-0.0363252 0.0522053 -1.64335e-19)
(-0.0406827 0.0570716 9.07184e-20)
(-0.0427631 0.0592861 1.95634e-20)
(-0.0427664 0.059468 5.17974e-19)
(-0.0408665 0.0581 -6.42439e-19)
(-0.0372089 0.0555552 -2.44337e-19)
(-0.0319095 0.0521254 -4.92338e-19)
(-0.025057 0.0480461 -4.19367e-19)
(-0.0167184 0.0435214 -3.71134e-19)
(-0.00694585 0.038751 9.27644e-20)
(0.00421169 0.0339613 -1.20365e-19)
(0.0166896 0.0294433 5.16094e-19)
(0.0303571 0.0255901 -2.83148e-19)
(0.0449508 0.0229458 -8.87247e-19)
(0.0601932 0.022385 -1.79082e-19)
(0.0760055 0.0253882 4.37842e-19)
(0.090052 0.0327997 -3.80049e-19)
(-0.00864602 0.0129188 -6.70919e-20)
(-0.0217552 0.0315151 4.85826e-19)
(-0.0315779 0.0442059 -6.1941e-19)
(-0.0381956 0.0523618 1.43223e-19)
(-0.0418547 0.057035 -2.94684e-19)
(-0.0428446 0.0590399 6.5621e-19)
(-0.0414237 0.0590138 -4.68934e-19)
(-0.0378133 0.0574456 5.36454e-19)
(-0.0321975 0.0547063 -5.08435e-19)
(-0.0247249 0.0510766 2.16965e-19)
(-0.015513 0.0467724 -1.05305e-19)
(-0.00465478 0.0419688 -2.64163e-19)
(0.00777292 0.0368261 -3.263e-19)
(0.0216997 0.0315217 3.25285e-19)
(0.0370437 0.0262925 -2.72333e-19)
(0.0536613 0.021485 -5.95382e-19)
(0.0712694 0.0176292 6.19992e-19)
(0.0895546 0.01569 -7.90374e-19)
(0.108403 0.017509 3.56208e-19)
(0.125092 0.0244987 1.19566e-20)
(-0.00947248 0.0130453 -6.07496e-19)
(-0.0234677 0.0315946 -6.55582e-19)
(-0.0334466 0.0440899 7.55841e-20)
(-0.0396085 0.0519863 -6.31663e-19)
(-0.04229 0.0563937 -5.60469e-20)
(-0.0418517 0.0581635 -4.64479e-19)
(-0.0386096 0.0579541 -1.06504e-19)
(-0.0328313 0.056265 -3.11166e-19)
(-0.0247393 0.0534698 2.93799e-21)
(-0.0145165 0.0498449 -1.36038e-19)
(-0.00231411 0.0455941 9.70558e-21)
(0.0117387 0.0408708 -3.92104e-19)
(0.0275253 0.0358002 4.32249e-19)
(0.0449312 0.0305082 -6.12902e-19)
(0.0638298 0.0251606 2.17182e-19)
(0.0840353 0.0200161 8.17426e-21)
(0.105218 0.0155141 -3.45259e-19)
(0.127012 0.0125971 8.5659e-19)
(0.149334 0.0133946 -2.03931e-19)
(0.16914 0.0199415 -1.32723e-19)
(-0.0102861 0.0130816 6.81617e-19)
(-0.0250422 0.0313986 3.67925e-19)
(-0.0349636 0.0435431 3.42119e-19)
(-0.0403797 0.0510639 5.10719e-20)
(-0.0417222 0.055134 4.62399e-19)
(-0.039423 0.0566458 6.6628e-19)
(-0.033854 0.0562824 5.45232e-19)
(-0.0253265 0.0545589 4.88683e-20)
(-0.0140996 0.0518582 3.99185e-19)
(-0.000390827 0.0484616 6.16631e-19)
(0.0156109 0.0445736 -1.59814e-19)
(0.033731 0.0403413 2.68389e-19)
(0.0537966 0.0358727 2.16712e-19)
(0.0756241 0.0312575 2.20568e-19)
(0.099007 0.0265983 1.3029e-18)
(0.123676 0.0220512 -4.88327e-19)
(0.149207 0.0179017 -2.95841e-20)
(0.175137 0.0149231 5.65046e-19)
(0.201469 0.0153574 -3.20157e-19)
(0.225105 0.0218188 1.58403e-19)
(-0.0110702 0.0130216 -5.50903e-19)
(-0.0264122 0.0309124 3.51464e-20)
(-0.0359967 0.0425489 -4.4053e-19)
(-0.0402989 0.0495792 -5.72885e-20)
(-0.0398512 0.0532436 3.22328e-19)
(-0.0351569 0.0544784 -9.59578e-19)
(-0.0266419 0.0539945 -7.22043e-22)
(-0.0146584 0.0523262 4.46461e-19)
(0.000499745 0.0498719 4.19244e-19)
(0.0185799 0.0469277 -1.8469e-19)
(0.0393513 0.0437123 6.08388e-20)
(0.0625853 0.0403862 1.41097e-19)
(0.0880368 0.0370667 -6.69029e-20)
(0.115427 0.0338418 -7.48995e-19)
(0.144432 0.0307892 1.89628e-19)
(0.174643 0.027996 5.21173e-19)
(0.205481 0.0255901 -7.42346e-19)
(0.23629 0.0240617 3.61688e-19)
(0.267159 0.0255474 9.67724e-20)
(0.295479 0.0331169 4.88752e-19)
(-0.0118044 0.0128583 -8.11463e-20)
(-0.0274983 0.0301204 -3.85673e-19)
(-0.0363924 0.0410922 1.77491e-19)
(-0.0391266 0.0475231 8.56461e-22)
(-0.0363405 0.0507224 -7.72973e-19)
(-0.0286105 0.0516714 1.20678e-19)
(-0.0164153 0.0511097 -2.28855e-20)
(-0.000147408 0.0495925 1.55934e-19)
(0.0198639 0.0475372 -7.137e-19)
(0.0433278 0.0452602 -4.99888e-20)
(0.0699661 0.0430044 -1.67576e-19)
(0.0994874 0.0409603 1.49105e-19)
(0.131563 0.0392812 5.03142e-19)
(0.165801 0.0380968 -7.78211e-20)
(0.201728 0.0375275 3.01697e-20)
(0.238741 0.0376891 1.97595e-19)
(0.276001 0.0386738 -4.90039e-20)
(0.312479 0.0407952 3.97311e-19)
(0.348093 0.0461294 -2.31829e-19)
(0.381267 0.058016 -3.61315e-19)
(-0.012463 0.0125837 7.5389e-20)
(-0.028206 0.0290078 1.84853e-20)
(-0.0359726 0.0391639 1.54589e-19)
(-0.0365898 0.0449004 3.78534e-19)
(-0.0308138 0.0475938 2.12381e-19)
(-0.0192975 0.0482696 2.21287e-20)
(-0.00257497 0.0476942 -2.53399e-19)
(0.0189165 0.0464419 6.49821e-20)
(0.044805 0.0449472 3.41563e-19)
(0.0747517 0.043545 -5.78736e-19)
(0.10842 0.0425012 4.36636e-19)
(0.145447 0.0420367 -3.28956e-19)
(0.18542 0.0423484 2.79026e-19)
(0.227854 0.0436298 -6.01658e-19)
(0.272165 0.0460956 6.6154e-19)
(0.317623 0.0499996 -7.07318e-19)
(0.363213 0.0556307 -1.83585e-19)
(0.407526 0.0635996 5.74692e-19)
(0.449539 0.0765361 -1.94887e-19)
(0.486347 0.0975153 8.62454e-20)
(-0.0130144 0.01219 -5.69838e-20)
(-0.0284228 0.0275633 5.37872e-19)
(-0.0345308 0.0367659 -2.26152e-21)
(-0.0323792 0.0417367 -3.3389e-19)
(-0.0228529 0.0439151 -2.24453e-19)
(-0.00668891 0.044367 4.11262e-19)
(0.0155131 0.043881 -1.62888e-19)
(0.0432571 0.0430444 -2.05161e-20)
(0.0761084 0.0423002 3.39379e-19)
(0.113654 0.0419895 -4.21633e-19)
(0.15547 0.0423826 4.61802e-20)
(0.201095 0.0437049 -5.47912e-19)
(0.250021 0.0461595 2.88349e-19)
(0.301686 0.0499537 -8.24668e-19)
(0.355483 0.0553333 1.31243e-18)
(0.410784 0.0626269 -2.40759e-19)
(0.466966 0.0723435 2.49021e-19)
(0.523653 0.0856843 -6.47139e-19)
(0.581174 0.105769 6.2151e-21)
(0.631152 0.130227 7.18527e-19)
(-0.0134188 0.011669 -1.72516e-19)
(-0.0280153 0.02578 1.48989e-19)
(-0.0318296 0.0339138 -5.49077e-19)
(-0.0261473 0.0380843 8.12159e-19)
(-0.0119987 0.0397853 -5.86353e-19)
(0.00977976 0.040117 3.02758e-20)
(0.0385024 0.0398829 -6.32318e-19)
(0.0735842 0.0396728 4.52096e-19)
(0.114487 0.0399241 -6.4612e-20)
(0.160672 0.0409626 -3.98952e-19)
(0.211567 0.0430328 -2.32708e-19)
(0.266547 0.0463195 2.4596e-19)
(0.324933 0.0509667 1.62458e-19)
(0.386005 0.0570938 -7.18266e-19)
(0.449037 0.0648124 2.59545e-19)
(0.513347 0.0742381 -3.81543e-19)
(0.578358 0.085507 4.61438e-20)
(0.643797 0.0989379 -3.21398e-19)
(0.710247 0.11565 1.27725e-19)
(0.770939 0.133064 -4.75521e-19)
(-0.0136276 0.011013 4.91179e-19)
(-0.0268276 0.0236583 -2.976e-19)
(-0.0276003 0.0306407 2.45203e-19)
(-0.0175115 0.0340259 -3.09553e-19)
(0.00223991 0.0353487 5.18778e-19)
(0.0306921 0.0357355 -9.05361e-21)
(0.0670365 0.0359928 -6.3177e-20)
(0.110549 0.0366992 -4.68602e-20)
(0.160521 0.0382664 2.88317e-19)
(0.216212 0.0409792 4.90184e-19)
(0.276811 0.0450226 -2.8955e-19)
(0.341436 0.050501 2.81376e-19)
(0.409141 0.057453 5.13388e-19)
(0.478948 0.0658633 -3.60025e-19)
(0.549896 0.0756709 -7.28659e-19)
(0.621092 0.0867704 1.33032e-18)
(0.691765 0.0989997 -2.37789e-19)
(0.761348 0.112166 -7.66076e-20)
(0.829822 0.126493 8.15785e-19)
(0.892816 0.142001 -1.75368e-19)
(-0.0135817 0.0102158 -7.99281e-19)
(-0.024681 0.0212076 -5.32051e-19)
(-0.0215452 0.0270004 -2.04239e-19)
(-0.00606138 0.0296772 3.94123e-19)
(0.0203702 0.0307966 -8.89963e-19)
(0.0566211 0.0314971 4.61009e-19)
(0.101702 0.0325731 5.84366e-20)
(0.154675 0.0345704 5.90934e-20)
(0.21457 0.0378488 -6.04044e-19)
(0.280339 0.0426193 -2.13306e-19)
(0.350835 0.0489705 -3.75828e-19)
(0.42482 0.056888 3.62795e-19)
(0.501003 0.0662714 1.02573e-19)
(0.578092 0.0769492 1.9676e-20)
(0.654856 0.0886908 4.69596e-19)
(0.73018 0.101213 -4.7653e-19)
(0.803117 0.114179 -1.94558e-20)
(0.872923 0.127209 1.33296e-20)
(0.939171 0.140067 6.62372e-20)
(0.999808 0.15477 3.59587e-19)
(-0.0132116 0.00927373 2.54427e-19)
(-0.021375 0.0184501 6.55212e-19)
(-0.0133436 0.0230705 5.25779e-19)
(0.00862733 0.02519 -1.81301e-19)
(0.04289 0.0263656 6.30827e-19)
(0.0880876 0.0277289 -5.31426e-20)
(0.142968 0.0300377 -7.48964e-20)
(0.206272 0.033775 4.45823e-20)
(0.276658 0.0392118 6.10194e-19)
(0.352655 0.0464439 3.58519e-19)
(0.432679 0.0554211 1.04719e-19)
(0.515066 0.065973 6.58934e-21)
(0.59815 0.077835 -6.92582e-19)
(0.680339 0.0906736 6.01777e-19)
(0.760193 0.10411 1.0252e-19)
(0.836482 0.117737 -1.69624e-19)
(0.908231 0.131135 -7.29041e-19)
(0.974738 0.143904 -6.00386e-20)
(1.03552 0.155572 2.85275e-19)
(1.0904 0.169327 -5.68798e-20)
(-0.0124378 0.00818794 -6.45135e-19)
(-0.0166915 0.0154245 2.69926e-19)
(-0.00266164 0.0189569 -1.31827e-18)
(0.0269737 0.0207537 5.40157e-19)
(0.070255 0.0223365 -4.30864e-19)
(0.12551 0.0248009 3.17719e-19)
(0.191109 0.0288324 -4.93796e-19)
(0.265349 0.0348083 4.53275e-20)
(0.34638 0.0428612 -2.54666e-20)
(0.432205 0.0529215 1.32819e-19)
(0.520728 0.0647551 1.91593e-19)
(0.609846 0.0780036 -3.62024e-19)
(0.697562 0.0922261 1.91843e-19)
(0.782086 0.106939 1.75672e-19)
(0.86192 0.121654 7.54999e-19)
(0.935912 0.135902 -3.28827e-19)
(1.00327 0.14926 -2.16134e-19)
(1.06355 0.16139 3.62377e-19)
(1.11654 0.171799 1.90233e-19)
(1.16321 0.184073 -3.62361e-19)
(-0.011172 0.00696636 5.64756e-19)
(-0.0104005 0.0121905 5.44499e-19)
(0.0108347 0.0147982 1.57253e-19)
(0.049368 0.0165982 6.62287e-19)
(0.102841 0.0190312 3.25592e-19)
(0.169149 0.0231147 -5.87055e-19)
(0.246145 0.0294115 8.89443e-19)
(0.331534 0.038134 -4.37751e-19)
(0.422838 0.0492161 4.37023e-19)
(0.517451 0.062367 5.65221e-19)
(0.612758 0.0771288 -3.2297e-19)
(0.706283 0.092938 6.14156e-20)
(0.795831 0.109187 3.41167e-19)
(0.879607 0.125279 2.39803e-19)
(0.956275 0.140672 5.50077e-19)
(1.02499 0.154909 -2.21244e-19)
(1.08534 0.167636 -2.82165e-20)
(1.13735 0.178627 3.42597e-19)
(1.18124 0.187525 -7.42237e-20)
(1.21862 0.197782 -2.66158e-23)
(-0.00931934 0.00562621 -2.9146e-19)
(-0.00226815 0.00883323 -1.07121e-18)
(0.0274636 0.0107693 2.52365e-19)
(0.0761443 0.0129943 -1.92163e-19)
(0.140903 0.0168073 -4.43906e-19)
(0.219056 0.0230889 -3.1725e-19)
(0.307777 0.0322104 -1.96018e-19)
(0.404034 0.0441463 4.75932e-19)
(0.504628 0.0585635 -2.82652e-19)
(0.606332 0.0748998 -2.89609e-19)
(0.706091 0.0924499 -3.65654e-19)
(0.801219 0.110454 -6.03433e-20)
(0.889549 0.12818 -4.13951e-20)
(0.969528 0.14498 -8.41425e-19)
(1.04023 0.160337 4.05971e-19)
(1.10132 0.173882 -5.34227e-19)
(1.15294 0.185392 1.6587e-19)
(1.19563 0.194791 -1.26367e-18)
(1.23015 0.201939 3.81362e-19)
(1.25833 0.209861 4.775e-19)
(-0.00678165 0.00419613 -7.3244e-20)
(0.0079334 0.00546765 5.22131e-19)
(0.047508 0.00708479 3.35079e-20)
(0.107551 0.0102522 8.0618e-20)
(0.184537 0.0160487 -1.63943e-19)
(0.275027 0.0251389 -2.76594e-21)
(0.375353 0.0376159 -4.25204e-21)
(0.481628 0.0531327 -9.90592e-20)
(0.589902 0.0710245 3.51441e-19)
(0.696413 0.0904252 1.35717e-19)
(0.797851 0.11039 6.15646e-19)
(0.891573 0.13001 -1.67693e-19)
(0.975724 0.148499 1.1676e-19)
(1.04926 0.165246 -1.47978e-20)
(1.11187 0.179844 3.2245e-19)
(1.16385 0.192077 1.96339e-19)
(1.20598 0.201901 4.70596e-19)
(1.23931 0.209406 -7.58598e-19)
(1.265 0.214676 9.51361e-19)
(1.28498 0.220213 -3.00915e-19)
(-0.00346062 0.00271788 -6.79903e-19)
(0.0204145 0.00224044 -2.12514e-19)
(0.071196 0.00399817 1.65909e-19)
(0.143721 0.00871557 1.04656e-19)
(0.23364 0.0171509 1.07531e-19)
(0.336574 0.0296524 1.08892e-19)
(0.447864 0.0459338 -2.7281e-19)
(0.562713 0.0652428 -1.1265e-19)
(0.676496 0.0865364 3.50426e-20)
(0.785109 0.108647 -3.33814e-19)
(0.885271 0.130439 -1.50683e-19)
(0.974695 0.150937 9.09999e-19)
(1.05213 0.169399 -2.34923e-19)
(1.11724 0.185348 -3.22375e-19)
(1.17048 0.198556 -1.51946e-19)
(1.21282 0.209013 1.05788e-19)
(1.24558 0.216865 1.27646e-19)
(1.27023 0.22236 -6.11207e-19)
(1.28823 0.225768 8.81774e-19)
(1.30143 0.229095 -7.63148e-19)
(0.000737898 0.00124747 -7.66899e-20)
(0.0353551 -0.000669309 2.19285e-20)
(0.0986785 0.00179866 -2.81974e-20)
(0.184643 0.00875065 4.10969e-19)
(0.287886 0.0205009 2.28124e-20)
(0.402911 0.0369614 1.51062e-19)
(0.523972 0.0573596 -3.14113e-19)
(0.645409 0.0804698 -1.14187e-20)
(0.762111 0.10486 4.36135e-19)
(0.869938 0.129109 6.06401e-20)
(0.965981 0.151983 -3.79258e-19)
(1.04863 0.17255 -3.33469e-20)
(1.11747 0.19022 -3.10078e-19)
(1.17301 0.20473 3.09222e-19)
(1.21646 0.216085 4.27437e-19)
(1.24941 0.224491 -4.70394e-20)
(1.27359 0.230273 -5.68819e-20)
(1.29072 0.233808 1.73461e-19)
(1.30239 0.235492 -5.55188e-19)
(1.31032 0.236911 4.89716e-19)
(0.00589931 -0.000144543 7.73268e-20)
(0.0528916 -0.00305201 -4.97973e-19)
(0.130009 0.000803659 1.33197e-19)
(0.230138 0.0107308 -4.13997e-19)
(0.346713 0.0264533 1.42443e-19)
(0.472977 0.0473145 -5.29023e-19)
(0.602092 0.071958 2.13456e-19)
(0.727702 0.0986512 -6.80415e-20)
(0.844524 0.125612 -2.80362e-21)
(0.948758 0.151261 6.93907e-20)
(1.03823 0.174394 -2.52443e-19)
(1.11226 0.194242 -3.59814e-19)
(1.17139 0.210462 -7.34569e-20)
(1.21702 0.223059 -3.29692e-20)
(1.251 0.232287 -8.35349e-20)
(1.27537 0.238551 -2.71135e-20)
(1.29213 0.242322 -8.11226e-20)
(1.3031 0.244058 -7.01975e-20)
(1.30982 0.244225 -2.07815e-19)
(1.31385 0.24408 3.2897e-19)
(0.0120953 -0.00137346 1.85359e-19)
(0.0731032 -0.00467201 -2.0594e-19)
(0.165125 0.00134754 4.4346e-19)
(0.279848 0.0150169 -1.91636e-19)
(0.409327 0.0353052 5.12268e-19)
(0.54548 0.0608545 7.50066e-21)
(0.680492 0.0896565 2.5736e-19)
(0.807609 0.119489 -6.91382e-20)
(0.92178 0.148314 2.87402e-19)
(1.01995 0.174535 2.0555e-20)
(1.10096 0.19711 6.8245e-19)
(1.16525 0.215549 -4.70618e-19)
(1.21433 0.229819 6.35957e-20)
(1.25035 0.240211 1.20973e-19)
(1.27568 0.247212 6.29705e-19)
(1.29264 0.251388 -2.26117e-19)
(1.3033 0.253304 -4.46686e-20)
(1.3094 0.253459 -2.35525e-19)
(1.31241 0.252342 -2.44496e-20)
(1.31365 0.250958 1.17571e-19)
(0.0193785 -0.00234186 -8.86924e-20)
(0.0959994 -0.00527447 2.56637e-19)
(0.203834 0.00376712 -2.63342e-19)
(0.333227 0.0219359 1.0378e-19)
(0.474731 0.0472733 -1.24591e-19)
(0.618974 0.0776063 4.56766e-19)
(0.757422 0.110255 -6.38306e-20)
(0.883335 0.142587 1.56442e-19)
(0.99234 0.172456 -9.2332e-20)
(1.08248 0.198404 -2.55445e-21)
(1.15383 0.219688 1.04892e-19)
(1.20795 0.236174 -8.12251e-20)
(1.24724 0.248165 2.10445e-19)
(1.27445 0.256227 -1.0498e-19)
(1.29225 0.261035 -4.60136e-19)
(1.30306 0.263268 4.56947e-19)
(1.30887 0.263536 -2.05272e-19)
(1.3113 0.262338 1.63835e-19)
(1.3116 0.260158 2.8317e-19)
(1.31091 0.257806 1.16253e-19)
(0.0277777 -0.00294186 2.20833e-19)
(0.12151 -0.00459459 -4.55214e-19)
(0.245808 0.00838494 8.70232e-20)
(0.389557 0.0317597 -6.32557e-20)
(0.541768 0.0624773 -2.55625e-19)
(0.691953 0.0974758 -2.00608e-19)
(0.831243 0.133449 -3.95205e-20)
(0.9534 0.167499 -3.57381e-19)
(1.05515 0.197545 -2.18201e-20)
(1.1359 0.222432 -6.63465e-20)
(1.19703 0.241819 -1.79828e-19)
(1.24115 0.255968 -4.00031e-20)
(1.27138 0.265512 -1.37327e-19)
(1.29084 0.271247 -2.28581e-19)
(1.30233 0.273987 2.3366e-19)
(1.30821 0.274467 3.18964e-20)
(1.3103 0.273302 6.35479e-20)
(1.31001 0.270959 -2.68022e-19)
(1.30841 0.267905 -6.86842e-21)
(1.3064 0.264792 -4.12132e-19)
(0.0372929 -0.00305828 2.41578e-19)
(0.149477 -0.00236858 1.61286e-19)
(0.290582 0.0154916 -2.60531e-19)
(0.447972 0.0446865 4.06813e-19)
(0.609189 0.0809312 -4.3993e-20)
(0.762944 0.120262 1.52069e-19)
(0.900532 0.158865 5.26686e-20)
(1.01671 0.193767 1.86393e-19)
(1.10965 0.223149 -1.45969e-19)
(1.18025 0.246292 4.85856e-20)
(1.23117 0.263322 -4.6586e-20)
(1.26591 0.274904 -2.03584e-20)
(1.28806 0.281959 3.88802e-20)
(1.30095 0.285461 -7.14869e-20)
(1.30733 0.286301 -2.18767e-20)
(1.30936 0.285228 -6.70072e-20)
(1.30868 0.282826 -1.08749e-19)
(1.30644 0.279514 7.02661e-20)
(1.30352 0.275736 -9.60201e-20)
(1.30064 0.27201 4.15191e-19)
(0.0478917 -0.00257269 -1.20448e-19)
(0.179654 0.00165412 -3.41735e-19)
(0.337568 0.025329 -4.5522e-20)
(0.507495 0.0608275 -1.25363e-20)
(0.675717 0.102544 -1.5334e-19)
(0.8306 0.145678 -2.51869e-19)
(0.964148 0.186093 8.23894e-20)
(1.07256 0.220964 -1.13216e-19)
(1.15569 0.248913 -1.26709e-19)
(1.21595 0.26976 7.05477e-20)
(1.25713 0.284121 -5.32675e-20)
(1.28337 0.293032 -1.07641e-19)
(1.29857 0.297651 -3.51625e-21)
(1.30604 0.299062 7.29008e-20)
(1.30838 0.298186 -7.41857e-20)
(1.3075 0.295746 1.0295e-19)
(1.30479 0.292272 2.7757e-20)
(1.30119 0.288128 6.96562e-20)
(1.29737 0.283734 1.3541e-19)
(1.29392 0.27949 -1.1596e-19)
(0.0595069 -0.00136809 1.14962e-19)
(0.211705 0.00769811 -9.9614e-21)
(0.38607 0.0380751 5.18071e-20)
(0.567084 0.0801994 -7.01749e-20)
(0.740124 0.12713 5.8864e-21)
(0.893763 0.173374 2.43733e-19)
(1.02126 0.214717 -1.60016e-19)
(1.12062 0.24871 6.78009e-20)
(1.19347 0.274566 5.97845e-20)
(1.24365 0.2927 -1.67735e-19)
(1.27584 0.304209 1.57567e-19)
(1.29464 0.310447 1.42084e-21)
(1.30402 0.312738 -1.10856e-19)
(1.30714 0.312223 1.33578e-19)
(1.30636 0.309806 -5.29729e-20)
(1.30333 0.306157 4.04797e-20)
(1.29917 0.301739 -4.52851e-20)
(1.29463 0.296863 -1.8165e-20)
(1.29023 0.291932 -1.58059e-19)
(1.28642 0.287223 4.8461e-20)
(0.0720353 0.000665997 -3.86305e-20)
(0.245214 0.0159498 1.03967e-19)
(0.435312 0.0538326 1.62607e-20)
(0.625681 0.102724 6.80837e-20)
(0.801283 0.15442 3.25373e-20)
(0.951505 0.202966 1.52593e-20)
(1.07136 0.24434 8.63755e-20)
(1.16086 0.276682 -1.04573e-20)
(1.22343 0.299908 3.80747e-20)
(1.26411 0.315044 6.11306e-20)
(1.28827 0.323624 2.9484e-20)
(1.30072 0.327252 2.11633e-20)
(1.30534 0.327355 8.57894e-20)
(1.30505 0.325077 -8.30453e-20)
(1.30192 0.321273 1.78136e-20)
(1.29732 0.316542 -1.6685e-20)
(1.29216 0.311278 2.57915e-20)
(1.287 0.305739 2.16069e-20)
(1.28224 0.300317 4.50698e-20)
(1.27822 0.29517 1.85597e-21)
(0.0853388 0.0036282 2.29109e-20)
(0.279694 0.0265466 2.0928e-20)
(0.48447 0.0726215 -2.90048e-20)
(0.682264 0.128231 1.81293e-20)
(0.858217 0.184085 1.02509e-20)
(1.00314 0.234055 -3.19037e-20)
(1.11418 0.274594 1.05219e-20)
(1.19349 0.304615 1.91607e-21)
(1.24612 0.324798 1.81405e-20)
(1.27813 0.336764 -4.86669e-20)
(1.2953 0.342418 -1.5155e-22)
(1.30245 0.343543 1.34836e-20)
(1.30327 0.341607 -1.0747e-20)
(1.30038 0.337717 1.08708e-20)
(1.29552 0.332653 2.83693e-20)
(1.28982 0.326938 -1.61459e-20)
(1.28399 0.320894 4.49491e-21)
(1.27844 0.314737 1.76854e-20)
(1.27348 0.308851 -2.91315e-20)
(1.26935 0.30327 1.3998e-20)
(0.0992474 0.0076003 6.36574e-20)
(0.314606 0.0395677 -3.46831e-20)
(0.532704 0.0943765 4.08852e-20)
(0.735883 0.156473 -3.04344e-20)
(0.910122 0.21575 -1.36589e-20)
(1.04821 0.266242 4.13989e-21)
(1.14972 0.305148 -1.34081e-20)
(1.21888 0.332289 4.82169e-20)
(1.2622 0.349135 -4.01655e-20)
(1.28648 0.357851 9.43227e-21)
(1.29769 0.360639 -7.02486e-21)
(1.30054 0.359391 -4.58041e-20)
(1.29841 0.355562 4.44436e-20)
(1.29357 0.35019 1.69341e-20)
(1.28748 0.343968 -1.68381e-20)
(1.28103 0.337339 3.95521e-20)
(1.27478 0.33056 -5.78705e-22)
(1.26903 0.323811 -3.83787e-20)
(1.26398 0.317475 2.84217e-20)
(1.25982 0.311452 8.9821e-21)
(0.113563 0.0126427 -2.23142e-20)
(0.349376 0.0550287 6.46679e-20)
(0.579191 0.118949 7.48098e-20)
(0.785694 0.187131 -3.53385e-20)
(0.956378 0.249009 6.14603e-20)
(1.08648 0.29914 9.73299e-20)
(1.1781 0.335703 -5.38372e-21)
(1.23748 0.359523 -1.67506e-20)
(1.27229 0.372842 8.26372e-20)
(1.28984 0.378301 4.03211e-20)
(1.29612 0.378322 -7.33281e-21)
(1.29555 0.374838 6.01837e-20)
(1.29117 0.369251 -6.45974e-20)
(1.28492 0.362505 1.00637e-19)
(1.27799 0.355203 -1.67877e-20)
(1.27109 0.34771 4.81849e-20)
(1.2646 0.340223 8.71232e-21)
(1.25878 0.332898 3.44956e-20)
(1.25373 0.326113 -3.28197e-20)
(1.24961 0.319635 7.96156e-21)
(0.128063 0.0187904 -3.47314e-20)
(0.383413 0.0728771 8.20736e-20)
(0.62315 0.146111 6.10565e-20)
(0.830979 0.219832 -9.27296e-21)
(0.996542 0.283445 9.53575e-20)
(1.11787 0.332378 -7.14311e-20)
(1.19961 0.365993 -5.62991e-21)
(1.24979 0.38616 6.29904e-20)
(1.27702 0.395851 1.99902e-20)
(1.28885 0.398103 2.80582e-20)
(1.2911 0.395477 -4.14669e-20)
(1.28789 0.389893 1.08298e-19)
(1.28187 0.382666 2.0271e-20)
(1.27466 0.374636 -9.60314e-20)
(1.26721 0.366313 1.40582e-19)
(1.26006 0.357989 -1.65949e-19)
(1.2535 0.349812 -7.63088e-20)
(1.24771 0.341917 1.26525e-20)
(1.24274 0.334681 7.40988e-20)
(1.23873 0.327732 -1.40059e-19)
(0.142509 0.0260498 -7.78107e-20)
(0.416131 0.0929928 -1.83768e-19)
(0.663874 0.175565 -1.59148e-19)
(0.871157 0.254162 -2.16687e-19)
(1.03033 0.318632 -1.23129e-19)
(1.14244 0.365606 -2.55387e-19)
(1.2146 0.395773 3.2461e-20)
(1.25633 0.41206 -1.35919e-19)
(1.27693 0.418097 -1.49667e-20)
(1.284 0.417229 2.23927e-20)