/*--------------------------------*- C++ -*----------------------------------*\
  =========                 |
  \\      /  F ield         | OpenFOAM: The Open Source CFD Toolbox
   \\    /   O peration     | Website:  https://openfoam.org
    \\  /    A nd           | Version:  6.0
     \\/     M anipulation  |
\*---------------------------------------------------------------------------*/
FoamFile
{
    version     2.0;
    format      ascii;
    class       volVectorField;
    location    "23.4";
    object      U;
}
// * * * * * * * * * * * * * * * * * * * * * * * * * * * * * * * * * * * * * //

dimensions      [0 1 -1 0 0 0 0];

internalField   nonuniform List<vector> 
8000
(
(-0.000483985 0.000493729 -3.47654e-21)
(-0.00264608 0.00121897 1.85829e-20)
(-0.0066398 0.00171708 -2.26018e-20)
(-0.0115406 0.00204119 1.72109e-20)
(-0.0168671 0.00223178 8.38114e-21)
(-0.0223476 0.0023215 -2.51679e-20)
(-0.0277878 0.00233794 -2.22453e-21)
(-0.0330622 0.00230418 -7.89485e-22)
(-0.0381011 0.00223937 -1.30643e-20)
(-0.0428754 0.00215949 -7.0779e-21)
(-0.0473856 0.00207777 5.27839e-21)
(-0.0516537 0.00200507 2.00672e-20)
(-0.0557161 0.00195018 -1.50278e-21)
(-0.0596186 0.00191997 2.15e-21)
(-0.0634125 0.00191947 -2.02123e-20)
(-0.0671569 0.00195194 1.24539e-20)
(-0.0709107 0.00201896 -1.78435e-20)
(-0.0746757 0.00212162 2.70019e-20)
(-0.0783825 0.00226126 -3.02304e-23)
(-0.0824396 0.00242977 5.831e-21)
(-0.000567991 0.00160047 1.15451e-20)
(-0.00285134 0.00397117 -5.9e-20)
(-0.0069231 0.00562644 -4.07504e-20)
(-0.0118672 0.00673096 -2.7674e-20)
(-0.0172082 0.00741079 -3.56013e-20)
(-0.0226786 0.00776825 7.83466e-21)
(-0.0280877 0.00789015 -4.10975e-20)
(-0.0333126 0.0078493 -9.23083e-21)
(-0.0382856 0.00770643 2.91674e-21)
(-0.0429791 0.00751214 3.07171e-20)
(-0.0473947 0.00730844 -3.35075e-20)
(-0.0515552 0.00712985 4.66099e-20)
(-0.0554982 0.00700422 -3.49038e-20)
(-0.0592703 0.00695332 -4.13909e-20)
(-0.0629243 0.00699314 -5.70387e-20)
(-0.0665206 0.00713397 3.64274e-20)
(-0.0701201 0.00738081 -1.17807e-20)
(-0.0737259 0.00773688 -4.28953e-20)
(-0.0772684 0.00820602 4.05587e-20)
(-0.0811588 0.00876311 -3.01266e-20)
(-0.000737202 0.00269353 1.12857e-19)
(-0.00326403 0.00668843 5.84463e-20)
(-0.00749115 0.00948389 6.57296e-20)
(-0.0125203 0.0113544 5.46933e-21)
(-0.017888 0.0125106 3.6329e-20)
(-0.0233359 0.0131236 4.53425e-20)
(-0.0286806 0.0133385 -8.23988e-20)
(-0.0338047 0.0132773 -4.36352e-20)
(-0.0386443 0.0130417 -5.68286e-20)
(-0.0431749 0.0127167 6.06648e-20)
(-0.0474002 0.0123731 -4.63353e-20)
(-0.051345 0.0120692 -5.96153e-20)
(-0.0550486 0.0118526 -2.17072e-20)
(-0.0585598 0.0117605 2.06219e-20)
(-0.0619337 0.0118209 -5.73246e-21)
(-0.0652336 0.012052 8.26768e-21)
(-0.0685243 0.0124632 9.56805e-20)
(-0.0718122 0.0130606 -1.34405e-20)
(-0.0750268 0.0138515 -9.7262e-20)
(-0.0785853 0.0147935 1.28205e-19)
(-0.000990142 0.00376367 3.92643e-20)
(-0.00388078 0.00934698 -5.54655e-20)
(-0.00833958 0.0132541 -1.39134e-20)
(-0.0134949 0.0158667 2.60107e-20)
(-0.0189017 0.0174782 7.38592e-20)
(-0.0243154 0.0183268 1.61709e-19)
(-0.0295637 0.0186148 1.58012e-19)
(-0.0345373 0.018512 1.31271e-20)
(-0.0391786 0.0181603 9.6897e-20)
(-0.0434674 0.0176784 1.48313e-19)
(-0.0474106 0.0171655 -1.18509e-19)
(-0.0510355 0.0167045 1.75388e-19)
(-0.054384 0.016363 -3.97124e-20)
(-0.0575079 0.0161954 1.00189e-20)
(-0.0604656 0.0162429 4.14724e-20)
(-0.0633251 0.0165335 5.51105e-20)
(-0.0661569 0.0170825 -8.67322e-20)
(-0.0689724 0.0179005 -7.23829e-20)
(-0.071701 0.0190001 -1.28089e-19)
(-0.0747694 0.0203214 1.86449e-19)
(-0.00132465 0.00480259 -2.05142e-20)
(-0.00469634 0.0119248 -2.09991e-19)
(-0.0094613 0.0169041 -6.21132e-20)
(-0.0147828 0.0202259 -1.51363e-19)
(-0.0202406 0.022264 5.72143e-20)
(-0.0256086 0.0233219 -9.02371e-20)
(-0.0307295 0.0236569 3.10322e-20)
(-0.0355054 0.0234846 -1.91122e-19)
(-0.0398867 0.0229857 1.00826e-19)
(-0.0438588 0.0223118 -1.20238e-19)
(-0.0474329 0.0215903 -1.0693e-19)
(-0.0506393 0.0209283 -1.19728e-19)
(-0.053523 0.020415 1.08678e-19)
(-0.0561391 0.0201233 -9.75754e-20)
(-0.0585507 0.02011 1.3587e-19)
(-0.0608315 0.0204155 3.92662e-20)
(-0.0630598 0.0210635 9.7193e-20)
(-0.0652547 0.0220719 4.26468e-20)
(-0.0673462 0.0234611 -1.68883e-19)
(-0.0697758 0.0251539 2.74917e-19)
(-0.00173797 0.00580309 9.04277e-20)
(-0.00570359 0.0144021 6.95807e-21)
(-0.0108459 0.0204036 3.72532e-20)
(-0.0163712 0.0243937 1.29991e-19)
(-0.02189 0.0268235 -1.99013e-20)
(-0.0272001 0.0280591 2.11092e-19)
(-0.0321632 0.02841 9.36918e-20)
(-0.0366956 0.0281358 7.87647e-21)
(-0.0407581 0.0274534 2.4092e-19)
(-0.044343 0.0265457 7.89412e-20)
(-0.0474663 0.0255675 3.7449e-20)
(-0.0501618 0.0246504 1.18854e-19)
(-0.0524777 0.0239059 1.08942e-19)
(-0.0544728 0.0234274 1.98883e-19)
(-0.0562152 0.0232902 -1.77764e-19)
(-0.0577857 0.0235506 2.5127e-19)
(-0.0592726 0.0242448 3.29009e-21)
(-0.0607052 0.025402 -3.21136e-19)
(-0.0620166 0.0270547 4.16285e-19)
(-0.0636695 0.0291092 1.7256e-19)
(-0.00222684 0.00675894 -5.32906e-20)
(-0.00689331 0.0167609 -9.67336e-20)
(-0.0124791 0.0237254 -2.01308e-19)
(-0.0182412 0.0283355 -5.96729e-21)
(-0.0238273 0.0311169 3.43513e-20)
(-0.0290646 0.0324952 -2.57062e-19)
(-0.0338377 0.032829 -1.90712e-19)
(-0.0380808 0.0324183 -2.72811e-20)
(-0.0417671 0.0315137 -2.41234e-19)
(-0.0448972 0.030327 -1.67023e-19)
(-0.0474926 0.0290387 -4.86768e-20)
(-0.0495906 0.0278043 -1.56737e-19)
(-0.0512424 0.0267585 -2.55547e-21)
(-0.0525103 0.026017 -2.08145e-19)
(-0.0534675 0.0256773 8.75534e-20)
(-0.0542029 0.025816 -9.98908e-20)
(-0.0548167 0.0264873 7.65156e-20)
(-0.0553514 0.0277377 -9.73892e-20)
(-0.0557471 0.0296189 -2.78244e-19)
(-0.0564965 0.0320226 -8.45604e-20)
(-0.00278744 0.00766469 -1.96124e-20)
(-0.00825384 0.0189849 -2.12999e-20)
(-0.0143415 0.0268444 1.6878e-19)
(-0.0203659 0.0320201 -2.74659e-19)
(-0.0260189 0.0351097 4.02931e-20)
(-0.0311622 0.0365945 -1.5866e-19)
(-0.0357085 0.0368785 7.49776e-20)
(-0.0396129 0.0362983 3.37007e-19)
(-0.0428636 0.0351346 -2.16182e-20)
(-0.0454714 0.0336245 -2.51413e-19)
(-0.0474635 0.031972 4.56796e-20)
(-0.048881 0.0303548 8.85798e-21)
(-0.0497772 0.0289304 -5.16215e-20)
(-0.0502173 0.0278387 5.22002e-21)
(-0.0502792 0.0272029 4.53498e-19)
(-0.0500601 0.0271256 -6.45704e-20)
(-0.0496738 0.0276864 -1.25965e-19)
(-0.0491793 0.0289576 -2.2598e-19)
(-0.0485286 0.0310201 2.30524e-19)
(-0.0482572 0.033756 9.94424e-20)
(-0.00341528 0.00851521 9.90351e-20)
(-0.00977055 0.0210585 -1.29571e-19)
(-0.0164076 0.0297368 1.8319e-19)
(-0.0227088 0.035419 1.84418e-19)
(-0.028417 0.0387713 1.70005e-19)
(-0.0334347 0.0403276 3.44742e-19)
(-0.0377073 0.040533 2.22935e-19)
(-0.0412149 0.0397562 -4.7906e-19)
(-0.0439635 0.0383033 2.45005e-19)
(-0.0459756 0.0364328 1.9226e-19)
(-0.0472856 0.0343677 -2.73268e-21)
(-0.0479378 0.0323053 2.15225e-19)
(-0.0479874 0.0304245 1.67796e-19)
(-0.0475009 0.0288898 -9.12717e-20)
(-0.0465598 0.0278528 3.08426e-19)
(-0.0452691 0.0274486 -3.82328e-19)
(-0.0437572 0.0277907 1.53034e-19)
(-0.0421026 0.0289898 1.96785e-19)
(-0.0402756 0.0311705 -4.58456e-20)
(-0.0388719 0.0342142 3.95497e-19)
(-0.00410498 0.00930517 1.99005e-19)
(-0.0114252 0.0229659 1.03224e-20)
(-0.0186445 0.0323791 -7.14289e-20)
(-0.0252213 0.0385043 -7.54524e-20)
(-0.0309571 0.0420736 -3.49425e-19)
(-0.0358009 0.0436698 4.94813e-20)
(-0.0397362 0.043775 1.40199e-19)
(-0.0427725 0.0427851 -6.74364e-20)
(-0.0449367 0.0410263 5.56289e-20)
(-0.0462656 0.0387729 -1.47467e-20)
(-0.0468019 0.0362621 -7.26645e-20)
(-0.0465939 0.0337058 6.8997e-20)
(-0.0456977 0.0313004 -2.99963e-19)
(-0.0441801 0.0292336 2.8757e-19)
(-0.042124 0.027687 -2.49089e-19)
(-0.0396408 0.026833 7.69391e-20)
(-0.0368737 0.0268293 1.7509e-19)
(-0.0339228 0.0278402 -3.64198e-20)
(-0.0307835 0.0300554 -1.21125e-19)
(-0.0281358 0.0333709 -8.24027e-20)
(-0.00484993 0.0100286 -2.47894e-19)
(-0.013195 0.0246898 -1.63182e-20)
(-0.0210106 0.0347466 5.22083e-20)
(-0.0278411 0.0412475 1.34242e-19)
(-0.0335543 0.0449887 -1.89519e-19)
(-0.0381521 0.0465987 -1.65386e-19)
(-0.0416613 0.0465923 3.86037e-19)
(-0.0441252 0.0453878 -2.13313e-19)
(-0.0455958 0.0433261 -1.37607e-19)
(-0.046127 0.0406915 -1.97455e-19)
(-0.0457722 0.0377283 1.30718e-19)
(-0.044585 0.0346565 -3.52551e-21)
(-0.0426226 0.0316838 -2.44118e-19)
(-0.0399508 0.0290159 -3.99365e-19)
(-0.0366521 0.0268625 3.04262e-19)
(-0.032842 0.0254358 -2.46542e-19)
(-0.0286769 0.0249469 3.49537e-19)
(-0.0242796 0.0256318 -9.7925e-20)
(-0.0196765 0.0277738 2.05793e-19)
(-0.0156639 0.031308 -6.99038e-19)
(-0.005642 0.0106784 -5.02059e-19)
(-0.0150523 0.0262112 3.29215e-19)
(-0.0234547 0.0368118 4.47732e-20)
(-0.0304907 0.0436173 8.66155e-21)
(-0.0361018 0.0474862 -2.03015e-19)
(-0.0403489 0.04909 2.98545e-19)
(-0.0433076 0.048973 3.25876e-20)
(-0.0450595 0.0475714 -6.12201e-20)
(-0.0456858 0.045236 -1.9652e-19)
(-0.0452615 0.0422544 2.12428e-19)
(-0.043854 0.0388714 5.38604e-19)
(-0.0415249 0.0353065 -1.18983e-19)
(-0.0383344 0.0317698 2.689e-19)
(-0.0343475 0.0284758 -3.17649e-19)
(-0.0296452 0.025655 -3.04609e-19)
(-0.0243443 0.0235563 1.83135e-19)
(-0.0186124 0.0224487 3.0259e-19)
(-0.0125929 0.0226574 -9.80528e-19)
(-0.00634666 0.0245955 1.15131e-19)
(-0.000825991 0.028274 1.56617e-19)
(-0.00647129 0.0112466 3.71775e-19)
(-0.0169635 0.0275084 1.22309e-19)
(-0.0259152 0.038544 6.37149e-19)
(-0.0330762 0.0455782 3.27925e-20)
(-0.0384691 0.0495304 -7.08643e-20)
(-0.0422193 0.0511142 -3.37466e-19)
(-0.044456 0.0509003 2.8698e-19)
(-0.0453036 0.0493399 5.14907e-19)
(-0.0448766 0.0467897 3.43064e-19)
(-0.0432756 0.0435359 2.47696e-19)
(-0.0405864 0.0398171 2.13553e-19)
(-0.0368834 0.0358435 -3.83465e-19)
(-0.0322339 0.0318165 -1.20121e-19)
(-0.0267057 0.0279466 -8.84903e-20)
(-0.0203789 0.0244709 9.48206e-19)
(-0.0133711 0.0216632 -3.22133e-21)
(-0.00585843 0.0198449 -2.36345e-19)
(0.00199923 0.019441 -7.45017e-20)
(0.010111 0.0210339 6.78198e-19)
(0.0173222 0.0247605 8.88668e-20)
(-0.00732597 0.0117242 -1.83246e-20)
(-0.0188892 0.0285577 -3.51729e-19)
(-0.0283198 0.0399089 -5.23295e-19)
(-0.035487 0.0470893 -1.45623e-19)
(-0.0405013 0.0510791 8.04122e-20)
(-0.0435575 0.0526328 1.7313e-20)
(-0.0448421 0.0523466 4.59227e-19)
(-0.0445256 0.0506856 -5.69548e-19)
(-0.0427599 0.04801 -2.16647e-19)
(-0.0396753 0.0446025 -4.36632e-19)
(-0.0353819 0.0406909 -3.71911e-19)
(-0.0299732 0.0364697 -3.29344e-19)
(-0.0235313 0.0321209 8.23487e-20)
(-0.016134 0.0278357 -1.0694e-19)
(-0.00786696 0.0238377 4.5825e-19)
(0.00114808 0.0204027 -2.5113e-19)
(0.0107261 0.0178826 -7.87456e-19)
(0.0206964 0.0167955 -1.58879e-19)
(0.0309545 0.0179264 3.88687e-19)
(0.0400997 0.0215959 -3.38872e-19)
(-0.00819242 0.012102 -5.93176e-20)
(-0.0207839 0.029334 4.30219e-19)
(-0.0305853 0.0408696 -5.48707e-19)
(-0.0375958 0.0481055 1.26823e-19)
(-0.0420196 0.0520828 -2.61261e-19)
(-0.0441245 0.0535971 5.81967e-19)
(-0.0441568 0.0532706 -4.15945e-19)
(-0.0423354 0.0515822 4.75888e-19)
(-0.0388517 0.0488972 -4.51229e-19)
(-0.0338698 0.045495 1.92539e-19)
(-0.0275294 0.0415932 -9.34353e-20)
(-0.0199515 0.037368 -2.34628e-19)
(-0.0112436 0.0329761 -2.89941e-19)
(-0.00150656 0.0285766 2.88923e-19)
(0.00915474 0.024358 -2.41996e-19)
(0.0206026 0.0205657 -5.29237e-19)
(0.0326343 0.0175409 5.51003e-19)
(0.0450704 0.015857 -7.03054e-19)
(0.0578259 0.0165088 3.1622e-19)
(0.0692323 0.0200491 8.28445e-21)
(-0.00905543 0.0123711 -5.3789e-19)
(-0.0225964 0.0298126 -5.80814e-19)
(-0.0326176 0.0413886 6.69279e-20)
(-0.039258 0.0485796 -5.60167e-19)
(-0.0428207 0.0524877 -4.98711e-20)
(-0.0436486 0.0539508 -4.12066e-19)
(-0.0420485 0.0536178 -9.45369e-20)
(-0.0382881 0.0519839 -2.76299e-19)
(-0.0325992 0.0494226 2.447e-21)
(-0.0251814 0.0462152 -1.20902e-19)
(-0.0162091 0.0425738 8.58925e-21)
(-0.00583884 0.0386621 -3.48419e-19)
(0.00578343 0.0346135 3.84065e-19)
(0.0185158 0.0305517 -5.44962e-19)
(0.0322116 0.0266162 1.93129e-19)
(0.0466924 0.0229903 7.36917e-21)
(0.0617135 0.0199486 -3.07719e-19)
(0.0770724 0.0180426 7.63142e-19)
(0.092751 0.0184275 -1.82355e-19)
(0.106852 0.0218905 -1.18446e-19)
(-0.00989848 0.0125241 6.03836e-19)
(-0.0242693 0.0299707 3.26063e-19)
(-0.0343106 0.0414306 3.03316e-19)
(-0.0403106 0.0484663 4.52825e-20)
(-0.0426757 0.0522413 4.10169e-19)
(-0.0418248 0.0536362 5.91224e-19)
(-0.0381243 0.0533284 4.84096e-19)
(-0.0318892 0.051832 4.33206e-20)
(-0.02339 0.0495341 3.54533e-19)
(-0.0128626 0.0467248 5.47826e-19)
(-0.000518263 0.0436216 -1.42118e-19)
(0.0134439 0.0403876 2.38516e-19)
(0.0288269 0.0371471 1.9259e-19)
(0.0454275 0.0340008 1.95941e-19)
(0.0630277 0.0310438 1.1597e-18)
(0.0813714 0.028385 -4.34702e-19)
(0.100125 0.0261821 -2.65929e-20)
(0.119013 0.0248537 5.04867e-19)
(0.138121 0.0255842 -2.86406e-19)
(0.155479 0.0293109 1.41758e-19)
(-0.0107038 0.0125552 -4.88347e-19)
(-0.0257385 0.0297898 3.13066e-20)
(-0.0355447 0.0409668 -3.90977e-19)
(-0.0405698 0.0477292 -5.08952e-20)
(-0.0413272 0.0513013 2.86216e-19)
(-0.038312 0.052607 -8.52041e-19)
(-0.0319484 0.0523526 -6.19461e-22)
(-0.0225958 0.0510739 3.96527e-19)
(-0.0105609 0.0491758 3.72571e-19)
(0.00388637 0.046966 -1.64032e-19)
(0.0204967 0.0446791 5.40933e-20)
(0.0390245 0.0424954 1.25465e-19)
(0.0592116 0.0405539 -5.93957e-20)
(0.0807743 0.0389625 -6.66608e-19)
(0.103391 0.037807 1.68761e-19)
(0.126679 0.0371523 4.64943e-19)
(0.150143 0.0370386 -6.62715e-19)
(0.173329 0.0376628 3.23332e-19)
(0.196402 0.0400753 8.69481e-20)
(0.217663 0.0451807 4.41161e-19)
(-0.0114523 0.0124607 -7.213e-20)
(-0.0269317 0.0292564 -3.42222e-19)
(-0.0361838 0.0399781 1.5747e-19)
(-0.0398262 0.0463468 7.15485e-22)
(-0.0384838 0.0496467 -6.86372e-19)
(-0.0327278 0.0508438 1.07107e-19)
(-0.0230386 0.0506725 -2.03392e-20)
(-0.00981675 0.0496906 1.38564e-19)
(0.00659713 0.0483238 -6.34268e-19)
(0.025901 0.0469018 -4.44666e-20)
(0.0478086 0.0456865 -1.49028e-19)
(0.0720275 0.0448915 1.32562e-19)
(0.0982359 0.0446978 4.47632e-19)
(0.12606 0.0452646 -6.91957e-20)
(0.155052 0.0467378 2.68241e-20)
(0.184644 0.049241 1.76461e-19)
(0.214068 0.0528312 -4.35397e-20)
(0.242462 0.0576297 3.57039e-19)
(0.26979 0.0646907 -2.06541e-19)
(0.29497 0.0745827 -3.2802e-19)
(-0.012122 0.0122385 6.68909e-20)
(-0.0277657 0.0283637 1.63036e-20)
(-0.0360708 0.0384589 1.37239e-19)
(-0.0378395 0.0443204 3.36138e-19)
(-0.0338137 0.0472892 1.88622e-19)
(-0.0246422 0.048371 1.96811e-20)
(-0.0108612 0.0483255 -2.25181e-19)
(0.00708733 0.0477295 5.77269e-20)
(0.0288284 0.0470267 3.03586e-19)
(0.0540263 0.0465675 -5.14448e-19)
(0.0823586 0.0466394 3.88213e-19)
(0.113491 0.047492 -2.92534e-19)
(0.147053 0.0493578 2.4833e-19)
(0.182616 0.0524745 -5.35765e-19)
(0.219663 0.0571092 5.8978e-19)
(0.257527 0.0635724 -6.31007e-19)
(0.29525 0.0722123 -1.6433e-19)
(0.331509 0.0836543 5.17027e-19)
(0.365161 0.0998424 -1.74163e-19)
(0.39319 0.120694 7.84932e-20)
(-0.0126872 0.0118878 -5.06361e-20)
(-0.0281426 0.0271114 4.77834e-19)
(-0.0350227 0.03642 -2.00824e-21)
(-0.0343325 0.0416793 -2.96625e-19)
(-0.0269392 0.0442831 -1.99494e-19)
(-0.0135734 0.0452721 3.65465e-19)
(0.00516824 0.0454261 -1.44754e-19)
(0.0287951 0.045334 -1.82363e-20)
(0.056887 0.0454485 3.01652e-19)
(0.0890613 0.0461273 -3.74745e-19)
(0.124945 0.0476653 4.10998e-20)
(0.164152 0.0503206 -4.87277e-19)
(0.206274 0.0543392 2.56705e-19)
(0.250874 0.0599844 -7.34823e-19)
(0.297493 0.0675752 1.1715e-18)
(0.345665 0.0775375 -2.14527e-19)
(0.394953 0.0905244 2.24998e-19)
(0.445242 0.107966 -5.83887e-19)
(0.497028 0.13288 2.82074e-21)
(0.542411 0.160891 6.69528e-19)
(-0.0131161 0.0114076 -1.53425e-19)
(-0.0279464 0.0255055 1.32567e-19)
(-0.0328263 0.0338891 -4.88127e-19)
(-0.0289877 0.0384846 7.21957e-19)
(-0.0174347 0.0407311 -5.21215e-19)
(0.00101016 0.041699 2.68938e-20)
(0.0256764 0.0421799 -5.61984e-19)
(0.0560048 0.0427644 4.01798e-19)
(0.0915014 0.0438995 -5.74052e-20)
(0.131699 0.045929 -3.54582e-19)
(0.176127 0.0491232 -2.06953e-19)
(0.224295 0.053701 2.18653e-19)
(0.275691 0.0598488 1.44704e-19)
(0.329791 0.0677375 -6.40783e-19)
(0.38609 0.077539 2.31214e-19)
(0.444146 0.0894382 -3.41753e-19)
(0.503642 0.103654 4.14565e-20)
(0.564621 0.120642 -2.91688e-19)
(0.627958 0.141574 1.21123e-19)
(0.686376 0.162332 -4.40039e-19)
(-0.0133681 0.0107967 4.36772e-19)
(-0.0270388 0.023558 -2.64503e-19)
(-0.0292356 0.0309126 2.17951e-19)
(-0.0214467 0.0348307 -2.75155e-19)
(-0.00483126 0.0367871 4.61242e-19)
(0.019678 0.0378737 -8.08088e-21)
(0.0513101 0.0388836 -5.61433e-20)
(0.0893991 0.0403957 -4.16246e-20)
(0.133326 0.0428327 2.56213e-19)
(0.182476 0.0464998 4.35667e-19)
(0.236203 0.0516104 -2.57362e-19)
(0.293826 0.0583048 2.5025e-19)
(0.35463 0.0666629 4.57372e-19)
(0.417887 0.0767137 -3.20688e-19)
(0.482896 0.08844 -6.52552e-19)
(0.549024 0.101773 1.19427e-18)
(0.615749 0.116575 -2.1314e-19)
(0.682747 0.132683 -6.95102e-20)
(0.750255 0.150431 7.5275e-19)
(0.812992 0.168825 -1.5819e-19)
(-0.0133924 0.0100535 -7.11165e-19)
(-0.0252577 0.0212879 -4.73431e-19)
(-0.023972 0.0275553 -1.81741e-19)
(-0.0113161 0.0308448 3.50606e-19)
(0.0113698 0.0326527 -7.91472e-19)
(0.0430114 0.034081 4.0984e-19)
(0.082693 0.0359104 5.19366e-20)
(0.129581 0.0386894 5.25068e-20)
(0.182858 0.0427928 -5.36744e-19)
(0.241668 0.0484576 -1.89551e-19)
(0.3051 0.0558065 -3.34189e-19)
(0.37218 0.0648658 3.2281e-19)
(0.4419 0.0755777 9.17687e-20)
(0.513245 0.0878103 1.8062e-20)
(0.585242 0.101365 4.22032e-19)
(0.657004 0.115973 -4.27164e-19)
(0.727764 0.131291 -1.78554e-20)
(0.796907 0.146911 1.04545e-20)
(0.864131 0.162685 5.81693e-20)
(0.926451 0.180121 3.34841e-19)
(-0.0131267 0.00917694 2.26451e-19)
(-0.0224169 0.0187226 5.83255e-19)
(-0.0167291 0.0239021 4.68064e-19)
(0.00182031 0.0266865 -1.61323e-19)
(0.0316728 0.0285732 5.61023e-19)
(0.0715633 0.0306579 -4.72648e-20)
(0.120364 0.0336881 -6.65769e-20)
(0.176988 0.0381555 3.9631e-20)
(0.240315 0.0443543 5.42213e-19)
(0.30915 0.0524161 3.1859e-19)
(0.382208 0.0623344 9.30267e-20)
(0.458144 0.0739862 5.68081e-21)
(0.535593 0.0871512 -6.17975e-19)
(0.613231 0.101531 5.36953e-19)
(0.689828 0.116764 9.23495e-20)
(0.764301 0.132441 -1.51786e-19)
(0.835745 0.148112 -6.6069e-19)
(0.903454 0.163313 -5.63875e-20)
(0.966902 0.177581 2.61848e-19)
(1.02521 0.194058 -5.37823e-20)
(-0.0124974 0.00816829 -5.74768e-19)
(-0.0183091 0.0159012 2.40482e-19)
(-0.00718133 0.02006 -1.17399e-18)
(0.0183838 0.0225475 4.80759e-19)
(0.0565558 0.0248329 -3.83386e-19)
(0.105807 0.027981 2.82639e-19)
(0.164702 0.032675 -4.39022e-19)
(0.231789 0.0393119 4.03038e-20)
(0.30553 0.0480613 -2.26229e-20)
(0.384272 0.0589029 1.18071e-19)
(0.466277 0.0716579 1.7059e-19)
(0.549778 0.086021 -3.22438e-19)
(0.63306 0.101594 1.70711e-19)
(0.71454 0.117917 1.56953e-19)
(0.792837 0.134502 6.793e-19)
(0.866823 0.150855 -2.94761e-19)
(0.93564 0.166497 -1.96658e-19)
(0.99872 0.181014 3.31095e-19)
(1.05564 0.193832 1.77663e-19)
(1.10691 0.208843 -3.32852e-19)
(-0.0114203 0.00703352 5.03562e-19)
(-0.012711 0.0128792 4.85566e-19)
(0.00500371 0.0161628 1.40042e-19)
(0.0387769 0.018653 5.8987e-19)
(0.0864327 0.0217507 2.89727e-19)
(0.146081 0.0264532 -5.2226e-19)
(0.215856 0.0333349 7.90958e-19)
(0.293809 0.0426453 -3.89232e-19)
(0.377856 0.0543735 3.88544e-19)
(0.465798 0.0682938 5.02818e-19)
(0.555398 0.0840127 -2.87363e-19)
(0.644489 0.10102 5.45689e-20)
(0.731089 0.11874 3.04658e-19)
(0.813499 0.136581 2.14828e-19)
(0.89037 0.153976 4.9555e-19)
(0.960735 0.170414 -1.97914e-19)
(1.024 0.185465 -2.40987e-20)
(1.07994 0.198814 3.14089e-19)
(1.12849 0.209971 -6.73711e-20)
(1.17098 0.2229 3.90684e-22)
(-0.00980313 0.00578617 -2.59968e-19)
(-0.00539141 0.00973324 -9.55522e-19)
(0.0201494 0.0123746 2.2499e-19)
(0.0633572 0.0152626 -1.71269e-19)
(0.121612 0.0196753 -3.9529e-19)
(0.192533 0.0264902 -2.82149e-19)
(0.273679 0.0361115 -1.74299e-19)
(0.362459 0.0485737 4.23341e-19)
(0.456137 0.0636196 -2.51414e-19)
(0.551924 0.0807656 -2.57426e-19)
(0.647114 0.0993734 -3.25785e-19)
(0.739248 0.118726 -5.37807e-20)
(0.826253 0.138099 -3.63126e-20)
(0.906527 0.156823 -7.54586e-19)
(0.978987 0.174323 3.664e-19)
(1.04305 0.190149 -4.81747e-19)
(1.09857 0.203986 1.51889e-19)
(1.1458 0.215666 -1.15615e-18)
(1.18515 0.224904 3.48341e-19)
(1.21835 0.235307 4.42103e-19)
(-0.00754884 0.00445003 -6.52656e-20)
(0.00387929 0.00656646 4.66285e-19)
(0.0385517 0.00889474 2.98847e-20)
(0.0924074 0.0126708 7.19182e-20)
(0.162258 0.0189783 -1.4621e-19)
(0.245075 0.0285037 -2.38788e-21)
(0.33768 0.0414011 -3.74083e-21)
(0.436716 0.0574105 -8.81838e-20)
(0.538737 0.0759622 3.12767e-19)
(0.64039 0.0962744 1.20966e-19)
(0.738633 0.117459 5.49293e-19)
(0.830919 0.138624 -1.4982e-19)
(0.915327 0.15896 1.04697e-19)
(0.990614 0.177796 -1.37086e-20)
(1.05619 0.194638 2.90245e-19)
(1.11201 0.209171 1.7788e-19)
(1.15853 0.221251 4.2941e-19)
(1.19648 0.230881 -6.93999e-19)
(1.22677 0.238028 8.74251e-19)
(1.25126 0.245749 -2.77161e-19)
(-0.00455894 0.00306132 -6.07981e-19)
(0.0153175 0.00351198 -1.89725e-19)
(0.0604591 0.0059591 1.48331e-19)
(0.126107 0.0112039 9.35057e-20)
(0.208351 0.0200431 9.57421e-20)
(0.303342 0.0328803 9.70955e-20)
(0.407012 0.0495239 -2.4294e-19)
(0.515154 0.0693352 -1.00488e-19)
(0.623634 0.0913778 3.11583e-20)
(0.728676 0.11456 -2.97682e-19)
(0.827124 0.137779 -1.34735e-19)
(0.916623 0.160035 8.14433e-19)
(0.995692 0.180525 -2.10063e-19)
(1.06368 0.198677 -2.89997e-19)
(1.12065 0.214156 -1.37935e-19)
(1.16723 0.226844 9.53678e-20)
(1.20442 0.236798 1.16705e-19)
(1.23342 0.244195 -5.59585e-19)
(1.2555 0.249229 8.10613e-19)
(1.27251 0.254385 -7.02949e-19)
(-0.000737856 0.00167029 -6.88748e-20)
(0.0291138 0.000734736 1.97405e-20)
(0.0860514 0.00383919 -2.51141e-20)
(0.164501 0.0112121 3.6721e-19)
(0.259658 0.0232488 2.01853e-20)
(0.366677 0.0399573 1.34822e-19)
(0.480484 0.0606956 -2.80043e-19)
(0.596018 0.0843721 -1.02159e-20)
(0.708589 0.109659 3.89076e-19)
(0.814241 0.135185 5.42634e-20)
(0.910016 0.159706 -3.39156e-19)
(0.994064 0.182226 -2.97826e-20)
(1.0656 0.202052 -2.79055e-19)
(1.12473 0.218801 2.77739e-19)
(1.17227 0.232367 3.86319e-19)
(1.20945 0.242853 -4.26057e-20)
(1.23777 0.250517 -5.20674e-20)
(1.25875 0.25569 1.58685e-19)
(1.27388 0.258734 -5.10867e-19)
(1.28492 0.261624 4.49808e-19)
(0.00400256 0.000341782 6.90837e-20)
(0.0454198 -0.00156927 -4.45906e-19)
(0.115419 0.00283665 1.19355e-19)
(0.207478 0.0130572 -3.7003e-19)
(0.315718 0.0289487 1.27215e-19)
(0.434139 0.0499962 -4.72447e-19)
(0.556621 0.075006 1.90551e-19)
(0.677354 0.102387 -6.06438e-20)
(0.79134 0.130438 -2.45209e-21)
(0.894782 0.15759 6.21118e-20)
(0.985264 0.182576 -2.26324e-19)
(1.06172 0.20452 -3.23278e-19)
(1.12425 0.222948 -6.63718e-20)
(1.1738 0.237737 -2.97987e-20)
(1.21186 0.249035 -7.56418e-20)
(1.24019 0.25717 -2.46682e-20)
(1.26063 0.262568 -7.3863e-20)
(1.27486 0.26567 -6.40843e-20)
(1.28442 0.266944 -1.90942e-19)
(1.29092 0.267949 3.03158e-19)
(0.00973824 -0.000844963 1.66327e-19)
(0.0643348 -0.00317644 -1.84698e-19)
(0.148542 0.0032737 3.97441e-19)
(0.254752 0.0170947 -1.715e-19)
(0.375834 0.0374465 4.58343e-19)
(0.504538 0.0631592 6.48883e-21)
(0.633756 0.0924082 2.30166e-19)
(0.757165 0.1231 -6.16051e-20)
(0.869813 0.153238 2.57286e-19)
(0.968439 0.181179 1.86402e-20)
(1.05149 0.205771 6.1293e-19)
(1.11891 0.22638 -4.23193e-19)
(1.17173 0.242829 5.6988e-20)
(1.21168 0.255292 1.08826e-19)
(1.24085 0.264168 5.70804e-19)
(1.26133 0.269974 -2.05108e-19)
(1.27512 0.273259 -4.07036e-20)
(1.28393 0.274528 -2.15852e-19)
(1.28923 0.274294 -2.28072e-20)
(1.29244 0.273793 1.08084e-19)
(0.0165278 -0.0017975 -7.99083e-20)
(0.0858929 -0.00384175 2.30717e-19)
(0.185279 0.00547974 -2.36077e-19)
(0.305853 0.023653 9.32989e-20)
(0.439093 0.0489729 -1.11419e-19)
(0.576497 0.079494 4.09094e-19)
(0.710153 0.112723 -5.69371e-20)
(0.833577 0.146123 1.40429e-19)
(0.942282 0.177531 -8.26526e-20)
(1.03392 0.205383 -2.14377e-21)
(1.10804 0.228785 9.45252e-20)
(1.16567 0.24744 -7.32502e-20)
(1.20876 0.261514 1.90054e-19)
(1.23969 0.271473 -9.47359e-20)
(1.26094 0.277934 -4.17578e-19)
(1.27478 0.281554 4.15285e-19)
(1.28321 0.282953 -1.87255e-19)
(1.28784 0.28265 1.49541e-19)
(1.28998 0.281168 2.59504e-19)
(1.29087 0.279492 1.0662e-19)
(0.0244077 -0.00241226 1.98808e-19)
(0.110052 -0.00330735 -4.09658e-19)
(0.225352 0.0097752 7.83983e-20)
(0.360132 0.0330123 -5.68509e-20)
(0.504409 0.0636666 -2.29199e-19)
(0.648538 0.0989291 -1.79877e-19)
(0.784128 0.135661 -3.53428e-20)
(0.904977 0.171003 -3.2073e-19)
(1.00749 0.202793 -1.95205e-20)
(1.09052 0.229718 -5.96047e-20)
(1.15486 0.251257 -1.61863e-19)
(1.20261 0.26751 -3.59571e-20)
(1.23648 0.27899 -1.23952e-19)
(1.25932 0.286421 -2.06993e-19)
(1.27381 0.290587 2.1206e-19)
(1.28225 0.29223 2.92837e-20)
(1.2865 0.291989 5.83594e-20)
(1.28801 0.290364 -2.44537e-19)
(1.2879 0.287865 -6.09421e-21)
(1.28719 0.285276 -3.77568e-19)
(0.0333871 -0.00257753 2.18079e-19)
(0.136686 -0.00131313 1.45422e-19)
(0.26835 0.0164541 -2.34369e-19)
(0.416785 0.045385 3.65988e-19)
(0.570574 0.0815631 -3.94318e-20)
(0.71918 0.121282 1.36681e-19)
(0.854171 0.160851 4.73183e-20)
(0.970107 0.197265 1.67671e-19)
(1.06465 0.228558 -1.31289e-19)
(1.13807 0.253815 4.37654e-20)
(1.19241 0.27297 -4.20207e-20)
(1.23068 0.28654 -1.85099e-20)
(1.25619 0.295355 3.51703e-20)
(1.27206 0.300346 -6.48297e-20)
(1.281 0.302402 -1.99372e-20)
(1.28518 0.302297 -6.09959e-20)
(1.28627 0.300649 -9.91886e-20)
(1.2855 0.297918 6.40327e-20)
(1.28382 0.294588 -8.79229e-20)
(1.28204 0.291279 3.79912e-19)
(0.0434443 -0.00217726 -1.08943e-19)
(0.165579 0.0023913 -3.08513e-19)
(0.313732 0.0257665 -4.10627e-20)
(0.474881 0.0609002 -1.11503e-20)
(0.636327 0.102593 -1.38147e-19)
(0.787029 0.146278 -2.26795e-19)
(0.919029 0.187879 7.42436e-20)
(1.02811 0.224459 -1.02017e-19)
(1.11347 0.254439 -1.14341e-19)
(1.17684 0.277417 6.37046e-20)
(1.22143 0.293827 -4.81523e-20)
(1.25099 0.304581 -9.74606e-20)
(1.2692 0.310773 -3.30784e-21)
(1.27925 0.313476 6.60151e-20)
(1.28375 0.313631 -6.73758e-20)
(1.28466 0.311996 9.35035e-20)
(1.28342 0.309145 2.51442e-20)
(1.28104 0.30548 6.34127e-20)
(1.27828 0.30146 1.23665e-19)
(1.27579 0.29756 -1.05951e-19)
(0.0545237 -0.00109556 1.0408e-19)
(0.196427 0.00803403 -9.23777e-21)
(0.360843 0.0379032 4.66582e-20)
(0.533406 0.0795947 -6.33484e-20)
(0.700426 0.126587 5.19148e-21)
(0.850858 0.173575 2.19766e-19)
(0.977752 0.216317 -1.44385e-19)
(1.07849 0.252182 6.11546e-20)
(1.15398 0.280138 5.39249e-20)
(1.20737 0.300373 -1.51628e-19)
(1.24284 0.31382 1.42507e-19)
(1.26467 0.321738 1.2593e-21)
(1.27669 0.325421 -1.00464e-19)
(1.28202 0.326021 1.21109e-19)
(1.28306 0.324479 -4.80726e-20)
(1.28152 0.321508 3.67688e-20)
(1.2786 0.317616 -4.11242e-20)
(1.27511 0.313147 -1.64378e-20)
(1.27163 0.308537 -1.44072e-19)
(1.26867 0.304128 4.41168e-20)
(0.0665339 0.00077828 -3.51193e-20)
(0.228844 0.0158084 9.41933e-20)
(0.408941 0.052983 1.46769e-20)
(0.591314 0.10141 6.15831e-20)
(0.761711 0.153293 2.93739e-20)
(0.909652 0.202787 1.37681e-20)
(1.0297 0.245756 7.80753e-20)
(1.12112 0.280091 -9.48064e-21)
(1.18655 0.305439 3.44286e-20)
(1.2304 0.322608 5.53294e-20)
(1.25761 0.332993 2.67036e-20)
(1.27276 0.338138 1.91724e-20)
(1.27967 0.339467 7.77573e-20)
(1.28127 0.338154 -7.52682e-20)
(1.27968 0.335099 1.61591e-20)
(1.27635 0.330949 -1.51282e-20)
(1.27225 0.32614 2.34189e-20)
(1.26801 0.320959 1.9622e-20)
(1.26407 0.315826 4.09853e-20)
(1.26082 0.310951 1.73192e-21)
(0.0793488 0.00354458 2.08181e-20)
(0.262369 0.0258618 1.90151e-20)
(0.457222 0.0710439 -2.6317e-20)
(0.647574 0.126197 1.64435e-20)
(0.819151 0.182389 9.2877e-21)
(0.962635 0.233512 -2.88913e-20)
(1.07452 0.275814 9.53467e-21)
(1.1561 0.307907 1.71676e-21)
(1.21167 0.330194 1.64454e-20)
(1.2467 0.344097 -4.40917e-20)
(1.26664 0.351416 -1.35901e-22)
(1.27618 0.353904 1.22204e-20)
(1.27897 0.353047 -9.73769e-21)
(1.27769 0.349998 9.85317e-21)
(1.27414 0.345586 2.57114e-20)
(1.26954 0.34038 -1.46275e-20)
(1.26463 0.334743 4.07274e-21)
(1.25991 0.328912 1.60278e-20)
(1.25569 0.323297 -2.6428e-20)
(1.25228 0.317975 1.26846e-20)
(0.0928094 0.00728814 5.80661e-20)
(0.296484 0.0382859 -3.15696e-20)
(0.504856 0.0920397 3.71665e-20)
(0.701216 0.153722 -2.76518e-20)
(0.871884 0.213508 -1.23998e-20)
(1.00927 0.265347 3.74765e-21)
(1.1121 0.30615 -1.21697e-20)
(1.18375 0.335403 4.37683e-20)
(1.22995 0.354304 -3.64427e-20)
(1.25705 0.364846 8.55047e-21)
(1.27075 0.36916 -6.3725e-21)
(1.27569 0.369134 -4.14997e-20)
(1.27525 0.366261 4.02513e-20)
(1.27179 0.36163 1.53218e-20)
(1.26683 0.355986 -1.52442e-20)
(1.26135 0.349817 3.57789e-20)
(1.25592 0.343413 -5.27389e-22)
(1.25092 0.336972 -3.47055e-20)
(1.24656 0.330895 2.57106e-20)
(1.24308 0.325128 8.09969e-21)
(0.106727 0.0120736 -2.03463e-20)
(0.330628 0.0531106 5.90114e-20)
(0.551019 0.11584 6.81695e-20)
(0.751362 0.183681 -3.2153e-20)
(0.919226 0.246248 5.59487e-20)
(1.04923 0.2979 8.85231e-20)
(1.14254 0.336459 -4.87061e-21)
(1.20447 0.362396 -1.51882e-20)
(1.24205 0.377698 7.50514e-20)
(1.26218 0.384866 3.65869e-20)
(1.27066 0.386281 -6.63361e-21)
(1.2719 0.383896 5.45226e-20)
(1.26898 0.379162 -5.845e-20)
(1.26393 0.373081 9.10035e-20)
(1.258 0.366305 -1.51808e-20)
(1.25195 0.359238 4.3462e-20)
(1.24622 0.352106 7.82467e-21)
(1.24109 0.34508 3.10928e-20)
(1.23669 0.338551 -2.96e-20)
(1.23321 0.33233 7.11249e-21)
(0.120887 0.0179411 -3.16648e-20)
(0.364218 0.0702986 7.52067e-20)
(0.594919 0.142235 5.58576e-20)
(0.797255 0.215713 -8.45967e-21)
(0.960674 0.280192 8.69857e-20)
(1.08239 0.330795 -6.4927e-20)
(1.16604 0.366471 -5.07654e-21)
(1.21876 0.388733 5.73372e-20)
(1.24858 0.400321 1.8219e-20)
(1.26273 0.404164 2.5469e-20)
(1.26693 0.402812 -3.75994e-20)
(1.26529 0.398222 9.79905e-20)
(1.26054 0.391767 1.82806e-20)
(1.25438 0.384345 -8.67628e-20)
(1.24782 0.37651 1.26688e-19)
(1.24144 0.368591 -1.49447e-19)
(1.23557 0.360758 -6.8564e-20)
(1.23042 0.353158 1.13701e-20)
(1.22607 0.346179 6.65814e-20)
(1.22266 0.339494 -1.25424e-19)
(0.135059 0.0249034 -7.13336e-20)
(0.396672 0.0897451 -1.6824e-19)
(0.635831 0.170943 -1.45427e-19)
(0.838271 0.249412 -1.98012e-19)
(0.995894 0.314914 -1.12313e-19)
(1.10876 0.36368 -2.3287e-19)
(1.18293 0.395944 2.95862e-20)
(1.22714 0.414281 -1.2361e-19)