/*--------------------------------*- C++ -*----------------------------------*\
  =========                 |
  \\      /  F ield         | OpenFOAM: The Open Source CFD Toolbox
   \\    /   O peration     | Website:  https://openfoam.org
    \\  /    A nd           | Version:  6.0
     \\/     M anipulation  |
\*---------------------------------------------------------------------------*/
FoamFile
{
    version     2.0;
    format      ascii;
    class       surfaceScalarField;
    location    "77";
    object      phi;
}
// * * * * * * * * * * * * * * * * * * * * * * * * * * * * * * * * * * * * * //

dimensions      [0 3 -1 0 0 0 0];

internalField   nonuniform List<scalar> 
7840
(
4.12177e-05
-0.00036571
0.000139891
-0.00110386
0.000270484
-0.0018006
0.000408645
-0.00239985
0.00053578
-0.00286875
0.000641312
-0.00320304
0.000721926
-0.00341928
0.000779242
-0.00354358
0.000817366
-0.00360277
0.000841029
-0.00361956
0.000854502
-0.0036109
0.000861144
-0.0035883
0.00086336
-0.00355899
0.000862761
-0.00352725
0.000860385
-0.00349548
0.000856889
-0.00346501
0.000852701
-0.00343654
0.0008481
-0.00341047
0.000843265
-0.00338694
-0.00336605
0.00083831
4.18413e-05
-0.000407552
0.000139048
-0.00120107
0.000263852
-0.0019254
0.000391547
-0.00252755
0.000504804
-0.00298201
0.000594972
-0.00329321
0.000660479
-0.00348478
0.000704092
-0.00358719
0.00073042
-0.0036291
0.000744211
-0.00363335
0.000749471
-0.00361616
0.000749189
-0.00358802
0.000745407
-0.00355521
0.000739442
-0.00352128
0.00073211
-0.00348815
0.000723924
-0.00345682
0.000715213
-0.00342783
0.0007062
-0.00340146
0.000697025
-0.00337776
-0.0033568
0.000687777
4.20059e-05
-0.000449558
0.00013662
-0.00129568
0.000254308
-0.00204309
0.00037054
-0.00264378
0.000469559
-0.00308102
0.000544652
-0.0033683
0.000595803
-0.00353594
0.000626682
-0.00361807
0.000642189
-0.0036446
0.000646951
-0.00363812
0.000644649
-0.00361386
0.000637899
-0.00358127
0.00062841
-0.00354572
0.000617241
-0.00351011
0.00060503
-0.00347594
0.000592169
-0.00344396
0.000578917
-0.00341458
0.000565449
-0.00338799
0.000551877
-0.00336419
-0.0033432
0.000538273
4.16989e-05
-0.000491257
0.00013265
-0.00138663
0.000242075
-0.00215252
0.000346102
-0.00274781
0.000430758
-0.00316568
0.000491209
-0.00342875
0.000528788
-0.00357351
0.000547835
-0.00363711
0.000553366
-0.00365014
0.00054979
-0.00363454
0.000540431
-0.0036045
0.000527546
-0.00356838
0.000512547
-0.00353072
0.000496274
-0.00349384
0.000479217
-0.00345888
0.000461677
-0.00342642
0.000443853
-0.00339676
0.000425888
-0.00337002
0.000407874
-0.00334618
-0.00332519
0.000389872
4.09187e-05
-0.000532175
0.000127217
-0.00147293
0.000227416
-0.00225272
0.000318727
-0.00283912
0.00038909
-0.00323604
0.000435433
-0.00347509
0.000460225
-0.00359831
0.000468269
-0.00364516
0.000464555
-0.00364642
0.000453206
-0.00362319
0.000437183
-0.00358848
0.000418407
-0.00354961
0.000398032
-0.00351035
0.000376715
-0.00347252
0.000354827
-0.00343699
0.000332592
-0.00340418
0.000310166
-0.00337433
0.000287664
-0.00334752
0.000265168
-0.00332368
-0.00330276
0.00024273
3.96737e-05
-0.000571849
0.000120422
-0.00155368
0.000210615
-0.00234291
0.0002889
-0.0029174
0.000345185
-0.00329233
0.000378012
-0.00350792
0.000390771
-0.00361107
0.00038855
-0.00364294
0.000376206
-0.00363408
0.000357535
-0.00360452
0.000335142
-0.00356609
0.000310647
-0.00352511
0.000284981
-0.00348468
0.000258651
-0.00344619
0.000231929
-0.00341027
0.000204979
-0.00337723
0.00017792
-0.00334727
0.000150848
-0.00332045
0.000123836
-0.00329667
-0.00327585
9.69339e-05
3.79811e-05
-0.00060983
0.000112386
-0.00162808
0.000191965
-0.00242249
0.000257088
-0.00298253
0.000299618
-0.00333486
0.000319544
-0.00352784
0.00032098
-0.0036125
0.000309146
-0.0036311
0.000288684
-0.00361362
0.000263047
-0.00357888
0.000234503
-0.00353754
0.000204407
-0.00349501
0.000173502
-0.00345378
0.000142171
-0.00341486
0.000110606
-0.0033787
7.89196e-05
-0.00334555
4.72007e-05
-0.00331555
1.55292e-05
-0.00328878
-1.60249e-05
-0.00326511
-0.00324447
-4.74112e-05
3.5865e-05
-0.000645695
0.000103242
-0.00169546
0.000171761
-0.00249101
0.000223724
-0.00303449
0.000252901
-0.00336403
0.000260544
-0.00353549
0.00025131
-0.00360327
0.000230428
-0.00361022
0.000202272
-0.00358546
0.000169946
-0.00354656
0.00013541
-0.00350301
9.97875e-05
-0.00345939
6.36689e-05
-0.00341766
2.73355e-05
-0.00337853
-9.08624e-06
-0.00334228
-4.55286e-05
-0.0033091
-8.19314e-05
-0.00327915
-0.000118227
-0.00325248
-0.000154344
-0.003229
-0.00320858
-0.000190227
3.33559e-05
-0.000679051
9.31292e-05
-0.00175523
0.000150288
-0.00254817
0.000189212
-0.00307341
0.000205487
-0.00338031
0.000201451
-0.00353145
0.000182142
-0.00358396
0.0001527
-0.00358078
0.000117195
-0.00354996
7.83933e-05
-0.00350776
3.79761e-05
-0.00346259
-3.12809e-06
-0.00341829
-4.44549e-05
-0.00337633
-8.58023e-05
-0.00333718
-0.000127098
-0.00330099
-0.000168316
-0.00326789
-0.000209423
-0.00323804
-0.000250362
-0.00321154
-0.000291057
-0.0031883
-0.0031682
-0.000331443
3.04888e-05
-0.00070954
8.21921e-05
-0.00180694
0.000127819
-0.00259379
0.000153918
-0.00309951
0.000157774
-0.00338416
0.000142639
-0.00351632
0.000113792
-0.00355511
7.62097e-05
-0.0035432
3.36379e-05
-0.00350738
-1.14774e-05
-0.00346264
-5.77028e-05
-0.00341636
-0.000104273
-0.00337172
-0.00015082
-0.00332978
-0.000197204
-0.0032908
-0.000243398
-0.00325479
-0.000289412
-0.00322187
-0.000335242
-0.00319221
-0.000380843
-0.00316594
-0.000426128
-0.00314302
-0.00312331
-0.000471016
2.73026e-05
-0.000736842
7.05739e-05
-0.00185021
0.000104611
-0.00262783
0.000118172
-0.00311307
0.00011011
-0.0033761
8.44283e-05
-0.00349064
4.65286e-05
-0.00351721
1.16602e-06
-0.00349783
-4.82419e-05
-0.00345798
-9.95499e-05
-0.00341133
-0.000151541
-0.00336437
-0.000203583
-0.00331968
-0.000255382
-0.00327798
-0.00030684
-0.00323934
-0.000357965
-0.00320367
-0.000408803
-0.00317103
-0.000459384
-0.00314163
-0.000509673
-0.00311565
-0.000559568
-0.00309312
-0.00307391
-0.000608967
2.38388e-05
-0.000760681
5.84157e-05
-0.00188478
8.09044e-05
-0.00265032
8.22732e-05
-0.00311444
6.28014e-05
-0.00335663
2.70955e-05
-0.00345493
-1.94194e-05
-0.0034707
-7.22487e-05
-0.003445
-0.000128302
-0.00340192
-0.000185712
-0.00335392
-0.00024345
-0.00330664
-0.000300991
-0.00326214
-0.000358092
-0.00322088
-0.000414682
-0.00318275
-0.000470791
-0.00314756
-0.0005265
-0.00311532
-0.000581874
-0.00308626
-0.000636901
-0.00306063
-0.000691462
-0.00303856
-0.00301996
-0.000745414
2.01409e-05
-0.000780822
4.58548e-05
-0.0019105
5.6924e-05
-0.00266139
4.64906e-05
-0.00310401
1.61193e-05
-0.00332626
-2.91159e-05
-0.00340969
-8.38467e-05
-0.00341597
-0.000143866
-0.00338498
-0.000206403
-0.00333939
-0.000269844
-0.00329048
-0.000333326
-0.00324315
-0.00039641
-0.00319905
-0.000458888
-0.0031584
-0.000520694
-0.00312094
-0.000581867
-0.00308639
-0.000642518
-0.00305467
-0.000702757
-0.00302602
-0.000762607
-0.00300078
-0.000821936
-0.00297923
-0.00296136
-0.000880537
1.62534e-05
-0.000797075
3.30233e-05
-0.00192727
3.28768e-05
-0.00266124
1.10678e-05
-0.0030822
-2.96943e-05
-0.0032855
-8.39873e-05
-0.0033554
-0.000146564
-0.00335339
-0.000213521
-0.00331803
-0.000282394
-0.00327051
-0.000351806
-0.00322107
-0.000421038
-0.00317392
-0.000489725
-0.00313037
-0.000557676
-0.00309045
-0.000624814
-0.0030538
-0.000691169
-0.00302003
-0.000756866
-0.00298898
-0.000822069
-0.00296081
-0.000886852
-0.00293599
-0.000951081
-0.002915
-0.002898
-0.00101444
1.22215e-05
-0.000809297
2.00479e-05
-0.00193509
8.9546e-06
-0.00265015
-2.37746e-05
-0.00304947
-7.44211e-05
-0.00323485
-0.000137318
-0.0032925
-0.00020739
-0.00328332
-0.000281043
-0.00324437
-0.000356109
-0.00319545
-0.000431426
-0.00314575
-0.000506411
-0.00309894
-0.000580764
-0.00305601
-0.000654307
-0.00301691
-0.000726938
-0.00298117
-0.000798647
-0.00294832
-0.000869546
-0.00291808
-0.00093984
-0.00289052
-0.00100968
-0.00286616
-0.00107893
-0.00284575
-0.0028298
-0.00114713
8.09051e-06
-0.000817387
7.04837e-06
-0.00193405
-1.46661e-05
-0.00262843
-5.78366e-05
-0.0030063
-0.000117863
-0.00317482
-0.000188921
-0.00322145
-0.000266145
-0.0032061
-0.000346253
-0.00316427
-0.000427355
-0.00311434
-0.000508492
-0.00306462
-0.00058921
-0.00301822
-0.000669281
-0.00297594
-0.000748545
-0.00293765
-0.000826871
-0.00290285
-0.000904188
-0.00287101
-0.000980549
-0.00284172
-0.00105616
-0.00281491
-0.00113125
-0.00279106
-0.00120574
-0.00277127
-0.00275649
-0.00127904
3.90468e-06
-0.000821292
-5.8627e-06
-0.00192429
-3.78243e-05
-0.00259647
-9.09377e-05
-0.00295319
-0.000159838
-0.00310592
-0.000238621
-0.00314266
-0.000322652
-0.00312206
-0.000408959
-0.00307796
-0.000495913
-0.00302739
-0.000582746
-0.00297778
-0.000669134
-0.00293183
-0.000754932
-0.00289014
-0.000840025
-0.00285255
-0.000924275
-0.0028186
-0.00100754
-0.00278774
-0.00108979
-0.00275947
-0.00117119
-0.00273351
-0.00125208
-0.00271018
-0.00133241
-0.00269093
-0.00267697
-0.00141194
-2.9316e-07
-0.000820999
-1.85815e-05
-0.001906
-6.03751e-05
-0.00255468
-0.000122918
-0.00289065
-0.000200186
-0.00302866
-0.000286254
-0.0030566
-0.000376737
-0.00303158
-0.000468958
-0.00298574
-0.000561538
-0.00293481
-0.000653886
-0.00288544
-0.000745811
-0.0028399
-0.000837276
-0.00279868
-0.000928251
-0.00276158
-0.00101864
-0.00272821
-0.00110829
-0.00269809
-0.00119707
-0.00267069
-0.00128509
-0.00264548
-0.00137281
-0.00262246
-0.00146044
-0.0026033
-0.00258862
-0.00154879
-4.46281e-06
-0.000816536
-3.10144e-05
-0.00187945
-8.21916e-05
-0.0025035
-0.000153638
-0.0028192
-0.000238766
-0.00294353
-0.000331673
-0.00296369
-0.00042823
-0.00293502
-0.000526042
-0.00288793
-0.000623954
-0.0028369
-0.000721545
-0.00278785
-0.000818761
-0.00274269
-0.000915696
-0.00270174
-0.00101247
-0.0026648
-0.00110914
-0.00263154
-0.00120566
-0.00260157
-0.00130191
-0.00257444
-0.00139789
-0.0025495
-0.00149401
-0.00252635
-0.00159087
-0.00250644
-0.00248809
-0.00169139
-8.56761e-06
-0.000807968
-4.308e-05
-0.00184493
-0.000103167
-0.00244341
-0.000182985
-0.00273938
-0.000275465
-0.00285105
-0.00037476
-0.00286439
-0.000476993
-0.00283279
-0.000580022
-0.0027849
-0.00068289
-0.00273403
-0.000785316
-0.00268542
-0.000887361
-0.00264064
-0.000989253
-0.00259985
-0.00109131
-0.00256275
-0.00119387
-0.00252897
-0.00129726
-0.00249818
-0.00140171
-0.00246999
-0.00150734
-0.00244386
-0.00161481
-0.00241888
-0.00172666
-0.00239458
-0.00238456
-0.0018302
-1.25618e-05
-0.000795407
-5.46883e-05
-0.00180281
-0.000123193
-0.00237491
-0.000210852
-0.00265172
-0.000310183
-0.00275172
-0.00041542
-0.00275916
-0.00052292
-0.00272529
-0.000630768
-0.00267705
-0.000738163
-0.00262663
-0.00084491
-0.00257867
-0.000951118
-0.00253444
-0.00105705
-0.00249392
-0.00116308
-0.00245672
-0.00126973
-0.00242233
-0.0013777
-0.00239022
-0.00148788
-0.0023598
-0.00160121
-0.00233053
-0.00171799
-0.00230211
-0.00183916
-0.00227341
-0.00223632
-0.0019874
-1.64422e-05
-0.000778964
-6.58261e-05
-0.00175342
-0.000142255
-0.00229848
-0.000237233
-0.00255675
-0.00034293
-0.00264602
-0.000453671
-0.00264842
-0.00056604
-0.00261292
-0.00067832
-0.00256477
-0.00078983
-0.00251512
-0.000900431
-0.00246807
-0.00101022
-0.00242465
-0.00111937
-0.00238477
-0.00122811
-0.00234798
-0.00133666
-0.00231377
-0.00144529
-0.00228159
-0.00155419
-0.0022509
-0.00166341
-0.00222131
-0.00177322
-0.0021923
-0.00188445
-0.00216218
-0.00212696
-0.0019938
-2.01735e-05
-0.000758791
-7.64315e-05
-0.00169716
-0.000160288
-0.00221462
-0.000262076
-0.00245496
-0.00037367
-0.00253443
-0.000489502
-0.00253258
-0.000606365
-0.00249606
-0.000722717
-0.00244842
-0.000837986
-0.00239985
-0.00095208
-0.00235398
-0.0010651
-0.00231163
-0.00117722
-0.00227265
-0.0012886
-0.0022366
-0.0013994
-0.00220298
-0.00150969
-0.00217129
-0.00161951
-0.00214109
-0.00172881
-0.002112
-0.00183757
-0.00208354
-0.00194499
-0.00205476
-0.00202476
-0.0020472
-2.37388e-05
-0.000735052
-8.64758e-05
-0.00163443
-0.000177268
-0.00212383
-0.000285376
-0.00234685
-0.000402424
-0.00241738
-0.000522957
-0.00241205
-0.000643964
-0.00237505
-0.000764057
-0.00232832
-0.000882753
-0.00228116
-0.000999985
-0.00223675
-0.00111585
-0.00219577
-0.00123047
-0.00215803
-0.00134396
-0.00212311
-0.00145639
-0.00209054
-0.00156778
-0.00205991
-0.00167803
-0.00203084
-0.00178699
-0.00200304
-0.00189439
-0.00197615
-0.00199947
-0.00194967
-0.00192312
-0.00210112
-2.71246e-05
-0.000707927
-9.594e-05
-0.00156561
-0.000193186
-0.00202658
-0.000307142
-0.00223289
-0.000429226
-0.00229529
-0.000554101
-0.00228718
-0.000678937
-0.00225022
-0.000802491
-0.00220477
-0.000924356
-0.00215929
-0.0010445
-0.0021166
-0.00116301
-0.00207726
-0.00128
-0.00204104
-0.00139555
-0.00200755
-0.0015097
-0.00197639
-0.00162244
-0.00194717
-0.00173369
-0.0019196
-0.00184329
-0.00189343
-0.00195099
-0.00186845
-0.00205634
-0.00184432
-0.00182075
-0.00215871
-3.03212e-05
-0.000677606
-0.000104813
-0.00149112
-0.000208042
-0.00192336
-0.000327398
-0.00211354
-0.000454125
-0.00216857
-0.000583005
-0.0021583
-0.000711382
-0.00212184
-0.000838141
-0.00207801
-0.000962947
-0.00203449
-0.0010858
-0.00199375
-0.00120679
-0.00195626
-0.00132603
-0.00192179
-0.00144361
-0.00188998
-0.00155954
-0.00186045
-0.00167383
-0.00183288
-0.00178641
-0.00180702
-0.00189717
-0.00178267
-0.00200596
-0.00175966
-0.00211257
-0.00173771
-0.00171663
-0.00221669
-3.33216e-05
-0.000644285
-0.00011309
-0.00141135
-0.000221847
-0.0018146
-0.000346172
-0.00198921
-0.00047717
-0.00203757
-0.000609744
-0.00202572
-0.000741397
-0.00199019
-0.000871134
-0.00194828
-0.000998687
-0.00190693
-0.00112408
-0.00186836
-0.00124744
-0.00183291
-0.00136887
-0.00180037
-0.00148846
-0.00177039
-0.00160625
-0.00174265
-0.00172227
-0.00171686
-0.00183649
-0.0016928
-0.00194886
-0.0016703
-0.00205931
-0.00164921
-0.00216776
-0.00162926
-0.00161035
-0.00227404
-3.61206e-05
-0.000608164
-0.00012077
-0.0013267
-0.00023461
-0.00170076
-0.000363494
-0.00186033
-0.000498411
-0.00190265
-0.000634384
-0.00188975
-0.000769066
-0.0018555
-0.000901571
-0.00181577
-0.00103169
-0.00177681
-0.0011595
-0.00174055
-0.00128511
-0.00170729
-0.00140867
-0.00167681
-0.00153026
-0.0016488
-0.00164997
-0.00162294
-0.00176784
-0.001599
-0.00188387
-0.00157676
-0.00199808
-0.00155609
-0.00211047
-0.00153682
-0.00222101
-0.00151873
-0.00150173
-0.00232963
-3.87147e-05
-0.000569449
-0.000127851
-0.00123757
-0.000246344
-0.00158227
-0.000379392
-0.00172728
-0.000517892
-0.00176415
-0.000656983
-0.00175066
-0.000794458
-0.00171803
-0.000929531
-0.0016807
-0.00106206
-0.00164429
-0.00119212
-0.00161049
-0.00131989
-0.00157953
-0.0014455
-0.0015512
-0.00156907
-0.00152522
-0.00169071
-0.00150131
-0.00181047
-0.00147924
-0.00192841
-0.00145882
-0.00204458
-0.00143993
-0.002159
-0.0014224
-0.00227172
-0.00140601
-0.00139075
-0.0023827
-4.1101e-05
-0.000528348
-0.000134337
-0.00114433
-0.000257062
-0.00145954
-0.000393891
-0.00159045
-0.000535649
-0.00162239
-0.000677587
-0.00160872
-0.000817626
-0.00157799
-0.000955071
-0.00154325
-0.00108983
-0.00150953
-0.00122202
-0.00147829
-0.00135182
-0.00144972
-0.0014794
-0.00142362
-0.00160489
-0.00139973
-0.00172842
-0.00137779
-0.00185006
-0.00135759
-0.00196992
-0.00133897
-0.00208805
-0.0013218
-0.00220452
-0.00130592
-0.00231939
-0.00129114
-0.00127746
-0.00243268
-4.32771e-05
-0.000485071
-0.000140227
-0.00104738
-0.000266773
-0.00133299
-0.000407012
-0.00145021
-0.000551713
-0.00147769
-0.000696232
-0.0014642
-0.000838608
-0.00143561
-0.000978227
-0.00140364
-0.00111504
-0.00137271
-0.00124921
-0.00134412
-0.00138092
-0.00131801
-0.00151036
-0.00129419
-0.00163768
-0.00127241
-0.00176302
-0.00125245
-0.00188649
-0.00123412
-0.0020082
-0.00121726
-0.00212823
-0.00120176
-0.00224668
-0.00118747
-0.00236362
-0.0011742
-0.00116199
-0.00247909
-4.52406e-05
-0.000439831
-0.000145523
-0.000947098
-0.000275486
-0.00120303
-0.000418771
-0.00130693
-0.000566105
-0.00133036
-0.000712943
-0.00131736
-0.000857429
-0.00129113
-0.000999021
-0.00126204
-0.00113772
-0.00123402
-0.0012737
-0.00120814
-0.00140717
-0.00118454
-0.00153833
-0.00116302
-0.00166736
-0.00114338
-0.00179441
-0.0011254
-0.0019196
-0.00110892
-0.00204306
-0.0010938
-0.0021649
-0.00107993
-0.00228521
-0.00106716
-0.00240408
-0.00105533
-0.0010445
-0.00252158
-4.69895e-05
-0.000392841
-0.000150224
-0.000843863
-0.000283205
-0.00107005
-0.000429179
-0.00116095
-0.000578841
-0.00118069
-0.000727737
-0.00116847
-0.000874103
-0.00114476
-0.00101746
-0.00111869
-0.00115785
-0.00109363
-0.00129547
-0.00107053
-0.00143054
-0.00104947
-0.00156328
-0.00103028
-0.00169388
-0.00101278
-0.0018225
-0.000996788
-0.00194928
-0.000982143
-0.00207435
-0.000968727
-0.00219784
-0.000956434
-0.00231986
-0.000945138
-0.0024405
-0.00093469
-0.000925164
-0.00255983
-4.85215e-05
-0.00034432
-0.00015433
-0.000738055
-0.000289935
-0.000934446
-0.000438243
-0.00101264
-0.000589931
-0.00102901
-0.000740621
-0.00101778
-0.000888635
-0.000996747
-0.00103355
-0.000973772
-0.00117543
-0.000951744
-0.0013145
-0.000931456
-0.001451
-0.000912966
-0.00158515
-0.000896132
-0.00171715
-0.000880783
-0.00184718
-0.000866762
-0.00197539
-0.000853936
-0.00210192
-0.000842198
-0.0022269
-0.000831453
-0.00235045
-0.000821589
-0.00247266
-0.000812476
-0.000804192
-0.00259363
-4.98344e-05
-0.000294485
-0.000157838
-0.000630051
-0.000295675
-0.000796609
-0.000445968
-0.000862351
-0.000599379
-0.000875596
-0.000751602
-0.000865557
-0.000901025
-0.000847323
-0.00104727
-0.000827523
-0.00119045
-0.000808574
-0.00133077
-0.000791128
-0.00146851
-0.000775229
-0.00160389
-0.000760754
-0.00173711
-0.000747557
-0.00186837
-0.000735503
-0.00199783
-0.000724481
-0.00212563
-0.000714398
-0.00225191
-0.000705172
-0.00237679
-0.000696705
-0.00250038
-0.000688887
-0.000681796
-0.00262278
-5.09262e-05
-0.000243559
-0.000160747
-0.000520231
-0.000300426
-0.00065693
-0.000452355
-0.000710421
-0.000607188
-0.000720763
-0.000760677
-0.000712068
-0.000911271
-0.000696729
-0.00105863
-0.000680163
-0.00120288
-0.000664328
-0.00134426
-0.000649749
-0.00148303
-0.000636455
-0.00161944
-0.000624345
-0.0017537
-0.000613299
-0.00188599
-0.000603206
-0.0020165
-0.000593973
-0.00214538
-0.000585524
-0.00227275
-0.000577793
-0.00239876
-0.000570695
-0.00252351
-0.000564141
-0.000558201
-0.00264711
-5.17948e-05
-0.000191764
-0.000163054
-0.000408972
-0.000304186
-0.000515797
-0.000457405
-0.000557203
-0.000613358
-0.00056481
-0.000767846
-0.000557579
-0.000919364
-0.000545211
-0.00106761
-0.000531922
-0.00121271
-0.000519228
-0.00135492
-0.000507532
-0.00149453
-0.000496853
-0.00163176
-0.000487111
-0.00176685
-0.000478213
-0.00189998
-0.000470072
-0.00203134
-0.000462617
-0.00216107
-0.000455787
-0.00228934
-0.000449529
-0.00241625
-0.000443777
-0.00254193
-0.000438461
-0.000433638
-0.0026665
-5.24387e-05
-0.000139326
-0.000164757
-0.000296653
-0.000306955
-0.000373599
-0.000461116
-0.000403042
-0.000617886
-0.00040804
-0.000773104
-0.000402361
-0.0009253
-0.000393016
-0.00107419
-0.000383035
-0.00121992
-0.0003735
-0.00136275
-0.000364696
-0.00150297
-0.000356637
-0.00164081
-0.000349264
-0.00177652
-0.000342511
-0.00191027
-0.000336316
-0.00204226
-0.000330628
-0.00217265
-0.000325403
-0.00230157
-0.000320602
-0.00242917
-0.000316178
-0.00255555
-0.000312079
-0.000308347
-0.00268084
-5.28564e-05
-8.64692e-05
-0.000165855
-0.000183655
-0.00030873
-0.000230723
-0.000463486
-0.000248287
-0.000620771
-0.000250755
-0.000776448
-0.000246683
-0.00092907
-0.000240394
-0.00107837
-0.000233738
-0.00122449
-0.000227373
-0.00136772
-0.000221467
-0.00150833
-0.000216028
-0.00164657
-0.000211023
-0.00178267
-0.000206412
-0.00191683
-0.000202156
-0.00204923
-0.000198227
-0.00218004
-0.000194596
-0.0023094
-0.00019124
-0.00243745
-0.00018813
-0.0025643
-0.000185233
-0.000182571
-0.00269007
-5.30469e-05
-3.34223e-05
-0.000166345
-7.03575e-05
-0.00030951
-8.75576e-05
-0.000464514
-9.32833e-05
-0.000622009
-9.326e-05
-0.000777874
-9.08187e-05
-0.00093067
-8.75974e-05
-0.00108013
-8.42741e-05
-0.00122643
-8.10794e-05
-0.00136982
-7.80712e-05
-0.0015106
-7.52523e-05
-0.00164901
-7.2612e-05
-0.00178528
-7.01375e-05
-0.00191962
-6.78166e-05
-0.00205221
-6.56386e-05
-0.00218321
-6.35941e-05
-0.00231278
-6.16745e-05
-0.00244104
-5.98689e-05
-0.00256811
-5.81632e-05
-5.65592e-05
-0.00269412
-5.30098e-05
1.95875e-05
-0.000166226
4.28592e-05
-0.000309294
5.55098e-05
-0.000464198
6.16211e-05
-0.0006216
6.41422e-05
-0.000777379
6.49598e-05
-0.000930096
6.51195e-05
-0.00107949
6.51168e-05
-0.00122571
6.51455e-05
-0.00136904
6.52606e-05
-0.00150976
6.54646e-05
-0.00164812
6.57448e-05
-0.00178434
6.60867e-05
-0.00191864
6.64779e-05
-0.00205118
6.69086e-05
-0.00218215
6.73712e-05
-0.00231168
6.78591e-05
-0.00243991
6.83646e-05
-0.00256696
6.88838e-05
6.94356e-05
-0.00269296
-5.27455e-05
7.23329e-05
-0.000165501
0.000155614
-0.000308081
0.000198091
-0.000462539
0.000216079
-0.000619543
0.000221146
-0.000774962
0.000220379
-0.000927346
0.000217503
-0.00107642
0.000214192
-0.00122234
0.000211067
-0.00136538
0.000208299
-0.00150581
0.000205895
-0.00164389
0.000203822
-0.00177984
0.000202036
-0.00191386
0.000200501
-0.00204614
0.000199187
-0.00217684
0.000198069
-0.0023061
0.000197126
-0.00243407
0.000196331
-0.00256085
0.000195663
0.000195159
-0.00268657
-5.2254e-05
0.000124587
-0.000164167
0.000267527
-0.000305872
0.000339796
-0.000459535
0.000369741
-0.000615836
0.000377448
-0.000770623
0.000375165
-0.00092242
0.0003693
-0.00107094
0.00036271
-0.00121632
0.000356452
-0.00135884
0.000350814
-0.00149876
0.000345815
-0.00163633
0.000341395
-0.00177178
0.000337486
-0.00190531
0.000334028
-0.00203709
0.00033097
-0.00216729
0.00032827
-0.00229606
0.000325892
-0.00242352
0.000323793
-0.00254979
0.00032193
0.000320361
-0.00267499
-5.15364e-05
0.000176123
-0.000162227
0.000378218
-0.000302667
0.000480237
-0.000455186
0.000522259
-0.000610479
0.000532742
-0.00076436
0.000529046
-0.000915318
0.000520258
-0.00106304
0.000510431
-0.00120766
0.000501068
-0.00134942
0.000492581
-0.00148861
0.000485
-0.00162546
0.000478243
-0.00176019
0.000472218
-0.001893
0.000466839
-0.00202406
0.000462034
-0.00215354
0.000457748
-0.00228158
0.000453928
-0.0024083
0.000450515
-0.00253382
0.000447448
0.000444797
-0.00265825
-5.05941e-05
0.000226717
-0.000159681
0.000487305
-0.000298467
0.000619022
-0.000449491
0.000673284
-0.000603472
0.000686723
-0.000756176
0.00068175
-0.000906045
0.000670127
-0.00105273
0.000657119
-0.00119635
0.000644687
-0.00133715
0.000633378
-0.00147538
0.000623232
-0.00161129
0.000614152
-0.00174509
0.000606016
-0.00187697
0.000598717
-0.0020071
0.000592164
-0.00213563
0.000586283
-0.00226271
0.000581011
-0.00238847
0.000576269
-0.002513
0.00057198
0.000568223
-0.00263643
-4.9429e-05
0.000276146
-0.000156534
0.00059441
-0.000293272
0.00075576
-0.000442452
0.000822464
-0.000594814
0.000839085
-0.00074607
0.000833006
-0.000894603
0.00081866
-0.00104002
0.000802541
-0.00118242
0.000787087
-0.00132203
0.000772987
-0.0014591
0.000760301
-0.00159386
0.000748911
-0.00172652
0.000738674
-0.00185726
0.000729456
-0.00198625
0.000721149
-0.00211363
0.000713663
-0.00223954
0.000706922
-0.0023641
0.000700834
-0.00248742
0.0006953
0.000690407
-0.00260961
-4.80431e-05
0.00032419
-0.000152785
0.000699152
-0.000287084
0.000890059
-0.000434066
0.000969446
-0.000584504
0.000989523
-0.000734043
0.000982545
-0.000880995
0.000965611
-0.00102492
0.000946469
-0.00116589
0.000928051
-0.0013041
0.000911201
-0.0014398
0.000896003
-0.00157321
0.000882323
-0.00170453
0.000869994
-0.00183394
0.00085886
-0.00196158
0.000848792
-0.0020876
0.000839687
-0.00221214
0.000831457
-0.0023353
0.000823997
-0.00245719
0.000817188
0.000811118
-0.0025779
-4.64391e-05
0.000370629
-0.000148439
0.000801152
-0.000279902
0.00102152
-0.000424331
0.00111387
-0.000572538
0.00113773
-0.000720092
0.0011301
-0.000865222
0.00111074
-0.00100743
0.00108868
-0.00114675
0.00106737
-0.00128337
0.00104782
-0.00141751
0.00103015
-0.00154939
0.0010142
-0.00167918
0.000999792
-0.00180707
0.000986744
-0.00193319
0.000974909
-0.00205767
0.000964167
-0.00218063
0.000954422
-0.00230219
0.000945557
-0.00242244
0.000937436
0.000930138
-0.00254146
-4.46194e-05
0.000415248
-0.000143498
0.00090003
-0.000271727
0.00114975
-0.000413244
0.00125539
-0.00055891
0.0012834
-0.000704212
0.0012754
-0.000847282
0.00125381
-0.000987558
0.00122896
-0.00112503
0.00120484
-0.00125986
0.00118265
-0.00139226
0.00116255
-0.00152243
0.00114437
-0.00165054
0.0011279
-0.00177674
0.00111294
-0.00190116
0.00109933
-0.00202393
0.00108694
-0.00214515
0.00107564
-0.00226492
0.00106533
-0.00238334
0.00105585
0.00104726
-0.00250046
-4.2587e-05
0.000457835
-0.000137963
0.000995406
-0.000262555
0.00127434
-0.000400796
0.00139363
-0.000543611
0.00142621
-0.000686392
0.00141818
-0.000827167
0.00139459
-0.000965298
0.00136709
-0.00110073
0.00134026
-0.00123359
0.00131552
-0.00136408
0.00129304
-0.00149239
0.00127267
-0.00161865
0.00125417
-0.00174303
0.00123731
-0.00186562
0.00122192
-0.00198653
0.00120785
-0.00210586
0.00119497
-0.00222369
0.00118317
-0.0023401
0.00117226
0.0011623
-0.00245514
-4.03447e-05
0.00049818
-0.000131836
0.0010869
-0.000252383
0.00139489
-0.000386978
0.00152823
-0.000526624
0.00156586
-0.000666616
0.00155817
-0.000804863
0.00153283
-0.000940642
0.00150287
-0.00107384
0.00147346
-0.00120457
0.00144625
-0.00133301
0.00142147
-0.0014593
0.00139897
-0.00158361
0.00137847
-0.00170603
0.00135974
-0.00182668
0.00134257
-0.00194562
0.00132679
-0.00206295
0.00131229
-0.00217871
0.00129893
-0.00229297
0.00128653
0.00127509
-0.00240576
-3.78957e-05
0.000536076
-0.000125118
0.00117412
-0.000241205
0.00151098
-0.000371775
0.0016588
-0.000507929
0.00170201
-0.00064486
0.00169511
-0.000780346
0.00166832
-0.000913569
0.00163609
-0.00104436
0.00160426
-0.0011728
0.00157469
-0.00129904
0.00154771
-0.00142321
0.00152314
-0.00154545
0.00150071
-0.00166585
0.00148014
-0.00178448
0.0014612
-0.00190139
0.00144371
-0.00201664
0.00142754
-0.00213025
0.00141255
-0.00224228
0.00139855
0.0013855
-0.00235269
-3.52437e-05
0.000571319
-0.000117811
0.00125669
-0.000229013
0.00162218
-0.00035517
0.00178495
-0.000487499
0.00183434
-0.000621089
0.00182869
-0.000753577
0.00180081
-0.000884042
0.00176655
-0.00101225
0.00173247
-0.00113825
0.00170069
-0.00126217
0.00167163
-0.00138413
0.0016451
-0.00150423
0.00162081
-0.00162255
0.00159846
-0.00173914
0.00157778
-0.00185401
0.00155858
-0.00196718
0.0015407
-0.00207864
0.00152401
-0.00218839
0.00150829
0.00149347
-0.00229636
-3.23926e-05
0.000603712
-0.000109916
0.00133421
-0.0002158
0.00172806
-0.00033714
0.00190629
-0.0004653
0.0019625
-0.000595259
0.00195865
-0.000724508
0.00193006
-0.000852008
0.00189405
-0.00097746
0.00185792
-0.00110087
0.0018241
-0.00122235
0.00179311
-0.00134201
0.00176476
-0.00145994
0.00173874
-0.00157618
0.0017147
-0.00169076
0.00169236
-0.00180366
0.00167148
-0.00191484
0.00165189
-0.00202425
0.00163342
-0.00213179
0.00161584
0.00159901
-0.00223733
-2.93476e-05
0.000633059
-0.000101436
0.0014063
-0.000201557
0.00182818
-0.000317662
0.0020224
-0.000441291
0.00208613
-0.000567318
0.00208468
-0.000693072
0.00205581
-0.000817391
0.00201837
-0.000939902
0.00198043
-0.00106058
0.00194478
-0.00117951
0.00191204
-0.0012968
0.00188205
-0.00141252
0.00185446
-0.00152672
0.0018289
-0.00163939
0.00180503
-0.00175048
0.00178257
-0.00185989
0.0017613
-0.00196748
0.00174101
-0.00207305
0.00172142
0.0017023
-0.00217634
-2.61155e-05
0.000659175
-9.23767e-05
0.00147256
-0.000186277
0.00192208
-0.000296711
0.00213283
-0.000415429
0.00220485
-0.000537203
0.00220646
-0.000659191
0.0021778
-0.000780096
0.00213928
-0.000899467
0.0020998
-0.00101724
0.00206255
-0.00113349
0.00202829
-0.00124833
0.00199689
-0.00136184
0.00196797
-0.00147405
0.00194111
-0.00158496
0.00191594
-0.00169451
0.00189211
-0.00180255
0.00186934
-0.00190884
0.00184731
-0.00201299
0.00182557
0.00180372
-0.00211442
-2.2705e-05
0.00068188
-8.2747e-05
0.0015326
-0.000169958
0.00200929
-0.000274265
0.00223714
-0.00038767
0.00231825
-0.000504847
0.00232363
-0.000622773
0.00229572
-0.000740006
0.00225651
-0.000856006
0.0022158
-0.000970674
0.00217722
-0.00108408
0.0021417
-0.00119635
0.00210915
-0.00130759
0.0020792
-0.00141787
0.0020514
-0.00152721
0.00202528
-0.00163553
0.00200043
-0.0017427
0.00197651
-0.00184845
0.00195306
-0.00195212
0.00192924
0.00190424
-0.00205264
-1.91278e-05
0.000701008
-7.25631e-05
0.00158604
-0.000152607
0.00208934
-0.000250311
0.00233484
-0.000357975
0.00242592
-0.000470185
0.00243584
-0.00058373
0.00240927
-0.000697003
0.00236979
-0.000809372
0.00232817
-0.000920698
0.00228855
-0.00103106
0.00225206
-0.0011406
0.0022187
-0.00124948
0.00218809
-0.00135785
0.00215977
-0.00146581
0.00213323
-0.00157336
0.00210799
-0.00168051
0.00208366
-0.00178721
0.00205976
-0.00189274
0.00203477
0.00200517
-0.00199367
-1.53992e-05
0.000716407
-6.18489e-05
0.00163249
-0.000134238
0.00216173
-0.000224844
0.00242545
-0.000326315
0.00252739
-0.000433161
0.00254269
-0.000541969
0.00251807
-0.000650952
0.00247877
-0.00075936
0.00243658
-0.000866998
0.00239619
-0.00097393
0.00235899
-0.00108032
0.00232509
-0.00118638
0.00229415
-0.00129235
0.00226573
-0.00139847
0.00223936
-0.00150497
0.00221449
-0.00161191
0.0021906
-0.00171953
0.00216737
-0.00182846
0.0021437
0.00211252
-0.00193581
-1.15382e-05
0.000727945
-5.06387e-05
0.00167159
-0.000114885
0.00222597
-0.00019788
0.00250844
-0.000292681
0.00262219
-0.00039374
0.00264375
-0.00049743
0.00262176
-0.000601765
0.0025831
-0.000705859
0.00254067
-0.000809457
0.00249978
-0.000912624
0.00246216
-0.0010156
0.00242806
-0.00111873
0.00239728
-0.00122249
0.00236949
-0.00132752
0.00234439
-0.00143464
0.00232161
-0.00154469
0.00230065
-0.00165804
0.00228072
-0.00177568
0.00226134
0.00225408
-0.00191724
-7.58094e-06
0.000735526
-3.89987e-05
0.00170301
-9.46208e-05
0.0022816
-0.000169481
0.0025833
-0.000257115
0.00270982
-0.00035194
0.00273857
-0.000450108
0.00271993
-0.000549405
0.0026824
-0.000648781
0.00264005
-0.000747877
0.00259888
-0.000846702
0.00256098
-0.000945445
0.0025268
-0.00104438
0.00249621
-0.00114381
0.00246892
-0.001244
0.00244458
-0.00134516