/*--------------------------------*- C++ -*----------------------------------*\
  =========                 |
  \\      /  F ield         | OpenFOAM: The Open Source CFD Toolbox
   \\    /   O peration     | Website:  https://openfoam.org
    \\  /    A nd           | Version:  6.0
     \\/     M anipulation  |
\*---------------------------------------------------------------------------*/
FoamFile
{
    version     2.0;
    format      ascii;
    class       volScalarField;
    location    "10";
    object      p;
}
// * * * * * * * * * * * * * * * * * * * * * * * * * * * * * * * * * * * * * //

dimensions      [0 2 -2 0 0 0 0];

internalField   nonuniform List<scalar> 
8000
(
-0.30468
-0.306223
-0.30721
-0.307933
-0.308569
-0.309152
-0.30971
-0.310264
-0.310829
-0.311413
-0.312024
-0.312669
-0.313354
-0.314085
-0.314874
-0.315744
-0.316691
-0.317542
-0.318269
-0.32055
-0.304919
-0.306432
-0.307402
-0.308113
-0.308738
-0.309311
-0.309859
-0.310404
-0.310959
-0.311533
-0.312134
-0.312768
-0.313441
-0.314161
-0.314937
-0.315797
-0.316734
-0.317578
-0.318295
-0.320573
-0.305383
-0.30684
-0.307775
-0.30846
-0.309063
-0.309616
-0.310144
-0.310669
-0.311203
-0.311756
-0.312335
-0.312946
-0.313595
-0.31429
-0.315041
-0.315877
-0.316795
-0.317624
-0.318317
-0.320584
-0.306057
-0.307432
-0.308317
-0.308966
-0.309535
-0.310056
-0.310553
-0.311047
-0.311549
-0.312068
-0.312611
-0.313185
-0.313796
-0.31445
-0.315162
-0.31596
-0.316845
-0.317647
-0.318304
-0.320551
-0.30692
-0.308194
-0.309016
-0.309616
-0.31014
-0.310617
-0.311071
-0.311521
-0.311977
-0.312449
-0.312941
-0.313462
-0.314017
-0.314614
-0.315269
-0.31601
-0.316846
-0.317608
-0.318212
-0.320425
-0.307948
-0.309107
-0.309854
-0.310394
-0.310861
-0.311283
-0.311681
-0.312072
-0.312467
-0.312875
-0.3133
-0.313749
-0.314229
-0.314749
-0.315325
-0.31599
-0.316757
-0.31746
-0.317994
-0.320155
-0.309115
-0.310151
-0.310815
-0.311286
-0.311685
-0.312037
-0.312364
-0.312682
-0.313
-0.313325
-0.313663
-0.31402
-0.314404
-0.314825
-0.315298
-0.315862
-0.316537
-0.317161
-0.317604
-0.319694
-0.310397
-0.311309
-0.311882
-0.312275
-0.312595
-0.312865
-0.313106
-0.313334
-0.313558
-0.313783
-0.314014
-0.314257
-0.314521
-0.314816
-0.315161
-0.315596
-0.31615
-0.316669
-0.317001
-0.318998
-0.311774
-0.312564
-0.313044
-0.313351
-0.313579
-0.313755
-0.313897
-0.314019
-0.314131
-0.314237
-0.314341
-0.314449
-0.314569
-0.314712
-0.314898
-0.315173
-0.315574
-0.315957
-0.316153
-0.318035
-0.313231
-0.313905
-0.314289
-0.314503
-0.314631
-0.3147
-0.314729
-0.314732
-0.314716
-0.314687
-0.314646
-0.314598
-0.314549
-0.314513
-0.314512
-0.314591
-0.314802
-0.315012
-0.315038
-0.316783
-0.314758
-0.315326
-0.315614
-0.315728
-0.315747
-0.315698
-0.315602
-0.315473
-0.315319
-0.31514
-0.31494
-0.314719
-0.314483
-0.314244
-0.314023
-0.313871
-0.313846
-0.313834
-0.313646
-0.315221
-0.316357
-0.316828
-0.317019
-0.317026
-0.316927
-0.316752
-0.316522
-0.316253
-0.31595
-0.315615
-0.315247
-0.314843
-0.314406
-0.313944
-0.313475
-0.313053
-0.312742
-0.312445
-0.311974
-0.313327
-0.318034
-0.318417
-0.318509
-0.318404
-0.318179
-0.317868
-0.317497
-0.317081
-0.316627
-0.316134
-0.315596
-0.315007
-0.314364
-0.313667
-0.312929
-0.312199
-0.311546
-0.310881
-0.310023
-0.311063
-0.319808
-0.320107
-0.320096
-0.31987
-0.31951
-0.319057
-0.318539
-0.317974
-0.317368
-0.316719
-0.316017
-0.31525
-0.314405
-0.313472
-0.312453
-0.311383
-0.310327
-0.309198
-0.307804
-0.308373
-0.3217
-0.321916
-0.321796
-0.321438
-0.320934
-0.32033
-0.319659
-0.318943
-0.318188
-0.317389
-0.316533
-0.3156
-0.314567
-0.313408
-0.312106
-0.310674
-0.30916
-0.307456
-0.305332
-0.305187
-0.323743
-0.323869
-0.323628
-0.323127
-0.322466
-0.321701
-0.320871
-0.32
-0.319096
-0.318154
-0.317154
-0.316071
-0.314866
-0.313498
-0.311924
-0.310123
-0.308108
-0.305732
-0.302664
-0.301471
-0.325973
-0.325997
-0.325619
-0.324959
-0.324125
-0.323185
-0.322185
-0.321153
-0.320099
-0.319014
-0.317878
-0.316655
-0.315296
-0.31374
-0.311913
-0.309754
-0.307228
-0.304128
-0.299951
-0.297312
-0.328433
-0.328333
-0.327797
-0.326957
-0.325932
-0.324801
-0.323617
-0.322413
-0.321199
-0.319969
-0.318697
-0.317341
-0.315841
-0.314116
-0.312064
-0.309571
-0.306544
-0.302702
-0.297292
-0.29272
-0.331168
-0.330916
-0.330196
-0.329151
-0.327913
-0.326571
-0.325186
-0.323794
-0.32241
-0.321026
-0.319616
-0.318134
-0.316515
-0.314665
-0.312456
-0.309726
-0.306288
-0.30171
-0.294832
-0.287612
-0.334229
-0.333789
-0.332853
-0.331576
-0.330099
-0.328523
-0.326917
-0.325321
-0.323753
-0.322207
-0.32066
-0.319073
-0.317388
-0.315529
-0.313396
-0.310854
-0.307718
-0.303458
-0.296568
-0.288312
-0.33767
-0.336996
-0.33581
-0.334269
-0.332526
-0.330693
-0.328845
-0.32703
-0.325264
-0.323549
-0.321868
-0.320195
-0.318499
-0.316757
-0.314962
-0.313162
-0.311497
-0.310218
-0.310362
-0.318222
-0.341547
-0.340588
-0.339109
-0.337273
-0.335236
-0.333122
-0.331016
-0.328964
-0.326991
-0.325098
-0.323279
-0.32152
-0.319817
-0.318184
-0.316675
-0.315418
-0.314656
-0.314783
-0.316653
-0.324211
-0.345915
-0.344612
-0.342799
-0.340635
-0.338276
-0.335861
-0.333478
-0.331178
-0.328986
-0.326908
-0.324941
-0.323085
-0.32135
-0.319773
-0.318433
-0.31747
-0.317108
-0.317655
-0.319551
-0.324714
-0.350831
-0.349121
-0.346928
-0.344402
-0.341696
-0.338961
-0.336287
-0.333728
-0.331305
-0.329027
-0.326892
-0.324904
-0.323079
-0.321458
-0.320115
-0.319162
-0.318753
-0.319061
-0.320287
-0.323128
-0.35635
-0.354163
-0.351545
-0.348625
-0.34555
-0.342476
-0.339498
-0.336664
-0.333993
-0.331488
-0.329144
-0.326963
-0.324956
-0.323156
-0.321615
-0.320407
-0.319613
-0.319304
-0.319564
-0.320401
-0.36252
-0.359787
-0.356698
-0.353356
-0.349889
-0.34646
-0.343161
-0.340032
-0.337082
-0.334305
-0.331687
-0.329222
-0.326914
-0.32478
-0.322852
-0.321169
-0.319769
-0.318665
-0.317899
-0.317192
-0.369387
-0.366036
-0.362434
-0.358643
-0.354765
-0.350962
-0.34732
-0.343863
-0.340584
-0.337464
-0.33448
-0.331615
-0.328864
-0.326236
-0.323751
-0.321429
-0.319286
-0.317323
-0.315563
-0.313672
-0.376986
-0.372948
-0.368794
-0.364531
-0.360222
-0.356023
-0.352003
-0.348165
-0.344484
-0.340924
-0.337453
-0.334048
-0.330705
-0.32743
-0.324242
-0.321162
-0.318205
-0.315377
-0.312696
-0.309887
-0.38534
-0.380549
-0.37581
-0.371057
-0.366295
-0.361667
-0.357217
-0.352922
-0.348736
-0.34461
-0.340508
-0.336412
-0.332325
-0.328265
-0.324262
-0.320345
-0.31654
-0.312865
-0.309337
-0.305766
-0.394457
-0.388855
-0.383505
-0.378242
-0.373
-0.367896
-0.362941
-0.358084
-0.35326
-0.348415
-0.343523
-0.33858
-0.333611
-0.328653
-0.323753
-0.318954
-0.314294
-0.309802
-0.305488
-0.301241
-0.404323
-0.397862
-0.39188
-0.386091
-0.380331
-0.374682
-0.369119
-0.363563
-0.35794
-0.352207
-0.346359
-0.340425
-0.334456
-0.328516
-0.322669
-0.316972
-0.311467
-0.30619
-0.301142
-0.296262
-0.414901
-0.407545
-0.400918
-0.394579
-0.388249
-0.381961
-0.375654
-0.369231
-0.362628
-0.35583
-0.348871
-0.34182
-0.334764
-0.32779
-0.320977
-0.314386
-0.308062
-0.302034
-0.296294
-0.290809
-0.426121
-0.417848
-0.410568
-0.40365
-0.396675
-0.389622
-0.382405
-0.374925
-0.36715
-0.359116
-0.350911
-0.342649
-0.334451
-0.326422
-0.318648
-0.311188
-0.30408
-0.297342
-0.290948
-0.284884
-0.437879
-0.428686
-0.420748
-0.413207
-0.405486
-0.397514
-0.389191
-0.38045
-0.371316
-0.361895
-0.352338
-0.342806
-0.333444
-0.324369
-0.315661
-0.307371
-0.299521
-0.292117
-0.28511
-0.2785
-0.450035
-0.439934
-0.431333
-0.42311
-0.414514
-0.405436
-0.395796
-0.385589
-0.374927
-0.364
-0.353024
-0.342198
-0.331682
-0.321591
-0.311994
-0.302922
-0.294381
-0.286356
-0.278779
-0.271665
-0.462404
-0.451426
-0.442155
-0.433168
-0.42354
-0.413149
-0.401976
-0.390113
-0.377785
-0.365272
-0.352848
-0.340739
-0.329106
-0.31805
-0.307619
-0.297822
-0.288644
-0.280052
-0.27195
-0.26438
-0.474763
-0.462956
-0.453001
-0.443145
-0.432304
-0.420383
-0.407468
-0.39379
-0.379698
-0.365563
-0.351702
-0.338351
-0.32566
-0.313705
-0.302505
-0.292045
-0.282289
-0.273183
-0.264608
-0.256638
-0.486846
-0.474273
-0.463612
-0.452761
-0.44051
-0.426843
-0.412004
-0.396392
-0.380488
-0.364737
-0.349486
-0.334961
-0.321287
-0.308508
-0.296612
-0.285557
-0.275286
-0.265725
-0.256731
-0.248421
-0.498352
-0.485088
-0.473688
-0.461699
-0.447835
-0.432224
-0.415319
-0.397705
-0.379987
-0.36267
-0.346106
-0.330496
-0.315928
-0.302409
-0.289894
-0.278316
-0.267597
-0.257642
-0.248287
-0.239701
-0.508946
-0.495077
-0.482894
-0.469613
-0.453943
-0.436224
-0.417159
-0.397528
-0.378046
-0.359249
-0.341474
-0.324884
-0.309522
-0.295354
-0.282305
-0.270278
-0.259181
-0.248898
-0.239243
-0.23045
-0.518271
-0.503889
-0.490871
-0.476142
-0.458493
-0.438548
-0.417289
-0.395683
-0.374529
-0.35437
-0.335507
-0.318055
-0.302008
-0.287289
-0.273792
-0.261398
-0.249998
-0.239454
-0.229562
-0.220632
-0.52595
-0.511151
-0.497241
-0.480917
-0.461156
-0.438924
-0.415496
-0.392008
-0.369313
-0.347937
-0.328128
-0.309943
-0.293325
-0.278159
-0.264306
-0.25163
-0.240003
-0.22927
-0.219211
-0.210215
-0.531607
-0.516487
-0.501629
-0.483584
-0.461623
-0.437105
-0.411593
-0.386365
-0.362295
-0.339867
-0.319265
-0.300485
-0.283418
-0.267912
-0.253801
-0.24093
-0.22916
-0.218312
-0.208157
-0.199169
-0.534866
-0.519523
-0.503665
-0.483807
-0.459616
-0.432876
-0.405422
-0.378636
-0.353383
-0.330085
-0.308855
-0.289623
-0.272234
-0.256501
-0.242234
-0.229262
-0.217432
-0.206548
-0.196372
-0.187468
-0.535372
-0.5199
-0.503004
-0.481283
-0.454893
-0.426057
-0.396853
-0.368726
-0.342503
-0.318529
-0.296841
-0.277308
-0.259729
-0.243886
-0.229569
-0.216593
-0.204794
-0.193954
-0.183836
-0.175093
-0.532795
-0.517287
-0.499336
-0.475748
-0.447254
-0.416507
-0.385785
-0.35656
-0.329596
-0.30515
-0.28318
-0.2635
-0.245867
-0.230036
-0.215779
-0.2029
-0.191224
-0.180513
-0.170535
-0.162032
-0.526844
-0.511391
-0.492391
-0.466988
-0.436544
-0.404121
-0.372149
-0.342089
-0.31462
-0.28991
-0.26784
-0.24817
-0.230622
-0.214928
-0.200845
-0.188167
-0.176709
-0.166217
-0.156464
-0.14828
-0.517274
-0.501967
-0.481954
-0.45484
-0.422656
-0.388833
-0.355904
-0.325283
-0.297554
-0.27279
-0.250802
-0.2313
-0.213979
-0.19855
-0.184757
-0.172388
-0.161248
-0.151066
-0.141626
-0.13384
-0.503893
-0.488822
-0.467865
-0.439197
-0.405531
-0.370616
-0.337038
-0.306138
-0.278394
-0.253785
-0.23206
-0.212887
-0.195934
-0.180899
-0.167515
-0.155565
-0.144845
-0.135068
-0.126034
-0.118725
-0.48657
-0.471826
-0.450027
-0.420008
-0.385156
-0.34948
-0.315571
-0.284673
-0.257154
-0.232907
-0.211623
-0.192937
-0.176495
-0.161983
-0.14913
-0.137711
-0.127515
-0.118245
-0.109712
-0.10296
-0.465236
-0.450911
-0.428403
-0.397278
-0.361566
-0.325472
-0.29155
-0.260931
-0.233871
-0.210186
-0.189517
-0.171471
-0.155679
-0.14182
-0.129616
-0.118842
-0.10928
-0.100621
-0.092695
-0.0865885
-0.439887
-0.426075
-0.403021
-0.371067
-0.33484
-0.298676
-0.265053
-0.234977
-0.208601
-0.185668
-0.165779
-0.14852
-0.133514
-0.120432
-0.108997
-0.0989822
-0.0901634
-0.0822269
-0.0750198
-0.069655
-0.410584
-0.397382
-0.373969
-0.341488
-0.3051
-0.269208
-0.236184
-0.206905
-0.181422
-0.159418
-0.140462
-0.124129
-0.110034
-0.0978489
-0.0872974
-0.0781521
-0.0701866
-0.0630879
-0.0567195
-0.0521827
-0.377454
-0.364959
-0.341394
-0.308703
-0.272509
-0.237222
-0.20508
-0.176829
-0.152431
-0.131518
-0.113636
-0.0983514
-0.0852824
-0.0741032
-0.0645415
-0.0563721
-0.0493701
-0.0432296
-0.0378179
-0.0341608
-0.340684
-0.328994
-0.305499
-0.272921
-0.237269
-0.2029
-0.171902
-0.144894
-0.121753
-0.102072
-0.0853837
-0.0712542
-0.0593076
-0.0492267
-0.0407482
-0.0336535
-0.0277248
-0.0226667
-0.0183247
-0.0155892
-0.30052
-0.289731
-0.266534
-0.234394
-0.199616
-0.166458
-0.136844
-0.111266
-0.0895329
-0.0712054
-0.0558103
-0.0429196
-0.0321691
-0.0232567
-0.0159343
-0.00999657
-0.00523824
-0.00138102
0.00175254
0.00339533
-0.257258
-0.247466
-0.224799
-0.193411
-0.159821
-0.128142
-0.100124
-0.0761434
-0.0559447
-0.0390682
-0.0250413
-0.0134477
-0.00394144
0.00375699
0.00987188
0.0145922
0.0181062
0.0206349
0.0222888
0.0223794
-0.211244
-0.202536
-0.180629
-0.150295
-0.118184
-0.0882256
-0.0619924
-0.0397488
-0.0211879
-0.00583433
0.00677891
0.0170516
0.0253046
0.0317838
0.0366786
0.0401562
0.0423628
0.0433384
0.0429576
0.0409156
-0.16286
-0.155321
-0.134394
-0.105397
-0.0750294
-0.0470076
-0.022723
-0.00233668
0.0145041
0.0282868
0.0394732
0.0484488
0.0555105
0.0608688
0.0646753
0.0670655
0.0680678
0.0673148
0.0643209
0.0601122
-0.112523
-0.106229
-0.0864907
-0.0590904
-0.0307042
-0.00480874
0.0173837
0.0358077
0.0508566
0.0630291
0.072787
0.0805132
0.0865014
0.0909604
0.0940549
0.0959383
0.0965092
0.0948967
0.090385
0.0858424
-0.0606748
-0.0556903
-0.0373326
-0.0117639
0.014432
0.038036
0.0580109
0.0743781
0.0875639
0.0980749
0.106373
0.112846
0.1178
0.121484
0.124147
0.126072
0.127227
0.126606
0.123951
0.12771
-0.00776488
-0.00414842
0.0126553
0.036186
0.0600123
0.0811858
0.0988372
0.113064
0.124319
0.133107
0.139886
0.145034
0.148858
0.151618
0.153579
0.155009
0.155893
0.155746
0.155489
0.16143
0.0457383
0.0479409
0.0630405
0.084359
0.105669
0.124301
0.139545
0.151564
0.160828
0.16784
0.173044
0.17681
0.179437
0.181184
0.182305
0.183023
0.183318
0.18289
0.182669
0.18747
0.099365
0.100121
0.113392
0.132358
0.15104
0.167048
0.179824
0.189586
0.196813
0.201999
0.20557
0.207881
0.209218
0.209825
0.209937
0.209752
0.209265
0.208247
0.207462
0.21073
0.152649
0.151938
0.163285
0.179794
0.195771
0.209106
0.219379
0.226858
0.232022
0.235351
0.237253
0.23806
0.238041
0.23742
0.236405
0.235166
0.233684
0.231759
0.230092
0.231935
0.20513
0.202948
0.212302
0.226288
0.23952
0.250165
0.25793
0.263122
0.26622
0.267683
0.267899
0.267177
0.265766
0.263869
0.261672
0.259315
0.256766
0.253847
0.251223
0.2517
0.256361
0.252717
0.260043
0.271476
0.28196
0.28993
0.29521
0.29814
0.299191
0.298803
0.29734
0.29509
0.292279
0.28909
0.285687
0.282188
0.278548
0.274617
0.271032
0.270221
0.305911
0.300829
0.30612
0.315008
0.322778
0.328121
0.330968
0.331685
0.330733
0.328532
0.325422
0.321668
0.317477
0.313012
0.308418
0.30379
0.29908
0.294164
0.289645
0.287609
0.353366
0.346886
0.350166
0.356554
0.361678
0.364472
0.364966
0.363544
0.360658
0.356703
0.351999
0.346788
0.341259
0.335556
0.329806
0.324087
0.31835
0.312497
0.307083
0.303888
0.398336
0.390513
0.391835
0.395801
0.39838
0.398734
0.39698
0.393518
0.388785
0.383158
0.376931
0.37033
0.363522
0.356638
0.349786
0.343032
0.336327
0.329594
0.323333
0.319044
0.440454
0.431356
0.430802
0.432458
0.432623
0.430673
0.4268
0.421416
0.414946
0.407744
0.400086
0.392175
0.384165
0.376171
0.368286
0.360562
0.352958
0.345409
0.338355
0.333041
0.479378
0.469089
0.466766
0.466255
0.464167
0.460072
0.454231
0.447064
0.438982
0.43032
0.421334
0.412211
0.403087
0.394065
0.385225
0.376609
0.368178
0.359883
0.352095
0.345831
0.514796
0.503413
0.499453
0.496944
0.492788
0.486731
0.479093
0.470299
0.460746
0.450753
0.440556
0.430327
0.420189
0.410232
0.400524
0.391098
0.381921
0.372953
0.364495
0.357361
0.546426
0.534056
0.528613
0.524301
0.518286
0.510469
0.501222
0.490971
0.480103
0.468919
0.45764
0.446423
0.435379
0.424588
0.414104
0.403958
0.394119
0.384553
0.375496
0.367581
0.574016
0.560778
0.554027
0.548128
0.540482
0.531126
0.520471
0.508948
0.496932
0.484708
0.472484
0.460404
0.448571
0.437052
0.425894
0.41512
0.404707
0.394623
0.38504
0.376441
0.597348
0.583372
0.575504
0.568253
0.559222
0.54856
0.536713
0.524114
0.511125
0.498021
0.484998
0.47219
0.459688
0.447554
0.435827
0.424524
0.413627
0.403107
0.393078
0.383896
0.616238
0.601661
0.592881
0.58453
0.574375
0.562653
0.54984
0.536368
0.522592
0.508776
0.495105
0.481707
0.468665
0.456033
0.443846
0.432115
0.420828
0.409955
0.399564
0.389907
0.630537
0.615504
0.60603
0.596843
0.585834
0.573309
0.559764
0.545631
0.531259
0.516903
0.502742
0.488897
0.475447
0.462439
0.449903
0.437849
0.426267
0.415129
0.404462
0.394444
0.640135
0.624794
0.614853
0.605102
0.593519
0.580455
0.566419
0.551842
0.537069
0.522352
0.507862
0.493717
0.479992
0.466732
0.453962
0.441692
0.429913
0.418595
0.407743
0.397483
0.644954
0.629459
0.619282
0.609249
0.597377
0.584042
0.569759
0.554959
0.539986
0.525086
0.510432
0.496136
0.482273
0.468886
0.455999
0.443621
0.431742
0.420335
0.409389
0.399007
0.644959
0.629463
0.619286
0.609253
0.597381
0.584045
0.569762
0.554962
0.539989
0.525089
0.510434
0.496139
0.482276
0.468889
0.456002
0.443623
0.431744
0.420337
0.409391
0.39901
0.640148
0.624807
0.614865
0.605114
0.59353
0.580465
0.566429
0.551851
0.537078
0.52236
0.507871
0.493726
0.48
0.46674
0.453969
0.441699
0.42992
0.418602
0.40775
0.39749
0.630559
0.615525
0.606051
0.596862
0.585852
0.573326
0.559781
0.545647
0.531274
0.516918
0.502757
0.488911
0.47546
0.462452
0.449915
0.437861
0.426279
0.41514
0.404473
0.394455
0.616268
0.601691
0.59291
0.584558
0.574401
0.562677
0.549864
0.53639
0.522613
0.508796
0.495125
0.481726
0.468683
0.456051
0.443863
0.432132
0.420845
0.409972
0.39958
0.389923
0.597387
0.58341
0.57554
0.568288
0.559255
0.548591
0.536743
0.524142
0.511152
0.498048
0.485023
0.472214
0.459712
0.447577
0.435849
0.424546
0.413648
0.403128
0.393098
0.383915
0.574063
0.560825
0.554072
0.548171
0.540523
0.531164
0.520507
0.508983
0.496965
0.48474
0.472514
0.460434
0.4486
0.43708
0.425921
0.415147
0.404733
0.394649
0.385065
0.376465
0.546482
0.534111
0.528666
0.524351
0.518333
0.510514
0.501264
0.491012
0.480143
0.468957
0.457676
0.446458
0.435413
0.424621
0.414137
0.403989
0.394149
0.384583
0.375525
0.367609
0.514861
0.503476
0.499513
0.497001
0.492842
0.486782
0.479142
0.470346
0.460792
0.450797
0.440598
0.430368
0.420229
0.410271
0.400561
0.391134
0.381956
0.372987
0.364529
0.357394
0.479451
0.469161
0.466835
0.46632
0.464228
0.46013
0.454287
0.447118
0.439033
0.43037
0.421381
0.412256
0.403131
0.394108
0.385267
0.376649
0.368218
0.359922
0.352133
0.345867
0.440535
0.431436
0.430878
0.432531
0.432692
0.430738
0.426863
0.421476
0.415003
0.407799
0.400138
0.392226
0.384215
0.376219
0.368332
0.360608
0.353002
0.345452
0.338397
0.333082
0.398425
0.3906
0.391919
0.395881
0.398455
0.398806
0.397049
0.393583
0.388847
0.383218
0.37699
0.370386
0.363576
0.356691
0.349838
0.343082
0.336376
0.329642
0.32338
0.319089
0.353463
0.346981
0.350258
0.356641
0.36176
0.36455
0.365041
0.363616
0.360726
0.356769
0.352062
0.34685
0.341318
0.335614
0.329861
0.324141
0.318403
0.312549
0.307134
0.303937
0.306015
0.300931
0.306219
0.315102
0.322867
0.328206
0.331049
0.331762
0.330807
0.328603
0.325491
0.321735
0.317541
0.313075
0.308478
0.303849
0.299137
0.29422
0.289699
0.287662
0.256473
0.252827
0.260149
0.271577
0.282056
0.290021
0.295297
0.298223
0.29927
0.298879
0.297414
0.295161
0.292348
0.289157
0.285753
0.282251
0.27861
0.274677
0.271091
0.270279
0.205249
0.203065
0.212415
0.226396
0.239623
0.250262
0.258023
0.263211
0.266305
0.267765
0.267977
0.267254
0.26584
0.263941
0.261741
0.259383
0.256832
0.253911
0.251286
0.251761
0.152775
0.152063
0.163405
0.179908
0.19588
0.20921
0.219478
0.226952
0.232112
0.235438
0.237337
0.238141
0.23812
0.237496
0.236479
0.235238
0.233755
0.231828
0.230159
0.232
0.0994987
0.100252
0.113519
0.132479
0.151155
0.167158
0.179928
0.189686
0.196909
0.202091
0.205659
0.207967
0.209301
0.209906
0.210015
0.209829
0.20934
0.20832
0.207533
0.210799
0.0458787
0.048079
0.0631739
0.0844863
0.10579
0.124416
0.139654
0.151669
0.160929
0.167937
0.173138
0.1769
0.179525
0.18127
0.182388
0.183104
0.183397
0.182968
0.182745
0.187543
-0.00761795
-0.00400379
0.012795
0.0363195
0.0601392
0.0813066
0.0989525
0.113175
0.124425
0.13321
0.139985
0.14513
0.148951
0.151708
0.153667
0.155095
0.155976
0.155828
0.155568
0.161507
-0.0605216
-0.0555394
-0.0371867
-0.0116245
0.0145646
0.0381623
0.0581315
0.0744936
0.0876749
0.0981819
0.106477
0.112946
0.117897
0.121579
0.124239
0.126162
0.127315
0.126692
0.124035
0.127792
-0.112364
-0.106072
-0.0863389
-0.0589453
-0.030566
-0.00467706
0.0175095
0.0359283
0.0509726
0.0631409
0.0728951
0.080618
0.0866031
0.0910595
0.0941516
0.0960328
0.0966018
0.0949875
0.0904748
0.0859316
-0.162695
-0.155159
-0.134237
-0.105246
-0.0748859
-0.0468707
-0.0225922
-0.00221128
0.0146247
0.0284032
0.0395858
0.048558
0.0556167
0.0609723
0.0647764
0.0671645
0.0681648
0.0674102
0.0644152
0.060206
-0.211074
-0.202369
-0.180466
-0.150139
-0.118035
-0.0880838
-0.0618568
-0.0396187
-0.0210627
-0.00571351
0.00689585
0.017165
0.0254149
0.0318915
0.0367837
0.0402591
0.0424638
0.0434377
0.0430555
0.0410127
-0.257083
-0.247293
-0.224631
-0.19325
-0.159668
-0.127996
-0.0999842
-0.0760088
-0.0558152
-0.0389431
-0.0249202
-0.0133301
-0.00382708
0.00386849
0.00998082
0.0146989
0.0182108
0.0207376
0.0223898
0.0224793
-0.30034
-0.289554
-0.266362
-0.234228
-0.199458
-0.166307
-0.136699
-0.111127
-0.0893992
-0.0710762
-0.0556853
-0.0427981
-0.032051
-0.0231415
-0.0158218
-0.00988645
-0.0051303
-0.00127509
0.00185666
0.0034981
-0.3405
-0.328812
-0.305322
-0.272751
-0.237106
-0.202744
-0.171753
-0.144751
-0.121615
-0.101939
-0.0852548
-0.0711291
-0.0591859
-0.049108
-0.0406322
-0.0335401
-0.0276137
-0.0225577
-0.0182176
-0.0154836
-0.377266
-0.364773
-0.341213
-0.308528
-0.272342
-0.237062
-0.204927
-0.176683
-0.15229
-0.131381
-0.113503
-0.0982228
-0.0851573
-0.0739811
-0.0644223
-0.0562555
-0.0492559
-0.0431176
-0.0377079
-0.0340525
-0.410393
-0.397192
-0.373784
-0.341309
-0.304929
-0.269045
-0.236028
-0.206754
-0.181276
-0.159277
-0.140327
-0.123997
-0.109906
-0.0977237
-0.0871752
-0.0780325
-0.0700695
-0.0629731
-0.0566069
-0.0520718
-0.439692
-0.425882
-0.402833
-0.370885
-0.334666
-0.298509
-0.264892
-0.234823
-0.208453
-0.185525
-0.16564
-0.148385
-0.133382
-0.120304
-0.108872
-0.0988597
-0.0900435
-0.0821094
-0.0749045
-0.0695416
-0.465039
-0.450715
-0.428212
-0.397093
-0.361388
-0.325302
-0.291387
-0.260773
-0.233719
-0.21004
-0.189375
-0.171332
-0.155545
-0.141689
-0.129488
-0.118717
-0.109158
-0.100501
-0.0925772
-0.0864727
-0.486371
-0.471628
-0.449833
-0.41982
-0.384975
-0.349307
-0.315404
-0.284513
-0.256999
-0.232758
-0.211478
-0.192796
-0.176358
-0.16185
-0.148999
-0.137583
-0.12739
-0.118122
-0.109592
-0.102842
-0.503692
-0.488622
-0.46767
-0.439007
-0.405348
-0.37044
-0.336869
-0.305975
-0.278236
-0.253633
-0.231912
-0.212743
-0.195795
-0.180762
-0.167382
-0.155435
-0.144717
-0.134943
-0.125911
-0.118604
-0.517071
-0.501766
-0.481756
-0.454648
-0.42247
-0.388654
-0.355732
-0.325117
-0.297394
-0.272635
-0.250651
-0.231154
-0.213836
-0.19841
-0.184621
-0.172255
-0.161118
-0.150938
-0.141501
-0.133717
-0.52664
-0.511189
-0.492192
-0.466794
-0.436356
-0.40394
-0.371975
-0.341921
-0.314458
-0.289752
-0.267687
-0.248021
-0.230477
-0.214786
-0.200707
-0.188032
-0.176577
-0.166087
-0.156337
-0.148155
-0.532591
-0.517085
-0.499136
-0.475553
-0.447064
-0.416324
-0.385609
-0.35639
-0.329431
-0.30499
-0.283025
-0.263348
-0.245719
-0.229892
-0.215639
-0.202763
-0.191089
-0.180381
-0.170405
-0.161905
-0.535168
-0.519697
-0.502804
-0.481087
-0.454702
-0.425873
-0.396675
-0.368553
-0.342336
-0.318367
-0.296683
-0.277154
-0.259579
-0.24374
-0.229426
-0.216453
-0.204657
-0.193819
-0.183704
-0.174963
-0.534662
-0.519321
-0.503465
-0.483611
-0.459425
-0.43269
-0.405242
-0.378462
-0.353215
-0.329921
-0.308695
-0.289467
-0.272082
-0.256352
-0.242089
-0.22912
-0.217293
-0.206411
-0.196238
-0.187336
-0.531404
-0.516286
-0.501429
-0.483388
-0.461431
-0.436918
-0.411412
-0.386189
-0.362125
-0.339701
-0.319104
-0.300327
-0.283264
-0.267761
-0.253654
-0.240786
-0.229018
-0.218173
-0.20802
-0.199035
-0.525748
-0.510951
-0.497043
-0.480721
-0.460964
-0.438737
-0.415314
-0.391831
-0.369141
-0.34777
-0.327965
-0.309784
-0.293169
-0.278006
-0.264157
-0.251483
-0.239859
-0.229129
-0.219072
-0.210079
-0.51807
-0.503689
-0.490673
-0.475947
-0.458301
-0.438361
-0.417106
-0.395505
-0.374355
-0.354201
-0.335342
-0.317894
-0.30185
-0.287135
-0.27364
-0.26125
-0.249851
-0.23931
-0.229421
-0.220493
-0.508747
-0.49488
-0.482698
-0.469419
-0.453752
-0.436037
-0.416976
-0.39735
-0.377871
-0.359079
-0.341307
-0.324721
-0.309362
-0.295198
-0.282151
-0.270128
-0.259033
-0.248753
-0.239099
-0.230309
-0.498154
-0.484893
-0.473493
-0.461507
-0.447645
-0.432037
-0.415135
-0.397525
-0.379812
-0.362499
-0.345937
-0.330331
-0.315767
-0.30225
-0.289739
-0.278163
-0.267446
-0.257494
-0.248141
-0.239558
-0.486651
-0.47408
-0.46342
-0.452571
-0.440321
-0.426656
-0.41182
-0.396212
-0.380311
-0.364564
-0.349316
-0.334795
-0.321124
-0.308347
-0.296454
-0.285401
-0.275133
-0.265574
-0.256582
-0.248274
-0.47457
-0.462765
-0.452811
-0.442956
-0.432117
-0.420198
-0.407285
-0.39361
-0.379521
-0.365389
-0.351531
-0.338184
-0.325495
-0.313542
-0.302345
-0.291888
-0.282134
-0.27303
-0.264458
-0.256489
-0.462214
-0.451237
-0.441968
-0.432981
-0.423354
-0.412965
-0.401794
-0.389934
-0.377608
-0.365097
-0.352676
-0.340569
-0.328939
-0.317886
-0.307457
-0.297662
-0.288486
-0.279896
-0.271797
-0.264229
-0.449847
-0.439747
-0.431148
-0.422925
-0.41433
-0.405254
-0.395616
-0.38541
-0.37475
-0.363825
-0.352851
-0.342027
-0.331513
-0.321425
-0.31183
-0.30276
-0.29422
-0.286198
-0.278622
-0.27151
-0.437694
-0.428502
-0.420565
-0.413026
-0.405305
-0.397334
-0.389012
-0.380272
-0.371139
-0.36172
-0.352165
-0.342634
-0.333274
-0.3242
-0.315494
-0.307206
-0.299358
-0.291955
-0.28495
-0.278342
-0.425938
-0.417667
-0.410388
-0.403471
-0.396496
-0.389444
-0.382227
-0.374748
-0.366974
-0.358941
-0.350737
-0.342476
-0.334279
-0.326251
-0.318479
-0.311021
-0.303914
-0.297177
-0.290785
-0.284723
-0.414721
-0.407366
-0.40074
-0.394402
-0.388073
-0.381785
-0.375478
-0.369056
-0.362453
-0.355655
-0.348696
-0.341646
-0.334591
-0.327617
-0.320805
-0.314215
-0.307893
-0.301866
-0.296127
-0.290643
-0.404146
-0.397686
-0.391705
-0.385916
-0.380157
-0.374509
-0.368946
-0.363389
-0.357766
-0.352033
-0.346185
-0.34025
-0.334281
-0.328342
-0.322495
-0.316798
-0.311295
-0.306018
-0.300971
-0.296092
-0.394282
-0.388681
-0.383331
-0.37807
-0.372829
-0.367724
-0.36277
-0.357912
-0.353087
-0.348242
-0.343348
-0.338405
-0.333435
-0.328477
-0.323576
-0.318777
-0.314118
-0.309626
-0.305313
-0.301067
-0.385167
-0.380377
-0.375639
-0.370887
-0.366125
-0.361497
-0.357047
-0.352752
-0.348565
-0.344437
-0.340333
-0.336236
-0.332147
-0.328086
-0.324082
-0.320165
-0.316359
-0.312685
-0.309157
-0.305588
-0.376814
-0.372777
-0.368624
-0.364363
-0.360055
-0.355856
-0.351835
-0.347997
-0.344314
-0.340753
-0.337279
-0.333872
-0.330526
-0.327249
-0.324059
-0.320978
-0.31802
-0.315192
-0.312511
-0.309703
-0.369217
-0.365867
-0.362266
-0.358477
-0.354599
-0.350797
-0.347155
-0.343696
-0.340416
-0.337294
-0.334307
-0.331438
-0.328684
-0.326053
-0.323565
-0.321241
-0.319097
-0.317133
-0.315373
-0.313483
-0.362351
-0.359619
-0.356532
-0.353191
-0.349725
-0.346296
-0.342998
-0.339867
-0.336916
-0.334135
-0.331514
-0.329045
-0.326733
-0.324594
-0.322663
-0.320977
-0.319574
-0.318469
-0.317703
-0.316997
-0.356181
-0.353996
-0.351379
-0.348461
-0.345387
-0.342313
-0.339335
-0.3365
-0.333827
-0.331319
-0.328971
-0.326785
-0.324773
-0.322968
-0.321423
-0.32021
-0.319413
-0.319101
-0.319361
-0.320199
-0.350663
-0.348954
-0.346763
-0.344238
-0.341534
-0.338799
-0.336125
-0.333564
-0.331139
-0.328857
-0.326718
-0.324724
-0.322894
-0.321267
-0.319918
-0.31896
-0.318547
-0.318852
-0.320077
-0.322919
-0.345747
-0.344446
-0.342634
-0.340471
-0.338114
-0.335699
-0.333316
-0.331015
-0.32882
-0.326738
-0.324766
-0.322904
-0.321163
-0.319579
-0.318232
-0.317263
-0.316895
-0.317438
-0.319331
-0.324496
-0.341378
-0.340421
-0.338945
-0.33711
-0.335074
-0.332961
-0.330853
-0.3288
-0.326823
-0.324926
-0.323102
-0.321337
-0.319627
-0.317986
-0.31647
-0.315205
-0.314436
-0.314558
-0.316424
-0.323983
-0.337501
-0.33683
-0.335645
-0.334106
-0.332364
-0.33053
-0.328682
-0.326864
-0.325096
-0.323376
-0.321689
-0.320009
-0.318306
-0.316555
-0.314752
-0.312943
-0.31127
-0.309983
-0.310122
-0.31798
-0.33406
-0.333622
-0.332689
-0.331413
-0.329937
-0.32836
-0.326753
-0.325155
-0.323583
-0.322032
-0.320479
-0.318884
-0.317191
-0.315324
-0.313181
-0.310629
-0.307483
-0.303214
-0.296313
-0.288048
-0.330999
-0.33075
-0.330033
-0.328989
-0.327751
-0.326408
-0.325021
-0.323626
-0.322238
-0.320848
-0.319431
-0.317942
-0.316315
-0.314456
-0.312238
-0.309498
-0.30605
-0.301462
-0.294574
-0.287345
-0.328264
-0.328168
-0.327635
-0.326795
-0.325771
-0.324639
-0.323452
-0.322245
-0.321026
-0.31979
-0.318511
-0.317147
-0.315639
-0.313905
-0.311843
-0.309341
-0.306304
-0.302453
-0.297035
-0.292455
-0.325807
-0.325835
-0.325459
-0.324799
-0.323965
-0.323024
-0.322021
-0.320985
-0.319925
-0.318835
-0.317692
-0.316461
-0.315093
-0.313528
-0.311692
-0.309523
-0.306988
-0.303879
-0.299695
-0.29705
-0.323581
-0.32371
-0.323471
-0.322971
-0.322309
-0.321542
-0.320708
-0.319833
-0.318924
-0.317975
-0.316969
-0.315877
-0.314664
-0.313287
-0.311704
-0.309893
-0.30787
-0.305485
-0.30241
-0.301212
-0.321542
-0.321761
-0.321642
-0.321285
-0.32078
-0.320174
-0.3195
-0.318779
-0.318019
-0.317213
-0.31635
-0.315409
-0.314367
-0.3132
-0.311889
-0.310448
-0.308925
-0.307214
-0.305083
-0.304932
-0.319655
-0.319958
-0.319948
-0.319722
-0.319361
-0.318905
-0.318384
-0.317814
-0.317203
-0.316548
-0.315838
-0.315063
-0.31421
-0.313269
-0.312241
-0.311163
-0.310099
-0.308961
-0.307561
-0.308123
-0.317889
-0.318274
-0.318368
-0.318262
-0.318035
-0.317723
-0.317348
-0.316928
-0.316468
-0.315968
-0.315423
-0.314827
-0.314176
-0.31347
-0.312725
-0.311986
-0.311325
-0.310653
-0.309788
-0.31082
-0.316219
-0.316693
-0.316885
-0.316892
-0.316791
-0.316613
-0.31638
-0.316106
-0.315798
-0.315457
-0.315082
-0.314671
-0.314226
-0.313756
-0.31328
-0.312849
-0.312531
-0.312226
-0.311747
-0.313093
-0.31463
-0.315199
-0.315488
-0.315601
-0.315619
-0.315568
-0.315468
-0.315335
-0.315175
-0.314991
-0.314784
-0.314556
-0.314314
-0.314067
-0.313838
-0.313678
-0.313646
-0.313626
-0.313431
-0.314998
-0.313112
-0.313788
-0.314173
-0.314385
-0.314512
-0.314579
-0.314604
-0.314603
-0.314583
-0.314548
-0.314501
-0.314446
-0.314391
-0.314348
-0.314339
-0.314411
-0.314614
-0.314817
-0.314836
-0.316572
-0.311667
-0.312457
-0.312937
-0.313243