/*--------------------------------*- C++ -*----------------------------------*\
  =========                 |
  \\      /  F ield         | OpenFOAM: The Open Source CFD Toolbox
   \\    /   O peration     | Website:  https://openfoam.org
    \\  /    A nd           | Version:  6.0
     \\/     M anipulation  |
\*---------------------------------------------------------------------------*/
FoamFile
{
    version     2.0;
    format      ascii;
    class       volVectorField;
    location    "10";
    object      U;
}
// * * * * * * * * * * * * * * * * * * * * * * * * * * * * * * * * * * * * * //

dimensions      [0 1 -1 0 0 0 0];

internalField   nonuniform List<vector> 
12500
(
(-0.000501665 0.00062747 -6.57281e-22)
(-0.00282815 0.00158179 9.06755e-21)
(-0.00724748 0.00229706 -1.31427e-20)
(-0.0128612 0.00283297 6.03104e-21)
(-0.0192115 0.00323117 3.62543e-22)
(-0.0260351 0.00352362 -7.41145e-22)
(-0.0331296 0.00373618 -1.09524e-20)
(-0.04035 0.00388984 6.00734e-21)
(-0.0475991 0.00400167 3.96922e-21)
(-0.0548152 0.00408566 4.02817e-21)
(-0.0619634 0.00415331 -6.82004e-21)
(-0.0690285 0.00421406 3.96409e-21)
(-0.0760108 0.00427563 -1.86713e-21)
(-0.0829213 0.00434427 3.16368e-21)
(-0.0897792 0.00442495 -8.07378e-21)
(-0.0966089 0.00452151 1.16698e-20)
(-0.103438 0.00463677 -2.21695e-21)
(-0.110296 0.0047726 -8.25313e-21)
(-0.117212 0.00493002 4.22821e-21)
(-0.124213 0.00510925 -4.04336e-21)
(-0.131335 0.00530961 3.61908e-21)
(-0.13861 0.00552978 4.79534e-21)
(-0.145978 0.00576901 5.00194e-22)
(-0.153302 0.0060276 -1.37364e-20)
(-0.161166 0.00629577 7.32507e-21)
(-0.000569206 0.00179905 1.19958e-20)
(-0.0029786 0.00454147 -3.09626e-20)
(-0.00742696 0.0066022 9.12563e-21)
(-0.0130346 0.00815198 6.09626e-21)
(-0.019353 0.00930921 -4.85107e-21)
(-0.0261245 0.0101645 -2.75646e-20)
(-0.0331504 0.0107913 8.18306e-21)
(-0.0402883 0.0112491 -1.54601e-20)
(-0.0474427 0.0115865 1.84777e-20)
(-0.054553 0.0118435 -2.46416e-20)
(-0.0615847 0.0120529 1.31565e-20)
(-0.0685233 0.012242 4.25541e-21)
(-0.075369 0.0124333 -1.0704e-20)
(-0.0821331 0.0126449 -4.74279e-21)
(-0.0888348 0.0128916 3.45919e-20)
(-0.0954988 0.0131848 -3.06153e-20)
(-0.102153 0.013533 7.30448e-21)
(-0.108827 0.013942 1.26555e-20)
(-0.11555 0.0144151 -2.91464e-21)
(-0.122351 0.0149531 2.04417e-20)
(-0.129265 0.0155544 3.76245e-21)
(-0.136326 0.0162152 -1.27645e-21)
(-0.143474 0.0169337 -2.58375e-20)
(-0.15057 0.0177111 2.3904e-20)
(-0.1582 0.0185181 -4.5951e-20)
(-0.000701269 0.00293964 3.8488e-20)
(-0.00327343 0.00742899 1.27975e-20)
(-0.00777955 0.0108086 -1.67651e-20)
(-0.013376 0.0133543 7.20152e-21)
(-0.0196328 0.0152578 6.72889e-21)
(-0.0263025 0.0166663 2.55308e-20)
(-0.0331941 0.0176991 -3.2401e-20)
(-0.0401701 0.0184532 -5.26852e-21)
(-0.0471383 0.0190082 -2.16688e-20)
(-0.0540402 0.0194292 -1.80878e-20)
(-0.0608426 0.0197706 2.33317e-20)
(-0.0675316 0.0200771 -7.80662e-20)
(-0.0741079 0.0203858 -2.45784e-21)
(-0.080583 0.0207271 -4.68485e-20)
(-0.0869762 0.0211256 -5.54561e-21)
(-0.0933126 0.0216006 6.62927e-21)
(-0.0996207 0.0221667 -3.63803e-20)
(-0.105931 0.0228341 -2.27784e-20)
(-0.112273 0.0236086 -2.69845e-20)
(-0.118677 0.0244924 4.22578e-20)
(-0.125181 0.025483 1.55388e-20)
(-0.131819 0.0265746 -6.87769e-20)
(-0.138534 0.0277644 -3.32424e-20)
(-0.145179 0.0290552 -3.72986e-20)
(-0.152346 0.0303975 1.01262e-19)
(-0.000894096 0.00403033 -1.17186e-21)
(-0.00370567 0.0101999 -2.95761e-20)
(-0.00829894 0.014855 -1.42321e-20)
(-0.0138819 0.018367 8.79802e-21)
(-0.0200509 0.0209955 5.47718e-20)
(-0.0265737 0.0229408 -2.46905e-20)
(-0.03327 0.0243657 5.26002e-20)
(-0.0400098 0.0254032 5.00772e-20)
(-0.0467057 0.0261621 3.04638e-20)
(-0.0533024 0.0267326 -4.69952e-22)
(-0.0597684 0.0271895 6.13552e-20)
(-0.0660909 0.0275949 1.06191e-20)
(-0.0722713 0.0280006 4.67938e-20)
(-0.0783213 0.0284493 1.07626e-19)
(-0.0842607 0.0289758 -1.24825e-19)
(-0.0901148 0.0296079 1.87712e-19)
(-0.095913 0.0303668 4.09567e-20)
(-0.101687 0.0312675 -9.01293e-20)
(-0.107467 0.0323197 -1.28609e-20)
(-0.113287 0.0335271 3.27798e-20)
(-0.119185 0.0348874 -1.65112e-20)
(-0.1252 0.0363931 -9.95578e-21)
(-0.131277 0.0380411 -9.72005e-21)
(-0.13726 0.0398365 -3.90152e-20)
(-0.14375 0.0417089 1.37551e-19)
(-0.00114239 0.00505445 2.00878e-20)
(-0.00426542 0.0128144 -9.32739e-20)
(-0.00897614 0.0186858 1.13107e-19)
(-0.0145469 0.0231232 -4.50106e-20)
(-0.0206073 0.0264472 5.38623e-20)
(-0.0269442 0.0289063 4.39472e-20)
(-0.0333912 0.0307038 1.66838e-20)
(-0.0398279 0.032006 8.34063e-22)
(-0.0461732 0.03295 9.37787e-20)
(-0.0523759 0.0336493 6.49103e-20)
(-0.0584071 0.0341988 -2.60201e-20)
(-0.0642553 0.0346775 -1.6804e-20)
(-0.0699227 0.0351518 7.05892e-20)
(-0.0754213 0.0356767 1.32739e-20)
(-0.0807714 0.0362978 3.61034e-20)
(-0.0859989 0.0370518 8.6536e-20)
(-0.0911339 0.0379676 -7.47429e-20)
(-0.0962094 0.0390663 6.04124e-20)
(-0.101259 0.0403618 -1.30276e-19)
(-0.106317 0.0418612 1.09631e-19)
(-0.111427 0.043563 7.63248e-22)
(-0.116632 0.0454591 -8.76742e-20)
(-0.121879 0.0475467 3.52373e-20)
(-0.127004 0.0498349 8.03937e-20)
(-0.132616 0.0522311 -1.19546e-19)
(-0.00143969 0.00599834 1.03975e-19)
(-0.00494049 0.0152392 -1.10422e-19)
(-0.00979996 0.0222535 -1.77297e-20)
(-0.0153643 0.0275648 2.24175e-20)
(-0.0213017 0.0315463 -4.83514e-20)
(-0.0274213 0.0344895 -7.53631e-20)
(-0.0335735 0.0366341 -6.26863e-20)
(-0.0396493 0.0381772 -1.51187e-20)
(-0.0455755 0.0392819 -1.07829e-19)
(-0.0513059 0.0400838 8.59165e-20)
(-0.0568146 0.0406967 -1.33417e-19)
(-0.0620922 0.0412161 6.74431e-20)
(-0.0671414 0.0417225 -2.23997e-20)
(-0.0719749 0.0422836 5.19174e-20)
(-0.0766133 0.042956 -1.30593e-19)
(-0.0810831 0.0437864 6.33507e-20)
(-0.0854154 0.0448122 4.74742e-21)
(-0.0896451 0.0460618 2.80961e-20)
(-0.0938082 0.0475555 1.70222e-19)
(-0.0979428 0.0493045 3.79023e-20)
(-0.102096 0.0513103 -3.29411e-21)
(-0.106318 0.0535653 1.0835e-20)
(-0.110562 0.0560683 7.13636e-20)
(-0.114652 0.0588343 2.03871e-20)
(-0.119208 0.0617479 6.77424e-20)
(-0.0017788 0.00685179 -6.47736e-20)
(-0.00571716 0.0174483 9.20054e-20)
(-0.0107576 0.0255196 5.779e-21)
(-0.0163262 0.0316434 -1.1234e-19)
(-0.022133 0.0362365 2.36239e-19)
(-0.0280127 0.0396274 -7.63574e-20)
(-0.0338341 0.042088 1.11477e-19)
(-0.0395017 0.0438428 1.02024e-19)
(-0.0449514 0.0450786 -8.437e-20)
(-0.0501429 0.0459515 -1.22911e-19)
(-0.0550544 0.0465927 3.36293e-20)
(-0.0596782 0.0471134 -3.54706e-20)
(-0.0640184 0.047608 -1.57129e-19)
(-0.0680881 0.0481567 1.91034e-19)
(-0.071908 0.0488277 -9.16922e-20)
(-0.0755051 0.0496782 -6.33106e-20)
(-0.0789118 0.0507554 5.54553e-22)
(-0.0821646 0.052097 5.17823e-20)
(-0.0853028 0.0537311 2.14399e-20)
(-0.0883686 0.0556757 -8.38389e-20)
(-0.091415 0.0579371 9.59824e-20)
(-0.0944997 0.0605105 -1.66981e-19)
(-0.0975842 0.0633981 1.02036e-19)
(-0.100484 0.0666234 -7.85653e-20)
(-0.103828 0.0700482 2.01032e-20)
(-0.00215228 0.00760836 9.44891e-20)
(-0.00658095 0.0194235 -7.26619e-20)
(-0.0118352 0.0284559 -4.62092e-20)
(-0.0174233 0.0353221 -8.15856e-20)
(-0.0230993 0.0404733 -1.49116e-19)
(-0.0287248 0.0442691 -1.10175e-19)
(-0.0341894 0.0470088 6.86968e-20)
(-0.0394124 0.0489412 -1.04076e-19)
(-0.0443402 0.0502739 1.32117e-19)
(-0.0489393 0.0511812 -2.15078e-19)
(-0.0531924 0.0518106 9.55958e-20)
(-0.0570944 0.0522875 2.02071e-19)
(-0.0606505 0.0527196 -2.84039e-19)
(-0.0638742 0.0531994 4.0561e-20)
(-0.0667863 0.0538068 5.29094e-20)
(-0.0694141 0.0546105 5.12505e-20)
(-0.0717908 0.0556688 -5.49016e-20)
(-0.0739548 0.0570303 -1.34221e-20)
(-0.0759488 0.0587334 -4.0388e-20)
(-0.0778199 0.0608058 -3.37959e-20)
(-0.0796278 0.0632617 -1.86041e-19)
(-0.0814406 0.0661016 -1.26624e-20)
(-0.0832307 0.0693347 2.07193e-21)
(-0.0848078 0.0729964 -8.46114e-20)
(-0.0868104 0.0769267 8.7687e-20)
(-0.00255289 0.00826539 2.77069e-21)
(-0.00751744 0.0211552 2.97155e-20)
(-0.0130185 0.0310449 3.09679e-20)
(-0.0186453 0.0385755 1.79262e-20)
(-0.0241967 0.0442246 1.51839e-19)
(-0.0295622 0.0483765 1.42646e-19)
(-0.0346535 0.0513534 -1.1592e-19)
(-0.0394061 0.0534247 -3.5313e-20)
(-0.043778 0.0548159 -3.13599e-20)
(-0.0477439 0.0557174 1.61833e-19)
(-0.0512915 0.0562907 5.81838e-20)
(-0.0544187 0.0566744 -8.46024e-20)
(-0.057132 0.0569879 -7.17485e-20)
(-0.0594453 0.0573357 1.72893e-19)
(-0.0613792 0.0578092 -4.25956e-20)
(-0.0629607 0.0584891 -5.17182e-20)
(-0.0642234 0.0594463 -7.23312e-20)
(-0.0652075 0.0607419 -5.63482e-20)
(-0.0659588 0.0624276 -7.20887e-20)
(-0.0665297 0.0645442 -4.73007e-20)
(-0.0669882 0.0671177 1.96495e-19)
(-0.0674144 0.0701587 -9.68308e-20)
(-0.0677953 0.0736871 6.52776e-20)
(-0.0679395 0.0777556 -1.74354e-19)
(-0.0684981 0.0821848 7.01908e-20)
(-0.00297402 0.00882379 -8.49849e-20)
(-0.00851288 0.0226416 -2.21531e-20)
(-0.0142931 0.0332791 -1.72826e-19)
(-0.019981 0.0413903 -8.28146e-20)
(-0.0254189 0.0474709 -1.634e-19)
(-0.0305254 0.0519248 -1.70443e-20)
(-0.0352349 0.0550925 8.75702e-20)
(-0.0395006 0.0572603 -5.3365e-20)
(-0.0432934 0.0586689 1.15024e-19)
(-0.0465969 0.0595219 -2.79556e-19)
(-0.0494048 0.0599928 -8.16604e-21)
(-0.0517185 0.060231 4.959e-20)
(-0.0535463 0.0603667 -6.29273e-20)
(-0.054902 0.0605148 5.73979e-20)
(-0.0558058 0.0607778 -4.37966e-20)
(-0.0562838 0.0612487 -9.40647e-20)
(-0.0563695 0.0620114 1.71836e-19)
(-0.0561038 0.063142 1.06773e-19)
(-0.0555354 0.064708 -2.1999e-20)
(-0.0547222 0.0667673 7.06957e-20)
(-0.0537408 0.0693632 -1.39454e-19)
(-0.0526859 0.0725218 2.0154e-19)
(-0.0515631 0.0762804 -2.75444e-19)
(-0.0501867 0.0807159 5.67588e-20)
(-0.0492252 0.0856348 -1.08794e-19)
(-0.00341003 0.00928766 4.61694e-21)
(-0.00955479 0.0238879 -7.57582e-20)
(-0.0156449 0.035161 1.11999e-19)
(-0.0214172 0.043764 2.29591e-19)
(-0.0267563 0.0502049 -3.79682e-21)
(-0.0316093 0.0549022 2.59882e-20)
(-0.0359344 0.0582109 -9.82296e-20)
(-0.0397036 0.0604307 4.59576e-20)
(-0.0429017 0.0618142 3.17076e-19)
(-0.0455228 0.0625754 -7.19332e-20)
(-0.0475673 0.0628975 -8.50727e-20)
(-0.049041 0.0629384 3.21482e-19)
(-0.0499539 0.0628366 1.0512e-19)
(-0.0503202 0.0627161 5.01178e-20)
(-0.050159 0.0626892 5.12702e-20)
(-0.0494949 0.0628602 1.39735e-19)
(-0.0483601 0.0633268 -5.38583e-20)
(-0.0467953 0.064181 1.42224e-19)
(-0.0448511 0.0655094 1.92813e-19)
(-0.0425904 0.0673912 -1.64752e-19)
(-0.040099 0.0698927 2.45156e-19)
(-0.0374875 0.0730636 8.7833e-20)
(-0.0347848 0.0769673 -3.33207e-19)
(-0.0318204 0.0817151 4.82503e-19)
(-0.0292884 0.087108 -3.91398e-19)
(-0.00385643 0.00966365 -2.16926e-19)
(-0.0106322 0.0249054 1.18009e-19)
(-0.01706 0.0367009 -7.91839e-20)
(-0.0229394 0.045704 -7.51597e-20)
(-0.0281945 0.0524304 -8.11354e-20)
(-0.032801 0.0573094 -8.79939e-20)
(-0.0367416 0.060707 2.41247e-20)
(-0.0400079 0.0629331 2.29445e-19)
(-0.0426003 0.0642494 -4.91024e-20)
(-0.0445242 0.0648777 -1.28003e-19)
(-0.045788 0.0650075 -7.81986e-20)
(-0.0464027 0.0648028 -3.20164e-20)
(-0.0463807 0.064408 9.47548e-20)
(-0.0457366 0.0639533 -6.05032e-20)
(-0.0444882 0.063559 -1.97794e-19)
(-0.0426581 0.0633391 -2.18515e-19)
(-0.0402756 0.0634042 8.71258e-20)
(-0.03738 0.0638628 -1.62504e-19)
(-0.0340223 0.0648224 1.41351e-19)
(-0.0302691 0.0663879 -3.99291e-19)
(-0.0262153 0.0686557 3.07363e-19)
(-0.0219885 0.0717082 -4.07162e-19)
(-0.0176452 0.0756467 -7.92602e-21)
(-0.0130424 0.0806309 -1.3807e-19)
(-0.00891362 0.0864703 4.04062e-19)
(-0.00430999 0.00996027 3.32884e-19)
(-0.0117358 0.0257099 4.8735e-20)
(-0.0185244 0.0379158 -3.20277e-20)
(-0.02453 0.0472258 -1.34919e-20)
(-0.0297132 0.0541606 2.51028e-19)
(-0.0340782 0.0591576 8.16284e-20)
(-0.0376323 0.0625912 7.40113e-20)
(-0.0403882 0.064779 -5.94914e-20)
(-0.0423628 0.0659887 2.29469e-19)
(-0.0435741 0.0664471 -1.12901e-19)
(-0.0440403 0.0663475 7.27959e-20)
(-0.0437783 0.0658569 1.85299e-19)
(-0.0428038 0.0651224 -1.05198e-19)
(-0.0411324 0.0642776 1.13909e-19)
(-0.0387806 0.0634473 1.07616e-19)
(-0.0357681 0.0627526 3.68748e-20)
(-0.0321208 0.0623147 -9.11314e-20)
(-0.0278744 0.0622576 2.51718e-19)
(-0.0230783 0.0627105 -2.35326e-20)
(-0.0178012 0.0638073 -2.73904e-20)
(-0.0121459 0.0656806 3.02627e-19)
(-0.00625761 0.0684568 -2.15929e-19)
(-0.000224776 0.07229 3.63966e-19)
(0.00605467 0.0774075 -3.02838e-19)
(0.0117863 0.0836478 3.8765e-19)
(-0.00476867 0.0101871 -1.6092e-19)
(-0.0128576 0.0263199 3.55719e-20)
(-0.020024 0.0388271 -3.71324e-20)
(-0.0261684 0.0483508 -1.7547e-19)
(-0.0312853 0.055416 1.02027e-20)
(-0.0354068 0.0604668 9.9819e-20)
(-0.0385657 0.0638842 -4.05995e-19)
(-0.0407964 0.0659912 3.03035e-19)
(-0.0421336 0.0670596 -2.95002e-19)
(-0.0426099 0.0673186 -1.86144e-19)
(-0.0422538 0.0669625 1.66888e-19)
(-0.04109 0.0661581 -3.61385e-19)
(-0.0391386 0.0650523 3.04419e-19)
(-0.0364171 0.0637779 -9.6821e-20)
(-0.032941 0.0624606 -2.76891e-19)
(-0.0287272 0.0612244 6.84856e-20)
(-0.0237971 0.0601972 -6.43358e-20)
(-0.0181817 0.0595153 2.44172e-20)
(-0.0119264 0.0593281 -8.67926e-20)
(-0.00509965 0.0597993 -2.88639e-19)
(0.00218991 0.0611035 6.46203e-20)
(0.00977956 0.0634212 -2.86491e-22)
(0.0175457 0.0669779 -2.99129e-19)
(0.0255344 0.072093 2.10052e-19)
(0.03286 0.0786634 -1.81316e-19)
(-0.00523146 0.0103538 6.51702e-20)
(-0.0139906 0.0267551 1.19805e-19)
(-0.0215435 0.0394586 1.67424e-19)
(-0.0278295 0.049104 8.60683e-20)
(-0.0328749 0.0562219 -8.43717e-20)
(-0.0367393 0.061263 2.01208e-19)
(-0.0394815 0.064614 1.48853e-19)
(-0.0411587 0.066602 -5.42084e-20)
(-0.0418244 0.0675011 1.93506e-19)
(-0.0415269 0.0675408 -1.99046e-19)
(-0.0403069 0.0669142 -5.84315e-20)
(-0.0381981 0.0657853 5.92654e-20)
(-0.0352268 0.0642972 1.17362e-19)
(-0.0314132 0.0625784 1.42849e-21)
(-0.0267736 0.0607506 7.43602e-20)
(-0.0213225 0.0589356 1.37527e-19)
(-0.0150768 0.0572624 -2.34264e-19)
(-0.00806182 0.0558739 2.91382e-19)
(-0.000317362 0.0549348 9.84489e-20)
(0.00809126 0.0546365 3.49808e-20)
(0.0170517 0.0551973 -3.5458e-19)
(0.0263853 0.056861 5.00185e-20)
(0.0359307 0.059943 7.80222e-20)
(0.0456642 0.0648862 -1.90235e-20)
(0.0545681 0.0716859 8.9106e-20)
(-0.00569802 0.0104697 5.04543e-21)
(-0.0151283 0.0270347 -3.08525e-19)
(-0.0230657 0.0398341 -7.69039e-21)
(-0.029483 0.0495115 -7.7696e-20)
(-0.0344364 0.0566058 -5.10148e-19)
(-0.0380134 0.0615755 4.4028e-19)
(-0.0402988 0.0648131 -3.13186e-19)
(-0.0413732 0.0666491 -1.5823e-20)
(-0.0413104 0.0673589 -1.47895e-19)
(-0.0401751 0.0671712 2.55678e-19)
(-0.0380218 0.0662759 -2.75204e-19)
(-0.0348946 0.0648325 -1.28869e-19)
(-0.0308276 0.0629771 2.59072e-21)
(-0.0258462 0.0608306 -2.78991e-19)
(-0.0199687 0.0585064 3.80712e-19)
(-0.0132092 0.056118 -4.41414e-19)
(-0.00558174 0.0537884 8.01885e-22)
(0.00289405 0.0516592 6.761e-20)
(0.0121844 0.0499018 -1.69732e-19)
(0.022229 0.0487282 1.64993e-19)
(0.0329144 0.0483965 -2.33889e-19)
(0.044048 0.049218 -1.54981e-19)
(0.0554305 0.0516148 2.89244e-19)
(0.0669568 0.056189 -3.16098e-19)
(0.0774278 0.0630856 -6.06252e-21)
(-0.00616837 0.010543 -2.61356e-19)
(-0.0162635 0.0271757 2.99526e-19)
(-0.0245705 0.0399757 -9.24195e-20)
(-0.0310921 0.0495983 1.7763e-19)
(-0.0359137 0.0565951 1.91449e-19)
(-0.0391505 0.0614345 -1.68584e-19)
(-0.0409141 0.0645155 -1.1162e-19)
(-0.0413089 0.0661724 -1.33675e-19)
(-0.0404292 0.0666819 1.22377e-19)
(-0.0383573 0.0662711 -8.25344e-21)
(-0.0351624 0.0651262 1.78336e-19)
(-0.0309004 0.0634007 1.75781e-19)
(-0.0256152 0.0612226 -2.10095e-19)
(-0.0193395 0.0587024 4.12498e-19)
(-0.0120965 0.0559411 -2.73716e-19)
(-0.00390305 0.0530391 -4.6925e-20)
(0.00522708 0.0501056 5.33674e-19)
(0.0152768 0.0472712 -2.47171e-19)
(0.026217 0.0447023 1.57825e-19)
(0.0379924 0.0426183 3.08579e-19)
(0.0504901 0.0413061 -2.0026e-19)
(0.0635057 0.041139 2.10651e-20)
(0.0768037 0.0426552 -1.39804e-20)
(0.0901939 0.0466532 -8.27085e-20)
(0.10224 0.0534888 1.54574e-19)
(-0.00664239 0.01058 5.97479e-20)
(-0.0173877 0.0271921 -1.89568e-19)
(-0.0260341 0.039902 1.03597e-19)
(-0.0326129 0.0493865 -1.30809e-21)
(-0.0372388 0.0562149 7.7885e-20)
(-0.0400556 0.0608681 -1.33907e-19)
(-0.0412016 0.0637539 7.65927e-20)
(-0.0408051 0.0652111 2.08562e-19)
(-0.0389813 0.0655179 -6.38978e-21)
(-0.0358302 0.0649005 -1.06434e-19)
(-0.0314361 0.0635418 1.06916e-19)
(-0.0258683 0.0615893 -2.47652e-21)
(-0.0191818 0.0591627 -3.38967e-19)
(-0.0114193 0.0563614 1.2562e-19)
(-0.00261253 0.0532723 2.76922e-20)
(0.00721478 0.0499784 -4.88428e-20)
(0.0180437 0.0465691 -8.7495e-20)
(0.0298543 0.0431543 3.34728e-19)
(0.0426174 0.0398814 8.17158e-20)
(0.056279 0.0369596 -1.75271e-19)
(0.0707262 0.0346841 -2.12344e-20)
(0.0857438 0.0334717 2.4218e-19)
(0.101065 0.0339716 -1.13026e-19)
(0.116421 0.0372092 4.88545e-20)
(0.130084 0.0438171 3.25661e-20)
(-0.00711941 0.0105851 -1.19483e-19)
(-0.0184901 0.0270936 1.18707e-19)
(-0.0274274 0.0396272 -6.67864e-20)
(-0.0339929 0.0488938 -2.14301e-19)
(-0.0383316 0.0554862 -1.97198e-19)
(-0.0406166 0.0599015 -8.70879e-20)
(-0.041013 0.0625579 -7.22061e-20)
(-0.039673 0.0638005 -2.13378e-19)
(-0.0367321 0.0639104 -8.62365e-20)
(-0.0323078 0.0631139 7.86505e-20)
(-0.0264996 0.0615919 -1.12157e-19)
(-0.0193904 0.0594875 -1.18283e-19)
(-0.0110483 0.0569137 -1.11037e-19)
(-0.00152829 0.0539599 2.01815e-19)
(0.00912527 0.0506996 -4.23723e-19)
(0.0208762 0.0471979 2.42245e-19)
(0.033693 0.0435213 -4.14225e-19)
(0.0475445 0.0397514 -6.38826e-20)
(0.062392 0.0360042 -2.27947e-19)
(0.0781746 0.0324581 -5.33175e-20)
(0.0947737 0.0293889 -6.50144e-20)
(0.111962 0.0272227 -2.17689e-19)
(0.129445 0.0266914 -2.40803e-20)
(0.146903 0.0290602 1.33853e-19)
(0.162282 0.0352982 -3.46239e-19)
(-0.00759772 0.0105607 1.02492e-19)
(-0.0195567 0.0268858 1.33892e-19)
(-0.0287157 0.0391604 4.68251e-19)
(-0.0351706 0.048133 -8.21256e-20)
(-0.0390991 0.0544257 1.95413e-19)
(-0.0407044 0.0585555 4.65206e-19)
(-0.0401789 0.0609532 -1.26751e-19)
(-0.0376976 0.0619722 1.71446e-19)
(-0.0334157 0.0618978 9.98997e-20)
(-0.0274673 0.0609586 1.81067e-19)
(-0.0199668 0.0593353 -3.61771e-20)
(-0.0110107 0.0571694 2.45317e-20)
(-0.000681041 0.0545701 -6.34412e-20)
(0.0109522 0.0516207 3.42739e-19)
(0.0238279 0.0483849 4.37963e-20)
(0.0378909 0.044913 3.18041e-19)
(0.0530885 0.0412502 -8.14098e-20)
(0.0693663 0.0374485 2.91272e-19)
(0.0866623 0.0335846 4.10003e-20)
(0.104894 0.0297893 1.48335e-19)
(0.123926 0.0262878 -6.41071e-20)
(0.143508 0.023468 -1.17421e-20)
(0.163326 0.022088 3.53715e-19)
(0.183051 0.0236315 2.18389e-19)
(0.200311 0.0294369 -9.03008e-20)
(-0.00807419 0.0105068 -2.47996e-19)
(-0.020569 0.0265697 -2.50996e-19)
(-0.029857 0.0385054 -2.62162e-19)
(-0.0360743 0.0471119 9.60867e-20)
(-0.0394349 0.0530457 -1.92785e-19)
(-0.0401734 0.0568471 -2.8705e-20)
(-0.0385093 0.0589623 -7.56327e-20)
(-0.03464 0.0597542 -3.13448e-19)
(-0.0287392 0.0595145 -4.89003e-20)
(-0.0209563 0.0584756 8.02881e-20)
(-0.0114195 0.056821 -2.51768e-19)
(-0.000239279 0.0546937 3.49011e-19)
(0.0124879 0.0522033 -4.73739e-19)
(0.0266748 0.0494323 1.14054e-19)
(0.0422395 0.0464406 -2.89957e-19)
(0.0591013 0.0432712 -2.35402e-19)
(0.0771765 0.0399556 -1.34545e-20)
(0.0963742 0.036522 -3.56647e-20)
(0.116592 0.03301 2.80103e-20)
(0.137705 0.0294959 -1.3475e-19)
(0.159538 0.0261309 -9.33173e-20)
(0.181803 0.0232137 1.14879e-19)
(0.204158 0.0214436 -3.1812e-19)
(0.22633 0.0224493 1.03478e-19)
(0.245713 0.0279182 7.35377e-20)
(-0.00854387 0.0104217 -4.39122e-20)
(-0.0215038 0.0261422 -7.27061e-20)
(-0.0308012 0.0376614 2.82991e-19)
(-0.0366215 0.0458337 1.05115e-19)
(-0.0392189 0.0513546 1.3902e-19)
(-0.0388611 0.054791 -1.85612e-19)
(-0.0357951 0.056606 3.97578e-22)
(-0.0302401 0.0571738 -1.49954e-19)
(-0.0223867 0.0567938 2.7712e-19)
(-0.012399 0.0557042 9.04079e-20)
(-0.000418318 0.0540936 1.01391e-19)
(0.0134316 0.0521097 -4.02936e-19)
(0.0290385 0.0498669 4.9694e-19)
(0.046296 0.0474525 -1.49152e-19)
(0.0650976 0.0449308 -1.06752e-19)
(0.0853312 0.042347 3.19894e-19)
(0.106873 0.0397313 1.42912e-19)
(0.129583 0.0371027 -3.61656e-19)
(0.153299 0.0344779 -1.51257e-19)
(0.177832 0.0318888 4.56405e-19)
(0.202937 0.0294091 -3.49032e-19)
(0.22826 0.0272108 2.10047e-19)
(0.253401 0.0258352 1.17634e-19)
(0.2782 0.026921 -1.51336e-19)
(0.300031 0.032413 -1.45026e-19)
(-0.00899961 0.0103016 -1.61403e-19)
(-0.0223319 0.0255966 2.50894e-19)
(-0.0314894 0.0366237 1.06779e-19)
(-0.0367178 0.0442986 -1.54126e-19)
(-0.0383165 0.0493595 -2.46585e-20)
(-0.0365887 0.0524017 -1.61329e-19)
(-0.0318093 0.053907 -6.41856e-20)
(-0.0242187 0.0542616 7.20852e-20)
(-0.0140245 0.0537739 -1.80499e-20)
(-0.00140443 0.0526891 1.358e-19)
(0.013487 0.0512022 -1.17936e-19)
(0.0305119 0.0494681 3.26378e-19)
(0.0495409 0.0476096 -4.0452e-19)
(0.0704461 0.0457237 2.52242e-19)
(0.093093 0.0438859 3.13531e-19)
(0.117333 0.0421545 -4.53305e-19)
(0.142996 0.0405728 -1.38055e-19)
(0.169883 0.0391713 2.32769e-19)
(0.197757 0.0379708 -1.43721e-19)
(0.226339 0.0369909 1.39043e-19)
(0.255283 0.0362586 -3.36987e-19)
(0.284118 0.0358249 5.61299e-20)
(0.31233 0.0360011 2.20028e-19)
(0.339893 0.0382868 -3.54242e-19)
(0.364531 0.0447309 9.52848e-20)
(-0.00943182 0.0101415 -1.49054e-19)
(-0.0230176 0.0249235 4.67367e-19)
(-0.031853 0.0353849 8.96384e-20)
(-0.0362564 0.0425053 -2.42135e-19)
(-0.0365787 0.0470673 1.73405e-19)
(-0.0331611 0.0496963 8.80714e-20)
(-0.0263076 0.0508931 1.40407e-19)
(-0.0162807 0.0510568 -9.15173e-21)
(-0.00330485 0.0505042 -1.46361e-20)
(0.0124272 0.0494882 -3.06271e-20)
(0.0307463 0.0482108 -1.33507e-19)
(0.0514979 0.0468347 -4.5196e-21)
(0.0745329 0.0454921 3.11801e-19)
(0.0996982 0.044292 -5.11512e-19)
(0.126828 0.0433256 3.63926e-19)
(0.155736 0.0426712 7.36747e-20)
(0.186202 0.0423983 1.30337e-19)
(0.217968 0.0425706 -6.7371e-20)
(0.250718 0.0432497 5.97156e-19)
(0.284071 0.0445003 -3.7006e-19)
(0.317541 0.0463861 2.96238e-19)
(0.350464 0.0489436 6.98403e-20)
(0.382065 0.0523613 -2.17397e-19)
(0.412283 0.0580746 1.84287e-19)
(0.439596 0.0679563 2.837e-19)
(-0.00982814 0.00993532 -4.3179e-20)
(-0.0235179 0.0241117 -1.64731e-19)
(-0.0318127 0.0339366 -2.81312e-19)
(-0.0351175 0.0404528 -1.60108e-19)
(-0.0338414 0.0444878 -2.23787e-20)
(-0.0283674 0.0466975 -6.31164e-20)
(-0.0190305 0.0476017 -2.92618e-19)
(-0.00611736 0.0476113 4.85492e-20)
(0.0101282 0.0470516 -3.28466e-19)
(0.0294954 0.0461816 -2.54752e-20)
(0.051796 0.0452092 -3.14821e-19)
(0.0768536 0.0443035 -1.12101e-19)
(0.104493 0.0436039 6.43459e-20)
(0.13453 0.0432289 -3.06253e-19)
(0.166764 0.0432829 2.75853e-21)
(0.20097 0.0438629 -2.63996e-19)
(0.236887 0.0450659 1.02013e-19)
(0.274216 0.0469975 -3.68958e-19)
(0.312599 0.0497835 -6.33226e-20)
(0.351609 0.0535866 -8.62463e-21)
(0.390699 0.058615 -6.24009e-20)
(0.429085 0.0651139 -6.38334e-20)
(0.465705 0.0736037 -3.17123e-20)
(0.499816 0.0860022 -1.27708e-19)
(0.529088 0.103267 -2.72481e-19)
(-0.0101733 0.00967639 7.9171e-20)
(-0.0237825 0.0231495 2.08648e-19)
(-0.0312785 0.0322707 2.50576e-19)
(-0.0331681 0.0381425 -2.00058e-19)
(-0.0299262 0.0416359 3.71195e-19)
(-0.021982 0.0434368 -2.01358e-19)
(-0.00970561 0.0440826 1.09353e-19)
(0.00658858 0.0439948 1.70401e-19)
(0.026632 0.0435053 1.54934e-19)
(0.0501892 0.0428774 7.5328e-20)
(0.077044 0.0423214 1.21686e-19)
(0.106988 0.0420083 7.07461e-20)
(0.139807 0.042079 4.78145e-19)
(0.175277 0.0426532 -3.4749e-19)
(0.21315 0.043837 3.96861e-19)
(0.253157 0.0457306 -1.64938e-19)
(0.295002 0.0484376 3.56238e-19)
(0.338363 0.0520767 -1.67968e-20)
(0.3829 0.0568005 -7.37833e-20)
(0.428263 0.0628228 -1.33024e-20)
(0.474099 0.0704568 2.79861e-19)
(0.520081 0.0802094 -2.72811e-19)
(0.566157 0.0932337 1.92103e-19)
(0.612731 0.11178 2.11044e-19)
(0.654998 0.131881 4.27961e-20)
(-0.0104489 0.00935771 5.47495e-20)
(-0.023753 0.0220256 -2.9811e-19)
(-0.0301493 0.0303813 -1.08238e-19)
(-0.0302621 0.0355803 9.88768e-20)
(-0.0246411 0.0385343 -3.04179e-19)
(-0.0137671 0.039957 -5.99045e-20)
(0.00194871 0.0404016 4.15701e-20)
(0.0221571 0.0402978 1.64166e-19)
(0.046556 0.0399814 -4.15463e-19)
(0.0748733 0.0397159 3.15813e-20)
(0.106851 0.03971 -1.21405e-19)
(0.14223 0.0401294 -3.6889e-19)
(0.180742 0.0411075 2.51323e-19)
(0.222096 0.042753 1.0759e-20)
(0.265981 0.0451568 -7.54766e-21)
(0.312058 0.0483984 2.53434e-19)
(0.359974 0.0525532 -4.48052e-19)
(0.409361 0.0576994 3.54788e-19)
(0.45986 0.0639281 -6.57134e-20)
(0.511141 0.0713528 2.06365e-19)
(0.562936 0.0801165 -3.39884e-19)
(0.615081 0.0904151 1.94211e-19)
(0.66773 0.102709 -3.46677e-19)
(0.721508 0.117844 3.55162e-19)
(0.771072 0.131487 -1.11515e-19)
(-0.0106332 0.00897247 3.67203e-19)
(-0.0233633 0.02073 -5.97396e-20)
(-0.028313 0.0282662 4.40682e-19)
(-0.0262414 0.0327791 2.03928e-19)
(-0.0177822 0.0352157 1.63908e-20)
(-0.00347564 0.036315 8.89294e-20)
(0.0162174 0.0366425 2.14813e-20)
(0.0409021 0.0366332 3.6201e-19)
(0.0702288 0.0366224 1.16558e-19)
(0.103872 0.0368696 -1.5637e-20)
(0.141509 0.0375744 3.12958e-20)
(0.182809 0.0388899 1.20477e-19)
(0.227417 0.040931 1.00545e-19)
(0.274953 0.0437824 2.15127e-19)
(0.325007 0.0475039 -2.45094e-19)
(0.377142 0.0521354 7.40071e-20)
(0.43091 0.0577013 2.2538e-20)
(0.485859 0.0642142 1.09492e-19)
(0.541555 0.0716773 2.96214e-19)
(0.597604 0.0800844 -1.93615e-19)
(0.653678 0.0894115 1.61006e-20)
(0.709535 0.0996061 -2.71768e-19)
(0.765108 0.110686 2.55951e-19)
(0.820638 0.12305 -2.45881e-19)
(0.871382 0.134205 2.47685e-20)
(-0.0107013 0.0085147 -3.06195e-19)
(-0.0225392 0.0192563 2.34032e-19)
(-0.0256478 0.0259292 -3.80716e-19)
(-0.0209375 0.0297601 3.28115e-20)
(-0.00913706 0.0317249 2.67661e-19)
(0.00914328 0.0325831 -4.45673e-19)
(0.033381 0.0329086 3.53394e-19)
(0.0631198 0.0331365 -5.60461e-19)
(0.0979428 0.0335968 1.11653e-19)
(0.137446 0.0345378 2.38663e-20)
(0.181217 0.0361426 1.88202e-19)
(0.228818 0.0385411 -6.25194e-19)
(0.27978 0.0418188 1.07944e-19)
(0.333595 0.0460232 1.14321e-19)
(0.389725 0.0511692 -6.85304e-20)
(0.447606 0.0572436 -4.24882e-19)
(0.506664 0.0642083 2.0012e-19)
(0.566336 0.072003 3.73867e-19)
(0.626085 0.080546 -3.93971e-19)
(0.685421 0.0897322 2.8538e-19)
(0.743924 0.0994257 -3.68788e-19)
(0.801242 0.109445 2.67648e-19)
(0.85712 0.119622 -7.35062e-20)
(0.911528 0.130222 4.19727e-19)
(0.960796 0.140304 -4.76146e-19)
(-0.0106249 0.0079797 4.375e-20)
(-0.0211996 0.0176019 3.45237e-20)
(-0.0220226 0.0233814 8.44436e-20)
(-0.0141735 0.026556 3.01525e-19)
(0.00151111 0.0281211 -9.46115e-21)
(0.0243379 0.0288514 6.73168e-20)
(0.0537056 0.0293229 2.99648e-19)
(0.0890749 0.0299648 1.20891e-19)
(0.129935 0.0310944 -3.9824e-20)
(0.175773 0.0329402 3.38941e-19)
(0.22605 0.0356582 -3.85912e-19)
(0.28019 0.0393438 5.92034e-19)
(0.33757 0.0440399 -2.34885e-19)
(0.397525 0.0497443 4.26207e-19)
(0.45936 0.056415 -1.43907e-19)
(0.522363 0.0639762 5.2473e-20)
(0.585825 0.0723224 6.35571e-20)
(0.649065 0.0813229 -1.22499e-19)
(0.711449 0.0908242 1.02663e-19)
(0.772409 0.100651 6.59585e-20)
(0.831461 0.110604 9.07125e-20)
(0.888198 0.120453 1.91372e-19)
(0.942294 0.12997 -1.68482e-20)
(0.993618 0.139339 -8.73379e-20)
(1.0397 0.14875 2.59299e-19)
(-0.0103729 0.00736456 -2.55864e-19)
(-0.0192569 0.0157702 2.70518e-20)
(-0.0172998 0.0206435 -4.86043e-19)
(-0.00576827 0.0232119 -1.16022e-19)
(0.0143783 0.0244796 -2.17232e-19)
(0.0423455 0.0252281 -4.65543e-20)
(0.0774307 0.0260283 -2.32533e-19)
(0.118983 0.0272947 -1.38966e-19)
(0.166365 0.0293218 1.83982e-19)
(0.218917 0.0323072 -3.07041e-19)
(0.275935 0.0363668 -8.52812e-20)
(0.336665 0.0415475 3.37218e-21)
(0.400297 0.0478358 -5.76401e-19)
(0.465985 0.0551668 2.45006e-19)
(0.532859 0.0634318 -3.57593e-19)
(0.600057 0.0724862 -1.11274e-20)
(0.666743 0.0821575 7.0397e-20)
(0.732145 0.0922523 -1.14399e-19)
(0.795566 0.102562 -1.00205e-19)
(0.856413 0.112869 4.97852e-20)
(0.914198 0.122949 5.55198e-20)
(0.968543 0.132569 -3.5977e-19)
(1.01916 0.141506 2.04956e-19)
(1.06594 0.149892 1.02471e-19)
(1.10747 0.158638 2.73068e-20)
(-0.00991147 0.00666869 2.61661e-19)
(-0.0166182 0.0137715 -2.79052e-19)
(-0.011337 0.0177473 3.91393e-19)
(0.00446029 0.0197883 6.09648e-20)
(0.0296727 0.0208931 -1.86622e-20)
(0.0633824 0.021841 -1.31459e-19)
(0.104756 0.0231868 1.97612e-20)
(0.152996 0.0253189 1.99934e-19)
(0.207296 0.0284961 -2.75795e-19)
(0.266808 0.0328701 2.89665e-19)
(0.330623 0.0385013 -3.05991e-20)
(0.39777 0.0453718 1.34731e-20)
(0.46723 0.0533973 3.76678e-19)
(0.537958 0.0624381 5.04732e-19)
(0.608917 0.0723112 -1.97489e-19)
(0.679108 0.0828019 3.50575e-19)
(0.747609 0.0936753 1.77894e-19)
(0.813601 0.104688 -1.08855e-19)
(0.87639 0.115596 3.44307e-19)
(0.935424 0.126164 -1.34606e-20)
(0.990295 0.136171 -3.30195e-19)
(1.04073 0.145413 3.47792e-19)
(1.08657 0.153704 4.9651e-20)
(1.12783 0.161151 -2.14598e-19)
(1.1639 0.169064 6.72398e-20)
(-0.00920439 0.00589439 -3.63926e-19)
(-0.0131871 0.0116245 3.80363e-19)
(-0.00399024 0.0147375 -2.41291e-19)
(0.0166895 0.0163616 -7.52382e-20)
(0.0475875 0.0174734 -1.68552e-19)
(0.0876332 0.0188368 2.98067e-19)
(0.135826 0.0209773 -1.73019e-19)
(0.191179 0.0242418 -7.9308e-20)
(0.252672 0.0288368 -2.27003e-19)
(0.319222 0.0348498 5.8521e-21)
(0.389674 0.0422671 -8.88063e-20)
(0.462816 0.050989 4.32392e-20)
(0.537405 0.0608461 -4.5506e-19)
(0.612205 0.0716147 1.29656e-19)
(0.686035 0.0830343 -1.56479e-19)
(0.757807 0.0948236 -1.26057e-19)
(0.826567 0.106697 3.88044e-20)
(0.891523 0.118377 -1.83834e-19)
(0.95206 0.129608 -7.88476e-20)
(1.00775 0.140162 2.27197e-19)
(1.05833 0.149846 9.60749e-20)
(1.1037 0.158502 -4.08284e-19)
(1.1439 0.166004 2.99887e-19)
(1.17912 0.172466 -5.66277e-20)
(1.20931 0.179334 -1.16802e-19)
(-0.0082136 0.00504731 -1.32548e-19)
(-0.00886505 0.00935707 -7.09067e-20)
(0.00488248 0.011673 -1.41296e-20)
(0.0310866 0.013026 1.03811e-19)
(0.0682917 0.0143509 1.12867e-19)
(0.115239 0.0163802 9.82469e-20)
(0.170716 0.0195923 1.22241e-19)
(0.233498 0.0242736 1.86556e-19)
(0.302302 0.0305569 2.85149e-19)
(0.375765 0.0384444 2.82097e-19)
(0.452457 0.047828 1.48958e-19)
(0.53091 0.0585096 -4.00088e-20)
(0.609663 0.0702227 9.99017e-21)
(0.687323 0.0826555 -1.35673e-20)
(0.762613 0.0954731 1.17893e-19)
(0.834425 0.108339 -3.14062e-20)
(0.901854 0.120934 3.49309e-19)
(0.964215 0.13297 -1.56511e-19)
(1.02105 0.144204 2.42821e-21)
(1.07213 0.154438 1.1022e-19)
(1.1174 0.163529 -2.40572e-19)
(1.15698 0.171381 4.00104e-19)
(1.19111 0.177935 -3.24075e-19)