/*--------------------------------*- C++ -*----------------------------------*\
  =========                 |
  \\      /  F ield         | OpenFOAM: The Open Source CFD Toolbox
   \\    /   O peration     | Website:  https://openfoam.org
    \\  /    A nd           | Version:  6.0
     \\/     M anipulation  |
\*---------------------------------------------------------------------------*/
FoamFile
{
    version     2.0;
    format      ascii;
    class       volScalarField;
    location    "95";
    object      p;
}
// * * * * * * * * * * * * * * * * * * * * * * * * * * * * * * * * * * * * * //

dimensions      [0 2 -2 0 0 0 0];

internalField   nonuniform List<scalar> 
4000
(
-0.790824
-0.774399
-0.756997
-0.73443
-0.70593
-0.673326
-0.638805
-0.604199
-0.570789
-0.539306
-0.510059
-0.483094
-0.458305
-0.435522
-0.414552
-0.395207
-0.377319
-0.360689
-0.345066
-0.330806
-0.795178
-0.778396
-0.759667
-0.734787
-0.703505
-0.668197
-0.631383
-0.595009
-0.560324
-0.527964
-0.498141
-0.470813
-0.445814
-0.422929
-0.401936
-0.382627
-0.364818
-0.348288
-0.332775
-0.318739
-0.796629
-0.779568
-0.759459
-0.732211
-0.698201
-0.660357
-0.621487
-0.583601
-0.547882
-0.514857
-0.484635
-0.457094
-0.432011
-0.409133
-0.38821
-0.36902
-0.351365
-0.335001
-0.319661
-0.305913
-0.794828
-0.777568
-0.756045
-0.726431
-0.689814
-0.649658
-0.609009
-0.56989
-0.533388
-0.499915
-0.469477
-0.441876
-0.416839
-0.39408
-0.373327
-0.354345
-0.336924
-0.320798
-0.305699
-0.292307
-0.789462
-0.77208
-0.74914
-0.717219
-0.67818
-0.635988
-0.593867
-0.553808
-0.516783
-0.483082
-0.452611
-0.425106
-0.40025
-0.377727
-0.357249
-0.338569
-0.321466
-0.305653
-0.290869
-0.277906
-0.780257
-0.762834
-0.738509
-0.704398
-0.663178
-0.619268
-0.576005
-0.535311
-0.498026
-0.464317
-0.434
-0.40675
-0.382212
-0.360047
-0.339953
-0.321673
-0.304977
-0.289558
-0.275166
-0.262706
-0.76699
-0.749609
-0.723965
-0.687839
-0.644732
-0.599452
-0.555394
-0.514374
-0.477092
-0.443596
-0.413619
-0.386784
-0.362704
-0.341022
-0.321424
-0.303647
-0.28745
-0.27251
-0.258592
-0.24671
-0.749494
-0.732241
-0.705383
-0.667468
-0.622809
-0.576533
-0.532032
-0.490995
-0.453976
-0.420911
-0.391459
-0.3652
-0.34172
-0.320647
-0.30166
-0.284491
-0.268891
-0.254518
-0.241161
-0.229932
-0.72766
-0.710627
-0.682695
-0.643263
-0.597418
-0.550533
-0.505945
-0.465194
-0.428692
-0.396271
-0.367527
-0.342002
-0.319264
-0.298929
-0.280671
-0.264218
-0.249313
-0.235601
-0.222895
-0.212395
-0.701443
-0.684726
-0.655896
-0.615256
-0.568615
-0.52151
-0.477184
-0.437014
-0.401274
-0.369703
-0.341843
-0.317209
-0.295353
-0.275885
-0.258474
-0.242848
-0.228742
-0.21579
-0.20383
-0.194136
-0.670861
-0.654561
-0.625038
-0.583528
-0.536491
-0.489555
-0.445829
-0.406521
-0.371776
-0.34125
-0.314445
-0.290852
-0.270015
-0.251539
-0.235094
-0.220407
-0.207207
-0.19512
-0.184011
-0.175211
-0.635994
-0.62022
-0.590232
-0.54821
-0.501181
-0.454791
-0.411985
-0.373804
-0.34027
-0.310974
-0.285382
-0.262973
-0.243285
-0.225924
-0.210561
-0.196925
-0.18474
-0.173629
-0.163485
-0.155676
-0.596988
-0.58185
-0.551645
-0.50948
-0.462855
-0.417372
-0.375787
-0.338975
-0.306853
-0.278955
-0.254721
-0.233626
-0.215208
-0.199076
-0.184906
-0.172429
-0.161368
-0.151349
-0.142294
-0.13556
-0.554047
-0.539656
-0.509497
-0.467557
-0.421721
-0.377482
-0.337393
-0.302172
-0.271641
-0.245287
-0.222541
-0.202874
-0.185832
-0.171032
-0.158157
-0.146942
-0.137113
-0.128308
-0.12046
-0.114846
-0.507431
-0.493901
-0.464053
-0.422704
-0.37802
-0.335336
-0.296993
-0.263558
-0.234771
-0.21009
-0.188936
-0.170791
-0.155211
-0.141826
-0.130332
-0.120473
-0.111984
-0.104518
-0.0979878
-0.0935229
-0.457451
-0.444893
-0.415624
-0.375217
-0.332025
-0.291178
-0.254801
-0.22332
-0.19641
-0.173503
-0.154024
-0.137469
-0.123411
-0.1115
-0.10145
-0.0930228
-0.0859673
-0.0799583
-0.0748858
-0.0717496
-0.404466
-0.392987
-0.364558
-0.325427
-0.284037
-0.245279
-0.211059
-0.181675
-0.156745
-0.135689
-0.117942
-0.103016
-0.0905113
-0.0801058
-0.0715422
-0.0646001
-0.0590488
-0.0546314
-0.0513171
-0.0500266
-0.348872
-0.338573
-0.311236
-0.273691
-0.234385
-0.197936
-0.166036
-0.138866
-0.115995
-0.0968375
-0.080843
-0.067548
-0.0565838
-0.0476696
-0.0405892
-0.0351462
-0.0311605
-0.0285877
-0.027663
-0.0288802
-0.291101
-0.282075
-0.256066
-0.220391
-0.183419
-0.149472
-0.12003
-0.0951666
-0.0744112
-0.0571752
-0.0429194
-0.031201
-0.0216818
-0.0141235
-0.00835283
-0.00420881
-0.0016513
-0.00110803
-0.00320935
-0.0069433
-0.231607
-0.223938
-0.199476
-0.165926
-0.131507
-0.100228
-0.073361
-0.0508842
-0.0322925
-0.0169928
-0.00445111
0.00576912
0.0140002
0.0204779
0.0253917
0.0289236
0.0309577
0.0304827
0.0266428
0.0225957
-0.170866
-0.164625
-0.141906
-0.110707
-0.0790289
-0.0505557
-0.0263646
-0.0063459
0.0100319
0.0233633
0.0341782
0.0429141
0.0499178
0.0554687
0.0598538
0.0633982
0.0660515
0.0666252
0.0648074
0.0702722
-0.109355
-0.104603
-0.0838004
-0.0551456
-0.0263654
-0.000812148
0.0206217
0.0381209
0.052235
0.0635529
0.0725928
0.0797816
0.0854627
0.0899275
0.0934793
0.0964205
0.0987156
0.0997861
0.100674
0.108604
-0.0475628
-0.0443486
-0.0256083
0.000344485
0.0261044
0.0486518
0.0672674
0.0821996
0.0940087
0.103273
0.110495
0.116088
0.120389
0.123684
0.12626
0.128367
0.129966
0.130688
0.131584
0.138201
0.0140252
0.0156686
0.0322293
0.0553584
0.0780105
0.0974955
0.113254
0.125589
0.135062
0.142235
0.14759
0.15152
0.154344
0.156336
0.157756
0.158829
0.159534
0.159587
0.159844
0.164715
0.0749317
0.0749859
0.0892803
0.109502
0.128995
0.145392
0.158283
0.168012
0.175138
0.180202
0.183661
0.185886
0.187173
0.18777
0.187912
0.187786
0.18736
0.186385
0.185648
0.188918
0.134691
0.133153
0.145126
0.162396
0.178715
0.192032
0.20207
0.209209
0.213999
0.216957
0.218515
0.219016
0.218733
0.217893
0.2167
0.215314
0.213686
0.211592
0.209782
0.211522
0.192854
0.189737
0.199366
0.213676
0.226845
0.237121
0.244351
0.248942
0.251431
0.252311
0.251986
0.250771
0.248918
0.246628
0.244083
0.241412
0.238558
0.23533
0.232449
0.232751
0.248989
0.244322
0.251616
0.262999
0.273075
0.280382
0.284877
0.286987
0.287236
0.286089
0.283923
0.281028
0.277632
0.273916
0.270038
0.266105
0.262053
0.257726
0.253804
0.252743
0.302688
0.296516
0.301515
0.310039
0.317116
0.321556
0.323415
0.323138
0.321229
0.318129
0.314186
0.309669
0.304782
0.299686
0.294519
0.289369
0.284172
0.2788
0.273885
0.271536
0.353566
0.345948
0.348722
0.35449
0.358694
0.360398
0.359748
0.357198
0.353236
0.348276
0.342643
0.33658
0.330272
0.323863
0.317471
0.311168
0.304893
0.298542
0.292689
0.289125
0.401262
0.392275
0.392923
0.39607
0.397557
0.396682
0.393672
0.388986
0.383094
0.376388
0.369165
0.36165
0.354008
0.346366
0.338825
0.331445
0.324169
0.316912
0.310181
0.305479
0.445445
0.435178
0.433825
0.434517
0.433471
0.4302
0.424998
0.418332
0.410652
0.402327
0.393631
0.384771
0.375894
0.367111
0.35851
0.350137
0.341942
0.333857
0.326314
0.320555
0.485813
0.474368
0.471164
0.469593
0.466222
0.460758
0.453555
0.44508
0.435768
0.425965
0.415927
0.40584
0.395837
0.386015
0.376449
0.367176
0.358151
0.349317
0.341032
0.334304
0.522094
0.509586
0.504703
0.501085
0.49562
0.488185
0.479185
0.469089
0.458314
0.447187
0.435945
0.42476
0.413749
0.402998
0.39257
0.382493
0.372729
0.36323
0.354278
0.346677
0.554046
0.540602
0.53423
0.528804
0.521494
0.512327
0.50175
0.490231
0.478174
0.465886
0.45359
0.441442
0.429549
0.417985
0.406802
0.396023
0.385616
0.375537
0.365999
0.357625
0.581463
0.567218
0.559565
0.552587
0.543699
0.533052
0.52113
0.508398
0.495247
0.48197
0.468776
0.455808
0.443164
0.430908
0.419084
0.407708
0.396755
0.386184
0.376144
0.367106
0.604172
0.589271
0.580558
0.572298
0.562111
0.550248
0.537221
0.523495
0.509447
0.49536
0.48143
0.467791
0.454532
0.44171
0.42936
0.417496
0.406096
0.395124
0.384672
0.375084
0.622035
0.606628
0.597089
0.58783
0.576633
0.563827
0.549945
0.535448
0.520707
0.505994
0.491494
0.477337
0.463602
0.450342
0.437586
0.425344
0.413601
0.402319
0.391545
0.381528
0.634951
0.619192
0.609068
0.599102
0.587192
0.573722
0.559239
0.544202
0.528975
0.513822
0.498925
0.484403
0.470336
0.456769
0.443728
0.431222
0.419237
0.407738
0.396739
0.386416
0.642853
0.626902
0.61644
0.606064
0.593743
0.579892
0.565066
0.549721
0.534218
0.518816
0.503692
0.488965
0.474708
0.460967
0.447764
0.435107
0.422985
0.411362
0.400235
0.389733
0.645714
0.629731
0.619179
0.608692
0.596264
0.582319
0.567408
0.55199
0.536422
0.520961
0.505784
0.491009
0.476708
0.462925
0.449684
0.436991
0.424834
0.413183
0.402026
0.391472
0.643542
0.627687
0.617293
0.606995
0.594764
0.581007
0.566271
0.551013
0.535589
0.520261
0.505204
0.490538
0.476337
0.462646
0.449489
0.436873
0.424787
0.413201
0.402112
0.391634
0.636382
0.620814
0.610823
0.601008
0.589274
0.575987
0.561682
0.546814
0.531745
0.516736
0.501971
0.48757
0.473613
0.460145
0.447194
0.434769
0.422856
0.411429
0.400504
0.390228
0.624318
0.60919
0.599841
0.590797
0.579853
0.567312
0.55369
0.53944
0.524928
0.510426
0.49612
0.482139
0.468565
0.45545
0.442825
0.430702
0.419064
0.407887
0.397221
0.387271
0.607467
0.592928
0.584451
0.576456
0.566587
0.55506
0.542365
0.528954
0.515201
0.501385
0.487703
0.47429
0.461237
0.448602
0.43642
0.424708
0.413445
0.402608
0.392292
0.382788
0.585985
0.572178
0.564789
0.558107
0.549586
0.539332
0.5278
0.515441
0.502638
0.489683
0.476784
0.464086
0.451686
0.439653
0.428028
0.416832
0.406042
0.395632
0.385755
0.37681
0.56006
0.547118
0.541019
0.5359
0.528985
0.520249
0.510105
0.499002
0.487335
0.475408
0.463443
0.451598
0.43998
0.428666
0.417708
0.407131
0.396908
0.387011
0.377655
0.369377
0.529915
0.517962
0.513339
0.510011
0.504942
0.497954
0.489411
0.479757
0.469399
0.458659
0.447773
0.436911
0.426196
0.415713
0.405527
0.395667
0.386102
0.376801
0.368044
0.360535
0.495806
0.484955
0.481971
0.480642
0.47764
0.472614
0.465868
0.457842
0.448956
0.439549
0.429876
0.420122
0.410423
0.400877
0.391559
0.382509
0.37369
0.365064
0.35698
0.350332
0.458019
0.44837
0.447167
0.448018
0.447281
0.44441
0.439641
0.433407
0.426142
0.418204
0.409867
0.401334
0.392754
0.384241
0.375884
0.367731
0.359741
0.351866
0.344523
0.338823
0.41687
0.408509
0.409205
0.412391
0.41409
0.413544
0.410913
0.406618
0.401107
0.394759
0.387867
0.380656
0.37329
0.365898
0.358584
0.351407
0.344325
0.337272
0.330731
0.32606
0.372703
0.365703
0.368389
0.374032
0.378311
0.380236
0.379881
0.377652
0.374011
0.369357
0.364007
0.358205
0.352133
0.345938
0.339738
0.333609
0.327504
0.321341
0.315661
0.31209
0.325887
0.320307
0.325043
0.333235
0.340206
0.344721
0.346756
0.3467
0.345024
0.342151
0.338422
0.334099
0.329388
0.324449
0.319423
0.3144
0.309334
0.304122
0.299352
0.296953
0.276817
0.272699
0.279519
0.290314
0.300057
0.30725
0.311764
0.313962
0.314327
0.313302
0.311252
0.308462
0.305157
0.301518
0.297704
0.293829
0.28985
0.285637
0.28182
0.280661
0.225907
0.223278
0.232184
0.245601
0.25816
0.26809
0.275145
0.279655
0.282112
0.282979
0.282645
0.281418
0.279544
0.277224
0.274642
0.271932
0.269064
0.26588
0.263044
0.263192
0.173592
0.172464
0.183426
0.199448
0.21483
0.227523
0.237149
0.244004
0.24858
0.251361
0.252757
0.253098
0.252652
0.251642
0.250271
0.248706
0.246927
0.244758
0.242902
0.244437
0.120322
0.120693
0.133651
0.152219
0.170396
0.185844
0.198046
0.207251
0.21395
0.218641
0.221756
0.223647
0.224598
0.224854
0.224645
0.224165
0.223408
0.222168
0.221216
0.2242
0.0665597
0.0684112
0.0832748
0.104295
0.125201
0.143364
0.158117
0.169653
0.178456
0.185035
0.189838
0.193235
0.195524
0.196963
0.197802
0.19826
0.198315
0.197691
0.197331
0.201877
0.0127757
0.0160765
0.032727
0.0560676
0.0795995
0.100406
0.117659
0.131484
0.142351
0.150775
0.157215
0.162051
0.16559
0.16809
0.169816
0.171031
0.171713
0.171404
0.171041
0.176747
-0.0405554
-0.0358501
-0.0175584
0.00793616
0.0339572
0.0573053
0.0769814
0.0930365
0.105916
0.116136
0.124164
0.130387
0.135113
0.138591
0.14107
0.142826
0.143819
0.143057
0.140329
0.143946
-0.09296
-0.0869076
-0.0671449
-0.039696
-0.0113563
0.0144034
0.0364053
0.0546144
0.0694446
0.0814058
0.0909659
0.0985103
0.104334
0.108647
0.111615
0.113393
0.113874
0.112179
0.107623
0.103218
-0.143981
-0.136647
-0.115603
-0.0864283
-0.0559712
-0.0279564
-0.00374601
0.0165297
0.0332456
0.0469024
0.0579692
0.0668354
0.0738003
0.0790762
0.0828176
0.0851641
0.0861422
0.0853707
0.0823623
0.0782371
-0.193168
-0.184629
-0.162511
-0.131867
-0.0995236
-0.069436
-0.043153
-0.0209088
-0.0023728
0.0129454
0.0255216
0.0357606
0.0439867
0.0504478
0.0553353
0.0588196
0.0610469
0.0620451
0.0616774
0.0596991
-0.240096
-0.230436
-0.207467
-0.175634
-0.141663
-0.109711
-0.0815119
-0.0574125
-0.0371331
-0.0201966
-0.00612015
0.00551871
0.0150697
0.022815
0.0289805
0.0337578
0.0373354
0.0399261
0.041631
0.0418194
-0.284371
-0.27368
-0.250091
-0.21737
-0.182058
-0.148476
-0.118543
-0.0927231
-0.0707978
-0.0523101
-0.0367747
-0.0237563
-0.0128863
-0.00385924
0.00357492
0.00962403
0.0144946
0.0184571
0.0216788
0.0234565
-0.325635
-0.31401
-0.290036
-0.256744
-0.220402
-0.185454
-0.153993
-0.126612
-0.103162
-0.0832161
-0.0662926
-0.0519492
-0.0398044
-0.0295377
-0.020883
-0.0136192
-0.00752618
-0.00231629
0.00215098
0.00504921
-0.363578
-0.351115
-0.326994
-0.293458
-0.256418
-0.220392
-0.187637
-0.158878
-0.134049
-0.11276
-0.094543
-0.0789539
-0.0656045
-0.0541646
-0.0443591
-0.0359594
-0.0287377
-0.0223947
-0.0168146
-0.0129655
-0.397937
-0.384738
-0.360697
-0.327248
-0.28986
-0.253068
-0.219277
-0.189347
-0.163305
-0.14081
-0.121416
-0.104683
-0.0902209
-0.0776962
-0.066829
-0.0573879
-0.0491428
-0.0417855
-0.0351973
-0.0304293
-0.428509
-0.414673
-0.39093
-0.357894
-0.320516
-0.28329
-0.248742
-0.21787
-0.190803
-0.167259
-0.146821
-0.129063
-0.113599
-0.100094
-0.0882666
-0.0778855
-0.0687223
-0.0604658
-0.0529806
-0.0473356
-0.455149
-0.440775
-0.417528
-0.38522
-0.348214
-0.310898
-0.275891
-0.244325
-0.216437
-0.192016
-0.170684
-0.152035
-0.13569
-0.121319
-0.108641
-0.0974261
-0.0874495
-0.0784046
-0.0701369
-0.0636948
-0.477777
-0.462962
-0.440385
-0.409097
-0.372819
-0.335766
-0.300611
-0.268614
-0.240125
-0.215013
-0.192948
-0.173549
-0.156454
-0.141337
-0.127923
-0.115983
-0.105298
-0.0955711
-0.0866301
-0.0794823
-0.496378
-0.481215
-0.459456
-0.429451
-0.394241
-0.3578
-0.322819
-0.290665
-0.261805
-0.236197
-0.213567
-0.193569
-0.175858
-0.16012
-0.146085
-0.133528
-0.12224
-0.111932
-0.102418
-0.0946487
-0.511002
-0.495582
-0.474757
-0.446258
-0.412431
-0.376945
-0.342459
-0.310429
-0.281437
-0.255535
-0.232515
-0.21207
-0.19388
-0.177646
-0.163106
-0.15004
-0.138248
-0.127456
-0.11746
-0.109146
-0.521762
-0.506177
-0.486367
-0.459553
-0.427388
-0.39318
-0.359505
-0.327883
-0.299001
-0.273012
-0.249779
-0.229041
-0.210509
-0.193903
-0.178972
-0.165503
-0.153305
-0.142119
-0.131729
-0.122943
-0.528833
-0.513171
-0.494426
-0.469426
-0.439156
-0.406521
-0.373961
-0.343025
-0.314498
-0.288629
-0.265359
-0.244484
-0.225746
-0.208891
-0.193679
-0.179909
-0.167398
-0.155905
-0.145204
-0.136021
-0.532444
-0.516797
-0.499134
-0.476021
-0.447828
-0.417023
-0.38586
-0.355881
-0.327947
-0.302404
-0.279275
-0.258414
-0.239605
-0.222619
-0.207235
-0.193262
-0.180528
-0.168811
-0.15788
-0.148373
-0.532873
-0.517332
-0.500743
-0.479537
-0.453544
-0.424779
-0.395265
-0.366495
-0.339387
-0.314372
-0.291557
-0.270859
-0.252108
-0.235106
-0.219655
-0.205573
-0.192703
-0.180841
-0.169756
-0.159998
-0.530441
-0.515099
-0.499552
-0.480221
-0.456488
-0.429919
-0.402268
-0.374939
-0.348875
-0.324583
-0.30225
-0.28186
-0.263293
-0.246387
-0.230966
-0.216867
-0.203942
-0.192009
-0.180843
-0.170903
-0.525496
-0.510449
-0.495896
-0.478364
-0.456888
-0.432611
-0.40699
-0.381301
-0.356483
-0.333098
-0.311408
-0.291464
-0.273202
-0.256496
-0.2412
-0.227167
-0.214266
-0.202333
-0.191152
-0.1811
-0.51841
-0.503754
-0.490139
-0.474292
-0.455011
-0.433056
-0.40958
-0.385695
-0.362299
-0.339992
-0.319097
-0.299732
-0.281889
-0.265483
-0.250399
-0.236513
-0.223707
-0.21184
-0.200707
-0.190608
0.00948325
-0.0239836
-0.0469008
-0.0570681
-0.0663837
-0.0794666
-0.0942161
-0.108344
-0.121509
-0.134212
-0.146738
-0.159045
-0.171007
-0.182555
-0.193677
-0.204379
-0.214664
-0.224535
-0.233995
-0.243059
-0.0379648
-0.0521141
-0.0625042
-0.0694285
-0.0755672
-0.0826852
-0.0905978
-0.0983999
-0.105639
-0.112404
-0.118906
-0.12523
-0.13135
-0.137226
-0.142846
-0.148223
-0.153371
-0.158304
-0.163032
-0.167565
-0.0386215
-0.0439843
-0.0466388
-0.0499762
-0.0542385
-0.058688
-0.0629742
-0.0670918
-0.0710882
-0.0749861
-0.0788015
-0.0825475
-0.0862278
-0.0898396
-0.0933807
-0.0968531
-0.100261
-0.103609
-0.106901
-0.110139
-0.0338209
-0.0368147
-0.0379951
-0.0402243
-0.0435184
-0.0469446
-0.0500555
-0.0529238
-0.0557168
-0.058493
-0.0612325
-0.063909
-0.0665148
-0.0690531
-0.071528
-0.0739414
-0.0762943
-0.078588
-0.0808245
-0.0830069
-0.0288606
-0.0311551
-0.0318685
-0.0331271
-0.035171
-0.0373947
-0.0394134
-0.0412293
-0.0429691
-0.0447007
-0.0464223
-0.0481135
-0.0497655
-0.0513809
-0.0529659
-0.0545247
-0.0560599
-0.0575734
-0.0590674
-0.0605447
-0.0243025
-0.0260607
-0.0265244
-0.0272564
-0.0285458
-0.0300235
-0.0314038
-0.0326552
-0.0338528
-0.0350482
-0.0362472
-0.0374371
-0.0386095
-0.0397635
-0.0409016
-0.0420257
-0.0431364
-0.0442338
-0.045318
-0.0463898
-0.0198179
-0.0210857
-0.0213953
-0.0218679
-0.0227309
-0.0237451
-0.024711
-0.0255959
-0.0264437
-0.0272892
-0.0281386
-0.0289848
-0.0298218
-0.0306484
-0.0314657
-0.0322749
-0.0330767
-0.0338711
-0.0346585
-0.0354394
-0.0157771
-0.0166617
-0.0169083
-0.0172804
-0.0179184
-0.0186604
-0.019375
-0.0200392
-0.0206797
-0.0213187
-0.0219604
-0.0226008
-0.0232362
-0.0238653
-0.0244888
-0.0251072
-0.0257208
-0.0263297
-0.0269339
-0.0275337
-0.0123591
-0.0129442
-0.0131552
-0.0134842
-0.0139896
-0.0145554
-0.0150999
-0.0156119
-0.0161089
-0.0166041
-0.0170999
-0.0175937
-0.0180833
-0.0185681
-0.0190483
-0.0195243
-0.0199963
-0.0204644
-0.0209287
-0.0213893
-0.00966544
-0.0100305
-0.0102116
-0.0105104
-0.0109255
-0.0113689
-0.0117921
-0.0121931
-0.0125848
-0.0129749
-0.0133642
-0.0137509
-0.0141337
-0.0145124
-0.0148873
-0.0152587
-0.0156266
-0.0159912
-0.0163526
-0.0167109
-0.00762692
-0.00783727
-0.00798337
-0.00824259
-0.00857963
-0.00892517
-0.00925102
-0.00956092
-0.00986491
-0.0101676
-0.0104688
-0.0107672
-0.0110621
-0.0113536
-0.0116421
-0.0119276
-0.0122104
-0.0124907
-0.0127685
-0.0130441
-0.00610932
-0.00621169
-0.00631701
-0.00652645
-0.00678949
-0.00705067
-0.00729363
-0.00752474
-0.00775212
-0.00797863
-0.00820373
-0.00842641
-0.00864634
-0.00886374
-0.00907892
-0.00929212
-0.00950351
-0.00971326
-0.00992154
-0.0101285
-0.0049493
-0.00496482
-0.00502184
-0.00517511
-0.00536722
-0.00555208
-0.00572031
-0.00587947
-0.00603643
-0.00619308
-0.00634877
-0.00650274
-0.0066549
-0.00680556
-0.00695508
-0.00710374
-0.00725173
-0.00739925
-0.00754648
-0.00769358
-0.00403597
-0.00396482
-0.00396538
-0.00406114
-0.00418697
-0.00430141
-0.00439972
-0.00449077
-0.004581
-0.00467182
-0.00476253
-0.00485262
-0.00494222
-0.00503179
-0.00512175
-0.00521246
-0.00530414
-0.00539704
-0.00549134
-0.00558722
-0.00329307
-0.00310616
-0.00302332
-0.00304601
-0.003096
-0.00313072
-0.00314854
-0.00316067
-0.0031743
-0.00319087
-0.00320969
-0.00323039
-0.0032533
-0.00327907
-0.00330821
-0.0033411
-0.00337799
-0.00341909
-0.00346454
-0.00351442
-0.00280065
-0.0025042
-0.00229314
-0.00217994
-0.00210027
-0.00201523
-0.00192137
-0.00182814
-0.00174252
-0.00166636
-0.00159924
-0.00154073
-0.00149094
-0.00145024
-0.00141888
-0.00139696
-0.00138443
-0.00138114
-0.00138692
-0.00140148
-0.00200957
-0.0016281
-0.00118296
-0.000775133
-0.000429457
-0.000131292
0.000135708
0.000377708
0.000594404
0.000784597
0.000948439
0.00108716
0.00120227
0.00129515
0.00136705
0.00141915
0.00145266
0.0014688
0.00146877
0.00145378
0.00103858
0.00169071
0.00237457
0.0029542
0.00342374
0.00381408
0.00414698
0.00443062
0.00466737
0.00485918
0.00500908
0.00512063
0.00519738
0.00524254
0.00525906
0.00524965
0.00521687
0.00516308
0.00509053
0.0050013
0.0127353
0.01651
0.0179202
0.0174507
0.0165647
0.0159365
0.0155515
0.0152249
0.0148605
0.0144555
0.0140349
0.0136147
0.0131979
0.012783
0.012369
0.0119567
0.0115473
0.0111419
0.0107413
0.0103461
0.0247237
0.0368486
0.0406015
0.0381723
0.0346013
0.0320765
0.0304885
0.0292027
0.0278941
0.0265458
0.0252307
0.0239908
0.0228276
0.0217287
0.0206842
0.0196898
0.0187436
0.0178436
0.0169876
0.0161728
0.109416
0.109813
0.110618
0.111818
0.11341
0.1154
0.117803
0.120624
0.123864
0.127502
0.131497
0.135755
0.140115
0.144275
0.147708
0.149453
0.147676
0.138861
0.115562
0.0619972
0.0994418
0.099696
0.100156
0.100838
0.101702
0.102759
0.103939
0.105253
0.106564
0.107872
0.108907
0.10964
0.109537
0.108475
0.105391
0.0998943
0.0897855
0.0737259
0.0462125
0.000333462
0.0884517
0.0885337
0.0886534
0.0888157
0.0889874
0.0891498
0.0892304
0.0891805
0.0888766
0.0882228
0.0870124
0.0850605
0.0820253
0.0775564
0.0711052
0.0620293
0.0495281
0.0325868
0.0104508
-0.0180446
0.077076
0.0770066
0.0768451
0.0765864
0.0762092
0.0756762
0.07493
0.073893
0.072474
0.0705458
0.0679781
0.0645701
0.0601505
0.0544284
0.0472363
0.0382376
0.0274118
0.0144174
-0.000880208
-0.0202493
0.0659257
0.0657555
0.0654059
0.0648693
0.0641333
0.0631602
0.0619088
0.0603063
0.058293
0.0557638
0.0526521
0.0488212
0.0442219
0.0387046
0.0322926
0.0248459
0.0164562
0.0068014
-0.00442806
-0.0187184
0.0554729
0.0552522
0.0548062
0.0541287
0.0532129
0.0520312
0.0505571
0.0487396
0.0465447
0.0439078
0.0408043
0.0371652
0.0329958
0.0282305
0.0229156
0.0169582
0.0103801
0.00289903
-0.00576374
-0.016638
0.0460022
0.0457681
0.0452966
0.0445831
0.0436249
0.0424057
0.0409119
0.0391139
0.0369967
0.0345264
0.0316992
0.0284824
0.0248905
0.0208865
0.0164974
0.0116543
0.00636477
0.000457849
-0.00621327
-0.0142766
0.0376288
0.0374042
0.0369529
0.0362711
0.0353586
0.0342072
0.0328124
0.0311593
0.0292433
0.0270475
0.0245743
0.0218058
0.0187541
0.0153956
0.011752
0.00778815
0.00353298
-0.00108906
-0.00612171
-0.0119193
0.0303452
0.0301424
0.0297354
0.029121
0.0282994
0.0272674
0.0260252
0.0245662
0.0228911
0.0209911
0.018871
0.0165207
0.0139523
0.0111545
0.00815264
0.00493555
0.00154657
-0.00203592
-0.00577824
-0.0097958
0.0240703
0.0238939
0.0235404
0.0230063
0.0222919
0.021396
0.0203212
0.0190654
0.0176325
0.0160189
0.0142318
0.0122673
0.0101394
0.00784505
0.00541077
0.00283636
0.000168986
-0.00258327
-0.005334
-0.00803776
0.0186871
0.0185374
0.0182376
0.0177842
0.0171772
0.0164161
0.0155049
0.0144442
0.0132401
0.0118929
0.0104125
0.00879936
0.00706934
0.00522345
0.00328673
0.00126243
-0.000803427
-0.0028878
-0.00487843
-0.0066472
0.0140696
0.0139443
0.013694
0.0133151
0.0128075
0.0121713
0.0114114
0.0105301
0.00953482
0.00842816
0.00722114
0.00591753
0.00453429
0.0030759
0.00156691
1.24811e-05
-0.00154518
-0.00307977
-0.00447549
-0.00557412
0.0101
0.00999516
0.00978668
0.00947119
0.00904901
0.00852138
0.00789418
0.00717128
0.00636085
0.00546634
0.00449818
0.00346042
0.00236973
0.00123362
7.92592e-05
-0.00108236
-0.00220933
-0.00327626
-0.004177
-0.00475037
0.00668007
0.00659008
0.00641214
0.0061435
0.00578542
0.00534077
0.00481755
0.00422228
0.00356545
0.00285227
0.00209276
0.00128881
0.000452311
-0.000412797
-0.00128045
-0.002132
-0.00291359
-0.00358553
-0.0040435
-0.00414524
0.00374012
0.00365759
0.00349551
0.00325154
0.00292807
0.00252932
0.00206611
0.00154852
0.000992741
0.000409996
-0.000182968
-0.000781353
-0.00137524
-0.00197273
-0.00256473
-0.00314916
-0.00366849
-0.00405383
-0.00414709
-0.003766
0.00124352
0.00116045
0.000998195
0.000754118
0.000431225
3.32222e-05
-0.000427504
-0.000939795
-0.00148117
-0.00203288
-0.002561
-0.00304317
-0.0034444
-0.00376472
-0.00400075
-0.00420301
-0.0043723
-0.00449109
-0.00433165
-0.00357096
-0.000813955
-0.000903664
-0.00107981
-0.00134558
-0.00169861
-0.00213774
-0.00265303
-0.00323758
-0.00387051
-0.00453386
-0.00518361
-0.0057767
-0.00622925
-0.00647315
-0.00641555
-0.00606208
-0.00545918
-0.00480215
-0.00408488
-0.00290999
-0.00241088
-0.00250879
-0.00270657
-0.00300607
-0.00340806
-0.00391276
-0.00451929
-0.00522626
-0.00602955
-0.00692147
-0.00788361
-0.0088795
-0.00983414
-0.0106132
-0.0109928
-0.0106687
-0.00933117
-0.00688888
-0.00373717
-0.000719207
-0.00350909
-0.00361403
-0.00383311
-0.00416562
-0.00461651
-0.00518618
-0.00588508
-0.0067161
-0.00769783
-0.00883609
-0.0101606
-0.0116758
-0.0134097
-0.0153103
-0.0172726
-0.0188807
-0.0193561
-0.0171744
-0.0105333
0.0018152
-0.00406756
-0.00417921
-0.00441115
-0.00476447
-0.00524428
-0.00585515
-0.00660962
-0.00751988
-0.00861065
-0.00990787
-0.0114598
-0.0133223
-0.0155921
-0.018383
-0.0218565
-0.0261068
-0.030948
-0.0349915
-0.0332701
-0.0101134
0.1244
0.124898
0.12602
0.127674
0.130002
0.132906
0.136624
0.141017
0.146456
0.15274
0.160448
0.169281
0.180165
0.192633
0.208262
0.226252
0.2495
0.276485
0.312814
0.355203
0.124116
0.124612
0.125728
0.127374
0.12969
0.132579
0.136278
0.140648
0.146058
0.152306
0.159971
0.168747
0.179563
0.19194
0.207452
0.225286
0.248319
0.275
0.310892
0.352602
0.1238
0.124294
0.125404
0.12704
0.129344
0.132217
0.135895
0.140238
0.145615
0.151822
0.159435
0.168145
0.178875
0.19114
0.206495
0.22412
0.24684
0.273077
0.308286
0.348907
0.123453
0.123944
0.125048
0.126674
0.128964
0.131819
0.135474
0.139787
0.145129
0.151288
0.158842
0.167475
0.178102
0.190234
0.205393
0.222758
0.245068
0.270723
0.305003
0.344129
0.123075
0.123564
0.12466
0.126276
0.128551
0.131386
0.135016
0.139297
0.144599
0.150705
0.158193
0.166738
0.177246
0.189222
0.204148
0.221201
0.243008
0.267946
0.301051
0.338284
0.122666
0.123152
0.124242
0.125847
0.128105
0.13092
0.134523
0.138768
0.144026
0.150075
0.157488
0.165936
0.17631
0.188108
0.202763
0.219456
0.240665
0.264757
0.296442
0.331392
0.122227
0.122711
0.123793
0.125386
0.127628
0.13042
0.133994
0.138202
0.143411
0.149397
0.15673
0.16507
0.175294
0.186894
0.201244
0.217527
0.238049
0.261169
0.291189
0.323482
0.121758
0.12224
0.123314
0.124895
0.127119
0.129887
0.13343
0.137598
0.142756
0.148674
0.155919
0.164141
0.174203
0.185582
0.199595
0.21542
0.235167
0.257197
0.285308
0.314584
0.12126
0.12174
0.122806
0.124374
0.126579
0.129323
0.132833
0.136958
0.142062
0.147907
0.155058
0.163152
0.173038
0.184175
0.197821
0.213142
0.232032
0.252857
0.278819
0.304737
0.120733
0.121211
0.122269
0.123824
0.12601
0.128727
0.132203
0.136283
0.141329
0.147097
0.154149
0.162104
0.171803
0.182677
0.195929
0.210698
0.228655
0.248167
0.271741
0.293984
0.120178
0.120655
0.121704
0.123246
0.125412
0.128102
0.131542
0.135574
0.14056
0.146246
0.153192
0.161
0.170502
0.181092
0.193926
0.208098
0.225052
0.243144
0.264099
0.282371
0.119595
0.120071
0.121113
0.122641
0.124786
0.127449
0.13085
0.134833
0.139755
0.145355
0.152191
0.159842
0.169137
0.179423
0.191818
0.205347
0.221237
0.237809
0.255919
0.269952
0.118986
0.119461
0.120495
0.12201
0.124133
0.126767
0.13013
0.134061
0.138917
0.144426
0.151147
0.158632
0.167712
0.177674
0.189613
0.202453
0.21723
0.232178
0.247232
0.256781
0.118349
0.118825
0.119852
0.121353
0.123454
0.126059
0.129381
0.13326
0.138046
0.143462
0.150063
0.157375
0.166231
0.175851
0.187319
0.199426
0.213049
0.226269
0.238075
0.242912
0.117688
0.118164
0.119184
0.120673
0.122751
0.125326
0.128606
0.13243
0.137145
0.142463
0.14894
0.156071
0.164695
0.173956
0.184942
0.196272
0.208715
0.220098
0.228492
0.22839
0.117001
0.11748
0.118492
0.119968
0.122023
0.124568
0.127804
0.131572
0.136212
0.141429
0.147777
0.15472
0.163105
0.171991
0.182482
0.192996
0.204242
0.213681
0.218542
0.213254
0.11629
0.116772
0.117779
0.119242
0.121274
0.123787
0.126979
0.130689
0.135252
0.140366
0.146581
0.15333
0.161468
0.169964
0.179953
0.189613
0.199655
0.207032
0.208292
0.197529
0.115555
0.116043
0.117046
0.118499
0.120509
0.122993
0.126143
0.129798
0.134289
0.139302
0.145387
0.151943
0.159839
0.167938
0.177426
0.186195
0.195031
0.200187
0.197768
0.181083
0.114798
0.115292
0.116295
0.117739
0.119732
0.12219
0.125302
0.128908
0.133331
0.138251
0.144213
0.150582
0.15824
0.165942
0.174927
0.182767
0.190387
0.19313
0.186931
0.163045
0.114013
0.114508
0.115501
0.116928
0.118886
0.121304
0.12435
0.127881
0.132192
0.13698
0.142747
0.148879
0.156192
0.163441
0.171788
0.178694
0.185031
0.18554
0.176113
0.143821
0.1235
0.12405
0.125197
0.126887
0.129216
0.132124
0.135788
0.140094
0.14534
0.15129
0.15843
0.166283
0.175607
0.18543
0.196786
0.207646
0.21872
0.225578
0.224378
0.203602
0.12383
0.124377
0.12553
0.127226
0.129572
0.132499
0.136199
0.140543
0.145856
0.151881
0.159146
0.167153
0.176718
0.18687
0.198707
0.210308
0.222415
0.231164
0.232764
0.219431
0.124128
0.124668
0.125817
0.127509
0.129857
0.132784
0.13649
0.140843
0.146172
0.152229
0.159542
0.167644
0.177336
0.187748
0.199925
0.212239
0.22531
0.236113
0.241024
0.234202
0.124399
0.124933
0.12608
0.127772
0.130123
0.133056
0.136774
0.141144
0.146499
0.1526
0.159971
0.168181
0.178012
0.188692
0.201217
0.21422
0.228254
0.24094
0.249059
0.247543
0.124642
0.125171
0.126319
0.128012
0.13037
0.13331
0.137043
0.141433
0.146818
0.152966
0.160402
0.168721
0.178697
0.18964
0.202516
0.216174
0.231169
0.245587
0.256832
0.26019
0.124856
0.125382
0.12653
0.128225
0.130588
0.133536
0.137281
0.14169
0.147103
0.153294
0.16079
0.169212
0.179326
0.190515
0.203733
0.218007
0.233953
0.249992
0.264299
0.272259
0.125042
0.125565
0.126713
0.128409
0.130776
0.133731
0.137487
0.141912
0.147349
0.15358
0.16113
0.169647
0.17989
0.191309
0.204857
0.219707
0.236588
0.254142
0.2714
0.28372
0.125198
0.125719
0.126867
0.128564
0.130935
0.133894
0.13766
0.142099
0.147558
0.153824
0.161424
0.170028
0.180393
0.192024
0.205889
0.221273
0.239061
0.258026
0.278079
0.294535
0.125324
0.125843
0.126992
0.128689
0.131062
0.134026
0.1378
0.142251
0.147728
0.154026
0.161672
0.170354
0.180832
0.192657
0.206823
0.222697
0.241352
0.261624
0.284291
0.304656
0.12542
0.125937
0.127086
0.128783
0.131159
0.134125
0.137905
0.142366
0.14786
0.154185
0.16187
0.170622
0.181204
0.193202
0.207654
0.223971
0.243443
0.264919
0.29
0.314032
0.125486
0.126001
0.12715
0.128846
0.131223
0.134191
0.137975
0.142444