/*--------------------------------*- C++ -*----------------------------------*\
  =========                 |
  \\      /  F ield         | OpenFOAM: The Open Source CFD Toolbox
   \\    /   O peration     | Website:  https://openfoam.org
    \\  /    A nd           | Version:  6.0
     \\/     M anipulation  |
\*---------------------------------------------------------------------------*/
FoamFile
{
    version     2.0;
    format      ascii;
    class       surfaceScalarField;
    location    "102";
    object      phi;
}
// * * * * * * * * * * * * * * * * * * * * * * * * * * * * * * * * * * * * * //

dimensions      [0 3 -1 0 0 0 0];

internalField   nonuniform List<scalar> 
15760
(
1.6336e-06
0.000146873
-0.000148507
2.80268e-06
0.000366736
-0.000367905
1.60425e-06
0.000527032
-0.000525833
-2.55001e-06
0.000638466
-0.000634312
-9.38339e-06
0.00071116
-0.000704326
-1.813e-05
0.000754346
-0.0007456
-2.78257e-05
0.000775837
-0.000766141
-3.75055e-05
0.000781794
-0.000772114
-4.63199e-05
0.000776789
-0.000767975
-5.35914e-05
0.000764018
-0.000756746
-5.88311e-05
0.000745595
-0.000740355
-6.17314e-05
0.000722847
-0.000719947
-6.21454e-05
0.000696577
-0.000696163
-6.00617e-05
0.00066727
-0.000669353
-5.55758e-05
0.000635241
-0.000639727
-4.88626e-05
0.000600729
-0.000607442
-4.01473e-05
0.000563936
-0.000572651
-2.96829e-05
0.000525033
-0.000535498
-1.77478e-05
0.000484071
-0.000496006
0.000440813
-0.000453949
-4.61112e-06
3.10305e-06
0.00014377
7.77884e-06
0.00036206
1.141e-05
0.0005234
1.28384e-05
0.000637038
1.19133e-05
0.000712085
9.10584e-06
0.000757154
5.19849e-06
0.000779744
1.06409e-06
0.000785929
-2.47254e-06
0.000780326
-4.70876e-06
0.000766254
-5.09339e-06
0.000745979
-3.22793e-06
0.000720982
1.14746e-06
0.000692202
8.17444e-06
0.000660243
1.78974e-05
0.000625518
3.02818e-05
0.000588345
4.52292e-05
0.000548988
6.25844e-05
0.000507678
8.21182e-05
0.000464537
0.0004194
0.00010353
4.43046e-06
0.00013934
1.23859e-05
0.000354105
2.06572e-05
0.000515129
2.7581e-05
0.000630114
3.26035e-05
0.000707062
3.59027e-05
0.000753855
3.80706e-05
0.000777576
3.9877e-05
0.000784122
4.21124e-05
0.00077809
4.54967e-05
0.00076287
5.06369e-05
0.000740839
5.8016e-05
0.000713602
6.79995e-05
0.000682218
8.08505e-05
0.000647392
9.67442e-05
0.000609625
0.000115777
0.000569312
0.000137972
0.000526794
0.000163266
0.000482383
0.000191476
0.000436327
0.000388611
0.000222266
5.59819e-06
0.000133742
1.65587e-05
0.000343144
2.92171e-05
0.000502471
4.14839e-05
0.000617847
5.24383e-05
0.000696108
6.19735e-05
0.000744319
7.04847e-05
0.000769065
7.86249e-05
0.000775982
8.71346e-05
0.00076958
9.67359e-05
0.000753268
0.000108076
0.000729499
0.000121708
0.000699971
0.000138086
0.00066584
0.000157577
0.0006279
0.000180473
0.000586729
0.000206988
0.000542797
0.000237256
0.000496526
0.000271308
0.000448331
0.000309011
0.000398625
0.000347637
0.000349985
6.58716e-06
0.000127154
2.02246e-05
0.000329507
3.69395e-05
0.000485756
5.43092e-05
0.000600477
7.10947e-05
0.000679322
8.69214e-05
0.000728493
0.000101984
0.000754002
0.000116805
0.000761161
0.000132057
0.000754329
0.000148442
0.000736884
0.000166627
0.000711314
0.00018721
0.000679387
0.000210714
0.000642336
0.000237589
0.000601025
0.000268216
0.000556101
0.000302912
0.000508101
0.000341911
0.000457528
0.000385333
0.000404909
0.000433099
0.000350859
0.000295946
0.00048479
7.37716e-06
0.000119777
2.33037e-05
0.00031358
4.36538e-05
0.000465406
6.57764e-05
0.000578355
8.81753e-05
0.000656923
0.000110234
0.000706434
0.000131951
0.000732286
0.000153705
0.000739407
0.000176079
0.000731955
0.000199735
0.000713228
0.000225331
0.000685717
0.000253487
0.000651231
0.000284765
0.000611058
0.00031967
0.000566121
0.000358652
0.00051712
0.000402103
0.000464649
0.000450344
0.000409287
0.000503578
0.000351675
0.000561783
0.000292653
0.000233233
0.000624496
7.94807e-06
0.000111829
2.57139e-05
0.000295815
4.91772e-05
0.000441942
7.55732e-05
0.000551959
0.00010322
0.000629276
0.000131297
0.000678357
0.000159615
0.000703968
0.000188402
0.000710619
0.000218134
0.000702222
0.000249406
0.000681957
0.000282843
0.00065228
0.000319058
0.000615016
0.000358625
0.000571491
0.000402075
0.000522671
0.0004499
0.000469295
0.000502549
0.000412
0.000560411
0.000351424
0.000623765
0.000288321
0.000692648
0.000223771
0.00015934
0.000766541
8.28116e-06
0.000103548
2.73754e-05
0.00027672
5.33263e-05
0.000415992
8.3374e-05
0.000521911
0.000115733
0.000596918
0.000149423
0.000644666
0.000184087
0.000669305
0.000219801
0.000674905
0.000256919
0.000665104
0.000295946
0.00064293
0.00033745
0.000610776
0.000382009
0.000570458
0.000430182
0.000523318
0.000482504
0.000470348
0.000539486
0.000412313
0.000601617
0.00034987
0.000669343
0.000283698
0.000743019
0.000214645
0.000822742
0.000144047
7.41643e-05
0.000907918
8.36089e-06
9.51872e-05
2.82192e-05
0.000256862
5.59345e-05
0.000388276
8.8871e-05
0.000488975
0.000125224
0.000560565
0.000163912
0.000605979
0.000204433
0.000628783
0.00024672
0.000632618
0.000290995
0.000620829
0.000337657
0.000596268
0.000387192
0.000561241
0.000440122
0.000517527
0.000496972
0.000466468
0.000558261
0.000409059
0.000624507
0.000346068
0.000696227
0.00027815
0.00077393
0.000205995
0.000858055
0.00013052
0.000948775
5.33271e-05
-2.24515e-05
0.00104539
8.17728e-06
8.70099e-05
2.81967e-05
0.000236843
5.68755e-05
0.000359597
9.18145e-05
0.000454036
0.000131278
0.000521101
0.000174139
0.000563118
0.000219792
0.00058313
0.000268037
0.000584373
0.000318966
0.000569899
0.000372862
0.000542372
0.000430118
0.000503985
0.000491184
0.000456461
0.000556539
0.000401113
0.000626678
0.00033892
0.000702123
0.000270623
0.000783425
0.000196848
0.000871164
0.000118256
0.000965882
3.58014e-05
0.00106786
-4.86475e-05
-0.000130848
0.00117625
7.72866e-06
7.92812e-05
2.72915e-05
0.00021728
5.60897e-05
0.000330799
9.20628e-05
0.000418062
0.000133626
0.000479538
0.000179672
0.000517072
0.00022953
0.000533273
0.000282896
0.000531007
0.000339744
0.000513051
0.000400246
0.00048187
0.000464701
0.00043953
0.000533489
0.000387674
0.000607044
0.000327558
0.000685847
0.000260117
0.000770429
0.000186041
0.000861387
0.000105891
0.000959375
2.02677e-05
0.00106505
-6.98761e-05
0.00117881
-0.000162407
-0.000251694
0.00129966
7.02515e-06
7.22561e-05
2.55325e-05
0.000198772
5.36144e-05
0.000302717
8.96363e-05
0.00038204
0.000132239
0.000436935
0.000180397
0.000468914
0.000233428
0.000480242
0.00029096
0.000473475
0.000352882
0.00045113
0.000419275
0.000415477
0.000490368
0.000368437
0.000566493
0.000311548
0.000648063
0.000245988
0.000735563
0.000172617
0.000829549
9.20544e-05
0.00093066
4.77988e-06
0.00103961
-8.86817e-05
0.00115713
-0.000187396
0.00128369
-0.000288968
-0.000386105
0.0014181
6.0929e-06
6.61632e-05
2.30078e-05
0.000181857
4.96144e-05
0.000276111
8.47728e-05
0.000346882
0.000127417
0.000394291
0.000176665
0.000419666
0.000231882
0.000425025
0.000292686
0.000412671
0.000358927
0.000384888
0.000430652
0.000343753
0.000508062
0.000291026
0.000591489
0.000228122
0.000681362
0.000156115
0.000778195
7.57836e-05
0.000882576
-1.2326e-05
0.000995149
-0.000107794
0.00111661
-0.00021014
0.00124763
-0.000318418
0.00138862
-0.000429962
-0.000535632
0.00153815
4.9786e-06
6.11846e-05
1.98787e-05
0.000166957
4.44084e-05
0.000251581
7.79748e-05
0.000313316
0.000119862
0.000352404
0.000169399
0.000370129
0.000226066
0.000368357
0.000289545
0.000349192
0.000359722
0.000314711
0.000436678
0.000266797
0.00052066
0.000207043
0.000612054
0.000136728
0.000711345
5.68244e-05
0.000819085
-3.1957e-05
0.000935852
-0.000129093
0.0010622
-0.000234146
0.00119864
-0.00034658
0.00134557
-0.000465339
0.00150307
-0.000587465
-0.000701964
0.0016694
3.75281e-06
5.74318e-05
1.63868e-05
0.000154323
3.8483e-05
0.000229485
7.0032e-05
0.000281767
0.00011072
0.000311716
0.000160154
0.000320694
0.000218013
0.000310499
0.000284124
0.000283081
0.000358503
0.000240333
0.000441348
0.000183951
0.000533019
0.000115372
0.000633996
3.57514e-05
0.000744824
-5.40036e-05
0.000866044
-0.000153176
0.000998111
-0.00026116
0.00114132
-0.000377353
0.00129573
-0.000500994
0.00146116
-0.000630768
0.0016371
-0.000763401
-0.000886278
0.00182141
2.51016e-06
5.49216e-05
1.28512e-05
0.000143982
3.24831e-05
0.000209853
6.2003e-05
0.000252247
0.000101548
0.000272171
0.000151072
0.00027117
0.000210535
0.000251036
0.000280005
0.000213611
0.000359708
0.000160629
0.000450027
9.36327e-05
0.000551464
1.39354e-05
0.000664577
-7.73619e-05
0.000789893
-0.00017932
0.000927799
-0.000291082
0.00107843
-0.000411788
0.00124155
-0.000540476
0.00141651
-0.000675958
0.00160226
-0.000816511
0.00179742
-0.000958567
-0.00108832
0.00199946
1.36398e-06
5.35577e-05
9.6482e-06
0.000135698
2.71678e-05
0.000192334
5.51378e-05
0.000224277
9.4188e-05
0.000233121
0.000144686
0.000220672
0.000206949
0.000188774
0.000281356
0.000139204
0.000368393
7.35919e-05
0.000468634
-6.60889e-06
0.000582678
-0.000100109
0.000711047
-0.000205731
0.000854063
-0.000322336
0.00101172
-0.000448735
0.00118354
-0.000583608
0.0013685
-0.000725439
0.00156499
-0.000872448
0.00177089
-0.00102242
0.00198392
-0.0011716
-0.00130547
0.00220108
4.34523e-07
5.31231e-05
7.17255e-06
0.00012896
2.33303e-05
0.000176176
5.0739e-05
0.000196868
9.05531e-05
0.000193307
0.000143602
0.000167623
0.000210604
0.000121772
0.000292274
5.75338e-05
0.000389338
-2.34723e-05
0.000502481
-0.000119752
0.000632244
-0.000229871
0.000778886
-0.000352373
0.000942244
-0.000485693
0.0011216
-0.000628087
0.00131557
-0.000777584
0.0015221
-0.000931972
0.00173848
-0.00108883
0.00196155
-0.00124548
0.00218819
-0.00139824
-0.00153236
0.00241507
-1.68092e-07
5.32912e-05
5.78401e-06
0.000123008
2.1691e-05
0.000160269
4.99817e-05
0.000168577
9.23446e-05
0.000150944
0.000150083
0.000109884
0.000224313
4.75422e-05
0.000316031
-3.41845e-05
0.000426091
-0.000133533
0.000555104
-0.000248765
0.000703298
-0.000378065
0.000870367
-0.000519442
0.00105534
-0.000670663
0.00125648
-0.000829227
0.00147127
-0.000992375
0.00169646
-0.00115716
0.0019282
-0.00132057
0.00216238
-0.00147966
0.00239534
-0.00163121
-0.00176097
0.00262396
-3.61931e-07
5.36532e-05
5.75299e-06
0.000116893
2.27906e-05
0.000143231
5.37356e-05
0.000137632
0.000100786
0.000103894
0.000165682
4.49886e-05
0.000249856
-3.66317e-05
0.00035445
-0.000138779
0.000480237
-0.00025932
0.000627479
-0.000396006
0.000795773
-0.00054636
0.000983926
-0.000707594
0.00118987
-0.00087661
0.00141068
-0.00105004
0.00164265
-0.00122435
0.00188145
-0.00139596
0.0021223
-0.00156142
0.00236011
-0.00171746
0.00258944
-0.00186055
-0.00197855
0.00280702
-1.07469e-07
5.37606e-05
7.21955e-06
0.000109566
2.69127e-05
0.000123538
6.24423e-05
0.000102102
0.000116448
4.98883e-05
0.000191005
-2.95687e-05
0.000287709
-0.000133336
0.000407625
-0.000258695
0.000551154
-0.000402849
0.000717883
-0.000562735
0.000906448
-0.000734925
0.00111448
-0.000915629
0.00133866
-0.00110078
0.00157481
-0.0012862
0.00181822
-0.00146776
0.00206389
-0.00164162
0.00230687
-0.0018044
0.00254265
-0.00195325
0.00276799
-0.00208588
-0.00219823
0.00298767
5.91694e-07
5.3169e-05
1.01869e-05
9.99709e-05
3.40679e-05
9.96571e-05
7.60908e-05
6.00796e-05
0.00013922
-1.3241e-05
0.000225705
-0.000116054
0.000337077
-0.000244708
0.000474032
-0.000395649
0.000636268
-0.000565085
0.000822355
-0.000748822
0.00102968
-0.000942248
0.00125451
-0.00114046
0.00149221
-0.00133848
0.00173751
-0.0015315
0.00198494
-0.00171519
0.00222918
-0.00188586
0.00246547
-0.00204069
0.00268998
-0.00217776
0.00290027
-0.00229618
-0.00239471
0.00309675
1.69161e-06
5.14773e-05
1.45354e-05
8.71271e-05
4.40275e-05
7.01649e-05
9.4282e-05
9.82507e-06
0.000168426
-8.73853e-05
0.000268663
-0.000216291
0.000396175
-0.00037222
0.000550954
-0.000550428
0.00073165
-0.000745781
0.000935513
-0.000952685
0.00115848
-0.00116521
0.00139542
-0.0013774
0.00164052
-0.00158358
0.00188773
-0.00177872
0.00213126
-0.00195871
0.00236595
-0.00212055
0.00258766
-0.00226239
0.00279337
-0.00238348
0.00298127
-0.00248408
-0.00256502
0.00315159
3.12706e-06
4.83503e-05
2.0072e-05
7.01822e-05
5.64131e-05
3.38238e-05
0.000116369
-5.0131e-05
0.000203026
-0.000174043
0.000318272
-0.000331536
0.00046261
-0.000516558
0.000634977
-0.000722795
0.000832653
-0.000943457
0.00105135
-0.00117138
0.0012855
-0.00139936
0.00152872
-0.00162062
0.00177436
-0.00182922
0.00201608
-0.00202044
0.00224832
-0.00219096
0.00246668
-0.00233891
0.00266807
-0.00246378
0.00285076
-0.00256617
0.00301427
-0.00264758
-0.0027104
0.00315965
4.82923e-06
4.35211e-05
2.65821e-05
4.84294e-05
7.07912e-05
-1.03853e-05
0.000141604
-0.000120943
0.000241822
-0.00027426
0.000372703
-0.000462418
0.00053372
-0.000677574
0.000722408
-0.000911483
0.000934423
-0.00115547
0.00116385
-0.00140081
0.00140376
-0.00163927
0.00164685
-0.00186371
0.00188616
-0.00206853
0.00211565
-0.00224992
0.00233058
-0.00240589
0.00252775
-0.00253608
0.00270547
-0.0026415
0.00286343
-0.00272412
0.00300241
-0.00278656
-0.00283214
0.00312414
6.74081e-06
3.67802e-05
3.38716e-05
2.12986e-05
8.67491e-05
-6.32628e-05
0.000169246
-0.00020344
0.000283598
-0.000388612
0.000430086
-0.000608906
0.000606785
-0.000854274
0.000809535
-0.00111423
0.00103224
-0.00137817
0.00126745
-0.00163602
0.00150719
-0.00187902
0.00174379
-0.00210031
0.0019706
-0.00229533
0.00218244
-0.00246177
0.0023759
-0.00259935
0.00254925
-0.00270943
0.00270228
-0.00279453
0.00283598
-0.00285782
0.00295219
-0.00290277
-0.00293315
0.0030532
8.82349e-06
2.79568e-05
4.17882e-05
-1.16661e-05
0.00010393
-0.000125404
0.000198611
-0.000298122
0.000327179
-0.00051718
0.000488568
-0.000770295
0.000679118
-0.00104482
0.000892778
-0.00132789
0.00112173
-0.00160712
0.0013573
-0.00187159
0.001591
-0.00211272
0.00181541
-0.00232473
0.00202479
-0.00250471
0.00221534
-0.00265231
0.00238519
-0.0027692
0.00253416
-0.0028584
0.00266336
-0.00292374
0.00277479
-0.00296926
0.00287095
-0.00299893
-0.00301665
0.00295445
1.10571e-05
1.68997e-05
5.02197e-05
-5.08288e-05
0.000122027
-0.000197211
0.000229057
-0.000405152
0.000371413
-0.000659536
0.000546314
-0.000945196
0.0007481
-0.00124661
0.000968788
-0.00154858
0.00119908
-0.00183741
0.00142959
-0.0021021
0.00165195
-0.00233508
0.00185962
-0.0025324
0.00204825
-0.00269334
0.00221569
-0.00281975
0.00236166
-0.00291517
0.00248734
-0.00298408
0.00259486
-0.00303126
0.00268687
-0.00306127
0.00276616
-0.00307822
-0.00308586
0.00283537
1.34324e-05
3.46732e-06
5.90753e-05
-9.64718e-05
0.000140752
-0.000278888
0.000259942
-0.000524341
0.000415127
-0.000814722
0.000601486
-0.00113156
0.000811227
-0.00145635
0.00103459
-0.00177194
0.00126125
-0.00206408
0.00148174
-0.00232259
0.00168846
-0.0025418
0.00187626
-0.0027202
0.0020425
-0.00285958
0.00218667
-0.00296391
0.00230992
-0.00303842
0.00241448
-0.00308865
0.00250313
-0.00311991
0.0025788
-0.00313693
0.00264427
-0.00314369
-0.00314359
0.00270201
1.59422e-05
-1.24748e-05
6.82617e-05
-0.000148791
0.000159798
-0.000370425
0.000290578
-0.000655121
0.000457101
-0.000981245
0.000652271
-0.00132672
0.000866205
-0.00167028
0.00108774
-0.00199347
0.00130612
-0.00228247
0.00151247
-0.00252893
0.00170051
-0.00272984
0.00186682
-0.00288652
0.00201049
-0.00300324
0.0021325
-0.00308593
0.00223513
-0.00314105
0.00232127
-0.00317479
0.002394
-0.00319264
0.00245624
-0.00319917
0.00251056
-0.00319802
-0.00319214
0.00255911
1.85728e-05
-3.10476e-05
7.76621e-05
-0.000207881
0.000178809
-0.000471571
0.000320214
-0.000796526
0.000496081
-0.00115711
0.000696948
-0.00152759
0.000911086
-0.00188442
0.00112647
-0.00220885
0.0013326
-0.0024886
0.00152177
-0.0027181
0.00168943
-0.0028975
0.00183394
-0.00303103
0.00195599
-0.00312529
0.00205778
-0.00318772
0.00214232
-0.00322558
0.00221282
-0.00324529
0.00227237
-0.00325219
0.00232368
-0.00325047
0.00236899
-0.00324333
-0.00323324
0.0024101
2.12992e-05
-5.23468e-05
8.71258e-05
-0.000273707
0.000197368
-0.000581813
0.000348042
-0.0009472
0.000530831
-0.0013399
0.000733997
-0.00173076
0.000944402
-0.00209483
0.0011498
-0.00241425
0.00134061
-0.00267941
0.00151073
-0.00288822
0.00165746
-0.00304423
0.0017809
-0.00315447
0.00188305
-0.00322744
0.00196695
-0.00327161
0.00203598
-0.00329461
0.00209341
-0.00330273
0.00214213
-0.00330092
0.00218452
-0.00329286
0.00222246
-0.00328127
-0.00326815
0.00225737
2.40835e-05
-7.64303e-05
9.64667e-05
-0.000346091
0.000215014
-0.000700361
0.000373238
-0.00110542
0.000560218
-0.00152688
0.000762212
-0.00193275
0.00096525
-0.00229787
0.00115755
-0.00260655
0.00133094
-0.0028528
0.00148118
-0.00303846
0.00160742
-0.00317047
0.00171123
-0.00325828
0.00179556
-0.00331177
0.00186395
-0.00334
0.00191988
-0.00335054
0.00196645
-0.0033493
0.00200623
-0.00334069
0.00204122
-0.00332786
0.00207295
-0.003313
-0.00329773
0.00210253
2.68758e-05
-0.000103306
0.000105471
-0.000424685
0.000231261
-0.000826151
0.000395018
-0.00126918
0.000583289
-0.00171515
0.000780774
-0.00213024
0.000973322
-0.00249041
0.0011502
-0.00278343
0.00130502
-0.00300763
0.00143547
-0.00316891
0.00154232
-0.00327733
0.0016283
-0.00334425
0.00169699
-0.00338046
0.00175211
-0.00339512
0.00179702
-0.00339545
0.00183451
-0.0033868
0.00186679
-0.00337297
0.00189549
-0.00335656
0.00192183
-0.00333934
-0.00332253
0.00194663
2.96175e-05
-0.000132924
0.000113908
-0.000508975
0.000245629
-0.000957872
0.000412689
-0.00143624
0.000599343
-0.00190181
0.000789294
-0.00232019
0.000968856
-0.00266997
0.00112882
-0.00294339
0.00126474
-0.00314355
0.00137612
-0.00328029
0.0014651
-0.0033663
0.00153519
-0.00341435
0.00159031
-0.00343558
0.00163412
-0.00343893
0.00166971
-0.00343103
0.0016995
-0.00341659
0.00172533
-0.0033988
0.00174851
-0.00337974
0.00176997
-0.00336079
-0.00334289
0.00179033
3.22442e-05
-0.000165168
0.000121545
-0.000598276
0.000257681
-0.00109401
0.000425701
-0.00160426
0.000607962
-0.00208407
0.000787795
-0.00250002
0.000952548
-0.00283473
0.00109484
-0.00308568
0.00121218
-0.00326088
0.00130564
-0.00337375
0.00137843
-0.00343909
0.00143454
-0.00347046
0.00147794
-0.00347898
0.00151206
-0.00347305
0.00153966
-0.00345862
0.00156277
-0.00343971
0.0015829
-0.00341892
0.00160105
-0.0033979
0.00161796
-0.0033777
-0.00335901
0.00163407
3.46894e-05
-0.000199857
0.000128163
-0.00069175
0.000267041
-0.00123289
0.000433672
-0.00177089
0.000609019
-0.00225941
0.000776662
-0.00266766
0.000925429
-0.0029835
0.00104991
-0.00321017
0.00114943
-0.0033604
0.00122638
-0.00345071
0.00128468
-0.00349739
0.00132853
-0.00351432
0.00136177
-0.00351222
0.00138752
-0.0034988
0.00140813
-0.00347923
0.0014253
-0.00345688
0.0014402
-0.00343383
0.00145365
-0.00341135
0.00146618
-0.00339022
-0.00337096
0.00147813
3.68879e-05
-0.000236745
0.000133564
-0.000788426
0.000273425
-0.00137275
0.000436408
-0.00193388
0.000602659
-0.00242566
0.000756564
-0.00282157
0.00088874
-0.00311567
0.000995745
-0.00331717
0.0010785
-0.00344316
0.00114042
-0.00351262
0.00118582
-0.00354279
0.00121892
-0.00354742
0.00124328
-0.00353659
0.00126165
-0.00351717
0.00127601
-0.00349359
0.00128774
-0.0034686
0.00129775
-0.00344384
0.00130667
-0.00342027
0.00131491
-0.00339846
-0.00337877
0.00132271
3.87789e-05
-0.000275524
0.000137585
-0.000887232
0.000276644
-0.00151181
0.000433893
-0.00209113
0.000589249
-0.00258102
0.000728371
-0.00296069
0.000843823
-0.00323112
0.000934019
-0.00340737
0.00100122
-0.00351035
0.00104953
-0.00356094
0.00108348
-0.00357673
0.00110709
-0.00357103
0.00112358
-0.00355308
0.00113533
-0.00352891
0.00114396
-0.00350222
0.00115056
-0.00347521
0.00115586
-0.00344914
0.00116035
-0.00342475
0.00116431
-0.00340243
-0.00338241
0.00116796
4.03083e-05
-0.000315832
0.000140102
-0.000987026
0.000276614
-0.00164832
0.000426273
-0.00224078
0.000569333
-0.00272408
0.000693069
-0.00308443
0.000792027
-0.00333008
0.000866292
-0.00348163
0.000919172
-0.00356323
0.000955224
-0.00359699
0.000978941
-0.00360045
0.000994085
-0.00358617
0.0010035
-0.00356249
0.00100916
-0.00353458
0.00101241
-0.00350547
0.0010141
-0.0034769
0.0010148
-0.00344984
0.00101487
-0.00342483
0.00101455
-0.00340211
-0.00338185
0.001014
4.14359e-05
-0.000357268
0.000141046
-0.00108664
0.000273361
-0.00178063
0.000413844
-0.00238127
0.000543588
-0.00285382
0.000651707
-0.00319255
0.000734667
-0.00341304
0.000793985
-0.00354095
0.000833749
-0.003603
0.000858728
-0.00362197
0.000873251
-0.00361497
0.000880738
-0.00359366
0.000883643
-0.0035654
0.000883613
-0.00353455
0.000881711
-0.00350356
0.000878608
-0.0034738
0.000874742
-0.00344597
0.0008704
-0.00342048
0.000865763
-0.00339747
-0.00337704
0.000860947
4.21184e-05
-0.000399387
0.000140364
-0.00118488
0.000266957
-0.00190723
0.000396957
-0.00251127
0.000512706
-0.00296957
0.000605269
-0.00328511
0.000672896
-0.00348067
0.000718283
-0.00358634
0.000746046
-0.00363076
0.000760982
-0.00363691
0.000767157
-0.00362115
0.000767614
-0.00359412
0.00076444
-0.00356222
0.00075898
-0.00352909
0.000752071
-0.00349665
0.000744237
-0.00346596
0.000735815
-0.00343755
0.000727032
-0.0034117
0.000718032
-0.00338847
-0.00336791
0.000708905
4.23362e-05
-0.000441723
0.000138072
-0.00128062
0.000257588
-0.00202674
0.000376076
-0.00262976
0.00047745
-0.00307095
0.000554744
-0.0033624
0.0006078
-0.00353372
0.000640247
-0.00361878
0.000657012
-0.00364753
0.000662774
-0.00364267
0.000661275
-0.00361965
0.000655177
-0.00358802
0.000646228
-0.00355328
0.000635512
-0.00351837
0.000623681
-0.00348482
0.000611139
-0.00345342
0.000598149
-0.00342456
0.00058489
-0.00339844
0.00057148
-0.00337506
-0.00335442
0.000557992
4.20766e-05
-0.0004838
0.000134214
-0.00137276
0.000245478
-0.00213801
0.00035169
-0.00273597
0.000438557
-0.00315781
0.000501023
-0.00342487
0.000540314
-0.00357302
0.000560754
-0.00363922
0.000567396
-0.00365417
0.000564705
-0.00363998
0.000556059
-0.003611
0.000543758
-0.00357572
0.000529247
-0.00353876
0.000513386
-0.00350251
0.000496676
-0.00346811
0.000479427
-0.00343617
0.000461845
-0.00340698
0.000444074
-0.00338067
0.000426211
-0.0033572
-0.00333653
0.000408319
4.13377e-05
-0.000525137
0.000128868
-0.00146029
0.000230895
-0.00224003
0.000324302
-0.00282937
0.000396728
-0.00323024
0.00044491
-0.00347305
0.00047124
-0.00359935
0.000480523
-0.00364851
0.000477796
-0.00365144
0.000467235
-0.00362942
0.000451851
-0.00359562
0.000433604
-0.00355747
0.000413673
-0.00351883
0.000392732
-0.00348157
0.000371163
-0.00344655
0.000349196
-0.0034142
0.000326994
-0.00338478
0.000304675
-0.00335835
0.000282322
-0.00333485
-0.0033142
0.000259992
4.01277e-05
-0.000565265
0.000122136
-0.00154229
0.000214126
-0.00233202
0.000294409
-0.00290966
0.000352609
-0.00328844
0.000387112
-0.00350755
0.000401255
-0.00361349
0.000400143
-0.0036474
0.000388682
-0.00363998
0.000370719
-0.00361146
0.000348906
-0.0035738
0.000324894
-0.00353346
0.000299636
-0.00349358
0.000273653
-0.00345558
0.000247226
-0.00342012
0.000220526
-0.0033875
0.000193676
-0.00335793
0.000166776
-0.00333145
0.000139902
-0.00330797
-0.00328741
0.000113107
3.84634e-05
-0.000603728
0.000114141
-0.00161797
0.000195472
-0.00241335
0.000262485
-0.00297667
0.000306789
-0.00333274
0.000328242
-0.00352901
0.000330926
-0.00361617
0.000320088
-0.00363656
0.000300422
-0.00362031
0.000275428
-0.00358646
0.000247415
-0.00354579
0.000217763
-0.00350381
0.000187236
-0.00346305
0.000156226
-0.00342457
0.000124936
-0.00338883
9.34823e-05
-0.00335605
6.19592e-05
-0.0033264
3.04506e-05
-0.00329994
-9.7045e-07
-0.00327655
-0.00325613
-3.22502e-05
3.63693e-05
-0.000640098
0.000105018
-0.00168662
0.000175232
-0.00248357
0.000228976
-0.00303041
0.000259792
-0.00336356
0.000268827
-0.00353804
0.000260722
-0.00360807
0.000240741
-0.00361658
0.000213307
-0.00359288
0.00018157
-0.00355472
0.000147524
-0.00351174
0.000112315
-0.0034686
7.65473e-05
-0.00342728
4.05136e-05
-0.00338854
4.34748e-06
-0.00335266
-3.18776e-05
-0.00331982
-6.80967e-05
-0.00329019
-0.000104238
-0.0032638
-0.000140227
-0.00324056
-0.00322035
-0.000176004
3.38761e-05
-0.000673974
9.49088e-05
-0.00174765
0.000153697
-0.00254236
0.000194294
-0.00307101
0.000212081
-0.00338135
0.000209315
-0.00353528
0.000191031
-0.00358978
0.000162409
-0.00358795
0.000127565
-0.00355804
8.93077e-05
-0.00351647
4.9346e-05
-0.00347178
8.62767e-06
-0.00342788
-3.23705e-05
-0.00338628
-7.34377e-05
-0.00334747
-0.000114495
-0.0033116
-0.00015551
-0.00327881
-0.000196445
-0.00324925
-0.000237239
-0.00322301
-0.000277811
-0.00319999
-0.00318007
-0.000318092
3.10193e-05
-0.000704993
8.396e-05
-0.00180059
0.000131144
-0.00258954
0.00015881
-0.00309868
0.000164061
-0.0033866
0.000150088
-0.0035213
0.000122176
-0.00356187
8.53442e-05
-0.00355112
4.3383e-05
-0.00351607
-1.22586e-06
-0.00347186
-4.70244e-05
-0.00342598
-9.32313e-05
-0.00338167
-0.00013947
-0.00334005
-0.000185591
-0.00330135
-0.000231562
-0.00326563
-0.000277387
-0.00323298
-0.000323058
-0.00320358
-0.000368522
-0.00317754
-0.00041369
-0.00315482
-0.00313528
-0.000458477
2.78384e-05
-0.000732831
7.23174e-05
-0.00184507
0.000107838
-0.00262506
0.000122863
-0.0031137
0.000116089
-0.00337982
9.14714e-05
-0.00349668
5.44289e-05
-0.00352483
9.75805e-06
-0.00350645
-3.90823e-05
-0.00346723
-8.99151e-05
-0.00342103
-0.000141503
-0.00337439
-0.000193201
-0.00332998
-0.000244708
-0.00328854
-0.000295919
-0.00325014
-0.000346836
-0.00321472
-0.0003975
-0.00318232
-0.000447932
-0.00315315
-0.000498095
-0.00312738
-0.000547882
-0.00310504
-0.00308598
-0.000597184
2.43754e-05
-0.000757207
6.01245e-05
-0.00188082
8.40212e-05
-0.00264896
8.6757e-05
-0.00311644
6.84745e-05
-0.00336154
3.37468e-05
-0.00346196
-1.19787e-05
-0.00347911
-6.41665e-05
-0.00345426
-0.000119689
-0.00341171
-0.000176649
-0.00336406
-0.000234003
-0.00331704
-0.000291216
-0.00327276
-0.00034804
-0.00323171
-0.000404396
-0.00319379
-0.00046031
-0.0031588
-0.000515858
-0.00312677
-0.000571098
-0.00309791
-0.000626011
-0.00307247
-0.000680473
-0.00305057
-0.00303212
-0.000734337
2.06743e-05
-0.000777881
4.75205e-05
-0.00190767
5.99226e-05
-0.00266136
5.07646e-05
-0.00310728
2.14929e-05
-0.00333227
-2.28403e-05
-0.00341762
-7.68406e-05
-0.0034251
-0.000136261
-0.00339484
-0.000198297
-0.00334968
-0.00026131
-0.00330105
-0.000324424
-0.00325393
-0.000387192
-0.00320999
-0.000449403
-0.0031695
-0.000510985
-0.0031322
-0.000571976
-0.00309781
-0.000632478
-0.00306627
-0.000692597
-0.00303779
-0.000752348
-0.00301272
-0.000811592
-0.00299133
-0.00297359
-0.000870116
1.67804e-05
-0.000794662
3.46397e-05
-0.00192553
3.57522e-05
-0.00266247
1.51327e-05
-0.00308666
-2.46112e-05
-0.00329253
-7.80697e-05
-0.00336416
-0.000139967
-0.00336321
-0.000206362
-0.00332845
-0.000274759
-0.00328128
-0.00034376
-0.00323205
-0.000412636
-0.00318505
-0.000481015
-0.00314161
-0.000548705
-0.00310181
-0.000615628
-0.00306528
-0.000681809
-0.00303163
-0.000747368
-0.00300071
-0.000812463
-0.00297269
-0.000877161
-0.00294802
-0.000941321
-0.00292717
-0.0029103
-0.00100462
1.27392e-05
-0.000807401
2.161e-05
-0.0019344
1.17042e-05
-0.00265257
-1.99158e-05
-0.00305504
-6.96179e-05
-0.00324282
-0.00013174
-0.00330204
-0.000201177
-0.00329377
-0.0002743
-0.00325533
-0.000348912
-0.00320667
-0.000423832
-0.00315713
-0.000498469
-0.00311041
-0.000572518
-0.00306757
-0.000645803
-0.00302853
-0.00071822
-0.00299286
-0.000789758
-0.00296009
-0.000860526
-0.00292994
-0.000930721
-0.0029025
-0.00100048
-0.00287826
-0.00106968
-0.00285797
-0.00284214
-0.00113784
8.59654e-06
-0.000815997
8.55284e-06
-0.00193435
-1.20433e-05
-0.00263197
-5.41792e-05
-0.0030129
-0.000113328
-0.00318368
-0.000183666
-0.0032317
-0.000260294
-0.00321714
-0.000339899
-0.00317572
-0.000420565
-0.003126
-0.000501316
-0.00307638
-0.000581691
-0.00303004
-0.000661459
-0.0029878
-0.000740462
-0.00294953
-0.00081857
-0.00291475
-0.000895713
-0.00288295
-0.000971942
-0.00285371
-0.00104746
-0.00282698
-0.00112249
-0.00280323
-0.00119692
-0.00278354
-0.00276887
-0.0012702
4.39709e-06
-0.000820394
-4.4184e-06
-0.00192554
-3.5328e-05
-0.00260106
-8.74764e-05
-0.00296076
-0.000155561
-0.00311559
-0.000233671
-0.00315359
-0.000317142
-0.00313367
-0.000402969
-0.00308989
-0.000489503
-0.00303947
-0.000575959
-0.00298992
-0.000662007
-0.00294399
-0.0007475
-0.0029023
-0.000832325
-0.0028647
-0.000916347
-0.00283073
-0.000999431
-0.00279987
-0.00108154
-0.0027716
-0.00116285
-0.00274567
-0.00124367
-0.00272241
-0.00132398
-0.00270323
-0.00268935
-0.00140349
1.84008e-07
-0.000820578
-1.7199e-05
-0.00190816
-5.80042e-05
-0.00256026
-0.000119646
-0.00289911
-0.000196155
-0.00303908
-0.000281593
-0.00306816
-0.000371548
-0.00304372
-0.000463312
-0.00299813
-0.000555485
-0.00294729
-0.000647465
-0.00289795
-0.000739053
-0.0028524
-0.000830208
-0.00281115
-0.000920904
-0.00277401
-0.00101105
-0.00274059
-0.00110049
-0.00271042
-0.00118912
-0.00268298
-0.00127704
-0.00265775
-0.0013647
-0.00263474
-0.00145233
-0.0026156
-0.00260102
-0.00154067
-4.00223e-06
-0.000816576
-2.96949e-05
-0.00188246
-7.99445e-05
-0.00251001
-0.000150551
-0.00282851
-0.00023497
-0.00295466
-0.000327288
-0.00297584
-0.000423346
-0.00294766
-0.000520722
-0.00290075
-0.000618241
-0.00284978
-0.000715471
-0.00280072
-0.00081235
-0.00275552
-0.000908971
-0.00271453
-0.00100545
-0.00267752
-0.00110186
-0.00264418
-0.00119814
-0.00261414
-0.0012942
-0.00258693
-0.00139004
-0.00256191
-0.00148607
-0.00253871
-0.00158292
-0.00251876
-0.0025005
-0.00168343
-8.12476e-06
-0.000808451
-4.18242e-05
-0.00184876
-0.000101042
-0.00245079
-0.000180077
-0.00274947
-0.000271897
-0.00286284
-0.00037064
-0.0028771
-0.0004724
-0.0028459
-0.000575013
-0.00279814
-0.000677502
-0.00274729
-0.000779576
-0.00269864
-0.000881288
-0.00265381
-0.000982864
-0.00261295
-0.00108461
-0.00257578
-0.00118688
-0.00254192
-0.00128999
-0.00251103
-0.00139417
-0.00248274
-0.00149958
-0.0024565
-0.00160686
-0.00243144
-0.00171855
-0.00240707
-0.00239688
-0.00182216
-1.21376e-05
-0.000796314
-5.34965e-05
-0.0018074
-0.000121188
-0.0023831
-0.000208117
-0.00266254
-0.000306833
-0.00276413
-0.000411553
-0.00277238
-0.000518608
-0.00273884
-0.00062606
-0.00269069
-0.000733091
-0.00264025
-0.000839498
-0.00259223
-0.000945382
-0.00254793
-0.001051
-0.00250733
-0.00115673
-0.00247005
-0.00126307
-0.00243558
-0.00137072
-0.00240338
-0.00148058
-0.00237288
-0.00159356
-0.00234351
-0.00171
-0.002315
-0.00183084