/*--------------------------------*- C++ -*----------------------------------*\
  =========                 |
  \\      /  F ield         | OpenFOAM: The Open Source CFD Toolbox
   \\    /   O peration     | Website:  https://openfoam.org
    \\  /    A nd           | Version:  6.0
     \\/     M anipulation  |
\*---------------------------------------------------------------------------*/
FoamFile
{
    version     2.0;
    format      ascii;
    class       surfaceScalarField;
    location    "57";
    object      phi;
}
// * * * * * * * * * * * * * * * * * * * * * * * * * * * * * * * * * * * * * //

dimensions      [0 3 -1 0 0 0 0];

internalField   nonuniform List<scalar> 
24700
(
-1.65981e-06
-9.94939e-06
1.16092e-05
-5.93121e-06
-2.03843e-05
2.46557e-05
-1.22161e-05
-2.41587e-05
3.04436e-05
-2.00015e-05
-2.33446e-05
3.113e-05
-2.88526e-05
-1.94995e-05
2.83506e-05
-3.84046e-05
-1.37514e-05
2.33033e-05
-4.83534e-05
-6.88443e-06
1.68333e-05
-5.84484e-05
5.85815e-07
9.50914e-06
-6.8485e-05
8.3477e-06
1.68894e-06
-7.82998e-05
1.62385e-05
-6.4237e-06
-8.77662e-05
2.41998e-05
-1.47334e-05
-9.67911e-05
3.22416e-05
-2.32166e-05
-0.000105314
4.04158e-05
-3.18933e-05
-0.000113303
4.87955e-05
-4.08066e-05
-0.000120756
5.7461e-05
-5.00078e-05
-0.000127699
6.64899e-05
-5.95468e-05
-0.000134183
7.59504e-05
-6.94659e-05
-0.000140285
8.58974e-05
-7.97956e-05
-0.000146102
9.63699e-05
-9.05529e-05
-0.000151751
0.00010739
-0.000101741
-0.000157364
0.00011896
-0.000113347
-0.000163084
0.000131065
-0.000125345
-0.00016906
0.00014367
-0.000137694
-0.00017544
0.000156721
-0.000150341
0.000170156
-0.000163223
-0.000182373
-1.62389e-06
-8.3255e-06
-5.7886e-06
-1.62196e-05
-1.18931e-05
-1.80542e-05
-1.94214e-05
-1.58163e-05
-2.79365e-05
-1.09844e-05
-3.70712e-05
-4.61671e-06
-4.6519e-05
2.56335e-06
-5.60259e-05
1.00928e-05
-6.53838e-05
1.77055e-05
-7.44241e-05
2.52789e-05
-8.30147e-05
3.27904e-05
-9.10565e-05
4.02834e-05
-9.84817e-05
4.78411e-05
-0.000105253
5.55667e-05
-0.000111362
6.35698e-05
-0.000116828
7.19566e-05
-0.000121701
8.08229e-05
-0.000126053
9.02497e-05
-0.000129984
0.0001003
-0.000133613
0.000111019
-0.000137078
0.000122426
-0.000140533
0.00013452
-0.000144139
0.000147276
-0.00014806
0.000160642
0.000174556
-0.00015246
-1.59145e-06
-6.73405e-06
-5.65591e-06
-1.21551e-05
-1.15873e-05
-1.21228e-05
-1.88655e-05
-8.5381e-06
-2.70501e-05
-2.7998e-06
-3.57707e-05
4.10396e-06
-4.47176e-05
1.15102e-05
-5.36322e-05
1.90074e-05
-6.23007e-05
2.6374e-05
-7.05477e-05
3.35259e-05
-7.8233e-05
4.04756e-05
-8.5248e-05
4.72984e-05
-9.15151e-05
5.41082e-05
-9.69865e-05
6.10381e-05
-0.000101644
6.82273e-05
-0.000105499
7.58115e-05
-0.000108592
8.3916e-05
-0.000110993
9.26507e-05
-0.000112799
0.000102107
-0.000114134
0.000112353
-0.000115142
0.000123434
-0.000115991
0.000135369
-0.000116858
0.000148143
-0.000117931
0.000161715
0.000176023
-0.000119397
-1.56587e-06
-5.16819e-06
-5.54457e-06
-8.17644e-06
-1.13217e-05
-6.34567e-06
-1.83709e-05
-1.48889e-06
-2.62473e-05
5.0766e-06
-3.45766e-05
1.24333e-05
-4.30444e-05
1.9978e-05
-5.13869e-05
2.735e-05
-5.93832e-05
3.43702e-05
-6.68491e-05
4.09919e-05
-7.36337e-05
4.72601e-05
-7.96163e-05
5.32811e-05
-8.47059e-05
5.91978e-05
-8.88405e-05
6.51726e-05
-9.19878e-05
7.13746e-05
-9.41462e-05
7.797e-05
-9.53456e-05
8.51153e-05
-9.56476e-05
9.29527e-05
-9.51462e-05
0.000101605
-9.39666e-05
0.000111173
-9.22632e-05
0.000121731
-9.02163e-05
0.000133322
-8.80277e-05
0.000145954
-8.59138e-05
0.000159601
0.000174206
-8.40972e-05
-1.54992e-06
-3.61828e-06
-5.4638e-06
-4.26255e-06
-1.11147e-05
-6.94787e-07
-1.79677e-05
5.36417e-06
-2.55722e-05
1.26811e-05
-3.35491e-05
2.04101e-05
-4.15788e-05
2.80077e-05
-4.93914e-05
3.51626e-05
-5.67578e-05
4.17366e-05
-6.34838e-05
4.77178e-05
-6.94056e-05
5.3182e-05
-7.43879e-05
5.82634e-05
-7.83227e-05
6.31326e-05
-8.11301e-05
6.798e-05
-8.27593e-05
7.30038e-05
-8.31909e-05
7.84016e-05
-8.24391e-05
8.43635e-05
-8.05535e-05
9.10672e-05
-7.76213e-05
9.8673e-05
-7.37673e-05
0.000107319
-6.91538e-05
0.000117118
-6.39785e-05
0.000128146
-5.847e-05
0.000140446
-5.28819e-05
0.000154013
0.000168806
-4.74813e-05
-1.54551e-06
-2.07277e-06
-5.42003e-06
-3.88031e-07
-1.09792e-05
4.86441e-06
-1.76773e-05
1.20622e-05
-2.50563e-05
2.00602e-05
-3.27319e-05
2.80856e-05
-4.03791e-05
3.5655e-05
-4.77216e-05
4.25051e-05
-5.45219e-05
4.85369e-05
-6.05745e-05
5.37704e-05
-6.57017e-05
5.83092e-05
-6.97511e-05
6.23128e-05
-7.25949e-05
6.59764e-05
-7.41312e-05
6.95163e-05
-7.42861e-05
7.31588e-05
-7.30173e-05
7.71328e-05
-7.03176e-05
8.16638e-05
-6.62191e-05
8.69687e-05
-6.07969e-05
9.32509e-05
-5.4172e-05
0.000100694
-4.65129e-05
0.000109458
-3.80349e-05
0.000119668
-2.8998e-05
0.000131409
-1.97003e-05
0.000144716
0.000159571
-1.04655e-05
-1.55364e-06
-5.19134e-07
-5.41647e-06
3.4748e-06
-1.09218e-05
1.03697e-05
-1.75102e-05
1.86507e-05
-2.47157e-05
2.72657e-05
-3.21481e-05
3.5518e-05
-3.94777e-05
4.29846e-05
-4.64219e-05
4.94493e-05
-5.2735e-05
5.485e-05
-5.82005e-05
5.92359e-05
-6.26259e-05
6.27346e-05
-6.58402e-05
6.55271e-05
-6.76935e-05
6.78297e-05
-6.80585e-05
6.98812e-05
-6.68335e-05
7.19338e-05
-6.39475e-05
7.42468e-05
-5.93655e-05
7.70818e-05
-5.30949e-05
8.06981e-05
-4.51922e-05
8.53481e-05
-3.57686e-05
9.12709e-05
-2.49948e-05
9.86846e-05
-1.31035e-05
0.000107777
-3.88447e-07
0.000118694
1.27995e-05
0.000131528
0.000146304
2.60662e-05
-1.57416e-06
1.05502e-06
-5.45257e-06
7.35321e-06
-1.09413e-05
1.58584e-05
-1.74651e-05
2.51745e-05
-2.45489e-05
3.43495e-05
-3.17972e-05
4.27664e-05
-3.88761e-05
5.00634e-05
-4.54979e-05
5.60712e-05
-5.14101e-05
6.07622e-05
-5.63857e-05
6.42115e-05
-6.0218e-05
6.65669e-05
-6.27172e-05
6.80262e-05
-6.37097e-05
6.88222e-05
-6.304e-05
6.92115e-05
-6.05745e-05
6.94684e-05
-5.62077e-05
6.988e-05
-4.98694e-05
7.07435e-05
-4.15342e-05
7.23629e-05
-3.12311e-05
7.5045e-05
-1.90534e-05
7.90931e-05
-5.16753e-06
8.47988e-05
1.01802e-05
9.24294e-05
2.66601e-05
0.000102214
4.3861e-05
0.000114327
0.000128862
6.13029e-05
-1.60578e-06
2.6608e-06
-5.52392e-06
1.12714e-05
-1.10288e-05
2.13632e-05
-1.75274e-05
3.16731e-05
-2.45353e-05
4.13574e-05
-3.16522e-05
4.98832e-05
-3.85411e-05
5.69523e-05
-4.49114e-05
6.24415e-05
-5.05054e-05
6.63561e-05
-5.5088e-05
6.87941e-05
-5.84397e-05
6.99186e-05
-6.0353e-05
6.99395e-05
-6.06307e-05
6.90998e-05
-5.90877e-05
6.76685e-05
-5.55552e-05
6.59359e-05
-4.9888e-05
6.42127e-05
-4.19733e-05
6.28289e-05
-3.17436e-05
6.21332e-05
-1.91897e-05
6.2491e-05
-4.37578e-06
6.42793e-05
1.25455e-05
6.78775e-05
3.13208e-05
7.36541e-05
5.15857e-05
8.19489e-05
7.28616e-05
9.30508e-05
0.000107159
9.45652e-05
-1.64605e-06
4.30684e-06
-5.62216e-06
1.52475e-05
-1.11674e-05
2.69085e-05
-1.76696e-05
3.81754e-05
-2.46347e-05
4.83225e-05
-3.16584e-05
5.69069e-05
-3.84026e-05
6.36965e-05
-4.45759e-05
6.86148e-05
-4.99184e-05
7.16986e-05
-5.41898e-05
7.30655e-05
-5.71611e-05
7.289e-05
-5.86096e-05
7.1388e-05
-5.83164e-05
6.88066e-05
-5.60673e-05
6.54194e-05
-5.16572e-05
6.15258e-05
-4.48971e-05
5.74526e-05
-3.56254e-05
5.35572e-05
-2.37225e-05
5.02303e-05
-9.12903e-06
4.78975e-05
8.1335e-06
4.70167e-05
2.79402e-05
4.80708e-05
5.00412e-05
5.15531e-05
7.40425e-05
5.79476e-05
9.93929e-05
6.77004e-05
8.11645e-05
0.000125387
-1.69141e-06
5.99825e-06
-5.73525e-06
1.92913e-05
-1.13327e-05
3.25059e-05
-1.78513e-05
4.4694e-05
-2.47874e-05
5.52587e-05
-3.17338e-05
6.38534e-05
-3.8353e-05
7.03157e-05
-4.43555e-05
7.46173e-05
-4.94824e-05
7.68256e-05
-5.34924e-05
7.70754e-05
-5.61512e-05
7.55488e-05
-5.72255e-05
7.24622e-05
-5.64786e-05
6.80597e-05
-5.36705e-05
6.26114e-05
-4.8561e-05
5.64163e-05
-4.09163e-05
4.98079e-05
-3.05214e-05
4.31623e-05
-1.71965e-05
3.69054e-05
-8.19423e-07
3.15205e-05
1.86468e-05
2.75505e-05
4.11225e-05
2.5595e-05
6.63776e-05
2.62981e-05
9.39987e-05
3.03264e-05
0.000123361
3.83379e-05
5.09078e-05
0.000153618
-1.73743e-06
7.73568e-06
-5.84807e-06
2.34019e-05
-1.14937e-05
3.81515e-05
-1.8021e-05
5.12213e-05
-2.49167e-05
6.21543e-05
-3.17713e-05
7.0708e-05
-3.82497e-05
7.6794e-05
-4.40666e-05
8.04342e-05
-4.89678e-05
8.17268e-05
-5.27151e-05
8.08228e-05
-5.50746e-05
7.79083e-05
-5.5808e-05
7.31956e-05
-5.46676e-05
6.69193e-05
-5.13934e-05
5.93373e-05
-4.57151e-05
5.0738e-05
-3.73572e-05
4.145e-05
-2.60505e-05
3.18555e-05
-1.15498e-05
2.24048e-05
6.34036e-06
1.36303e-05
2.77321e-05
6.15878e-06
5.26113e-05
7.15779e-07
8.07898e-05
-1.88033e-06
0.000111853
-7.36557e-07
0.000145108
5.08277e-06
1.6467e-05
0.000179549
-1.779e-06
9.51469e-06
-5.94318e-06
2.75661e-05
-1.16146e-05
4.3823e-05
-1.81186e-05
5.77252e-05
-2.4932e-05
6.89677e-05
-3.16433e-05
7.74193e-05
-3.79204e-05
8.30711e-05
-4.34843e-05
8.5998e-05
-4.80884e-05
8.63309e-05
-5.15018e-05
8.42362e-05
-5.34964e-05
7.99029e-05
-5.38364e-05
7.35356e-05
-5.22709e-05
6.53538e-05
-4.85295e-05
5.55958e-05
-4.23206e-05
4.45291e-05
-3.33349e-05
3.24644e-05
-2.12545e-05
1.97752e-05
-5.76943e-06
6.91965e-06
1.33954e-05
-5.53453e-06
3.64408e-05
-1.68866e-05
6.34405e-05
-2.62839e-05
9.42751e-05
-3.2715e-05
0.000128556
-3.50171e-05
0.000165538
-3.18993e-05
-2.20396e-05
0.000204044
-1.81073e-06
1.13254e-05
-6.00202e-06
3.17574e-05
-1.16569e-05
4.94779e-05
-1.80789e-05
6.41472e-05
-2.47341e-05
7.56229e-05
-3.12082e-05
8.38935e-05
-3.7172e-05
8.90349e-05
-4.23531e-05
9.11791e-05
-4.65141e-05
9.0492e-05
-4.9435e-05
8.7157e-05
-5.08983e-05
8.13661e-05
-5.06777e-05
7.33151e-05
-4.85288e-05
6.32049e-05
-4.41818e-05
5.12488e-05
-3.73374e-05
3.76846e-05
-2.76663e-05
2.27932e-05
-1.48142e-05
6.92306e-06
1.58456e-06
-9.47906e-06
2.18818e-05
-2.58318e-05
4.63747e-05
-4.13795e-05
7.52437e-05
-5.5153e-05
0.000108469
-6.59404e-05
0.000145724
-7.22717e-05
0.000186242
-7.24173e-05
-6.44739e-05
0.000228676
-1.82732e-06
1.31527e-05
-6.00607e-06
3.59362e-05
-1.15818e-05
5.50536e-05
-1.78354e-05
7.04008e-05
-2.42207e-05
8.20082e-05
-3.03187e-05
8.99915e-05
-3.5801e-05
9.45172e-05
-4.04008e-05
9.57789e-05
-4.38895e-05
9.39807e-05
-4.6059e-05
8.93265e-05
-4.67058e-05
8.2013e-05
-4.56192e-05
7.22285e-05
-4.25701e-05
6.01558e-05
-3.7302e-05
4.59807e-05
-2.95238e-05
2.99065e-05
-1.89055e-05
1.21749e-05
-5.07727e-06
-6.90513e-06
1.23623e-05
-2.69186e-05
3.38273e-05
-4.72968e-05
5.97062e-05
-6.72583e-05
9.02968e-05
-8.57435e-05
0.000125707
-0.000101351
0.000165718
-0.000112282
0.000209589
-0.000116288
-0.00011071
0.000255825
-1.82398e-06
1.49767e-05
-5.93821e-06
4.00504e-05
-1.13526e-05
6.0468e-05
-1.73245e-05
7.63727e-05
-2.3293e-05
8.79767e-05
-2.88309e-05
9.55294e-05
-3.36068e-05
9.92932e-05
-3.73559e-05
9.95279e-05
-3.98558e-05
9.64806e-05
-4.09086e-05
9.03793e-05
-4.03255e-05
8.14299e-05
-3.79142e-05
6.98172e-05
-3.3468e-05
5.57095e-05
-2.67553e-05
3.9268e-05
-1.75105e-05
2.06617e-05
-5.42506e-06
8.94489e-08
9.85794e-06
-2.21881e-05
2.87449e-05
-4.58056e-05
5.16819e-05
-7.02338e-05
7.91262e-05
-9.47027e-05
0.000111487
-0.000118104
0.000149018
-0.000138883
0.000191655
-0.000154919
0.000238753
-0.000163386
-0.000160679
0.000288722
-1.79678e-06
1.67735e-05
-5.78381e-06
4.40374e-05
-1.09374e-05
6.56215e-05
-1.64898e-05
8.19252e-05
-2.18617e-05
9.33486e-05
-2.66128e-05
0.00010028
-3.04035e-05
0.000103084
-3.29649e-05
0.000102089
-3.40751e-05
9.75908e-05
-3.35417e-05
8.98459e-05
-3.11873e-05
7.90754e-05
-2.68375e-05
6.54674e-05
-2.03111e-05
4.91831e-05
-1.14095e-05
3.03665e-05
9.26045e-08
9.15953e-06
1.44589e-05
-1.42769e-05
3.2002e-05
-3.97312e-05
5.30928e-05
-6.68964e-05
7.81637e-05
-9.53047e-05
0.000107697
-0.000124236
0.000142181
-0.000152588
0.000182014
-0.000178716
0.000227324
-0.000200229
0.000277647
-0.000213709
-0.000214425
0.000331393
-1.74288e-06
1.85164e-05
-5.53157e-06
4.78261e-05
-1.03103e-05
7.04003e-05
-1.52843e-05
8.68992e-05
-1.98512e-05
9.79155e-05
-2.35516e-05
0.000103981
-2.60304e-05
0.000105563
-2.70067e-05
0.000103066
-2.6251e-05
9.68352e-05
-2.35685e-05
8.71634e-05
-1.87859e-05
7.42928e-05
-1.17418e-05
5.84233e-05
-2.27827e-06
3.97195e-05
9.76721e-06
1.8321e-05
2.45704e-05
-5.64365e-06
4.23311e-05
-3.20376e-05
6.3287e-05
-6.06871e-05
8.77296e-05
-9.13389e-05
0.000116021
-0.000123596
0.000148602
-0.000156817
0.000185979
-0.000189966
0.000228658
-0.000221394
0.000276971
-0.000248542
0.000330721
-0.000267459
-0.000272172
0.000388469
-1.66067e-06
2.01771e-05
-5.1738e-06
5.13392e-05
-9.45246e-06
7.46789e-05
-1.3672e-05
9.11188e-05
-1.7202e-05
0.000101445
-1.9557e-05
0.000106336
-2.03579e-05
0.000106364
-1.93024e-05
0.00010201
-1.61433e-05
9.36761e-05
-1.06728e-05
8.16929e-05
-2.71176e-06
6.63318e-05
7.89776e-06
4.78138e-05
2.12976e-05
2.63197e-05
3.7618e-05
2.00061e-06
5.69831e-05
-2.50087e-05
7.95185e-05
-5.4573e-05
0.000105364
-8.65326e-05
0.000134692
-0.000120667
0.000167735
-0.000156639
0.000204814
-0.000193896
0.000246362
-0.000231513
0.000292905
-0.000267938
0.000344947
-0.000300584
0.000402624
-0.000325136
-0.000334387
0.000464838
-1.54967e-06
2.17267e-05
-4.70628e-06
5.44958e-05
-8.35159e-06
7.83242e-05
-1.16278e-05
9.4395e-05
-1.38706e-05
0.000103688
-1.45614e-05
0.000107027
-1.3288e-05
0.00010509
-9.71692e-06
9.84389e-05
-3.57188e-06
8.7531e-05
5.37954e-06
7.27414e-05
1.73346e-05
5.43767e-05
3.24597e-05
3.26888e-05
5.08919e-05
7.88749e-06
7.27391e-05
-1.98466e-05
9.80799e-05
-5.03496e-05
0.000126966
-8.34592e-05
0.00015943
-0.000118996
0.000195499
-0.000156736
0.000235227
-0.000196366
0.000278735
-0.000237404
0.000326272
-0.000279051
0.000378258
-0.000319923
0.000435258
-0.000357584
0.000497746
-0.000387623
-0.000401815
0.000565174
-1.41027e-06
2.3137e-05
-4.12747e-06
5.7213e-05
-7.00063e-06
8.11974e-05
-9.13484e-06
9.65292e-05
-9.8266e-06
0.00010438
-8.5162e-06
0.000105716
-4.75022e-06
0.000101324
1.84634e-06
9.18424e-05
1.15893e-05
7.77881e-05
2.47472e-05
5.95835e-05
4.15475e-05
3.75764e-05
6.21779e-05
1.20583e-05
8.6784e-05
-1.67186e-05
0.000115464
-4.85269e-05
0.000148265
-8.31502e-05
0.000185175
-0.000120369
0.000226123
-0.000159945
0.00027099
-0.000201603
0.000319623
-0.000245
0.000371887
-0.000289667
0.000427736
-0.0003349
0.000487324
-0.000379511
0.000551091
-0.000421351
0.000619726
-0.000456259
-0.000475468
0.000693379
-1.24335e-06
2.43804e-05
-3.43742e-06
5.94071e-05
-5.39564e-06
8.31556e-05
-6.1818e-06
9.73153e-05
-5.0474e-06
0.000103246
-1.38501e-06
0.000102054
5.3082e-06
9.46311e-05
1.54571e-05
8.16934e-05
2.94264e-05
6.38188e-05
4.75304e-05
4.14795e-05
7.00368e-05
1.507e-05
9.71653e-05
-1.50701e-05
0.000129081
-4.86346e-05
0.000165888
-8.53334e-05
0.000207614
-0.000124876
0.000254202
-0.000166957
0.000305501
-0.000211244
0.000361257
-0.000257359
0.000421123
-0.000304865
0.000484685
-0.00035323
0.000551537
-0.000401753
0.000621409
-0.000449382
0.000694353
-0.000494295
0.000770962
-0.000532869
-0.000556583
0.000852076
-1.04985e-06
2.54302e-05
-2.63635e-06
6.09936e-05
-3.53318e-06
8.40525e-05
-2.75826e-06
9.65404e-05
4.87263e-07
0.0001
6.86457e-06
9.56765e-05
1.69324e-05
8.45633e-05
3.11721e-05
6.74537e-05
5.00036e-05
4.49873e-05
7.3793e-05
1.76902e-05
0.000102854
-1.3991e-05
0.000137444
-4.96598e-05
0.000177754
-8.89454e-05
0.000223902
-0.000131481
0.000275912
-0.000176886
0.000333701
-0.000224747
0.000397062
-0.000274605
0.000465648
-0.000325945
0.000538955
-0.000378172
0.000616329
-0.000430604
0.000696996
-0.000482419
0.000780167
-0.000532554
0.000865257
-0.000579384
0.000952265
-0.000619876
-0.000646987
0.00104267
-8.30278e-07
2.62605e-05
-1.72336e-06
6.18867e-05
-1.40785e-06
8.37369e-05
1.14892e-06
9.39837e-05
6.80103e-06
9.43481e-05
1.62682e-05
8.62093e-05
3.01697e-05
7.06618e-05
4.90469e-05
4.85765e-05
7.33773e-05
2.0657e-05
0.000103579
-1.25117e-05
0.000140011
-5.04229e-05
0.000182965
-9.2614e-05
0.000232658
-0.000138639
0.000289219
-0.000188042
0.000352673
-0.00024034
0.000422929
-0.000295002
0.000499758
-0.000351435
0.000582779
-0.000408965
0.000671426
-0.00046682
0.000764922
-0.000524099
0.000862242
-0.000579739
0.000962117
-0.000632429
0.00106312
-0.000680382
0.00116406
-0.000720823
-0.000749895
0.00126697
-5.84381e-07
2.68449e-05
-6.95333e-07
6.19977e-05
9.89708e-07
8.20519e-05
5.55869e-06
8.94147e-05
1.39249e-05
8.59818e-05
2.68701e-05
7.32641e-05
4.50755e-05
5.24564e-05
6.91424e-05
2.45095e-05
9.96023e-05
-9.80291e-06
0.000136919
-4.98283e-05
0.000181484
-9.49884e-05
0.000233612
-0.000144741
0.000293524
-0.000198551
0.000361345
-0.000255863
0.000437089
-0.000316083
0.000520653
-0.000378567
0.000611819
-0.000442601
0.000710246
-0.000507392
0.000815473
-0.000572048
0.000926917
-0.000635542
0.00104383
-0.000696654
0.00116522
-0.000753813
0.0012894
-0.00080457
0.00141262
-0.000844041
-0.000862762
0.00152549
-3.11336e-07
2.71562e-05
4.53025e-07
6.12333e-05
3.67313e-06
7.88318e-05
1.04964e-05
8.25914e-05
2.18984e-05
7.45799e-05
3.87234e-05
5.64391e-05
6.17134e-05
2.94665e-05
9.15236e-05
-5.30067e-06
0.000128729
-4.70082e-05
0.000173821
-9.49207e-05
0.000227203
-0.00014837
0.000289176
-0.000206714
0.000359931
-0.000269306
0.000439542
-0.000335474
0.000527962
-0.000404503
0.00062503
-0.000475634
0.000730485
-0.000548056
0.000844011
-0.000620918
0.000965293
-0.000693329
0.00109413
-0.000764381
0.00123064
-0.000833161
0.00137557
-0.000898746
0.00153113
-0.000960128
0.00170339
-0.0010163
-0.00106642
0.00190705
-7.96302e-09
2.71642e-05
1.73217e-06
5.94932e-05
6.66371e-06
7.39003e-05
1.5997e-05
7.32581e-05
3.07707e-05
5.98062e-05
5.18901e-05
3.53197e-05
8.01511e-05
1.20543e-06
0.000116251
-4.14005e-05
0.000160788
-9.1545e-05
0.000214254
-0.000148386
0.000277022
-0.000211138
0.000349334
-0.000279026
0.000431289
-0.000351262
0.000522839
-0.000427023
0.000623786
-0.000505451
0.000733803
-0.00058565
0.000852452
-0.000666706
0.000979235
-0.000747701
0.00111365
-0.000827748
0.0012553
-0.000906029
0.00140399
-0.000981846
0.00155992
-0.00105467
0.00172398
-0.00112419
0.00189791
-0.00119023
-0.00124957
0.00208106
3.28702e-07
2.68355e-05
3.15324e-06
5.66686e-05
9.98468e-06
6.70688e-05
2.20979e-05
6.11449e-05
4.05933e-05
4.13108e-05
6.6431e-05
9.48197e-06
0.000100449
-3.28121e-05
0.000143364
-8.43162e-05
0.00019577
-0.000143951
0.000258116
-0.000210732
0.000330694
-0.000283716
0.000413622
-0.000361954
0.000506831
-0.000444471
0.000610063
-0.000530256
0.000722879
-0.000618267
0.000844675
-0.000707447
0.000974717
-0.000796747
0.00111218
-0.000885164
0.00125621
-0.000971774
0.00140595
-0.00105578
0.00156066
-0.00113655
0.00171967
-0.00121368
0.00188245
-0.00128697
0.00204836
-0.00135614
-0.00141712
0.00221592
7.02951e-07
2.61325e-05
4.7302e-06
5.26414e-05
1.36629e-05
5.81362e-05
2.88395e-05
4.59683e-05
5.1417e-05
1.87333e-05
8.23989e-05
-2.14998e-05
0.000122644
-7.30575e-05
0.000172863
-0.000134535
0.000233597
-0.000204685
0.000305203
-0.000282338
0.000387826
-0.000366339
0.000481382
-0.000455511
0.000585555
-0.000548644
0.000699793
-0.000644494
0.000823328
-0.000741802
0.000955204
-0.000839323
0.00109432
-0.000935861
0.00123947
-0.00103031
0.0013894
-0.00112171
0.00154287
-0.00120924
0.00169863
-0.00129232
0.0018555
-0.00137055
0.00201227
-0.00144375
0.00216774
-0.00151161
-0.00157037
0.002321
1.11965e-06
2.50129e-05
6.47808e-06
4.7283e-05
1.77256e-05
4.68887e-05
3.62599e-05
2.7434e-05
6.32842e-05
-8.29094e-06
9.98267e-05
-5.80424e-05
0.00014674
-0.00011997
0.000204682
-0.000192477
0.000274095
-0.000274098
0.000355173
-0.000363415
0.000447837
-0.000459003
0.000551726
-0.0005594
0.000666193
-0.000663111
0.00079032
-0.000768621
0.000922951
-0.000874433
0.00106274
-0.000979113
0.00120821
-0.00108133
0.0013578
-0.0011799
0.00150993
-0.00127385
0.00166308
-0.00136239
0.00181576
-0.001445
0.00196658
-0.00152137
0.00211421
-0.00159138
0.00225745
-0.00165485
-0.00170878
0.00239586
1.58391e-06
2.3429e-05
8.41182e-06
4.04551e-05
2.2198e-05
3.31025e-05
4.43899e-05
5.24204e-06
7.62204e-05
-4.01215e-05
0.000118716
-0.000100538
0.000172681
-0.000173936
0.000238674
-0.00025847
0.000316965
-0.000352389
0.000407511
-0.000453962
0.000509933
-0.000561425
0.00062351
-0.000672977
0.000747195
-0.000786796
0.000879657
-0.000901082
0.00101933
-0.00101411
0.00116448
-0.00112427
0.00131331
-0.00123015
0.00146398
-0.00133057
0.00161474
-0.0014246
0.00176394
-0.00151159
0.00191008
-0.00159114
0.00205184
-0.00166313
0.00218808
-0.00172762
0.00231788
-0.00178466
-0.00183214
0.00244124
2.10076e-06
2.13282e-05
1.0545e-05
3.20109e-05
2.71003e-05
1.65472e-05
5.32484e-05
-2.09061e-05
9.02274e-05
-7.71005e-05
0.000139025
-0.000149335
0.000200348
-0.000235259
0.000274585
-0.000332707
0.000361764
-0.000439568
0.000461523
-0.00055372
0.000573098
-0.000673001
0.000695344
-0.000795223
0.00082677
-0.000918222
0.000965609
-0.00103992
0.00110991
-0.0011584
0.00125761
-0.00127197
0.00140667
-0.00137922
0.00155514
-0.00147904
0.00170123
-0.00157069
0.00184335
-0.00165371
0.0019802
-0.00172799
0.00211071
-0.00179364
0.00223409
-0.00185099
0.00234983
-0.0019004
-0.00194059
0.00245829
2.67477e-06
1.86534e-05
1.28884e-05
2.17972e-05
3.24449e-05
-3.00925e-06
6.28375e-05
-5.12987e-05
0.000105275
-0.000119538
0.000160659
-0.000204718
0.000229535
-0.000304136
0.000312049
-0.000415221
0.000407901
-0.00053542
0.000516328
-0.000662147
0.000636115
-0.000792788
0.000765642
-0.000924749
0.000902959
-0.00105554
0.00104589
-0.00118286
0.00119216
-0.00130467
0.0013395
-0.00141931
0.00148575
-0.00152547
0.00162899
-0.00162228
0.00176756
-0.00170926
0.00190014
-0.00178629
0.00202571
-0.00185357
0.00214362
-0.00191154
0.00225347
-0.00196085
0.00235521
-0.00200214
-0.00203487
0.00244949
3.30971e-06
1.53437e-05
1.54492e-05
9.65774e-06
3.82341e-05
-2.57942e-05
7.31376e-05
-8.62022e-05
0.000121296
-0.000167696
0.000183463
-0.000266886
0.000259952
-0.000380625
0.00035058
-0.000505848
0.000454635
-0.000639476
0.000570882
-0.000778394
0.000697603
-0.000919509
0.000832688
-0.00105983
0.000973754
-0.00119661
0.00111829
-0.00132739
0.00126379
-0.00145018
0.00140792
-0.00156343
0.00154857
-0.00166612
0.00168401
-0.00175772
0.00181285
-0.00183811
0.00193415
-0.00190758
0.00204729
-0.00196671
0.00215204
-0.00201629
0.00224845
-0.00205726
0.00233683
-0.00209052
-0.00211613
0.00241809
4.0082e-06
1.13355e-05
1.8229e-05
-4.56306e-06
4.44572e-05
-5.20224e-05
8.41043e-05
-0.000125849
0.000138178
-0.00022177
0.000207216
-0.000335923
0.000291213
-0.000464622
0.000389574
-0.000604209
0.000501097
-0.000750999
0.000624016
-0.000901313
0.00075609
-0.00105158
0.000894744
-0.00119849
0.00103723
-0.00133909
0.00118081
-0.00147097
0.0013229
-0.00159227
0.00146125
-0.00170177
0.00159396
-0.00179883
0.0017196
-0.00188337
0.00183722
-0.00195572
0.00194626
-0.00201662
0.00204658
-0.00206703
0.00213834
-0.00210806
0.00222198
-0.0021409
0.00229812
-0.00216666
-0.00218581
0.0023678
4.7714e-06
6.56413e-06
2.12236e-05
-2.10153e-05
5.10885e-05
-8.18873e-05
9.56644e-05
-0.000170425
0.000155765
-0.00028187
0.000231628
-0.000411787
0.000322847
-0.000555841
0.000428328
-0.00070969
0.000546316
-0.000868987
0.000674487
-0.00102948
0.000810093
-0.00118719
0.000950158
-0.00133855
0.00109168
-0.00148062
0.00123184
-0.00161113
0.00136815
-0.00172857
0.00149855
-0.00183218
0.00162153
-0.00192181
0.00173608
-0.00199791
0.00184167
-0.00206131
0.00193821
-0.00211317
0.00202597
-0.00215479
0.00210548
-0.00218757
0.00217744
-0.00221286
0.00224269
-0.00223191
-0.00224547
0.00230235
5.59872e-06
9.65411e-07
2.44215e-05
-3.9838e-05
5.80858e-05
-0.000115552
0.000107715
-0.000220054
0.00017385
-0.000348006
0.000256347
-0.000494284
0.000354304
-0.000653798
0.00046606
-0.000821445
0.000589268
-0.000992195
0.00072105
-0.00116127
0.000858211
-0.00132435
0.000997482
-0.00147782
0.00113575
-0.00161889
0.00127028
-0.00174565
0.0013988
-0.0018571
0.00151964
-0.00195302
0.00163172
-0.00203389
0.0017345
-0.00210069
0.00182793
-0.00215473
0.00191232
-0.00219756
0.00198828
-0.00223076
0.00205662
-0.0022559
0.00211822
-0.00227446
0.00217404
-0.00228773
-0.00229662
0.00222519
6.48755e-06
-5.52213e-06
2.78033e-05
-6.11538e-05
6.53895e-05
-0.000153138
0.000120122
-0.000274787
0.000192186
-0.00042007
0.000280962
-0.00058306
0.000384977
-0.000757812
0.000501947
-0.000938416
0.000628926
-0.00111917
0.00076253
-0.00129487
0.000899216
-0.00146104
0.00103556
-0.00161417
0.00116851
-0.00175184
0.00129554
-0.00187268
0.00141477
-0.00197633
0.00152499
-0.00206324
0.0016256
-0.00213451
0.00171654
-0.00219163
0.00179818
-0.00223637
0.00187119
-0.00227056
0.00193642
-0.00229599
0.00199486
-0.00231434
0.00204749
-0.00232709
0.00209529
-0.00233553
-0.00234061
0.00213928
7.43314e-06
-1.29553e-05
3.13417e-05
-8.50624e-05
7.29224e-05
-0.000194718
0.000132723
-0.000334587
0.000210482
-0.000497829
0.000305018
-0.000677596
0.00041422
-0.000867015
0.00053516
-0.00105936
0.000664318
-0.00124833
0.000797894
-0.00142844
0.000932127
-0.00159527
0.0010636
-0.00174565
0.00118947
-0.0018777
0.00130759
-0.00199079
0.00141654
-0.00208528
0.00151562
-0.00216232
0.00160472
-0.00222361
0.00168422
-0.00227113
0.00175483
-0.00230698
0.00181748
-0.00233321
0.00187321
-0.00235172
0.00192305
-0.00236418
0.00196802
-0.00237206
0.00200905
-0.00237656
-0.00237861
0.00204705
8.4285e-06
-2.13838e-05
3.50012e-05
-0.000111635
8.05906e-05
-0.000240308
0.000145328
-0.000399325
0.000228416
-0.000580917
0.000328034
-0.000777214
0.000441387
-0.000980368
0.000564911
-0.00118288
0.000694584
-0.00137801
0.000826309
-0.00156017
0.000956266
-0.00172523
0.00108121
-0.00187059
0.00119864
-0.00199513
0.00130688
-0.00209903
0.00140504
-0.00218345
0.00149294
-0.00225022
0.00157091
-0.00230158
0.00163969
-0.00233991
0.00170026
-0.00236755
0.00175371
-0.00238666
0.00180115
-0.00239916
0.00184363
-0.00240667
0.00188211
-0.00241055
0.00191745
-0.00241189
-0.00241158
0.00195042
9.46439e-06
-3.08482e-05
3.87385e-05
-0.000140909
8.82854e-05
-0.000289855
0.000157729
-0.000468769
0.000245649
-0.000668836
0.000349521
-0.000881086
0.000465855
-0.0010967
0.000590493
-0.00130752
0.00071902
-0.00150653
0.000847186
-0.00168833
0.000971274
-0.00184932
0.00108835
-0.00198767
0.00119639
-0.00210317
0.00129425
-0.00219689
0.00138156
-0.00227076
0.00145861
-0.00232726
0.00152612
-0.00236909
0.0015851
-0.0023989
0.00163671
-0.00241916
0.0016821
-0.00243206
0.00172241
-0.00243946
0.00175862
-0.00244288
0.00179161
-0.00244354
0.00182213
-0.00244241
-0.00244027
0.00185082
1.05295e-05
-4.13776e-05
4.25035e-05
-0.000172883
9.58859e-05
-0.000343237
0.000169702
-0.000542585
0.00026183
-0.000760964
0.000369005
-0.000988261
0.000487057
-0.00121475
0.00061132
-0.00143178
0.000737112
-0.00163233
0.000860196
-0.00181142
0.000977113
-0.00196623
0.00108537
-0.00209592
0.00118347
-0.00220127
0.00127081
-0.00228423
0.00134754
-0.00234749
0.00141435
-0.00239407
0.00147225
-0.00242699
0.00152244
-0.00244909
0.00156616
-0.00246288
0.00160458
-0.00247048
0.00163876
-0.00247364
0.00166962
-0.00247374
0.00169793
-0.00247185
0.00172432
-0.0024688
-0.00246525
0.0017493
1.16105e-05
-5.29881e-05
4.62404e-05
-0.000207513
0.000103263
-0.000400259
0.000181017
-0.00062034
0.000276619
-0.000856566
0.000386051
-0.00109769
0.000504514
-0.00133322
0.000626946
-0.00155421
0.000748555
-0.00175393
0.000865271
-0.00192813
0.000974027
-0.00207499
0.00107285
-0.00219475
0.00116081
-0.00228923
0.00123784
-0.00236126
0.00130452
-0.00241417
0.00136186
-0.0024514
0.00141108
-0.00247621
0.00145348
-0.00249149
0.00149031
-0.00249971
0.0015227
-0.00250287
0.00155162
-0.00250256
0.00157788
-0.0025
0.00160214
-0.00249611
0.00162492
-0.00249158
-0.00248695
0.00164662
1.26925e-05
-6.56806e-05
4.98892e-05
-0.00024471
0.000110282
-0.000460652
0.000191447
-0.000701506
0.000289697
-0.000954815
0.000400277
-0.00120827
0.000517849
-0.00145079
0.000637088
-0.00167345
0.00075325
-0.0018701
0.000862579
-0.00203746
0.000962499
-0.00217491
0.00105161
-0.00228386
0.00112953
-0.00236715
0.00119668
-0.0024284
0.00125399
-0.00247148
0.0013027
-0.00250012
0.00134418
-0.00251769
0.00137973
-0.00252705
0.00141057
-0.00253055
0.00143773
-0.00253003
0.00146209
-0.00252692
0.00148434
-0.00252225
0.00150503
-0.0025168
0.00152458
-0.00251113
-0.00250566
0.00154329
1.37592e-05
-7.94398e-05
5.33875e-05
-0.000284338
0.000116809
-0.000524074
0.000200776
-0.000785472
0.000300778
-0.00105482
0.000411377
-0.00131887
0.000526803
-0.00156622
0.000641622
-0.00178827
0.000751291
-0.00197977
0.000852486
-0.00213866
0.000943188
-0.00226561
0.00102258
-0.00236325
0.00109079
-0.00243536
0.00114864
-0.00248625
0.00119735
-0.00252019
0.0012383
-0.00254108
0.00127291
-0.00255229
0.00130244
-0.00255658
0.00132804
-0.00255614
0.00135064
-0.00255263
0.00137098
-0.00254726
0.00138967
-0.00254094
0.00140715
-0.00253428
0.00142375
-0.00252773
-0.00252161
0.0014397
1.47936e-05
-9.42334e-05
5.66721e-05
-0.000326217
0.000122716
-0.000590118
0.000208806
-0.000871562
0.000309623
-0.00115563
0.000419123
-0.00142837
0.000531239
-0.00167833
0.000640581
-0.00189761
0.000742941
-0.00208212
0.000835514
-0.00223123
0.000916871
-0.00234697
0.000986747
-0.00243312
0.00104573
-0.00249435
0.00109497
-0.00253549
0.00113586
-0.00256108
0.00116987
-0.00257509
0.00119839
-0.00258081
0.00122264
-0.00258083
0.00124362
-0.00257713
0.00126218
-0.00257118
0.00127894
-0.00256403
0.0012944
-0.0025564
0.00130892
-0.0025488
0.00132275
-0.00254156
-0.00253494
0.00133608
1.57783e-05
-0.000110012
5.96814e-05
-0.00037012
0.000127883
-0.00065832
0.000215368
-0.000959046
0.000316049
-0.00125632
0.000423379
-0.0015357
0.00053114
-0.00178609
0.000634133
-0.00200061
0.000728593
-0.00217658
0.000812293
-0.00231493
0.000884388
-0.00241907
0.00094512
-0.00249385
0.000995462
-0.00254469
0.00103679
-0.00257682
0.00107062
-0.00259491
0.00109844
-0.00260291
0.00112157
-0.00260393
0.00114112
-0.00260038
0.001158
-0.00259401
0.00117292
-0.0025861
0.00118641
-0.00257752
0.00119888
-0.00256887
0.00121062
-0.00256054
0.00122182
-0.00255277
-0.00254573
0.00123262
1.66957e-05
-0.000126707
6.23571e-05
-0.000415781
0.000132203
-0.000728166
0.000220323
-0.00104717
0.000319928
-0.00135592
0.000424093
-0.00163987
0.000526596
-0.0018886
0.000622558
-0.00209657
0.000708742
-0.00226277
0.000783515
-0.00238971
0.000846593
-0.00248214
0.000898658
-0.00254592
0.000940982
-0.00258701
0.000975104
-0.00261094
0.00100259
-0.0026224
0.00102486
-0.00262519
0.00104317
-0.00262224
0.00105852
-0.00261572
0.00107169
-0.00260718
0.00108328
-0.00259769
0.00109374
-0.00258798
0.00110339
-0.00257852