/*--------------------------------*- C++ -*----------------------------------*\
  =========                 |
  \\      /  F ield         | OpenFOAM: The Open Source CFD Toolbox
   \\    /   O peration     | Website:  https://openfoam.org
    \\  /    A nd           | Version:  6.0
     \\/     M anipulation  |
\*---------------------------------------------------------------------------*/
FoamFile
{
    version     2.0;
    format      ascii;
    class       volScalarField;
    location    "72";
    object      p;
}
// * * * * * * * * * * * * * * * * * * * * * * * * * * * * * * * * * * * * * //

dimensions      [0 2 -2 0 0 0 0];

internalField   nonuniform List<scalar> 
12500
(
-0.464493
-0.463819
-0.463248
-0.462655
-0.462083
-0.461648
-0.461441
-0.461517
-0.461904
-0.462609
-0.463624
-0.464937
-0.466532
-0.468394
-0.470507
-0.472856
-0.475425
-0.478198
-0.481154
-0.484272
-0.487525
-0.490886
-0.49434
-0.497871
-0.501307
-0.468449
-0.467339
-0.466501
-0.465726
-0.465007
-0.464454
-0.464156
-0.464169
-0.464525
-0.465234
-0.466291
-0.467686
-0.469401
-0.471422
-0.473732
-0.476312
-0.479144
-0.48221
-0.485486
-0.488947
-0.492565
-0.496307
-0.500164
-0.504133
-0.507937
-0.472011
-0.470514
-0.46943
-0.468482
-0.467618
-0.466942
-0.466543
-0.466478
-0.466783
-0.467472
-0.468544
-0.469989
-0.471794
-0.47394
-0.476409
-0.479183
-0.482241
-0.485559
-0.489114
-0.492877
-0.496816
-0.500895
-0.505108
-0.509465
-0.513604
-0.475139
-0.473307
-0.472002
-0.470891
-0.469883
-0.46908
-0.468568
-0.468408
-0.468641
-0.469283
-0.470341
-0.471805
-0.473663
-0.475898
-0.47849
-0.481419
-0.484661
-0.488192
-0.491985
-0.496009
-0.500227
-0.5046
-0.509123
-0.513818
-0.518264
-0.477811
-0.4757
-0.4742
-0.472936
-0.471787
-0.470851
-0.470214
-0.469941
-0.470076
-0.470645
-0.471655
-0.473103
-0.474977
-0.477262
-0.479937
-0.482981
-0.486367
-0.49007
-0.494059
-0.498301
-0.502758
-0.507385
-0.512175
-0.51716
-0.521884
-0.480022
-0.477688
-0.476022
-0.474617
-0.47333
-0.472254
-0.471479
-0.471073
-0.471085
-0.471549
-0.472477
-0.473871
-0.475723
-0.478016
-0.480732
-0.483847
-0.487334
-0.491165
-0.495308
-0.499727
-0.504381
-0.509221
-0.514237
-0.519469
-0.52445
-0.481782
-0.479284
-0.477481
-0.475946
-0.474524
-0.473304
-0.472377
-0.471816
-0.471679
-0.472005
-0.472816
-0.474116
-0.475902
-0.47816
-0.480871
-0.484012
-0.487554
-0.491469
-0.495721
-0.500274
-0.505084
-0.510099
-0.515303
-0.520742
-0.525961
-0.483112
-0.480508
-0.478598
-0.47695
-0.475396
-0.474026
-0.472934
-0.472198
-0.471884
-0.47204
-0.472695
-0.47386
-0.475537
-0.477713
-0.480372
-0.483491
-0.487041
-0.490992
-0.495308
-0.49995
-0.504873
-0.510024
-0.515381
-0.520992
-0.526437
-0.484048
-0.481395
-0.479409
-0.477661
-0.47598
-0.474457
-0.473187
-0.472257
-0.47174
-0.471694
-0.472156
-0.473146
-0.474668
-0.476717
-0.479276
-0.482323
-0.485832
-0.48977
-0.494101
-0.498787
-0.50378
-0.509029
-0.514503
-0.520255
-0.52592
-0.484632
-0.481985
-0.479955
-0.478122
-0.476321
-0.474642
-0.473185
-0.472043
-0.4713
-0.471022
-0.471257
-0.472032
-0.473359
-0.475234
-0.477646
-0.480574
-0.483992
-0.487868
-0.492166
-0.496847
-0.501866
-0.507171
-0.512727
-0.518591
-0.52447
-0.484916
-0.482328
-0.480283
-0.478382
-0.476468
-0.474632
-0.472981
-0.471614
-0.470626
-0.470092
-0.470071
-0.470597
-0.471689
-0.473351
-0.475572
-0.478335
-0.481616
-0.485381
-0.489598
-0.494226
-0.499224
-0.504541
-0.510139
-0.51608
-0.522167
-0.484958
-0.482477
-0.480446
-0.478492
-0.476474
-0.474485
-0.472636
-0.471036
-0.469789
-0.468981
-0.46868
-0.468931
-0.469759
-0.471172
-0.473167
-0.475726
-0.478826
-0.482438
-0.486527
-0.491055
-0.495982
-0.501261
-0.506853
-0.512822
-0.519094
-0.484821
-0.482492
-0.480499
-0.478508
-0.476395
-0.474257
-0.472212
-0.470377
-0.468865
-0.467774
-0.46718
-0.467138
-0.467681
-0.468822
-0.470562
-0.472887
-0.475774
-0.479194
-0.483114
-0.487494
-0.492299
-0.497482
-0.503003
-0.508926
-0.515329
-0.484575
-0.482435
-0.480503
-0.478487
-0.476289
-0.47401
-0.471774
-0.469707
-0.467932
-0.466557
-0.465668
-0.465328
-0.465577
-0.466435
-0.467905
-0.469976
-0.472627
-0.475827
-0.47954
-0.48373
-0.488355
-0.493375
-0.498741
-0.504506
-0.510932
-0.484293
-0.482373
-0.480518
-0.478488
-0.476215
-0.473804
-0.471387
-0.469099
-0.467071
-0.465421
-0.464245
-0.463613
-0.463573
-0.464149
-0.465347
-0.467158
-0.46956
-0.472521
-0.476
-0.479956
-0.484343
-0.489118
-0.494219
-0.499668
-0.505942
-0.484056
-0.482375
-0.480609
-0.478573
-0.476232
-0.473701
-0.471116
-0.468622
-0.46636
-0.464455
-0.463011
-0.462106
-0.461793
-0.462101
-0.463038
-0.464595
-0.466747
-0.469457
-0.472679
-0.47636
-0.480446
-0.484882
-0.489585
-0.494515
-0.500387
-0.483948
-0.482514
-0.48084
-0.478802
-0.476403
-0.473762
-0.471027
-0.468349
-0.465877
-0.463745
-0.462062
-0.460913
-0.460355
-0.46042
-0.461116
-0.462433
-0.464341
-0.466795
-0.469739
-0.473103
-0.476818
-0.480809
-0.48496
-0.48914
-0.494298
-0.484056
-0.482865
-0.48128
-0.479241
-0.476787
-0.474051
-0.471185
-0.468349
-0.465699
-0.463373
-0.461488
-0.460131
-0.459364
-0.459217
-0.4597
-0.460796
-0.462468
-0.46466
-0.467301
-0.470301
-0.473566
-0.476997
-0.480436
-0.483632
-0.487737
-0.484471
-0.483503
-0.481996
-0.479952
-0.477449
-0.47463
-0.471654
-0.468689
-0.465896
-0.463416
-0.46137
-0.459846
-0.458908
-0.458584
-0.45888
-0.459772
-0.461212
-0.46313
-0.465434
-0.468013
-0.470742
-0.473492
-0.476063
-0.478075
-0.480806
-0.48528
-0.484502
-0.483053
-0.480997
-0.478449
-0.475559
-0.472497
-0.469433
-0.466533
-0.46394
-0.461774
-0.460125
-0.459053
-0.458583
-0.458713
-0.459409
-0.46061
-0.462229
-0.464151
-0.46624
-0.46834
-0.470291
-0.471863
-0.472556
-0.473665
-0.486567
-0.48593
-0.484515
-0.482436
-0.479843
-0.476896
-0.473768
-0.470637
-0.467665
-0.464997
-0.462751
-0.461013
-0.459838
-0.459243
-0.459217
-0.459713
-0.460654
-0.461932
-0.463412
-0.464933
-0.466313
-0.467367
-0.467845
-0.467171
-0.466527
-0.488403
-0.487849
-0.486435
-0.484321
-0.481681
-0.478686
-0.475514
-0.472341
-0.46933
-0.466621
-0.464327
-0.462528
-0.461269
-0.460559
-0.460372
-0.460646
-0.461288
-0.462169
-0.463137
-0.46401
-0.464588
-0.464673
-0.46402
-0.462027
-0.459644
-0.49085
-0.490309
-0.488861
-0.486693
-0.484003
-0.480967
-0.477766
-0.474573
-0.471547
-0.468822
-0.466502
-0.464657
-0.46332
-0.462487
-0.462118
-0.462133
-0.462421
-0.46284
-0.463219
-0.463365
-0.46307
-0.462132
-0.460337
-0.457098
-0.453098
-0.493951
-0.493349
-0.491825
-0.489583
-0.486834
-0.483759
-0.480538
-0.47734
-0.474316
-0.471589
-0.469252
-0.467361
-0.465936
-0.464958
-0.464367
-0.464072
-0.463946
-0.463833
-0.463556
-0.462915
-0.4617
-0.459708
-0.45672
-0.452141
-0.446581
-0.497734
-0.496994
-0.49535
-0.493011
-0.490189
-0.487071
-0.483831
-0.480633
-0.477615
-0.474888
-0.472529
-0.470579
-0.46904
-0.467877
-0.467015
-0.466348
-0.465741
-0.465036
-0.464059
-0.462625
-0.46054
-0.457612
-0.453564
-0.447697
-0.441065
-0.502208
-0.501256
-0.499447
-0.496983
-0.49407
-0.490897
-0.487633
-0.484429
-0.481411
-0.478672
-0.476273
-0.474235
-0.472543
-0.471141
-0.469945
-0.468837
-0.467681
-0.466327
-0.46462
-0.462409
-0.459561
-0.455962
-0.451498
-0.446121
-0.441999
-0.507372
-0.506137
-0.504119
-0.501499
-0.498472
-0.495225
-0.491922
-0.488699
-0.485663
-0.482891
-0.48042
-0.478252
-0.47635
-0.474647
-0.473042
-0.471418
-0.46964
-0.467574
-0.465092
-0.462082
-0.458461
-0.45418
-0.44923
-0.443705
-0.438947
-0.513214
-0.511632
-0.509361
-0.506553
-0.503385
-0.500042
-0.496678
-0.493413
-0.490334
-0.487493
-0.484906
-0.482552
-0.480377
-0.478295
-0.476202
-0.47398
-0.471506
-0.468667
-0.465365
-0.461526
-0.457108
-0.452103
-0.446537
-0.440481
-0.434721
-0.519717
-0.517732
-0.515168
-0.512139
-0.508801
-0.505336
-0.501884
-0.498547
-0.495388
-0.492434
-0.489676
-0.487069
-0.484541
-0.481997
-0.479329
-0.476427
-0.473186
-0.469519
-0.46536
-0.460671
-0.455444
-0.4497
-0.443481
-0.436847
-0.430308
-0.526864
-0.524428
-0.521534
-0.518254
-0.514716
-0.5111
-0.507531
-0.504085
-0.500802
-0.497679
-0.494681
-0.491742
-0.488773
-0.485674
-0.482341
-0.478679
-0.474607
-0.470068
-0.46503
-0.459488
-0.453465
-0.447001
-0.440153
-0.432979
-0.425822
-0.534641
-0.531714
-0.528456
-0.524897
-0.521132
-0.517336
-0.513614
-0.510018
-0.506555
-0.503196
-0.499877
-0.496513
-0.493005
-0.489254
-0.485167
-0.480671
-0.475715
-0.470275
-0.464352
-0.457974
-0.451186
-0.444048
-0.436625
-0.428982
-0.421367
-0.543035
-0.539582
-0.535935
-0.532072
-0.528055
-0.524048
-0.520135
-0.516338
-0.512631
-0.508954
-0.505221
-0.501329
-0.497177
-0.492675
-0.487749
-0.482355
-0.476476
-0.470121
-0.463325
-0.45614
-0.448631
-0.440872
-0.432931
-0.424879
-0.416897
-0.552038
-0.548031
-0.543972
-0.539785
-0.535493
-0.531243
-0.527095
-0.523037
-0.519009
-0.514921
-0.510666
-0.506134
-0.501229
-0.495878
-0.490037
-0.483694
-0.476867
-0.4696
-0.461954
-0.454002
-0.445823
-0.437494
-0.429088
-0.420674
-0.412388
-0.561642
-0.557056
-0.552569
-0.548042
-0.543451
-0.538925
-0.534492
-0.530102
-0.525662
-0.521055
-0.51616
-0.510869
-0.505102
-0.498813
-0.491991
-0.484663
-0.476881
-0.468716
-0.460253
-0.45158
-0.44278
-0.433932
-0.425101
-0.41636
-0.407799
-0.571838
-0.56665
-0.561722
-0.556843
-0.551931
-0.547089
-0.54231
-0.537505
-0.532548
-0.527301
-0.521641
-0.515472
-0.50874
-0.501433
-0.493581
-0.485247
-0.476514
-0.467479
-0.45824
-0.448891
-0.439518
-0.430192
-0.420973
-0.411925
-0.403105
-0.582607
-0.576802
-0.571425
-0.566182
-0.560923
-0.55572
-0.550523
-0.545206
-0.539612
-0.533597
-0.527042
-0.519878
-0.512086
-0.503697
-0.494781
-0.485436
-0.475771
-0.4659
-0.455928
-0.445951
-0.436047
-0.42628
-0.416698
-0.407361
-0.398289
-0.593926
-0.58749
-0.581659
-0.57604
-0.570405
-0.564784
-0.559086
-0.553143
-0.546784
-0.539863
-0.532286
-0.524019
-0.515088
-0.505569
-0.495572
-0.485224
-0.474656
-0.463988
-0.453329
-0.442767
-0.432372
-0.422195
-0.412274
-0.402657
-0.393337
-0.605757
-0.59868
-0.592393
-0.586386
-0.580339
-0.574233
-0.567933
-0.561241
-0.553978
-0.546015
-0.537293
-0.527827
-0.517693
-0.507014
-0.495935
-0.484607
-0.473171
-0.461751
-0.450449
-0.439343
-0.428492
-0.417933
-0.407691
-0.397804
-0.388241
-0.618045
-0.610326
-0.603582
-0.597171
-0.590666
-0.583995
-0.576981
-0.569405
-0.561096
-0.551956
-0.541978
-0.531234
-0.519854
-0.508002
-0.495855
-0.483577
-0.471315
-0.459188
-0.447286
-0.435676
-0.4244
-0.413484
-0.402939
-0.392792
-0.382992
-0.630723
-0.622364
-0.615165
-0.608329
-0.601309
-0.59398
-0.586127
-0.577525
-0.568026
-0.557584
-0.546256
-0.534174
-0.521522
-0.508503
-0.495313
-0.482125
-0.469083
-0.456293
-0.443834
-0.431755
-0.420085
-0.408833
-0.398003
-0.387605
-0.377579
-0.643702
-0.634714
-0.627062
-0.619773
-0.612173
-0.604078
-0.595252
-0.585477
-0.574651
-0.562797
-0.55004
-0.536581
-0.522652
-0.508485
-0.494289
-0.480237
-0.466461
-0.453055
-0.440078
-0.427565
-0.415527
-0.403963
-0.392864
-0.382227
-0.371989
-0.656878
-0.647278
-0.639173
-0.631397
-0.623137
-0.61416
-0.604218
-0.593127
-0.580848
-0.567487
-0.553247
-0.538393
-0.523198
-0.507916
-0.492759
-0.477893
-0.463432
-0.449453
-0.435998
-0.423082
-0.410703
-0.398849
-0.3875
-0.376638
-0.366203
-0.670127
-0.659939
-0.651382
-0.643076
-0.634067
-0.62408
-0.612879
-0.600333
-0.586491
-0.57155
-0.555795
-0.539547
-0.523115
-0.506763
-0.490697
-0.475067
-0.459971
-0.445464
-0.431566
-0.41828
-0.405588
-0.393466
-0.381886
-0.370813
-0.360202
-0.683306
-0.672562
-0.663552
-0.654663
-0.644806
-0.633677
-0.621075
-0.606951
-0.591454
-0.574883
-0.557603
-0.539984
-0.522357
-0.504987
-0.488069
-0.471732
-0.45605
-0.441056
-0.426754
-0.413129
-0.40015
-0.387784
-0.375993
-0.364727
-0.353961
-0.696259
-0.684997
-0.675528
-0.665998
-0.655184
-0.64278
-0.628644
-0.612832
-0.595614
-0.577388
-0.558595
-0.539644
-0.520877
-0.502551
-0.484841
-0.467852
-0.451633
-0.436196
-0.421527
-0.407594
-0.394356
-0.381771
-0.369791
-0.358351
-0.347454
-0.708811
-0.697074
-0.687139
-0.676901
-0.665019
-0.651208
-0.635418
-0.617833
-0.59885
-0.57897
-0.558697
-0.538469
-0.518628
-0.499413
-0.480974
-0.463389
-0.446684
-0.430848
-0.415849
-0.401641
-0.388173
-0.375394
-0.363249
-0.351656
-0.340653
-0.720776
-0.708613
-0.698201
-0.687182
-0.67412
-0.65878
-0.641234
-0.621813
-0.601049
-0.579539
-0.557839
-0.536403
-0.51556
-0.495528
-0.476427
-0.458305
-0.441164
-0.424973
-0.409681
-0.395232
-0.381564
-0.36862
-0.356334
-0.344611
-0.333531
-0.731958
-0.719421
-0.708518
-0.696641
-0.682289
-0.66531
-0.645928
-0.624638
-0.602104
-0.579011
-0.555954
-0.533389
-0.511626
-0.490852
-0.471156
-0.452558
-0.435033
-0.41853
-0.402987
-0.388332
-0.374496
-0.361416
-0.349016
-0.337187
-0.32606
-0.742152
-0.729294
-0.717883
-0.705073
-0.689328
-0.670619
-0.649347
-0.62618
-0.601914
-0.577307
-0.552978
-0.529374
-0.506777
-0.485341
-0.46512
-0.446105
-0.428249
-0.411482
-0.395727
-0.380903
-0.366934
-0.353748
-0.341263
-0.329355
-0.318211
-0.751148
-0.738027
-0.72609
-0.71227
-0.695041
-0.674533
-0.651345
-0.626324
-0.600388
-0.574353
-0.548851
-0.524305
-0.500967
-0.47895
-0.458275
-0.438906
-0.420773
-0.40379
-0.387867
-0.372913
-0.358844
-0.345587
-0.333046
-0.321087
-0.309959
-0.758738
-0.74541
-0.732927
-0.718028
-0.699242
-0.676888
-0.651787
-0.624963
-0.597441
-0.570084
-0.543517
-0.518135
-0.494149
-0.471635
-0.45058
-0.430921
-0.412567
-0.395418
-0.379371
-0.364327
-0.350198
-0.336904
-0.324338
-0.312358
-0.301279
-0.764713
-0.751235
-0.738188
-0.722148
-0.701748
-0.677533
-0.650552
-0.622001
-0.593001
-0.564439
-0.536925
-0.510817
-0.486282
-0.463357
-0.441996
-0.422112
-0.403595
-0.386331
-0.370208
-0.355118
-0.340967
-0.327672
-0.315115
-0.303146
-0.292151
-0.76887
-0.7553
-0.741672
-0.724442
-0.702396
-0.676331
-0.647532
-0.617356
-0.587001
-0.557365
-0.529029
-0.502309
-0.477326
-0.454077
-0.432488
-0.412446
-0.393827
-0.376501
-0.360349
-0.345257
-0.331127
-0.317869
-0.305356
-0.29343
-0.282555
-0.771019
-0.757413
-0.743191
-0.724736
-0.701035
-0.67316
-0.642632
-0.610956
-0.579386
-0.548816
-0.51979
-0.492574
-0.467245
-0.443763
-0.422023
-0.401893
-0.383232
-0.365901
-0.349772
-0.334724
-0.320656
-0.307476
-0.295042
-0.283195
-0.272477
-0.77098
-0.757393
-0.742571
-0.722872
-0.697533
-0.667918
-0.635776
-0.602742
-0.57011
-0.538754
-0.509172
-0.48158
-0.45601
-0.432385
-0.410574
-0.390427
-0.371787
-0.354508
-0.338454
-0.323499
-0.309539
-0.296477
-0.284161
-0.272429
-0.261905
-0.768591
-0.755075
-0.739653
-0.718711
-0.691778
-0.660518
-0.626901
-0.592669
-0.559138
-0.527149
-0.497149
-0.469303
-0.443596
-0.41992
-0.39812
-0.378026
-0.359473
-0.342305
-0.32638
-0.311569
-0.297763
-0.284862
-0.272702
-0.261123
-0.250831
-0.763705
-0.750314
-0.734301
-0.712135
-0.683677
-0.650895
-0.61596
-0.580704
-0.546443
-0.513979
-0.483701
-0.455721
-0.429984
-0.40635
-0.384642
-0.364676
-0.346276
-0.32928
-0.313539
-0.298923
-0.285319
-0.272624
-0.260661
-0.249273
-0.239253
-0.756201
-0.742984
-0.726398
-0.70305
-0.673161
-0.639
-0.602923
-0.566826
-0.532012
-0.499231
-0.468815
-0.440823
-0.415162
-0.391663
-0.370129
-0.350366
-0.332187
-0.315424
-0.299926
-0.285556
-0.272204
-0.25976
-0.248037
-0.236881
-0.22717
-0.745976
-0.732985
-0.715854
-0.691383
-0.660181
-0.624806
-0.587775
-0.551027
-0.515838
-0.4829
-0.452485
-0.424603
-0.399124
-0.375853
-0.354577
-0.335091
-0.317202
-0.300736
-0.285538
-0.27147
-0.258419
-0.246273
-0.234833
-0.223952
-0.214589
-0.732954
-0.720237
-0.702602
-0.677089
-0.64471
-0.608303
-0.570516
-0.533313
-0.497928
-0.464992
-0.434716
-0.407064
-0.381871
-0.35892
-0.337987
-0.318853
-0.301322
-0.285217
-0.270379
-0.256668
-0.243971
-0.232171
-0.221058
-0.210494
-0.201519
-0.717084
-0.70469
-0.686601
-0.660144
-0.626746
-0.589499
-0.551162
-0.513701
-0.478299
-0.445521
-0.415519
-0.388214
-0.36341
-0.340872
-0.320363
-0.301658
-0.284556
-0.268875
-0.254456
-0.241159
-0.228868
-0.217464
-0.206725
-0.196524
-0.187975
-0.698341
-0.686318
-0.667836
-0.640551
-0.606305
-0.568422
-0.529743
-0.492221
-0.456978
-0.42451
-0.394914
-0.36807
-0.343757
-0.321722
-0.301719
-0.283518
-0.266913
-0.251722
-0.237784
-0.224957
-0.213126
-0.202168
-0.191852
-0.182059
-0.173976
-0.676727
-0.665123
-0.646319
-0.618336
-0.583425
-0.545116
-0.506306
-0.468917
-0.434002
-0.401992
-0.372929
-0.346657
-0.322932
-0.301489
-0.282073
-0.264449
-0.248411
-0.233774
-0.220377
-0.208077
-0.196762
-0.186303
-0.176459
-0.167124
-0.159546
-0.65227
-0.641131
-0.622086
-0.593547
-0.558165
-0.519642
-0.480909
-0.443841
-0.40942
-0.378008
-0.3496
-0.324007
-0.300965
-0.280198
-0.261446
-0.244472
-0.229068
-0.215049
-0.202254
-0.190541
-0.179797
-0.16989
-0.160572
-0.151745
-0.144711
-0.625024
-0.614397
-0.5952
-0.566257
-0.530601
-0.492078
-0.453626
-0.417061
-0.38329
-0.352611
-0.324973
-0.300158
-0.277888
-0.257879
-0.239865
-0.223611
-0.208907
-0.195569
-0.183436
-0.172369
-0.162253
-0.152955
-0.144219
-0.135953
-0.129501
-0.595068
-0.585
-0.565745
-0.536559
-0.500829
-0.462516
-0.424542
-0.388653
-0.355681
-0.325861
-0.299101
-0.275159
-0.253744
-0.234568
-0.217363
-0.201894
-0.187953
-0.175357
-0.163946
-0.153583
-0.144154
-0.135523
-0.127428
-0.119783
-0.113954
-0.562508
-0.553043
-0.533831
-0.504565
-0.468963
-0.431065
-0.393756
-0.358708
-0.326673
-0.297828
-0.272045
-0.249062
-0.228579
-0.210305
-0.193973
-0.17935
-0.16623
-0.154435
-0.143804
-0.134203
-0.125521
-0.11762
-0.110232
-0.103273
-0.098119
-0.527469
-0.518652
-0.499587
-0.470408
-0.435132
-0.397846
-0.361381
-0.327326
-0.296355
-0.268592
-0.243876
-0.22193
-0.202447
-0.185136
-0.169734
-0.156011
-0.143766
-0.132822
-0.123026
-0.114245
-0.10637
-0.0992631
-0.0926564
-0.0864641
-0.0820468
-0.490101
-0.481973
-0.463162
-0.434238
-0.399479
-0.362993
-0.32754
-0.294618
-0.264828
-0.238243
-0.214674
-0.193832
-0.175408
-0.159112
-0.144687
-0.131909
-0.120582
-0.110536
-0.101623
-0.093715
-0.0867058
-0.0804609
-0.0747181
-0.069386
-0.065763
-0.450573
-0.443175
-0.424725
-0.396218
-0.362163
-0.326654
-0.292367
-0.260707
-0.232203
-0.206881
-0.184529
-0.164848
-0.147531
-0.132291
-0.118879
-0.107078
-0.0967004
-0.0875858
-0.0795927
-0.0726013
-0.0665112
-0.0611957
-0.0564058
-0.0520303
-0.0492335
-0.409072
-0.402441
-0.384458
-0.356529
-0.323354
-0.288988
-0.256009
-0.225726
-0.198601
-0.174616
-0.15354
-0.135069
-0.118895
-0.104741
-0.0923634
-0.0815566
-0.0721442
-0.0639759
-0.0569222
-0.0508745
-0.0457425
-0.041413
-0.0376583
-0.0343345
-0.0324198
-0.3658
-0.359971
-0.342559
-0.315363
-0.283234
-0.250163
-0.21862
-0.18982
-0.164155
-0.141571
-0.121821
-0.104595
-0.0895907
-0.0765379
-0.0652041
-0.0553937
-0.0469437
-0.039718
-0.033604
-0.0285104
-0.0243604
-0.0210592
-0.0184233
-0.0163201
-0.0155545
-0.320974
-0.315979
-0.299239
-0.272921
-0.241992
-0.210357
-0.180366
-0.15314
-0.129007
-0.107879
-0.089494
-0.073541
-0.0597221
-0.0477747
-0.0374766
-0.0286449
-0.021131
-0.0148183
-0.00961995
-0.00547273
-0.00232025
-0.000102345
0.00123007
0.00164666
0.000636863
-0.274822
-0.270689
-0.254717
-0.229415
-0.199829
-0.169755
-0.14142
-0.115849
-0.0933096
-0.0736839
-0.0566969
-0.0420369
-0.0294102
-0.0185605
-0.00927377
-0.00137629
0.00526784
0.0107559
0.0151438
0.0184585
0.0207259
0.0219117
0.0217142
0.0197127
0.0163404
-0.227583
-0.224336
-0.20922
-0.185061
-0.156948
-0.128548
-0.10196
-0.0781147
-0.0572233
-0.0391398
-0.0235793
-0.0102296
0.00120019
0.0109624
0.0192683
0.0262906
0.0321654
0.0369886
0.0408124
0.0436689
0.0456012
0.0464673
0.0454413
0.041669
0.0373383
-0.179502
-0.17716
-0.162984
-0.140083
-0.113558
-0.086931
-0.0621694
-0.0401105
-0.0209137
-0.00440798
0.00969935
0.0217203
0.0319426
0.0406162
0.0479523
0.0541283
0.0592911
0.0635575
0.0670206
0.0697971
0.0720696
0.0737814
0.0738829
0.0717382
0.0755185
-0.130822
-0.129402
-0.11624
-0.0947034
-0.0698681
-0.0451008
-0.0222323
-0.00201155
0.0154512
0.030348
0.0429772
0.0536488
0.0626465
0.0702162
0.0765673
0.0818776
0.0862978
0.0899543
0.0929615
0.0954674
0.0976645
0.0995243
0.100458
0.10095
0.107344
-0.0817936
-0.0813091
-0.0692293
-0.0491478
-0.0260901
-0.00325368
0.0176669
0.0360081
0.0517047
0.0649665
0.076095
0.0853968
0.0931498
0.099595
0.104938
0.109355
0.112997
0.115995
0.118471
0.12057
0.122458
0.1241
0.125074
0.125938
0.131726
-0.03267
-0.0331277
-0.0221879
-0.00364014
0.0175677
0.0384162
0.0573465
0.0737772
0.0876837
0.0992905
0.1089
0.116813
0.1233
0.128595
0.132898
0.136379
0.139185
0.141446
0.143279
0.144823
0.146224
0.147457
0.148167
0.148794
0.153471
0.0162998
0.0148972
0.0246488
0.0415986
0.0608998
0.0797179
0.096629
0.111129
0.123231
0.13317
0.141248
0.147758
0.152962
0.157085
0.160318
0.162825
0.164744
0.166198
0.167295
0.168158
0.168913
0.169522
0.169664
0.169746
0.173377
0.0648697
0.0625241
0.0710495
0.0863515
0.103705
0.120466
0.135342
0.147903
0.158195
0.166463
0.173004
0.178104
0.182014
0.184949
0.187091
0.188593
0.189587
0.190183
0.190481
0.19059
0.190614
0.190503
0.189959
0.18939
0.19201
0.112798
0.109516
0.116788
0.130407
0.145788
0.160479
0.173318
0.183944
0.192433
0.199035
0.204044
0.207735
0.210348
0.212089
0.213127
0.213607
0.21365
0.213357
0.212817
0.212126
0.211371
0.210491
0.209218
0.207968
0.209624
0.159849
0.155642
0.161643
0.173559
0.186958
0.199583
0.210397
0.219105
0.225807
0.23076
0.23425
0.236543
0.237867
0.238416
0.23835
0.237803
0.236886
0.235691
0.234298
0.232789
0.231238
0.22958
0.227575
0.225645
0.226378
0.205793
0.200678
0.205403
0.21561
0.227035
0.237612
0.246426
0.253243
0.258188
0.261518
0.263513
0.264427
0.264479
0.26385
0.262691
0.261124
0.259251
0.257156
0.25491
0.252586
0.250243
0.247817
0.245097
0.242504
0.242353
0.250411
0.244407
0.247862
0.25637
0.265842
0.274404
0.281257
0.286224
0.28945
0.291195
0.291728
0.291295
0.290101
0.288318
0.286084
0.283515
0.280703
0.277722
0.274637
0.271512
0.268397
0.265226
0.261818
0.258584
0.257586
0.29349
0.286624
0.288822
0.295655
0.303212
0.309807
0.314751
0.31792
0.319477
0.319682
0.318797
0.317055
0.314651
0.311745
0.308468
0.304923
0.301196
0.297354
0.293454
0.289553
0.285691
0.281807
0.277743
0.273894
0.272084
0.334827
0.32713
0.328098
0.333293
0.338987
0.343675
0.346774
0.348208
0.348157
0.346878
0.344626
0.341623
0.338052
0.334065
0.32978
0.325295
0.320687
0.316016
0.311332
0.306685
0.30211
0.297547
0.292863
0.288428
0.285842
0.37423
0.365737
0.365511
0.369119
0.373015
0.37587
0.377199
0.376972
0.375382
0.372685
0.369126
0.364916
0.360231
0.355208
0.349961
0.344578
0.339127
0.333665
0.328234
0.322878
0.317627
0.312424
0.307156
0.302164
0.298839
0.411519
0.402268
0.400895
0.402978
0.405155
0.406262
0.405908
0.404103
0.401053
0.397009
0.392211
0.386858
0.381114
0.375111
0.368952
0.362717
0.35647
0.350258
0.344122
0.338098
0.33221
0.326407
0.320594
0.315078
0.31105
0.446523
0.436558
0.434092
0.434725
0.435274
0.43473
0.432788
0.429498
0.425074
0.419765
0.413801
0.407373
0.400636
0.393711
0.386695
0.379661
0.372665
0.365752
0.358955
0.352306
0.345824
0.339463
0.333144
0.327137
0.322449
0.479083
0.468453
0.464957
0.464227
0.463248
0.46116
0.457737
0.453062
0.447357
0.44087
0.43382
0.426392
0.41873
0.410948
0.403135
0.395357
0.387668
0.380103
0.372693
0.365465
0.358434
0.351558
0.344773
0.33831
0.333005
0.509056
0.497812
0.493357
0.49136
0.488965
0.485449
0.480658
0.474705
0.46782
0.460247
0.452199
0.443849
0.435336
0.426765
0.418219
0.409759
0.401431
0.393268
0.385296
0.377537
0.370003
0.362657
0.355447
0.348564
0.34269
0.536308
0.524504
0.51917
0.51601
0.512321
0.507501
0.501463
0.494347
0.486389
0.477828
0.468871
0.459684
0.450397
0.44111
0.431899
0.422818
0.413911
0.405206
0.396725
0.388486
0.380496
0.372727
0.365134
0.357869
0.351475
0.560719
0.548415
0.542286
0.538078
0.533222
0.52723
0.520074
0.511915
0.502994
0.493549
0.483778
0.473842
0.463863
0.453935
0.444128
0.434494
0.425069
0.41588
0.406945
0.398277
0.389882
0.381735
0.373801
0.366196
0.359335
0.582185
0.569442
0.562609
0.557472
0.551587
0.544562
0.53642
0.527343
0.517576
0.507353
0.496868
0.486274
0.475687
0.465196
0.454867
0.444747
0.434869
0.425255
0.415922
0.406879
0.398129
0.389653
0.381422
0.373517
0.366244
0.600614
0.587495
0.580055
0.574117
0.567343
0.559429
0.55044
0.540574
0.530082
0.519192
0.508094
0.496935
0.485828
0.474855
0.464079
0.453543
0.443277
0.433301
0.423628
0.414264
0.405212
0.396455
0.38797
0.379808
0.372184
0.615928
0.6025
0.594554
0.587946
0.580432
0.571777
0.562083
0.551562
0.540467
0.529023
0.517417
0.50579
0.494252
0.48288
0.471734
0.460854
0.450267
0.439991
0.430037
0.420408
0.411106
0.402118
0.393425
0.385051
0.377134
0.628066
0.614396
0.606048
0.598907
0.590804
0.58156
0.571307
0.560267
0.548694
0.536813
0.524805
0.512809
0.50093
0.489244
0.477806
0.466655
0.455815
0.445304
0.435128
0.425292
0.415794
0.406625
0.397767
0.389228
0.381081
0.63698
0.623137
0.614494
0.606959
0.598422
0.588745
0.578081
0.56666
0.554737
0.542535
0.530234
0.517968
0.505841
0.493926
0.482276
0.470927
0.459905
0.449223
0.438887
0.428901
0.419261
0.40996
0.400985
0.392325
0.384014
0.642638
0.628693
0.619862
0.612076
0.603261
0.593308
0.582383
0.57072
0.558576
0.546173
0.533687
0.521252
0.50897
0.496912
0.48513
0.47366
0.462524
0.451736
0.441302
0.431223
0.421496
0.412115
0.403067
0.394334
0.385923
0.645022
0.631045
0.622137
0.614243
0.605307
0.595237
0.5842
0.572437
0.560201
0.547715
0.535155
0.522653
0.510309
0.498194
0.486361
0.474844
0.463665
0.452836
0.442365
0.432252
0.422493
0.413082
0.404008
0.39525
0.386805
0.644131
0.630193
0.621318
0.613457
0.60456
0.594529
0.583533
0.571809
0.559611
0.547162
0.534636
0.522168
0.509856
0.497772
0.485969
0.474479
0.463327
0.452524
0.442078
0.431988
0.422252
0.412863
0.403808
0.395072
0.386659
0.639977
0.626149
0.617415
0.609731
0.60103
0.591196
0.580389
0.568844
0.556814
0.54452
0.532138
0.519804
0.507618
0.495651
0.483957
0.47257
0.461514
0.450803
0.440442
0.430434
0.420775
0.411458
0.402469
0.393803
0.385487
0.632591
0.618942
0.610456
0.603089
0.594738
0.585256
0.574788
0.563561
0.551825
0.539804
0.527675
0.515575
0.503606
0.491843
0.480337
0.469127
0.458237
0.447682
0.437468
0.427599
0.418072
0.408877
0.399999
0.391449
0.383296
0.622014
0.608613
0.600481
0.593568
0.585719
0.576743
0.56676
0.555985
0.54467
0.533038
0.521269
0.509502
0.497842
0.486365
0.475127
0.464167
0.453511
0.443175
0.433169
0.423496
0.414154
0.405132
0.39641
0.388022
0.380094
0.608305
0.595219
0.587543
0.581218
0.57402
0.565698
0.556342
0.546155
0.535384
0.524254
0.512949
0.501612
0.490349
0.479242
0.468349
0.457711
0.447357
0.437304
0.427563
0.418142
0.409039
0.400238
0.391717
0.383535
0.375895
0.591539
0.578831
0.571709
0.5661
0.559696
0.552175
0.543584
0.534115
0.524008
0.513492
0.502753
0.491939
0.481162
0.470506
0.460033
0.449787
0.439799
0.430091
0.420674
0.41156
0.402747
0.394216
0.38594
0.378009
0.370715
0.571801
0.559535
0.55306
0.548289
0.542818
0.536235
0.528545
0.519918
0.510593
0.500797
0.490724
0.480525
0.470318
0.460191
0.450211
0.440426
0.430869
0.421565
0.41253
0.403775
0.395303
0.38709
0.379102
0.371464
0.364574
0.549194
0.53743
0.531688
0.527872
0.523463
0.517952
0.511292
0.503629
0.495196
0.486225
0.476913
0.467417
0.457862
0.44834
0.438924
0.429665
0.420601
0.41176
0.40316
0.394817
0.386737
0.378888
0.371231
0.363925
0.357493
0.523833
0.512626
0.507701
0.504946
0.501723
0.49741
0.491901
0.485317
0.477885
0.469837
0.461377
0.452669
0.443843
0.435
0.426215
0.417545
0.409034
0.400711
0.3926
0.384719
0.377078
0.36964
0.362354
0.35542
0.349497
0.495846
0.485251
0.481215
0.479621
0.477697
0.474701
0.470458
0.465063
0.458731
0.4517
0.444179
0.436339
0.428317
0.420221
0.412131
0.404112
0.39621
0.388459
0.380886
0.373517
0.36636
0.359377
0.352505
0.34598
0.340614
0.465375
0.45544
0.452361
0.452017
0.451496
0.449926
0.447057
0.442951
0.437816
0.43189
0.425388
0.418491
0.411343
0.404058
0.396725
0.389412
0.382172
0.375044
0.368059
0.361246
0.35462
0.348135
0.341715
0.335634
0.33087
0.432574
0.423345
0.42128
0.422265
0.423242
0.423195
0.421798
0.419075
0.415225
0.410485
0.405078
0.399194
0.392984
0.386571
0.38005
0.373497
0.366969
0.360511
0.354158
0.347945
0.341892
0.335947
0.330019
0.324416
0.320296
0.397607
0.389125
0.388125
0.390506
0.393062
0.394628
0.394791
0.393537
0.39105
0.387571
0.383329
0.378521
0.373308
0.367821
0.362164
0.356418
0.350648
0.344903
0.339224
0.333651
0.32821
0.322845
0.317447
0.312354
0.308918
0.360651
0.352953
0.353058
0.356891
0.361095
0.364351
0.366153
0.366443
0.365392
0.36324
0.360223
0.356548
0.352385
0.347873
0.343125
0.338229
0.333256
0.328263
0.323295
0.3184
0.313608
0.308861
0.304029
0.299476
0.296763
0.321893
0.315013
0.316253
0.32158
0.32749
0.332499
0.336006
0.337907
0.338353
0.337587
0.335849
0.333356
0.330288
0.326794
0.322993
0.318983
0.314843
0.310634
0.306409
0.302223
0.298114
0.294019
0.289788
0.285804
0.283848
0.28153
0.275496
0.277892
0.284743
0.2924
0.299215
0.304482
0.308048
0.310045
0.310712
0.310299
0.309029
0.307094
0.304651
0.30183
0.298735
0.295453
0.292055
0.288598
0.285146
0.281746
0.278335
0.274736
0.271346
0.270185
0.239769
0.234604
0.238167
0.246557
0.255989
0.264647
0.271717
0.276991
0.280582
0.282723
0.28367
0.283657
0.282884
0.281518
0.279698
0.277539
0.275134
0.272562
0.26989
0.267188
0.264516
0.261812
0.258871
0.256099
0.255767
0.196824
0.192546
0.197277
0.207208
0.218428
0.228952
0.237855
0.24487
0.250085
0.25373
0.256064
0.257331
0.25774
0.257468
0.256663
0.255449
0.253929
0.252188
0.250303
0.248356
0.246418
0.244432
0.242167
0.240028
0.240565
0.152917
0.149541
0.155429
0.166888
0.179894
0.192293
0.203045
0.211821
0.218682
0.22385
0.227589
0.23015
0.231752
0.232581
0.232795
0.232525
0.231883
0.230965
0.229856
0.228649
0.227433
0.226158
0.224566
0.223061
0.224507
0.108276
0.105812
0.112836
0.125797
0.140572
0.154839
0.167444
0.177989
0.186505
0.193207
0.198359
0.202219
0.205016
0.206944
0.208168
0.208829
0.209048
0.208926
0.208559
0.208053
0.207515
0.206908
0.20595
0.20505
0.207447
0.0631354
0.0615872
0.069718
0.0841393
0.10065
0.116766
0.131213
0.143524
0.153695
0.16193
0.168495
0.173652
0.177637
0.180652
0.182871
0.18444
0.185485
0.186116
0.186437
0.186566
0.18663
0.1866
0.186165
0.185767
0.189149
0.0177326
0.0171008
0.0262978
0.0421254
0.0603239
0.0782532
0.0945189
0.108581
0.120398
0.130159
0.138127
0.144571
0.149732
0.153818