1.275 	2.15223e-18 	-2.76991e-20 	-0.116634 	0.0549023 	-2.80855e-22
1.825 	2.15223e-18 	-1.39322e-20 	-0.254829 	-0.00268208 	3.90905e-21
2.375 	2.15223e-18 	-2.66896e-23 	-0.223498 	-0.237815 	-1.67779e-21
