/*--------------------------------*- C++ -*----------------------------------*\
  =========                 |
  \\      /  F ield         | OpenFOAM: The Open Source CFD Toolbox
   \\    /   O peration     | Website:  https://openfoam.org
    \\  /    A nd           | Version:  6.0
     \\/     M anipulation  |
\*---------------------------------------------------------------------------*/
FoamFile
{
    version     2.0;
    format      ascii;
    class       surfaceScalarField;
    location    "2.2";
    object      phi;
}
// * * * * * * * * * * * * * * * * * * * * * * * * * * * * * * * * * * * * * //

dimensions      [0 3 -1 0 0 0 0];

internalField   nonuniform List<scalar> 
15760
(
-3.16351e-05
3.18807e-05
-2.45545e-07
-0.00010123
7.01686e-05
-5.73508e-07
-0.000193078
9.26296e-05
-7.81653e-07
-0.000296906
0.000104732
-9.04268e-07
-0.000405835
0.000109898
-9.68753e-07
-0.000515134
0.000110293
-9.93885e-07
-0.000621324
0.00010718
-9.90432e-07
-0.000721608
0.000101248
-9.63769e-07
-0.000813563
9.2871e-05
-9.16571e-07
-0.000895016
8.2304e-05
-8.50696e-07
-0.000964049
6.98016e-05
-7.68262e-07
-0.00101907
5.56904e-05
-6.72165e-07
-0.0010589
4.04031e-05
-5.66133e-07
-0.00108294
2.44876e-05
-4.54473e-07
-0.00109119
8.59067e-06
-3.41702e-07
-0.00108437
-6.58621e-06
-2.32177e-07
-0.00106388
-2.0355e-05
-1.29672e-07
-0.00103174
-3.21083e-05
-3.66213e-08
-0.000990396
-4.13879e-05
4.50615e-08
-4.80374e-05
1.14696e-07
-0.000942473
-3.00974e-05
6.19781e-05
-9.67983e-05
0.00013687
-0.000185253
0.000181084
-0.00028559
0.00020507
-0.000391106
0.000215414
-0.000497142
0.000216329
-0.000600268
0.000210306
-0.000697742
0.000198722
-0.000787205
0.000182334
-0.00086655
0.000161649
-0.000933904
0.000137156
-0.000987679
0.000109466
-0.00102666
7.93856e-05
-0.00105012
4.79435e-05
-0.0010579
1.63715e-05
-0.00105052
-1.39634e-05
-0.0010292
-4.16782e-05
-0.000995807
-6.54998e-05
-0.000952792
-8.44025e-05
-9.79294e-05
-0.0009029
-2.71433e-05
8.91214e-05
-8.82344e-05
0.000197961
-0.000170064
0.000262914
-0.000263545
0.00029855
-0.000362315
0.000314184
-0.000461863
0.000315877
-0.000558849
0.000307293
-0.000650629
0.000290501
-0.00073496
0.000266665
-0.000809859
0.000236547
-0.000873546
0.000200843
-0.000924465
0.000160385
-0.000961337
0.000116258
-0.000983248
6.98539e-05
-0.000989753
2.28767e-05
-0.000980998
-2.27184e-05
-0.000957819
-6.48575e-05
-0.000921811
-0.000101508
-0.000875337
-0.000130876
-0.000151906
-0.00082136
-2.29965e-05
0.000112118
-7.60986e-05
0.000251063
-0.000148384
0.000335199
-0.000231887
0.000382053
-0.000320753
0.00040305
-0.00041069
0.000405813
-0.000498479
0.000395082
-0.000581598
0.00037362
-0.000657955
0.000343022
-0.000725728
0.000304321
-0.000783283
0.000258398
-0.000829142
0.000206243
-0.000861991
0.000149107
-0.000880736
8.85994e-05
-0.000884592
2.67323e-05
-0.000873223
-3.40879e-05
-0.000846924
-9.11563e-05
-0.000806821
-0.00014161
-0.000755056
-0.000182641
-0.000212147
-0.000694815
-1.79713e-05
0.000130089
-6.1195e-05
0.000294286
-0.00012149
0.000395495
-0.000192289
0.000452852
-0.000268402
0.000479162
-0.000345824
0.000483236
-0.000421489
0.000470747
-0.000493002
0.000445133
-0.00055843
0.00040845
-0.000616135
0.000362026
-0.000664666
0.000306928
-0.00070268
0.000244257
-0.000728911
0.000175338
-0.000742163
0.000101851
-0.000741362
2.59318e-05
-0.00072569
-4.97603e-05
-0.000694807
-0.000122039
-0.000649184
-0.000187233
-0.000590517
-0.000241308
-0.00028056
-0.000522105
-1.24451e-05
0.000142534
-4.45201e-05
0.000326361
-9.10089e-05
0.000441984
-0.000146936
0.00050878
-0.000207914
0.00054014
-0.000270311
0.000545633
-0.000331238
0.000531673
-0.000388432
0.000502327
-0.000440106
0.000460125
-0.000484804
0.000406725
-0.000521274
0.000343398
-0.000548365
0.000271349
-0.000564948
0.000191921
-0.000569855
0.000106758
-0.000561874
1.79513e-05
-0.000539822
-7.18128e-05
-0.000502754
-0.000159107
-0.00045037
-0.000239617
-0.000383665
-0.000308014
-0.000358425
-0.0003058
-6.8239e-06
0.000149358
-2.7188e-05
0.000346726
-5.88176e-05
0.000473613
-9.84226e-05
0.000548385
-0.000142534
0.000584251
-0.000187977
0.000591076
-0.00023209
0.000575786
-0.000272746
0.000542984
-0.000308293
0.000495671
-0.000337431
0.000435863
-0.000359104
0.000365071
-0.000372372
0.000284617
-0.000376311
0.00019586
-0.000369913
0.00010036
-0.000352008
4.65941e-08
-0.00032126
-0.000102561
-0.000276293
-0.000204074
-0.000216066
-0.000299844
-0.000140679
-0.000383401
-0.000446285
-5.28182e-05
-1.50212e-06
0.00015086
-1.03364e-05
0.00035556
-2.69079e-05
0.000490185
-4.95906e-05
0.000571067
-7.59087e-05
0.000610569
-0.000103238
0.000618406
-0.000129203
0.000601751
-0.000151845
0.000565626
-0.000169637
0.000513462
-0.000181418
0.000447644
-0.000186293
0.000369946
-0.000183522
0.000281846
-0.000172402
0.00018474
-0.000152149
8.01066e-05
-0.000121783
-3.03196e-05
-8.0037e-05
-0.000144306
-2.53693e-05
-0.000258742
4.37933e-05
-0.000369006
0.000128265
-0.000467872
-0.000544174
0.000226153
3.17557e-06
0.000147685
4.97827e-06
0.000353757
2.78513e-06
0.000492378
-3.30132e-06
0.000577154
-1.18187e-05
0.000619086
-2.07688e-05
0.000627356
-2.8142e-05
0.000609124
-3.21933e-05
0.000569678
-3.1538e-05
0.000512807
-2.51368e-05
0.000441243
-1.22243e-05
0.000357033
7.78921e-06
0.000261832
3.54251e-05
0.000157104
7.12521e-05
4.42797e-05
0.000116011
-7.50788e-05
0.000170748
-0.000199043
0.000236908
-0.000324901
0.00031627
-0.000448369
0.000410358
-0.00056196
-0.000652045
0.00051823
6.94639e-06
0.000140738
1.78805e-05
0.000342823
2.85651e-05
0.000481693
3.78281e-05
0.000567891
4.61694e-05
0.000610745
5.49165e-05
0.000618608
6.56417e-05
0.000598399
7.98164e-05
0.000555503
9.86532e-05
0.00049397
0.000123074
0.000416823
0.000153749
0.000326358
0.000191178
0.000224403
0.000235776
0.000112506
0.000287969
-7.91309e-06
0.000348298
-0.000135408
0.000417545
-0.00026829
0.000496874
-0.000404231
0.000587931
-0.000539426
0.000692564
-0.000666593
-0.000770183
0.000810701
9.64912e-06
0.000131089
2.77556e-05
0.000324717
4.91404e-05
0.000460308
7.16899e-05
0.000545341
9.50673e-05
0.000587368
0.000119936
0.00059374
0.000147388
0.000570947
0.000178573
0.000524318
0.000214501
0.000458042
0.000255979
0.000375344
0.000303621
0.000278716
0.000357897
0.000170127
0.000419201
5.12018e-05
0.000487911
-7.66232e-05
0.000564448
-0.000211945
0.000649353
-0.000353195
0.000743418
-0.000498296
0.000847872
-0.00064388
0.000964427
-0.000783148
-0.000899352
0.0010936
1.12303e-05
0.000119859
3.4298e-05
0.000301649
6.375e-05
0.000430856
9.69131e-05
0.000512178
0.000132805
0.000551475
0.000171497
0.000555048
0.000213605
0.000528839
0.000259943
0.000477981
0.000311314
0.00040667
0.000368427
0.000318231
0.000431876
0.000215267
0.000502168
9.98356e-05
0.000579747
-2.63768e-05
0.000665011
-0.000161887
0.000758314
-0.000305247
0.000859972
-0.000454854
0.000970338
-0.000608663
0.00109
-0.000763547
0.00122012
-0.000913259
-0.00104061
0.00136137
1.17378e-05
0.000108121
3.75237e-05
0.000275863
7.2232e-05
0.000396148
0.000113018
0.000471392
0.000158497
0.000505997
0.000208277
0.000505269
0.000262568
0.000474547
0.000321887
0.000418662
0.000386863
0.000341693
0.000458146
0.000246949
0.000536361
0.000137053
0.000622093
1.41036e-05
0.000715867
-0.000120152
0.000818106
-0.000264126
0.000929061
-0.000416202
0.00104876
-0.00057455
0.001177
-0.000736906
0.00131356
-0.00090011
0.00145868
-0.00105837
-0.00119476
0.00161283
1.1307e-05
9.68142e-05
3.77513e-05
0.000249419
7.50272e-05
0.000358872
0.000120479
0.00042594
0.000172581
0.000453895
0.000230665
0.000447185
0.000294663
0.000410549
0.000364888
0.000348437
0.00044187
0.000264711
0.000526258
0.000162561
0.000618742
4.45685e-05
0.00071999
-8.71444e-05
0.000830559
-0.00023072
0.000950785
-0.000384352
0.00108067
-0.000546083
0.00121975
-0.000713637
0.00136714
-0.00088429
0.00152162
-0.00105459
0.00168231
-0.00121906
-0.00136165
0.0018492
1.01423e-05
8.66719e-05
3.55586e-05
0.000224002
7.31239e-05
0.000321307
0.000120676
0.000378388
0.00017681
0.000397761
0.000240798
0.000383196
0.000312469
0.000338878
0.000392061
0.000268845
0.000480102
0.000176671
0.000577284
6.53787e-05
0.000684353
-6.25005e-05
0.00080197
-0.000204761
0.000930557
-0.000359308
0.00107014
-0.000523931
0.00122017
-0.000696121
0.00137949
-0.000872957
0.00154628
-0.00105108
0.0017183
-0.00122661
0.00189353
-0.00139429
-0.00153945
0.00207133
8.49845e-06
7.81734e-05
3.17202e-05
0.000200781
6.79464e-05
0.000285081
0.000115743
0.000330591
0.000174063
0.000339441
0.000242342
0.000314918
0.000320485
0.000260735
0.000408798
0.000180531
0.000507873
7.75963e-05
0.000618436
-4.51844e-05
0.000741176
-0.00018524
0.000876539
-0.000340125
0.00102453
-0.000507295
0.0011845
-0.000683909
0.00135509
-0.000866707
0.00153413
-0.001052
0.0017188
-0.00123575
0.00190589
-0.0014137
0.00209248
-0.00158089
-0.00172435
0.00227738
6.65796e-06
7.15155e-05
2.71276e-05
0.000180311
6.11922e-05
0.000251016
0.000108305
0.000283479
0.000167971
0.000279775
0.000239976
0.000242913
0.000324462
0.000176249
0.000421888
8.31049e-05
0.000532901
-3.3417e-05
0.000658143
-0.000170426
0.000798011
-0.000325108
0.000952414
-0.000494528
0.00112055
-0.000675435
0.00130079
-0.000864148
0.00149063
-0.00105655
0.00168682
-0.00124819
0.00188559
-0.00143452
0.00208302
-0.00161113
0.00227574
-0.0017736
-0.0019108
0.00246218
4.90448e-06
6.6611e-05
2.26903e-05
0.000162525
5.46234e-05
0.000219083
0.000101125
0.000236977
0.000162381
0.000218519
0.000238655
0.00016664
0.0003304
8.45043e-05
0.000438217
-2.47129e-05
0.000562687
-0.000157886
0.000704119
-0.000311858
0.000862282
-0.000483272
0.00103616
-0.000668407
0.0012238
-0.000863077
0.0014223
-0.00106265
0.00162793
-0.00126217
0.00183642
-0.00145667
0.00204332
-0.00164142
0.00224447
-0.00181228
0.00243652
-0.00196565
-0.00209226
0.00261798
3.49062e-06
6.31204e-05
1.92254e-05
0.00014679
4.98338e-05
0.000188475
9.67082e-05
0.000190103
0.000160759
0.000154468
0.000242756
8.46427e-05
0.00034343
-1.617e-05
0.000463389
-0.000144671
0.000602894
-0.000297392
0.000761593
-0.000470557
0.000938252
-0.00065993
0.00113059
-0.000860746
0.00133527
-0.00106775
0.00154803
-0.0012754
0.00176401
-0.00147815
0.00197816
-0.00167083
0.00218572
-0.00184899
0.00238271
-0.00200927
0.00256644
-0.00214937
-0.00226208
0.00273626
2.60587e-06
6.05145e-05
1.73532e-05
0.000132043
4.80355e-05
0.000157792
9.69397e-05
0.000141198
0.00016565
8.57574e-05
0.00025536
-5.06689e-06
0.000366917
-0.000127727
0.000500683
-0.000278436
0.000656278
-0.000452987
0.000832325
-0.000646605
0.00102628
-0.000853883
0.0012344
-0.00106887
0.00145195
-0.0012853
0.00167348
-0.00149694
0.00189336
-0.00169802
0.00210614
-0.00188361
0.00230706
-0.00204991
0.00249224
-0.00219445
0.00265871
-0.00231584
-0.00241241
0.00280904
2.3528e-06
5.81617e-05
1.74252e-05
0.000116971
4.99182e-05
0.000125299
0.000102861
8.82554e-05
0.000178367
1.02518e-05
0.00027786
-0.00010456
0.000402044
-0.000251912
0.000550708
-0.000427101
0.000722485
-0.000624764
0.000914678
-0.000838797
0.00112325
-0.00106246
0.00134302
-0.00128864
0.00156806
-0.00151033
0.00179216
-0.00172105
0.00200945
-0.00191531
0.00221478
-0.00208894
0.00240408
-0.00223921
0.00257442
-0.00236479
0.00272409
-0.00246552
-0.00254447
0.00285616
2.74545e-06
5.54163e-05
1.95149e-05
0.000100201
5.56287e-05
8.91855e-05
0.000114645
2.92392e-05
0.000198978
-7.40809e-05
0.000310009
-0.000215591
0.000447971
-0.000389874
0.000611738
-0.000590868
0.000798652
-0.000811678
0.00100451
-0.00104466
0.00122379
-0.00128174
0.00145007
-0.00151492
0.00167662
-0.00173688
0.00189701
-0.00194144
0.0021057
-0.002124
0.00229842
-0.00228165
0.00247237
-0.00241316
0.00262636
-0.00251878
0.00276086
-0.00260002
-0.00266073
0.00287711
3.71959e-06
5.16967e-05
2.34562e-05
8.04647e-05
6.48555e-05
4.77862e-05
0.000131747
-3.7652e-05
0.000226562
-0.000168896
0.000350314
-0.000339343
0.000502418
-0.000541978
0.000680516
-0.000768966
0.000880448
-0.00101161
0.00109647
-0.00126068
0.00132173
-0.001507
0.00154894
-0.00174213
0.00177108
-0.00195901
0.00198205
-0.00215241
0.00217713
-0.00231908
0.00235322
-0.00245775
0.00250889
-0.00256882
0.00264413
-0.00265402
0.0027601
-0.00271599
-0.00275928
0.00285866
5.16652e-06
4.65302e-05
2.89362e-05
5.66951e-05
7.70014e-05
-2.79031e-07
0.000153181
-0.000113832
0.000259609
-0.000275323
0.000396582
-0.000476316
0.000562363
-0.00070776
0.000753108
-0.000959711
0.000963058
-0.00122156
0.00118504
-0.00148266
0.00141121
-0.00173317
0.00163388
-0.0019648
0.0018463
-0.00217144
0.0020432
-0.00234931
0.00222108
-0.00249696
0.00237824
-0.00261491
0.00251459
-0.00270516
0.0026313
-0.00277074
0.00273048
-0.00281517
-0.00284332
0.00281452
6.96583e-06
3.95643e-05
3.55917e-05
2.80693e-05
9.1363e-05
-5.60504e-05
0.000177798
-0.000200267
0.000296399
-0.000393924
0.000446403
-0.00062632
0.000624622
-0.000885979
0.00082556
-0.00116065
0.00104189
-0.0014379
0.00126529
-0.00170606
0.00148736
-0.00195523
0.00170057
-0.00217802
0.00189897
-0.00236984
0.00207851
-0.00252884
0.00223711
-0.00265557
0.00237448
-0.00275228
0.00249173
-0.00282241
0.00259094
-0.00286995
0.00267476
-0.00289899
-0.0029143
0.00274574
9.01203e-06
3.05523e-05
4.30857e-05
-6.00436e-06
0.000107268
-0.000120233
0.000204484
-0.000297482
0.000335266
-0.000524707
0.000497463
-0.000788517
0.000686199
-0.00107471
0.000894272
-0.00136872
0.00111298
-0.00165661
0.00133324
-0.00192631
0.00154664
-0.00216863
0.00174636
-0.00237774
0.00192764
-0.00255112
0.00208792
-0.00268912
0.00222658
-0.00279423
0.0023446
-0.0028703
0.00244404
-0.00292185
0.0025276
-0.0029535
0.00259819
-0.00296958
-0.00297452
0.00265841
1.12278e-05
1.93245e-05
5.11469e-05
-4.59234e-05
0.000124146
-0.000193232
0.000232256
-0.000405592
0.00037471
-0.000667161
0.000547672
-0.000961478
0.00074443
-0.00127147
0.000956166
-0.00158046
0.00117314
-0.00187358
0.00138599
-0.00213917
0.00158689
-0.00236953
0.00177014
-0.002561
0.0019325
-0.00271348
0.00207291
-0.00282953
0.00219213
-0.00291344
0.00229213
-0.0029703
0.00237564
-0.00300536
0.00244564
-0.0030235
0.00250506
-0.00302901
-0.00302581
0.00255635
1.35641e-05
5.76039e-06
5.95725e-05
-9.19318e-05
0.000141529
-0.000275189
0.00026027
-0.000524333
0.000413403
-0.000820294
0.000595178
-0.00114325
0.000797025
-0.00147332
0.00100874
-0.00179218
0.00122001
-0.00208485
0.00142179
-0.00234094
0.00160725
-0.00255499
0.00177221
-0.00272596
0.00191501
-0.00285627
0.00203602
-0.00295054
0.0021371
-0.00301452
0.00222097
-0.00305417
0.00229068
-0.00307507
0.00234927
-0.00308209
0.00239949
-0.00307923
-0.00306986
0.00244354
1.59912e-05
-1.02308e-05
6.82077e-05
-0.000144148
0.000159025
-0.000366006
0.000287772
-0.00065308
0.000450148
-0.000982671
0.000638351
-0.00133146
0.000842073
-0.00167704
0.00105012
-0.00200022
0.00125213
-0.00228686
0.00143989
-0.0025287
0.001608
-0.0027231
0.00175392
-0.00287188
0.00187749
-0.00297984
0.00198032
-0.00305337
0.00206508
-0.00309928
0.0021349
-0.00312399
0.00219292
-0.0031331
0.00224204
-0.00313121
0.00228472
-0.00312191
-0.00310797
0.00232282
1.84877e-05
-2.87185e-05
7.69175e-05
-0.000202578
0.000176268
-0.000465356
0.000314058
-0.00079087
0.000483849
-0.00115246
0.000675776
-0.00152338
0.000878069
-0.00187934
0.00107904
-0.00220119
0.00126883
-0.00247665
0.00144052
-0.00270038
0.00159033
-0.00287291
0.00171733
-0.00299888
0.00182273
-0.00308524
0.00190906
-0.00313971
0.0019795
-0.00316972
0.00203734
-0.00318182
0.0020856
-0.00318136
0.00212689
-0.0031725
0.00216334
-0.00315836
-0.00314112
0.00219649
2.10303e-05
-4.97489e-05
8.55633e-05
-0.000267111
0.000192892
-0.000572685
0.000338444
-0.000936421
0.000513504
-0.00132752
0.00070628
-0.00171616
0.000903949
-0.00207701
0.00109488
-0.00239212
0.00127022
-0.002652
0.00142462
-0.00285478
0.00155601
-0.0030043
0.00166493
-0.0031078
0.00175366
-0.00317397
0.00182537
-0.00321142
0.00188347
-0.00322782
0.00193118
-0.00322953
0.00197129
-0.00322147
0.00200607
-0.00320728
0.00203728
-0.00318957
-0.00317001
0.00206617
2.3589e-05
-7.33379e-05
9.39911e-05
-0.000337513
0.000208519
-0.000687213
0.000360272
-0.00108817
0.000538238
-0.00150549
0.000728973
-0.00190689
0.000919108
-0.00226714
0.0010976
-0.00257062
0.00125702
-0.00281141
0.0013937
-0.00299146
0.0015072
-0.00311779
0.0015993
-0.00319991
0.00167308
-0.00324774
0.00173204
-0.00327037
0.0017796
-0.00327539
0.00181878
-0.00326871
0.00185204
-0.00325473
0.00188129
-0.00323653
0.00190795
-0.00321623
-0.00319508
0.00193302
2.61249e-05
-9.94627e-05
0.00010203
-0.000413418
0.000222762
-0.000807945
0.000378934
-0.00124435
0.000557338
-0.00168389
0.00074328
-0.00209284
0.00092339
-0.00244725
0.00108769
-0.00273492
0.00123039
-0.00295411
0.00134955
-0.00311063
0.00144616
-0.0032144
0.00152296
-0.00327672
0.00158352
-0.0033083
0.00163146
-0.00331831
0.00167004
-0.00331397
0.00170197
-0.00330064
0.00172936
-0.00328212
0.00175379
-0.00326095
0.00177637
-0.00323882
-0.00321659
0.00179788
2.85913e-05
-0.000128054
0.000109497
-0.000494324
0.000235249
-0.000933697
0.000393901
-0.001403
0.000570289
-0.00186028
0.000748953
-0.0022715
0.000917046
-0.00261534
0.00106601
-0.00288389
0.00119182
-0.00307992
0.00129414
-0.00321294
0.00137512
-0.00329538
0.00143821
-0.0033398
0.00148719
-0.00335729
0.00152562
-0.00335674
0.0015565
-0.00334484
0.00158217
-0.00332631
0.0016044
-0.00330435
0.00162447
-0.00328102
0.00164325
-0.00325759
-0.00323466
0.00166132
3.09368e-05
-0.000158991
0.00011621
-0.000579598
0.000245637
-0.00106312
0.000404757
-0.00156212
0.000576797
-0.00203232
0.000746052
-0.00244076
0.000900659
-0.00276995
0.00103372
-0.00301695
0.00114293
-0.00318913
0.00122938
-0.00329939
0.00129613
-0.00336213
0.00134703
-0.00339071
0.00138591
-0.00339617
0.0014161
-0.00338693
0.00144026
-0.003369
0.0014604
-0.00334646
0.00147798
-0.00332192
0.00149398
-0.00329703
0.00150909
-0.00327271
-0.00324934
0.00152377
3.31079e-05
-0.000192099
0.000121994
-0.000668483
0.000253639
-0.00119477
0.00041122
-0.0017197
0.000576788
-0.00219789
0.000734909
-0.00259888
0.000875062
-0.0029101
0.000992113
-0.003134
0.00108538
-0.0032824
0.00115712
-0.00337113
0.00121102
-0.00341603
0.00125114
-0.00343082
0.00128115
-0.00342618
0.00130411
-0.00340989
0.00132232
-0.00338721
0.00133746
-0.0033616
0.00135068
-0.00333515
0.00136279
-0.00330913
0.00137429
-0.0032842
-0.00326058
0.00138552
3.50522e-05
-0.000227151
0.000126692
-0.000760123
0.000259033
-0.00132711
0.000413146
-0.00187381
0.000570391
-0.00235513
0.000716067
-0.00274455
0.000841247
-0.00303528
0.000942554
-0.00323531
0.00102075
-0.00336059
0.00107898
-0.00342936
0.00112136
-0.00345841
0.00115191
-0.00346137
0.0011741
-0.00344837
0.00119061
-0.0034264
0.00120342
-0.00340002
0.0012139
-0.00337207
0.00122297
-0.00334422
0.00123124
-0.0033174
0.00123911
-0.00329207
-0.00326831
0.00124684
3.67206e-05
-0.000263871
0.000130176
-0.000853579
0.000261673
-0.00145861
0.00041053
-0.00202267
0.000557907
-0.00250251
0.000690226
-0.00287687
0.000800287
-0.00314534
0.000886384
-0.0033214
0.000950489
-0.0034247
0.000996419
-0.00347529
0.00102845
-0.00349044
0.00105048
-0.0034834
0.00106565
-0.00346354
0.00107631
-0.00343706
0.00108411
-0.00340782
0.00109015
-0.00337811
0.00109515
-0.00334922
0.0010996
-0.00332185
0.00110379
-0.00329626
-0.00327245
0.00110793
3.80693e-05
-0.000301941
0.000132348
-0.000947857
0.000261495
-0.00158775
0.00040349
-0.00216466
0.000539772
-0.00263879
0.000658175
-0.00299528
0.000753271
-0.00324044
0.000824866
-0.003393
0.000875909
-0.00347574
0.000910647
-0.00351003
0.000933365
-0.00351316
0.000947721
-0.00349775
0.000956521
-0.00347234
0.000961766
-0.00344231
0.000964808
-0.00341086
0.000966529
-0.00337983
0.000967499
-0.00335019
0.000968084
-0.00332243
0.000968515
-0.00329669
-0.0032729
0.000968963
3.90619e-05
-0.000341003
0.000133144
-0.00104194
0.000258507
-0.00171312
0.000392251
-0.00229841
0.000516515
-0.00276306
0.000620749
-0.00309951
0.000701251
-0.00332094
0.000759149
-0.0034509
0.000798136
-0.00351473
0.000822689
-0.00353458
0.000836971
-0.00352744
0.000844337
-0.00350512
0.000847245
-0.00347525
0.000847373
-0.00344244
0.00084582
-0.00340931
0.000843283
-0.0033773
0.000840207
-0.00334712
0.000836877
-0.0033191
0.000833471
-0.00329328
-0.00326956
0.000830127
3.96752e-05
-0.000380678
0.000132544
-0.00113481
0.0002528
-0.00183337
0.000377132
-0.00242274
0.00048874
-0.00287466
0.000578801
-0.00318957
0.000645232
-0.00338737
0.000690273
-0.00349594
0.000718148
-0.0035426
0.000733398
-0.00354983
0.000739968
-0.00353401
0.000740878
-0.00350603
0.000738246
-0.00347262
0.000733461
-0.00343765
0.000727405
-0.00340325
0.000720625
-0.00337052
0.000713467
-0.00333996
0.000706154
-0.00331179
0.000698828
-0.00328596
-0.00326233
0.000691601
3.98803e-05
-0.000420558
0.000130534
-0.00122546
0.000244484
-0.00194732
0.000358463
-0.00253672
0.000457021
-0.00297322
0.00053309
-0.00326564
0.000586066
-0.00344035
0.000619086
-0.00352896
0.00063671
-0.00356023
0.000643412
-0.00355654
0.000642858
-0.00353346
0.000637724
-0.0035009
0.000629805
-0.0034647
0.000620241
-0.00342809
0.000609727
-0.00339274
0.000598693
-0.00335948
0.000587407
-0.00332868
0.000576047
-0.00330043
0.000564724
-0.00327463
-0.00325114
0.000553533
3.9671e-05
-0.000460229
0.000127157
-0.00131295
0.000233748
-0.00205391
0.000336654
-0.00263963
0.000421978
-0.00305855
0.000484383
-0.00332804
0.000524566
-0.00348053
0.00054636
-0.00355075
0.000554497
-0.00356836
0.000553286
-0.00355532
0.000546077
-0.00352625
0.000535206
-0.00349003
0.000522178
-0.00345167
0.000507913
-0.00341382
0.000492957
-0.00337778
0.000477642
-0.00334417
0.000462179
-0.00331321
0.000446708
-0.00328496
0.000431322
-0.00325925
-0.00323592
0.0004161
3.90446e-05
-0.000499274
0.000122471
-0.00139637
0.000220805
-0.00215225
0.000312113
-0.00273093
0.000384194
-0.00313063
0.000433357
-0.00337721
0.000461421
-0.0035086
0.000472728
-0.00356206
0.000472044
-0.00356768
0.000463445
-0.00354673
0.000449947
-0.00351275
0.000433566
-0.00347365
0.000415549
-0.00343366
0.000396628
-0.0033949
0.000377226
-0.00335838
0.000357598
-0.00332454
0.000337909
-0.00329352
0.000318272
-0.00326532
0.000298766
-0.00323974
-0.00321661
0.000279461
3.80064e-05
-0.00053728
0.000116558
-0.00147493
0.000205888
-0.00224158
0.00028525
-0.00281029
0.000344212
-0.00318959
0.000380619
-0.00341361
0.000397224
-0.0035252
0.000398713
-0.00356355
0.000389779
-0.00355875
0.000374219
-0.00353117
0.000354716
-0.00349325
0.00033299
-0.00345192
0.000310061
-0.00341073
0.000286504
-0.00337135
0.000262643
-0.00333452
0.000238668
-0.00330056
0.00021471
-0.00326957
0.000190863
-0.00324147
0.000167194
-0.00321607
-0.00319318
0.000143766
3.65688e-05
-0.000573849
0.000109511
-0.00154787
0.000189238
-0.0023213
0.000256459
-0.00287752
0.000302532
-0.00323566
0.000326701
-0.00343778
0.000332477
-0.00353098
0.000324745
-0.00355581
0.000308046
-0.00354205
0.000285868
-0.00350899
0.000260575
-0.00346795
0.000233618
-0.00342496
0.000205825
-0.00338293
0.00017764
-0.00334316
0.000149301
-0.00330618
0.000120949
-0.00327221
9.26863e-05
-0.0032413
6.45911e-05
-0.00321338
3.67265e-05
-0.00318821
-0.00316561
9.14992e-06
3.475e-05
-0.000608599
0.000101439
-0.00161456
0.0001711
-0.00239097
0.000226113
-0.00293253
0.000259604
-0.00326915
0.000272063
-0.00345024
0.000267598
-0.00352651
0.000251173
-0.00353939
0.000227113
-0.00351799
0.000198591
-0.00348047
0.000167668
-0.00343703
0.00013556
-0.00339286
0.000102929
-0.0033503
7.01118e-05
-0.00331034
3.72765e-05
-0.00327335
4.52211e-06
-0.00323946
-2.80749e-05
-0.00320871
-6.0446e-05
-0.00318101
-9.25297e-05
-0.00315613
-0.00313387
-0.00012427
3.25735e-05
-0.000641172
9.24553e-05
-0.00167444
0.000151713
-0.00245022
0.00019456
-0.00297538
0.000215828
-0.00329042
0.000217104
-0.00345152
0.00020294
-0.00351235
0.00017828
-0.00351473
0.000147196
-0.0034869
0.000112544
-0.00344581
7.61077e-05
-0.00340059
3.88992e-05
-0.00335565
1.4417e-06
-0.00331285
-3.60175e-05
-0.00327288
-7.33671e-05
-0.003236
-0.000110546
-0.00320228
-0.0001475
-0.00317175
-0.000184168
-0.00314434
-0.000220487
-0.00311981
-0.00309796
-0.000256398
3.00665e-05
-0.000671239
8.26771e-05
-0.00172705
0.00013131
-0.00249886
0.000162119
-0.00300618
0.000171559
-0.00329986
0.000162162
-0.00344212
0.000138793
-0.00348898
0.000106298
-0.00348223
6.84665e-05
-0.00344907
2.785e-05
-0.0034052
-1.40175e-05
-0.00335873
-5.62996e-05
-0.00331336
-9.85856e-05
-0.00327056
-0.000140701
-0.00323077
-0.000182583
-0.00319411
-0.000224205
-0.00316066
-0.000265534
-0.00313042
-0.000306515
-0.00310336
-0.000347079
-0.00307924
-0.00305788
-0.000387159
2.72595e-05
-0.000698499
7.22225e-05
-0.00177201
0.00011011
-0.00253674
0.000129079
-0.00302515
0.000127109
-0.00329789
0.000107529
-0.00342254
7.54023e-05
-0.00345685
3.54159e-05
-0.00344225
-8.93538e-06
-0.00340472
-5.53899e-05
-0.00335874
-0.000102636
-0.00331148
-0.000149983
-0.00326602
-0.000197112
-0.00322343
-0.000243904
-0.00318398
-0.000290339
-0.00314768
-0.000336421
-0.00311457
-0.000382141
-0.0030847
-0.000427449
-0.00305805
-0.000472265
-0.00303443
-0.00301363
-0.000516509
2.41851e-05
-0.000722684
6.12085e-05
-0.00180904
8.83174e-05
-0.00256385
9.57032e-05
-0.00303254
8.27514e-05
-0.00328494
5.34551e-05
-0.00339325
1.29756e-05
-0.00341637
-3.42045e-05
-0.00339507
-8.48895e-05
-0.00335403
-0.000137088
-0.00330654
-0.000189683
-0.00325889
-0.000242106
-0.00321359
-0.000294105
-0.00317143
-0.000345606
-0.00313248
-0.00039662
-0.00309667
-0.000447185
-0.00306401
-0.000497315
-0.00303457
-0.000546969
-0.00300839
-0.00059605
-0.00298535
-0.00296522
-0.000644459
2.08777e-05
-0.000743561
4.97492e-05
-0.00183791
6.61265e-05
-0.00258023
6.22285e-05
-0.00302864
3.87294e-05
-0.00326144
1.58539e-07
-0.00335467
-4.83067e-05
-0.00336791
-0.000102421
-0.00334095
-0.000159286
-0.00329717
-0.000217159
-0.00324867
-0.000275093
-0.00320095
-0.000332619
-0.00315607
-0.000389535
-0.00311451
-0.000445792
-0.00307622
-0.000501427
-0.00304103
-0.000556509
-0.00300893
-0.000611083
-0.00298
-0.000665119
-0.00295436
-0.000718502
-0.00293196
-0.00291263
-0.000771099
1.73731e-05
-0.000760934
3.79557e-05
-0.00185849
4.37168e-05
-0.00258599
2.88709e-05
-0.0030138
-4.74065e-06
-0.00322783
-5.21666e-05
-0.00330725
-0.000108282
-0.00331179
-0.000169102
-0.00328013
-0.000232015
-0.00323426
-0.000295511
-0.00318518
-0.00035879
-0.00313767
-0.000421464
-0.00309339
-0.000483362
-0.00305262
-0.000544447
-0.00301513
-0.000604769
-0.00298071
-0.000664426
-0.00294927
-0.0007235
-0.00292093
-0.000781985
-0.00289587
-0.000839746
-0.0028742
-0.00285577
-0.000896602
1.37076e-05
-0.000774642
2.59351e-05
-0.00187072
2.12561e-05
-0.00258131
-4.17283e-06
-0.00298837
-4.7463e-05
-0.00318454
-0.000103344
-0.00325137
-0.000166797
-0.00324834
-0.000234113
-0.00321282
-0.00030296
-0.00316541
-0.000372036
-0.0031161
-0.000440677
-0.00306903
-0.000508557
-0.00302551
-0.000575527
-0.00298565
-0.000641543
-0.00294912
-0.000706654
-0.0029156
-0.000770976
-0.00288495
-0.000834635
-0.00285727
-0.000897667
-0.00283284
-0.000959927
-0.00281194
-0.00279456
-0.00102114
9.9182e-06
-0.00078456
1.37905e-05
-0.00187459
-1.09924e-06
-0.00256642
-3.67221e-05
-0.00295274
-8.92584e-05
-0.003132
-0.000153207
-0.00318742
-0.000223703
-0.00317784
-0.000297317
-0.0031392
-0.000371982
-0.00309074
-0.000446597
-0.00304149
-0.000520615
-0.00299501
-0.000593772
-0.00295236
-0.000665928
-0.00291349
-0.000737021
-0.00287802
-0.000807073
-0.00284555
-0.000876198
-0.00281582
-0.000944566
-0.0027889
-0.00101227
-0.00276513
-0.00107917
-0.00274504
-0.0027289
-0.00114483
6.04193e-06
-0.000790602
1.62035e-06
-0.00187017
-2.32035e-05
-0.0025416
-6.86108e-05
-0.00290734
-0.000129961
-0.00307065
-0.000201601
-0.00311578
-0.000278849
-0.00310059
-0.000358561
-0.00305949
-0.000438923
-0.00301038
-0.000519018
-0.00296139
-0.000598416
-0.00291561
-0.000676913
-0.00287386
-0.000754383
-0.00283602
-0.000830741
-0.00280167
-0.000905959
-0.00277033
-0.000980115
-0.00274166
-0.0010534
-0.00271562
-0.00112597
-0.00269256
-0.00119771
-0.00267331
-0.00265857
-0.00126804
2.11538e-06
-0.000792717
-1.04818e-05
-0.00185757
-4.49218e-05
-0.00250716
-9.96865e-05
-0.00285257
-0.000169417
-0.00300092
-0.000248373
-0.00303682
-0.000332083
-0.00301688
-0.000417681
-0.00297389
-0.000503596
-0.00292447
-0.000589083
-0.00287591
-0.000673828
-0.00283087
-0.000757698
-0.00278999
-0.000840602
-0.00275312
-0.000922439
-0.00271983
-0.00100313
-0.00268964
-0.00108267
-0.00266212
-0.00116124
-0.00263704
-0.0012391
-0.0026147
-0.00131617
-0.00259624
-0.00258264
-0.00139209
-1.82579e-06
-0.000790892
-2.24286e-05
-0.00183697
-6.61308e-05
-0.00246346
-0.000129811
-0.00278889
-0.000207485
-0.00292325
-0.00029338
-0.00295093
-0.00038325
-0.00292701
-0.000474501
-0.00288264
-0.000565788
-0.00283318
-0.000656531
-0.00278516
-0.000746537
-0.00274086
-0.000835762
-0.00270077
-0.00092418
-0.0026647
-0.00101172
-0.00263229
-0.00109826
-0.0026031
-0.00118374
-0.00257664
-0.00126828
-0.00255251
-0.00135224
-0.00253074
-0.00143574
-0.00251274
-0.00249886
-0.00151953
-5.74767e-06
-0.000785144
-3.41399e-05
-0.00180858
-8.67198e-05
-0.00241088
-0.000158861
-0.00271675
-0.000244037
-0.00283807
-0.000336489
-0.00285848
-0.000432198
-0.0028313
-0.000528832
-0.00278601
-0.000625256
-0.00273676
-0.000721046
-0.00268937
-0.000816131
-0.00264578
-0.000910586
-0.00260631
-0.00100451
-0.00257078
-0.00109794
-0.00253885
-0.00119085
-0.00251019
-0.00128314
-0.00248436
-0.00137483
-0.00246081
-0.0014663
-0.00243927
-0.00155801
-0.00242103
-0.00240436
-0.0016525
-9.61882e-06
-0.000775525
-4.55444e-05
-0.00177265
-0.000106594
-0.00234983
-0.000186733
-0.00263661
-0.00027897
-0.00274583
-0.000377585
-0.00275986
-0.000478792
-0.0027301
-0.000580496
-0.00268431
-0.000681747
-0.0026355
-0.000782254
-0.00258887
-0.000882057
-0.00254598
-0.000981352
-0.00250702
-0.00108041
-0.00247172
-0.00117952
-0.00243974
-0.00127895
-0.00241076
-0.0013789
-0.00238441
-0.00147949
-0.00236022
-0.00158136
-0.00233739
-0.0016868
-0.00231559
-0.00230669
-0.00178447
-1.3398e-05
-0.000762127
-5.65597e-05
-0.00172949
-0.00012565
-0.00228074
-0.000213321
-0.00254894
-0.000312179
-0.00264697
-0.000416568
-0.00265547
-0.000522921
-0.00262374
-0.000629355
-0.00257787
-0.000735071
-0.00252979
-0.000839867
-0.00248407
-0.000943833
-0.00244201