/*--------------------------------*- C++ -*----------------------------------*\
  =========                 |
  \\      /  F ield         | OpenFOAM: The Open Source CFD Toolbox
   \\    /   O peration     | Website:  https://openfoam.org
    \\  /    A nd           | Version:  6.0
     \\/     M anipulation  |
\*---------------------------------------------------------------------------*/
FoamFile
{
    version     2.0;
    format      ascii;
    class       volVectorField;
    location    "8.9";
    object      U;
}
// * * * * * * * * * * * * * * * * * * * * * * * * * * * * * * * * * * * * * //

dimensions      [0 1 -1 0 0 0 0];

internalField   nonuniform List<vector> 
8000
(
(-0.000942998 0.00104615 -4.12266e-21)
(-0.00496142 0.00251611 2.20425e-20)
(-0.0122492 0.00352466 -2.6844e-20)
(-0.0211467 0.00421031 2.0456e-20)
(-0.0308463 0.0046633 9.98146e-21)
(-0.0409238 0.004949 -2.99776e-20)
(-0.0510817 0.00511773 -2.65762e-21)
(-0.061129 0.00520847 -9.55069e-22)
(-0.0709591 0.00525171 -1.56505e-20)
(-0.0805237 0.0052716 -8.50607e-21)
(-0.0898157 0.00528735 6.31783e-21)
(-0.0988571 0.00531429 2.41699e-20)
(-0.107689 0.00536446 -1.76748e-21)
(-0.116363 0.00544709 2.63464e-21)
(-0.124942 0.00556867 -2.4514e-20)
(-0.13352 0.00573273 1.51415e-20)
(-0.142174 0.00594053 -2.18009e-20)
(-0.150699 0.00619556 3.3022e-20)
(-0.158724 0.0065024 -3.61482e-23)
(-0.168234 0.00682364 7.31949e-21)
(-0.00108287 0.0031265 1.36892e-20)
(-0.00524128 0.00754794 -7.0008e-20)
(-0.0125327 0.0106076 -4.84262e-20)
(-0.021354 0.0127096 -3.2931e-20)
(-0.0309243 0.0141176 -4.24203e-20)
(-0.040833 0.0150236 9.2937e-21)
(-0.0507914 0.0155759 -4.90702e-20)
(-0.060614 0.0158901 -1.10768e-20)
(-0.0701968 0.0160571 3.42282e-21)
(-0.0794929 0.0161491 3.67866e-20)
(-0.0884956 0.0162239 -4.02611e-20)
(-0.097227 0.0163279 5.61047e-20)
(-0.105728 0.0164978 -4.21161e-20)
(-0.11405 0.016762 -5.01017e-20)
(-0.122258 0.0171407 -6.93407e-20)
(-0.130444 0.0176453 4.41419e-20)
(-0.13869 0.0182804 -1.44821e-20)
(-0.146794 0.0190574 -5.26006e-20)
(-0.154373 0.0199914 4.97695e-20)
(-0.163414 0.0209703 -3.75581e-20)
(-0.00135576 0.0051151 1.3388e-19)
(-0.00578956 0.0123795 6.94575e-20)
(-0.0130907 0.0174305 7.81601e-20)
(-0.0217649 0.0209153 6.51843e-21)
(-0.0310832 0.0232592 4.32473e-20)
(-0.0406616 0.0247735 5.40494e-20)
(-0.0502287 0.0256999 -9.8298e-20)
(-0.0596095 0.0262275 -5.21852e-20)
(-0.0687057 0.0265053 -6.81554e-20)
(-0.0774733 0.0266528 7.27375e-20)
(-0.0859064 0.0267657 -5.56664e-20)
(-0.0940271 0.0269217 -7.18628e-20)
(-0.101876 0.0271827 -2.62109e-20)
(-0.109506 0.0275972 2.49236e-20)
(-0.116981 0.028201 -7.11315e-21)
(-0.124396 0.0290152 9.92121e-21)
(-0.131841 0.0300496 1.16916e-19)
(-0.139117 0.0313254 -1.62241e-20)
(-0.145819 0.0328725 -1.19573e-19)
(-0.153939 0.0345047 1.60356e-19)
(-0.00174835 0.00695736 4.67112e-20)
(-0.00658433 0.0168896 -6.58488e-20)
(-0.0139073 0.0238337 -1.6584e-20)
(-0.022376 0.028645 3.0964e-20)
(-0.0313346 0.0318918 8.80037e-20)
(-0.0404374 0.0339933 1.92893e-19)
(-0.0494383 0.035277 1.88727e-19)
(-0.0581779 0.0360003 1.57763e-20)
(-0.0665667 0.0363675 1.16084e-19)
(-0.0745648 0.0365428 1.77964e-19)
(-0.082168 0.0366594 -1.42605e-19)
(-0.0893986 0.0368258 2.11011e-19)
(-0.0962975 0.0371302 -4.82354e-20)
(-0.102917 0.0376432 1.19393e-20)
(-0.109323 0.0384183 5.04888e-20)
(-0.115615 0.0394899 6.74207e-20)
(-0.121891 0.040876 -1.05706e-19)
(-0.127963 0.0426117 -8.86308e-20)
(-0.133395 0.0447487 -1.57582e-19)
(-0.14018 0.0470281 2.32777e-19)
(-0.00224238 0.00860842 -2.43628e-20)
(-0.00759524 0.0209758 -2.4988e-19)
(-0.0149604 0.0296788 -7.40118e-20)
(-0.023182 0.0357373 -1.80421e-19)
(-0.0316939 0.0398387 6.81937e-20)
(-0.0401989 0.0424955 -1.07739e-19)
(-0.048483 0.0441111 3.71395e-20)
(-0.0564072 0.0450046 -2.28738e-19)
(-0.0638937 0.0454307 1.20791e-19)
(-0.0709087 0.0455957 -1.4425e-19)
(-0.0774505 0.0456682 -1.28548e-19)
(-0.0835418 0.0457876 -1.4434e-19)
(-0.0892238 0.0460692 1.31279e-19)
(-0.0945494 0.0466079 -1.18227e-19)
(-0.0995861 0.0474787 1.64789e-19)
(-0.104439 0.0487331 4.79227e-20)
(-0.109218 0.050403 1.18964e-19)
(-0.113753 0.0525428 5.24865e-20)
(-0.11757 0.0552364 -2.07686e-19)
(-0.122659 0.0581568 3.44075e-19)
(-0.00281649 0.0100358 1.07792e-19)
(-0.00878626 0.0245598 8.17575e-21)
(-0.0162233 0.0348553 4.44187e-20)
(-0.0241758 0.0420585 1.55002e-19)
(-0.0321791 0.0469495 -2.37157e-20)
(-0.0399914 0.0501174 2.52072e-19)
(-0.0474372 0.0520298 1.12086e-19)
(-0.0544025 0.0530592 9.40857e-21)
(-0.0608242 0.0535049 2.88896e-19)
(-0.0666764 0.0536112 9.4969e-20)
(-0.071961 0.0535799 4.51107e-20)
(-0.0767018 0.0535801 1.43211e-19)
(-0.08094 0.0537549 1.31621e-19)
(-0.0847296 0.0542257 2.41069e-19)
(-0.0881403 0.0550933 -2.15535e-19)
(-0.0912826 0.0564326 3.06356e-19)
(-0.094285 0.0582954 4.75322e-21)
(-0.0969978 0.0607641 -3.9321e-19)
(-0.0989119 0.0639692 5.11268e-19)
(-0.102005 0.0675249 2.16415e-19)
(-0.00344837 0.0112211 -6.34934e-20)
(-0.0101189 0.0275909 -1.15496e-19)
(-0.0176664 0.0392849 -2.40235e-19)
(-0.0253484 0.0475078 -7.14265e-21)
(-0.0328071 0.0531056 4.11173e-20)
(-0.0398615 0.0567266 -3.07132e-19)
(-0.0463794 0.0588898 -2.28107e-19)
(-0.0522757 0.0600117 -3.25778e-20)
(-0.0575056 0.0604294 -2.89211e-19)
(-0.0620533 0.06042 -2.00678e-19)
(-0.0659256 0.0602147 -5.85421e-20)
(-0.0691476 0.0600106 -1.88852e-19)
(-0.0717607 0.0599783 -2.90996e-21)
(-0.0738195 0.0602676 -2.51826e-19)
(-0.0753961 0.0610095 1.06498e-19)
(-0.0766077 0.0623091 -1.21407e-19)
(-0.0776026 0.0642477 9.37809e-20)
(-0.0782617 0.0669465 -1.18614e-19)
(-0.0780439 0.0706018 -3.41131e-19)
(-0.0789091 0.0747865 -1.04473e-19)
(-0.00411688 0.0121599 -2.35427e-20)
(-0.0115554 0.0300469 -2.55224e-20)
(-0.0192593 0.0429235 2.01516e-19)
(-0.0266881 0.0520204 -3.28117e-19)
(-0.0335907 0.0582241 4.81203e-20)
(-0.03985 0.0622254 -1.89732e-19)
(-0.0453812 0.0645821 8.96724e-20)
(-0.050132 0.0657447 4.03735e-19)
(-0.054079 0.0660802 -2.56902e-20)
(-0.057219 0.0658917 -3.01948e-19)
(-0.0595651 0.0654354 5.48559e-20)
(-0.0611445 0.0649323 1.05167e-20)
(-0.0619985 0.0645792 -6.26825e-20)
(-0.0621815 0.0645552 5.8162e-21)
(-0.0617673 0.0650251 5.50207e-19)
(-0.0608792 0.0661323 -7.81259e-20)
(-0.0596876 0.0679982 -1.53557e-19)
(-0.058112 0.0707978 -2.76651e-19)
(-0.0555904 0.0748188 2.82024e-19)
(-0.0540604 0.0796199 1.23005e-19)
(-0.00480391 0.0128612 1.183e-19)
(-0.0130615 0.0319333 -1.54935e-19)
(-0.0209721 0.0457614 2.18951e-19)
(-0.0281789 0.0555677 2.20384e-19)
(-0.0345336 0.0622592 2.03129e-19)
(-0.0399842 0.066554 4.12128e-19)
(-0.044496 0.0690363 2.66779e-19)
(-0.0480534 0.0701808 -5.73711e-19)
(-0.0506575 0.0703757 2.93722e-19)
(-0.0523208 0.069943 2.30892e-19)
(-0.0530644 0.0691567 -3.15901e-21)
(-0.0529183 0.0682569 2.59327e-19)
(-0.0519232 0.0674623 2.0291e-19)
(-0.0501323 0.0669802 -1.10116e-19)
(-0.0476189 0.0670112 3.74183e-19)
(-0.0445111 0.067744 -4.64097e-19)
(-0.0410013 0.0693528 1.86402e-19)
(-0.037055 0.0720855 2.4047e-19)
(-0.0321059 0.0763538 -5.65745e-20)
(-0.0280741 0.081744 4.87899e-19)
(-0.0054959 0.0133451 2.3831e-19)
(-0.0146085 0.0332796 1.23279e-20)
(-0.0227755 0.0478194 -8.54352e-20)
(-0.0297987 0.0581561 -9.01544e-20)
(-0.0356251 0.065202 -4.17715e-19)
(-0.0402676 0.0696904 5.90966e-20)
(-0.0437443 0.0722219 1.67788e-19)
(-0.0460791 0.0732857 -8.06672e-20)
(-0.0473015 0.0732824 6.65994e-20)
(-0.0474425 0.0725446 -1.76091e-20)
(-0.0465337 0.0713561 -8.72574e-20)
(-0.044609 0.0699684 8.27666e-20)
(-0.0417083 0.0686157 -3.62015e-19)
(-0.0378814 0.0675283 3.46829e-19)
(-0.0331991 0.0669418 -3.01619e-19)
(-0.0277906 0.0670944 9.3104e-20)
(-0.0218684 0.0682256 2.12953e-19)
(-0.0154491 0.0706784 -4.42677e-20)
(-0.00798294 0.0750296 -1.47904e-19)
(-0.00139134 0.0809529 -1.00806e-19)
(-0.00618452 0.0136404 -2.9697e-19)
(-0.0161741 0.0341346 -1.93381e-20)
(-0.0246408 0.0491446 6.24864e-20)
(-0.0315162 0.0598222 1.60434e-19)
(-0.0368336 0.067077 -2.26527e-19)
(-0.0406704 0.0716495 -1.97694e-19)
(-0.0430985 0.0741484 4.6175e-19)
(-0.0441848 0.0750694 -2.55051e-19)
(-0.0439905 0.0748172 -1.64693e-19)
(-0.0425685 0.0737264 -2.36678e-19)
(-0.0399639 0.0720816 1.56854e-19)
(-0.0362162 0.0701362 -4.02099e-21)
(-0.0313648 0.0681301 -2.93406e-19)
(-0.0254553 0.0663075 -4.81678e-19)
(-0.0185519 0.0649322 3.67081e-19)
(-0.0107812 0.064291 -2.98595e-19)
(-0.00237089 0.0646974 4.23848e-19)
(0.00660928 0.0666126 -1.18794e-19)
(0.0166701 0.0708278 2.52501e-19)
(0.0258512 0.0771853 -8.49129e-19)
(-0.00686677 0.0137805 -6.01678e-19)
(-0.017742 0.0345596 3.94058e-19)
(-0.0265377 0.0498029 5.35841e-20)
(-0.0332866 0.0606268 1.0345e-20)
(-0.0380999 0.0679374 -2.42517e-19)
(-0.0411178 0.0724786 3.56609e-19)
(-0.0424675 0.0748619 3.90651e-20)
(-0.0422611 0.0755836 -7.32425e-20)
(-0.0405947 0.0750457 -2.34865e-19)
(-0.0375468 0.0735771 2.54105e-19)
(-0.033179 0.0714542 6.45141e-19)
(-0.0275396 0.0689217 -1.42599e-19)
(-0.0206695 0.0662127 3.2258e-19)
(-0.0126095 0.0635715 -3.82106e-19)
(-0.00341568 0.0612768 -3.6711e-19)
(0.00679302 0.0596541 2.20971e-19)
(0.0177793 0.0590902 3.6704e-19)
(0.0294222 0.0601824 -1.18887e-18)
(0.0421745 0.0639914 1.39204e-19)
(0.0539797 0.0706317 1.88141e-19)
(-0.00754419 0.0138004 4.45561e-19)
(-0.0193001 0.0346211 1.46224e-19)
(-0.0284309 0.0498708 7.61308e-19)
(-0.035047 0.0606467 3.90569e-20)
(-0.0393294 0.0678573 -8.46319e-20)
(-0.0414802 0.0722507 -4.0273e-19)
(-0.0416821 0.0744393 3.4251e-19)
(-0.040094 0.0749165 6.14248e-19)
(-0.0368491 0.0740771 4.09785e-19)
(-0.0320547 0.0722387 2.95547e-19)
(-0.0257927 0.0696625 2.54889e-19)
(-0.0181242 0.0665742 -4.59054e-19)
(-0.00909531 0.0631874 -1.44535e-19)
(0.00125477 0.0597296 -1.05993e-19)
(0.0128773 0.0564733 1.13989e-18)
(0.0256628 0.0537617 -3.46632e-21)
(0.0393694 0.0520392 -2.85245e-19)
(0.0538293 0.0520419 -9.08482e-20)
(0.0694282 0.0551502 8.19901e-19)
(0.0839431 0.0618762 1.0254e-19)
(-0.00822138 0.0137326 -2.21684e-20)
(-0.0208371 0.0343842 -4.2068e-19)
(-0.0302766 0.0494275 -6.25075e-19)
(-0.0367108 0.0599666 -1.73654e-19)
(-0.0403857 0.0669243 9.58116e-20)
(-0.0415642 0.0710572 2.06648e-20)
(-0.0404838 0.0729802 5.47363e-19)
(-0.0373502 0.0731833 -6.79025e-19)
(-0.0323349 0.072053 -2.58272e-19)
(-0.0255756 0.0698932 -5.20821e-19)
(-0.0171783 0.0669459 -4.44166e-19)
(-0.00722181 0.063412 -3.93257e-19)
(0.00423587 0.0594746 9.82698e-20)
(0.0171496 0.0553277 -1.27645e-19)
(0.031471 0.0512134 5.49086e-19)
(0.0470957 0.0474598 -3.01252e-19)
(0.0637771 0.0445327 -9.47074e-19)
(0.0813045 0.0432815 -1.92129e-19)
(0.100003 0.0454371 4.68364e-19)
(0.117423 0.0520415 -4.05697e-19)
(-0.00890389 0.0136045 -7.1091e-20)
(-0.0223384 0.0339056 5.13705e-19)
(-0.0320165 0.0485465 -6.54666e-19)
(-0.0381623 0.0586708 1.51463e-19)
(-0.0410846 0.0652308 -3.11198e-19)
(-0.0411062 0.0689996 6.92686e-19)
(-0.038518 0.0705985 -4.95044e-19)
(-0.0335705 0.0705169 5.6651e-19)
(-0.0264723 0.069135 -5.36642e-19)
(-0.0173922 0.0667447 2.29381e-19)
(-0.00646272 0.0635703 -1.11212e-19)
(0.0062136 0.0597875 -2.79203e-19)
(0.0205573 0.0555451 -3.45369e-19)
(0.0365041 0.0509928 3.44925e-19)
(0.0539903 0.0463204 -2.89133e-19)
(0.0729016 0.0418036 -6.33842e-19)
(0.0929753 0.0378747 6.60832e-19)
(0.113953 0.035431 -8.43678e-19)
(0.13613 0.0365392 3.81172e-19)
(0.156814 0.0428862 1.53057e-20)
(-0.00959569 0.0134357 -6.42446e-19)
(-0.0237811 0.033229 -6.92744e-19)
(-0.0335727 0.04729 7.99329e-20)
(-0.0392511 0.0568367 -6.6661e-19)
(-0.0411895 0.062868 -5.88543e-20)
(-0.0397699 0.0661831 -4.89984e-19)
(-0.0353335 0.0674157 -1.12269e-19)
(-0.0281722 0.0670596 -3.27927e-19)
(-0.0185288 0.0654932 3.5046e-21)
(-0.00660161 0.0630026 -1.43197e-19)
(0.00744803 0.0598008 1.05829e-20)
(0.0234876 0.0560456 -4.13846e-19)
(0.0414038 0.0518573 4.57458e-19)
(0.0610938 0.0473425 -6.48146e-19)
(0.0824532 0.0426291 2.30587e-19)
(0.105329 0.0379118 9.09565e-21)
(0.129413 0.0335272 -3.67063e-19)
(0.154378 0.0303167 9.13789e-19)
(0.180526 0.0305944 -2.17297e-19)
(0.205034 0.0367503 -1.42119e-19)
(-0.0102965 0.0132367 7.20287e-19)
(-0.0251288 0.0323812 3.88612e-19)
(-0.0348422 0.0457042 3.61159e-19)
(-0.0397881 0.0545299 5.39156e-20)
(-0.0404091 0.0599211 4.87766e-19)
(-0.0371461 0.0627126 7.02513e-19)
(-0.0303874 0.0635575 5.74335e-19)
(-0.0204614 0.0629594 5.17614e-20)
(-0.00764114 0.0613018 4.20602e-19)
(0.00784705 0.0588728 6.49582e-19)
(0.0258113 0.0558848 -1.68117e-19)
(0.0460813 0.0524911 2.82881e-19)
(0.0684951 0.0487992 2.28298e-19)
(0.0928873 0.0448885 2.32854e-19)
(0.119078 0.0408359 1.37876e-18)
(0.146833 0.03675 -5.17096e-19)
(0.175754 0.0328288 -3.13006e-20)
(0.205391 0.0297332 6.02096e-19)
(0.236077 0.0298516 -3.4178e-19)
(0.265157 0.0362653 1.69012e-19)
(-0.0109992 0.0130082 -5.8162e-19)
(-0.0263264 0.0313718 3.68552e-20)
(-0.0356918 0.0438175 -4.64319e-19)
(-0.0395418 0.0518028 -6.02814e-20)
(-0.038397 0.0564681 3.39407e-19)
(-0.0327579 0.0586927 -1.01048e-18)
(-0.0230568 0.0591548 -8.9078e-22)
(-0.00965473 0.0583734 4.70029e-19)
(0.00714793 0.0567429 4.40927e-19)
(0.0270967 0.0545617 -1.94529e-19)
(0.0499645 0.0520531 6.40564e-20)
(0.0755328 0.0493816 1.48411e-19)
(0.103573 0.0466639 -7.04296e-20)
(0.133828 0.0439812 -7.90061e-19)
(0.166001 0.0413938 1.99894e-19)
(0.199721 0.038958 5.52319e-19)
(0.234437 0.0367413 -7.87949e-19)
(0.269487 0.0351376 3.84061e-19)
(0.305193 0.0364119 1.0327e-19)
(0.339605 0.0443051 5.21901e-19)
(-0.0116874 0.0127419 -8.53417e-20)
(-0.0272962 0.0301931 -4.06644e-19)
(-0.0359548 0.0416417 1.87166e-19)
(-0.0382374 0.0486951 9.51969e-22)
(-0.0347545 0.0525813 -8.13954e-19)
(-0.0260686 0.05423 1.27205e-19)
(-0.0126555 0.0543488 -2.40523e-20)
(0.00509166 0.053475 1.63942e-19)
(0.0268437 0.0520181 -7.50296e-19)
(0.0523124 0.0502915 -5.26551e-20)
(0.081226 0.0485372 -1.7635e-19)
(0.113303 0.0469429 1.5658e-19)
(0.148229 0.0456557 5.29686e-19)
(0.18563 0.0447927 -8.18532e-20)
(0.225053 0.0444533 3.19765e-20)
(0.265928 0.0447237 2.08768e-19)
(0.307451 0.0456495 -5.18955e-20)
(0.348587 0.0474607 4.23823e-19)
(0.38938 0.052347 -2.45378e-19)
(0.429001 0.0646892 -3.8383e-19)
(-0.0123339 0.0124214 7.94883e-20)
(-0.0279351 0.0288233 1.96428e-20)
(-0.0354291 0.0391746 1.6289e-19)
(-0.0355576 0.0452375 3.98656e-19)
(-0.0290358 0.0483311 2.2356e-19)
(-0.0164946 0.0494388 2.32015e-20)
(0.00154248 0.0492983 -2.66337e-19)
(0.0246436 0.0484655 6.83765e-20)
(0.0524398 0.0473634 3.58891e-19)
(0.0845938 0.046319 -6.07997e-19)
(0.12077 0.0455901 4.58707e-19)
(0.160604 0.0453865 -3.45725e-19)
(0.203682 0.0458878 2.93505e-19)
(0.249515 0.0472617 -6.33511e-19)
(0.297518 0.0496854 6.97828e-19)
(0.346969 0.0533617 -7.46696e-19)
(0.396877 0.0585066 -1.94595e-19)
(0.445848 0.065601 6.11101e-19)
(0.492965 0.0772995 -2.06358e-19)
(0.535968 0.0980713 9.3869e-20)
(-0.0128998 0.0120253 -5.99724e-20)
(-0.028113 0.0272317 5.66264e-19)
(-0.0338774 0.0364061 -2.43412e-21)
(-0.0311456 0.0414573 -3.51425e-19)
(-0.0207571 0.0437924 -2.35941e-19)
(-0.0034223 0.0444479 4.32434e-19)
(0.020274 0.0441887 -1.71231e-19)
(0.049842 0.0435847 -2.1546e-20)
(0.0848464 0.0430653 3.56444e-19)
(0.124866 0.042959 -4.42763e-19)
(0.169461 0.043522 4.8528e-20)
(0.218146 0.0449602 -5.75543e-19)
(0.270378 0.0474502 3.03155e-19)
(0.325553 0.0511617 -8.67572e-19)
(0.383012 0.0562883 1.38243e-18)
(0.442068 0.0630873 -2.53713e-19)
(0.502028 0.0719607 2.63605e-19)
(0.562401 0.0839158 -6.84163e-19)
(0.623427 0.101971 6.38458e-21)
(0.676413 0.124862 7.55834e-19)
(-0.0133344 0.0115291 -1.81411e-19)
(-0.0276737 0.0253836 1.5662e-19)
(-0.0310295 0.0333251 -5.77564e-19)
(-0.0246119 0.0373863 8.5419e-19)
(-0.00940824 0.039053 -6.16532e-19)
(0.0137709 0.039409 3.18399e-20)
(0.0442526 0.0392404 -6.64349e-19)
(0.0814521 0.0391214 4.74931e-19)
(0.124818 0.0394744 -6.78794e-20)
(0.173783 0.0406092 -4.18935e-19)
(0.227733 0.0427509 -2.44427e-19)
(0.285985 0.0460601 2.58291e-19)
(0.347787 0.0506496 1.70782e-19)
(0.412336 0.0566004 -7.55443e-19)
(0.478809 0.063977 2.72804e-19)
(0.546417 0.0728401 -4.01941e-19)
(0.614466 0.0832595 4.90622e-20)
(0.682523 0.0954494 -3.38733e-19)
(0.751009 0.11044 1.33287e-19)
(0.813461 0.126635 -4.99117e-19)
(-0.0135754 0.0109091 5.16621e-19)
(-0.0264361 0.0232483 -3.13141e-19)
(-0.0265866 0.0299286 2.57967e-19)
(-0.015542 0.0330707 -3.25571e-19)
(0.00553188 0.0342224 5.45448e-19)
(0.0356914 0.0345052 -9.47405e-21)
(0.0741308 0.0347147 -6.63485e-20)
(0.12011 0.0354153 -4.92127e-20)
(0.172884 0.0370023 3.02813e-19)
(0.231655 0.0397408 5.14751e-19)
(0.295534 0.0437921 -3.04118e-19)
(0.363545 0.049232 2.95555e-19)
(0.434633 0.0560661 5.39563e-19)
(0.507705 0.0642423 -3.78319e-19)
(0.581681 0.0736615 -7.66447e-19)
(0.655549 0.0841815 1.39988e-18)
(0.728425 0.09561 -2.50038e-19)
(0.799623 0.107725 -8.0342e-20)
(0.868986 0.120664 8.56828e-19)
(0.932662 0.135195 -1.84608e-19)
(-0.0135508 0.0101454 -8.40347e-19)
(-0.0241981 0.020806 -5.59408e-19)
(-0.0202276 0.0262316 -2.147e-19)
(-0.00350766 0.0285818 4.14316e-19)
(0.024577 0.0294429 -9.35552e-19)
(0.0629002 0.0299584 4.84525e-19)
(0.110456 0.030916 6.13977e-20)
(0.166261 0.0328481 6.20197e-20)
(0.229278 0.0360954 -6.34568e-19)
(0.298364 0.040845 -2.24117e-19)
(0.372254 0.0471566 -3.94855e-19)
(0.449582 0.0549832 3.81156e-19)
(0.528922 0.0641899 1.07847e-19)
(0.608855 0.0745714 2.08086e-20)
(0.688029 0.085867 4.93745e-19)
(0.765232 0.0977713 -5.01042e-19)
(0.839438 0.109937 -2.04114e-20)
(0.909851 0.121992 1.4236e-20)
(0.975979 0.133637 6.9942e-20)
(1.03627 0.14736 3.75868e-19)
(-0.01318 0.00922501 2.67452e-19)
(-0.020741 0.0180557 6.88754e-19)
(-0.0116167 0.0222768 5.52665e-19)
(0.0119195 0.024027 -1.90584e-19)
(0.0482108 0.0248992 6.63079e-19)
(0.0958774 0.0260361 -5.58606e-20)
(0.153618 0.0281907 -7.87152e-20)
(0.220094 0.0318311 4.68223e-20)
(0.293851 0.0372049 6.41119e-19)
(0.373284 0.0443784 3.76633e-19)
(0.456653 0.0532672 1.09985e-19)
(0.542145 0.0636648 6.90488e-21)
(0.627949 0.0752722 -7.27773e-19)
(0.712354 0.0877263 6.3241e-19)
(0.79383 0.100627 1.07687e-19)
(0.871093 0.11356 -1.78283e-19)
(0.943147 0.126109 -7.65495e-19)
(1.00931 0.1379 -6.28646e-20)
(1.06911 0.148439 2.99029e-19)
(1.12277 0.161135 -5.93644e-20)
(-0.0123759 0.00814418 -6.77901e-19)
(-0.0158343 0.0150207 2.8364e-19)
(-0.000413701 0.0181441 -1.38547e-18)
(0.0311511 0.0195597 5.67748e-19)
(0.0768599 0.020827 -4.52869e-19)
(0.134982 0.0230544 3.33952e-19)
(0.203798 0.0269216 -5.19004e-19)
(0.281477 0.0327862 4.76296e-20)
(0.366013 0.0407518 -2.67474e-20)
(0.455232 0.0507122 1.39556e-19)
(0.546862 0.0623945 2.01327e-19)
(0.638642 0.0754027 -3.80415e-19)
(0.728448 0.0892644 2.01606e-19)
(0.814406 0.103475 1.84589e-19)
(0.894982 0.117535 7.92844e-19)
(0.969031 0.130984 -3.45452e-19)
(1.03581 0.143416 -2.26583e-19)
(1.09496 0.154529 3.79862e-19)
(1.14635 0.16385 1.98712e-19)
(1.1912 0.174986 -3.79517e-19)
(-0.0110459 0.00691037 5.93283e-19)
(-0.00924208 0.0117546 5.72003e-19)
(0.0137143 0.0139569 1.65274e-19)
(0.0545616 0.0153864 6.95998e-19)
(0.110862 0.0175166 3.42219e-19)
(0.180408 0.0213753 -6.1704e-19)
(0.260911 0.0275143 9.34913e-19)
(0.349897 0.0361193 -4.6014e-19)
(0.444687 0.0470867 4.59347e-19)
(0.542472 0.0600833 5.94035e-19)
(0.640456 0.0746091 -3.39417e-19)
(0.736023 0.0900657 6.45463e-20)
(0.826898 0.105822 3.58405e-19)
(0.911258 0.121272 2.51819e-19)
(0.987802 0.135881 5.7729e-19)
(1.05576 0.149212 -2.32432e-19)
(1.11483 0.160943 -2.98352e-20)
(1.16516 0.170888 3.58659e-19)
(1.20711 0.178734 -7.78604e-20)
(1.24242 0.187834 -8.4122e-23)
(-0.00909441 0.00554355 -3.06146e-19)
(-0.000729962 0.00834455 -1.12523e-18)
(0.0310785 0.00988723 2.65137e-19)
(0.082464 0.0117681 -2.01906e-19)
(0.150431 0.0153091 -4.6652e-19)
(0.232136 0.0213937 -3.33489e-19)
(0.324557 0.0303726 -2.06054e-19)
(0.424431 0.0421836 5.00276e-19)
(0.528324 0.0564474 -2.97102e-19)
(0.632799 0.0725546 -3.04419e-19)
(0.734642 0.0897601 -3.84227e-19)
(0.831075 0.107278 -6.33867e-20)
(0.919917 0.124365 -4.35942e-20)
(0.999664 0.140383 -8.83338e-19)
(1.06949 0.154838 4.25835e-19)
(1.1292 0.167394 -5.60359e-19)
(1.17908 0.177871 1.73533e-19)
(1.21982 0.186232 -1.32277e-18)
(1.25231 0.192387 3.99257e-19)
(1.27846 0.199206 4.98729e-19)
(-0.00642428 0.00407707 -7.69624e-20)
(0.00992607 0.00491285 5.48254e-19)
(0.0519508 0.00615518 3.51987e-20)
(0.115082 0.0090173 8.46837e-20)
(0.195614 0.0145856 -1.72231e-19)
(0.289893 0.0235151 -2.92478e-21)
(0.39399 0.0358651 -4.48259e-21)
(0.503748 0.0512396 -1.04107e-19)
(0.614968 0.0689205 3.69382e-19)
(0.723697 0.0879949 1.42602e-19)
(0.826518 0.107487 6.46731e-19)
(0.920769 0.126475 -1.7609e-19)
(1.00466 0.144183 1.22532e-19)
(1.07726 0.160027 -1.54371e-20)
(1.13844 0.173639 3.38297e-19)
(1.18865 0.184847 2.05715e-19)
(1.22883 0.193648 4.92425e-19)
(1.26016 0.200168 -7.93578e-19)
(1.28395 0.204533 9.94425e-19)
(1.30212 0.20908 -3.14504e-19)
(-0.00293971 0.00255817 -7.1361e-19)
(0.0229295 0.00161705 -2.23174e-19)
(0.0765439 0.00302608 1.74146e-19)
(0.152518 0.00748729 1.0988e-19)
(0.246264 0.0157465 1.13018e-19)
(0.353121 0.0281252 1.14407e-19)
(0.468118 0.0442868 -2.86717e-19)
(0.586162 0.0634186 -1.18341e-19)
(0.702393 0.0844212 3.68517e-20)
(0.812567 0.106088 -3.50696e-19)
(0.913372 0.127267 -1.58216e-19)
(1.00259 0.146993 9.55243e-19)
(1.07911 0.164555 -2.46672e-19)
(1.14278 0.179518 -3.38046e-19)
(1.19424 0.191704 -1.59042e-19)
(1.23465 0.201147 1.10883e-19)
(1.26546 0.208033 1.33417e-19)
(1.28825 0.212635 -6.39013e-19)
(1.30456 0.215249 9.21056e-19)
(1.31625 0.217729 -7.97188e-19)
(0.00145037 0.00104825 -8.03752e-20)
(0.0384512 -0.00135194 2.29627e-20)
(0.10499 0.000803188 -2.96364e-20)
(0.194731 0.007557 4.3148e-19)
(0.302005 0.0191868 2.40254e-20)
(0.420972 0.0355564 1.58664e-19)
(0.545535 0.0558258 -3.30024e-19)
(0.66974 0.0787008 -1.19841e-20)
(0.788288 0.102698 4.58128e-19)
(0.896976 0.126372 6.36495e-20)
(0.99296 0.148496 -3.98128e-19)
(1.07478 0.168172 -3.50433e-20)
(1.14222 0.184859 -3.25067e-19)
(1.19601 0.198347 3.24276e-19)
(1.23755 0.208694 4.47671e-19)
(1.26858 0.216143 -4.9224e-20)
(1.29096 0.22105 -5.94718e-20)
(1.30646 0.223806 1.81197e-19)
(1.31672 0.224812 -5.79566e-19)
(1.32343 0.225533 5.11563e-19)
(0.00682806 -0.00037733 8.11892e-20)
(0.0566164 -0.00377348 -5.2243e-19)
(0.137322 -0.000182764 1.39703e-19)
(0.241504 0.00961123 -4.34617e-19)
(0.362223 0.0252669 1.49577e-19)
(0.492325 0.0460556 -5.55528e-19)
(0.624607 0.0705388 2.24178e-19)
(0.752451 0.0969146 -7.14994e-20)
(0.870465 0.123363 -2.96156e-21)
(0.974885 0.148305 7.2821e-20)
(1.06369 0.170569 -2.64768e-19)
(1.13642 0.189441 -3.77212e-19)
(1.19386 0.204639 -7.69169e-20)
(1.23761 0.216225 -3.45296e-20)
(1.2697 0.224498 -8.74219e-20)
(1.2923 0.229894 -2.83399e-20)
(1.30748 0.232899 -8.48225e-20)
(1.31707 0.233974 -7.33716e-20)
(1.32264 0.233578 -2.16916e-19)
(1.32571 0.232871 3.43204e-19)
(0.0132614 -0.00162986 1.94318e-19)
(0.0774914 -0.0054026 -2.15934e-19)
(0.173451 0.000413143 4.65104e-19)
(0.29244 0.0140185 -2.01095e-19)
(0.426077 0.0342854 5.37594e-19)
(0.565844 0.0597609 7.96274e-21)
(0.703577 0.0883455 2.70115e-19)
(0.832332 0.117757 -7.26598e-20)
(0.947048 0.145944 3.01546e-19)
(1.0448 0.171337 2.14727e-20)
(1.12468 0.192953 7.15359e-19)
(1.18736 0.210371 -4.93137e-19)
(1.23462 0.223623 6.66805e-20)
(1.26878 0.233053 1.26732e-19)
(1.29236 0.239182 6.58629e-19)
(1.30775 0.242594 -2.36441e-19)
(1.31707 0.243857 -4.66825e-20)
(1.32205 0.243461 -2.45776e-19)
(1.32413 0.241883 -2.54051e-20)
(1.32461 0.240049 1.22677e-19)
(0.0207992 -0.00260866 -9.28409e-20)
(0.101071 -0.00597747 2.68858e-19)
(0.213159 0.0029345 -2.7617e-19)
(0.346957 0.0211085 1.08724e-19)
(0.492526 0.0464559 -1.30774e-19)
(0.640052 0.0766894 4.79166e-19)
(0.780701 0.109039 -6.70596e-20)
(0.907641 0.140835 1.63969e-19)
(1.0166 0.169943 -9.68782e-20)
(1.10584 0.194964 -2.75266e-21)
(1.17573 0.215234 1.09799e-19)
(1.22809 0.230693 -8.504e-20)
(1.26556 0.241706 2.20207e-19)
(1.29103 0.248882 -1.09912e-19)
(1.30728 0.252916 -4.81001e-19)
(1.31674 0.254491 4.77521e-19)
(1.32144 0.25421 -2.14364e-19)
(1.32296 0.252558 1.71049e-19)
(1.32252 0.25 2.95402e-19)
(1.32121 0.247287 1.21293e-19)
(0.0294656 -0.00320331 2.31229e-19)
(0.12727 -0.00522867 -4.7671e-19)
(0.256088 0.00770665 9.10965e-20)
(0.404298 0.031151 -6.62757e-20)
(0.560383 0.0618908 -2.68059e-19)
(0.713434 0.0967391 -2.1035e-19)
(0.85437 0.132314 -4.14804e-20)
(0.976973 0.165705 -3.74599e-19)
(1.07817 0.194884 -2.29044e-20)
(1.15767 0.218776 -6.95191e-20)
(1.21715 0.237128 -1.88316e-19)
(1.25949 0.250278 -4.19029e-20)
(1.28799 0.258909 -1.43695e-19)
(1.30589 0.263848 -2.38994e-19)
(1.31603 0.265913 2.44183e-19)
(1.32079 0.265834 3.32389e-20)
(1.32197 0.264211 6.62219e-20)
(1.32094 0.261494 -2.79769e-19)
(1.31873 0.258128 -7.22908e-21)
(1.31622 0.254722 -4.30005e-19)
(0.0392553 -0.00329679 2.52687e-19)
(0.155913 -0.00289014 1.68779e-19)
(0.301748 0.0150193 -2.72872e-19)
(0.463569 0.0443384 4.26069e-19)
(0.62838 0.0805954 -4.61409e-20)
(0.784529 0.119702 1.59308e-19)
(0.92321 0.157795 5.51838e-20)
(1.03931 0.191924 1.95191e-19)
(1.13131 0.220354 -1.52868e-19)
(1.20044 0.242464 5.08608e-20)
(1.24965 0.258471 -4.87402e-20)
(1.28266 0.269106 -2.12349e-20)
(1.30324 0.275329 4.06562e-20)
(1.31476 0.278127 -7.4691e-20)
(1.31999 0.278386 -2.28353e-20)
(1.3211 0.276842 -6.99468e-20)
(1.31966 0.274056 -1.13493e-19)
(1.31681 0.270431 7.3346e-20)
(1.31338 0.266392 -1.00108e-19)
(1.31007 0.26242 4.33183e-19)
(0.0501303 -0.00276949 -1.25889e-19)
(0.186736 0.00128871 -3.57436e-19)
(0.349524 0.0251102 -4.76269e-20)
(0.523769 0.0607733 -1.3188e-20)
(0.695236 0.10247 -1.60502e-19)
(0.852018 0.145287 -2.6367e-19)
(0.98614 0.185077 8.62175e-20)
(1.09405 0.219076 -1.18478e-19)
(1.17596 0.246015 -1.32521e-19)
(1.23463 0.26582 7.37692e-20)
(1.27412 0.279194 -5.56762e-20)
(1.29876 0.287227 -1.12462e-19)
(1.31256 0.291098 -3.63806e-21)
(1.31885 0.291894 7.61804e-20)
(1.32022 0.29052 -7.74618e-20)
(1.31857 0.28768 1.07514e-19)
(1.31523 0.283881 2.90049e-20)
(1.31111 0.27947 7.27062e-20)
(1.30687 0.274853 1.41238e-19)
(1.30303 0.270396 -1.21002e-19)
(0.0620171 -0.00150397 1.2011e-19)
(0.219386 0.00753045 -1.03067e-20)
(0.398701 0.0381508 5.42381e-20)
(0.583845 0.0804628 -7.3398e-20)
(0.759733 0.127319 6.21586e-21)
(0.914781 0.173144 2.55012e-19)
(1.0424 0.213752 -1.67366e-19)
(1.14092 0.246793 7.09228e-20)
(1.21238 0.271606 6.25408e-20)
(1.26094 0.288715 -1.75308e-19)
(1.29153 0.29929 1.64667e-19)
(1.30888 0.304725 1.50634e-21)
(1.31704 0.306351 -1.15794e-19)
(1.31915 0.3053 1.39523e-19)
(1.31756 0.302455 -5.53127e-20)
(1.31387 0.298463 4.22627e-20)
(1.30918 0.293766 -4.72885e-20)
(1.3042 0.288657 -1.89805e-20)
(1.29941 0.283528 -1.6491e-19)
(1.29525 0.27863 5.05979e-20)
(0.0748061 0.000609945 -4.02921e-20)
(0.253432 0.0160176 1.0859e-19)
(0.448486 0.0542354 1.70096e-20)
(0.642736 0.103318 7.11518e-20)
(0.820766 0.154869 3.40263e-20)
(0.971938 0.202889 1.5961e-20)
(1.09153 0.24343 9.02745e-20)
(1.17996 0.274763 -1.09153e-20)
(1.24105 0.296937 3.97862e-20)
(1.28015 0.311082 6.3855e-20)
(1.30284 0.318792 3.07936e-20)
(1.314 0.321692 2.21042e-20)
(1.31756 0.321207 8.95966e-20)
(1.31642 0.318461 -8.67244e-20)
(1.3126 0.314285 1.86021e-20)
(1.30744 0.309256 -1.74243e-20)
(1.30181 0.303745 2.69296e-20)
(1.29626 0.297997 2.25605e-20)
(1.29115 0.292396 4.70445e-20)
(1.28679 0.287073 1.92676e-21)
(0.0883532 0.00366985 2.39015e-20)
(0.288375 0.026882 2.18326e-20)
(0.498048 0.0733748 -3.02748e-20)
(0.699425 0.129162 1.89252e-20)
(0.877385 0.184786 1.07036e-20)
(1.02285 0.234125 -3.33205e-20)
(1.13333 0.27375 1.09849e-20)
(1.21142 0.302725 2.01e-21)
(1.26255 0.321868 1.89344e-20)
(1.29307 0.332889 -5.0812e-20)
(1.30889 0.33774 -1.59717e-22)
(1.31492 0.33821 1.40767e-20)
(1.31483 0.335753 -1.12202e-20)
(1.31121 0.331452 1.13517e-20)
(1.30576 0.32606 2.96281e-20)
(1.29957 0.320079 -1.68649e-20)
(1.29333 0.313812 4.69437e-21)
(1.28743 0.307462 1.84739e-20)
(1.28214 0.301409 -3.04245e-20)
(1.27768 0.295661 1.46317e-20)
(0.102483 0.00775579 6.63011e-20)
(0.323667 0.0401963 -3.61549e-20)
(0.546541 0.095494 4.26413e-20)
(0.752976 0.157736 -3.17469e-20)
(0.92882 0.216692 -1.42503e-20)
(1.0671 0.266456 4.32523e-21)
(1.16782 0.304384 -1.39882e-20)
(1.23568 0.330464 5.02979e-20)
(1.27754 0.346296 -4.19062e-20)
(1.30044 0.354122 9.84579e-21)
(1.31046 0.356173 -7.32954e-21)
(1.31233 0.354336 -4.78196e-20)
(1.30941 0.350043 4.64081e-20)
(1.30394 0.344304 1.76907e-20)
(1.29733 0.337788 -1.75889e-20)
(1.29046 0.330917 4.13292e-20)
(1.28383 0.32393 -6.02183e-22)
(1.27775 0.317 -4.01138e-20)
(1.27239 0.310505 2.97055e-20)
(1.26792 0.30432 9.40131e-21)
(0.116992 0.0129258 -2.32454e-20)
(0.358726 0.0559685 6.73388e-20)
(0.593145 0.120435 7.7942e-20)
(0.802565 0.188717 -3.68385e-20)
(0.974482 0.250181 6.40516e-20)
(1.10449 0.299499 1.01458e-19)
(1.19517 0.335039 -5.62551e-21)
(1.25322 0.357798 -1.74806e-20)
(1.28666 0.37014 8.61763e-20)
(1.30295 0.374768 4.20626e-20)
(1.30817 0.374114 -7.65958e-21)
(1.30675 0.370098 6.28255e-20)
(1.30169 0.364093 -6.74744e-20)
(1.29489 0.357016 1.05136e-19)
(1.28751 0.349445 -1.75407e-20)
(1.28022 0.341725 5.03917e-20)
(1.27339 0.334042 9.12603e-21)
(1.26725 0.326543 3.6091e-20)
(1.26191 0.319604 -3.43308e-20)
(1.2575 0.312966 8.35559e-21)
(0.131654 0.019212 -3.61807e-20)
(0.392958 0.0741383 8.53104e-20)
(0.637088 0.147961 6.35046e-20)
(0.847493 0.221726 -9.65387e-21)
(1.01396 0.284835 9.92778e-20)
(1.13496 0.332884 -7.44795e-20)
(1.21568 0.365447 -5.88148e-21)
(1.26456 0.384568 6.56238e-20)
(1.2905 0.393327 2.08097e-20)
(1.3012 0.394804 2.92638e-20)
(1.30253 0.391561 -4.32707e-20)
(1.29858 0.385494 1.13085e-19)
(1.29197 0.377887 2.11963e-20)
(1.28427 0.369552 -1.0035e-19)
(1.27641 0.360977 1.47042e-19)
(1.2689 0.352438 -1.73628e-19)
(1.26202 0.344071 -7.99101e-20)
(1.25594 0.336007 1.32449e-20)
(1.25068 0.32862 7.7599e-20)
(1.24639 0.321512 -1.46895e-19)
(0.146228 0.0266178 -8.08639e-20)
(0.425777 0.0945775 -1.91088e-19)
(0.677671 0.177766 -1.65615e-19)
(0.887204 0.256345 -2.25451e-19)
(1.047 0.320227 -1.28194e-19)
(1.15862 0.366261 -2.65902e-19)
(1.2297 0.395363 3.38043e-20)
(1.2702 0.41063 -1.41643e-19)
(1.28962 0.415782 -1.56227e-20)
(1.29568 0.414195 2.33532e-20)
(1.29396 0.408488 -5.14933e-20)