/*--------------------------------*- C++ -*----------------------------------*\
  =========                 |
  \\      /  F ield         | OpenFOAM: The Open Source CFD Toolbox
   \\    /   O peration     | Website:  https://openfoam.org
    \\  /    A nd           | Version:  6.0
     \\/     M anipulation  |
\*---------------------------------------------------------------------------*/
FoamFile
{
    version     2.0;
    format      ascii;
    class       surfaceScalarField;
    location    "12.3";
    object      phi;
}
// * * * * * * * * * * * * * * * * * * * * * * * * * * * * * * * * * * * * * //

dimensions      [0 3 -1 0 0 0 0];

internalField   nonuniform List<scalar> 
15760
(
-3.62454e-06
3.66758e-06
-4.30324e-08
-1.26964e-05
9.19855e-06
-1.26679e-07
-2.58915e-05
1.34014e-05
-2.06364e-07
-4.21868e-05
1.65755e-05
-2.80172e-07
-6.07961e-05
1.89564e-05
-3.47149e-07
-8.11294e-05
2.07407e-05
-4.07309e-07
-0.000102762
2.20934e-05
-4.61301e-07
-0.000125405
2.31536e-05
-5.10129e-07
-0.000148889
2.40393e-05
-5.54932e-07
-0.000173143
2.48508e-05
-5.96825e-07
-0.000198179
2.56726e-05
-6.36799e-07
-0.000224078
2.6575e-05
-6.75659e-07
-0.000250979
2.7615e-05
-7.14e-07
-0.000279064
2.88367e-05
-7.52209e-07
-0.000308545
3.02714e-05
-7.9049e-07
-0.000339654
3.19381e-05
-8.28876e-07
-0.00037263
3.38431e-05
-8.67251e-07
-0.000407704
3.59792e-05
-9.05398e-07
-0.000445092
3.83311e-05
-9.43006e-07
4.08927e-05
-9.7986e-07
-0.000485005
-3.57067e-06
7.23825e-06
-1.25148e-05
1.81427e-05
-2.55228e-05
2.64094e-05
-4.15768e-05
3.26295e-05
-5.989e-05
3.72696e-05
-7.98681e-05
4.07189e-05
-0.000101079
4.33038e-05
-0.000123225
4.52995e-05
-0.000146125
4.69396e-05
-0.000169696
4.84225e-05
-0.00019394
4.99161e-05
-0.000218926
5.15614e-05
-0.000244785
5.34735e-05
-0.000271691
5.57426e-05
-0.000299854
5.84344e-05
-0.000329506
6.159e-05
-0.000360888
6.52257e-05
-0.00039424
6.93308e-05
-0.000429786
7.38769e-05
7.8852e-05
-0.000467745
-3.46838e-06
1.07066e-05
-1.2169e-05
2.68433e-05
-2.48192e-05
3.90596e-05
-4.04104e-05
4.82207e-05
-5.81547e-05
5.5014e-05
-7.74496e-05
6.00137e-05
-9.78481e-05
6.37023e-05
-0.000119035
6.64867e-05
-0.000140809
6.87129e-05
-0.000163062
7.06758e-05
-0.000185773
7.26269e-05
-0.00020899
7.47789e-05
-0.000232825
7.73083e-05
-0.000257439
8.03566e-05
-0.000283034
8.40297e-05
-0.000309843
8.83984e-05
-0.000338113
9.34961e-05
-0.000368098
9.93157e-05
-0.000400042
0.000105821
0.000112993
-0.000434183
-3.32561e-06
1.40322e-05
-1.16836e-05
3.52013e-05
-2.38279e-05
5.1204e-05
-3.87631e-05
6.31558e-05
-5.56998e-05
7.19507e-05
-7.40236e-05
7.83376e-05
-9.32681e-05
8.29467e-05
-0.000113092
8.63106e-05
-0.000133262
8.88826e-05
-0.000153637
9.10515e-05
-0.000174162
9.3151e-05
-0.00019485
9.54674e-05
-0.000215785
9.82428e-05
-0.000237105
0.000101676
-0.000258999
0.000105924
-0.000281699
0.000111098
-0.000305462
0.00011726
-0.000330565
0.000124418
-0.000357283
0.000132538
0.0001416
-0.00038589
-3.15303e-06
1.71853e-05
-1.10918e-05
4.31401e-05
-2.26132e-05
6.27254e-05
-3.67372e-05
7.72797e-05
-5.26733e-05
8.78868e-05
-6.97937e-05
9.5458e-05
-8.7608e-05
0.000100761
-0.000105743
0.000104445
-0.000123926
0.000107066
-0.000141973
0.000109099
-0.00015978
0.000110958
-0.000177318
0.000113005
-0.000194627
0.000115552
-0.000211813
0.000118862
-0.000229044
0.000123156
-0.000246545
0.000128599
-0.000264587
0.000135302
-0.000283477
0.000143308
-0.000303537
0.000152599
0.000163162
-0.000325099
-2.96286e-06
2.01481e-05
-1.04318e-05
5.0609e-05
-2.12483e-05
7.35419e-05
-3.44494e-05
9.04809e-05
-4.92449e-05
0.000102682
-6.49929e-05
0.000111206
-8.11779e-05
0.000116946
-9.7391e-05
0.000120658
-0.000113315
0.000122989
-0.000128713
0.000124497
-0.000143426
0.000125671
-0.000157364
0.000126944
-0.000170513
0.0001287
-0.000182931
0.000131281
-0.000194754
0.000134978
-0.000206191
0.000140036
-0.000217527
0.000146637
-0.000229104
0.000154885
-0.000241313
0.000164808
0.00017642
-0.000254571
-2.76736e-06
2.29155e-05
-9.74158e-06
5.75833e-05
-1.98063e-05
8.36066e-05
-3.20165e-05
0.000102691
-4.55835e-05
0.000116249
-5.98543e-05
0.000125477
-7.42891e-05
0.000131381
-8.84433e-05
0.000134813
-0.000101952
0.000136498
-0.000114523
0.000137068
-0.00012593
0.000137077
-0.000136012
0.000137027
-0.000144685
0.000137373
-0.000151942
0.000138538
-0.000157868
0.000140904
-0.000162644
0.000144813
-0.000166557
0.00015055
-0.000169993
0.000158321
-0.000173428
0.000168244
0.000180392
-0.000177401
-2.57735e-06
2.54928e-05
-9.05454e-06
6.40605e-05
-1.8351e-05
9.29031e-05
-2.95391e-05
0.000113879
-4.18349e-05
0.000128545
-5.45779e-05
0.00013822
-6.72093e-05
0.000144012
-7.92524e-05
0.000146856
-9.02982e-05
0.000147544
-9.99951e-05
0.000146765
-0.000108046
0.000145129
-0.000114212
0.000143193
-0.000118321
0.000141481
-0.00012028
0.000140497
-0.0001201
0.000140724
-0.000117911
0.000142624
-0.000113986
0.000146625
-0.00010875
0.000153085
-0.00010278
0.000162274
0.000174394
-9.67819e-05
-2.40088e-06
2.78937e-05
-8.39508e-06
7.00546e-05
-1.69279e-05
0.000101436
-2.70876e-05
0.000124039
-3.80982e-05
0.000139556
-4.92979e-05
0.00014942
-6.01165e-05
0.000154831
-7.00539e-05
0.000156793
-7.86635e-05
0.000156154
-8.5541e-05
0.000153642
-9.03201e-05
0.000149908
-9.26758e-05
0.000145548
-9.23368e-05
0.000141142
-8.91061e-05
0.000137266
-8.28908e-05
0.000134508
-7.3738e-05
0.000133471
-6.18749e-05
0.000134762
-4.77466e-05
0.000138957
-3.20407e-05
0.000146568
0.000158034
-1.56801e-05
-2.24225e-06
3.0136e-05
-7.77533e-06
7.55877e-05
-1.55575e-05
0.000109218
-2.469e-05
0.000133171
-3.44073e-05
0.000149273
-4.40536e-05
0.000159066
-5.30573e-05
0.000163835
-6.0907e-05
0.000164643
-6.71314e-05
0.000162378
-7.12853e-05
0.000157796
-7.29424e-05
0.000151565
-7.16962e-05
0.000144302
-6.71721e-05
0.000136618
-5.90514e-05
0.000129146
-4.71099e-05
0.000122567
-3.12708e-05
0.000117632
-1.16717e-05
0.000115162
1.12615e-05
0.000116024
3.67411e-05
0.000121088
0.000131196
6.35794e-05
-2.10157e-06
3.22375e-05
-7.19354e-06
8.06797e-05
-1.42317e-05
0.000116256
-2.23247e-05
0.000141264
-3.07188e-05
0.000157667
-3.87704e-05
0.000167117
-4.59167e-05
0.000170981
-5.16489e-05
0.000170375
-5.54881e-05
0.000166217
-5.6967e-05
0.000159275
-5.5618e-05
0.000150216
-5.0969e-05
0.000139653
-4.25507e-05
0.0001282
-2.99194e-05
0.000116514
-1.26991e-05
0.000105346
9.35092e-06
9.55823e-05
3.62403e-05
8.82731e-05
6.76238e-05
8.46401e-05
0.000102654
8.6058e-05
9.4005e-05
0.000139844
-1.97498e-06
3.42125e-05
-6.63439e-06
8.53391e-05
-1.29138e-05
0.000122536
-1.99205e-05
0.000148271
-2.69101e-05
0.000164657
-3.32541e-05
0.000173461
-3.84064e-05
0.000176133
-4.18731e-05
0.000173842
-4.31857e-05
0.00016753
-4.18778e-05
0.000157967
-3.74678e-05
0.000145806
-2.94469e-05
0.000131632
-1.72786e-05
0.000116032
-4.11913e-07
9.96476e-05
2.16801e-05
8.32544e-05
4.94278e-05
6.78346e-05
8.30451e-05
5.46557e-05
0.000122351
4.53343e-05
0.000166517
4.18915e-05
4.67587e-05
0.000213764
-1.85541e-06
3.60679e-05
-6.07132e-06
8.9555e-05
-1.15427e-05
0.000128007
-1.73625e-05
0.000154091
-2.27882e-05
0.000170082
-2.72027e-05
0.000177876
-3.00782e-05
0.000179009
-3.09428e-05
0.000174706
-2.93518e-05
0.000165939
-2.48616e-05
0.000153477
-1.70072e-05
0.000137951
-5.2838e-06
0.000119909
1.08661e-05
9.98818e-05
3.20527e-05
7.84609e-05
5.89173e-05
5.63898e-05
9.20697e-05
3.46823e-05
0.000131961
1.47642e-05
0.000178662
-1.36648e-06
0.000231489
-1.09353e-05
-1.01899e-05
0.000288437
-1.73385e-06
3.78018e-05
-5.4703e-06
9.32915e-05
-1.00405e-05
0.000132577
-1.45053e-05
0.000158556
-1.8109e-05
0.000173686
-2.02346e-05
0.000180001
-2.0364e-05
0.000179138
-1.80441e-05
0.000172386
-1.28567e-05
0.000160752
-4.39409e-06
0.000145015
7.76557e-06
0.000125791
2.40808e-05
0.000103594
4.50687e-05
7.88939e-05
7.13218e-05
5.22078e-05
0.000103512
2.42001e-05
0.000142356
-4.16211e-06
0.000188516
-3.13964e-05
0.000242368
-5.52178e-05
0.000303526
-7.20932e-05
-7.66073e-05
0.000369943
-1.60076e-06
3.94025e-05
-4.79413e-06
9.64848e-05
-8.32158e-06
0.000136105
-1.11882e-05
0.000161422
-1.26031e-05
0.000175101
-1.19284e-05
0.000179327
-8.63566e-06
0.000175845
-2.27233e-06
0.000166023
7.56508e-06
0.000150914
2.12525e-05
0.000131327
3.9158e-05
0.000107886
6.16618e-05
8.10897e-05
8.91805e-05
5.13753e-05
0.000122195
1.91938e-05
0.000161277
-1.48829e-05
0.000207109
-4.99935e-05
0.000260432
-8.47195e-05
0.000321882
-0.000116668
0.000391505
-0.000141716
-0.000152622
0.000467519
-1.44714e-06
4.08497e-05
-4.00606e-06
9.90438e-05
-6.29971e-06
0.000138398
-7.24939e-06
0.000162372
-6.00058e-06
0.000173852
-1.86395e-06
0.00017519
5.7306e-06
0.000168251
1.72669e-05
0.000154487
3.31642e-05
0.000135017
5.37916e-05
0.0001107
7.94771e-05
8.22005e-05
0.000110517
5.00499e-05
0.00014719
1.47024e-05
0.000189781
-2.33975e-05
0.000238623
-6.37249e-05
0.000294149
-0.000105519
0.000356933
-0.000147504
0.000427652
-0.000187386
0.000506768
-0.000220832
-0.000238991
0.000593137
-1.26496e-06
4.21146e-05
-3.07136e-06
0.00010085
-3.89258e-06
0.00013922
-2.53494e-06
0.000161014
1.95312e-06
0.000169364
1.03486e-05
0.000166795
2.33029e-05
0.000155297
4.13737e-05
0.000136416
6.50404e-05
0.00011135
9.4709e-05
8.10311e-05
0.000130707
4.62023e-05
0.000173276
7.48094e-06
0.000222563
-3.4584e-05
0.000278621
-7.94559e-05
0.000341438
-0.000126541
0.000410992
-0.000175073
0.000487356
-0.000223868
0.000570807
-0.000270838
0.000661841
-0.000311866
-0.000337389
0.000760239
-1.0467e-06
4.31613e-05
-1.95629e-06
0.00010176
-1.02037e-06
0.000138284
3.10219e-06
0.000156892
1.1495e-05
0.000160971
2.50609e-05
0.000153229
4.45748e-05
0.000135783
7.07133e-05
0.000110278
0.000104065
7.79982e-05
0.000145126
3.99708e-05
0.000194278
-2.94984e-06
0.000251765
-5.00062e-05
0.000317656
-0.000100475
0.00039181
-0.00015361
0.000473855
-0.000208587
0.000563203
-0.000264421
0.000659136
-0.0003198
0.000760978
-0.00037268
0.000868393
-0.000419281
-0.000451167
0.000982171
-7.84037e-07
4.39454e-05
-6.24651e-07
0.0001016
2.40042e-06
0.000135259
9.81124e-06
0.000149481
2.28568e-05
0.000147926
4.26013e-05
0.000133484
6.998e-05
0.000108404
0.000105827
7.44309e-05
0.000150879
3.2946e-05
0.000205765
-1.49153e-05
0.000270977
-6.81616e-05
0.00034683
-0.000125859
0.00043341
-0.000187056
0.000530513
-0.000250713
0.000637558
-0.000315632
0.000753506
-0.00038037
0.0008768
-0.000443094
0.00100536
-0.000501235
0.00113684
-0.000550768
-0.000586579
0.00127225
-4.66211e-07
4.44116e-05
9.66943e-07
0.000100167
6.4656e-06
0.00012976
1.77572e-05
0.000138189
3.62848e-05
0.000129398
6.33012e-05
0.000106468
9.99254e-05
7.17798e-05
0.000147166
2.719e-05
0.000205922
-2.58102e-05
0.000276965
-8.59577e-05
0.000360909
-0.000152106
0.000458185
-0.000223135
0.000569002
-0.000297872
0.000693315
-0.000375026
0.000830781
-0.000453098
0.000980685
-0.000530273
0.00114176
-0.000604169
0.00131154
-0.000671011
0.00148373
-0.000722963
-0.000741888
0.00163904
-7.92626e-08
4.44909e-05
2.87185e-06
9.72161e-05
1.12893e-05
0.000121342
2.71311e-05
0.000122348
5.20548e-05
0.000104475
8.75151e-05
7.10074e-05
0.000134816
2.44789e-05
0.000195125
-3.31187e-05
0.000269462
-0.000100147
0.000358676
-0.000175172
0.000463422
-0.000256852
0.000584144
-0.000343857
0.000721087
-0.000434815
0.000874354
-0.000528292
0.00104404
-0.000622787
0.00123052
-0.000716752
0.00143495
-0.000808601
0.00166057
-0.000896624
0.00191668
-0.000979078
-0.00105019
0.00222498
3.973e-07
4.40936e-05
5.15923e-06
9.24542e-05
1.70106e-05
0.000109491
3.81564e-05
0.000101202
7.04769e-05
7.2154e-05
0.000115623
2.58611e-05
0.000175054
-3.49522e-05
0.000250034
-0.000108098
0.000341599
-0.000191713
0.000450526
-0.000284099
0.00057729
-0.000383617
0.000722059
-0.000488626
0.000884708
-0.000597465
0.00106489
-0.000708471
0.00126214
-0.00082004
0.0014761
-0.000930711
0.00170679
-0.00103929
0.00195515
-0.00114498
0.00222347
-0.0012474
-0.00133844
0.00251172
9.85963e-07
4.31076e-05
7.90519e-06
8.5535e-05
2.3781e-05
9.36153e-05
5.10701e-05
7.39127e-05
9.18682e-05
3.13559e-05
0.000147991
-3.02612e-05
0.000220984
-0.000107945
0.000312094
-0.000199208
0.000422213
-0.000301831
0.000551815
-0.000413701
0.000700924
-0.000532725
0.000869092
-0.000656794
0.00105544
-0.000783808
0.0012587
-0.000911732
0.00147735
-0.00103869
0.00170969
-0.00116306
0.001954
-0.0012836
0.00220853
-0.00139951
0.00247149
-0.00151036
-0.00160815
0.0027412
1.71226e-06
4.13953e-05
1.11913e-05
7.60559e-05
3.17551e-05
7.30514e-05
6.61017e-05
3.95661e-05
0.000116511
-1.90536e-05
0.000184896
-9.86463e-05
0.000272778
-0.000195827
0.000381216
-0.000307647
0.000510728
-0.000431344
0.000661223
-0.000564196
0.000831961
-0.000703464
0.00102158
-0.00084641
0.00122814
-0.00099037
0.00144926
-0.00113285
0.00168221
-0.00127164
0.00192408
-0.00140493
0.00217182
-0.00153134
0.00242232
-0.00165001
0.00267246
-0.0017605
-0.0018566
0.00292091
2.60155e-06
3.87938e-05
1.50948e-05
6.35627e-05
4.10709e-05
4.70753e-05
8.34367e-05
-2.7997e-06
0.000144593
-8.02099e-05
0.000226439
-0.000180493
0.000330301
-0.000299689
0.000456825
-0.00043417
0.00060588
-0.000580399
0.000776505
-0.000734821
0.000966918
-0.000893876
0.0011746
-0.00105409
0.00139642
-0.0012122
0.00162887
-0.0013653
0.00186821
-0.00151098
0.00211066
-0.00164738
0.00235257
-0.00177325
0.00259044
-0.00188789
0.00282113
-0.00199118
-0.00207909
0.00304362
3.67646e-06
3.51173e-05
1.96796e-05
4.75596e-05
5.18296e-05
1.49253e-05
0.00010318
-5.41498e-05
0.000176146
-0.000153176
0.00027245
-0.000276796
0.000392992
-0.000420231
0.000537724
-0.000578902
0.00070556
-0.000748235
0.000894385
-0.000923646
0.00110115
-0.00110064
0.00132208
-0.00127502
0.00155292
-0.00144304
0.00178923
-0.00160161
0.00202665
-0.00174839
0.00226111
-0.00188184
0.00248903
-0.00200116
0.00270736
-0.00210622
0.00291369
-0.00219751
-0.00227303
0.00310763
4.95472e-06
3.01626e-05
2.49886e-05
2.75257e-05
6.40781e-05
-2.41642e-05
0.000125323
-0.000115394
0.000210997
-0.000238851
0.000322421
-0.00038822
0.000459786
-0.000557596
0.00062203
-0.000741146
0.000806818
-0.000933023
0.00101066
-0.00112749
0.00122916
-0.00131914
0.00145736
-0.00150322
0.00169013
-0.00167581
0.00192254
-0.00183402
0.00215015
-0.001976
0.00236921
-0.00210091
0.00257682
-0.00220877
0.0027709
-0.00230031
0.0029502
-0.00237681
-0.00243795
0.00311512
6.44764e-06
2.3715e-05
3.10373e-05
2.93612e-06
7.77953e-05
-7.09222e-05
0.000149722
-0.00018732
0.000248738
-0.000337867
0.000375479
-0.000514961
0.000529103
-0.00071122
0.000707222
-0.000919265
0.000906017
-0.00113182
0.00112053
-0.001342
0.00134512
-0.00154373
0.00157395
-0.00173205
0.00180146
-0.00190332
0.00202279
-0.00205534
0.00223398
-0.00218719
0.00243218
-0.0022991
0.00261556
-0.00239215
0.00278331
-0.00246806
0.00293541
-0.00252891
-0.00257567
0.00307314
8.1593e-06
1.55557e-05
3.78101e-05
-2.67147e-05
9.28836e-05
-0.000125996
0.000176083
-0.00027052
0.000288708
-0.000450492
0.000430383
-0.000656636
0.000598899
-0.000879736
0.000790284
-0.00111065
0.000999126
-0.00134066
0.0012191
-0.00156198
0.00144363
-0.00176826
0.00166646
-0.00195488
0.00188219
-0.00211906
0.0020866
-0.00225975
0.00227674
-0.00237734
0.00245097
-0.00247333
0.00260875
-0.00254994
0.00275049
-0.0026098
0.00287725
-0.00265567
-0.0026894
0.00299098
1.00859e-05
5.46974e-06
4.52581e-05
-6.18869e-05
0.000109164
-0.000189901
0.00020396
-0.000365316
0.000330007
-0.000576539
0.00048557
-0.0008122
0.000666784
-0.00106095
0.000867944
-0.00131181
0.00108212
-0.00155483
0.00130192
-0.00178178
0.00152031
-0.00198665
0.00173124
-0.0021658
0.00193002
-0.00231784
0.00211356
-0.00244328
0.00228021
-0.00254399
0.00242967
-0.00262278
0.00256262
-0.00268289
0.00268046
-0.00272763
0.00278498
-0.0027602
-0.00278295
0.00287853
1.22155e-05
-6.74579e-06
5.32972e-05
-0.000102969
0.000126374
-0.000262978
0.000232759
-0.000471702
0.000371521
-0.000715301
0.000539242
-0.000979921
0.000730196
-0.0012519
0.000936967
-0.00151858
0.00115138
-0.00176924
0.00136547
-0.00199588
0.00157235
-0.00219353
0.00176673
-0.00236018
0.00194514
-0.00249625
0.00210585
-0.00260399
0.00224862
-0.00268677
0.00237436
-0.00274852
0.0024847
-0.00279323
0.0025817
-0.00282463
0.00266754
-0.00284604
-0.00286004
0.00274462
1.45274e-05
-2.12732e-05
6.1808e-05
-0.000150249
0.000144174
-0.000345345
0.000261756
-0.000589284
0.000411979
-0.000865523
0.000589478
-0.00115742
0.00078661
-0.00144904
0.000994467
-0.00172644
0.00120408
-0.00197886
0.00140753
-0.00219933
0.00159866
-0.00238466
0.00177343
-0.00253494
0.00192981
-0.00265263
0.00206753
-0.00274171
0.00218759
-0.00280684
0.00229184
-0.00285277
0.00238253
-0.00288392
0.00246202
-0.00290412
0.00253256
-0.00291658
-0.00292387
0.0025964
1.69916e-05
-3.82648e-05
7.06361e-05
-0.000203894
0.000162151
-0.000436859
0.000290125
-0.000717258
0.000450021
-0.00102542
0.000634377
-0.00134177
0.000833761
-0.00164842
0.00103818
-0.00193085
0.00123846
-0.00217914
0.00142732
-0.00238818
0.00159983
-0.00255718
0.00175347
-0.00268858
0.00188773
-0.00278689
0.00200363
-0.0028576
0.00210312
-0.00290634
0.00218866
-0.00293831
0.00226278
-0.00295803
0.00232786
-0.00296919
0.00238601
-0.00297474
-0.00297703
0.00243917
1.95689e-05
-5.78336e-05
7.95946e-05
-0.000263919
0.000179833
-0.000537098
0.000316979
-0.000854404
0.000484289
-0.00119273
0.000672211
-0.0015297
0.000869836
-0.00184605
0.00106662
-0.00212764
0.00125384
-0.00236635
0.00142533
-0.00255968
0.00157775
-0.00270959
0.00171012
-0.00282095
0.00182332
-0.00290009
0.00191936
-0.00295365
0.00200086
-0.00298783
0.00207052
-0.00300797
0.00213089
-0.0030184
0.00218418
-0.00302249
0.00223224
-0.0030228
-0.00302143
0.00227664
2.22107e-05
-8.00444e-05
8.84692e-05
-0.000330178
0.000196711
-0.00064534
0.000341422
-0.000999115
0.000513525
-0.00136483
0.00070156
-0.00171773
0.000893611
-0.0020381
0.00107921
-0.00231324
0.0012506
-0.00253774
0.00140317
-0.00271225
0.00153518
-0.00284161
0.00164715
-0.00293293
0.00174105
-0.00299399
0.00181959
-0.00303219
0.00188567
-0.00305391
0.00194203
-0.00306433
0.00199102
-0.0030674
0.0020346
-0.00306607
0.00207429
-0.00306249
-0.00305844
0.0021113
2.48606e-05
-0.000104905
9.70256e-05
-0.000402343
0.000212262
-0.000760576
0.000362603
-0.00114946
0.000536662
-0.00153889
0.000721412
-0.00190248
0.000904508
-0.00222119
0.00107615
-0.00248488
0.00122999
-0.00269158
0.0013631
-0.00284536
0.00147533
-0.00295384
0.00156842
-0.00302601
0.00164511
-0.00307068
0.00170849
-0.00309557
0.00176151
-0.00310693
0.00180673
-0.00310954
0.00184623
-0.0031069
0.00188163
-0.00310147
0.00191417
-0.00309502
-0.00308901
0.00194474
2.74553e-05
-0.00013236
0.00010502
-0.000479907
0.000225979
-0.000881535
0.000379776
-0.00130325
0.000552889
-0.001712
0.000731212
-0.0020808
0.00090257
-0.00239255
0.00105833
-0.00264064
0.00119381
-0.00282706
0.00130778
-0.00295932
0.00140145
-0.00304751
0.00147748
-0.00310205
0.0015391
-0.0031323
0.00158948
-0.00314595
0.00163143
-0.00314888
0.00166722
-0.00314534
0.00169864
-0.00313831
0.00172698
-0.00312982
0.0017532
-0.00312124
-0.00311377
0.00177795
2.99275e-05
-0.000162288
0.00011221
-0.000562189
0.0002374
-0.00100673
0.000392341
-0.00145819
0.000561703
-0.00188137
0.000730862
-0.00224996
0.000888375
-0.00255006
0.00102714
-0.00277941
0.00114422
-0.00294415
0.00123993
-0.00305503
0.0013166
-0.00312417
0.00137748
-0.00316293
0.00142599
-0.00318081
0.00146521
-0.00318518
0.00149769
-0.00318136
0.00152538
-0.00317303
0.00154973
-0.00316266
0.00157177
-0.00315186
0.00159222
-0.00314169
-0.0031331
0.00161156
3.22087e-05
-0.000194496
0.000118367
-0.000648348
0.000246135
-0.00113449
0.00039988
-0.00161194
0.000562913
-0.0020444
0.00072067
-0.00240772
0.000862905
-0.0026923
0.000984244
-0.00290075
0.00108346
-0.00304336
0.00116216
-0.00313373
0.00122348
-0.00318549
0.00127101
-0.00321045
0.00130813
-0.00321794
0.00133771
-0.00321476
0.00136196
-0.0032056
0.0013825
-0.00319357
0.00140049
-0.00318065
0.00141674
-0.0031681
0.00143177
-0.00315673
-0.00314725
0.00144593
3.42322e-05
-0.000228729
0.000123291
-0.000737407
0.000251886
-0.00126309
0.00040217
-0.00176222
0.000556619
-0.00219885
0.000701271
-0.00255237
0.000827412
-0.00281844
0.000931452
-0.00300479
0.0010137
-0.00312561
0.0010768
-0.00319683
0.00112439
-0.00323309
0.00116017
-0.00324624
0.00118735
-0.00324512
0.00120847
-0.00323587
0.0012254
-0.00322253
0.00123947
-0.00320764
0.00125159
-0.00319277
0.00126237
-0.00317888
0.0012722
-0.00316656
-0.00315638
0.00128132
3.59397e-05
-0.000264668
0.000126823
-0.00082829
0.000254468
-0.00139073
0.000399193
-0.00190695
0.000543189
-0.00234284
0.000673553
-0.00268274
0.000783301
-0.00292819
0.000870566
-0.00309205
0.000936958
-0.003192
0.000985882
-0.00324576
0.00102124
-0.00326845
0.00104664
-0.00327164
0.00106502
-0.0032635
0.00107858
-0.00324943
0.00108886
-0.00323282
0.00109693
-0.00321571
0.00110349
-0.00319932
0.00110899
-0.00318438
0.00111375
-0.00317132
-0.00316055
0.00111793
3.72705e-05
-0.000301939
0.000128826
-0.000919846
0.000253777
-0.00151568
0.000391067
-0.00204424
0.000523136
-0.00247491
0.000638496
-0.0027981
0.00073196
-0.00302165
0.000803232
-0.00316332
0.000854971
-0.00324374
0.000891073
-0.00328186
0.000915501
-0.00329287
0.000931648
-0.00328778
0.000942124
-0.00327397
0.000948787
-0.00325609
0.000952895
-0.00323693
0.000955274
-0.00321809
0.000956468
-0.00320052
0.000956832
-0.00318475
0.000956589
-0.00317108
-0.00315981
0.00095585
3.8183e-05
-0.000340122
0.000129231
-0.00101089
0.000249838
-0.00163629
0.000378088
-0.00217249
0.000497152
-0.00259398
0.000597188
-0.00289813
0.000674775
-0.00309924
0.000730984
-0.00321953
0.00076926
-0.00328201
0.000793765
-0.00330637
0.000808361
-0.00330747
0.000816154
-0.00329558
0.000819407
-0.00327723
0.000819662
-0.00325635
0.000817918
-0.00323518
0.000814817
-0.00321499
0.000810774
-0.00319648
0.000806064
-0.00318004
0.000800856
-0.00316587
-0.00315418
0.000795229
3.86435e-05
-0.000378765
0.000128007
-0.00110026
0.000242758
-0.00175104
0.000360651
-0.00229038
0.000465988
-0.00269931
0.0005507
-0.00298284
0.000613019
-0.00316156
0.000655151
-0.00326166
0.000681085
-0.00330795
0.00069506
-0.00332034
0.000700731
-0.00331314
0.000700873
-0.00329572
0.000697411
-0.00327377
0.000691601
-0.00325054
0.000684226
-0.00322781
0.000675777
-0.00320654
0.000666575
-0.00318727
0.00065683
-0.00317029
0.000646676
-0.00315572
-0.00314368
0.000636171
3.86304e-05
-0.000417396
0.000125169
-0.0011868
0.000232723
-0.0018586
0.000339227
-0.00239689
0.000430425
-0.00279051
0.000500053
-0.00305247
0.000547832
-0.00320934
0.000576864
-0.0032907
0.000591472
-0.00332256
0.000595826
-0.0033247
0.000593301
-0.00331062
0.00058633
-0.00328875
0.000576525
-0.00326396
0.00056489
-0.0032389
0.000552031
-0.00321495
0.000538321
-0.00319283
0.000524004
-0.00317296
0.000509247
-0.00315554
0.000494158
-0.00314063
-0.0031283
0.000478783
3.81339e-05
-0.00045553
0.000120771
-0.00126943
0.000219974
-0.0019578
0.000314327
-0.00249124
0.000391234
-0.00286742
0.000446189
-0.00310743
0.00048021
-0.00324336
0.000497072
-0.00330756
0.000501249
-0.00332673
0.000496736
-0.00332018
0.000486591
-0.00330047
0.000472913
-0.00327507
0.000457031
-0.00324808
0.000439738
-0.00322161
0.000421494
-0.0031967
0.000402576
-0.00317391
0.000383171
-0.00315355
0.000363415
-0.00313578
0.000343397
-0.00312061
-0.00310807
0.000323161
3.7156e-05
-0.000492686
0.000114902
-0.00134718
0.000204794
-0.00204769
0.000286477
-0.00257292
0.000349146
-0.00293009
0.000389956
-0.00314824
0.000411011
-0.00326441
0.000416556
-0.0033131
0.000411072
-0.00332125
0.000398309
-0.00330742
0.00038099
-0.00328315
0.000360906
-0.00325498
0.000339137
-0.00322631
0.0003163
-0.00319877
0.000292735
-0.00317314
0.000268644
-0.00314982
0.000244169
-0.00312908
0.000219421
-0.00311103
0.000194482
-0.00309567
-0.00308298
0.000169395
3.5709e-05
-0.000528395
0.000107677
-0.00141915
0.00018749
-0.0021275
0.000256197
-0.00264163
0.000304843
-0.00297873
0.0003321
-0.0031755
0.000340957
-0.00327327
0.000335952
-0.0033081
0.000321462
-0.00330676
0.000300943
-0.0032869
0.000276793
-0.003259
0.00025052
-0.00322871
0.000222995
-0.00319879
0.000194689
-0.00317046
0.000165846
-0.0031443
0.000136607
-0.00312058
0.000107075
-0.00309954
7.73416e-05
-0.0030813
4.74876e-05
-0.00306582
-0.00305306
1.75618e-05
3.38146e-05
-0.000562209
9.9229e-05
-0.00148456
0.000168378
-0.00219665
0.000223985
-0.00269723
0.000258939
-0.00301369
0.000273269
-0.00318983
0.000270655
-0.00327066
0.000255776
-0.00329322
0.000232825
-0.00328381
0.000204944
-0.00325902
0.000174221
-0.00322828
0.000141914
-0.0031964
0.00010872
-0.00316559
7.49936e-05
-0.00313674
4.0901e-05
-0.0031102
6.52997e-06
-0.00308621
-2.80499e-05
-0.00306496
-6.27613e-05
-0.00304659
-9.75207e-05
-0.00303106
-0.00301831
-0.000132268
3.15025e-05
-0.000593712
8.97052e-05
-0.00154276
0.000147775
-0.00225472
0.000190308
-0.00273977
0.000211984
-0.00303536
0.000214019
-0.00319186
0.000200606
-0.00325724
0.000176446
-0.00326906
0.000145487
-0.00325285
0.000110553
-0.00322409
7.34454e-05
-0.00319117
3.52093e-05
-0.00315817
-3.60019e-06
-0.00312678
-4.27212e-05
-0.00309762
-8.20486e-05
-0.00307088
-0.000121541
-0.00304672
-0.000161161
-0.00302534
-0.000200844
-0.0030069
-0.000240499
-0.0029914
-0.00297876
-0.000280047
2.88085e-05
-0.00062252
7.92602e-05
-0.00159322
0.000125987
-0.00230145
0.000155595
-0.00276938
0.000164465
-0.00304423
0.000154827
-0.00318222
0.000131232
-0.00323365
9.83029e-05
-0.00323613
5.97098e-05
-0.00321426
1.7964e-05
-0.00318234
-2.53927e-05
-0.00314781
-6.94938e-05
-0.00311407
-0.000113896
-0.00308238
-0.000158406
-0.00305311
-0.000202968
-0.00302631
-0.000247581
-0.00300211
-0.000292241
-0.00298068
-0.000336898
-0.00296225
-0.000381446
-0.00294685
-0.00293442
-0.000425782
2.57737e-05
-0.000648294
6.80513e-05
-0.00163549
0.000103308
-0.00233671
0.000120238
-0.00278631
0.00011681
-0.00304081
9.61001e-05
-0.00316151
6.28833e-05
-0.00320043
2.16309e-05
-0.00319488
-2.42866e-05
-0.00316834
-7.2657e-05
-0.00313397
-0.000122169
-0.0030983
-0.000172104
-0.00306413
-0.000222104
-0.00303238
-0.000272022
-0.00300319
-0.000321837
-0.0029765
-0.000371586
-0.00295236
-0.000421303
-0.00293097
-0.000470955
-0.00291259
-0.000520423
-0.00289739
-0.00288528
-0.000569564
2.24427e-05
-0.000670737
5.62349e-05
-0.00166929
8.00141e-05
-0.00236049
8.45898e-05
-0.00279088
6.93926e-05
-0.00302561
3.81881e-05
-0.00313031
-4.13942e-06
-0.0031581
-5.33253e-05
-0.00314569
-0.000106307
-0.00311536
-0.000161154
-0.00307912
-0.000216758
-0.0030427
-0.000272524
-0.00300837
-0.000328153
-0.00297675
-0.000383525
-0.00294782
-0.000438639
-0.00292139
-0.000493565
-0.00289743
-0.000548378
-0.00287615
-0.000603079
-0.00285789
-0.000657537
-0.00284293
-0.00283127
-0.000711547
1.88629e-05
-0.000689599
4.39641e-05
-0.00169439
5.63613e-05
-0.00237288
4.89694e-05
-0.00278349
2.25428e-05
-0.00299918
-1.86048e-05
-0.00308916
-6.95738e-05
-0.00310713
-0.000126346
-0.00308892
-0.000186166
-0.00305554
-0.000247367
-0.00301792
-0.000309022
-0.00298104
-0.000370635
-0.00294675
-0.000431952
-0.00291544
-0.000492858
-0.00288691
-0.000553352
-0.00286089
-0.000613524
-0.00283726
-0.000673498
-0.00281618
-0.000733326
-0.00279806
-0.000792873
-0.00278338
-0.00277231
-0.000851837
1.50828e-05
-0.000704682
3.13862e-05
-0.00171069
3.25869e-05
-0.00237408
1.36615e-05
-0.00276456
-2.34493e-05
-0.00296207
-7.40105e-05
-0.0030386
-0.000133184
-0.00304796
-0.000197222
-0.00302488
-0.000263674
-0.00298909
-0.000331116
-0.00295048
-0.000398786
-0.00291337
-0.000466279
-0.00287926
-0.000533368
-0.00284835
-0.000599928
-0.00282035
-0.000665935
-0.00279488
-0.000731472
-0.00277172
-0.000796704
-0.00275095
-0.00086175
-0.00273302
-0.000926486
-0.00271865
-0.00270832
-0.000990471
1.11518e-05
-0.000715834
1.86415e-05
-0.00171818
8.90791e-06
-0.00236435
-2.10791e-05
-0.00273458
-6.83266e-05
-0.00291482
-0.00012779
-0.00297914
-0.000194751
-0.002981
-0.00026575
-0.00295388
-0.000338628
-0.00291621
-0.000412191
-0.00287692
-0.000485829
-0.00283974
-0.000559226
-0.00280586
-0.000632186
-0.00277539
-0.000704568
-0.00274797
-0.000776297
-0.00272316
-0.000847412
-0.00270061
-0.00091809
-0.00268027
-0.000988523
-0.00266258
-0.00105862
-0.00264855
-0.00263911
-0.00112784
7.11852e-06
-0.000722953
5.8614e-06
-0.00171692
-1.4479e-05
-0.00234401
-5.50261e-05
-0.00269403
-0.000111862
-0.00285799
-0.000179728
-0.00291127
-0.00025407
-0.00290666
-0.000331723
-0.00287623
-0.000410806
-0.00283712
-0.000490341
-0.00279738
-0.000569866
-0.00276021
-0.000649161
-0.00272657
-0.000728077
-0.00269647
-0.000806473
-0.00266957
-0.000884219
-0.00264541
-0.00096128
-0.00262355
-0.0010378
-0.00260375
-0.00111408
-0.00258631
-0.00119009
-0.00257254
-0.00256372
-0.00126547
3.03021e-06
-0.000725983
-6.83269e-06
-0.00170706
-3.73979e-05
-0.00231345
-8.79809e-05
-0.00264345
-0.000153857
-0.00279211
-0.000229632
-0.0028355
-0.000310949
-0.00282534
-0.000394932
-0.00279225
-0.000479968
-0.00275209
-0.000565278
-0.00271207
-0.00065055
-0.00267494
-0.000735673
-0.00264145
-0.000820583
-0.00261156
-0.00090518
-0.00258498
-0.000989317
-0.00256127
-0.00107288
-0.00253998
-0.00115597
-0.00252065
-0.00123899
-0.00250329
-0.00132216
-0.00248937
-0.00247982
-0.00140606
-1.06844e-06
-0.000724914
-1.93313e-05
-0.0016888
-5.96953e-05
-0.00227308
-0.000119773
-0.00258337
-0.000194142
-0.00271774
-0.000277334
-0.0027523
-0.000365208
-0.00273747
-0.00045517
-0.00270228
-0.000545851
-0.00266141
-0.000636661
-0.00262126
-0.000727434
-0.00258416
-0.000818196
-0.00255068
-0.000909022
-0.00252074
-0.000999948
-0.00249405
-0.00109092
-0.0024703
-0.00118183
-0.00244908
-0.00127268
-0.0024298
-0.00136383
-0.00241214
-0.00145587
-0.00239734
-0.00238416
-0.00155153
-5.13639e-06
-0.000719778
-3.15384e-05
-0.0016624
-8.12413e-05
-0.00222338
-0.000150265
-0.00251434
-0.000232581
-0.00263543
-0.000322699
-0.00266219
-0.000416699
-0.00264347
-0.000512248
-0.00260673
-0.000608194
-0.00256546
-0.000704106
-0.00252535
-0.000799946
-0.00248832
-0.000895876
-0.00245475
-0.000992153
-0.00242446
-0.00108907
-0.00239713
-0.00118692
-0.00237245
-0.0012859
-0.0023501
-0.00138612
-0.00232958
-0.00148817
-0.00231009
-0.00159433
-0.00229117
-0.00228443
-0.00169406
-9.12487e-06
-0.000710653
-4.33527e-05
-0.00162817
-0.000101908
-0.00216482
-0.000179325
-0.00243693
-0.000269053
-0.0025457