/*--------------------------------*- C++ -*----------------------------------*\
  =========                 |
  \\      /  F ield         | OpenFOAM: The Open Source CFD Toolbox
   \\    /   O peration     | Website:  https://openfoam.org
    \\  /    A nd           | Version:  6.0
     \\/     M anipulation  |
\*---------------------------------------------------------------------------*/
FoamFile
{
    version     2.0;
    format      ascii;
    class       surfaceScalarField;
    location    "81";
    object      phi;
}
// * * * * * * * * * * * * * * * * * * * * * * * * * * * * * * * * * * * * * //

dimensions      [0 3 -1 0 0 0 0];

internalField   nonuniform List<scalar> 
24700
(
-3.7158e-06
-2.7126e-05
3.08418e-05
-1.27703e-05
-9.04321e-05
9.94866e-05
-2.57756e-05
-0.000157991
0.000170997
-4.17127e-05
-0.000225952
0.000241889
-5.97543e-05
-0.00029186
0.000309902
-7.91645e-05
-0.000354482
0.000373892
-9.92483e-05
-0.000413406
0.00043349
-0.000119339
-0.000468701
0.000488791
-0.000138805
-0.000520632
0.000540098
-0.000157073
-0.000569459
0.000587727
-0.000173646
-0.000615323
0.000631895
-0.000188121
-0.000658195
0.00067267
-0.000200203
-0.000697896
0.000709978
-0.000209705
-0.000734138
0.00074364
-0.000216545
-0.000766589
0.000773429
-0.000220739
-0.00079493
0.000799124
-0.000222382
-0.00081891
0.000820554
-0.000221635
-0.000838382
0.000837634
-0.000218698
-0.000853324
0.000850387
-0.00021379
-0.000863853
0.000858945
-0.000207129
-0.000870216
0.000863555
-0.000198907
-0.000872789
0.000864568
-0.000189282
-0.000872054
0.000862429
-0.000178368
-0.000868578
0.000857664
-0.000863078
0.000850946
-0.000166235
-4.58951e-06
-2.25365e-05
-1.57246e-05
-7.92969e-05
-3.16637e-05
-0.000142052
-5.11386e-05
-0.000206477
-7.31435e-05
-0.000269855
-9.68168e-05
-0.000330808
-0.000121379
-0.000388844
-0.000146106
-0.000443974
-0.000170332
-0.000496406
-0.000193455
-0.000546336
-0.000214957
-0.000593821
-0.00023441
-0.000638741
-0.000251492
-0.000680814
-0.000265984
-0.000719647
-0.000277768
-0.000754805
-0.000286825
-0.000785873
-0.00029322
-0.000812515
-0.000297089
-0.000834513
-0.000298618
-0.000851795
-0.000298024
-0.000864446
-0.000295535
-0.000872706
-0.000291363
-0.000876961
-0.000285696
-0.000877721
-0.000278683
-0.000875592
-0.00087133
-0.000270431
-5.38806e-06
-1.71484e-05
-1.84214e-05
-6.62636e-05
-3.70299e-05
-0.000123444
-5.9716e-05
-0.000183791
-8.53124e-05
-0.000244259
-0.00011285
-0.000303271
-0.000141482
-0.000360212
-0.000170445
-0.00041501
-0.00019905
-0.000467801
-0.00022668
-0.000518706
-0.000252801
-0.000567701
-0.000276964
-0.000614578
-0.000298815
-0.000658963
-0.000318095
-0.000700367
-0.000334641
-0.000738258
-0.000348388
-0.000772127
-0.000359355
-0.000801548
-0.000367644
-0.000826224
-0.000373418
-0.000846021
-0.000376886
-0.000860977
-0.000378283
-0.000871309
-0.000377845
-0.000877399
-0.000375792
-0.000879773
-0.000372315
-0.000879069
-0.000876082
-0.000367562
-6.07156e-06
-1.10769e-05
-2.07362e-05
-5.1599e-05
-4.16427e-05
-0.000102537
-6.70949e-05
-0.000158339
-9.57892e-05
-0.000215565
-0.00012667
-0.00027239
-0.000158841
-0.000328041
-0.000191517
-0.000382334
-0.000224
-0.000435318
-0.00025567
-0.000487036
-0.000285982
-0.000537388
-0.00031447
-0.00058609
-0.000340745
-0.000632688
-0.000364504
-0.000676608
-0.00038553
-0.000717232
-0.000403698
-0.000753959
-0.000418972
-0.000786274
-0.000431403
-0.000813793
-0.000441121
-0.000836303
-0.000448319
-0.000853779
-0.000453233
-0.000866394
-0.000456123
-0.00087451
-0.000457244
-0.000878652
-0.000456831
-0.000879483
-0.000877833
-0.000455081
-6.60277e-06
-4.47409e-06
-2.25548e-05
-3.5647e-05
-4.52893e-05
-7.98026e-05
-7.29545e-05
-0.000130673
-0.00010414
-0.000184379
-0.000137727
-0.000238803
-0.00017279
-0.000292979
-0.000208535
-0.000346589
-0.000244271
-0.000399583
-0.000279382
-0.000451924
-0.000313324
-0.000503447
-0.000345613
-0.000553801
-0.000375832
-0.000602469
-0.000403629
-0.000648812
-0.000428725
-0.000692136
-0.000450926
-0.000731758
-0.000470127
-0.000767073
-0.000486315
-0.000797605
-0.000499573
-0.000823046
-0.000510062
-0.00084329
-0.000518015
-0.000858441
-0.000523706
-0.000868819
-0.000527429
-0.00087493
-0.000529465
-0.000877446
-0.000877233
-0.000530065
-6.94992e-06
2.47583e-06
-2.37789e-05
-1.8818e-05
-4.77876e-05
-5.57939e-05
-7.70198e-05
-0.000101441
-0.000109992
-0.000151406
-0.000145546
-0.00020325
-0.000182742
-0.000255783
-0.000220796
-0.000308535
-0.000259031
-0.000361348
-0.000296848
-0.000414106
-0.000333711
-0.000466584
-0.000369127
-0.000518384
-0.000402652
-0.000568945
-0.000433885
-0.000617578
-0.000462487
-0.000663534
-0.000488186
-0.000706059
-0.000510796
-0.000744464
-0.000530225
-0.000778175
-0.00054649
-0.000806781
-0.000559708
-0.000830072
-0.000570089
-0.00084806
-0.000577916
-0.000860992
-0.000583515
-0.000869331
-0.000587219
-0.000873742
-0.000875111
-0.000589341
-7.08905e-06
9.56489e-06
-2.43345e-05
-1.57254e-06
-4.8999e-05
-3.11293e-05
-7.90791e-05
-7.13611e-05
-0.000113054
-0.000117431
-0.000149748
-0.000166556
-0.000188225
-0.000217306
-0.000227718
-0.000269042
-0.000267577
-0.000321489
-0.000307229
-0.000374454
-0.000346152
-0.000427662
-0.000383854
-0.000480682
-0.000419872
-0.000532927
-0.000453765
-0.000583685
-0.000485131
-0.000632167
-0.000513621
-0.000677569
-0.000538958
-0.000719127
-0.000560961
-0.000756172
-0.000579559
-0.000788183
-0.000594805
-0.000814827
-0.000606868
-0.000835997
-0.000616024
-0.000851835
-0.000622625
-0.00086273
-0.000627058
-0.000869309
-0.000872458
-0.000629711
-7.00641e-06
1.65713e-05
-2.41774e-05
1.55984e-05
-4.88385e-05
-6.46825e-06
-7.8999e-05
-4.12005e-05
-0.000113138
-8.32922e-05
-0.000150081
-0.000129612
-0.00018891
-0.000178478
-0.000228884
-0.000229068
-0.000269384
-0.000280988
-0.000309871
-0.000333968
-0.000349846
-0.000387687
-0.000388829
-0.000441699
-0.000426347
-0.000495409
-0.000461933
-0.0005481
-0.00049513
-0.00059897
-0.000525516
-0.000647184
-0.000552722
-0.000691921
-0.000576466
-0.000732429
-0.000596576
-0.000768073
-0.000613016
-0.000798387
-0.000625892
-0.00082312
-0.000635454
-0.000842273
-0.000642066
-0.000856118
-0.000646171
-0.000865204
-0.000870379
-0.00064825
-6.7e-06
2.32713e-05
-2.32979e-05
3.21964e-05
-4.72829e-05
1.75168e-05
-7.67373e-05
-1.17461e-05
-0.000110174
-4.98561e-05
-0.000146441
-9.3345e-05
-0.000184644
-0.000140274
-0.000224075
-0.000189638
-0.000264151
-0.000240912
-0.000304368
-0.00029375
-0.00034426
-0.000347795
-0.000383368
-0.00040259
-0.000421226
-0.000457551
-0.000457351
-0.000511974
-0.000491252
-0.000565069
-0.000522444
-0.000615992
-0.000550475
-0.00066389
-0.00057496
-0.000707943
-0.000595616
-0.000747416
-0.000612298
-0.000781705
-0.000625026
-0.000810393
-0.000633994
-0.000833305
-0.000639566
-0.000850546
-0.000642238
-0.000862532
-0.000870018
-0.0006426
-6.18039e-06
2.94517e-05
-2.17236e-05
4.77396e-05
-4.43763e-05
4.01695e-05
-7.23501e-05
1.62277e-05
-0.000104224
-1.79824e-05
-0.000138886
-5.8683e-05
-0.000175472
-0.000103687
-0.000213308
-0.000151802
-0.000251846
-0.000202374
-0.000290621
-0.000254976
-0.000329202
-0.000309214
-0.000367163
-0.000364629
-0.000404057
-0.000420657
-0.000439407
-0.000476624
-0.000472706
-0.00053177
-0.000503431
-0.000585267
-0.000531064
-0.000636257
-0.000555127
-0.00068388
-0.000575228
-0.000727316
-0.0005911
-0.000765832
-0.000602653
-0.00079884
-0.000610003
-0.000825955
-0.000613486
-0.000847063
-0.000613642
-0.000862376
-0.000872472
-0.000611188
-5.4705e-06
3.49222e-05
-1.95189e-05
6.1788e-05
-4.02297e-05
6.08803e-05
-6.5994e-05
4.1992e-05
-9.54862e-05
1.15098e-05
-0.000127648
-2.65214e-05
-0.000161651
-6.96839e-05
-0.000196852
-0.000116602
-0.000232738
-0.000166489
-0.000268878
-0.000218836
-0.00030488
-0.000273211
-0.000340356
-0.000329154
-0.000374891
-0.000386121
-0.000408034
-0.000443482
-0.000439287
-0.000500517
-0.000468116
-0.000556438
-0.000493967
-0.000610406
-0.000516297
-0.00066155
-0.000534615
-0.000708998
-0.000548538
-0.000751909
-0.000557853
-0.000789526
-0.000562569
-0.000821238
-0.000562966
-0.000846665
-0.00055961
-0.000865733
-0.000878739
-0.000553343
-4.60433e-06
3.95265e-05
-1.67819e-05
7.39656e-05
-3.50167e-05
7.9115e-05
-5.79202e-05
6.48956e-05
-8.42874e-05
3.78769e-05
-0.000113125
2.31657e-06
-0.000143645
-3.91639e-05
-0.000175232
-8.50153e-05
-0.000207399
-0.000134321
-0.00023975
-0.000186485
-0.000271926
-0.000241035
-0.00030358
-0.0002975
-0.000334339
-0.000355362
-0.000363793
-0.000414028
-0.000391478
-0.000472831
-0.000416881
-0.000531035
-0.000439449
-0.000587838
-0.000458608
-0.000642391
-0.000473805
-0.000693801
-0.00048456
-0.000741154
-0.000490537
-0.000783549
-0.000491623
-0.000820152
-0.00048801
-0.000850279
-0.000480252
-0.000873491
-0.000889685
-0.000469305
-3.62463e-06
4.31511e-05
-1.36386e-05
8.39795e-05
-2.89637e-05
9.44402e-05
-4.84618e-05
8.43937e-05
-7.1068e-05
6.04831e-05
-9.58657e-05
2.71143e-05
-0.000122107
-1.29221e-05
-0.000149203
-5.79195e-05
-0.00017669
-0.000106834
-0.000204192
-0.000158983
-0.000231385
-0.000213842
-0.000257955
-0.00027093
-0.000283578
-0.000329739
-0.000307894
-0.000389712
-0.000330494
-0.000450232
-0.000350914
-0.000510614
-0.000368638
-0.000570114
-0.000383111
-0.000627919
-0.000393761
-0.00068315
-0.000400052
-0.000734863
-0.000401548
-0.000782053
-0.000398012
-0.000823688
-0.000389517
-0.000858773
-0.000376562
-0.000886446
-0.000906067
-0.000360181
-2.57979e-06
4.57309e-05
-1.0234e-05
9.16337e-05
-2.23355e-05
0.000106542
-3.80129e-05
0.000100071
-5.63562e-05
7.88264e-05
-7.65334e-05
4.72915e-05
-9.78412e-05
8.38577e-06
-0.000119713
-3.60477e-05
-0.000141701
-8.48464e-05
-0.000163446
-0.000137238
-0.000184645
-0.000192644
-0.000205017
-0.000250557
-0.000224282
-0.000310475
-0.000242132
-0.000371862
-0.000258224
-0.000434139
-0.000272167
-0.000496672
-0.000283515
-0.000558766
-0.000291772
-0.000619661
-0.000296406
-0.000678517
-0.000296874
-0.000734394
-0.00029269
-0.000786238
-0.000283511
-0.000832867
-0.00026928
-0.000873005
-0.00025039
-0.000905336
-0.000928567
-0.00022789
-1.52018e-06
4.72511e-05
-6.72228e-06
9.68358e-05
-1.54171e-05
0.000115236
-2.70031e-05
0.000111657
-4.07329e-05
9.25562e-05
-5.58659e-05
6.24245e-05
-7.17461e-05
2.4266e-05
-8.7829e-05
-1.99649e-05
-0.000103677
-6.89979e-05
-0.000118942
-0.000121974
-0.000133331
-0.000178254
-0.000146591
-0.000237298
-0.000158473
-0.000298592
-0.000168725
-0.000361611
-0.000177069
-0.000425795
-0.000183195
-0.000490546
-0.00018675
-0.00055521
-0.000187336
-0.000619076
-0.000184504
-0.000681349
-0.000177772
-0.000741126
-0.000166661
-0.000797349
-0.000150771
-0.000848757
-0.000129924
-0.000893852
-0.000104371
-0.000930889
-0.000957836
-7.51017e-05
-4.94373e-07
4.77455e-05
-3.25523e-06
9.95967e-05
-8.49373e-06
0.000120475
-1.58674e-05
0.000119031
-2.47919e-05
0.000101481
-3.46222e-05
7.22548e-05
-4.47526e-05
3.43964e-05
-5.46611e-05
-1.00564e-05
-6.39187e-05
-5.97403e-05
-7.21786e-05
-0.000113714
-7.91572e-05
-0.000171275
-8.46121e-05
-0.000231843
-8.83246e-05
-0.00029488
-9.00834e-05
-0.000359852
-8.96736e-05
-0.000426205
-8.68669e-05
-0.000493352
-8.14126e-05
-0.000560665
-7.30283e-05
-0.00062746
-6.13906e-05
-0.000692987
-4.61304e-05
-0.000756386
-2.68433e-05
-0.000816636
-3.13902e-06
-0.000872461
2.52395e-05
-0.00092223
5.81934e-05
-0.000963843
-0.00099451
9.48677e-05
4.54402e-07
4.72911e-05
2.84807e-08
0.000100023
-1.83056e-06
0.000122334
-5.01495e-06
0.000122215
-9.09667e-06
0.000105562
-1.35266e-05
7.66848e-05
-1.77516e-05
3.86213e-05
-2.12733e-05
-6.53462e-06
-2.36697e-05
-5.73439e-05
-2.45936e-05
-0.00011279
-2.37613e-05
-0.000172108
-2.09372e-05
-0.000234667
-1.59206e-05
-0.000299896
-8.53414e-06
-0.000367238
1.38353e-06
-0.000436123
1.39849e-05
-0.000505954
2.94201e-05
-0.0005761
4.78467e-05
-0.000645887
6.94432e-05
-0.000714583
9.44258e-05
-0.000781368
0.000123062
-0.000845272
0.000155659
-0.000905058
0.000192486
-0.000959057
0.000233572
-0.00100493
-0.00103919
0.000278247
1.29121e-06
4.59999e-05
3.0129e-06
9.83009e-05
4.34603e-06
0.000121001
5.19946e-06
0.000121362
5.85981e-06
0.000104902
6.78431e-06
7.57603e-05
8.47338e-06
3.69322e-05
1.14006e-05
-9.46184e-06
1.59815e-05
-6.19248e-05
2.25654e-05
-0.000119374
3.14402e-05
-0.000180982
4.28398e-05
-0.000246066
5.69535e-05
-0.00031401
7.39315e-05
-0.000384216
9.3889e-05
-0.00045608
0.000116909
-0.000528974
0.000143047
-0.000602238
0.000172336
-0.000675176
0.000204801
-0.000747048
0.000240484
-0.000817051
0.000279472
-0.00088426
0.000321921
-0.000947508
0.000368032
-0.00100517
0.000417904
-0.0010548
-0.00109235
0.000471071
1.99154e-06
4.40083e-05
5.61244e-06
9.468e-05
9.86373e-06
0.00011675
1.45007e-05
0.000116725
1.96909e-05
9.97119e-05
2.58088e-05
6.96423e-05
3.33052e-05
2.94359e-05
4.26294e-05
-1.87861e-05
5.41907e-05
-7.3486e-05
6.83416e-05
-0.000133525
8.53752e-05
-0.000198016
0.000105526
-0.000266218
0.000128975
-0.000337458
0.000155846
-0.000411087
0.000186211
-0.000486445
0.000220086
-0.000562849
0.000257431
-0.000639583
0.000298158
-0.000715902
0.000342137
-0.000791028
0.000389226
-0.000864141
0.000439308
-0.000934342
0.000492337
-0.00100054
0.000548371
-0.0010612
0.000607499
-0.00111393
-0.0011543
0.000669442
2.54252e-06
4.14658e-05
7.77675e-06
8.94458e-05
1.46152e-05
0.000109911
2.27115e-05
0.000108628
3.21428e-05
9.02807e-05
4.32157e-05
5.85693e-05
5.63381e-05
1.63136e-05
7.1938e-05
-3.4386e-05
9.04191e-05
-9.19671e-05
0.000112137
-0.000155243
0.00013739
-0.000223269
0.000166411
-0.000295239
0.000199367
-0.000370414
0.000236354
-0.000448074
0.000277392
-0.000527483
0.000322423
-0.00060788
0.000371308
-0.000688468
0.000423829
-0.000768424
0.000479703
-0.000846901
0.000538597
-0.000923035
0.00060018
-0.000995924
0.000664179
-0.00106454
0.000730454
-0.00112748
0.000799001
-0.00118248
-0.00122496
0.00086967
2.94322e-06
3.85226e-05
9.4929e-06
8.28961e-05
1.85636e-05
0.000100841
2.97626e-05
9.74293e-05
4.31104e-05
7.69328e-05
5.88656e-05
4.28142e-05
7.74035e-05
-2.22434e-06
9.91365e-05
-5.61189e-05
0.000124464
-0.000117295
0.000153744
-0.000184523
0.000187273
-0.000256798
0.000225277
-0.000333243
0.000267899
-0.000413036
0.00031519
-0.000495365
0.000367106
-0.000579399
0.000423495
-0.000664269
0.000484101
-0.000749075
0.000548567
-0.000832889
0.000616441
-0.000914775
0.000687205
-0.000993799
0.000760312
-0.00106903
0.000835255
-0.00113948
0.000911662
-0.00120388
0.00098937
-0.00126018
-0.00130386
0.00106827
3.20401e-06
3.53186e-05
1.07846e-05
7.53155e-05
2.17427e-05
8.98824e-05
3.56949e-05
8.34771e-05
5.26414e-05
5.99863e-05
7.2816e-05
2.26396e-05
9.65757e-05
-2.5984e-05
0.000124323
-8.38665e-05
0.000156455
-0.000149427
0.000193327
-0.000221394
0.000235225
-0.000298696
0.000282352
-0.000380369
0.000334806
-0.00046549
0.000392571
-0.000553131
0.000455508
-0.000642335
0.000523346
-0.000732107
0.000595686
-0.000821415
0.000672007
-0.00090921
0.000751682
-0.00099445
0.000834002
-0.00107612
0.000918216
-0.00115325
0.0010036
-0.00122486
0.00108955
-0.00128984
0.00117569
-0.00134632
-0.00139
0.00126183
3.3453e-06
3.19733e-05
1.17088e-05
6.6952e-05
2.42516e-05
7.73397e-05
4.06516e-05
6.70771e-05
6.09262e-05
3.97117e-05
8.53091e-05
-1.74329e-06
0.000114154
-5.48285e-05
0.00014786
-0.000117572
0.000186819
-0.000188386
0.000231373
-0.000265948
0.000281782
-0.000349106
0.000338199
-0.000436786
0.000400647
-0.000527938
0.000469007
-0.000621491
0.000543007
-0.000716335
0.00062222
-0.00081132
0.000706074
-0.000905268
0.000793861
-0.000996998
0.000884766
-0.00108536
0.000977892
-0.00116924
0.0010723
-0.00124766
0.00116709
-0.00131965
0.00126147
-0.00138422
0.00135486
-0.0014397
-0.0014821
0.00144696
3.39551e-06
2.85778e-05
1.23498e-05
5.79978e-05
2.62438e-05
6.34456e-05
4.48631e-05
4.84578e-05
6.82766e-05
1.62981e-05
9.67418e-05
-3.02085e-05
0.000130622
-8.87086e-05
0.000170316
-0.000157267
0.000216204
-0.000234273
0.000268595
-0.00031834
0.000327694
-0.000408205
0.000393568
-0.00050266
0.000466121
-0.000600491
0.000545083
-0.000700453
0.000630004
-0.000801257
0.000720265
-0.000901581
0.00081509
-0.00100009
0.000913578
-0.00109549
0.00101473
-0.00118651
0.00111749
-0.001272
0.00122077
-0.00135093
0.00132349
-0.00142237
0.0014247
-0.00148543
0.00152363
-0.00153864
-0.00157873
0.00162026
3.38866e-06
2.51891e-05
1.28115e-05
4.8575e-05
2.79129e-05
4.83442e-05
4.86231e-05
2.77476e-05
7.50923e-05
-1.01711e-05
0.000107621
-6.27377e-05
0.000146592
-0.000127679
0.000192398
-0.000203073
0.000245389
-0.000287264
0.000305815
-0.000378765
0.000373783
-0.000476172
0.000449221
-0.000578098
0.000531861
-0.000683131
0.000621226
-0.000789818
0.000716639
-0.00089667
0.000817248
-0.00100219
0.000922058
-0.0011049
0.00102998
-0.00120341
0.0011399
-0.00129642
0.00125068
-0.00138279
0.00136127
-0.00146152
0.00147064
-0.00153174
0.00157766
-0.00159245
0.00168053
-0.00164152
-0.00167436
0.00177617
3.3611e-06
2.1828e-05
1.32079e-05
3.87282e-05
2.94738e-05
3.20784e-05
5.22602e-05
4.9611e-06
8.18201e-05
-3.9731e-05
0.00011851
-9.94275e-05
0.000162729
-0.000171898
0.000214852
-0.000255197
0.000275171
-0.000347583
0.000343829
-0.000447424
0.000420783
-0.000553126
0.000505762
-0.000663077
0.000598259
-0.000775628
0.000697529
-0.000889088
0.000802617
-0.00100176
0.000912403
-0.00111197
0.00102565
-0.00121815
0.0011411
-0.00131886
0.00125753
-0.00141285
0.00137383
-0.00149909
0.00148916
-0.00157685
0.00160302
-0.0016456
0.00171558
-0.00170501
0.00182883
-0.00175477
-0.00179356
0.00194803
3.34981e-06
1.84782e-05
1.36546e-05
2.84234e-05
3.11444e-05
1.45885e-05
5.61062e-05
-2.00007e-05
8.89062e-05
-7.2531e-05
0.000129958
-0.000140479
0.000179667
-0.000221607
0.000238363
-0.000313893
0.000306234
-0.000415453
0.000383264
-0.000524454
0.000469192
-0.000639053
0.000563479
-0.000757364
0.000665313
-0.000877461
0.000773627
-0.000997402
0.000887149
-0.00111528
0.00100446
-0.00122929
0.00112409
-0.00133778
0.00124458
-0.00143935
0.00136458
-0.00153284
0.00148293
-0.00161744
0.00159871
-0.00169263
0.00171135
-0.00175824
0.00182073
-0.00181439
0.00192737
-0.00186141
-0.00189797
0.00203178
3.38761e-06
1.50906e-05
1.42567e-05
1.75543e-05
3.31249e-05
-4.27962e-06
6.04646e-05
-4.73404e-05
9.67537e-05
-0.00010882
0.000142452
-0.000186178
0.000197944
-0.000277099
0.000263473
-0.000379422
0.000339069
-0.000491049
0.000424488
-0.000609873
0.000519178
-0.000733744
0.000622269
-0.000860455
0.000732586
-0.000987778
0.000848703
-0.00111352
0.000969015
-0.00123559
0.00109182
-0.0013521
0.00121544
-0.0014614
0.00133826
-0.00156217
0.00145887
-0.00165346
0.00157609
-0.00173466
0.00168902
-0.00180556
0.00179705
-0.00186627
0.00189984
-0.00191718
0.00199723
-0.00195879
-0.00198999
0.00208925
3.5021e-06
1.15885e-05
1.5103e-05
5.95337e-06
3.55823e-05
-2.47589e-05
6.55846e-05
-7.73427e-05
0.000105684
-0.000148919
0.000156358
-0.000236852
0.000217933
-0.000338674
0.000290508
-0.000451997
0.000373887
-0.000574427
0.000467526
-0.000703513
0.000570517
-0.000836734
0.000681594
-0.000971532
0.000799189
-0.00110537
0.000921508
-0.00123584
0.00104663
-0.00136072
0.00117263
-0.0014781
0.00129768
-0.00158644
0.00142011
-0.0016846
0.00153854
-0.00177189
0.00165187
-0.001848
0.00175934
-0.00191303
0.00186047
-0.00196739
0.00195501
-0.00201173
0.00204297
-0.00204675
-0.00207193
0.00212491
3.71355e-06
7.87499e-06
1.62589e-05
-6.59196e-06
3.86388e-05
-4.71388e-05
7.16424e-05
-0.000110346
0.000115908
-0.000193185
0.000171893
-0.000292837
0.000239807
-0.000406588
0.000319538
-0.000531728
0.00041059
-0.00066548
0.000512051
-0.000804973
0.000622591
-0.000947274
0.000740518
-0.00108946
0.000863861
-0.00122872
0.000990485
-0.00136246
0.00111822
-0.00148845
0.00124499
-0.00160487
0.00136891
-0.00171036
0.00148841
-0.0018041
0.00160223
-0.0018857
0.00170948
-0.00195526
0.00180964
-0.00201319
0.00190246
-0.00206022
0.00198799
-0.00209726
0.00206647
-0.00212524
-0.00214414
0.00213868
4.03411e-06
3.84088e-06
1.7764e-05
-2.03219e-05
4.23653e-05
-7.17401e-05
7.8731e-05
-0.000146712
0.000127519
-0.000241973
0.000189109
-0.000354426
0.000263526
-0.000481006
0.000350375
-0.000618577
0.000448784
-0.000763889
0.000557405
-0.000913594
0.000674452
-0.00106432
0.000797797
-0.0012128
0.000925092
-0.00135601
0.00105393
-0.0014913
0.00118197
-0.0016165
0.00130711
-0.00173001
0.00142756
-0.00183081
0.0015419
-0.00191844
0.00164914
-0.00199295
0.0017487
-0.00205481
0.00184035
-0.00210483
0.00192417
-0.00214404
0.0020005
-0.00217359
0.00206987
-0.00219461
-0.00220751
0.00213324
4.46812e-06
-6.2724e-07
1.96324e-05
-3.54862e-05
4.67822e-05
-9.88899e-05
8.68614e-05
-0.000186791
0.000140489
-0.000295601
0.000207898
-0.000421835
0.000288854
-0.000561962
0.000382597
-0.000712319
0.000487813
-0.000869105
0.000602672
-0.00102845
0.000724917
-0.00118657
0.000852008
-0.00133989
0.000981287
-0.00148529
0.00111016
-0.00162017
0.00123626
-0.00174259
0.00135756
-0.00185131
0.00147248
-0.00194572
0.00157989
-0.00202585
0.00167913
-0.00209219
0.00176996
-0.00214565
0.00185251
-0.00218738
0.00192716
-0.00221869
0.00199453
-0.00224095
0.00205536
-0.00225544
-0.00226287
0.00211072
5.01319e-06
-5.64043e-06
2.18557e-05
-5.23287e-05
5.18643e-05
-0.000128899
9.59707e-05
-0.000230897
0.000154685
-0.000354315
0.000228015
-0.000495165
0.000315385
-0.000649332
0.000415595
-0.000812529
0.000526834
-0.000980344
0.000646767
-0.00114839
0.000772684
-0.00131248
0.000901691
-0.0014689
0.00103092
-0.00161452
0.00115771
-0.00174696
0.00127978
-0.00186467
0.00139534
-0.00196686
0.00150309
-0.00205348
0.00160228
-0.00212504
0.00169264
-0.00218254
0.00177427
-0.00222728
0.00184763
-0.00226074
0.00191338
-0.00228445
0.00197235
-0.00229992
0.00202545
-0.00230853
-0.00231118
0.00207376
5.66176e-06
-1.13022e-05
2.44071e-05
-7.1074e-05
5.75495e-05
-0.000162041
0.000105936
-0.000279284
0.000169889
-0.000418268
0.000249106
-0.000574382
0.000342589
-0.000742815
0.000448631
-0.000918572
0.000564891
-0.0010966
0.000688533
-0.00127203
0.000816446
-0.0014404
0.000945475
-0.00159793
0.00107266
-0.0017417
0.00119541
-0.00186972
0.00131168
-0.00198093
0.00141997
-0.00207515
0.00151939
-0.0021529
0.00160959
-0.00221524
0.00169066
-0.00226362
0.00176309
-0.00229971
0.00182758
-0.00232523
0.00188501
-0.00234188
0.00193636
-0.00235126
0.0019826
-0.00235478
-0.0023534
0.00202482
6.4029e-06
-1.77051e-05
2.72473e-05
-9.19183e-05
6.37486e-05
-0.000198542
0.00011659
-0.000332126
0.000185821
-0.000487498
0.00027074
-0.000659301
0.000369852
-0.000841927
0.000480896
-0.00102962
0.000600987
-0.00121669
0.000726832
-0.00139787
0.000854997
-0.00156856
0.00098219
-0.00172512
0.00110549
-0.001865
0.00122252
-0.00198675
0.00133154
-0.00208996
0.00143148
-0.00217509
0.00152187
-0.00224329
0.00160276
-0.00229613
0.00167461
-0.00233548
0.00173818
-0.00236328
0.0017944
-0.00238145
0.00184429
-0.00239177
0.00188889
-0.00239586
0.00192919
-0.00239508
-0.00239042
0.00196622
7.22388e-06
-2.4929e-05
3.03287e-05
-0.000115023
7.03543e-05
-0.000238568
0.000127736
-0.000389508
0.000202158
-0.00056192
0.000292441
-0.000749584
0.000396524
-0.000946009
0.000511565
-0.00114466
0.000634158
-0.00133929
0.000760619
-0.00152433
0.000887312
-0.00169526
0.00101093
-0.00184874
0.00112874
-0.00198281
0.00123869
-0.00209669
0.00133944
-0.00219072
0.00143038
-0.00226603
0.00151147
-0.00232437
0.00158313
-0.00236779
0.00164613
-0.00239848
0.00170145
-0.0024186
0.00175017
-0.00243017
0.00179338
-0.00243498
0.00183211
-0.00243459
0.00186733
-0.0024303
-0.00242305
0.00189995
8.11124e-06
-3.30402e-05
3.35997e-05
-0.000140512
7.72488e-05
-0.000282217
0.000139158
-0.000451417
0.000218559
-0.000641321
0.000313712
-0.000844738
0.000421948
-0.00105425
0.000539843
-0.00126255
0.000663521
-0.00146296
0.00078901
-0.00164982
0.000912597
-0.00181884
0.00103111
-0.00196726
0.00114212
-0.00209381
0.00124399
-0.00219855
0.00133584
-0.00228257
0.00141752
-0.00234771
0.00148939
-0.00239624
0.0015522
-0.0024306
0.00160697
-0.00245324
0.00165481
-0.00246644
0.00169687
-0.00247222
0.00173424
-0.00247235
0.00176793
-0.00246828
0.00179882
-0.0024612
-0.00245194
0.00182772
9.05143e-06
-4.20916e-05
3.7006e-05
-0.000168466
8.43082e-05
-0.000329519
0.000150632
-0.000517741
0.000234669
-0.000725358
0.000334059
-0.000944128
0.000445496
-0.00116568
0.000565005
-0.00138206
0.000688323
-0.00158628
0.000811313
-0.00177281
0.000930327
-0.00193786
0.00104246
-0.0020794
0.00114568
-0.00219704
0.00123883
-0.0022917
0.00132152
-0.00236527
0.00139402
-0.00242021
0.00145704
-0.00245926
0.0015116
-0.00248516
0.00155886
-0.00250051
0.00160002
-0.00250761
0.00163625
-0.00250845
0.00166859
-0.00250469
0.00169796
-0.00249765
0.00172516
-0.0024884
-0.00247765
0.00175087
1.0031e-05
-5.21226e-05
4.04927e-05
-0.000198928
9.14061e-05
-0.000380433
0.000161931
-0.000588266
0.000250141
-0.000813569
0.000353007
-0.00104699
0.00046659
-0.00127927
0.000586423
-0.00150189
0.000707966
-0.00170783
0.000827055
-0.0018919
0.000940243
-0.00205105
0.001045
-0.00218416
0.00113978
-0.00229181
0.00122391
-0.00237583
0.00129748
-0.00243884
0.00136113
-0.00248385
0.00141586
-0.00251398
0.00146286
-0.00253217
0.00150341
-0.00254105
0.0015387
-0.0025429
0.00156986
-0.00253961
0.00159786
-0.00253269
0.00162353
-0.00252332
0.00164755
-0.00251242
-0.00250059
0.00167049
1.10365e-05
-6.31591e-05
4.4004e-05
-0.000231895
9.84149e-05
-0.000434844
0.000172829
-0.00066268
0.000264638
-0.000905378
0.000370116
-0.00115247
0.000484725
-0.00139387
0.000603592
-0.00162076
0.000722031
-0.00182626
0.000835987
-0.00200586
0.000942342
-0.0021574
0.00103903
-0.00228085
0.00112501
-0.00237779
0.00120011
-0.00245093
0.00126484
-0.00250356
0.00132015
-0.00253917
0.00136726
-0.00256109
0.00140747
-0.00257238
0.00144206
-0.00257565
0.00147223
-0.00257306
0.00149899
-0.00256638
0.00152324
-0.00255694
0.00154569
-0.00254577
0.00156692
-0.00253365
-0.00252105
0.00158738
1.20541e-05
-7.52132e-05
4.74838e-05
-0.000267325
0.000105208
-0.000492567
0.000183109
-0.000740581
0.000277844
-0.00100011
0.000384994
-0.00125962
0.000499481
-0.00150836
0.00061614
-0.00173742
0.000730273
-0.0019404
0.000838071
-0.00211366
0.000936841
-0.00225617
0.00102504
-0.00236904
0.00110213
-0.00245489
0.00116842
-0.00251722
0.00122477
-0.00255991
0.00127236
-0.00258676
0.00131256
-0.00260129
0.00134672
-0.00260653
0.00137608
-0.00260501
0.00140176
-0.00259874
0.00142469
-0.00258931
0.00144566
-0.0025779
0.00146526
-0.00256538
0.00148398
-0.00255237
-0.00253926
0.00150219
1.30697e-05
-8.82829e-05
5.0875e-05
-0.00030513
0.000111659
-0.000553352
0.00019256
-0.000821482
0.000289473
-0.00109703
0.000397308
-0.00136746
0.000510539
-0.00162159
0.000623833
-0.00185072
0.000732622
-0.00204919
0.000833457
-0.00221449
0.000924143
-0.00234686
0.00100367
-0.00244857
0.00107202
-0.00252324
0.00112989
-0.00257508
0.00117841
-0.00260843
0.00121896
-0.00262732
0.00125296
-0.00263529
0.00128174
-0.00263531
0.00130649
-0.00262976
0.00132824
-0.00262048
0.0013478
-0.00260887
0.00136584
-0.00259594
0.00138287
-0.00258241
0.00139929
-0.00256879
-0.00255534
0.00141537
1.40687e-05
-0.000102352
5.41208e-05
-0.000345182
0.000117649
-0.000616879
0.000200991
-0.000904825
0.000299273
-0.00119531
0.000406794
-0.00147498
0.000517681
-0.00173248
0.000626577
-0.00195961
0.000729165
-0.00215177
0.000822452
-0.00230778
0.000904785
-0.00242919
0.000975689
-0.00251948
0.00103559
-0.00258314
0.00108552
-0.00262502
0.00112684
-0.00264975
0.00116102
-0.00266149
0.00118948
-0.00266374
0.00121349
-0.00265933
0.00123418
-0.00265044
0.00125243
-0.00263873
0.00126896
-0.00262541
0.00128435
-0.00261133
0.00129901
-0.00259707
0.00131325
-0.00258303
-0.00256938
0.00132729
1.50358e-05
-0.000117387
5.7165e-05
-0.000387312
0.000123061
-0.000682775
0.000208228
-0.000989992
0.000307038
-0.00129412
0.000413258
-0.0015812
0.000520797
-0.00184002
0.000624401
-0.00206322
0.000720123
-0.0022475
0.000805487
-0.00239314
0.000879397
-0.0025031
0.000941878
-0.00258196
0.000993751
-0.00263501
0.00103631
-0.00266758
0.00107105
-0.00268449
0.00109949
-0.00268993
0.00112299
-0.00268725
0.00114277
-0.00267911
0.00115982
-0.00266749
0.00117493
-0.00265384
0.00118871
-0.00263919
0.00120163
-0.00262425
0.00121403
-0.00260947
0.00122617
-0.00259516
-0.00258141
0.0012382
1.59558e-05
-0.000133343
5.99532e-05
-0.000431309
0.000127791
-0.000750613
0.000214122
-0.00107632
0.000312609
-0.0013926
0.000416585
-0.00168517
0.000519871
-0.0019433
0.000617448
-0.00216079
0.000705823
-0.00233587
0.000783077
-0.0024704
0.000848656
-0.00256868
0.000903039
-0.00263634
0.00094737
-0.00267935
0.000983134
-0.00270334
0.0010119
-0.00271326
0.00103517
-0.00271319
0.00105424
-0.00270632
0.00107021
-0.00269509
0.00108397
-0.00268125
0.0010962
-0.00266607
0.00110742
-0.00265041
0.001118
-0.00263483
0.00112823
-0.0026197
0.0011383
-0.00260523
-0.00259145
0.00114833
1.68134e-05
-0.000150157
6.24341e-05
-0.00047693
0.000131745
-0.000819925
0.000218552
-0.00116313
0.000315875
-0.00148993
0.000416729
-0.00178603
0.000514981
-0.00204156
0.000605952
-0.00225176
0.000686672
-0.00241659
0.000755788
-0.00253951
0.000813256
-0.00262615
0.000859946
-0.00268303
0.000897255
-0.00271665
0.00092679
-0.00273287
0.000950139
-0.00273661
0.000968741
-0.00273179
0.000983812
-0.00272139
0.000996337
-0.00270761
0.00100708
-0.002692
0.00101663
-0.00267562
0.00102541
-0.00265918
0.00103373
-0.00264315
0.00104182
-0.00262779
0.00104982
-0.00261323
-0.00259947
0.00105784
1.75938e-05
-0.00016775
6.45607e-05
-0.000523896
0.000134844
-0.000890208
0.000221429
-0.00124971
0.000316778
-0.00158528
0.000413717
-0.00188297
0.000506279
-0.00213412
0.000590221
-0.00233571
0.000663131
-0.0024895
0.00072421
-0.00260059
0.000773877
-0.00267581
0.000813325
-0.00272248
0.000844134
-0.00274746
0.000867972
-0.00275671
0.000886402
-0.00275504
0.000900777
-0.00274616
0.000912204
-0.00273282
0.000921553
-0.00271696
0.000929484
-0.00269993
0.000936484
-0.00268262
0.000942909
-0.00266561
0.000949012
-0.00264926
0.000954971
-0.00263375
0.000960902
-0.00261916
-0.00260545
0.000966883
1.82831e-05
-0.000186034
6.62918e-05
-0.000571905
0.000137024
-0.000960941
0.000222693
-0.00133538
0.00031531
-0.00167789
0.000407633
-0.00197529
0.00049398
-0.00222046
0.00057061
-0.00241234
0.000635685
-0.00255458
0.00068893
-0.00265384
0.000731165
-0.00271805
0.00076384
-0.00275515
0.000788651