/*--------------------------------*- C++ -*----------------------------------*\
  =========                 |
  \\      /  F ield         | OpenFOAM: The Open Source CFD Toolbox
   \\    /   O peration     | Website:  https://openfoam.org
    \\  /    A nd           | Version:  6.0
     \\/     M anipulation  |
\*---------------------------------------------------------------------------*/
FoamFile
{
    version     2.0;
    format      ascii;
    class       volVectorField;
    location    "81";
    object      U;
}
// * * * * * * * * * * * * * * * * * * * * * * * * * * * * * * * * * * * * * //

dimensions      [0 1 -1 0 0 0 0];

internalField   nonuniform List<vector> 
12500
(
(-0.000582997 -0.0146046 -9.41856e-22)
(-0.00355877 -0.0477963 1.33183e-20)
(-0.00940696 -0.0827648 -1.93238e-20)
(-0.0167401 -0.117667 8.85714e-21)
(-0.0248595 -0.151324 5.10296e-22)
(-0.0333339 -0.183141 -1.06233e-21)
(-0.0417816 -0.212923 -1.60064e-20)
(-0.0498719 -0.240709 8.76389e-21)
(-0.057327 -0.26664 5.81712e-21)
(-0.0639225 -0.290859 5.86776e-21)
(-0.0694903 -0.313452 -9.92309e-21)
(-0.0739197 -0.334429 5.75187e-21)
(-0.0771566 -0.353724 -2.70602e-21)
(-0.0791985 -0.371221 4.58942e-21)
(-0.0800877 -0.38678 -1.16658e-20)
(-0.0799023 -0.400269 1.676e-20)
(-0.0787473 -0.411583 -3.1593e-21)
(-0.0767441 -0.420667 -1.18575e-20)
(-0.0740204 -0.427525 6.09034e-21)
(-0.0707025 -0.432222 -5.79752e-21)
(-0.06692 -0.434884 5.1619e-21)
(-0.0627931 -0.435697 6.78278e-21)
(-0.0582897 -0.434892 6.94267e-22)
(-0.0531507 -0.43274 -1.93891e-20)
(-0.048279 -0.429597 1.02015e-20)
(-0.000413418 -0.0125444 1.7799e-20)
(-0.00329887 -0.0428736 -4.58399e-20)
(-0.00960714 -0.0758826 1.3444e-20)
(-0.0176772 -0.10946 9.00168e-21)
(-0.0266903 -0.142283 -7.15679e-21)
(-0.036154 -0.173682 -4.07137e-20)
(-0.0456389 -0.203417 1.20628e-20)
(-0.0547801 -0.231493 -2.28124e-20)
(-0.0632792 -0.258019 2.71799e-20)
(-0.0708996 -0.283098 -3.61902e-20)
(-0.0774673 -0.306771 1.92032e-20)
(-0.0828693 -0.328996 6.31058e-21)
(-0.0870508 -0.349654 -1.55969e-20)
(-0.0900086 -0.368574 -6.80383e-21)
(-0.0917843 -0.385564 5.02402e-20)
(-0.0924549 -0.400446 -4.43952e-20)
(-0.0921244 -0.413077 1.0655e-20)
(-0.0909143 -0.423374 1.83112e-20)
(-0.0889531 -0.431319 -4.05198e-21)
(-0.0863701 -0.436972 2.92204e-20)
(-0.0832999 -0.440461 5.33357e-21)
(-0.0798659 -0.441987 -2.01495e-21)
(-0.0760336 -0.441795 -3.67995e-20)
(-0.0715643 -0.440168 3.3685e-20)
(-0.067408 -0.437516 -6.43674e-20)
(-0.000390165 -0.0100676 5.74841e-20)
(-0.00334265 -0.0369782 1.90379e-20)
(-0.0101416 -0.0676759 -2.51764e-20)
(-0.0188995 -0.0997107 1.09118e-20)
(-0.028703 -0.131576 9.92304e-21)
(-0.0390153 -0.162495 3.80177e-20)
(-0.0493727 -0.192158 -4.83605e-20)
(-0.0593879 -0.220525 -8.08211e-21)
(-0.0687503 -0.247659 -3.23812e-20)
(-0.0772186 -0.27362 -2.691e-20)
(-0.0846173 -0.298403 3.43211e-20)
(-0.0908343 -0.321917 -1.15493e-19)
(-0.0958146 -0.34399 -3.81007e-21)
(-0.099554 -0.364401 -6.91487e-20)
(-0.102091 -0.382909 -8.11962e-21)
(-0.103499 -0.399287 9.64285e-21)
(-0.103879 -0.413353 -5.33565e-20)
(-0.10335 -0.424989 -3.32874e-20)
(-0.102038 -0.434154 -3.91372e-20)
(-0.100076 -0.440893 6.10842e-20)
(-0.0976028 -0.445331 2.20764e-20)
(-0.0947447 -0.447675 -9.90322e-20)
(-0.0914672 -0.448183 -4.73333e-20)
(-0.0875544 -0.447149 -5.27019e-20)
(-0.0839961 -0.445037 1.42621e-19)
(-0.000537614 -0.00722907 -1.44776e-21)
(-0.00372553 -0.0302333 -4.41403e-20)
(-0.0110207 -0.0583054 -2.18121e-20)
(-0.0203767 -0.0886 1.36126e-20)
(-0.0308206 -0.119387 8.23689e-20)
(-0.0417929 -0.149755 -3.6763e-20)
(-0.0528116 -0.179308 7.89616e-20)
(-0.0634796 -0.207938 7.53795e-20)
(-0.0734833 -0.235661 4.56338e-20)
(-0.0825832 -0.262491 -4.82645e-22)
(-0.0906075 -0.288378 9.1779e-20)
(-0.0974467 -0.313184 1.60112e-20)
(-0.103047 -0.336692 6.98813e-20)
(-0.107402 -0.358634 1.60594e-19)
(-0.110545 -0.378723 -1.85844e-19)
(-0.112544 -0.396686 2.78939e-19)
(-0.113494 -0.412296 6.02846e-20)
(-0.113507 -0.425398 -1.33554e-19)
(-0.112708 -0.435919 -1.85257e-20)
(-0.111229 -0.443879 4.78311e-20)
(-0.109213 -0.449394 -2.40205e-20)
(-0.106791 -0.45267 -1.43295e-20)
(-0.103929 -0.453969 -1.37584e-20)
(-0.100436 -0.453596 -5.5335e-20)
(-0.0973351 -0.452071 1.95097e-19)
(-0.000871699 -0.00410317 3.05384e-20)
(-0.00446635 -0.0228007 -1.41292e-19)
(-0.0122365 -0.0479771 1.7197e-19)
(-0.0220618 -0.0763516 -6.81924e-20)
(-0.0329534 -0.105941 8.22532e-20)
(-0.0443532 -0.135677 6.75873e-20)
(-0.0557791 -0.165054 2.56612e-20)
(-0.0668368 -0.193892 2.07819e-21)
(-0.0772192 -0.22215 1.43684e-19)
(-0.0866949 -0.249794 9.98437e-20)
(-0.0950996 -0.276735 -3.8942e-20)
(-0.102329 -0.302795 -2.51611e-20)
(-0.108331 -0.327719 1.08195e-19)
(-0.113097 -0.351197 2.01919e-20)
(-0.116654 -0.3729 5.54854e-20)
(-0.119061 -0.392512 1.30854e-19)
(-0.120404 -0.409762 -1.11643e-19)
(-0.120788 -0.424448 8.92487e-20)
(-0.120331 -0.436457 -1.93759e-19)
(-0.119165 -0.445778 1.61799e-19)
(-0.117435 -0.452506 9.77847e-22)
(-0.115275 -0.456833 -1.27849e-19)
(-0.112656 -0.459018 5.10769e-20)
(-0.109411 -0.459378 1.1503e-19)
(-0.106593 -0.458488 -1.701e-19)
(-0.00139802 -0.000781921 1.59276e-19)
(-0.0055646 -0.0148765 -1.6977e-19)
(-0.0137615 -0.0369369 -2.65891e-20)
(-0.0238931 -0.0632291 3.50169e-20)
(-0.0350025 -0.0914999 -7.43379e-20)
(-0.0465595 -0.120504 -1.15376e-19)
(-0.0581008 -0.149616 -9.65266e-20)
(-0.0692475 -0.178573 -2.32494e-20)
(-0.0797077 -0.207272 -1.65018e-19)
(-0.0892638 -0.235635 1.34057e-19)
(-0.097763 -0.263536 -2.05086e-19)
(-0.105109 -0.290766 1.04699e-19)
(-0.111251 -0.317039 -3.30084e-20)
(-0.116178 -0.342016 7.9287e-20)
(-0.119911 -0.365329 -1.99381e-19)
(-0.1225 -0.386624 9.78901e-20)
(-0.124018 -0.405581 7.92214e-21)
(-0.124559 -0.421953 4.27535e-20)
(-0.124234 -0.435577 2.55541e-19)
(-0.123169 -0.446399 5.64782e-20)
(-0.121513 -0.454476 -5.227e-21)
(-0.119401 -0.459981 1.59298e-20)
(-0.116809 -0.463158 1.03857e-19)
(-0.113598 -0.464326 2.95346e-20)
(-0.110848 -0.464118 9.65542e-20)
(-0.00211049 0.00262988 -9.9097e-20)
(-0.00699918 -0.00668273 1.41422e-19)
(-0.01555 -0.0254611 9.18096e-21)
(-0.0257965 -0.0495277 -1.73859e-19)
(-0.0368646 -0.0763548 3.68373e-19)
(-0.0482791 -0.104512 -1.18409e-19)
(-0.0596133 -0.133245 1.74468e-19)
(-0.0705163 -0.162199 1.59017e-19)
(-0.0807191 -0.191208 -1.313e-19)
(-0.0900229 -0.220153 -1.91701e-19)
(-0.0982898 -0.248874 5.27711e-20)
(-0.105433 -0.277143 -5.60282e-20)
(-0.111406 -0.304652 -2.44934e-19)
(-0.116197 -0.331039 2.99113e-19)
(-0.11982 -0.355911 -1.4299e-19)
(-0.122314 -0.378877 -9.76323e-20)
(-0.123739 -0.399576 2.3492e-21)
(-0.124176 -0.417709 8.08727e-20)
(-0.123725 -0.433057 3.20429e-20)
(-0.122507 -0.44551 -1.26347e-19)
(-0.120667 -0.455079 1.44289e-19)
(-0.118344 -0.461893 -2.46801e-19)
(-0.11552 -0.466174 1.50693e-19)
(-0.112083 -0.468231 -1.12609e-19)
(-0.109146 -0.468753 3.11894e-20)
(-0.00299094 0.00601953 1.4797e-19)
(-0.0087285 0.00154202 -1.14244e-19)
(-0.017539 -0.0138472 -7.26576e-20)
(-0.0276895 -0.0355656 -1.2898e-19)
(-0.038438 -0.0608233 -2.35243e-19)
(-0.0493901 -0.0880042 -1.73595e-19)
(-0.0601734 -0.11622 1.0975e-19)
(-0.0704757 -0.14502 -1.66067e-19)
(-0.0800576 -0.174176 2.10334e-19)
(-0.0887438 -0.203526 -3.43147e-19)
(-0.0964141 -0.232889 1.52683e-19)
(-0.102994 -0.262017 3.2165e-19)
(-0.108443 -0.290596 -4.52326e-19)
(-0.11275 -0.318253 6.48153e-20)
(-0.115924 -0.344577 8.40228e-20)
(-0.117993 -0.369152 7.94666e-20)
(-0.119004 -0.391579 -8.55878e-20)
(-0.119026 -0.411506 -2.05613e-20)
(-0.118144 -0.428659 -6.4056e-20)
(-0.11647 -0.442859 -5.13251e-20)
(-0.114147 -0.454052 -2.81272e-19)
(-0.111314 -0.462314 -1.857e-20)
(-0.10796 -0.467817 2.988e-21)
(-0.104003 -0.470851 -1.23123e-19)
(-0.100596 -0.47215 1.27484e-19)
(-0.00400961 0.0092727 5.27461e-21)
(-0.010692 0.00955379 4.71363e-20)
(-0.0196517 -0.00240209 4.96869e-20)
(-0.0294853 -0.0216746 2.75134e-20)
(-0.0396279 -0.0452396 2.42113e-19)
(-0.0497894 -0.0713042 2.29188e-19)
(-0.059667 -0.0988463 -1.85661e-19)
(-0.068997 -0.127321 -5.82767e-20)
(-0.0775755 -0.156434 -5.07729e-20)
(-0.0852541 -0.185985 2.61406e-19)
(-0.0919329 -0.215772 9.50954e-20)
(-0.0975518 -0.24554 -1.36234e-19)
(-0.10208 -0.274977 -1.16199e-19)
(-0.105508 -0.303707 2.79055e-19)
(-0.107843 -0.331317 -6.9384e-20)
(-0.109106 -0.357374 -8.4151e-20)
(-0.109334 -0.381453 -1.15284e-19)
(-0.108579 -0.403156 -8.99111e-20)
(-0.106916 -0.422148 -1.13522e-19)
(-0.104443 -0.438179 -7.22936e-20)
(-0.101299 -0.451116 3.00656e-19)
(-0.0976245 -0.460956 -1.47771e-19)
(-0.0934157 -0.467805 9.86862e-20)
(-0.0886212 -0.471907 -2.5638e-19)
(-0.0844552 -0.474027 1.04931e-19)
(-0.0051267 0.0122801 -1.35671e-19)
(-0.0128133 0.0171151 -3.65433e-20)
(-0.0218013 0.00857069 -2.78407e-19)
(-0.0310973 -0.00818828 -1.34957e-19)
(-0.0403519 -0.0299463 -2.64982e-19)
(-0.0493983 -0.0547516 -2.78684e-20)
(-0.0580168 -0.0814556 1.4255e-19)
(-0.0660004 -0.109419 -8.85563e-20)
(-0.0731853 -0.138283 1.88554e-19)
(-0.0794529 -0.16781 -4.60109e-19)
(-0.0847256 -0.197779 -1.40004e-20)
(-0.0889598 -0.227936 8.15836e-20)
(-0.0921365 -0.257974 -1.03548e-19)
(-0.094253 -0.287531 9.36746e-20)
(-0.0953181 -0.3162 -7.34384e-20)
(-0.0953496 -0.343547 -1.5527e-19)
(-0.0943765 -0.36913 2.79601e-19)
(-0.0924413 -0.392518 1.71513e-19)
(-0.089605 -0.413322 -3.7234e-20)
(-0.0859564 -0.431216 1.11019e-19)
(-0.0816276 -0.44598 -2.18673e-19)
(-0.0767615 -0.457515 3.08659e-19)
(-0.071363 -0.465829 -4.19e-19)
(-0.0654108 -0.471088 8.52019e-20)
(-0.0602063 -0.474068 -1.58296e-19)
(-0.00629481 0.0149438 7.82608e-21)
(-0.0150042 0.0240069 -1.25432e-19)
(-0.0238952 0.0187836 1.82409e-19)
(-0.032444 0.00456976 3.75899e-19)
(-0.0405442 -0.0152837 -7.3018e-21)
(-0.0481677 -0.0386926 4.29489e-20)
(-0.055188 -0.0643937 -1.63738e-19)
(-0.0614618 -0.0916577 7.48616e-20)
(-0.0668689 -0.120063 5.3029e-19)
(-0.0713225 -0.149332 -1.19942e-19)
(-0.0747691 -0.17923 -1.43432e-19)
(-0.0771835 -0.209505 5.40144e-19)
(-0.078561 -0.239861 1.7812e-19)
(-0.0789093 -0.269957 8.38872e-20)
(-0.0782438 -0.299404 8.73691e-20)
(-0.0765849 -0.32778 2.33895e-19)
(-0.0739599 -0.354643 -8.74396e-20)
(-0.0704059 -0.379544 2.36886e-19)
(-0.0659756 -0.402049 3.14668e-19)
(-0.0607496 -0.421767 -2.63063e-19)
(-0.0548558 -0.438384 3.87089e-19)
(-0.0484408 -0.45169 1.34511e-19)
(-0.0415204 -0.461567 -5.09202e-19)
(-0.0341011 -0.468063 7.29296e-19)
(-0.0276053 -0.471931 -5.87134e-19)
(-0.00746211 0.0171833 -3.57405e-19)
(-0.0171699 0.0300401 1.92916e-19)
(-0.0258404 0.027978 -1.305e-19)
(-0.0334521 0.0162981 -1.22789e-19)
(-0.0401586 -0.00157863 -1.35759e-19)
(-0.0460796 -0.0234695 -1.46807e-19)
(-0.0511897 -0.0480137 3.91764e-20)
(-0.0554143 -0.0743991 3.85795e-19)
(-0.05868 -0.102142 -8.08124e-20)
(-0.0609332 -0.130929 -2.16068e-19)
(-0.0621454 -0.160505 -1.33812e-19)
(-0.0623114 -0.190622 -5.37824e-20)
(-0.0614429 -0.221002 1.65583e-19)
(-0.0595618 -0.251324 -1.03405e-19)
(-0.0566951 -0.281228 -3.35858e-19)
(-0.052872 -0.310317 -3.69421e-19)
(-0.0481254 -0.338161 1.47892e-19)
(-0.0424946 -0.364313 -2.69796e-19)
(-0.0360309 -0.388314 2.33402e-19)
(-0.028812 -0.409721 -6.53849e-19)
(-0.0209656 -0.428134 4.94354e-19)
(-0.0126462 -0.443224 -6.43987e-19)
(-0.00388294 -0.454721 -7.8964e-21)
(0.00529433 -0.462511 -2.04532e-19)
(0.0133052 -0.467281 6.10975e-19)
(-0.00857601 0.01894 5.51799e-19)
(-0.0192149 0.0350644 8.2082e-20)
(-0.0275472 0.0359356 -5.4466e-20)
(-0.0340594 0.0267299 -2.20061e-20)
(-0.0391687 0.0108675 4.23391e-19)
(-0.0431461 -0.00940921 1.39806e-19)
(-0.0460723 -0.0326636 1.28328e-19)
(-0.047945 -0.0580106 -1.01863e-19)
(-0.0487397 -0.084909 3.96132e-19)
(-0.0484376 -0.113005 -1.93145e-19)
(-0.0470359 -0.142028 1.24588e-19)
(-0.0445504 -0.171728 3.23637e-19)
(-0.041011 -0.201841 -1.81303e-19)
(-0.0364564 -0.232074 1.99909e-19)
(-0.0309297 -0.262097 1.88808e-19)
(-0.0244754 -0.291543 6.35173e-20)
(-0.0171395 -0.320013 -1.53489e-19)
(-0.00897211 -0.347074 4.30281e-19)
(-3.23045e-05 -0.372268 -3.81865e-20)
(0.00959731 -0.395119 -3.97328e-20)
(0.0197829 -0.415161 4.96794e-19)
(0.0303555 -0.431954 -3.43354e-19)
(0.041269 -0.445062 5.74371e-19)
(0.052477 -0.45416 -4.62716e-19)
(0.0622061 -0.45982 5.97928e-19)
(-0.00958685 0.0201801 -2.70967e-19)
(-0.0210486 0.0389764 6.18694e-20)
(-0.0289345 0.0424883 -6.41596e-20)
(-0.0342162 0.0356439 -2.96624e-19)
(-0.0375663 0.0217912 1.70302e-20)
(-0.0394047 0.00319 1.72772e-19)
(-0.0399198 -0.018672 -6.99153e-19)
(-0.0391838 -0.0428501 5.25613e-19)
(-0.0372234 -0.0687498 -5.12439e-19)
(-0.0340554 -0.095979 -3.2335e-19)
(-0.0297037 -0.124247 2.93878e-19)
(-0.0242056 -0.153301 -6.37393e-19)
(-0.0176103 -0.182887 5.38804e-19)
(-0.00997556 -0.212733 -1.70129e-19)
(-0.00136411 -0.242542 -4.8612e-19)
(0.00815929 -0.271981 1.18872e-19)
(0.0185282 -0.300687 -1.10585e-19)
(0.029673 -0.328258 3.9422e-20)
(0.0415173 -0.354255 -1.48762e-19)
(0.0539639 -0.378198 -4.84493e-19)
(0.0668649 -0.399584 1.09095e-19)
(0.0800287 -0.417881 2.57746e-21)
(0.0933861 -0.432493 -4.7182e-19)
(0.106884 -0.442847 3.32303e-19)
(0.118529 -0.449347 -2.7862e-19)
(-0.0104514 0.020896 1.10818e-19)
(-0.0225905 0.0417229 2.0603e-19)
(-0.0299319 0.0475252 2.86742e-19)
(-0.0338853 0.0428737 1.49283e-19)
(-0.0353575 0.0309776 -1.45731e-19)
(-0.0349101 0.0140711 3.4946e-19)
(-0.0328375 -0.00633394 2.6063e-19)
(-0.0292874 -0.0292487 -9.22732e-20)
(-0.0243391 -0.0540327 3.41613e-19)
(-0.0180465 -0.0802575 -3.51623e-19)
(-0.0104609 -0.10761 -1.02572e-19)
(-0.00164173 -0.135828 1.04896e-19)
(0.00834161 -0.164666 2.12402e-19)
(0.0194107 -0.193868 1.7481e-21)
(0.0314809 -0.223161 1.3462e-19)
(0.0444631 -0.252247 2.43845e-19)
(0.0582646 -0.2808 -4.13683e-19)
(0.0727889 -0.308456 5.11575e-19)
(0.0879327 -0.33481 1.70329e-19)
(0.103575 -0.359407 5.54397e-20)
(0.119544 -0.381733 -5.99218e-19)
(0.135619 -0.401209 8.72775e-20)
(0.151697 -0.417099 1.27705e-19)
(0.16773 -0.42857 -2.63217e-20)
(0.181496 -0.435808 1.36606e-19)
(-0.0111358 0.0211051 1.05674e-20)
(-0.0237747 0.0433019 -5.32147e-19)
(-0.0304831 0.0509962 -1.12242e-20)
(-0.0330401 0.0483148 -1.3424e-19)
(-0.0325569 0.0382701 -8.88673e-19)
(-0.0297237 0.0230302 7.71314e-19)
(-0.0249363 0.00410336 -5.50924e-19)
(-0.0184176 -0.0174945 -2.60326e-20)
(-0.0103004 -0.0410862 -2.63948e-19)
(-0.000676753 -0.0662102 4.59186e-19)
(0.0103732 -0.0925297 -4.9616e-19)
(0.0227671 -0.119772 -2.33491e-19)
(0.0364142 -0.14769 7.001e-21)
(0.0512144 -0.176038 -5.07615e-19)
(0.0670588 -0.204563 6.92048e-19)
(0.0838311 -0.232993 -7.98361e-19)
(0.101408 -0.261033 2.43604e-21)
(0.11966 -0.28836 1.22546e-19)
(0.138448 -0.314612 -2.97457e-19)
(0.157619 -0.339371 2.82197e-19)
(0.17697 -0.36215 -4.02613e-19)
(0.196242 -0.382362 -2.5677e-19)
(0.215291 -0.39918 4.69311e-19)
(0.234083 -0.411522 -5.02379e-19)
(0.25018 -0.419323 -8.37167e-21)
(-0.0116173 0.020847 -4.54744e-19)
(-0.0245531 0.0437595 5.2026e-19)
(-0.0305461 0.0529117 -1.59523e-19)
(-0.0316626 0.0519275 3.09913e-19)
(-0.0291803 0.0435766 3.34907e-19)
(-0.0239013 0.0299258 -2.95795e-19)
(-0.016315 0.012453 -2.00598e-19)
(-0.00671737 -0.00781661 -2.39461e-19)
(0.00470519 -0.0301802 2.18988e-19)
(0.0178209 -0.0541479 -1.33793e-20)
(0.0325197 -0.0793603 3.23191e-19)
(0.0486943 -0.10553 3.2e-19)
(0.0662315 -0.132405 -3.83478e-19)
(0.0850075 -0.159744 7.55143e-19)
(0.104887 -0.187302 -4.99676e-19)
(0.125724 -0.214826 -8.62472e-20)
(0.147359 -0.242046 9.66987e-19)
(0.169625 -0.268673 -4.46846e-19)
(0.192342 -0.294384 2.78217e-19)
(0.215314 -0.318809 5.3631e-19)
(0.238304 -0.34151 -3.46749e-19)
(0.261004 -0.361931 3.75432e-20)
(0.283224 -0.379218 -2.05745e-20)
(0.304953 -0.392077 -1.28857e-19)
(0.32358 -0.400182 2.4433e-19)
(-0.0118856 0.0201793 1.05058e-19)
(-0.0248965 0.0431843 -3.34157e-19)
(-0.0300932 0.0533393 1.83351e-19)
(-0.0297395 0.0537366 -1.64965e-21)
(-0.0252372 0.0468733 1.37786e-19)
(-0.0174801 0.0346857 -2.38819e-19)
(-0.00704161 0.018598 1.36675e-19)
(0.00571376 -0.000373223 3.74066e-19)
(0.0205465 -0.021511 -1.17585e-20)
(0.0372842 -0.0443036 -1.94711e-19)
(0.0557849 -0.0683712 1.97195e-19)
(0.0759147 -0.0934111 -3.78701e-21)
(0.0975348 -0.119161 -6.24747e-19)
(0.120495 -0.145378 2.32192e-19)
(0.14463 -0.17182 5.18256e-20)
(0.169759 -0.198242 -9.01663e-20)
(0.195685 -0.224392 -1.57083e-19)
(0.222193 -0.250001 6.07722e-19)
(0.249057 -0.274782 1.44794e-19)
(0.276034 -0.29841 -3.10491e-19)
(0.302842 -0.320505 -3.48042e-20)
(0.329126 -0.340575 4.07475e-19)
(0.354639 -0.357795 -1.91186e-19)
(0.379404 -0.370727 7.65192e-20)
(0.400711 -0.378792 5.19213e-20)
(-0.0119422 0.0191724 -2.11449e-19)
(-0.0247944 0.041698 2.08474e-19)
(-0.0291087 0.0523956 -1.18044e-19)
(-0.0272571 0.0538276 -3.7975e-19)
(-0.020722 0.0482037 -3.50118e-19)
(-0.0104669 0.03731 -1.57826e-19)
(0.00286336 0.0224974 -1.29922e-19)
(0.0188412 0.0047577 -3.86797e-19)
(0.0371758 -0.0151895 -1.56742e-19)
(0.0576537 -0.0368182 1.42834e-19)
(0.0800989 -0.0597311 -2.05393e-19)
(0.104347 -0.0836103 -2.18436e-19)
(0.130231 -0.108182 -2.0556e-19)
(0.157568 -0.133196 3.73552e-19)
(0.186158 -0.158407 -7.84573e-19)
(0.215778 -0.183573 4.45321e-19)
(0.246183 -0.208447 -7.60202e-19)
(0.27711 -0.232775 -1.15603e-19)
(0.308275 -0.256293 -4.07947e-19)
(0.339381 -0.278715 -9.22536e-20)
(0.370097 -0.299717 -1.13613e-19)
(0.400019 -0.318887 -3.68342e-19)
(0.428837 -0.33548 -3.46736e-20)
(0.456616 -0.347983 2.12839e-19)
(0.480656 -0.355594 -5.33883e-19)
(-0.0117992 0.0179032 1.82559e-19)
(-0.0242525 0.0394458 2.38375e-19)
(-0.027586 0.0502368 8.32748e-19)
(-0.0241973 0.0523385 -1.47119e-19)
(-0.0156073 0.0476747 3.49007e-19)
(-0.00282699 0.0378701 8.35708e-19)
(0.0134408 0.0241884 -2.28071e-19)
(0.0327127 0.00758323 3.10513e-19)
(0.0546494 -0.0112342 1.82185e-19)
(0.0789959 -0.0317312 3.31737e-19)
(0.105539 -0.0534972 -6.72984e-20)
(0.134081 -0.0762002 4.49208e-20)
(0.164417 -0.0995543 -1.18204e-19)
(0.196326 -0.123298 6.36654e-19)
(0.229563 -0.147181 8.18672e-20)
(0.263855 -0.170957 5.87988e-19)
(0.2989 -0.194378 -1.48716e-19)
(0.334372 -0.2172 5.29781e-19)
(0.369924 -0.239172 7.1221e-20)
(0.405195 -0.260037 2.60334e-19)
(0.4398 -0.27952 -1.08688e-19)
(0.473288 -0.297289 -1.19204e-20)
(0.505285 -0.312714 5.87926e-19)
(0.535894 -0.324277 3.44078e-19)
(0.562566 -0.33098 -1.41074e-19)
(-0.0114769 0.0164498 -4.43332e-19)
(-0.0232888 0.0365842 -4.48155e-19)
(-0.0255225 0.0470463 -4.6831e-19)
(-0.0205309 0.0494498 1.71659e-19)
(-0.00983644 0.0454487 -3.45888e-19)
(0.00552362 0.0365046 -5.17495e-20)
(0.0248026 0.0237854 -1.36629e-19)
(0.0474693 0.00819647 -5.71129e-19)
(0.0731388 -0.0095686 -9.06162e-20)
(0.101514 -0.0289772 1.4781e-19)
(0.13234 -0.0496105 -4.66149e-19)
(0.165378 -0.0711244 6.46802e-19)
(0.200378 -0.0932208 -8.79982e-19)
(0.237068 -0.115627 2.11818e-19)
(0.275145 -0.138085 -5.38067e-19)
(0.314272 -0.160341 -4.34329e-19)
(0.354078 -0.182146 -2.38183e-20)
(0.394162 -0.203258 -6.29361e-20)
(0.434104 -0.223436 5.24263e-20)
(0.473472 -0.242445 -2.36548e-19)
(0.511822 -0.260049 -1.60415e-19)
(0.548658 -0.275991 1.91996e-19)
(0.583542 -0.289766 -5.23981e-19)
(0.61661 -0.299917 1.6713e-19)
(0.645612 -0.305251 1.05516e-19)
(-0.0110005 0.0148854 -7.8767e-20)
(-0.021928 0.0332705 -1.30648e-19)
(-0.0229139 0.0430214 5.06579e-19)
(-0.016213 0.0453721 1.88715e-19)
(-0.00331894 0.0417335 2.50625e-19)
(0.0147232 0.0334109 -3.35189e-19)
(0.0371359 0.0214739 1.76854e-22)
(0.0633477 0.0067733 -2.74258e-19)
(0.0929305 -0.0100222 5.07134e-19)
(0.125542 -0.0283866 1.66865e-19)
(0.16088 -0.0478969 1.88712e-19)
(0.198653 -0.0682001 -7.46297e-19)
(0.238553 -0.0889875 9.22432e-19)
(0.280241 -0.109977 -2.76649e-19)
(0.32334 -0.1309 -1.97008e-19)
(0.367432 -0.1515 5.89176e-19)
(0.41206 -0.171525 2.59564e-19)
(0.456738 -0.190734 -6.54612e-19)
(0.500961 -0.208898 -2.65329e-19)
(0.544223 -0.225799 8.02431e-19)
(0.586022 -0.241233 -5.98788e-19)
(0.625821 -0.255006 3.57203e-19)
(0.66313 -0.266746 1.89558e-19)
(0.698098 -0.275093 -2.43291e-19)
(0.728921 -0.278621 -2.16396e-19)
(-0.0103968 0.0132747 -2.90453e-19)
(-0.0201953 0.0296529 4.50755e-19)
(-0.0197478 0.0383614 1.91672e-19)
(-0.0111773 0.0403326 -2.76676e-19)
(0.00407312 0.0367696 -4.40056e-20)
(0.0249651 0.0288347 -2.91044e-19)
(0.050701 0.0175021 -1.16479e-19)
(0.0806746 0.00356509 1.31654e-19)
(0.114414 -0.0123375 -3.22664e-20)
(0.151527 -0.0296911 2.50444e-19)
(0.191653 -0.0480735 -2.17873e-19)
(0.234433 -0.0671266 6.03926e-19)
(0.279482 -0.0865342 -7.49202e-19)
(0.326374 -0.106007 4.67547e-19)
(0.374638 -0.125272 5.78372e-19)
(0.423754 -0.144068 -8.31768e-19)
(0.473166 -0.162148 -2.48748e-19)
(0.522291 -0.179275 4.19488e-19)
(0.570535 -0.19523 -2.54556e-19)
(0.617316 -0.209814 2.39688e-19)
(0.662077 -0.222851 -5.75505e-19)
(0.704252 -0.234201 9.83048e-20)
(0.743322 -0.243616 3.57571e-19)
(0.779455 -0.249832 -5.61756e-19)
(0.81139 -0.2511 1.53787e-19)
(-0.00969005 0.0116699 -2.68505e-19)
(-0.0181093 0.0258617 8.40828e-19)
(-0.0159979 0.0332556 1.60965e-19)
(-0.00533267 0.0345623 -4.35612e-19)
(0.0125054 0.0308169 3.12366e-19)
(0.036494 0.0230571 1.59573e-19)
(0.0658218 0.0121684 2.55472e-19)
(0.0998495 -0.00111276 -1.54832e-20)
(0.138058 -0.0161803 -2.62215e-20)
(0.179993 -0.0325357 -5.65312e-20)
(0.22522 -0.0497621 -2.4661e-19)
(0.273291 -0.0675011 -8.49685e-21)
(0.323721 -0.0854345 5.75317e-19)
(0.375974 -0.103272 -9.41281e-19)
(0.42946 -0.12074 6.6914e-19)
(0.483544 -0.137585 1.36109e-19)
(0.537556 -0.153564 2.38308e-19)
(0.590814 -0.168454 -1.16485e-19)
(0.642639 -0.18205 1.04977e-18)
(0.692384 -0.194168 -6.40489e-19)
(0.739443 -0.204654 5.02239e-19)
(0.783223 -0.213404 1.12891e-19)
(0.823191 -0.220241 -3.52251e-19)
(0.85952 -0.223906 2.94128e-19)
(0.891398 -0.222451 4.27433e-19)
(-0.00889867 0.0101092 -7.78451e-20)
(-0.0156762 0.0220046 -2.96314e-19)
(-0.0116184 0.0278749 -5.05558e-19)
(0.00143884 0.0282848 -2.8797e-19)
(0.0221786 0.0241419 -4.0065e-20)
(0.0495969 0.0163803 -1.1368e-19)
(0.0828697 0.00580688 -5.30985e-19)
(0.12132 -0.00689609 8.80779e-20)
(0.164371 -0.0211567 -6.00882e-19)
(0.211488 -0.0364962 -4.71863e-20)
(0.262142 -0.0525084 -5.78495e-19)
(0.315768 -0.0688417 -2.05722e-19)
(0.371752 -0.0851835 1.18062e-19)
(0.429422 -0.101251 -5.60229e-19)
(0.48805 -0.116782 5.47332e-21)
(0.54687 -0.131538 -4.77231e-19)
(0.6051 -0.145295 1.82604e-19)
(0.661966 -0.157853 -6.52001e-19)
(0.716734 -0.169027 -1.07978e-19)
(0.768729 -0.178651 -1.08569e-20)
(0.817347 -0.186582 -1.03853e-19)
(0.862023 -0.192712 -1.05226e-19)
(0.902255 -0.196792 -5.29275e-20)
(0.938023 -0.197509 -2.00144e-19)
(0.967835 -0.193744 -4.08371e-19)
(-0.00803214 0.00861632 1.4302e-19)
(-0.0128847 0.0181628 3.75098e-19)
(-0.00654106 0.0223647 4.50098e-19)
(0.00928175 0.0217061 -3.59432e-19)
(0.0333224 0.0170048 6.6863e-19)
(0.06459 0.00911317 -3.62977e-19)
(0.102241 -0.0012292 1.97674e-19)
(0.145548 -0.0133902 3.10081e-19)
(0.193858 -0.0268327 2.82652e-19)
(0.246533 -0.0411017 1.3811e-19)
(0.302914 -0.0558088 2.22654e-19)
(0.362292 -0.0706173 1.30206e-19)
(0.423892 -0.085231 8.74282e-19)
(0.486879 -0.0993863 -6.31983e-19)
(0.550371 -0.112848 7.19732e-19)
(0.613466 -0.125405 -2.94236e-19)
(0.675277 -0.136871 6.32487e-19)
(0.734962 -0.147084 -3.1572e-20)
(0.791767 -0.155901 -1.2903e-19)
(0.845051 -0.163194 -1.80211e-20)
(0.89431 -0.168847 4.59367e-19)
(0.939192 -0.172723 -4.27277e-19)
(0.97962 -0.174416 3.05317e-19)
(1.01569 -0.173022 3.13153e-19)
(1.04304 -0.171145 5.54472e-20)
(-0.00708895 0.00720107 9.88526e-20)
(-0.00970263 0.0143914 -5.34932e-19)
(-0.00067367 0.0168423 -1.94172e-19)
(0.0183635 0.0150084 1.78245e-19)
(0.0461851 0.00965002 -5.468e-19)
(0.0817997 0.00155828 -1.07742e-19)
(0.124327 -0.00858343 7.51751e-20)
(0.172971 -0.0201889 2.98772e-19)
(0.226971 -0.0327569 -7.54562e-19)
(0.285553 -0.0458616 5.78244e-20)
(0.347895 -0.05914 -2.21377e-19)
(0.413103 -0.0722817 -6.71952e-19)
(0.480216 -0.0850196 4.56218e-19)
(0.548215 -0.0971244 2.08685e-20)
(0.616056 -0.108401 -1.48016e-20)
(0.682707 -0.118684 4.51842e-19)
(0.747191 -0.127841 -7.87597e-19)
(0.808628 -0.135764 6.15603e-19)
(0.866275 -0.142374 -1.17091e-19)
(0.919551 -0.147613 3.32938e-19)
(0.968056 -0.151448 -5.53316e-19)
(1.01159 -0.153856 3.00913e-19)
(1.05024 -0.1547 -5.18598e-19)
(1.08424 -0.153803 5.0608e-19)
(1.11005 -0.153916 -1.71453e-19)
(-0.00605568 0.00586162 6.58985e-19)
(-0.00607617 0.0107215 -1.0646e-19)
(0.00609803 0.0113972 7.89242e-19)
(0.0288685 0.00834697 3.65764e-19)
(0.061022 0.00229922 3.01213e-20)
(0.101543 -0.00599895 1.59836e-19)
(0.14949 -0.0159109 3.8821e-20)
(0.203963 -0.0268935 6.54361e-19)
(0.26406 -0.038484 2.11554e-19)
(0.328829 -0.0502921 -2.84441e-20)
(0.397244 -0.0619913 5.73472e-20)
(0.468197 -0.0733099 2.18961e-19)
(0.540515 -0.084025 1.81648e-19)
(0.612986 -0.0939565 3.85477e-19)
(0.684412 -0.102963 -4.40402e-19)
(0.75365 -0.11094 1.29636e-19)
(0.819673 -0.117815 4.30735e-20)
(0.881603 -0.123543 1.88586e-19)
(0.938751 -0.128106 4.90722e-19)
(0.990634 -0.131513 -3.27784e-19)
(1.03698 -0.133793 1.97325e-20)
(1.07772 -0.134995 -4.16801e-19)
(1.11302 -0.135123 3.77437e-19)
(1.14315 -0.134176 -3.42116e-19)
(1.16548 -0.134219 4.79457e-20)
(-0.00490729 0.00458746 -5.48655e-19)
(-0.00193097 0.0071651 4.19085e-19)
(0.0139067 0.0060936 -6.8112e-19)
(0.0409899 0.00185016 5.85761e-20)
(0.0780807 -0.00485226 4.80031e-19)
(0.124107 -0.0132977 -8.00089e-19)
(0.178028 -0.02289 6.36327e-19)
(0.238799 -0.0331287 -1.01066e-18)
(0.305331 -0.0435943 2.01179e-19)
(0.376451 -0.053942 4.32803e-20)
(0.45089 -0.0638938 3.39367e-19)
(0.527299 -0.0732323 -1.12771e-18)
(0.604281 -0.0817933 1.95477e-19)
(0.680442 -0.0894606 2.0448e-19)
(0.754454 -0.0961596 -1.20703e-19)
(0.825111 -0.101852 -7.38075e-19)
(0.891382 -0.106529 3.50147e-19)
(0.952455 -0.110209 6.29933e-19)
(1.00775 -0.112928 -6.48529e-19)
(1.05693 -0.114741 4.60769e-19)
(1.0999 -0.115719 -5.71807e-19)
(1.13674 -0.115946 4.08887e-19)
(1.16775 -0.115467 -1.01836e-19)
(1.1933 -0.114305 5.78614e-19)
(1.21161 -0.114046 -6.3314e-19)
(-0.00360855 0.00336288 7.78031e-20)
(0.00282444 0.00372105 6.17686e-20)
(0.0228973 0.000976467 1.49802e-19)
(0.0549204 -0.00437707 5.37793e-19)
(0.0975881 -0.0116348 -1.73124e-20)
(0.149729 -0.0201046 1.1989e-19)
(0.210156 -0.0292289 5.37246e-19)
(0.277631 -0.0385533 2.17148e-19)
(0.350826 -0.0477099 -7.19511e-20)
(0.428301 -0.0564112 6.09595e-19)
(0.508515 -0.0644435 -6.9306e-19)
(0.589864 -0.0716586 1.06134e-18)
(0.670735 -0.0779666 -4.19683e-19)
(0.749581 -0.0833267 7.53359e-19)
(0.824993 -0.0877384 -2.54341e-19)
(0.895763 -0.0912325 9.14368e-20)
(0.96093 -0.0938622 1.09619e-19)
(1.01981 -0.095696 -2.00746e-19)
(1.072 -0.0968112 1.70578e-19)
(1.11736 -0.0972899 1.07494e-19)
(1.15598 -0.0972176 1.41223e-19)
(1.18816 -0.0966798 2.81593e-19)
(1.21435 -0.0957215 -3.19341e-20)
(1.23506 -0.0943636 -1.25497e-19)
(1.2492 -0.093837 3.33715e-19)
(-0.00211627 0.00217062 -4.54777e-19)
(0.00829391 0.000381992 4.79322e-20)
(0.0332205 -0.00392114 -8.6356e-19)
(0.0708425 -0.0102468 -2.05895e-19)
(0.119737 -0.0179003 -3.87231e-19)
(0.178583 -0.0262127 -8.26242e-20)
(0.24599 -0.0346681 -4.15593e-19)
(0.32047 -0.0428662 -2.493e-19)
(0.400403 -0.0505028 3.29071e-19)
(0.484048 -0.0573634 -5.49801e-19)
(0.56957 -0.0633144 -1.52739e-19)
(0.655113 -0.0682934 5.47798e-21)
(0.738882 -0.0722968 -1.01935e-18)
(0.819228 -0.0753673 4.30499e-19)
(0.894732 -0.0775806 -6.20455e-19)
(0.96426 -0.0790324 -1.76521e-20)
(1.027 -0.0798276 1.14944e-19)
(1.08247 -0.0800713 -1.92112e-19)
(1.13049 -0.0798628 -1.64921e-19)
(1.17116 -0.079292 7.50107e-20)
(1.2048 -0.0784382 8.0373e-20)
(1.23191 -0.0773691 -5.26212e-19)
(1.25311 -0.0761074 2.96831e-19)
(1.26903 -0.0746652 1.35249e-19)
(1.27911 -0.074035 2.32451e-20)
(-0.000382011 0.000995256 4.63191e-19)
(0.014588 -0.00285859 -4.92902e-19)
(0.0450247 -0.00856982 6.93078e-19)
(0.0889196 -0.0156801 1.09398e-19)
(0.144678 -0.0235157 -3.32492e-20)
(0.210767 -0.0314368 -2.32831e-19)
(0.285535 -0.0389783 3.52366e-20)
(0.367181 -0.045807 3.56267e-19)
(0.453749 -0.0516992 -4.91773e-19)
(0.543166 -0.0565307 5.16514e-19)
(0.633304 -0.0602657 -5.46965e-20)
(0.722085 -0.0629409 2.68485e-20)
(0.807584 -0.0646478 6.61695e-19)
(0.888129 -0.0655149 8.74836e-19)
(0.962374 -0.0656888 -3.4323e-19)
(1.02935 -0.0653197 5.89662e-19)
(1.08846 -0.0645485 2.87115e-19)
(1.13949 -0.063499 -1.80432e-19)
(1.18253 -0.062273 5.41798e-19)
(1.21794 -0.0609494 -3.05101e-20)
(1.24627 -0.0595862 -4.97896e-19)
(1.26821 -0.058221 5.06935e-19)
(1.28453 -0.0568463 6.25941e-20)
(1.29595 -0.0554647 -2.92763e-19)
(1.3023 -0.0548933 9.29054e-20)
(0.00164497 -0.000173941 -6.4121e-19)
(0.0218183 -0.00600009 6.71176e-19)
(0.0584494 -0.0129358 -4.25361e-19)
(0.109288 -0.0205986 -1.31642e-19)
(0.172509 -0.0283547 -2.98413e-19)
(0.246302 -0.0356066 5.28714e-19)
(0.328685 -0.0419556 -3.06503e-19)
(0.41749 -0.0471543 -1.40605e-19)
(0.510388 -0.0510788 -4.01518e-19)
(0.604963 -0.0537152 1.09905e-20)
(0.698818 -0.055141 -1.57406e-19)
(0.789706 -0.0555021 7.43713e-20)
(0.875653 -0.0549881 -7.91474e-19)
(0.955052 -0.0538075 2.25767e-19)
(1.02673 -0.0521665 -2.65912e-19)
(1.08996 -0.0502526 -2.08031e-19)
(1.14444 -0.0482231 6.25943e-20)
(1.19025 -0.0461999 -2.93332e-19)
(1.22779 -0.0442691 -1.16681e-19)
(1.25766 -0.0424832 3.49704e-19)
(1.28064 -0.0408673 1.37894e-19)
(1.29757 -0.0394226 -5.91099e-19)
(1.30932 -0.0381086 4.20698e-19)
(1.3167 -0.0369178 -7.81241e-20)
(1.31977 -0.0365367 -1.53268e-19)
(0.00401513 -0.00134101 -2.31266e-19)
(0.0300917 -0.00902976 -1.23677e-19)
(0.0736183 -0.0169738 -2.39577e-20)
(0.132052 -0.0249166 1.83724e-19)
(0.203271 -0.0322907 1.99013e-19)
(0.285122 -0.038561 1.72677e-19)
(0.375225 -0.0434175 2.16157e-19)
(0.470996 -0.0467217 3.2935e-19)
(0.569711 -0.0484727 5.03661e-19)
(0.668624 -0.0487855 4.96064e-19)
(0.765119 -0.0478636 2.60735e-19)
(0.856862 -0.0459665 -7.08805e-20)
(0.941924 -0.0433762 1.72714e-20)
(1.01887 -0.040369 -1.85078e-20)
(1.08679 -0.0371917 2.0191e-19)
(1.14528 -0.0340472 -4.69581e-20)
(1.19437 -0.0310874 5.65339e-19)
(1.23447 -0.0284128 -2.57215e-19)
(1.26626 -0.0260769 9.2444e-22)
(1.29059 -0.0240947 1.6125e-19)
(1.30841 -0.0224517 -3.58136e-19)
(1.32067 -0.0211108 5.7141e-19)
(1.32833 -0.0199996 -4.56154e-19)
(1.3322 -0.0191023 7.73815e-20)