/*--------------------------------*- C++ -*----------------------------------*\
  =========                 |
  \\      /  F ield         | OpenFOAM: The Open Source CFD Toolbox
   \\    /   O peration     | Website:  https://openfoam.org
    \\  /    A nd           | Version:  6.0
     \\/     M anipulation  |
\*---------------------------------------------------------------------------*/
FoamFile
{
    version     2.0;
    format      ascii;
    class       surfaceScalarField;
    location    "96";
    object      phi;
}
// * * * * * * * * * * * * * * * * * * * * * * * * * * * * * * * * * * * * * //

dimensions      [0 3 -1 0 0 0 0];

internalField   nonuniform List<scalar> 
7840
(
4.11084e-05
-0.000347025
0.000140466
-0.00106011
0.000273203
-0.00174285
0.000415056
-0.00233768
0.000547016
-0.00280915
0.00065787
-0.00315001
0.000743717
-0.00337428
0.000805786
-0.00350642
0.000847998
-0.00357244
0.000875064
-0.00359482
0.000891331
-0.0035906
0.000900271
-0.00357155
0.000904404
-0.00354513
0.000905432
-0.00351584
0.000904461
-0.00348621
0.000902195
-0.00345766
0.00089909
-0.00343095
0.000895444
-0.00340648
0.000891448
-0.00338443
-0.0033649
0.000887219
4.18634e-05
-0.000388889
0.000140052
-0.0011583
0.000267313
-0.00187011
0.000398871
-0.00246924
0.000516894
-0.00292717
0.000612102
-0.00324521
0.000682407
-0.00344459
0.000730272
-0.00355429
0.000760195
-0.00360237
0.000776951
-0.00361157
0.000784639
-0.00359829
0.000786363
-0.00357327
0.000784269
-0.00354304
0.00077975
-0.00351132
0.00077368
-0.00348014
0.000766606
-0.00345059
0.000758881
-0.00342322
0.00075074
-0.00339834
0.000742335
-0.00337602
-0.00335632
0.000733757
4.21558e-05
-0.000431044
0.000138016
-0.00125416
0.000258405
-0.0019905
0.000378583
-0.00258942
0.000482235
-0.00303083
0.00056205
-0.00332503
0.000617576
-0.00350011
0.000652252
-0.00358896
0.000670928
-0.00362104
0.000678289
-0.00361893
0.00067812
-0.00359812
0.000673143
-0.00356829
0.00066516
-0.00353506
0.000655295
-0.00350146
0.000644231
-0.00346908
0.000632388
-0.00343874
0.000620041
-0.00341088
0.000607378
-0.00338568
0.000594518
-0.00336316
-0.00334334
0.000581538
4.19696e-05
-0.000473014
0.000134395
-0.00134659
0.000246696
-0.0021028
0.000354678
-0.0026974
0.000443783
-0.00311993
0.000508626
-0.00338987
0.000550177
-0.00354166
0.000572614
-0.0036114
0.000580949
-0.00362938
0.000579667
-0.00361765
0.000572199
-0.00359065
0.000560899
-0.00355699
0.000547259
-0.00352142
0.000532174
-0.00348637
0.000516169
-0.00345308
0.000499566
-0.00342214
0.000482581
-0.00339389
0.000465364
-0.00336846
0.000448015
-0.00334581
-0.00332593
0.000430597
4.13008e-05
-0.000514315
0.000129262
-0.00143455
0.000232452
-0.00220599
0.000327668
-0.00279262
0.000402262
-0.00319452
0.000452668
-0.00344028
0.00048106
-0.00357006
0.000492136
-0.00362248
0.000490915
-0.00362816
0.000481609
-0.00360835
0.00046728
-0.00357632
0.000449938
-0.00353965
0.000430803
-0.00350228
0.000410578
-0.00346615
0.000389662
-0.00343216
0.000368298
-0.00340078
0.000346653
-0.00337225
0.000324852
-0.00334666
0.000302979
-0.00332394
-0.00330404
0.000281093
4.01561e-05
-0.000554471
0.000122718
-0.00151711
0.000215962
-0.00229923
0.000298057
-0.00287471
0.000358336
-0.0032548
0.000394906
-0.00347685
0.000410926
-0.00358608
0.000411426
-0.00362298
0.000401313
-0.00361804
0.000384476
-0.00359151
0.000363616
-0.00355546
0.000340431
-0.00351647
0.000315908
-0.00347776
0.000290588
-0.00344083
0.00026477
-0.00340634
0.000238632
-0.00337464
0.000212304
-0.00334592
0.000185889
-0.00332025
0.000159465
-0.00329752
-0.00327766
0.000133086
3.85515e-05
-0.000593022
0.000114883
-0.00159344
0.000197529
-0.00238188
0.000266332
-0.00294351
0.000312612
-0.00330108
0.000335979
-0.00350022
0.000340371
-0.00359047
0.000330987
-0.00361359
0.000312536
-0.00359959
0.000288562
-0.00356754
0.00026142
-0.00352832
0.000232531
-0.00348758
0.000202686
-0.00344791
0.000172296
-0.00341044
0.000141576
-0.00337562
0.00011065
-0.00334371
7.96162e-05
-0.00331489
4.85626e-05
-0.00328919
1.75639e-05
-0.00326652
-0.00324677
-1.33259e-05
3.65107e-05
-0.000629533
0.000105893
-0.00166283
0.000177456
-0.00245344
0.000232948
-0.002999
0.00026563
-0.00333377
0.000276433
-0.00351102
0.000269884
-0.00358392
0.00025122
-0.00359493
0.000224889
-0.00357326
0.000194084
-0.00353673
0.00016084
-0.00349508
0.000126341
-0.00345308
9.12112e-05
-0.00341278
5.57593e-05
-0.00337499
2.01286e-05
-0.00333999
-1.5601e-05
-0.00330798
-5.13601e-05
-0.00327913
-8.70738e-05
-0.00325348
-0.000122666
-0.00323093
-0.00321136
-0.000158078
3.40642e-05
-0.000663597
9.58918e-05
-0.00172465
0.000156041
-0.00251359
0.000198328
-0.00304129
0.000217869
-0.00335331
0.000216735
-0.00350988
0.000199873
-0.00356706
0.00017245
-0.00356751
0.000138614
-0.00353943
0.000101214
-0.00349933
6.19996e-05
-0.00345586
2.19453e-05
-0.00341302
-1.84529e-05
-0.00337238
-5.89719e-05
-0.00333447
-9.95251e-05
-0.00329944
-0.000140074
-0.00326744
-0.000180576
-0.00323863
-0.000220968
-0.00321309
-0.000261167
-0.00319073
-0.00317142
-0.000301105
3.12474e-05
-0.000694845
8.50271e-05
-0.00177843
0.000133567
-0.00256213
0.000162855
-0.00307058
0.000169751
-0.0033602
0.000157283
-0.00349742
0.000130673
-0.00354045
9.49386e-05
-0.00353177
5.39047e-05
-0.00349839
1.00925e-05
-0.00345552
-3.50065e-05
-0.00341077
-8.05875e-05
-0.00336744
-0.000126259
-0.00332671
-0.000171862
-0.00328886
-0.000217356
-0.00325394
-0.000262742
-0.00322205
-0.000308005
-0.00319336
-0.000353092
-0.003168
-0.00039791
-0.00314591
-0.00312696
-0.000442374
2.80998e-05
-0.000722944
7.34469e-05
-0.00182378
0.000110302
-0.00259898
0.000126877
-0.00308716
0.000121641
-0.00335497
9.84137e-05
-0.00347419
6.25668e-05
-0.0035046
1.89064e-05
-0.00348811
-2.90745e-05
-0.00345041
-7.91622e-05
-0.00340543
-0.000130091
-0.00335984
-0.000181195
-0.00331634
-0.000232163
-0.00327575
-0.000282882
-0.00323814
-0.000333348
-0.00320348
-0.000383596
-0.0031718
-0.000433645
-0.00314331
-0.000483453
-0.00311819
-0.000532911
-0.00309645
-0.00307796
-0.000581911
2.46639e-05
-0.000747608
6.12971e-05
-0.00186041
8.64982e-05
-0.00262419
9.07069e-05
-0.00309136
7.38604e-05
-0.00333812
4.04184e-05
-0.00344075
-4.20462e-06
-0.00345998
-5.54572e-05
-0.00343686
-0.000110178
-0.00339569
-0.000166437
-0.00334917
-0.000223165
-0.00330311
-0.000279812
-0.00325969
-0.000336121
-0.00321944
-0.000392007
-0.00318226
-0.000447493
-0.00314799
-0.000502647
-0.00311665
-0.000557525
-0.00308844
-0.000612104
-0.00306361
-0.000666258
-0.0030423
-0.00302438
-0.000719839
2.09842e-05
-0.000768593
4.87195e-05
-0.00188815
6.23871e-05
-0.00263785
5.46246e-05
-0.0030836
2.66932e-05
-0.00331019
-1.64493e-05
-0.00339761
-6.94291e-05
-0.003407
-0.00012798
-0.00337831
-0.000189263
-0.00333441
-0.000251612
-0.00328682
-0.000314128
-0.00324059
-0.000376354
-0.00319746
-0.000438071
-0.00315772
-0.000499203
-0.00312113
-0.000559784
-0.00308741
-0.000619912
-0.00305652
-0.000679689
-0.00302866
-0.000739124
-0.00300418
-0.000798078
-0.00298334
-0.00296612
-0.000856336
1.71063e-05
-0.000785699
3.58506e-05
-0.00190689
3.81841e-05
-0.00264019
1.88833e-05
-0.0030643
-1.96099e-05
-0.00327169
-7.19634e-05
-0.00334525
-0.000132913
-0.00334605
-0.000198494
-0.00331273
-0.000266182
-0.00326672
-0.00033455
-0.00321845
-0.000402853
-0.00317229
-0.00047071
-0.00312961
-0.000537923
-0.00309051
-0.00060441
-0.00305464
-0.000670197
-0.00302162
-0.000735398
-0.00299132
-0.000800166
-0.00296389
-0.000864565
-0.00293978
-0.000928451
-0.00291946
-0.00290307
-0.000991498
1.30764e-05
-0.000798775
2.28207e-05
-0.00191664
1.40873e-05
-0.00263145
-1.62888e-05
-0.00303392
-6.48237e-05
-0.00322316
-0.000125918
-0.00328416
-0.000194471
-0.00327749
-0.000266831
-0.00324037
-0.00034077
-0.00319278
-0.000415085
-0.00314414
-0.00048917
-0.0030982
-0.000562714
-0.00305606
-0.000635534
-0.00301769
-0.000707527
-0.00298264
-0.000778682
-0.00295047
-0.000849103
-0.0029209
-0.000918985
-0.00289401
-0.000988461
-0.0028703
-0.0010574
-0.00285052
-0.00283515
-0.00112532
8.94066e-06
-0.000807716
9.75296e-06
-0.00191745
-9.72162e-06
-0.00261198
-5.0686e-05
-0.00299296
-0.000108745
-0.0031651
-0.000178125
-0.00321478
-0.000253926
-0.00320169
-0.000332812
-0.00316148
-0.000412838
-0.00311275
-0.000493009
-0.00306397
-0.000572851
-0.00301836
-0.000652126
-0.00297679
-0.000730675
-0.00293914
-0.000808367
-0.00290495
-0.000885132
-0.0028737
-0.000961021
-0.00284501
-0.00103623
-0.0028188
-0.00111099
-0.00279555
-0.00118517
-0.00277633
-0.0027621
-0.00125822
4.74445e-06
-0.00081246
-3.23725e-06
-0.00190947
-3.30774e-05
-0.00258214
-8.41237e-05
-0.00294191
-0.00015119
-0.00309803
-0.000228406
-0.00313756
-0.000311101
-0.003119
-0.000396249
-0.00307634
-0.000482173
-0.00302683
-0.000568071
-0.00297807
-0.000653603
-0.00293283
-0.000738615
-0.00289178
-0.000822993
-0.00285476
-0.000906601
-0.00282134
-0.000989308
-0.002791
-0.00107108
-0.00276324
-0.00115208
-0.00273779
-0.00123263
-0.002715
-0.0013127
-0.00269627
-0.00268282
-0.00139198
5.31342e-07
-0.000812992
-1.60438e-05
-0.00189289
-5.5832e-05
-0.00254235
-0.000116438
-0.00288131
-0.000191995
-0.00302248
-0.000276598
-0.00305296
-0.000365823
-0.00302977
-0.000456944
-0.00298522
-0.000548535
-0.00293524
-0.000639978
-0.00288663
-0.000731065
-0.00284174
-0.000821751
-0.00280109
-0.000912004
-0.00276451
-0.00100174
-0.00273161
-0.0010908
-0.00270194
-0.00117907
-0.00267496
-0.00126668
-0.00265019
-0.00135406
-0.00262762
-0.00144144
-0.00260889
-0.00259473
-0.00152952
-3.65775e-06
-0.000809334
-2.85712e-05
-0.00186798
-7.78562e-05
-0.00249307
-0.00014749
-0.00281167
-0.00023102
-0.00293895
-0.000322555
-0.00296142
-0.000417927
-0.0029344
-0.000514692
-0.00288845
-0.000611656
-0.00283828
-0.00070837
-0.00278991
-0.000804765
-0.00274535
-0.000900927
-0.00270493
-0.000996972
-0.00266846
-0.00109296
-0.00263562
-0.00118885
-0.00260605
-0.00128454
-0.00257928
-0.00138004
-0.00255468
-0.00147576
-0.0025319
-0.00157232
-0.00251233
-0.00249449
-0.00167255
-7.78555e-06
-0.000801548
-4.07365e-05
-0.00183503
-9.90417e-05
-0.00243476
-0.000177164
-0.00273355
-0.000268152
-0.00284796
-0.000366162
-0.00286341
-0.000467277
-0.00283328
-0.000569311
-0.00278642
-0.00067127
-0.00273632
-0.00077285
-0.00268833
-0.000874097
-0.0026441
-0.000975228
-0.0026038
-0.00107655
-0.00256714
-0.0011784
-0.00253377
-0.0012811
-0.00250334
-0.0013849
-0.00247549
-0.00148992
-0.00244966
-0.00159681
-0.002425
-0.00170812
-0.00240103
-0.00239105
-0.00181156
-1.18058e-05
-0.000789743
-5.24486e-05
-0.00179439
-0.000119278
-0.00236793
-0.000205352
-0.00264748
-0.00030329
-0.00275002
-0.000407323
-0.00275938
-0.00051377
-0.00272684
-0.000620674
-0.00267951
-0.000727202
-0.00262979
-0.000833138
-0.0025824
-0.000938579
-0.00253866
-0.00104378
-0.0024986
-0.0011491
-0.00246182
-0.00125504
-0.00242783
-0.0013623
-0.00239608
-0.00147177
-0.00236602
-0.00158435
-0.00233708
-0.00170039
-0.00230897
-0.00182083
-0.00228059
-0.00224392
-0.00196797
-1.57148e-05
-0.000774028
-6.3693e-05
-0.00174641
-0.00013855
-0.00229308
-0.000232048
-0.00255398
-0.000336444
-0.00264563
-0.000446059
-0.00264977
-0.000557437
-0.00261546
-0.000668823
-0.00256813
-0.00077951
-0.0025191
-0.000889339
-0.00247257
-0.000998394
-0.0024296
-0.00110685
-0.00239014
-0.00121492
-0.00235375
-0.00132283
-0.00231992
-0.00143083
-0.00228809
-0.00153911
-0.00225774
-0.00164772
-0.00222846
-0.00175693
-0.00219976
-0.00186755
-0.00216996
-0.00213513
-0.00197635
-1.94768e-05
-0.000754551
-7.44071e-05
-0.00169148
-0.000156791
-0.00221069
-0.0002572
-0.00245357
-0.000367582
-0.00253524
-0.00048236
-0.00253499
-0.000598292
-0.00249953
-0.0007138
-0.00245262
-0.000828289
-0.00240461
-0.000941651
-0.0023592
-0.00105398
-0.00231728
-0.00116544
-0.00227869
-0.00127619
-0.002243
-0.00138637
-0.00220973
-0.00149609
-0.00217837
-0.00160533
-0.00214849
-0.00171409
-0.0021197
-0.00182232
-0.00209153
-0.00192924
-0.00206304
-0.00203335
-0.00203102
-2.30745e-05
-0.000731476
-8.45614e-05
-0.00162999
-0.000173977
-0.00212128
-0.0002808
-0.00234675
-0.00039672
-0.00241932
-0.00051627
-0.00241544
-0.000636404
-0.00237939
-0.000755704
-0.00233332
-0.000873664
-0.00228665
-0.000990205
-0.00224266
-0.00110541
-0.00220207
-0.00121941
-0.00216469
-0.00133232
-0.0021301
-0.00144419
-0.00209786
-0.00155503
-0.00206753
-0.00166477
-0.00203875
-0.00177325
-0.00201122
-0.00188019
-0.0019846
-0.00198485
-0.00195838
-0.00193209
-0.00208611
-2.64941e-05
-0.000704982
-9.41363e-05
-0.00156235
-0.000190098
-0.00202531
-0.000302861
-0.00223398
-0.000423897
-0.00229829
-0.000547855
-0.00229148
-0.000671875
-0.00225537
-0.000794684
-0.00221051
-0.000915858
-0.00216548
-0.00103535
-0.00212317
-0.00115325
-0.00208417
-0.00126966
-0.00204828
-0.00138466
-0.0020151
-0.0014983
-0.00198422
-0.00161054
-0.00195528
-0.00172132
-0.00192797
-0.00183049
-0.00190205
-0.00193778
-0.00187731
-0.00204277
-0.0018534
-0.00183005
-0.0021448
-2.97256e-05
-0.000675257
-0.00010312
-0.00148895
-0.000205156
-0.00192328
-0.000323405
-0.00211573
-0.000449159
-0.00217254
-0.000577187
-0.00216345
-0.000704803
-0.00212776
-0.000830865
-0.00208445
-0.000955024
-0.00204132
-0.00107727
-0.00200093
-0.00119769
-0.00196375
-0.00131639
-0.00192957
-0.00143346
-0.00189803
-0.00154891
-0.00186877
-0.00166275
-0.00184145
-0.0017749
-0.00181582
-0.00188527
-0.00179169
-0.0019937
-0.00176888
-0.00209997
-0.00174713
-0.00172623
-0.00220379
-3.27617e-05
-0.000642495
-0.000111508
-0.00141021
-0.000219158
-0.00181563
-0.00034246
-0.00199243
-0.000472557
-0.00204244
-0.00060434
-0.00203167
-0.000735285
-0.00199681
-0.000864373
-0.00195536
-0.000991323
-0.00191437
-0.00111615
-0.0018761
-0.00123898
-0.00184092
-0.00135991
-0.00180864
-0.00147902
-0.00177892
-0.00159637
-0.00175141
-0.00171198
-0.00172584
-0.00182581
-0.00170199
-0.00193782
-0.00167968
-0.00204794
-0.00165876
-0.00215608
-0.00163898
-0.00162023
-0.00226209
-3.5597e-05
-0.000606898
-0.000119297
-0.00132651
-0.000232115
-0.00170281
-0.000360055
-0.00186449
-0.000494141
-0.00190835
-0.000629382
-0.00189643
-0.000763408
-0.00186279
-0.00089531
-0.00182346
-0.00102487
-0.00178481
-0.00115215
-0.00174882
-0.00127727
-0.0017158
-0.00140036
-0.00168556
-0.00152152
-0.00165776
-0.00164082
-0.00163211
-0.0017583
-0.00160836
-0.00187398
-0.00158631
-0.00198786
-0.0015658
-0.00209994
-0.00154668
-0.0022102
-0.00152872
-0.00151186
-0.00231857
-3.82277e-05
-0.00056867
-0.000126487
-0.00123825
-0.000244039
-0.00158526
-0.000376219
-0.00173231
-0.000513955
-0.00177062
-0.000652371
-0.00175801
-0.00078924
-0.00172592
-0.000923754
-0.00168894
-0.00105576
-0.0016528
-0.00118534
-0.00161924
-0.00131265
-0.00158849
-0.00143783
-0.00156037
-0.001561
-0.00153459
-0.00168226
-0.00151085
-0.00180167
-0.00148895
-0.00191928
-0.00146869
-0.00203514
-0.00144994
-0.00214929
-0.00143253
-0.00226175
-0.00141627
-0.00140111
-0.0023725
-4.06508e-05
-0.00052802
-0.000133081
-0.00114582
-0.000254944
-0.00146339
-0.000390978
-0.00159628
-0.000532036
-0.00162956
-0.000673354
-0.00161669
-0.000812835
-0.00158644
-0.000949764
-0.00155201
-0.00108404
-0.00151853
-0.00121579
-0.00148749
-0.00134517
-0.00145911
-0.00147235
-0.00143319
-0.00159747
-0.00140946
-0.00172065
-0.00138768
-0.00184197
-0.00136763
-0.00196152
-0.00134914
-0.00207937
-0.00133209
-0.00219559
-0.00131632
-0.00231022
-0.00130163
-0.00128804
-0.00242329
-4.28636e-05
-0.000485156
-0.000139077
-0.0010496
-0.000264838
-0.00133763
-0.000404352
-0.00145676
-0.000548414
-0.0014855
-0.000692367
-0.00147274
-0.000834231
-0.00144457
-0.000973378
-0.00141287
-0.00110976
-0.00138215
-0.00124351
-0.00135374
-0.00137483
-0.00132779
-0.00150391
-0.00130412
-0.00163089
-0.00128248
-0.00175591
-0.00126266
-0.00187908
-0.00124445
-0.00200051
-0.00122771
-0.00212029
-0.00121231
-0.0022385
-0.00119811
-0.00235522
-0.00118491
-0.00117277
-0.00247049
-4.4864e-05
-0.000440292
-0.000144478
-0.00094999
-0.000273729
-0.00120838
-0.000416358
-0.00131413
-0.000563113
-0.00133874
-0.000709436
-0.00132642
-0.000853455
-0.00130055
-0.000994617
-0.00127171
-0.00113291
-0.00124385
-0.00126852
-0.00121813
-0.00140164
-0.00119467
-0.00153247
-0.00117329
-0.00166119
-0.00115377
-0.00178794
-0.0011359
-0.00191286
-0.00111953
-0.00203607
-0.0011045
-0.00215767
-0.00109071
-0.00227776
-0.00107801
-0.00239643
-0.00106625
-0.00105547
-0.00251374
-4.66496e-05
-0.000393642
-0.000149283
-0.000847357
-0.000281624
-0.00107604
-0.000427007
-0.00116875
-0.000576147
-0.0011896
-0.000724578
-0.00117799
-0.000870522
-0.00115461
-0.00101349
-0.00112874
-0.00115351
-0.00110383
-0.00129079
-0.00108086
-0.00142555
-0.00105991
-0.00155799
-0.00104085
-0.0016883
-0.00102345
-0.00181665
-0.00100755
-0.00194319
-0.000992996
-0.00206803
-0.000979657
-0.00219131
-0.000967432
-0.00231313
-0.000956193
-0.00243358
-0.000945794
-0.000936306
-0.00255274
-4.82181e-05
-0.000345424
-0.00015349
-0.000742085
-0.000288525
-0.000941008
-0.000436307
-0.00102097
-0.000587528
-0.00103838
-0.000737802
-0.00102771
-0.000885437
-0.00100698
-0.00103
-0.000984175
-0.00117156
-0.000962272
-0.00131032
-0.000942092
-0.00144653
-0.000923703
-0.00158041
-0.000906964
-0.00171216
-0.000891704
-0.00184195
-0.000877764
-0.00196993
-0.000865011
-0.00209625
-0.000853336
-0.00222104
-0.000842645
-0.00234441
-0.000832825
-0.00246645
-0.000823748
-0.000815491
-0.00258727
-4.95673e-05
-0.000295857
-0.000157099
-0.000634553
-0.000294434
-0.000803674
-0.000444263
-0.000871139
-0.000597262
-0.000885381
-0.000749115
-0.00087586
-0.000898202
-0.000857889
-0.00104414
-0.000838237
-0.00118702
-0.000819393
-0.00132707
-0.000802037
-0.00146455
-0.000786223
-0.00159969
-0.000771827
-0.00173269
-0.000758704
-0.00186374
-0.000746717
-0.00199299
-0.000735754
-0.00212061
-0.000725722
-0.00224672
-0.000716538
-0.00237144
-0.000708104
-0.00249487
-0.000700311
-0.000693236
-0.00261713
-5.06951e-05
-0.000245162
-0.000160107
-0.000525141
-0.000299351
-0.00066443
-0.000450877
-0.000719613
-0.00060535
-0.000730908
-0.000758516
-0.000722694
-0.000908814
-0.00070759
-0.0010559
-0.000691151
-0.00119989
-0.000675403
-0.00134103
-0.000660898
-0.00147958
-0.000647674
-0.00161578
-0.00063563
-0.00174983
-0.000624644
-0.00188195
-0.000614606
-0.00201228
-0.000605421
-0.00214099
-0.000597012
-0.00226822
-0.000589312
-0.00239408
-0.000582237
-0.00251869
-0.000575699
-0.000569766
-0.00264216
-5.15996e-05
-0.000193562
-0.000162513
-0.000414228
-0.000303275
-0.000523668
-0.000456149
-0.000566739
-0.000611793
-0.000575264
-0.000766004
-0.000568484
-0.000917268
-0.000556326
-0.00106527
-0.000543146
-0.00121015
-0.000530524
-0.00135216
-0.000518888
-0.00149157
-0.000508266
-0.00162862
-0.000498579
-0.00176354
-0.00048973
-0.00189651
-0.000481634
-0.00202771
-0.000474216
-0.00215731
-0.000467417
-0.00228544
-0.000461181
-0.00241223
-0.000455444
-0.0025378
-0.000450135
-0.000445312
-0.00266225
-5.2279e-05
-0.000141284
-0.000164313
-0.000302194
-0.000306205
-0.000381776
-0.000460079
-0.000412865
-0.000616591
-0.000418751
-0.000771577
-0.000413498
-0.000923558
-0.000404345
-0.00107225
-0.000394457
-0.00121779
-0.000384982
-0.00136045
-0.000376228
-0.0015005
-0.000368215
-0.00163819
-0.000360886
-0.00177375
-0.000354174
-0.00190737
-0.000348014
-0.00203923
-0.000342355
-0.00216949
-0.000337153
-0.00229831
-0.000332367
-0.0024258
-0.00032795
-0.00255209
-0.000323853
-0.000320114
-0.00267728
-5.2732e-05
-8.85515e-05
-0.000165506
-0.000189419
-0.000308139
-0.000239143
-0.000462666
-0.000258338
-0.000619742
-0.000261675
-0.000775231
-0.00025801
-0.000927678
-0.000251897
-0.00107681
-0.000245323
-0.00122279
-0.000239007
-0.00136587
-0.000233141
-0.00150635
-0.000227741
-0.00164446
-0.000222772
-0.00178044
-0.000218193
-0.00191449
-0.000213967
-0.00204679
-0.000210059
-0.00217749
-0.000206444
-0.00230676
-0.000203097
-0.00243472
-0.000199989
-0.00256149
-0.000197087
-0.000194414
-0.00268719
-5.29577e-05
-3.55938e-05
-0.000166092
-7.62851e-05
-0.000309077
-9.61578e-05
-0.000463908
-0.000103508
-0.000621244
-0.000104338
-0.000776963
-0.000102291
-0.000929624
-9.92356e-05
-0.00107896
-9.59849e-05
-0.00122514
-9.2832e-05
-0.00136842
-8.98576e-05
-0.00150909
-8.70705e-05
-0.0016474
-8.44601e-05
-0.00178359
-8.20124e-05
-0.00191784
-7.97142e-05
-0.00205034
-7.75535e-05
-0.00218127
-7.552e-05
-0.00231076
-7.36045e-05
-0.00243895
-7.17962e-05
-0.00256596
-7.00819e-05
-6.84621e-05
-0.00269191
-5.29554e-05
1.73616e-05
-0.000166068
3.68276e-05
-0.000309017
4.6791e-05
-0.000463804
5.12796e-05
-0.000621096
5.29537e-05
-0.000776772
5.3385e-05
-0.000929393
5.33853e-05
-0.00107869
5.33156e-05
-0.00122483
5.33077e-05
-0.00136808
5.3394e-05
-0.00150873
5.35708e-05
-0.00164701
5.38254e-05
-0.00178317
5.41445e-05
-0.0019174
5.4517e-05
-0.00204989
5.49342e-05
-0.0021808
5.53893e-05
-0.00231028
5.58764e-05
-0.00243846
5.63879e-05
-0.00256546
5.69187e-05
5.7489e-05
-0.00269141
-5.27259e-05
7.00875e-05
-0.000165437
0.000149538
-0.00030796
0.000189315
-0.000462356
0.000205675
-0.000619298
0.000209896
-0.000774658
0.000208744
-0.000926984
0.000205711
-0.001076
0.000202336
-0.00122187
0.000199177
-0.00136486
0.000196383
-0.00150525
0.000193955
-0.00164328
0.000191858
-0.00177919
0.000190052
-0.00191317
0.000188501
-0.00204541
0.000187175
-0.00217608
0.000186052
-0.00230531
0.00018511
-0.00243325
0.000184323
-0.00255999
0.000183668
0.000183185
-0.00268569
-5.2269e-05
0.000122356
-0.000164197
0.000261466
-0.000305906
0.000331024
-0.000459562
0.000359331
-0.00061585
0.000366184
-0.000770619
0.000363513
-0.000922397
0.000357489
-0.0010709
0.000350835
-0.00121626
0.000344543
-0.00135876
0.000338881
-0.00149866
0.000333857
-0.00163622
0.000329415
-0.00177165
0.000325487
-0.00190516
0.000322013
-0.00203693
0.000318944
-0.00216712
0.000316239
-0.00229587
0.000313863
-0.00242332
0.000311772
-0.00254958
0.000309924
0.000308376
-0.00267477
-5.15858e-05
0.000173942
-0.00016235
0.00037223
-0.000302856
0.00047153
-0.000455423
0.000511899
-0.000610751
0.000521512
-0.000764657
0.000517419
-0.000915635
0.000508467
-0.00106337
0.000498572
-0.001208
0.000489174
-0.00134978
0.00048066
-0.00148898
0.000473054
-0.00162584
0.000466274
-0.00176058
0.000460228
-0.0018934
0.000454832
-0.00202447
0.000450016
-0.00215396
0.000445724
-0.002282
0.000441906
-0.00240873
0.0004385
-0.00253425
0.000435446
0.000432815
-0.00265869
-5.06777e-05
0.00022462
-0.000159898
0.00048145
-0.00029881
0.000610442
-0.000449939
0.000663028
-0.000604003
0.000675576
-0.000756774
0.000670191
-0.000906701
0.000658394
-0.00105344
0.000645312
-0.00119711
0.00063284
-0.00133795
0.0006215
-0.00147622
0.000611327
-0.00161217
0.00060222
-0.001746
0.000594061
-0.00187791
0.000586743
-0.00200807
0.000580176
-0.00213663
0.000574287
-0.00226374
0.000569013
-0.00238952
0.000564278
-0.00251407
0.000560001
0.000556262
-0.00263752
-4.95467e-05
0.000274167
-0.000156843
0.000588747
-0.000293771
0.000747369
-0.000443111
0.000812368
-0.000595605
0.00082807
-0.000746971
0.000821557
-0.0008956
0.000807023
-0.00104111
0.000790821
-0.00118359
0.000775321
-0.00132327
0.000761185
-0.00146041
0.000748465
-0.00159524
0.000737044
-0.00172796
0.000726779
-0.00185875
0.000717538
-0.00198779
0.000709213
-0.00211522
0.000701715
-0.00224117
0.00069497
-0.00236578
0.000688884
-0.00248914
0.000683358
0.00067848
-0.00261135
-4.81949e-05
0.000322362
-0.000153189
0.000693741
-0.000287738
0.000881919
-0.000434937
0.000959567
-0.000585556
0.000978689
-0.000735249
0.00097125
-0.000882336
0.00095411
-0.00102639
0.000934872
-0.00116746
0.000916398
-0.00130578
0.000899504
-0.00144158
0.000884266
-0.00157509
0.000870548
-0.00170649
0.000858185
-0.00183598
0.000847021
-0.00196369
0.00083693
-0.00208979
0.000827808
-0.00221438
0.000819568
-0.0023376
0.000812105
-0.00245955
0.000805301
0.00079924
-0.00258031
-4.66247e-05
0.000368986
-0.000148936
0.000796052
-0.000280714
0.0010137
-0.000425417
0.00110427
-0.000573854
0.00112713
-0.000721606
0.001119
-0.00086691
0.00109941
-0.00100928
0.00107724
-0.00114874
0.00105586
-0.0012855
0.00103626
-0.00141977
0.00101854
-0.00155176
0.00100254
-0.00168167
0.000988094
-0.00180966
0.000975009
-0.00193587
0.000963142
-0.00206044
0.000952377
-0.00218349
0.000942615
-0.00230513
0.000933742
-0.00242544
0.000925618
0.000918324
-0.00254453
-4.48387e-05
0.000413825
-0.000144089
0.000895302
-0.000272696
0.0011423
-0.000414546
0.00124612
-0.000560494
0.00127308
-0.000706037
0.00126454
-0.000849321
0.0012427
-0.000989792
0.00121771
-0.00112744
0.00119351
-0.00126244
0.00117126
-0.001395
0.00115109
-0.00152531
0.00113286
-0.00165356
0.00111634
-0.00177989
0.00110134
-0.00190443
0.00108769
-0.00202731
0.00107525
-0.00214863
0.00106394
-0.0022685
0.00105361
-0.002387
0.00104412
0.00103552
-0.0025042
-4.28397e-05
0.000456665
-0.000138648
0.00099111
-0.000263684
0.00126734
-0.000402317
0.00138475
-0.000545465
0.00141622
-0.000688533
0.00140761
-0.000829562
0.00138373
-0.000967924
0.00135607
-0.00110357
0.00132915
-0.00123663
0.00130432
-0.00136731
0.00128177
-0.00149579
0.00126134
-0.00162222
0.00124277
-0.00174674
0.00122586
-0.00186948
0.00121042
-0.00199052
0.0011963
-0.00210997
0.00118339
-0.00222791
0.00117155
-0.00234442
0.00116063
0.00115065
-0.00245955
-4.06307e-05
0.000497295
-0.000132615
0.00108309
-0.000253672
0.0013884
-0.00038872
0.0015198
-0.000528753
0.00155626
-0.000669077
0.00154794
-0.000807619
0.00152227
-0.000943667
0.00149212
-0.00107711
0.0014626
-0.00120808
0.00143529
-0.00133673
0.00141043
-0.00146323
0.00138784
-0.00158772
0.00136726
-0.00171033
0.00134846
-0.00183114
0.00133123
-0.00195024
0.0013154
-0.0020677
0.00130085
-0.00218359
0.00128745
-0.00229797
0.00127501
0.00126355
-0.00241087
-3.82146e-05
0.00053551
-0.000125992
0.00117087
-0.000242656
0.00150506
-0.000373742
0.00165089
-0.000510337
0.00169285
-0.000647647
0.00168525
-0.000783469
0.00165809
-0.000916998
0.00162565
-0.00104807
0.00159368
-0.00117678
0.00156399
-0.00130326
0.00153691
-0.00142767
0.00151225
-0.00155013
0.00148972
-0.00167073
0.00146906
-0.00178955
0.00145004
-0.00190664
0.00143249
-0.00202204
0.00141625
-0.00213581
0.00140121
-0.00224797
0.00138716
0.00137408
-0.0023585
-3.55949e-05
0.000571105
-0.00011878
0.00125406
-0.000230629
0.00161691
-0.000357365
0.00177762
-0.000490191
0.00182568
-0.000624208
0.00181926
-0.000757075
0.00179096
-0.000887884
0.00175646
-0.00101641
0.00172221
-0.00114271
0.00169029
-0.00126691
0.00166111
-0.00138913
0.00163447
-0.00150948
0.00161007
-0.00162803
0.00158762
-0.00174484
0.00156685
-0.00185991
0.00154756
-0.00197326
0.00152961
-0.00208489
0.00151285
-0.00219479
0.00149706
0.00148218
-0.0023029
-3.27756e-05
0.00060388
-0.00011098
0.00133226
-0.000217581
0.00172351
-0.000339567
0.00189961
-0.000468281
0.00195439
-0.000598718
0.0019497
-0.000728387
0.00192063
-0.000856271
0.00188434
-0.000982078
0.00184801
-0.00110582
0.00181404
-0.00122762
0.0017829
-0.00134757
0.00175442
-0.00146577
0.00172827
-0.00158228
0.00170412
-0.0016971
0.00168167
-0.00181023
0.00166069
-0.00192162
0.001641
-0.00203122
0.00162245
-0.00213894
0.00160478
0.00158788
-0.00224464
-2.97618e-05
0.000633642
-0.000102594
0.00140509
-0.000203504
0.00182442
-0.000320324
0.00201643
-0.000444567
0.00207863
-0.000571122
0.00207626
-0.000697341
0.00204685
-0.000822083
0.00200909
-0.000944986
0.00197092
-0.00106603
0.00193508
-0.00118531
0.00190218
-0.00130293
0.00187204
-0.00141896
0.00184431
-0.00153345
0.00181861
-0.0016464
0.00179462
-0.00175774
0.00177203
-0.00186739
0.00175065
-0.00197521
0.00173026
-0.00208099
0.00171056
0.00169134
-0.00218445
-2.65599e-05
0.000660202
-9.36284e-05
0.00147216
-0.000188392
0.00191918
-0.000299612
0.00212765
-0.000419006
0.00219803
-0.00054136
0.00219861
-0.000663858
0.00216934
-0.000785225
0.00213045
-0.000905025
0.00209072
-0.0010232
0.00205326
-0.00113983
0.00201881
-0.00125503
0.00198724
-0.00136888
0.00195816
-0.00148142
0.00193116
-0.00159265
0.00190584
-0.00170249
0.00188187
-0.00181081
0.00185897
-0.00191736
0.00183681
-0.00202175
0.00181495
0.00179298
-0.00212339
-2.31785e-05
0.00068338
-8.40916e-05
0.00153308
-0.000172243
0.00200734
-0.000277409
0.00223281
-0.000391553
0.00231217
-0.000509364
0.00231642
-0.000627847
0.00228783
-0.000745582
0.00224819
-0.000862047
0.00220718
-0.000977152
0.00216837
-0.00109098
0.00213263
-0.00120364
0.0020999
-0.00131526
0.00206978
-0.00142591
0.0020418
-0.0015356
0.00201553
-0.00164426
0.00199053
-0.00175175
0.00196646
-0.00185781
0.00194288
-0.00196177
0.00191891
0.00189374
-0.00206254
-1.9629e-05
0.00070301
-7.39992e-05
0.00158745
-0.000155061
0.0020884
-0.0002537
0.00233145
-0.000362171
0.00242064
-0.000475071
0.00242932
-0.000589218
0.00240197
-0.000703034
0.002362
-0.000815904
0.00232005
-0.000927701
0.00228016
-0.00103851
0.00224344
-0.00114848
0.00220987
-0.00125778
0.00217908
-0.00136655
0.00215058
-0.0014749
0.00212387
-0.00158284
0.00209847
-0.00169037
0.00207399
-0.00179744
0.00204995
-0.00190333
0.0020248
0.00199498
-0.00200456
-1.59265e-05
0.000718936
-6.33748e-05
0.00163489
-0.000136862
0.00216188
-0.000228482
0.00242307
-0.000330829
0.00252299
-0.000438423
0.00253692
-0.000547881
0.00251143
-0.000657446
0.00247157
-0.00076639
0.002429
-0.000874531
0.0023883
-0.00098194
0.00235085
-0.00108879
0.00231672
-0.0011953
0.00228558
-0.0013017
0.00225698
-0.00140826
0.00223044
-0.0015152
0.00220541
-0.00162259
0.00218138
-0.00173064
0.002158
-0.00184003
0.00213418
0.00210274
-0.00194779
-1.20898e-05
0.000731026
-5.22521e-05
0.00167506
-0.000117678
0.00222731
-0.00020177
0.00250717
-0.00029752
0.00261874
-0.000399387
0.00263878
-0.000503775
0.00261582
-0.000608732
0.00257653
-0.000713395
0.00253366
-0.000817526
0.00249243
-0.000921201
0.00245453
-0.00102466
0.00242019
-0.00112828
0.00238919
-0.00123252
0.00236123
-0.00133805
0.00233596
-0.00144569
0.00231306
-0.0015563
0.00229198
-0.00167021
0.00227192
-0.00178841
0.00225238
0.00224515
-0.00193082
-8.15459e-06
0.00073918
-4.06966e-05
0.0017076
-9.75822e-05
0.0022842
-0.000173626
0.00258321
-0.000262286
0.0027074
-0.000357981
0.00273448
-0.000456898
0.00271474
-0.000556856
0.00267648
-0.000656831
0.00263364
-0.000756487
0.00259209
-0.000855842
0.00255388
-0.000955094
0.00251944
-0.00105452
0.00248862
-0.00115443
0.00246114