/*--------------------------------*- C++ -*----------------------------------*\
  =========                 |
  \\      /  F ield         | OpenFOAM: The Open Source CFD Toolbox
   \\    /   O peration     | Website:  https://openfoam.org
    \\  /    A nd           | Version:  6.0
     \\/     M anipulation  |
\*---------------------------------------------------------------------------*/
FoamFile
{
    version     2.0;
    format      ascii;
    class       volScalarField;
    location    "1";
    object      p;
}
// * * * * * * * * * * * * * * * * * * * * * * * * * * * * * * * * * * * * * //

dimensions      [0 2 -2 0 0 0 0];

internalField   nonuniform List<scalar> 
8000
(
-0.229746
-0.238143
-0.241186
-0.24127
-0.23917
-0.234404
-0.226556
-0.215456
-0.201192
-0.184112
-0.164774
-0.143874
-0.122173
-0.100433
-0.0793595
-0.0595781
-0.0416039
-0.025757
-0.0121778
-0.0019477
-0.233588
-0.241757
-0.244735
-0.244853
-0.242851
-0.238235
-0.230572
-0.219667
-0.205592
-0.188675
-0.16946
-0.148633
-0.126953
-0.105178
-0.0840152
-0.0640896
-0.0459164
-0.0298143
-0.0159142
-0.00532661
-0.241099
-0.248819
-0.251668
-0.251847
-0.250032
-0.245706
-0.2384
-0.227878
-0.21417
-0.197571
-0.178597
-0.157917
-0.136278
-0.114436
-0.0930996
-0.0728947
-0.0543379
-0.0377462
-0.0232352
-0.011965
-0.251968
-0.259038
-0.261691
-0.261947
-0.260394
-0.256478
-0.24968
-0.239707
-0.226528
-0.210387
-0.19176
-0.171289
-0.149709
-0.12777
-0.106183
-0.0855782
-0.0664763
-0.0491962
-0.0338365
-0.0216142
-0.26576
-0.272006
-0.274397
-0.274733
-0.273491
-0.270078
-0.263913
-0.254626
-0.242112
-0.226548
-0.208358
-0.188151
-0.166642
-0.144578
-0.122676
-0.101572
-0.0817959
-0.0636757
-0.0472965
-0.0339252
-0.281958
-0.287237
-0.289301
-0.289702
-0.288794
-0.285945
-0.280502
-0.272005
-0.260262
-0.245369
-0.227688
-0.207787
-0.186359
-0.164149
-0.141881
-0.120205
-0.0996653
-0.0806068
-0.0631101
-0.0484727
-0.299997
-0.304206
-0.305879
-0.306311
-0.305732
-0.303472
-0.298802
-0.291164
-0.280264
-0.266107
-0.248986
-0.22942
-0.208081
-0.185711
-0.163045
-0.140754
-0.119404
-0.0993641
-0.0807229
-0.0647817
-0.319311
-0.322386
-0.323607
-0.32402
-0.323738
-0.322056
-0.318171
-0.31142
-0.301399
-0.288016
-0.271482
-0.252267
-0.23102
-0.208482
-0.185407
-0.16249
-0.140324
-0.119313
-0.0995648
-0.0823555
-0.339368
-0.341284
-0.342
-0.34233
-0.342287
-0.34114
-0.338015
-0.33214
-0.322998
-0.310389
-0.294444
-0.275579
-0.254422
-0.231717
-0.208239
-0.184713
-0.161767
-0.139844
-0.119081
-0.100703
-0.359707
-0.360476
-0.36064
-0.360816
-0.360933
-0.36025
-0.357824
-0.352777
-0.344474
-0.332607
-0.317223
-0.298688
-0.27761
-0.254741
-0.230882
-0.206793
-0.183138
-0.160401
-0.13876
-0.119365
-0.379956
-0.379622
-0.379199
-0.379146
-0.379334
-0.37902
-0.377202
-0.3729
-0.365358
-0.354165
-0.339285
-0.321036
-0.300013
-0.276983
-0.252775
-0.228189
-0.203925
-0.180506
-0.158155
-0.13793
-0.399848
-0.39848
-0.397446
-0.397093
-0.397257
-0.397206
-0.395882
-0.392208
-0.385317
-0.374692
-0.360224
-0.342192
-0.321185
-0.297992
-0.273475
-0.248473
-0.223719
-0.199772
-0.176896
-0.15605
-0.419223
-0.416906
-0.415253
-0.414539
-0.414588
-0.414684
-0.413724
-0.410537
-0.404149
-0.39395
-0.379769
-0.361858
-0.340812
-0.317446
-0.292661
-0.267331
-0.242217
-0.217905
-0.194695
-0.173441
-0.438024
-0.434851
-0.432583
-0.431462
-0.431315
-0.431445
-0.430705
-0.427839
-0.421777
-0.411829
-0.397777
-0.379863
-0.358703
-0.335146
-0.31013
-0.28456
-0.259217
-0.234702
-0.211341
-0.189884
-0.456283
-0.452347
-0.449481
-0.447922
-0.447511
-0.447565
-0.446895
-0.444166
-0.438224
-0.428319
-0.414209
-0.396147
-0.374782
-0.351004
-0.325787
-0.300058
-0.274608
-0.250038
-0.226687
-0.205209
-0.474103
-0.469489
-0.46605
-0.464042
-0.463313
-0.463187
-0.462431
-0.459635
-0.453582
-0.443486
-0.429107
-0.410733
-0.38906
-0.365023
-0.339626
-0.313809
-0.288357
-0.263859
-0.240654
-0.219299
-0.491637
-0.486416
-0.482439
-0.479982
-0.478894
-0.478488
-0.47748
-0.474399
-0.467983
-0.45744
-0.442566
-0.423704
-0.401612
-0.37727
-0.351704
-0.325853
-0.300485
-0.276169
-0.253222
-0.232099
-0.509067
-0.503293
-0.498814
-0.495919
-0.494438
-0.49365
-0.492217
-0.488616
-0.481568
-0.470313
-0.454711
-0.435185
-0.412561
-0.387858
-0.362114
-0.336249
-0.311011
-0.286939
-0.264315
-0.243525
-0.52658
-0.52029
-0.515345
-0.512028
-0.510119
-0.508842
-0.506797
-0.502428
-0.494472
-0.482236
-0.46568
-0.445325
-0.422063
-0.396943
-0.37099
-0.34509
-0.319942
-0.296034
-0.273615
-0.253247
-0.544356
-0.537569
-0.532189
-0.528463
-0.526084
-0.524196
-0.521339
-0.515944
-0.506802
-0.49333
-0.475615
-0.454286
-0.4303
-0.404718
-0.378532
-0.352567
-0.327434
-0.303497
-0.280964
-0.26094
-0.562547
-0.555267
-0.549478
-0.545347
-0.542441
-0.539804
-0.535919
-0.529234
-0.518638
-0.503695
-0.484645
-0.46223
-0.437461
-0.411396
-0.384977
-0.358954
-0.333852
-0.309956
-0.287594
-0.267652
-0.581272
-0.573492
-0.567309
-0.562763
-0.559252
-0.555707
-0.550565
-0.542328
-0.530027
-0.513411
-0.492887
-0.469308
-0.443725
-0.417171
-0.390528
-0.364465
-0.339435
-0.315699
-0.293593
-0.273498
-0.600608
-0.592312
-0.585739
-0.58075
-0.576535
-0.5719
-0.56526
-0.555216
-0.540987
-0.522533
-0.500437
-0.475651
-0.449246
-0.422213
-0.395358
-0.369265
-0.344307
-0.320685
-0.298646
-0.278346
-0.620586
-0.611756
-0.604787
-0.599305
-0.594257
-0.588329
-0.579947
-0.567857
-0.551508
-0.531094
-0.507368
-0.481363
-0.454148
-0.426657
-0.399608
-0.373499
-0.348627
-0.325136
-0.303219
-0.282935
-0.641194
-0.631809
-0.624428
-0.618379
-0.612346
-0.604903
-0.594533
-0.580181
-0.561559
-0.539104
-0.513726
-0.486517
-0.458521
-0.430596
-0.403371
-0.377255
-0.352473
-0.329114
-0.307328
-0.287093
-0.662374
-0.65242
-0.644595
-0.637885
-0.630686
-0.621493
-0.608899
-0.592095
-0.571087
-0.546551
-0.519532
-0.491154
-0.462413
-0.434084
-0.4067
-0.380585
-0.355896
-0.332677
-0.311042
-0.290905
-0.68403
-0.673494
-0.665186
-0.657693
-0.649127
-0.637943
-0.622901
-0.60349
-0.580023
-0.553402
-0.524779
-0.495282
-0.465841
-0.437137
-0.409608
-0.383495
-0.358895
-0.335813
-0.314323
-0.294292
-0.706026
-0.694903
-0.686058
-0.677641
-0.667487
-0.654069
-0.636379
-0.614242
-0.588282
-0.559605
-0.529438
-0.498883
-0.46879
-0.439739
-0.412076
-0.385966
-0.36145
-0.338497
-0.317147
-0.297227
-0.728189
-0.716481
-0.707034
-0.69753
-0.685557
-0.66967
-0.649159
-0.624216
-0.595769
-0.565093
-0.533458
-0.501914
-0.471218
-0.44185
-0.414063
-0.387954
-0.363514
-0.340681
-0.31946
-0.299652
-0.750315
-0.738028
-0.727905
-0.717132
-0.703102
-0.684528
-0.661059
-0.633271
-0.602377
-0.569785
-0.536771
-0.504314
-0.473068
-0.44341
-0.41551
-0.389402
-0.365032
-0.342311
-0.321209
-0.301513
-0.772168
-0.759316
-0.748428
-0.736195
-0.719872
-0.698418
-0.671892
-0.641263
-0.607995
-0.573591
-0.5393
-0.50601
-0.474267
-0.444349
-0.41635
-0.390244
-0.36594
-0.343325
-0.322335
-0.302753
-0.793488
-0.780087
-0.768338
-0.754442
-0.735604
-0.711109
-0.681473
-0.648047
-0.61251
-0.576416
-0.540957
-0.506918
-0.474735
-0.444591
-0.416508
-0.390411
-0.366174
-0.343661
-0.322779
-0.303314
-0.813989
-0.800061
-0.787344
-0.771584
-0.750028
-0.722372
-0.68962
-0.653481
-0.615805
-0.578158
-0.54165
-0.50695
-0.474386
-0.444054
-0.415909
-0.38983
-0.365665
-0.343256
-0.322481
-0.303141
-0.833368
-0.818935
-0.805141
-0.787321
-0.762873
-0.731984
-0.696155
-0.657425
-0.617767
-0.578717
-0.541283
-0.506015
-0.473135
-0.442656
-0.414474
-0.38843
-0.364348
-0.34205
-0.321385
-0.302182
-0.851308
-0.836395
-0.821411
-0.80135
-0.773875
-0.739729
-0.700912
-0.659748
-0.618283
-0.577991
-0.539761
-0.504022
-0.470894
-0.440314
-0.412128
-0.386143
-0.362159
-0.339984
-0.319438
-0.300387
-0.867484
-0.852116
-0.835831
-0.813369
-0.782778
-0.745406
-0.703735
-0.660324
-0.617244
-0.57588
-0.53699
-0.50088
-0.467577
-0.436949
-0.408797
-0.382899
-0.359037
-0.337002
-0.316588
-0.29771
-0.881566
-0.86577
-0.848082
-0.82309
-0.789342
-0.748827
-0.704478
-0.659034
-0.614548
-0.572288
-0.532876
-0.4965
-0.463099
-0.432482
-0.404409
-0.378633
-0.354923
-0.33305
-0.312788
-0.294109
-0.89323
-0.877034
-0.857851
-0.830237
-0.793344
-0.749822
-0.703009
-0.655769
-0.610095
-0.56712
-0.527329
-0.490796
-0.45738
-0.426838
-0.398895
-0.373284
-0.34976
-0.32808
-0.307994
-0.289547
-0.902159
-0.885592
-0.864841
-0.834555
-0.794585
-0.74824
-0.69921
-0.650428
-0.603793
-0.56029
-0.520264
-0.483687
-0.450344
-0.419946
-0.392191
-0.366794
-0.343498
-0.322044
-0.302166
-0.28399
-0.908053
-0.891148
-0.868777
-0.835812
-0.792888
-0.743949
-0.692977
-0.642923
-0.595559
-0.551714
-0.511602
-0.475097
-0.44192
-0.411743
-0.384239
-0.35911
-0.336089
-0.314902
-0.295269
-0.277409
-0.910632
-0.893425
-0.869407
-0.833809
-0.788103
-0.736838
-0.684223
-0.633173
-0.585316
-0.541321
-0.501272
-0.464958
-0.432045
-0.402169
-0.374986
-0.350186
-0.327494
-0.306618
-0.287275
-0.26978
-0.909638
-0.892171
-0.86651
-0.828371
-0.780107
-0.726817
-0.672875
-0.621116
-0.573003
-0.529047
-0.489214
-0.453214
-0.420666
-0.391179
-0.364391
-0.339985
-0.31768
-0.297168
-0.278162
-0.261087
-0.90485
-0.887171
-0.859903
-0.819364
-0.768807
-0.713822
-0.65888
-0.606699
-0.558567
-0.514841
-0.475378
-0.439818
-0.407741
-0.378733
-0.352421
-0.328481
-0.306626
-0.286534
-0.267921
-0.251323
-0.896079
-0.878245
-0.849436
-0.806684
-0.754138
-0.69781
-0.642203
-0.589889
-0.541974
-0.498668
-0.459728
-0.424738
-0.393241
-0.364808
-0.339056
-0.315658
-0.294321
-0.274709
-0.256549
-0.24049
-0.883178
-0.865251
-0.835002
-0.790268
-0.736068
-0.678762
-0.622828
-0.570668
-0.523203
-0.480505
-0.442244
-0.407953
-0.37715
-0.349391
-0.324288
-0.301512
-0.280766
-0.2617
-0.244057
-0.228601
-0.866038
-0.848092
-0.816537
-0.770086
-0.714594
-0.656685
-0.600763
-0.549037
-0.50225
-0.460347
-0.42292
-0.389461
-0.359467
-0.332485
-0.308123
-0.286053
-0.265974
-0.247523
-0.230466
-0.215679
-0.8446
-0.826714
-0.794017
-0.746149
-0.689743
-0.631611
-0.576034
-0.525017
-0.479132
-0.438206
-0.401767
-0.369272
-0.340204
-0.314104
-0.290579
-0.269302
-0.249969
-0.232207
-0.215809
-0.201756
-0.818847
-0.801112
-0.767463
-0.718504
-0.661574
-0.603597
-0.548689
-0.498648
-0.45388
-0.41411
-0.378811
-0.347413
-0.319389
-0.294278
-0.271687
-0.251293
-0.232788
-0.215791
-0.200128
-0.186874
-0.78881
-0.771324
-0.73694
-0.687235
-0.630178
-0.572725
-0.518801
-0.469991
-0.426548
-0.388106
-0.354095
-0.323925
-0.297063
-0.273047
-0.251489
-0.232069
-0.214476
-0.198325
-0.183475
-0.171086
-0.75457
-0.737439
-0.702555
-0.652463
-0.595672
-0.539104
-0.486462
-0.439125
-0.397204
-0.360257
-0.327676
-0.298861
-0.273276
-0.250463
-0.230037
-0.211684
-0.19509
-0.179868
-0.165912
-0.154451
-0.716254
-0.699589
-0.664456
-0.614343
-0.558204
-0.502864
-0.451787
-0.40615
-0.365937
-0.33064
-0.299627
-0.27229
-0.248094
-0.226587
-0.207392
-0.190198
-0.174693
-0.160487
-0.147509
-0.137042
-0.674034
-0.657951
-0.622831
-0.573062
-0.51795
-0.464163
-0.414914
-0.371186
-0.332852
-0.299351
-0.270032
-0.244287
-0.221587
-0.201488
-0.18362
-0.167679
-0.153353
-0.140255
-0.128346
-0.11894
-0.628128
-0.612745
-0.577907
-0.528842
-0.475112
-0.42318
-0.375999
-0.334372
-0.298071
-0.266496
-0.238987
-0.21494
-0.193835
-0.175238
-0.15879
-0.144193
-0.131138
-0.119245
-0.108505
-0.100228
-0.578796
-0.564233
-0.529943
-0.481931
-0.429917
-0.380117
-0.335222
-0.295864
-0.261733
-0.2322
-0.206601
-0.184343
-0.16492
-0.14791
-0.132967
-0.119802
-0.10811
-0.0975273
-0.0880602
-0.0809746
-0.526337
-0.512712
-0.479235
-0.432607
-0.382618
-0.335199
-0.29278
-0.255839
-0.223995
-0.196598
-0.172992
-0.152597
-0.134925
-0.119572
-0.106205
-0.0945488
-0.0843088
-0.0751394
-0.06705
-0.0612056
-0.471087
-0.458512
-0.426104
-0.381172
-0.333489
-0.288671
-0.248894
-0.214493
-0.18503
-0.159846
-0.138294
-0.119816
-0.103944
-0.0902942
-0.0785557
-0.0684649
-0.0597456
-0.0520821
-0.0454785
-0.0409584
-0.413413
-0.401996
-0.370899
-0.327951
-0.282824
-0.240799
-0.203801
-0.172041
-0.145032
-0.122113
-0.102657
-0.0861263
-0.0720811
-0.0601647
-0.0500895
-0.0416085
-0.0344689
-0.0284146
-0.0234778
-0.0205019
-0.353708
-0.343549
-0.313992
-0.273287
-0.230937
-0.191865
-0.15776
-0.128716
-0.104211
-0.083588
-0.0662395
-0.0516575
-0.039434
-0.0292498
-0.0208517
-0.0140164
-0.00853959
-0.00430876
-0.00145923
-0.000440893
-0.292389
-0.28358
-0.25577
-0.21754
-0.178156
-0.142172
-0.111048
-0.0847755
-0.0628037
-0.0444814
-0.0292219
-0.0165434
-0.00607077
0.00247416
0.00930408
0.0146053
0.0184665
0.0206749
0.0208905
0.0195893
-0.229892
-0.222512
-0.196635
-0.161083
-0.124823
-0.0920344
-0.06396
-0.0404993
-0.0210779
-0.00505124
0.00815247
0.0189995
0.0278499
0.0349691
0.0405725
0.0448554
0.0477755
0.0486519
0.0469675
0.0446023
-0.166663
-0.160779
-0.136999
-0.104295
-0.0712858
-0.0417764
-0.0168022
0.00381729
0.020673
0.034401
0.0455594
0.0546051
0.0618993
0.0677315
0.0723861
0.0761679
0.0790553
0.0800796
0.0790373
0.083963
-0.103149
-0.0988164
-0.077272
-0.0475553
-0.0178959
0.00827639
0.030118
0.0478781
0.0621572
0.0735774
0.0826775
0.0898969
0.0955861
0.100037
0.103542
0.106383
0.108529
0.109452
0.110043
0.116608
-0.0398046
-0.0370662
-0.0178687
0.00875518
0.0349989
0.0578017
0.0764978
0.091395
0.103096
0.112207
0.119243
0.124626
0.128693
0.131727
0.134002
0.13575
0.136927
0.137184
0.137475
0.142788
0.0229184
0.0240358
0.0408035
0.0642634
0.0870574
0.106485
0.122044
0.13409
0.143223
0.150026
0.154991
0.158515
0.160916
0.162461
0.1634
0.163938
0.164043
0.163447
0.162976
0.166684
0.0845762
0.0840607
0.0983451
0.118605
0.137948
0.154023
0.166476
0.175703
0.182295
0.186811
0.189714
0.191376
0.192093
0.192107
0.191641
0.190871
0.189753
0.188061
0.186575
0.188785
0.144735
0.142591
0.154368
0.171427
0.187352
0.200124
0.209528
0.215989
0.220086
0.22235
0.223219
0.223036
0.222073
0.22055
0.218665
0.216565
0.214195
0.211358
0.208803
0.209566
0.202976
0.199221
0.208498
0.222391
0.234962
0.24451
0.250945
0.254715
0.256383
0.256454
0.255335
0.253345
0.250729
0.247687
0.244393
0.240968
0.23735
0.233375
0.229763
0.229149
0.258893
0.253564
0.260377
0.271173
0.280486
0.286918
0.290489
0.291665
0.290991
0.288945
0.285906
0.282166
0.277948
0.273431
0.268767
0.264056
0.259233
0.254163
0.249526
0.247597
0.312104
0.305251
0.309665
0.317465
0.323648
0.327098
0.327932
0.326632
0.323723
0.319655
0.31478
0.309367
0.303616
0.297686
0.291711
0.28577
0.279801
0.273696
0.268082
0.264903
0.362244
0.353933
0.356041
0.360979
0.364188
0.364814
0.363062
0.359423
0.354403
0.348426
0.341817
0.334822
0.327622
0.320357
0.313143
0.306045
0.299003
0.291931
0.285392
0.28103
0.408972
0.399283
0.399204
0.401443
0.401862
0.399845
0.395678
0.389856
0.382866
0.375107
0.36688
0.358408
0.349856
0.341347
0.332979
0.324804
0.316769
0.308803
0.301399
0.295929
0.451971
0.440999
0.438878
0.438608
0.436444
0.431989
0.425595
0.417762
0.408958
0.399558
0.389841
0.380011
0.370214
0.36056
0.35113
0.341969
0.333026
0.324244
0.316041
0.309542
0.490951
0.478803
0.474808
0.472243
0.467726
0.461055
0.452642
0.442984
0.432536
0.421647
0.410579
0.399518
0.388594
0.377902
0.367513
0.357459
0.347698
0.338181
0.32925
0.321811
0.525651
0.512447
0.506764
0.502142
0.495523
0.486876
0.476662
0.465381
0.453467
0.441255
0.428985
0.416827
0.404901
0.393287
0.382044
0.371199
0.360714
0.350546
0.340963
0.332678
0.555837
0.541706
0.534542
0.52812
0.519667
0.509298
0.497517
0.484823
0.471636
0.458272
0.444956
0.431847
0.419048
0.406633
0.39465
0.383118
0.372005
0.361274
0.351119
0.342095
0.581308
0.56639
0.557966
0.550018
0.540013
0.52819
0.515087
0.501201
0.486939
0.472604
0.458407
0.444494
0.430961
0.417871
0.405263
0.393152
0.381513
0.370306
0.359668
0.350013
0.601892
0.586335
0.576888
0.567701
0.556439
0.54344
0.529268
0.514419
0.499289
0.484169
0.46926
0.454699
0.440572
0.426937
0.413825
0.401248
0.389183
0.377594
0.366562
0.356395
0.617453
0.60141
0.591186
0.581061
0.568848
0.554959
0.539979
0.524401
0.508616
0.492903
0.477456
0.462404
0.44783
0.433782
0.420289
0.40736
0.394975
0.383097
0.371766
0.36121
0.627887
0.611517
0.60077
0.590014
0.577163
0.562677
0.547155
0.53109
0.514864
0.498754
0.482947
0.467566
0.452691
0.438368
0.42462
0.411455
0.398855
0.386783
0.375251
0.364433
0.633123
0.61659
0.605579
0.594507
0.581335
0.566549
0.550756
0.534446
0.517999
0.50169
0.485701
0.470156
0.455131
0.440669
0.426793
0.413509
0.400802
0.388633
0.376999
0.36605
0.633128
0.616594
0.605583
0.594511
0.581338
0.566553
0.550759
0.534449
0.518003
0.501693
0.485704
0.470159
0.455133
0.440671
0.426795
0.413512
0.400804
0.388635
0.377002
0.366052
0.6279
0.61153
0.600782
0.590026
0.577174
0.562688
0.547166
0.5311
0.514874
0.498763
0.482955
0.467575
0.4527
0.438376
0.424628
0.411462
0.398862
0.38679
0.375258
0.36444
0.617475
0.601432
0.591207
0.581081
0.568867
0.554977
0.539996
0.524418
0.508631
0.492918
0.47747
0.462418
0.447843
0.433795
0.420302
0.407372
0.394987
0.383108
0.371777
0.361221
0.601923
0.586365
0.576917
0.567729
0.556466
0.543465
0.529292
0.514442
0.499311
0.48419
0.469281
0.454718
0.440591
0.426955
0.413843
0.401265
0.3892
0.37761
0.366578
0.356411
0.581348
0.566429
0.558004
0.550054
0.540047
0.528222
0.515118
0.50123
0.486967
0.472631
0.458433
0.444519
0.430985
0.417894
0.405285
0.393174
0.381534
0.370327
0.359688
0.350033
0.555886
0.541754
0.534588
0.528164
0.519709
0.509337
0.497555
0.484859
0.471671
0.458305
0.444989
0.431878
0.419078
0.406662
0.394678
0.383145
0.372032
0.361299
0.351144
0.342118
0.525709
0.512503
0.506818
0.502194
0.495572
0.486923
0.476707
0.465423
0.453508
0.441294
0.429023
0.416864
0.404936
0.393321
0.382077
0.371231
0.360745
0.350576
0.340992
0.332707
0.491018
0.478869
0.474871
0.472303
0.467784
0.46111
0.452693
0.443034
0.432583
0.421693
0.410623
0.39956
0.388634
0.377941
0.367551
0.357496
0.347734
0.338216
0.329284
0.321843
0.452046
0.441073
0.43895
0.438676
0.436508
0.43205
0.425654
0.417818
0.409012
0.39961
0.389891
0.380059
0.37026
0.360604
0.351174
0.342011
0.333066
0.324283
0.316079
0.309579
0.409057
0.399366
0.399285
0.401519
0.401934
0.399914
0.395744
0.389919
0.382927
0.375165
0.366936
0.358462
0.349908
0.341397
0.333027
0.324851
0.316814
0.308847
0.301443
0.295971
0.362338
0.354025
0.356129
0.361063
0.364268
0.36489
0.363135
0.359492
0.35447
0.34849
0.341879
0.334881
0.327679
0.320412
0.313197
0.306097
0.299053
0.29198
0.285439
0.281076
0.312208
0.305353
0.309762
0.317558
0.323736
0.327181
0.328012
0.326708
0.323796
0.319725
0.314848
0.309432
0.303679
0.297747
0.291769
0.285827
0.279856
0.27375
0.268134
0.264953
0.259006
0.253675
0.260483
0.271274
0.280582
0.287009
0.290576
0.291748
0.291071
0.289022
0.28598
0.282237
0.278017
0.273497
0.268831
0.264118
0.259293
0.254221
0.249583
0.247652
0.203098
0.199341
0.208613
0.2225
0.235065
0.244609
0.251039
0.254805
0.25647
0.256537
0.255415
0.253422
0.250804
0.247759
0.244462
0.241035
0.237415
0.233439
0.229825
0.229209
0.144867
0.142719
0.154492
0.171545
0.187463
0.20023
0.209629
0.216085
0.220178
0.222439
0.223305
0.223119
0.222153
0.220627
0.21874
0.216637
0.214265
0.211426
0.20887
0.20963
0.0847173
0.0841988
0.0984775
0.118731
0.138068
0.154136
0.166585
0.175807
0.182395
0.186906
0.189806
0.191465
0.192178
0.192189
0.191721
0.190948
0.189828
0.188134
0.186646
0.188854
0.023069
0.0241832
0.0409449
0.0643977
0.0871849
0.106606
0.122159
0.134201
0.143329
0.150128
0.155089
0.15861
0.161008
0.162549
0.163485
0.16402
0.164123
0.163525
0.163052
0.166758
-0.0396444
-0.0369094
-0.0177183
0.00889807
0.0351345
0.0579305
0.0766207
0.0915124
0.103209
0.112315
0.119347
0.124727
0.12879
0.131821
0.134093
0.135838
0.137013
0.137268
0.137557
0.142866
-0.102979
-0.0986502
-0.0771125
-0.0474038
-0.0177522
0.00841302
0.0302482
0.0480026
0.0622765
0.0736921
0.082788
0.0900035
0.095689
0.100136
0.103638
0.106476
0.108619
0.10954
0.11013
0.116691
-0.166484
-0.160603
-0.13683
-0.104134
-0.0711337
-0.0416319
-0.0166645
0.00394883
0.0207991
0.0345223
0.0456762
0.0547177
0.0620081
0.0678368
0.0724881
0.0762669
0.0791515
0.0801736
0.07913
0.0840532
-0.229703
-0.222327
-0.196458
-0.160914
-0.124662
-0.0918821
-0.0638149
-0.0403606
-0.020945
-0.00492346
0.00827555
0.0191182
0.0279646
0.0350802
0.0406803
0.0449603
0.0478777
0.0487519
0.0470661
0.0447004
-0.292191
-0.283386
-0.255583
-0.217362
-0.177987
-0.142012
-0.110895
-0.0846298
-0.062664
-0.0443471
-0.0290925
-0.0164186
-0.00595016
0.00259101
0.0094176
0.0147158
0.0185744
0.0207805
0.0209945
0.0196924
-0.3535
-0.343346
-0.313796
-0.2731
-0.23076
-0.191697
-0.1576
-0.128563
-0.104065
-0.0834473
-0.066104
-0.0515268
-0.0393076
-0.0291274
-0.0207328
-0.0139007
-0.00842672
-0.00419844
-0.00135092
-0.000333894
-0.413195
-0.401783
-0.370694
-0.327755
-0.282639
-0.240623
-0.203634
-0.171881
-0.144879
-0.121966
-0.102515
-0.0859897
-0.0719491
-0.0600369
-0.0499655
-0.0414878
-0.0343514
-0.0282998
-0.0233654
-0.0203911
-0.470861
-0.45829
-0.42589
-0.380968
-0.333296
-0.288487
-0.248719
-0.214327
-0.184871
-0.159692
-0.138147
-0.119673
-0.103806
-0.0901612
-0.0784267
-0.0683394
-0.0596236
-0.0519631
-0.045362
-0.0408438
-0.526102
-0.512481
-0.479012
-0.432395
-0.382417
-0.335007
-0.292598
-0.255666
-0.223829
-0.196438
-0.172838
-0.152449
-0.134782
-0.119434
-0.106071
-0.0944187
-0.0841823
-0.0750161
-0.0669294
-0.0610872
-0.578552
-0.563994
-0.529712
-0.48171
-0.429707
-0.379918
-0.335032
-0.295684
-0.261561
-0.232034
-0.206442
-0.18419
-0.164772
-0.147767
-0.132828
-0.119667
-0.10798
-0.0973998
-0.0879357
-0.0808526
-0.627875
-0.612498
-0.577667
-0.528613
-0.474893
-0.422972
-0.375802
-0.334185
-0.297892
-0.266325
-0.238823
-0.214781
-0.193682
-0.17509
-0.158646
-0.144054
-0.131003
-0.119114
-0.108377
-0.100103
-0.673773
-0.657695
-0.622583
-0.572825
-0.517723
-0.463948
-0.41471
-0.370992
-0.332666
-0.299173
-0.269862
-0.244123
-0.22143
-0.201335
-0.183472
-0.167536
-0.153214
-0.140119
-0.128214
-0.118811
-0.715985
-0.699324
-0.6642
-0.614097
-0.557969
-0.502641
-0.451576
-0.405949
-0.365745
-0.330457
-0.299452
-0.272121
-0.247931
-0.22643
-0.20724
-0.190051
-0.174551
-0.160348
-0.147374
-0.13691
-0.754293
-0.737166
-0.70229
-0.652208
-0.595428
-0.538873
-0.486243
-0.438917
-0.397006
-0.360068
-0.327496
-0.298688
-0.273109
-0.250301
-0.229881
-0.211533
-0.194944
-0.179726
-0.165773
-0.154316
-0.788525
-0.771043
-0.736667
-0.686972
-0.629926
-0.572487
-0.518574
-0.469776
-0.426344
-0.387912
-0.353909
-0.323746
-0.296891
-0.272881
-0.251329
-0.231914
-0.214326
-0.198179
-0.183333
-0.170947
-0.818553
-0.800822
-0.767181
-0.718231
-0.661314
-0.60335
-0.548455
-0.498427
-0.45367
-0.41391
-0.37862
-0.34723
-0.319214
-0.294109
-0.271524
-0.251135
-0.232634
-0.215642
-0.199983
-0.186733
-0.844298
-0.826416
-0.793726
-0.745867
-0.689474
-0.631356
-0.575793
-0.524789
-0.478916
-0.438001
-0.401571
-0.369085
-0.340025
-0.313932
-0.290413
-0.269141
-0.249813
-0.232055
-0.215662
-0.201612
-0.865729
-0.847786
-0.816237
-0.769796
-0.714316
-0.656422
-0.600515
-0.548803
-0.502029
-0.460137
-0.42272
-0.38927
-0.359284
-0.332309
-0.307954
-0.285889
-0.265815
-0.247369
-0.230317
-0.215533
-0.88286
-0.864937
-0.834694
-0.789968
-0.735781
-0.678491
-0.622573
-0.570427
-0.522976
-0.48029
-0.44204
-0.407758
-0.376964
-0.349213
-0.324116
-0.301346
-0.280605
-0.261544
-0.243905
-0.228454
-0.895754
-0.877923
-0.849119
-0.806376
-0.753843
-0.69753
-0.641939
-0.589641
-0.541742
-0.498448
-0.45952
-0.42454
-0.393052
-0.364627
-0.338882
-0.315489
-0.294158
-0.274551
-0.256395
-0.240341
-0.904517
-0.886842
-0.859578
-0.819047
-0.768502
-0.713534
-0.658609
-0.606445
-0.558329
-0.514617
-0.475166
-0.439617
-0.407549
-0.37855
-0.352245
-0.328311
-0.306461
-0.286374
-0.267766
-0.251173
-0.909298
-0.891834
-0.866177
-0.828045
-0.779793
-0.72652
-0.672596
-0.620855
-0.572759
-0.528818
-0.488999
-0.45301
-0.420472
-0.390993
-0.364213
-0.339814
-0.317514
-0.297008
-0.278007
-0.260936
-0.910285
-0.893081
-0.869066
-0.833474
-0.78778
-0.736531
-0.683936
-0.632906
-0.585067
-0.541088
-0.501054
-0.464752
-0.431848
-0.401982
-0.374807
-0.350014
-0.327327
-0.306458
-0.287119
-0.269629
-0.9077
-0.890797
-0.868428
-0.83547
-0.792556
-0.743634
-0.692682
-0.642648
-0.595304
-0.551477
-0.51138
-0.474888
-0.441722
-0.411555
-0.384059
-0.358937
-0.335923
-0.314741
-0.295114
-0.277259
-0.9018
-0.885235
-0.864486
-0.834204
-0.794245
-0.747917
-0.698907
-0.650147
-0.603533
-0.560048
-0.520039
-0.483476
-0.450145
-0.419758
-0.392011
-0.366621
-0.343332
-0.321883
-0.302011
-0.28384
-0.892866
-0.876671
-0.857489
-0.829879
-0.792996
-0.74949
-0.702698
-0.655481
-0.609829
-0.566875
-0.527101
-0.490584
-0.45718
-0.426648
-0.398715
-0.373112
-0.349595
-0.32792
-0.30784
-0.289398
-0.881196
-0.865402
-0.847714
-0.822725
-0.788985
-0.748487
-0.704159
-0.658739
-0.614277
-0.572038
-0.532645
-0.496286
-0.462898
-0.432292
-0.404229
-0.378461
-0.354758
-0.332892
-0.312636
-0.293962
-0.867109
-0.851743
-0.835458
-0.812998
-0.782414
-0.745058
-0.703409
-0.660022
-0.616968
-0.575626
-0.536757
-0.500665
-0.467375
-0.43676
-0.408618
-0.382728
-0.358874
-0.336845
-0.316437
-0.297564
-0.850929
-0.836017
-0.821033
-0.800973
-0.773505
-0.739374
-0.700578
-0.65944
-0.618
-0.577733
-0.539526
-0.503805
-0.470692
-0.440125
-0.41195
-0.385973
-0.361997
-0.339829
-0.319289
-0.300243
-0.832984
-0.818554
-0.804759
-0.78694
-0.762497
-0.731621
-0.695813
-0.657109
-0.617478
-0.578455
-0.541045
-0.505797
-0.472934
-0.442468
-0.414297
-0.388263
-0.364188
-0.341897
-0.321239
-0.302041
-0.813601
-0.799676
-0.786959
-0.771198
-0.749646
-0.722002
-0.68927
-0.653157
-0.61551
-0.577892
-0.541409
-0.506731
-0.474185
-0.443867
-0.415733
-0.389665
-0.365508
-0.343106
-0.322338
-0.303003
-0.793097
-0.779699
-0.767949
-0.754053
-0.735217
-0.710732
-0.681116
-0.647716
-0.612208
-0.576144
-0.540713
-0.506697
-0.474533
-0.444406
-0.416335
-0.390248
-0.36602
-0.343514
-0.322639
-0.303179
-0.771774
-0.758925
-0.748037
-0.735802
-0.71948
-0.698034
-0.671527
-0.640924
-0.607687
-0.573315
-0.539053
-0.505788
-0.474066
-0.444165
-0.416179
-0.390085
-0.36579
-0.343182
-0.322199
-0.302621
-0.749918
-0.737635
-0.727511
-0.716737
-0.702706
-0.684138
-0.660685
-0.632923
-0.60206
-0.569502
-0.53652
-0.504091
-0.472868
-0.443228
-0.415343
-0.389246
-0.364886
-0.342172
-0.321077
-0.301385
-0.72779
-0.716085
-0.706639
-0.697132
-0.685157
-0.669275
-0.648778
-0.62386
-0.595444
-0.564804
-0.533203
-0.501689
-0.471018
-0.44167
-0.413899
-0.387803
-0.363372
-0.340547
-0.319332
-0.299528
-0.705626
-0.694506
-0.685662
-0.677241
-0.667085
-0.653669
-0.635991
-0.613877
-0.58795
-0.559309
-0.529178
-0.498656
-0.46859
-0.439562
-0.411916
-0.38582
-0.361314
-0.338368
-0.317023
-0.297108
-0.683629
-0.673097
-0.664789
-0.657292
-0.648722
-0.637539
-0.622507
-0.603117
-0.579682
-0.553098
-0.524514
-0.495052
-0.465642
-0.436963
-0.409453
-0.383355
-0.358765
-0.33569
-0.314205
-0.294176
-0.661973
-0.652022
-0.644198
-0.637483
-0.630279
-0.621085
-0.608498
-0.591714
-0.570737
-0.546239
-0.519261
-0.490921
-0.462215
-0.433913
-0.406551
-0.380451
-0.355772
-0.33256
-0.310929
-0.290795
-0.640794
-0.631412
-0.62403
-0.617978
-0.611939
-0.604492
-0.594127
-0.579792
-0.5612
-0.538784
-0.513449
-0.486282
-0.458322
-0.430428
-0.403227
-0.377128
-0.352357
-0.329004
-0.307222
-0.286987
-0.620188
-0.61136
-0.604391
-0.598905
-0.59385
-0.587917
-0.579537
-0.567462
-0.551141
-0.530766
-0.507084
-0.481124
-0.45395
-0.426492
-0.399469
-0.373379
-0.348519
-0.325033
-0.303119
-0.282834
-0.600212
-0.591918
-0.585345
-0.580352
-0.576129
-0.571488
-0.564848
-0.554816
-0.540612
-0.522197
-0.500146
-0.475408
-0.449047
-0.422052
-0.395225
-0.369152
-0.344207
-0.320591
-0.298553
-0.278251
-0.580879
-0.573101
-0.566917
-0.562367
-0.558849
-0.555297
-0.550152
-0.541924
-0.529646
-0.513068
-0.49259
-0.469061
-0.443525
-0.417012
-0.3904
-0.36436
-0.339344
-0.315614
-0.293509
-0.27341
-0.562158
-0.55488
-0.54909
-0.544955
-0.542041
-0.539396
-0.535507
-0.528829
-0.518253
-0.503346
-0.484342
-0.461979
-0.43726
-0.411239
-0.384855
-0.358857
-0.33377
-0.309881
-0.28752
-0.267573
-0.543972
-0.537187
-0.531806
-0.528076
-0.525689
-0.523792
-0.52093
-0.515539
-0.506415
-0.492977
-0.475307
-0.454031
-0.430097
-0.404563
-0.378415
-0.352476
-0.327361
-0.303433
-0.280902
-0.260877
-0.526203
-0.519914
-0.514968
-0.511647
-0.50973
-0.508444
-0.506393
-0.502027
-0.494086
-0.481882
-0.46537
-0.445067
-0.421859
-0.396788
-0.370876
-0.345006
-0.319877
-0.295979
-0.273561
-0.253189
-0.508698
-0.502925
-0.498444
-0.495545
-0.494057
-0.493261
-0.491821
-0.488221
-0.481187
-0.46996
-0.4544
-0.434926
-0.412356
-0.387704
-0.362002
-0.33617
-0.310952
-0.28689
-0.264266
-0.243469
-0.491278
-0.486057
-0.482078
-0.479617
-0.478523
-0.478108
-0.477094
-0.474013
-0.467608
-0.457091
-0.442257
-0.423445
-0.401407
-0.377116
-0.351595
-0.325777
-0.300431
-0.276125
-0.253177
-0.232044
-0.473755
-0.469141
-0.465701
-0.463688
-0.462953
-0.462819
-0.462057
-0.459261
-0.453217
-0.443145
-0.428803
-0.410477
-0.388857
-0.364871
-0.33952
-0.313737
-0.288307
-0.26382
-0.240613
-0.219248
-0.455947
-0.452012
-0.449144
-0.447581
-0.447164
-0.447211
-0.446535
-0.443805
-0.437872
-0.427989
-0.413914
-0.395897
-0.374583
-0.350856
-0.325684
-0.299989
-0.274563
-0.250004
-0.226652
-0.205162
-0.437702
-0.43453
-0.432261
-0.431136
-0.430982
-0.431106
-0.430361
-0.427495
-0.421441
-0.411513
-0.397493
-0.379622
-0.358511
-0.335003
-0.310031
-0.284496
-0.259177
-0.234674
-0.211312
-0.189845
-0.418917
-0.416601
-0.414947
-0.414229
-0.414273
-0.414363
-0.413398
-0.410211
-0.403831
-0.393651
-0.3795
-0.361629
-0.340629
-0.317309
-0.292568
-0.267273
-0.242184
-0.217884
-0.194674
-0.173411
-0.399561
-0.398193
-0.397158
-0.396802
-0.396961
-0.396903
-0.395576
-0.391903
-0.385019
-0.374412
-0.359972
-0.341977
-0.321014
-0.297865
-0.27339
-0.248422
-0.223693
-0.199759
-0.176885
-0.156031
-0.37969
-0.379356
-0.378932
-0.378876
-0.379058
-0.378739
-0.376918
-0.372616
-0.365083
-0.353907
-0.339053
-0.320839
-0.299856
-0.276867
-0.252699
-0.228146
-0.203906
-0.180502
-0.158154
-0.137925
-0.359464
-0.360233
-0.360395
-0.360568
-0.36068
-0.359992
-0.357563
-0.352518
-0.344223
-0.332372
-0.317014
-0.298511
-0.277469
-0.254639
-0.230816
-0.206759
-0.183127