/*--------------------------------*- C++ -*----------------------------------*\
  =========                 |
  \\      /  F ield         | OpenFOAM: The Open Source CFD Toolbox
   \\    /   O peration     | Website:  https://openfoam.org
    \\  /    A nd           | Version:  6.0
     \\/     M anipulation  |
\*---------------------------------------------------------------------------*/
FoamFile
{
    version     2.0;
    format      ascii;
    class       volVectorField;
    location    "16";
    object      U;
}
// * * * * * * * * * * * * * * * * * * * * * * * * * * * * * * * * * * * * * //

dimensions      [0 1 -1 0 0 0 0];

internalField   nonuniform List<vector> 
12500
(
(-0.000345008 0.000379967 -8.59045e-22)
(-0.00199279 0.000957275 1.2301e-20)
(-0.00515832 0.00137878 -1.79494e-20)
(-0.00919739 0.00167896 8.28806e-21)
(-0.0137701 0.00188343 5.00012e-22)
(-0.0186705 0.00201265 -1.03133e-21)
(-0.0237366 0.00208388 -1.52996e-20)
(-0.0288495 0.0021115 8.43276e-21)
(-0.0339271 0.00210754 5.59572e-21)
(-0.0389157 0.00208204 5.70169e-21)
(-0.0437838 0.00204347 -9.68198e-21)
(-0.0485168 0.00199891 5.6473e-21)
(-0.0531133 0.00195437 -2.66655e-21)
(-0.0575817 0.00191489 4.53155e-21)
(-0.0619384 0.00188465 -1.15855e-20)
(-0.0662046 0.00186713 1.67758e-20)
(-0.0704057 0.00186511 -3.20122e-21)
(-0.074569 0.00188072 -1.19059e-20)
(-0.0787223 0.00191551 6.10787e-21)
(-0.0828939 0.00197044 -5.83995e-21)
(-0.0871171 0.00204585 5.23284e-21)
(-0.0914244 0.00214151 6.92776e-21)
(-0.0957867 0.00225761 7.08642e-22)
(-0.100101 0.00239525 -1.98719e-20)
(-0.104791 0.00254776 1.12012e-20)
(-0.000394042 0.00120518 1.56795e-20)
(-0.00211266 0.00307376 -4.20003e-20)
(-0.00532223 0.00447747 1.24623e-20)
(-0.00938513 0.0055155 8.37569e-21)
(-0.0139652 0.0062615 -6.70922e-21)
(-0.0188592 0.00677502 -3.83092e-20)
(-0.0239071 0.0071068 1.14364e-20)
(-0.0289913 0.0072998 -2.16886e-20)
(-0.0340309 0.00739035 2.60387e-20)
(-0.0389731 0.00740923 -3.48706e-20)
(-0.043787 0.00738263 1.86755e-20)
(-0.0484583 0.0073328 6.05436e-21)
(-0.052986 0.00727861 -1.52848e-20)
(-0.0573789 0.00723604 -6.77448e-21)
(-0.0616534 0.00721847 4.96481e-20)
(-0.0658312 0.00723693 -4.40154e-20)
(-0.0699379 0.00730025 1.05404e-20)
(-0.0740012 0.00741528 1.82692e-20)
(-0.0780494 0.00758694 -4.18612e-21)
(-0.0821113 0.0078183 2.95377e-20)
(-0.0862208 0.00811047 5.39676e-21)
(-0.0904112 0.00846286 -1.91116e-21)
(-0.0946536 0.00887601 -3.74247e-20)
(-0.0988441 0.00935318 3.45173e-20)
(-0.103407 0.00987419 -7.02679e-20)
(-0.000492224 0.00201897 5.02927e-20)
(-0.00235258 0.00516229 1.73467e-20)
(-0.00564959 0.00753616 -2.28828e-20)
(-0.00975909 0.00930269 9.88741e-21)
(-0.0143527 0.0105826 9.30136e-21)
(-0.0192323 0.0114738 3.54738e-20)
(-0.0242419 0.0120599 -4.52522e-20)
(-0.029267 0.0124122 -7.38848e-21)
(-0.0342291 0.0125909 -3.05307e-20)
(-0.039077 0.0126473 -2.55769e-20)
(-0.0437808 0.0126252 3.31211e-20)
(-0.0483273 0.0125618 -1.11172e-19)
(-0.0527161 0.012489 -3.48965e-21)
(-0.0569566 0.0124338 -6.70536e-20)
(-0.0610655 0.0124186 -7.92215e-21)
(-0.0650652 0.0124625 9.5541e-21)
(-0.0689818 0.0125804 -5.23699e-20)
(-0.0728438 0.0127843 -3.28242e-20)
(-0.0766805 0.0130826 -3.8927e-20)
(-0.0805215 0.0134809 6.10705e-20)
(-0.0844021 0.0139813 2.23838e-20)
(-0.088357 0.014583 -9.95259e-20)
(-0.0923584 0.0152871 -4.80257e-20)
(-0.0962998 0.0160993 -5.37906e-20)
(-0.100608 0.0169857 1.54748e-19)
(-0.000638259 0.0028137 -1.55845e-21)
(-0.00270993 0.00720398 -4.0106e-20)
(-0.00613758 0.0105277 -1.9391e-20)
(-0.0103169 0.013007 1.20876e-20)
(-0.0149309 0.0148079 7.56826e-20)
(-0.0197892 0.0160656 -3.43043e-20)
(-0.0247419 0.0168959 7.34619e-20)
(-0.0296792 0.0173973 7.02524e-20)
(-0.0345258 0.0176537 4.29227e-20)
(-0.0392333 0.0177364 -6.53312e-22)
(-0.0437736 0.0177065 8.70935e-20)
(-0.0481347 0.0176162 1.51209e-20)
(-0.0523171 0.01751 6.68252e-20)
(-0.0563309 0.017426 1.54018e-19)
(-0.0601938 0.0173964 -1.79074e-19)
(-0.0639286 0.0174479 2.69827e-19)
(-0.0675625 0.0176024 5.88516e-20)
(-0.0711251 0.0178772 -1.3e-19)
(-0.0746469 0.0182849 -1.84989e-20)
(-0.0781592 0.0188339 4.74166e-20)
(-0.081699 0.019528 -2.38266e-20)
(-0.0853036 0.0203663 -1.43001e-20)
(-0.0889467 0.0213509 -1.39624e-20)
(-0.0925185 0.0224907 -5.62593e-20)
(-0.0964501 0.0237375 2.10219e-19)
(-0.000830272 0.00358246 2.62124e-20)
(-0.00318081 0.00918148 -1.26361e-19)
(-0.00678197 0.0134268 1.54288e-19)
(-0.0110548 0.0165969 -6.17946e-20)
(-0.0156972 0.018901 7.43886e-20)
(-0.0205288 0.0205098 6.10125e-20)
(-0.0254078 0.0215701 2.32744e-20)
(-0.0302306 0.0222069 1.15102e-21)
(-0.0349265 0.0225267 1.32064e-19)
(-0.0394505 0.0226204 9.17458e-20)
(-0.0437768 0.0225659 -3.69073e-20)
(-0.0478952 0.0224301 -2.38578e-20)
(-0.0518074 0.0222702 1.00821e-19)
(-0.0555246 0.0221354 1.9031e-20)
(-0.0590651 0.0220675 5.17965e-20)
(-0.0624528 0.0221018 1.24339e-19)
(-0.0657159 0.0222674 -1.07628e-19)
(-0.0688854 0.0225877 8.70785e-20)
(-0.0719936 0.0230801 -1.88061e-19)
(-0.075074 0.0237568 1.5835e-19)
(-0.0781661 0.0246235 1.04344e-21)
(-0.0813106 0.0256804 -1.26712e-19)
(-0.0844837 0.0269309 5.10573e-20)
(-0.0875718 0.0283877 1.1621e-19)
(-0.0910115 0.0299881 -1.82492e-19)
(-0.00106592 0.00431928 1.35606e-19)
(-0.00376028 0.0110795 -1.49467e-19)
(-0.00757718 0.016211 -2.42019e-20)
(-0.0119676 0.0200441 3.07395e-20)
(-0.0166474 0.0228287 -6.67558e-20)
(-0.0214486 0.0247691 -1.0464e-19)
(-0.0262393 0.0260416 -8.74506e-20)
(-0.0309235 0.0267965 -2.11834e-20)
(-0.0354364 0.0271621 -1.51833e-19)
(-0.039737 0.027248 1.21422e-19)
(-0.0438029 0.0271482 -1.89268e-19)
(-0.0476258 0.0269438 9.60036e-20)
(-0.0512088 0.0267046 -3.19638e-20)
(-0.0545643 0.026491 7.42791e-20)
(-0.0577114 0.0263547 -1.87301e-19)
(-0.0606752 0.0263398 9.10251e-20)
(-0.0634851 0.0264836 6.81229e-21)
(-0.0661737 0.026816 4.0561e-20)
(-0.0687756 0.0273607 2.45663e-19)
(-0.0713269 0.0281344 5.45895e-20)
(-0.0738705 0.0291461 -4.92782e-21)
(-0.0764516 0.0303977 1.56441e-20)
(-0.0790499 0.0318947 1.03225e-19)
(-0.0815483 0.0336552 2.9469e-20)
(-0.0843902 0.0356013 1.03164e-19)
(-0.00134253 0.0050193 -8.4489e-20)
(-0.0044425 0.012885 1.24537e-19)
(-0.00851636 0.0188605 7.86516e-21)
(-0.0130487 0.0233235 -1.5411e-19)
(-0.0177759 0.0265613 3.25998e-19)
(-0.0225445 0.0288103 -1.05978e-19)
(-0.0272342 0.0302741 1.55504e-19)
(-0.0317582 0.0311271 1.42975e-19)
(-0.0360589 0.031518 -1.18808e-19)
(-0.0401002 0.031574 -1.73687e-19)
(-0.0438633 0.0314049 4.77195e-20)
(-0.0473426 0.0311051 -5.05032e-20)
(-0.0505428 0.0307567 -2.24219e-19)
(-0.0534773 0.0304309 2.73294e-19)
(-0.0561665 0.0301899 -1.31471e-19)
(-0.0586361 0.0300871 -9.09265e-20)
(-0.060917 0.0301683 8.34607e-22)
(-0.0630438 0.0304717 7.46648e-20)
(-0.0650533 0.0310279 3.08765e-20)
(-0.0669853 0.0318598 -1.21151e-19)
(-0.0688866 0.0329813 1.38664e-19)
(-0.0708082 0.034397 -2.41402e-19)
(-0.0727348 0.0361164 1.47687e-19)
(-0.0745464 0.038164 -1.13399e-19)
(-0.0766956 0.0404472 3.13501e-20)
(-0.00165719 0.00567882 1.23036e-19)
(-0.00522092 0.0145876 -9.82242e-20)
(-0.00959143 0.0213591 -6.29282e-20)
(-0.0142896 0.0264138 -1.11833e-19)
(-0.0190746 0.0300737 -2.05694e-19)
(-0.0238093 0.0326047 -1.52847e-19)
(-0.0283871 0.0342363 9.57781e-20)
(-0.0327318 0.035165 -1.4579e-19)
(-0.0367938 0.0355586 1.85896e-19)
(-0.0405432 0.035561 -3.03861e-19)
(-0.0439655 0.0352961 1.35534e-19)
(-0.0470579 0.0348713 2.87376e-19)
(-0.049827 0.0343801 -4.05212e-19)
(-0.0522876 0.0339047 5.8044e-20)
(-0.0544606 0.0335172 7.58012e-20)
(-0.056373 0.0332812 7.35238e-20)
(-0.0580566 0.0332519 -7.91455e-20)
(-0.059548 0.0334767 -1.94726e-20)
(-0.0608868 0.0339949 -5.84128e-20)
(-0.0621166 0.0348375 -4.88521e-20)
(-0.0632894 0.0360249 -2.68821e-19)
(-0.064463 0.037567 -1.82164e-20)
(-0.065629 0.0394788 2.95709e-21)
(-0.066666 0.0417937 -1.22328e-19)
(-0.0680389 0.0444043 1.33853e-19)
(-0.00200694 0.00629524 3.5729e-21)
(-0.00608842 0.0161791 4.01735e-20)
(-0.0107931 0.0236936 4.21414e-20)
(-0.0156799 0.0292975 2.45986e-20)
(-0.0205326 0.0333448 2.09381e-19)
(-0.0252325 0.0361285 1.97793e-19)
(-0.0296882 0.0379023 -1.61615e-19)
(-0.0338356 0.038883 -4.94459e-20)
(-0.0376346 0.0392558 -4.41117e-20)
(-0.0410623 0.0391797 2.28586e-19)
(-0.0441091 0.0387917 8.24223e-20)
(-0.0467756 0.0382107 -1.20395e-19)
(-0.0490706 0.0375413 -1.02312e-19)
(-0.05101 0.0368756 2.47325e-19)
(-0.0526154 0.0362961 -6.11581e-20)
(-0.0539143 0.0358762 -7.43797e-20)
(-0.0549398 0.0356816 -1.04123e-19)
(-0.05573 0.0357701 -8.12672e-20)
(-0.0563275 0.0361918 -1.04024e-19)
(-0.0567798 0.0369878 -6.82142e-20)
(-0.0571452 0.0381879 2.84006e-19)
(-0.0574899 0.0398098 -1.4014e-19)
(-0.0578142 0.0418769 9.45544e-20)
(-0.0579978 0.0444351 -2.52093e-19)
(-0.0585221 0.0473628 1.07729e-19)
(-0.0023888 0.00686697 -1.10543e-19)
(-0.00703744 0.0176538 -2.98981e-20)
(-0.0121106 0.0258538 -2.35122e-19)
(-0.0172067 0.0319605 -1.1341e-19)
(-0.0221356 0.0363574 -2.25217e-19)
(-0.0267987 0.0393627 -2.36219e-20)
(-0.0311215 0.0412518 1.22039e-19)
(-0.0350538 0.0422602 -7.47187e-20)
(-0.038566 0.0425888 1.61772e-19)
(-0.0416434 0.04241 -3.94799e-19)
(-0.0442822 0.0418721 -1.15143e-20)
(-0.0464867 0.0411045 7.0532e-20)
(-0.0482683 0.0402213 -8.97977e-20)
(-0.0496439 0.039324 8.20279e-20)
(-0.0506357 0.0385044 -6.28775e-20)
(-0.0512715 0.0378464 -1.35192e-19)
(-0.0515849 0.0374262 2.47343e-19)
(-0.0516153 0.0373137 1.53851e-19)
(-0.0514079 0.0375713 -3.19261e-20)
(-0.0510148 0.0382532 1.02058e-19)
(-0.0505009 0.0394021 -2.01769e-19)
(-0.0499424 0.0410468 2.915e-19)
(-0.0493506 0.0432236 -3.98904e-19)
(-0.0486097 0.0459953 8.22758e-20)
(-0.0482235 0.0492283 -1.65721e-19)
(-0.00279981 0.00739324 6.00074e-21)
(-0.00805996 0.0190077 -1.02165e-19)
(-0.0135321 0.0278322 1.5232e-19)
(-0.0188544 0.0343921 3.14371e-19)
(-0.0238649 0.0390984 -5.21217e-21)
(-0.0284865 0.0422925 3.60202e-20)
(-0.0326633 0.0442696 -1.36845e-19)
(-0.0363605 0.045282 6.43752e-20)
(-0.0395607 0.0455446 4.45924e-19)
(-0.0422584 0.0452409 -1.01613e-19)
(-0.0444563 0.0445292 -1.20541e-19)
(-0.0461635 0.0435475 4.57253e-19)
(-0.0473939 0.0424176 1.49905e-19)
(-0.0481657 0.0412491 7.16192e-20)
(-0.0485015 0.0401425 7.35287e-20)
(-0.048429 0.039191 2.00914e-19)
(-0.0479815 0.0384822 -7.74689e-20)
(-0.0471992 0.0380983 2.05284e-19)
(-0.0461296 0.0381164 2.78554e-19)
(-0.0448289 0.0386068 -2.38187e-19)
(-0.0433693 0.0396287 3.54755e-19)
(-0.0418384 0.0412275 1.26928e-19)
(-0.0402611 0.0434576 -4.82493e-19)
(-0.0385306 0.0464056 6.99163e-19)
(-0.0371809 0.0499291 -5.99406e-19)
(-0.00323712 0.00787386 -2.81694e-19)
(-0.00914745 0.0202382 1.5928e-19)
(-0.0150436 0.029623 -1.07646e-19)
(-0.0206044 0.0365839 -1.02905e-19)
(-0.0256969 0.0415574 -1.11759e-19)
(-0.0302673 0.0449066 -1.21936e-19)
(-0.0342804 0.0469449 3.36307e-20)
(-0.0377181 0.0479394 3.2124e-19)
(-0.0405766 0.0481169 -6.91083e-20)
(-0.042861 0.0476706 -1.8082e-19)
(-0.0445818 0.0467663 -1.10887e-19)
(-0.0457533 0.0455485 -4.55452e-20)
(-0.0463928 0.0441451 1.35242e-19)
(-0.0465199 0.0426718 -8.66499e-20)
(-0.0461575 0.0412359 -2.83798e-19)
(-0.0453326 0.039939 -3.14164e-19)
(-0.0440779 0.0388792 1.25609e-19)
(-0.0424333 0.0381517 -2.34495e-19)
(-0.0404476 0.0378497 2.04212e-19)
(-0.0381807 0.0380623 -5.7802e-19)
(-0.0357124 0.03887 4.45213e-19)
(-0.0331427 0.0403409 -5.90131e-19)
(-0.0305129 0.042555 -1.11207e-20)
(-0.0277302 0.0456319 -1.99633e-19)
(-0.0253701 0.0494265 6.1932e-19)
(-0.00369786 0.00830896 4.32243e-19)
(-0.0102908 0.0213435 6.57379e-20)
(-0.0166295 0.031222 -4.3506e-20)
(-0.0224341 0.0385292 -1.84715e-20)
(-0.0276019 0.0437263 3.45773e-19)
(-0.0321044 0.0471966 1.13106e-19)
(-0.0359283 0.0492704 1.03108e-19)
(-0.0390743 0.0502279 -8.33003e-20)
(-0.0415537 0.0503058 3.22774e-19)
(-0.0433833 0.049705 -1.59429e-19)
(-0.0445828 0.0485969 1.03268e-19)
(-0.0451729 0.0471302 2.63754e-19)
(-0.0451748 0.0454364 -1.50152e-19)
(-0.0446102 0.043635 1.63151e-19)
(-0.0435023 0.0418377 1.54581e-19)
(-0.0418773 0.0401525 5.30708e-20)
(-0.0397664 0.0386862 -1.31215e-19)
(-0.0372085 0.0375467 3.63745e-19)
(-0.0342525 0.0368434 -3.39596e-20)
(-0.030961 0.0366871 -3.92941e-20)
(-0.0274209 0.037184 4.38948e-19)
(-0.0237455 0.0384316 -3.13036e-19)
(-0.019995 0.0405458 5.28382e-19)
(-0.0160962 0.0436911 -4.39166e-19)
(-0.0126811 0.0477296 5.95922e-19)
(-0.00417911 0.00869871 -2.08845e-19)
(-0.01148 0.022322 4.80021e-20)
(-0.0182719 0.0326252 -5.04189e-20)
(-0.0243167 0.0402221 -2.40137e-19)
(-0.0295439 0.0455979 1.40297e-20)
(-0.0339516 0.0491557 1.38316e-19)
(-0.0375502 0.0512409 -5.65646e-19)
(-0.0403608 0.0521457 4.24345e-19)
(-0.0424113 0.0521153 -4.15037e-19)
(-0.0437319 0.051356 -2.62951e-19)
(-0.0443527 0.050043 2.36762e-19)
(-0.0443021 0.0483268 -5.14433e-19)
(-0.0436063 0.0463401 4.34866e-19)
(-0.0422899 0.044203 -1.38746e-19)
(-0.0403771 0.042029 -3.9769e-19)
(-0.0378932 0.0399291 9.85592e-20)
(-0.0348679 0.0380162 -9.27926e-20)
(-0.0313379 0.0364083 3.51271e-20)
(-0.0273511 0.0352306 -1.25728e-19)
(-0.0229713 0.0346163 -4.18412e-19)
(-0.0182914 0.0347012 9.39081e-20)
(-0.0134383 0.0356194 -1.71902e-22)
(-0.00849306 0.0375344 -4.34385e-19)
(-0.00340815 0.0406726 3.05708e-19)
(0.00110891 0.0449172 -2.78696e-19)
(-0.00467781 0.00904313 8.45518e-20)
(-0.012704 0.023172 1.61516e-19)
(-0.0199501 0.0338286 2.27522e-19)
(-0.026221 0.0416565 1.17786e-19)
(-0.0314796 0.0471653 -1.16215e-19)
(-0.0357526 0.0507769 2.78818e-19)
(-0.0390756 0.0528518 2.07435e-19)
(-0.0414915 0.0536924 -7.58913e-20)
(-0.0430463 0.0535512 2.72301e-19)
(-0.0437854 0.0526388 -2.81323e-19)
(-0.0437505 0.0511319 -8.28704e-20)
(-0.0429791 0.0491811 8.44094e-20)
(-0.041504 0.0469173 1.67837e-19)
(-0.039354 0.0444586 2.02041e-21)
(-0.0365553 0.0419164 1.06965e-19)
(-0.0331335 0.0394009 1.98121e-19)
(-0.0291164 0.037027 -3.38307e-19)
(-0.0245387 0.0349185 4.21718e-19)
(-0.0194457 0.0332135 1.42733e-19)
(-0.0139012 0.0320659 5.05634e-20)
(-0.00800236 0.031643 -5.15571e-19)
(-0.00188915 0.0321221 7.30903e-20)
(0.00433573 0.0337264 1.13668e-19)
(0.0106892 0.0367657 -2.73844e-20)
(0.0163643 0.0411644 1.3681e-19)
(-0.00519062 0.00934189 6.59247e-21)
(-0.0139506 0.023891 -4.16005e-19)
(-0.0216407 0.0348276 -1.04452e-20)
(-0.0281107 0.0428259 -1.06307e-19)
(-0.0333584 0.0484206 -7.02783e-19)
(-0.0374405 0.0520529 6.10228e-19)
(-0.0404194 0.0540973 -4.36508e-19)
(-0.0423613 0.0548665 -2.21121e-20)
(-0.0433318 0.054619 -2.08208e-19)
(-0.0433922 0.0535686 3.61567e-19)
(-0.0425979 0.0518925 -3.90781e-19)
(-0.040997 0.0497393 -1.83683e-19)
(-0.0386304 0.0472363 3.83352e-21)
(-0.0355331 0.0444966 -4.003e-19)
(-0.031735 0.0416259 5.47921e-19)
(-0.0272635 0.0387293 -6.36861e-19)
(-0.0221464 0.0359178 1.20992e-21)
(-0.0164163 0.0333157 9.81145e-20)
(-0.0101162 0.0310672 -2.4635e-19)
(-0.00330806 0.0293426 2.39633e-19)
(0.00390822 0.0283384 -3.40664e-19)
(0.0113814 0.0282778 -2.25706e-19)
(0.0189876 0.0294563 4.21537e-19)
(0.0267109 0.0322916 -4.60845e-19)
(0.0336166 0.0367766 -9.39447e-21)
(-0.00571382 0.00959427 -3.393e-19)
(-0.0152059 0.0244758 4.03917e-19)
(-0.0233172 0.0356161 -1.25543e-19)
(-0.0299441 0.0437221 2.43131e-19)
(-0.0351215 0.0493544 2.63773e-19)
(-0.0389373 0.0529739 -2.33662e-19)
(-0.0414821 0.0549696 -1.5568e-19)
(-0.0428464 0.0556638 -1.87357e-19)
(-0.0431164 0.0553209 1.72324e-19)
(-0.0423708 0.0541574 -1.15977e-20)
(-0.0406796 0.0523502 2.53323e-19)
(-0.038103 0.0500452 2.50656e-19)
(-0.0346924 0.0473647 -3.00582e-19)
(-0.0304907 0.0444148 5.92235e-19)
(-0.0255346 0.0412926 -3.94073e-19)
(-0.0198557 0.0380933 -6.78373e-20)
(-0.0134845 0.0349186 7.72421e-19)
(-0.00645401 0.031885 -3.58613e-19)
(0.00119395 0.0291345 2.29269e-19)
(0.00939918 0.0268441 4.49008e-19)
(0.018061 0.025232 -2.91986e-19)
(0.0270188 0.0245639 3.08118e-20)
(0.0361304 0.0252144 -2.02009e-20)
(0.0453498 0.0277367 -1.20667e-19)
(0.0535839 0.0322257 2.38492e-19)
(-0.00624326 0.00979912 7.75478e-20)
(-0.0164544 0.0249221 -2.55842e-19)
(-0.0249494 0.036187 1.40839e-19)
(-0.0316742 0.0443355 -1.76515e-21)
(-0.0367021 0.0499554 1.07346e-19)
(-0.0401538 0.0535283 -1.85728e-19)
(-0.0421493 0.0554578 1.06823e-19)
(-0.0428039 0.0560762 2.92378e-19)
(-0.0422251 0.0556541 -8.97213e-21)
(-0.0405099 0.0544107 -1.50674e-19)
(-0.0377436 0.0525229 1.52059e-19)
(-0.0340002 0.0501341 -3.51866e-21)
(-0.0293429 0.0473615 -4.85422e-19)
(-0.0238257 0.0443034 1.80563e-19)
(-0.0174947 0.0410464 3.99941e-20)
(-0.0103903 0.037673 -7.06834e-20)
(-0.00254965 0.03427 -1.26602e-19)
(0.00598903 0.0309386 4.86149e-19)
(0.0151814 0.027807 1.18962e-19)
(0.0249668 0.0250455 -2.55464e-19)
(0.0352435 0.0228786 -3.08209e-20)
(0.0458438 0.0216016 3.53741e-19)
(0.0566118 0.0216654 -1.65496e-19)
(0.0674826 0.0237818 7.13185e-20)
(0.0771771 0.0281854 5.0492e-20)
(-0.00677425 0.00995492 -1.55203e-19)
(-0.0176786 0.0252248 1.60119e-19)
(-0.0265037 0.0365322 -9.0825e-20)
(-0.0332478 0.0446552 -2.93475e-19)
(-0.038025 0.0502107 -2.71826e-19)
(-0.0409897 0.053702 -1.20907e-19)
(-0.042292 0.0555481 -1.00733e-19)
(-0.0420725 0.0560918 -2.99331e-19)
(-0.0404602 0.0556102 -1.2152e-19)
(-0.0375705 0.0543264 1.11277e-19)
(-0.0335046 0.0524183 -1.59454e-19)
(-0.028351 0.0500281 -1.68933e-19)
(-0.0221867 0.0472689 -1.59126e-19)
(-0.0150788 0.0442326 2.90105e-19)
(-0.00708695 0.040996 -6.11118e-19)
(0.00173513 0.0376279 3.50232e-19)
(0.0113371 0.0341973 -6.00665e-19)
(0.0216687 0.0307834 -9.28646e-20)
(0.0326756 0.0274902 -3.3192e-19)
(0.0442902 0.0244644 -7.77916e-20)
(0.0564061 0.0219146 -9.5058e-20)
(0.068848 0.0201399 -3.18462e-19)
(0.081453 0.019647 -3.50966e-20)
(0.0941595 0.0213168 1.95929e-19)
(0.105489 0.0255593 -5.34093e-19)
(-0.00730154 0.0100599 1.33131e-19)
(-0.0188589 0.0253783 1.80669e-19)
(-0.0279421 0.0366426 6.36981e-19)
(-0.0346057 0.0446695 -1.12539e-19)
(-0.039006 0.0501066 2.69473e-19)
(-0.0413329 0.0534801 6.45553e-19)
(-0.0417666 0.055225 -1.76863e-19)
(-0.0404731 0.0556954 2.40532e-19)
(-0.0376028 0.0551762 1.40895e-19)
(-0.0332887 0.0538952 2.56492e-19)
(-0.0276481 0.0520333 -5.15353e-20)
(-0.0207843 0.0497335 3.49992e-20)
(-0.0127889 0.047108 -9.0945e-20)
(-0.00374486 0.0442452 4.93098e-19)
(0.00627142 0.041215 6.32393e-20)
(0.0171874 0.0380755 4.6033e-19)
(0.0289319 0.0348788 -1.1813e-19)
(0.0414332 0.0316805 4.23632e-19)
(0.0546152 0.0285529 5.97044e-20)
(0.0683916 0.0256042 2.16621e-19)
(0.0826411 0.023001 -9.38044e-20)
(0.0971748 0.0210075 -1.69561e-20)
(0.111826 0.0201417 5.19015e-19)
(0.126574 0.0214376 3.20216e-19)
(0.139757 0.0254977 -1.39642e-19)
(-0.00781925 0.0101122 -3.22426e-19)
(-0.0199733 0.0253767 -3.39048e-19)
(-0.0292224 0.0365093 -3.56847e-19)
(-0.0356814 0.044367 1.31646e-19)
(-0.0395518 0.0496298 -2.65958e-19)
(-0.0410593 0.0528481 -3.98495e-20)
(-0.0404148 0.0544737 -1.05585e-19)
(-0.0378094 0.0548725 -4.39996e-19)
(-0.0334137 0.054338 -6.90106e-20)
(-0.027378 0.0531044 1.13812e-19)
(-0.0198348 0.0513576 -3.58464e-19)
(-0.0109018 0.0492444 4.98798e-19)
(-0.000686053 0.0468797 -6.79612e-19)
(0.0107126 0.0443531 1.64181e-19)
(0.0231975 0.0417337 -4.1874e-19)
(0.0366724 0.0390749 -3.40901e-19)
(0.0510376 0.0364188 -1.95089e-20)
(0.0661883 0.0338024 -5.18932e-20)
(0.082012 0.0312673 4.09142e-20)
(0.0983853 0.0288762 -1.96944e-19)
(0.115153 0.0267328 -1.36697e-19)
(0.132094 0.0250216 1.68541e-19)
(0.149032 0.0242014 -4.67289e-19)
(0.166034 0.0253971 1.5229e-19)
(0.181332 0.0293777 1.13242e-19)
(-0.00832079 0.0101099 -5.71497e-20)
(-0.0209968 0.0252141 -9.83435e-20)
(-0.0302969 0.0361235 3.85191e-19)
(-0.0364011 0.0437374 1.4414e-19)
(-0.0395583 0.0487696 1.91903e-19)
(-0.0400318 0.0517952 -2.57753e-19)
(-0.0380628 0.0532835 4.97768e-22)
(-0.033867 0.0536128 -2.1061e-19)
(-0.0276343 0.0530859 3.91072e-19)
(-0.0195314 0.0519446 1.28194e-19)
(-0.00970459 0.0503816 1.444e-19)
(0.00171423 0.0485505 -5.76116e-19)
(0.0146031 0.0465728 7.13138e-19)
(0.0288442 0.044545 -2.14829e-19)
(0.044319 0.0425426 -1.54261e-19)
(0.0609034 0.0406236 4.63493e-19)
(0.078463 0.0388318 2.07584e-19)
(0.0968495 0.0371989 -5.26748e-19)
(0.115898 0.0357493 -2.20795e-19)
(0.135426 0.034509 6.67766e-19)
(0.155215 0.0335148 -5.11896e-19)
(0.17498 0.0328379 3.08607e-19)
(0.1945 0.032787 1.73275e-19)
(0.213969 0.0344562 -2.23304e-19)
(0.231688 0.0386898 -2.24587e-19)
(-0.00879865 0.010051 -2.10134e-19)
(-0.0219013 0.024885 3.39025e-19)
(-0.031112 0.0354783 1.45399e-19)
(-0.0366817 0.0427737 -2.11335e-19)
(-0.03891 0.0475197 -3.40205e-20)
(-0.0380986 0.0503171 -2.24089e-19)
(-0.0345197 0.0516525 -8.97031e-20)
(-0.0284128 0.0519167 1.01241e-19)
(-0.0199867 0.051422 -2.54284e-20)
(-0.00942267 0.0504186 1.92651e-19)
(0.00311923 0.0491075 -1.68015e-19)
(0.017494 0.0476505 4.66738e-19)
(0.0335649 0.0461794 -5.80664e-19)
(0.0511961 0.0448021 3.63313e-19)
(0.0702467 0.0436075 4.53038e-19)
(0.0905629 0.042669 -6.56955e-19)
(0.111972 0.0420464 -2.00656e-19)
(0.134276 0.0417869 3.39143e-19)
(0.157245 0.0419246 -2.09995e-19)
(0.180612 0.0424811 2.03636e-19)
(0.204063 0.0434577 -4.94829e-19)
(0.227191 0.0448184 8.24815e-20)
(0.249655 0.0466543 3.24838e-19)
(0.271775 0.0498865 -5.24412e-19)
(0.292228 0.0552738 1.47014e-19)
(-0.0092442 0.00993378 -1.94198e-19)
(-0.0226546 0.0243846 6.32005e-19)
(-0.0316068 0.0345687 1.22153e-19)
(-0.03643 0.0414728 -3.32232e-19)
(-0.0374777 0.0458808 2.39446e-19)
(-0.035092 0.0484192 1.2233e-19)
(-0.0295765 0.0495917 1.96237e-19)
(-0.0211946 0.0498008 -1.28402e-20)
(-0.0101732 0.0493683 -2.062e-20)
(0.00329148 0.0485524 -4.34054e-20)
(0.019026 0.047562 -1.90197e-19)
(0.036872 0.0465683 -6.49454e-21)
(0.0566774 0.0457139 4.47629e-19)
(0.0782887 0.0451204 -7.36887e-19)
(0.101543 0.0448945 5.25959e-19)
(0.126259 0.0451326 1.06782e-19)
(0.152228 0.0459245 1.89444e-19)
(0.179204 0.0473561 -9.82293e-20)
(0.206891 0.0495103 8.72792e-19)
(0.234928 0.0524669 -5.42387e-19)
(0.26286 0.0562833 4.35364e-19)
(0.290069 0.0609357 1.03087e-19)
(0.315911 0.0664268 -3.21445e-19)
(0.340625 0.0736049 2.73158e-19)
(0.363611 0.082808 4.38928e-19)
(-0.0096473 0.0097562 -5.63424e-20)
(-0.0232196 0.023709 -2.22795e-19)
(-0.0317122 0.0333925 -3.8335e-19)
(-0.0355408 0.0398373 -2.19777e-19)
(-0.0351176 0.0438624 -3.09141e-20)
(-0.030827 0.0461198 -8.77409e-20)
(-0.0230051 0.0471293 -4.09005e-19)
(-0.0119401 0.0473042 6.81618e-20)
(0.00212196 0.0469742 -4.63847e-19)
(0.0189685 0.0464042 -3.61502e-20)
(0.0384109 0.0458095 -4.48516e-19)
(0.0602747 0.0453686 -1.60351e-19)
(0.0843904 0.0452327 9.23887e-20)
(0.110585 0.0455348 -4.41199e-19)
(0.138675 0.0463966 3.9896e-21)
(0.168456 0.0479366 -3.82738e-19)
(0.199698 0.0502767 1.48333e-19)
(0.232134 0.0535523 -5.38081e-19)
(0.265444 0.0579229 -9.26676e-20)
(0.299237 0.0635879 -1.29021e-20)
(0.332997 0.0707871 -9.19098e-20)
(0.365966 0.0797749 -9.43783e-20)
(0.397138 0.0910081 -4.70333e-20)
(0.425886 0.105944 -1.90433e-19)
(0.450611 0.123781 -4.22141e-19)
(-0.00999597 0.00951632 1.03102e-19)
(-0.0235535 0.0228551 2.82318e-19)
(-0.0313494 0.031951 3.41621e-19)
(-0.0338962 0.0378764 -2.74671e-19)
(-0.0316699 0.0414849 5.12845e-19)
(-0.0251002 0.0434528 -2.79902e-19)
(-0.0145581 0.0443145 1.52834e-19)
(-0.000358729 0.0444924 2.39436e-19)
(0.0172295 0.044322 2.18789e-19)
(0.0379736 0.0440722 1.06864e-19)
(0.0616638 0.0439615 1.73347e-19)
(0.0881033 0.0441707 1.01185e-19)
(0.117098 0.0448535 6.8641e-19)
(0.148448 0.0461453 -5.00567e-19)
(0.181944 0.0481712 5.73577e-19)
(0.21736 0.0510548 -2.39166e-19)
(0.254455 0.0549278 5.18132e-19)
(0.292969 0.0599435 -2.44457e-20)
(0.332634 0.0662971 -1.07932e-19)
(0.373178 0.074256 -1.98772e-20)
(0.414333 0.0841999 4.12948e-19)
(0.455879 0.0967236 -4.05666e-19)
(0.497932 0.113084 2.85327e-19)
(0.541091 0.135313 3.17808e-19)
(0.581312 0.158018 6.72721e-20)
(-0.0102757 0.00921186 7.13221e-20)
(-0.0236066 0.021821 -4.0358e-19)
(-0.0304293 0.030249 -1.47593e-19)
(-0.0313646 0.0356069 1.35724e-19)
(-0.0269588 0.0387805 -4.20328e-19)
(-0.0176909 0.0404689 -8.33137e-20)
(-0.00397089 0.0412191 5.81139e-20)
(0.0138545 0.0414601 2.30711e-19)
(0.0354883 0.0415301 -5.86639e-19)
(0.0606685 0.0416985 4.4805e-20)
(0.0891541 0.0421817 -1.72921e-19)
(0.120713 0.0431562 -5.27532e-19)
(0.15511 0.0447687 3.60704e-19)
(0.192103 0.047144 1.55181e-20)
(0.231439 0.0503924 -1.09245e-20)
(0.272849 0.0546166 3.67511e-19)
(0.316059 0.0599185 -6.51835e-19)
(0.360795 0.0664075 5.17864e-19)
(0.406797 0.0742102 -9.59253e-20)
(0.453848 0.0834813 3.04333e-19)
(0.501802 0.0944091 -5.0204e-19)
(0.550638 0.107243 2.89146e-19)
(0.600715 0.122509 -5.19821e-19)
(0.652853 0.14089 5.38258e-19)
(0.701883 0.156836 -1.70757e-19)
(-0.0104691 0.00884029 4.7892e-19)
(-0.0233216 0.020606 -8.09559e-20)
(-0.0288512 0.028296 6.01102e-19)
(-0.0278004 0.0330537 2.80051e-19)
(-0.0207929 0.035794 2.26379e-20)
(-0.00836329 0.0372367 1.23637e-19)
(0.00903362 0.0379382 3.00206e-20)
(0.0310113 0.0383309 5.0869e-19)
(0.0572338 0.0387523 1.64578e-19)
(0.0873967 0.039467 -2.218e-20)
(0.121211 0.0406831 4.45723e-20)
(0.158387 0.0425647 1.72228e-19)
(0.198629 0.0452408 1.44284e-19)
(0.241625 0.0488127 3.09874e-19)
(0.287047 0.0533594 -3.54128e-19)
(0.334554 0.0589424 1.07339e-19)
(0.383798 0.0656095 3.26476e-20)
(0.43444 0.0733976 1.59871e-19)
(0.486161 0.0823346 4.34815e-19)
(0.53869 0.092437 -2.84243e-19)
(0.591825 0.103699 2.44954e-20)
(0.645449 0.11608 -4.05081e-19)
(0.699651 0.129618 3.84506e-19)
(0.754805 0.144625 -3.73427e-19)
(0.805991 0.157696 3.61675e-20)
(-0.0105553 0.00839916 -3.99415e-19)
(-0.0226334 0.0192113 3.16923e-19)
(-0.0265035 0.0261063 -5.19372e-19)
(-0.023045 0.0302507 4.50719e-20)
(-0.0129682 0.0325838 3.69967e-19)
(0.00312916 0.0338425 -6.19652e-19)
(0.0247377 0.0345894 4.94042e-19)
(0.0514191 0.0352559 -7.87513e-19)
(0.0827825 0.0361735 1.57624e-19)
(0.118461 0.0375961 3.38477e-20)
(0.158094 0.0397159 2.6799e-19)
(0.20131 0.0426751 -8.93722e-19)
(0.247718 0.0465741 1.54861e-19)
(0.296907 0.051478 1.64625e-19)
(0.348441 0.057421 -9.90482e-20)
(0.401871 0.0644099 -6.16421e-19)
(0.456741 0.0724268 2.91013e-19)
(0.512607 0.0814298 5.46517e-19)
(0.56905 0.0913522 -5.78484e-19)
(0.625693 0.102098 4.20854e-19)
(0.682217 0.113531 -5.47519e-19)
(0.738364 0.125459 3.98972e-19)
(0.793965 0.137706 -1.11345e-19)
(0.849053 0.15051 6.37938e-19)
(0.899613 0.162274 -7.39296e-19)
(-0.0105101 0.00788624 5.71079e-20)
(-0.0214685 0.0176405 4.67581e-20)
(-0.023264 0.0236999 1.15264e-19)
(-0.0169291 0.0272411 4.14242e-19)
(-0.00327155 0.0292214 -1.30683e-20)
(0.0170367 0.0303902 9.36133e-20)
(0.0434183 0.031311 4.18907e-19)
(0.0753654 0.0324089 1.69847e-19)
(0.11241 0.0340028 -5.62195e-20)
(0.154098 0.036328 4.80546e-19)
(0.199965 0.0395511 -5.49417e-19)
(0.249523 0.0437816 8.46172e-19)
(0.302258 0.0490794 -3.36985e-19)
(0.357619 0.0554609 6.13738e-19)
(0.415037 0.0629042 -2.07901e-19)
(0.473924 0.0713526 7.60754e-20)
(0.533696 0.0807177 9.24548e-20)
(0.593788 0.0908819 -1.79402e-19)
(0.653669 0.101699 1.5053e-19)
(0.712858 0.112992 9.71381e-20)
(0.770937 0.12455 1.34543e-19)
(0.827546 0.136119 2.86543e-19)
(0.882382 0.147444 -2.41303e-20)
(0.935317 0.158709 -1.31705e-19)
(0.983492 0.169681 4.03369e-19)
(-0.0103055 0.00729999 -3.33974e-19)
(-0.0197457 0.0159008 3.66597e-20)
(-0.0190014 0.0211038 -6.63399e-19)
(-0.00927537 0.0240789 -1.59439e-19)
(0.00851358 0.0257924 -3.00334e-19)
(0.0336047 0.027 -6.47504e-20)
(0.0653338 0.0282597 -3.25086e-19)
(0.1031 0.0299824 -1.95232e-19)
(0.146329 0.0324659 2.59668e-19)
(0.194446 0.0359161 -4.35264e-19)
(0.246846 0.0404626 -1.21393e-19)
(0.302893 0.046169 4.85159e-21)
(0.361906 0.0530414 -8.26901e-19)
(0.423175 0.0610357 3.52786e-19)
(0.485967 0.0700635 -5.16864e-19)
(0.549547 0.0799986 -1.62152e-20)
(0.613198 0.0906825 1.02811e-19)
(0.676242 0.101929 -1.6707e-19)
(0.738062 0.113531 -1.46981e-19)
(0.79811 0.12526 7.38954e-20)
(0.855921 0.13687 8.30318e-20)
(0.911111 0.148098 -5.38815e-19)
(0.963358 0.158684 3.08019e-19)
(1.01251 0.16876 1.56505e-19)
(1.05679 0.179019 4.42619e-20)
(-0.0099101 0.00664014 3.4163e-19)
(-0.0173769 0.0140041 -3.7827e-19)
(-0.0135774 0.018353 5.34324e-19)
(9.69717e-05 0.0208293 8.37217e-20)
(0.0226001 0.0223964 -2.58079e-20)
(0.053063 0.0238082 -1.82817e-19)
(0.0907095 0.025608 2.76426e-20)
(0.134815 0.0281825 2.80868e-19)
(0.184663 0.0317962 -3.89245e-19)
(0.239517 0.0366129 4.10593e-19)
(0.298597 0.0427099 -4.35607e-20)
(0.361076 0.0500902 1.92014e-20)
(0.426082 0.0586919 5.40307e-19)
(0.492719 0.0683983 7.27004e-19)
(0.560087 0.0790467 -2.85321e-19)
(0.627308 0.0904387 5.0912e-19)
(0.693553 0.102349 2.59944e-19)
(0.758071 0.114536 -1.59114e-19)
(0.820203 0.126749 5.07195e-19)
(0.879397 0.138733 -1.88389e-20)
(0.935219 0.150241 -4.91233e-19)
(0.98734 0.161029 5.20754e-19)
(1.03552 0.170871 7.60001e-20)
(1.07968 0.179868 -3.25676e-19)
(1.11894 0.189275 1.03012e-19)
(-0.0092893 0.00590834 -4.75291e-19)
(-0.0142687 0.0119681 5.15638e-19)
(-0.00685004 0.0154926 -3.29503e-19)
(0.0113672 0.0175703 -1.03474e-19)
(0.0391896 0.0191478 -2.33089e-19)
(0.0756144 0.020966 4.1453e-19)
(0.119722 0.0235415 -2.4188e-19)
(0.170624 0.0272229 -1.11398e-19)
(0.227423 0.0322267 -3.2035e-19)
(0.289177 0.0386572 8.30086e-21)
(0.354888 0.0465223 -1.2639e-19)
(0.423507 0.0557477 6.18274e-20)
(0.493953 0.0661892 -6.52917e-19)
(0.565141 0.0776472 1.86644e-19)
(0.636013 0.0898803 -2.26334e-19)
(0.705579 0.10262 -1.83255e-19)
(0.772945 0.115583 5.66652e-20)
(0.837343 0.128488 -2.69681e-19)
(0.898142 0.141061 -1.16879e-19)
(0.954865 0.153048 3.36157e-19)
(1.00718 0.164223 1.43681e-19)
(1.0549 0.174388 -6.1141e-19)
(1.09793 0.18337 4.51878e-19)
(1.13634 0.191269 -8.57834e-20)
(1.1699 0.199603 -1.79803e-19)
(-0.00840596 0.00510889 -1.73221e-19)
(-0.0103241 0.00981831 -9.61926e-20)
(0.001323 0.0125786 -1.93371e-20)
(0.0247071 0.014394 1.42679e-19)
(0.0584628 0.0161761 1.56101e-19)
(0.101422 0.0186385 1.3666e-19)
(0.152482 0.0222553 1.709e-19)
(0.210548 0.0273197 2.62106e-19)
(0.274491 0.0339803 4.02446e-19)
(0.343121 0.0422622 3.99869e-19)
(0.415189 0.0520845 2.12033e-19)
(0.489404 0.0632782 -5.71513e-20)
(0.56447 0.0756047 1.43091e-20)
(0.639128 0.0887749 -1.98009e-20)
(0.712203 0.10247 1.70334e-19)
(0.782646 0.116358 -4.60043e-20)
(0.849565 0.130116 5.10065e-19)
(0.91225 0.143441 -2.28801e-19)
(0.97018 0.156063 3.89178e-21)