/*--------------------------------*- C++ -*----------------------------------*\
  =========                 |
  \\      /  F ield         | OpenFOAM: The Open Source CFD Toolbox
   \\    /   O peration     | Website:  https://openfoam.org
    \\  /    A nd           | Version:  6.0
     \\/     M anipulation  |
\*---------------------------------------------------------------------------*/
FoamFile
{
    version     2.0;
    format      ascii;
    class       volVectorField;
    location    "69";
    object      U;
}
// * * * * * * * * * * * * * * * * * * * * * * * * * * * * * * * * * * * * * //

dimensions      [0 1 -1 0 0 0 0];

internalField   nonuniform List<vector> 
4000
(
(0.117808 0.00817337 7.46303e-20)
(0.361433 0.0413852 -4.08341e-20)
(0.599242 0.0965297 4.82048e-20)
(0.813306 0.157026 -3.58719e-20)
(0.990496 0.21272 -1.60414e-20)
(1.12563 0.258242 4.93756e-21)
(1.22068 0.291608 -1.56668e-20)
(1.28196 0.313361 5.61316e-20)
(1.31742 0.325446 -4.66194e-20)
(1.33465 0.330243 1.09692e-20)
(1.33992 0.329972 -8.14023e-21)
(1.33788 0.326427 -5.25067e-20)
(1.33175 0.320922 5.07843e-20)
(1.3236 0.314349 1.91869e-20)
(1.3147 0.307282 -1.90387e-20)
(1.30581 0.300069 4.44568e-20)
(1.29736 0.2929 -7.47953e-22)
(1.28961 0.285917 -4.26221e-20)
(1.28268 0.279464 3.1357e-20)
(1.2767 0.273342 9.7866e-21)
(0.132519 0.0139029 -2.62266e-20)
(0.396237 0.0583684 7.54782e-20)
(0.644503 0.122818 8.7474e-20)
(0.860253 0.18919 -4.13964e-20)
(1.03245 0.247163 7.17717e-20)
(1.15873 0.292104 1.13421e-19)
(1.24368 0.323104 -6.38297e-21)
(1.2955 0.341695 -1.94479e-20)
(1.32311 0.35053 9.54796e-20)
(1.3344 0.352389 4.64663e-20)
(1.33548 0.349653 -8.34517e-21)
(1.33069 0.344124 6.89327e-20)
(1.32286 0.337048 -7.34687e-20)
(1.31373 0.329228 1.14343e-19)
(1.30433 0.321156 -1.89885e-20)
(1.29522 0.313115 5.40864e-20)
(1.28675 0.305247 9.59641e-21)
(1.27908 0.297676 3.81893e-20)
(1.2723 0.290751 -3.63137e-20)
(1.2665 0.284138 8.87155e-21)
(0.147251 0.0207521 -4.06712e-20)
(0.429897 0.0777058 9.4639e-20)
(0.686734 0.151594 7.052e-20)
(0.902271 0.223266 -1.07187e-20)
(1.06815 0.282682 1.10215e-19)
(1.18506 0.326272 -8.3307e-20)
(1.26016 0.354362 -6.29707e-21)
(1.30324 0.3695 7.25231e-20)
(1.32396 0.37499 2.27979e-20)
(1.33026 0.373938 3.22089e-20)
(1.32802 0.368819 -4.75562e-20)
(1.32116 0.361396 1.23548e-19)
(1.31214 0.352824 2.29009e-20)
(1.30239 0.34381 -1.08927e-19)
(1.29273 0.334765 1.58655e-19)
(1.28358 0.325909 -1.86528e-19)
(1.2752 0.317345 -8.50489e-20)
(1.26771 0.309186 1.44417e-20)
(1.26113 0.30178 8.19595e-20)
(1.25555 0.294657 -1.54826e-19)
(0.161764 0.0287121 -8.97324e-20)
(0.461853 0.0992455 -2.12317e-19)
(0.725298 0.182533 -1.84642e-19)
(0.938885 0.258832 -2.50023e-19)
(1.09741 0.318854 -1.42332e-19)
(1.20476 0.360394 -2.9438e-19)
(1.27046 0.38513 3.75035e-20)
(1.30565 0.396612 -1.5606e-19)
(1.32042 0.398727 -1.73382e-20)
(1.32266 0.394829 2.56853e-20)
(1.31784 0.387422 -5.63677e-20)
(1.3095 0.378196 7.02767e-20)
(1.29972 0.368198 1.25027e-19)
(1.28965 0.358035 -1.7566e-19)
(1.27993 0.34804 2.82857e-20)
(1.27089 0.338381 8.1112e-20)
(1.26271 0.329122 1.35353e-19)
(1.25546 0.320375 -1.16743e-19)
(1.24914 0.312481 -5.5059e-21)
(1.24384 0.304832 1.3637e-19)
(0.175814 0.0377447 -1.68031e-19)
(0.491577 0.122774 4.63027e-19)
(0.75965 0.215257 -8.10092e-20)
(0.969751 0.295438 1.0861e-19)
(1.12021 0.355256 -1.05531e-19)
(1.21806 0.394133 3.25919e-19)
(1.27498 0.415168 -5.17534e-20)
(1.30317 0.422871 3.07033e-20)
(1.31295 0.421634 -1.56812e-20)
(1.31195 0.414978 5.05162e-20)
(1.30524 0.405386 3.27131e-20)
(1.29592 0.394443 4.15046e-20)
(1.28573 0.383081 -1.17618e-19)
(1.27559 0.371807 1.72299e-19)
(1.266 0.360883 -1.30915e-19)
(1.25718 0.350428 2.4999e-20)
(1.24928 0.340479 -8.3872e-20)
(1.24235 0.331144 1.7884e-20)
(1.23633 0.322757 2.01657e-20)
(1.23137 0.314574 -1.87402e-19)
(0.18916 0.0477816 1.10646e-20)
(0.518588 0.148024 -2.31571e-19)
(0.789343 0.249347 1.29103e-19)
(0.994646 0.33262 -4.47295e-19)
(1.13657 0.391475 2.17517e-19)
(1.22521 0.427167 -3.71367e-19)
(1.27411 0.444247 -2.90396e-19)
(1.29623 0.44812 -1.10323e-20)
(1.30191 0.443595 -9.86151e-20)
(1.29844 0.43429 -3.08747e-19)
(1.29042 0.422618 -3.89052e-20)
(1.28055 0.410042 -2.97458e-19)
(1.27025 0.397374 5.36507e-20)
(1.26026 0.385025 -4.31108e-20)
(1.25093 0.373192 2.53872e-20)
(1.24245 0.361951 -2.00776e-19)
(1.23492 0.351317 9.96788e-21)
(1.22837 0.341401 3.98829e-20)
(1.22271 0.332518 -9.34141e-20)
(1.21813 0.323799 8.13141e-20)
(0.201571 0.0587261 -9.47152e-20)
(0.542463 0.174678 4.2152e-19)
(0.814034 0.28435 4.24201e-21)
(1.01346 0.36991 -3.64293e-19)
(1.14664 0.427109 2.77059e-19)
(1.22653 0.45919 1.16619e-19)
(1.26823 0.472147 2.40357e-20)
(1.2852 0.4722 -1.97096e-19)
(1.28763 0.464486 3.21102e-19)
(1.28236 0.452651 -1.89254e-19)
(1.27355 0.439008 6.7848e-20)
(1.2635 0.424881 3.21636e-19)
(1.25336 0.410962 -2.9022e-19)
(1.2437 0.397573 3.19165e-19)
(1.23477 0.384852 -2.07367e-19)
(1.22672 0.372839 -4.05011e-20)
(1.21964 0.36153 4.90506e-20)
(1.21353 0.35104 6.26555e-20)
(1.20829 0.341665 8.67999e-20)
(1.20416 0.332416 5.19537e-20)
(0.21283 0.0704541 3.67973e-20)
(0.562846 0.202379 -3.76054e-19)
(0.833479 0.319795 6.72621e-20)
(1.02617 0.406844 8.77302e-19)
(1.15063 0.461769 -8.0769e-20)
(1.22236 0.489909 2.43648e-19)
(1.25772 0.498654 1.53089e-19)
(1.27043 0.49495 2.56231e-20)
(1.27037 0.484171 -1.79025e-19)
(1.26393 0.469938 2.93911e-19)
(1.25478 0.454432 -3.52501e-20)
(1.24486 0.438835 4.50829e-19)
(1.23512 0.423719 1.74851e-19)
(1.22595 0.409328 1.10175e-19)
(1.21754 0.395744 -2.29718e-19)
(1.21002 0.382976 4.88577e-20)
(1.20345 0.371007 1.79174e-19)
(1.19785 0.359955 4.69179e-20)
(1.19308 0.350095 -2.18265e-19)
(1.18946 0.340334 -5.46883e-20)
(0.222743 0.0828178 -2.08773e-19)
(0.579452 0.230743 6.72098e-19)
(0.847533 0.355201 -3.65819e-19)
(1.03287 0.442964 -3.36894e-19)
(1.14878 0.495083 -2.94672e-19)
(1.21304 0.519043 -2.49182e-19)
(1.24294 0.523561 -3.08672e-19)
(1.25223 0.516206 3.88497e-19)
(1.25041 0.502508 -2.78926e-19)
(1.24332 0.486015 -2.28911e-20)
(1.23422 0.468756 -2.01624e-21)
(1.22473 0.451768 -5.40061e-20)
(1.21558 0.435513 -1.40372e-19)
(1.20705 0.420159 -1.57789e-19)
(1.19929 0.405743 -8.44782e-21)
(1.19238 0.392243 -3.52785e-20)
(1.18641 0.379632 -8.8061e-20)
(1.18136 0.368037 -2.77164e-20)
(1.17713 0.357704 2.91481e-20)
(1.17407 0.34746 -1.89836e-19)
(0.231141 0.0956482 3.60697e-19)
(0.592071 0.259362 3.75877e-19)
(0.856143 0.390084 -2.33209e-19)
(1.03368 0.47783 1.44497e-19)
(1.14139 0.526699 2.49318e-19)
(1.19894 0.546327 -5.23182e-20)
(1.22424 0.546665 6.17513e-20)
(1.23091 0.535801 7.08926e-20)
(1.22795 0.519348 1.18254e-19)
(1.2207 0.500737 -1.39784e-19)
(1.21199 0.481836 6.82103e-20)
(1.20318 0.463539 -4.81942e-20)
(1.1948 0.446205 2.14372e-19)
(1.18707 0.429933 9.55604e-20)
(1.18005 0.414718 -2.15701e-19)
(1.17385 0.400515 1.19818e-19)
(1.16854 0.387289 5.92806e-20)
(1.16412 0.375172 -1.11129e-19)
(1.16048 0.364384 2.99995e-19)
(1.15805 0.353697 -2.2255e-19)
(0.237883 0.10876 -2.64666e-19)
(0.600568 0.287817 -3.44235e-19)
(0.859339 0.423971 2.43037e-19)
(1.02884 0.511022 -2.23692e-19)
(1.12879 0.556287 -2.06689e-20)
(1.1804 0.57151 -2.49102e-19)
(1.20195 0.567772 2.06489e-19)
(1.20672 0.553571 3.872e-19)
(1.2032 0.534538 -5.39796e-19)
(1.19621 0.513957 2.79296e-20)
(1.1882 0.493526 2.19676e-20)
(1.18028 0.474003 -1.10967e-19)
(1.17286 0.455651 7.5652e-20)
(1.16604 0.438511 -3.30516e-20)
(1.15989 0.422538 2.23587e-19)
(1.15448 0.407666 -2.4108e-19)
(1.1499 0.393855 -8.54033e-20)
(1.14617 0.38124 2.20273e-19)
(1.14319 0.370022 -3.34273e-19)
(1.14145 0.358942 2.10935e-19)
(0.24286 0.121954 5.49719e-19)
(0.60488 0.315688 4.88141e-19)
(0.85723 0.456405 -8.20121e-20)
(1.01859 0.542142 -1.04368e-20)
(1.11133 0.583536 -2.50899e-19)
(1.1578 0.59436 1.06884e-19)
(1.17639 0.586694 5.33432e-19)
(1.17994 0.569356 -4.70259e-19)
(1.17635 0.547927 3.02425e-19)
(1.16998 0.525526 -2.73778e-20)
(1.16295 0.503677 1.88971e-19)
(1.15612 0.483012 -4.504e-20)
(1.1498 0.463709 1.1526e-19)
(1.14405 0.445754 1.52414e-19)
(1.13887 0.429069 -8.2485e-20)
(1.13434 0.413566 1.05256e-19)
(1.13057 0.399202 -1.53027e-19)
(1.12758 0.386115 3.89109e-19)
(1.12533 0.374487 -2.46781e-19)
(1.12435 0.363072 1.77599e-19)
(0.245998 0.135025 -2.67608e-19)
(0.605015 0.342559 -5.00863e-19)
(0.849992 0.486948 -3.4668e-19)
(1.00327 0.570825 -2.55473e-20)
(1.08938 0.608165 8.37936e-20)
(1.1315 0.614657 -4.51606e-20)
(1.14787 0.603257 -3.01554e-19)
(1.15079 0.582998 -1.34046e-19)
(1.14759 0.559367 -2.49064e-19)
(1.14217 0.535296 -1.26876e-19)
(1.13632 0.512145 6.31625e-20)
(1.13077 0.490423 -3.0248e-19)
(1.12571 0.470236 -7.3894e-20)
(1.12114 0.451522 -7.41604e-20)
(1.11705 0.434174 -2.33566e-19)
(1.1135 0.418083 1.03987e-19)
(1.11061 0.403198 -3.9152e-22)
(1.10844 0.389658 9.91595e-20)
(1.10698 0.377637 -4.20185e-20)
(1.10683 0.365942 -1.54869e-19)
(0.247255 0.147763 6.17897e-19)
(0.601048 0.368031 5.3944e-19)
(0.837863 0.515194 6.7122e-19)
(0.98321 0.596734 -6.97424e-20)
(1.06333 0.629917 -2.47699e-19)
(1.10185 0.632207 7.31726e-19)
(1.11668 0.617298 -3.69415e-19)
(1.11951 0.594352 4.13538e-19)
(1.11709 0.568718 -7.76716e-20)
(1.11288 0.543131 2.59373e-19)
(1.10843 0.51879 2.86995e-20)
(1.10431 0.496097 1.30723e-19)
(1.10065 0.475094 -2.97973e-20)
(1.0974 0.455679 1.35406e-19)
(1.09452 0.437717 -1.15594e-19)
(1.09205 0.421081 4.74641e-21)
(1.09011 0.405709 5.80657e-20)
(1.08882 0.391731 9.54012e-20)
(1.08821 0.379323 -1.63592e-20)
(1.08894 0.367409 5.50017e-20)
(0.246625 0.159959 -1.89527e-19)
(0.593114 0.391722 -5.34196e-19)
(0.821133 0.54077 -3.25877e-19)
(0.958797 0.619567 -5.72375e-19)
(1.03357 0.648564 6.19073e-19)
(1.06922 0.646832 -4.42094e-19)
(1.08313 0.62867 2.83284e-19)
(1.08634 0.603285 -9.7785e-20)
(1.08503 0.575851 -1.24255e-19)
(1.08226 0.548903 -8.87779e-20)
(1.07937 0.523485 4.5995e-20)
(1.07682 0.499905 6.4705e-20)
(1.07467 0.478151 5.57534e-20)
(1.07286 0.458089 -7.25893e-20)
(1.07132 0.439562 -5.61173e-20)
(1.07005 0.422423 1.8142e-19)
(1.06916 0.406595 -1.73801e-20)
(1.06881 0.392192 -7.57653e-20)
(1.06912 0.379409 3.30396e-21)
(1.07073 0.36736 -1.69711e-20)
(0.244134 0.171409 8.38678e-19)
(0.581404 0.413279 3.95227e-19)
(0.800137 0.563338 3.70182e-19)
(0.930434 0.639059 -2.20806e-19)
(1.00051 0.663906 2.73696e-20)
(1.03395 0.658381 3.17379e-19)
(1.04751 0.637246 4.35553e-20)
(1.05151 0.609679 9.44422e-20)
(1.05159 0.580654 1.05788e-19)
(1.05045 0.552502 1.15283e-20)
(1.04924 0.526122 6.0231e-20)
(1.04836 0.501739 -9.03127e-21)
(1.04783 0.479293 -2.83553e-20)
(1.04758 0.458629 -9.49107e-20)
(1.0475 0.439572 2.35531e-20)
(1.04756 0.421963 4.2038e-21)
(1.04783 0.405703 -5.24408e-21)
(1.0485 0.390877 5.83636e-21)
(1.04977 0.377728 -3.23128e-21)
(1.05232 0.365651 1.4037e-20)
(0.23984 0.181922 -6.00708e-19)
(0.56616 0.43238 -5.20575e-19)
(0.775248 0.582603 2.51039e-19)
(0.898548 0.654981 -3.11434e-19)
(0.964552 0.675778 -2.27024e-20)
(0.996408 0.666724 4.61747e-20)
(1.01011 0.642916 -5.0874e-20)
(1.01525 0.613437 -4.1182e-20)
(1.01693 0.583035 -9.54376e-20)
(1.01757 0.55384 -5.97842e-20)
(1.01815 0.526616 -9.92231e-21)
(1.019 0.501511 -4.89791e-20)
(1.02017 0.478429 1.63494e-20)
(1.02156 0.457198 -1.86816e-20)
(1.02308 0.437635 1.07066e-20)
(1.02462 0.419572 -4.10383e-21)
(1.02621 0.402887 -1.4146e-20)
(1.028 0.387606 -1.91716e-20)
(1.03038 0.374013 1.37649e-21)
(1.03412 0.361928 3.50717e-20)
(0.233832 0.191316 5.60385e-19)
(0.547664 0.448739 1.86026e-20)
(0.746872 0.598308 -5.27993e-20)
(0.863579 0.667144 6.29583e-20)
(0.926117 0.684042 2.2229e-19)
(0.956951 0.671758 -1.60529e-19)
(0.971214 0.645597 7.41307e-20)
(0.97778 0.614484 -9.86841e-20)
(0.981258 0.582925 2.94926e-20)
(0.983774 0.552854 -2.59324e-20)
(0.986196 0.524907 -1.36433e-20)
(0.988818 0.499162 -1.67657e-20)
(0.9917 0.475491 1.34857e-20)
(0.994797 0.453712 -1.07205e-20)
(0.998012 0.433641 -9.6823e-20)
(1.00121 0.415122 8.94318e-20)
(1.00431 0.398008 -6.28405e-20)
(1.00749 0.382189 -4.31695e-20)
(1.01137 0.36788 4.61262e-20)
(1.01682 0.35556 -5.94208e-20)
(0.226227 0.199429 -1.17565e-19)
(0.526237 0.462109 1.25027e-19)
(0.715438 0.610243 8.92324e-20)
(0.825977 0.675394 -1.35868e-19)
(0.88562 0.688593 6.61557e-20)
(0.915936 0.673408 -1.16526e-19)
(0.931131 0.645228 -1.37468e-20)
(0.939357 0.612769 -5.72433e-22)
(0.94476 0.580285 -1.17386e-20)
(0.949218 0.549516 -6.28809e-20)
(0.953493 0.520976 3.50049e-21)
(0.957862 0.494672 -1.02421e-20)
(0.962413 0.470442 7.81067e-20)
(0.967168 0.448084 -2.20966e-19)
(0.972085 0.427423 2.05687e-19)
(0.977032 0.408334 1.13496e-19)
(0.981864 0.390662 -2.9662e-20)
(0.986846 0.374075 1.65541e-20)
(0.992898 0.358577 2.03459e-19)
(1.00035 0.345679 -8.39828e-20)
(0.217162 0.206118 -3.6541e-20)
(0.502229 0.472284 9.16408e-20)
(0.681394 0.61824 -1.05371e-19)
(0.786203 0.679617 1.41959e-19)
(0.843481 0.689356 -9.29669e-21)
(0.873725 0.67162 -2.25794e-20)
(0.890163 0.64177 7.79858e-21)
(0.900235 0.608268 -3.69266e-20)
(0.907657 0.57511 3.75768e-20)
(0.914085 0.543847 3.12317e-20)
(0.920187 0.514877 2.1381e-20)
(0.926218 0.488134 -3.56811e-22)
(0.932293 0.463401 7.95009e-20)
(0.93849 0.440427 -8.35194e-20)
(0.944845 0.418998 9.70157e-20)
(0.951278 0.398976 -2.0012e-19)
(0.957696 0.380153 2.2798e-19)
(0.96456 0.361875 -1.97077e-19)
(0.972872 0.34389 -1.27914e-19)
(0.981476 0.329708 2.2625e-19)
(0.206801 0.21126 5.28405e-20)
(0.476013 0.479098 2.72869e-21)
(0.645202 0.622171 1.68161e-20)
(0.744721 0.679734 -1.11778e-20)
(0.800122 0.686284 -1.35664e-20)
(0.830685 0.666367 9.21012e-21)
(0.848624 0.635207 -1.08318e-19)
(0.860691 0.600977 7.15718e-20)
(0.8702 0.567414 7.76979e-20)
(0.87861 0.535898 -1.15449e-19)
(0.886503 0.506724 1.43148e-19)
(0.894105 0.479768 -5.30163e-20)
(0.901519 0.454758 1.11796e-19)
(0.908829 0.431386 -1.76982e-19)
(0.916085 0.40935 3.70719e-19)
(0.923249 0.388391 -8.13355e-20)
(0.930346 0.368085 -2.24217e-20)
(0.938068 0.347134 2.50119e-19)
(0.947193 0.323568 -1.20961e-19)
(0.952575 0.300012 5.85342e-20)
(0.195318 0.214758 -2.23241e-20)
(0.44798 0.482429 -1.63626e-20)
(0.60733 0.621952 -2.88206e-20)
(0.701994 0.675699 1.32736e-20)
(0.755964 0.679354 -1.15617e-20)
(0.787184 0.657636 -1.29446e-19)
(0.806839 0.625532 1.94638e-19)
(0.821016 0.590893 1.46559e-20)
(0.832666 0.557205 -2.16538e-20)
(0.843075 0.52569 5.80835e-21)
(0.852755 0.496569 7.10863e-20)
(0.861902 0.469684 1.23717e-19)
(0.870598 0.444762 7.27336e-20)
(0.878882 0.421513 -1.74923e-19)
(0.886744 0.399679 -5.27411e-20)
(0.894126 0.379064 -5.3271e-21)
(0.901142 0.359398 3.53299e-20)
(0.908408 0.339971 5.83559e-21)
(0.915848 0.320063 3.84878e-19)
(0.918666 0.301858 -2.6839e-19)
(0.182901 0.21653 9.6245e-20)
(0.418525 0.482188 5.68581e-21)
(0.568246 0.617534 -9.65311e-20)
(0.658481 0.667497 2.78133e-19)
(0.711422 0.668571 7.16107e-20)
(0.743585 0.645437 -1.89556e-19)
(0.765128 0.612753 1.83351e-19)
(0.781504 0.578022 -4.55483e-20)
(0.795334 0.544483 1.667e-19)
(0.807757 0.513216 8.02853e-20)
(0.819238 0.484374 -3.6277e-19)
(0.829964 0.457772 -4.06868e-20)
(0.840022 0.433136 5.1222e-19)
(0.849451 0.410181 -6.28558e-19)
(0.858232 0.388663 5.81407e-19)
(0.866297 0.368378 2.03461e-19)
(0.873721 0.349041 -7.18864e-19)
(0.880924 0.330063 3.50224e-19)
(0.887717 0.311142 -7.05545e-20)
(0.890511 0.294744 8.40201e-20)
(0.169748 0.216523 -2.35341e-19)
(0.388053 0.478329 -2.45832e-19)
(0.528418 0.608907 1.66944e-19)
(0.614636 0.655145 -2.21023e-19)
(0.666903 0.653961 -6.24746e-19)
(0.700249 0.629797 -2.62548e-20)
(0.723812 0.596891 -1.86566e-19)
(0.742447 0.562383 4.61888e-21)
(0.758478 0.529266 -3.80492e-19)
(0.772918 0.498495 -3.87147e-19)
(0.786194 0.470168 -2.67408e-19)
(0.798492 0.444088 -1.15544e-20)
(0.809909 0.419985 -6.55788e-19)
(0.820498 0.397598 -8.62172e-21)
(0.830267 0.376712 3.21354e-19)
(0.839185 0.357162 -3.18776e-19)
(0.847337 0.338723 -2.48394e-19)
(0.855062 0.32095 2.39513e-19)
(0.862165 0.303658 -1.71048e-19)
(0.865722 0.288788 3.30897e-20)
(0.15606 0.214702 2.03157e-19)
(0.356967 0.470845 1.57158e-19)
(0.488303 0.596101 -9.23335e-21)
(0.570899 0.638692 -1.42281e-19)
(0.622803 0.635577 3.27499e-19)
(0.657526 0.610761 5.40618e-19)
(0.683203 0.577984 -5.73997e-20)
(0.704134 0.543997 7.204e-21)
(0.722373 0.511563 1.02207e-19)
(0.738833 0.481519 2.40926e-19)
(0.753914 0.453918 3.51815e-19)
(0.76781 0.428553 -2.87479e-19)
(0.780634 0.405165 2.80257e-19)
(0.792455 0.383504 -9.90563e-20)
(0.803305 0.36337 3.29155e-19)
(0.813183 0.344607 -1.28492e-19)
(0.822204 0.327019 -3.2182e-19)
(0.830708 0.310257 1.92137e-19)
(0.838531 0.294257 -2.76694e-19)
(0.843127 0.280645 -3.14158e-19)
(0.142042 0.211059 1.00887e-19)
(0.325664 0.45976 1.77966e-19)
(0.448349 0.579175 -1.86114e-19)
(0.527697 0.618215 5.32027e-21)
(0.579506 0.613496 3.22385e-20)
(0.615752 0.588397 2.65887e-19)
(0.643604 0.556083 -3.89674e-19)
(0.666838 0.522907 3.69021e-19)
(0.687273 0.491402 -3.74201e-20)
(0.705736 0.462301 1.00343e-19)
(0.722614 0.43562 1.64053e-19)
(0.738114 0.41115 -3.13186e-19)
(0.75237 0.388636 1.48208e-19)
(0.765478 0.367849 1.41492e-19)
(0.777492 0.3486 5.25014e-20)
(0.788447 0.330742 -2.68707e-19)
(0.798481 0.314094 9.04887e-19)
(0.807928 0.298358 -5.08281e-19)
(0.816622 0.283506 9.21185e-19)
(0.82231 0.270879 -5.98461e-20)
(0.127897 0.205601 7.62831e-20)
(0.294529 0.445138 4.29538e-19)
(0.408986 0.558225 1.5517e-19)
(0.48544 0.593819 3.16507e-19)
(0.537378 0.587818 8.44148e-20)
(0.575252 0.56279 -5.09415e-19)
(0.605302 0.531261 7.90835e-19)
(0.630822 0.499168 4.10996e-19)
(0.65342 0.468825 1.75055e-20)
(0.673855 0.440869 5.31816e-19)
(0.692508 0.415286 8.7663e-20)
(0.709601 0.391864 5.54667e-20)
(0.725292 0.370361 3.17385e-19)
(0.739701 0.350555 -1.19369e-19)
(0.75291 0.33227 -1.24228e-19)
(0.764983 0.315363 7.39568e-19)
(0.776084 0.299665 -6.16557e-19)
(0.786535 0.284918 2.36924e-20)
(0.796162 0.271109 7.81399e-19)
(0.802966 0.25934 -8.01869e-22)
(0.113825 0.19836 -9.30685e-19)
(0.263938 0.427071 -1.51398e-19)
(0.370627 0.53338 -2.09821e-19)
(0.444518 0.56564 -1.61731e-19)
(0.496767 0.558668 -4.12607e-19)
(0.536332 0.534052 1.4128e-19)
(0.568571 0.503611 -1.98053e-19)
(0.596332 0.472857 5.94895e-20)
(0.62104 0.443893 -2.86822e-19)
(0.643398 0.417267 -2.69004e-19)
(0.663784 0.392944 5.82805e-20)
(0.682442 0.370713 -4.37067e-19)
(0.699553 0.35034 3.50706e-19)
(0.715259 0.331616 -1.2677e-19)
(0.729668 0.314372 3.94658e-19)
(0.74287 0.29847 -8.51791e-19)
(0.755045 0.283749 -1.62029e-19)
(0.766501 0.269981 -3.05878e-19)
(0.777061 0.257158 -8.20401e-19)
(0.784966 0.246171 -1.32628e-19)
(0.100018 0.189384 1.50932e-19)
(0.234246 0.405684 -1.63834e-20)
(0.333662 0.504797 -2.37078e-19)
(0.405299 0.533839 8.38566e-20)
(0.458002 0.526196 -1.69249e-19)
(0.499283 0.502313 -1.86188e-21)
(0.533669 0.473243 2.29256e-19)
(0.563601 0.444069 -3.42806e-19)
(0.590344 0.416685 1.32989e-19)
(0.614555 0.391564 -7.70242e-20)
(0.636617 0.36865 2.13962e-20)
(0.656791 0.347736 -3.8252e-19)
(0.675282 0.328601 -4.6437e-19)
(0.692255 0.311046 -1.77146e-20)
(0.707838 0.29491 5.16949e-19)
(0.722147 0.28006 2.38016e-20)
(0.735373 0.266343 6.53507e-19)
(0.747803 0.25356 -9.53162e-19)
(0.75927 0.241697 5.06409e-19)
(0.768245 0.231465 8.7508e-19)
(0.0866609 0.17874 -1.34876e-19)
(0.205793 0.38113 7.2504e-20)
(0.298461 0.472663 4.71431e-19)
(0.368129 0.498603 1.16556e-19)
(0.421389 0.490574 -1.56834e-19)
(0.464375 0.467725 1.23879e-19)
(0.500835 0.440293 4.85998e-19)
(0.532846 0.412921 -3.94968e-19)
(0.561528 0.387305 3.64922e-20)
(0.587504 0.363847 -1.4375e-19)
(0.611164 0.342478 5.19274e-19)
(0.632788 0.322999 3.70676e-19)
(0.652601 0.305201 -5.39203e-20)
(0.67079 0.288897 -5.61359e-19)
(0.687504 0.273933 3.01196e-20)
(0.702875 0.260183 -6.91803e-20)
(0.717103 0.247504 3.29759e-19)
(0.730457 0.235721 5.35985e-19)
(0.742786 0.224814 4.67742e-19)
(0.752789 0.215336 -7.83128e-19)
(0.0739305 0.166513 -8.51666e-20)
(0.178897 0.35359 3.62784e-19)
(0.265367 0.437192 -3.52937e-19)
(0.333328 0.460146 4.91758e-19)
(0.387216 0.451997 -2.66274e-19)
(0.431859 0.430462 1.92066e-19)
(0.470294 0.404913 4.84949e-19)
(0.504266 0.379548 -5.83566e-19)
(0.534772 0.355871 2.65682e-19)
(0.562409 0.334224 3.35671e-19)
(0.587573 0.314526 -4.55607e-19)
(0.610563 0.29659 -3.17438e-20)
(0.631624 0.280219 -3.64306e-19)
(0.650961 0.265241 5.8517e-19)
(0.668741 0.251511 -3.16746e-19)
(0.685114 0.238909 3.40047e-19)
(0.700282 0.227307 -6.11695e-20)
(0.714496 0.216547 2.10318e-19)
(0.727634 0.206604 4.81009e-20)
(0.738607 0.197898 -1.22684e-19)
(0.061991 0.152803 -2.62236e-19)
(0.15385 0.32327 -6.01296e-19)
(0.234696 0.398625 1.58305e-19)
(0.301194 0.418703 -5.06668e-19)
(0.355743 0.410683 -4.79681e-19)
(0.401967 0.390718 -3.44628e-19)
(0.442251 0.367276 2.68336e-19)
(0.478046 0.344104 2.06015e-19)
(0.510245 0.322525 -1.24841e-21)
(0.53942 0.302821 -1.79375e-19)
(0.565978 0.28491 -3.2381e-19)
(0.590236 0.268615 2.91478e-19)
(0.612455 0.253756 -1.00473e-19)
(0.632859 0.240175 -4.95546e-19)
(0.651628 0.227737 3.22106e-19)
(0.668929 0.216332 -2.41966e-19)
(0.684963 0.205844 -9.84427e-20)
(0.699966 0.196137 -2.75651e-19)
(0.713849 0.187175 -2.4917e-19)
(0.725729 0.179269 6.46151e-20)
(0.0509942 0.137725 2.2899e-19)
(0.130924 0.2904 1.18365e-19)
(0.206737 0.357225 1.81199e-19)
(0.271993 0.37453 -6.1916e-19)
(0.327209 0.366866 6.62386e-19)
(0.374909 0.348705 2.52996e-21)
(0.416894 0.327572 5.24172e-21)
(0.454355 0.306763 -4.02206e-19)
(0.488096 0.287422 3.75107e-19)
(0.518674 0.269783 -2.61143e-19)
(0.546503 0.253762 7.82577e-20)
(0.571917 0.239198 -3.48854e-19)
(0.595193 0.225929 -1.65775e-19)
(0.616569 0.213809 -7.89602e-20)
(0.63624 0.20272 5.96217e-19)
(0.654384 0.192558 -2.92512e-19)
(0.671202 0.183223 -2.63891e-19)
(0.686916 0.174597 2.7102e-19)
(0.701476 0.166637 -2.22487e-19)
(0.714188 0.159567 1.73596e-19)
(0.0410783 0.121408 4.88257e-19)
(0.110361 0.25523 -2.94849e-19)
(0.18175 0.313276 4.41461e-20)
(0.245967 0.327906 5.15569e-19)
(0.301828 0.3208 2.04587e-19)
(0.350873 0.304651 2.53261e-19)
(0.394388 0.286007 2.51958e-19)
(0.433343 0.267711 5.33704e-19)
(0.468464 0.250735 -1.22208e-19)
(0.500295 0.235269 2.91642e-19)
(0.52926 0.221232 4.23225e-19)
(0.555707 0.208479 1.55725e-19)
(0.579927 0.196868 2.81687e-19)
(0.602171 0.18627 1.02073e-19)
(0.622648 0.17658 5.98397e-20)
(0.641543 0.167706 -4.34807e-20)
(0.659057 0.15956 3.48476e-19)
(0.675401 0.152044 2.14599e-19)
(0.690563 0.145111 -1.9519e-19)
(0.704024 0.138913 1.84269e-19)
(0.0323668 0.103993 -3.2444e-19)
(0.0923771 0.21803 3.64659e-20)
(0.159964 0.267082 -9.3593e-20)
(0.223329 0.279124 -2.84267e-19)
(0.279788 0.272757 -1.50264e-19)
(0.330026 0.2588 -2.73101e-19)
(0.374884 0.242803 1.27011e-19)
(0.415143 0.227151 -4.90292e-19)
(0.451468 0.212651 2.89356e-19)
(0.484391 0.199451 -3.99852e-19)
(0.514347 0.187479 -2.47964e-19)
(0.541694 0.176609 -3.27866e-19)
(0.566738 0.166718 7.50711e-20)
(0.589739 0.157695 -7.41078e-20)
(0.610917 0.149449 8.82403e-20)
(0.630465 0.141903 4.74099e-20)
(0.648582 0.134981 9.41811e-20)
(0.665469 0.128602 -7.89615e-19)
(0.681156 0.122718 3.92804e-19)
(0.695274 0.117429 -2.35784e-19)
(0.024967 0.0856328 1.07328e-19)
(0.0771598 0.179089 2.16622e-19)
(0.141578 0.218965 -1.41194e-19)
(0.204261 0.228494 3.48857e-19)
(0.261252 0.223018 -5.57084e-20)
(0.312511 0.211411 4.03131e-19)
(0.358509 0.198193 7.79174e-20)
(0.399871 0.185297 -8.15897e-20)
(0.437212 0.173366 2.97056e-19)
(0.471059 0.162514 2.26743e-19)
(0.501851 0.152677 8.40658e-20)
(0.529958 0.143751 1.10442e-19)
(0.555697 0.135632 5.53217e-20)
(0.579336 0.12823 -2.34774e-19)
(0.601105 0.121469 -3.25805e-20)
(0.621203 0.115285 2.44732e-19)
(0.639827 0.109617 -1.67247e-19)
(0.65717 0.104399 -7.8904e-21)
(0.673299 0.0995869 -3.49701e-19)
(0.687976 0.0952403 7.04945e-19)
(0.0189697 0.0664883 2.87925e-19)
(0.0648659 0.138707 -3.45562e-19)
(0.126757 0.169259 1.62086e-19)
(0.188917 0.17634 -2.28968e-19)
(0.246356 0.171882 2.02004e-19)
(0.298448 0.16275 -3.50362e-19)
(0.34537 0.152423 -2.56424e-19)
(0.387624 0.142374 1.91155e-20)
(0.425786 0.13309 -3.48902e-19)
(0.460377 0.124652 -2.17557e-19)
(0.491843 0.117008 -3.76266e-19)
(0.520565 0.110074 -1.24239e-20)
(0.546864 0.103772 -1.45825e-19)
(0.571018 0.0980296 3.69213e-19)
(0.593263 0.0927873 2.54186e-19)
(0.613804 0.0879947 -8.54295e-20)
(0.632835 0.0836054 -7.71453e-20)
(0.650544 0.0795693 -3.46524e-21)
(0.667029 0.0758474 9.54166e-21)
(0.68216 0.0724738 1.3934e-19)
(0.0144481 0.0467292 -7.20567e-20)
(0.055622 0.0971978 -2.46417e-19)
(0.115634 0.118312 -1.53605e-19)
(0.177421 0.122994 -9.60805e-20)
(0.235208 0.119654 -1.98936e-19)
(0.287933 0.113097 3.40745e-19)
(0.335554 0.105745 -3.65494e-20)
(0.37848 0.0986145 -8.19508e-20)
(0.417259 0.0920373 3.35017e-21)
(0.45241 0.0860653 2.40322e-19)
(0.484384 0.0806589 -2.28141e-19)
(0.513567 0.0757586 2.2304e-19)
(0.540288 0.0713072 1.04617e-19)
(0.564829 0.0672541 -1.90565e-19)
(0.587432 0.0635568 4.16584e-20)
(0.608305 0.0601792 1.22384e-19)
(0.627641 0.0570888 4.25345e-20)
(0.645624 0.0542503 -2.96283e-20)
(0.662378 0.0516341 -2.57137e-19)
(0.677852 0.0492578 2.04934e-19)
(0.0114573 0.0265314 6.49121e-20)
(0.0495228 0.0548851 7.87774e-20)
(0.10831 0.0664797 2.21688e-20)
(0.169864 0.0687989 -1.66395e-20)
(0.22789 0.0666473 4.75519e-20)
(0.281039 0.0627369 7.26522e-20)
(0.329124 0.0584203 2.75533e-20)
(0.372496 0.0542593 3.35836e-20)
(0.411685 0.0504319 -7.12435e-20)
(0.447207 0.0469625 1.33532e-19)
(0.479517 0.043826 -3.15154e-20)
(0.509006 0.0409867 -2.5459e-21)
(0.536006 0.0384109 3.19625e-20)
(0.560803 0.0360689 3.60299e-20)
(0.583643 0.0339354 -9.67201e-20)
(0.604737 0.0319896 6.36647e-20)
(0.624274 0.0302123 4.17375e-20)
(0.642438 0.0285831 3.56247e-20)
(0.65937 0.0270836 7.63221e-20)
(0.675072 0.0257222 3.16111e-20)
(0.0100338 0.00607508 -1.32799e-20)
(0.0466311 0.0120986 2.75882e-20)
(0.104851 0.0141258 -3.85936e-20)
(0.166306 0.0141037 2.42497e-20)
(0.224456 0.0131818 1.42205e-20)
(0.277814 0.0119592 6.37829e-21)
(0.326124 0.0107144 1.50318e-20)
(0.369712 0.00955261 -4.30827e-20)
(0.409098 0.00850034 2.74836e-20)
(0.4448 0.00755549 9.60772e-21)
(0.477272 0.0067078 -5.55228e-22)
(0.506908 0.00594615 5.88866e-20)
(0.534043 0.00526051 -1.78779e-20)
(0.558964 0.00464224 -1.71125e-20)
(0.581918 0.00408404 -1.643e-20)
(0.603117 0.00357982 2.54732e-21)
(0.622752 0.00312409 -2.19366e-20)
(0.641002 0.00271088 4.19104e-21)
(0.65802 0.00233474 8.24282e-22)
(0.673833 0.00199842 -2.78619e-21)
(0.0101952 -0.014457 8.42465e-21)
(0.0469773 -0.0308277 -4.48216e-20)
(0.105288 -0.0383825 5.34215e-20)
(0.166779 -0.0407399 -4.01407e-20)
(0.224933 -0.0404199 -1.87213e-20)
(0.27828 -0.0389423 5.60403e-20)
(0.326575 -0.0371045 4.66616e-21)
(0.370145 -0.0352581 1.29573e-21)
(0.409516 -0.0335276 2.61257e-20)
(0.445203 -0.0319414 1.34941e-20)
(0.477662 -0.0304945 -1.06737e-20)
(0.507286 -0.0291735 -3.73967e-20)
(0.53441 -0.0279646 3.57019e-21)
(0.55932 -0.0268552 -3.24468e-21)
(0.582265 -0.0258348 3.48229e-20)
(0.603455 -0.0248945 -2.09477e-20)
(0.623082 -0.0240261 2.87142e-20)
(0.641325 -0.0232213 -4.30319e-20)
(0.658336 -0.0224722 5.02931e-23)
(0.67414 -0.0217802 -9.06081e-21)
(0.0119401 -0.0348812 -2.79554e-20)
(0.0505592 -0.0735586 1.40881e-19)
(0.109619 -0.0906771 9.49076e-20)
(0.171279 -0.0953791 6.28063e-20)
(0.229318 -0.0938343 7.83422e-20)
(0.282436 -0.0896734 -1.9122e-20)
(0.330474 -0.0847673 8.67675e-20)
(0.373796 -0.0799246 1.77223e-20)
(0.412937 -0.0754215 -7.80507e-21)
(0.448416 -0.0713129 -6.19208e-20)
(0.480687 -0.067579 6.41307e-20)
(0.510139 -0.0641821 -8.70503e-20)
(0.537106 -0.0610845 6.32135e-20)
(0.561873 -0.0582526 7.23695e-20)
(0.584684 -0.0556582 9.56709e-20)
(0.605751 -0.0532772 -6.28974e-20)
(0.625264 -0.0510881 1.77107e-20)
(0.643406 -0.0490679 6.63046e-20)
(0.660317 -0.047196 -6.27163e-20)
(0.675993 -0.0454797 4.7331e-20)
(0.0152481 -0.055015 -2.69562e-19)
(0.0573418 -0.11576 -1.35384e-19)
(0.117808 -0.142391 -1.50541e-19)
(0.179772 -0.149462 -1.18384e-20)
(0.237581 -0.146739 -8.11827e-20)
(0.290255 -0.139941 -9.96456e-20)
(0.337798 -0.132006 1.7567e-19)
(0.380641 -0.1242 8.95124e-20)
(0.419342 -0.116952 1.10042e-19)
(0.454421 -0.110345 -1.1975e-19)
(0.48633 -0.104345 8.86568e-20)
(0.515452 -0.0988903 1.07981e-19)
(0.542118 -0.0939199 3.79866e-20)
(0.566609 -0.0893797 -3.61495e-20)
(0.589164 -0.0852235 7.73504e-21)
(0.609994 -0.0814128 -1.5645e-20)
(0.629289 -0.0779122 -1.52579e-19)
(0.647235 -0.0746841 2.36684e-20)
(0.663954 -0.0716966 1.48142e-19)
(0.679384 -0.0689668 -1.9917e-19)
(0.0200798 -0.0746782 -8.82726e-20)
(0.0672577 -0.157104 1.31555e-19)
(0.129784 -0.193161 3.04116e-20)
(0.192194 -0.202641 -5.64636e-20)
(0.249665 -0.198815 -1.60168e-19)
(0.301686 -0.189455 -3.43299e-19)
(0.348501 -0.178555 -3.26554e-19)
(0.39064 -0.167839 -2.3332e-20)
(0.428693 -0.157892 -1.89758e-19)
(0.463184 -0.148825 -2.83655e-19)
(0.494559 -0.140593 2.19976e-19)
(0.523196 -0.133111 -3.24302e-19)
(0.549419 -0.126294 6.41919e-20)
(0.573503 -0.120068 -2.07098e-20)
(0.595682 -0.114371 -6.78077e-20)
(0.616162 -0.109148 -8.55876e-20)
(0.635136 -0.104351 1.38917e-19)
(0.652794 -0.0999272 1.10903e-19)
(0.66923 -0.0958356 1.90601e-19)
(0.684301 -0.0921105 -2.85552e-19)
(0.0263772 -0.0936958 4.79769e-20)
(0.0802075 -0.197266 4.65191e-19)
(0.145442 -0.242632 1.33172e-19)
(0.208449 -0.254573 3.22072e-19)
(0.265484 -0.249748 -1.20148e-19)
(0.316654 -0.23793 1.85193e-19)
(0.362516 -0.224156 -5.78674e-20)
(0.403732 -0.210604 3.75222e-19)
(0.440934 -0.19802 -1.92823e-19)
(0.474652 -0.186548 2.27406e-19)
(0.505328 -0.176131 1.97359e-19)
(0.533329 -0.166661 2.10723e-19)
(0.55897 -0.158034 -1.88574e-19)
(0.58252 -0.150154 1.61556e-19)
(0.604205 -0.142942 -2.247e-19)
(0.624225 -0.136332 -6.17369e-20)
(0.642777 -0.130259 -1.47726e-19)
(0.660054 -0.124657 -6.27553e-20)
(0.676121 -0.119477 2.48648e-19)
(0.690723 -0.114782 -4.12151e-19)
(0.0340644 -0.111899 -1.91539e-19)
(0.0960603 -0.235933 -2.29443e-20)
(0.164644 -0.290456 -7.63206e-20)
(0.228408 -0.304927 -2.6892e-19)
(0.284926 -0.299235 4.62695e-20)
(0.335059 -0.28509 -4.20922e-19)
(0.379753 -0.268554 -1.76484e-19)
(0.419835 -0.252262 -1.35574e-20)
(0.455992 -0.23712 -4.44352e-19)
(0.488761 -0.223311 -1.37751e-19)