/*--------------------------------*- C++ -*----------------------------------*\
  =========                 |
  \\      /  F ield         | OpenFOAM: The Open Source CFD Toolbox
   \\    /   O peration     | Website:  https://openfoam.org
    \\  /    A nd           | Version:  6.0
     \\/     M anipulation  |
\*---------------------------------------------------------------------------*/
FoamFile
{
    version     2.0;
    format      ascii;
    class       surfaceScalarField;
    location    "39";
    object      phi;
}
// * * * * * * * * * * * * * * * * * * * * * * * * * * * * * * * * * * * * * //

dimensions      [0 3 -1 0 0 0 0];

internalField   nonuniform List<scalar> 
15760
(
-2.46987e-06
1.6972e-06
7.7267e-07
-8.78352e-06
4.43108e-06
1.88257e-06
-1.803e-05
6.56936e-06
2.67712e-06
-2.94442e-05
8.17727e-06
3.23697e-06
-4.24008e-05
9.33163e-06
3.62497e-06
-5.64032e-05
1.01114e-05
3.89104e-06
-7.1071e-05
1.05935e-05
4.07428e-06
-8.61269e-05
1.08512e-05
4.20475e-06
-0.000101385
1.09526e-05
4.30511e-06
-0.000116737
1.09607e-05
4.39192e-06
-0.000132147
1.09324e-05
4.47686e-06
-0.000147633
1.09188e-05
4.56764e-06
-0.000163266
1.09644e-05
4.66889e-06
-0.000179156
1.11069e-05
4.78274e-06
-0.000195442
1.1377e-05
4.90935e-06
-0.000212288
1.1798e-05
5.04735e-06
-0.000229867
1.23855e-05
5.1941e-06
-0.000248361
1.31478e-05
5.34593e-06
-0.000267947
1.40877e-05
5.49826e-06
1.52087e-05
5.64623e-06
-0.000288802
-2.47756e-06
4.17476e-06
-8.8041e-06
1.07576e-05
-1.80604e-05
1.58256e-05
-2.94747e-05
1.95916e-05
-4.24162e-05
2.22731e-05
-5.63831e-05
2.40782e-05
-7.09898e-05
2.52002e-05
-8.59538e-05
2.58152e-05
-0.000101083
2.6082e-05
-0.000116265
2.61428e-05
-0.000131456
2.61235e-05
-0.000146672
2.61343e-05
-0.000161977
2.627e-05
-0.00017748
2.66093e-05
-0.000193318
2.72154e-05
-0.000209656
2.81352e-05
-0.000226669
2.93993e-05
-0.000244544
3.1022e-05
-0.000263461
3.30055e-05
3.53525e-05
-0.000283605
-2.48508e-06
6.65984e-06
-8.8191e-06
1.70916e-05
-1.80701e-05
2.50766e-05
-2.94558e-05
3.09774e-05
-4.2336e-05
3.51533e-05
-5.62e-05
3.79422e-05
-7.06528e-05
3.9653e-05
-8.54016e-05
4.0564e-05
-0.000100244
4.09241e-05
-0.000115055
4.0954e-05
-0.00012978
4.08489e-05
-0.000144425
4.07792e-05
-0.000159047
4.08913e-05
-0.000173745
4.13082e-05
-0.000188658
4.21285e-05
-0.00020395
4.34267e-05
-0.000219803
4.52522e-05
-0.00023641
4.76287e-05
-0.000253965
5.0561e-05
5.40524e-05
-0.000272665
-2.49297e-06
9.15281e-06
-8.82977e-06
2.34284e-05
-1.80613e-05
3.43081e-05
-2.93914e-05
4.23074e-05
-4.21675e-05
4.79294e-05
-5.58667e-05
5.16414e-05
-7.0081e-05
5.38673e-05
-8.45031e-05
5.49862e-05
-9.89142e-05
5.53352e-05
-0.000113173
5.52131e-05
-0.000127208
5.48838e-05
-0.000141008
5.4579e-05
-0.000154616
5.44996e-05
-0.000168124
5.48161e-05
-0.000181664
5.56681e-05
-0.000195401
5.71634e-05
-0.000209525
5.93765e-05
-0.000224243
6.2347e-05
-0.000239769
6.6087e-05
7.06039e-05
-0.000256321
-2.50176e-06
1.16546e-05
-8.83708e-06
2.97638e-05
-1.80356e-05
4.35066e-05
-2.92845e-05
5.35564e-05
-4.19168e-05
6.05617e-05
-5.53955e-05
6.51201e-05
-6.92969e-05
6.77686e-05
-8.32956e-05
6.89849e-05
-9.71525e-05
6.91921e-05
-0.000110704
6.87648e-05
-0.000123855
6.80348e-05
-0.000136572
6.72959e-05
-0.000148878
6.68058e-05
-0.00016085
6.67875e-05
-0.00017261
6.74282e-05
-0.000184324
6.88775e-05
-0.000196192
7.12443e-05
-0.000208438
7.45933e-05
-0.000221304
7.89531e-05
8.43406e-05
-0.000235041
-2.51157e-06
1.41662e-05
-8.84044e-06
3.60926e-05
-1.79912e-05
5.26574e-05
-2.91327e-05
6.46979e-05
-4.1583e-05
7.3012e-05
-5.47897e-05
7.83269e-05
-6.83124e-05
8.12913e-05
-8.18058e-05
8.24783e-05
-9.50067e-05
8.23931e-05
-0.000107725
8.14829e-05
-0.000119835
8.01453e-05
-0.000131275
7.87353e-05
-0.000142039
7.757e-05
-0.000152181
7.69295e-05
-0.000161809
7.70568e-05
-0.000171086
7.81539e-05
-0.000180219
8.03772e-05
-0.000189456
8.38306e-05
-0.000199075
8.85723e-05
9.46403e-05
-0.000209375
-2.52168e-06
1.66878e-05
-8.83631e-06
4.24073e-05
-1.79203e-05
6.17413e-05
-2.89236e-05
7.57013e-05
-4.11496e-05
8.52379e-05
-5.40319e-05
9.12092e-05
-6.71137e-05
9.43731e-05
-8.00292e-05
9.53938e-05
-9.24899e-05
9.48539e-05
-0.000104275
9.32677e-05
-0.000115224
9.10945e-05
-0.000125237
8.87485e-05
-0.000134273
8.66061e-05
-0.000142353
8.50091e-05
-0.00014956
8.42642e-05
-0.000156046
8.46394e-05
-0.000162023
8.6355e-05
-0.000167767
8.95739e-05
-0.000173599
9.4405e-05
0.000100926
-0.000179885
-2.53011e-06
1.9218e-05
-8.81689e-06
4.8694e-05
-1.78061e-05
7.07305e-05
-2.86295e-05
8.65247e-05
-4.05775e-05
9.7186e-05
-5.30726e-05
0.000103704
-6.56439e-05
0.000106944
-7.79072e-05
0.000107657
-8.95492e-05
0.000106496
-0.000100317
0.000104035
-0.000110012
0.000100789
-0.000118489
9.7226e-05
-0.000125662
9.37789e-05
-0.000131506
9.08532e-05
-0.000136069
8.88271e-05
-0.000139477
8.80477e-05
-0.000141943
8.88204e-05
-0.000143762
9.13937e-05
-0.000145315
9.5958e-05
0.000102661
-0.00014705
-2.53335e-06
2.17513e-05
-8.76912e-06
5.49298e-05
-1.76209e-05
7.95823e-05
-2.82034e-05
9.71072e-05
-3.97977e-05
0.00010878
-5.18185e-05
0.000115725
-6.37861e-05
0.000118912
-7.53021e-05
0.000119173
-8.60318e-05
0.000117226
-9.56921e-05
0.000113696
-0.000104045
0.000109142
-0.000110898
0.000104079
-0.000116107
9.89889e-05
-0.000119593
9.43388e-05
-0.000121348
9.05822e-05
-0.000121459
8.81582e-05
-0.000120118
8.74801e-05
-0.00011764
8.89155e-05
-0.000114462
9.27802e-05
9.93406e-05
-0.000111143
-2.52627e-06
2.42776e-05
-8.67438e-06
6.10779e-05
-1.73248e-05
8.82326e-05
-2.7577e-05
0.000107359
-3.8706e-05
0.000119909
-5.01242e-05
0.000127143
-6.13487e-05
0.000130136
-7.19739e-05
0.000129798
-8.16508e-05
0.000126902
-9.0072e-05
0.000122117
-9.69639e-05
0.000116034
-0.000102085
0.0001092
-0.000105234
0.000102137
-0.000106259
9.53635e-05
-0.000105082
8.94054e-05
-0.000101726
8.4802e-05
-9.63414e-05
8.2096e-05
-8.92393e-05
8.18134e-05
-8.09129e-05
8.44538e-05
9.04781e-05
-7.20504e-05
-2.50238e-06
2.678e-05
-8.50917e-06
6.70847e-05
-1.68668e-05
9.65903e-05
-2.66609e-05
0.000117154
-3.71629e-05
0.000130411
-4.77879e-05
0.000137768
-5.80564e-05
0.000140405
-6.7564e-05
0.000139306
-7.59572e-05
0.000135296
-8.29148e-05
0.000129074
-8.81374e-05
0.000121257
-9.1343e-05
0.000112406
-9.22711e-05
0.000103065
-9.06965e-05
9.3789e-05
-8.64548e-05
8.51637e-05
-7.94781e-05
7.78254e-05
-6.98429e-05
7.24608e-05
-5.78228e-05
6.97933e-05
-4.39474e-05
7.05783e-05
7.55814e-05
-2.90506e-05
-2.45443e-06
2.92344e-05
-8.24667e-06
7.2877e-05
-1.61877e-05
0.000104531
-2.53482e-05
0.000126314
-3.49974e-05
0.000140061
-4.45554e-05
0.000147326
-5.35516e-05
0.000149401
-6.15908e-05
0.000147345
-6.83258e-05
0.000142031
-7.34362e-05
0.000134185
-7.66128e-05
0.000124433
-7.75493e-05
0.000113342
-7.59413e-05
0.000101457
-7.14963e-05
8.93441e-05
-6.39582e-05
7.76255e-05
-5.31491e-05
6.70162e-05
-3.90325e-05
5.83442e-05
-2.17968e-05
5.25576e-05
-1.96356e-06
5.0745e-05
5.4126e-05
1.94918e-05
-2.37525e-06
3.16096e-05
-7.85945e-06
7.83612e-05
-1.52245e-05
0.000111896
-2.35225e-05
0.000134612
-3.20173e-05
0.000148555
-4.01328e-05
0.000155442
-4.74083e-05
0.000156677
-5.34628e-05
0.0001534
-5.79648e-05
0.000146533
-6.06092e-05
0.000136829
-6.10978e-05
0.000124922
-5.91257e-05
0.00011137
-5.43731e-05
9.67048e-05
-4.6507e-05
8.14779e-05
-3.51966e-05
6.63151e-05
-2.01523e-05
5.1972e-05
-1.19614e-06
3.9388e-05
2.16276e-05
2.97339e-05
4.78811e-05
2.44916e-05
2.55159e-05
7.64911e-05
-2.25879e-06
3.38684e-05
-7.32254e-06
8.34249e-05
-1.39171e-05
0.000118491
-2.10676e-05
0.000141762
-2.80242e-05
0.000155512
-3.42071e-05
0.000161624
-3.91601e-05
0.00016163
-4.25138e-05
0.000156753
-4.39555e-05
0.000147974
-4.32053e-05
0.000136079
-3.9996e-05
0.000121713
-3.40547e-05
0.000105429
-2.50882e-05
8.77383e-05
-1.27727e-05
6.91625e-05
3.24611e-06
5.02963e-05
2.33323e-05
3.18858e-05
4.77999e-05
1.49204e-05
7.67943e-05
7.39474e-07
0.000110065
-8.77917e-06
-1.0974e-05
0.000146555
-2.10112e-06
3.59695e-05
-6.61637e-06
8.79402e-05
-1.2214e-05
0.000124089
-1.78782e-05
0.000147427
-2.28308e-05
0.000160465
-2.64732e-05
0.000165267
-2.83389e-05
0.000163495
-2.8057e-05
0.000156472
-2.53251e-05
0.000145242
-1.98872e-05
0.000130641
-1.15163e-05
0.000113342
2.32083e-09
9.39101e-05
1.48892e-05
7.28514e-05
3.33897e-05
5.0662e-05
5.57929e-05
2.78931e-05
8.24404e-05
5.2383e-06
0.000113705
-1.63437e-05
0.000149906
-3.54616e-05
0.00019108
-4.99534e-05
-5.62828e-05
0.000236389
-1.9009e-06
3.78705e-05
-5.72852e-06
9.17678e-05
-1.00762e-05
0.000128436
-1.38678e-05
0.000151218
-1.62758e-05
0.000162873
-1.66592e-05
0.00016565
-1.45164e-05
0.000161352
-9.44974e-06
0.000151405
-1.14246e-06
0.000136935
1.06571e-05
0.000118842
2.61457e-05
9.78531e-05
4.54744e-05
7.45814e-05
6.87594e-05
4.95664e-05
9.60999e-05
2.33216e-05
0.000127606
-3.61315e-06
0.000163437
-3.0593e-05
0.000203837
-5.67436e-05
0.000249143
-8.07678e-05
0.000299679
-0.000100489
-0.000111667
0.000355064
-1.65922e-06
3.95297e-05
-4.65318e-06
9.47617e-05
-7.47718e-06
0.00013126
-8.97074e-06
0.000152712
-8.22976e-06
0.000162132
-4.54129e-06
0.000161962
2.66546e-06
0.000154146
1.38519e-05
0.000140218
2.93889e-05
0.000121398
4.95642e-05
9.86662e-05
7.45822e-05
7.28351e-05
0.000104558
4.46056e-05
0.000139511
1.46129e-05
0.000179366
-1.65326e-05
0.00022396
-4.82071e-05
0.000273086
-7.97197e-05
0.000326564
-0.000110221
0.000384352
-0.000138556
0.000446722
-0.00016286
-0.000178896
0.000513951
-1.37835e-06
4.0908e-05
-3.38794e-06
9.67713e-05
-4.39765e-06
0.00013227
-3.13473e-06
0.000151449
1.4114e-06
0.000157585
1.00598e-05
0.000153313
2.34888e-05
0.000140717
4.22677e-05
0.00012144
6.68712e-05
9.67947e-05
9.76793e-05
6.7858e-05
0.000134966
3.55481e-05
0.000178878
6.93479e-07
0.000229403
-3.5912e-05
0.000286334
-7.34635e-05
0.000349234
-0.000111107
0.000417418
-0.000147903
0.000489974
-0.000182777
0.000565879
-0.00021446
0.000644389
-0.00024137
-0.000261183
0.000726676
-1.05981e-06
4.19678e-05
-1.92795e-06
9.76395e-05
-8.14632e-07
0.000131157
3.69459e-06
0.00014694
1.27475e-05
0.000148533
2.73031e-05
0.000138758
4.81845e-05
0.000119835
7.61112e-05
9.35129e-05
0.00011171
6.11959e-05
0.000155512
2.40557e-05
0.000207936
-1.68759e-05
0.000269256
-6.06266e-05
0.000339557
-0.000106213
0.000418665
-0.000152572
0.000506051
-0.000198493
0.000600694
-0.000242546
0.000700914
-0.000282997
0.000804165
-0.000317712
0.000907179
-0.000344383
-0.000365178
0.00101117
-7.01828e-07
4.26697e-05
-2.58642e-07
9.71963e-05
3.31196e-06
0.000127586
1.1595e-05
0.000138657
2.59041e-05
0.000134223
4.73664e-05
0.000117296
7.69786e-05
9.0223e-05
0.000115638
5.48535e-05
0.000164153
1.26804e-05
0.000223243
-3.50337e-05
0.000293522
-8.71546e-05
0.000375485
-0.00014259
0.000469488
-0.000200215
0.000575708
-0.000258791
0.000694088
-0.000316873
0.000824208
-0.000372667
0.000964973
-0.000423762
0.00111362
-0.000466363
0.00126246
-0.000493214
-0.000490813
0.00138809
-2.97753e-07
4.29674e-05
1.64987e-06
9.52487e-05
8.05077e-06
0.000121185
2.06868e-05
0.000126021
4.10601e-05
0.00011385
7.04843e-05
8.78715e-05
0.00011014
5.05676e-05
0.0001611
3.89289e-06
0.000224341
-5.05601e-05
0.000300734
-0.000111427
0.000391048
-0.000177469
0.000495956
-0.000247498
0.000616064
-0.000320324
0.000752
-0.000394727
0.000904569
-0.000469442
0.00107507
-0.000543171
0.00126588
-0.000614566
0.00148172
-0.000682208
0.00173366
-0.000745154
-0.000802286
0.00204513
1.6804e-07
4.27994e-05
3.85113e-06
9.15656e-05
1.35112e-05
0.000111525
3.11483e-05
0.000108384
5.84676e-05
8.65308e-05
9.69723e-05
4.93668e-05
0.000148011
-4.71034e-07
0.000212792
-6.08884e-05
0.000292379
-0.000130147
0.000387676
-0.000206723
0.000499415
-0.000289208
0.000628168
-0.00037625
0.000774374
-0.00046653
0.00093842
-0.000558773
0.00112077
-0.000651796
0.00132219
-0.000744587
0.00154404
-0.000836419
0.00178881
-0.000926975
0.00206006
-0.00101641
-0.00109796
0.00235574
7.1624e-07
4.20831e-05
6.41537e-06
8.58664e-05
1.98342e-05
9.81063e-05
4.32042e-05
8.50136e-05
7.84362e-05
5.12989e-05
0.000127205
5.97584e-07
0.000190982
-6.42481e-05
0.000271026
-0.000140932
0.000368354
-0.000227475
0.00048371
-0.00032208
0.000617538
-0.000423036
0.000769974
-0.000528686
0.00094087
-0.000637426
0.00112984
-0.000747742
0.00133633
-0.000858283
0.00155969
-0.000967951
0.00179927
-0.001076
0.00205438
-0.00118209
0.00232402
-0.00128605
-0.0013795
0.00260556
1.37363e-06
4.07095e-05
9.42828e-06
7.78118e-05
2.71846e-05
8.03499e-05
5.71069e-05
5.50913e-05
0.000101296
7.11023e-06
0.000161554
-5.96607e-05
0.00023939
-0.000142084
0.000335978
-0.000237521
0.000452106
-0.000343603
0.000588116
-0.00045809
0.000743878
-0.000578798
0.00091878
-0.000703589
0.00111176
-0.000830407
0.00132137
-0.000957346
0.00154581
-0.00108273
0.00178303
-0.00120518
0.00203075
-0.00132371
0.00228639
-0.00143772
0.00254715
-0.00154682
-0.0016435
0.00281115
2.16945e-06
3.854e-05
1.298e-05
6.70012e-05
3.57289e-05
5.76011e-05
7.30962e-05
1.77239e-05
0.00012733
-4.71238e-05
0.00020028
-0.000132611
0.000293359
-0.000235163
0.000407471
-0.000351632
0.00054293
-0.000479061
0.000699403
-0.000614563
0.000875897
-0.000755291
0.00107078
-0.000898476
0.00128188
-0.00104151
0.00150656
-0.00118203
0.00174187
-0.00131803
0.00198464
-0.00144794
0.00223154
-0.00157062
0.00247918
-0.00168536
0.00272421
-0.00179185
-0.00188447
0.00296518
3.13185e-06
3.54082e-05
1.71536e-05
5.29794e-05
4.56101e-05
2.91446e-05
9.13548e-05
-2.80208e-05
0.000156706
-0.000112475
0.000243429
-0.000219334
0.000352655
-0.000344389
0.000484769
-0.000483746
0.000639333
-0.000633625
0.000815051
-0.000790281
0.00100981
-0.00095005
0.00122079
-0.00110946
0.00144463
-0.00126535
0.00167762
-0.00141502
0.00191592
-0.00155633
0.0021557
-0.00168772
0.00239329
-0.00180821
0.00262529
-0.00191736
0.00284869
-0.00201525
-0.00209835
0.00306257
4.28476e-06
3.11234e-05
2.20139e-05
3.52503e-05
5.6924e-05
-5.7655e-06
0.000111966
-8.30626e-05
0.000189404
-0.000189913
0.000290735
-0.000320666
0.000416559
-0.000470212
0.000566455
-0.000633643
0.000738934
-0.000806104
0.000931477
-0.000982824
0.00114069
-0.00115926
0.00136252
-0.00133129
0.00159257
-0.00149539
0.00182635
-0.0016488
0.00205956
-0.00178954
0.0022883
-0.00191646
0.0025092
-0.00202911
0.0027195
-0.00212767
0.00291711
-0.00221287
-0.00228304
0.00310181
5.6454e-06
2.5478e-05
2.75985e-05
1.32972e-05
6.97004e-05
-4.78674e-05
0.000134881
-0.000148243
0.000225173
-0.000280205
0.000341562
-0.000437055
0.00048382
-0.00061247
0.000650411
-0.000800234
0.000838524
-0.000994217
0.00104425
-0.00118855
0.0012629
-0.0013779
0.00148935
-0.00155774
0.00171848
-0.00172453
0.0019455
-0.00187582
0.00216624
-0.00201028
0.00237728
-0.0021275
0.0025761
-0.00222793
0.00276101
-0.00231258
0.00293111
-0.00238297
-0.00243899
0.00308706
7.22293e-06
1.82551e-05
3.39126e-05
-1.33924e-05
8.38903e-05
-9.78451e-05
0.000159898
-0.00022425
0.000263505
-0.000383812
0.000394889
-0.000568439
0.000552672
-0.000770253
0.000733913
-0.000981475
0.000934298
-0.0011946
0.00114852
-0.00140277
0.00137074
-0.00160013
0.00159516
-0.00178216
0.00181644
-0.0019458
0.00203003
-0.00208941
0.00223243
-0.00221268
0.00242121
-0.00231629
0.00259502
-0.00240173
0.0027534
-0.00247096
0.00289666
-0.00252622
-0.00256859
0.00302626
9.01785e-06
9.23726e-06
4.09258e-05
-4.53003e-05
9.93599e-05
-0.000156279
0.000186657
-0.000311547
0.000303635
-0.00050079
0.000449334
-0.000714138
0.000620916
-0.000941835
0.000813824
-0.00117438
0.00102221
-0.00140298
0.00123952
-0.00162008
0.0014592
-0.00181981
0.00167524
-0.0019982
0.00188265
-0.00215321
0.0020777
-0.00228446
0.00225798
-0.00239296
0.00242233
-0.00248064
0.00257062
-0.00255002
0.00270355
-0.0026039
0.00282239
-0.00264506
-0.0026754
0.0029292
1.10219e-05
-1.78459e-06
4.85712e-05
-8.28496e-05
0.00011589
-0.000223598
0.000214639
-0.000410296
0.00034456
-0.000630712
0.000503222
-0.0008728
0.000686076
-0.00112469
0.000886873
-0.00137518
0.00109838
-0.00161449
0.00131319
-0.0018349
0.00152452
-0.00203114
0.00172677
-0.00220045
0.00191584
-0.00234228
0.0020892
-0.00245782
0.00224577
-0.00254952
0.00238564
-0.00262051
0.00250981
-0.0026742
0.00261986
-0.00271394
0.00271764
-0.00274285
-0.00276326
0.00280551
1.32178e-05
-1.50023e-05
5.67453e-05
-0.000126377
0.000133176
-0.000300029
0.000243185
-0.000520305
0.000385089
-0.000772616
0.000554691
-0.0010424
0.000745595
-0.00131559
0.000949965
-0.00157955
0.00115953
-0.00182405
0.00136655
-0.00204192
0.00156463
-0.00222922
0.0017491
-0.00238492
0.00191713
-0.00251031
0.00206759
-0.00260828
0.0022007
-0.00268263
0.00231766
-0.00273748
0.0024203
-0.00277683
0.00251069
-0.00280433
0.00259099
-0.00282314
-0.00283577
0.00266349
1.55793e-05
-3.05817e-05
6.53091e-05
-0.000176107
0.00015084
-0.00038556
0.000271517
-0.000640982
0.000423901
-0.000925
0.000601822
-0.00122032
0.000797059
-0.00151083
0.00100048
-0.00178297
0.00120328
-0.00202685
0.00139801
-0.00223665
0.00157918
-0.00241039
0.00174345
-0.00254919
0.00188946
-0.00265631
0.00201742
-0.00273624
0.00212867
-0.00279389
0.00222523
-0.00283404
0.00230938
-0.00286098
0.00238341
-0.00287836
0.00244945
-0.00288919
-0.00289591
0.00250959
1.80712e-05
-4.86529e-05
7.40903e-05
-0.000232126
0.000168438
-0.000479907
0.000298777
-0.000771322
0.000459635
-0.00108586
0.00064279
-0.00140348
0.000838406
-0.00170645
0.00103651
-0.00198108
0.00122838
-0.00221871
0.00140738
-0.00241566
0.00156938
-0.00257238
0.00171253
-0.00269235
0.00183691
-0.00278069
0.0019439
-0.00284323
0.00203564
-0.00288564
0.00211462
-0.00291301
0.00218329
-0.00292964
0.00224389
-0.00293896
0.00229837
-0.00294367
-0.00294601
0.00234848
2.0649e-05
-6.93019e-05
8.28867e-05
-0.000294364
0.000185476
-0.000582496
0.000324071
-0.000909917
0.000490979
-0.00125277
0.000676013
-0.00158851
0.000868096
-0.00189853
0.001057
-0.00216998
0.00123463
-0.00239635
0.00139568
-0.0025767
0.00153753
-0.00271424
0.00165988
-0.00281469
0.00176401
-0.00288482
0.00185217
-0.00293138
0.00192699
-0.00296046
0.00199113
-0.00297715
0.00204697
-0.00298548
0.00209655
-0.00298854
0.00214154
-0.00298865
-0.00298779
0.00218332
2.32595e-05
-9.25613e-05
9.1473e-05
-0.000362577
0.000201438
-0.000692461
0.000346526
-0.001055
0.000516768
-0.00142301
0.000700266
-0.00177201
0.000885217
-0.00208348
0.00106172
-0.00234649
0.00122285
-0.00255748
0.00136483
-0.00271868
0.00148666
-0.00283607
0.00158935
-0.00291738
0.00167515
-0.00297061
0.00174682
-0.00300306
0.00180723
-0.00302087
0.00185893
-0.00302886
0.00190412
-0.00303067
0.00194454
-0.00302896
0.00198155
-0.00302567
-0.00302245
0.00201621
2.58425e-05
-0.000118404
9.96098e-05
-0.000436345
0.00021581
-0.000808661
0.000365342
-0.00120454
0.000536061
-0.00159373
0.000714761
-0.00195071
0.000889493
-0.00225821
0.00105124
-0.00250824
0.00119456
-0.0027008
0.00131734
-0.00284146
0.00142003
-0.00293876
0.00150472
-0.00300207
0.00157428
-0.00304017
0.00163174
-0.00306053
0.00167992
-0.00306904
0.00172117
-0.00307011
0.00175738
-0.00306689
0.00179
-0.00306158
0.0018201
-0.00305576
-0.0030508
0.00184845
2.83328e-05
-0.000146737
0.000107054
-0.000515066
0.000228107
-0.000929715
0.00037985
-0.00135628
0.000548204
-0.00176208
0.000719174
-0.00212168
0.000881237
-0.00242028
0.00102668
-0.00265368
0.00115174
-0.00282585
0.00125589
-0.00294561
0.00134082
-0.00302369
0.00140936
-0.00307062
0.00146474
-0.00309555
0.00151001
-0.0031058
0.00154777
-0.0031068
0.00158011
-0.00310244
0.00160859
-0.00309536
0.00163437
-0.00308736
0.00165827
-0.00307967
-0.00307338
0.00168084
3.06621e-05
-0.000177399
0.000113571
-0.000597975
0.000237907
-0.00105405
0.000389544
-0.00150792
0.000552854
-0.00192539
0.000713612
-0.00228244
0.000861231
-0.00256789
0.00098959
-0.00278204
0.00109661
-0.00293288
0.00118319
-0.00303219
0.00125194
-0.00309244
0.00130619
-0.00312487
0.00134925
-0.00313861
0.00138401
-0.00314056
0.00141279
-0.00313559
0.00143736
-0.00312701
0.00145899
-0.00311699
0.00147858
-0.00310695
0.00149675
-0.00309784
-0.00309052
0.00151389
3.27631e-05
-0.000210162
0.000118948
-0.000684159
0.000244868
-0.00117997
0.000394108
-0.00165716
0.000549972
-0.00208126
0.000698554
-0.00243102
0.000830601
-0.00269994
0.000941712
-0.00289315
0.0010314
-0.00302257
0.00110171
-0.0031025
0.00115592
-0.00314665
0.00119758
-0.00316652
0.00122989
-0.00317092
0.0012555
-0.00316616
0.00127639
-0.00315648
0.00129403
-0.00314465
0.00130942
-0.00313238
0.00132325
-0.00312078
0.00133599
-0.00311057
-0.00310244
0.0013479
3.4575e-05
-0.000244737
0.000123009
-0.000772594
0.000248758
-0.00130572
0.000393435
-0.00180183
0.000539804
-0.00222762
0.000674776
-0.00256599
0.00079069
-0.00281586
0.000884868
-0.00298733
0.000958217
-0.00309592
0.00101367
-0.00315795
0.00105489
-0.00318787
0.00108543
-0.00319706
0.0011083
-0.00319379
0.0011258
-0.00318366
0.00113961
-0.0031703
0.0011509
-0.00315593
0.00116045
-0.00314193
0.00116879
-0.00312913
0.00117628
-0.00311806
-0.00310924
0.00118308
3.60344e-05
-0.000280771
0.000125601
-0.00086216
0.000249423
-0.00142954
0.000387563
-0.00193997
0.000522778
-0.00236284
0.000643193
-0.00268641
0.000742877
-0.00291554
0.000820764
-0.00306522
0.00087892
-0.00315407
0.000920893
-0.00319992
0.000950512
-0.00321749
0.000971187
-0.00321774
0.000985627
-0.00320823
0.000995813
-0.00319385
0.00100312
-0.0031776
0.00100845
-0.00316127
0.00101244
-0.00314592
0.00101547
-0.00313216
0.00101781
-0.0031204
-0.00311101
0.00101958
3.70951e-05
-0.000317866
0.000126632
-0.000951697
0.000246844
-0.00154975
0.000376723
-0.00206985
0.000499522
-0.00248564
0.000604869
-0.00279175
0.000688576
-0.00299925
0.00075102
-0.00312766
0.000795168
-0.00319822
0.000824941
-0.0032297
0.000844153
-0.0032367
0.000855973
-0.00322956
0.000862779
-0.00321503
0.000866229
-0.0031973
0.000867426
-0.0031788
0.000867084
-0.00316093
0.000865671
-0.0031445
0.000863496
-0.00312999
0.00086075
-0.00311765
-0.00310777
0.000857519
3.77189e-05
-0.000355585
0.000126051
-0.00104003
0.000241086
-0.00166479
0.000361262
-0.00219003
0.000470757
-0.00259513
0.000560877
-0.00288187
0.000629112
-0.00306748
0.00067706
-0.00317561
0.000708344
-0.0032295
0.000727056
-0.00324841
0.00073686
-0.0032465
0.000740623
-0.00323332
0.000740391
-0.0032148
0.000737524
-0.00319443
0.000732892
-0.00317416
0.000727045
-0.00315508
0.000720342
-0.0031378
0.000713019
-0.00312267
0.000705225
-0.00310986
-0.00309957
0.000697019
3.78789e-05
-0.000393464
0.000123855
-0.001126
0.000232302
-0.00177324
0.000341616
-0.00229934
0.00043725
-0.00269077
0.000512265
-0.00295689
0.000565688
-0.00312091
0.000600114
-0.00321003
0.000619592
-0.00324898
0.000628223
-0.00325704
0.000629432
-0.00324771
0.000625758
-0.00322965
0.000618928
-0.00320797
0.000610039
-0.00318554
0.000599767
-0.00316389
0.000588531
-0.00314385
0.000576603
-0.00312587
0.00056417
-0.00311023
0.000551349
-0.00309703
-0.0030864
0.000538185
3.75607e-05
-0.000431025
0.000120082
-0.00120853
0.00022071
-0.00187386
0.00031828
-0.00239691
0.00039978
-0.00277227
0.000460016
-0.00301712
0.000499375
-0.00316027
0.000521221
-0.00323188
0.00052984
-0.0032576
0.000529213
-0.00325641
0.000522475
-0.00324097
0.000511836
-0.00321901
0.000498727
-0.00319486
0.000484023
-0.00317084
0.000468238
-0.00314811
0.000451687
-0.0031273
0.000434578
-0.00310876
0.000417057
-0.00309271
0.000399223
-0.0030792
-0.0030683
0.000381115
3.67615e-05
-0.000467786
0.000114805
-0.00128657
0.000206574
-0.00196563
0.000291776
-0.00248211
0.000359098
-0.00283959
0.000405021
-0.00306305
0.000431097
-0.00318634
0.000441245
-0.00324203
0.000439829
-0.00325619
0.000430624
-0.00324721
0.000416447
-0.0032268
0.000399193
-0.00320175
0.000380036
-0.0031757
0.000359658
-0.00315046
0.000338447
-0.0031269
0.000316631
-0.00310548
0.000294366
-0.0030865
0.000271773
-0.00307012
0.000248937
-0.00305636
-0.00304526
0.0002259
3.54897e-05
-0.000503276
0.00010813
-0.00135921
0.000190193
-0.0020477
0.000262627
-0.00255455
0.00031591
-0.00289287
0.000348078
-0.00309522
0.000361643
-0.00319991
0.000360893
-0.00324128
0.000350147
-0.00324544
0.000332913
-0.00322997
0.000311689
-0.00320557
0.000288079
-0.00317814
0.000263034
-0.00315066
0.000237081
-0.00312451
0.0002105
-0.00310031
0.000183452
-0.00307843
0.000156052
-0.0030591
0.000128398
-0.00304247
0.000100573
-0.00302854
-0.00301731
7.26215e-05
3.37634e-05
-0.000537039
0.000100183
-0.00142563
0.000171881
-0.00211939
0.000231344
-0.00261401
0.000270864
-0.00293239
0.000289882
-0.00311423
0.000291676
-0.0032017
0.000280743
-0.00323035
0.000261259
-0.00322596
0.000236437
-0.00320515
0.000208461
-0.0031776
0.00017868
-0.00314836
0.000147858
-0.00311984
0.000116392
-0.00309304
8.448e-05
-0.0030684
5.22245e-05
-0.00304618
1.97043e-05
-0.00302658
-1.29994e-05
-0.00300976
-4.58024e-05
-0.00299574
-0.00298446
-7.86474e-05
3.16095e-05
-0.000568649
9.11071e-05
-0.00148513
0.000151956
-0.00218024
0.000198409
-0.00266046
0.000224542
-0.00295853
0.000231035
-0.00312073
0.00022175
-0.00319241
0.000201261
-0.00320986
0.000173534
-0.00319823
0.00014147
-0.00317309
0.000106965
-0.00314309
7.11414e-05
-0.00311254
3.46102e-05
-0.00308331
-2.33001e-06
-0.0030561
-3.9551e-05
-0.00303118
-7.69982e-05
-0.00300873
-0.000114627
-0.00298895
-0.000152371
-0.00297202
-0.000190138
-0.00295797
-0.00294675
-0.000227855
2.90619e-05
-0.000597711
8.10544e-05
-0.00153712
0.000130731
-0.00222992
0.000164271
-0.002694
0.000177462
-0.00297172
0.000172052
-0.00311532
0.000152328
-0.00317269
0.000122831
-0.00318036
8.72685e-05
-0.00316267
4.82364e-05
-0.00313406
7.36154e-06
-0.00310222
-3.44225e-05
-0.00307075
-7.66266e-05
-0.0030411
-0.000119028
-0.0030137
-0.000161551
-0.00298866
-0.000204184
-0.00296609
-0.000246918
-0.00294622
-0.0002897
-0.00292924
-0.000332427
-0.00291524
-0.00290417
-0.000374999
2.61603e-05
-0.000623871
7.01828e-05
-0.00158114
0.000108508
-0.00226824
0.000129341
-0.00271484
0.00013008
-0.00297246
0.000113378
-0.00309862
8.37976e-05
-0.00314311
4.57677e-05
-0.00314233
2.7108e-06
-0.00311961
-4.30776e-05
-0.00308827
-9.02088e-05
-0.00305509
-0.000137908
-0.00302305
-0.00018578
-0.00299323
-0.000233653
-0.00296583
-0.000281492
-0.00294082
-0.000329323
-0.00291826
-0.000377174
-0.00289837
-0.000425011
-0.0028814
-0.00047272
-0.00286753
-0.00285674
-0.000520159
2.29484e-05
-0.00064682
5.86506e-05
-0.00161685
8.55712e-05
-0.00229516
9.39914e-05
-0.00272326
8.2799e-05
-0.00296126
5.53916e-05
-0.00307121
1.64896e-05
-0.00310421
-2.96568e-05
-0.00309618
-7.99237e-05
-0.00306934
-0.0001323
-0.00303589
-0.00018561
-0.00300178
-0.00023921
-0.00296945
-0.000292773
-0.00293967
-0.000346159
-0.00291244
-0.000399355
-0.00288762
-0.000452419
-0.0028652
-0.000505421
-0.00284536
-0.000558363
-0.00282846
-0.000611116
-0.00281478
-0.00280437
-0.000663482
1.94732e-05
-0.000666293
4.66138e-05
-0.00164399
6.21885e-05
-0.00231074
5.8559e-05
-0.00271963
3.59718e-05
-0.00293868
-1.5765e-06
-0.00303366
-4.93098e-05
-0.00305647
-0.000103203
-0.00304229
-0.000160434
-0.00301211
-0.000219261
-0.00297706
-0.000278695
-0.00294234
-0.000338205
-0.00290994
-0.00039751
-0.00288036
-0.000456483
-0.00285347
-0.000515111
-0.002829
-0.000573474
-0.00280684
-0.000631691
-0.00278715
-0.00068981
-0.00277034
-0.000747701
-0.00275689
-0.002747
-0.000805073
1.57835e-05
-0.000682076
3.42236e-05
-0.00166243
3.8607e-05
-0.00231512
2.33456e-05
-0.00270437
-1.00904e-05
-0.00290524
-5.72371e-05
-0.00298651
-0.000113345
-0.00300036
-0.000174646
-0.00298099
-0.000238619
-0.00294814
-0.000303771
-0.00291191
-0.000369287
-0.00287682
-0.00043473
-0.0028445
-0.000499856
-0.00281524
-0.00056453
-0.00278879
-0.000628718
-0.00276481
-0.000692496
-0.00274306
-0.000756019
-0.00272362
-0.000819404
-0.00270695
-0.000882532
-0.00269376
-0.00268455
-0.000944977
1.1929e-05
-0.000694005
2.16243e-05
-0.00167212
1.50535e-05
-0.00230855
-1.13791e-05
-0.00267793
-5.51131e-05
-0.00286151
-0.000111333
-0.00293029
-0.000175384
-0.00293631
-0.000243771
-0.0029126
-0.000314267
-0.00287764
-0.000385615
-0.00284056
-0.00045716
-0.00280528
-0.000528556
-0.00277311
-0.000599596
-0.0027442
-0.000670131
-0.00271826
-0.000740083
-0.00269486
-0.000809483
-0.00267366
-0.000878496
-0.00265461
-0.000947313
-0.00263814
-0.00101585
-0.00262522
-0.00261684
-0.00108357
7.95893e-06
-0.000701964
8.95147e-06
-0.00167311
-8.26583e-06
-0.00229133
-4.53752e-05
-0.00264082
-9.88543e-05
-0.00280803
-0.000163636
-0.00286551
-0.000235208
-0.00286474
-0.000310362
-0.00283745
-0.000387152
-0.00280085
-0.000464541
-0.00276318
-0.000542029
-0.00272779
-0.000619369
-0.00269577
-0.000696404
-0.00266716
-0.000772987
-0.00264167
-0.000848989
-0.00261885
-0.000924366
-0.00259828
-0.000999261
-0.00257972
-0.00107395
-0.00256345
-0.00114842
-0.00255075
-0.00254294
-0.00122232
3.92141e-06
-0.000705886
-3.66917e-06
-0.00166552
-3.11667e-05
-0.00226384
-7.84326e-05
-0.00259356
-0.000141102
-0.00274536
-0.000213942
-0.00279267
-0.000292616
-0.00278607
-0.000374205
-0.00275586
-0.000457029
-0.00271803
-0.00054026
-0.00267994
-0.000623548
-0.0026445
-0.000706761
-0.00261255
-0.000789826
-0.0025841
-0.000872639
-0.00255886
-0.000955052
-0.00253644
-0.00103695
-0.00251638
-0.00111843
-0.00249824
-0.00119986
-0.00248201
-0.00128148
-0.00246914
-0.00246058
-0.00136384
-1.37947e-07
-0.000705748
-1.6124e-05
-0.00164954
-5.34877e-05
-0.00222647
-0.000110371
-0.00253667
-0.000181677
-0.00267405
-0.000262072
-0.00271228
-0.000347422
-0.00270072
-0.000435086
-0.0026682
-0.000523633
-0.00262948
-0.000612429
-0.00259115
-0.000701274
-0.00255566
-0.000790174
-0.00252365
-0.000879192
-0.00249508
-0.000968359
-0.00246969
-0.00105762
-0.00244718
-0.00114686
-0.00242714
-0.00123608
-0.00240902
-0.00132563
-0.00239246
-0.00141607
-0.0023787
-0.00236655
-0.00151011
-4.17706e-06
-0.000701571
-2.83129e-05
-0.0016254
-7.50917e-05
-0.00217969
-0.000141043
-0.00247072
-0.000220433
-0.00259466
-0.000307883
-0.00262483
-0.00039947
-0.00260913
-0.000492813
-0.00257485
-0.000586703
-0.00253559
-0.000680667
-0.00249718
-0.000774641
-0.00246169
-0.000868764
-0.00242953
-0.000963284
-0.00240056
-0.00105848
-0.00237449
-0.00115464
-0.00235103
-0.00125195
-0.00232983
-0.00135054
-0.00231043
-0.00145095
-0.00229205
-0.0015554
-0.00227424
-0.00226823
-0.00165371
-8.14629e-06
-0.000693424
-4.01312e-05
-0.00159342
-9.58448e-05
-0.00212398
-0.00017031
-0.00239626
-0.000257243
-0.00250773
-0.000351258