1.275 	2.15223e-18 	-2.76991e-20 	-0.129578 	0.0244869 	-2.55457e-22
1.825 	2.15223e-18 	-1.39322e-20 	-0.265164 	0.0656847 	3.52933e-21
2.375 	2.15223e-18 	-2.66896e-23 	-0.278228 	0.0522124 	-1.62415e-21
