/*--------------------------------*- C++ -*----------------------------------*\
  =========                 |
  \\      /  F ield         | OpenFOAM: The Open Source CFD Toolbox
   \\    /   O peration     | Website:  https://openfoam.org
    \\  /    A nd           | Version:  6.0
     \\/     M anipulation  |
\*---------------------------------------------------------------------------*/
FoamFile
{
    version     2.0;
    format      ascii;
    class       surfaceScalarField;
    location    "40";
    object      phi;
}
// * * * * * * * * * * * * * * * * * * * * * * * * * * * * * * * * * * * * * //

dimensions      [0 3 -1 0 0 0 0];

internalField   nonuniform List<scalar> 
7840
(
-2.46084e-06
1.8136e-06
6.47233e-07
-8.75295e-06
4.6062e-06
1.68592e-06
-1.79689e-05
6.68538e-06
2.53059e-06
-2.93461e-05
8.15853e-06
3.21868e-06
-4.22609e-05
9.13365e-06
3.78108e-06
-5.62178e-05
9.7118e-06
4.2451e-06
-7.08373e-05
9.98518e-06
4.63437e-06
-8.5843e-05
1.00369e-05
4.9688e-06
-0.000101049
9.94147e-06
5.26472e-06
-0.00011635
9.76522e-06
5.53508e-06
-0.000131706
9.56704e-06
5.78971e-06
-0.000147141
9.39856e-06
6.0357e-06
-0.000162723
9.30421e-06
6.2778e-06
-0.000178562
9.32108e-06
6.51877e-06
-0.000194801
9.47877e-06
6.75982e-06
-0.000211601
9.79915e-06
7.00091e-06
-0.000229138
1.02962e-05
7.24115e-06
-0.000247593
1.09759e-05
7.47897e-06
-0.000267144
1.1839e-05
7.71167e-06
1.28871e-05
7.93628e-06
-0.000287967
-2.47118e-06
4.28478e-06
-8.78299e-06
1.0918e-05
-1.8019e-05
1.59214e-05
-2.94094e-05
1.95489e-05
-4.23244e-05
2.20487e-05
-5.62632e-05
2.36506e-05
-7.08409e-05
2.45628e-05
-8.57754e-05
2.49714e-05
-0.000100875
2.50414e-05
-0.000116029
2.49185e-05
-0.000131192
2.47306e-05
-0.000146382
2.45886e-05
-0.000161665
2.45872e-05
-0.000177149
2.48048e-05
-0.000192973
2.53034e-05
-0.000209303
2.61287e-05
-0.000226316
2.73096e-05
-0.000244199
2.88581e-05
-0.000263134
3.07744e-05
3.30594e-05
-0.000283306
-2.48143e-06
6.76621e-06
-8.80768e-06
1.72442e-05
-1.80488e-05
2.51625e-05
-2.94238e-05
3.09239e-05
-4.22933e-05
3.49181e-05
-5.61469e-05
3.75042e-05
-7.05901e-05
3.9006e-05
-8.53303e-05
3.97117e-05
-0.000100165
3.98763e-05
-0.000114971
3.97245e-05
-0.000129694
3.94534e-05
-0.00014434
3.92344e-05
-0.000158967
3.92144e-05
-0.000173678
3.95157e-05
-0.000188611
4.02364e-05
-0.000203932
4.14498e-05
-0.000219826
4.32037e-05
-0.000236488
4.55197e-05
-0.000254114
4.84006e-05
5.18479e-05
-0.000272902
-2.49196e-06
9.25817e-06
-8.82774e-06
2.358e-05
-1.80595e-05
3.43943e-05
-2.93918e-05
4.22562e-05
-4.21724e-05
4.76987e-05
-5.58784e-05
5.12102e-05
-7.01018e-05
5.32294e-05
-8.45356e-05
5.41454e-05
-9.8961e-05
5.43017e-05
-0.000113237
5.4001e-05
-0.000127294
5.35096e-05
-0.00014112
5.30605e-05
-0.000154761
5.28553e-05
-0.000168309
5.30644e-05
-0.0001819
5.38272e-05
-0.000195701
5.52506e-05
-0.000209905
5.74079e-05
-0.000224722
6.03365e-05
-0.000240368
6.4047e-05
6.85449e-05
-0.000257065
-2.50314e-06
1.17613e-05
-8.84358e-06
2.99205e-05
-1.80516e-05
4.36023e-05
-2.93146e-05
5.35192e-05
-4.19654e-05
6.03495e-05
-5.54668e-05
6.47116e-05
-6.93947e-05
6.71573e-05
-8.34237e-05
6.81744e-05
-9.73146e-05
6.81926e-05
-0.000110904
6.75907e-05
-0.000124098
6.67034e-05
-0.000136864
6.5826e-05
-0.000149226
6.52176e-05
-0.000161263
6.51016e-05
-0.000173101
6.56654e-05
-0.000184909
6.70583e-05
-0.00019689
6.93884e-05
-0.000209272
7.27188e-05
-0.000222301
7.70763e-05
8.24768e-05
-0.000236233
-2.51494e-06
1.42762e-05
-8.85412e-06
3.62596e-05
-1.80223e-05
5.27704e-05
-2.91881e-05
6.46851e-05
-4.16691e-05
7.28305e-05
-5.49125e-05
7.79549e-05
-6.8477e-05
8.07218e-05
-8.20169e-05
8.17144e-05
-9.5269e-05
8.14447e-05
-0.000108043
8.03646e-05
-0.000120214
7.88747e-05
-0.000131721
7.73326e-05
-0.00014256
7.60569e-05
-0.000152787
7.5329e-05
-0.000162515
7.53927e-05
-0.000171907
7.64506e-05
-0.000181177
7.86587e-05
-0.000190579
8.212e-05
-0.000200394
8.68914e-05
9.30103e-05
-0.000210927
-2.52651e-06
1.68027e-05
-8.85537e-06
4.25885e-05
-1.79629e-05
6.18779e-05
-2.89986e-05
7.57209e-05
-4.12652e-05
8.5097e-05
-5.41954e-05
9.08851e-05
-6.73314e-05
9.38579e-05
-8.03068e-05
9.46898e-05
-9.28325e-05
9.39704e-05
-0.000104687
9.22192e-05
-0.000115711
8.98989e-05
-0.000125805
8.74267e-05
-0.00013493
8.51813e-05
-0.000143108
8.35067e-05
-0.000150426
8.27115e-05
-0.000157041
8.30648e-05
-0.00016317
8.47877e-05
-0.000169093
8.8043e-05
-0.00017514
9.29391e-05
9.95534e-05
-0.000181683
-2.53575e-06
1.93385e-05
-8.83916e-06
4.88919e-05
-1.78559e-05
7.08946e-05
-2.87172e-05
8.65822e-05
-4.07128e-05
9.70926e-05
-5.32639e-05
0.000103436
-6.58986e-05
0.000106493
-7.82316e-05
0.000107023
-8.99486e-05
0.000105687
-0.000100796
0.000103066
-0.000110575
9.96779e-05
-0.000119142
9.59934e-05
-0.00012641
9.24494e-05
-0.000132357
8.94544e-05
-0.000137035
8.73892e-05
-0.000140574
8.66039e-05
-0.000143192
8.74057e-05
-0.000145193
9.0044e-05
-0.000146964
9.47099e-05
0.000101552
-0.000148963
-2.53907e-06
2.18776e-05
-8.79215e-06
5.5145e-05
-1.7673e-05
7.97754e-05
-2.82962e-05
9.72053e-05
-3.99417e-05
0.000108738
-5.20232e-05
0.000115518
-6.40596e-05
0.000118529
-7.56512e-05
0.000118614
-8.64618e-05
0.000116498
-9.62072e-05
0.000112812
-0.000104649
0.000108119
-0.000111593
0.000102938
-0.000116899
9.77551e-05
-0.000120486
9.3041e-05
-0.00012235
8.92536e-05
-0.000122582
8.68363e-05
-0.000121382
8.62059e-05
-0.000119071
8.77327e-05
-0.000116096
9.17349e-05
9.8482e-05
-0.000113026
-2.5313e-06
2.44089e-05
-8.69562e-06
6.13093e-05
-1.73742e-05
8.8454e-05
-2.76666e-05
0.000107498
-3.88471e-05
0.000119919
-5.0327e-05
0.000126998
-6.16218e-05
0.000129824
-7.23244e-05
0.000129317
-8.20839e-05
0.000126258
-9.05913e-05
0.000121319
-9.75715e-05
0.0001151
-0.000102782
0.000108149
-0.000106021
0.000100994
-0.000107138
9.41574e-05
-0.000106056
8.8172e-05
-0.000102802
8.35824e-05
-9.75335e-05
8.09373e-05
-9.05686e-05
8.07679e-05
-8.2412e-05
8.35783e-05
8.98354e-05
-7.37655e-05
-2.50598e-06
2.69148e-05
-8.52604e-06
6.73293e-05
-1.69084e-05
9.68363e-05
-2.67391e-05
0.000117329
-3.72895e-05
0.000130469
-4.79733e-05
0.000137681
-5.83097e-05
0.00014016
-6.78925e-05
0.0001389
-7.63659e-05
0.000134731
-8.34066e-05
0.00012836
-8.87132e-05
0.000120406
-9.20016e-05
0.000111437
-9.30098e-05
0.000102002
-9.15122e-05
9.26599e-05
-8.73449e-05
8.40047e-05
-8.0443e-05
7.66805e-05
-7.0888e-05
7.13823e-05
-5.89623e-05
6.88421e-05
-4.52076e-05
6.98237e-05
7.51022e-05
-3.04744e-05
-2.45588e-06
2.93707e-05
-8.25682e-06
7.31303e-05
-1.62167e-05
0.000104796
-2.54074e-05
0.000126519
-3.50985e-05
0.00014016
-4.4709e-05
0.000147292
-5.37669e-05
0.000149218
-6.18751e-05
0.000147008
-6.86842e-05
0.00014154
-7.38711e-05
0.000133547
-7.7124e-05
0.000123659
-7.81336e-05
0.000112447
-7.65928e-05
0.000100461
-7.22073e-05
8.82744e-05
-6.47198e-05
7.65172e-05
-5.39534e-05
6.59141e-05
-3.98755e-05
5.73045e-05
-2.26826e-05
5.16492e-05
-2.90946e-06
5.00505e-05
5.37438e-05
1.84489e-05
-2.37396e-06
3.17447e-05
-7.86088e-06
7.86172e-05
-1.52369e-05
0.000112172
-2.35561e-05
0.000134839
-3.20832e-05
0.000148687
-4.02415e-05
0.00015545
-4.75692e-05
0.000156546
-5.36832e-05
0.000153122
-5.82499e-05
0.000146107
-6.09612e-05
0.000136258
-6.1516e-05
0.000124214
-5.96058e-05
0.000110537
-5.49071e-05
9.57626e-05
-4.70831e-05
8.04504e-05
-3.58003e-05
6.52344e-05
-2.07675e-05
5.08813e-05
-1.8085e-06
3.83454e-05
2.1026e-05
2.88147e-05
4.72845e-05
2.3792e-05
2.51575e-05
7.58708e-05
-2.25436e-06
3.3999e-05
-7.31381e-06
8.36766e-05
-1.39099e-05
0.000118768
-2.10706e-05
0.000141999
-2.80475e-05
0.000155664
-3.42608e-05
0.000161663
-3.92535e-05
0.000161538
-4.26543e-05
0.000156523
-4.41485e-05
0.000147601
-4.34537e-05
0.000135563
-4.0299e-05
0.000121059
-3.44081e-05
0.000104646
-2.54832e-05
8.68377e-05
-1.31957e-05
6.8163e-05
2.81361e-06
4.9225e-05
2.29129e-05
3.07821e-05
4.74176e-05
1.38407e-05
7.64696e-05
-2.37295e-07
0.000109806
-9.54432e-06
-1.13796e-05
0.000146343
-2.09336e-06
3.60924e-05
-6.59677e-06
8.818e-05
-1.21855e-05
0.000124357
-1.78476e-05
0.000147661
-2.2807e-05
0.000160624
-2.64655e-05
0.000165322
-2.83561e-05
0.000163429
-2.81069e-05
0.000156274
-2.54133e-05
0.000144907
-2.00174e-05
0.000130168
-1.1689e-05
0.000112731
-2.09796e-07
9.31664e-05
1.46452e-05
7.19826e-05
3.31268e-05
4.96814e-05
5.55305e-05
2.68214e-05
8.22042e-05
4.10837e-06
0.000113526
-1.74808e-05
0.000149816
-3.65274e-05
0.000191102
-5.08303e-05
-5.67947e-05
0.000236517
-1.88991e-06
3.79823e-05
-5.69817e-06
9.19883e-05
-1.00263e-05
0.000128685
-1.38033e-05
0.000151438
-1.62037e-05
0.000163024
-1.6588e-05
0.000165706
-1.44543e-05
0.000161295
-9.40447e-06
0.000151224
-1.12029e-06
0.000136623
1.06515e-05
0.000118396
2.61101e-05
9.72724e-05
4.54094e-05
7.38671e-05
6.86696e-05
4.87225e-05
9.59949e-05
2.23561e-05
0.000127502
-4.68609e-06
0.000163359
-3.17487e-05
0.000203818
-5.79397e-05
0.000249223
-8.19323e-05
0.000299894
-0.000101501
-0.000112325
0.000355424
-1.64534e-06
3.96276e-05
-4.61308e-06
9.4956e-05
-7.40777e-06
0.00013148
-8.87445e-06
0.000152905
-8.11217e-06
0.000162262
-4.40953e-06
0.000162004
2.80377e-06
0.000154082
1.39893e-05
0.000140038
2.95187e-05
0.000121094
4.96806e-05
9.82338e-05
7.46807e-05
7.22722e-05
0.000104636
4.39115e-05
0.00013957
1.37889e-05
0.000179409
-1.74826e-05
0.000223997
-4.92746e-05
0.000273137
-8.08885e-05
0.000326657
-0.00011146
0.000384529
-0.000139804
0.000447032
-0.000164004
-0.000179718
0.000514425
-1.36222e-06
4.09899e-05
-3.33995e-06
9.69337e-05
-4.31197e-06
0.000132452
-3.01161e-06
0.000151605
1.5681e-06
0.000157682
1.02442e-05
0.000153328
2.36941e-05
0.000140632
4.24867e-05
0.000121245
6.70967e-05
9.64839e-05
9.79046e-05
6.74258e-05
0.000135185
3.49917e-05
0.000179085
1.1362e-08
0.000229594
-3.67199e-05
0.000286507
-7.43954e-05
0.000349391
-0.000112159
0.000417568
-0.000149065
0.000490137
-0.000184029
0.000566092
-0.000215759
0.000644708
-0.00024262
-0.00026217
0.00072716
-1.04225e-06
4.20321e-05
-1.87457e-06
9.77661e-05
-7.17359e-07
0.000131295
3.83744e-06
0.00014705
1.29337e-05
0.000148586
2.75278e-05
0.000138733
4.84418e-05
0.000119718
7.6394e-05
9.32932e-05
0.000112011
6.08668e-05
0.000155824
2.36129e-05
0.000208251
-1.74349e-05
0.000269565
-6.13032e-05
0.000339852
-0.000107007
0.000418939
-0.000153482
0.000506297
-0.000199517
0.000600911
-0.000243679
0.00070111
-0.000284228
0.000804365
-0.000319015
0.000907441
-0.000345696
-0.000366323
0.00101159
-6.83779e-07
4.27159e-05
-2.02786e-07
9.72851e-05
3.41532e-06
0.000127676
1.17491e-05
0.000138716
2.61079e-05
0.000134227
4.76161e-05
0.000117225
7.72688e-05
9.00655e-05
0.000115962
5.46001e-05
0.000164503
1.23253e-05
0.00022361
-3.5494e-05
0.000293897
-8.77219e-05
0.000375859
-0.000143265
0.000469848
-0.000200996
0.000576042
-0.000259676
0.000694383
-0.000317858
0.000824452
-0.000373748
0.000965158
-0.000424934
0.00111376
-0.000467612
0.00126257
-0.000494511
-0.000492101
0.00138835
-2.80153e-07
4.29961e-05
1.70525e-06
9.52997e-05
8.15455e-06
0.000121227
2.08432e-05
0.000126027
4.1269e-05
0.000113801
7.07426e-05
8.77516e-05
0.000110442
5.03659e-05
0.00016144
3.60207e-06
0.00022471
-5.09445e-05
0.000301123
-0.000111907
0.000391447
-0.000178045
0.000496351
-0.000248169
0.000616443
-0.000321088
0.000752345
-0.000395578
0.000904862
-0.000470376
0.00107529
-0.000544179
0.001266
-0.00061564
0.00148172
-0.000683334
0.00173353
-0.000746315
-0.000803465
0.00204489
1.84374e-07
4.28117e-05
3.90339e-06
9.15807e-05
1.36103e-05
0.00011152
3.12988e-05
0.000108339
5.867e-05
8.643e-05
9.72237e-05
4.91978e-05
0.000148306
-7.16664e-07
0.000213125
-6.12162e-05
0.00029274
-0.00013056
0.000388054
-0.000207222
0.0004998
-0.000289791
0.000628544
-0.000376914
0.000774726
-0.000467269
0.00093873
-0.000559582
0.00112102
-0.000652666
0.00132235
-0.000745507
0.00154409
-0.000837377
0.00178871
-0.000927957
0.00205979
-0.0010174
-0.00109896
0.00235528
7.30709e-07
4.2081e-05
6.4625e-06
8.58489e-05
1.99245e-05
9.80583e-05
4.33423e-05
8.49209e-05
7.86226e-05
5.11497e-05
0.000127437
3.8302e-07
0.000191255
-6.4534e-05
0.000271331
-0.000141293
0.000368683
-0.000227912
0.000484051
-0.00032259
0.000617878
-0.000423617
0.000770297
-0.000529333
0.000941159
-0.000638131
0.00113007
-0.000748497
0.00133648
-0.000859077
0.00155975
-0.000968771
0.0017992
-0.00107683
0.00205416
-0.00118292
0.00232363
-0.00128687
-0.00138029
0.00260496
1.38592e-06
4.0695e-05
9.46908e-06
7.77657e-05
2.72636e-05
8.02638e-05
5.72284e-05
5.49561e-05
0.00010146
6.9182e-06
0.000161758
-5.99152e-05
0.000239628
-0.000142404
0.000336243
-0.000237907
0.000452387
-0.000344055
0.0005884
-0.000458604
0.000744151
-0.000579368
0.000919025
-0.000704208
0.00111196
-0.000831066
0.0013215
-0.000958033
0.00154585
-0.00108343
0.00178296
-0.00120589
0.00203054
-0.00132441
0.00228602
-0.00143839
0.0025466
-0.00154745
-0.00164409
0.00281039
2.17952e-06
3.85155e-05
1.30142e-05
6.69311e-05
3.57956e-05
5.74824e-05
7.31992e-05
1.75524e-05
0.00012747
-4.73521e-05
0.000200453
-0.000132898
0.000293559
-0.00023551
0.000407688
-0.000352037
0.000543153
-0.00047952
0.00069962
-0.00061507
0.000876091
-0.000755839
0.00107094
-0.000899054
0.00128198
-0.0010421
0.00150658
-0.00118263
0.00174178
-0.00131863
0.00198442
-0.00144852
0.00223118
-0.00157117
0.00247866
-0.00168587
0.00272352
-0.0017923
-0.00188487
0.0029643
3.13992e-06
3.53756e-05
1.71815e-05
5.28895e-05
4.56649e-05
2.89991e-05
9.14395e-05
-2.82222e-05
0.00015682
-0.000112732
0.000243569
-0.000219647
0.000352813
-0.000344754
0.000484936
-0.00048416
0.000639496
-0.00063408
0.000815195
-0.00079077
0.00100992
-0.000950562
0.00122084
-0.00110998
0.00144461
-0.00126587
0.00167751
-0.00141553
0.0019157
-0.00155682
0.00215534
-0.00168817
0.00239279
-0.00180862
0.00262463
-0.00191772
0.00284788
-0.00201555
-0.00209858
0.00306159
4.29119e-06
3.10844e-05
2.20363e-05
3.51443e-05
5.69683e-05
-5.93288e-06
0.000112034
-8.32879e-05
0.000189494
-0.000190193
0.000290843
-0.000320996
0.000416676
-0.000470587
0.000566571
-0.000634055
0.000739035
-0.000806544
0.000931547
-0.000983282
0.00114071
-0.00115972
0.00136248
-0.00133175
0.00159244
-0.00149583
0.00182611
-0.00164921
0.00205921
-0.00178991
0.00228782
-0.00191678
0.00250858
-0.00202938
0.00271875
-0.00212788
0.00291621
-0.00221301
-0.00228312
0.00310076
5.6506e-06
2.54338e-05
2.76166e-05
1.31783e-05
6.97357e-05
-4.8052e-05
0.000134934
-0.000148486
0.000225242
-0.0002805
0.000341641
-0.000437395
0.000483899
-0.000612846
0.000650478
-0.000800634
0.000838564
-0.00099463
0.00104425
-0.00118897
0.00126283
-0.00137831
0.00148921
-0.00155812
0.00171825
-0.00172487
0.00194517
-0.00187613
0.00216578
-0.00201053
0.00237671
-0.0021277
0.0025754
-0.00222807
0.00276018
-0.00231266
0.00293016
-0.002383
-0.00243896
0.003086
7.22727e-06
1.82065e-05
3.39273e-05
-1.35217e-05
8.39183e-05
-9.8043e-05
0.000159939
-0.000224507
0.000263555
-0.000384116
0.00039494
-0.00056878
0.000552713
-0.000770619
0.000733931
-0.000981852
0.000934278
-0.00119498
0.00114844
-0.00140313
0.0013706
-0.00160046
0.00159494
-0.00178246
0.00181611
-0.00194605
0.0020296
-0.00208962
0.00223189
-0.00221282
0.00242057
-0.00231638
0.00259426
-0.00240177
0.00275254
-0.00247094
0.0028957
-0.00252615
-0.00256847
0.00302521
9.0216e-06
9.18495e-06
4.09379e-05
-4.5438e-05
9.93817e-05
-0.000156487
0.000186686
-0.000311811
0.000303666
-0.000501096
0.000449358
-0.000714472
0.00062092
-0.000942181
0.000813795
-0.00117473
0.00102213
-0.00140331
0.00123938
-0.00162038
0.00145898
-0.00182007
0.00167494
-0.00199841
0.00188225
-0.00215337
0.00207721
-0.00228457
0.00225739
-0.00239301
0.00242164
-0.00248063
0.00256984
-0.00254997
0.00270269
-0.00260379
0.00282145
-0.00264491
-0.00267521
0.00292819
1.10252e-05
-1.8402e-06
4.85809e-05
-8.29937e-05
0.000115906
-0.000223811
0.000214657
-0.000410562
0.000344574
-0.000631013
0.00050322
-0.000873118
0.000686044
-0.00112501
0.000886799
-0.00137548
0.00109825
-0.00161476
0.00131299
-0.00183513
0.00152425
-0.00203132
0.00172641
-0.00220058
0.00191539
-0.00234235
0.00208867
-0.00245784
0.00224515
-0.00254949
0.00238494
-0.00262043
0.00250904
-0.00267407
0.00261902
-0.00271377
0.00271675
-0.00274264
-0.00276302
0.00280456
1.32206e-05
-1.50609e-05
5.67528e-05
-0.000126526
0.000133186
-0.000300245
0.000243192
-0.000520568
0.000385084
-0.000772905
0.000554662
-0.0010427
0.00074553
-0.00131587
0.000949849
-0.0015798
0.00115935
-0.00182426
0.0013663
-0.00204208
0.00156431
-0.00222932
0.00174869
-0.00238497
0.00191665
-0.0025103
0.00206703
-0.00260822
0.00220007
-0.00268253
0.00231698
-0.00273733
0.00241955
-0.00277665
0.0025099
-0.00280411
0.00259015
-0.00282289
-0.00283549
0.00266261
1.55818e-05
-3.06426e-05
6.53143e-05
-0.000176258
0.000150845
-0.000385775
0.000271513
-0.000641237
0.000423878
-0.00092527
0.000601767
-0.00122059
0.000796961
-0.00151107
0.00100033
-0.00178317
0.00120307
-0.002027
0.00139773
-0.00223674
0.00157882
-0.00241042
0.00174302
-0.00254916
0.00188896
-0.00265624
0.00201686
-0.00273612
0.00212806
-0.00279373
0.00222457
-0.00283384
0.00230867
-0.00286075
0.00238266
-0.0028781
0.00244867
-0.0028889
-0.0028956
0.00250879
1.80731e-05
-4.87158e-05
7.40928e-05
-0.000232278
0.000168435
-0.000480118
0.000298761
-0.000771562
0.000459594
-0.0010861
0.000642711
-0.0014037
0.000838277
-0.00170663
0.00103633
-0.00198122
0.00122813
-0.0022188
0.00140707
-0.00241568
0.00156899
-0.00257235
0.00171209
-0.00269226
0.00183642
-0.00278056
0.00194335
-0.00284306
0.00203505
-0.00288543
0.00211399
-0.00291278
0.00218263
-0.00292938
0.0022432
-0.00293868
0.00229766
-0.00294336
-0.00294568
0.00234774
2.06502e-05
-6.93659e-05
8.28863e-05
-0.000294514
0.000185467
-0.000582698
0.000324043
-0.000910139
0.000490921
-0.00125298
0.000675912
-0.00158869
0.000867943
-0.00189866
0.00105679
-0.00217006
0.00123436
-0.00239637
0.00139534
-0.00257666
0.00153714
-0.00271415
0.00165944
-0.00281456
0.00176352
-0.00288465
0.00185164
-0.00293118
0.00192644
-0.00296023
0.00199054
-0.00297689
0.00204636
-0.0029852
0.00209592
-0.00298824
0.00214089
-0.00298833
-0.00298745
0.00218266
2.32599e-05
-9.26258e-05
9.14694e-05
-0.000362724
0.000201422
-0.000692651
0.000346486
-0.0010552
0.000516692
-0.00142319
0.000700144
-0.00177215
0.000885043
-0.00208356
0.00106149
-0.00234651
0.00122257
-0.00255744
0.0013645
-0.00271859
0.00148628
-0.00283593
0.00158893
-0.00291721
0.00167468
-0.0029704
0.00174633
-0.00300282
0.00180671
-0.0030206
0.00185839
-0.00302857
0.00190356
-0.00303037
0.00194397
-0.00302864
0.00198096
-0.00302533
-0.0030221
0.00201561
2.58421e-05
-0.000118468
9.96028e-05
-0.000436485
0.000215787
-0.000808835
0.000365291
-0.00120471
0.000535971
-0.00159387
0.000714624
-0.0019508
0.000889304
-0.00225824
0.001051
-0.00250821
0.00119426
-0.00270071
0.001317
-0.00284133
0.00141965
-0.00293859
0.00150431
-0.00300186
0.00157384
-0.00303993
0.00163128
-0.00306027
0.00167944
-0.00306876
0.00172067
-0.00306981
0.00175687
-0.00306657
0.00178948
-0.00306125
0.00181957
-0.00305542
-0.00305044
0.00184791
2.83313e-05
-0.000146799
0.000107043
-0.000515197
0.000228077
-0.000929868
0.000379788
-0.00135642
0.000548102
-0.00176218
0.000719024
-0.00212172
0.000881038
-0.00242026
0.00102644
-0.0026536
0.00115145
-0.00282573
0.00125557
-0.00294544
0.00134046
-0.00302348
0.00140898
-0.00307038
0.00146434
-0.00309529
0.00150959
-0.00310552
0.00154734
-0.00310651
0.00157966
-0.00310213
0.00160813
-0.00309504
0.0016339
-0.00308702
0.00165779
-0.00307931
-0.00307302
0.00168037
3.06597e-05
-0.000177459
0.000113557
-0.000598094
0.00023787
-0.00105418
0.000389473
-0.00150802
0.000552742
-0.00192545
0.000713454
-0.00228243
0.000861028
-0.00256783
0.000989345
-0.00278192
0.00109633
-0.00293271
0.00118288
-0.00303199
0.0012516
-0.0030922
0.00130583
-0.00312461
0.00134887
-0.00313834
0.00138362
-0.00314026
0.00141239
-0.00313528
0.00143695
-0.00312669
0.00145857
-0.00311666
0.00147816
-0.00310661
0.00149633
-0.00309748
-0.00309016
0.00151347
3.27596e-05
0.000118931
0.000244825
0.000394031
0.000549853
0.000698392
0.000830398
0.000941473
0.00103113
0.00110142
0.00115561
0.00119725
0.00122955
0.00125514
0.00127603
0.00129367
0.00130905
0.00132288
0.00133561
0.00134752
3.27668e-05
0.000177225
0.000118971
0.000597607
0.00024493
0.0010536
0.00039423
0.00150747
0.000550171
0.001925
0.00069884
0.00228215
0.000830978
0.00256772
0.000942176
0.00278197
0.00103194
0.00293291
0.00110233
0.0030323
0.0011566
0.00309262
0.00119831
0.0031251
0.00123067
0.00313888
0.00125631
0.00314086
0.00127725
0.00313591
0.00129492
0.00312735
0.00131034
0.00311735
0.0013242
0.00310732
0.00133696
0.00309822
0.00309092
0.0013489
3.06641e-05
0.000146561
0.000113588
0.000514683
0.000237957
0.000929231
0.000389648
0.00135578
0.000553032
0.00176162
0.000713876
0.0021213
0.000861588
0.00242
0.00099004
0.00265352
0.00109715
0.0028258
0.00118381
0.00294565
0.00125263
0.0030238
0.00130694
0.00307079
0.00135005
0.00309577
0.00138485
0.00310605
0.00141368
0.00310708
0.00143829
0.00310275
0.00145995
0.00309569
0.00147957
0.0030877
0.00149777
0.00308002
0.00307375
0.00151494
2.8333e-05
0.000118228
0.000107064
0.000435952
0.000228145
0.00080815
0.000379935
0.00120399
0.000548357
0.0015932
0.00071941
0.00195025
0.000881567
0.00225785
0.00102711
0.00250798
0.00115226
0.00270065
0.0012565
0.00284141
0.00134151
0.00293879
0.00141012
0.00300217
0.00146557
0.00304033
0.00151089
0.00306073
0.0015487
0.00306927
0.00158108
0.00307037
0.00160959
0.00306717
0.00163541
0.00306189
0.00165934
0.00305609
0.00305114
0.00168195
2.58414e-05
9.23869e-05
9.96145e-05
0.000362179
0.000215835
0.00069193
0.000365407
0.00105441
0.000536186
0.00142242
0.000714966
0.00177147
0.000889791
0.00208302
0.00105164
0.00234613
0.00119506
0.00255723
0.00131793
0.00271853
0.00142071
0.00283601
0.00150548
0.0029174
0.00157511
0.0029707
0.00163264
0.0030032
0.00168087
0.00302104
0.00172217
0.00302907
0.00175843
0.00303091
0.00179109
0.00302923
0.00182123
0.00302595
0.00302275
0.00184961
2.32571e-05
6.91299e-05
9.14726e-05
0.000293964
0.000201452
0.000581951
0.00034657
0.000909295
0.000516864
0.00125213
0.000700435
0.0015879
0.000885476
0.00189798
0.00106208
0.00216953
0.00122332
0.00239599
0.0013654
0.00257644
0.00148733
0.00271408
0.00159011
0.00281462
0.00167599
0.00288482
0.00174774
0.00293145
0.00180821
0.00296058
0.00185997
0.00297731
0.00190521
0.00298567
0.00194568
0.00298876
0.00198273
0.0029889
0.00298806
0.00201743
2.06455e-05
4.84844e-05
8.28817e-05
0.000231727
0.000185478
0.000479355
0.000324096
0.000770677
0.000491047
0.00108517
0.000676144
0.0014028
0.000868311
0.00170582
0.00105731
0.00198053
0.00123505
0.00221825
0.00139621
0.00241529
0.00153817
0.00257212
0.00166062
0.00269217
0.00176484
0.0027806
0.00185309
0.0028432
0.00192799
0.00288567
0.0019922
0.0029131
0.0020481
0.00292977
0.00209774
0.00293912
0.00214278
0.00294386
0.00294623
0.0021846
1.80669e-05
3.04174e-05
7.40812e-05
0.000175713
0.00016843
0.000385006
0.000298784
0.000640323
0.000459675
0.000924284
0.000642883
0.00121959
0.000838573
0.00151013
0.00103677
0.00178232
0.00122874
0.00202628
0.00140786
0.00223617
0.00156997
0.00241001
0.00171324
0.0025489
0.00183773
0.00265611
0.00194481
0.00273612
0.00203665
0.00279384
0.00211571
0.00283404
0.00218445
0.00286103
0.00224511
0.00287846
0.00229965
0.00288932
0.00289607
0.00234981
1.55743e-05
1.48432e-05
6.52965e-05
0.000125991
0.000150824
0.000299478
0.000271507
0.00051964
0.000423914
0.000771878
0.000601876
0.00104163
0.000797177
0.00131482
0.00100068
0.00157882
0.00120359
0.00182338
0.00139843
0.00204133
0.00157972
0.00222872
0.00174411
0.00238451
0.00189023
0.00250999
0.00201831
0.00260805
0.00212967
0.00268248
0.00222632
0.00273739
0.00231055
0.0027768
0.00238466
0.00280435
0.00245077
0.0028232
0.00283587
0.00251098
1.32119e-05
1.63125e-06
5.67292e-05
8.24736e-05
0.000133152
0.000223056
0.00024316
0.000409632
0.000385076
0.000629961
0.000554708
0.000871999
0.000745663
0.00112387
0.000950106
0.00137438
0.00115976
0.00161372
0.00136689
0.00183419
0.0015651
0.00203052
0.00174969
0.00219992
0.00191785
0.00234183
0.00206843
0.00245747
0.00220166
0.00254925
0.00231874
0.00262031
0.00242147
0.00267406
0.00251196
0.00271387
0.00259234
0.00274282
0.00276328
0.00266492
1.10152e-05
-9.38391e-06
4.85516e-05
4.49371e-05
0.000115857
0.00015575
0.000214599
0.00031089
0.000344524
0.000500037
0.000503205
0.000713318
0.000686096
0.000940977
0.000886954
0.00117352
0.00109854
0.00140214
0.00131345
0.00161928
0.0015249
0.00181907
0.00172728
0.00199754
0.00191648
0.00215263
0.00208998
0.00228397
0.00224667
0.00239255
0.00238668
0.00248031
0.00251097
0.00254977
0.00262112
0.00260371
0.00271901
0.00264494
0.00267533
0.00280696
9.0101e-06
-1.8394e-05
4.09025e-05
1.30447e-05
9.93195e-05
9.7333e-05
0.000186603
0.000223606
0.000303576
0.000383063
0.000449284
0.00056761
0.000620892
0.00076937
0.000813846
0.000980563
0.0010223
0.00119369
0.0012397
0.00140188
0.00145949
0.00159928
0.00167565
0.00178137
0.00188319
0.00194508
0.00207839
0.00208878
0.00225881
0.00221213
0.0024233
0.00231582
0.00257172
0.00240135
0.00270479
0.00247065
0.00282374
0.00252598
0.00256841
0.00293066
7.21385e-06
-2.56079e-05
3.38851e-05
-1.36265e-05
8.38417e-05
4.73764e-05
0.000159831
0.000147617
0.000263427
0.000279467
0.00039481
0.000436226
0.000552608
0.000611572
0.000733882
0.000799289
0.000934321
0.000993249
0.00114861
0.00118759
0.00137094
0.00137696
0.00159547
0.00155684
0.00181687
0.00172368
0.0020306
0.00187505
0.00223315
0.00200958
0.00242209
0.00212689
0.00259605
0.00222739
0.00275457
0.00231212
0.00289796
0.00238259
0.00243868
0.0030277
5.63475e-06
-3.12426e-05
2.75665e-05
-3.55582e-05
6.96437e-05
5.29919e-06
0.000134801
8.24597e-05
0.000225077
0.000189192
0.000341459
0.000319844
0.000483723
0.000469308
0.000650335
0.000632677
0.000838488
0.000805097
0.00104428
0.000981798
0.001263
0.00115824
0.00148955
0.00133029
0.0017188
0.00149443
0.00194596
0.00164789
0.00216684
0.0017887
0.00237804
0.00191569
0.00257701
0.00202842
0.00276208
0.00212706
0.00293234
0.00221233
0.00228258
0.00308844
4.27244e-06
-3.55151e-05
2.19776e-05
-5.32633e-05
5.68602e-05
-2.95835e-05
0.000111876
2.74436e-05
0.000189294
0.000111774
0.000290613
0.000218525
0.000416436
0.000343486
0.000566344
0.000482768
0.000738851
0.00063259
0.000931439
0.000789209
0.00114071
0.00094896
0.00136263
0.00110837
0.00159278
0.00126428
0.00182668
0.00141399
0.00206003
0.00155535
0.00228892
0.0016868
0.00250998
0.00180736
0.00272045
0.00191659
0.00291823
0.00201455
0.00209772
0.00310308
3.11804e-06
-3.86331e-05
1.7114e-05
-6.72593e-05
4.55417e-05
-5.80111e-05
9.12598e-05
-1.82745e-05
0.000156589
4.64444e-05
0.000243299
0.000131815
0.000352519
0.000234266
0.000484639
0.000350648
0.000639221
0.000478008
0.000814972
0.000613458
0.00100978
0.000754153
0.00122082
0.000897323
0.00144475
0.00104036
0.00167785
0.00118089
0.00191626
0.00131693
0.00215617
0.00144689
0.00239392
0.00156962
0.00262608
0.00168442
0.00284966
0.00179098
0.00188366
0.00306371
2.15472e-06
-4.07878e-05
1.29394e-05
-7.8044e-05
3.56607e-05
-8.07324e-05
7.30036e-05
-5.56174e-05
0.000127219
-7.77069e-06
0.000200156
5.88776e-05
0.00029323
0.000141192
0.000407345
0.000236534
0.000542816
0.000342537
0.000699312
0.000456962
0.000875841
0.000577624
0.00107078
0.000702387
0.00128194
0.000829193
0.0015067
0.000956134
0.00174211
0.00108153
0.00198498
0.00120401
0.00223202
0.00132258
0.00247981
0.00143664
0.002725
0.00154578
0.00164251
0.00296615
1.35901e-06
-4.21468e-05
9.39015e-06
-8.60751e-05
2.71238e-05
-9.8466e-05
5.70282e-05
-8.55219e-05
0.000101205
-5.19477e-05
0.000161458
-1.37508e-06
0.000239294
6.33557e-05
0.000335888
0.00013994
0.000452026
0.000226399
0.000588054
0.000320934
0.00074384
0.000421838
0.000918776
0.000527451
0.0011118
0.000636168
0.00132146
0.000746475
0.00154597
0.000857018
0.00178328
0.000966698
0.0020311
0.00107476
0.00228686
0.00118088
0.00254777
0.00128487
0.00137835
0.00281194
7.03229e-07
-4.28501e-05
6.38472e-06
-9.17566e-05
1.97904e-05
-0.000111872
4.31547e-05
-0.000108886
7.83882e-05
-8.71812e-05
0.000127165
-5.01519e-05
0.000190954
-4.332e-07
0.000271012
5.98815e-05
0.000368356
0.000129054
0.00048373
0.00020556
0.000617577
0.000287991
0.000770035
0.000374993
0.000940956
0.000465247
0.00112995
0.000557476
0.00133648
0.000650493
0.00155989
0.000743285
0.00179953
0.000835121
0.00205473
0.000925679
0.00232449
0.00101512
0.00109666
0.00260617
1.58531e-07
-4.30086e-05
3.83402e-06
-9.54321e-05
1.34962e-05
-0.000121534
3.11462e-05
-0.000126536
5.84877e-05
-0.000114523
9.70209e-05
-8.8685e-05
0.000148091
-5.15033e-05
0.000212904
-4.93154e-06
0.000292521
4.94373e-05
0.000387843
0.000110238
0.000499604
0.00017623
0.000628373
0.000246225
0.00077459
0.00031903
0.000938643
0.000393423
0.001121
0.000468136
0.00132242
0.000541865
0.00154429
0.000613256
0.00178908
0.000680882
0.00206041
0.000743792
0.00080086
0.00235621
-3.01608e-07
-4.2707e-05
1.65308e-06
-9.73868e-05
8.07738e-06
-0.000127958
2.07523e-05
-0.000139211
4.11763e-05
-0.000134947
7.06583e-05
-0.000118167
0.000110374
-9.1219e-05
0.000161393
-5.59506e-05
0.000224687
-1.38561e-05
0.000301124
3.38002e-05
0.000391472
8.58823e-05
0.0004964
0.000141297
0.000616514
0.000198915
0.000752439
0.000257498
0.00090498
0.000315595
0.00107544
0.000371406
0.00126618
0.000422511
0.00148197
0.0004651
0.00173386
0.000491897
0.000489323
0.0020454
-6.97795e-07
-4.20092e-05
-2.28185e-07
-9.78564e-05
3.39336e-06
-0.00013158
1.17484e-05
-0.000147566
2.61448e-05
-0.000149343
4.77032e-05
-0.000139726
7.74142e-05
-0.00012093
0.000116169
-9.47057e-05
0.000164773
-6.24595e-05
0.000223938
-2.5365e-05
0.000294276
1.55438e-05
0.00037628
5.92927e-05
0.000470299
0.000104896
0.000576508
0.00015129
0.000694844
0.000197259
0.000824882
0.000241367
0.000965523
0.000281871
0.00111401
0.000316615
0.00126265
0.000343253
0.000363843
0.00138813
-1.04577e-06
-4.09634e-05
-1.86375e-06
-9.70384e-05
-6.6622e-07
-0.000132777
3.9548e-06
-0.000152187
1.31392e-05
-0.000158527
2.78376e-05
-0.000154424
4.8866e-05
-0.000141958
7.6937e-05
-0.000122777
0.000112672
-9.81942e-05
0.000156597
-6.92898e-05
0.000209125
-3.69845e-05
0.000270527
-2.10904e-06
0.000340882
3.45413e-05
0.000420011
7.21597e-05
0.000507381
0.000109889
0.000601964
0.000146784
0.000702077
0.000181757
0.000805178