/*--------------------------------*- C++ -*----------------------------------*\
  =========                 |
  \\      /  F ield         | OpenFOAM: The Open Source CFD Toolbox
   \\    /   O peration     | Website:  https://openfoam.org
    \\  /    A nd           | Version:  6.0
     \\/     M anipulation  |
\*---------------------------------------------------------------------------*/
FoamFile
{
    version     2.0;
    format      ascii;
    class       surfaceScalarField;
    location    "18";
    object      phi;
}
// * * * * * * * * * * * * * * * * * * * * * * * * * * * * * * * * * * * * * //

dimensions      [0 3 -1 0 0 0 0];

internalField   nonuniform List<scalar> 
7840
(
-3.03474e-06
3.16914e-06
-1.34406e-07
-1.06995e-05
7.98432e-06
-3.19504e-07
-2.18715e-05
1.1614e-05
-4.42057e-07
-3.56458e-05
1.42916e-05
-5.17258e-07
-5.13046e-05
1.62161e-05
-5.57373e-07
-6.82917e-05
1.75593e-05
-5.72239e-07
-8.61909e-05
1.84687e-05
-5.69567e-07
-0.000104706
1.90708e-05
-5.5527e-07
-0.000123646
1.94733e-05
-5.33771e-07
-0.000142906
1.97684e-05
-5.08297e-07
-0.000162459
2.00341e-05
-4.81141e-07
-0.000182341
2.03358e-05
-4.53892e-07
-0.000202641
2.07273e-05
-4.27616e-07
-0.000223489
2.12515e-05
-4.03003e-07
-0.000245049
2.19404e-05
-3.80477e-07
-0.000267505
2.2816e-05
-3.60257e-07
-0.000291052
2.38897e-05
-3.42395e-07
-0.000315888
2.51633e-05
-3.26828e-07
-0.000342207
2.66319e-05
-3.1345e-07
2.82903e-05
-3.02153e-07
-0.000370195
-3.01262e-06
6.18176e-06
-1.06219e-05
1.55936e-05
-2.17083e-05
2.27004e-05
-3.53673e-05
2.79506e-05
-5.08785e-05
3.17273e-05
-6.76817e-05
3.43626e-05
-8.53554e-05
3.61424e-05
-0.000103597
3.73122e-05
-0.000122206
3.80824e-05
-0.000141071
3.86334e-05
-0.000160156
3.91189e-05
-0.000179489
3.96687e-05
-0.000199152
4.03907e-05
-0.000219272
4.13715e-05
-0.000240009
4.26771e-05
-0.000261546
4.43533e-05
-0.000284082
4.64256e-05
-0.000307818
4.88997e-05
-0.000332954
5.17676e-05
5.5019e-05
-0.000359683
-2.97083e-06
9.1526e-06
-1.04741e-05
2.30969e-05
-2.13964e-05
3.36227e-05
-3.48327e-05
4.13869e-05
-5.00583e-05
4.69529e-05
-6.65053e-05
5.08096e-05
-8.37414e-05
5.33785e-05
-0.000101451
5.50213e-05
-0.000119417
5.60493e-05
-0.000137514
5.67297e-05
-0.000155687
5.72918e-05
-0.000173949
5.79307e-05
-0.000192368
5.88106e-05
-0.000211062
6.00652e-05
-0.000230184
6.17988e-05
-0.000249917
6.40861e-05
-0.000270463
6.69717e-05
-0.000292033
7.04701e-05
-0.000314839
7.45733e-05
7.92673e-05
-0.000339087
-2.91253e-06
1.20651e-05
-1.02659e-05
3.04503e-05
-2.09542e-05
4.4311e-05
-3.4072e-05
5.45047e-05
-4.88886e-05
6.17695e-05
-6.48255e-05
6.67466e-05
-8.14352e-05
6.99882e-05
-9.83828e-05
7.1969e-05
-0.000115431
7.30973e-05
-0.000132426
7.37253e-05
-0.000149291
7.41568e-05
-0.000166014
7.46536e-05
-0.000182642
7.54384e-05
-0.000199274
7.66973e-05
-0.000216055
7.85794e-05
-0.000233165
8.11959e-05
-0.000250812
8.4619e-05
-0.000269222
8.88798e-05
-0.000288626
9.39772e-05
9.98963e-05
-0.000309255
-2.84186e-06
1.4907e-05
-1.00097e-05
3.76181e-05
-2.04057e-05
5.4707e-05
-3.31239e-05
6.72229e-05
-4.7427e-05
7.60726e-05
-6.27241e-05
8.20436e-05
-7.85496e-05
8.58137e-05
-9.45454e-05
8.79648e-05
-0.000110446
8.89977e-05
-0.000126066
8.93459e-05
-0.000141295
8.93858e-05
-0.000156088
8.94457e-05
-0.00017046
8.98105e-05
-0.000184486
9.07239e-05
-0.000198295
9.23882e-05
-0.000212061
9.49624e-05
-0.000226001
9.85581e-05
-0.000240357
0.000103236
-0.000255394
0.000109014
0.000115881
-0.000271378
-2.76321e-06
1.76702e-05
-9.71866e-06
4.45735e-05
-1.97761e-05
6.47644e-05
-3.20291e-05
7.94759e-05
-4.57341e-05
8.97776e-05
-6.02875e-05
9.65971e-05
-7.52048e-05
0.000100731
-9.01021e-05
0.000102862
-0.000104681
0.000103577
-0.000118721
0.000103385
-0.000132066
0.000102732
-0.00014463
0.00010201
-0.000156389
0.000101569
-0.00016738
0.000101715
-0.000177708
0.000102716
-0.000187535
0.00010479
-0.000197083
0.000108106
-0.00020662
0.000112774
-0.000216454
0.000118847
0.000126335
-0.000226907
-2.68053e-06
2.03507e-05
-9.40436e-06
5.12974e-05
-1.90868e-05
7.44468e-05
-3.08216e-05
9.12108e-05
-4.38604e-05
0.000102816
-5.75888e-05
0.000110325
-7.15045e-05
0.000114647
-8.51976e-05
0.000116555
-9.83365e-05
0.000116716
-0.000110657
0.000115706
-0.000121958
0.000114032
-0.000132099
0.000112151
-0.000141003
0.000110473
-0.000148661
0.000109374
-0.000155138
0.000109193
-0.000160576
0.000110228
-0.000165196
0.000112726
-0.000169295
0.000116873
-0.000173234
0.000122786
0.000130521
-0.00017742
-2.59649e-06
2.29472e-05
-9.07403e-06
5.77749e-05
-1.83505e-05
8.37233e-05
-2.95206e-05
0.000102381
-4.18339e-05
0.00011513
-5.46688e-05
0.00012316
-6.75086e-05
0.000127487
-7.99211e-05
0.000128968
-9.15419e-05
0.000128337
-0.000102065
0.000126228
-0.000111236
0.000123204
-0.000118856
0.000119771
-0.000124783
0.0001164
-0.000128946
0.000113536
-0.000131353
0.0001116
-0.000132109
0.000110984
-0.000131425
0.000112042
-0.00012962
0.000115068
-0.000127126
0.000120291
0.000127854
-0.000124459
-2.51195e-06
2.54592e-05
-8.72875e-06
6.39917e-05
-1.75669e-05
9.25614e-05
-2.81229e-05
0.000112937
-3.96474e-05
0.000126654
-5.1517e-05
0.00013503
-6.32069e-05
0.000139176
-7.42682e-05
0.000140029
-8.43101e-05
0.000138379
-9.29872e-05
0.000134906
-9.99946e-05
0.000130211
-0.000105068
0.000124844
-0.000107994
0.000119326
-0.000108621
0.000114163
-0.000106882
0.000109861
-0.000102822
0.000106924
-9.66181e-05
0.000105838
-8.86048e-05
0.000107055
-7.92859e-05
0.000110973
0.000117893
-6.93248e-05
-2.42558e-06
2.78848e-05
-8.3622e-06
6.99283e-05
-1.67201e-05
0.000100919
-2.65976e-05
0.000122814
-3.72499e-05
0.000137306
-4.80574e-05
0.000145837
-5.84952e-05
0.000149614
-6.81072e-05
0.000149641
-7.6485e-05
0.000146756
-8.32538e-05
0.000141674
-8.80636e-05
0.000135021
-9.05893e-05
0.00012737
-9.05386e-05
0.000119275
-8.76699e-05
0.000111294
-8.18203e-05
0.000104012
-7.29436e-05
9.8047e-05
-6.1154e-05
9.40481e-05
-4.67734e-05
9.26745e-05
-3.03746e-05
9.45738e-05
0.000100318
-1.27998e-05
-2.33392e-06
3.02187e-05
-7.9607e-06
7.55551e-05
-1.57781e-05
0.000108737
-2.48846e-05
0.000131921
-3.45421e-05
0.000146964
-4.41401e-05
0.000155435
-5.31614e-05
0.000158636
-6.11533e-05
0.000157633
-6.77032e-05
0.000153306
-7.24205e-05
0.000146392
-7.49246e-05
0.000137525
-7.48407e-05
0.000127286
-7.18048e-05
0.000116239
-6.54814e-05
0.000104971
-5.55949e-05
9.41253e-05
-4.19792e-05
8.44314e-05
-2.46441e-05
7.6713e-05
-3.85568e-06
7.18861e-05
1.977e-05
7.09482e-05
7.48999e-05
4.51883e-05
-2.23186e-06
3.24505e-05
-7.50448e-06
8.08277e-05
-1.46948e-05
0.000115927
-2.28974e-05
0.000140123
-3.138e-05
0.000155447
-3.95433e-05
0.000163599
-4.68839e-05
0.000165976
-5.29622e-05
0.000163711
-5.7375e-05
0.000157719
-5.97341e-05
0.000148751
-5.96494e-05
0.00013744
-5.67187e-05
0.000124355
-5.05271e-05
0.000110047
-4.06577e-05
9.51013e-05
-2.67219e-05
8.01894e-05
-8.41313e-06
6.61226e-05
1.44068e-05
5.38931e-05
4.15878e-05
4.4705e-05
7.25268e-05
4.00092e-05
4.14488e-05
0.000105978
-2.11351e-06
3.45641e-05
-6.97016e-06
8.56844e-05
-1.34152e-05
0.000122372
-2.05306e-05
0.000147239
-2.75846e-05
0.000162501
-3.39864e-05
0.000170001
-3.92473e-05
0.000171237
-4.29457e-05
0.000167409
-4.46989e-05
0.000159472
-4.41383e-05
0.00014819
-4.08892e-05
0.000134191
-3.45543e-05
0.000118021
-2.47045e-05
0.000100198
-1.08781e-05
8.1275e-05
7.39979e-06
6.19115e-05
3.05702e-05
4.29522e-05
5.89473e-05
2.5516e-05
9.25643e-05
1.1088e-05
0.000130923
1.6506e-06
-2.55548e-07
0.000172627
-1.97321e-06
3.65373e-05
-6.33397e-06
9.00451e-05
-1.18808e-05
0.000127919
-1.76702e-05
0.000153028
-2.29586e-05
0.000167789
-2.71542e-05
0.000174196
-2.97754e-05
0.000173858
-3.04156e-05
0.00016805
-2.87145e-05
0.000157771
-2.43343e-05
0.00014381
-1.69374e-05
0.000126794
-6.16727e-06
0.000107251
8.37e-06
8.56603e-05
2.71185e-05
6.25265e-05
5.05741e-05
3.84559e-05
7.9259e-05
1.42674e-05
0.000113645
-8.87027e-06
0.000153994
-2.9261e-05
0.000200032
-4.43868e-05
-5.05697e-05
0.000250346
-1.80654e-06
3.83438e-05
-5.57473e-06
9.38133e-05
-1.0037e-05
0.000132381
-1.4205e-05
0.000157196
-1.73052e-05
0.000170889
-1.87264e-05
0.000175617
-1.79764e-05
0.000173108
-1.46481e-05
0.000164721
-8.39303e-06
0.000151516
1.0994e-06
0.000134318
1.41199e-05
0.000113774
3.09574e-05
9.0413e-05
5.19189e-05
6.46987e-05
7.73526e-05
3.70928e-05
0.00010767
8.13856e-06
0.000143356
-2.14187e-05
0.00018494
-5.04542e-05
0.000232879
-7.71998e-05
0.000287226
-9.87345e-05
-0.000110132
0.000346789
-1.61079e-06
3.99546e-05
-4.67554e-06
9.68781e-05
-7.83612e-06
0.000135542
-1.00352e-05
0.000159395
-1.04439e-05
0.000171298
-8.40499e-06
0.000173579
-3.38799e-06
0.000168091
5.04348e-06
0.00015629
1.72534e-05
0.000139306
3.35474e-05
0.000118024
5.41823e-05
9.31389e-05
7.93746e-05
6.52207e-05
0.000109313
3.47607e-05
0.000144176
2.22921e-06
0.000184169
-3.18545e-05
0.000229562
-6.68115e-05
0.000280727
-0.000101619
0.000338128
-0.000134601
0.000402132
-0.000162738
-0.000180032
0.000472031
-1.38473e-06
4.13393e-05
-3.62323e-06
9.91166e-05
-5.23771e-06
0.000137156
-5.07325e-06
0.000159231
-2.21573e-06
0.00016844
4.07111e-06
0.000167292
1.43925e-05
0.00015777
2.92534e-05
0.000141429
4.9075e-05
0.000119485
7.42003e-05
9.28983e-05
0.000104891
6.24482e-05
0.000141321
2.87909e-05
0.000183568
-7.48632e-06
0.000231614
-4.58173e-05
0.000285363
-8.5603e-05
0.000344681
-0.00012613
0.000409478
-0.000166416
0.000479816
-0.000204939
0.000555999
-0.000238921
-0.000262043
0.00063801
-1.12739e-06
4.24667e-05
-2.40509e-06
0.000100394
-2.20281e-06
0.000136954
7.62879e-07
0.000156265
7.5241e-06
0.000161679
1.8932e-05
0.000155884
3.57064e-05
0.000140996
5.84651e-05
0.00011867
8.77357e-05
9.02141e-05
0.000123952
5.66815e-05
0.000167442
1.8959e-05
0.000218396
-2.21639e-05
0.000276845
-6.59348e-05
0.000342614
-0.000111587
0.000415301
-0.00015829
0.000494264
-0.000205092
0.000578667
-0.000250819
0.000667604
-0.000293876
0.000760419
-0.000331737
-0.000359501
0.000857877
-8.36154e-07
4.33029e-05
-1.00321e-06
0.000100561
1.31632e-06
0.000134634
7.56588e-06
0.000150016
1.8928e-05
0.000150317
3.64032e-05
0.000138409
6.08628e-05
0.000116536
9.30777e-05
8.64555e-05
0.000133726
4.9566e-05
0.000183385
7.02272e-06
0.000242508
-4.01647e-05
0.000311394
-9.10491e-05
0.000390131
-0.000144672
0.000478538
-0.000199994
0.000576073
-0.000255825
0.00068172
-0.000310739
0.000793865
-0.000362964
0.000910161
-0.000410173
0.0010277
-0.000449275
-0.000478984
0.00114718
-5.04469e-07
4.38073e-05
6.1191e-07
9.94449e-05
5.38834e-06
0.000129858
1.54581e-05
0.000139946
3.2183e-05
0.000133592
5.67415e-05
0.00011385
9.01829e-05
8.30946e-05
0.000133454
4.31843e-05
0.000187405
-4.38503e-06
0.000252779
-5.83513e-05
0.000330193
-0.000117579
0.000420114
-0.00018097
0.000522832
-0.000247389
0.000638424
-0.000315587
0.00076671
-0.00038411
0.000907144
-0.000451173
0.00105858
-0.000514398
0.00121843
-0.000570027
0.00137974
-0.000610585
-0.000619974
0.00152073
-1.20769e-07
4.39281e-05
2.48556e-06
9.68386e-05
1.01114e-05
0.000122232
2.46057e-05
0.000125452
4.75325e-05
0.000110665
8.02643e-05
8.11182e-05
0.000124035
3.93239e-05
0.00017996
-1.27405e-05
0.000249034
-7.34594e-05
0.00033212
-0.000141437
0.000429932
-0.000215391
0.000543035
-0.000294073
0.000671861
-0.000376216
0.000816783
-0.000460508
0.000978256
-0.000545583
0.00115712
-0.000630034
0.00135513
-0.000712407
0.00157624
-0.000791142
0.00183049
-0.00086483
-0.000929599
0.00214011
3.35048e-07
4.35931e-05
4.68517e-06
9.24885e-05
1.56213e-05
0.000111296
3.52281e-05
0.000105845
6.52843e-05
8.0609e-05
0.000107357
3.90458e-05
0.000162842
-1.61618e-05
0.000232975
-8.28727e-05
0.000318805
-0.000159289
0.000421176
-0.000243808
0.0005407
-0.000334915
0.000677753
-0.000431126
0.0008325
-0.000530963
0.00100496
-0.00063297
0.00119514
-0.00073576
0.00140321
-0.000838101
0.00162983
-0.000939033
0.00187667
-0.00103798
0.00214664
-0.00113479
-0.00122176
0.0024388
8.86961e-07
4.27061e-05
7.29116e-06
8.60843e-05
2.20781e-05
9.65091e-05
4.75782e-05
8.03448e-05
8.57838e-05
4.24034e-05
0.000138433
-1.3603e-05
0.00020703
-8.4759e-05
0.000292829
-0.000168672
0.000396788
-0.000263249
0.000519526
-0.000366546
0.000661284
-0.000476674
0.000821918
-0.000591759
0.00100092
-0.00070996
0.00119745
-0.000829508
0.00141048
-0.000948786
0.00163881
-0.00106643
0.00188119
-0.00118142
0.00213638
-0.00129317
0.00240293
-0.00140134
-0.00149759
0.00267875
1.56342e-06
4.11427e-05
1.03942e-05
7.72535e-05
2.9655e-05
7.72483e-05
6.19183e-05
4.80815e-05
0.000109368
-5.04586e-06
0.000173857
-7.80928e-05
0.000256903
-0.000167804
0.000359626
-0.000271395
0.000482689
-0.000386311
0.000626227
-0.000510084
0.000789816
-0.000640263
0.000972475
-0.000774419
0.00117271
-0.000910194
0.00138859
-0.00104539
0.00161784
-0.00117804
0.00185795
-0.00130654
0.00210621
-0.00142968
0.00235972
-0.00154669
0.0026155
-0.00165712
-0.00175406
0.00287197
2.39348e-06
3.87492e-05
1.40835e-05
6.55634e-05
3.85148e-05
5.2817e-05
7.84778e-05
8.11855e-06
0.000136295
-6.28629e-05
0.000213842
-0.000155639
0.000312492
-0.000266455
0.000433031
-0.000391934
0.000575561
-0.000528842
0.000739447
-0.00067397
0.000923308
-0.000824123
0.00112507
-0.000976182
0.00134208
-0.0011272
0.00157124
-0.00127455
0.00180918
-0.00141597
0.00205238
-0.00154974
0.00229732
-0.00167462
0.00254052
-0.00178988
0.00277866
-0.00189526
-0.00198594
0.00301054
3.40352e-06
3.53457e-05
1.84359e-05
5.0531e-05
4.87862e-05
2.24668e-05
9.74099e-05
-4.05052e-05
0.000166677
-0.00013213
0.000258337
-0.0002473
0.000373415
-0.000381533
0.00051209
-0.000530609
0.000673611
-0.000690363
0.000856282
-0.00085664
0.00105752
-0.00102536
0.00127403
-0.00119269
0.00150197
-0.00135514
0.00173724
-0.00150982
0.00197571
-0.00165444
0.00221339
-0.00178742
0.00244661
-0.00190784
0.00267211
-0.00201538
0.00288715
-0.00211031
-0.00218987
0.00309109
4.61453e-06
3.07312e-05
2.3506e-05
3.16396e-05
6.05421e-05
-1.45694e-05
0.000118755
-9.87179e-05
0.000200421
-0.000213797
0.00030696
-0.000353838
0.000438776
-0.000513349
0.000595141
-0.000686974
0.00077415
-0.000869373
0.0009728
-0.00105529
0.00118719
-0.00123975
0.00141279
-0.00141829
0.00164481
-0.00158716
0.00187849
-0.00174351
0.00210944
-0.00188539
0.00233379
-0.00201177
0.00254837
-0.00212242
0.00275074
-0.00221776
0.00293923
-0.0022988
-0.00236456
0.00311392
6.04029e-06
2.46909e-05
2.93192e-05
8.36063e-06
7.37849e-05
-5.90351e-05
0.000142413
-0.000167346
0.000237191
-0.000308575
0.000358943
-0.00047559
0.000507144
-0.00066155
0.000679841
-0.000859671
0.000873719
-0.00106325
0.00108434
-0.00126591
0.00130651
-0.00146192
0.00153472
-0.0016465
0.00176361
-0.00181604
0.00198829
-0.00196819
0.00220466
-0.00210177
0.00240958
-0.00221668
0.00260084
-0.00231368
0.0027772
-0.00239411
0.00293821
-0.0024598
-0.00251119
0.00308483
7.68655e-06
1.70043e-05
3.5868e-05
-1.98209e-05
8.84369e-05
-0.000111604
0.000168129
-0.000247038
0.000276393
-0.000416839
0.000413141
-0.000612338
0.00057659
-0.000824999
0.000763286
-0.00104637
0.000968357
-0.00126832
0.00118597
-0.00148352
0.00140988
-0.00168583
0.00163402
-0.00187065
0.00185299
-0.00203501
0.00206237
-0.00217756
0.0022589
-0.0022983
0.00244055
-0.00239833
0.00260636
-0.00247949
0.00275632
-0.00254408
0.00289115
-0.00259462
-0.00263261
0.00301256
9.55074e-06
7.45357e-06
4.31101e-05
-5.33802e-05
0.000104337
-0.000172831
0.000195493
-0.000338194
0.000317181
-0.000538527
0.000468066
-0.000763222
0.000644798
-0.00100173
0.000842243
-0.00124381
0.00105399
-0.00148007
0.00127304
-0.00170257
0.00149255
-0.00190534
0.00170646
-0.00208456
0.0019099
-0.00223845
0.00209943
-0.00236709
0.00227302
-0.00247189
0.00242993
-0.00255524
0.00257045
-0.00262001
0.00269567
-0.0026693
0.00280713
-0.00270609
-0.00273254
0.00290707
1.16219e-05
-4.16835e-06
5.09675e-05
-9.27257e-05
0.000121239
-0.000243102
0.00022394
-0.000440895
0.000358487
-0.000673074
0.000521963
-0.000926698
0.000709226
-0.001189
0.00091343
-0.00144801
0.00112683
-0.00169347
0.00134173
-0.00191746
0.00155123
-0.00211485
0.00174986
-0.00228319
0.00193381
-0.00242241
0.00210095
-0.00253423
0.00225062
-0.00262157
0.00238334
-0.00268796
0.00250045
-0.00273712
0.00260377
-0.00277262
0.00269537
-0.00279768
-0.0028148
0.00277763
1.38807e-05
-1.8049e-05
5.93271e-05
-0.000138172
0.000138819
-0.000322594
0.000252773
-0.000554848
0.000399069
-0.000819371
0.000572928
-0.00110056
0.000767317
-0.00138338
0.000973837
-0.00165453
0.00118383
-0.00190346
0.00138943
-0.00212307
0.00158433
-0.00230974
0.00176415
-0.002463
0.00192645
-0.00258471
0.00207054
-0.00267832
0.00219705
-0.00274808
0.00230752
-0.00279843
0.00240401
-0.00283361
0.00248876
-0.00285737
0.00256399
-0.00287292
-0.0028828
0.00263199
1.62986e-05
-3.43476e-05
6.8041e-05
-0.000189915
0.000156677
-0.00041123
0.000281184
-0.000679356
0.00043758
-0.000975767
0.000619039
-0.00128202
0.000816715
-0.00158106
0.00102101
-0.00185883
0.00122289
-0.00210535
0.00141496
-0.00231514
0.001592
-0.00248678
0.00175105
-0.00262205
0.00189119
-0.00272485
0.00201305
-0.00280018
0.0021183
-0.00285333
0.0022092
-0.00288932
0.00228816
-0.00291257
0.00235755
-0.00292676
0.00241949
-0.00293486
-0.00293931
0.00247601
1.88382e-05
-5.31858e-05
7.69289e-05
-0.000248005
0.000174353
-0.000508654
0.000308299
-0.000813301
0.000472654
-0.00114012
0.000658514
-0.00146788
0.000855475
-0.00177802
0.00105325
-0.0020566
0.00124305
-0.00229515
0.00141849
-0.00249058
0.0015758
-0.00264408
0.00171358
-0.00275983
0.00183231
-0.00284358
0.00193372
-0.00290159
0.0020202
-0.00293981
0.00209437
-0.00296349
0.00215874
-0.00297694
0.00221555
-0.00298357
0.0022667
-0.00298602
-0.00298646
0.00231385
2.14531e-05
-7.46389e-05
8.57821e-05
-0.000312334
0.000191346
-0.000614218
0.000333217
-0.000955172
0.000503
-0.0013099
0.000689843
-0.00165472
0.000882214
-0.00197039
0.00106973
-0.00224411
0.00124443
-0.00246986
0.00140135
-0.00264749
0.00153831
-0.00278105
0.00165542
-0.00287695
0.00175435
-0.00294251
0.00183757
-0.00298481
0.00190789
-0.00301013
0.001968
-0.0030236
0.00202029
-0.00302923
0.00206677
-0.00303004
0.00210901
-0.00302826
-0.00302578
0.00214833
2.40882e-05
-9.87271e-05
9.43701e-05
-0.000382616
0.000207133
-0.000726981
0.000355075
-0.00110311
0.000527498
-0.00148233
0.000711906
-0.00183913
0.000896186
-0.00215467
0.00107046
-0.00241838
0.00122806
-0.00262746
0.00136565
-0.00278508
0.00148265
-0.00289805
0.00158046
-0.00297476
0.0016616
-0.00302364
0.001729
-0.00305222
0.00178559
-0.00306672
0.00183394
-0.00307195
0.00187618
-0.00307147
0.001914
-0.00306786
0.0019487
-0.00306296
-0.00305833
0.00198126
2.66819e-05
-0.000125409
0.000102451
-0.000458385
0.000221203
-0.000845734
0.000373098
-0.00125501
0.000545272
-0.0016545
0.000724033
-0.00201789
0.000897282
-0.00232792
0.00105617
-0.00257727
0.00119563
-0.00276692
0.00131399
-0.00290344
0.00141211
-0.00299617
0.00149238
-0.00305502
0.00155785
-0.00308911
0.00161166
-0.00310603
0.00165661
-0.00311167
0.00169504
-0.00311037
0.00172877
-0.0031052
0.00175918
-0.00309827
0.00178728
-0.00309106
-0.00308483
0.00181378
2.91678e-05
-0.000154577
0.000109781
-0.000538998
0.000233082
-0.000969034
0.000386648
-0.00140858
0.000555743
-0.0018236
0.000726015
-0.00218816
0.000885954
-0.00248786
0.00102814
-0.00271945
0.00114922
-0.00288801
0.00124911
-0.00300333
0.00132982
-0.00307688
0.00139443
-0.00311963
0.00144626
-0.00314095
0.00148841
-0.00314817
0.00152344
-0.0031467
0.00155337
-0.00314031
0.00157971
-0.00313155
0.00160356
-0.00312212
0.00162568
-0.00311318
-0.00310574
0.00164659
3.14773e-05
-0.000186054
0.000116129
-0.00062365
0.000242361
-0.00109527
0.000395264
-0.00156148
0.000558643
-0.00198697
0.000718066
-0.00234758
0.000863095
-0.00263289
0.000987978
-0.00284434
0.00109107
-0.0029911
0.00117364
-0.0030859
0.00123858
-0.00314182
0.00128937
-0.00317042
0.00132936
-0.00318095
0.00136144
-0.00318025
0.00138788
-0.00317313
0.00141036
-0.00316279
0.00143011
-0.0031513
0.00144797
-0.00313998
0.00146452
-0.00312973
-0.00312134
0.00148012
3.35429e-05
0.000121286
0.000248719
0.000398677
0.000554008
0.000700749
0.000829901
0.000937473
0.00102339
0.00109001
0.00114082
0.00117944
0.0012091
0.00123238
0.00125123
0.00126702
0.00128071
0.00129296
0.0013042
0.00131467
3.35384e-05
0.000186043
0.00012127
0.000623592
0.000248687
0.00109515
0.000398627
0.0015613
0.000553943
0.00198674
0.000700672
0.00234731
0.000829817
0.00263259
0.000937386
0.00284402
0.0010233
0.00299078
0.00108993
0.00308558
0.00114074
0.00314151
0.00117936
0.00317011
0.00120902
0.00318065
0.00123231
0.00317996
0.00125116
0.00317284
0.00126695
0.0031625
0.00128065
0.00315101
0.00129291
0.00313971
0.00130415
0.00312946
0.00312106
0.00131462
3.1473e-05
0.00015457
0.000116113
0.000538952
0.000242328
0.000968933
0.000395213
0.00140841
0.000558575
0.00182338
0.000717984
0.0021879
0.000863003
0.00248757
0.00098788
0.00271914
0.00109097
0.00288769
0.00117354
0.00300301
0.00123849
0.00307656
0.00128928
0.00311932
0.00132927
0.00314065
0.00136136
0.00314788
0.0013878
0.0031464
0.00141028
0.00314002
0.00143004
0.00313126
0.00144791
0.00312184
0.00146446
0.0031129
0.00310546
0.00148007
2.91638e-05
0.000125406
0.000109766
0.00045835
0.00023305
0.000845649
0.000386597
0.00125487
0.000555672
0.0016543
0.000725927
0.00201764
0.000885854
0.00232764
0.00102803
0.00257697
0.00114911
0.00276661
0.00124899
0.00290313
0.00132971
0.00299585
0.00139432
0.00305471
0.00144616
0.00308881
0.00148831
0.00310573
0.00152334
0.00311137
0.00155328
0.00311008
0.00157963
0.00310491
0.00160348
0.00309798
0.00162561
0.00309077
0.00308455
0.00164652
2.66783e-05
9.8728e-05
0.000102436
0.000382592
0.000221172
0.000726913
0.000373046
0.00110299
0.000545199
0.00148215
0.00072394
0.0018389
0.000897174
0.00215441
0.00105605
0.00241809
0.00119551
0.00262716
0.00131387
0.00278477
0.00141199
0.00289773
0.00149225
0.00297444
0.00155773
0.00302333
0.00161154
0.00305191
0.0016565
0.00306642
0.00169493
0.00307165
0.00172867
0.00307118
0.00175908
0.00306757
0.00178719
0.00306267
0.00305804
0.00181369
2.40849e-05
7.4643e-05
9.43568e-05
0.00031232
0.000207104
0.000614166
0.000355025
0.000955072
0.000527425
0.00130975
0.00071181
0.00165452
0.000896072
0.00197015
0.00107033
0.00224383
0.00122792
0.00246956
0.00136551
0.00264718
0.00148251
0.00278073
0.00158032
0.00287663
0.00166146
0.00294219
0.00172887
0.0029845
0.00178546
0.00300982
0.00183381
0.0030233
0.00187606
0.00302893
0.00191389
0.00302974
0.0019486
0.00302796
0.00302548
0.00198116
2.14502e-05
5.31929e-05
8.577e-05
0.000248
0.000191318
0.000508617
0.000333169
0.000813221
0.000502928
0.00113999
0.000689746
0.0014677
0.000882095
0.0017778
0.00106959
0.00205634
0.00124428
0.00229487
0.00140119
0.00249028
0.00153815
0.00264377
0.00165526
0.00275951
0.00175419
0.00284327
0.00183741
0.00290127
0.00190774
0.0029395
0.00196785
0.00296318
0.00202015
0.00297663
0.00206663
0.00298326
0.00210888
0.00298571
0.00298616
0.00214821
1.88357e-05
3.43571e-05
7.69182e-05
0.000189918
0.000174328
0.000411208
0.000308253
0.000679296
0.000472584
0.000975662
0.000658418
0.00128186
0.000855354
0.00158086
0.0010531
0.00185859
0.00124289
0.00210508
0.00141832
0.00231485
0.00157562
0.00248647
0.00171339
0.00262174
0.00183213
0.00272453
0.00193354
0.00279986
0.00202003
0.00285301
0.0020942
0.00288901
0.00215857
0.00291226
0.00221539
0.00292645
0.00226655
0.00293455
0.002939
0.0023137
1.62966e-05
1.80606e-05
6.80318e-05
0.000138182
0.000156654
0.000322585
0.000281143
0.000554808
0.000437514
0.00081929
0.000618946
0.00110043
0.000816594
0.00138322
0.00102086
0.00165432
0.00122272
0.00190322
0.00141478
0.00212279
0.0015918
0.00230945
0.00175084
0.00246269
0.00189098
0.0025844
0.00201284
0.002678
0.0021181
0.00274776
0.00220899
0.00279811
0.00228796
0.00283329
0.00235736
0.00285705
0.00241931
0.0028726
0.00288248
0.00247583
1.38792e-05
4.18137e-06
5.93196e-05
9.27419e-05
0.0001388
0.000243105
0.000252736
0.000440872
0.000399009
0.000673017
0.000572839
0.000926601
0.000767198
0.00118886
0.000973688
0.00144783
0.00118365
0.00169325
0.00138923
0.00191721
0.00158411
0.00211457
0.00176392
0.00228289
0.00192621
0.0024221
0.0020703
0.00253391
0.00219681
0.00262125
0.00230729
0.00268763
0.00240378
0.0027368
0.00248853
0.0027723
0.00256377
0.00279736
0.00281448
0.00263178
1.16211e-05
-7.43968e-06
5.09619e-05
5.3401e-05
0.000121224
0.000172843
0.000223908
0.000338187
0.000358433
0.000538493
0.000521881
0.000763153
0.000709113
0.00100162
0.000913284
0.00124366
0.00112666
0.00147988
0.00134152
0.00170235
0.001551
0.00190509
0.00174961
0.00208428
0.00193355
0.00223816
0.00210068
0.00236678
0.00225035
0.00247158
0.00238307
0.00255491
0.00250017
0.00261969
0.0026035
0.00266897
0.00269511
0.00270576
0.00273221
0.00277738
9.5505e-06
-1.69902e-05
4.31065e-05
1.98449e-05
0.000104325
0.000111625
0.000195467
0.000247046
0.000317134
0.000416825
0.000467992
0.000612295
0.000644693
0.000824923
0.000842102
0.00104625
0.00105381
0.00126817
0.00127283
0.00148333
0.00149231
0.00168561
0.00170619
0.0018704
0.00190961
0.00203474
0.00209912
0.00217727
0.0022727
0.002298
0.00242961
0.00239801
0.00257013
0.00247916
0.00269535
0.00254375
0.00280682
0.00259429
0.00263227
0.00290676
7.68698e-06
-2.46772e-05
3.58665e-05
-8.33462e-06
8.84289e-05
5.90626e-05
0.000168109
0.000167366
0.000276353
0.00030858
0.000413076
0.000475573
0.000576494
0.000661505
0.000763154
0.000859594
0.000968186
0.00106314
0.00118576
0.00126576
0.00140963
0.00146174
0.00163374
0.00164629
0.00185268
0.0018158
0.00206203
0.00196792
0.00225855
0.00210148
0.00244018
0.00221638
0.00260599
0.00231336
0.00275595
0.00239378
0.00289078
0.00245946
0.00251084
0.0030122
6.04132e-06
-3.07185e-05
2.93194e-05
-3.16127e-05
7.378e-05
1.4602e-05
0.000142397
9.87489e-05
0.000237158
0.000213819
0.000358886
0.000353845
0.000507056
0.000513335
0.000679717
0.000686933
0.000873556
0.000869301
0.00108413
0.00105519
0.00130626
0.00123961
0.00153444
0.00141811
0.00176328
0.00158696
0.00198793
0.00174327
0.00220428
0.00188513
0.00240917
0.00201148
0.00260042
0.00212211
0.00277677
0.00221743
0.00293778
0.00229846
0.00236421
0.00308441
4.61599e-06
-3.53345e-05
2.35073e-05
-5.0504e-05
6.05392e-05
-2.24299e-05
0.000118742
4.0546e-05
0.000200393
0.000132168
0.000306908
0.000247329
0.000438695
0.000381548
0.000595025
0.000530603
0.000773995
0.000690332
0.000972601
0.000856579
0.00118694
0.00102527
0.00141249
0.00119256
0.00164447
0.00135498
0.00187812
0.00150963
0.00210903
0.00165421
0.00233335
0.00178716
0.0025479
0.00190755
0.00275026
0.00201507
0.00293874
0.00210998
0.00218952
0.00311343
3.4051e-06
-3.87396e-05
1.84373e-05
-6.55362e-05
4.87831e-05
-5.27757e-05
9.73971e-05
-8.06802e-06
0.000166649
6.2917e-05
0.000258287
0.000155691
0.000373336
0.000266498
0.000511977
0.000391962
0.000673459
0.00052885
0.000856085
0.000673953
0.00105728
0.000824078
0.00127373
0.000976104
0.00150162
0.00112709
0.00173685
0.0012744
0.00197527
0.00141579
0.00221291
0.00154952
0.0024461
0.00167437
0.00267157
0.0017896
0.0028866
0.00189495
0.00198561
0.00309052
2.39471e-06
-4.11343e-05
1.40835e-05
-7.7225e-05
3.85089e-05
-7.72011e-05
7.84606e-05
-4.80197e-05
0.000136261
5.11673e-06
0.000213785
7.81667e-05
0.000312408
0.000167875
0.000432913
0.000271457
0.000575405
0.000386359
0.000739247
0.000510111
0.00092306
0.000640265
0.00112477
0.000774392
0.00134173
0.000910135
0.00157084
0.00104529
0.00180872
0.00117791
0.00205188
0.00130637
0.00229678
0.00142947
0.00253994
0.00154644
0.00277805
0.00165684
0.00175375
0.00300991
1.56374e-06
-4.2698e-05
1.03909e-05
-8.60522e-05
2.96428e-05
-9.6453e-05
6.18917e-05
-8.02686e-05
0.000109321
-4.23128e-05
0.000173786
1.37017e-05
0.000256802
8.48594e-05
0.000359492
0.000168768
0.000482516
0.000263335
0.00062601
0.000366616
0.000789552
0.000476723
0.000972161
0.000591783
0.00117234
0.000709954
0.00138817
0.000829468
0.00161736
0.000948709
0.00185742
0.00106631
0.00210563
0.00118126
0.0023591
0.00129297
0.00261484
0.0014011
0.00149731
0.00287127
8.85734e-07
-4.35838e-05
7.28281e-06
-9.24492e-05
2.20561e-05
-0.000111226
4.75366e-05
-0.000105749
8.57174e-05
-8.04936e-05
0.000138337
-3.89179e-05
0.000206901
1.62953e-05
0.000292663
8.30054e-05
0.000396582
0.000159415
0.000519277
0.000243922
0.000660988
0.000335011
0.000821572
0.0004312
0.00100052
0.000531009
0.001197
0.000632984
0.00140997
0.000735738
0.00163824
0.000838039
0.00188057
0.000938927
0.00213571
0.00103783
0.00240222
0.0011346
0.00122153
0.002678
3.31682e-07
-4.39154e-05
4.66994e-06
-9.67875e-05
1.55862e-05
-0.000122143
3.51664e-05
-0.000125329
6.51908e-05
-0.000110518
0.000107227
-8.09544e-05
0.000162674
-3.91514e-05
0.000232765
1.29148e-05
0.000318551
7.36293e-05
0.000420875
0.000141597
0.000540351
0.000215536
0.000677353
0.000294198
0.000832046
0.000376316
0.00100445
0.000460578
0.00119457
0.000545618
0.00140258
0.000630027
0.00162916
0.000712354
0.00187595
0.000791038
0.00214587
0.000864673
0.000929409
0.00243799
-1.26748e-07
-4.37887e-05
2.46208e-06
-9.93763e-05
1.00607e-05
-0.000129741
2.45201e-05
-0.000139789
4.74064e-05
-0.000133404
8.00939e-05
-0.000113642
0.000123818
-8.2875e-05
0.000179694
-4.29612e-05
0.000248718
4.60521e-06
0.000331752
5.85629e-05
0.000429511
0.000117777
0.000542559
0.00018115
0.000671329
0.000247546
0.000816192
0.000315715
0.000977606
0.000384204
0.00115641
0.000451227
0.00135436
0.000514404
0.00157542
0.000569977
0.00182961
0.000610476
0.000619827
0.0021392
-5.13343e-07
-4.32754e-05
5.79405e-07
-0.000100469
5.32062e-06
-0.000134482
1.53465e-05
-0.000149815
3.20217e-05
-0.000150079
5.65265e-05
-0.000138147
8.99117e-05
-0.00011626
0.000133125
-8.61748e-05
0.000187018
-4.92874e-05
0.000252333
-6.75197e-06
0.000329687
4.04228e-05
0.000419547
9.12902e-05
0.000522201
0.000144892
0.000637729
0.000200188
0.000765946
0.000255987
0.000906308
0.000310865
0.00105767
0.000363046
0.00121744
0.000410206
0.00137865
0.000449261
0.000478953
0.00151953
-8.47968e-07
-4.24274e-05
-1.04477e-06
-0.000100272
1.23169e-06
-0.000136759
7.42869e-06
-0.000156012
1.87318e-05
-0.000161383
3.61439e-05
-0.000155559
6.05382e-05
-0.000140654
9.26865e-05
-0.000118323
0.000133267
-8.98684e-05
0.000182859
-5.63432e-05
0.000241914
-1.86327e-05
0.00031073
2.24742e-05
0.000389396
6.62255e-05
0.00047773
0.000111854
0.000575187
0.00015853
0.000680751
0.000205301
0.000792804
0.000250993