/*--------------------------------*- C++ -*----------------------------------*\
  =========                 |
  \\      /  F ield         | OpenFOAM: The Open Source CFD Toolbox
   \\    /   O peration     | Website:  https://openfoam.org
    \\  /    A nd           | Version:  6.0
     \\/     M anipulation  |
\*---------------------------------------------------------------------------*/
FoamFile
{
    version     2.0;
    format      ascii;
    class       volScalarField;
    location    "56";
    object      p;
}
// * * * * * * * * * * * * * * * * * * * * * * * * * * * * * * * * * * * * * //

dimensions      [0 2 -2 0 0 0 0];

internalField   nonuniform List<scalar> 
4000
(
-0.44873
-0.434962
-0.422781
-0.409395
-0.393623
-0.375931
-0.357101
-0.337932
-0.319111
-0.301126
-0.284262
-0.268639
-0.254267
-0.241088
-0.229013
-0.217938
-0.207765
-0.198371
-0.189563
-0.181639
-0.45649
-0.442281
-0.429291
-0.414482
-0.396797
-0.376991
-0.35611
-0.33512
-0.314775
-0.295561
-0.277721
-0.261328
-0.246344
-0.232677
-0.220205
-0.208807
-0.198368
-0.188748
-0.179735
-0.171704
-0.462438
-0.447885
-0.434037
-0.417679
-0.397975
-0.376023
-0.353142
-0.330441
-0.308713
-0.288416
-0.269743
-0.252709
-0.237231
-0.223179
-0.210406
-0.198771
-0.188147
-0.178372
-0.169226
-0.161161
-0.466206
-0.451409
-0.436656
-0.418647
-0.39687
-0.372803
-0.348026
-0.323768
-0.300827
-0.279616
-0.260263
-0.242726
-0.226876
-0.212548
-0.199573
-0.187792
-0.177066
-0.167215
-0.158009
-0.149985
-0.467442
-0.452499
-0.436802
-0.417077
-0.393227
-0.367134
-0.340622
-0.314997
-0.291038
-0.269094
-0.249224
-0.231328
-0.215234
-0.200745
-0.18767
-0.175838
-0.165098
-0.155249
-0.14606
-0.138153
-0.465812
-0.450819
-0.434157
-0.412693
-0.386831
-0.358862
-0.330816
-0.304045
-0.279281
-0.256796
-0.23658
-0.218474
-0.202267
-0.187735
-0.174668
-0.162884
-0.15222
-0.142458
-0.133367
-0.125653
-0.461019
-0.44607
-0.428442
-0.405264
-0.377511
-0.347867
-0.318527
-0.290853
-0.265509
-0.242684
-0.222295
-0.204133
-0.187948
-0.173495
-0.160547
-0.148912
-0.138419
-0.128829
-0.11992
-0.112478
-0.452805
-0.437993
-0.419423
-0.39461
-0.365142
-0.334067
-0.303703
-0.275386
-0.249695
-0.226733
-0.206348
-0.188283
-0.172259
-0.158009
-0.145294
-0.133914
-0.123688
-0.114362
-0.105721
-0.0986284
-0.440964
-0.42638
-0.406924
-0.380602
-0.349645
-0.317421
-0.286323
-0.257629
-0.231828
-0.208932
-0.188729
-0.170918
-0.155194
-0.141273
-0.128908
-0.117891
-0.108032
-0.0990629
-0.0907797
-0.0841144
-0.425346
-0.411081
-0.390824
-0.36317
-0.33099
-0.297924
-0.266392
-0.237595
-0.211917
-0.18929
-0.169443
-0.15204
-0.136755
-0.123292
-0.111394
-0.10085
-0.0914622
-0.0829487
-0.0751185
-0.0689598
-0.405862
-0.392008
-0.371066
-0.342296
-0.309193
-0.27561
-0.24395
-0.215317
-0.189992
-0.16783
-0.148509
-0.131666
-0.116958
-0.104078
-0.0927667
-0.0828082
-0.0739978
-0.0660437
-0.0587685
-0.0532032
-0.382486
-0.369136
-0.347654
-0.318021
-0.284317
-0.250548
-0.219063
-0.190854
-0.166103
-0.144593
-0.125962
-0.109825
-0.0958254
-0.0836534
-0.0730452
-0.0637841
-0.0556599
-0.0483743
-0.0417651
-0.0368874
-0.355257
-0.342506
-0.320653
-0.290436
-0.256468
-0.222843
-0.191826
-0.164289
-0.140319
-0.119638
-0.10185
-0.0865545
-0.0733899
-0.0620435
-0.0522519
-0.0437982
-0.036469
-0.0299656
-0.0241403
-0.020037
-0.324279
-0.31222
-0.290189
-0.259685
-0.225792
-0.192634
-0.162364
-0.135732
-0.112734
-0.0930427
-0.0762363
-0.0619064
-0.0496904
-0.0392782
-0.0304094
-0.0228689
-0.0164439
-0.010842
-0.00591848
-0.00264523
-0.289717
-0.278446
-0.256442
-0.225959
-0.192476
-0.160095
-0.130832
-0.105316
-0.0834637
-0.0649041
-0.0492007
-0.0359427
-0.0247724
-0.0153871
-0.00753446
-0.00100547
0.00440626
0.00898328
0.012891
0.0152886
-0.251795
-0.241405
-0.219644
-0.189492
-0.156745
-0.125429
-0.0974114
-0.0732029
-0.0526475
-0.0353424
-0.0208426
-0.00874165
0.00130777
0.00959501
0.016358
0.0217934
0.0260956
0.0295304
0.0322852
0.0336441
-0.21079
-0.201371
-0.180075
-0.150559
-0.118855
-0.0888714
-0.0623145
-0.0395805
-0.0204516
-0.00450119
0.00871726
0.0196002
0.0284786
0.0356204
0.0412412
0.0455219
0.0486405
0.0508083
0.0521509
0.0520374
-0.167027
-0.158667
-0.138055
-0.109467
-0.0790954
-0.0506865
-0.0257804
-0.00466507
0.0129307
0.0274511
0.039339
0.0489764
0.0566708
0.0626585
0.0671212
0.0702186
0.0720885
0.0727711
0.0721682
0.0700192
-0.120873
-0.113651
-0.0939375
-0.0665567
-0.0377804
-0.011164
0.011924
0.0312968
0.0472732
0.0603114
0.0708511
0.0792612
0.0858272
0.0907515
0.0941789
0.0962373
0.0969524
0.0959751
0.0928552
0.0885953
-0.0727281
-0.0667185
-0.0481053
-0.0221889
0.00475318
0.029384
0.0505061
0.0680276
0.082309
0.0938216
0.103007
0.110232
0.11578
0.119851
0.122604
0.124182
0.12449
0.122691
0.118095
0.113451
-0.0230197
-0.0182862
-0.000961652
0.0232571
0.0481538
0.0706301
0.0896569
0.105228
0.11774
0.127672
0.135469
0.141502
0.146067
0.149404
0.151754
0.153387
0.154279
0.153464
0.15068
0.154096
0.0278133
0.0312141
0.047079
0.0693932
0.0920619
0.11224
0.129061
0.142595
0.153265
0.161554
0.1679
0.172668
0.176155
0.178612
0.180296
0.181465
0.182109
0.181764
0.181308
0.186857
0.0793133
0.0813364
0.0955924
0.115826
0.136116
0.15388
0.168406
0.179831
0.188597
0.195185
0.200023
0.203467
0.205808
0.207297
0.208178
0.208669
0.208755
0.208147
0.207739
0.212195
0.131019
0.131632
0.144154
0.162164
0.179958
0.19522
0.207386
0.216649
0.223461
0.228295
0.231565
0.233612
0.234714
0.235108
0.23502
0.234645
0.23398
0.232804
0.231854
0.234834
0.18247
0.181654
0.192345
0.208022
0.223238
0.235943
0.245709
0.252778
0.257607
0.260656
0.262319
0.262918
0.262715
0.261926
0.260753
0.259363
0.257739
0.255688
0.253887
0.255489
0.233214
0.230962
0.239752
0.253025
0.265616
0.275742
0.283097
0.287965
0.290803
0.292053
0.29209
0.291215
0.289668
0.287648
0.285334
0.282865
0.28021
0.277197
0.274471
0.274752
0.282806
0.279127
0.285976
0.29681
0.306768
0.314322
0.319284
0.32197
0.322833
0.322296
0.320711
0.31836
0.31546
0.312192
0.308713
0.305139
0.301428
0.297436
0.293779
0.292811
0.330819
0.325736
0.330635
0.339031
0.346381
0.351405
0.35402
0.354569
0.353496
0.351206
0.348029
0.344223
0.339988
0.335484
0.330852
0.326184
0.321437
0.316491
0.311927
0.309772
0.376842
0.370394
0.37336
0.379357
0.38416
0.386726
0.387067
0.385548
0.382603
0.378616
0.373895
0.368678
0.363146
0.357444
0.351691
0.345967
0.340224
0.334368
0.328937
0.325655
0.420485
0.412724
0.413807
0.417475
0.419826
0.420034
0.418202
0.414708
0.409974
0.404366
0.39817
0.391605
0.384835
0.377986
0.371165
0.364436
0.357754
0.351044
0.34479
0.340446
0.461381
0.452375
0.45165
0.453095
0.453117
0.451097
0.447214
0.441858
0.43544
0.428305
0.42072
0.412885
0.404949
0.397023
0.389199
0.381529
0.373973
0.366471
0.359446
0.354105
0.499191
0.48902
0.48659
0.485946
0.483791
0.479697
0.473907
0.466823
0.458842
0.45029
0.441417
0.432404
0.423387
0.414463
0.405712
0.397175
0.388816
0.380589
0.372851
0.366585
0.533602
0.52236
0.518351
0.51578
0.511627
0.505633
0.498101
0.489438
0.480031
0.470187
0.460138
0.450052
0.44005
0.430218
0.420623
0.4113
0.402216
0.393334
0.384945
0.377834
0.56433
0.552123
0.546683
0.542373
0.536422
0.528724
0.519632
0.509557
0.498872
0.487873
0.476773
0.465727
0.454845
0.444202
0.433855
0.423831
0.414104
0.404641
0.395669
0.387798
0.591124
0.57807
0.571367
0.565525
0.557998
0.548809
0.538352
0.527043
0.515244
0.503235
0.491218
0.479336
0.467686
0.456337
0.445334
0.434701
0.424416
0.414449
0.404966
0.396428
0.613766
0.599991
0.59221
0.585065
0.576199
0.565746
0.554135
0.541781
0.52904
0.516177
0.503384
0.490794
0.478496
0.46655
0.454994
0.443847
0.433092
0.422701
0.412785
0.40368
0.632071
0.617709
0.60905
0.600845
0.590894
0.579416
0.56687
0.553671
0.540167
0.526614
0.513194
0.500031
0.487209
0.47478
0.462778
0.451216
0.440082
0.429349
0.419081
0.409515
0.645891
0.631085
0.621758
0.612749
0.601975
0.589723
0.57647
0.562633
0.548552
0.534477
0.520583
0.506989
0.493771
0.480977
0.468637
0.456763
0.445343
0.434352
0.423816
0.413901
0.655113
0.640009
0.630234
0.620687
0.609364
0.596594
0.582869
0.568605
0.554139
0.539716
0.525505
0.511622
0.498139
0.485102
0.472537
0.460453
0.448843
0.43768
0.426965
0.416814
0.659663
0.64441
0.634414
0.624601
0.613005
0.59998
0.586021
0.571546
0.55689
0.542294
0.527926
0.5139
0.500286
0.487129
0.474452
0.462264
0.45056
0.439311
0.428507
0.41824
0.659502
0.644253
0.634264
0.62446
0.612873
0.599856
0.585904
0.571436
0.556785
0.542194
0.527831
0.513809
0.500199
0.487044
0.47437
0.462185
0.450482
0.439236
0.428433
0.418169
0.654631
0.639538
0.629785
0.620265
0.608968
0.596223
0.58252
0.568275
0.553826
0.539417
0.52522
0.511348
0.497876
0.484848
0.472291
0.460215
0.448611
0.437454
0.426744
0.416602
0.645089
0.630301
0.621011
0.612046
0.601317
0.589106
0.575889
0.562084
0.548031
0.533981
0.520109
0.506533
0.493333
0.480555
0.468229
0.456366
0.444958
0.433976
0.423449
0.413546
0.630952
0.616616
0.608007
0.599864
0.589975
0.578554
0.566058
0.552904
0.539439
0.52592
0.512531
0.499395
0.486597
0.47419
0.462207
0.450662
0.439543
0.428824
0.418568
0.409019
0.612332
0.59859
0.590873
0.583807
0.575021
0.564641
0.553094
0.540798
0.528106
0.515288
0.502534
0.489979
0.477711
0.465793
0.454262
0.443137
0.432401
0.422028
0.412127
0.403045
0.58938
0.576366
0.569741
0.563995
0.556565
0.547464
0.537086
0.525846
0.514108
0.502153
0.490183
0.478343
0.46673
0.455414
0.444442
0.433836
0.423574
0.413628
0.404165
0.395654
0.562281
0.550121
0.544772
0.540574
0.534736
0.527142
0.518142
0.508148
0.497536
0.486599
0.475555
0.464558
0.45372
0.443116
0.432804
0.422812
0.413113
0.403675
0.394725
0.386885
0.531253
0.520065
0.516159
0.513717
0.509693
0.503818
0.496392
0.487822
0.478496
0.468725
0.458739
0.44871
0.438758
0.428971
0.419416
0.410129
0.401078
0.392223
0.38386
0.376784
0.49655
0.486439
0.484124
0.483624
0.481614
0.477653
0.471982
0.465002
0.457113
0.448642
0.43984
0.430891
0.42193
0.413057
0.404351
0.395855
0.387533
0.379336
0.371627
0.365401
0.458456
0.449515
0.448917
0.45052
0.450702
0.44883
0.445077
0.439837
0.433521
0.426475
0.41897
0.411205
0.40333
0.39546
0.387686
0.380062
0.372546
0.365078
0.358085
0.352787
0.417284
0.409594
0.410814
0.414655
0.417179
0.417549
0.41586
0.412491
0.407869
0.402358
0.396249
0.38976
0.383058
0.37627
0.369504
0.362824
0.356187
0.349514
0.343293
0.338996
0.373376
0.367003
0.370117
0.376298
0.381289
0.384028
0.384524
0.383142
0.380316
0.376434
0.371806
0.366672
0.361214
0.355577
0.349884
0.344213
0.338518
0.332703
0.327307
0.324076
0.327099
0.322096
0.32715
0.335743
0.343293
0.348502
0.351283
0.351978
0.351033
0.348855
0.345777
0.342059
0.337903
0.33347
0.328901
0.324291
0.319595
0.314692
0.310167
0.308065
0.278844
0.275249
0.282261
0.293302
0.303472
0.311222
0.316359
0.3192
0.320198
0.31978
0.318302
0.316044
0.313228
0.310034
0.306622
0.303108
0.299452
0.295507
0.29189
0.290979
0.229023
0.226858
0.235818
0.249307
0.262121
0.272452
0.279992
0.285022
0.288003
0.289378
0.289526
0.28875
0.287291
0.285349
0.283106
0.280701
0.278103
0.27514
0.272456
0.272796
0.178065
0.177338
0.188205
0.204106
0.219553
0.232474
0.242432
0.24967
0.254648
0.257828
0.259606
0.260308
0.260196
0.259488
0.25839
0.257066
0.255503
0.253503
0.251748
0.253411
0.126415
0.12712
0.139822
0.158062
0.176094
0.19158
0.203945
0.213384
0.22035
0.22532
0.228709
0.230862
0.232058
0.232536
0.232524
0.232218
0.231615
0.230493
0.229592
0.232636
0.0745274
0.0766447
0.0910822
0.111551
0.132086
0.150079
0.164811
0.176417
0.185342
0.192068
0.197028
0.200581
0.203018
0.204593
0.205551
0.206113
0.206262
0.205709
0.205349
0.209873
0.0228635
0.0263596
0.0424071
0.0649598
0.087878
0.108291
0.125322
0.139041
0.149873
0.158303
0.164773
0.169651
0.173236
0.175779
0.17754
0.178779
0.179486
0.179195
0.178786
0.184408
-0.0281144
-0.0232851
-0.00577815
0.0186805
0.0438295
0.0665438
0.0857843
0.101544
0.114219
0.124296
0.132218
0.138361
0.143023
0.146446
0.148872
0.150574
0.151528
0.150765
0.148019
0.151496
-0.0779475
-0.0718422
-0.0530483
-0.0268926
0.000303015
0.0251739
0.0465118
0.0642231
0.0786701
0.0903271
0.0996381
0.106973
0.112617
0.116773
0.119598
0.121241
0.121604
0.11985
0.115278
0.110648
-0.126196
-0.118879
-0.0989878
-0.0713702
-0.042341
-0.015484
0.00782046
0.0273837
0.0435261
0.0567086
0.0673735
0.0758925
0.0825529
0.0875584
0.0910552
0.0931723
0.0939363
0.0929965
0.0898958
0.0856385
-0.172432
-0.163977
-0.143192
-0.114372
-0.0837499
-0.0551018
-0.0299797
-0.0086745
0.00908656
0.0237502
0.0357623
0.045507
0.0532939
0.0593609
0.0638907
0.0670442
0.0689607
0.0696808
0.0691024
0.0669583
-0.216252
-0.206741
-0.185279
-0.155536
-0.123586
-0.0933665
-0.0665957
-0.0436734
-0.0243809
-0.00828876
0.00505208
0.0160406
0.0250098
0.0322293
0.0379161
0.0422522
0.045417
0.0476236
0.0489964
0.048897
-0.257292
-0.246811
-0.224891
-0.194521
-0.161535
-0.129987
-0.10176
-0.0773657
-0.0566492
-0.0392049
-0.0245851
-0.0123807
-0.0022425
0.00612078
0.0129484
0.0184385
0.0227866
0.0262604
0.0290479
0.0304277
-0.295224
-0.283865
-0.26171
-0.23102
-0.197306
-0.1647
-0.135231
-0.109535
-0.0875251
-0.0688296
-0.0530092
-0.0396506
-0.0283941
-0.0189351
-0.0110195
-0.00443736
0.00101926
0.00563463
0.00957497
0.0119951
-0.329773
-0.317628
-0.295456
-0.264756
-0.230643
-0.197268
-0.1668
-0.139992
-0.116842
-0.0970189
-0.0800995
-0.0656727
-0.0533737
-0.0428906
-0.0339615
-0.0263699
-0.0199018
-0.014263
-0.00930802
-0.00601321
-0.360712
-0.347878
-0.325895
-0.295496
-0.26132
-0.227489
-0.196281
-0.168576
-0.14446
-0.123653
-0.105757
-0.0903685
-0.077125
-0.0657114
-0.0558627
-0.0473608
-0.039991
-0.0334529
-0.027598
-0.0234745
-0.387879
-0.374448
-0.352847
-0.323047
-0.28915
-0.255187
-0.223522
-0.195153
-0.170262
-0.148633
-0.1299
-0.113676
-0.0996027
-0.0873679
-0.0767066
-0.067401
-0.0592396
-0.0519223
-0.045286
-0.0403898
-0.411169
-0.397237
-0.376187
-0.347267
-0.313987
-0.280224
-0.248396
-0.219613
-0.194158
-0.171884
-0.152468
-0.135544
-0.120768
-0.107831
-0.0964711
-0.0864725
-0.0776291
-0.0696472
-0.0623484
-0.0567669
-0.430544
-0.416204
-0.395851
-0.368064
-0.335725
-0.302495
-0.270809
-0.241873
-0.216074
-0.193345
-0.17341
-0.155935
-0.140589
-0.127074
-0.115134
-0.104555
-0.0951394
-0.0866029
-0.0787536
-0.0725821
-0.446032
-0.431375
-0.411835
-0.385399
-0.354301
-0.321931
-0.290693
-0.261874
-0.235963
-0.212976
-0.192694
-0.174819
-0.159041
-0.145077
-0.132676
-0.12163
-0.11175
-0.102763
-0.0944664
-0.0877928
-0.457723
-0.44284
-0.424198
-0.399288
-0.3697
-0.338497
-0.308011
-0.279582
-0.253795
-0.230752
-0.2103
-0.19218
-0.176111
-0.161826
-0.149083
-0.137682
-0.127441
-0.118104
-0.109455
-0.10236
-0.465769
-0.450751
-0.433061
-0.409805
-0.381952
-0.3522
-0.322756
-0.294987
-0.269561
-0.246667
-0.226222
-0.208015
-0.191796
-0.177316
-0.164349
-0.152702
-0.142201
-0.132609
-0.123699
-0.116261
-0.470379
-0.455319
-0.438605
-0.417078
-0.391138
-0.363082
-0.33495
-0.308101
-0.28327
-0.260731
-0.240471
-0.222332
-0.206101
-0.191553
-0.178477
-0.166689
-0.156027
-0.14627
-0.137187
-0.129484
-0.471811
-0.456804
-0.441063
-0.421292
-0.397383
-0.371225
-0.344646
-0.318961
-0.294952
-0.272967
-0.253068
-0.235151
-0.219045
-0.204551
-0.191477
-0.179652
-0.168923
-0.159089
-0.149918
-0.14203
-0.470368
-0.455509
-0.440718
-0.422677
-0.40086
-0.376748
-0.351926
-0.327627
-0.304653
-0.283417
-0.264048
-0.246504
-0.230655
-0.216334
-0.203371
-0.191608
-0.180904
-0.171078
-0.161899
-0.153904
-0.466385
-0.451771
-0.437891
-0.421513
-0.401787
-0.379811
-0.356904
-0.334181
-0.312437
-0.292132
-0.273459
-0.256432
-0.240968
-0.226936
-0.214188
-0.202583
-0.191992
-0.182254
-0.173146
-0.16512
-0.460217
-0.445949
-0.432932
-0.418112
-0.40042
-0.380608
-0.359721
-0.338728
-0.318386
-0.29918
-0.281356
-0.264985
-0.25003
-0.236396
-0.223963
-0.212607
-0.202214
-0.192642
-0.18368
-0.1757
-0.452235
-0.438411
-0.426205
-0.412815
-0.397049
-0.379367
-0.36055
-0.341396
-0.322595
-0.304636
-0.287804
-0.272219
-0.25789
-0.24476
-0.232737
-0.221718
-0.211605
-0.202273
-0.193528
-0.185667
0.0948158
0.0672533
0.0469933
0.0372296
0.0284274
0.0166169
0.00341493
-0.00932797
-0.0213355
-0.0330107
-0.0445841
-0.0560258
-0.0672449
-0.0782022
-0.0889063
-0.0993814
-0.109653
-0.119748
-0.129702
-0.13956
0.0384032
0.0245144
0.0123868
0.00510965
-0.000302729
-0.00663018
-0.0140064
-0.0214071
-0.028256
-0.0346148
-0.0407067
-0.0466235
-0.0523375
-0.0578015
-0.0629952
-0.0679192
-0.0725776
-0.0769689
-0.081087
-0.0849229
0.0241462
0.0180193
0.0124964
0.00793565
0.00387082
-0.000305381
-0.00477164
-0.00934042
-0.0138102
-0.0181394
-0.0223874
-0.0266086
-0.0308164
-0.0350018
-0.0391581
-0.0432875
-0.0473973
-0.0514953
-0.0555884
-0.0596829
0.015561
0.011737
0.00793778
0.00428762
0.000766228
-0.00271719
-0.00621639
-0.00971662
-0.0131761
-0.0165711
-0.0199035
-0.0231844
-0.0264193
-0.029607
-0.0327443
-0.0358298
-0.0388638
-0.0418473
-0.0447814
-0.0476668
0.00865483
0.00555951
0.0026528
2.2788e-05
-0.00250818
-0.00504684
-0.00759455
-0.0101227
-0.0126158
-0.0150739
-0.0175023
-0.0199062
-0.0222887
-0.0246518
-0.0269972
-0.0293267
-0.0316428
-0.0339478
-0.0362441
-0.0385339
0.0032126
0.000716932
-0.00148927
-0.00340027
-0.00524528
-0.00713804
-0.00906629
-0.0109903
-0.0128935
-0.0147791
-0.0166541
-0.0185217
-0.0203821
-0.0222348
-0.0240799
-0.0259178
-0.0277488
-0.0295734
-0.031392
-0.033205
-0.000455846
-0.00240538
-0.00408339
-0.00552881
-0.00693696
-0.00839651
-0.00989358
-0.0113934
-0.0128813
-0.0143596
-0.015834
-0.017307
-0.0187784
-0.0202474
-0.0217137
-0.0231774
-0.0246389
-0.0260984
-0.0275562
-0.0290126
-0.00289894
-0.00441093
-0.0057358
-0.00689747
-0.00803214
-0.00920498
-0.0104085
-0.011618
-0.0128217
-0.0140205
-0.0152181
-0.0164163
-0.0176149
-0.0188133
-0.0200109
-0.0212076
-0.0224034
-0.0235985
-0.0247928
-0.0259863
-0.00460656
-0.00576353
-0.00683693
-0.00781163
-0.00876023
-0.00972766
-0.0107155
-0.0117101
-0.0127029
-0.0136931
-0.0146826
-0.0156727
-0.0166634
-0.0176541
-0.0186445
-0.0196346
-0.0206242
-0.0216133
-0.022602
-0.0235902
-0.00593252
-0.00679871
-0.00767487
-0.00851122
-0.00932338
-0.0101365
-0.0109593
-0.0117878
-0.0126172
-0.0134455
-0.0142731
-0.0151007
-0.0159284
-0.0167562
-0.0175838
-0.018411
-0.0192379
-0.0200643
-0.0208904
-0.021716
-0.00705969
-0.00769623
-0.008407
-0.00912381
-0.00982168
-0.0105087
-0.0111962
-0.0118877
-0.0125812
-0.0132748
-0.0139677
-0.0146603
-0.0153527
-0.016045
-0.0167372
-0.0174293
-0.0181211
-0.0188127
-0.0195041
-0.0201954
-0.00806018
-0.00852348
-0.00909275
-0.00969697
-0.0102892
-0.0108652
-0.0114363
-0.0120095
-0.0125853
-0.0131621
-0.0137386
-0.0143149
-0.0148912
-0.0154677
-0.0160444
-0.0166215
-0.0171988
-0.0177766
-0.0183547
-0.0189333
-0.00891956
-0.00924542
-0.009689
-0.0101854
-0.010677
-0.0111512
-0.0116174
-0.0120845
-0.0125544
-0.0130261
-0.0134982
-0.0139707
-0.0144437
-0.0149176
-0.0153926
-0.0158687
-0.0163461
-0.0168248
-0.0173049
-0.0177865
-0.00962358
-0.00982389
-0.0101509
-0.010547
-0.0109449
-0.0113247
-0.0116943
-0.0120637
-0.0124363
-0.0128116
-0.0131885
-0.0135667
-0.0139465
-0.0143284
-0.0147127
-0.0150996
-0.0154893
-0.0158818
-0.0162773
-0.0166759
-0.0101648
-0.0102185
-0.0104153
-0.0107032
-0.0110013
-0.0112799
-0.0115457
-0.0118109
-0.0120809
-0.0123559
-0.0126349
-0.0129176
-0.0132046
-0.0134964
-0.0137934
-0.014096
-0.0144043
-0.0147183
-0.0150383
-0.0153641
-0.0106796
-0.0105999
-0.010632
-0.0107549
-0.0109018
-0.0110413
-0.011175
-0.0113131
-0.0114616
-0.0116217
-0.0117927
-0.0119743
-0.0121665
-0.0123698
-0.0125843
-0.01281
-0.0130469
-0.0132946
-0.013553
-0.0138217
-0.0106579
-0.0104779
-0.0102471
-0.0100474
-0.0099049
-0.00981074
-0.00975143
-0.00972078
-0.00971829
-0.00974465
-0.00979964
-0.00988204
-0.00999035
-0.0101231
-0.010279
-0.0104567
-0.010655
-0.0108724
-0.0111079
-0.01136
-0.00813452
-0.00766702
-0.00716992
-0.00677461
-0.0064899
-0.00628788
-0.00614754
-0.00606022
-0.00602296
-0.00603351
-0.00608876
-0.00618511
-0.00631892
-0.00648684
-0.0066858
-0.00691296
-0.00716566
-0.00744139
-0.00773782
-0.00805274
0.00341384
0.00710751
0.00839674
0.00774484
0.00664909
0.0058112
0.00522302
0.00469557
0.00412807
0.00351631
0.00288606
0.00225396
0.0016235
0.000993157
0.000362033
-0.000269171
-0.000899102
-0.00152655
-0.00215061
-0.00277061
0.0154258
0.0277121
0.0314736
0.028848
0.0250006
0.0222114
0.0203897
0.018885
0.0173571
0.0157845
0.014242
0.012774
0.0113828
0.0100558
0.00878285
0.00755943
0.00638364
0.00525364
0.00416707
0.00312136
0.131154
0.131686
0.132776
0.134416
0.136605
0.139356
0.142692
0.146633
0.151197
0.156386
0.162189
0.168542
0.175342
0.182346
0.18915
0.194947
0.19825
0.196024
0.181727
0.140358
0.121991
0.122382
0.123128
0.124246
0.1257
0.12751
0.129612
0.132032
0.134647
0.13748
0.140286
0.14306
0.14532
0.146971
0.147051
0.145195
0.139369
0.128274
0.106863
0.0694425
0.111108
0.111323
0.111704
0.112265
0.112971
0.113817
0.114728
0.115675
0.116528
0.117225
0.11754
0.117346
0.116253
0.114003
0.109945
0.103586
0.0939569
0.0804255
0.0623099
0.0399058
0.099201
0.0992461
0.0993059
0.0993822
0.0994521
0.0994884
0.0994275
0.0992068
0.0987206
0.0978658
0.0964822
0.0944068
0.0914095
0.0872568
0.0816783
0.0744387
0.065397
0.0544729
0.0416242
0.0260446
0.0869711
0.0868892
0.0867103
0.0864309
0.0860373
0.0854968
0.0847617
0.0837654
0.0824342
0.0806727
0.0783877
0.075458
0.0717879
0.0672535
0.0618067
0.0553608
0.0479302
0.03934
0.0293418
0.0170568
0.0750038
0.0748437
0.0745156
0.0740155
0.0733358
0.0724494
0.0713242
0.0699085
0.0681566
0.0660038
0.0634051
0.060293
0.0566399
0.052386
0.0475296
0.0419965
0.0357544
0.028592
0.0202674
0.0101282
0.0637079
0.0635091
0.0631069
0.0624979
0.0616784
0.0606304
0.0593347
0.057758
0.0558754
0.0536484
0.0510576
0.0480654
0.0446625
0.0408079
0.0364942
0.0316539
0.0262544
0.0201549
0.0132206
0.00503035
0.053318
0.0531078
0.0526844
0.0520447
0.0511874
0.0501016
0.0487777
0.0471958
0.0453433
0.0431972
0.0407476
0.0379697
0.0348576
0.0313808
0.0275356
0.0232819
0.0186176
0.013476
0.00780371
0.00133871
0.0439319
0.0437265
0.0433138
0.0426907
0.0418563
0.0408044
0.039531
0.0380243
0.0362785
0.0342788
0.0320202
0.0294856
0.0266735
0.0235653
0.0201676
0.0164635
0.0124726
0.00817269
0.00357372
-0.00142133
0.0355547
0.0353627
0.0349772
0.0343948
0.0336146
0.0326327
0.031448
0.0300541
0.0284492
0.0266246
0.0245795
0.022304
0.0198013
0.0170621
0.0140987
0.0109058
0.00751194
0.00392253
0.000201945
-0.00359882
0.0281379
0.0279627
0.0276115
0.0270801
0.0263675
0.0254712
0.0243918
0.0231263
0.0216765
0.0200382
0.0182149
0.0162021
0.0140074
0.0116264
0.00907355
0.00634749
0.00348105
0.000496232
-0.00250544
-0.00537798
0.0216076
0.0214498
0.0211339
0.0206556
0.0200138
0.0192069
0.0182372
0.017104
0.0158114
0.0143582
0.012751
0.010989
0.00908349
0.00703423
0.00485855
0.00255791
0.000166581
-0.0022877
-0.00468983
-0.00685556
0.015884
0.0157418
0.0154579
0.0150281
0.014452
0.0137292
0.0128637
0.011857
0.010715
0.00943804
0.00803345
0.00650172
0.00485563
0.00309909
0.00125492
-0.000668384
-0.00263258
-0.00460971
-0.00648924
-0.00808424
0.0108958
0.0107652
0.0105053
0.0101125
0.0095873
0.00893126
0.00815119
0.0072518
0.00624208
0.00512492
0.00390836
0.00259158
0.00118412
-0.000312713
-0.00187498
-0.00348542
-0.00509084
-0.00664867
-0.0080483
-0.00912619
0.00659162
0.00646634
0.0062181
0.00584365
0.00534467
0.00472431
0.00399267
0.00315859
0.00223742
0.00123885
0.000178593
-0.000940382
-0.00210926
-0.00333806
-0.00461853
-0.00594951
-0.00727236
-0.00851491
-0.0095111
-0.0100604
0.00294679
0.00281966
0.00256865
0.00219017
0.00168656
0.00106064
0.0003244
-0.000511851
-0.0014259
-0.00240001
-0.0034003
-0.00440538
-0.00537995
-0.00632511
-0.00723716
-0.00816812
-0.00911746
-0.0100653
-0.0107734
-0.0109001
-3.53334e-05
-0.000169914
-0.000436362
-0.000838923
-0.00137586
-0.00204681
-0.00284201
-0.00375527
-0.00476568
-0.00585608
-0.00698191
-0.00810053
-0.00912615
-0.00999014
-0.0105964
-0.0109508
-0.0110981
-0.0112367
-0.0113532
-0.0110266
-0.0023288
-0.00247198
-0.002761
-0.00319871
-0.00378657
-0.00452548
-0.00541479
-0.00645364
-0.0076381
-0.00896118
-0.0104045
-0.0119317
-0.0134665
-0.0148724
-0.0159197
-0.0162965
-0.0156827
-0.0139816
-0.0115936
-0.0093817
-0.00389262
-0.00404309
-0.00435394
-0.00482546
-0.00546336
-0.00626866
-0.00725214
-0.00841714
-0.00978274
-0.0113556
-0.0131661
-0.0152199
-0.0175458
-0.0200915
-0.0227495
-0.0250952
-0.0263297
-0.0248929
-0.0189366
-0.00719705
-0.00468403
-0.00484155
-0.00516552
-0.00565827
-0.00632554
-0.00717279
-0.0082126
-0.00945808
-0.010934
-0.0126679
-0.0147085
-0.0171145
-0.0199836
-0.0234348
-0.0276308
-0.0326731
-0.0383678
-0.0433048
-0.0423953
-0.0196111
0.141332
0.14191
0.143201
0.14511
0.14778
0.151111
0.155347
0.160343
0.166478
0.17354
0.182119
0.191893
0.203802
0.217336
0.234075
0.253147
0.277406
0.305209
0.341997
0.384274
0.141309
0.141887
0.143178
0.145086
0.147756
0.151086
0.155321
0.160314
0.166447
0.173505
0.182078
0.191843
0.203739
0.217253
0.233958
0.252982
0.277154
0.304826
0.34139
0.383284
0.14125
0.141828
0.143118
0.145025
0.147693
0.151021
0.155252
0.160241
0.166367
0.173416
0.181975
0.191723
0.203588
0.217062
0.233695
0.252621
0.276615
0.304023
0.34013
0.381252
0.141154
0.141732
0.14302
0.144926
0.147591
0.150915
0.155141
0.160123
0.166239
0.173274
0.181812
0.191531
0.203351
0.216764
0.233288
0.252067
0.275792
0.302803
0.338223
0.378188
0.141021
0.141599
0.142886
0.144789
0.14745
0.15077
0.154988
0.159961
0.166062
0.173078
0.181589
0.19127
0.203028
0.21636
0.23274
0.251321
0.27469
0.301175
0.335679
0.374109
0.140853
0.14143
0.142715
0.144615
0.147272
0.150585
0.154794
0.159754
0.165839
0.172831
0.181307
0.19094
0.202623
0.215851
0.232053
0.250389
0.273315
0.299148
0.332508
0.369036
0.140648
0.141225
0.142508
0.144405
0.147055
0.150361
0.15456
0.159505
0.165568
0.172532
0.180967
0.190542
0.202136
0.21524
0.231232
0.249276
0.271674
0.296736
0.328725
0.362997
0.140408
0.140985
0.142265
0.144158
0.146802
0.150099
0.154285
0.159213
0.165253
0.172182
0.18057
0.190078
0.201569
0.214529
0.23028
0.247986
0.269776
0.293952
0.324346
0.356023
0.140133
0.14071
0.141987
0.143876
0.146512
0.149799
0.153971
0.158879
0.164892
0.171784
0.180118
0.189549
0.200927
0.213722
0.229204
0.246526
0.267632
0.290812
0.319391
0.348152
0.139823
0.1404
0.141675
0.143558
0.146186
0.149463
0.153618
0.158505
0.164488
0.171337
0.179613
0.188958
0.20021
0.21282
0.228009
0.244903
0.265254
0.287334
0.313881
0.339428
0.139479
0.140057
0.141328
0.143206
0.145826
0.14909
0.153228
0.158091
0.164041
0.170844
0.179056
0.188306
0.199423
0.211829
0.226701
0.243123
0.262655
0.283535
0.307839
0.329897
0.1391
0.13968
0.140948
0.142821
0.145431
0.148683
0.152801
0.157639
0.163554
0.170306
0.17845
0.187595
0.198568
0.210752
0.225286
0.241194
0.259851
0.279434
0.301294
0.319612
0.138689
0.13927
0.140535
0.142403
0.145003
0.148241
0.15234
0.157149
0.163027
0.169724
0.177795
0.186829
0.19765
0.209592
0.223772
0.239125
0.256858
0.27505
0.294278
0.308627
0.138245
0.138828
0.14009
0.141953
0.144542
0.147767
0.151844
0.156624
0.162462
0.169102
0.177095
0.18601
0.196671
0.208354
0.222167
0.236923
0.253696
0.2704
0.286825
0.296996
0.137768
0.138354
0.139615
0.141473
0.144051
0.14726
0.151314
0.156065
0.16186
0.168439
0.176351
0.18514
0.195634
0.207043
0.220476
0.234596
0.250383
0.265504
0.278979
0.284766
0.137261
0.13785
0.139109
0.140962
0.143528
0.146722
0.150752
0.15547
0.16122
0.167735
0.175561
0.184218
0.194535
0.205657
0.218698
0.232148
0.246932
0.260376
0.270795
0.271977
0.136722
0.137317
0.138574
0.140422
0.142977
0.146155
0.150159
0.154844
0.160547
0.166995
0.174731
0.183249
0.193385
0.204203
0.216844
0.22959
0.243362
0.255029
0.262333
0.25866
0.136154
0.136755
0.138014
0.139859
0.142405
0.14557
0.149553
0.154208
0.159868
0.166254
0.173906
0.182287
0.192247
0.202758
0.215001
0.22701
0.239769
0.249522
0.253638
0.244715
0.135555
0.136166
0.137428
0.139275
0.141816
0.144973
0.148941
0.153575
0.159202
0.165536
0.173115
0.181372
0.191167
0.201377
0.213229
0.224476
0.236219
0.243898
0.244734
0.229481
0.134923
0.135536
0.136793
0.13863
0.141147
0.144277
0.148199
0.152781
0.158325
0.164564
0.171993
0.180068
0.189585
0.199431
0.210755
0.221226
0.231887
0.237676
0.235697
0.213251
0.1344
0.135011
0.136262
0.138088
0.14059
0.1437
0.147596
0.152147
0.157653
0.163846
0.171222
0.179232
0.188675
0.198428
0.209645
0.219985
0.230484
0.236082
0.233844
0.211093
0.135058
0.135667
0.136923
0.13876
0.141286
0.144423
0.148367
0.152971
0.158563
0.164853
0.172382
0.180578
0.190301
0.200424
0.212175
0.223296
0.234885
0.242382
0.242966
0.227414
0.135682
0.136282
0.137534
0.13937
0.141902
0.145048
0.149009
0.153635
0.159263
0.165607
0.173212
0.181535
0.191428
0.201858
0.214005
0.225896
0.238509
0.248088
0.25196
0.242738
0.136276
0.136869
0.138121
0.139959
0.142501
0.145661
0.149645
0.154303
0.159974
0.166383
0.174075
0.182538
0.192611
0.203353
0.215904
0.228538
0.242173
0.253674
0.260746
0.25678
0.136841
0.137428
0.138682
0.140525
0.143079
0.146257
0.150266
0.154959
0.16068
0.167158
0.174943
0.183548
0.193807
0.204856
0.217812
0.231158
0.245812
0.259098
0.2693
0.270199
0.137375
0.137959
0.139214
0.141063
0.14363
0.146823
0.150859
0.155585
0.161353
0.167898
0.175771
0.184512
0.194951
0.206293
0.219646
0.233668
0.249333
0.264305
0.277577
0.283092
0.137878
0.138459
0.139716
0.141571
0.144149
0.147359
0.151418
0.156177
0.161989
0.168597
0.176554
0.185424
0.196034
0.207654
0.221393
0.236057
0.252717
0.269281
0.285515
0.295429
0.138348
0.138927
0.140188
0.142048
0.144638
0.147863
0.151945
0.156734
0.162588
0.169256
0.177293
0.186286
0.197059
0.208942
0.223054
0.238321
0.255951
0.27401
0.293062
0.307169
0.138787
0.139364
0.140628
0.142494
0.145094
0.148334
0.152437
0.157255
0.163149
0.169873
0.177987
0.187094
0.198023
0.210153
0.224624
0.240454
0.259015
0.278475
0.300173
0.318264
0.139192
0.139768
0.141035
0.142907
0.145518
0.148771
0.152895
0.15774
0.163671
0.170448
0.178633
0.187847
0.198925
0.211282
0.226095
0.242446
0.26189
0.282657
0.306813
0.328661
0.139563
0.140139
0.141409
0.143287
0.145907
0.149173
0.153316
0.158187
0.164152
0.170979
0.179229
0.188542
0.199758
0.212324
0.22746
0.244289
0.264561
0.286538
0.31295
0.338305