/*--------------------------------*- C++ -*----------------------------------*\
  =========                 |
  \\      /  F ield         | OpenFOAM: The Open Source CFD Toolbox
   \\    /   O peration     | Website:  https://openfoam.org
    \\  /    A nd           | Version:  6.0
     \\/     M anipulation  |
\*---------------------------------------------------------------------------*/
FoamFile
{
    version     2.0;
    format      ascii;
    class       volVectorField;
    location    "56";
    object      U;
}
// * * * * * * * * * * * * * * * * * * * * * * * * * * * * * * * * * * * * * //

dimensions      [0 1 -1 0 0 0 0];

internalField   nonuniform List<vector> 
4000
(
(0.0926181 0.00724193 5.63265e-20)
(0.295334 0.0380269 -3.06016e-20)
(0.5025 0.0914262 3.5999e-20)
(0.697708 0.152753 -2.67668e-20)
(0.867481 0.212273 -1.1975e-20)
(1.0043 0.263968 3.62842e-21)
(1.10687 0.304745 -1.17227e-20)
(1.17846 0.334058 4.20978e-20)
(1.22475 0.353069 -3.49797e-20)
(1.25198 0.363742 8.20125e-21)
(1.26582 0.368188 -6.11066e-21)
(1.27088 0.368283 -3.95289e-20)
(1.27053 0.365518 3.82633e-20)
(1.26713 0.360982 1.4491e-20)
(1.26221 0.355424 -1.44112e-20)
(1.25674 0.349335 3.37004e-20)
(1.25132 0.343006 -5.35305e-22)
(1.2463 0.336641 -3.24934e-20)
(1.24193 0.330639 2.40082e-20)
(1.23844 0.324947 7.49144e-21)
(0.106435 0.0120129 -1.97422e-20)
(0.329247 0.0527935 5.72035e-20)
(0.548387 0.115138 6.60279e-20)
(0.747614 0.18262 -3.11086e-20)
(0.91467 0.244942 5.41055e-20)
(1.04421 0.296485 8.54295e-20)
(1.13734 0.335052 -4.69912e-21)
(1.19929 0.361075 -1.45668e-20)
(1.23698 0.376502 7.20099e-20)
(1.25725 0.383806 3.50193e-20)
(1.26587 0.38535 -6.28651e-21)
(1.26722 0.383081 5.19281e-20)
(1.26438 0.378449 -5.53892e-20)
(1.25938 0.372457 8.61513e-20)
(1.25348 0.365762 -1.4338e-20)
(1.24744 0.358771 4.0785e-20)
(1.24172 0.351713 7.24072e-21)
(1.23658 0.344759 2.89604e-20)
(1.23217 0.338303 -2.75819e-20)
(1.22869 0.332157 6.57454e-21)
(0.120495 0.0178588 -3.06981e-20)
(0.362621 0.0699097 7.29359e-20)
(0.592044 0.141432 5.41193e-20)
(0.793313 0.214553 -8.17324e-21)
(0.956015 0.278813 8.40041e-20)
(1.07736 0.329343 -6.26217e-20)
(1.16091 0.365058 -4.75493e-21)
(1.2137 0.387427 5.51193e-20)
(1.24365 0.39915 1.74873e-20)
(1.25794 0.403131 2.43538e-20)
(1.26227 0.401905 -3.58741e-20)
(1.26074 0.397425 9.30758e-20)
(1.25606 0.391066 1.72093e-20)
(1.24994 0.383728 -8.20022e-20)
(1.2434 0.375971 1.19099e-19)
(1.23703 0.368125 -1.40097e-19)
(1.23117 0.360364 -6.38377e-20)
(1.22603 0.352836 1.07141e-20)
(1.22167 0.345928 6.17646e-20)
(1.21826 0.339316 -1.15835e-19)
(0.13457 0.0247926 -6.92022e-20)
(0.394876 0.0892723 -1.63113e-19)
(0.632748 0.170029 -1.40925e-19)
(0.834181 0.24815 -1.91537e-19)
(0.991177 0.313462 -1.08462e-19)
(1.10376 0.362189 -2.24515e-19)
(1.17789 0.394519 2.85331e-20)
(1.22219 0.41298 -1.18552e-19)
(1.24532 0.42096 -1.29822e-20)
(1.25461 0.421709 1.94343e-20)
(1.25552 0.417858 -4.24944e-20)
(1.2518 0.411316 5.27296e-20)
(1.24581 0.403352 9.36081e-20)
(1.23896 0.394757 -1.31685e-19)
(1.23207 0.385996 2.08753e-20)
(1.22556 0.377329 6.04269e-20)
(1.21971 0.368882 1.0079e-19)
(1.21465 0.360788 -8.69413e-20)
(1.21041 0.353426 -4.12213e-21)
(1.20714 0.346338 1.01171e-19)
(0.148418 0.0327976 -1.30471e-19)
(0.425449 0.110713 3.57488e-19)
(0.669854 0.200589 -6.30146e-20)
(0.869732 0.282974 8.33591e-20)
(1.01997 0.348469 -8.14784e-20)
(1.12354 0.394688 2.49944e-19)
(1.18866 0.423213 -3.95603e-20)
(1.22527 0.437608 2.35946e-20)
(1.24253 0.441874 -1.16842e-20)
(1.24771 0.439514 3.83367e-20)
(1.24598 0.433188 2.47059e-20)
(1.24068 0.42472 3.08849e-20)
(1.23384 0.415257 -8.79759e-20)
(1.22659 0.405477 1.28144e-19)
(1.21956 0.395757 -9.72092e-20)
(1.21308 0.386293 1.81306e-20)
(1.20734 0.377172 -6.18636e-20)
(1.20246 0.368518 1.29864e-20)
(1.1984 0.360699 1.45436e-20)
(1.19533 0.353126 -1.36818e-19)
(0.161796 0.0418272 9.44467e-21)
(0.453812 0.134003 -1.79923e-19)
(0.702813 0.232718 9.93336e-20)
(0.899612 0.318573 -3.46052e-19)
(1.04234 0.38342 1.6746e-19)
(1.13691 0.426528 -2.86486e-19)
(1.19361 0.450933 -2.23045e-19)
(1.22341 0.461191 -8.479e-21)
(1.23573 0.46182 -7.5284e-20)
(1.23766 0.456494 -2.33293e-19)
(1.23397 0.447844 -2.89205e-20)
(1.22762 0.437576 -2.21845e-19)
(1.22029 0.426707 4.02953e-20)
(1.2129 0.415802 -3.16474e-20)
(1.20592 0.405158 1.84955e-20)
(1.19959 0.394917 -1.46146e-19)
(1.19408 0.385132 8.17416e-21)
(1.18944 0.375925 2.94563e-20)
(1.18563 0.367646 -6.67362e-20)
(1.18283 0.359585 5.83447e-20)
(0.174462 0.0518045 -7.40016e-20)
(0.479487 0.158858 3.29039e-19)
(0.731178 0.265986 2.39541e-21)
(0.923597 0.354482 -2.84335e-19)
(1.05833 0.417914 2.14342e-19)
(1.14417 0.45741 8.97675e-20)
(1.19316 0.477482 1.83305e-20)
(1.21704 0.483604 -1.50324e-19)
(1.22532 0.480714 2.44136e-19)
(1.22476 0.472579 -1.41989e-19)
(1.21971 0.46175 5.17918e-20)
(1.21275 0.449797 2.38458e-19)
(1.20527 0.437603 -2.1326e-19)
(1.19796 0.425627 2.33485e-19)
(1.19119 0.414091 -1.51261e-19)
(1.18514 0.403091 -2.97071e-20)
(1.17994 0.392654 3.55468e-20)
(1.17562 0.3829 4.4259e-20)
(1.17211 0.374162 6.06191e-20)
(1.16964 0.365618 3.66037e-20)
(0.186188 0.0626238 2.94677e-20)
(0.502054 0.184949 -2.9581e-19)
(0.754609 0.299934 5.25695e-20)
(0.941579 0.390238 6.85333e-19)
(1.0681 0.451566 -6.32888e-20)
(1.14562 0.487054 1.88871e-19)
(1.1877 0.502672 1.17589e-19)
(1.20658 0.504717 1.97249e-20)
(1.21165 0.498455 -1.35091e-19)
(1.20929 0.487674 2.21162e-19)
(1.20342 0.47481 -2.51501e-20)
(1.19623 0.461279 3.31396e-19)
(1.18885 0.447834 1.26427e-19)
(1.18183 0.434834 7.84218e-20)
(1.17541 0.422437 -1.6333e-19)
(1.16974 0.410697 3.44346e-20)
(1.16493 0.399621 1.25522e-19)
(1.161 0.389331 3.16001e-20)
(1.15785 0.380139 -1.50305e-19)
(1.15577 0.371125 -3.72321e-20)
(0.196759 0.0741531 -1.64585e-19)
(0.521165 0.211908 5.29937e-19)
(0.772871 0.334088 -2.88334e-19)
(0.953553 0.425383 -2.6479e-19)
(1.07185 0.484007 -2.30119e-19)
(1.14163 0.515192 -1.93306e-19)
(1.17764 0.526315 -2.37141e-19)
(1.1924 0.524396 2.95941e-19)
(1.19503 0.514931 -2.09667e-19)
(1.19148 0.501671 -1.66893e-20)
(1.18523 0.486908 -1.99731e-21)
(1.17815 0.471901 -3.96249e-20)
(1.17112 0.457273 -1.00773e-19)
(1.16455 0.443297 -1.11031e-19)
(1.15861 0.430071 -5.92339e-21)
(1.15342 0.417613 -2.45003e-20)
(1.14908 0.405916 -5.89994e-20)
(1.1456 0.395104 -1.75773e-20)
(1.14289 0.385466 2.06599e-20)
(1.14126 0.376005 -1.22834e-19)
(0.205986 0.0862367 2.87583e-19)
(0.536547 0.239343 2.97214e-19)
(0.785832 0.367966 -1.84231e-19)
(0.959604 0.459476 1.13617e-19)
(1.06986 0.514886 1.94969e-19)
(1.13256 0.541571 -3.9497e-20)
(1.16336 0.548231 4.8e-20)
(1.17482 0.542498 5.28453e-20)
(1.17571 0.530016 8.7559e-20)
(1.17152 0.514447 -1.01786e-19)
(1.1653 0.497916 4.99321e-20)
(1.15861 0.481529 -3.31067e-20)
(1.15214 0.465787 1.49211e-19)
(1.14618 0.450882 6.28762e-20)
(1.14084 0.436861 -1.45663e-19)
(1.13623 0.423712 7.86624e-20)
(1.13244 0.411416 3.92621e-20)
(1.12948 0.4001 -6.88322e-20)
(1.12725 0.39003 1.87291e-19)
(1.12614 0.380156 -1.36392e-19)
(0.213705 0.0986993 -2.11367e-19)
(0.548002 0.266842 -2.73908e-19)
(0.793452 0.401092 1.90972e-19)
(0.959894 0.492089 -1.76275e-19)
(1.06242 0.543874 -1.68298e-20)
(1.11878 0.565953 -1.90178e-19)
(1.14521 0.568242 1.58685e-19)
(1.15415 0.558881 2.8646e-19)
(1.15395 0.543578 -3.98013e-19)
(1.14958 0.525867 2.05395e-20)
(1.14374 0.507698 1.50444e-20)
(1.13769 0.490024 -7.67521e-20)
(1.13197 0.473236 5.45678e-20)
(1.12677 0.457452 -2.18142e-20)
(1.12215 0.442675 1.4074e-19)
(1.11821 0.428865 -1.51494e-19)
(1.11504 0.415996 -4.94168e-20)
(1.11267 0.404196 1.32038e-19)
(1.111 0.393714 -1.88917e-19)
(1.11048 0.383469 1.19328e-19)
(0.219784 0.11135 4.37983e-19)
(0.555411 0.293985 3.86236e-19)
(0.79578 0.433002 -6.50906e-20)
(0.954654 0.522822 -8.11411e-21)
(1.0499 0.570665 -1.94843e-19)
(1.10066 0.58811 8.30866e-20)
(1.12354 0.586177 3.98667e-19)
(1.13069 0.573397 -3.4889e-19)
(1.12995 0.555478 2.15639e-19)
(1.12583 0.535794 -1.81518e-20)
(1.12066 0.516113 1.28077e-19)
(1.11547 0.497242 -3.41778e-20)
(1.11068 0.479475 7.49022e-20)
(1.10638 0.462865 9.24626e-20)
(1.1026 0.447374 -5.45667e-20)
(1.09943 0.432938 6.03772e-20)
(1.09695 0.419523 -7.88403e-20)
(1.09523 0.407261 2.03575e-19)
(1.09419 0.396383 -1.2055e-19)
(1.09432 0.385818 8.58784e-20)
(0.224124 0.123988 -2.11799e-19)
(0.558731 0.320356 -3.9513e-19)
(0.792941 0.463252 -2.7262e-19)
(0.944164 0.551301 -1.84785e-20)
(1.03264 0.594975 6.40512e-20)
(1.07859 0.607835 -3.51509e-20)
(1.09869 0.60187 -2.26568e-19)
(1.1047 0.585903 -9.66434e-20)
(1.10391 0.565578 -1.72529e-19)
(1.1004 0.544087 -7.80606e-20)
(1.09616 0.523017 3.98484e-20)
(1.09205 0.50304 -1.88276e-19)
(1.08833 0.484361 -3.95593e-20)
(1.08507 0.466979 -3.67497e-20)
(1.08225 0.450818 -1.20401e-19)
(1.07994 0.435794 5.28142e-20)
(1.07824 0.421863 5.37518e-21)
(1.07723 0.409155 4.31986e-20)
(1.07689 0.397893 -1.84373e-20)
(1.07776 0.387057 -5.1433e-20)
(0.226661 0.136406 4.89342e-19)
(0.557988 0.345548 4.26174e-19)
(0.785132 0.491423 5.21797e-19)
(0.928754 0.577182 -5.43969e-20)
(1.01104 0.616546 -1.82293e-19)
(1.05294 0.624934 5.46423e-19)
(1.07098 0.615167 -2.63911e-19)
(1.07642 0.59626 2.87492e-19)
(1.07603 0.573744 -5.05706e-20)
(1.07344 0.550611 1.68947e-19)
(1.07036 0.528272 1.95846e-20)
(1.06748 0.507277 7.02403e-20)
(1.065 0.487753 -1.50036e-20)
(1.0629 0.469653 6.37175e-20)
(1.06117 0.45287 -4.03055e-20)
(1.05982 0.437296 8.96075e-21)
(1.05898 0.422877 2.11629e-20)
(1.05875 0.409735 2.71823e-20)
(1.05918 0.398093 1.11533e-21)
(1.06082 0.387038 3.57795e-21)
(0.227365 0.148396 -1.49382e-19)
(0.553278 0.36917 -4.15356e-19)
(0.772609 0.517129 -2.51963e-19)
(0.908788 0.600153 -4.36e-19)
(0.985502 0.635149 4.60889e-19)
(1.02407 0.639235 -3.13152e-19)
(1.04072 0.625927 1.94168e-19)
(1.04612 0.60434 -7.05708e-20)
(1.04649 0.57985 -7.56008e-20)
(1.04508 0.555238 -5.18433e-20)
(1.04334 0.53175 2.77083e-20)
(1.04184 0.509822 2.44378e-20)
(1.04072 0.489517 8.79745e-21)
(1.03993 0.470749 -2.43671e-20)
(1.0394 0.453386 -1.60455e-21)
(1.03913 0.437302 8.9104e-21)
(1.03924 0.422423 -1.67676e-20)
(1.03987 0.408856 2.23107e-20)
(1.04112 0.396841 9.07949e-21)
(1.04356 0.385645 2.42022e-20)
(0.226241 0.159751 6.47675e-19)
(0.544756 0.390858 3.01446e-19)
(0.75568 0.54002 2.82362e-19)
(0.884663 0.619941 -1.63682e-19)
(0.956424 0.650581 1.79496e-20)
(0.992359 0.650586 2.26043e-19)
(1.0082 0.634023 2.56539e-20)
(1.01401 0.610027 4.51529e-20)
(1.01547 0.583781 4.48011e-20)
(1.01545 0.557857 -7.1606e-21)
(1.01521 0.533337 7.40922e-21)
(1.01522 0.510559 -1.16563e-20)
(1.01556 0.489532 -1.51299e-20)
(1.01618 0.470139 1.12124e-20)
(1.01699 0.45223 5.90505e-21)
(1.01794 0.435663 4.6495e-21)
(1.01911 0.420344 -8.58749e-21)
(1.02066 0.406353 -1.66251e-21)
(1.02279 0.393968 4.516e-20)
(1.02608 0.382726 -4.39101e-20)
(0.22333 0.170277 -4.55486e-19)
(0.532632 0.410277 -3.91617e-19)
(0.734698 0.559784 1.81527e-19)
(0.856795 0.636307 -2.17436e-19)
(0.924224 0.66267 -1.79211e-20)
(0.958167 0.658855 1.68965e-20)
(0.973745 0.639348 -2.98608e-20)
(0.98035 0.613222 -3.06979e-20)
(0.983153 0.585444 -3.44867e-20)
(0.984692 0.558373 -2.41706e-20)
(0.986064 0.532942 -2.97181e-20)
(0.987659 0.509397 3.74653e-20)
(0.989554 0.487701 -3.46171e-21)
(0.991687 0.467716 1.04566e-20)
(0.993953 0.449281 4.48832e-21)
(0.996268 0.432244 -6.59061e-20)
(0.998644 0.41649 -5.64027e-20)
(1.00124 0.402041 -6.06165e-20)
(1.00438 0.389207 -1.40955e-21)
(1.00877 0.377928 9.33715e-20)
(0.218703 0.179788 4.0971e-19)
(0.517166 0.427127 2.03503e-20)
(0.710052 0.576152 -4.34448e-20)
(0.825623 0.649049 4.93482e-20)
(0.88932 0.671273 1.29521e-19)
(0.921863 0.663939 -1.02178e-19)
(0.93764 0.641812 1.27946e-20)
(0.945366 0.613844 -3.19039e-20)
(0.949723 0.584763 -2.21898e-20)
(0.952954 0.556717 2.63595e-21)
(0.956012 0.530496 -5.36172e-20)
(0.95924 0.506265 -4.46101e-20)
(0.96272 0.483948 4.94949e-20)
(0.966422 0.46339 -1.78255e-20)
(0.970255 0.444427 -1.93203e-19)
(0.9741 0.426916 1.90224e-19)
(0.977877 0.41072 -1.12829e-19)
(0.981749 0.395733 -7.13166e-20)
(0.986283 0.382185 9.11832e-20)
(0.992253 0.37064 -1.12254e-19)
(0.212459 0.188114 -8.75802e-20)
(0.498656 0.441146 9.52166e-20)
(0.682158 0.588898 4.48105e-20)
(0.791595 0.658006 -6.5803e-20)
(0.852137 0.676279 1.95423e-20)
(0.883811 0.665754 -3.54767e-20)
(0.900192 0.64135 -1.54961e-20)
(0.909308 0.611838 1.9687e-20)
(0.915379 0.581691 2.62555e-22)
(0.920386 0.552851 -1.14844e-19)
(0.92516 0.52597 3.04727e-20)
(0.930013 0.501136 9.81221e-21)
(0.935047 0.478228 1.36742e-19)
(0.940287 0.457071 -3.46521e-19)
(0.945699 0.437502 3.22789e-19)
(0.951162 0.419408 1.71255e-19)
(0.956543 0.402648 -3.38075e-20)
(0.962084 0.386907 2.8216e-20)
(0.968639 0.3722 3.08001e-19)
(0.976494 0.360045 -1.28611e-19)
(0.204724 0.195106 -2.39119e-20)
(0.477437 0.452112 5.55563e-20)
(0.651457 0.597838 -4.7442e-20)
(0.755173 0.663052 6.1235e-20)
(0.813099 0.677605 -3.83503e-20)
(0.844381 0.664243 3.75497e-20)
(0.861708 0.63792 2.91876e-20)
(0.872432 0.607174 -7.87684e-20)
(0.880337 0.576214 7.87258e-20)
(0.887167 0.546783 5.46318e-20)
(0.893648 0.519405 2.70478e-20)
(0.90006 0.494084 4.65332e-21)
(0.906523 0.470642 1.09194e-19)
(0.913112 0.448852 -1.09759e-19)
(0.919863 0.428513 1.31091e-19)
(0.926706 0.409495 -2.74963e-19)
(0.933557 0.391608 3.07121e-19)
(0.940844 0.374241 -2.63718e-19)
(0.949518 0.357148 -1.79007e-19)
(0.958488 0.34371 3.04846e-19)
(0.195648 0.200634 1.2899e-20)
(0.453868 0.459844 -2.25708e-20)
(0.618405 0.602832 -1.42082e-20)
(0.716822 0.664096 -5.14357e-20)
(0.772634 0.675195 1.6183e-20)
(0.803942 0.65937 4.69914e-21)
(0.822507 0.631495 -1.74517e-19)
(0.835014 0.599835 1.16335e-19)
(0.844842 0.568336 1.15243e-19)
(0.853525 0.538553 -1.60446e-19)
(0.861692 0.510897 1.87121e-19)
(0.869586 0.485305 -7.18001e-20)
(0.877314 0.461544 1.40277e-19)
(0.884953 0.439327 -2.24341e-19)
(0.89255 0.418368 4.66676e-19)
(0.900071 0.398422 -1.05882e-19)
(0.907536 0.379089 -2.92899e-20)
(0.915603 0.35915 3.06452e-19)
(0.925047 0.336712 -1.49315e-19)
(0.931023 0.314217 6.53067e-20)
(0.185398 0.204591 -6.94831e-20)
(0.428329 0.464204 9.35118e-20)
(0.583467 0.60378 -3.37809e-20)
(0.677007 0.661081 5.33768e-20)
(0.731166 0.669021 -2.60219e-20)
(0.762866 0.651118 -1.71006e-19)
(0.782913 0.622064 2.6263e-19)
(0.797343 0.589814 1.77745e-20)
(0.809168 0.558055 -2.79484e-20)
(0.819734 0.528172 4.92093e-21)
(0.829591 0.500488 8.49307e-20)
(0.83895 0.474899 1.46205e-19)
(0.847893 0.451164 8.80553e-20)
(0.856456 0.429011 -2.09057e-19)
(0.864626 0.408192 -5.95209e-20)
(0.872343 0.388519 -1.10947e-20)
(0.879701 0.369732 3.88449e-20)
(0.887281 0.35116 5.01907e-21)
(0.895042 0.332106 4.47058e-19)
(0.898436 0.314646 -3.12309e-19)
(0.174152 0.20689 1.75478e-19)
(0.401211 0.465091 -3.06576e-20)
(0.54711 0.600621 -1.18338e-19)
(0.636191 0.653984 3.91599e-19)
(0.689115 0.659077 7.31997e-20)
(0.721522 0.639488 -2.31301e-19)
(0.743247 0.609625 2.15831e-19)
(0.759712 0.577108 -4.82174e-20)
(0.773587 0.545365 1.90933e-19)
(0.786064 0.515627 8.67568e-20)
(0.797633 0.488137 -4.21797e-19)
(0.808493 0.462761 -4.92211e-20)
(0.81873 0.439248 5.866e-19)
(0.828378 0.417334 -7.17958e-19)
(0.837417 0.396781 6.64186e-19)
(0.845779 0.377395 2.29898e-19)
(0.853524 0.358905 -8.18675e-19)
(0.861044 0.340752 3.95102e-19)
(0.868171 0.322631 -8.15704e-20)
(0.871487 0.306873 9.5008e-20)
(0.162102 0.207466 -3.10645e-19)
(0.372912 0.462444 -3.19644e-19)
(0.509802 0.593333 2.18536e-19)
(0.594831 0.642812 -2.72575e-19)
(0.646893 0.645383 -7.41661e-19)
(0.68027 0.624499 -2.34563e-20)
(0.703832 0.594194 -2.19566e-19)
(0.72241 0.561726 1.17762e-20)
(0.738372 0.530273 -4.28802e-19)
(0.752772 0.500926 -4.36317e-19)
(0.766057 0.473863 -2.95915e-19)
(0.778419 0.44893 -1.21597e-20)
(0.789952 0.425879 -7.34122e-19)
(0.800704 0.404464 -5.11816e-21)
(0.810678 0.384475 3.57836e-19)
(0.819843 0.365754 -3.56135e-19)
(0.82827 0.348087 -2.74182e-19)
(0.836279 0.331052 2.63951e-19)
(0.843695 0.314466 -1.89524e-19)
(0.84772 0.300178 3.6591e-20)
(0.149445 0.20628 2.45995e-19)
(0.343833 0.456242 1.91157e-19)
(0.472002 0.581932 -6.59465e-21)
(0.553372 0.627604 -1.53606e-19)
(0.6049 0.627985 3.78864e-19)
(0.639464 0.606191 6.05531e-19)
(0.664979 0.575798 -6.24774e-20)
(0.685724 0.543685 1.2038e-20)
(0.703792 0.512784 1.19022e-19)
(0.720128 0.484056 2.68831e-19)
(0.735145 0.457628 3.89067e-19)
(0.749039 0.43333 -3.14204e-19)
(0.761919 0.41092 3.11329e-19)
(0.77385 0.390161 -1.0627e-19)
(0.784855 0.370859 3.62384e-19)
(0.794934 0.352864 -1.40912e-19)
(0.804186 0.335988 -3.49434e-19)
(0.812934 0.319898 2.10891e-19)
(0.821031 0.304525 -3.0014e-19)
(0.826034 0.291426 -3.41731e-19)
(0.136383 0.203312 1.06843e-19)
(0.31437 0.446499 1.95816e-19)
(0.43416 0.566468 -2.06306e-19)
(0.512246 0.608427 1.01163e-20)
(0.563525 0.606949 3.54518e-20)
(0.599443 0.584622 2.8507e-19)
(0.62699 0.554485 -4.22177e-19)
(0.649926 0.523018 4.01525e-19)
(0.6701 0.492916 -3.82536e-20)
(0.688362 0.465025 1.09981e-19)
(0.70511 0.439424 1.76827e-19)
(0.720547 0.415936 -3.3705e-19)
(0.734802 0.394324 1.62052e-19)
(0.747965 0.374365 1.53799e-19)
(0.760085 0.355879 5.66868e-20)
(0.77119 0.338723 -2.9089e-19)
(0.781408 0.322723 9.79985e-19)
(0.791056 0.307594 -5.48181e-19)
(0.799983 0.293303 9.97181e-19)
(0.806023 0.281136 -6.46238e-20)
(0.123114 0.198566 7.66673e-20)
(0.284909 0.433267 4.60141e-19)
(0.396711 0.547028 1.62765e-19)
(0.471866 0.58538 3.41352e-19)
(0.523136 0.58237 8.85295e-20)
(0.560535 0.559873 -5.44097e-19)
(0.590155 0.530318 8.43325e-19)
(0.615278 0.499775 4.36411e-19)
(0.637535 0.470706 1.82105e-20)
(0.657702 0.443852 5.65685e-19)
(0.676162 0.419254 9.0997e-20)
(0.693136 0.39673 5.93379e-20)
(0.708774 0.376049 3.38621e-19)
(0.723188 0.357 -1.26432e-19)
(0.736454 0.33941 -1.33862e-19)
(0.74863 0.323141 7.89659e-19)
(0.759869 0.30803 -6.60439e-19)
(0.770476 0.293829 2.55954e-20)
(0.780295 0.280522 8.36051e-19)
(0.787399 0.269165 -7.81694e-22)
(0.109838 0.192065 -9.85214e-19)
(0.255827 0.416627 -1.67792e-19)
(0.360071 0.523729 -2.25919e-19)
(0.432628 0.55859 -1.72209e-19)
(0.484087 0.554366 -4.35753e-19)
(0.523048 0.532046 1.49235e-19)
(0.554749 0.503383 -2.08493e-19)
(0.582027 0.474023 5.97385e-20)
(0.606323 0.446206 -3.01767e-19)
(0.628351 0.420576 -2.86315e-19)
(0.64849 0.397144 5.88996e-20)
(0.666978 0.375723 -4.62966e-19)
(0.683985 0.356094 3.69308e-19)
(0.69965 0.338054 -1.33418e-19)
(0.71407 0.321436 4.19285e-19)
(0.72733 0.306108 -9.04639e-19)
(0.7396 0.291915 -1.71634e-19)
(0.751171 0.278636 -3.24764e-19)
(0.761883 0.26626 -8.73284e-19)
(0.77004 0.255641 -1.40763e-19)
(0.0967475 0.183851 1.60913e-19)
(0.227483 0.396697 -1.94068e-20)
(0.324637 0.496721 -2.47151e-19)
(0.394907 0.52821 8.72087e-20)
(0.446711 0.52308 -1.76314e-19)
(0.487276 0.501265 -2.3425e-21)
(0.521029 0.473786 2.40441e-19)
(0.550404 0.445853 -3.58658e-19)
(0.576674 0.419491 1.40226e-19)
(0.600501 0.395258 -8.10208e-20)
(0.622266 0.37314 2.18042e-20)
(0.642223 0.352951 -4.01637e-19)
(0.660567 0.33448 -4.89063e-19)
(0.677454 0.317535 -1.84993e-20)
(0.693008 0.301958 5.4533e-19)
(0.707334 0.287619 2.56568e-20)
(0.720614 0.274371 6.90955e-19)
(0.733122 0.262021 -1.00702e-18)
(0.744704 0.250553 5.36217e-19)
(0.753887 0.240649 9.24086e-19)
(0.0840277 0.173987 -1.39596e-19)
(0.200219 0.37362 7.50176e-20)
(0.290782 0.466184 4.87766e-19)
(0.359052 0.494422 1.20308e-19)
(0.41132 0.488677 -1.62486e-19)
(0.453491 0.467676 1.28115e-19)
(0.489239 0.441651 5.04567e-19)
(0.520628 0.415372 -4.09301e-19)
(0.548784 0.390655 3.80593e-20)
(0.574329 0.367979 -1.4949e-19)
(0.597649 0.347312 5.40944e-19)
(0.619014 0.328472 3.86629e-19)
(0.63864 0.311259 -5.60422e-20)
(0.656705 0.295491 -5.87788e-19)
(0.67335 0.281019 3.10062e-20)
(0.688702 0.267718 -7.26631e-20)
(0.702948 0.255451 3.45967e-19)
(0.716347 0.244046 5.63367e-19)
(0.728759 0.233484 4.92611e-19)
(0.738927 0.224293 -8.22975e-19)
(0.0718553 0.162551 -8.71679e-20)
(0.174356 0.34757 3.72128e-19)
(0.258854 0.432325 -3.63119e-19)
(0.325389 0.457432 5.04502e-19)
(0.378202 0.451347 -2.74653e-19)
(0.421949 0.431447 1.96699e-19)
(0.459603 0.407127 5.00188e-19)
(0.492899 0.38271 -6.01425e-19)
(0.522834 0.359812 2.74073e-19)
(0.549999 0.338841 3.47248e-19)
(0.574784 0.31975 -4.72333e-19)
(0.597479 0.302367 -3.37923e-20)
(0.618317 0.286503 -3.79707e-19)
(0.637496 0.271989 6.08806e-19)
(0.655175 0.258684 -3.30583e-19)
(0.671495 0.246469 3.55206e-19)
(0.686649 0.23522 -6.44819e-20)
(0.700879 0.224787 2.19736e-19)
(0.71407 0.215139 5.00739e-20)
(0.725174 0.206681 -1.28482e-19)
(0.0603962 0.14964 -2.66777e-19)
(0.150193 0.318747 -6.14541e-19)
(0.229176 0.395378 1.61785e-19)
(0.294221 0.41747 -5.18834e-19)
(0.347624 0.411299 -4.91389e-19)
(0.392882 0.392765 -3.53272e-19)
(0.432329 0.370379 2.75462e-19)
(0.467402 0.348015 2.11951e-19)
(0.498991 0.327095 -1.54362e-21)
(0.527661 0.307963 -1.85061e-19)
(0.553808 0.290565 -3.33783e-19)
(0.577739 0.274738 3.01285e-19)
(0.599705 0.260308 -1.03748e-19)
(0.619921 0.247118 -5.14125e-19)
(0.63856 0.235039 3.35101e-19)
(0.655779 0.22396 -2.51771e-19)
(0.671772 0.213769 -1.02721e-19)
(0.686766 0.204334 -2.87549e-19)
(0.700676 0.195619 -2.60819e-19)
(0.712654 0.187921 6.74486e-20)
(0.049804 0.135364 2.33089e-19)
(0.128005 0.287375 1.20902e-19)
(0.202041 0.3556 1.849e-19)
(0.265819 0.374787 -6.30414e-19)
(0.319829 0.368765 6.75442e-19)
(0.366505 0.351836 3.27767e-21)
(0.407605 0.331592 5.55483e-21)
(0.444308 0.311452 -4.12255e-19)
(0.477409 0.292653 3.85113e-19)
(0.507453 0.275483 -2.67921e-19)
(0.534844 0.259884 8.11008e-20)
(0.559904 0.245703 -3.60012e-19)
(0.582902 0.232783 -1.71441e-19)
(0.604065 0.220984 -8.20161e-20)
(0.623581 0.210186 6.18001e-19)
(0.641619 0.20029 -3.03524e-19)
(0.658374 0.191195 -2.74102e-19)
(0.674057 0.18279 2.82392e-19)
(0.688622 0.17503 -2.31966e-19)
(0.701404 0.168126 1.8085e-19)
(0.0402187 0.119849 4.94454e-19)
(0.108038 0.253699 -2.98585e-19)
(0.177715 0.313271 4.4793e-20)
(0.240429 0.329655 5.23658e-19)
(0.295034 0.323992 2.07793e-19)
(0.343007 0.308882 2.58019e-19)
(0.385601 0.290965 2.56965e-19)
(0.423769 0.273203 5.45424e-19)
(0.458224 0.256654 -1.25146e-19)
(0.489498 0.241555 2.98815e-19)
(0.518004 0.227847 4.34648e-19)
(0.544076 0.215394 1.60254e-19)
(0.567998 0.204055 2.90513e-19)
(0.590008 0.193706 1.05519e-19)
(0.610309 0.184241 6.22355e-20)
(0.629079 0.175572 -4.50618e-20)
(0.646511 0.167611 3.61639e-19)
(0.662805 0.160264 2.23244e-19)
(0.677955 0.153482 -2.02865e-19)
(0.691463 0.147409 1.9141e-19)
(0.0317656 0.103233 -3.28163e-19)
(0.0905124 0.217987 3.71347e-20)
(0.156432 0.268691 -9.48873e-20)
(0.218269 0.282364 -2.88203e-19)
(0.273431 0.277246 -1.52942e-19)
(0.32256 0.264143 -2.77864e-19)
(0.366468 0.248714 1.2905e-19)
(0.405918 0.233464 -5.00146e-19)
(0.441558 0.219277 2.95441e-19)
(0.473908 0.206345 -4.09013e-19)
(0.503388 0.194611 -2.5425e-19)
(0.530344 0.183956 -3.36776e-19)
(0.555073 0.17426 7.71757e-20)
(0.577824 0.165415 -7.62132e-20)
(0.598811 0.15733 9.13524e-20)
(0.618218 0.149928 4.92275e-20)
(0.636238 0.143135 9.78689e-20)
(0.653062 0.136873 -8.18541e-19)
(0.668722 0.131094 4.07562e-19)
(0.682868 0.125889 -2.44408e-19)
(0.0245543 0.0856665 1.08337e-19)
(0.0756205 0.18052 2.18889e-19)
(0.138394 0.222177 -1.42889e-19)
(0.199526 0.23322 3.52922e-19)
(0.255186 0.228806 -5.68163e-20)
(0.305307 0.21787 4.09057e-19)
(0.350336 0.205067 7.90305e-20)
(0.390874 0.192443 -8.32039e-20)
(0.427518 0.180714 3.02784e-19)
(0.460779 0.17003 2.31793e-19)
(0.491083 0.160341 8.60339e-20)
(0.518788 0.151546 1.13268e-19)
(0.5442 0.143547 5.68741e-20)
(0.567578 0.136252 -2.4149e-19)
(0.589144 0.129587 -3.3719e-20)
(0.60909 0.123487 2.52672e-19)
(0.627605 0.117894 -1.72728e-19)
(0.644875 0.112741 -7.91128e-21)
(0.660966 0.107986 -3.62484e-19)
(0.675656 0.103682 7.30612e-19)
(0.0186775 0.0673081 2.90299e-19)
(0.0635227 0.141598 -3.48926e-19)
(0.123773 0.174059 1.63631e-19)
(0.184358 0.182541 -2.31786e-19)
(0.240437 0.178964 2.04414e-19)
(0.291372 0.170327 -3.55295e-19)
(0.337313 0.160262 -2.60432e-19)
(0.378734 0.150359 1.95093e-20)
(0.416192 0.141168 -3.5555e-19)
(0.450191 0.132799 -2.22122e-19)
(0.481163 0.125213 -3.85085e-19)
(0.509475 0.11833 -1.30281e-20)
(0.53544 0.112071 -1.49826e-19)
(0.559325 0.106366 3.79328e-19)
(0.581359 0.101155 2.61807e-19)
(0.601741 0.0963876 -8.7853e-20)
(0.620656 0.0920177 -7.94711e-20)
(0.638285 0.087996 -3.51771e-21)
(0.654725 0.0842834 9.80494e-21)
(0.669858 0.0809106 1.44209e-19)
(0.0142103 0.0483257 -7.26077e-20)
(0.0543492 0.101531 -2.48577e-19)
(0.112704 0.124684 -1.55096e-19)
(0.172889 0.130658 -9.7115e-20)
(0.229298 0.12802 -2.01414e-19)
(0.280854 0.121786 3.45499e-19)
(0.327487 0.11455 -3.69058e-20)
(0.369578 0.10744 -8.32703e-20)
(0.407652 0.100847 3.41066e-21)
(0.442209 0.0948477 2.45237e-19)
(0.473687 0.0894108 -2.33171e-19)
(0.502458 0.0844795 2.28308e-19)
(0.528841 0.0799967 1.07332e-19)
(0.553111 0.0759117 -1.95781e-19)
(0.575499 0.0721815 4.28221e-20)
(0.59621 0.0687699 1.26203e-19)
(0.615426 0.0656441 4.40757e-20)
(0.633326 0.0627693 -3.0435e-20)
(0.65003 0.0601155 -2.66117e-19)
(0.665501 0.0576976 2.12008e-19)
(0.0112095 0.0288935 6.54483e-20)
(0.0481982 0.0606409 7.95134e-20)
(0.105291 0.0744028 2.2376e-20)
(0.165217 0.0779085 -1.68709e-20)
(0.221851 0.0762857 4.80308e-20)
(0.273827 0.072529 7.35504e-20)
(0.320925 0.0681838 2.7899e-20)
(0.363466 0.0639211 3.40552e-20)
(0.401953 0.059971 -7.26677e-20)
(0.436884 0.0563782 1.36165e-19)
(0.4687 0.0531236 -3.22105e-20)
(0.497779 0.0501727 -2.62573e-21)
(0.524443 0.0474911 3.27817e-20)
(0.548969 0.0450483 3.69842e-20)
(0.571595 0.0428185 -9.95773e-20)
(0.592526 0.0407799 6.54439e-20)
(0.611944 0.0389129 4.29935e-20)
(0.630025 0.0371969 3.67417e-20)
(0.646907 0.0356131 7.89305e-20)
(0.662604 0.0341678 3.2721e-20)
(0.00971339 0.00919022 -1.33991e-20)
(0.0451353 0.019255 2.7851e-20)
(0.101604 0.0235776 -3.89954e-20)
(0.161405 0.0246389 2.45145e-20)
(0.218154 0.0240757 1.44167e-20)
(0.27034 0.0228408 6.47576e-21)
(0.317672 0.0214249 1.52716e-20)
(0.360436 0.0200406 -4.38138e-20)
(0.39913 0.0187601 2.79601e-20)
(0.434248 0.017597 9.76957e-21)
(0.466234 0.0165445 -5.95501e-22)
(0.495466 0.0155914 6.02894e-20)
(0.52227 0.0147263 -1.82824e-20)
(0.546924 0.0139391 -1.75416e-20)
(0.569669 0.0132215 -1.68934e-20)
(0.590709 0.0125662 2.61612e-21)
(0.610228 0.0119668 -2.26445e-20)
(0.628399 0.0114167 4.3109e-21)
(0.645369 0.0109096 8.52899e-22)
(0.66118 0.0104473 -2.87922e-21)
(0.00974103 -0.0106024 8.50942e-21)
(0.0451933 -0.0222945 -4.52917e-20)
(0.101677 -0.0274271 5.4024e-20)
(0.161484 -0.0288025 -4.06191e-20)
(0.218233 -0.0282911 -1.89868e-20)
(0.270419 -0.0269894 5.68524e-20)
(0.317748 -0.0254632 4.74811e-21)
(0.360511 -0.0239587 1.33647e-21)
(0.399202 -0.0225608 2.66649e-20)
(0.434319 -0.0212867 1.38086e-20)
(0.466302 -0.0201303 -1.08863e-20)
(0.495532 -0.0190799 -3.83041e-20)
(0.522335 -0.0181236 3.6137e-21)
(0.546988 -0.0172507 -3.36593e-21)
(0.569731 -0.0164523 3.58233e-20)
(0.59077 -0.0157209 -2.15775e-20)
(0.610287 -0.0150497 2.96442e-20)
(0.628457 -0.0144315 -4.44503e-20)
(0.645427 -0.0138596 5.19352e-23)
(0.661236 -0.0133357 -9.37635e-21)
(0.0112923 -0.030302 -2.82619e-20)
(0.0483721 -0.0636742 1.42595e-19)
(0.10551 -0.0782455 9.61542e-20)
(0.165454 -0.0820654 6.3686e-20)
(0.22209 -0.0804948 7.95844e-20)
(0.274063 -0.0766715 -1.929e-20)
(0.321155 -0.0722162 8.83328e-20)
(0.363688 -0.0678336 1.81371e-20)
(0.402169 -0.0637664 -7.85406e-21)
(0.437095 -0.0600628 -6.3169e-20)
(0.468905 -0.0567044 6.56242e-20)
(0.497978 -0.0536564 -8.91995e-20)
(0.524638 -0.0508837 6.48851e-20)
(0.549159 -0.0483553 7.44216e-20)
(0.571781 -0.0460449 9.8592e-20)
(0.592708 -0.0439302 -6.47227e-20)
(0.612122 -0.0419914 1.8364e-20)
(0.630199 -0.0402074 6.86175e-20)
(0.647078 -0.0385588 -6.48956e-20)
(0.66277 -0.037052 4.89743e-20)
(0.0143478 -0.049727 -2.73159e-19)
(0.0546384 -0.104552 -1.37293e-19)
(0.113067 -0.128513 -1.52736e-19)
(0.173283 -0.134801 -1.20515e-20)
(0.229696 -0.132217 -8.24549e-20)
(0.281246 -0.125917 -1.01188e-19)
(0.327869 -0.118571 1.78885e-19)
(0.369949 -0.111342 9.12846e-20)
(0.408012 -0.104632 1.12628e-19)
(0.44256 -0.0985221 -1.2235e-19)
(0.474028 -0.0929818 9.07505e-20)
(0.50279 -0.0879537 1.10902e-19)
(0.529165 -0.08338 3.91159e-20)
(0.553427 -0.0792096 -3.71914e-20)
(0.575809 -0.075399 8.06974e-21)
(0.596512 -0.0719115 -1.60254e-20)
(0.615723 -0.068714 -1.57688e-19)
(0.633617 -0.0657712 2.43632e-20)
(0.650316 -0.0630526 1.53454e-19)
(0.665778 -0.0605735 -2.06217e-19)
(0.0188692 -0.0686986 -8.99041e-20)
(0.0639262 -0.1446 1.33245e-19)
(0.12428 -0.177868 3.0882e-20)
(0.184907 -0.186665 -5.76213e-20)
(0.240994 -0.183141 -1.63116e-19)
(0.29192 -0.174439 -3.49806e-19)
(0.337846 -0.164266 -3.33209e-19)
(0.379253 -0.154244 -2.40532e-20)
(0.416695 -0.144936 -1.94158e-19)
(0.45068 -0.136458 -2.90596e-19)
(0.481639 -0.128769 2.25634e-19)
(0.509939 -0.12179 -3.32785e-19)
(0.535893 -0.115441 6.64085e-20)
(0.559768 -0.109651 -2.11307e-20)
(0.581792 -0.104359 -7.00192e-20)
(0.602164 -0.0995162 -8.86329e-20)
(0.62107 -0.0950747 1.43657e-19)
(0.638691 -0.0909851 1.14953e-19)
(0.655124 -0.0872078 1.97783e-19)
(0.670246 -0.083774 -2.96035e-19)
(0.0247992 -0.0870426 4.87608e-20)
(0.0761368 -0.183497 4.73973e-19)
(0.139045 -0.225958 1.35817e-19)
(0.20023 -0.237317 3.28505e-19)
(0.255899 -0.232958 -1.22771e-19)
(0.30601 -0.221958 1.89172e-19)
(0.35102 -0.209047 -5.95658e-20)
(0.391539 -0.196306 3.84159e-19)
(0.428164 -0.184462 -1.97771e-19)
(0.461407 -0.173669 2.33243e-19)
(0.491694 -0.163877 2.02648e-19)
(0.519384 -0.154987 2.16993e-19)
(0.544781 -0.146898 -1.94267e-19)
(0.568146 -0.139519 1.66923e-19)
(0.589699 -0.132774 -2.32094e-19)
(0.609633 -0.126599 -6.3922e-20)
(0.628137 -0.120933 -1.5325e-19)
(0.645397 -0.115714 -6.51537e-20)
(0.661479 -0.110893 2.58324e-19)
(0.676154 -0.106529 -4.279e-19)
(0.0320624 -0.104591 -1.9617e-19)
(0.0911398 -0.220933 -2.28031e-20)
(0.157223 -0.272438 -7.82278e-20)
(0.219126 -0.286428 -2.75096e-19)
(0.2743 -0.281367 4.67971e-20)
(0.323415 -0.268201 -4.31221e-19)
(0.367302 -0.252666 -1.81463e-19)
(0.406728 -0.2373 -1.40539e-20)
(0.442345 -0.222999 -4.56938e-19)
(0.474674 -0.209959 -1.42072e-19)