/*--------------------------------*- C++ -*----------------------------------*\
  =========                 |
  \\      /  F ield         | OpenFOAM: The Open Source CFD Toolbox
   \\    /   O peration     | Website:  https://openfoam.org
    \\  /    A nd           | Version:  6.0
     \\/     M anipulation  |
\*---------------------------------------------------------------------------*/
FoamFile
{
    version     2.0;
    format      ascii;
    class       surfaceScalarField;
    location    "48";
    object      phi;
}
// * * * * * * * * * * * * * * * * * * * * * * * * * * * * * * * * * * * * * //

dimensions      [0 3 -1 0 0 0 0];

internalField   nonuniform List<scalar> 
15760
(
-2.41467e-06
7.48287e-09
2.40719e-06
-8.5946e-06
7.16515e-08
6.10828e-06
-1.76487e-05
7.64744e-08
8.97758e-06
-2.88251e-05
-2.06831e-08
1.11971e-05
-4.15078e-05
-2.31305e-07
1.2914e-05
-5.5207e-05
-5.52785e-07
1.4252e-05
-6.95474e-05
-9.72778e-07
1.53132e-05
-8.42559e-05
-1.47172e-06
1.61802e-05
-9.91499e-05
-2.02468e-06
1.69186e-05
-0.000114126
-2.60277e-06
1.75786e-05
-0.000129149
-3.17461e-06
1.81974e-05
-0.000144242
-3.7078e-06
1.88012e-05
-0.000159479
-4.17047e-06
1.94073e-05
-0.000174971
-4.53283e-06
2.00254e-05
-0.000190862
-4.76848e-06
2.06596e-05
-0.000207316
-4.85548e-06
2.13095e-05
-0.00022451
-4.77749e-06
2.19712e-05
-0.000242624
-4.52414e-06
2.2638e-05
-0.000261836
-4.08799e-06
2.33e-05
-3.46052e-06
2.39463e-05
-0.000282322
-2.44815e-06
2.45563e-06
-8.70161e-06
6.32512e-06
-1.78501e-05
9.22501e-06
-2.91281e-05
1.12573e-05
-4.19089e-05
1.25495e-05
-5.56943e-05
1.32327e-05
-7.0102e-05
1.34349e-05
-8.48524e-05
1.32787e-05
-9.97569e-05
1.28797e-05
-0.000114706
1.23463e-05
-0.00012966
1.17789e-05
-0.000144637
1.12694e-05
-0.000159707
1.08998e-05
-0.000174981
1.07409e-05
-0.0001906
1.08512e-05
-0.000206732
1.1276e-05
-0.000223555
1.20456e-05
-0.000241255
1.31757e-05
-0.000260015
1.46722e-05
1.65418e-05
-0.000280017
-2.48256e-06
4.9382e-06
-8.80671e-06
1.26493e-05
-1.80382e-05
1.84565e-05
-2.93931e-05
2.26122e-05
-4.22306e-05
2.53869e-05
-5.60401e-05
2.70421e-05
-7.04276e-05
2.78224e-05
-8.51023e-05
2.79534e-05
-9.98639e-05
2.76414e-05
-0.000114592
2.70741e-05
-0.000129235
2.64219e-05
-0.000143802
2.5837e-05
-0.000158356
2.54538e-05
-0.000173003
2.53871e-05
-0.000187882
2.5731e-05
-0.000203164
2.65575e-05
-0.000219034
2.79154e-05
-0.000235687
2.98287e-05
-0.000253319
3.23049e-05
3.535e-05
-0.000272128
-2.51768e-06
7.45587e-06
-8.90858e-06
1.90402e-05
-1.821e-05
2.77578e-05
-2.96164e-05
3.40187e-05
-4.24695e-05
3.824e-05
-5.62432e-05
4.08158e-05
-7.05282e-05
4.21075e-05
-8.5018e-05
4.24432e-05
-9.94957e-05
4.21191e-05
-0.000113824
4.14019e-05
-0.000127933
4.05318e-05
-0.00014182
3.97232e-05
-0.000155531
3.91655e-05
-0.000169166
3.90215e-05
-0.000182861
3.94262e-05
-0.000196788
4.04849e-05
-0.000211144
4.22706e-05
-0.000226137
4.48224e-05
-0.000241986
4.81539e-05
5.22739e-05
-0.00025891
-2.55319e-06
1.00091e-05
-9.00547e-06
2.54925e-05
-1.83618e-05
3.71142e-05
-2.97927e-05
4.54496e-05
-4.26205e-05
5.10678e-05
-5.63014e-05
5.44967e-05
-7.04084e-05
5.62145e-05
-8.46156e-05
5.66504e-05
-9.8685e-05
5.61885e-05
-0.000112456
5.51731e-05
-0.000125838
5.39138e-05
-0.000138803
5.26883e-05
-0.000151381
5.17436e-05
-0.000163656
5.1296e-05
-0.000175758
5.15284e-05
-0.000187861
5.25879e-05
-0.000200172
5.45815e-05
-0.000212922
5.75726e-05
-0.000226358
6.15897e-05
6.66503e-05
-0.000240735
-2.58835e-06
1.25974e-05
-9.09393e-06
3.1998e-05
-1.84864e-05
4.65066e-05
-2.99111e-05
5.68744e-05
-4.26704e-05
6.38271e-05
-5.62024e-05
6.80287e-05
-7.00611e-05
7.00732e-05
-8.3899e-05
7.04883e-05
-9.74536e-05
6.9743e-05
-0.000110537
6.82564e-05
-0.000123029
6.64054e-05
-0.000134871
6.4531e-05
-0.000146068
6.29408e-05
-0.000156682
6.19092e-05
-0.000166829
6.16759e-05
-0.000176682
6.24411e-05
-0.00018646
6.43589e-05
-0.000196418
6.75311e-05
-0.000206843
7.2015e-05
7.78472e-05
-0.00021804
-2.62154e-06
1.5219e-05
-9.16752e-06
3.8544e-05
-1.85702e-05
5.59093e-05
-2.99502e-05
6.82544e-05
-4.25909e-05
7.64678e-05
-5.59133e-05
8.13511e-05
-6.94531e-05
8.36129e-05
-8.28409e-05
8.38761e-05
-9.57877e-05
8.26898e-05
-0.000108074
8.05429e-05
-0.000119545
7.78762e-05
-0.000130105
7.50915e-05
-0.000139723
7.25579e-05
-0.000148427
7.06132e-05
-0.000156313
6.95624e-05
-0.000163544
6.96722e-05
-0.000170347
7.11616e-05
-0.000177007
7.41907e-05
-0.000183858
7.88664e-05
8.52633e-05
-0.000191274
-2.6499e-06
1.78689e-05
-9.21554e-06
4.51096e-05
-1.85911e-05
6.52849e-05
-2.98738e-05
7.9537e-05
-4.23307e-05
8.89247e-05
-5.5369e-05
9.43893e-05
-6.85084e-05
9.67524e-05
-8.13598e-05
9.67275e-05
-9.36079e-05
9.49379e-05
-0.000105001
9.19356e-05
-0.000115343
8.82185e-05
-0.000124496
8.42446e-05
-0.00013238
8.04422e-05
-0.000138982
7.72147e-05
-0.00014436
7.49408e-05
-0.000148656
7.39683e-05
-0.000152097
7.46023e-05
-0.000154995
7.70887e-05
-0.000157743
8.16149e-05
8.83244e-05
-0.000160804
-2.66905e-06
2.05379e-05
-9.22219e-06
5.16628e-05
-1.85159e-05
7.45786e-05
-2.96266e-05
9.06478e-05
-4.18092e-05
0.000101107
-5.44612e-05
0.000107041
-6.70917e-05
0.000109383
-7.92957e-05
0.000108932
-9.07356e-05
0.000106378
-0.000101128
0.000102328
-0.000110236
9.73271e-05
-0.000117873
9.18815e-05
-0.000123903
8.64719e-05
-0.000128254
8.15655e-05
-0.000130932
7.76191e-05
-0.000132039
7.50754e-05
-0.000131786
7.43494e-05
-0.000130505
7.58077e-05
-0.000128653
7.97625e-05
8.64753e-05
-0.000126804
-2.67311e-06
2.3211e-05
-9.16643e-06
5.81561e-05
-1.83001e-05
8.37123e-05
-2.9133e-05
0.000101481
-4.09121e-05
0.000112886
-5.3031e-05
0.00011916
-6.49943e-05
0.000121346
-7.63887e-05
0.000120326
-8.68605e-05
0.00011685
-9.61006e-05
0.000111568
-0.000103836
0.000105062
-0.000109828
9.78737e-05
-0.00011388
9.05241e-05
-0.00011585
8.35355e-05
-0.000115672
7.7441e-05
-0.000113384
7.2787e-05
-0.000109156
7.01216e-05
-0.000103321
6.99722e-05
-9.6394e-05
7.28359e-05
7.9168e-05
-8.90867e-05
-2.65497e-06
2.5866e-05
-9.02273e-06
6.45239e-05
-1.78887e-05
9.25783e-05
-2.82971e-05
0.000111889
-3.94908e-05
0.00012408
-5.08649e-05
0.000130534
-6.19266e-05
0.000132408
-7.22626e-05
0.000130662
-8.15132e-05
0.0001261
-8.93542e-05
0.000119409
-9.54849e-05
0.000111193
-9.96239e-05
0.000102013
-0.000101514
9.24142e-05
-0.000100936
8.29579e-05
-9.77364e-05
7.42411e-05
-9.18613e-05
6.69119e-05
-8.34069e-05
6.16673e-05
-7.26713e-05
5.92365e-05
-6.02112e-05
6.03758e-05
6.58456e-05
-4.68888e-05
-2.60694e-06
2.84729e-05
-8.76299e-06
7.06799e-05
-1.722e-05
0.000101035
-2.70082e-05
0.000121677
-3.73685e-05
0.00013444
-4.77008e-05
0.000140867
-5.75205e-05
0.000142228
-6.64226e-05
0.000139564
-7.40533e-05
0.000133731
-8.00871e-05
0.000125443
-8.42121e-05
0.000115318
-8.61202e-05
0.000103921
-8.55075e-05
9.18015e-05
-8.20848e-05
7.95351e-05
-7.56025e-05
6.77588e-05
-6.58947e-05
5.72041e-05
-5.29433e-05
4.87159e-05
-3.69618e-05
4.3255e-05
-1.8503e-05
4.1917e-05
4.59199e-05
1.42269e-06
-2.52173e-06
3.09947e-05
-8.35935e-06
7.65175e-05
-1.62301e-05
0.000108906
-2.51482e-05
0.000130595
-3.43501e-05
0.000143642
-4.32403e-05
0.000149757
-5.13441e-05
0.000150331
-5.82702e-05
0.00014649
-6.36798e-05
0.00013914
-6.72618e-05
0.000129025
-6.8714e-05
0.00011677
-6.77277e-05
0.000102935
-6.39809e-05
8.80548e-05
-5.714e-05
7.26942e-05
-4.68766e-05
5.74954e-05
-3.29084e-05
4.32359e-05
-1.50716e-05
3.08791e-05
6.56579e-06
2.16177e-05
3.15322e-05
1.69506e-05
1.87402e-05
5.87119e-05
-2.39353e-06
3.33882e-05
-7.78752e-06
8.19115e-05
-1.48601e-05
0.000115979
-2.26022e-05
0.000138337
-3.02391e-05
0.000151279
-3.71723e-05
0.00015669
-4.29324e-05
0.000156091
-4.71396e-05
0.000150697
-4.94739e-05
0.000141475
-4.96494e-05
0.0001292
-4.73937e-05
0.000114514
-4.24293e-05
9.79701e-05
-3.44587e-05
8.00841e-05
-2.31542e-05
6.13897e-05
-8.15893e-06
4.25002e-05
1.08899e-05
2.41871e-05
3.42986e-05
7.4703e-06
6.21947e-05
-6.27839e-06
9.42946e-05
-1.51494e-05
-1.6457e-05
0.000129492
-2.21902e-06
3.56072e-05
-7.02991e-06
8.67224e-05
-1.3062e-05
0.000122011
-1.92704e-05
0.000144546
-2.48549e-05
0.000156864
-2.92001e-05
0.000161035
-3.18267e-05
0.000158718
-3.23547e-05
0.000151225
-3.04744e-05
0.000139594
-2.59244e-05
0.00012465
-1.84729e-05
0.000107063
-7.90046e-06
8.73977e-05
6.01846e-06
6.61652e-05
2.3535e-05
4.38731e-05
4.49447e-05
2.10906e-05
7.05942e-05
-1.46249e-06
0.000100858
-2.2793e-05
0.000136047
-4.14674e-05
0.000176172
-5.52746e-05
-6.06265e-05
0.000220341
-1.99793e-06
3.76051e-05
-6.07731e-06
9.08018e-05
-1.08028e-05
0.000126736
-1.50755e-05
0.000148818
-1.80488e-05
0.000159837
-1.90672e-05
0.000162054
-1.76178e-05
0.000157269
-1.32948e-05
0.000146902
-5.77501e-06
0.000132075
5.19744e-06
0.000113678
1.9823e-05
9.24373e-05
3.8256e-05
6.89647e-05
6.06169e-05
4.38043e-05
8.70105e-05
1.74795e-05
0.000117555
-9.45404e-06
0.00015242
-3.63277e-05
0.00019186
-6.2233e-05
0.000236218
-8.58256e-05
0.000285808
-0.000104864
-0.000115017
0.000340199
-1.73275e-06
3.93379e-05
-4.92838e-06
9.39974e-05
-8.06465e-06
0.000129873
-9.96447e-06
0.000150718
-9.70905e-06
0.000159582
-6.57316e-06
0.000158918
2.3568e-08
0.000150672
1.05496e-05
0.000136376
2.53805e-05
0.000117244
4.48071e-05
9.42513e-05
6.90355e-05
6.8209e-05
9.81822e-05
3.9818e-05
0.000132269
9.71755e-06
0.000171223
-2.14741e-05
0.000214889
-5.31203e-05
0.000263072
-8.45113e-05
0.000315609
-0.000114769
0.000372477
-0.000142694
0.000433965
-0.000166352
-0.000181377
0.000500325
-1.42748e-06
4.07654e-05
-3.58603e-06
9.6156e-05
-4.83817e-06
0.000131125
-3.90119e-06
0.000149781
2.45971e-07
0.000155434
8.43188e-06
0.000150732
2.13425e-05
0.000137761
3.95527e-05
0.000118166
6.35402e-05
9.32562e-05
9.36868e-05
6.41047e-05
0.000130267
3.16292e-05
0.000173425
-3.34041e-06
0.000223149
-4.00066e-05
0.000279233
-7.75579e-05
0.000341243
-0.000115131
0.000408505
-0.000151773
0.000480125
-0.000186389
0.000555109
-0.000217678
0.000632757
-0.000244
-0.000262898
0.000714278
-1.08547e-06
4.18508e-05
-2.05117e-06
9.71217e-05
-1.11151e-06
0.000130185
3.15132e-06
0.000145519
1.18913e-05
0.000146694
2.60738e-05
0.000136549
4.65276e-05
0.000117307
7.39755e-05
9.07182e-05
0.000109046
5.81854e-05
0.000152271
2.08796e-05
0.000204068
-2.01669e-05
0.000264707
-6.39799e-05
0.000334272
-0.000109572
0.000412588
-0.000155874
0.000499128
-0.00020167
0.000592875
-0.00024552
0.000692167
-0.000285681
0.000794488
-0.00032
0.000896635
-0.000346147
-0.000366231
0.000999967
-7.06679e-07
4.25575e-05
-3.14731e-07
9.67297e-05
3.14468e-06
0.000126726
1.12538e-05
0.000137409
2.5328e-05
0.00013262
4.64976e-05
0.00011538
7.57623e-05
8.80428e-05
0.000114021
5.24596e-05
0.000162083
1.01237e-05
0.000220664
-3.77019e-05
0.000290379
-8.98816e-05
0.00037172
-0.000145321
0.00046504
-0.000202891
0.000570516
-0.00026135
0.000688093
-0.000319247
0.000817356
-0.000374783
0.000957221
-0.000425545
0.00110495
-0.000467729
0.00125289
-0.000494091
-0.00049131
0.00137797
-2.8589e-07
4.28434e-05
1.64857e-06
9.47953e-05
7.99e-06
0.000120384
2.05119e-05
0.000124887
4.07139e-05
0.000112418
6.99095e-05
8.61841e-05
0.000109279
4.86732e-05
0.000159896
1.84252e-06
0.000222734
-5.27143e-05
0.000298664
-0.000113632
0.000388452
-0.00017967
0.000492769
-0.000249638
0.000612224
-0.000322346
0.000747445
-0.000396571
0.000899246
-0.000471048
0.00106894
-0.000544477
0.00125891
-0.000615511
0.00147391
-0.000682735
0.00172506
-0.000745234
-0.000802122
0.00203587
1.91592e-07
4.26518e-05
3.88915e-06
9.10977e-05
1.35276e-05
0.000110746
3.10939e-05
0.000107321
5.82866e-05
8.52254e-05
9.66054e-05
4.78653e-05
0.000147396
-2.11758e-06
0.000211865
-6.26266e-05
0.000291074
-0.000131922
0.000385922
-0.00020848
0.000497143
-0.000290891
0.000625308
-0.000377803
0.000770859
-0.000467898
0.00093419
-0.000559903
0.00111578
-0.000652636
0.00131639
-0.000745092
0.00153743
-0.000836548
0.00178139
-0.000926695
0.00205187
-0.00101571
-0.00109699
0.00234673
7.46157e-07
4.19057e-05
6.47607e-06
8.53678e-05
1.98959e-05
9.7326e-05
4.32201e-05
8.39971e-05
7.83494e-05
5.00961e-05
0.000126952
-7.37847e-07
0.000190495
-6.56602e-05
0.000270232
-0.000142363
0.000367178
-0.000228869
0.000482076
-0.000323378
0.000615369
-0.000424184
0.000767198
-0.000529632
0.00093742
-0.000638119
0.00112566
-0.000748141
0.00133137
-0.00085835
0.00155394
-0.000967656
0.00179271
-0.00107532
0.00204703
-0.00118102
0.00231591
-0.00128459
-0.00137773
0.00259666
1.40492e-06
4.05007e-05
9.49572e-06
7.7277e-05
2.72607e-05
7.9561e-05
5.71444e-05
5.41133e-05
0.000101234
6.00609e-06
0.000161325
-6.08285e-05
0.000238918
-0.000143253
0.000335184
-0.000238629
0.000450907
-0.000344591
0.000586431
-0.000458902
0.000741629
-0.000579382
0.000915898
-0.0007039
0.00110819
-0.000830408
0.00131705
-0.000957006
0.00154073
-0.00108203
0.00177718
-0.00120411
0.00202413
-0.00132227
0.00227903
-0.00143592
0.00253909
-0.00154465
-0.00164104
0.0028024
2.19795e-06
3.83028e-05
1.30406e-05
6.64343e-05
3.57928e-05
5.68089e-05
7.31133e-05
1.67928e-05
0.000127236
-4.81165e-05
0.0002
-0.000133592
0.000292811
-0.000236064
0.00040657
-0.000352388
0.00054159
-0.000479612
0.000697545
-0.000614857
0.000873448
-0.000755285
0.00106768
-0.000898137
0.00127809
-0.00104081
0.00150205
-0.00118097
0.00173663
-0.00131661
0.00197868
-0.00144616
0.0022249
-0.00156849
0.0024719
-0.00168292
0.00271636
-0.00178911
-0.00188148
0.0029568
3.15458e-06
3.51482e-05
1.71973e-05
5.23916e-05
4.56415e-05
2.83647e-05
9.13195e-05
-2.88851e-05
0.000156534
-0.000113331
0.000243041
-0.000220099
0.000351964
-0.000344987
0.000483689
-0.000484113
0.000637782
-0.000633705
0.000812954
-0.00079003
0.00100711
-0.000949439
0.00121744
-0.00110847
0.00144061
-0.00126398
0.00167294
-0.00141329
0.00191058
-0.00155425
0.00214975
-0.00168532
0.00238678
-0.00180552
0.00261828
-0.00191442
0.00284125
-0.00201209
-0.00209499
0.00305476
4.29995e-06
3.08483e-05
2.2034e-05
3.46576e-05
5.69098e-05
-6.5111e-06
0.000111857
-8.38324e-05
0.000189125
-0.000190599
0.000290204
-0.000321178
0.000415688
-0.000470471
0.000565161
-0.000633587
0.000737142
-0.000805686
0.000929129
-0.000982017
0.00113774
-0.00115805
0.00135896
-0.00132969
0.0015884
-0.00149342
0.00182159
-0.00164648
0.00205426
-0.00178692
0.00228251
-0.00191357
0.00250299
-0.002026
0.00271294
-0.00212437
0.00291027
-0.00220941
-0.00227946
0.00309474
5.65236e-06
2.51959e-05
2.75919e-05
1.27181e-05
6.96334e-05
-4.85527e-05
0.000134687
-0.000148886
0.000224774
-0.000280686
0.000340873
-0.000437277
0.000482757
-0.000612355
0.000648899
-0.000799728
0.000836503
-0.00099329
0.00104168
-0.0011872
0.00125976
-0.00137613
0.00148566
-0.00155558
0.00171427
-0.00172203
0.00194081
-0.00187303
0.00216113
-0.00200724
0.00237182
-0.00212426
0.00257035
-0.00222453
0.00275504
-0.00230906
0.00292499
-0.00237936
-0.00243529
0.00308082
7.22173e-06
1.79742e-05
3.38786e-05
-1.39388e-05
8.37686e-05
-9.84427e-05
0.000159617
-0.000224734
0.000262983
-0.000384052
0.000394043
-0.000568336
0.000551425
-0.000769737
0.000732203
-0.000980507
0.000932086
-0.00119317
0.00114579
-0.0014009
0.00136751
-0.00159785
0.00159145
-0.00177953
0.0018123
-0.00194287
0.00202553
-0.00208626
0.00222764
-0.00220934
0.0024162
-0.00231283
0.00258984
-0.00239817
0.00274811
-0.00246733
0.00289129
-0.00252254
-0.00256486
0.00302085
9.00895e-06
8.96521e-06
4.08652e-05
-4.57951e-05
9.91847e-05
-0.000156762
0.00018629
-0.00031184
0.000302995
-0.000500757
0.000448342
-0.000713684
0.000619507
-0.000940903
0.000811955
-0.00117296
0.00101986
-0.00140108
0.00123671
-0.00161774
0.00145595
-0.0018171
0.00167161
-0.00199519
0.00187871
-0.00214997
0.00207351
-0.00228106
0.00225361
-0.00238945
0.00241784
-0.00247705
0.00256605
-0.00254639
0.00269895
-0.00260023
0.00281777
-0.00264136
-0.00267167
0.00292458
1.10058e-05
-2.04061e-06
4.84855e-05
-8.32747e-05
0.000115664
-0.00022394
0.000214193
-0.000410368
0.000343813
-0.000630378
0.000502105
-0.000871975
0.000684539
-0.00112334
0.000884896
-0.00137331
0.00109597
-0.00161215
0.00131038
-0.00183216
0.00152136
-0.00202808
0.00172333
-0.00219716
0.00191219
-0.00233883
0.0020854
-0.00245427
0.00224187
-0.00254592
0.0023817
-0.00261688
0.00250586
-0.00267055
0.00261591
-0.00271028
0.00271371
-0.00273916
-0.00275956
0.0028016
1.31951e-05
-1.52357e-05
5.66361e-05
-0.000126716
0.000132903
-0.000300208
0.000242667
-0.000520132
0.00038425
-0.000771961
0.000553474
-0.0010412
0.00074397
-0.00131383
0.000947934
-0.00157727
0.00115712
-0.00182133
0.00136382
-0.00203886
0.00156164
-0.0022259
0.00174591
-0.00238144
0.00191382
-0.00250673
0.00206421
-0.00260466
0.00219729
-0.002679
0.00231426
-0.00273385
0.00241691
-0.0027732
0.00250734
-0.0028007
0.00258767
-0.00281949
-0.0028321
0.00266021
1.55505e-05
-3.07862e-05
6.51782e-05
-0.000176343
0.000150525
-0.000385554
0.000270936
-0.000640543
0.000422988
-0.000924013
0.000600534
-0.00121875
0.000795389
-0.00150869
0.000998451
-0.00178034
0.00120094
-0.00202382
0.00139543
-0.00223334
0.00157642
-0.0024069
0.00174058
-0.00254559
0.00188652
-0.00265268
0.00201447
-0.0027326
0.00212574
-0.00279027
0.00222233
-0.00283043
0.00230651
-0.00285739
0.00238058
-0.00287477
0.00244667
-0.00288558
-0.00289228
0.00250685
1.80364e-05
-4.88226e-05
7.39391e-05
-0.000232246
0.000168084
-0.0004797
0.000298145
-0.000770603
0.000458668
-0.00108454
0.000641464
-0.00140154
0.000836733
-0.00170396
0.00103454
-0.00197814
0.00122616
-0.00221544
0.00140499
-0.00241217
0.00156688
-0.00256879
0.00170998
-0.0026887
0.00183436
-0.00277705
0.00194136
-0.00283961
0.00203315
-0.00288205
0.00211217
-0.00290946
0.00218089
-0.0029261
0.00224153
-0.00293542
0.00229606
-0.0029401
-0.00294242
0.0023462
2.06083e-05
-6.94309e-05
8.2717e-05
-0.000294355
0.000185091
-0.000582073
0.000323399
-0.000908912
0.000489979
-0.00125112
0.00067468
-0.00158624
0.000866462
-0.00189574
0.00105512
-0.0021668
0.00123258
-0.0023929
0.00139351
-0.00257311
0.00153532
-0.00271059
0.00165766
-0.00281104
0.00176182
-0.00288121
0.00185002
-0.00292781
0.00192489
-0.00295693
0.00198908
-0.00297365
0.00204497
-0.00298199
0.0020946
-0.00298505
0.00213964
-0.00298514
-0.00298425
0.00218147
2.32134e-05
-9.26443e-05
9.12871e-05
-0.000362429
0.000201027
-0.000691813
0.000345827
-0.00105371
0.000515757
-0.00142105
0.000698956
-0.00176944
0.000883656
-0.00208044
0.00105998
-0.00234312
0.00122099
-0.00255391
0.00136291
-0.00271503
0.00148474
-0.00283242
0.00158746
-0.00291376
0.00167329
-0.00296704
0.00174503
-0.00299954
0.00180548
-0.00301739
0.00185724
-0.0030254
0.00190248
-0.00302723
0.00194295
-0.00302551
0.00198001
-0.0030222
-0.00301896
0.00201472
2.57914e-05
-0.000118436
9.94101e-05
-0.000436047
0.00021538
-0.000807783
0.000364632
-0.00120296
0.000535061
-0.00159148
0.000713503
-0.00194788
0.000888034
-0.00225497
0.00104965
-0.00250473
0.0011929
-0.00269716
0.00131566
-0.0028378
0.00141838
-0.00293513
0.00150312
-0.0029985
0.00157273
-0.00303666
0.00163026
-0.00305707
0.00167849
-0.00306562
0.00171979
-0.00306671
0.00175605
-0.00306349
0.00178872
-0.00305818
0.00181887
-0.00305235
-0.00304737
0.00184728
2.82771e-05
-0.000146713
0.000106843
-0.000514613
0.000227666
-0.000928606
0.000379142
-0.00135444
0.000547236
-0.00175957
0.000717989
-0.00211864
0.0008799
-0.00241688
0.00102526
-0.00265009
0.00115029
-0.0028222
0.00125446
-0.00294197
0.00133943
-0.0030201
0.00140803
-0.0030671
0.00146348
-0.0030921
0.0015088
-0.0031024
0.00154662
-0.00310344
0.00157901
-0.00309909
0.00160754
-0.00309202
0.00163337
-0.00308402
0.00165733
-0.00307631
-0.00307001
0.00167997
3.06027e-05
-0.000177316
0.000113353
-0.000597364
0.000237463
-0.00105272
0.000388851
-0.00150583
0.000551935
-0.00192265
0.000712519
-0.00227922
0.000860031
-0.00256439
0.000988345
-0.00277841
0.00109537
-0.00292923
0.00118199
-0.00302858
0.00125079
-0.00308891
0.0013051
-0.00312141
0.00134822
-0.00313522
0.00138304
-0.00313721
0.00141188
-0.00313228
0.0014365
-0.00312372
0.00145819
-0.00311371
0.00147783
-0.00310366
0.00149606
-0.00309454
-0.00308722
0.00151327
3.27006e-05
-0.000210016
0.000118726
-0.000683389
0.000244429
-0.00117842
0.000393444
-0.00165484
0.000549115
-0.00207832
0.000697564
-0.00242767
0.000829543
-0.00269637
0.000940642
-0.00288951
0.00103036
-0.00301894
0.00110072
-0.00309895
0.00115499
-0.00314318
0.00119671
-0.00316313
0.00122909
-0.0031676
0.00125475
-0.00316288
0.0012757
-0.00315323
0.00129339
-0.00314141
0.00130884
-0.00312915
0.00132273
-0.00311755
0.00133553
-0.00310734
-0.0030992
0.00134751
3.45106e-05
-0.000244527
0.000122788
-0.000771666
0.000248332
-0.00130396
0.000392809
-0.00179932
0.00053902
-0.00222454
0.000673896
-0.00256255
0.000789776
-0.00281225
0.000883966
-0.0029837
0.000957359
-0.00309234
0.00101287
-0.00315446
0.00105416
-0.00318446
0.00108476
-0.00319373
0.00110768
-0.00319052
0.00112524
-0.00318044
0.00113911
-0.0031671
0.00115046
-0.00315275
0.00116007
-0.00313876
0.00116848
-0.00312596
0.00117603
-0.00311489
-0.00310607
0.0011829
3.59688e-05
-0.000280495
0.000125383
-0.00086108
0.000249017
-0.0014276
0.000386983
-0.00193729
0.000522075
-0.00235963
0.000642427
-0.0026829
0.000742103
-0.00291192
0.000820021
-0.00306161
0.000878231
-0.00315055
0.000920268
-0.00319649
0.000949952
-0.00321415
0.00097069
-0.00321447
0.000985189
-0.00320502
0.000995431
-0.00319068
0.00100279
-0.00317446
0.00100819
-0.00315815
0.00101223
-0.00314281
0.00101534
-0.00312906
0.00101774
-0.0031173
-0.00310792
0.00101959
3.70295e-05
-0.000317525
0.00012642
-0.000950471
0.000246462
-0.00154764
0.000376196
-0.00206702
0.000498903
-0.00248233
0.000604215
-0.00278821
0.000687935
-0.00299565
0.000750424
-0.0031241
0.000794632
-0.00319475
0.000824471
-0.00322633
0.000843747
-0.00323342
0.000855629
-0.00322635
0.000862493
-0.00321188
0.000866001
-0.00319419
0.000867256
-0.00317571
0.000866975
-0.00315787
0.000865626
-0.00314146
0.00086352
-0.00312696
0.000860848
-0.00311463
-0.00310476
0.000857695
3.76541e-05
-0.000355179
0.000125849
-0.00103867
0.000240734
-0.00166252
0.000360792
-0.00218708
0.000470222
-0.00259176
0.000560331
-0.00287832
0.000628595
-0.00306391
0.000676597
-0.00317211
0.000707946
-0.0032261
0.000726724
-0.00324511
0.000736591
-0.00324329
0.000740415
-0.00323018
0.000740241
-0.00321171
0.000737433
-0.00319138
0.00073286
-0.00317114
0.000727076
-0.00315208
0.00072044
-0.00313482
0.000713188
-0.00311971
0.000705469
-0.00310691
-0.00309664
0.000697344
3.78161e-05
-0.000392995
0.000123666
-0.00112452
0.000231983
-0.00177084
0.000341204
-0.0022963
0.000436798
-0.00268736
0.000511822
-0.00295334
0.000565287
-0.00311737
0.000599772
-0.00320659
0.000619317
-0.00324565
0.000628013
-0.00325381
0.000629284
-0.00324456
0.000625671
-0.00322656
0.000618899
-0.00320494
0.00061007
-0.00318255
0.000599859
-0.00316093
0.000588687
-0.00314091
0.000576828
-0.00312296
0.000564467
-0.00310734
0.000551723
-0.00309417
-0.00308356
0.00053864
3.75006e-05
-0.000430496
0.000119907
-0.00120692
0.000220425
-0.00187136
0.000317927
-0.0023938
0.000399408
-0.00276884
0.000459667
-0.0030136
0.000499078
-0.00315679
0.000520987
-0.0032285
0.000529674
-0.00325433
0.000529112
-0.00325324
0.000522435
-0.00323789
0.000511856
-0.00321598
0.000498806
-0.00319189
0.000484162
-0.0031679
0.00046844
-0.00314521
0.000451955
-0.00312443
0.000434915
-0.00310592
0.000417468
-0.0030899
0.000399711
-0.00307641
-0.00306553
0.000381684
3.67048e-05
-0.000467201
0.000114647
-0.00128487
0.000206326
-0.00196304
0.00029148
-0.00247895
0.000358801
-0.00283616
0.000404761
-0.00305956
0.000430894
-0.00318292
0.000441107
-0.00323871
0.000439759
-0.00325298
0.000430618
-0.0032441
0.000416502
-0.00322377
0.000399307
-0.00319879
0.00038021
-0.00317279
0.000359894
-0.00314759
0.000338746
-0.00312406
0.000316997
-0.00310268
0.000294803
-0.00308373
0.000272283
-0.00306738
0.000249525
-0.00305365
-0.00304257
0.000226568
3.5437e-05
-0.000502638
0.000107989
-0.00135742
0.000189981
-0.00204503
0.000262386
-0.00255136
0.000315684
-0.00288946
0.000347897
-0.00309178
0.000361524
-0.00319654
0.000360841
-0.00323803
0.000350161
-0.0032423
0.000332991
-0.00322693
0.000311828
-0.00320261
0.000288277
-0.00317524
0.000263293
-0.00314781
0.000237402
-0.0031217
0.000210886
-0.00309754
0.000183905
-0.0030757
0.000156576
-0.0030564
0.000128996
-0.0030398
0.000101247
-0.0030259
-0.0030147
7.33759e-05
3.37152e-05
-0.000536353
0.00010006
-0.00142376
0.000171704
-0.00211667
0.000231155
-0.00261081
0.000270702
-0.00292901
0.000289773
-0.00311085
0.000291631
-0.0031984
0.000280766
-0.00322717
0.000261348
-0.00322289
0.000236589
-0.00320217
0.000208674
-0.00317469
0.000178953
-0.00314552
0.000148192
-0.00311705
0.000116789
-0.00309029
8.49419e-05
-0.0030657
5.27542e-05
-0.00304351
2.03047e-05
-0.00302395
-1.23256e-05
-0.00300717
-4.50526e-05
-0.00299317
-0.00298193
-7.78192e-05
3.15661e-05
-0.000567919
9.10014e-05
-0.0014832
0.000151813
-0.00217749
0.000198268
-0.00265726
0.000224438
-0.00295518
0.000230989
-0.0031174
0.000221771
-0.00318918
0.00020135
-0.00320675
0.000173688
-0.00319522
0.000141687
-0.00317017
0.000107243
-0.00314025
7.14797e-05
-0.00310976
3.501e-05
-0.00308058
-1.86686e-06
-0.00305342
-3.90224e-05
-0.00302854
-7.64018e-05
-0.00300613
-0.00011396
-0.00298639
-0.000151631
-0.0029695
-0.000189324
-0.00295548
-0.00294429
-0.000226964
2.90236e-05
-0.000596942
8.09662e-05
-0.00153514
0.00013062
-0.00222714
0.000164175
-0.00269082
0.000177411
-0.00296841
0.000172063
-0.00311205
0.000152406
-0.00316953
0.000122977
-0.00317732
8.74794e-05
-0.00315973
4.85096e-05
-0.0031312
7.69587e-06
-0.00309944
-3.40271e-05
-0.00306803
-7.61691e-05
-0.00303843
-0.000118507
-0.00301108
-0.000160964
-0.00298608
-0.00020353
-0.00296356
-0.000246194
-0.00294373
-0.000288904
-0.00292679
-0.000331558
-0.00291283
-0.0029018
-0.000374054
2.61271e-05
-0.00062307
7.01115e-05
-0.00157912
0.000108427
-0.00226546
0.000129285
-0.00271168
0.000130076
-0.0029692
0.000113438
-0.00309541
8.39265e-05
-0.00314002
4.59636e-05
-0.00313935
2.97105e-06
-0.00311673
-4.27552e-05
-0.00308548
-8.98251e-05
-0.00305237
-0.000137463
-0.00302039
-0.000185272
-0.00299062
-0.000233082
-0.00296327
-0.000280855
-0.00293831
-0.000328619
-0.0029158
-0.0003764
-0.00289594
-0.000424167
-0.00287902
-0.000471804
-0.00286519
-0.00285443
-0.00051917
2.29204e-05
-0.00064599
5.85955e-05
-0.0016148
8.55182e-05
-0.00229238
9.39725e-05
-0.00272013
8.28363e-05
-0.00295807
5.54954e-05
-0.00306807
1.66619e-05
-0.00310118
-2.94179e-05
-0.00309327
-7.96209e-05
-0.00306653
-0.000131936
-0.00303316
-0.000185184
-0.00299912
-0.000238722
-0.00296686
-0.000292222
-0.00293712
-0.000345544
-0.00290995
-0.000398674
-0.00288518
-0.000451672
-0.0028628
-0.000504606
-0.00284301
-0.000557478
-0.00282615
-0.00061016
-0.00281251
-0.00280214
-0.000662454
1.94502e-05
-0.00066544
4.65739e-05
-0.00164192
6.21608e-05
-0.00230797
5.85726e-05
-0.00271654
3.60453e-05
-0.00293554
-1.43532e-06
-0.00303059
-4.91003e-05
-0.00305352
-0.000102927
-0.00303945
-0.000160095
-0.00300936
-0.000218859
-0.0029744
-0.000278233
-0.00293974
-0.00033768
-0.00290741
-0.000396922
-0.00287788
-0.000455831
-0.00285104
-0.000514394
-0.00282662
-0.000572691
-0.00280451
-0.00063084
-0.00278486
-0.00068889
-0.0027681
-0.000746712
-0.00275469
-0.00274483
-0.000804014
1.57654e-05
-0.000681206
3.41978e-05
-0.00166036
3.86021e-05
-0.00231237
2.33878e-05
-0.00270133
-9.98551e-06
-0.00290216
-5.70638e-05
-0.00298351
-0.000113104
-0.00299748
-0.000174339
-0.00297821
-0.000238249
-0.00294545
-0.000303339
-0.00290931
-0.000368794
-0.00287429
-0.000434174
-0.00284203
-0.000499237
-0.00281282
-0.000563847
-0.00278643
-0.00062797
-0.00276249
-0.000691682
-0.00274079
-0.000755139
-0.0027214
-0.000818456
-0.00270478
-0.000881516
-0.00269163
-0.00268246
-0.000943892
1.19155e-05
-0.000693121
2.16113e-05
-0.00167005
1.5069e-05
-0.00230583
-1.13118e-05
-0.00267495
-5.49812e-05
-0.0028585
-0.000111133
-0.00292736
-0.000175116
-0.00293349
-0.000243438
-0.00290989
-0.000313871
-0.00287502
-0.000385158
-0.00283802
-0.000456641
-0.00280281
-0.000527975
-0.00277069
-0.000598952
-0.00274184
-0.000669423
-0.00271596
-0.00073931
-0.00269261
-0.000808645
-0.00267146
-0.000877592
-0.00265246
-0.000946342
-0.00263603
-0.00101481
-0.00262316
-0.00261481
-0.00108246
7.94983e-06
-0.000701071
8.95025e-06
-0.00167105
-8.23236e-06
-0.00228864
-4.52863e-05
-0.00263789
-9.86993e-05
-0.00280508
-0.000163413
-0.00286265
-0.000234918
-0.00286199
-0.000310008
-0.0028348
-0.000386735
-0.00279829
-0.000464063
-0.00276069
-0.000541489
-0.00272538
-0.000618767
-0.00269342
-0.000695739
-0.00266487
-0.000772259
-0.00263944
-0.000848195
-0.00261667
-0.000923508
-0.00259615
-0.000998336
-0.00257763
-0.00107296
-0.00256141
-0.00114736
-0.00254875
-0.00254098
-0.00122119
3.91635e-06
-0.000704987
-3.65987e-06
-0.00166348
-3.11175e-05
-0.00226119
-7.83252e-05
-0.00259069
-0.000140928
-0.00274248
-0.0002137
-0.00278988
-0.000292308
-0.00278338
-0.000373833
-0.00275327
-0.000456596
-0.00271553
-0.000539765
-0.00267752
-0.000622992
-0.00264215
-0.000706144
-0.00261026
-0.000789147
-0.00258187
-0.000871896
-0.00255669
-0.000954244
-0.00253432
-0.00103608
-0.00251431
-0.00111749
-0.00249622
-0.00119885
-0.00248004
-0.0012804
-0.00246721
-0.00245869
-0.00136269
-1.39309e-07
-0.000704848
-1.61053e-05
-0.00164751
-5.34248e-05
-0.00222387
-0.000110248
-0.00253386
-0.000181487
-0.00267124
-0.000261814
-0.00270955
-0.000347099
-0.00269809
-0.0004347
-0.00266567
-0.000523187
-0.00262704
-0.000611923
-0.00258879
-0.000700708
-0.00255337
-0.000789546
-0.00252142
-0.000878503
-0.00249291
-0.000967606
-0.00246758
-0.0010568
-0.00244513
-0.00114598
-0.00242514
-0.00123513
-0.00240706
-0.00132461
-0.00239056
-0.00141498
-0.00237684
-0.00236473
-0.00150893
-4.17506e-06
-0.000700673
-2.82861e-05
-0.0016234
-7.50172e-05
-0.00217714
-0.000140906
-0.00246797
-0.00022023
-0.00259192
-0.000307613
-0.00262217
-0.000399136
-0.00260657
-0.000492418
-0.00257239
-0.000586247
-0.00253321
-0.000680153
-0.00249488
-0.000774067
-0.00245945
-0.000868132
-0.00242736
-0.000962591
-0.00239845
-0.00105773
-0.00237245
-0.00115382
-0.00234903
-0.00125107
-0.00232789
-0.00134958
-0.00230855
-0.00144992
-0.00229022
-0.0015543
-0.00227247
-0.00226649
-0.00165254
-8.1413e-06
-0.000692532
-4.00973e-05
-0.00159144
-9.57605e-05
-0.00212147
-0.000170163