/*--------------------------------*- C++ -*----------------------------------*\
  =========                 |
  \\      /  F ield         | OpenFOAM: The Open Source CFD Toolbox
   \\    /   O peration     | Website:  https://openfoam.org
    \\  /    A nd           | Version:  6.0
     \\/     M anipulation  |
\*---------------------------------------------------------------------------*/
FoamFile
{
    version     2.0;
    format      ascii;
    class       volVectorField;
    location    "48";
    object      U;
}
// * * * * * * * * * * * * * * * * * * * * * * * * * * * * * * * * * * * * * //

dimensions      [0 1 -1 0 0 0 0];

internalField   nonuniform List<vector> 
8000
(
(-0.000392616 -0.000490668 -3.20648e-21)
(-0.00222579 -0.00125822 1.71373e-20)
(-0.00566123 -0.00190098 -2.08413e-20)
(-0.00989559 -0.00244861 1.58692e-20)
(-0.0145024 -0.00292484 7.72697e-21)
(-0.0192359 -0.00334932 -2.32016e-20)
(-0.02392 -0.00373673 -2.05076e-21)
(-0.0284403 -0.00409754 -7.2798e-22)
(-0.0327339 -0.0044387 -1.20392e-20)
(-0.036776 -0.00476404 -6.52175e-21)
(-0.0405692 -0.0050748 4.86475e-21)
(-0.0441364 -0.00537027 1.84923e-20)
(-0.0475147 -0.00564829 -1.38678e-21)
(-0.0507492 -0.00590582 1.97874e-21)
(-0.0538908 -0.00613945 -1.86187e-20)
(-0.0569987 -0.00634594 1.14706e-20)
(-0.0601327 -0.00652246 -1.64326e-20)
(-0.0632797 -0.00666541 2.48632e-20)
(-0.0663321 -0.00676923 -2.77349e-23)
(-0.0698033 -0.00683984 5.35981e-21)
(-0.000436707 0.000464951 1.06446e-20)
(-0.00235121 0.00113674 -5.43816e-20)
(-0.00586516 0.00151021 -3.75561e-20)
(-0.0101659 0.00164461 -2.55062e-20)
(-0.0148239 0.00158813 -3.28069e-20)
(-0.0195926 0.00138181 7.2287e-21)
(-0.0242961 0.00106407 -3.78688e-20)
(-0.0288206 0.000669985 -8.50382e-21)
(-0.0331039 0.000231376 2.69122e-21)
(-0.0371219 -0.000222879 2.83075e-20)
(-0.0408783 -0.00066664 -3.0868e-20)
(-0.0443969 -0.00107654 4.29329e-20)
(-0.047716 -0.00143218 -3.21448e-20)
(-0.0508821 -0.00171635 -3.81137e-20)
(-0.0539476 -0.00191535 -5.25155e-20)
(-0.0569735 -0.0020196 3.35424e-20)
(-0.0600219 -0.00202362 -1.0836e-20)
(-0.0630809 -0.00192172 -3.9472e-20)
(-0.0660423 -0.00170497 3.73257e-20)
(-0.069425 -0.001401 -2.7668e-20)
(-0.000558234 0.00142835 1.0398e-19)
(-0.00267121 0.00354486 5.38515e-20)
(-0.0063464 0.00493253 6.05588e-20)
(-0.0107662 0.00574249 5.03694e-21)
(-0.0155019 0.00609653 3.34695e-20)
(-0.0203099 0.00609724 4.17914e-20)
(-0.0250175 0.0058365 -7.58963e-20)
(-0.0295139 0.00539515 -4.01983e-20)
(-0.0337398 0.00484376 -5.23294e-20)
(-0.0376732 0.004244 5.58861e-20)
(-0.0413201 0.00364964 -4.26751e-20)
(-0.0447065 0.00310704 -5.48807e-20)
(-0.0478728 0.00265542 -1.99693e-20)
(-0.0508685 0.00232689 1.89817e-20)
(-0.0537488 0.00214627 -5.27252e-21)
(-0.0565784 0.00213029 7.6187e-21)
(-0.0594237 0.00228787 8.80412e-20)
(-0.0622759 0.00262741 -1.23734e-20)
(-0.0650258 0.00316206 -8.94646e-20)
(-0.0682011 0.00384202 1.17796e-19)
(-0.000758387 0.00239515 3.61372e-20)
(-0.00318751 0.00595306 -5.11102e-20)
(-0.0071057 0.00834463 -1.28207e-20)
(-0.0116956 0.00981592 2.3936e-20)
(-0.0165336 0.0105639 6.80095e-20)
(-0.0213834 0.0107533 1.48923e-19)
(-0.0260785 0.0105296 1.45506e-19)
(-0.0305141 0.0100191 1.20734e-20)
(-0.0346352 0.00933099 8.92148e-20)
(-0.038424 0.00855957 1.3654e-19)
(-0.0418896 0.0077864 -1.09103e-19)
(-0.0450613 0.00708137 1.61452e-19)
(-0.0479827 0.00650343 -3.65148e-20)
(-0.050707 0.00610084 9.23173e-21)
(-0.0532939 0.005911 3.81524e-20)
(-0.0558134 0.00595937 5.06796e-20)
(-0.0583384 0.0062597 -7.97617e-20)
(-0.0608654 0.0068245 -6.6536e-20)
(-0.0632844 0.0076727 -1.17729e-19)
(-0.0661352 0.00873186 1.71246e-19)
(-0.00103814 0.00336078 -1.88847e-20)
(-0.00390083 0.00834775 -1.93301e-19)
(-0.00814181 0.0117247 -5.71788e-20)
(-0.0129499 0.0138358 -1.39346e-19)
(-0.0179121 0.0149546 5.26535e-20)
(-0.0228035 0.0153084 -8.30729e-20)
(-0.0274678 0.0150958 2.85387e-20)
(-0.0318085 0.014488 -1.75918e-19)
(-0.0357775 0.013632 9.2782e-20)
(-0.0393622 0.0126544 -1.10663e-19)
(-0.0425759 0.0116646 -9.8409e-20)
(-0.0454519 0.0107565 -1.10144e-19)
(-0.0480377 0.01001 9.99806e-20)
(-0.0503912 0.00949118 -8.97219e-20)
(-0.0525777 0.00925225 1.24953e-19)
(-0.054674 0.00932978 3.60984e-20)
(-0.0567618 0.00974474 8.93252e-20)
(-0.0588453 0.010516 3.91859e-20)
(-0.0608147 0.0116709 -1.55152e-19)
(-0.0632262 0.0131142 2.52586e-19)
(-0.00139814 0.00432043 8.31557e-20)
(-0.00481039 0.0107147 6.42917e-21)
(-0.00945042 0.0150503 3.42711e-20)
(-0.0145204 0.0177731 1.19621e-19)
(-0.0196241 0.0192344 -1.83423e-20)
(-0.024553 0.0197239 1.94248e-19)
(-0.0291648 0.0194924 8.61871e-20)
(-0.0333746 0.0187548 7.24185e-21)
(-0.0371431 0.0176947 2.21636e-19)
(-0.0404642 0.0164702 7.26045e-20)
(-0.0433564 0.0152179 3.44305e-20)
(-0.0458572 0.0140564 1.0931e-19)
(-0.0480187 0.0130876 1.00171e-19)
(-0.0499035 0.0123977 1.82828e-19)
(-0.0515835 0.0120564 -1.63409e-19)
(-0.0531439 0.012115 2.3089e-19)
(-0.0546774 0.0126051 2.95686e-21)
(-0.0561987 0.0135557 -2.94979e-19)
(-0.0575997 0.0150066 3.8225e-19)
(-0.0594593 0.0168399 1.58545e-19)
(-0.00183851 0.00526881 -4.90046e-20)
(-0.0059133 0.0130385 -8.89266e-20)
(-0.0110231 0.0182983 -1.85163e-19)
(-0.016392 0.0215989 -5.49387e-21)
(-0.0216477 0.0233706 3.15761e-20)
(-0.0266035 0.0239646 -2.36486e-19)
(-0.0311359 0.0236827 -1.75442e-19)
(-0.0351745 0.0227815 -2.51041e-20)
(-0.0386912 0.0214792 -2.21893e-19)
(-0.0416878 0.0199637 -1.53604e-19)
(-0.0441887 0.0183981 -4.4765e-20)
(-0.0462357 0.0169252 -1.44111e-19)
(-0.0478849 0.0156702 -2.35599e-21)
(-0.0492043 0.0147416 -1.91308e-19)
(-0.0502723 0.0142304 8.04588e-20)
(-0.0511838 0.0142069 -9.17971e-20)
(-0.0520447 0.0147187 7.02506e-20)
(-0.0528831 0.0158103 -8.94921e-20)
(-0.0535958 0.0175403 -2.55415e-19)
(-0.0547921 0.0197695 -7.76376e-20)
(-0.00235859 0.00619988 -1.79997e-20)
(-0.00720369 0.0153022 -1.95609e-20)
(-0.0128455 0.0214438 1.55212e-19)
(-0.0185409 0.0252836 -2.52554e-19)
(-0.0239491 0.0273313 3.70511e-20)
(-0.0289118 0.0279988 -1.45887e-19)
(-0.033329 0.0276367 6.89652e-20)
(-0.0371488 0.0265403 3.09898e-19)
(-0.0403565 0.02496 -1.98902e-20)
(-0.0429634 0.0231106 -2.31132e-19)
(-0.0450002 0.0211797 4.20252e-20)
(-0.0465129 0.0193338 8.14866e-21)
(-0.0475615 0.0177214 -4.73951e-20)
(-0.0482182 0.0164756 4.84666e-21)
(-0.0485679 0.0157126 4.16551e-19)
(-0.0487157 0.0155274 -5.93507e-20)
(-0.0487828 0.0159904 -1.15633e-19)
(-0.048814 0.0171698 -2.07315e-19)
(-0.0487145 0.0191522 2.11507e-19)
(-0.0491356 0.0217812 9.13495e-20)
(-0.00295656 0.00710639 9.10259e-20)
(-0.00867173 0.0174865 -1.19066e-19)
(-0.0148963 0.0244595 1.68367e-19)
(-0.0209323 0.028796 1.69527e-19)
(-0.0264797 0.031085 1.56302e-19)
(-0.0314154 0.0317978 3.16987e-19)
(-0.0356684 0.0313306 2.04979e-19)
(-0.0392092 0.0300144 -4.40446e-19)
(-0.0420396 0.0281277 2.25231e-19)
(-0.0441821 0.0259086 1.76706e-19)
(-0.0456743 0.0235662 -2.4967e-21)
(-0.0465666 0.0212879 1.97726e-19)
(-0.0469216 0.0192454 1.54099e-19)
(-0.0468147 0.0175971 -8.38603e-20)
(-0.0463364 0.0164882 2.8317e-19)
(-0.0456015 0.0160447 -3.51023e-19)
(-0.044748 0.0163687 1.40434e-19)
(-0.0438405 0.0175634 1.80536e-19)
(-0.0427978 0.0197575 -4.20874e-20)
(-0.0423287 0.0227843 3.63343e-19)
(-0.00362895 0.00797953 1.82754e-19)
(-0.0103025 0.0195687 9.49698e-21)
(-0.017145 0.0273148 -6.56325e-20)
(-0.0235182 0.0321021 -6.93671e-20)
(-0.0291726 0.0345991 -3.21236e-19)
(-0.0340279 0.035334 4.54788e-20)
(-0.0380481 0.0347458 1.28887e-19)
(-0.0412306 0.0331969 -6.19815e-20)
(-0.043597 0.0309892 5.11262e-20)
(-0.0451832 0.0283796 -1.35761e-20)
(-0.0460349 0.0255936 -6.67746e-20)
(-0.0462069 0.0228359 6.33781e-20)
(-0.045764 0.0202981 -2.75475e-19)
(-0.0447832 0.0181636 2.64067e-19)
(-0.0433585 0.0166086 -2.28639e-19)
(-0.0416134 0.0157965 7.06466e-20)
(-0.0397029 0.015871 1.60592e-19)
(-0.0377141 0.0169853 -3.34855e-20)
(-0.0355849 0.0193307 -1.11083e-19)
(-0.0341029 0.0227428 -7.56814e-20)
(-0.00437018 0.00880857 -2.27634e-19)
(-0.012075 0.0215224 -1.50497e-20)
(-0.0195507 0.0299742 4.79599e-20)
(-0.0262351 0.0351636 1.23402e-19)
(-0.0319401 0.0378374 -1.74207e-19)
(-0.0366357 0.0385787 -1.52041e-19)
(-0.040327 0.0378657 3.54869e-19)
(-0.0430434 0.0360879 -1.96096e-19)
(-0.0448301 0.0335656 -1.26485e-19)
(-0.0457396 0.0305685 -1.81446e-19)
(-0.0458277 0.0273327 1.20096e-19)
(-0.0451546 0.0240738 -3.29208e-21)
(-0.043787 0.0209979 -2.24224e-19)
(-0.041802 0.0183094 -3.66608e-19)
(-0.0392951 0.0162152 2.79275e-19)
(-0.0363963 0.0149196 -2.26138e-19)
(-0.0332767 0.0146183 3.20593e-19)
(-0.0300469 0.0155324 -8.98779e-20)
(-0.026669 0.0179434 1.88522e-19)
(-0.0240377 0.0217114 -6.41805e-19)
(-0.00517208 0.00958082 -4.60971e-19)
(-0.0139609 0.023317 3.02408e-19)
(-0.0220609 0.0323974 4.11314e-20)
(-0.029003 0.0379367 7.96139e-21)
(-0.0346714 0.0407585 -1.86634e-19)
(-0.0390942 0.0414988 2.74466e-19)
(-0.0423236 0.0406717 2.99454e-20)
(-0.0444265 0.0386898 -5.62712e-20)
(-0.0454761 0.0358865 -1.80632e-19)
(-0.045545 0.0325387 1.95232e-19)
(-0.0447027 0.0288856 4.9483e-19)
(-0.0430169 0.0251459 -1.09324e-19)
(-0.0405576 0.0215315 2.46904e-19)
(-0.0374022 0.0182602 -2.91537e-19)
(-0.0336457 0.0155634 -2.79405e-19)
(-0.0294218 0.0136853 1.68036e-19)
(-0.0249155 0.01288 2.77384e-19)
(-0.0202599 0.0134555 -8.98542e-19)
(-0.0154435 0.0158195 1.05637e-19)
(-0.0115034 0.01989 1.43674e-19)
(-0.00602356 0.0102819 3.41344e-19)
(-0.0159246 0.0249179 1.12398e-19)
(-0.0246106 0.0345385 5.85637e-19)
(-0.031724 0.0403705 3.01725e-20)
(-0.0372314 0.043313 -6.51461e-20)
(-0.0412261 0.044053 -3.10302e-19)
(-0.0438137 0.0431377 2.63878e-19)
(-0.0451031 0.0409996 4.73451e-19)
(-0.0452004 0.0379813 3.15348e-19)
(-0.0442028 0.0343612 2.2766e-19)
(-0.042198 0.0303752 1.96198e-19)
(-0.0392659 0.026236 -3.5224e-19)
(-0.0354835 0.0221506 -1.10268e-19)
(-0.0309311 0.0183372 -8.11754e-20)
(-0.0257035 0.0150394 8.69814e-19)
(-0.0199366 0.0125316 -3.106e-21)
(-0.0138263 0.0111236 -2.16557e-19)
(-0.00752409 0.0112241 -6.79739e-20)
(-0.00104111 0.0134082 6.20964e-19)
(0.00440301 0.0177 8.11201e-20)
(-0.00691061 0.0108961 -1.67666e-20)
(-0.0179223 0.0262879 -3.23181e-19)
(-0.0271228 0.0363467 -4.81036e-19)
(-0.0342827 0.0424074 -1.33933e-19)
(-0.0394609 0.0454425 7.39729e-20)
(-0.0428219 0.0461885 1.59283e-20)
(-0.0445295 0.0452243 4.22341e-19)
(-0.0447392 0.0430003 -5.23779e-19)
(-0.043594 0.0398661 -1.99229e-19)
(-0.041221 0.0360987 -4.01404e-19)
(-0.0377315 0.0319256 -3.4177e-19)
(-0.0332245 0.027546 -3.02527e-19)
(-0.027791 0.0231506 7.56366e-20)
(-0.0215209 0.0189426 -9.81409e-20)
(-0.0145146 0.0151579 4.20243e-19)
(-0.00691198 0.0120799 -2.30448e-19)
(0.001081 0.0100561 -7.21474e-19)
(0.00930035 0.00959305 -1.45171e-19)
(0.0177284 0.0114716 3.55666e-19)
(0.0249249 0.015882 -3.10765e-19)
(-0.00781653 0.011408 -5.44608e-20)
(-0.0199032 0.0273883 3.95544e-19)
(-0.0295085 0.0377681 -5.0461e-19)
(-0.0365468 0.0439839 1.16593e-19)
(-0.0411772 0.0470794 -2.40352e-19)
(-0.0436404 0.0478397 5.35482e-19)
(-0.0441617 0.0468749 -3.82677e-19)
(-0.0429461 0.0446532 4.37739e-19)
(-0.040177 0.0415317 -4.15093e-19)
(-0.0360153 0.0377862 1.76998e-19)
(-0.0306026 0.033635 -8.59412e-20)
(-0.0240649 0.0292604 -2.15616e-19)
(-0.0165185 0.0248292 -2.66228e-19)
(-0.00807549 0.0205153 2.65197e-19)
(0.00114589 0.0165241 -2.21969e-19)
(0.0109912 0.0131153 -4.84927e-19)
(0.0212378 0.0106348 5.04727e-19)
(0.031713 0.00965482 -6.4333e-19)
(0.0424248 0.0111767 2.89268e-19)
(0.0516968 0.0156149 8.20743e-21)
(-0.00872244 0.0118029 -4.94505e-19)
(-0.0218096 0.0281816 -5.34254e-19)
(-0.0316676 0.0387485 6.15273e-20)
(-0.0383675 0.0450338 -5.1559e-19)
(-0.0421753 0.04815 -4.60066e-20)
(-0.0434107 0.0489302 -3.79275e-19)
(-0.0423623 0.0480159 -8.70285e-20)
(-0.0392857 0.0458948 -2.54328e-19)
(-0.0344057 0.0429346 2.16596e-21)
(-0.0279204 0.0394141 -1.11277e-19)
(-0.0200065 0.035547 7.79615e-21)
(-0.0108262 0.0315027 -3.20272e-19)
(-0.000534175 0.0274249 3.52678e-19)
(0.0107173 0.0234522 -5.00302e-19)
(0.0227698 0.0197424 1.77067e-19)
(0.0354314 0.0164973 6.61007e-21)
(0.0484407 0.0140035 -2.81663e-19)
(0.061605 0.0128238 6.97976e-19)
(0.0750064 0.0141385 -1.66637e-19)
(0.0867753 0.0186061 -1.08742e-19)
(-0.00960801 0.0120684 5.5543e-19)
(-0.023578 0.0286343 3.0003e-19)
(-0.033489 0.0392372 2.79157e-19)
(-0.0395798 0.0454933 4.16764e-20)
(-0.0422277 0.0485806 3.7765e-19)
(-0.0418331 0.0493795 5.44355e-19)
(-0.0387477 0.0485636 4.45832e-19)
(-0.0332762 0.0466424 3.97702e-20)
(-0.0256846 0.0439993 3.26315e-19)
(-0.0162081 0.040923 5.04144e-19)
(-0.00506172 0.0376329 -1.30763e-19)
(0.00754892 0.0342975 2.19366e-19)
(0.0214181 0.0310501 1.77146e-19)
(0.0363327 0.0280044 1.80122e-19)
(0.0520651 0.025272 1.06363e-18)
(0.0683484 0.022979 -3.98574e-19)
(0.0848379 0.0212961 -2.42855e-20)
(0.101273 0.0206594 4.61421e-19)
(0.117851 0.0222966 -2.61554e-19)
(0.132671 0.0270465 1.30089e-19)
(-0.010452 0.0121956 -4.49515e-19)
(-0.025139 0.0287189 2.89843e-20)
(-0.0348502 0.0391917 -3.60262e-19)
(-0.0400005 0.0453077 -4.6905e-20)
(-0.0410827 0.0483071 2.63791e-19)
(-0.0385778 0.0491159 -7.85041e-19)
(-0.0328986 0.0484397 -4.29894e-22)
(-0.0243967 0.046812 3.65226e-19)
(-0.0133761 0.0446362 3.43159e-19)
(-0.000107456 0.0422199 -1.51037e-19)
(0.0151555 0.0398004 4.97449e-20)
(0.0321606 0.0375633 1.15442e-19)
(0.0506415 0.0356559 -5.47001e-20)
(0.0703055 0.034197 -6.12103e-19)
(0.0908237 0.0332858 1.54996e-19)
(0.111805 0.0329997 4.25796e-19)
(0.132748 0.0333841 -6.06536e-19)
(0.153219 0.0346437 2.95785e-19)
(0.173506 0.0378701 7.93242e-20)
(0.19204 0.0438989 4.03993e-19)
(-0.0112326 0.012179 -6.66104e-20)
(-0.0264171 0.0284167 -3.15355e-19)
(-0.0356146 0.0385825 1.45033e-19)
(-0.039425 0.04444 5.56014e-22)
(-0.0384596 0.0472871 -6.32683e-19)
(-0.0332796 0.0480932 9.86875e-20)
(-0.0243568 0.0475939 -1.87246e-20)
(-0.0120865 0.0463468 1.27694e-19)
(0.00319259 0.0447778 -5.84391e-19)
(0.0211772 0.0432186 -4.08214e-20)
(0.0415778 0.0419349 -1.37044e-19)
(0.064097 0.0411471 1.22117e-19)
(0.0884075 0.0410454 4.11494e-19)
(0.11413 0.0418012 -6.36487e-20)
(0.140811 0.0435741 2.45788e-20)
(0.167879 0.0464991 1.61777e-19)
(0.194557 0.0506335 -3.98928e-20)
(0.220002 0.0560902 3.2581e-19)
(0.244308 0.063929 -1.89227e-19)
(0.266626 0.0745917 -2.99698e-19)
(-0.0119266 0.0120169 6.16422e-20)
(-0.0273283 0.0277185 1.49034e-20)
(-0.0356285 0.0373972 1.26539e-19)
(-0.0376219 0.0428785 3.09959e-19)
(-0.0340423 0.0455134 1.73905e-19)
(-0.0255314 0.0463104 1.81572e-20)
(-0.0126194 0.0460311 -2.07668e-19)
(0.00425594 0.0452536 5.32388e-20)
(0.0247219 0.0444237 2.79779e-19)
(0.0484437 0.0438955 -4.74033e-19)
(0.0750993 0.0439625 3.57567e-19)
(0.104356 0.0448836 -2.69286e-19)
(0.135845 0.0469043 2.28356e-19)
(0.169143 0.0502795 -4.92295e-19)
(0.203734 0.0552977 5.41258e-19)
(0.238951 0.0622935 -5.78837e-19)
(0.273829 0.0716366 -1.50433e-19)
(0.307041 0.083975 4.72676e-19)
(0.337514 0.101231 -1.59477e-19)
(0.362612 0.122936 7.23865e-20)
(-0.0125085 0.0117102 -4.67624e-20)
(-0.0277773 0.0266253 4.41018e-19)
(-0.0347156 0.0356433 -1.8869e-21)
(-0.0343266 0.0406442 -2.73707e-19)
(-0.0274722 0.0430254 -1.84156e-19)
(-0.0148781 0.0438289 3.37259e-19)
(0.00286429 0.0438362 -1.33589e-19)
(0.025269 0.0436381 -1.68419e-20)
(0.0519209 0.0436907 2.78106e-19)
(0.0824438 0.0443569 -3.45555e-19)
(0.116474 0.0459397 3.77935e-20)
(0.153639 0.0487088 -4.48757e-19)
(0.193549 0.052927 2.3617e-19)
(0.23579 0.0588799 -6.75695e-19)
(0.279934 0.0669167 1.07638e-18)
(0.325551 0.0775034 -1.96973e-19)
(0.372246 0.0913496 2.06513e-19)
(0.41998 0.109973 -5.36225e-19)
(0.469305 0.13632 2.0019e-21)
(0.512876 0.165244 6.21125e-19)
(-0.0129483 0.0112612 -1.41867e-19)
(-0.0276531 0.0251469 1.22635e-19)
(-0.0326724 0.0333498 -4.50934e-19)
(-0.0292363 0.0377944 6.66838e-19)
(-0.0183443 0.0399167 -4.81372e-19)
(-0.000814139 0.0407854 2.4781e-20)
(0.0226898 0.0411928 -5.18762e-19)
(0.0516161 0.0417316 3.70807e-19)
(0.0854822 0.0428529 -5.30354e-20)
(0.123836 0.0449066 -3.26981e-19)
(0.166231 0.0481724 -1.90621e-19)
(0.212207 0.0528819 2.01437e-19)
(0.26129 0.0592386 1.33155e-19)
(0.313005 0.0674346 -5.89514e-19)
(0.366904 0.0776685 2.1278e-19)
(0.42261 0.0901565 -3.14156e-19)
(0.479885 0.105157 3.78858e-20)
(0.53888 0.123189 -2.68731e-19)
(0.600559 0.1454 1.13436e-19)
(0.6577 0.166998 -4.07987e-19)
(-0.0132087 0.0106727 4.03779e-19)
(-0.0268249 0.0233017 -2.44297e-19)
(-0.0292641 0.0305677 2.01304e-19)
(-0.0220078 0.0344248 -2.54118e-19)
(-0.00620841 0.036338 4.26166e-19)
(0.0172084 0.0373941 -7.58081e-21)
(0.0474816 0.0383856 -5.18524e-20)
(0.08396 0.0398933 -3.84275e-20)
(0.126047 0.0423446 2.36428e-19)
(0.173156 0.0460521 4.0175e-19)
(0.224684 0.0512397 -2.37337e-19)
(0.279999 0.0580616 2.30562e-19)
(0.338446 0.0666145 4.21094e-19)
(0.399367 0.0769466 -2.95328e-19)
(0.462136 0.0890609 -6.00662e-19)
(0.5262 0.102909 1.09927e-18)
(0.59112 0.11837 -1.96224e-19)
(0.656664 0.135307 -6.42327e-20)
(0.723163 0.154078 6.97494e-19)
(0.785121 0.173149 -1.45485e-19)
(-0.0132432 0.00994717 -6.58037e-19)
(-0.0251393 0.0211158 -4.38039e-19)
(-0.0242238 0.0273688 -1.68156e-19)
(-0.0122614 0.030668 3.24265e-19)
(0.0094198 0.0324939 -7.31692e-19)
(0.0397581 0.0339405 3.78667e-19)
(0.0778556 0.0357866 4.79572e-20)
(0.122906 0.0385829 4.83825e-20)
(0.174127 0.0427102 -4.95458e-19)
(0.230716 0.048415 -1.74923e-19)
(0.291822 0.055833 -3.08154e-19)
(0.356544 0.0650063 2.97503e-19)
(0.423953 0.0758947 8.44788e-20)
(0.493117 0.0883846 1.64942e-20)
(0.563146 0.102293 3.88779e-19)
(0.633233 0.117367 -3.93407e-19)
(0.702682 0.133265 -1.65356e-20)
(0.770935 0.149581 9.24231e-21)
(0.837759 0.166211 5.31131e-20)
(0.899872 0.184281 3.1158e-19)
(-0.0129939 0.00908736 2.09643e-19)
(-0.0224191 0.0186238 5.39977e-19)
(-0.0172559 0.023846 4.33343e-19)
(0.000408808 0.0266914 -1.49261e-19)
(0.0290371 0.0286372 5.18731e-19)
(0.0673864 0.0307687 -4.36599e-20)
(0.11436 0.0338313 -6.15359e-20)
(0.168916 0.0383202 3.66104e-20)
(0.229994 0.0445386 5.00627e-19)
(0.296471 0.0526309 2.93959e-19)
(0.367148 0.0626075 8.57843e-20)
(0.440773 0.0743643 5.25113e-21)
(0.516074 0.0877005 -5.69529e-19)
(0.591814 0.102335 4.94737e-19)
(0.666841 0.11792 8.51849e-20)
(0.740134 0.134053 -1.39827e-19)
(0.810832 0.150281 -6.09936e-19)
(0.87825 0.166127 -5.2459e-20)
(0.941885 0.181161 2.42482e-19)
(1.00058 0.198299 -5.03352e-20)
(-0.0123916 0.00809726 -5.32808e-19)
(-0.0184654 0.0158705 2.22901e-19)
(-0.00804322 0.0201142 -1.08748e-18)
(0.0164181 0.0226954 4.45021e-19)
(0.0531218 0.0250613 -3.54798e-19)
(0.100578 0.0282656 2.61539e-19)
(0.157402 0.0329908 -4.05894e-19)
(0.222211 0.0396405 3.72882e-20)
(0.293553 0.0483977 -2.08469e-20)
(0.369876 0.0592603 1.08922e-19)
(0.449547 0.072071 1.57335e-19)
(0.530906 0.0865469 -2.97429e-19)
(0.612333 0.10231 1.57356e-19)
(0.692323 0.118917 1.44682e-19)
(0.769552 0.135887 6.26619e-19)
(0.842921 0.152728 -2.7175e-19)
(0.91158 0.16895 -1.81814e-19)
(0.974936 0.184116 3.06303e-19)
(1.03254 0.19766 1.65229e-19)
(1.0847 0.213391 -3.08332e-19)
(-0.0113558 0.00698447 4.67283e-19)
(-0.0130613 0.0129152 4.50584e-19)
(0.00374109 0.0163124 1.2971e-19)
(0.0361683 0.0189122 5.46557e-19)
(0.0820956 0.0220941 2.6822e-19)
(0.139692 0.0268458 -4.83275e-19)
(0.207171 0.0337443 7.31572e-19)
(0.282681 0.0430513 -3.5991e-19)
(0.364253 0.0547757 3.5898e-19)
(0.449814 0.0687161 4.64293e-19)
(0.537247 0.0845055 -2.65252e-19)
(0.624492 0.101658 5.03621e-20)
(0.709649 0.119617 2.81079e-19)
(0.791071 0.137801 1.98206e-19)
(0.86743 0.155645 4.57424e-19)
(0.937747 0.17263 -1.8247e-19)
(1.00139 0.188304 -2.20291e-20)
(1.05808 0.202329 2.90748e-19)
(1.10767 0.214193 -6.22332e-20)
(1.15136 0.227887 4.39994e-22)
(-0.00979707 0.00576286 -2.41354e-19)
(-0.0059802 0.00983602 -8.86969e-19)
(0.0184181 0.012608 2.08719e-19)
(0.0600208 0.0156061 -1.58825e-19)
(0.116283 0.0200911 -3.66252e-19)
(0.18491 0.0269348 -2.61027e-19)
(0.263572 0.0365501 -1.61174e-19)
(0.349812 0.0489918 3.91598e-19)
(0.441036 0.0640299 -2.32488e-19)
(0.534595 0.0812115 -2.37779e-19)
(0.627906 0.0999276 -3.00905e-19)
(0.718601 0.119484 -4.97011e-20)
(0.804657 0.139171 -3.35139e-20)
(0.884486 0.158319 -6.96513e-19)
(0.956978 0.176346 3.38364e-19)
(1.02149 0.192783 -4.44866e-19)
(1.07782 0.207286 1.40563e-19)
(1.1261 0.219658 -1.06979e-18)
(1.16669 0.229582 3.22217e-19)
(1.2012 0.240752 4.10295e-19)
(-0.00761991 0.00445546 -6.05239e-20)
(0.0030052 0.00673495 4.33408e-19)
(0.0362849 0.00919987 2.77346e-20)
(0.0882672 0.013073 6.67724e-20)
(0.155867 0.0194276 -1.3572e-19)
(0.23618 0.0289519 -2.1312e-21)
(0.326176 0.041818 -3.36747e-21)
(0.422661 0.0577953 -8.15369e-20)
(0.522355 0.0763497 2.89301e-19)
(0.62205 0.0967343 1.11923e-19)
(0.718805 0.118089 5.07518e-19)
(0.810131 0.13954 -1.38557e-19)
(0.894115 0.160279 9.67216e-20)
(0.969476 0.179628 -1.26952e-20)
(1.03555 0.19707 2.68022e-19)
(1.09221 0.212263 1.64378e-19)
(1.1398 0.22503 3.97156e-19)
(1.17896 0.235343 -6.42089e-19)
(1.21052 0.243136 8.09288e-19)
(1.23627 0.251578 -2.56783e-19)
(-0.00472669 0.00309693 -5.65952e-19)
(0.0141112 0.00374201 -1.76277e-19)
(0.0575942 0.00632097 1.38029e-19)
(0.1211 0.0116373 8.6956e-20)
(0.200858 0.0204882 8.87091e-20)
(0.293183 0.0332896 9.00785e-20)
(0.394194 0.0498795 -2.25098e-19)
(0.499875 0.0696595 -9.30383e-20)
(0.606264 0.0917348 2.89076e-20)
(0.709712 0.115049 -2.75296e-19)
(0.807132 0.13852 -1.24457e-19)
(0.896176 0.161157 7.52824e-19)
(0.975316 0.182144 -1.94105e-19)
(1.04382 0.200885 -2.68016e-19)
(1.10164 0.217017 -1.27538e-19)
(1.14929 0.230385 8.8138e-20)
(1.18767 0.241015 1.07945e-19)
(1.21789 0.249056 -5.17679e-19)
(1.24115 0.254677 7.501e-19)
(1.25927 0.260471 -6.50772e-19)
(-0.00102185 0.00173539 -6.43826e-20)
(0.0275303 0.00101764 1.84904e-20)
(0.0825334 0.00423788 -2.328e-20)
(0.158582 0.0116458 3.41527e-19)
(0.251054 0.0236516 1.8583e-20)
(0.355308 0.0402899 1.25188e-19)
(0.466494 0.0609617 -2.59733e-19)
(0.579758 0.084625 -9.43839e-21)
(0.690567 0.109996 3.60389e-19)
(0.795058 0.135733 5.01728e-20)
(0.890287 0.160602 -3.13848e-19)
(0.974354 0.183597 -2.74557e-20)
(1.04638 0.203999 -2.57985e-19)
(1.10635 0.221393 2.56824e-19)
(1.15494 0.235632 3.57181e-19)
(1.1933 0.246787 -3.93995e-20)
(1.2228 0.255087 -4.81575e-20)
(1.24491 0.260841 1.46712e-19)
(1.26107 0.264398 -4.72567e-19)
(1.27303 0.267829 4.15929e-19)
(0.00358337 0.000433343 6.42554e-20)
(0.0434183 -0.00124737 -4.15596e-19)
(0.111203 0.00324647 1.11315e-19)
(0.200624 0.0134561 -3.44252e-19)
(0.306025 0.0292711 1.18263e-19)
(0.42166 0.0502197 -4.38994e-19)
(0.541652 0.0751651 1.76887e-19)
(0.660395 0.102571 -5.62006e-20)
(0.773017 0.130778 -2.23216e-21)
(0.875755 0.158234 5.74767e-20)
(0.966148 0.183663 -2.0969e-19)
(1.04303 0.206165 -2.99213e-19)
(1.10636 0.225226 -6.13597e-20)
(1.15693 0.240682 -2.75381e-20)
(1.19614 0.252644 -6.99525e-20)
(1.22563 0.261408 -2.28051e-20)
(1.24716 0.26738 -6.82884e-20)
(1.26237 0.270988 -5.92587e-20)
(1.27279 0.272697 -1.76543e-19)
(1.28003 0.274145 2.8024e-19)
(0.00916607 -0.000732351 1.55335e-19)
(0.06188 -0.00283467 -1.72383e-19)
(0.143599 0.00366338 3.70701e-19)
(0.246963 0.0174204 -1.59737e-19)
(0.365113 0.0376514 4.26777e-19)
(0.49109 0.0632479 5.88609e-21)
(0.618036 0.0924533 2.13982e-19)
(0.739806 0.12323 -5.70552e-20)
(0.851518 0.15361 2.38702e-19)
(0.949883 0.181949 1.72612e-20)
(1.03325 0.20707 5.6794e-19)
(1.10139 0.228297 -3.92099e-19)
(1.1552 0.245408 5.28452e-20)
(1.19627 0.258532 1.00796e-19)
(1.22656 0.268035 5.27935e-19)
(1.24812 0.274411 -1.8967e-19)
(1.26286 0.278198 -3.76379e-20)
(1.2725 0.279895 -1.9935e-19)
(1.27849 0.280023 -2.09861e-20)
(1.28228 0.279878 9.97903e-20)
(0.0157866 -0.0016715 -7.48721e-20)
(0.0829572 -0.00350401 2.15776e-19)
(0.179594 0.00581351 -2.20243e-19)
(0.297155 0.0238656 8.7249e-20)
(0.42744 0.0490265 -1.03669e-19)
(0.562254 0.07943 3.81027e-19)
(0.693928 0.112657 -5.28333e-20)
(0.816106 0.146217 1.30626e-19)
(0.924301 0.177959 -7.67523e-20)
(1.01607 0.206299 -1.85476e-21)
(1.09081 0.230297 8.77423e-20)
(1.14937 0.249605 -6.78503e-20)
(1.19354 0.264341 1.76059e-19)
(1.22558 0.27493 -8.77138e-20)
(1.24787 0.281964 -3.86148e-19)
(1.26266 0.286086 3.83884e-19)
(1.27189 0.287913 -1.72974e-19)
(1.2772 0.287967 1.38076e-19)
(1.2799 0.286784 2.39456e-19)
(1.28124 0.285394 9.82293e-20)
(0.0234837 -0.00228257 1.8616e-19)
(0.106617 -0.00300144 -3.83446e-19)
(0.218929 0.0100145 7.3437e-20)
(0.350581 0.0330727 -5.31548e-20)
(0.491946 0.0635407 -2.1376e-19)
(0.633697 0.0987027 -1.67603e-19)
(0.767645 0.135492 -3.28728e-20)
(0.88765 0.171081 -2.98423e-19)
(0.990041 0.203297 -1.80149e-20)
(1.07352 0.230784 -5.53421e-20)
(1.1387 0.252963 -1.50221e-19)
(1.18748 0.269878 -3.33892e-20)
(1.22244 0.281996 -1.14902e-19)
(1.24632 0.290009 -1.91579e-19)
(1.26175 0.294686 1.9608e-19)
(1.271 0.296762 2.69459e-20)
(1.27591 0.296881 5.36708e-20)
(1.27797 0.295554 -2.25647e-19)
(1.2783 0.293301 -5.72583e-21)
(1.27796 0.290943 -3.47535e-19)
(0.0322695 -0.00245559 2.04628e-19)
(0.132744 -0.0010696 1.36309e-19)
(0.261212 0.0165595 -2.1926e-19)
(0.406458 0.0452573 3.42356e-19)
(0.557449 0.0812362 -3.67878e-20)
(0.703945 0.120891 1.27584e-19)
(0.83766 0.160592 4.41084e-20)
(0.953136 0.197343 1.56138e-19)
(1.0479 0.229144 -1.22225e-19)
(1.122 0.255017 4.06301e-20)
(1.1773 0.274833 -3.90402e-20)
(1.21664 0.289052 -1.71672e-20)
(1.24318 0.298466 3.25822e-20)
(1.26 0.303982 -5.99728e-20)
(1.26974 0.306485 -1.83699e-20)
(1.27459 0.30675 -5.62391e-20)
(1.27623 0.305406 -9.14033e-20)
(1.27591 0.302923 5.90461e-20)
(1.27458 0.299799 -8.08024e-20)
(1.27311 0.296681 3.49085e-19)
(0.0421258 -0.00207587 -1.02363e-19)
(0.161133 0.00254042 -2.89439e-19)
(0.30592 0.0256999 -3.84749e-20)
(0.463878 0.0605536 -1.03486e-20)
(0.6227 0.102051 -1.29278e-19)
(0.7716 0.145726 -2.11951e-19)
(0.90269 0.187542 6.92956e-20)
(1.01165 0.224547 -9.51809e-20)
(1.09749 0.255101 -1.06555e-19)
(1.16171 0.27873 5.92554e-20)
(1.20731 0.2958 -4.47645e-20)
(1.23791 0.307173 -9.03906e-20)
(1.25707 0.313914 -2.9393e-21)
(1.26795 0.317086 6.11645e-20)
(1.27313 0.317627 -6.21631e-20)
(1.2746 0.316309 8.6314e-20)
(1.27381 0.313715 2.32538e-20)
(1.2718 0.310261 5.84083e-20)
(1.26934 0.306417 1.13568e-19)
(1.26711 0.302682 -9.72161e-20)
(0.0530006 -0.00102847 9.78535e-20)
(0.191493 0.0080566 -8.82985e-21)
(0.352417 0.0376296 4.36877e-20)
(0.521844 0.0790049 -5.93946e-20)
(0.686462 0.125823 4.81733e-21)
(0.835418 0.172868 2.0549e-19)
(0.961746 0.215913 -1.3499e-19)
(1.06266 0.25228 5.70073e-20)
(1.13882 0.28086 5.01715e-20)
(1.19315 0.301761 -1.41115e-19)
(1.22963 0.31585 1.32409e-19)
(1.25242 0.324348 1.14068e-21)
(1.26529 0.328527 -9.29793e-20)
(1.27134 0.329541 1.1201e-19)
(1.27296 0.328334 -4.43318e-20)
(1.27189 0.325634 3.38786e-20)
(1.26934 0.321963 -3.79357e-20)
(1.26616 0.317678 -1.51623e-20)
(1.26294 0.313224 -1.32088e-19)
(1.26021 0.308961 4.03609e-20)
(0.0648071 0.000796875 -3.31048e-20)
(0.223449 0.0156736 8.85835e-20)
(0.399974 0.0524718 1.37691e-20)
(0.579318 0.10056 5.77987e-20)
(0.747569 0.152305 2.7498e-20)
(0.89436 0.201933 1.28843e-20)
(1.01415 0.245289 7.30105e-20)
(1.10597 0.280192 -8.89668e-21)
(1.1722 0.306195 3.20766e-20)
(1.21702 0.324028 5.1494e-20)
(1.2452 0.335028 2.47801e-20)
(1.26123 0.340707 1.77492e-20)
(1.26888 0.342481 7.19077e-20)
(1.2711 0.341532 -6.95728e-20)
(1.26999 0.338769 1.49097e-20)
(1.26706 0.334856 -1.38681e-20)
(1.26327 0.330241 2.15634e-20)
(1.2593 0.325225 1.80297e-20)
(1.25559 0.320233 3.75026e-20)
(1.25255 0.315493 1.60383e-21)
(0.0774234 0.00350054 1.96204e-20)
(0.256551 0.0255412 1.79128e-20)
(0.4478 0.0702706 -2.47597e-20)
(0.635275 0.125076 1.54623e-20)
(0.804981 0.181182 8.70739e-21)
(0.947623 0.23252 -2.70865e-20)
(1.05951 0.275286 8.92002e-21)
(1.14167 0.307997 1.601e-21)
(1.1981 0.330955 1.53398e-20)
(1.23408 0.345508 -4.10513e-20)
(1.25493 0.353405 -1.06566e-22)
(1.26525 0.356381 1.13126e-20)
(1.2687 0.355924 -9.01298e-21)
(1.26793 0.353195 9.11589e-21)
(1.26481 0.349041 2.367e-20)
(1.26054 0.344046 -1.34196e-20)
(1.25591 0.338585 3.76279e-21)
(1.25142 0.332905 1.46373e-20)
(1.24741 0.327422 -2.41012e-20)
(1.2442 0.322229 1.15717e-20)
(0.0906948 0.00716788 5.48385e-20)
(0.290289 0.0377549 -2.97691e-20)
(0.495072 0.0909861 3.50035e-20)
(0.688741 0.152326 -2.60221e-20)
(0.857817 0.212088 -1.16383e-20)
(0.994639 0.264222 3.52126e-21)
(1.09769 0.305556 -1.13927e-20)
(1.17002 0.335463 4.0918e-20)
(1.21712 0.355038 -3.39953e-20)
(1.24513 0.366205 7.96598e-21)
(1.25966 0.371059 -5.93852e-21)
(1.26528 0.371478 -3.84155e-20)
(1.26541 0.368963 3.71865e-20)
(1.26239 0.364618 1.40853e-20)
(1.2578 0.359206 -1.40103e-20)
(1.25261 0.353229 3.27675e-20)
(1.24743 0.346988 -5.17193e-22)
(1.24264 0.34069 -3.16127e-20)
(1.23847 0.33474 2.33685e-20)
(1.23517 0.329098 7.29418e-21)
(0.104437 0.0118647 -1.92153e-20)
(0.324112 0.052349 5.57166e-20)
(0.54097 0.114495 6.42776e-20)
(0.738832 0.182013 -3.02646e-20)
(0.905375 0.244623 5.26527e-20)
(1.03506 0.296646 8.31061e-20)
(1.12874 0.335792 -4.55875e-21)
(1.19143 0.362405 -1.4153e-20)
(1.2299 0.378373 7.00283e-20)
(1.25087 0.386137 3.40479e-20)
(1.26009 0.388052 -6.10907e-21)
(1.26194 0.386073 5.04742e-20)
(1.25951 0.381663 -5.38328e-20)
(1.25485 0.375841 8.37278e-20)
(1.24923 0.369277 -1.39366e-20)
(1.24344 0.362388 3.96371e-20)
(1.23793 0.355412 7.0374e-21)
(1.233 0.348523 2.81617e-20)
(1.22878 0.342118 -2.68259e-20)
(1.22548 0.336023 6.37919e-21)
(0.118439 0.0176325 -2.98869e-20)
(0.357442 0.0692913 7.1169e-20)
(0.584704 0.140594 5.27816e-20)
(0.78478 0.213779 -7.96298e-21)
(0.947131 0.278371 8.18359e-20)
(1.06873 0.329415 -6.09011e-20)
(1.15288 0.365721 -4.61547e-21)
(1.20639 0.38867 5.36606e-20)
(1.23705 0.400907 1.70439e-20)
(1.25198 0.405315 2.36881e-20)
(1.25684 0.404426 -3.48785e-20)
(1.25573 0.400207 9.04766e-20)
(1.2514 0.394048 1.67202e-20)
(1.24558 0.386864 -7.96899e-20)
(1.23929 0.379228 1.15699e-19)
(1.23315 0.371478 -1.361e-19)
(1.22749 0.363796 -6.20108e-20)
(1.22253 0.356332 1.03944e-20)
(1.21835 0.349475 6.00249e-20)
(1.21511 0.342916 -1.12509e-19)
(0.132472 0.0244859 -6.75306e-20)
(0.389698 0.0884827 -1.59108e-19)
(0.625542 0.169006 -1.37362e-19)
(0.825948 0.247221 -1.86734e-19)
(0.982731 0.312908 -1.05662e-19)
(1.09565 0.362176 -2.18706e-19)