/*--------------------------------*- C++ -*----------------------------------*\
  =========                 |
  \\      /  F ield         | OpenFOAM: The Open Source CFD Toolbox
   \\    /   O peration     | Website:  https://openfoam.org
    \\  /    A nd           | Version:  6.0
     \\/     M anipulation  |
\*---------------------------------------------------------------------------*/
FoamFile
{
    version     2.0;
    format      ascii;
    class       volScalarField;
    location    "84";
    object      p;
}
// * * * * * * * * * * * * * * * * * * * * * * * * * * * * * * * * * * * * * //

dimensions      [0 2 -2 0 0 0 0];

internalField   nonuniform List<scalar> 
12500
(
-0.485384
-0.485568
-0.485565
-0.485448
-0.485401
-0.485569
-0.486039
-0.486849
-0.487998
-0.48946
-0.4912
-0.493175
-0.495346
-0.497679
-0.50014
-0.502703
-0.505345
-0.508047
-0.510795
-0.513573
-0.516356
-0.519133
-0.522052
-0.52526
-0.527215
-0.476594
-0.477134
-0.47732
-0.477296
-0.477284
-0.477428
-0.477817
-0.478489
-0.479442
-0.480652
-0.482085
-0.483704
-0.485472
-0.48736
-0.489341
-0.491394
-0.493502
-0.495653
-0.49784
-0.500053
-0.502272
-0.504491
-0.506855
-0.509494
-0.510962
-0.467588
-0.468481
-0.468852
-0.468918
-0.468938
-0.469057
-0.469362
-0.46989
-0.47064
-0.471589
-0.472705
-0.473953
-0.475302
-0.476725
-0.478202
-0.479716
-0.481257
-0.482819
-0.484399
-0.485995
-0.487592
-0.48919
-0.490925
-0.492914
-0.493827
-0.458452
-0.459693
-0.460245
-0.460399
-0.460451
-0.460544
-0.460763
-0.461144
-0.461687
-0.46237
-0.46316
-0.464028
-0.464944
-0.465887
-0.466839
-0.467791
-0.468736
-0.469675
-0.47061
-0.471545
-0.47247
-0.473391
-0.474435
-0.475707
-0.476008
-0.449277
-0.450859
-0.451589
-0.45183
-0.451913
-0.451979
-0.452112
-0.452346
-0.45268
-0.453092
-0.453552
-0.454032
-0.454506
-0.454955
-0.455368
-0.455737
-0.456063
-0.456351
-0.456609
-0.456846
-0.457059
-0.457258
-0.457562
-0.458066
-0.457713
-0.440158
-0.442074
-0.442977
-0.443303
-0.443417
-0.443457
-0.443504
-0.44359
-0.443714
-0.443854
-0.44398
-0.444067
-0.444092
-0.444038
-0.443898
-0.44367
-0.443358
-0.442972
-0.442527
-0.442036
-0.441505
-0.440949
-0.440478
-0.440183
-0.43915
-0.431195
-0.433437
-0.434507
-0.434915
-0.435059
-0.435074
-0.435034
-0.434973
-0.434886
-0.434752
-0.434543
-0.434234
-0.433805
-0.433241
-0.432539
-0.4317
-0.430735
-0.429657
-0.428487
-0.427246
-0.425948
-0.424612
-0.423343
-0.42223
-0.420512
-0.422493
-0.425047
-0.426278
-0.426766
-0.426938
-0.426925
-0.426799
-0.42659
-0.426293
-0.425885
-0.42534
-0.424634
-0.423747
-0.422668
-0.421397
-0.419938
-0.418305
-0.41652
-0.414607
-0.412596
-0.41051
-0.408376
-0.406292
-0.404354
-0.401957
-0.414155
-0.417007
-0.41839
-0.418953
-0.419151
-0.419109
-0.418896
-0.418539
-0.418032
-0.417352
-0.416472
-0.415368
-0.414022
-0.412426
-0.410579
-0.408491
-0.406179
-0.40367
-0.400997
-0.398195
-0.395301
-0.392352
-0.389436
-0.386665
-0.383603
-0.406289
-0.409417
-0.410942
-0.411573
-0.411793
-0.411721
-0.41142
-0.410916
-0.410201
-0.409252
-0.40804
-0.406542
-0.40474
-0.402625
-0.400199
-0.397473
-0.39447
-0.391221
-0.387765
-0.384149
-0.380421
-0.376631
-0.372862
-0.369241
-0.365525
-0.398997
-0.402375
-0.404028
-0.404721
-0.404959
-0.404854
-0.404466
-0.403818
-0.4029
-0.401687
-0.40015
-0.398265
-0.396011
-0.393381
-0.390375
-0.387007
-0.3833
-0.37929
-0.375025
-0.370563
-0.365967
-0.361298
-0.356639
-0.352136
-0.347769
-0.392379
-0.395973
-0.397735
-0.398483
-0.398733
-0.398595
-0.398123
-0.397336
-0.396223
-0.394758
-0.392909
-0.390648
-0.387955
-0.384818
-0.381237
-0.377222
-0.372801
-0.36801
-0.362905
-0.357555
-0.352041
-0.34644
-0.340832
-0.335392
-0.330362
-0.386523
-0.39029
-0.392143
-0.392935
-0.393195
-0.393025
-0.392473
-0.391557
-0.390263
-0.388561
-0.386417
-0.383802
-0.380689
-0.377063
-0.372918
-0.368262
-0.36312
-0.35753
-0.351551
-0.345263
-0.338767
-0.33216
-0.32552
-0.319059
-0.313334
-0.381507
-0.385396
-0.387315
-0.388141
-0.388408
-0.388208
-0.387586
-0.386554
-0.385097
-0.383181
-0.380771
-0.377829
-0.374325
-0.370237
-0.365552
-0.360271
-0.354412
-0.34801
-0.341126
-0.333847
-0.326295
-0.318589
-0.310809
-0.303213
-0.296733
-0.377389
-0.381342
-0.383299
-0.384149
-0.384419
-0.384195
-0.383513
-0.382384
-0.380787
-0.378687
-0.376042
-0.372812
-0.368957
-0.364447
-0.359258
-0.353382
-0.346824
-0.339613
-0.331804
-0.323488
-0.314804
-0.305894
-0.296841
-0.28796
-0.280634
-0.374207
-0.378158
-0.380124
-0.380984
-0.381256
-0.381012
-0.380285
-0.379078
-0.377369
-0.375118
-0.372279
-0.368803
-0.364645
-0.359762
-0.35412
-0.347695
-0.340477
-0.332479
-0.323745
-0.314363
-0.304481
-0.294263
-0.283793
-0.273447
-0.265144
-0.371975
-0.375854
-0.377794
-0.378651
-0.37892
-0.378663
-0.377903
-0.376641
-0.374848
-0.372481
-0.369487
-0.365813
-0.361404
-0.356205
-0.350169
-0.343253
-0.335431
-0.326694
-0.317065
-0.306618
-0.295501
-0.283892
-0.271866
-0.259853
-0.250398
-0.370681
-0.374415
-0.376295
-0.377132
-0.377391
-0.377123
-0.376343
-0.375044
-0.373193
-0.370741
-0.367631
-0.363803
-0.359192
-0.353733
-0.347364
-0.340026
-0.331668
-0.322259
-0.311795
-0.300324
-0.28798
-0.27494
-0.261255
-0.247379
-0.236551
-0.370287
-0.373805
-0.375586
-0.376383
-0.376624
-0.376344
-0.375549
-0.374226
-0.372336
-0.369824
-0.366629
-0.362682
-0.357911
-0.352241
-0.345596
-0.337899
-0.32908
-0.31908
-0.307865
-0.29545
-0.28194
-0.267494
-0.252118
-0.236225
-0.223778
-0.370734
-0.373969
-0.375612
-0.376346
-0.376552
-0.376252
-0.375442
-0.3741
-0.37218
-0.369623
-0.366361
-0.362319
-0.357417
-0.351571
-0.344693
-0.336692
-0.327479
-0.316972
-0.305107
-0.291861
-0.277298
-0.261547
-0.244541
-0.226575
-0.212262
-0.371943
-0.374833
-0.3763
-0.376944
-0.377093
-0.376759
-0.375924
-0.374558
-0.372608
-0.370008
-0.366685
-0.362557
-0.357539
-0.351537
-0.344455
-0.336192
-0.326643
-0.31571
-0.303302
-0.28936
-0.273906
-0.257023
-0.238568
-0.218618
-0.202245
-0.373822
-0.376316
-0.377569
-0.378091
-0.378158
-0.377765
-0.376887
-0.375481
-0.373488
-0.370837
-0.367447
-0.363232
-0.358099
-0.351952
-0.344687
-0.336194
-0.326364
-0.315084
-0.302247
-0.287767
-0.271622
-0.253855
-0.234256
-0.212601
-0.194053
-0.376274
-0.378331
-0.379334
-0.379701
-0.379652
-0.379171
-0.378222
-0.376752
-0.374696
-0.371974
-0.368503
-0.364191
-0.358942
-0.352655
-0.345226
-0.336543
-0.326493
-0.31496
-0.301829
-0.28699
-0.270381
-0.252003
-0.231592
-0.208551
-0.187679
-0.379204
-0.380795
-0.381515
-0.38169
-0.381489
-0.380884
-0.379829
-0.378264
-0.376116
-0.373301
-0.36973
-0.365309
-0.359941
-0.353526
-0.345963
-0.337148
-0.326974
-0.315332
-0.30211
-0.287187
-0.270455
-0.251825
-0.230873
-0.206473
-0.182801
-0.382522
-0.383631
-0.384039
-0.383987
-0.383593
-0.382824
-0.381625
-0.37993
-0.377658
-0.374723
-0.371032
-0.366492
-0.361008
-0.354486
-0.346837
-0.337974
-0.327817
-0.316291
-0.303328
-0.28886
-0.272821
-0.255104
-0.235133
-0.211318
-0.186773
-0.386157
-0.386777
-0.386847
-0.386532
-0.385906
-0.384931
-0.383549
-0.381687
-0.37926
-0.376178
-0.372349
-0.367681
-0.362086
-0.355483
-0.347798
-0.338976
-0.328978
-0.317792
-0.305443
-0.292009
-0.277656
-0.262655
-0.247337
-0.232985
-0.226143
-0.390054
-0.390185
-0.389897
-0.389286
-0.38839
-0.38717
-0.385566
-0.3835
-0.380887
-0.377634
-0.37365
-0.368848
-0.363148
-0.356483
-0.348804
-0.340084
-0.330328
-0.319582
-0.307942
-0.29558
-0.282767
-0.269903
-0.257525
-0.246915
-0.242416
-0.394177
-0.393826
-0.393164
-0.392228
-0.391027
-0.389526
-0.387664
-0.385363
-0.382535
-0.379088
-0.374934
-0.36999
-0.364187
-0.357472
-0.349819
-0.341231
-0.331748
-0.321456
-0.310499
-0.299088
-0.287518
-0.276173
-0.26551
-0.256279
-0.251053
-0.398516
-0.397691
-0.396641
-0.395355
-0.393819
-0.392006
-0.389856
-0.387291
-0.384224
-0.380563
-0.376223
-0.371126
-0.365214
-0.358448
-0.35082
-0.342357
-0.333124
-0.323233
-0.312842
-0.302164
-0.291462
-0.281046
-0.27123
-0.262393
-0.256139
-0.403074
-0.401783
-0.400335
-0.398681
-0.396787
-0.394635
-0.392172
-0.389321
-0.385992
-0.382098
-0.377553
-0.372287
-0.366249
-0.359413
-0.351786
-0.343412
-0.334371
-0.324784
-0.314809
-0.304638
-0.294489
-0.28459
-0.275143
-0.266325
-0.259161
-0.407876
-0.406122
-0.404268
-0.402229
-0.39996
-0.397452
-0.394657
-0.391498
-0.387888
-0.383739
-0.378967
-0.373506
-0.367313
-0.360372
-0.352703
-0.344358
-0.335429
-0.326036
-0.316327
-0.306469
-0.296638
-0.287
-0.277689
-0.268784
-0.26096
-0.412953
-0.410735
-0.408468
-0.406035
-0.403378
-0.4005
-0.397357
-0.393874
-0.389962
-0.385532
-0.380503
-0.374811
-0.368421
-0.361326
-0.353554
-0.345167
-0.336258
-0.326948
-0.317372
-0.307676
-0.298002
-0.288478
-0.279198
-0.270201
-0.261943
-0.418344
-0.415655
-0.412968
-0.410136
-0.407084
-0.403826
-0.400323
-0.396497
-0.392258
-0.387516
-0.38219
-0.376222
-0.369581
-0.362269
-0.354323
-0.345813
-0.336835
-0.327507
-0.317954
-0.308307
-0.298685
-0.289192
-0.279903
-0.270841
-0.262333
-0.424089
-0.420916
-0.417803
-0.414567
-0.411116
-0.407471
-0.403594
-0.399404
-0.394809
-0.389715
-0.384044
-0.377742
-0.370784
-0.363184
-0.354989
-0.346274
-0.337143
-0.327709
-0.318093
-0.308413
-0.298775
-0.289268
-0.279957
-0.270862
-0.262225
-0.430221
-0.426547
-0.423003
-0.419361
-0.415508
-0.411468
-0.407202
-0.402623
-0.397633
-0.392138
-0.386062
-0.379357
-0.372011
-0.364047
-0.355524
-0.346529
-0.337168
-0.327557
-0.317811
-0.308042
-0.298344
-0.288797
-0.279458
-0.27035
-0.261659
-0.436769
-0.432572
-0.42859
-0.424541
-0.420283
-0.415839
-0.411163
-0.40616
-0.400728
-0.394773
-0.388223
-0.38104
-0.373227
-0.364821
-0.355898
-0.346553
-0.3369
-0.327055
-0.317131
-0.307231
-0.297444
-0.28784
-0.278469
-0.269356
-0.260645
-0.443744
-0.439003
-0.434578
-0.430122
-0.425454
-0.420591
-0.415476
-0.410007
-0.404076
-0.39759
-0.390488
-0.382747
-0.374387
-0.365467
-0.356076
-0.346323
-0.336327
-0.326206
-0.316068
-0.306011
-0.296114
-0.286439
-0.277029
-0.267908
-0.259187
-0.451148
-0.445842
-0.440969
-0.436105
-0.431017
-0.425714
-0.420124
-0.414135
-0.407636
-0.40054
-0.392803
-0.384422
-0.37544
-0.365937
-0.356022
-0.345814
-0.335438
-0.32501
-0.314636
-0.304403
-0.294381
-0.284623
-0.275165
-0.266025
-0.257289
-0.458965
-0.453075
-0.447751
-0.442476
-0.436957
-0.431184
-0.425071
-0.418496
-0.41135
-0.403559
-0.3951
-0.385998
-0.376324
-0.366182
-0.355697
-0.345001
-0.334219
-0.323466
-0.31284
-0.302419
-0.292261
-0.282411
-0.272895
-0.263724
-0.25496
-0.467162
-0.460677
-0.454901
-0.449209
-0.443238
-0.436957
-0.430262
-0.423025
-0.415143
-0.406567
-0.397301
-0.387404
-0.376977
-0.36615
-0.355064
-0.343856
-0.332655
-0.321568
-0.310683
-0.300067
-0.289767
-0.279816
-0.270231
-0.261016
-0.252212
-0.475692
-0.468605
-0.462376
-0.45626
-0.449811
-0.442971
-0.435624
-0.427637
-0.418927
-0.409474
-0.39932
-0.388561
-0.377334
-0.365789
-0.354082
-0.342354
-0.330728
-0.319305
-0.30816
-0.297346
-0.286901
-0.276843
-0.267181
-0.25791
-0.249057
-0.484487
-0.4768
-0.470122
-0.463568
-0.456606
-0.449148
-0.441065
-0.432235
-0.4226
-0.412181
-0.401066
-0.389393
-0.377329
-0.365048
-0.352712
-0.340464
-0.328419
-0.316664
-0.305262
-0.294253
-0.28366
-0.273493
-0.263749
-0.254412
-0.245505
-0.493466
-0.485187
-0.478064
-0.471057
-0.463536
-0.455388
-0.44648
-0.436706
-0.42605
-0.414584
-0.402446
-0.389819
-0.376899
-0.363876
-0.350917
-0.338158
-0.325703
-0.313627
-0.301976
-0.290776
-0.280038
-0.26976
-0.259932
-0.250526
-0.241563
-0.502528
-0.493675
-0.486111
-0.478629
-0.470497
-0.461578
-0.451745
-0.440927
-0.429159
-0.416575
-0.403368
-0.389762
-0.375981
-0.362223
-0.348655
-0.335402
-0.322556
-0.310172
-0.298283
-0.2869
-0.276022
-0.265637
-0.255726
-0.246248
-0.237234
-0.511557
-0.502155
-0.494156
-0.486171
-0.477365
-0.467586
-0.456727
-0.444766
-0.431806
-0.418047
-0.403741
-0.389149
-0.374514
-0.36004
-0.345886
-0.332164
-0.318947
-0.306274
-0.294161
-0.282606
-0.271596
-0.26111
-0.251121
-0.241573
-0.232515
-0.520421
-0.510503
-0.502073
-0.49355
-0.484001
-0.473267
-0.461281
-0.448087
-0.433868
-0.418895
-0.403476
-0.387905
-0.372439
-0.357279
-0.34257
-0.328408
-0.314845
-0.301904
-0.289585
-0.277872
-0.266741
-0.256164
-0.246103
-0.236492
-0.227402
-0.528973
-0.518578
-0.509721
-0.500621
-0.490251
-0.478467
-0.465258
-0.450753
-0.435223
-0.419017
-0.40249
-0.385964
-0.369701
-0.353892
-0.338665
-0.324096
-0.310218
-0.297034
-0.284528
-0.272674
-0.261436
-0.25078
-0.240659
-0.230993
-0.221885
-0.537052
-0.526227
-0.516944
-0.507221
-0.495952
-0.483023
-0.468505
-0.452627
-0.435756
-0.418314
-0.400702
-0.383259
-0.366244
-0.349831
-0.33413
-0.319192
-0.30503
-0.29163
-0.278962
-0.266986
-0.255658
-0.244938
-0.23477
-0.225061
-0.215954
-0.544487
-0.533283
-0.523575
-0.51318
-0.50093
-0.486769
-0.470869
-0.453575
-0.435353
-0.416695
-0.398038
-0.379729
-0.362015
-0.345052
-0.328923
-0.313657
-0.299247
-0.285661
-0.272856
-0.26078
-0.249383
-0.238618
-0.228419
-0.218683
-0.209597
-0.5511
-0.53957
-0.529436
-0.518316
-0.505009
-0.489538
-0.472202
-0.453471
-0.433911
-0.414076
-0.394429
-0.375315
-0.356965
-0.339508
-0.323003
-0.307455
-0.292835
-0.279096
-0.266182
-0.254032
-0.242588
-0.231798
-0.221588
-0.211843
-0.202799
-0.556704
-0.544908
-0.534343
-0.522445
-0.50801
-0.491169
-0.472363
-0.452196
-0.431332
-0.410377
-0.389809
-0.369963
-0.351045
-0.333158
-0.316332
-0.300547
-0.285758
-0.271903
-0.258911
-0.246716
-0.235251
-0.22446
-0.214259
-0.204525
-0.195548
-0.561111
-0.549108
-0.538107
-0.525384
-0.509759
-0.491503
-0.471217
-0.449641
-0.427529
-0.405528
-0.38412
-0.363623
-0.344212
-0.32596
-0.30887
-0.292901
-0.277987
-0.264052
-0.251018
-0.238808
-0.22735
-0.216584
-0.206416
-0.196716
-0.187832
-0.564133
-0.551984
-0.540544
-0.526949
-0.510089
-0.490395
-0.468643
-0.445708
-0.422423
-0.399465
-0.37731
-0.356248
-0.336423
-0.317877
-0.300585
-0.284484
-0.269491
-0.255519
-0.242479
-0.230286
-0.218867
-0.208154
-0.198046
-0.188403
-0.179641
-0.565587
-0.553354
-0.541471
-0.526968
-0.508842
-0.487712
-0.464532
-0.44031
-0.415946
-0.392134
-0.369331
-0.347798
-0.327643
-0.308876
-0.291445
-0.275266
-0.260244
-0.246278
-0.233271
-0.221133
-0.209786
-0.199157
-0.189135
-0.179578
-0.170966
-0.565297
-0.553041
-0.540714
-0.525278
-0.505875
-0.483332
-0.458789
-0.433373
-0.408041
-0.383486
-0.360145
-0.338238
-0.317839
-0.298925
-0.281421
-0.265224
-0.250224
-0.23631
-0.223379
-0.211334
-0.200093
-0.189582
-0.179677
-0.170233
-0.161801
-0.5631
-0.550879
-0.538112
-0.521729
-0.501059
-0.477153
-0.451333
-0.424836
-0.398658
-0.373484
-0.349716
-0.327537
-0.306983
-0.288001
-0.270492
-0.254337
-0.239412
-0.225599
-0.212787
-0.200875
-0.189779
-0.17942
-0.169664
-0.160365
-0.152143
-0.558843
-0.546718
-0.533518
-0.516188
-0.494284
-0.469088
-0.4421
-0.414651
-0.387761
-0.362096
-0.33802
-0.315673
-0.295055
-0.276084
-0.25864
-0.242588
-0.227794
-0.214132
-0.201486
-0.189751
-0.178839
-0.168668
-0.159095
-0.149972
-0.141994
-0.552394
-0.540421
-0.526802
-0.508544
-0.485458
-0.459069
-0.43104
-0.402782
-0.375323
-0.349302
-0.325037
-0.302628
-0.282038
-0.263159
-0.245851
-0.229966
-0.215361
-0.201903
-0.189471
-0.177957
-0.167271
-0.157327
-0.147971
-0.13906
-0.131357
-0.543636
-0.531872
-0.517856
-0.498703
-0.474512
-0.447046
-0.418121
-0.389207
-0.36133
-0.335089
-0.310758
-0.288393
-0.267924
-0.249219
-0.23212
-0.216467
-0.20211
-0.18891
-0.176742
-0.165495
-0.155077
-0.145401
-0.1363
-0.127635
-0.120241
-0.532478
-0.520976
-0.506592
-0.486597
-0.461397
-0.432989
-0.403325
-0.373918
-0.345776
-0.319454
-0.295179
-0.272965
-0.252711
-0.234261
-0.217444
-0.20209
-0.188041
-0.175154
-0.163301
-0.152369
-0.142265
-0.132898
-0.12409
-0.115709
-0.108656
-0.518848
-0.507661
-0.492949
-0.472178
-0.446084
-0.416886
-0.386652
-0.356919
-0.328667
-0.302404
-0.278306
-0.256349
-0.236401
-0.21829
-0.201828
-0.186839
-0.17316
-0.160643
-0.149158
-0.13859
-0.128846
-0.11983
-0.111357
-0.103298
-0.0966206
-0.5027
-0.49188
-0.476886
-0.455424
-0.428567
-0.398744
-0.368115
-0.338227
-0.310022
-0.283955
-0.260153
-0.238556
-0.219007
-0.201315
-0.185282
-0.170726
-0.157477
-0.145388
-0.134325
-0.124172
-0.114834
-0.106215
-0.0981183
-0.0904222
-0.084154
-0.484015
-0.473611
-0.458391
-0.436337
-0.408863
-0.378588
-0.347744
-0.317873
-0.289868
-0.26413
-0.240742
-0.219608
-0.200547
-0.183353
-0.167822
-0.153764
-0.141009
-0.129405
-0.118818
-0.10913
-0.100249
-0.0920726
-0.0843971
-0.0771066
-0.0712812
-0.462796
-0.452857
-0.437475
-0.414941
-0.387007
-0.35646
-0.325584
-0.295898
-0.268243
-0.242966
-0.220104
-0.199529
-0.181043
-0.164426
-0.149468
-0.135975
-0.123774
-0.112712
-0.102656
-0.0934866
-0.0851116
-0.0774263
-0.070219
-0.063379
-0.0580302
-0.439074
-0.429648
-0.414175
-0.391283
-0.363054
-0.33242
-0.301692
-0.272357
-0.245198
-0.220507
-0.198278
-0.178357
-0.160528
-0.144563
-0.130246
-0.11738
-0.105793
-0.0953321
-0.0858608
-0.0772633
-0.0694461
-0.062302
-0.055613
-0.0492713
-0.0444325
-0.412906
-0.404037
-0.388552
-0.365433
-0.337081
-0.306544
-0.276143
-0.247318
-0.220793
-0.196805
-0.175311
-0.156131
-0.139038
-0.123795
-0.110184
-0.0980078
-0.0870931
-0.0772875
-0.0684563
-0.0604839
-0.0532774
-0.0467277
-0.0406109
-0.0348194
-0.0305269
-0.384371
-0.376105
-0.360691
-0.337483
-0.309181
-0.278923
-0.249021
-0.220859
-0.195098
-0.171923
-0.151259
-0.132903
-0.116617
-0.102162
-0.0893173
-0.0778867
-0.0676986
-0.0586022
-0.0504643
-0.0431707
-0.0366295
-0.0307303
-0.0252449
-0.0200632
-0.0163609
-0.353574
-0.345952
-0.330698
-0.307543
-0.279465
-0.249664
-0.220425
-0.19307
-0.168194
-0.145936
-0.126187
-0.108729
-0.0933165
-0.0797072
-0.0676822
-0.0570483
-0.0476365
-0.0392989
-0.031905
-0.0253429
-0.0195222
-0.0143326
-0.00954504
-0.00504474
-0.00198613
-0.320641
-0.313704
-0.2987
-0.275743
-0.248059
-0.218888
-0.190468
-0.164053
-0.140175
-0.118926
-0.100169
-0.0836756
-0.0691924
-0.0564792
-0.04532
-0.0355258
-0.0269325
-0.0193967
-0.0127926
-0.00701185
-0.00196645
0.00245137
0.00646552
0.0101999
0.0125645
-0.285721
-0.279507
-0.264844
-0.242228
-0.215106
-0.186728
-0.159273
-0.133921
-0.111142
-0.0909847
-0.0732897
-0.0578164
-0.0443103
-0.0325338
-0.0222759
-0.0133538
-0.00561035
0.00109076
0.00686871
0.0118256
0.0160448
0.0196272
0.0227849
0.0256635
0.0273032
-0.248979
-0.243523
-0.229295
-0.207161
-0.180761
-0.15333
-0.126975
-0.102798
-0.0812088
-0.0622169
-0.0456422
-0.0312363
-0.0187451
-0.00793509
0.00139793
0.00942853
0.0163051
0.0221543
0.0270854
0.0311905
0.0345447
0.0372363
0.0394587
0.0413906
0.0422506
-0.210599
-0.205934
-0.192231
-0.170717
-0.145191
-0.11885
-0.0937184
-0.0708182
-0.0504995
-0.0327366
-0.0173318
-0.00403137
0.00741736
0.0172422
0.0256392
0.0327735
0.0387825
0.0437804
0.0478619
0.051104
0.0535697
0.0553312
0.0565419
0.0573736
0.0572155
-0.170781
-0.166936
-0.153845
-0.133083
-0.108573
-0.0834552
-0.0596585
-0.0381251
-0.0191481
-0.00266905
0.0115247
0.0236906
0.0340788
0.042911
0.050375
0.0566253
0.0617865
0.0659564
0.069207
0.071591
0.0731542
0.0739383
0.0739755
0.0732902
0.0715664
-0.129736
-0.126735
-0.114343
-0.094456
-0.0710952
-0.0473195
-0.024958
-0.00487128
0.012702
0.0278502
0.0407987
0.0518079
0.0611255
0.0689682
0.0755171
0.0809188
0.0852867
0.0887013
0.091207
0.0928244
0.093572
0.0934076
0.0920458
0.0891574
0.0853401
-0.0876863
-0.0855522
-0.0739366
-0.0550411
-0.0329498
-0.0106241
0.0102135
0.0287837
0.0448994
0.0586758
0.0703495
0.0801831
0.0884227
0.0952824
0.100941
0.105544
0.109205
0.112003
0.113977
0.115149
0.115551
0.115038
0.112848
0.10826
0.103504
-0.0448647
-0.0436136
-0.0328477
-0.015049
0.00566447
0.0264452
0.045682
0.0626754
0.0772868
0.0896556
0.100027
0.108666
0.115816
0.12169
0.126468
0.130299
0.133307
0.135588
0.13722
0.138298
0.138977
0.139189
0.137983
0.134843
0.137297
-0.00150058
-0.00114726
0.00870131
0.0253072
0.0445471
0.0637006
0.081271
0.0966368
0.109704
0.120635
0.12968
0.137103
0.143147
0.148021
0.151903
0.154944
0.157272
0.158994
0.160204
0.161029
0.161633
0.161982
0.161546
0.160802
0.165531
0.0421643
0.04161
0.0504817
0.0658109
0.0834953
0.100953
0.116803
0.130501
0.141993
0.151459
0.159155
0.165344
0.170262
0.174117
0.177083
0.17931
0.180927
0.182044
0.182764
0.183213
0.183531
0.18368
0.183294
0.18292
0.187098
0.0858885
0.0844214
0.0922653
0.106246
0.122307
0.138015
0.152104
0.164102
0.173996
0.181978
0.188308
0.193244
0.197019
0.199832
0.201853
0.203229
0.204085
0.204529
0.204663
0.204605
0.204478
0.204256
0.203632
0.203049
0.206204
0.129431
0.127051
0.133825
0.146399
0.160784
0.174701
0.187001
0.197281
0.205561
0.212048
0.217
0.220672
0.223287
0.225039
0.226091
0.226583
0.226633
0.226343
0.225808
0.225131
0.224419
0.223636
0.222505
0.221437
0.22362
0.172553
0.169263
0.174935
0.186058
0.198729
0.210829
0.221325
0.229878
0.236542
0.24153
0.245101
0.247502
0.24895
0.249628
0.249692
0.249274
0.248484
0.247417
0.246158
0.244798
0.243425
0.24199
0.240244
0.238588
0.239835
0.215019
0.210829
0.215375
0.225016
0.235951
0.246224
0.254914
0.261745
0.266797
0.270294
0.272489
0.273622
0.273901
0.273501
0.272569
0.271226
0.269577
0.267705
0.265688
0.263604
0.261527
0.259399
0.256997
0.254723
0.255076
0.256598
0.251521
0.254929
0.263072
0.272264
0.280714
0.287609
0.292734
0.296193
0.298214
0.299048
0.298925
0.298044
0.296571
0.294643
0.292374
0.289858
0.287173
0.284384
0.281563
0.278767
0.275938
0.272877
0.269986
0.269484
0.297067
0.29112
0.293389
0.300031
0.307488
0.314133
0.31926
0.322707
0.324601
0.325173
0.324669
0.323312
0.321289
0.318757
0.315845
0.312658
0.309282
0.305785
0.302228
0.298672
0.295164
0.291643
0.287938
0.284444
0.283125
0.336207
0.329414
0.33055
0.335704
0.34145
0.346324
0.349721
0.35153
0.351897
0.351057
0.349249
0.346687
0.343549
0.339983
0.336109
0.332022
0.327802
0.323509
0.319198
0.314922
0.310718
0.306528
0.302205
0.298129
0.296027
0.37381
0.366197
0.36622
0.36991
0.373983
0.377133
0.378852
0.379074
0.377964
0.375759
0.372689
0.368962
0.364744
0.360176
0.355368
0.350409
0.34537
0.340307
0.335265
0.330292
0.325419
0.320589
0.315678
0.311044
0.308196
0.409675
0.401275
0.400212
0.402478
0.404931
0.406417
0.40652
0.405218
0.402691
0.399175
0.394895
0.390049
0.384796
0.379266
0.373561
0.367764
0.361939
0.356136
0.350395
0.344756
0.339245
0.333808
0.328342
0.323178
0.319619
0.443612
0.43446
0.43235
0.433244
0.434142
0.434038
0.432599
0.429846
0.42597
0.421207
0.415777
0.409867
0.403628
0.397183
0.390626
0.384032
0.37746
0.370954
0.364549
0.35828
0.352166
0.34616
0.340174
0.334509
0.330276
0.475439
0.465577
0.462467
0.462053
0.461475
0.459865
0.456971
0.452848
0.447701
0.441763
0.435249
0.428336
0.421169
0.413861
0.406502
0.399158
0.391883
0.384715
0.377687
0.370827
0.36415
0.357613
0.351144
0.345008
0.34014
0.504989
0.494462
0.490408
0.488761
0.486797
0.483777
0.479522
0.474122
0.467788
0.460755
0.453229
0.445382
0.43735
0.429238
0.42113
0.413087
0.405158
0.397375
0.389768
0.382359
0.37516
0.368132
0.361218
0.354645
0.349184
0.532103
0.520959
0.516026
0.513234
0.509984
0.50566
0.50015
0.49357
0.486143
0.478101
0.469643
0.460935
0.452105
0.443253
0.434455
0.425769
0.417237
0.408889
0.400749
0.392836
0.385159
0.377683
0.370363
0.363387
0.357377
0.556636
0.544928
0.539188
0.535346
0.530922
0.52541
0.518756
0.511104
0.502684
0.493723
0.484419
0.474928
0.465373
0.455848
0.446424
0.437154
0.428075
0.419214
0.410591
0.402222
0.394111
0.386231
0.378544
0.371202
0.364692
0.578456
0.56624
0.559772
0.554986
0.549509
0.542931
0.535254
0.526643
0.517333
0.507552
0.49749
0.4873
0.477097
0.466971
0.456987
0.447195
0.437627
0.428308
0.419255
0.410478
0.401982
0.393743
0.38573
0.378059
0.3711
0.597442
0.584777
0.577668
0.572051
0.565648
0.558137
0.549563
0.540112
0.530024
0.519524
0.5088
0.497996
0.487226
0.476573
0.4661
0.455849
0.445854
0.436135
0.426704
0.417572
0.408739
0.400186
0.39189
0.38393
0.376575
0.613489
0.600437
0.592778
0.586451
0.579259
0.570951
0.561614
0.551447
0.540695
0.529583
0.518293
0.506967
0.495713
0.484611
0.47372
0.46308
0.45272
0.442659
0.432908
0.423472
0.414353
0.405534
0.396996
0.388789
0.381096
0.626505
0.613131
0.605018
0.598108
0.590268
0.581308
0.571343
0.560589
0.549293
0.537678
0.525924
0.514169
0.502518
0.491047
0.479812
0.468852
0.458193
0.447851
0.437836
0.428152
0.418797
0.40976
0.401024
0.392614
0.384641
0.636412
0.622782
0.614317
0.606956
0.598615
0.589149
0.5787
0.567491
0.555773
0.543769
0.531654
0.519566
0.507606
0.495848
0.484346
0.473137
0.462245
0.451686
0.441466
0.431588
0.42205
0.412844
0.403954
0.395385
0.387194
0.643147
0.62933
0.620617
0.612941
0.60425
0.594431
0.583642
0.572114
0.560099
0.54782
0.535451
0.523127
0.510949
0.498988
0.487297
0.475912
0.464855
0.454141
0.443776
0.433761
0.424094
0.414768
0.405769
0.397086
0.388742
0.646662
0.632728
0.623874
0.616022
0.607136
0.597118
0.586137
0.574427
0.562243
0.549805
0.53729
0.524831
0.512526
0.500447
0.488647
0.477159
0.466006
0.455202
0.444752
0.434657
0.424915
0.41552
0.406457
0.397707
0.389272
0.646924
0.632944
0.624056
0.616171
0.607246
0.597186
0.586162
0.57441
0.562185
0.549708
0.537155
0.52466
0.512322
0.500212
0.488381
0.476865
0.465686
0.454857
0.444384
0.434267
0.424504
0.415089
0.406008
0.397238
0.38878
0.643916
0.62996
0.621149
0.613372
0.604566
0.594623
0.583706
0.572052
0.559915
0.547518
0.535037
0.522607
0.510329
0.498274
0.486494
0.475025
0.463889
0.453101
0.442665
0.432585
0.422856
0.413472
0.404419
0.395676
0.387261
0.637634
0.623773
0.615148
0.607624
0.599094
0.589425
0.578767
0.56735
0.555431
0.543233
0.530934
0.518671
0.506546
0.494633
0.482984
0.471637
0.460615
0.449933
0.439597
0.429611
0.419971
0.41067
0.40169
0.393022
0.384716
0.628092
0.614396
0.606066
0.598936
0.590841
0.581603
0.571353
0.560314
0.548742
0.536861
0.524854
0.512859
0.50098
0.489295
0.477858
0.466707
0.455869
0.445359
0.435184
0.42535
0.415853
0.406685
0.397825
0.389279
0.381148
0.615316
0.601856
0.593928
0.587333
0.579826
0.571175
0.561482
0.550961
0.539863
0.528418
0.51681
0.505183
0.493644
0.482272
0.471127
0.460247
0.449662
0.439388
0.429436
0.419811
0.410513
0.401529
0.392834
0.384456
0.376564
0.599351
0.586194
0.578773
0.57285
0.566085
0.558174
0.549184
0.539316
0.52882
0.517926
0.506825
0.495665
0.484556
0.473583
0.462808
0.452273
0.44201
0.432037
0.422367
0.413009
0.403963
0.395212
0.386728
0.378564
0.370975
0.580253
0.567467
0.560654
0.555536
0.549661
0.54264
0.534497
0.525416
0.515645
0.505418
0.494929
0.484332
0.473744
0.463253
0.452925
0.442808
0.432933
0.423325
0.413997
0.404962
0.396221
0.387754
0.379525
0.37162
0.364396
0.558096
0.545745
0.539638
0.535453
0.530611
0.524626
0.517469
0.509307
0.500382
0.490932
0.481158
0.471219
0.46124
0.451313
0.441508
0.431878
0.422459
0.413277
0.40435
0.395692
0.38731
0.379175
0.371245
0.363643
0.356842
0.532967
0.521113
0.515803
0.512674
0.509004
0.504194
0.498159
0.491041
0.483079
0.474515
0.465556
0.456368
0.447082
0.437797
0.42859
0.419516
0.410617
0.401922
0.393453
0.385227
0.377254
0.3695
0.361914
0.354656
0.348334
0.504966
0.493668
0.489243
0.487285
0.484918
0.481417
0.476633
0.470681
0.463796
0.456221
0.448173
0.439825
0.431315
0.42275
0.414211
0.40576
0.397443
0.389294
0.381338
0.373597
0.366083
0.358757
0.351557
0.344684
0.338896
0.474209
0.463524
0.460063
0.459383
0.458442
0.456377
0.452967
0.448298
0.442597
0.436112
0.429067
0.421643
0.413988
0.406216
0.398414
0.39065
0.382976
0.375429
0.368039
0.360834
0.353828
0.346977
0.340206
0.333756
0.328552
0.440825
0.430804
0.428381
0.429078
0.429676
0.429166
0.427246
0.423969
0.419555
0.414254
0.408299
0.401882
0.395156
0.388246
0.381246
0.374231
0.367256
0.360366
0.353595
0.346974
0.340523
0.334192
0.327891
0.321902
0.31733
0.404954
0.395646
0.394327
0.396489
0.398732
0.399885
0.399563
0.397782
0.394749
0.390722
0.385939
0.380603
0.374879
0.368896
0.362759
0.356549
0.350329
0.344147
0.338042
0.332053
0.326203
0.320437
0.314647
0.309154
0.305258
0.366751
0.358201
0.358042
0.361747
0.365728
0.368645
0.37002
0.369828
0.368267
0.365595
0.36206
0.357876
0.353217
0.348223
0.343006
0.337655
0.33224
0.326814
0.321422
0.316109
0.310903
0.305744
0.300505
0.295542
0.292365
0.326382
0.31863
0.319679
0.324993
0.330794
0.335564
0.338725
0.340209
0.340199
0.338957
0.336741
0.333773
0.330239
0.326289
0.322044
0.3176
0.313036
0.30841
0.303773
0.299177
0.294657
0.290147
0.285497
0.281097
0.278678
0.284025
0.277107
0.279402
0.28638
0.294069
0.300769
0.305795
0.309031
0.310645
0.310901
0.310064
0.308369
0.306013
0.303156
0.299928
0.296436
0.292762
0.288976
0.285133
0.281292
0.277495
0.273672
0.269651
0.265843
0.26422
0.239867
0.233815
0.237384
0.246067
0.2557
0.264394
0.271353
0.276407
0.279708
0.28152
0.282117
0.281745
0.280613
0.278891
0.276719
0.274214
0.271466
0.268552
0.265535
0.262481
0.259441
0.256343
0.252986
0.2498
0.24901
0.194109
0.188949
0.193811
0.204225
0.215844
0.226584
0.235531
0.242458
0.247499
0.250916
0.252992
0.253985
0.254113
0.25356
0.252476
0.250986
0.249191
0.247175
0.245008
0.242767
0.240513
0.238171
0.235511
0.232974
0.233053
0.146959
0.142713
0.148875
0.161034
0.174665
0.187488
0.198465
0.20731
0.214133
0.219195
0.222787
0.225176
0.226594
0.227235
0.22726
0.226805
0.22598
0.224877
0.223577
0.222164
0.220714
0.219153
0.217218
0.215353
0.21634
0.0986357
0.0953199
0.102779
0.116681
0.132336
0.147264
0.160302
0.171097
0.179733
0.186469
0.191602
0.195411
0.198137
0.199988
0.201135
0.201722
0.201873
0.201687
0.201255
0.200674
0.200033
0.199264
0.198073
0.196895
0.198832
0.0493643
0.0469917
0.0557329
0.0713624
0.0890373
0.106078
0.121192
0.133957
0.144428
0.152857
0.159548
0.164789
0.168834
0.171899
0.174168
0.175795
0.176913
0.177632
0.178053
0.178287
0.17844
0.178455
0.178004
0.177516
0.180446
-0.000621152
-0.00204322
0.00795536
0.0252809
0.044955
0.0641022
0.0812947
0.0960372
0.108352
0.118484
0.12674
0.133417
0.138779
0.143055
0.146436
0.149086
0.151148
0.15274
0.153976
0.154979
0.155878
0.156628
0.156873
0.157043
0.161016
-0.051081
-0.05155
-0.0403296
-0.0213539
0.000283445
0.0215146
0.0407749
0.057491
0.0716494
0.0834835
0.093302
0.10141
0.108082
0.113554
0.118026
0.121672
0.124638
0.127055
0.129042
0.130741
0.132302
0.133689
0.13451
0.135228
0.140285
-0.101771
-0.101289
-0.0888924
-0.0683267
-0.044778
-0.0215
-0.000196035
0.0184783
0.0344693
0.0479966
0.0593687
0.0688973