/*--------------------------------*- C++ -*----------------------------------*\
  =========                 |
  \\      /  F ield         | OpenFOAM: The Open Source CFD Toolbox
   \\    /   O peration     | Website:  https://openfoam.org
    \\  /    A nd           | Version:  6.0
     \\/     M anipulation  |
\*---------------------------------------------------------------------------*/
FoamFile
{
    version     2.0;
    format      ascii;
    class       volVectorField;
    location    "0.3";
    object      U;
}
// * * * * * * * * * * * * * * * * * * * * * * * * * * * * * * * * * * * * * //

dimensions      [0 1 -1 0 0 0 0];

internalField   nonuniform List<vector> 
8000
(
(-0.0026147 0.00084027 4.37159e-22)
(-0.00183517 -0.00291046 -2.40482e-21)
(0.0117547 -0.00905828 3.76916e-21)
(0.039477 -0.0154708 -3.44024e-21)
(0.0788964 -0.0208957 -2.62028e-21)
(0.126238 -0.0248048 7.85292e-21)
(0.177764 -0.0271631 9.54088e-22)
(0.230421 -0.0281992 5.75613e-22)
(0.282023 -0.0282351 5.94102e-21)
(0.331188 -0.0275855 3.37857e-21)
(0.377163 -0.0265113 -2.4208e-21)
(0.419644 -0.0252081 -9.54007e-21)
(0.458613 -0.023811 8.01349e-22)
(0.494219 -0.0224068 -8.85137e-22)
(0.526698 -0.0210469 9.17921e-21)
(0.556319 -0.0197584 -5.52059e-21)
(0.583355 -0.018553 7.51325e-21)
(0.60805 -0.0174333 -1.12043e-20)
(0.630624 -0.0163966 1.29337e-23)
(0.652838 -0.0154054 -1.95693e-21)
(-0.00270167 0.00248185 -1.30875e-21)
(-0.00118698 -0.00876978 5.66918e-21)
(0.0135974 -0.0271688 5.74259e-21)
(0.0425608 -0.0463435 6.49566e-21)
(0.0830285 -0.0625544 1.04941e-20)
(0.131123 -0.0742276 -1.57828e-21)
(0.183099 -0.0812627 1.54444e-20)
(0.235942 -0.0843467 4.5686e-21)
(0.28753 -0.0844438 -5.05584e-22)
(0.336541 -0.082495 -1.38362e-20)
(0.382279 -0.0792808 1.54223e-20)
(0.42448 -0.0753847 -2.15165e-20)
(0.463153 -0.0712098 1.59866e-20)
(0.498467 -0.0670145 1.86465e-20)
(0.530669 -0.0629516 2.49408e-20)
(0.560035 -0.0591019 -1.64015e-20)
(0.586838 -0.0554998 4.41228e-21)
(0.611323 -0.0521526 1.68708e-20)
(0.63371 -0.049053 -1.6014e-20)
(0.65576 -0.0460889 1.0261e-20)
(-0.00286205 0.00398629 -6.03971e-21)
(0.000131358 -0.0148105 -5.1123e-21)
(0.0173007 -0.0453671 -7.96541e-21)
(0.048736 -0.0771459 -9.51379e-22)
(0.0912852 -0.103967 -6.89047e-21)
(0.140871 -0.12324 -1.59967e-20)
(0.193728 -0.134816 2.36826e-20)
(0.246931 -0.13985 1.7482e-20)
(0.298479 -0.139948 2.34915e-20)
(0.347179 -0.136674 -2.70109e-20)
(0.39244 -0.131321 2.06725e-20)
(0.434079 -0.124854 2.57697e-20)
(0.472163 -0.117936 8.59943e-21)
(0.506898 -0.110992 -8.86969e-21)
(0.538552 -0.104273 2.15984e-21)
(0.567411 -0.0979086 -4.17923e-21)
(0.593753 -0.0919548 -3.88111e-20)
(0.617822 -0.0864225 5.98936e-21)
(0.63984 -0.0812983 3.69381e-20)
(0.661568 -0.0763975 -4.21481e-20)
(-0.00306959 0.00526531 1.17571e-21)
(0.00216286 -0.0211478 6.18944e-21)
(0.0229008 -0.0637055 3.74031e-21)
(0.0580159 -0.107825 2.58666e-21)
(0.10365 -0.144964 -1.0076e-20)
(0.155432 -0.171564 -3.89777e-20)
(0.209576 -0.18746 -4.62661e-20)
(0.263286 -0.194283 -4.11227e-21)
(0.314754 -0.194285 -3.60327e-20)
(0.362974 -0.189644 -5.78081e-20)
(0.407515 -0.182157 5.08879e-20)
(0.448313 -0.173155 -7.30426e-20)
(0.485519 -0.163554 1.47587e-20)
(0.519393 -0.153934 -4.90089e-21)
(0.550234 -0.144635 -1.68517e-20)
(0.578344 -0.135833 -2.08695e-20)
(0.604005 -0.127603 3.32647e-20)
(0.627461 -0.119955 2.61595e-20)
(0.648937 -0.11287 4.52961e-20)
(0.670191 -0.106093 -5.80246e-20)
(-0.00328466 0.00623562 -7.56061e-22)
(0.00497027 -0.0278872 -4.60566e-21)
(0.0304471 -0.0822262 3.39324e-21)
(0.0704169 -0.13832 1.43437e-20)
(0.120096 -0.18537 7.03302e-22)
(0.174731 -0.218923 1.92331e-20)
(0.230521 -0.238832 -2.69171e-21)
(0.284854 -0.247227 5.57829e-20)
(0.336175 -0.247002 -2.8142e-20)
(0.383733 -0.240943 4.1807e-20)
(0.427305 -0.231331 4.04492e-20)
(0.466984 -0.219849 4.38455e-20)
(0.503031 -0.207648 -4.20319e-20)
(0.535773 -0.195451 3.49028e-20)
(0.565549 -0.18368 -5.09528e-20)
(0.592678 -0.172549 -1.43577e-20)
(0.617452 -0.162145 -3.35974e-20)
(0.640108 -0.15248 -1.50984e-20)
(0.66088 -0.143522 5.59839e-20)
(0.681522 -0.134953 -7.89896e-20)
(-0.00345677 0.00682222 1.51659e-20)
(0.00863367 -0.0351211 -4.39738e-21)
(0.0400017 -0.100957 4.3819e-21)
(0.0859542 -0.168557 1.91189e-21)
(0.140576 -0.225004 1.03679e-20)
(0.19866 -0.265035 -1.90444e-20)
(0.256401 -0.288576 -1.04593e-20)
(0.311425 -0.298272 6.9331e-22)
(0.362505 -0.297665 -5.94914e-20)
(0.409202 -0.290128 -2.34456e-20)
(0.45155 -0.278409 -9.7498e-21)
(0.489838 -0.264521 -3.81543e-20)
(0.524453 -0.249828 -3.56485e-20)
(0.555805 -0.235184 -6.57811e-20)
(0.584277 -0.221077 5.87376e-20)
(0.610212 -0.207753 -8.10861e-20)
(0.633905 -0.195307 2.12202e-21)
(0.655594 -0.183747 1.01953e-19)
(0.675514 -0.173031 -1.26102e-19)
(0.695419 -0.162778 -4.3281e-20)
(-0.00352529 0.00695959 -8.4302e-21)
(0.0132476 -0.0429244 -2.34866e-20)
(0.0516342 -0.119909 -2.72187e-20)
(0.104638 -0.198448 1.42378e-21)
(0.165025 -0.263674 5.64942e-21)
(0.227076 -0.309618 7.17763e-21)
(0.287004 -0.33634 1.93994e-20)
(0.342738 -0.347027 2.85147e-21)
(0.393447 -0.345861 4.86598e-20)
(0.439065 -0.336787 4.0663e-20)
(0.479934 -0.322991 1.30131e-20)
(0.516563 -0.30679 4.30139e-20)
(0.549488 -0.289739 -6.13722e-22)
(0.579208 -0.272802 5.98112e-20)
(0.606157 -0.256523 -2.84692e-20)
(0.6307 -0.24117 3.14507e-20)
(0.653139 -0.22684 -2.17087e-20)
(0.673706 -0.213535 2.84416e-20)
(0.692646 -0.201198 7.70488e-20)
(0.711701 -0.189393 2.13851e-20)
(-0.0034215 0.00659449 -1.28374e-20)
(0.0189179 -0.0513506 -1.3352e-20)
(0.065418 -0.139071 3.15611e-20)
(0.12647 -0.227889 -5.57949e-20)
(0.193356 -0.301178 7.57334e-21)
(0.2598 -0.35239 -2.06756e-20)
(0.322074 -0.381786 -3.65866e-21)
(0.378478 -0.393121 -2.2762e-20)
(0.428649 -0.391208 -4.85832e-21)
(0.472957 -0.380541 3.47399e-20)
(0.51209 -0.364713 -1.40604e-20)
(0.546802 -0.346313 3.22401e-22)
(0.577793 -0.327062 1.02343e-20)
(0.605659 -0.308013 -2.31379e-21)
(0.630886 -0.289751 -1.08439e-19)
(0.65386 -0.272558 1.91578e-20)
(0.67489 -0.256526 2.77313e-20)
(0.6942 -0.241649 4.79239e-20)
(0.712046 -0.227851 -5.18889e-20)
(0.730153 -0.21465 -2.06013e-20)
(-0.00307044 0.0056877 2.87742e-20)
(0.0257577 -0.0604286 -4.64776e-20)
(0.0814264 -0.158404 6.76926e-20)
(0.151438 -0.256752 6.85806e-20)
(0.22545 -0.337304 5.13641e-20)
(0.296614 -0.393071 6.09909e-20)
(0.361308 -0.424592 1.7872e-20)
(0.418283 -0.436208 -1.57306e-20)
(0.467716 -0.433358 -3.09234e-21)
(0.51047 -0.421053 -1.23251e-20)
(0.547611 -0.403255 -8.54193e-21)
(0.580163 -0.382792 -2.42642e-20)
(0.608997 -0.36152 -2.67857e-20)
(0.634808 -0.340561 1.59731e-20)
(0.658132 -0.320527 -5.50808e-20)
(0.67938 -0.301702 7.12526e-20)
(0.698862 -0.284173 -2.61477e-20)
(0.716795 -0.26792 -3.71013e-20)
(0.733451 -0.252846 1.315e-20)
(0.750519 -0.238431 -6.36071e-20)
(-0.0023933 0.00421556 1.03131e-19)
(0.0338833 -0.0701593 9.25929e-21)
(0.0997269 -0.177843 -2.99461e-20)
(0.179513 -0.284892 -2.24569e-20)
(0.261164 -0.371833 -1.07192e-19)
(0.337265 -0.431388 3.27857e-20)
(0.404366 -0.464452 2.05645e-20)
(0.461752 -0.475978 -2.10714e-20)
(0.510217 -0.472007 1.11897e-20)
(0.55116 -0.458033 1.83712e-21)
(0.586063 -0.438346 8.56867e-22)
(0.616228 -0.415974 6.56237e-21)
(0.642702 -0.392878 3.23287e-20)
(0.666279 -0.370228 -2.07082e-20)
(0.687544 -0.348648 2.85483e-20)
(0.706925 -0.328419 -1.09998e-20)
(0.724737 -0.309614 -1.77528e-20)
(0.741186 -0.2922 9.7941e-21)
(0.756565 -0.276055 2.07835e-20)
(0.772496 -0.260637 9.89545e-21)
(-0.00130985 0.00217108 -1.60777e-19)
(0.0434096 -0.080514 -7.15474e-21)
(0.120378 -0.197295 3.3477e-20)
(0.210645 -0.312141 6.75735e-20)
(0.300326 -0.404535 -9.18537e-20)
(0.381465 -0.467075 -6.1638e-20)
(0.450873 -0.501087 9.94091e-20)
(0.508457 -0.512152 -6.55685e-20)
(0.555694 -0.506893 -2.66916e-20)
(0.59457 -0.491238 -2.1762e-20)
(0.626997 -0.469762 9.7654e-21)
(0.654569 -0.445652 -2.22932e-22)
(0.678504 -0.420944 -4.30193e-21)
(0.69969 -0.396832 1.28103e-20)
(0.718758 -0.373943 -8.84953e-21)
(0.736148 -0.352546 9.86358e-21)
(0.752176 -0.332697 -2.01142e-20)
(0.767041 -0.314354 8.89733e-21)
(0.781061 -0.297362 -1.64478e-20)
(0.795739 -0.281182 4.8409e-20)
(0.0002592 -0.000435792 -4.24272e-19)
(0.0544461 -0.0914333 2.70852e-19)
(0.143424 -0.216633 2.80289e-20)
(0.244763 -0.338309 9.16103e-21)
(0.342734 -0.435178 -1.17572e-19)
(0.428901 -0.499876 1.62642e-19)
(0.500432 -0.534244 -1.64367e-21)
(0.557949 -0.544494 -1.74112e-20)
(0.60368 -0.537799 -6.19791e-20)
(0.640232 -0.520475 5.1419e-20)
(0.669965 -0.497329 9.04792e-20)
(0.694759 -0.471664 -1.59233e-20)
(0.715999 -0.445562 3.35203e-20)
(0.734661 -0.420224 -1.95343e-20)
(0.75141 -0.396264 -1.58595e-20)
(0.766698 -0.373934 8.43293e-22)
(0.780834 -0.353279 -7.34589e-21)
(0.794013 -0.334244 1.19658e-21)
(0.806582 -0.316638 -6.0706e-21)
(0.819853 -0.299969 -4.38494e-21)
(0.00239004 -0.00357842 3.40335e-19)
(0.0670928 -0.102827 1.61644e-19)
(0.168893 -0.235701 5.7458e-19)
(0.281775 -0.36319 2.9087e-20)
(0.388166 -0.463522 -4.2651e-20)
(0.47924 -0.52955 -1.99215e-19)
(0.552632 -0.563695 1.75613e-19)
(0.609776 -0.572805 2.69506e-19)
(0.65371 -0.564556 1.18237e-19)
(0.687689 -0.545597 9.3188e-20)
(0.714527 -0.520916 7.19939e-20)
(0.736383 -0.49389 -7.73846e-20)
(0.7548 -0.466616 -1.87128e-21)
(0.770825 -0.44028 -1.92103e-20)
(0.785151 -0.415479 1.02817e-19)
(0.798232 -0.392446 -1.00633e-22)
(0.810369 -0.371211 -2.01779e-20)
(0.821751 -0.351713 -2.42178e-21)
(0.832754 -0.333725 4.13343e-20)
(0.84441 -0.316865 5.87258e-21)
(0.00515382 -0.00721452 1.27522e-20)
(0.0814371 -0.114578 -3.37478e-19)
(0.196795 -0.254319 -4.9128e-19)
(0.321565 -0.386557 -1.32209e-19)
(0.436379 -0.489332 8.77657e-20)
(0.532133 -0.555872 2.50366e-20)
(0.607056 -0.589247 3.08744e-19)
(0.663487 -0.596923 -3.4571e-19)
(0.705327 -0.587036 -1.19666e-19)
(0.736499 -0.566504 -1.83574e-19)
(0.760266 -0.540438 -1.19063e-19)
(0.779053 -0.51225 -1.00249e-19)
(0.794542 -0.48402 2.70687e-20)
(0.80784 -0.456906 -3.34891e-20)
(0.819653 -0.431476 9.48959e-20)
(0.830431 -0.407944 -3.79537e-20)
(0.84046 -0.38633 -1.19538e-19)
(0.849922 -0.366572 -1.82861e-20)
(0.859209 -0.348409 6.04488e-20)
(0.868989 -0.331661 -3.53706e-20)
(0.00861508 -0.0112877 -4.5722e-20)
(0.0975502 -0.12654 5.2601e-19)
(0.227116 -0.272279 -6.35692e-19)
(0.363995 -0.408176 1.32971e-19)
(0.48711 -0.51237 -2.44452e-19)
(0.587221 -0.578634 5.57118e-19)
(0.663287 -0.610731 -3.40854e-19)
(0.718643 -0.616726 3.23264e-19)
(0.758096 -0.605152 -3.03203e-19)
(0.786246 -0.583133 8.79415e-20)
(0.806792 -0.555849 -5.08341e-20)
(0.822408 -0.526698 -1.07609e-19)
(0.834893 -0.497722 -1.11954e-19)
(0.845397 -0.470033 8.8403e-20)
(0.854629 -0.444161 -6.91643e-20)
(0.863021 -0.420301 -1.27629e-19)
(0.870834 -0.398467 1.19794e-19)
(0.878241 -0.378595 -1.59519e-19)
(0.885631 -0.360413 5.42503e-20)
(0.893258 -0.344045 -7.99664e-21)
(0.0128305 -0.0157296 -7.60085e-19)
(0.115485 -0.138549 -7.95855e-19)
(0.259822 -0.289356 7.70485e-20)
(0.408906 -0.4278 -7.06491e-19)
(0.540082 -0.532411 -6.0889e-20)
(0.644143 -0.597651 -4.25769e-19)
(0.720916 -0.628014 -9.3207e-20)
(0.774821 -0.632128 -2.37537e-19)
(0.811604 -0.618858 -1.91303e-20)
(0.836541 -0.595465 -9.5228e-20)
(0.853748 -0.567137 -1.73286e-20)
(0.866123 -0.537225 -1.89354e-19)
(0.87556 -0.507702 1.49491e-19)
(0.883234 -0.47962 -2.41337e-19)
(0.889842 -0.453466 5.97418e-20)
(0.895787 -0.429409 -2.5769e-21)
(0.901298 -0.40746 -1.1284e-19)
(0.906531 -0.387549 2.1458e-19)
(0.911841 -0.369427 -6.91278e-20)
(0.917098 -0.353613 -2.81172e-20)
(0.0178482 -0.0204614 9.22152e-19)
(0.135276 -0.150419 4.81487e-19)
(0.294852 -0.305312 4.20135e-19)
(0.456114 -0.445185 5.37917e-20)
(0.595002 -0.549238 5.52651e-19)
(0.702529 -0.612759 7.02674e-19)
(0.779539 -0.640992 5.34509e-19)
(0.831613 -0.643079 3.96816e-21)
(0.865463 -0.628144 2.83446e-19)
(0.887026 -0.603512 4.10934e-19)
(0.900811 -0.57433 -1.11042e-19)
(0.909908 -0.543857 1.52384e-19)
(0.916287 -0.513976 1.21793e-19)
(0.921129 -0.485666 9.52415e-20)
(0.925105 -0.459362 5.31402e-19)
(0.928582 -0.435203 -1.89993e-19)
(0.931749 -0.413188 -2.09142e-20)
(0.934739 -0.393242 1.93362e-19)
(0.937855 -0.375171 -1.05506e-19)
(0.940695 -0.359922 3.95163e-20)
(0.0237065 -0.0253966 -8.21244e-19)
(0.156932 -0.161953 9.00535e-20)
(0.332117 -0.319899 -6.42548e-19)
(0.505413 -0.460086 -5.70341e-20)
(0.651563 -0.562652 4.32202e-19)
(0.76201 -0.623823 -1.13118e-18)
(0.838762 -0.649595 6.88256e-20)
(0.888632 -0.649564 4.24105e-19)
(0.919307 -0.633034 3.63783e-19)
(0.93737 -0.607326 -1.46096e-19)
(0.947684 -0.577487 3.39269e-20)
(0.953507 -0.546654 9.89247e-20)
(0.956857 -0.516599 -3.90818e-20)
(0.958903 -0.488213 -4.01962e-19)
(0.960285 -0.461873 1.04778e-19)
(0.961324 -0.437679 2.32442e-19)
(0.962165 -0.415611 -3.11387e-19)
(0.962919 -0.395583 1.61091e-19)
(0.963851 -0.377459 4.27516e-20)
(0.964455 -0.362571 1.58465e-19)
(0.0304339 -0.0304422 -1.58289e-19)
(0.180442 -0.172946 -6.08215e-19)
(0.371504 -0.332867 2.42992e-19)
(0.556571 -0.472269 -4.57973e-20)
(0.709442 -0.572474 -1.08531e-18)
(0.822212 -0.630735 1.67419e-19)
(0.898197 -0.653785 -6.77207e-21)
(0.945503 -0.651603 1.58567e-19)
(0.972794 -0.633589 -6.75147e-19)
(0.987264 -0.60699 -7.16536e-21)
(0.994098 -0.576705 -1.00128e-19)
(0.996688 -0.545719 1.31194e-19)
(0.997077 -0.515674 3.22601e-19)
(0.996415 -0.487366 -5.17681e-20)
(0.995299 -0.461105 7.91319e-21)
(0.994004 -0.436945 1.16565e-19)
(0.992628 -0.414838 -1.82117e-20)
(0.991252 -0.394661 1.83398e-19)
(0.990123 -0.376292 -1.07751e-19)
(0.98872 -0.361462 -1.56387e-19)
(0.0380488 -0.0355011 1.26097e-19)
(0.20577 -0.183185 6.35366e-21)
(0.41287 -0.34397 2.59444e-19)
(0.609335 -0.481515 6.05058e-19)
(0.768303 -0.578548 3.04427e-19)
(0.88276 -0.63342 1.98453e-20)
(0.957466 -0.653561 -3.20417e-19)
(1.00187 -0.64925 9.23388e-20)
(1.02559 -0.629901 3.39552e-19)
(1.03641 -0.602619 -5.52926e-19)
(1.03979 -0.572113 3.87287e-19)
(1.03922 -0.541188 -2.63534e-19)
(1.03675 -0.511348 2.0352e-19)
(1.03351 -0.483289 -4.03889e-19)
(1.03004 -0.457253 4.03798e-19)
(1.02661 -0.433248 -4.19311e-19)
(1.02327 -0.411179 -9.74399e-20)
(1.02009 -0.390851 3.01098e-19)
(1.01724 -0.37212 -1.0548e-19)
(1.01387 -0.357363 3.51771e-20)
(0.0465595 -0.0404737 -1.13207e-19)
(0.232858 -0.192459 9.97054e-19)
(0.456043 -0.352968 -2.61135e-20)
(0.663426 -0.487622 -5.77634e-19)
(0.827797 -0.580748 -3.60522e-19)
(0.943274 -0.631835 6.40598e-19)
(1.0162 -0.648951 -2.46579e-19)
(1.05738 -0.642589 -3.4676e-20)
(1.0774 -0.622089 3.69683e-19)
(1.08454 -0.594352 -4.75351e-19)
(1.08451 -0.563858 3.19e-20)
(1.08087 -0.533216 -4.99073e-19)
(1.07566 -0.503786 2.32284e-19)
(1.06996 -0.47617 -6.28739e-19)
(1.06429 -0.45055 9.17712e-19)
(1.0589 -0.426898 -1.6104e-19)
(1.05386 -0.405078 1.37457e-19)
(1.04936 -0.38481 -3.81136e-19)
(1.04558 -0.366034 1.9983e-20)
(1.04116 -0.352133 3.67934e-19)
(0.0559632 -0.0452582 -3.72228e-19)
(0.261621 -0.200558 3.26211e-19)
(0.500825 -0.359634 -1.07541e-18)
(0.718544 -0.490411 1.53412e-18)
(0.887563 -0.578978 -1.0567e-18)
(1.00338 -0.625967 3.76886e-20)
(1.07402 -0.640018 -9.46289e-19)
(1.11171 -0.631733 6.36544e-19)
(1.1279 -0.610297 -1.09381e-19)
(1.13137 -0.582347 -4.69964e-19)
(1.12801 -0.552102 -2.23384e-19)
(1.12141 -0.521963 2.34061e-19)
(1.11357 -0.493147 1.36483e-19)
(1.10552 -0.466165 -5.91286e-19)
(1.09775 -0.441157 2.22099e-19)
(1.09047 -0.41808 -2.72506e-19)
(1.08374 -0.396807 1.67347e-20)
(1.07775 -0.377116 -2.0694e-19)
(1.07257 -0.359258 6.82996e-20)
(1.06693 -0.346688 -2.81647e-19)
(0.0662443 -0.0497513 1.03885e-18)
(0.291948 -0.207277 -5.87134e-19)
(0.546986 -0.363755 4.76411e-19)
(0.774365 -0.489729 -5.7657e-19)
(0.947228 -0.573171 9.84192e-19)
(1.06269 -0.615841 -3.87272e-20)
(1.13059 -0.626854 -9.70011e-20)
(1.16453 -0.616822 -6.39356e-20)
(1.17683 -0.594689 3.86743e-19)
(1.17666 -0.566776 5.7492e-19)
(1.17007 -0.537016 -3.50908e-19)
(1.16062 -0.507594 2.86975e-19)
(1.15027 -0.479581 4.73604e-19)
(1.13999 -0.453407 -3.46879e-19)
(1.13023 -0.429168 -6.0112e-19)
(1.12113 -0.406808 1.03166e-18)
(1.11276 -0.386199 -1.95638e-19)
(1.10524 -0.367158 -6.19087e-20)
(1.09858 -0.350027 5.05749e-19)
(1.09175 -0.337861 -1.28223e-19)
(0.077377 -0.053851 -1.77431e-18)
(0.323705 -0.21242 -1.17542e-18)
(0.594273 -0.36514 -4.4676e-19)
(0.830548 -0.485452 8.25854e-19)
(1.00642 -0.563297 -1.76669e-18)
(1.12085 -0.601512 8.23958e-19)
(1.18557 -0.60958 9.2711e-20)
(1.21555 -0.598016 5.73252e-20)
(1.22391 -0.575444 -8.70476e-19)
(1.22018 -0.547824 -2.95363e-19)
(1.21046 -0.51878 -4.55831e-19)
(1.1983 -0.490277 3.98983e-19)
(1.18558 -0.463247 8.77194e-20)
(1.17319 -0.438039 -1.6065e-20)
(1.16153 -0.414714 3.91065e-19)
(1.15071 -0.393201 -4.11339e-19)
(1.14077 -0.373373 -1.37259e-20)
(1.13181 -0.355061 1.95835e-20)
(1.1238 -0.338627 6.04107e-20)
(1.11594 -0.326755 2.45337e-19)
(0.0893238 -0.0574575 5.77477e-19)
(0.356734 -0.215801 1.49187e-18)
(0.642409 -0.363619 1.19651e-18)
(0.886739 -0.477487 -3.91456e-19)
(1.06474 -0.549359 1.24961e-18)
(1.17748 -0.583068 -1.06701e-19)
(1.23862 -0.588345 -1.33546e-19)
(1.26448 -0.5755 7.63852e-20)
(1.26891 -0.552761 9.17067e-19)
(1.2617 -0.525688 4.8114e-19)
(1.249 -0.497583 1.26586e-19)
(1.23427 -0.470191 1.32742e-20)
(1.21931 -0.444307 -7.34959e-19)
(1.20495 -0.420209 6.16795e-19)
(1.19151 -0.397923 9.39561e-20)
(1.17907 -0.377368 -1.61676e-19)
(1.16766 -0.358415 -6.06648e-19)
(1.15733 -0.340908 -3.04203e-20)
(1.14807 -0.32522 2.15277e-19)
(1.1393 -0.313668 -3.03452e-20)
(0.102036 -0.0604736 -1.54384e-18)
(0.390854 -0.217249 6.45556e-19)
(0.691093 -0.359048 -3.06868e-18)
(0.942569 -0.465776 1.19257e-18)
(1.12184 -0.531394 -9.17299e-19)
(1.23224 -0.560627 6.47587e-19)
(1.28945 -0.563323 -9.09086e-19)
(1.31108 -0.549475 9.66963e-20)
(1.3116 -0.52685 -2.57169e-20)
(1.30104 -0.500574 1.74718e-19)
(1.2855 -0.473622 2.358e-19)
(1.26837 -0.447518 -4.54614e-19)
(1.25132 -0.422932 2.22014e-19)
(1.23511 -0.400075 1.87204e-19)
(1.22002 -0.378945 7.28119e-19)
(1.20608 -0.359451 -3.29719e-19)
(1.1933 -0.341464 -1.93523e-19)
(1.18173 -0.324841 2.986e-19)
(1.17135 -0.309953 1.34648e-19)
(1.16178 -0.298768 -2.98982e-19)
(0.115452 -0.062806 1.39116e-18)
(0.425861 -0.21661 1.34901e-18)
(0.740007 -0.351314 3.69873e-19)
(0.997664 -0.450293 1.53539e-18)
(1.17732 -0.509475 6.79304e-19)
(1.28479 -0.53434 -1.20171e-18)
(1.33777 -0.53471 1.67595e-18)
(1.35509 -0.520159 -7.92475e-19)
(1.35179 -0.497932 7.04015e-19)
(1.33801 -0.472697 8.25964e-19)
(1.31981 -0.447097 -4.5165e-19)
(1.30043 -0.422448 8.55323e-20)
(1.28145 -0.399298 4.13388e-19)
(1.26354 -0.377803 2.6996e-19)
(1.24692 -0.357937 5.65614e-19)
(1.2316 -0.339603 -2.39875e-19)
(1.21757 -0.322676 -4.11018e-20)
(1.20486 -0.307027 2.93357e-19)
(1.19348 -0.293017 -6.58839e-20)
(1.18319 -0.282285 -3.37653e-21)
(0.129502 -0.064367 -7.25658e-19)
(0.461533 -0.213748 -2.67205e-18)
(0.788817 -0.340331 6.16449e-19)
(1.05165 -0.431051 -4.64175e-19)
(1.23083 -0.483708 -9.8728e-19)
(1.33482 -0.504382 -6.15512e-19)
(1.38331 -0.502724 -3.38897e-19)
(1.3963 -0.487785 8.67138e-19)
(1.38928 -0.466237 -4.88665e-19)
(1.37246 -0.442276 -4.52277e-19)
(1.35177 -0.418216 -5.29137e-19)
(1.33033 -0.395172 -8.94246e-20)
(1.30958 -0.373586 -7.25103e-20)
(1.29011 -0.353563 -9.78215e-19)
(1.27209 -0.335059 4.24747e-19)
(1.25551 -0.317976 -5.72949e-19)
(1.24034 -0.302193 1.53874e-19)
(1.22662 -0.287599 -1.14089e-18)
(1.21434 -0.274532 3.51009e-19)
(1.2034 -0.264327 4.12439e-19)
(0.144101 -0.065075 -1.82693e-19)
(0.497629 -0.208549 1.33514e-18)
(0.837178 -0.326049 8.45439e-20)
(1.10414 -0.408096 1.97018e-19)
(1.28201 -0.454232 -3.86746e-19)
(1.38202 -0.470956 -4.53459e-21)
(1.42584 -0.467598 1.49972e-20)
(1.43452 -0.452595 -1.53658e-19)
(1.42393 -0.432003 6.06825e-19)
(1.40425 -0.409536 2.27385e-19)
(1.38127 -0.387189 8.86808e-19)
(1.35793 -0.365888 -2.55259e-19)
(1.33557 -0.34598 1.49301e-19)
(1.31469 -0.327528 -1.16256e-20)
(1.29541 -0.310476 3.61271e-19)
(1.27769 -0.294728 2.08074e-19)
(1.26151 -0.280169 4.67053e-19)
(1.24688 -0.266706 -7.22937e-19)
(1.23381 -0.254647 8.71041e-19)
(1.22229 -0.245048 -2.79704e-19)
(0.159159 -0.0648564 -1.76114e-18)
(0.533892 -0.200923 -5.42008e-19)
(0.884737 -0.308448 4.34989e-19)
(1.15477 -0.381512 2.69626e-19)
(1.33053 -0.421216 2.46038e-19)
(1.42612 -0.434286 2.23231e-19)
(1.46514 -0.429584 -5.59227e-19)
(1.46958 -0.414844 -1.87506e-19)
(1.45559 -0.395474 8.25519e-20)
(1.43325 -0.374706 -5.27314e-19)
(1.40817 -0.354226 -2.02033e-19)
(1.38313 -0.334791 1.27231e-18)
(1.35933 -0.316663 -3.23203e-19)
(1.33718 -0.299871 -4.05331e-19)
(1.31677 -0.284352 -1.70415e-19)
(1.29805 -0.270011 1.27685e-19)
(1.28097 -0.256747 1.3238e-19)
(1.26554 -0.244482 -5.97811e-19)
(1.25179 -0.233482 8.36842e-19)
(1.23975 -0.224564 -7.33998e-19)
(0.174572 -0.063646 -2.02186e-19)
(0.570053 -0.190803 5.97581e-20)
(0.931138 -0.287547 -6.88071e-20)
(1.20318 -0.351416 1.01243e-18)
(1.37608 -0.384859 3.9742e-20)
(1.46687 -0.39462 3.1904e-19)
(1.50101 -0.388944 -6.45591e-19)
(1.50134 -0.374791 -1.206e-20)
(1.48413 -0.356895 7.66748e-19)
(1.45936 -0.338013 8.62896e-20)
(1.4324 -0.319542 -5.84564e-19)
(1.40584 -0.302081 -3.92437e-20)
(1.38076 -0.285821 -3.99732e-19)
(1.35749 -0.270766 4.16783e-19)
(1.33609 -0.256849 5.21895e-19)
(1.31649 -0.243983 -5.83396e-20)
(1.29862 -0.232075 -5.47538e-20)
(1.2825 -0.221064 1.84186e-19)
(1.26817 -0.211168 -5.34552e-19)
(1.25569 -0.203003 5.00727e-19)
(0.190229 -0.0613889 2.02945e-19)
(0.605833 -0.178153 -1.29764e-18)
(0.976025 -0.263397 3.53523e-19)
(1.24901 -0.317962 -1.01413e-18)
(1.41836 -0.345386 3.43588e-19)
(1.50405 -0.352221 -1.15615e-18)
(1.5333 -0.345952 4.35618e-19)
(1.52966 -0.3327 -1.32492e-19)
(1.50946 -0.316514 -1.24638e-21)
(1.48248 -0.299689 1.04663e-19)
(1.45385 -0.283349 -3.98276e-19)
(1.42597 -0.267955 -5.17018e-19)
(1.39977 -0.25364 -9.01396e-20)
(1.37554 -0.240388 -3.88876e-20)
(1.35328 -0.228133 -1.03725e-19)
(1.33292 -0.216796 -3.21518e-20)
(1.31439 -0.206297 -9.09137e-20)
(1.2977 -0.196586 -7.54756e-20)
(1.28289 -0.187829 -2.08029e-19)
(1.27001 -0.180482 3.34074e-19)
(0.206012 -0.0580409 4.83991e-19)
(0.640947 -0.162963 -5.38243e-19)
(1.01905 -0.236086 1.13259e-18)
(1.29195 -0.281332 -4.70087e-19)
(1.45711 -0.303049 1.21582e-18)
(1.53746 -0.307369 1.86662e-20)
(1.56186 -0.300892 5.3064e-19)
(1.55444 -0.288842 -1.28097e-19)
(1.5315 -0.274583 5.03263e-19)
(1.50256 -0.259963 2.2138e-20)
(1.47247 -0.24586 1.05049e-18)
(1.44344 -0.232612 -7.11017e-19)
(1.4163 -0.220304 1.03028e-19)
(1.39125 -0.20891 1.77646e-19)
(1.36828 -0.198366 8.0106e-19)
(1.34729 -0.188604 -2.86488e-19)
(1.32821 -0.179556 -5.13793e-20)
(1.31105 -0.171183 -2.54306e-19)
(1.29586 -0.163592 -2.06788e-20)
(1.28265 -0.157123 1.24765e-19)
(0.221796 -0.0535699 -2.27212e-19)
(0.675106 -0.145251 6.6576e-19)
(1.05987 -0.205737 -6.67388e-19)
(1.33168 -0.241744 2.6144e-19)
(1.49208 -0.25812 -2.8184e-19)
(1.56693 -0.260357 1.00809e-18)
(1.58659 -0.25405 -1.30821e-19)
(1.5756 -0.243488 2.89911e-19)
(1.55018 -0.231351 -1.7046e-19)
(1.51952 -0.219067 2.83273e-21)
(1.4882 -0.207287 1.67863e-19)
(1.45822 -0.196249 -1.17946e-19)
(1.43029 -0.185999 3.04286e-19)
(1.40458 -0.176506 -1.45278e-19)
(1.38102 -0.167713 -5.92063e-19)
(1.35952 -0.15956 5.73008e-19)
(1.34002 -0.151996 -2.40575e-19)
(1.32251 -0.144987 1.91689e-19)
(1.30702 -0.138583 3.11012e-19)
(1.29355 -0.133047 1.29605e-19)
(0.237452 -0.0479562 5.67942e-19)
(0.708024 -0.125068 -1.17082e-18)
(1.09816 -0.172507 2.18912e-19)
(1.36792 -0.199441 -1.6004e-19)
(1.52307 -0.21089 -5.94388e-19)
(1.59232 -0.211491 -4.24437e-19)
(1.60737 -0.205723 -8.22046e-20)
(1.59309 -0.196911 -6.76145e-19)
(1.56546 -0.187068 -2.99575e-20)
(1.53332 -0.177228 -1.10926e-19)
(1.50099 -0.167843 -2.8896e-19)
(1.47024 -0.159064 -6.54599e-20)
(1.44171 -0.15091 -2.05098e-19)
(1.41547 -0.143349 -3.16122e-19)
(1.39146 -0.136334 3.08682e-19)
(1.36959 -0.129817 3.44707e-20)
(1.34977 -0.12376 6.81575e-20)
(1.33201 -0.118133 -3.21288e-19)
(1.31631 -0.112927 -1.115e-20)
(1.30264 -0.108376 -4.6981e-19)
(0.252845 -0.0411938 6.08858e-19)
(0.739416 -0.102491 4.09555e-19)
(1.1336 -0.136583 -6.46685e-19)
(1.4004 -0.154692 9.84115e-19)
(1.54989 -0.16167 -1.06577e-19)
(1.61351 -0.161084 3.23233e-19)
(1.62416 -0.156207 1.05839e-19)
(1.60686 -0.149385 3.43957e-19)
(1.5773 -0.141985 -2.66998e-19)
(1.54395 -0.134677 7.84019e-20)
(1.51081 -0.127738 -7.61983e-20)
(1.4795 -0.121251 -3.08704e-20)
(1.45051 -0.115218 5.64188e-20)
(1.4239 -0.109611 -9.98404e-20)
(1.39958 -0.104392 -2.64598e-20)
(1.37745 -0.0995258 -8.59048e-20)
(1.35743 -0.0949895 -1.32326e-19)
(1.33952 -0.0907532 8.70949e-20)
(1.3237 -0.086751 -1.08815e-19)
(1.30989 -0.0832301 4.83492e-19)
(0.267841 -0.0332903 -2.98175e-19)
(0.769008 -0.0776294 -8.51993e-19)
(1.16592 -0.0981857 -1.04729e-19)
(1.4289 -0.107793 -3.26595e-20)
(1.57239 -0.110782 -3.45807e-19)
(1.63042 -0.109457 -5.32466e-19)
(1.6369 -0.105803 1.59636e-19)
(1.61688 -0.101184 -2.16137e-19)
(1.58569 -0.0963485 -2.26414e-19)
(1.55139 -0.091639 1.18234e-19)
(1.51767 -0.0871819 -8.73627e-20)
(1.48596 -0.0830074 -1.65404e-19)
(1.45668 -0.0791076 5.55298e-22)
(1.42984 -0.075462 1.07781e-19)
(1.40534 -0.0720456 -1.0132e-19)
(1.38307 -0.0688366 1.38911e-19)
(1.36297 -0.0658258 3.93133e-20)
(1.345 -0.0629809 8.88261e-20)
(1.32915 -0.0601835 1.60428e-19)
(1.31526 -0.0577329 -1.37977e-19)
(0.282303 -0.0242675 2.81471e-19)
(0.796534 -0.0506193 -1.96864e-20)
(1.19485 -0.0575628 1.269e-19)
(1.45322 -0.0590573 -1.64086e-19)
(1.59045 -0.058563 1.89943e-20)
(1.64299 -0.0569359 5.04647e-19)
(1.64558 -0.0548112 -3.21149e-19)
(1.62317 -0.05258 1.23135e-19)
(1.59064 -0.0504079 1.02482e-19)
(1.55564 -0.0483418 -2.82773e-19)
(1.52155 -0.0463841 2.54201e-19)
(1.48963 -0.0445261 2.21519e-22)
(1.46022 -0.0427586 -1.63601e-19)
(1.43329 -0.0410719 1.92927e-19)
(1.40874 -0.0394545 -7.422e-20)
(1.38646 -0.0378986 5.49682e-20)
(1.36638 -0.0364092 -6.14957e-20)
(1.34845 -0.0349488 -2.62665e-20)
(1.33263 -0.0333518 -1.92498e-19)
(1.31873 -0.0320069 6.05263e-20)
(0.296098 -0.0141617 -9.04356e-20)
(0.821745 -0.0216252 2.50704e-19)
(1.22014 -0.0149889 4.04979e-20)
(1.47319 -0.0088197 1.53664e-19)
(1.60398 -0.0053604 6.81196e-20)
(1.65119 -0.00385186 3.16755e-20)
(1.6502 -0.00353518 1.67154e-19)
(1.62572 -0.00384689 -2.10262e-20)
(1.59217 -0.00440957 6.56959e-20)
(1.55672 -0.00501077 1.02253e-19)
(1.52247 -0.00555235 4.6433e-20)
(1.49053 -0.00600059 3.18717e-20)
(1.46114 -0.00635124 1.26768e-19)
(1.43427 -0.00660858 -1.23184e-19)
(1.40979 -0.00677558 2.52458e-20)
(1.38761 -0.00685931 -2.27546e-20)
(1.36765 -0.00687906 3.50281e-20)
(1.34985 -0.00678936 2.87092e-20)
(1.33413 -0.00638446 5.65339e-20)
(1.32028 -0.0061753 1.56632e-21)
(0.309092 -0.00302337 5.42064e-20)
(0.844406 0.00916215 4.84255e-20)
(1.24159 0.0292374 -6.61347e-20)
(1.48867 0.0425703 4.06339e-20)
(1.61292 0.0484713 2.04167e-20)
(1.65501 0.0494618 -6.48483e-20)
(1.65077 0.0477232 1.96322e-20)
(1.62459 0.0447438 3.75404e-21)
(1.59031 0.0414003 3.14899e-20)
(1.55466 0.0381289 -8.17672e-20)
(1.52047 0.0351054 3.6621e-22)
(1.48867 0.0323764 2.09066e-20)
(1.45947 0.0299352 -1.6756e-20)
(1.43278 0.027761 1.62958e-20)
(1.4085 0.025835 4.04621e-20)
(1.38653 0.0241343 -2.24474e-20)
(1.36678 0.0226257 6.6288e-21)
(1.34919 0.0213645 2.32689e-20)
(1.33363 0.0205891 -3.70845e-20)
(1.3199 0.0196376 1.83071e-20)
(0.32116 0.00908291 1.43049e-19)
(0.864304 0.0415279 -7.86652e-20)
(1.25902 0.074796 9.12218e-20)
(1.49957 0.0947492 -6.62866e-20)
(1.61723 0.102571 -2.70493e-20)
(1.65447 0.10267 9.14397e-21)
(1.64736 0.0986619 -2.47782e-20)
(1.61982 0.0929206 8.62844e-20)
(1.58512 0.0867757 -6.93641e-20)
(1.54953 0.0808517 1.59594e-20)
(1.5156 0.0753809 -1.19162e-20)
(1.48412 0.0704117 -7.17752e-20)
(1.45524 0.0659212 6.8242e-20)
(1.42887 0.0618696 2.48553e-20)
(1.4049 0.0582208 -2.42642e-20)
(1.38323 0.0549349 5.56063e-20)
(1.36379 0.0519649 -1.31852e-21)
(1.34648 0.0493779 -5.11702e-20)
(1.33115 0.0474366 3.68501e-20)
(1.31759 0.0453047 1.1407e-20)
(0.332181 0.0220793 -5.07235e-20)
(0.881247 0.0752349 1.4236e-19)
(1.27227 0.121349 1.61704e-19)
(1.50581 0.147343 -7.40274e-20)
(1.61693 0.156573 1.25377e-19)
(1.64962 0.155438 1.86852e-19)
(1.64001 0.14898 -1.05452e-20)
(1.61149 0.140413 -2.85184e-20)
(1.57667 0.131471 1.42575e-19)
(1.54139 0.122931 6.74736e-20)
(1.50791 0.115064 -1.10039e-20)
(1.47693 0.10791 9.56494e-20)
(1.44852 0.101425 -9.73553e-20)
(1.42259 0.0955478 1.52133e-19)
(1.39904 0.090223 -2.45624e-20)
(1.37776 0.0853923 6.84577e-20)
(1.3587 0.0809948 1.14187e-20)
(1.34173 0.0771114 4.58659e-20)
(1.32668 0.0740205 -4.35277e-20)
(1.31336 0.0706941 1.11691e-20)
(0.342035 0.0358735 -7.74075e-20)
(0.89506 0.110023 1.72667e-19)
(1.28123 0.168539 1.27648e-19)
(1.50736 0.199968 -1.77601e-20)
(1.61204 0.210111 1.82958e-19)
(1.64052 0.20743 -1.36006e-19)
(1.62883 0.198377 -5.17075e-21)
(1.59967 0.186951 1.11866e-19)
(1.56505 0.175238 3.53874e-20)
(1.53032 0.164138 4.68549e-20)
(1.49751 0.153942 -6.71478e-20)
(1.46718 0.144673 1.72285e-19)
(1.43938 0.136261 3.00544e-20)
(1.41401 0.128621 -1.44948e-19)
(1.39097 0.121676 2.07288e-19)
(1.37017 0.115349 -2.38986e-19)
(1.35155 0.109563 -1.05563e-19)
(1.33498 0.104416 1.95677e-20)
(1.32025 0.100193 9.91002e-20)
(1.30723 0.095663 -1.89794e-19)
(0.350615 0.0503605 -1.63591e-19)
(0.905597 0.145614 -3.90141e-19)
(1.28582 0.215997 -3.3902e-19)
(1.5042 0.252237 -4.32454e-19)
(1.60262 0.262815 -2.36701e-19)
(1.62727 0.258315 -4.73553e-19)
(1.6139 0.246557 6.01572e-20)
(1.58449 0.232265 -2.34916e-19)
(1.55035 0.217829 -2.47757e-20)
(1.51642 0.204241 3.74312e-20)
(1.48447 0.191795 -7.92682e-20)
(1.45497 0.180491 9.78692e-20)
(1.42792 0.170231 1.6852e-19)
(1.40322 0.160902 -2.37265e-19)
(1.38078 0.152403 3.72253e-20)
(1.36052 0.144632 1.03835e-19)
(1.3424 0.137502 1.70443e-19)
(1.32627 0.131123 -1.47123e-19)
(1.31189 0.125786 -6.4417e-21)
(1.29922 0.12005 1.68454e-19)
(0.357822 0.0654224 -3.0007e-19)
(0.912737 0.181713 8.31832e-19)
(1.28597 0.263346 -1.46198e-19)
(1.49638 0.303757 1.81488e-19)
(1.58874 0.314322 -1.69963e-19)
(1.60998 0.307765 5.20756e-19)
(1.59536 0.293226 -8.04123e-20)
(1.56606 0.276086 4.87119e-20)
(1.53271 0.258993 -2.07978e-20)
(1.49981 0.243002 7.44345e-20)