/*--------------------------------*- C++ -*----------------------------------*\
  =========                 |
  \\      /  F ield         | OpenFOAM: The Open Source CFD Toolbox
   \\    /   O peration     | Website:  https://openfoam.org
    \\  /    A nd           | Version:  6.0
     \\/     M anipulation  |
\*---------------------------------------------------------------------------*/
FoamFile
{
    version     2.0;
    format      ascii;
    class       volScalarField;
    location    "22";
    object      p;
}
// * * * * * * * * * * * * * * * * * * * * * * * * * * * * * * * * * * * * * //

dimensions      [0 2 -2 0 0 0 0];

internalField   nonuniform List<scalar> 
12500
(
-0.260938
-0.261748
-0.262305
-0.262728
-0.263091
-0.263401
-0.263668
-0.263903
-0.264113
-0.264303
-0.264478
-0.264642
-0.264797
-0.264947
-0.265094
-0.265241
-0.265391
-0.265545
-0.265707
-0.265879
-0.26607
-0.266279
-0.26645
-0.266554
-0.267163
-0.260999
-0.261806
-0.262362
-0.262784
-0.263144
-0.263451
-0.263715
-0.263947
-0.264153
-0.264339
-0.26451
-0.264669
-0.26482
-0.264966
-0.265108
-0.26525
-0.265395
-0.265544
-0.265701
-0.265868
-0.266054
-0.266259
-0.266426
-0.266525
-0.267131
-0.261131
-0.261935
-0.262487
-0.262905
-0.26326
-0.263562
-0.26382
-0.264045
-0.264244
-0.264422
-0.264585
-0.264736
-0.264879
-0.265015
-0.265148
-0.265281
-0.265416
-0.265556
-0.265703
-0.265861
-0.266038
-0.266235
-0.266394
-0.266484
-0.267086
-0.261335
-0.262134
-0.262681
-0.263093
-0.263441
-0.263734
-0.263983
-0.264197
-0.264385
-0.264552
-0.264703
-0.264842
-0.264971
-0.265094
-0.265213
-0.265332
-0.265452
-0.265577
-0.26571
-0.265854
-0.266018
-0.266203
-0.266351
-0.266427
-0.267022
-0.261611
-0.262404
-0.262944
-0.263347
-0.263685
-0.263967
-0.264203
-0.264404
-0.264577
-0.264729
-0.264863
-0.264985
-0.265096
-0.2652
-0.2653
-0.265399
-0.2655
-0.265605
-0.265718
-0.265843
-0.265989
-0.266157
-0.26629
-0.266349
-0.266935
-0.26196
-0.262745
-0.263276
-0.263668
-0.263993
-0.264261
-0.264481
-0.264664
-0.264818
-0.26495
-0.265064
-0.265163
-0.265252
-0.265332
-0.265407
-0.26548
-0.265555
-0.265635
-0.265722
-0.265822
-0.265944
-0.266091
-0.266205
-0.266241
-0.266816
-0.26238
-0.263156
-0.263677
-0.264056
-0.264366
-0.264616
-0.264816
-0.264978
-0.265109
-0.265217
-0.265304
-0.265376
-0.265436
-0.265487
-0.265531
-0.265572
-0.265615
-0.265661
-0.265716
-0.265785
-0.265877
-0.265997
-0.266086
-0.266094
-0.266656
-0.262874
-0.26364
-0.264149
-0.264513
-0.264804
-0.265033
-0.265209
-0.265345
-0.265449
-0.265527
-0.265584
-0.265623
-0.265649
-0.265663
-0.26567
-0.265672
-0.265674
-0.265681
-0.265696
-0.265725
-0.26578
-0.265866
-0.265923
-0.265899
-0.266445
-0.263443
-0.264198
-0.264692
-0.265038
-0.265308
-0.265512
-0.265661
-0.265767
-0.265839
-0.265883
-0.265903
-0.265904
-0.265889
-0.26586
-0.265822
-0.265778
-0.265732
-0.265689
-0.265655
-0.265636
-0.265645
-0.265689
-0.265708
-0.265643
-0.266172
-0.264088
-0.26483
-0.265308
-0.265634
-0.265879
-0.266054
-0.266172
-0.266244
-0.266279
-0.266284
-0.266263
-0.26622
-0.266157
-0.266079
-0.265988
-0.265889
-0.265786
-0.265684
-0.265591
-0.265513
-0.265466
-0.265458
-0.265429
-0.265317
-0.265824
-0.264812
-0.26554
-0.265999
-0.266301
-0.266518
-0.266661
-0.266744
-0.266778
-0.266772
-0.266733
-0.266665
-0.266572
-0.266457
-0.266322
-0.266171
-0.266007
-0.265837
-0.265666
-0.265502
-0.265353
-0.265237
-0.265165
-0.265077
-0.264907
-0.265388
-0.26562
-0.266331
-0.266768
-0.267043
-0.267228
-0.267335
-0.267378
-0.26737
-0.267319
-0.267232
-0.267113
-0.266965
-0.266791
-0.266593
-0.266374
-0.266138
-0.265891
-0.265639
-0.26539
-0.265156
-0.264956
-0.264805
-0.264643
-0.264402
-0.264852
-0.266514
-0.267205
-0.267617
-0.267861
-0.26801
-0.268077
-0.268077
-0.268022
-0.267923
-0.267784
-0.26761
-0.267403
-0.267165
-0.266899
-0.266605
-0.266288
-0.265954
-0.265608
-0.265262
-0.264926
-0.264625
-0.264376
-0.26412
-0.263789
-0.2642
-0.267499
-0.268166
-0.268549
-0.268758
-0.268866
-0.268889
-0.268842
-0.268738
-0.268586
-0.268392
-0.26816
-0.267891
-0.267586
-0.267246
-0.266873
-0.266468
-0.266037
-0.265586
-0.265126
-0.264671
-0.264247
-0.263877
-0.263502
-0.263058
-0.263416
-0.268582
-0.269219
-0.269567
-0.269737
-0.2698
-0.269774
-0.269676
-0.269518
-0.269311
-0.26906
-0.268768
-0.268435
-0.268061
-0.267645
-0.267187
-0.266689
-0.266153
-0.265586
-0.264998
-0.264404
-0.263833
-0.263313
-0.262789
-0.262196
-0.262479
-0.269767
-0.270368
-0.270676
-0.2708
-0.270813
-0.270733
-0.270579
-0.270365
-0.2701
-0.26979
-0.269436
-0.269038
-0.268594
-0.268102
-0.267559
-0.266963
-0.266317
-0.265625
-0.264894
-0.264141
-0.263397
-0.262694
-0.261979
-0.26119
-0.261367
-0.271059
-0.271617
-0.271879
-0.27195
-0.271907
-0.271768
-0.271554
-0.271279
-0.270954
-0.270582
-0.270166
-0.269703
-0.26919
-0.268622
-0.267994
-0.267302
-0.266543
-0.265719
-0.264835
-0.263904
-0.262958
-0.262035
-0.261079
-0.260031
-0.26005
-0.272466
-0.272972
-0.273179
-0.273192
-0.273084
-0.27288
-0.2726
-0.27226
-0.27187
-0.271435
-0.270956
-0.270429
-0.269848
-0.269208
-0.268498
-0.267711
-0.26684
-0.265882
-0.264836
-0.263712
-0.262538
-0.261353
-0.260098
-0.25871
-0.258497
-0.273994
-0.274438
-0.274582
-0.274527
-0.274348
-0.27407
-0.273717
-0.273305
-0.272847
-0.272345
-0.271801
-0.27121
-0.270564
-0.269853
-0.269065
-0.268189
-0.26721
-0.26612
-0.26491
-0.263581
-0.262157
-0.26067
-0.259051
-0.257221
-0.256671
-0.275649
-0.276021
-0.276093
-0.275961
-0.2757
-0.275339
-0.274904
-0.274414
-0.27388
-0.273307
-0.272695
-0.272038
-0.271326
-0.270548
-0.269687
-0.268726
-0.267647
-0.266431
-0.265061
-0.263524
-0.261833
-0.26001
-0.257963
-0.255572
-0.254538
-0.277439
-0.277729
-0.277717
-0.277497
-0.277143
-0.276689
-0.276162
-0.275584
-0.274966
-0.274315
-0.273629
-0.272902
-0.272124
-0.271278
-0.270348
-0.26931
-0.268139
-0.266808
-0.265289
-0.263552
-0.261591
-0.259412
-0.256884
-0.253808
-0.252099
-0.279374
-0.27957
-0.279462
-0.279142
-0.278683
-0.278122
-0.277492
-0.276813
-0.276102
-0.275362
-0.274595
-0.273792
-0.272943
-0.272031
-0.271033
-0.269925
-0.268675
-0.267248
-0.265602
-0.263692
-0.261485
-0.258962
-0.255946
-0.252098
-0.249479
-0.281464
-0.281553
-0.281338
-0.280904
-0.280325
-0.279644
-0.278895
-0.278104
-0.277286
-0.276447
-0.275588
-0.274703
-0.273777
-0.272796
-0.271735
-0.270567
-0.269257
-0.267762
-0.26603
-0.263997
-0.261598
-0.258782
-0.255305
-0.250592
-0.246669
-0.283723
-0.283693
-0.283356
-0.282792
-0.282078
-0.281261
-0.28038
-0.279461
-0.278523
-0.277573
-0.276612
-0.275634
-0.274628
-0.273578
-0.272461
-0.271253
-0.269918
-0.268413
-0.266679
-0.264632
-0.262171
-0.259165
-0.255207
-0.249257
-0.243159
-0.286168
-0.286004
-0.285529
-0.284821
-0.283955
-0.282986
-0.281956
-0.280896
-0.279823
-0.278749
-0.277675
-0.276598
-0.275509
-0.274394
-0.273238
-0.272024
-0.270729
-0.269329
-0.26779
-0.26606
-0.264067
-0.261666
-0.258282
-0.252452
-0.245558
-0.288818
-0.288503
-0.287874
-0.287005
-0.285971
-0.284834
-0.28364
-0.282422
-0.281203
-0.279993
-0.278798
-0.277616
-0.276442
-0.27527
-0.274093
-0.27291
-0.271726
-0.270557
-0.269442
-0.268462
-0.267775
-0.267643
-0.268456
-0.271882
-0.284384
-0.291698
-0.291213
-0.290412
-0.289363
-0.288144
-0.286823
-0.28545
-0.284063
-0.282685
-0.281331
-0.280007
-0.278716
-0.277458
-0.276233
-0.275047
-0.273914
-0.272861
-0.271939
-0.271237
-0.270899
-0.271165
-0.272395
-0.275084
-0.280632
-0.29374
-0.294833
-0.294157
-0.293164
-0.291919
-0.290498
-0.288976
-0.287411
-0.285843
-0.284298
-0.282792
-0.281335
-0.279933
-0.278592
-0.277318
-0.276128
-0.275047
-0.274121
-0.273422
-0.273059
-0.273193
-0.274061
-0.275983
-0.27933
-0.284857
-0.295709
-0.298251
-0.297359
-0.296155
-0.294694
-0.293055
-0.29132
-0.289552
-0.287793
-0.286073
-0.284411
-0.282818
-0.281304
-0.279879
-0.278555
-0.277356
-0.276315
-0.275487
-0.274949
-0.274809
-0.275215
-0.276357
-0.278467
-0.28177
-0.28659
-0.295039
-0.301984
-0.300848
-0.29941
-0.297717
-0.295844
-0.293883
-0.291902
-0.289945
-0.288045
-0.286223
-0.284491
-0.282863
-0.281349
-0.279967
-0.278741
-0.27771
-0.276926
-0.27646
-0.276405
-0.276873
-0.277997
-0.279915
-0.282732
-0.286517
-0.292635
-0.306062
-0.304651
-0.302956
-0.301013
-0.298893
-0.296695
-0.294492
-0.292332
-0.290248
-0.288261
-0.286387
-0.284636
-0.283023
-0.281564
-0.280283
-0.279214
-0.278403
-0.277906
-0.277793
-0.278139
-0.279018
-0.280498
-0.282603
-0.285275
-0.289341
-0.310514
-0.308795
-0.30682
-0.304611
-0.302229
-0.299785
-0.297354
-0.294985
-0.292712
-0.290555
-0.288529
-0.286645
-0.284912
-0.283346
-0.281966
-0.280799
-0.279879
-0.279246
-0.278944
-0.279014
-0.27949
-0.280389
-0.281692
-0.283286
-0.285637
-0.31537
-0.313306
-0.311029
-0.308536
-0.305882
-0.303182
-0.300517
-0.297933
-0.295464
-0.293129
-0.290937
-0.288897
-0.287015
-0.285301
-0.283766
-0.28243
-0.281315
-0.280443
-0.279838
-0.279518
-0.279487
-0.279736
-0.28023
-0.280843
-0.281818
-0.320654
-0.318209
-0.315605
-0.312814
-0.309876
-0.306914
-0.304007
-0.301202
-0.298527
-0.295998
-0.293619
-0.291392
-0.289319
-0.287403
-0.285649
-0.284067
-0.282668
-0.281464
-0.280463
-0.279667
-0.27907
-0.278652
-0.278374
-0.278121
-0.278017
-0.326385
-0.323522
-0.32057
-0.317467
-0.314236
-0.311003
-0.307847
-0.30481
-0.301914
-0.299167
-0.296569
-0.294114
-0.291798
-0.289617
-0.28757
-0.285661
-0.283895
-0.282275
-0.280803
-0.279477
-0.278286
-0.277209
-0.276217
-0.27521
-0.274263
-0.33258
-0.329262
-0.325941
-0.322514
-0.318981
-0.315469
-0.312054
-0.308769
-0.305629
-0.302633
-0.299772
-0.297036
-0.294412
-0.291893
-0.289476
-0.28716
-0.284948
-0.282842
-0.280845
-0.278953
-0.277159
-0.275449
-0.273803
-0.272139
-0.270521
-0.339246
-0.335438
-0.33173
-0.32797
-0.324126
-0.320325
-0.316635
-0.313081
-0.309664
-0.306375
-0.303198
-0.300114
-0.297109
-0.294174
-0.291306
-0.288507
-0.285781
-0.283134
-0.280571
-0.278095
-0.275702
-0.273389
-0.271145
-0.268902
-0.266728
-0.346383
-0.342054
-0.337943
-0.33384
-0.329677
-0.325575
-0.321591
-0.317735
-0.313999
-0.310362
-0.3068
-0.303293
-0.299826
-0.296395
-0.292999
-0.289647
-0.286349
-0.283118
-0.279964
-0.276897
-0.27392
-0.271035
-0.268238
-0.265474
-0.262819
-0.353981
-0.349103
-0.344578
-0.340126
-0.335634
-0.331212
-0.326906
-0.322708
-0.318597
-0.314542
-0.310518
-0.306505
-0.302493
-0.298484
-0.294488
-0.290523
-0.286609
-0.282764
-0.279007
-0.275352
-0.271808
-0.268381
-0.265071
-0.26183
-0.25874
-0.362021
-0.356572
-0.351623
-0.346816
-0.341983
-0.33722
-0.332553
-0.32796
-0.323404
-0.318853
-0.31428
-0.309671
-0.305029
-0.300368
-0.29571
-0.291085
-0.286522
-0.282048
-0.277686
-0.273454
-0.269364
-0.265422
-0.261631
-0.257947
-0.254452
-0.37047
-0.364435
-0.359058
-0.35389
-0.348699
-0.343563
-0.338488
-0.333433
-0.328353
-0.323215
-0.318
-0.312707
-0.307355
-0.301975
-0.296605
-0.291285
-0.286054
-0.280946
-0.275986
-0.271193
-0.26658
-0.262152
-0.257909
-0.253807
-0.249931
-0.379284
-0.372651
-0.366846
-0.361311
-0.355742
-0.350194
-0.344649
-0.339053
-0.333358
-0.327536
-0.321584
-0.315522
-0.309389
-0.303235
-0.297114
-0.291079
-0.285174
-0.279437
-0.273894
-0.268563
-0.263451
-0.258564
-0.253895
-0.249399
-0.245161
-0.388401
-0.38117
-0.374938
-0.369028
-0.363054
-0.357042
-0.350956
-0.344729
-0.338318
-0.331712
-0.324932
-0.318023
-0.311049
-0.304081
-0.297187
-0.290429
-0.283856
-0.277505
-0.271399
-0.265553
-0.25997
-0.254649
-0.24958
-0.244713
-0.240134
-0.397746
-0.389924
-0.38327
-0.376973
-0.370559
-0.364022
-0.357309
-0.350352
-0.343123
-0.335635
-0.327941
-0.32012
-0.31226
-0.304451
-0.296776
-0.2893
-0.282073
-0.275128
-0.268486
-0.262152
-0.256126
-0.250399
-0.244955
-0.239739
-0.234842
-0.407227
-0.398828
-0.39176
-0.385061
-0.378162
-0.371027
-0.363594
-0.355802
-0.34765
-0.339188
-0.330509
-0.321723
-0.312948
-0.304289
-0.295837
-0.287658
-0.2798
-0.27229
-0.265139
-0.258348
-0.251907
-0.245802
-0.24001
-0.234468
-0.229279
-0.416737
-0.407784
-0.400308
-0.393188
-0.38575
-0.377935
-0.36968
-0.360947
-0.351773
-0.342257
-0.332533
-0.32275
-0.313046
-0.303541
-0.294328
-0.285472
-0.277013
-0.268968
-0.261342
-0.254124
-0.247298
-0.240844
-0.234731
-0.228887
-0.223433
-0.42615
-0.416674
-0.408799
-0.40123
-0.393192
-0.384606
-0.375424
-0.365646
-0.355362
-0.344725
-0.333917
-0.323119
-0.312491
-0.302158
-0.292212
-0.282711
-0.273685
-0.265142
-0.257073
-0.249462
-0.242282
-0.235508
-0.229103
-0.222983
-0.217292
-0.435327
-0.425365
-0.4171
-0.409049
-0.40034
-0.390889
-0.380677
-0.369758
-0.358289
-0.346483
-0.334569
-0.322758
-0.311223
-0.300092
-0.28945
-0.279343
-0.26979
-0.260786
-0.252312
-0.24434
-0.236839
-0.229776
-0.223107
-0.216738
-0.210843
-0.444113
-0.433712
-0.425062
-0.41649
-0.407035
-0.396622
-0.385281
-0.373139
-0.360427
-0.347424
-0.334403
-0.321598
-0.309189
-0.2973
-0.286005
-0.275337
-0.265299
-0.255874
-0.247033
-0.238737
-0.230948
-0.223629
-0.216725
-0.210136
-0.204066
-0.452343
-0.441553
-0.432522
-0.423385
-0.413106
-0.401636
-0.389078
-0.375647
-0.361657
-0.34745
-0.333339
-0.319575
-0.306337
-0.29374
-0.281843
-0.270662
-0.260185
-0.250382
-0.241212
-0.232629
-0.224587
-0.217043
-0.209937
-0.203155
-0.196945
-0.459841
-0.448717
-0.439308
-0.429558
-0.418375
-0.405763
-0.391915
-0.377149
-0.361866
-0.34647
-0.331305
-0.31663
-0.302619
-0.289371
-0.276927
-0.265285
-0.254417
-0.24428
-0.234824
-0.225992
-0.217733
-0.209999
-0.202721
-0.195778
-0.189461
-0.466423
-0.455024
-0.445237
-0.434823
-0.422662
-0.408832
-0.39364
-0.377517
-0.360951
-0.344401
-0.328234
-0.31271
-0.297991
-0.284156
-0.271224
-0.259175
-0.247968
-0.237544
-0.227843
-0.218802
-0.210364
-0.202476
-0.195059
-0.187986
-0.181596
-0.471901
-0.460288
-0.450122
-0.438996
-0.425789
-0.410682
-0.394114
-0.376633
-0.358816
-0.341167
-0.324066
-0.307768
-0.292412
-0.278058
-0.264701
-0.252305
-0.24081
-0.230147
-0.220247
-0.211038
-0.202459
-0.194453
-0.186931
-0.17976
-0.173333
-0.476088
-0.464325
-0.453778
-0.441893
-0.427583
-0.411159
-0.393205
-0.374394
-0.35538
-0.336703
-0.31875
-0.301758
-0.285845
-0.271044
-0.257329
-0.244645
-0.232917
-0.222066
-0.212012
-0.202679
-0.193999
-0.185913
-0.178322
-0.171086
-0.164657
-0.478799
-0.46695
-0.456019
-0.443334
-0.42788
-0.41012
-0.390797
-0.370705
-0.350568
-0.330952
-0.312238
-0.294643
-0.278256
-0.263084
-0.249081
-0.236171
-0.224267
-0.213279
-0.20312
-0.193706
-0.184968
-0.17684
-0.169216
-0.161951
-0.155555
-0.479856
-0.467984
-0.456668
-0.443153
-0.42653
-0.407439
-0.386788
-0.365486
-0.344319
-0.323866
-0.304492
-0.286389
-0.269616
-0.254154
-0.239933
-0.226862
-0.21484
-0.203769
-0.193553
-0.184106
-0.175351
-0.167223
-0.159603
-0.152344
-0.146017
-0.47909
-0.467257
-0.45556
-0.441192
-0.423395
-0.403002
-0.381089
-0.358672
-0.336583
-0.315405
-0.29548
-0.276969
-0.259901
-0.244229
-0.229864
-0.216698
-0.204619
-0.19352
-0.183299
-0.173865
-0.16514
-0.157052
-0.149475
-0.142259
-0.136038
-0.476347
-0.464615
-0.452541
-0.437313
-0.418359
-0.396718
-0.37363
-0.35021
-0.327321
-0.305538
-0.285177
-0.266362
-0.249092
-0.233294
-0.218859
-0.205666
-0.193591
-0.182521
-0.172348
-0.162977
-0.154326
-0.146323
-0.138828
-0.131693
-0.125615
-0.471487
-0.459915
-0.447477
-0.431397
-0.411322
-0.38851
-0.364357
-0.34006
-0.316505
-0.294246
-0.273566
-0.254553
-0.237176
-0.221337
-0.206908
-0.193756
-0.181749
-0.170766
-0.160695
-0.151437
-0.142909
-0.135033
-0.127661
-0.120647
-0.114749
-0.464392
-0.453037
-0.440253
-0.423343
-0.402208
-0.378322
-0.353232
-0.3282
-0.304118
-0.281516
-0.260637
-0.241535
-0.224146
-0.20835
-0.194005
-0.180964
-0.169089
-0.158253
-0.148339
-0.139245
-0.130888
-0.123185
-0.11598
-0.109126
-0.103445
-0.454962
-0.44388
-0.430774
-0.413075
-0.390959
-0.366119
-0.340233
-0.314617
-0.290155
-0.267345
-0.246389
-0.227304
-0.209999
-0.194333
-0.180149
-0.16729
-0.155612
-0.144983
-0.135282
-0.126406
-0.118269
-0.110787
-0.103792
-0.097141
-0.0917145
-0.443122
-0.432367
-0.418973
-0.400541
-0.377543
-0.351884
-0.325357
-0.299314
-0.274623
-0.25174
-0.230829
-0.211869
-0.194743
-0.179291
-0.165345
-0.152739
-0.141324
-0.130962
-0.121533
-0.112928
-0.105063
-0.0978495
-0.0911099
-0.0847058
-0.0795709
-0.428822
-0.418445
-0.404804
-0.385711
-0.361949
-0.335619
-0.308616
-0.282308
-0.257538
-0.234719
-0.213971
-0.195241
-0.178387
-0.163235
-0.149603
-0.137321
-0.126233
-0.116201
-0.107101
-0.0988235
-0.0912824
-0.0843868
-0.0779508
-0.071839
-0.0670333
-0.412037
-0.402087
-0.38825
-0.368582
-0.344187
-0.317348
-0.290037
-0.263629
-0.238929
-0.216306
-0.195838
-0.177441
-0.160951
-0.146179
-0.132937
-0.121048
-0.110354
-0.100714
-0.0920006
-0.0841064
-0.0769431
-0.0704172
-0.0643348
-0.0585631
-0.0541243
-0.392767
-0.383293
-0.369316
-0.349174
-0.324289
-0.297108
-0.269664
-0.243318
-0.218836
-0.196538
-0.176463
-0.158496
-0.142458
-0.128147
-0.115368
-0.103941
-0.0937038
-0.0845155
-0.076249
-0.0687944
-0.0620639
-0.0559613
-0.0502855
-0.0449047
-0.0408707
-0.37104
-0.362087
-0.348035
-0.327531
-0.302309
-0.27496
-0.247554
-0.221431
-0.197309
-0.17546
-0.155884
-0.138443
-0.12294
-0.109166
-0.0969189
-0.086018
-0.0763011
-0.0676252
-0.0598633
-0.0529059
-0.0466649
-0.0410419
-0.0358295
-0.0308946
-0.0273058
-0.346908
-0.33852
-0.324465
-0.30372
-0.27832
-0.250977
-0.22378
-0.198036
-0.174409
-0.153125
-0.134151
-0.117323
-0.102434
-0.0892665
-0.0776177
-0.067305
-0.0581669
-0.050061
-0.0428612
-0.0364584
-0.0307649
-0.0256809
-0.020994
-0.0165676
-0.013472
-0.320449
-0.312669
-0.298687
-0.277827
-0.252413
-0.225251
-0.198429
-0.173211
-0.150209
-0.129601
-0.11132
-0.095188
-0.0809838
-0.0684877
-0.0574962
-0.0478278
-0.0393227
-0.0318408
-0.0252578
-0.0194661
-0.0143792
-0.0098964
-0.00580403
-0.00195981
0.000585396
-0.291765
-0.284632
-0.270805
-0.249963
-0.224699
-0.197887
-0.171601
-0.147051
-0.124793
-0.104961
-0.0874604
-0.072096
-0.0586407
-0.0468727
-0.0365901
-0.0276143
-0.0197896
-0.0129794
-0.00706313
-0.00193641
0.00248562
0.00630171
0.00972199
0.0128977
0.0148378
-0.26098
-0.254532
-0.240944
-0.220255
-0.195303
-0.169008
-0.143408
-0.119657
-0.0982538
-0.0792903
-0.0626472
-0.0481155
-0.0354639
-0.0244714
-0.0149395
-0.00669473
0.00041293
0.00651379
0.0117224
0.0161375
0.01984
0.0229227
0.0255858
0.0280006
0.029296
-0.22824
-0.222511
-0.209248
-0.188848
-0.164367
-0.138747
-0.113976
-0.0911461
-0.0706983
-0.0526863
-0.0369682
-0.0233247
-0.0115223
-0.00134243
0.00740828
0.0148964
0.0212641
0.0266329
0.0311082
0.0347795
0.0377195
0.0400101
0.0418343
0.0433916
0.0439753
-0.19371
-0.188732
-0.175879
-0.155901
-0.132046
-0.10725
-0.0834414
-0.0616435
-0.0422427
-0.0252561
-0.010522
0.00218674
0.0131041
0.022445
0.0303961
0.0371159
0.0427364
0.047368
0.051102
0.0540135
0.0561633
0.0576182
0.0585232
0.0590655
0.0586981
-0.157571
-0.153373
-0.141015
-0.12159
-0.0985068
-0.074674
-0.0519501
-0.031286
-0.0130142
0.0028819
0.0165812
0.028317
0.0383228
0.0468092
0.0539561
0.0599126
0.0647992
0.0687106
0.0717172
0.0738699
0.075212
0.0757811
0.0756078
0.0747343
0.0728945
-0.120019
-0.116626
-0.104846
-0.0860991
-0.0639256
-0.0411862
-0.0196582
-0.000219386
0.0168501
0.0315981
0.0442186
0.0549501
0.0640257
0.0716523
0.0780048
0.0832252
0.0874244
0.0906815
0.0930409
0.0945222
0.095141
0.0948557
0.0934004
0.0904758
0.0866629
-0.0812631
-0.0786974
-0.0675738
-0.0496238
-0.0284881
-0.00696041
0.0132712
0.0314028
0.0472046
0.0607531
0.0722555
0.0819547
0.0900838
0.0968486
0.102423
0.106948
0.110536
0.113266
0.115178
0.116295
0.116644
0.116095
0.113943
0.109497
0.104803
-0.0415248
-0.0398031
-0.0294097
-0.0123665
0.00761436
0.0278238
0.0466694
0.0634212
0.0778972
0.0901998
0.100547
0.109186
0.116349
0.122241
0.127038
0.130885
0.133906
0.136197
0.137834
0.138912
0.139578
0.139788
0.138674
0.135718
0.137929
-0.00102355
-0.000161344
0.0094322
0.0254667
0.0441868
0.0629834
0.0803646
0.0956732
0.108773
0.119788
0.128946
0.136495
0.142667
0.147665
0.151663
0.15481
0.157232
0.159034
0.160313
0.16119
0.161825
0.162203
0.161835
0.161141
0.165586
0.0400071
0.039999
0.0487301
0.0636645
0.0810308
0.0983332
0.114183
0.127995
0.139675
0.149367
0.157305
0.163736
0.16889
0.172968
0.17614
0.178556
0.180341
0.181607
0.182456
0.18301
0.18341
0.183632
0.183331
0.182993
0.186937
0.0813322
0.0804475
0.0882609
0.102015
0.117948
0.133688
0.147953
0.160226
0.17045
0.178789
0.18548
0.190769
0.194879
0.198006
0.200319
0.20196
0.203056
0.203713
0.204032
0.20413
0.204131
0.204018
0.203499
0.202968
0.205974
0.122716
0.120953
0.127802
0.140308
0.154742
0.168866
0.181503
0.192204
0.200949
0.207913
0.213337
0.217461
0.220505
0.222657
0.224079
0.224908
0.225264
0.225248
0.224954
0.224486
0.223948
0.223316
0.22232
0.221329
0.223437
0.163924
0.161284
0.16713
0.178334
0.191218
0.203686
0.214667
0.223776
0.231026
0.236602
0.240746
0.243692
0.245654
0.246811
0.247318
0.247305
0.246883
0.246147
0.245181
0.244078
0.242925
0.241684
0.240108
0.238561
0.239799
0.204723
0.201214
0.206027
0.215886
0.227185
0.237972
0.247282
0.254791
0.26054
0.264725
0.267585
0.269349
0.27022
0.270371
0.269948
0.269073
0.267849
0.266362
0.264688
0.262908
0.261096
0.259202
0.257005
0.254875
0.255281
0.244885
0.240517
0.244278
0.252765
0.262458
0.271554
0.279191
0.285104
0.289358
0.292159
0.29374
0.294324
0.294107
0.293251
0.291893
0.290148
0.28811
0.285858
0.28346
0.280986
0.278497
0.275941
0.273119
0.270406
0.270013
0.284186
0.278975
0.281675
0.288775
0.296856
0.304265
0.310241
0.314574
0.317351
0.318783
0.319101
0.318519
0.317223
0.315368
0.313082
0.31047
0.30762
0.304602
0.301477
0.298308
0.295145
0.291933
0.288499
0.285216
0.284057
0.322409
0.316375
0.318014
0.323727
0.330205
0.335946
0.340287
0.343067
0.344396
0.344486
0.343565
0.341839
0.339485
0.336647
0.333447
0.329981
0.32633
0.322557
0.318716
0.314863
0.311039
0.307191
0.303168
0.299332
0.297438
0.359345
0.352513
0.3531
0.357439
0.362339
0.366445
0.369188
0.370454
0.370373
0.369158
0.367033
0.364194
0.360809
0.357015
0.352924
0.348626
0.344193
0.339684
0.335147
0.33063
0.326167
0.321708
0.317122
0.312757
0.310157
0.394793
0.387192
0.386747
0.389738
0.393097
0.395614
0.39681
0.396613
0.39517
0.392697
0.389408
0.385495
0.381116
0.376399
0.371448
0.366347
0.361161
0.355942
0.350734
0.345579
0.340506
0.335465
0.330347
0.325475
0.3222
0.428561
0.420224
0.418777
0.420459
0.422328
0.423316
0.423025
0.421427
0.41868
0.415002
0.410602
0.405661
0.40033
0.39473
0.388957
0.383088
0.377182
0.371287
0.365439
0.359677
0.354024
0.348434
0.342815
0.337464
0.333546
0.460468
0.451434
0.449022
0.449446
0.44989
0.449419
0.447715
0.444785
0.440801
0.435981
0.430526
0.424612
0.41838
0.411943
0.405391
0.398795
0.392207
0.385672
0.379221
0.372886
0.366688
0.360584
0.354498
0.348695
0.344166
0.490344
0.480653
0.477325
0.476553
0.475648
0.4738
0.470764
0.466582
0.461437
0.455544
0.4491
0.442272
0.435194
0.427972
0.42069
0.413412
0.406186
0.399051
0.392036
0.385167
0.37846
0.371879
0.36536
0.359134
0.354032
0.518029
0.507728
0.503538
0.501644
0.499476
0.496344
0.492069
0.486723
0.480498
0.473609
0.466246
0.45857
0.450707
0.442757
0.434797
0.426887
0.41907
0.41138
0.403843
0.39648
0.389305
0.382284
0.375367
0.36875
0.363114
0.543377
0.532516
0.527527
0.524594
0.521261
0.516946
0.511531
0.505116
0.497901
0.490098
0.481893
0.473439
0.464857
0.45624
0.447659
0.43917
0.430812
0.422615
0.4146
0.406787
0.399184
0.391764
0.384485
0.377509
0.371381
0.566255
0.554886
0.549169
0.545289
0.540897
0.535508
0.529062
0.521681
0.51357
0.504941
0.495975
0.486819
0.477587
0.468367
0.459227
0.450215
0.441369
0.432714
0.42427
0.41605
0.408063
0.400284
0.392682
0.385381
0.378806
0.586542
0.574722
0.568353
0.563626
0.558289
0.551945
0.544582
0.536341
0.527436
0.518074
0.508432
0.498653
0.488844
0.47909
0.469453
0.459979
0.4507
0.44164
0.432815
0.424236
0.415909
0.407814
0.399925
0.392336
0.385363
0.604132
0.59192
0.584981
0.579515
0.573354
0.56618
0.558019
0.549032
0.539437
0.529439
0.519211
0.508891
0.498583
0.488366
0.478298
0.468423
0.458769
0.449358
0.440203
0.431314
0.422692
0.414324
0.406188
0.398349
0.391028
0.618932
0.60639
0.598968
0.592877
0.58602
0.578145
0.569312
0.559697
0.54952
0.538987
0.528267
0.517491
0.506763
0.496156
0.485725
0.475512
0.465544
0.455838
0.446406
0.437255
0.428386
0.419788
0.411446
0.403395
0.395781
0.630867
0.618057
0.610244
0.603647
0.596227
0.587785
0.57841
0.568287
0.557642
0.546676
0.535558
0.524416
0.513348
0.502427
0.491705
0.481219
0.470997
0.461053
0.451398
0.442036
0.432969
0.424187
0.415678
0.407457
0.399605
0.639873
0.626861
0.618752
0.61177
0.603925
0.595055
0.58527
0.574764
0.563765
0.552473
0.541055
0.529636
0.518312
0.507153
0.496211
0.48552
0.475106
0.464983
0.455159
0.445639
0.436422
0.427501
0.418866
0.410516
0.402485
0.645903
0.632756
0.624448
0.617209
0.609078
0.59992
0.589861
0.579099
0.567862
0.556352
0.544733
0.533128
0.521633
0.510315
0.499225
0.488398
0.477855
0.467612
0.457676
0.448049
0.438731
0.429718
0.420999
0.412563
0.40441
0.648926
0.635711
0.627304
0.619935
0.611661
0.602359
0.592161
0.581271
0.569915
0.558296
0.546576
0.534878
0.523297
0.5119
0.500736
0.489839
0.479232
0.468929
0.458936
0.449256
0.439888
0.430828
0.422068
0.413588
0.405375
0.648927
0.635712
0.627304
0.619936
0.611661
0.60236
0.592162
0.581271
0.569915
0.558296
0.546576
0.534878
0.523297
0.5119
0.500736
0.489839
0.479232
0.468928
0.458936
0.449256
0.439888
0.430828
0.422067
0.413587
0.405374
0.645906
0.632758
0.62445
0.617211
0.609079
0.599922
0.589861
0.579099
0.567862
0.556353
0.544733
0.533128
0.521632
0.510315
0.499225
0.488396
0.477854
0.46761
0.457674
0.448048
0.43873
0.429716
0.420997
0.412561
0.404408
0.639877
0.626864
0.618755
0.611773
0.603927
0.595057
0.585271
0.574765
0.563765
0.552474
0.541055
0.529635
0.518311
0.507152
0.496209
0.485519
0.475104
0.464981
0.455157
0.445637
0.436419
0.427498
0.418863
0.410513
0.402482
0.630872
0.618061
0.610249
0.60365
0.59623
0.587787
0.578411
0.568288
0.557642
0.546676
0.535558
0.524415
0.513347
0.502425
0.491702
0.481217
0.470994
0.46105
0.451394
0.442032
0.432965
0.424183
0.415673
0.407452
0.3996
0.618939
0.606395
0.598973
0.592881
0.586024
0.578148
0.569314
0.559698
0.549521
0.538987
0.528266
0.51749
0.50676
0.496153
0.485722
0.475509
0.46554
0.455833
0.446401
0.43725
0.428381
0.419783
0.41144
0.403389
0.395775
0.604139
0.591926
0.584986
0.57952
0.573358
0.566183
0.558021
0.549033
0.539437
0.529438
0.51921
0.508889
0.49858
0.488362
0.478294
0.468418
0.458764
0.449353
0.440197
0.431307
0.422685
0.414317
0.406181
0.398341
0.391021
0.586549
0.574728
0.568358
0.563631
0.558293
0.551948
0.544584
0.536342
0.527435
0.518072
0.50843
0.49865
0.48884
0.479086
0.469448
0.459973
0.450694
0.441633
0.432808
0.424229
0.4159
0.407805
0.399916
0.392327
0.385354
0.566262
0.554893
0.549174
0.545294
0.5409
0.535511
0.529064
0.521681
0.513569
0.504939
0.495972
0.486814
0.477582
0.468361
0.45922
0.450208
0.441361
0.432706
0.424261
0.416041
0.408053
0.400274
0.392671
0.38537
0.378795
0.543384
0.532522
0.527532
0.524598
0.521264
0.516947
0.511532
0.505115
0.497899
0.490095
0.481889
0.473434
0.46485
0.456233
0.447652
0.439162
0.430803
0.422605
0.41459
0.406776
0.399172
0.391752
0.384473
0.377496
0.371369
0.518035
0.507733
0.503541
0.501646
0.499478
0.496344
0.492068
0.486721
0.480495
0.473604
0.46624
0.458563
0.450699
0.442748
0.434788
0.426876
0.419059
0.411368
0.40383
0.396467
0.389291
0.38227
0.375353
0.368735
0.363099
0.490348
0.480656
0.477326
0.476553
0.475647
0.473798
0.470762
0.466578
0.461432
0.455537
0.449092
0.442263
0.435184
0.427961
0.420678
0.413399
0.406173
0.399037
0.392021
0.385152
0.378445
0.371863
0.365343
0.359117
0.354016
0.46047
0.451434
0.449021
0.449444
0.449888
0.449415
0.44771
0.444778
0.440794
0.435972
0.430516
0.424601
0.418368
0.41193
0.405377
0.39878
0.392192
0.385655
0.379204
0.372869
0.36667
0.360565
0.354479
0.348675
0.344147
0.42856
0.420221
0.418773
0.420454
0.422323
0.42331
0.423018
0.421418
0.41867
0.414991
0.410589
0.405648
0.400316
0.394715
0.388941
0.383071
0.377164
0.371268
0.36542
0.359657
0.354004
0.348413
0.342794
0.337443
0.333524
0.394788
0.387185
0.38674
0.38973
0.393088
0.395605
0.396799
0.396601
0.395157
0.392682
0.389393
0.385479
0.381098
0.37638
0.371429
0.366326
0.36114
0.355921
0.350712
0.345557
0.340483
0.335441
0.330323
0.325451
0.322176
0.359336
0.352502
0.353088
0.357426
0.362326
0.366431
0.369173
0.370438
0.370356
0.369141
0.367014
0.364174
0.360788
0.356993
0.352901
0.348602
0.344169
0.33966
0.335122
0.330604
0.326141
0.321681
0.317095
0.312729
0.31013
0.322394
0.316358
0.317996
0.323709
0.330187
0.335928
0.340268
0.343047
0.344375
0.344464
0.343543
0.341816
0.33946
0.336622
0.333421
0.329954
0.326302
0.322529
0.318687
0.314834
0.31101
0.307161
0.303138
0.299302
0.297408
0.284165
0.278952
0.281651
0.288752
0.296833
0.304242
0.310218
0.314549
0.317326
0.318757
0.319074
0.318492
0.317195
0.315339
0.313052
0.310439
0.307588
0.30457
0.301445
0.298275
0.295112
0.2919
0.288466
0.285182
0.284024
0.244857
0.240486
0.244248
0.252736
0.262429
0.271525
0.279162
0.285074
0.289328
0.292128
0.293708
0.294292
0.294073
0.293217
0.291859
0.290113
0.288075
0.285822
0.283423
0.280949
0.27846
0.275903
0.273081
0.270368
0.269976
0.204687
0.201175
0.205989
0.215849
0.227149
0.237937
0.247247
0.254756
0.260504
0.264689
0.267548
0.269311
0.270182
0.270332
0.269909
0.269033
0.267809
0.266321
0.264647
0.262867
0.261054
0.259161
0.256963
0.254833
0.25524
0.163879
0.161237
0.167083
0.178289
0.191175
0.203643
0.214625
0.223734
0.230983
0.23656
0.240703
0.243649
0.24561
0.246767
0.247273
0.24726
0.246838
0.246101
0.245136
0.244032
0.242879
0.241638
0.240061
0.238515
0.239754
0.122661
0.120896
0.127746
0.140254
0.15469
0.168815
0.181453
0.192155
0.2009
0.207864
0.213288
0.217412
0.220456
0.222607
0.224029
0.224858
0.225214
0.225197
0.224903
0.224435
0.223897
0.223264
0.222269
0.221278
0.223387
0.0812665
0.08038
0.0881947
0.101952
0.117887
0.133629
0.147895
0.160169
0.170394
0.178733
0.185424
0.190713
0.194823
0.19795
0.200263
0.201904
0.202999
0.203656
0.203976
0.204074
0.204075
0.203962
0.203443
0.202911
0.205919
0.03993
0.0399202
0.0486529
0.0635904
0.0809599
0.0982648
0.114117
0.12793
0.139611
0.149303
0.157242
0.163674
0.168828
0.172905
0.176078
0.178493
0.180279
0.181545
0.182394