/*--------------------------------*- C++ -*----------------------------------*\
  =========                 |
  \\      /  F ield         | OpenFOAM: The Open Source CFD Toolbox
   \\    /   O peration     | Website:  https://openfoam.org
    \\  /    A nd           | Version:  6.0
     \\/     M anipulation  |
\*---------------------------------------------------------------------------*/
FoamFile
{
    version     2.0;
    format      ascii;
    class       surfaceScalarField;
    location    "22";
    object      phi;
}
// * * * * * * * * * * * * * * * * * * * * * * * * * * * * * * * * * * * * * //

dimensions      [0 3 -1 0 0 0 0];

internalField   nonuniform List<scalar> 
24700
(
-1.36257e-06
1.21258e-06
1.49982e-07
-4.94592e-06
3.20683e-06
3.76528e-07
-1.0326e-05
4.83399e-06
5.46043e-07
-1.71364e-05
6.14028e-06
6.70188e-07
-2.50654e-05
7.17033e-06
7.58618e-07
-3.38514e-05
7.96667e-06
8.19409e-07
-4.32799e-05
8.5692e-06
8.59249e-07
-5.31785e-05
9.01497e-06
8.83609e-07
-6.34135e-05
9.3381e-06
8.96911e-07
-7.38861e-05
9.56989e-06
9.0267e-07
-8.45286e-05
9.73894e-06
9.03629e-07
-9.53017e-05
9.87122e-06
9.01878e-07
-0.000106191
9.99022e-06
8.98962e-07
-0.000117204
1.0117e-05
8.95979e-07
-0.000128368
1.02701e-05
8.93655e-07
-0.000139726
1.04657e-05
8.92419e-07
-0.000151336
1.07175e-05
8.92461e-07
-0.000163266
1.10367e-05
8.93779e-07
-0.000175594
1.14319e-05
8.9622e-07
-0.000188403
1.19093e-05
8.99516e-07
-0.000201779
1.24725e-05
9.03306e-07
-0.000215809
1.31229e-05
9.07165e-07
-0.000230579
1.38592e-05
9.10624e-07
-0.000246171
1.4679e-05
9.13153e-07
1.55812e-05
9.14212e-07
-0.000262666
-1.36044e-06
2.57302e-06
-4.93734e-06
6.78373e-06
-1.03059e-05
1.02025e-05
-1.70988e-05
1.29332e-05
-2.5003e-05
1.50746e-05
-3.3756e-05
1.67197e-05
-4.31417e-05
1.79549e-05
-5.29863e-05
1.88596e-05
-6.31545e-05
1.95063e-05
-7.35456e-05
1.9961e-05
-8.40901e-05
2.02834e-05
-9.47466e-05
2.05277e-05
-0.000105499
2.07423e-05
-0.000116352
2.09705e-05
-0.000127332
2.12504e-05
-0.000138482
2.1615e-05
-0.000149857
2.20923e-05
-0.000161525
2.27051e-05
-0.000173564
2.3471e-05
-0.000186058
2.44025e-05
-0.000199092
2.55071e-05
-0.000212757
2.67874e-05
-0.000227138
2.82407e-05
-0.000242321
2.98618e-05
3.16482e-05
-0.000258388
-1.35563e-06
3.92864e-06
-4.91825e-06
1.03464e-05
-1.02618e-05
1.55461e-05
-1.70174e-05
1.96888e-05
-2.487e-05
2.29271e-05
-3.35547e-05
2.54044e-05
-4.28529e-05
2.72531e-05
-5.25879e-05
2.85946e-05
-6.26213e-05
2.95396e-05
-7.28486e-05
3.01883e-05
-8.31966e-05
3.06315e-05
-9.362e-05
3.09511e-05
-0.000104098
3.12207e-05
-0.000114634
3.15059e-05
-0.000125248
3.18649e-05
-0.000135981
3.23481e-05
-0.000146887
3.29983e-05
-0.000158033
3.38509e-05
-0.000169496
3.49335e-05
-0.000181359
3.62659e-05
-0.000193712
3.78605e-05
-0.000206647
3.97218e-05
-0.000220253
4.18468e-05
-0.000234619
4.42277e-05
4.68608e-05
-0.000249831
-1.34855e-06
5.27719e-06
-4.88995e-06
1.38878e-05
-1.01964e-05
2.08525e-05
-1.68964e-05
2.63888e-05
-2.46723e-05
3.0703e-05
-3.32559e-05
3.39881e-05
-4.24252e-05
3.64223e-05
-5.19991e-05
3.81686e-05
-6.18345e-05
3.9375e-05
-7.18218e-05
4.01756e-05
-8.18822e-05
4.06918e-05
-9.19642e-05
4.10331e-05
-0.000102042
4.12981e-05
-0.000112111
4.15752e-05
-0.000122189
4.19426e-05
-0.00013231
4.24692e-05
-0.000142526
4.3214e-05
-0.000152901
4.42261e-05
-0.000163512
4.55445e-05
-0.000174444
4.71981e-05
-0.000185789
4.92054e-05
-0.000197642
5.15748e-05
-0.000210099
5.43039e-05
-0.000223255
5.73834e-05
6.08085e-05
-0.000237202
-1.33977e-06
6.61696e-06
-4.85413e-06
1.74021e-05
-1.01127e-05
2.61111e-05
-1.67411e-05
3.30172e-05
-2.44178e-05
3.83798e-05
-3.28711e-05
4.24414e-05
-4.18742e-05
4.54254e-05
-5.1241e-05
4.75354e-05
-6.08223e-05
4.89563e-05
-7.05019e-05
4.98552e-05
-8.01935e-05
5.03834e-05
-8.98379e-05
5.06775e-05
-9.94008e-05
5.0861e-05
-0.000108871
5.1045e-05
-0.000118257
5.13289e-05
-0.000127588
5.18006e-05
-0.000136911
5.25366e-05
-0.000146286
5.36016e-05
-0.00015579
5.50482e-05
-0.000165508
5.69165e-05
-0.000175537
5.92338e-05
-0.000185976
6.20141e-05
-0.00019693
6.52576e-05
-0.000208502
6.89554e-05
7.31021e-05
-0.000220795
-1.3299e-06
7.94686e-06
-4.81264e-06
2.08849e-05
-1.00144e-05
3.13128e-05
-1.6557e-05
3.95598e-05
-2.41151e-05
4.59379e-05
-3.24125e-05
5.07387e-05
-4.12171e-05
5.42301e-05
-5.03372e-05
5.66555e-05
-5.96165e-05
5.82356e-05
-6.89307e-05
5.91695e-05
-7.81848e-05
5.96375e-05
-8.73098e-05
5.98025e-05
-9.62613e-05
5.98126e-05
-0.000105018
5.98015e-05
-0.000113579
5.98901e-05
-0.000121965
6.01866e-05
-0.000130215
6.07866e-05
-0.000138386
6.17727e-05
-0.000146552
6.32136e-05
-0.000154799
6.51636e-05
-0.000163227
6.76618e-05
-0.000171944
7.07314e-05
-0.000181064
7.43781e-05
-0.000190704
7.85953e-05
8.33789e-05
-0.000200981
-1.31951e-06
9.26637e-06
-4.76711e-06
2.43325e-05
-9.90454e-06
3.64503e-05
-1.63492e-05
4.60045e-05
-2.37716e-05
5.33603e-05
-3.18908e-05
5.88579e-05
-4.04695e-05
6.28088e-05
-4.93096e-05
6.54956e-05
-5.82471e-05
6.71731e-05
-6.71492e-05
6.80715e-05
-7.59103e-05
6.83986e-05
-8.44504e-05
6.83426e-05
-9.27129e-05
6.80751e-05
-0.000100664
6.77525e-05
-0.000108291
6.75172e-05
-0.000115603
6.74987e-05
-0.00012263
6.78135e-05
-0.000129422
6.85644e-05
-0.000136048
6.98396e-05
-0.000142596
7.17114e-05
-0.000149169
7.42352e-05
-0.000155885
7.74474e-05
-0.00016287
8.13635e-05
-0.000170258
8.59833e-05
9.13063e-05
-0.000178186
-1.30901e-06
1.05754e-05
-4.71866e-06
2.77421e-05
-9.785e-06
4.15166e-05
-1.61207e-05
5.23402e-05
-2.33919e-05
6.06314e-05
-3.1313e-05
6.6779e-05
-3.96419e-05
7.11377e-05
-4.81739e-05
7.40275e-05
-5.67375e-05
7.57368e-05
-6.51904e-05
7.65244e-05
-7.34161e-05
7.66243e-05
-8.1322e-05
7.62485e-05
-8.88378e-05
7.55909e-05
-9.59146e-05
7.48293e-05
-0.000102525
7.41279e-05
-0.000108665
7.36381e-05
-0.00011435
7.34987e-05
-0.000119621
7.38354e-05
-0.000124541
7.47596e-05
-0.000129196
7.63665e-05
-0.000133694
7.8733e-05
-0.000138161
8.19147e-05
-0.000142741
8.59432e-05
-0.000147588
9.08302e-05
9.65831e-05
-0.000152864
-1.29856e-06
1.18739e-05
-4.66746e-06
3.1111e-05
-9.65585e-06
4.6505e-05
-1.58713e-05
5.85556e-05
-2.29757e-05
6.77358e-05
-3.06796e-05
7.44829e-05
-3.8736e-05
7.91941e-05
-4.69348e-05
8.22263e-05
-5.50971e-05
8.38991e-05
-6.30713e-05
8.44987e-05
-7.07298e-05
8.42828e-05
-7.79665e-05
8.34853e-05
-8.46959e-05
8.23202e-05
-9.08524e-05
8.09858e-05
-9.63913e-05
7.96668e-05
-0.00010129
7.85365e-05
-0.000105549
7.77574e-05
-0.000109194
7.74807e-05
-0.000112279
7.78448e-05
-0.000114886
7.89732e-05
-0.000117124
8.09711e-05
-0.00011913
8.39213e-05
-0.000121067
8.78795e-05
-0.000123115
9.28779e-05
9.89391e-05
-0.000125471
-1.28797e-06
1.31619e-05
-4.61252e-06
3.44356e-05
-9.51464e-06
5.14071e-05
-1.55966e-05
6.46375e-05
-2.25164e-05
7.46556e-05
-2.99815e-05
8.19479e-05
-3.77412e-05
8.69538e-05
-4.55807e-05
9.00658e-05
-5.33149e-05
9.16333e-05
-6.07839e-05
9.19677e-05
-6.78492e-05
9.13481e-05
-7.43914e-05
9.00274e-05
-8.03088e-05
8.82376e-05
-8.55177e-05
8.61947e-05
-8.99532e-05
8.41024e-05
-9.35716e-05
8.21549e-05
-9.63531e-05
8.05389e-05
-9.8305e-05
7.94327e-05
-9.9466e-05
7.90059e-05
-9.99088e-05
7.94159e-05
-9.97422e-05
8.08045e-05
-9.91125e-05
8.32915e-05
-9.82012e-05
8.69682e-05
-9.72224e-05
9.18991e-05
9.81334e-05
-9.64167e-05
-1.27662e-06
1.44385e-05
-4.55139e-06
3.77103e-05
-9.35594e-06
5.62117e-05
-1.5287e-05
7.05686e-05
-2.19995e-05
8.13681e-05
-2.91984e-05
8.91468e-05
-3.66309e-05
9.43863e-05
-4.40791e-05
9.7514e-05
-5.13533e-05
9.89075e-05
-5.82867e-05
9.89011e-05
-6.47313e-05
9.77927e-05
-7.05553e-05
9.58514e-05
-7.56412e-05
9.33236e-05
-7.98864e-05
9.04398e-05
-8.3204e-05
8.742e-05
-8.55263e-05
8.44772e-05
-8.68084e-05
8.18209e-05
-8.70336e-05
7.96579e-05
-8.62192e-05
7.81914e-05
-8.44225e-05
7.76193e-05
-8.17463e-05
7.81283e-05
-7.83422e-05
7.98875e-05
-7.44125e-05
8.30385e-05
-7.02085e-05
8.76951e-05
9.39505e-05
-6.60256e-05
-1.26347e-06
1.5702e-05
-4.48014e-06
4.0927e-05
-9.17113e-06
6.09027e-05
-1.49276e-05
7.63251e-05
-2.14017e-05
8.78422e-05
-2.82973e-05
9.60424e-05
-3.53608e-05
0.00010145
-4.23732e-05
0.000104526
-4.91423e-05
0.000105677
-5.54967e-05
0.000105255
-6.12814e-05
0.000103577
-6.63539e-05
0.000100924
-7.05827e-05
9.75523e-05
-7.38466e-05
9.37038e-05
-7.60366e-05
8.96099e-05
-7.70585e-05
8.54991e-05
-7.68385e-05
8.1601e-05
-7.533e-05
7.81493e-05
-7.25216e-05
7.53831e-05
-6.84471e-05
7.35447e-05
-6.31943e-05
7.28756e-05
-5.69144e-05
7.36076e-05
-4.98273e-05
7.59513e-05
-4.22251e-05
8.00929e-05
8.61953e-05
-3.44699e-05
-1.24707e-06
1.69491e-05
-4.39341e-06
4.40734e-05
-8.94854e-06
6.54578e-05
-1.44978e-05
8.18744e-05
-2.06909e-05
9.40354e-05
-2.72316e-05
0.000102583
-3.38672e-05
0.000108086
-4.03794e-05
0.000111039
-4.65759e-05
0.000111873
-5.22839e-05
0.000110964
-5.73442e-05
0.000108638
-6.16072e-05
0.000105187
-6.493e-05
0.000100875
-6.71757e-05
9.59495e-05
-6.8214e-05
9.06482e-05
-6.79244e-05
8.52096e-05
-6.62018e-05
7.98783e-05
-6.29642e-05
7.49117e-05
-5.8164e-05
7.05829e-05
-5.18011e-05
6.71818e-05
-4.39376e-05
6.50121e-05
-3.47132e-05
6.43832e-05
-2.43587e-05
6.55968e-05
-1.32072e-05
6.89415e-05
7.46871e-05
-1.69902e-06
-1.22565e-06
1.81747e-05
-4.2847e-06
4.71324e-05
-8.67389e-06
6.9847e-05
-1.39722e-05
8.71726e-05
-1.9827e-05
9.98902e-05
-2.59425e-05
0.000108699
-3.20679e-05
0.000114211
-3.79875e-05
0.000116958
-4.35115e-05
0.000117397
-4.84685e-05
0.000115921
-5.26992e-05
0.000112868
-5.60509e-05
0.000108539
-5.83741e-05
0.000103198
-5.95207e-05
9.7096e-05
-5.93431e-05
9.04706e-05
-5.7697e-05
8.35634e-05
-5.44459e-05
7.66272e-05
-4.94701e-05
6.9936e-05
-4.26792e-05
6.3792e-05
-3.40284e-05
5.8531e-05
-2.35402e-05
5.45239e-05
-1.13278e-05
5.21708e-05
2.38032e-06
5.18887e-05
1.72155e-05
5.41063e-05
5.92524e-05
3.26502e-05
-1.19727e-06
1.9372e-05
-4.14678e-06
5.00819e-05
-8.33114e-06
7.40313e-05
-1.33219e-05
9.21634e-05
-1.87636e-05
0.000105332
-2.43607e-05
0.000114296
-2.98647e-05
0.000119715
-3.50637e-05
0.000122157
-3.97722e-05
0.000122106
-4.38232e-05
0.000119972
-4.70609e-05
0.000116106
-4.93347e-05
0.000110812
-5.04945e-05
0.000104358
-5.03871e-05
9.69887e-05
-4.8855e-05
8.89385e-05
-4.57359e-05
8.04444e-05
-4.08672e-05
7.17585e-05
-3.40927e-05
6.31615e-05
-2.52759e-05
5.49751e-05
-1.43189e-05
4.75741e-05
-1.18966e-06
4.13947e-05
1.40448e-05
3.69363e-05
3.11786e-05
3.47549e-05
4.98221e-05
3.54628e-05
3.9717e-05
6.93574e-05
-1.16001e-06
2.0532e-05
-3.97229e-06
5.28942e-05
-7.90361e-06
7.79627e-05
-1.25164e-05
9.67762e-05
-1.74508e-05
0.000110266
-2.24102e-05
0.000119255
-2.71481e-05
0.000124453
-3.14561e-05
0.000126465
-3.51539e-05
0.000125803
-3.80806e-05
0.000122898
-4.00871e-05
0.000118113
-4.10296e-05
0.000111755
-4.07638e-05
0.000104092
-3.914e-05
9.53649e-05
-3.6e-05
8.57984e-05
-3.11746e-05
7.5619e-05
-2.44849e-05
6.50688e-05
-1.57466e-05
5.44232e-05
-4.78089e-06
4.40094e-05
8.56617e-06
3.4227e-05
2.43936e-05
2.55672e-05
4.27021e-05
1.86279e-05
6.33368e-05
1.41202e-05
8.5914e-05
1.28856e-05
1.58967e-05
0.000109734
-1.11215e-06
2.16442e-05
-3.75435e-06
5.55364e-05
-7.37518e-06
8.15835e-05
-1.15253e-05
0.000100926
-1.58378e-05
0.000114579
-2.00128e-05
0.00012343
-2.38033e-05
0.000128243
-2.70029e-05
0.000129665
-2.94353e-05
0.000128236
-3.0946e-05
0.000124409
-3.1394e-05
0.000118561
-3.06456e-05
0.000111006
-2.85679e-05
0.000102015
-2.50234e-05
9.18204e-05
-1.98647e-05
8.06397e-05
-1.29301e-05
6.86844e-05
-4.04089e-06
5.61796e-05
6.99842e-06
4.33839e-05
2.03944e-05
3.06134e-05
3.63496e-05
1.82718e-05
5.50333e-05
6.88354e-06
7.65321e-05
-2.87092e-06
0.000100776
-1.01239e-05
0.00012743
-1.37686e-05
-1.24154e-05
0.000155742
-1.05237e-06
2.26965e-05
-3.48712e-06
5.79711e-05
-6.73146e-06
8.48278e-05
-1.03205e-05
0.000104515
-1.38767e-05
0.000118135
-1.70927e-05
0.000126646
-1.97173e-05
0.000130868
-2.15421e-05
0.000131489
-2.2392e-05
0.000129086
-2.21158e-05
0.000124133
-2.05796e-05
0.000117025
-1.76604e-05
0.000108087
-1.32401e-05
9.75943e-05
-7.20005e-06
8.57804e-05
5.84914e-07
7.28548e-05
1.02527e-05
5.90166e-05
2.196e-05
4.44723e-05
3.58877e-05
2.94562e-05
5.22424e-05
1.42588e-05
7.12505e-05
-7.36366e-07
9.31373e-05
-1.50033e-05
0.000118081
-2.78142e-05
0.000146127
-3.81705e-05
0.000177048
-4.46894e-05
-4.54652e-05
0.000210098
-9.79841e-07
2.36764e-05
-3.1662e-06
6.01575e-05
-5.9606e-06
8.76222e-05
-8.87796e-06
0.000107433
-1.15246e-05
0.000120782
-1.35808e-05
0.000128702
-1.47851e-05
0.000132072
-1.49216e-05
0.000131626
-1.38099e-05
0.000127974
-1.12971e-05
0.00012162
-7.25134e-06
0.000112979
-1.55683e-06
0.000102393
5.8906e-06
9.01469e-05
1.5188e-05
7.6483e-05
2.64304e-05
6.16123e-05
3.97172e-05
4.57299e-05
5.516e-05
2.90295e-05
7.28922e-05
1.17239e-05
9.30793e-05
-5.92837e-06
0.000115926
-2.35828e-05
0.000141671
-4.07484e-05
0.00017056
-5.67034e-05
0.00020277
-7.03802e-05
0.000238242
-8.01615e-05
-8.35649e-05
0.000276342
-8.94281e-07
2.45706e-05
-2.7887e-06
6.20519e-05
-5.05356e-06
8.98871e-05
-7.17772e-06
0.000109557
-8.74535e-06
0.000122349
-9.41727e-06
0.000129374
-8.91471e-06
0.00013157
-7.00632e-06
0.000129718
-3.4982e-06
0.000124466
1.77329e-06
0.000116349
8.94655e-06
0.000105805
1.81381e-05
9.32012e-05
2.94448e-05
7.88402e-05
4.2946e-05
6.29818e-05
5.87058e-05
4.58525e-05
7.67769e-05
2.76588e-05
9.72071e-05
8.59929e-06
0.00012005
-1.11191e-05
0.000145381
-3.12592e-05
0.000173316
-5.15176e-05
0.000204031
-7.14638e-05
0.000237769
-9.04416e-05
0.000274803
-0.000107414
0.000315293
-0.000120651
-0.000127134
0.000358862
-7.95818e-07
2.53665e-05
-2.3529e-06
6.3609e-05
-4.0036e-06
9.15378e-05
-5.20389e-06
0.000110757
-5.50866e-06
0.000122654
-4.55163e-06
0.000128417
-2.02823e-06
0.000129046
2.31781e-06
0.000125371
8.70417e-06
0.00011808
1.73164e-05
0.000107736
2.83114e-05
9.48105e-05
4.1819e-05
7.96936e-05
5.79415e-05
6.27177e-05
7.6752e-05
4.41712e-05
9.82929e-05
2.43116e-05
0.000122574
3.37759e-06
0.000149574
-1.8401e-05
0.000179247
-4.07915e-05
0.000211532
-6.35444e-05
0.000246383
-8.63688e-05
0.000283806
-0.000108886
0.000323905
-0.000130541
0.000366928
-0.000150437
0.000413232
-0.000166955
-0.000176747
0.000462844
-6.84758e-07
2.60512e-05
-1.85758e-06
6.47818e-05
-2.80494e-06
9.24852e-05
-2.94244e-06
0.000110895
-1.78801e-06
0.0001215
1.05996e-06
0.000125569
5.94094e-06
0.000124165
1.31462e-05
0.000118166
2.29283e-05
0.000108297
3.55071e-05
9.51575e-05
5.10721e-05
7.92455e-05
6.97819e-05
6.09838e-05
9.17612e-05
4.07383e-05
0.000117096
1.88362e-05
0.000145827
-4.41937e-06
0.000177941
-2.87362e-05
0.000213363
-5.38229e-05
0.00025195
-7.93791e-05
0.000293494
-0.000105088
0.000337729
-0.000130604
0.000384376
-0.000155533
0.000433211
-0.000179375
0.000484196
-0.000201422
0.00053766
-0.000220419
-0.000233234
0.000594147
-5.61231e-07
2.66125e-05
-1.30091e-06
6.55215e-05
-1.45078e-06
9.2635e-05
-3.78172e-07
0.000109822
2.44379e-06
0.000118678
7.46034e-06
0.000120553
1.50547e-05
0.000116571
2.55629e-05
0.000107658
3.92832e-05
9.45771e-05
5.64815e-05
7.79591e-05
7.73933e-05
5.83338e-05
0.000102221
3.61557e-05
0.000131132
1.18279e-05
0.000164246
-1.42782e-05
0.000201631
-4.18042e-05
0.000243284
-7.03894e-05
0.000289118
-9.96564e-05
0.000338937
-0.000129198
0.000392417
-0.000158568
0.000449083
-0.00018727
0.000508306
-0.000214756
0.000569344
-0.000240413
0.000631485
-0.000263563
0.000694437
-0.000283371
-0.000298339
0.000759542
-4.24771e-07
2.70372e-05
-6.79208e-07
6.57759e-05
6.91075e-08
9.18867e-05
2.50906e-06
0.000107382
7.22002e-06
0.000113967
1.46986e-05
0.000113074
2.53798e-05
0.00010589
3.96526e-05
9.33853e-05
5.78694e-05
7.63603e-05
8.03516e-05
5.5477e-05
0.00010739
3.12954e-05
0.000139243
4.30218e-06
0.000176134
-2.50626e-05
0.000218239
-5.6383e-05
0.00026568
-8.92457e-05
0.000318512
-0.000123221
0.000376696
-0.000157841
0.000440078
-0.00019258
0.000508338
-0.000226828
0.000580926
-0.000259859
0.000656976
-0.000290805
0.000735204
-0.000318642
0.000813845
-0.000342204
0.000891019
-0.000360545
-0.000376231
0.000968911
-2.73907e-07
2.73111e-05
1.42778e-08
6.54878e-05
1.77065e-06
9.01303e-05
5.74801e-06
0.000103405
1.25853e-05
0.000107129
2.28371e-05
0.000102822
3.69967e-05
9.17299e-05
5.55117e-05
7.48703e-05
7.87934e-05
5.30786e-05
0.000107222
2.70487e-05
0.000141146
-2.62894e-06
0.000180883
-3.5435e-05
0.000226714
-7.08937e-05
0.00027888
-0.000108549
0.000337576
-0.000147941
0.000402946
-0.000188591
0.000475081
-0.000229976
0.000554003
-0.000271502
0.000639649
-0.000312474
0.000731827
-0.000352036
0.000830111
-0.00038909
0.000933616
-0.000422146
0.00104032
-0.000448904
0.00114516
-0.000465387
-0.000466747
0.00123567
-1.06354e-07
2.74175e-05
7.89475e-07
6.45919e-05
3.67628e-06
8.72435e-05
9.37773e-06
9.77033e-05
1.85984e-05
9.79088e-05
3.19562e-05
8.94645e-05
5.00064e-05
7.36797e-05
7.3257e-05
5.16198e-05
0.000102177
2.41582e-05
0.000137202
-7.97577e-06
0.000178729
-4.41565e-05
0.000227122
-8.38276e-05
0.000282702
-0.000126474
0.000345751
-0.000171598
0.000416515
-0.000218705
0.00049521
-0.000267286
0.000582044
-0.00031681
0.000677256
-0.000366714
0.00078118
-0.000416398
0.000894371
-0.000465227
0.00101781
-0.000512531
0.00115328
-0.000557612
0.00130418
-0.000599804
0.00147807
-0.00063928
-0.000680575
0.0016919
8.29604e-08
2.73345e-05
1.66299e-06
6.30119e-05
5.8193e-06
8.30872e-05
1.34524e-05
9.00701e-05
2.53374e-05
8.60239e-05
4.21584e-05
7.26434e-05
6.45334e-05
5.13048e-05
9.30277e-05
2.31254e-05
0.000128161
-1.09751e-05
0.000170408
-5.02227e-05
0.000220196
-9.39441e-05
0.000277899
-0.000141531
0.00034384
-0.000192414
0.000418283
-0.000246041
0.000501445
-0.000301867
0.000593503
-0.000359345
0.000694625
-0.000417932
0.000805005
-0.000477094
0.000924931
-0.000536324
0.00105488
-0.000595177
0.00119566
-0.000653314
0.00134861
-0.00071056
0.00151581
-0.000767
0.00169973
-0.000823202
-0.00087853
0.00189768
2.99156e-07
2.70354e-05
2.65319e-06
6.06579e-05
8.23764e-06
7.75028e-05
1.80342e-05
8.02736e-05
3.2891e-05
7.11671e-05
5.35591e-05
5.19753e-05
8.07152e-05
2.41486e-05
0.000114973
-1.11327e-05
0.000156887
-5.28892e-05
0.000206948
-0.000100283
0.000265574
-0.00015257
0.000333109
-0.000209066
0.00040981
-0.000269115
0.000495849
-0.000332081
0.000591314
-0.000397332
0.000696221
-0.000464251
0.000810528
-0.000532239
0.000934167
-0.000600732
0.00106708
-0.000669233
0.00120924
-0.000737341
0.00136073
-0.000804801
0.0015217
-0.000871536
0.00169235
-0.000937645
0.00187233
-0.00100319
-0.00106488
0.00205869
5.48959e-07
2.64864e-05
3.78244e-06
5.74244e-05
1.09756e-05
7.03096e-05
2.31933e-05
6.80558e-05
4.1357e-05
5.30034e-05
6.62807e-05
2.70516e-05
9.86912e-05
-8.26193e-06
0.000139235
-5.16765e-05
0.000188475
-0.000102129
0.000246881
-0.000158689
0.000314819
-0.000220509
0.000392538
-0.000286785
0.000480162
-0.000356739
0.000577683
-0.000429602
0.000684966
-0.000504615
0.000801755
-0.00058104
0.000927686
-0.00065817
0.00106231
-0.000735355
0.0012051
-0.000812026
0.00135549
-0.000887727
0.00151283
-0.00096214
0.00167639
-0.0010351
0.00184529
-0.00110655
0.00201828
-0.00117617
-0.00123988
0.00219328
8.39747e-07
2.56467e-05
5.0747e-06
5.31894e-05
1.40794e-05
6.13049e-05
2.90012e-05
5.3134e-05
5.0831e-05
3.11737e-05
8.04371e-05
-2.55453e-06
0.000118581
-4.64056e-05
0.000165916
-9.90114e-05
0.000222978
-0.000159191
0.00029017
-0.000225882
0.000367745
-0.000298083
0.000455789
-0.000374829
0.000554213
-0.000455163
0.000662748
-0.000538137
0.000780952
-0.000622819
0.000908219
-0.000708307
0.0010438
-0.00079375
0.00118682
-0.000878374
0.0013363
-0.000961508
0.00149118
-0.0010426
0.00165029
-0.00112125
0.00181237
-0.00119718
0.00197604
-0.00127022
0.00213978
-0.00133992
-0.00140232
0.00230222
1.17899e-06
2.44677e-05
6.55365e-06
4.78148e-05
1.75938e-05
5.02647e-05
3.55241e-05
3.52037e-05
6.13962e-05
5.30161e-06
9.61177e-05
-3.72761e-05
0.00014046
-9.07476e-05
0.000195048
-0.0001536
0.000260344
-0.000224488
0.000336625
-0.000302163
0.000423961
-0.000385419
0.000522199
-0.000473067
0.000630961
-0.000563924
0.000749641
-0.000656818
0.000877428
-0.000750606
0.00101332
-0.000844201
0.00115617
-0.000936598
0.0013047
-0.0010269
0.00145755
-0.00111436
0.00161329
-0.00119835
0.00177047
-0.00127843
0.00192758
-0.0013543
0.00208312
-0.00142575
0.00223564
-0.00149243
-0.00155098
0.0023843
1.5737e-06
2.2894e-05
8.24074e-06
4.11478e-05
2.15572e-05
3.69483e-05
4.2815e-05
1.39459e-05
7.31116e-05
-2.49949e-05
0.00011337
-7.75347e-05
0.000164337
-0.000141715
0.000226564
-0.000215826
0.000300378
-0.000298302
0.000385861
-0.000387646
0.000482824
-0.000482382
0.000590801
-0.000581044
0.000709049
-0.000682173
0.000836573
-0.000784342
0.000972155
-0.000886187
0.0011144
-0.000986443
0.00126178
-0.00108398
0.00141269
-0.00117782
0.00156551
-0.00126718
0.00171863
-0.00135147
0.00187048
-0.00143028
0.00201958
-0.00150339
0.00216454
-0.00157071
0.00230416
-0.00163205
-0.00168489
0.00243807
2.02989e-06
2.08641e-05
1.01534e-05
3.30242e-05
2.59984e-05
2.11033e-05
5.09079e-05
-1.09636e-05
8.60019e-05
-6.0089e-05
0.000132186
-0.000123719
0.000190137
-0.000199665
0.000260271
-0.00028596
0.000342714
-0.000380745
0.000437274
-0.000482205
0.000543426
-0.000588534
0.000660317
-0.000697935
0.00078679
-0.000808646
0.000921427
-0.000918979
0.00106261
-0.00102737
0.00120857
-0.00113241
0.0013575
-0.00123291
0.00150759
-0.0013279
0.00165708
-0.00141667
0.00180435
-0.00149874
0.00194794
-0.00157386
0.00208654
-0.001642
0.00221908
-0.00170325
0.00234473
-0.0017577
-0.00180367
0.00246351
2.55221e-06
1.83119e-05
1.23037e-05
2.32727e-05
3.09334e-05
2.47364e-06
5.98117e-05
-3.98419e-05
0.00010005
-0.000100327
0.000152491
-0.000176161
0.000217684
-0.000264858
0.000295842
-0.000364118
0.000386809
-0.000471712
0.000490041
-0.000585437
0.000604603
-0.000703097
0.000729205
-0.000822536
0.000862243
-0.000941684
0.00100188
-0.00105862
0.00114615
-0.00117163
0.001293
-0.00127926
0.00144044
-0.00138035
0.00158659
-0.00147405
0.00172974
-0.00155983
0.00186843
-0.00163743
0.00200143
-0.00170687
0.00212779
-0.00176835
0.00224682
-0.00182227
0.00235812
-0.001869
-0.00190762
0.00246206
3.14369e-06
1.51682e-05
1.46972e-05
1.17191e-05
3.63629e-05
-1.9192e-05
6.9507e-05
-7.29859e-05
0.000115189
-0.000146009
0.000174136
-0.000235108
0.000246698
-0.000337421
0.000332807
-0.000450227
0.000431945
-0.00057085
0.000543138
-0.00069663
0.000664989
-0.000824948
0.000795736
-0.000953283
0.000933342
-0.00107929
0.0010756
-0.00120088
0.00122026
-0.00131629
0.00136513
-0.00142413
0.00150818
-0.0015234
0.00164762
-0.00161348
0.00178194
-0.00169414
0.00190996
-0.00176545
0.00203082
-0.00182773
0.00214398
-0.00188151
0.00224918
-0.00192747
0.00234644
-0.00196627
-0.00199762
0.00243645
3.80563e-06
1.13626e-05
1.73326e-05
-1.80779e-06
4.22716e-05
-4.4131e-05
7.99438e-05
-0.000110658
0.000131304
-0.00019737
0.000196896
-0.0003007
0.000276796
-0.00041732
0.000370567
-0.000543998
0.000477252
-0.000677534
0.000595388
-0.000814766
0.000723082
-0.000952641
0.000858107
-0.00108831
0.000998038
-0.00121922
0.00114039
-0.00134324
0.00128277
-0.00145867
0.00142296
-0.00156432
0.00155906
-0.0016595
0.00168952
-0.00174394
0.00181315
-0.00181778
0.00192917
-0.00188146
0.00203713
-0.00193569
0.00213692
-0.0019813
0.00222868
-0.00201924
0.0023128
-0.00205039
-0.002075
0.00239018
4.53755e-06
6.82502e-06
2.0201e-05
-1.74713e-05
4.86269e-05
-7.25568e-05
9.10405e-05
-0.000153072
0.000148229
-0.000254558
0.000220476
-0.000372946
0.000307496
-0.00050434
0.000408409
-0.000644911
0.000521745
-0.000790871
0.000645519
-0.00093854
0.000777337
-0.00108446
0.000914559
-0.00122553
0.00105446
-0.00135912
0.00119441
-0.00148318
0.00133199
-0.00159625
0.00146516
-0.00169749
0.00159227
-0.00178661
0.00171211
-0.00186378
0.00182392
-0.00192959
0.00192735
-0.00198489
0.00202238
-0.00203072
0.00210927
-0.0020682
0.00218852
-0.00209848
0.00226077
-0.00212264
-0.00214129
0.00232705
5.33715e-06
1.48787e-06
2.32866e-05
-3.54207e-05
5.53793e-05
-0.00010465
0.000102685
-0.000200377
0.000165749
-0.000317623
0.00024451
-0.000451707
0.00033824
-0.000598071
0.000445536
-0.000752206
0.000564374
-0.000909709
0.000692234
-0.0010664
0.000826268
-0.00121849
0.000963506
-0.00136277
0.00110105
-0.00149667
0.00123626
-0.00161839
0.0013669
-0.00172689
0.00149117
-0.00182177
0.00160783
-0.00190326
0.0017161
-0.00197205
0.00181566
-0.00202916
0.00190658
-0.00207582
0.00198923
-0.00211336
0.00206417
-0.00214314
0.00213215
-0.00216646
0.00219398
-0.00218448
-0.00219804
0.00225074
6.20038e-06
-4.71251e-06
2.6566e-05
-5.57863e-05
6.24626e-05
-0.000140546
0.000114734
-0.000252648
0.000183603
-0.000386492
0.000268578
-0.000536682
0.000368405
-0.000697897
0.000481102
-0.000864903
0.000604073
-0.00103268
0.000734294
-0.00119662
0.000868542
-0.00135274
0.00100364
-0.00149786
0.00113667
-0.0016297
0.00126514
-0.00174687
0.00138711
-0.00184885
0.00150118
-0.00193584
0.00160656
-0.00200864
0.00170292
-0.00206842
0.00179039
-0.00211663
0.0018694
-0.00215482
0.00194061
-0.00218457
0.00200483
-0.00220737
0.00206294
-0.00222456
0.00211583
-0.00223737
-0.00224674
0.00216453
7.12136e-06
-1.18339e-05
3.00086e-05
-7.86735e-05
6.97944e-05
-0.000180332
0.000127019
-0.000309873
0.000201496
-0.000460969
0.000292216
-0.000627402
0.000397333
-0.000803014
0.000514253
-0.000981824
0.000639824
-0.00115825
0.000770588
-0.00132738
0.000903063
-0.00148522
0.00103401
-0.00162881
0.00116065
-0.00175634
0.00128079
-0.001867
0.00139288
-0.00196093
0.001496
-0.00203897
0.00158983
-0.00210246
0.00167449
-0.00215307
0.00175047
-0.0021926
0.0018185
-0.00222285
0.00187946
-0.00224553
0.00193428
-0.00226219
0.0019839
-0.00227418
0.00202922
-0.00228268
-0.00228868
0.00207116
8.09235e-06
-1.99262e-05
3.35768e-05
-0.000104158
7.72775e-05
-0.000224033
0.000139347
-0.000371942
0.0002191
-0.000540722
0.000314933
-0.000723236
0.00042436
-0.00091244
0.000544172
-0.00110164
0.000670714
-0.00128479
0.000800199
-0.00145687
0.000929032
-0.00161405
0.00105407
-0.00175385
0.00117281
-0.00187508
0.00128347
-0.00197766
0.00138498
-0.00206245
0.00147693
-0.00213091
0.00155941
-0.00218495
0.00163296
-0.00222662
0.00169835
-0.002258
0.00175653
-0.00228103
0.00180849
-0.00229749
0.00185521
-0.00230891
0.00189761
-0.00231659
0.00193654
-0.00232161
-0.00232495
0.00197281
9.10377e-06
-2.903e-05
3.72263e-05
-0.00013228
8.48014e-05
-0.000271608
0.000151505
-0.000438645
0.00023607
-0.000625288
0.000336234
-0.0008234
0.000448845
-0.00102505
0.000570117
-0.00122291
0.00069598
-0.00141066
0.000822452
-0.00158334
0.000945979
-0.00173758
0.00106367
-0.00187154
0.00117341
-0.00198482
0.00127391
-0.00207816
0.00136461
-0.00215314
0.00144555
-0.00221186
0.00151725
-0.00225665
0.00158054
-0.00228991
0.0016364
-0.00231386
0.00168589
-0.00233053
0.00173006
-0.00234166
0.00176985
-0.00234871
0.00180614
-0.00235288
0.00183967
-0.00235514
-0.0023564
0.00187112
1.01442e-05
-3.91742e-05
4.09066e-05
-0.000163043
9.22445e-05
-0.000322946
0.000163269
-0.00050967
0.000252054
-0.000714073
0.000355635
-0.00092698
0.000470204
-0.00113962
0.000591463
-0.00134417
0.000715048
-0.00153424
0.000836937
-0.00170523
0.000953766
-0.00185441
0.00106301
-0.00198079
0.00116306
-0.00208487
0.00125314
-0.00216824
0.00133316
-0.00223317
0.00140361
-0.00228231
0.00146532
-0.00231836
0.00151933
-0.00234391
0.00156675
-0.00236128
0.00160868
-0.00237246
0.00164614
-0.00237912
0.00168002
-0.00238259
0.0017111
-0.00238395
0.00174002
-0.00238406
-0.00238371
0.00176733
1.12004e-05
-5.03746e-05
4.45622e-05
-0.000196405
9.94775e-05
-0.000377861
0.000174409
-0.000584601
0.000266708
-0.000806372
0.000372689
-0.00103296
0.000487931
-0.00125486
0.000607725
-0.00146396
0.000727555
-0.00165407
0.00084351
-0.00182119
0.000952555
-0.00196345
0.00105264
-0.00208088
0.00114268
-0.00217491
0.0012224
-0.00224796
0.00129219
-0.00230296
0.00135286
-0.00234297
0.00140547
-0.00237098
0.00145121
-0.00238965
0.00149123
-0.0024013
0.00152661
-0.00240784
0.0015583
-0.00241081
0.00158711
-0.0024114
0.0016137
-0.00241055
0.00163862
-0.00240898
-0.00240737
0.00166228
1.22576e-05
-6.26322e-05
4.81333e-05
-0.00023228
0.000106367
-0.000436095
0.000184695
-0.00066293
0.000279706
-0.000901382
0.000387003
-0.00114026
0.000501625
-0.00136948
0.00061858
-0.00158092
0.000733349
-0.00176884
0.000842278
-0.00193011
0.000942768
-0.00206394
0.0010333
-0.00217141
0.00111332
-0.00225493
0.00118304
-0.00231768
0.00124322
-0.00236313
0.00129493
-0.00239468
0.00133938
-0.00241543
0.00137782
-0.00242809
0.00141138
-0.00243486
0.00144108
-0.00243754
0.00146778
-0.0024375
0.00149218
-0.0024358
0.00151485
-0.00243321
0.00153621
-0.00243034
-0.00242776
0.0015566
1.32999e-05
-7.59321e-05
5.15578e-05
-0.000270538
0.000112779
-0.000497316
0.000193911
-0.000744063
0.000290758
-0.000998228
0.000398255
-0.00124776
0.000511004
-0.00148223
0.000623868
-0.00169378
0.000732479
-0.00187745
0.000833559
-0.00203119
0.000925024
-0.00215541
0.00100591
-0.00225229
0.00107616
-0.00232519
0.00113641
-0.00237794
0.00118771
-0.00241443
0.00123132
-0.00243828
0.00126851
-0.00245263
0.00130053
-0.0024601
0.00132845
-0.00246278
0.00135319
-0.00246229
0.00137552
-0.00245983
0.00139602
-0.0024563
0.00141517
-0.00245236
0.00143331
-0.00244848
-0.00244513
0.00145068
1.43102e-05
-9.02423e-05
5.47729e-05
-0.000311001
0.000118584
-0.000561126
0.000201857
-0.000827336
0.000299617
-0.00109599
0.000406204
-0.00135434
0.000515906
-0.00159194
0.000623589
-0.00180146
0.00072517
-0.00197903
0.000817843
-0.00212387
0.000900079
-0.00223764
0.000971451
-0.00232366
0.00103237
-0.0023861
0.0010838
-0.00242936
0.001127
-0.00245763
0.00116332
-0.00247461
0.00119408
-0.00248339
0.00122044
-0.00248646
0.0012434
-0.00248574
0.00126377
-0.00248266
0.00128221
-0.00247827
0.0012992
-0.0024733
0.00131514
-0.00246829
0.00133029
-0.00246363
-0.00245967
0.00134482
1.52712e-05
-0.000105513
5.77171e-05
-0.000353447
0.000123661
-0.000627071
0.00020836
-0.000912035
0.000306092
-0.00119372
0.000410699
-0.00145895
0.000516291
-0.00169753
0.000617884
-0.00190306
0.00071179
-0.00207294
0.000795741
-0.00220782
0.000868768
-0.00231067
0.000930945
-0.00238584
0.000983072
-0.00243823
0.00102637
-0.00247266
0.00106224
-0.0024935
0.00109206
-0.00250443
0.0011171
-0.00250843
0.00113845
-0.00250781
0.001157
-0.00250429
0.00117345
-0.00249912
0.00118836
-0.00249317
0.00120213
-0.00248707
0.00121507
-0.00248123
0.00122739