/*--------------------------------*- C++ -*----------------------------------*\
  =========                 |
  \\      /  F ield         | OpenFOAM: The Open Source CFD Toolbox
   \\    /   O peration     | Website:  https://openfoam.org
    \\  /    A nd           | Version:  6.0
     \\/     M anipulation  |
\*---------------------------------------------------------------------------*/
FoamFile
{
    version     2.0;
    format      ascii;
    class       volVectorField;
    location    "22";
    object      U;
}
// * * * * * * * * * * * * * * * * * * * * * * * * * * * * * * * * * * * * * //

dimensions      [0 1 -1 0 0 0 0];

internalField   nonuniform List<vector> 
12500
(
(-0.000277418 0.000261447 -5.74014e-22)
(-0.00162336 0.000682542 7.91554e-21)
(-0.00422562 0.00100642 -1.14635e-20)
(-0.00755417 0.00125007 5.25617e-21)
(-0.0113207 0.00142675 3.14799e-22)
(-0.0153462 0.00154791 -6.46367e-22)
(-0.0194884 0.00162408 -9.52864e-21)
(-0.0236418 0.00166483 5.22487e-21)
(-0.0277334 0.00167873 3.44989e-21)
(-0.0317158 0.00167349 3.49923e-21)
(-0.0355614 0.00165601 -5.91479e-21)
(-0.0392588 0.00163243 3.43619e-21)
(-0.0428088 0.00160824 -1.61596e-21)
(-0.046222 0.00158824 2.73636e-21)
(-0.0495162 0.00157661 -6.97045e-21)
(-0.0527144 0.0015769 1.00595e-20)
(-0.0558434 0.00159204 -1.91526e-21)
(-0.0589319 0.00162436 -7.09572e-21)
(-0.0620092 0.00167556 3.62963e-21)
(-0.0651047 0.00174677 -3.45981e-21)
(-0.068253 0.00183842 3.0924e-21)
(-0.0714885 0.00195039 4.08246e-21)
(-0.07478 0.00208296 4.14046e-22)
(-0.0780111 0.00223745 -1.1656e-20)
(-0.081632 0.00240665 6.15368e-21)
(-0.000317235 0.000933035 1.04751e-20)
(-0.00172584 0.00242061 -2.70242e-20)
(-0.00437427 0.00355969 7.95876e-21)
(-0.00773473 0.00441277 5.31096e-21)
(-0.0115205 0.00502929 -4.2283e-21)
(-0.0155539 0.00545159 -2.39914e-20)
(-0.0196938 0.00571795 7.12361e-21)
(-0.0238357 0.00586248 -1.34337e-20)
(-0.0279074 0.0059153 1.60505e-20)
(-0.0318622 0.00590299 -2.13976e-20)
(-0.0356731 0.00584897 1.14083e-20)
(-0.039329 0.00577377 3.68153e-21)
(-0.0428312 0.00569537 -9.26196e-21)
(-0.0461906 0.00562931 -4.08728e-21)
(-0.0494253 0.00558891 2.98717e-20)
(-0.0525587 0.00558531 -2.63921e-20)
(-0.0556181 0.00562758 6.30353e-21)
(-0.0586327 0.00572276 1.08895e-20)
(-0.0616323 0.00587595 -2.48443e-21)
(-0.064647 0.0060903 1.75024e-20)
(-0.0677121 0.00636689 3.18208e-21)
(-0.0708628 0.00670491 -1.13591e-21)
(-0.0740684 0.00710483 -2.20108e-20)
(-0.0772119 0.00757017 2.02378e-20)
(-0.0807443 0.00807867 -3.86101e-20)
(-0.000398889 0.00159998 3.35937e-20)
(-0.00193543 0.00414616 1.11572e-20)
(-0.0046775 0.00609348 -1.46083e-20)
(-0.00810219 0.0075496 6.26667e-21)
(-0.0119263 0.0085999 5.86048e-21)
(-0.0159748 0.00931746 2.22122e-20)
(-0.0201093 0.00976814 -2.81769e-20)
(-0.0242273 0.0100104 -4.57456e-21)
(-0.0282583 0.0100957 -1.88162e-20)
(-0.032157 0.0100695 -1.56888e-20)
(-0.0358976 0.00997145 2.02321e-20)
(-0.0394698 0.00983658 -6.76252e-20)
(-0.0428756 0.00969532 -2.10914e-21)
(-0.0461266 0.00957405 -4.04738e-20)
(-0.0492417 0.00949533 -4.7586e-21)
(-0.052245 0.00947813 5.73319e-21)
(-0.0551646 0.00953788 -3.1293e-20)
(-0.0580308 0.00968664 -1.9552e-20)
(-0.0608744 0.00993315 -2.31208e-20)
(-0.0637269 0.0102829 3.61827e-20)
(-0.066625 0.0107379 1.32139e-20)
(-0.0696056 0.0112969 -5.86584e-20)
(-0.0726393 0.0119605 -2.82207e-20)
(-0.0756073 0.012735 -3.15209e-20)
(-0.0789629 0.0135827 8.50526e-20)
(-0.000522018 0.00225908 -1.0504e-21)
(-0.00225129 0.00585054 -2.58001e-20)
(-0.00513426 0.00859439 -1.23675e-20)
(-0.00865536 0.0106429 7.66298e-21)
(-0.0125367 0.0121169 4.76718e-20)
(-0.0166079 0.0131201 -2.14794e-20)
(-0.0207341 0.0137455 4.57403e-20)
(-0.0248162 0.0140756 4.35083e-20)
(-0.0287864 0.014183 2.64531e-20)
(-0.0326014 0.0141316 -3.98976e-22)
(-0.036237 0.0139775 5.31935e-20)
(-0.0396844 0.0137697 9.19621e-21)
(-0.0429466 0.0135514 4.04865e-20)
(-0.0460363 0.0133597 9.29515e-20)
(-0.0489731 0.0132268 -1.07702e-19)
(-0.0517825 0.0131797 1.61741e-19)
(-0.0544936 0.0132408 3.51434e-20)
(-0.0571382 0.0134274 -7.74458e-20)
(-0.059749 0.0137526 -1.09782e-20)
(-0.0623593 0.0142246 2.80975e-20)
(-0.0650079 0.0148469 -1.40671e-20)
(-0.0677345 0.015618 -8.4075e-21)
(-0.0705117 0.0165394 -8.18847e-21)
(-0.0732184 0.0176201 -3.29615e-20)
(-0.0763115 0.0188071 1.15581e-19)
(-0.000686097 0.00290741 1.74961e-20)
(-0.00267214 0.00752563 -8.12458e-20)
(-0.00574278 0.0110497 9.8463e-20)
(-0.0093922 0.0136757 -3.91649e-20)
(-0.0133498 0.0155598 4.68425e-20)
(-0.0174509 0.0168354 3.81831e-20)
(-0.0215663 0.0176224 1.44826e-20)
(-0.025601 0.018027 7.05075e-22)
(-0.029491 0.0181425 8.13618e-20)
(-0.0331958 0.0180508 5.62539e-20)
(-0.0366933 0.0178241 -2.2535e-20)
(-0.0399765 0.0175255 -1.44947e-20)
(-0.0430498 0.0172105 6.10728e-20)
(-0.0459271 0.0169274 1.14912e-20)
(-0.0486293 0.0167182 3.11431e-20)
(-0.051183 0.0166184 7.4508e-20)
(-0.0536191 0.0166577 -6.43052e-20)
(-0.0559712 0.0168598 5.18664e-20)
(-0.0582743 0.0172426 -1.11684e-19)
(-0.0605642 0.017818 9.37709e-20)
(-0.0628828 0.0185914 6.05995e-22)
(-0.0652735 0.0195619 -7.46311e-20)
(-0.0677119 0.0207323 3.0022e-20)
(-0.0700744 0.0221152 6.81183e-20)
(-0.0728225 0.023642 -1.00405e-19)
(-0.000890461 0.00354236 9.0489e-20)
(-0.00319624 0.009164 -9.60583e-20)
(-0.00650059 0.0134477 -1.54512e-20)
(-0.0103096 0.0166325 1.94688e-20)
(-0.0143618 0.0189092 -4.20285e-20)
(-0.0185003 0.0204408 -6.54914e-20)
(-0.0226022 0.0213735 -5.44165e-20)
(-0.0265786 0.0218363 -1.31106e-20)
(-0.0303699 0.0219427 -9.35376e-20)
(-0.0339391 0.0217923 7.44387e-20)
(-0.037267 0.0214727 -1.15548e-19)
(-0.0403486 0.0210609 5.83678e-20)
(-0.04319 0.0206248 -1.93621e-20)
(-0.0458064 0.0202239 4.48149e-20)
(-0.0482202 0.0199101 -1.12612e-19)
(-0.0504594 0.0197281 5.45321e-20)
(-0.0525567 0.0197158 4.05948e-21)
(-0.0545479 0.0199039 2.4163e-20)
(-0.0564709 0.0203162 1.45861e-19)
(-0.0583646 0.0209696 3.22897e-20)
(-0.0602751 0.0218723 -2.94033e-21)
(-0.0622504 0.023025 9.20971e-21)
(-0.0642702 0.0244324 6.06523e-20)
(-0.0662085 0.0261121 1.72651e-20)
(-0.0685337 0.0279795 5.68037e-20)
(-0.00113434 0.00416166 -5.63826e-20)
(-0.0038214 0.0107589 8.00358e-20)
(-0.00740428 0.0157774 5.01309e-21)
(-0.0114031 0.0194987 -9.7629e-20)
(-0.0155675 0.0221476 2.05184e-19)
(-0.0197498 0.0239161 -6.63126e-20)
(-0.0238356 0.0249759 9.6751e-20)
(-0.0277427 0.0254783 8.84883e-20)
(-0.0314172 0.0255562 -7.31869e-20)
(-0.0348266 0.025326 -1.06477e-19)
(-0.0379549 0.0248904 2.91315e-20)
(-0.0407995 0.0243396 -3.07033e-20)
(-0.0433685 0.0237538 -1.35757e-19)
(-0.0456784 0.0232035 1.64844e-19)
(-0.0477531 0.0227511 -7.90205e-20)
(-0.049622 0.0224511 -5.44649e-20)
(-0.0513199 0.0223501 4.96272e-22)
(-0.052885 0.0224872 4.44454e-20)
(-0.0543582 0.0228936 1.83201e-20)
(-0.0557828 0.0235922 -7.17306e-20)
(-0.0572094 0.0245959 8.18454e-20)
(-0.0586923 0.0259082 -1.42157e-19)
(-0.0602165 0.027537 8.67705e-20)
(-0.0616545 0.0295064 -6.64361e-20)
(-0.0634836 0.0317157 1.72716e-20)
(-0.00141685 0.00476335 8.20313e-20)
(-0.00454491 0.0123042 -6.30808e-20)
(-0.00844936 0.0180288 -4.01223e-20)
(-0.0126665 0.0222609 -7.08139e-20)
(-0.0169589 0.0252589 -1.29435e-19)
(-0.0211903 0.027243 -9.56127e-20)
(-0.0252561 0.0284095 5.95707e-20)
(-0.0290825 0.0289315 -9.02025e-20)
(-0.0326223 0.0289599 1.14459e-19)
(-0.0358481 0.0286275 -1.86232e-19)
(-0.0387479 0.0280507 8.27006e-20)
(-0.0413219 0.0273328 1.74619e-19)
(-0.0435802 0.0265655 -2.45273e-19)
(-0.0455408 0.0258304 3.50086e-20)
(-0.0472287 0.0252005 4.55367e-20)
(-0.048675 0.0247404 4.40187e-20)
(-0.0499162 0.0245068 -4.72857e-20)
(-0.0509931 0.0245482 -1.16224e-20)
(-0.0519503 0.0249049 -3.46822e-20)
(-0.0528354 0.0256078 -2.89248e-20)
(-0.0537049 0.0266766 -1.58662e-19)
(-0.0546208 0.0281192 -1.07079e-20)
(-0.055575 0.0299489 1.72711e-21)
(-0.0564398 0.0321985 -7.16753e-20)
(-0.0577044 0.0347513 7.38385e-20)
(-0.00173702 0.00534565 2.36864e-21)
(-0.00536344 0.0137941 2.57997e-20)
(-0.00962994 0.0201927 2.68573e-20)
(-0.0140912 0.0249069 1.55858e-20)
(-0.0185251 0.0282285 1.31728e-19)
(-0.0228084 0.0304052 1.23688e-19)
(-0.0268483 0.0316574 -1.00517e-19)
(-0.030581 0.0321782 -3.05813e-20)
(-0.0339669 0.0321361 -2.71538e-20)
(-0.036985 0.0316786 1.40072e-19)
(-0.0396278 0.0309354 5.02659e-20)
(-0.0418986 0.0300213 -7.31693e-20)
(-0.0438095 0.0290391 -6.19085e-20)
(-0.0453801 0.0280812 1.49134e-19)
(-0.0466365 0.0272309 -3.67629e-20)
(-0.0476109 0.0265636 -4.45509e-20)
(-0.0483414 0.0261468 -6.21558e-20)
(-0.0488715 0.0260401 -4.83652e-20)
(-0.0492491 0.0262945 -6.17145e-20)
(-0.049527 0.0269517 -4.03451e-20)
(-0.0497686 0.0280405 1.67602e-19)
(-0.0500448 0.0295763 -8.25029e-20)
(-0.0503567 0.0315802 5.55391e-20)
(-0.050578 0.0340971 -1.47656e-19)
(-0.0512145 0.0369948 5.94802e-20)
(-0.00209371 0.00590686 -7.36591e-20)
(-0.0062729 0.0152231 -1.91822e-20)
(-0.0109384 0.0222599 -1.49826e-19)
(-0.015666 0.0274248 -7.17716e-20)
(-0.0202508 0.0310428 -1.41649e-19)
(-0.0245853 0.0333884 -1.4767e-20)
(-0.0285901 0.0347049 7.58819e-20)
(-0.032213 0.0352047 -4.62095e-20)
(-0.0354236 0.0350722 9.95678e-20)
(-0.038208 0.0344683 -2.41874e-19)
(-0.0405639 0.0335346 -7.00423e-21)
(-0.0424983 0.0323964 4.2848e-20)
(-0.0440256 0.0311665 -5.43451e-20)
(-0.0451667 0.029947 4.94346e-20)
(-0.0459486 0.0288316 -3.77838e-20)
(-0.0464042 0.0279063 -8.09363e-20)
(-0.0465727 0.0272504 1.47601e-19)
(-0.0464997 0.0269359 9.15139e-20)
(-0.0462368 0.0270269 -1.89637e-20)
(-0.0458419 0.0275782 6.03518e-20)
(-0.0453863 0.0286316 -1.19055e-19)
(-0.0449514 0.0302135 1.71541e-19)
(-0.0445497 0.032357 -2.34234e-19)
(-0.0440592 0.0351231 4.82125e-20)
(-0.0440079 0.0383662 -9.16229e-20)
(-0.0024856 0.00644518 3.99593e-21)
(-0.0072682 0.0165854 -6.55235e-20)
(-0.0123652 0.0242214 9.7044e-20)
(-0.017376 0.0298034 1.98935e-19)
(-0.0221162 0.0336891 -3.26961e-21)
(-0.0264958 0.0361796 2.2518e-20)
(-0.0304512 0.0375401 -8.50634e-20)
(-0.0339433 0.0380007 3.98253e-20)
(-0.0369525 0.0377605 2.74417e-19)
(-0.0394731 0.0369923 -6.22558e-20)
(-0.041509 0.0358477 -7.35007e-20)
(-0.0430713 0.0344611 2.77729e-19)
(-0.0441769 0.0329538 9.06639e-20)
(-0.0448482 0.0314364 4.31459e-20)
(-0.0451124 0.0300119 4.41506e-20)
(-0.0450029 0.0287771 1.20281e-19)
(-0.0445594 0.0278229 -4.62137e-20)
(-0.0438289 0.0272352 1.22124e-19)
(-0.042866 0.0270933 1.65222e-19)
(-0.041734 0.0274687 -1.40897e-19)
(-0.0405124 0.0284197 2.09296e-19)
(-0.039295 0.0299889 7.46449e-20)
(-0.038108 0.0322267 -2.8322e-19)
(-0.0368375 0.0352168 4.09489e-19)
(-0.0360415 0.0388031 -3.31662e-19)
(-0.00291101 0.00695854 -1.87529e-19)
(-0.008343 0.0178747 1.02201e-19)
(-0.013898 0.0260675 -6.85651e-20)
(-0.0192027 0.0320306 -6.5117e-20)
(-0.0240957 0.0361546 -7.02613e-20)
(-0.0285072 0.0387665 -7.62155e-20)
(-0.0323915 0.0401523 2.0916e-20)
(-0.0357245 0.0405587 1.98651e-19)
(-0.038499 0.0401977 -4.2551e-20)
(-0.040719 0.0392525 -1.10777e-19)
(-0.0423953 0.0378828 -6.76319e-20)
(-0.043544 0.0362302 -2.76662e-20)
(-0.044185 0.0344223 8.18005e-20)
(-0.0443419 0.0325768 -5.22463e-20)
(-0.0440425 0.0308044 -1.7046e-19)
(-0.0433197 0.0292113 -1.8804e-19)
(-0.0422129 0.0279003 7.49597e-20)
(-0.0407698 0.0269715 -1.3949e-19)
(-0.0390472 0.0265213 1.21083e-19)
(-0.0371132 0.026641 -3.41918e-19)
(-0.0350559 0.0274107 2.62639e-19)
(-0.0329829 0.0288949 -3.47255e-19)
(-0.0309368 0.031169 -6.47165e-21)
(-0.0288161 0.034348 -1.16853e-19)
(-0.0272194 0.0382703 3.43072e-19)
(-0.00336784 0.00744442 2.87735e-19)
(-0.00948941 0.0190838 4.21637e-20)
(-0.0155216 0.0277875 -2.76983e-20)
(-0.0211226 0.0340936 -1.16878e-20)
(-0.026157 0.0384258 2.17375e-19)
(-0.0305779 0.0411364 7.06848e-20)
(-0.0343596 0.0425313 6.40792e-20)
(-0.0374952 0.0428727 -5.151e-20)
(-0.0399916 0.0423838 1.98608e-19)
(-0.0418635 0.0412563 -9.76413e-20)
(-0.0431304 0.0396561 6.30011e-20)
(-0.043814 0.0377296 1.60198e-19)
(-0.0439379 0.0356087 -9.08364e-20)
(-0.0435276 0.0334156 9.83363e-20)
(-0.042611 0.0312666 9.28497e-20)
(-0.0412204 0.0292754 3.17735e-20)
(-0.0393941 0.0275552 -7.82514e-20)
(-0.0371794 0.0262199 2.16389e-19)
(-0.0346341 0.0253844 -2.01354e-20)
(-0.0318303 0.0251627 -2.31857e-20)
(-0.0288644 0.0256613 2.58946e-19)
(-0.0258586 0.026974 -1.84154e-19)
(-0.0228748 0.0292108 3.10137e-19)
(-0.0198289 0.0325303 -2.57129e-19)
(-0.0173739 0.0367735 3.30374e-19)
(-0.0038534 0.00789975 -1.3898e-19)
(-0.0106977 0.0202043 3.07925e-20)
(-0.0172177 0.0293694 -3.20922e-20)
(-0.0231075 0.0359783 -1.51904e-19)
(-0.0282612 0.0404879 8.81409e-21)
(-0.0326571 0.0432756 8.64419e-20)
(-0.0362922 0.0446665 -3.51574e-19)
(-0.0391787 0.0449369 2.62389e-19)
(-0.0413391 0.0443199 -2.554e-19)
(-0.0428009 0.043014 -1.61054e-19)
(-0.0435932 0.0411892 1.44401e-19)
(-0.0437448 0.0389944 -3.12423e-19)
(-0.0432841 0.0365633 2.63099e-19)
(-0.0422389 0.0340195 -8.36559e-20)
(-0.040638 0.031482 -2.38857e-19)
(-0.0385128 0.029069 5.89935e-20)
(-0.0359002 0.0269014 -5.5383e-20)
(-0.0328458 0.0251052 2.08597e-20)
(-0.0294072 0.0238134 -7.46095e-20)
(-0.0256588 0.0231641 -2.47444e-19)
(-0.0217047 0.023295 5.54276e-20)
(-0.0176822 0.024337 -1.00919e-22)
(-0.0136746 0.0264462 -2.54843e-19)
(-0.00962028 0.0298414 1.79011e-19)
(-0.00624449 0.0343791 -1.5464e-19)
(-0.0043643 0.00832087 5.62557e-20)
(-0.0119561 0.0212265 1.03563e-19)
(-0.0189641 0.0307991 1.44883e-19)
(-0.0251235 0.0376681 7.45056e-20)
(-0.0303613 0.0423236 -7.30539e-20)
(-0.0346839 0.045168 1.74252e-19)
(-0.0381129 0.0465449 1.2893e-19)
(-0.0406815 0.0467437 -4.69307e-20)
(-0.0424299 0.0460064 1.67559e-19)
(-0.0433997 0.0445365 -1.72335e-19)
(-0.0436314 0.0425065 -5.05347e-20)
(-0.0431624 0.0400656 5.12809e-20)
(-0.0420271 0.0373464 1.01571e-19)
(-0.0402571 0.0344711 1.21811e-21)
(-0.0378828 0.0315574 6.42498e-20)
(-0.0349356 0.0287241 1.18574e-19)
(-0.031451 0.0260957 -2.0185e-19)
(-0.0274722 0.0238067 2.5086e-19)
(-0.0230553 0.022005 8.46012e-20)
(-0.0182755 0.0208527 2.9819e-20)
(-0.0132427 0.0205213 -3.04087e-19)
(-0.00810898 0.0211857 4.30318e-20)
(-0.00298012 0.0230617 6.67261e-20)
(0.00217822 0.0264495 -1.60032e-20)
(0.00654647 0.0312391 7.60389e-20)
(-0.00489635 0.00870351 4.40144e-21)
(-0.0132504 0.0221393 -2.66762e-19)
(-0.0207349 0.0320611 -6.64952e-21)
(-0.0271315 0.0391444 -6.72424e-20)
(-0.0324032 0.0439131 -4.41821e-19)
(-0.0365871 0.0467944 3.81415e-19)
(-0.0397318 0.04815 -2.71353e-19)
(-0.0418932 0.0482819 -1.36588e-20)
(-0.0431307 0.04744 -1.28144e-19)
(-0.0435018 0.0458316 2.21526e-19)
(-0.0430598 0.0436306 -2.38399e-19)
(-0.0418523 0.0409845 -1.11595e-19)
(-0.0399217 0.0380226 2.34855e-21)
(-0.0373052 0.0348625 -2.41324e-19)
(-0.0340367 0.0316169 3.29201e-19)
(-0.030149 0.0284002 -3.813e-19)
(-0.0256771 0.0253351 7.56637e-22)
(-0.0206626 0.0225584 5.84021e-20)
(-0.0151592 0.0202275 -1.46084e-19)
(-0.00924112 0.0185242 1.41664e-19)
(-0.00302207 0.0176529 -2.00961e-19)
(0.00333265 0.017837 -1.32731e-19)
(0.00969501 0.0193651 2.47263e-19)
(0.0160698 0.0226443 -2.69687e-19)
(0.021517 0.0276246 -5.21047e-21)
(-0.00544452 0.00904296 -2.25818e-19)
(-0.0145643 0.0229307 2.59027e-19)
(-0.0225003 0.033138 -7.99248e-20)
(-0.0290863 0.0403863 1.53811e-19)
(-0.0343247 0.0452336 1.65837e-19)
(-0.0382855 0.0481319 -1.46052e-19)
(-0.0410459 0.049461 -9.68046e-20)
(-0.0426865 0.049535 -1.15885e-19)
(-0.043287 0.0486112 1.06078e-19)
(-0.0429223 0.0469008 -7.08243e-21)
(-0.0416598 0.0445777 1.54571e-19)
(-0.0395595 0.041787 1.5232e-19)
(-0.0366733 0.0386531 -1.81908e-19)
(-0.0330467 0.0352864 3.57147e-19)
(-0.0287197 0.0317913 -2.36783e-19)
(-0.0237292 0.0282732 -4.05943e-20)
(-0.0181123 0.0248461 4.61016e-19)
(-0.0119109 0.0216415 -2.13442e-19)
(-0.00517718 0.018817 1.35951e-19)
(0.00201621 0.0165656 2.65479e-19)
(0.00955399 0.0151176 -1.72231e-19)
(0.0172602 0.0147437 1.81555e-20)
(0.0249871 0.0158146 -1.18363e-20)
(0.0327122 0.0188731 -7.05398e-20)
(0.0393462 0.0239628 1.3265e-19)
(-0.00600295 0.00933426 5.16047e-20)
(-0.0158789 0.0235878 -1.64151e-19)
(-0.0242267 0.0340111 8.97102e-20)
(-0.0309375 0.041371 -1.10639e-21)
(-0.0360563 0.0462594 6.75088e-20)
(-0.0396879 0.0491538 -1.1614e-19)
(-0.0419398 0.0504519 6.64362e-20)
(-0.0429181 0.0504799 1.80889e-19)
(-0.0427243 0.0495029 -5.49968e-21)
(-0.0414512 0.0477357 -9.23566e-20)
(-0.0391821 0.0453526 9.28298e-20)
(-0.0359903 0.0424964 -2.15131e-21)
(-0.03194 0.0392859 -2.93895e-19)
(-0.0270874 0.0358238 1.08961e-19)
(-0.0214819 0.0322035 2.40704e-20)
(-0.0151689 0.0285175 -4.23375e-20)
(-0.00819185 0.0248655 -7.5494e-20)
(-0.000596994 0.0213643 2.89347e-19)
(0.00756146 0.0181606 7.05308e-20)
(0.0162109 0.0154441 -1.51126e-19)
(0.0252353 0.0134569 -1.81522e-20)
(0.0344508 0.0125054 2.07981e-19)
(0.0436953 0.0130427 -9.71223e-20)
(0.052929 0.0157739 4.16876e-20)
(0.0608876 0.0208764 2.80557e-20)
(-0.00656502 0.00957247 -1.03331e-19)
(-0.0171731 0.0240975 1.027e-19)
(-0.0258767 0.034661 -5.78674e-20)
(-0.032629 0.0420741 -1.85735e-19)
(-0.0375208 0.046963 -1.70964e-19)
(-0.0406934 0.0498304 -7.56523e-20)
(-0.0422855 0.0510923 -6.26455e-20)
(-0.0424296 0.0510876 -1.85258e-19)
(-0.0412492 0.0500893 -7.48229e-20)
(-0.038856 0.0483167 6.81873e-20)
(-0.0353493 0.0459458 -9.73417e-20)
(-0.0308175 0.043118 -1.02755e-19)
(-0.0253386 0.039948 -9.63891e-20)
(-0.0189824 0.0365311 1.74993e-19)
(-0.0118119 0.0329504 -3.67489e-19)
(-0.00388572 0.0292836 2.09779e-19)
(0.00473982 0.025612 -3.58732e-19)
(0.0140071 0.0220305 -5.52661e-20)
(0.0238531 0.0186621 -1.96904e-19)
(0.0341995 0.0156757 -4.59697e-20)
(0.0449272 0.0133021 -5.60713e-20)
(0.0558455 0.0118588 -1.87231e-19)
(0.066785 0.0118638 -2.04855e-20)
(0.0777104 0.0142 1.1454e-19)
(0.0871689 0.0192201 -2.97718e-19)
(-0.00712346 0.00975294 8.86372e-20)
(-0.0184236 0.0244472 1.15915e-19)
(-0.0274089 0.0350687 4.05913e-19)
(-0.0340995 0.0424716 -7.12534e-20)
(-0.038634 0.0473159 1.69543e-19)
(-0.0411917 0.0501303 4.0382e-19)
(-0.0419435 0.0513491 -1.10033e-19)
(-0.0410484 0.0513241 1.48893e-19)
(-0.0386518 0.0503373 8.68255e-20)
(-0.034884 0.0486138 1.57316e-19)
(-0.029861 0.0463329 -3.14985e-20)
(-0.0236862 0.0436368 2.12833e-20)
(-0.0164533 0.0406391 -5.50444e-20)
(-0.00824792 0.0374308 2.9772e-19)
(0.00084943 0.0340872 3.80918e-20)
(0.0107612 0.0306736 2.75945e-19)
(0.0214106 0.027253 -7.05403e-20)
(0.0327187 0.0238951 2.52211e-19)
(0.0446024 0.0206899 3.53651e-20)
(0.0569666 0.0177679 1.28099e-19)
(0.0696799 0.0153206 -5.5263e-20)
(0.0825406 0.0136366 -9.81067e-21)
(0.0953778 0.0132559 3.04286e-19)
(0.108197 0.0152287 1.87056e-19)
(0.119375 0.0201107 -7.8014e-20)
(-0.00767049 0.00987163 -2.14798e-19)
(-0.0196053 0.0246254 -2.17688e-19)
(-0.0287785 0.0352166 -2.27498e-19)
(-0.0352816 0.0425406 8.33501e-20)
(-0.0393037 0.0472913 -1.67371e-19)
(-0.0410629 0.0500232 -2.4933e-20)
(-0.0407626 0.0511893 -6.5714e-20)
(-0.0385882 0.0511545 -2.7246e-19)
(-0.0347064 0.0502108 -4.25195e-20)
(-0.0292656 0.0485904 6.98381e-20)
(-0.0223976 0.046478 -2.19022e-19)
(-0.0142214 0.0440201 3.03522e-19)
(-0.00484615 0.0413325 -4.11969e-19)
(0.00562454 0.0385071 9.91388e-20)
(0.0170896 0.0356171 -2.52023e-19)
(0.0294474 0.0327219 -2.04405e-19)
(0.0425924 0.0298721 -1.16217e-20)
(0.0564134 0.027116 -3.08512e-20)
(0.0707916 0.0245104 2.43549e-20)
(0.0855975 0.0221371 -1.16487e-19)
(0.100669 0.0201232 -8.05955e-20)
(0.115777 0.0186792 9.90259e-20)
(0.130745 0.0182944 -2.73834e-19)
(0.14567 0.0201267 8.89991e-20)
(0.158832 0.0249221 6.34698e-20)
(-0.00819792 0.00992527 -3.81026e-20)
(-0.0206906 0.0246222 -6.32111e-20)
(-0.0299363 0.0350892 2.45585e-19)
(-0.036102 0.0422613 9.13146e-20)
(-0.0394293 0.0468657 1.20826e-19)
(-0.0401762 0.049483 -1.61345e-19)
(-0.0385788 0.0505843 2.82395e-22)
(-0.0348484 0.0505482 -1.30474e-19)
(-0.0291721 0.0496768 2.41119e-19)
(-0.0217153 0.048211 7.86757e-20)
(-0.0126247 0.0463428 8.82136e-20)
(-0.00203385 0.0442259 -3.5074e-19)
(0.0099323 0.0419829 4.3243e-19)
(0.023152 0.0397123 -1.29862e-19)
(0.0375019 0.037493 -9.28896e-20)
(0.0528524 0.0353883 2.78065e-19)
(0.0690632 0.0334484 1.24025e-19)
(0.0859801 0.0317136 -3.13858e-19)
(0.103433 0.0302197 -1.30974e-19)
(0.121234 0.0290066 3.95199e-19)
(0.139162 0.0281285 -3.01894e-19)
(0.156929 0.027677 1.81511e-19)
(0.174321 0.0279906 1.01435e-19)
(0.191573 0.0302074 -1.30452e-19)
(0.20704 0.0351822 -1.25874e-19)
(-0.00869708 0.00991147 -1.40148e-19)
(-0.0216498 0.02443 2.17756e-19)
(-0.0308285 0.0346748 9.273e-20)
(-0.0364798 0.0416189 -1.33892e-19)
(-0.0389002 0.0460226 -2.14241e-20)
(-0.0383888 0.0484917 -1.40329e-19)
(-0.0352141 0.0495154 -5.58925e-20)
(-0.0296129 0.0494854 6.2722e-20)
(-0.021792 0.0487142 -1.56707e-20)
(-0.0119323 0.0474517 1.18307e-19)
(-0.000194832 0.0458989 -1.02733e-19)
(0.0132735 0.0442185 2.84219e-19)
(0.0283327 0.0425437 -3.52224e-19)
(0.0448434 0.0409848 2.19621e-19)
(0.06266 0.0396343 2.72809e-19)
(0.081624 0.0385704 -3.9425e-19)
(0.101558 0.0378589 -1.1997e-19)
(0.122258 0.0375541 2.02133e-19)
(0.143489 0.0376986 -1.24772e-19)
(0.164983 0.0383233 1.20465e-19)
(0.186422 0.0394388 -2.91969e-19)
(0.207401 0.0410163 4.86208e-20)
(0.227594 0.0431608 1.90301e-19)
(0.247377 0.0468288 -3.06156e-19)
(0.265507 0.0528144 8.25217e-20)
(-0.00915876 0.00982868 -1.2961e-19)
(-0.0224503 0.0240435 4.06207e-19)
(-0.0313955 0.0339657 7.7962e-20)
(-0.0363255 0.0406051 -2.10618e-19)
(-0.0375945 0.0447542 1.50838e-19)
(-0.0355435 0.0470434 7.65792e-20)
(-0.0304742 0.047979 1.22257e-19)
(-0.0226482 0.0479648 -7.98557e-21)
(-0.0122916 0.0473231 -1.27043e-20)
(0.000399284 0.0463126 -2.66231e-20)
(0.01525 0.0451431 -1.16298e-19)
(0.0321004 0.0439871 -3.93693e-21)
(0.0507962 0.0429896 2.7166e-19)
(0.0711813 0.0422753 -4.45472e-19)
(0.0930897 0.0419552 3.16924e-19)
(0.116337 0.0421316 6.41308e-20)
(0.140713 0.0429011 1.13392e-19)
(0.165968 0.0443577 -5.84529e-20)
(0.191803 0.0465934 5.18592e-19)
(0.217855 0.0496967 -3.21281e-19)
(0.243664 0.0537306 2.56969e-19)
(0.268613 0.0586681 6.05439e-20)
(0.292076 0.064502 -1.88358e-19)
(0.314366 0.072079 1.59597e-19)
(0.335025 0.0817348 2.47536e-19)
(-0.00957289 0.00967601 -3.76655e-20)
(-0.0230558 0.0234598 -1.43228e-19)
(-0.0315707 0.0329595 -2.44705e-19)
(-0.0355393 0.0392199 -1.39404e-19)
(-0.0353765 0.0430647 -1.94906e-20)
(-0.031467 0.0451482 -5.50077e-20)
(-0.0241462 0.0459918 -2.54891e-19)
(-0.0137015 0.0460103 4.22269e-20)
(-0.00037839 0.0455342 -2.86245e-19)
(0.0156102 0.0448295 -2.22022e-20)
(0.0340752 0.0441129 -2.74388e-19)
(0.0548417 0.043565 -9.77091e-20)
(0.0777398 0.0433402 5.6066e-20)
(0.102597 0.0435756 -2.66845e-19)
(0.129229 0.0443988 2.41695e-21)
(0.157435 0.0459353 -2.29836e-19)
(0.186986 0.0483168 8.87373e-20)
(0.217617 0.0516897 -3.20962e-19)
(0.24901 0.0562275 -5.50283e-20)
(0.280776 0.0621449 -7.66348e-21)
(0.312394 0.0696963 -5.43173e-20)
(0.343102 0.0791445 -5.57219e-20)
(0.371894 0.090945 -2.79245e-20)
(0.398205 0.106512 -1.11821e-19)
(0.420695 0.124852 -2.39753e-19)
(-0.0099282 0.00945311 6.87771e-20)
(-0.0234257 0.0226784 1.81566e-19)
(-0.0312796 0.0316589 2.18157e-19)
(-0.0340097 0.0374722 -1.74272e-19)
(-0.0320956 0.0409719 3.23276e-19)
(-0.025968 0.0428344 -1.75456e-19)
(-0.0159979 0.0435949 9.526e-20)
(-0.0025001 0.0436765 1.48468e-19)
(0.0142575 0.0434159 1.3505e-19)
(0.0340424 0.0430833 6.56558e-20)
(0.0566461 0.0428991 1.0608e-19)
(0.0818734 0.0430469 6.16701e-20)
(0.109533 0.0436843 4.16726e-19)
(0.139431 0.0449518 -3.02812e-19)
(0.171363 0.0469816 3.45733e-19)
(0.205113 0.0499062 -1.43677e-19)
(0.240449 0.0538687 3.10158e-19)
(0.277124 0.0590371 -1.47153e-20)
(0.314885 0.0656253 -6.42309e-20)
(0.353475 0.0739241 -1.18353e-20)
(0.392647 0.084342 2.44222e-19)
(0.432208 0.097511 -2.39525e-19)
(0.472332 0.114725 1.67847e-19)
(0.513688 0.137892 1.86768e-19)
(0.552781 0.161128 3.87895e-20)
(-0.0102115 0.00915969 4.75922e-20)
(-0.0235133 0.0217007 -2.59729e-19)
(-0.0304379 0.0300719 -9.42794e-20)
(-0.0316119 0.0353806 8.60715e-20)
(-0.0275848 0.038508 -2.65048e-19)
(-0.018837 0.040151 -5.22686e-20)
(-0.00577803 0.0408559 3.62343e-20)
(0.0112458 0.0410518 1.43097e-19)
(0.0319388 0.041078 -3.62196e-19)
(0.0560415 0.0412053 2.75316e-20)
(0.0833165 0.0416525 -1.05844e-19)
(0.113537 0.0425993 -3.21567e-19)
(0.146477 0.044197 2.19061e-19)
(0.181906 0.0465763 9.37174e-21)
(0.219582 0.0498553 -6.56146e-21)
(0.259256 0.0541461 2.20757e-19)
(0.300672 0.0595623 -3.90376e-19)
(0.343581 0.0662279 3.09136e-19)
(0.38775 0.0742867 -5.7157e-20)
(0.432995 0.083914 1.80602e-19)
(0.479204 0.0953216 -2.97305e-19)
(0.526405 0.108788 1.70819e-19)
(0.575032 0.124866 -3.06901e-19)
(0.625969 0.144133 3.17696e-19)
(0.674278 0.160581 -9.88127e-20)
(-0.010407 0.00879537 3.20064e-19)
(-0.0232654 0.0205302 -5.21711e-20)
(-0.0289505 0.0282123 3.84146e-19)
(-0.0282073 0.0329739 1.77743e-19)
(-0.0216614 0.0357208 1.42486e-20)
(-0.00984754 0.0371679 7.75311e-20)
(0.00678041 0.0378699 1.87051e-20)
(0.0278378 0.0382584 3.15633e-19)
(0.0529918 0.0386717 1.0162e-19)
(0.0819436 0.0393758 -1.36292e-20)
(0.114412 0.0405819 2.72976e-20)
(0.150119 0.0424576 1.05038e-19)
(0.188784 0.0451371 8.76374e-20)
(0.230112 0.0487285 1.87457e-19)
(0.273799 0.0533187 -2.13568e-19)
(0.31953 0.0589789 6.44946e-20)
(0.366986 0.065768 1.95668e-20)
(0.415859 0.0737359 9.54782e-20)
(0.465869 0.0829238 2.58896e-19)
(0.516783 0.0933628 -1.68822e-19)
(0.568439 0.105061 1.44807e-20)
(0.620769 0.117991 -2.39747e-19)
(0.673922 0.132205 2.27249e-19)
(0.728314 0.147952 -2.20922e-19)
(0.779069 0.161436 2.07965e-20)
(-0.0104961 0.00835974 -2.6699e-19)
(-0.0226209 0.0191721 2.04042e-19)
(-0.0267115 0.0260992 -3.31977e-19)
(-0.023644 0.0302907 2.86249e-20)
(-0.0141283 0.0326729 2.33402e-19)
(0.00123977 0.0339755 -3.88649e-19)
(0.0219534 0.0347578 3.08156e-19)
(0.0475787 0.0354501 -4.88706e-19)
(0.0777316 0.0363843 9.73577e-20)
(0.112056 0.0378162 2.08015e-20)
(0.150203 0.0399411 1.64029e-19)
(0.191822 0.0429059 -5.44916e-19)
(0.236545 0.0468169 9.40829e-20)
(0.283986 0.0517465 9.96267e-20)
(0.333743 0.0577377 -5.97311e-20)
(0.385399 0.064807 -3.70453e-19)
(0.438537 0.0729472 1.74417e-19)
(0.492751 0.0821271 3.26513e-19)
(0.54766 0.0922907 -3.4473e-19)
(0.602927 0.103351 2.50197e-19)
(0.658274 0.115179 -3.24937e-19)
(0.713477 0.127587 2.36298e-19)
(0.768408 0.140405 -6.60347e-20)
(0.823122 0.153841 3.77623e-19)
(0.87354 0.165982 -4.32926e-19)
(-0.0104564 0.00785239 3.82148e-20)
(-0.0215108 0.0176341 3.01208e-20)
(-0.023604 0.0237577 7.37534e-20)
(-0.0177583 0.0273798 2.63103e-19)
(-0.00477745 0.0294415 -8.23221e-21)
(0.0146712 0.030683 5.87457e-20)
(0.0400163 0.0316636 2.61364e-19)
(0.0707583 0.0328066 1.05422e-19)
(0.106441 0.0344316 -3.47162e-20)
(0.146628 0.0367762 2.95473e-19)
(0.190875 0.040011 -3.3635e-19)
(0.238723 0.0442509 5.1596e-19)
(0.289688 0.0495632 -2.04689e-19)
(0.343259 0.0559728 3.71431e-19)
(0.398902 0.0634671 -1.25407e-19)
(0.456074 0.0719994 4.574e-20)
(0.514232 0.0814916 5.54262e-20)
(0.57285 0.0918354 -1.07225e-19)
(0.631435 0.102892 8.97452e-20)
(0.689542 0.114492 5.77504e-20)
(0.746782 0.126425 7.98617e-20)
(0.802817 0.138434 1.6995e-19)
(0.857363 0.150266 -1.41433e-20)
(0.9103 0.162097 -7.78468e-20)
(0.958649 0.173448 2.36944e-19)
(-0.0102621 0.00727318 -2.23459e-19)
(-0.019858 0.0159264 2.36211e-20)
(-0.0195014 0.0212191 -4.24382e-19)
(-0.0103773 0.0243004 -1.01316e-19)
(0.00660435 0.026118 -1.89583e-19)
(0.0306914 0.0274172 -4.06475e-20)
(0.0612302 0.0287509 -2.0287e-19)
(0.097634 0.0305285 -1.21182e-19)
(0.139349 0.0330485 1.60413e-19)
(0.185823 0.0365203 -2.67678e-19)
(0.236485 0.0410787 -7.43359e-20)
(0.290734 0.0467943 2.93215e-21)
(0.347933 0.0536821 -5.023e-19)
(0.407416 0.0617076 2.13535e-19)
(0.468495 0.0707929 -3.11785e-19)
(0.530482 0.0808221 -9.74405e-21)
(0.592702 0.0916463 6.16307e-20)
(0.654514 0.103088 -9.99116e-20)
(0.715332 0.114944 -8.76576e-20)
(0.774634 0.126989 4.40017e-20)
(0.831969 0.138977 4.93825e-20)
(0.88696 0.150637 -3.19718e-19)
(0.939285 0.161704 1.82443e-19)
(0.98878 0.172312 9.28273e-20)
(1.03353 0.18298 2.63061e-20)
(-0.00988342 0.00662276 2.28662e-19)
(-0.0175779 0.0140631 -2.43897e-19)
(-0.0142694 0.0185222 3.41919e-19)
(-0.00132305 0.0211222 5.31478e-20)
(0.0202291 0.0228074 -1.62936e-20)
(0.0495323 0.0243204 -1.14778e-19)
(0.0858274 0.0261994 1.7259e-20)
(0.128412 0.0288299 1.74385e-19)
(0.176598 0.0324784 -2.405e-19)
(0.229685 0.0373133 2.52509e-19)
(0.286935 0.0434191 -2.66617e-20)
(0.347567 0.0508077 1.17382e-20)
(0.410763 0.0594278 3.28283e-19)
(0.475676 0.0691738 4.40062e-19)
(0.541457 0.0798945 -1.72154e-19)
(0.607273 0.0914015 3.06191e-19)
(0.672334 0.103479 1.55893e-19)
(0.735916 0.11589 -9.51759e-20)
(0.797381 0.128387 3.02685e-19)
(0.856187 0.140716 -1.11353e-20)
(0.911898 0.152623 -2.9198e-19)
(0.964176 0.163856 3.09095e-19)
(1.01276 0.174179 4.51771e-20)
(1.05755 0.183693 -1.92909e-19)
(1.09753 0.193549 6.04728e-20)
(-0.00928724 0.00590321 -3.18249e-19)
(-0.01458 0.0120636 3.32502e-19)
(-0.00776855 0.0157141 -2.10939e-19)
(0.00958218 0.0179266 -6.58314e-20)
(0.0362994 0.0196283 -1.47216e-19)
(0.0714018 0.0215491 2.60236e-19)
(0.113995 0.0242009 -1.51009e-19)
(0.163224 0.0279325 -6.91693e-20)
(0.218229 0.0329638 -1.97954e-19)
(0.278117 0.039406 5.1176e-21)
(0.341942 0.0472763 -7.74073e-20)
(0.408715 0.0565117 3.76969e-20)
(0.477412 0.0669804 -3.96701e-19)
(0.547001 0.0784952 1.13013e-19)
(0.616476 0.0908262 -1.36565e-19)
(0.684884 0.103714 -1.10248e-19)
(0.751362 0.116884 3.40118e-20)
(0.815156 0.130055 -1.6135e-19)
(0.87564 0.142956 -6.98019e-20)
(0.93233 0.155327 2.0025e-19)
(0.984875 0.166934 8.55089e-20)
(1.03305 0.177566 -3.63014e-19)
(1.07675 0.187037 2.67941e-19)
(1.11599 0.195448 -5.07949e-20)
(1.15045 0.204267 -1.05721e-19)
(-0.00843745 0.00511879 -1.16074e-19)
(-0.010769 0.00995336 -6.20785e-20)
(0.000141771 0.012852 -1.24125e-20)
(0.0225102 0.0148073 9.06911e-20)
(0.0549992 0.0167128 9.86172e-20)
(0.0964708 0.0192719 8.58367e-20)
(0.145858 0.0229555 1.06707e-19)
(0.202111 0.0280587 1.62812e-19)
(0.264152 0.0347364 2.48738e-19)
(0.330853 0.0430228 2.46004e-19)
(0.401027 0.0528491 1.29862e-19)
(0.47345 0.0640601 -3.48595e-20)
(0.546887 0.0764309 8.72079e-21)
(0.620134 0.0896856 -1.19765e-20)
(0.692057 0.103516 1.02824e-19)
(0.761637 0.117598 -2.76944e-20)
(0.827994 0.131613 3.06084e-19)