1.22 	3.45254e-18 	-6.98323e-18 	-0.146235 	0.00339061 	-8.48193e-22
1.66 	3.45254e-18 	-6.96118e-18 	-0.272098 	0.00306103 	-3.65575e-23
2.1 	3.45254e-18 	-6.93894e-18 	-0.338476 	0.00985258 	-2.51745e-21
2.54 	3.45254e-18 	-8.30431e-18 	-0.490206 	0.0144477 	-3.65338e-23
2.98 	3.45254e-18 	-8.28171e-18 	-0.458616 	0.00885208 	2.64737e-21
3.42 	3.45254e-18 	-6.87115e-18 	-0.423829 	-0.0035444 	2.38221e-21
3.86 	3.45254e-18 	-6.84819e-18 	-0.259383 	-0.0129521 	3.80875e-22
4.3 	3.45254e-18 	-6.82504e-18 	-0.177136 	-0.0162818 	1.02757e-21
4.74 	3.45254e-18 	-5.41391e-18 	-0.0357615 	-0.0161424 	-3.79719e-22
5.18 	3.45254e-18 	-2.61482e-18 	0.0606692 	-0.0118783 	-5.20016e-23
5.62 	3.45254e-18 	-1.2033e-18 	0.171848 	-0.00684776 	-1.10398e-23
6.06 	3.45254e-18 	-1.17937e-18 	0.255362 	-0.00204906 	-1.44284e-22
6.5 	3.45254e-18 	-1.15524e-18 	0.337498 	0.00151788 	1.22185e-22
