/*--------------------------------*- C++ -*----------------------------------*\
  =========                 |
  \\      /  F ield         | OpenFOAM: The Open Source CFD Toolbox
   \\    /   O peration     | Website:  https://openfoam.org
    \\  /    A nd           | Version:  6.0
     \\/     M anipulation  |
\*---------------------------------------------------------------------------*/
FoamFile
{
    version     2.0;
    format      ascii;
    class       volScalarField;
    location    "28";
    object      p;
}
// * * * * * * * * * * * * * * * * * * * * * * * * * * * * * * * * * * * * * //

dimensions      [0 2 -2 0 0 0 0];

internalField   nonuniform List<scalar> 
4000
(
-0.256262
-0.257229
-0.257863
-0.258323
-0.258706
-0.259028
-0.259302
-0.25954
-0.259753
-0.259945
-0.260123
-0.260291
-0.260452
-0.260612
-0.260774
-0.260948
-0.261136
-0.261287
-0.261379
-0.261931
-0.256373
-0.257336
-0.257966
-0.258421
-0.258798
-0.259114
-0.259381
-0.259613
-0.259818
-0.260004
-0.260174
-0.260333
-0.260487
-0.260638
-0.260792
-0.260959
-0.261139
-0.261284
-0.261368
-0.261916
-0.256596
-0.257551
-0.258173
-0.258619
-0.258986
-0.25929
-0.259544
-0.259762
-0.259953
-0.260123
-0.260278
-0.260421
-0.260559
-0.260694
-0.260832
-0.260982
-0.261148
-0.261279
-0.261349
-0.261887
-0.256929
-0.257875
-0.258486
-0.258918
-0.259268
-0.259554
-0.259789
-0.259986
-0.260155
-0.260302
-0.260433
-0.260552
-0.260664
-0.260774
-0.260886
-0.261012
-0.261155
-0.261265
-0.261311
-0.261836
-0.257374
-0.258307
-0.258903
-0.259316
-0.259645
-0.259907
-0.260115
-0.260284
-0.260423
-0.260538
-0.260636
-0.260721
-0.260798
-0.260871
-0.260948
-0.261039
-0.26115
-0.261229
-0.261243
-0.261748
-0.257932
-0.258849
-0.259426
-0.259816
-0.260117
-0.260347
-0.260521
-0.260654
-0.260754
-0.260829
-0.260884
-0.260924
-0.260954
-0.26098
-0.26101
-0.261054
-0.26112
-0.261158
-0.26113
-0.261609
-0.258602
-0.259501
-0.260055
-0.260417
-0.260684
-0.260875
-0.261008
-0.261096
-0.261148
-0.261172
-0.261173
-0.261157
-0.261129
-0.261094
-0.261062
-0.261045
-0.261054
-0.261037
-0.260953
-0.2614
-0.25939
-0.260267
-0.260794
-0.26112
-0.261347
-0.261493
-0.261575
-0.26161
-0.261605
-0.261568
-0.261505
-0.26142
-0.261319
-0.261209
-0.261099
-0.261005
-0.260938
-0.26085
-0.260695
-0.261102
-0.260298
-0.26115
-0.261643
-0.261929
-0.262108
-0.2622
-0.262225
-0.262198
-0.262127
-0.26202
-0.261881
-0.261714
-0.261527
-0.261324
-0.261118
-0.260926
-0.260764
-0.260583
-0.260338
-0.260694
-0.261333
-0.262154
-0.262608
-0.262846
-0.262969
-0.263001
-0.26296
-0.262863
-0.262719
-0.262532
-0.262306
-0.262047
-0.261757
-0.261445
-0.261122
-0.260809
-0.260526
-0.260225
-0.259862
-0.260153
-0.262502
-0.263284
-0.263691
-0.263873
-0.263933
-0.263896
-0.263784
-0.26361
-0.263384
-0.26311
-0.26279
-0.262426
-0.262022
-0.261583
-0.261122
-0.260661
-0.260226
-0.25977
-0.259252
-0.259456
-0.263812
-0.264547
-0.264897
-0.265015
-0.265003
-0.26489
-0.264698
-0.264442
-0.264129
-0.263763
-0.263342
-0.262866
-0.262336
-0.261756
-0.261134
-0.260497
-0.259873
-0.259217
-0.258492
-0.258573
-0.265274
-0.265949
-0.266233
-0.266275
-0.266182
-0.265984
-0.265706
-0.265362
-0.264958
-0.264496
-0.263972
-0.26338
-0.262717
-0.261983
-0.261182
-0.26034
-0.259485
-0.258574
-0.25757
-0.257473
-0.266897
-0.267499
-0.267703
-0.267658
-0.267472
-0.26718
-0.266807
-0.266369
-0.265872
-0.265313
-0.264684
-0.263976
-0.263179
-0.262284
-0.261291
-0.260216
-0.25909
-0.257858
-0.25648
-0.256117
-0.268693
-0.269205
-0.269314
-0.269167
-0.268874
-0.268475
-0.267999
-0.26746
-0.266865
-0.266207
-0.265476
-0.264655
-0.263726
-0.262671
-0.261477
-0.260152
-0.258714
-0.257092
-0.25522
-0.254459
-0.270673
-0.271078
-0.271074
-0.270808
-0.270391
-0.26987
-0.269276
-0.268627
-0.267927
-0.267168
-0.266334
-0.265404
-0.26435
-0.263141
-0.26175
-0.260166
-0.258389
-0.256315
-0.253815
-0.25247
-0.272854
-0.27313
-0.272993
-0.272586
-0.272025
-0.271363
-0.270634
-0.26986
-0.269044
-0.268176
-0.267238
-0.2662
-0.265029
-0.26368
-0.262107
-0.260275
-0.25816
-0.255611
-0.252377
-0.250203
-0.275252
-0.275377
-0.275083
-0.274512
-0.273782
-0.272954
-0.27207
-0.271151
-0.270202
-0.269214
-0.268164
-0.267021
-0.265741
-0.26427
-0.262541
-0.26049
-0.258059
-0.255039
-0.250962
-0.247567
-0.277892
-0.277841
-0.277363
-0.276599
-0.275672
-0.274652
-0.273586
-0.272499
-0.271399
-0.270276
-0.269109
-0.267865
-0.266499
-0.26495
-0.263134
-0.260949
-0.258271
-0.254744
-0.249498
-0.244095
-0.280802
-0.280547
-0.279855
-0.278869
-0.277714
-0.276472
-0.275197
-0.273918
-0.272646
-0.271376
-0.270093
-0.268773
-0.267386
-0.265892
-0.26424
-0.262364
-0.260146
-0.257127
-0.25207
-0.246085
-0.284022
-0.283529
-0.282591
-0.281349
-0.279934
-0.278441
-0.27693
-0.275437
-0.273976
-0.272551
-0.271158
-0.269792
-0.268459
-0.267183
-0.266028
-0.265141
-0.264795
-0.265432
-0.268648
-0.281445
-0.287595
-0.286827
-0.285606
-0.284076
-0.282371
-0.280599
-0.278829
-0.277101
-0.275438
-0.273851
-0.272349
-0.270948
-0.269683
-0.268627
-0.267909
-0.267761
-0.268562
-0.270873
-0.275906
-0.288373
-0.291575
-0.290486
-0.288945
-0.287094
-0.285071
-0.282996
-0.280947
-0.278972
-0.277099
-0.275347
-0.273738
-0.272303
-0.271101
-0.270227
-0.269837
-0.270165
-0.27155
-0.274424
-0.279396
-0.289071
-0.296019
-0.294557
-0.292657
-0.290453
-0.288085
-0.285688
-0.283348
-0.281117
-0.279029
-0.27711
-0.275388
-0.273907
-0.27273
-0.27196
-0.271738
-0.272257
-0.273756
-0.276493
-0.280731
-0.287641
-0.300986
-0.299095
-0.296793
-0.294207
-0.291473
-0.288738
-0.286096
-0.283603
-0.281294
-0.279197
-0.277344
-0.275777
-0.274557
-0.273768
-0.273522
-0.273945
-0.275174
-0.277321
-0.280473
-0.284865
-0.306536
-0.30415
-0.301407
-0.298411
-0.295292
-0.292207
-0.289255
-0.286489
-0.283946
-0.281648
-0.279623
-0.277903
-0.276537
-0.275585
-0.275115
-0.275199
-0.275891
-0.277209
-0.279172
-0.281526
-0.312723
-0.309775
-0.306548
-0.303119
-0.299598
-0.296152
-0.292877
-0.289823
-0.287017
-0.284474
-0.282209
-0.280244
-0.278606
-0.277331
-0.276453
-0.276001
-0.275982
-0.27637
-0.277159
-0.277918
-0.319591
-0.316012
-0.312264
-0.30838
-0.304443
-0.300621
-0.297005
-0.293632
-0.290516
-0.287657
-0.28506
-0.282728
-0.280675
-0.278916
-0.277466
-0.27633
-0.275497
-0.274933
-0.274624
-0.274159
-0.327175
-0.322897
-0.318593
-0.314236
-0.309867
-0.30565
-0.301661
-0.297919
-0.294419
-0.291148
-0.288095
-0.285256
-0.282636
-0.280241
-0.27808
-0.276154
-0.274453
-0.272953
-0.27164
-0.270196
-0.335492
-0.330452
-0.325563
-0.320717
-0.315898
-0.311254
-0.306842
-0.302656
-0.29867
-0.29486
-0.291208
-0.28771
-0.284371
-0.281205
-0.278224
-0.275438
-0.272846
-0.270442
-0.268209
-0.265939
-0.344541
-0.338684
-0.333187
-0.327837
-0.322542
-0.317426
-0.312516
-0.307779
-0.303176
-0.298675
-0.294266
-0.289955
-0.285761
-0.281711
-0.277833
-0.274147
-0.270664
-0.267391
-0.26431
-0.261298
-0.354297
-0.34758
-0.341458
-0.335588
-0.32978
-0.324122
-0.31861
-0.313187
-0.307807
-0.302449
-0.297121
-0.291854
-0.28669
-0.281676
-0.276853
-0.272254
-0.267897
-0.263795
-0.259923
-0.256217
-0.364708
-0.357101
-0.350344
-0.343932
-0.337556
-0.331261
-0.325011
-0.318737
-0.312403
-0.306016
-0.299618
-0.293274
-0.287054
-0.281026
-0.275242
-0.269739
-0.264539
-0.259649
-0.255037
-0.250675
-0.375689
-0.367178
-0.359781
-0.352797
-0.345778
-0.338719
-0.331565
-0.324254
-0.316781
-0.3092
-0.301603
-0.294092
-0.286766
-0.279706
-0.272969
-0.26659
-0.260585
-0.254956
-0.24965
-0.24467
-0.38712
-0.377709
-0.369671
-0.36207
-0.354304
-0.346326
-0.338078
-0.329531
-0.320741
-0.311826
-0.302931
-0.294199
-0.285748
-0.277666
-0.270006
-0.262794
-0.256033
-0.249713
-0.243764
-0.238209
-0.398843
-0.388553
-0.379871
-0.371591
-0.362948
-0.353868
-0.344321
-0.334346
-0.324081
-0.313722
-0.30347
-0.293498
-0.283935
-0.274864
-0.266327
-0.258334
-0.250873
-0.243917
-0.237375
-0.231296
-0.410658
-0.399529
-0.390196
-0.381155
-0.371478
-0.361095
-0.350043
-0.338464
-0.3266
-0.314728
-0.303098
-0.291901
-0.281265
-0.271259
-0.261904
-0.25319
-0.245089
-0.237554
-0.230473
-0.223928
-0.422325
-0.410414
-0.400417
-0.390509
-0.379622
-0.367728
-0.35498
-0.341654
-0.328109
-0.314698
-0.301706
-0.28933
-0.277682
-0.266807
-0.256702
-0.247335
-0.238657
-0.230604
-0.223043
-0.216093
-0.433567
-0.420944
-0.410261
-0.399363
-0.387077
-0.373471
-0.358864
-0.343691
-0.328429
-0.313496
-0.299195
-0.28571
-0.273127
-0.261462
-0.250683
-0.240733
-0.231546
-0.22304
-0.215058
-0.207771
-0.444072
-0.430818
-0.419419
-0.407391
-0.393515
-0.378022
-0.361434
-0.344365
-0.3274
-0.311001
-0.295472
-0.280969
-0.267544
-0.255175
-0.243803
-0.233346
-0.223722
-0.214829
-0.206489
-0.198933
-0.444245
-0.43099
-0.419588
-0.407556
-0.393675
-0.378174
-0.361579
-0.344501
-0.327528
-0.311122
-0.295585
-0.281076
-0.267644
-0.25527
-0.243892
-0.233429
-0.2238
-0.214902
-0.206557
-0.198996
-0.433745
-0.42112
-0.410436
-0.399534
-0.387242
-0.37363
-0.359015
-0.343834
-0.328564
-0.313623
-0.299314
-0.285823
-0.273234
-0.261562
-0.250777
-0.240821
-0.231629
-0.223118
-0.21513
-0.207837
-0.422507
-0.410594
-0.400595
-0.390685
-0.379793
-0.367892
-0.355137
-0.341803
-0.32825
-0.314832
-0.301832
-0.289449
-0.277794
-0.266913
-0.256802
-0.247428
-0.238744
-0.230686
-0.223119
-0.216164
-0.410842
-0.399712
-0.390377
-0.381334
-0.371653
-0.361264
-0.350206
-0.33862
-0.326748
-0.314869
-0.303231
-0.292027
-0.281384
-0.271371
-0.26201
-0.253289
-0.245182
-0.237641
-0.230554
-0.224003
-0.39903
-0.388738
-0.380054
-0.371773
-0.363126
-0.354041
-0.344488
-0.334507
-0.324235
-0.313869
-0.30361
-0.29363
-0.28406
-0.274983
-0.266439
-0.258439
-0.250972
-0.244009
-0.237461
-0.231376
-0.387309
-0.377895
-0.369856
-0.362254
-0.354484
-0.346502
-0.33825
-0.329697
-0.320901
-0.311979
-0.303078
-0.294338
-0.28588
-0.277791
-0.270124
-0.262905
-0.256138
-0.249811
-0.243855
-0.238294
-0.375878
-0.367365
-0.359968
-0.352982
-0.34596
-0.338898
-0.33174
-0.324424
-0.316945
-0.309359
-0.301755
-0.294238
-0.286905
-0.279838
-0.273094
-0.266709
-0.260697
-0.25506
-0.249748
-0.244761
-0.364898
-0.357289
-0.350531
-0.344117
-0.33774
-0.331442
-0.325189
-0.318911
-0.312572
-0.30618
-0.299776
-0.293426
-0.287201
-0.281166
-0.275375
-0.269865
-0.264657
-0.259761
-0.255141
-0.250772
-0.354487
-0.347768
-0.341645
-0.335773
-0.329963
-0.324304
-0.318789
-0.313363
-0.30798
-0.302618
-0.297286
-0.292013
-0.286843
-0.281823
-0.276994
-0.272387
-0.268024
-0.263914
-0.260034
-0.256321
-0.344731
-0.338873
-0.333373
-0.328022
-0.322726
-0.317608
-0.312697
-0.307958
-0.303352
-0.298849
-0.294436
-0.29012
-0.285921
-0.281867
-0.277982
-0.274289
-0.270799
-0.267519
-0.26443
-0.26141
-0.335682
-0.33064
-0.325749
-0.320902
-0.316082
-0.311437
-0.307024
-0.302837
-0.29885
-0.295037
-0.291383
-0.287882
-0.284539
-0.281368
-0.278382
-0.275589
-0.27299
-0.270579
-0.268338
-0.26606
-0.327365
-0.323084
-0.318779
-0.31442
-0.310051
-0.305833
-0.301843
-0.298101
-0.294601
-0.291329
-0.288275
-0.285435
-0.282811
-0.280413
-0.278247
-0.276315
-0.274607
-0.273101
-0.271779
-0.270327
-0.319781
-0.316199
-0.312449
-0.308564
-0.304626
-0.300804
-0.297188
-0.293816
-0.2907
-0.287842
-0.285245
-0.282912
-0.280857
-0.279096
-0.277642
-0.276501
-0.275662
-0.275091
-0.274774
-0.274299
-0.312913
-0.309962
-0.306733
-0.303303
-0.299782
-0.296335
-0.293061
-0.290009
-0.287204
-0.284662
-0.282399
-0.280434
-0.278796
-0.277519
-0.276639
-0.276183
-0.276158
-0.27654
-0.27732
-0.27807
-0.306726
-0.304337
-0.301591
-0.298594
-0.295475
-0.292391
-0.28944
-0.286677
-0.284135
-0.28184
-0.279817
-0.2781
-0.276735
-0.275782
-0.275311
-0.275392
-0.276079
-0.277391
-0.279346
-0.281689
-0.301176
-0.29928
-0.296977
-0.29439
-0.291656
-0.288923
-0.286283
-0.283792
-0.281486
-0.279393
-0.277544
-0.275979
-0.274761
-0.273974
-0.273727
-0.274149
-0.275375
-0.277515
-0.28066
-0.28504
-0.296207
-0.294742
-0.29284
-0.290635
-0.288269
-0.285873
-0.283536
-0.281308
-0.279224
-0.27731
-0.275592
-0.274115
-0.272942
-0.272174
-0.271954
-0.272472
-0.273968
-0.276701
-0.280932
-0.28783
-0.291762
-0.290669
-0.289127
-0.287276
-0.285254
-0.283181
-0.281136
-0.279166
-0.277297
-0.275551
-0.273947
-0.272517
-0.271319
-0.270449
-0.270062
-0.270391
-0.271775
-0.274646
-0.279612
-0.289274
-0.28778
-0.287008
-0.285786
-0.284256
-0.282554
-0.280785
-0.279019
-0.277297
-0.275639
-0.274058
-0.272562
-0.271167
-0.269908
-0.268856
-0.268142
-0.267996
-0.268798
-0.271108
-0.276136
-0.28859
-0.284203
-0.283707
-0.282768
-0.281527
-0.280115
-0.278626
-0.277121
-0.275633
-0.274179
-0.272761
-0.271375
-0.270016
-0.268689
-0.267418
-0.266268
-0.265385
-0.265043
-0.265681
-0.268894
-0.281681
-0.280979
-0.28072
-0.280028
-0.279043
-0.277892
-0.276655
-0.275386
-0.274114
-0.27285
-0.271588
-0.270313
-0.269
-0.26762
-0.266132
-0.264487
-0.262616
-0.260404
-0.257391
-0.252339
-0.246361
-0.278061
-0.278008
-0.27753
-0.276769
-0.275846
-0.274832
-0.273773
-0.272694
-0.271602
-0.270487
-0.269329
-0.268094
-0.266736
-0.265194
-0.263384
-0.261206
-0.258534
-0.255015
-0.249773
-0.244379
-0.275412
-0.275536
-0.275243
-0.274675
-0.27395
-0.273129
-0.272252
-0.271342
-0.270402
-0.269423
-0.268383
-0.267249
-0.265977
-0.264514
-0.262793
-0.260748
-0.258324
-0.25531
-0.251236
-0.247849
-0.273003
-0.273279
-0.273144
-0.272741
-0.272186
-0.27153
-0.270811
-0.270045
-0.269239
-0.268381
-0.267452
-0.266424
-0.265262
-0.263921
-0.262356
-0.260531
-0.258423
-0.255878
-0.252644
-0.250477
-0.270811
-0.271216
-0.271215
-0.270954
-0.270543
-0.270029
-0.269444
-0.268805
-0.268114
-0.267365
-0.266542
-0.265621
-0.264576
-0.263376
-0.261993
-0.260415
-0.258644
-0.256574
-0.254072
-0.252732
-0.268816
-0.269331
-0.269444
-0.269302
-0.269016
-0.268625
-0.268156
-0.267628
-0.267042
-0.266395
-0.265673
-0.264862
-0.263942
-0.262896
-0.26171
-0.260391
-0.258958
-0.257339
-0.255464
-0.254707
-0.267006
-0.267613
-0.267821
-0.267782
-0.267602
-0.267317
-0.266953
-0.266525
-0.266037
-0.265488
-0.264869
-0.264171
-0.263382
-0.262495
-0.261509
-0.260441
-0.259319
-0.258089
-0.256708
-0.256349
-0.265368
-0.26605
-0.266339
-0.266387
-0.2663
-0.26611
-0.26584
-0.265504
-0.26511
-0.264658
-0.264142
-0.26356
-0.262905
-0.262178
-0.261384
-0.260547
-0.259697
-0.258787
-0.25778
-0.257687
-0.263892
-0.264634
-0.264991
-0.265114
-0.265108
-0.265003
-0.264819
-0.264571
-0.264267
-0.263909
-0.263497
-0.26303
-0.262507
-0.261934
-0.261318
-0.260686
-0.260065
-0.259411
-0.258682
-0.258768
-0.262568
-0.263358
-0.263771
-0.263959
-0.264026
-0.263996
-0.263891
-0.263725
-0.263507
-0.263241
-0.262929
-0.262572
-0.262175
-0.261743
-0.261287
-0.260831
-0.260398
-0.259943
-0.259422
-0.25963
-0.261386
-0.262216
-0.262676
-0.26292
-0.263049
-0.263087
-0.263054
-0.262964
-0.262826
-0.262647
-0.262429
-0.262175
-0.261892
-0.261586
-0.261268
-0.260958
-0.260678
-0.260378
-0.260012
-0.260308
-0.26034
-0.261201
-0.261701
-0.261992
-0.262176
-0.262275
-0.262306
-0.262285
-0.262221
-0.26212
-0.261987
-0.261826
-0.261644
-0.261446
-0.261244
-0.261055
-0.260896
-0.260715
-0.260468
-0.260828
-0.259421
-0.260308
-0.260841
-0.261173
-0.261404
-0.261555
-0.261644
-0.261683
-0.261684
-0.261653
-0.261595
-0.261515
-0.261419
-0.261313
-0.261206
-0.261115
-0.26105
-0.260962
-0.260806
-0.261215
-0.258625
-0.259533
-0.260093
-0.260459
-0.260731
-0.260927
-0.261065
-0.261157
-0.261214
-0.261243
-0.261249
-0.261237
-0.261213
-0.261182
-0.261152
-0.261138
-0.261147
-0.26113
-0.261045
-0.261494
-0.257947
-0.258873
-0.259455
-0.25985
-0.260155
-0.260389
-0.260567
-0.260704
-0.260808
-0.260887
-0.260945
-0.260989
-0.261023
-0.261052
-0.261083
-0.261129
-0.261197
-0.261234
-0.261204
-0.261685
-0.257385
-0.258325
-0.258925
-0.259342
-0.259675
-0.259939
-0.260151
-0.260323
-0.260465
-0.260584
-0.260685
-0.260773
-0.260852
-0.260928
-0.261006
-0.261099
-0.26121
-0.261289
-0.261301
-0.261807
-0.256936
-0.257887
-0.258502
-0.258937
-0.25929
-0.259579
-0.259816
-0.260016
-0.260187
-0.260337
-0.26047
-0.260591
-0.260705
-0.260816
-0.26093
-0.261057
-0.2612
-0.26131
-0.261355
-0.26188
-0.256599
-0.257559
-0.258184
-0.258632
-0.259001
-0.259307
-0.259563
-0.259783
-0.259976
-0.260147
-0.260304
-0.260449
-0.260587
-0.260723
-0.260862
-0.261013
-0.261179
-0.26131
-0.261379
-0.261918
-0.256375
-0.257341
-0.257972
-0.258428
-0.258807
-0.259124
-0.259392
-0.259625
-0.259832
-0.260018
-0.260189
-0.260349
-0.260504
-0.260656
-0.26081
-0.260977
-0.261157
-0.261302
-0.261386
-0.261934
-0.256263
-0.257231
-0.257865
-0.258325
-0.258709
-0.259031
-0.259305
-0.259544
-0.259757
-0.25995
-0.260128
-0.260296
-0.260458
-0.260618
-0.26078
-0.260954
-0.261142
-0.261293
-0.261385
-0.261937
-0.280587
-0.269422
-0.331796
-0.299818
-0.217199
-0.153367
-0.091389
-0.0483804
-0.0206607
0.000195423
0.00833243
0.014484
0.0152339
0.0156984
0.014247
0.0128844
0.0104487
0.0083777
0.00503813
0.00284574
-0.280675
-0.269626
-0.332422
-0.300455
-0.21735
-0.153214
-0.0912253
-0.0483264
-0.0207494
2.94808e-05
0.00816018
0.0143475
0.0151472
0.0156656
0.0142457
0.0129091
0.0104758
0.00840149
0.00505557
0.00284604
-0.280855
-0.269888
-0.333281
-0.301462
-0.217765
-0.153252
-0.0912258
-0.0483791
-0.0209259
-0.000194329
0.00794546
0.0141797
0.0150369
0.0156144
0.0142296
0.0129222
0.0104932
0.00841743
0.00506758
0.00284201
-0.281108
-0.270186
-0.33432
-0.302795
-0.218434
-0.153482
-0.0913924
-0.0485407
-0.0211894
-0.000475452
0.00768964
0.0139811
0.0149035
0.0155447
0.0141987
0.0129232
0.0105008
0.00842514
0.00507392
0.0028336
-0.28141
-0.270493
-0.335471
-0.304399
-0.219338
-0.153903
-0.0917249
-0.0488126
-0.0215387
-0.000813666
0.00739384
0.0137521
0.0147475
0.0154564
0.0141528
0.0129117
0.0104981
0.00842427
0.00507443
0.00282074
-0.281731
-0.270776
-0.336657
-0.306211
-0.220457
-0.154509
-0.0922213
-0.0491953
-0.0219717
-0.00120896
0.00705892
0.0134924
0.0145688
0.0153491
0.0140918
0.0128873
0.0104848
0.00841452
0.00506897
0.00280341
-0.282042
-0.271002
-0.337798
-0.308163
-0.221767
-0.155295
-0.0928777
-0.0496881
-0.0224856
-0.00166137
0.00668552
0.0132017
0.0143675
0.0152225
0.0140155
0.0128496
0.010461
0.00839565
0.00505753
0.00278162
-0.282312
-0.271141
-0.338815
-0.310192
-0.223245
-0.156251
-0.0936888
-0.0502889
-0.0230769
-0.00217086
0.00627416
0.0128793
0.0141431
0.0150758
0.0139238
0.0127983
0.0104263
0.00836747
0.00504013
0.00275541
-0.282515
-0.271165
-0.339639
-0.312239
-0.224871
-0.157366
-0.0946479
-0.0509944
-0.0237414
-0.00273707
0.00582529
0.0125245
0.0138954
0.0149088
0.0138163
0.0127333
0.0103809
0.0083299
0.0050169
0.00272486
-0.282633
-0.271053
-0.34021
-0.314256
-0.226625
-0.15863
-0.0957472
-0.0518002
-0.0244741
-0.00335925
0.00533944
0.0121366
0.0136238
0.0147209
0.0136932
0.0126543
0.0103248
0.00828293
0.00498801
0.00269009
-0.282649
-0.27079
-0.340483
-0.316202
-0.228492
-0.160031
-0.0969782
-0.0527007
-0.0252699
-0.00403605
0.00481732
0.0117155
0.0133282
0.0145117
0.0135543
0.0125614
0.0102582
0.00822663
0.00495371
0.00265126
-0.282558
-0.270368
-0.340423
-0.318051
-0.230464
-0.161556
-0.0983318
-0.0536899
-0.0261229
-0.00476556
0.00425983
0.0112609
0.0130082
0.0142812
0.0133997
0.0124546
0.0101812
0.00816117
0.00491426
0.00260856
-0.28236
-0.269786
-0.340006
-0.319781
-0.232536
-0.163198
-0.0997999
-0.0547619
-0.0270277
-0.00554553
0.00366803
0.0107732
0.0126639
0.0140293
0.0132295
0.0123343
0.0100943
0.00808679
0.00487
0.0025622
-0.282059
-0.269049
-0.339216
-0.321377
-0.23471
-0.164951
-0.101376
-0.055911
-0.027979
-0.00637325
0.00304321
0.0102528
0.0122955
0.0137563
0.0130441
0.0122008
0.00999773
0.0080038
0.00482126
0.00251241
-0.281655
-0.268162
-0.338033
-0.322809
-0.236978
-0.1668
-0.103044
-0.0571265
-0.0289673
-0.00724342
0.00238802
0.0097011
0.0119032
0.0134623
0.0128437
0.0120544
0.00989194
0.00791246
0.00476837
0.00245942
-0.281135
-0.267131
-0.336447
-0.324023
-0.239297
-0.168705
-0.104768
-0.0583847
-0.0299757
-0.00814592
0.00170763
0.00912079
0.0114883
0.013148
0.0126287
0.0118955
0.00977722
0.00781304
0.00471157
0.00240344
-0.280531
-0.265988
-0.334485
-0.325056
-0.241672
-0.17066
-0.106545
-0.0596838
-0.0310079
-0.0090795
0.00100276
0.00851509
0.0110532
0.0128161
0.0124008
0.0117257
0.00965439
0.00770652
0.00465133
0.00234483
-0.279914
-0.264792
-0.332173
-0.3262
-0.244432
-0.172926
-0.108582
-0.0611519
-0.0321557
-0.0100908
0.000249681
0.00787773
0.0105976
0.0124704
0.0121632
0.0115489
0.00952582
0.0075957
0.00458919
0.00228444
-0.278686
-0.263367
-0.329139
-0.327324
-0.247966
-0.175853
-0.111128
-0.0629364
-0.0334848
-0.0112276
-0.000576685
0.00718671
0.0101092
0.0121019
0.0119131
0.0113636
0.00939261
0.00748024
0.00452629
0.00222223
-0.274561
-0.261052
-0.324533
-0.325888
-0.25039
-0.178005
-0.112974
-0.0642507
-0.0343694
-0.0121762
-0.0013151
0.00646915
0.00957566
0.0116706
0.0116222
0.0111387
0.00924029
0.00733841
0.00445397
0.00215231
-0.235748
-0.242059
-0.29165
-0.300959
-0.251067
-0.180433
-0.115211
-0.0661745
-0.0349128
-0.0152246
-0.00433364
0.0025077
0.00632107
0.00876362
0.00963318
0.00951956
0.00819983
0.00630724
0.00394082
0.00169511
-0.196327
-0.222861
-0.246833
-0.255227
-0.227862
-0.171188
-0.113151
-0.0675053
-0.0373246
-0.0197871
-0.00980569
-0.00377296
0.000348828
0.00342285
0.00535515
0.00613871
0.00569499
0.00438464
0.00269697
0.000881347
-0.175959
-0.197151
-0.208939
-0.210948
-0.192519
-0.15265
-0.106807
-0.0678539
-0.0405518
-0.024207
-0.0148474
-0.00913143
-0.00492993
-0.00143361
0.0012179
0.00278851
0.00317947
0.00265854
0.00166223
0.00049777
-0.146044
-0.167944
-0.175082
-0.17304
-0.159382
-0.132672
-0.0992919
-0.0682498
-0.0445657
-0.0290041
-0.0195205
-0.0135408
-0.0091259
-0.00536547
-0.0022987
-0.000152898
0.000982121
0.00123725
0.000918685
0.000332413
-0.121006
-0.14079
-0.146828
-0.14409
-0.133894
-0.116012
-0.0926453
-0.0687732
-0.0484653
-0.0333988
-0.023331
-0.0167704
-0.0121136
-0.00831073
-0.00515161
-0.00267608
-0.000958473
-2.37555e-05
0.000253381
2.21821e-05
-0.100375
-0.117922
-0.124029
-0.122387
-0.115119
-0.102864
-0.0863772
-0.0679635
-0.0505476
-0.0362001
-0.0258052
-0.0188295
-0.0140887
-0.0104541
-0.00741993
-0.00479858
-0.00265162
-0.00117081
-0.000380226
-0.000182034
-0.0844403
-0.0995728
-0.105899
-0.105784
-0.100941
-0.0922237
-0.0800536
-0.0655267
-0.0507136
-0.0375769
-0.0274279
-0.0203871
-0.0157061
-0.0122853
-0.00937869
-0.00666581
-0.00418878
-0.00227258
-0.0010175
-0.000367398
-0.0721447
-0.0851297
-0.0914734
-0.0926113
-0.0895783
-0.0831312
-0.0737134
-0.0620449
-0.0496397
-0.038069
-0.0286468
-0.0218468
-0.0172776
-0.0139373
-0.0110049
-0.00817721
-0.00545387
-0.00321146
-0.00155289
-0.000475955
-0.0626343
-0.0737814
-0.0798925
-0.0817976
-0.0800221
-0.0751629
-0.0677038
-0.0582697
-0.0480166
-0.0381079
-0.0296711
-0.0232747
-0.0187487
-0.0152759
-0.0121722
-0.00924472
-0.00641041
-0.00396963
-0.00201999
-0.000613542
-0.0551847
-0.0647752
-0.0704648
-0.072743
-0.0718521
-0.0682174
-0.0623045
-0.0546863
-0.0462743
-0.03792
-0.0304917
-0.0244917
-0.0198952
-0.0161871
-0.0129198
-0.00999295
-0.00718408
-0.00464041
-0.00248671
-0.000785426
-0.0492433
-0.0575156
-0.062709
-0.0651425
-0.0649
-0.0622569
-0.0576294
-0.0515044
-0.0446013
-0.0375556
-0.0309893
-0.0253046
-0.02063
-0.016781
-0.0134764
-0.0106302
-0.00787793
-0.00524962
-0.00290956
-0.000920763
-0.0444096
-0.0515811
-0.0563075
-0.0587995
-0.0590476
-0.0572254
-0.053668
-0.0487433
-0.0430182
-0.0369892
-0.031101
-0.0257085
-0.0210919
-0.0172799
-0.014027
-0.0112174
-0.00845426
-0.0057263
-0.00322173
-0.00101311
-0.0403904
-0.0466802
-0.051024
-0.053544
-0.0541824
-0.0530325
-0.0503253
-0.0463296
-0.0414982
-0.0362393
-0.0309096
-0.0258739
-0.0214753
-0.0177912
-0.0145538
-0.0116702
-0.00884598
-0.00604862
-0.00345019
-0.00110581
-0.0369792
-0.0426025
-0.0466707
-0.0492289
-0.0501866
-0.0495572
-0.0474896
-0.0442013
-0.0400529
-0.0354022
-0.0305916
-0.0259786
-0.021844
-0.0182423
-0.0149426
-0.0119494
-0.00909432
-0.0062927
-0.00365417
-0.00120086
-0.0340014
-0.0391885
-0.0431009
-0.0457232
-0.0469307
-0.046683
-0.0450921
-0.0423469
-0.0387356
-0.0346051
-0.03029
-0.0260707
-0.0221239
-0.0185325
-0.0151788
-0.0121385
-0.00929832
-0.00651474
-0.0038283
-0.0012666
-0.0313495
-0.0363313
-0.0402119
-0.042914
-0.0443022
-0.0443353
-0.0431095
-0.0407872
-0.0376174
-0.0339401
-0.0300371
-0.026096
-0.0222567
-0.0186856
-0.0153563
-0.012322
-0.0094853
-0.00668996
-0.00394276
-0.00130285
-0.0289248
-0.0339697
-0.0379273
-0.0407097
-0.0422262
-0.0424701
-0.0415242
-0.0395411
-0.0367434
-0.0334224
-0.0297955
-0.0260301
-0.0222938
-0.0187984
-0.0155298
-0.012487
-0.00961464
-0.00679379
-0.00401168
-0.00133144
-0.026766
-0.0321001
-0.0362086
-0.0390634
-0.0406696
-0.0410635
-0.040327
-0.0386154
-0.0361059
-0.0330221
-0.0295642
-0.0259378
-0.0223219
-0.0189064
-0.0156686
-0.0125927
-0.00968186
-0.00685597
-0.00406577
-0.00135756
-0.0249913
-0.0307682
-0.035046
-0.0379526
-0.0396124
-0.0401065
-0.03952
-0.0379957
-0.0356656
-0.0327253
-0.0293921
-0.0258852
-0.0223561
-0.0189735
-0.0157396
-0.0126461
-0.00972353
-0.00690428
-0.00410571
-0.00137264
-0.0238766
-0.0300582
-0.0344503
-0.03738
-0.0390628
-0.0396125
-0.0391095
-0.0376745
-0.0354227
-0.0325585
-0.0293083
-0.0258715
-0.022373
-0.0189897
-0.0157588
-0.0126699
-0.00975076
-0.00693285
-0.00412298
-0.00137573
-0.158787
-0.16883
-0.179
-0.18939
-0.200103
-0.211255
-0.22297
-0.235382
-0.248619
-0.262795
-0.277966
-0.294101
-0.310955
-0.328065
-0.344444
-0.358948
-0.369591
-0.375615
-0.374826
-0.37195
-0.0992505
-0.10269
-0.105818
-0.108618
-0.111068
-0.113145
-0.114822
-0.116074
-0.116875
-0.11721
-0.117074
-0.116499
-0.115552
-0.114403
-0.113277
-0.112636
-0.11287
-0.114878
-0.118967
-0.127237
-0.0748818
-0.0791758
-0.0835053
-0.0878807
-0.0923135
-0.0968157
-0.1014
-0.106079
-0.110865
-0.115768
-0.120795
-0.125944
-0.131198
-0.136523
-0.141839
-0.147042
-0.151944
-0.156359
-0.159973
-0.162577
-0.0615187
-0.0644372
-0.0673139
-0.0701496
-0.0729445
-0.0756988
-0.0784123
-0.0810845
-0.0837148
-0.0863024
-0.0888473
-0.0913506
-0.0938164
-0.0962538
-0.0986805
-0.101126
-0.103644
-0.106307
-0.109272
-0.11276
-0.0514425
-0.0538084
-0.0561773
-0.0585515
-0.0609334
-0.0633254
-0.06573
-0.0681495
-0.0705864
-0.0730432
-0.0755219
-0.0780244
-0.080552
-0.083104
-0.0856792
-0.0882702
-0.0908731
-0.093463
-0.0960544
-0.0985924
-0.0452472
-0.0471057
-0.0489615
-0.0508151
-0.052667
-0.054518
-0.0563686
-0.0582196
-0.0600717
-0.0619256
-0.0637823
-0.0656427
-0.067508
-0.0693793
-0.0712596
-0.0731496
-0.075059
-0.0769859
-0.078976
-0.0810241
-0.0402971
-0.0417876
-0.043279
-0.0447717
-0.0462662
-0.0477632
-0.0492632
-0.0507668
-0.0522744
-0.0537868
-0.0553045
-0.056828
-0.0583578
-0.0598943
-0.0614385
-0.062989
-0.0645503
-0.0661152
-0.0677112
-0.0693123
-0.0366225
-0.0378358
-0.0390491
-0.0402628
-0.0414769
-0.0426917
-0.0439074
-0.0451243
-0.0463425
-0.0475624
-0.0487843
-0.0500084
-0.0512351
-0.0524646
-0.0536978
-0.0549339
-0.0561766
-0.057421
-0.05869
-0.0599621
-0.0336714
-0.0346694
-0.0356674
-0.0366654
-0.0376637
-0.0386623
-0.0396614
-0.0406612
-0.0416617
-0.0426631
-0.0436656
-0.0446692
-0.0456742
-0.0466805
-0.0476887
-0.048698
-0.0497109
-0.0507232
-0.0517518
-0.0527781
-0.0313335
-0.032162
-0.0329904
-0.0338186
-0.0346467
-0.0354749
-0.0363031
-0.0371314
-0.0379599
-0.0387887
-0.0396177
-0.0404471
-0.0412769
-0.0421071
-0.0429379
-0.0437688
-0.0446016
-0.0454331
-0.0462761
-0.047116
-0.0294202
-0.03011
-0.0307999
-0.0314898
-0.0321798
-0.03287
-0.0335603
-0.0342509
-0.0349416
-0.0356326
-0.0363238
-0.0370152
-0.0377068
-0.0383986
-0.0390907
-0.0397826
-0.0404756
-0.0411672
-0.0418671
-0.0425645
-0.0278239
-0.0283987
-0.028974
-0.0295498
-0.0301263
-0.0307034
-0.0312811
-0.0318594
-0.0324383
-0.0330177
-0.0335976
-0.0341779
-0.0347585
-0.0353394
-0.0359205
-0.0365015
-0.0370832
-0.0376638
-0.0382506
-0.0388361
-0.026392
-0.026869
-0.0273477
-0.0278279
-0.0283096
-0.0287929
-0.0292776
-0.0297638
-0.0302513
-0.0307401
-0.03123
-0.0317209
-0.0322128
-0.0327054
-0.0331987
-0.0336923
-0.0341867
-0.0346807
-0.0351795
-0.0356786
-0.0250415
-0.0254367
-0.025835
-0.0262363
-0.0266404
-0.0270473
-0.027457
-0.0278691
-0.0282836
-0.0287003
-0.0291191
-0.0295395
-0.0299616
-0.030385
-0.0308095
-0.0312349
-0.0316612
-0.0320876
-0.0325178
-0.0329496
-0.0235306
-0.0238572
-0.0241893
-0.0245267
-0.0248693
-0.0252167
-0.0255687
-0.025925
-0.0262854
-0.0266494
-0.0270168
-0.0273873
-0.0277605
-0.028136
-0.0285135
-0.0288926
-0.0292734
-0.029655
-0.0300402
-0.030428
-0.0218327
-0.0221091
-0.0223944
-0.0226879
-0.0229893
-0.0232979
-0.0236132
-0.0239348
-0.0242619
-0.0245941
-0.0249308
-0.0252714
-0.0256156
-0.0259626
-0.0263122
-0.0266637
-0.0270169
-0.0273712
-0.0277283
-0.0280886
-0.0192847
-0.0195541
-0.0198363
-0.0201301
-0.0204345
-0.0207483
-0.0210707
-0.0214005
-0.0217369
-0.0220791
-0.0224263
-0.0227775
-0.0231323
-0.0234898
-0.0238494
-0.0242106
-0.0245729
-0.0249358
-0.0253003
-0.0256673
-0.0159912
-0.0163244
-0.0166703
-0.0170271
-0.0173933
-0.0177677
-0.0181489
-0.0185358
-0.0189273
-0.0193224
-0.0197203
-0.0201201
-0.0205211
-0.0209227
-0.0213242
-0.0217251
-0.022125
-0.0225234
-0.0229207
-0.0233185
-0.0109703
-0.0115668
-0.0121574
-0.0127417
-0.0133193
-0.0138899
-0.0144532
-0.0150091
-0.0155574
-0.016098
-0.0166307
-0.0171555
-0.0176723
-0.0181812
-0.0186821
-0.0191749
-0.0196599
-0.020137
-0.0206067
-0.0210705
-0.00546972
-0.00642612
-0.00734823
-0.00823795
-0.00909706
-0.00992726
-0.0107301
-0.0115072
-0.0122598
-0.0129893
-0.0136969
-0.0143837
-0.0150508
-0.0156992
-0.0163299
-0.0169436
-0.0175414
-0.0181239
-0.018692
-0.0192474
-0.00545597
-0.00641261
-0.00733495
-0.0082249
-0.00908425
-0.00991468
-0.0107178
-0.0114951
-0.0122479
-0.0129777
-0.0136855
-0.0143725
-0.0150399
-0.0156886
-0.0163195
-0.0169335
-0.0175315
-0.0181143
-0.0186827
-0.0192383
-0.0109564
-0.0115531
-0.0121439
-0.0127285
-0.0133063
-0.0138771
-0.0144407
-0.0149968
-0.0155454
-0.0160861
-0.0166191
-0.0171442
-0.0176612
-0.0181703
-0.0186715
-0.0191646
-0.0196498
-0.0201272
-0.0205972
-0.0210612
-0.0159769
-0.0163103
-0.0166564
-0.0170134
-0.0173799
-0.0177545
-0.0181359
-0.018523
-0.0189147
-0.0193101
-0.0197082
-0.0201083
-0.0205096
-0.0209114
-0.0213131
-0.0217143