/*--------------------------------*- C++ -*----------------------------------*\
  =========                 |
  \\      /  F ield         | OpenFOAM: The Open Source CFD Toolbox
   \\    /   O peration     | Website:  https://openfoam.org
    \\  /    A nd           | Version:  6.0
     \\/     M anipulation  |
\*---------------------------------------------------------------------------*/
FoamFile
{
    version     2.0;
    format      ascii;
    class       surfaceScalarField;
    location    "28";
    object      phi;
}
// * * * * * * * * * * * * * * * * * * * * * * * * * * * * * * * * * * * * * //

dimensions      [0 3 -1 0 0 0 0];

internalField   nonuniform List<scalar> 
7840
(
-2.66124e-06
2.75391e-06
-9.26713e-08
-9.43621e-06
7.04194e-06
-2.66968e-07
-1.93432e-05
1.03384e-05
-4.31454e-07
-3.15692e-05
1.28108e-05
-5.84744e-07
-4.54555e-05
1.46124e-05
-7.26107e-07
-6.04819e-05
1.58823e-05
-8.55943e-07
-7.62508e-05
1.67444e-05
-9.75432e-07
-9.24725e-05
1.73079e-05
-1.08621e-06
-0.000108951
1.76684e-05
-1.19012e-06
-0.000125571
1.79092e-05
-1.28894e-06
-0.000142289
1.81019e-05
-1.38428e-06
-0.000159119
1.83076e-05
-1.47747e-06
-0.000176127
1.85773e-05
-1.5695e-06
-0.000193418
1.89526e-05
-1.66101e-06
-0.000211131
1.94653e-05
-1.75233e-06
-0.000229426
2.01384e-05
-1.84351e-06
-0.000248478
2.0986e-05
-1.93438e-06
-0.000268466
2.20133e-05
-2.02456e-06
-0.000289572
2.32187e-05
-2.11336e-06
2.46014e-05
-2.19999e-06
-0.000311973
-2.65136e-06
5.40528e-06
-9.39851e-06
1.37891e-05
-1.92589e-05
2.01989e-05
-3.14179e-05
2.49698e-05
-4.52141e-05
2.84086e-05
-6.0124e-05
3.07922e-05
-7.57459e-05
3.23663e-05
-9.17851e-05
3.3347e-05
-0.00010804
3.39231e-05
-0.000124389
3.42587e-05
-0.000140783
3.44955e-05
-0.00015723
3.47549e-05
-0.000173792
3.51388e-05
-0.00019057
3.57307e-05
-0.0002077
3.65959e-05
-0.000225344
3.77821e-05
-0.000243678
3.93195e-05
-0.000262885
4.12204e-05
-0.00028315
4.34842e-05
4.61102e-05
-0.000304659
-2.63527e-06
8.04054e-06
-9.33518e-06
2.0489e-05
-1.91144e-05
2.99781e-05
-3.11539e-05
3.70094e-05
-4.47871e-05
4.20418e-05
-5.94839e-05
4.54889e-05
-7.48343e-05
4.77167e-05
-9.05338e-05
4.90465e-05
-0.00010637
4.97589e-05
-0.000122209
5.0098e-05
-0.000137989
5.02756e-05
-0.000153708
5.04737e-05
-0.000169416
5.08469e-05
-0.000185208
5.15233e-05
-0.000201217
5.26048e-05
-0.000217603
5.41678e-05
-0.000234546
5.62624e-05
-0.000252238
5.89121e-05
-0.000270873
6.21198e-05
6.58867e-05
-0.00029065
-2.61433e-06
1.06549e-05
-9.25014e-06
2.71248e-05
-1.89169e-05
3.96448e-05
-3.07893e-05
4.88818e-05
-4.41931e-05
5.54457e-05
-5.85889e-05
5.98847e-05
-7.35552e-05
6.2683e-05
-8.87735e-05
6.42648e-05
-0.000104015
6.5e-05
-0.000119128
6.52115e-05
-0.000134033
6.51802e-05
-0.000148709
6.51496e-05
-0.000163191
6.53291e-05
-0.000177563
6.58949e-05
-0.000191948
6.69907e-05
-0.000206508
6.87272e-05
-0.000221426
7.1181e-05
-0.000236907
7.43931e-05
-0.000253163
7.83756e-05
8.31347e-05
-0.000270411
-2.59016e-06
1.3245e-05
-9.14784e-06
3.36825e-05
-1.86747e-05
4.91717e-05
-3.03375e-05
6.05445e-05
-4.3453e-05
6.85612e-05
-5.74706e-05
7.39024e-05
-7.19551e-05
7.71675e-05
-8.65706e-05
7.88802e-05
-0.000101067
7.94968e-05
-0.000115272
7.94159e-05
-0.000129078
7.89861e-05
-0.000142441
7.85128e-05
-0.000155374
7.8262e-05
-0.000167941
7.84625e-05
-0.000180257
7.93062e-05
-0.000192476
8.09465e-05
-0.000204791
8.34961e-05
-0.000217421
8.70229e-05
-0.000230603
9.15575e-05
9.71173e-05
-0.000244586
-2.56414e-06
1.58092e-05
-9.03185e-06
4.01502e-05
-1.83942e-05
5.85341e-05
-2.98088e-05
7.19591e-05
-4.2583e-05
8.13354e-05
-5.61549e-05
8.74743e-05
-7.00744e-05
9.1087e-05
-8.39862e-05
9.27921e-05
-9.76171e-05
9.31277e-05
-0.000110765
9.25642e-05
-0.000123295
9.15151e-05
-0.000135128
9.03463e-05
-0.000146248
8.93822e-05
-0.000156694
8.89084e-05
-0.000166561
8.91727e-05
-0.000175996
9.03817e-05
-0.000185197
9.26971e-05
-0.000194402
9.62283e-05
-0.000203883
0.000101038
0.000107167
-0.000213933
-2.537e-06
1.83462e-05
-8.90332e-06
4.65165e-05
-1.80765e-05
6.77073e-05
-2.92047e-05
8.30872e-05
-4.15866e-05
9.37173e-05
-5.465e-05
0.000100538
-6.79307e-05
0.000104368
-8.10543e-05
0.000105916
-9.37223e-05
0.000105796
-0.000105702
0.000104544
-0.000116821
0.000102634
-0.000126964
0.000100489
-0.000136074
9.84921e-05
-0.000144154
9.69885e-05
-0.000151271
9.62897e-05
-0.000157558
9.66683e-05
-0.000163212
9.83515e-05
-0.000168495
0.000101511
-0.000173719
0.000106263
0.00011269
-0.000179242
-2.50831e-06
2.08545e-05
-8.75948e-06
5.27677e-05
-1.77147e-05
7.66625e-05
-2.85128e-05
9.38853e-05
-4.04457e-05
0.00010565
-5.29337e-05
0.000113026
-6.55012e-05
0.000116935
-7.77567e-05
0.000118171
-8.93779e-05
0.000117417
-0.0001001
0.000115266
-0.000109712
0.000112246
-0.000118053
0.00010883
-0.000125017
0.000105456
-0.000130561
0.000102532
-0.000134709
0.000100438
-0.000137567
9.95265e-05
-0.000139326
0.00010011
-0.000140265
0.000102449
-0.000140748
0.000106746
0.000113159
-0.000141218
-2.47618e-06
2.33307e-05
-8.59249e-06
5.8884e-05
-1.7291e-05
8.5361e-05
-2.77018e-05
0.000104296
-3.91129e-05
0.000117061
-5.09407e-05
0.000124854
-6.27031e-05
0.000128697
-7.39964e-05
0.000129465
-8.44782e-05
0.000127899
-9.38548e-05
0.000124643
-0.000101875
0.000120266
-0.00010833
0.000115285
-0.000113058
0.000110184
-0.000115955
0.000105429
-0.000116989
0.000101472
-0.00011622
9.87575e-05
-0.000113815
9.77055e-05
-0.000110064
9.8698e-05
-0.000105387
0.000102069
0.000108104
-0.000100332
-2.4371e-06
2.57678e-05
-8.38895e-06
6.48358e-05
-1.67755e-05
9.37476e-05
-2.67188e-05
0.000114239
-3.75054e-05
0.000127848
-4.85528e-05
0.000135901
-5.93782e-05
0.000139523
-6.95729e-05
0.000139659
-7.87815e-05
0.000137107
-8.66878e-05
0.000132549
-9.30062e-05
0.000126585
-9.74801e-05
0.000119759
-9.98877e-05
0.000112592
-0.000100055
0.000105596
-9.78763e-05
9.92937e-05
-9.3343e-05
9.42242e-05
-8.65746e-05
9.09371e-05
-7.78513e-05
8.99747e-05
-6.76437e-05
9.18618e-05
9.70881e-05
-5.66277e-05
-2.3861e-06
2.81539e-05
-8.13022e-06
7.058e-05
-1.61268e-05
0.000101744
-2.5489e-05
0.000123602
-3.5504e-05
0.000137863
-4.55944e-05
0.000145991
-5.52831e-05
0.000149212
-6.41643e-05
0.00014854
-7.18801e-05
0.000144823
-7.81023e-05
0.000138772
-8.25217e-05
0.000131004
-8.48426e-05
0.00012208
-8.47869e-05
0.000112536
-8.21067e-05
0.000102916
-7.66089e-05
9.37959e-05
-6.81923e-05
8.58077e-05
-5.68961e-05
7.96409e-05
-4.29571e-05
7.60356e-05
-2.68748e-05
7.57796e-05
7.96811e-05
-9.46775e-06
-2.3173e-06
3.04712e-05
-7.79385e-06
7.60565e-05
-1.52937e-05
0.000109244
-2.39186e-05
0.000132226
-3.29558e-05
0.0001469
-4.18346e-05
0.00015487
-5.00883e-05
0.000157465
-5.73217e-05
0.000155774
-6.31851e-05
0.000150686
-6.73527e-05
0.000142939
-6.95079e-05
0.000133159
-6.93336e-05
0.000121906
-6.65107e-05
0.000109713
-6.07265e-05
9.71315e-05
-5.16982e-05
8.47676e-05
-3.9214e-05
7.33234e-05
-2.31968e-05
6.36237e-05
-3.79159e-06
5.66304e-05
1.85188e-05
5.34692e-05
5.54202e-05
4.27796e-05
-2.22458e-06
3.26957e-05
-7.35581e-06
8.11877e-05
-1.42202e-05
0.000116108
-2.19018e-05
0.000139908
-2.96832e-05
0.000154682
-3.69985e-05
0.000162185
-4.33914e-05
0.000163858
-4.84814e-05
0.000160864
-5.19353e-05
0.00015414
-5.3444e-05
0.000144448
-5.27038e-05
0.000132419
-4.94018e-05
0.000118604
-4.32072e-05
0.000103519
-3.37713e-05
8.76956e-05
-2.07412e-05
7.17375e-05
-3.79651e-06
5.63788e-05
1.72807e-05
4.25465e-05
4.24937e-05
3.14174e-05
7.14519e-05
2.4511e-05
2.37607e-05
0.000103111
-2.1026e-06
3.47984e-05
-6.79327e-06
8.58784e-05
-1.28502e-05
0.000122165
-1.9329e-05
0.000146387
-2.5498e-05
0.000160851
-3.07868e-05
0.000167474
-3.47433e-05
0.000167815
-3.69979e-05
0.000163119
-3.72359e-05
0.000154378
-3.51736e-05
0.000142386
-3.05383e-05
0.000127784
-2.30514e-05
0.000111117
-1.24117e-05
9.2879e-05
1.71509e-06
7.35688e-05
1.96988e-05
5.37537e-05
4.19265e-05
3.41512e-05
6.87456e-05
1.57274e-05
0.000100347
-1.84184e-07
0.000136533
-1.1675e-05
-1.5992e-05
0.000176286
-1.94754e-06
3.67459e-05
-6.08708e-06
9.00179e-05
-1.11331e-05
0.000127211
-1.6097e-05
0.000151351
-2.02163e-05
0.00016497
-2.29e-05
0.000170158
-2.36839e-05
0.000168599
-2.21958e-05
0.00016163
-1.81288e-05
0.000150311
-1.12214e-05
0.000135478
-1.24038e-06
0.000117803
1.20359e-05
9.78405e-05
2.88345e-05
7.60804e-05
4.94077e-05
5.29956e-05
7.40531e-05
2.91083e-05
0.000103125
5.07963e-06
0.000137015
-1.81631e-05
0.000176078
-3.92469e-05
0.000220396
-5.59935e-05
-6.47739e-05
0.000269178
-1.75754e-06
3.85034e-05
-5.22319e-06
9.34836e-05
-9.0273e-06
0.000131016
-1.21155e-05
0.000154439
-1.36721e-05
0.000166526
-1.30613e-05
0.000169547
-9.78097e-06
0.000165318
-3.42945e-06
0.000155279
6.3172e-06
0.000140565
1.97195e-05
0.000122076
3.6984e-05
0.000100538
5.82715e-05
7.6553e-05
8.37069e-05
5.0645e-05
0.000113396
2.33063e-05
0.000147454
-4.94985e-06
0.000186044
-3.35096e-05
0.000229411
-6.15307e-05
0.000277904
-8.774e-05
0.000331869
-0.000109958
-0.000123866
0.000390961
-1.5324e-06
4.00358e-05
-4.19194e-06
9.61431e-05
-6.49903e-06
0.000133323
-7.30785e-06
0.000155248
-5.72175e-06
0.00016494
-1.02927e-06
0.000164855
7.34375e-06
0.000156945
1.98661e-05
0.000142757
3.6919e-05
0.000123512
5.88029e-05
0.000100192
8.57361e-05
7.36049e-05
0.000117848
4.44413e-05
0.000155171
1.33218e-05
0.000197639
-1.9162e-05
0.000245098
-5.24087e-05
0.000297341
-8.57524e-05
0.000354178
-0.000118368
0.000415554
-0.000149116
0.000481716
-0.000176121
-0.000195078
0.000552928
-1.27249e-06
4.13083e-05
-2.98486e-06
9.78555e-05
-3.51753e-06
0.000133855
-1.60439e-06
0.000153335
3.76303e-06
0.000159573
1.34062e-05
0.000155211
2.80101e-05
0.000142341
4.81542e-05
0.000122613
7.43263e-05
9.73396e-05
0.000106922
6.75962e-05
0.000146232
3.42948e-05
0.00019242
-1.74623e-06
0.000245488
-3.9747e-05
0.000305246
-7.89197e-05
0.000371267
-0.000118429
0.000442871
-0.000157357
0.000519146
-0.000194643
0.000599048
-0.000229018
0.000681774
-0.000258847
-0.000281633
0.00076833
-9.76808e-07
4.22851e-05
-1.58933e-06
9.8468e-05
-4.50096e-08
0.000132311
5.07255e-06
0.000148217
1.49149e-05
0.000149731
3.04473e-05
0.000139679
5.2503e-05
0.000120286
8.18134e-05
9.33021e-05
0.00011902
6.0133e-05
0.000164669
2.19467e-05
0.000219195
-2.02311e-05
0.000282887
-6.54375e-05
0.00035584
-0.000112701
0.000437894
-0.000160973
0.000528528
-0.000209063
0.000626732
-0.00025556
0.000730836
-0.000298747
0.000838306
-0.000336488
0.000945848
-0.000366388
-0.000390086
0.0010543
-6.40798e-07
4.29259e-05
1.793e-08
9.78093e-05
3.97538e-06
0.000128354
1.28273e-05
0.000139365
2.78971e-05
0.000134661
5.03225e-05
0.000117253
8.11128e-05
8.94955e-05
0.000121178
5.32366e-05
0.000171341
9.96994e-06
0.000232332
-3.90434e-05
0.000304772
-9.26719e-05
0.000389163
-0.000149828
0.000485853
-0.000209391
0.000595011
-0.000270132
0.000716566
-0.000330618
0.00085008
-0.000389075
0.000994455
-0.000443122
0.00114696
-0.000488995
0.00129998
-0.000519405
-0.000520133
0.00143003
-2.55113e-07
4.3181e-05
1.87528e-06
9.56789e-05
8.62872e-06
0.0001216
2.18063e-05
0.000126187
4.2926e-05
0.000113541
7.33164e-05
8.68631e-05
0.000114172
4.86399e-05
0.00016658
8.28962e-07
0.000231523
-5.49739e-05
0.00030988
-0.0001174
0.000402413
-0.000185204
0.000509776
-0.000257191
0.000632547
-0.000332162
0.000771298
-0.000408883
0.000926761
-0.00048608
0.00110013
-0.000562442
0.00129362
-0.000636613
0.00151178
-0.000707152
0.00176536
-0.000772985
-0.00083208
0.0020773
1.981e-07
4.29829e-05
4.04332e-06
9.18337e-05
1.40382e-05
0.000111605
3.22097e-05
0.000108016
6.02848e-05
8.5466e-05
9.9785e-05
4.7363e-05
0.000152074
-3.64893e-06
0.00021837
-6.54676e-05
0.000299741
-0.000136344
0.00039708
-0.00021474
0.000511101
-0.000299225
0.000642334
-0.000388424
0.000791159
-0.000480987
0.000957882
-0.000575606
0.00114286
-0.000671055
0.0013467
-0.000766281
0.00157059
-0.00086051
0.00181681
-0.000953366
0.00208874
-0.00104492
-0.00112797
0.00238463
7.4094e-07
4.2242e-05
6.59687e-06
8.59777e-05
2.03535e-05
9.78486e-05
4.42761e-05
8.40934e-05
8.03015e-05
4.94405e-05
0.000130126
-2.46117e-06
0.000195233
-6.8756e-05
0.000276886
-0.000147121
0.000376095
-0.000235554
0.000493581
-0.000332225
0.000629743
-0.000435388
0.000784658
-0.000543338
0.000958091
-0.00065442
0.00114955
-0.000767066
0.00135836
-0.000879866
0.00158374
-0.000991659
0.00182487
-0.00110164
0.00208091
-0.00120941
0.00235074
-0.00131475
-0.00140915
0.00263192
1.40063e-06
4.08414e-05
9.62313e-06
7.77552e-05
2.77425e-05
7.97293e-05
5.82615e-05
5.35744e-05
0.000103309
4.39257e-06
0.000164709
-6.38611e-05
0.000243978
-0.000148025
0.000342284
-0.000245427
0.00046039
-0.000353659
0.000598594
-0.00047043
0.0007567
-0.000593493
0.000934008
-0.000720647
0.00112935
-0.000849764
0.00134116
-0.000978869
0.00156751
-0.00110622
0.00180624
-0.00123039
0.00205492
-0.00135032
0.0023109
-0.00146539
0.00257131
-0.00157516
-0.00167221
0.00283437
2.20586e-06
3.86355e-05
1.32108e-05
6.67503e-05
3.63685e-05
5.65716e-05
7.43998e-05
1.55431e-05
0.000129581
-5.07891e-05
0.000203778
-0.000138058
0.000298401
-0.000242647
0.00041433
-0.000361357
0.000551835
-0.000491164
0.000710513
-0.000629107
0.000889275
-0.000772256
0.00108638
-0.000917757
0.00129954
-0.00106292
0.00152599
-0.00120532
0.00176266
-0.00134289
0.00200628
-0.00147401
0.00225347
-0.00159751
0.00250078
-0.0017127
0.00274486
-0.00181924
-0.00191168
0.00298432
3.18355e-06
3.5452e-05
1.7439e-05
5.24948e-05
4.63667e-05
2.7644e-05
9.28596e-05
-3.09498e-05
0.00015926
-0.00011719
0.000247339
-0.000226137
0.000358208
-0.000353517
0.000492209
-0.000495357
0.000648829
-0.000647784
0.000826674
-0.000806952
0.00102351
-0.000969095
0.0012364
-0.00113064
0.00146185
-0.00128837
0.00169605
-0.00143951
0.00193505
-0.00158189
0.00217498
-0.00171394
0.00241215
-0.00183468
0.00264317
-0.00194372
0.00286509
-0.00204116
-0.00212364
0.00307705
4.35595e-06
3.1096e-05
2.23673e-05
3.44834e-05
5.7822e-05
-7.81071e-06
0.000113705
-8.6833e-05
0.000192296
-0.00019578
0.000295081
-0.000328922
0.000422618
-0.000481054
0.000574415
-0.000647154
0.000748877
-0.000822247
0.000943364
-0.00100144
0.00115434
-0.00118008
0.00137765
-0.00135394
0.00160875
-0.00151947
0.00184308
-0.00167385
0.00207631
-0.00181512
0.00230452
-0.00194215
0.00252438
-0.00205454
0.00273319
-0.00215253
0.00292895
-0.00223693
-0.0023062
0.00311152
5.73859e-06
2.53574e-05
2.80278e-05
1.21942e-05
7.07526e-05
-5.05355e-05
0.000136868
-0.000152948
0.000228406
-0.000287319
0.000346321
-0.000446837
0.000490314
-0.000625047
0.000658746
-0.000815586
0.000848676
-0.00101218
0.00105606
-0.00120882
0.00127605
-0.00140007
0.00150344
-0.00158133
0.00173302
-0.00174905
0.00195995
-0.00190079
0.00218007
-0.00203524
0.00239002
-0.0021521
0.00258734
-0.00225186
0.00277045
-0.00233564
0.00293855
-0.00240503
-0.00246005
0.0030924
7.33916e-06
1.80183e-05
3.44204e-05
-1.48871e-05
8.50983e-05
-0.000101213
0.000162126
-0.000229976
0.000267052
-0.000392245
0.000399993
-0.000579778
0.000559471
-0.000784525
0.000742413
-0.000998527
0.000944356
-0.00121412
0.00115984
-0.00142431
0.00138293
-0.00162316
0.00160773
-0.00180613
0.00182885
-0.00197017
0.00204178
-0.00211372
0.00224307
-0.00223653
0.00243038
-0.0023394
0.00260244
-0.00242392
0.00275892
-0.00249212
0.00290021
-0.00254633
-0.00258771
0.00302788
9.15703e-06
8.86123e-06
4.15106e-05
-4.72406e-05
0.000100716
-0.000160419
0.000189102
-0.000318362
0.000307441
-0.000510584
0.00045468
-0.000727017
0.000627849
-0.000957694
0.000822238
-0.00119292
0.00103184
-0.00142372
0.00124998
-0.00164245
0.00147001
-0.00184319
0.00168588
-0.002022
0.00189263
-0.00217692
0.00208659
-0.00230768
0.00226544
-0.00241538
0.00242812
-0.00250208
0.00257461
-0.00257041
0.00270571
-0.00262322
0.00282276
-0.00266338
-0.00269284
0.00292789
1.11831e-05
-2.3219e-06
4.92279e-05
-8.52854e-05
0.000117378
-0.000228569
0.000217264
-0.000418248
0.000348549
-0.00064187
0.000508679
-0.000887147
0.000692945
-0.00114196
0.000894936
-0.00139491
0.00110727
-0.00163606
0.00132245
-0.00185763
0.00153364
-0.00205438
0.00173527
-0.00222363
0.0019233
-0.00236495
0.00209529
-0.00247967
0.00225027
-0.00257036
0.00238845
-0.00264026
0.00251092
-0.00269287
0.00261931
-0.00273161
0.00271556
-0.00275963
-0.00277929
0.00280201
1.33997e-05
-1.57216e-05
5.74664e-05
-0.000129352
0.000134775
-0.000305877
0.00024594
-0.000529413
0.000389169
-0.000785099
0.000560111
-0.00105809
0.000752195
-0.00133405
0.000957425
-0.00160014
0.00116741
-0.00184604
0.00137436
-0.00206458
0.00157189
-0.00225191
0.0017554
-0.00240713
0.00192214
-0.00253169
0.00207111
-0.00262864
0.00220263
-0.00270188
0.00231801
-0.00275563
0.00241911
-0.00279398
0.00250808
-0.00282058
0.00258708
-0.00283863
-0.00285063
0.00265842
1.57802e-05
-3.15018e-05
6.60848e-05
-0.000179657
0.000152521
-0.000392313
0.000274343
-0.000651235
0.00042797
-0.000938726
0.000607053
-0.00123717
0.000803195
-0.00153019
0.00100712
-0.00180406
0.00120996
-0.00204887
0.00140424
-0.00225887
0.00158455
-0.00243222
0.00174764
-0.00257022
0.00189225
-0.00267631
0.00201872
-0.00275511
0.00212849
-0.00281164
0.00222362
-0.00285076
0.00230644
-0.0028768
0.00237927
-0.00289342
0.00244425
-0.0029036
-0.00290982
0.00250343
1.82886e-05
-4.97905e-05
7.49085e-05
-0.000236277
0.000170169
-0.000487574
0.00030161
-0.000782677
0.000463588
-0.0011007
0.000647689
-0.00142127
0.000843909
-0.00172641
0.00104218
-0.00200233
0.00123373
-0.00224043
0.001412
-0.00243714
0.00157292
-0.00259315
0.0017148
-0.00271209
0.00183778
-0.00279929
0.00194337
-0.00286069
0.00203377
-0.00290205
0.00211151
-0.0029285
0.00217906
-0.00294435
0.00223866
-0.00295302
0.00229226
-0.0029572
-0.00295912
0.00234156
2.08801e-05
-7.06705e-05
8.37337e-05
-0.00029913
0.000187222
-0.000591062
0.000326844
-0.000922299
0.000494713
-0.00126857
0.00068045
-0.00160701
0.000872839
-0.0019188
0.00106159
-0.00219109
0.00123864
-0.00241748
0.00139874
-0.00259724
0.00153942
-0.00273382
0.00166047
-0.00283314
0.00176328
-0.0029021
0.00185017
-0.00294758
0.00192382
-0.0029757
0.0019869
-0.00299158
0.0020418
-0.00299925
0.00209055
-0.00300177
0.00213479
-0.00300144
-0.00300022
0.00217589
2.3501e-05
-9.41715e-05
9.23334e-05
-0.000367963
0.000203161
-0.00070189
0.000349172
-0.00106831
0.00052019
-0.00143959
0.00070414
-0.00179096
0.000889117
-0.00210377
0.00106521
-0.00236718
0.00122555
-0.00257781
0.00136648
-0.00273817
0.0014871
-0.00285445
0.00158855
-0.00293458
0.00167313
-0.00298669
0.00174369
-0.00301814
0.00180308
-0.00303509
0.00185389
-0.00304239
0.00189828
-0.00304364
0.00193799
-0.00304148
0.00197436
-0.00303781
-0.00303428
0.00200842
2.60906e-05
-0.000120262
0.000100467
-0.000442339
0.000217473
-0.000818896
0.000367801
-0.00121864
0.000539096
-0.00161089
0.000718004
-0.00196987
0.000892515
-0.00227828
0.00105364
-0.00252831
0.00119604
-0.00272021
0.00131772
-0.00285985
0.00141924
-0.00295597
0.00150278
-0.00301812
0.00157126
-0.00305517
0.00162775
-0.00307463
0.00167506
-0.0030824
0.00171554
-0.00308287
0.00175107
-0.00307917
0.00178307
-0.00307348
0.0018126
-0.00306734
-0.0030621
0.00184042
2.85832e-05
-0.000148845
0.000107891
-0.000521647
0.000229674
-0.000940679
0.000382067
-0.00137103
0.000550796
-0.00177962
0.000721747
-0.00214082
0.000883387
-0.00243992
0.00102807
-0.00267299
0.00115214
-0.00284429
0.0012552
-0.00296291
0.00133902
-0.00303979
0.00140652
-0.00308562
0.00146096
-0.0031096
0.00150538
-0.00311905
0.00154239
-0.00311941
0.00157406
-0.00311454
0.00160194
-0.00310705
0.00162717
-0.00309871
0.00165056
-0.00309072
-0.00308418
0.00167264
3.09104e-05
-0.000179756
0.000114371
-0.000605107
0.000239345
-0.00106565
0.000391478
-0.00152316
0.000554967
-0.0019431
0.000715511
-0.00230136
0.00086255
-0.00258696
0.000990058
-0.0028005
0.00109608
-0.00295031
0.0011816
-0.00304843
0.00124934
-0.00310753
0.00130266
-0.00313894
0.00134488
-0.00315182
0.0013789
-0.00315307
0.00140703
-0.00314755
0.00143102
-0.00313852
0.00145211
-0.00312814
0.0014712
-0.0031178
0.00148889
-0.00310842
-0.00310085
0.00150556
3.30046e-05
0.000119695
0.000246149
0.000395729
0.000551591
0.000699798
0.000831155
0.00094137
0.00103007
0.0010994
0.00115269
0.00119352
0.0012251
0.00125005
0.00127037
0.00128748
0.00130238
0.00131574
0.00132803
0.00133949
3.30078e-05
0.000179854
0.000119701
0.000605355
0.00024615
0.00106601
0.000395714
0.00152358
0.000551549
0.00194354
0.000699719
0.00230177
0.000831034
0.00258733
0.000941205
0.00280082
0.00102987
0.00295057
0.00109916
0.00304865
0.00115241
0.0031077
0.00119321
0.00313907
0.00122476
0.00315193
0.0012497
0.00315316
0.00127
0.00314761
0.00128709
0.00313857
0.00130197
0.00312818
0.00131532
0.00311782
0.00132759
0.00310843
0.00310086
0.00133904
3.09144e-05
0.00014894
0.00011438
0.00052189
0.000239353
0.000941033
0.000391475
0.00137145
0.000554941
0.00178007
0.000715451
0.00214126
0.000862448
0.00244034
0.00098991
0.00267336
0.00109588
0.0028446
0.00118137
0.00296316
0.00124907
0.00304
0.00130235
0.00308579
0.00134454
0.00310974
0.00137854
0.00311916
0.00140665
0.0031195
0.00143061
0.00311461
0.00145169
0.00310711
0.00147076
0.00309875
0.00148843
0.00309076
0.0030842
0.00150509
2.85878e-05
0.000120352
0.000107903
0.000442575
0.000229689
0.000819246
0.000382077
0.00121907
0.000550787
0.00161136
0.000721708
0.00197034
0.000883307
0.00227874
0.00102794
0.00252872
0.00115197
0.00272057
0.00125498
0.00286015
0.00133876
0.00295623
0.00140622
0.00301833
0.00146062
0.00305534
0.00150501
0.00307477
0.001542
0.00308251
0.00157364
0.00308296
0.0016015
0.00307925
0.00162671
0.00307354
0.00165008
0.00306739
0.00306214
0.00167214
2.60958e-05
9.4256e-05
0.000100481
0.000368189
0.000217495
0.000702233
0.000367822
0.00106874
0.000539106
0.00144007
0.000717988
0.00179146
0.000892462
0.00210426
0.00105355
0.00236764
0.00119589
0.00257822
0.00131752
0.00273852
0.00141899
0.00285475
0.00150248
0.00293484
0.00157092
0.0029869
0.00162738
0.00301831
0.00167465
0.00303524
0.00171511
0.00304251
0.00175062
0.00304374
0.0017826
0.00304156
0.0018121
0.00303788
0.00303434
0.0018399
2.35066e-05
7.07494e-05
9.23501e-05
0.000299346
0.000203189
0.000591394
0.000349205
0.000922724
0.000520218
0.00126906
0.000704149
0.00160753
0.000889094
0.00191932
0.00106515
0.00219159
0.00122543
0.00241793
0.00136631
0.00259765
0.00148688
0.00273418
0.00158827
0.00283344
0.00167281
0.00290236
0.00174333
0.0029478
0.00180268
0.00297588
0.00185346
0.00299173
0.00189782
0.00299938
0.0019375
0.00300188
0.00197385
0.00300154
0.0030003
0.00200789
2.08859e-05
4.98635e-05
8.3752e-05
0.000236479
0.000187254
0.000487891
0.000326887
0.000783091
0.000494758
0.00110119
0.000680484
0.0014218
0.000872849
0.00172696
0.00106156
0.00200287
0.00123856
0.00224093
0.00139861
0.0024376
0.00153923
0.00259356
0.00166023
0.00271245
0.00176298
0.00279961
0.00184982
0.00286096
0.00192343
0.00290227
0.00198647
0.00292869
0.00204133
0.00294451
0.00209005
0.00295316
0.00213426
0.00295732
0.00295923
0.00217534
1.82945e-05
3.1569e-05
7.49279e-05
0.000179846
0.000170205
0.000392614
0.000301662
0.000651634
0.000463649
0.000939204
0.000647747
0.00123771
0.000843951
0.00153075
0.00104219
0.00180463
0.0012337
0.00204942
0.00141191
0.00225939
0.00157278
0.00243269
0.00171459
0.00257064
0.00183752
0.00267668
0.00194304
0.00275543
0.0020334
0.00281192
0.00211109
0.00285101
0.00217859
0.00287701
0.00223815
0.0028936
0.00229172
0.00290376
0.00290996
0.00234099
1.5786e-05
1.57829e-05
6.61048e-05
0.000129527
0.00015256
0.000306159
0.000274402
0.000529792
0.000428045
0.000785561
0.000607134
0.00105862
0.000803269
0.00133462
0.00100718
0.00160073
0.00120998
0.00184663
0.00140421
0.00206515
0.00158446
0.00225244
0.00174748
0.00240762
0.00189203
0.00253213
0.00201844
0.00262902
0.00212814
0.00270222
0.00222322
0.00275593
0.00230599
0.00279424
0.00237877
0.00282081
0.00244371
0.00283883
0.00285081
0.00250285
1.34054e-05
2.37752e-06
5.74866e-05
8.54461e-05
0.000134816
0.00022883
0.000246004
0.000418603
0.000389255
0.00064231
0.000560212
0.000887659
0.0007523
0.00114253
0.000957519
0.00139551
0.00116748
0.00163667
0.00137439
0.00185823
0.00157187
0.00205497
0.00175531
0.00222418
0.00192199
0.00236545
0.00207088
0.00248013
0.00220234
0.00257077
0.00231765
0.00264062
0.00241869
0.0026932
0.0025076
0.0027319
0.00258655
0.00275988
0.00277952
0.00265784
1.11886e-05
-8.8111e-06
4.92482e-05
4.73866e-05
0.00011742
0.000160658
0.000217332
0.000318691
0.000348644
0.000510998
0.000508796
0.000727507
0.000693077
0.000958247
0.000895069
0.00119352
0.00110739
0.00142435
0.00132254
0.00164308
0.00153369
0.00184381
0.00173526
0.00202261
0.00192322
0.00217749
0.00209514
0.00230821
0.00225004
0.00241586
0.00238815
0.00250252
0.00251054
0.0025708
0.00261887
0.00262357
0.00271505
0.0026637
0.00269312
0.00280145
9.16239e-06
-1.79735e-05
4.15309e-05
1.50181e-05
0.000100759
0.00010143
0.000189174
0.000230277
0.000307544
0.000392628
0.000454812
0.000580239
0.000628004
0.000785054
0.000822407
0.000999113
0.00103201
0.00121475
0.00125013
0.00142496
0.00147013
0.00162382
0.00168595
0.00180678
0.00189264
0.0019708
0.00208653
0.00211432
0.0022653
0.00223709
0.00242789
0.00233992
0.0025743
0.00242439
0.00270533
0.00249255
0.0028223
0.00254672
0.00258807
0.00292736
7.34457e-06
-2.53181e-05
3.44413e-05
-1.20787e-05
8.51433e-05
5.07277e-05
0.000162201
0.000153218
0.000267162
0.000287668
0.000400138
0.000447263
0.000559647
0.000625545
0.000742613
0.000816148
0.000944568
0.00101279
0.00116005
0.00120947
0.00138312
0.00140075
0.00160788
0.00158202
0.00182896
0.00174973
0.00204182
0.00190145
0.00224304
0.00203588
0.00243026
0.0021527
0.00260223
0.00225242
0.00275862
0.00233616
0.00289983
0.00240551
0.00246049
0.00302741
5.74435e-06
-3.10624e-05
2.805e-05
-3.43844e-05
7.08003e-05
7.97747e-06
0.000136948
8.70709e-05
0.000228524
0.000196092
0.000346478
0.000329309
0.000490509
0.000481514
0.000658974
0.000647683
0.000848928
0.000822837
0.00105632
0.00100208
0.00127631
0.00118076
0.00150368
0.00135465
0.00173323
0.00152019
0.00196011
0.00167457
0.00218016
0.00181583
0.00239003
0.00194283
0.00258726
0.00205519
0.00277027
0.00215315
0.00293828
0.0022375
0.00230674
0.00309202
4.36243e-06
-3.54248e-05
2.23918e-05
-5.24138e-05
5.7874e-05
-2.75047e-05
0.000113792
3.1153e-05
0.000192423
0.000117462
0.00029525
0.000226481
0.000422831
0.000353934
0.000574667
0.000495846
0.000749164
0.00064834
0.000943677
0.000807568
0.00115467
0.000969763
0.00137797
0.00113135
0.00160905
0.00128911
0.00184335
0.00144027
0.00207653
0.00158265
0.00230467
0.00171469
0.00252444
0.00183542
0.00273316
0.00194443
0.00292882
0.00204184
0.00212428
0.00311128
3.19118e-06
-3.8616e-05
1.74669e-05
-6.66895e-05
4.64245e-05
-5.64623e-05
9.29547e-05
-1.53772e-05
0.000159398
5.10186e-05
0.000247523
0.000138356
0.000358439
0.000243018
0.000492486
0.000361799
0.000649148
0.000491678
0.000827028
0.000629688
0.00102389
0.000772898
0.00123679
0.000918452
0.00146224
0.00106366
0.00169642
0.00120609
0.00193539
0.00134369
0.00217526
0.00147482
0.00241236
0.00159832
0.0026433
0.0017135
0.00286512
0.00182002
0.00191243
0.00307697
2.21499e-06
-4.0831e-05
1.32429e-05
-7.77174e-05
3.64336e-05
-7.9653e-05
7.4505e-05
-5.34487e-05
0.000129732
-4.20823e-06
0.000203977
6.41111e-05
0.00029865
0.000148345
0.000414629
0.00024582
0.000552182
0.000354125
0.000710904
0.000470966
0.000889704
0.000594098
0.00108684
0.000721314
0.00130001
0.000850488
0.00152646
0.000979642
0.00176312
0.00110703
0.0020067
0.00123123
0.00225384
0.00135119
0.00250108
0.00146626
0.00274506
0.00157604
0.00167307
0.00298442
1.41145e-06
-4.22425e-05
9.65978e-06
-8.59657e-05
2.78152e-05
-9.78084e-05
5.83771e-05
-8.40106e-05
0.000103473
-4.93038e-05
0.000164923
2.66052e-06
0.000244244
6.90238e-05
0.000342603
0.000147461
0.000460761
0.000235967
0.000599016
0.000332712
0.000757167
0.000435947
0.000934515
0.000543966
0.00112989
0.000655113
0.00134171
0.000767819
0.00156807
0.000880673
0.00180678
0.000992515
0.00205544
0.00110253
0.00231136
0.00121033
0.00257169
0.0013157
0.00141011
0.00283465
7.53406e-07
-4.29959e-05
6.63771e-06
-9.185e-05
2.04329e-05
-0.000111604
4.44003e-05
-0.000107978
8.04748e-05
-8.53782e-05
0.000130351
-4.72153e-05
0.000195511
3.86335e-06
0.000277219
6.5753e-05
0.000376483
0.000136703
0.000494022
0.000215172
0.000630237
0.000299732
0.000785201
0.000389003
0.000958677
0.000481637
0.00115017
0.000576323
0.00135901
0.000671838
0.0015844
0.000767127
0.00182552
0.000861414
0.00208152
0.000954326
0.0023513
0.00104593
0.00112902
0.0026324
2.1185e-07
-4.32077e-05
4.08704e-06
-9.57252e-05
1.41214e-05
-0.000121638
3.23382e-05
-0.000126195
6.04619e-05
-0.000113502
0.000100013
-8.67662e-05
0.000152354
-4.84779e-05
0.000218704
-5.97335e-07
0.00030013
5.52776e-05
0.000397525
0.000117777
0.000511602
0.000185655
0.00064289
0.000257715
0.00079177
0.000332757
0.000958542
0.000409551
0.00114356
0.00048682
0.00134743
0.000563255
0.00157135
0.000637501
0.00181755
0.000708118
0.00208945
0.000774031
0.000833184
0.00238528
-2.40756e-07
-4.2967e-05
1.91961e-06
-9.78856e-05
8.71145e-06
-0.00012843
2.19319e-05
-0.000139415
4.30969e-05
-0.000134667
7.35342e-05
-0.000117203
0.000114438
-8.93817e-05
0.000166896
-5.30548e-05
0.000231891
-9.7181e-06
0.000310302
3.93661e-05
0.000402891
9.30654e-05
0.000510314
0.000150292
0.000633146
0.000209925
0.000771961
0.000270737
0.000927486
0.000331295
0.00110091
0.000389827
0.00129446
0.000443956
0.00151266
0.000489921
0.00176626
0.000520431
0.000521259
0.00207818
-6.26782e-07
-4.23402e-05
5.98339e-08
-9.85722e-05
4.05169e-06
-0.000132422
1.29408e-05
-0.000148304
2.80488e-05
-0.000149775
5.05131e-05
-0.000139668
8.13431e-05
-0.000120212
0.00012145
-9.31619e-05
0.000171657
-5.99252e-05
0.000232695
-2.16716e-05
0.000305188
2.05727e-05
0.000389635
6.58441e-05
0.000486389
0.000113171
0.000595619
0.000161507
0.000717253
0.00020966
0.000850859
0.000256222
0.000995338
0.000299477
0.00114797
0.000337291
0.00130113
0.000367268
0.00039103
0.00143136
-9.64263e-07
-4.13759e-05
-1.55339e-06
-9.79831e-05
1.80926e-08
-0.000133993
5.16325e-06
-0.00015345
1.50324e-05
-0.000159644
3.0591e-05
-0.000155226
5.26728e-05
-0.000142294
8.20105e-05
-0.0001225
0.000119247
-9.71617e-05
0.00016493
-6.7355e-05
0.000219496
-3.39927e-05
0.000283234
2.10636e-06
0.000356243
4.01621e-05
0.000438363
7.93867e-05
0.000529077
0.000118946
0.000627378
0.000157921
0.000731601