/*--------------------------------*- C++ -*----------------------------------*\
  =========                 |
  \\      /  F ield         | OpenFOAM: The Open Source CFD Toolbox
   \\    /   O peration     | Website:  https://openfoam.org
    \\  /    A nd           | Version:  6.0
     \\/     M anipulation  |
\*---------------------------------------------------------------------------*/
FoamFile
{
    version     2.0;
    format      ascii;
    class       volVectorField;
    location    "28";
    object      U;
}
// * * * * * * * * * * * * * * * * * * * * * * * * * * * * * * * * * * * * * //

dimensions      [0 1 -1 0 0 0 0];

internalField   nonuniform List<vector> 
4000
(
(-0.00045679 0.00056116 -3.3827e-21)
(-0.00250371 0.00141483 1.80812e-20)
(-0.00629049 0.00203392 -2.19904e-20)
(-0.0109414 0.00246892 1.67449e-20)
(-0.0159972 0.00275944 8.15384e-21)
(-0.0211966 0.00293857 -2.44852e-20)
(-0.0263525 0.00303504 -2.1641e-21)
(-0.0313434 0.00307347 -7.67921e-22)
(-0.0361016 0.00307471 -1.27086e-20)
(-0.0405988 0.00305635 -6.88488e-21)
(-0.0448357 0.00303302 5.13476e-21)
(-0.0488335 0.00301678 1.95197e-20)
(-0.0526279 0.00301728 -1.46226e-21)
(-0.0562636 0.003042 2.0908e-21)
(-0.0597909 0.00309635 -1.96589e-20)
(-0.0632693 0.00318367 1.21126e-20)
(-0.066759 0.00330547 -1.73533e-20)
(-0.0702456 0.00346291 2.62593e-20)
(-0.073623 0.0036576 -2.93595e-23)
(-0.0774194 0.00387861 5.66831e-21)
(-0.000539653 0.00160441 1.12336e-20)
(-0.00270745 0.00401821 -5.7406e-20)
(-0.0065729 0.00573768 -3.96469e-20)
(-0.0112683 0.00691486 -2.69235e-20)
(-0.0163402 0.00766878 -3.46346e-20)
(-0.0215315 0.00809804 7.62316e-21)
(-0.0266587 0.00828766 -3.99799e-20)
(-0.031603 0.00830995 -8.97903e-21)
(-0.0362989 0.00822583 2.83827e-21)
(-0.0407197 0.00808647 2.98811e-20)
(-0.0448673 0.00793454 -3.25933e-20)
(-0.0487639 0.00780518 4.53368e-20)
(-0.0524464 0.00772676 -3.39491e-20)
(-0.0559605 0.00772141 -4.02573e-20)
(-0.0593577 0.00780535 -5.54743e-20)
(-0.0626991 0.00798889 3.54294e-20)
(-0.0660468 0.00827694 -1.14555e-20)
(-0.0693879 0.00867355 -4.17103e-20)
(-0.0726159 0.00918439 3.94397e-20)
(-0.0762604 0.00977733 -2.92715e-20)
(-0.000703788 0.00263519 1.0981e-19)
(-0.00311184 0.00658906 5.68626e-20)
(-0.00713527 0.00939236 6.39471e-20)
(-0.0119215 0.0112974 5.32044e-21)
(-0.017028 0.0125019 3.53424e-20)
(-0.0222063 0.0131692 4.4112e-20)
(-0.0272798 0.0134398 -8.01563e-20)
(-0.0321352 0.0134332 -4.2447e-20)
(-0.0367111 0.0132497 -5.52761e-20)
(-0.0409839 0.012974 5.90112e-20)
(-0.0449578 0.0126766 -4.50702e-20)
(-0.0486573 0.0124161 -5.79823e-20)
(-0.0521211 0.0122399 -2.11105e-20)
(-0.0553972 0.0121856 2.00562e-20)
(-0.0585396 0.012281 -5.57427e-21)
(-0.0616122 0.0125443 8.04217e-21)
(-0.064681 0.0129847 9.3048e-20)
(-0.0677367 0.0136099 -1.3077e-20)
(-0.0706714 0.0144306 -9.45806e-20)
(-0.074019 0.0153934 1.24625e-19)
(-0.000948066 0.00364655 3.81981e-20)
(-0.00371405 0.00910856 -5.39662e-20)
(-0.00797368 0.0129691 -1.35347e-20)
(-0.0128963 0.015579 2.5302e-20)
(-0.0180557 0.0172135 7.18489e-20)
(-0.0232161 0.0180993 1.57305e-19)
(-0.0282116 0.0184314 1.53704e-19)
(-0.0329369 0.0183752 1.27659e-20)
(-0.0373368 0.01807 9.4249e-20)
(-0.0413923 0.017633 1.44256e-19)
(-0.0451111 0.0171626 -1.15266e-19)
(-0.0485204 0.0167411 1.70584e-19)
(-0.051662 0.0164358 -3.86165e-20)
(-0.0545867 0.0163007 9.74654e-21)
(-0.0573524 0.0163769 4.03318e-20)
(-0.0600274 0.0166921 5.35916e-20)
(-0.0626834 0.0172611 -8.4343e-20)
(-0.0653165 0.0180967 -7.03821e-20)
(-0.0678179 0.0192165 -1.24542e-19)
(-0.0707288 0.0205459 1.81241e-19)
(-0.00127093 0.0046322 -1.99592e-20)
(-0.00450992 0.0115592 -2.04283e-19)
(-0.00908192 0.0164407 -6.04208e-20)
(-0.0141849 0.0197243 -1.47238e-19)
(-0.0194141 0.0217609 5.56528e-20)
(-0.0245514 0.0228394 -8.77736e-20)
(-0.0294446 0.0232075 3.0179e-20)
(-0.0339999 0.0230747 -1.85893e-19)
(-0.03817 0.0226179 9.80621e-20)
(-0.0419418 0.0219863 -1.16944e-19)
(-0.0453274 0.0213057 -1.03998e-19)
(-0.0483577 0.0206822 -1.16434e-19)
(-0.0510777 0.0202041 1.05689e-19)
(-0.0535421 0.0199434 -9.48835e-20)
(-0.0558133 0.0199565 1.32125e-19)
(-0.0579656 0.0202827 3.81829e-20)
(-0.0600786 0.0209454 9.45062e-20)
(-0.0621558 0.0219649 4.14608e-20)
(-0.0640889 0.0233682 -1.64206e-19)
(-0.0664299 0.0250598 2.67362e-19)
(-0.00167044 0.00558662 8.796e-20)
(-0.00549376 0.013925 6.77547e-21)
(-0.0104509 0.019782 3.62351e-20)
(-0.0157749 0.0237007 1.26441e-19)
(-0.0210885 0.0261057 -1.93625e-20)
(-0.0261954 0.027346 2.05316e-19)
(-0.0309617 0.0277197 9.11186e-20)
(-0.0353073 0.0274788 7.65878e-21)
(-0.0391951 0.0268355 2.34298e-19)
(-0.0426196 0.0259695 7.6765e-20)
(-0.0455977 0.0250334 3.64134e-20)
(-0.0481645 0.0241571 1.15577e-19)
(-0.0503684 0.0234508 1.05934e-19)
(-0.0522683 0.0230064 1.93385e-19)
(-0.053932 0.0228981 -1.72849e-19)
(-0.055441 0.0231809 2.44314e-19)
(-0.0568846 0.0238897 3.18813e-21)
(-0.0582769 0.0250561 -3.12222e-19)
(-0.0595114 0.026721 4.0471e-19)
(-0.0611573 0.0287692 1.67866e-19)
(-0.00214428 0.00650486 -5.18386e-20)
(-0.00665807 0.0161909 -9.40808e-20)
(-0.0120677 0.0229697 -1.95793e-19)
(-0.0176483 0.0274781 -5.80255e-21)
(-0.023056 0.0302131 3.34022e-20)
(-0.0281215 0.0315811 -2.50011e-19)
(-0.0327332 0.0319281 -1.85475e-19)
(-0.0368279 0.0315454 -2.65336e-20)
(-0.0403812 0.0306783 -2.34595e-19)
(-0.0433958 0.0295347 -1.62417e-19)
(-0.0458949 0.0282925 -4.73335e-20)
(-0.0479173 0.0271051 -1.52405e-19)
(-0.0495151 0.026105 -2.4851e-21)
(-0.0507512 0.0254062 -2.0238e-19)
(-0.0516989 0.0251041 8.51299e-20)
(-0.0524477 0.0252732 -9.71246e-20)
(-0.0530993 0.0259654 7.43878e-20)
(-0.0536805 0.0272294 -9.47005e-20)
(-0.0540904 0.0291263 -2.70484e-19)
(-0.0549231 0.0315233 -8.21964e-20)
(-0.00268964 0.00738228 -1.90655e-20)
(-0.00799309 0.0183426 -2.07077e-20)
(-0.0139147 0.0259816 1.64149e-19)
(-0.0197795 0.0310289 -2.67107e-19)
(-0.0252831 0.0340522 3.91872e-20)
(-0.0302891 0.0355128 -1.54285e-19)
(-0.0347123 0.0358011 7.29167e-20)
(-0.0385101 0.0352446 3.27706e-19)
(-0.0416729 0.034118 -2.10257e-20)
(-0.0442136 0.0326544 -2.44454e-19)
(-0.0461619 0.0310547 4.4426e-20)
(-0.0475606 0.0294943 8.61269e-21)
(-0.0484649 0.0281282 -5.01789e-20)
(-0.048941 0.0270938 5.08375e-21)
(-0.0490672 0.0265113 4.40882e-19)
(-0.048942 0.0264801 -6.27813e-20)
(-0.0486803 0.0270758 -1.22453e-19)
(-0.0483257 0.0283723 -2.19651e-19)
(-0.0477866 0.0304606 2.24068e-19)
(-0.0476939 0.0331949 9.67141e-20)
(-0.00330306 0.00821411 9.63151e-20)
(-0.00948609 0.0203656 -1.25999e-19)
(-0.0159683 0.0287955 1.78143e-19)
(-0.0221329 0.0343265 1.79332e-19)
(-0.0277225 0.0375949 1.6532e-19)
(-0.032639 0.0391142 3.35237e-19)
(-0.0368289 0.0393158 2.16778e-19)
(-0.0402737 0.038559 -4.65807e-19)
(-0.0429816 0.0371438 2.38215e-19)
(-0.0449774 0.0353247 1.86918e-19)
(-0.0462979 0.0333216 -2.64981e-21)
(-0.0469903 0.0313295 2.09224e-19)
(-0.0471118 0.0295242 1.6311e-19)
(-0.0467311 0.0280673 -8.87319e-20)
(-0.0459306 0.0271068 2.99812e-19)
(-0.0448168 0.0267727 -3.71654e-19)
(-0.0435195 0.027173 1.48754e-19)
(-0.0421017 0.0284178 1.91276e-19)
(-0.0404868 0.0306422 -4.45784e-20)
(-0.0393584 0.0336959 3.84705e-19)
(-0.00398009 0.00899492 1.93494e-19)
(-0.0111206 0.0222441 1.00341e-20)
(-0.0181973 0.0313885 -6.94568e-20)
(-0.0246614 0.0373441 -7.33756e-20)
(-0.03031 0.0408144 -3.39774e-19)
(-0.0350898 0.0423622 4.81102e-20)
(-0.0389839 0.0424562 1.36317e-19)
(-0.0420024 0.0414829 -6.55605e-20)
(-0.0441742 0.0397629 5.40794e-20)
(-0.0455385 0.0375668 -1.43458e-20)
(-0.0461408 0.0351288 -7.06415e-20)
(-0.0460325 0.0326586 6.70622e-20)
(-0.0452729 0.0303499 -2.91576e-19)
(-0.0439312 0.028387 2.79517e-19)
(-0.0420923 0.026947 -2.42109e-19)
(-0.0398696 0.026196 7.47878e-20)
(-0.0374079 0.0262835 1.7017e-19)
(-0.0347915 0.0273706 -3.54181e-20)
(-0.0319654 0.0296566 -1.17717e-19)
(-0.0296875 0.0330011 -8.01355e-20)
(-0.00471495 0.00971822 -2.41008e-19)
(-0.0128755 0.0239601 -1.58728e-20)
(-0.0205617 0.0337351 5.07592e-20)
(-0.0273037 0.0400529 1.30525e-19)
(-0.0329615 0.0436828 -1.84273e-19)
(-0.0375328 0.0452346 -1.60804e-19)
(-0.0410427 0.0452102 3.75321e-19)
(-0.0435346 0.0440193 -2.07393e-19)
(-0.0450619 0.0419977 -1.33778e-19)
(-0.045681 0.0394261 -1.91942e-19)
(-0.0454482 0.0365469 1.27063e-19)
(-0.0444206 0.0335782 -3.44204e-21)
(-0.0426593 0.0307255 -2.37278e-19)
(-0.0402333 0.0281915 -3.88145e-19)
(-0.0372279 0.0261807 2.95707e-19)
(-0.0337611 0.0248978 -2.39596e-19)
(-0.0299915 0.0245429 3.39694e-19)
(-0.0260259 0.0253453 -9.51892e-20)
(-0.0218358 0.0275954 1.99992e-19)
(-0.0182826 0.0311857 -6.79685e-19)
(-0.00550013 0.0103762 -4.88058e-19)
(-0.0147243 0.025493 3.20058e-19)
(-0.0230115 0.0358065 4.35315e-20)
(-0.0299835 0.0424203 8.42031e-21)
(-0.0355709 0.0461689 -1.97383e-19)
(-0.0398291 0.0477067 2.9026e-19)
(-0.0428308 0.0475659 3.16821e-20)
(-0.044657 0.0461751 -5.95182e-20)
(-0.04539 0.0438804 -1.91027e-19)
(-0.045107 0.0409669 2.0649e-19)
(-0.0438785 0.0376781 5.23496e-19)
(-0.0417699 0.0342325 -1.15653e-19)
(-0.0388456 0.030839 2.6132e-19)
(-0.0351748 0.0277098 -3.08686e-19)
(-0.0308416 0.0250705 -2.95989e-19)
(-0.0259663 0.0231618 1.77971e-19)
(-0.020719 0.0222392 2.9404e-19)
(-0.0152274 0.0226168 -9.52732e-19)
(-0.00949206 0.0247108 1.1189e-19)
(-0.00451413 0.0284814 1.52201e-19)
(-0.00632607 0.0109595 3.61396e-19)
(-0.0166342 0.026819 1.18895e-19)
(-0.025486 0.0375696 6.19457e-19)
(-0.0326075 0.0444089 3.18833e-20)
(-0.0380083 0.0482357 -6.88955e-20)
(-0.0418073 0.0497478 -3.28087e-19)
(-0.0441297 0.0495056 2.79009e-19)
(-0.0450989 0.0479534 5.00554e-19)
(-0.04483 0.045444 3.33474e-19)
(-0.0434256 0.0422618 2.40741e-19)
(-0.0409747 0.0386451 2.07528e-19)
(-0.0375555 0.0348044 -3.72676e-19)
(-0.03324 0.0309411 -1.16739e-19)
(-0.0281002 0.0272644 -8.59714e-20)
(-0.0222202 0.0240079 9.21327e-19)
(-0.0157215 0.0214372 -3.15016e-21)
(-0.00878305 0.0198587 -2.29622e-19)
(-0.00154919 0.0196821 -7.23242e-20)
(0.00595456 0.0214878 6.58809e-19)
(0.012546 0.0253509 8.61165e-20)
(-0.00718108 0.011458 -1.78133e-20)
(-0.0185662 0.0279116 -3.41944e-19)
(-0.0279134 0.0389871 -5.08766e-19)
(-0.0350658 0.0459751 -1.41585e-19)
(-0.0401196 0.0498384 7.81821e-20)
(-0.0432624 0.0513179 1.68387e-20)
(-0.0446762 0.0510008 4.46443e-19)
(-0.0445301 0.0493461 -5.53689e-19)
(-0.0429762 0.046711 -2.10606e-19)
(-0.0401467 0.0433771 -4.24406e-19)
(-0.0361549 0.0395729 -3.61464e-19)
(-0.031098 0.035494 -3.20043e-19)
(-0.0250628 0.0313238 8.00198e-20)
(-0.0181316 0.0272541 -1.03895e-19)
(-0.0103941 0.0235066 4.45191e-19)
(-0.00197583 0.0203504 -2.44006e-19)
(0.00693514 0.0181223 -7.64987e-19)
(0.0161835 0.0173221 -1.54285e-19)
(0.0257349 0.0187267 3.77537e-19)
(0.0341875 0.0225829 -3.29421e-19)
(-0.00805135 0.0118608 -5.7663e-20)
(-0.0204746 0.0287429 4.18261e-19)
(-0.0302105 0.0400188 -5.33482e-19)
(-0.0372311 0.0470704 1.23302e-19)
(-0.0417264 0.0509248 -2.54013e-19)
(-0.0439563 0.0523661 5.65818e-19)
(-0.0441625 0.0520087 -4.04378e-19)
(-0.0425623 0.0503263 4.62619e-19)
(-0.0393474 0.0476819 -4.38627e-19)
(-0.0346835 0.0443545 1.87132e-19)
(-0.0287135 0.0405627 -9.0823e-20)
(-0.0215622 0.036485 -2.27999e-19)
(-0.0133414 0.0322803 -2.81697e-19)
(-0.00415631 0.02811 2.80708e-19)
(0.00588433 0.0241629 -2.35087e-19)
(0.0166396 0.0206797 -5.1408e-19)
(0.0279047 0.0179882 5.35223e-19)
(0.0395153 0.0166425 -6.82835e-19)
(0.0514606 0.0176244 3.07145e-19)
(0.0621022 0.0214018 8.41844e-21)
(-0.00892126 0.0121575 -5.22903e-19)
(-0.0223076 0.0292848 -5.64704e-19)
(-0.0322826 0.0406231 6.50672e-20)
(-0.0389589 0.0476436 -5.44676e-19)
(-0.0426257 0.0514375 -4.84994e-20)
(-0.0436181 0.052833 -4.00648e-19)
(-0.0422385 0.0524725 -9.1913e-20)
(-0.038753 0.050847 -2.68606e-19)
(-0.0333935 0.0483282 2.38026e-21)
(-0.0263617 0.045197 -1.17514e-19)
(-0.017835 0.0416674 8.32975e-21)
(-0.00797369 0.0379053 -3.38573e-19)
(0.00307225 0.0340474 3.73152e-19)
(0.0151569 0.0302205 -5.29421e-19)
(0.0281306 0.0265659 1.87597e-19)
(0.0418129 0.0232647 7.1447e-21)
(0.0559582 0.0205806 -2.98842e-19)
(0.0703801 0.0190467 7.41133e-19)
(0.085137 0.0198025 -1.77074e-19)
(0.0983966 0.0235423 -1.15272e-19)
(-0.00977366 0.0123392 5.87059e-19)
(-0.0240069 0.0295115 3.17035e-19)
(-0.0340232 0.0407609 2.94927e-19)
(-0.0400863 0.0476453 4.40326e-20)
(-0.0425894 0.0513198 3.98849e-19)
(-0.0419443 0.0526571 5.74876e-19)
(-0.0385132 0.0523292 4.70695e-19)
(-0.0326097 0.050847 4.2095e-20)
(-0.024505 0.0485959 3.44639e-19)
(-0.0144366 0.0458665 5.32488e-19)
(-0.00261903 0.0428778 -1.38114e-19)
(0.0107451 0.0397955 2.31795e-19)
(0.0254552 0.0367473 1.87159e-19)
(0.0413045 0.0338372 1.90397e-19)
(0.0580732 0.0311631 1.12642e-18)
(0.0755041 0.0288329 -4.22214e-19)
(0.093265 0.0269955 -2.58185e-20)
(0.111097 0.0260519 4.90269e-19)
(0.129164 0.0271687 -2.78129e-19)
(0.145596 0.0311878 1.37909e-19)
(-0.0105901 0.0123986 -4.74833e-19)
(-0.0255076 0.029401 3.04749e-20)
(-0.0353123 0.040399 -3.80244e-19)
(-0.0404297 0.047034 -4.94953e-20)
(-0.0413614 0.050524 2.78355e-19)
(-0.0385959 0.0517865 -8.28559e-19)
(-0.032554 0.0515235 -5.59606e-22)
(-0.0235935 0.0502683 3.85539e-19)
(-0.012022 0.0484249 3.62202e-19)
(0.00188877 0.0463014 -1.59472e-19)
(0.0178868 0.0441343 5.25622e-20)
(0.0357236 0.0421066 1.21931e-19)
(0.0551383 0.0403608 -5.77354e-20)
(0.0758447 0.0390082 -6.47576e-19)
(0.0975205 0.0381378 1.63945e-19)
(0.119783 0.037814 4.51545e-19)
(0.14214 0.0380683 -6.43605e-19)
(0.164153 0.0390783 3.14015e-19)
(0.186063 0.041869 8.44377e-20)
(0.206308 0.0472466 4.29188e-19)
(-0.0113506 0.0123308 -7.0181e-20)
(-0.0267364 0.0289374 -3.32837e-19)
(-0.0360136 0.0395145 1.53133e-19)
(-0.0397809 0.0457834 6.67141e-22)
(-0.0386526 0.0490232 -6.67552e-19)
(-0.0331943 0.050195 1.04167e-19)
(-0.0238831 0.05003 -1.97685e-20)
(-0.0111184 0.0490839 1.3473e-19)
(0.00475883 0.0477821 -6.16665e-19)
(0.0234452 0.0464554 -4.31842e-20)
(0.0446531 0.0453678 -1.44808e-19)
(0.0680885 0.044736 1.28863e-19)
(0.0934287 0.0447452 4.34937e-19)
(0.1203 0.0455591 -6.72383e-20)
(0.148254 0.047328 2.60457e-20)
(0.176725 0.0501773 1.71419e-19)
(0.204946 0.0541575 -4.22717e-20)
(0.232068 0.0593698 3.46762e-19)
(0.258117 0.0668299 -2.0059e-19)
(0.282187 0.0769742 -3.18836e-19)
(-0.0120328 0.0121331 6.50547e-20)
(-0.0276095 0.0281116 1.5828e-20)
(-0.0359705 0.0380981 1.33493e-19)
(-0.0379014 0.0438895 3.26961e-19)
(-0.0341349 0.0468228 1.83456e-19)
(-0.0253146 0.0478994 1.91385e-20)
(-0.0119737 0.0478766 -2.18999e-19)
(0.00544729 0.04733 5.61501e-20)
(0.0265739 0.0467036 2.9517e-19)
(0.0510711 0.046349 -5.00152e-19)
(0.0786171 0.0465569 3.77373e-19)
(0.108879 0.0475806 -2.84322e-19)
(0.141491 0.0496584 2.4131e-19)
(0.176029 0.0530351 -5.20556e-19)
(0.211978 0.0579861 5.72953e-19)
(0.248676 0.0648311 -6.12991e-19)
(0.285162 0.0739249 -1.59633e-19)
(0.320114 0.0858951 5.02387e-19)
(0.352411 0.102654 -1.69173e-19)
(0.379223 0.123896 7.67669e-20)
(-0.0126107 0.0118042 -4.92707e-20)
(-0.0280296 0.0269218 4.64892e-19)
(-0.0350016 0.0361575 -1.96599e-21)
(-0.0345173 0.0413771 -2.8857e-19)
(-0.0274353 0.0439704 -1.9408e-19)
(-0.0144816 0.0449747 3.55521e-19)
(0.0037505 0.0451677 -1.40814e-19)
(0.0267729 0.0451377 -1.77425e-20)
(0.0541682 0.0453379 2.93316e-19)
(0.0855574 0.0461283 -3.64404e-19)
(0.120572 0.047807 3.99346e-20)
(0.158837 0.050637 -4.73662e-19)
(0.199951 0.0548715 2.49489e-19)
(0.243492 0.060783 -7.14143e-19)
(0.289018 0.0687031 1.13852e-18)
(0.336081 0.0790744 -2.08414e-19)
(0.384267 0.0925742 2.189e-19)
(0.433493 0.110671 -5.68049e-19)
(0.484282 0.136364 2.33133e-21)
(0.52891 0.164956 6.54867e-19)
(-0.0130525 0.0113432 -1.49336e-19)
(-0.0278813 0.0253732 1.29055e-19)
(-0.032896 0.0337184 -4.75016e-19)
(-0.0293148 0.0383033 7.02525e-19)
(-0.018134 0.0405633 -5.07158e-19)
(-0.000171089 0.0415652 2.61503e-20)
(0.0239079 0.042099 -5.46695e-19)
(0.0535481 0.042755 3.90832e-19)
(0.088262 0.0439813 -5.58576e-20)
(0.127591 0.046124 -3.44805e-19)
(0.171076 0.0494571 -2.01183e-19)
(0.218244 0.0542048 2.12554e-19)
(0.268601 0.0605604 1.40653e-19)
(0.321649 0.0687035 -6.22922e-19)
(0.37691 0.0788168 2.2475e-19)
(0.433975 0.0910979 -3.323e-19)
(0.492563 0.105782 4.02663e-20)
(0.552767 0.12335 -2.8415e-19)
(0.615505 0.144974 1.18925e-19)
(0.673488 0.166269 -4.30032e-19)
(-0.0133182 0.0107491 4.25114e-19)
(-0.0270278 0.0234778 -2.57383e-19)
(-0.0294102 0.0308256 2.12086e-19)
(-0.0219398 0.0347596 -2.67739e-19)
(-0.00576745 0.0367504 4.48861e-19)
(0.0181802 0.0378863 -7.89669e-21)
(0.0491387 0.0389591 -5.4621e-20)
(0.0864503 0.0405476 -4.04897e-20)
(0.129508 0.043076 2.49204e-19)
(0.177711 0.0468523 4.23654e-19)
(0.230436 0.052094 -2.50279e-19)
(0.287025 0.0589469 2.43299e-19)
(0.346792 0.0674977 4.44659e-19)
(0.409044 0.0777827 -3.11797e-19)
(0.473115 0.0897926 -6.34717e-19)
(0.538409 0.103466 1.16189e-18)
(0.604443 0.118671 -2.07342e-19)
(0.670933 0.135252 -6.77636e-20)
(0.73816 0.153559 7.35474e-19)
(0.800731 0.172407 -1.53912e-19)
(-0.0133578 0.010021 -6.92358e-19)
(-0.0253092 0.0212549 -4.60918e-19)
(-0.0242691 0.0275435 -1.76938e-19)
(-0.0120031 0.0308715 3.41296e-19)
(0.0101585 0.0327303 -7.70349e-19)
(0.0411495 0.0342186 3.9882e-19)
(0.0800645 0.0361157 5.05285e-20)
(0.126085 0.0389709 5.10444e-20)
(0.178409 0.0431609 -5.22126e-19)
(0.23621 0.0489265 -1.84379e-19)
(0.298603 0.0563956 -3.25009e-19)
(0.364651 0.0656006 3.13904e-19)
(0.433381 0.0764904 8.92578e-20)
(0.503818 0.0889399 1.75624e-20)
(0.575028 0.102756 4.10738e-19)
(0.646158 0.117674 -4.15599e-19)
(0.716473 0.133351 -1.74347e-20)
(0.785382 0.149377 9.93001e-21)
(0.852612 0.165618 5.6369e-20)
(0.915045 0.183472 3.27758e-19)
(-0.0131103 0.00915857 2.20495e-19)
(-0.0225416 0.0187327 5.67938e-19)
(-0.0171692 0.0239569 4.55781e-19)
(0.000908628 0.0267975 -1.57059e-19)
(0.0301457 0.0287465 5.4607e-19)
(0.0692893 0.0308964 -4.59927e-20)
(0.117228 0.0339939 -6.47929e-20)
(0.172897 0.0385324 3.85597e-20)
(0.235205 0.0448096 5.27493e-19)
(0.302991 0.0529622 3.09876e-19)
(0.375011 0.0629905 9.04593e-20)
(0.449962 0.0747786 5.50815e-21)
(0.526522 0.0881136 -6.01123e-19)
(0.603406 0.102703 5.22264e-19)
(0.679418 0.118189 8.99347e-20)
(0.753502 0.134164 -1.4767e-19)
(0.824769 0.150173 -6.43913e-19)
(0.892521 0.165746 -5.52427e-20)
(0.956236 0.180425 2.5571e-19)
(1.01492 0.197312 -5.27869e-20)
(-0.0125029 0.00816349 -5.59883e-19)
(-0.0185198 0.0159509 2.34252e-19)
(-0.0077874 0.0201734 -1.14337e-18)
(0.0172146 0.0227292 4.68116e-19)
(0.0546726 0.0250825 -3.73272e-19)
(0.103077 0.0282954 2.75172e-19)
(0.161018 0.0330515 -4.273e-19)
(0.227077 0.0397511 3.92334e-20)
(0.299755 0.0485694 -2.19954e-20)
(0.377445 0.0594935 1.14844e-19)
(0.458459 0.0723531 1.65947e-19)
(0.541077 0.0868515 -3.13687e-19)
(0.623626 0.102597 1.66021e-19)
(0.704556 0.119136 1.52705e-19)
(0.782509 0.135981 6.6149e-19)
(0.856368 0.152636 -2.86887e-19)
(0.925275 0.168616 -1.91827e-19)
(0.988646 0.183493 3.23131e-19)
(1.04604 0.196688 1.7399e-19)
(1.0979 0.212111 -3.25089e-19)
(-0.0114528 0.00704216 4.9068e-19)
(-0.0130228 0.0129655 4.73159e-19)
(0.00420711 0.0163268 1.36385e-19)
(0.0373177 0.0188916 5.74535e-19)
(0.0841562 0.0220571 2.82115e-19)
(0.14286 0.0268189 -5.08465e-19)
(0.211601 0.0337537 7.6995e-19)
(0.288475 0.0431171 -3.78865e-19)
(0.371449 0.0549063 3.7811e-19)
(0.458383 0.0689058 4.89268e-19)
(0.547091 0.0847325 -2.79594e-19)
(0.635454 0.101885 5.30837e-20)
(0.721524 0.119794 2.96487e-19)
(0.803621 0.137869 2.09132e-19)
(0.880403 0.155543 4.82729e-19)
(0.950894 0.172298 -1.92598e-19)
(1.01448 0.187692 -2.32892e-20)
(1.07091 0.201398 3.0671e-19)
(1.12007 0.212908 -6.56841e-20)
(1.16325 0.226246 4.41855e-22)
(-0.00986874 0.00580823 -2.53354e-19)
(-0.00582048 0.0098532 -9.31201e-19)
(0.0191372 0.0125811 2.19223e-19)
(0.0615772 0.0155444 -1.66861e-19)
(0.118912 0.0200193 -3.85009e-19)
(0.1888 0.0268836 -2.74678e-19)
(0.26885 0.0365471 -1.69663e-19)
(0.356531 0.0490534 4.12127e-19)
(0.449171 0.0641572 -2.44735e-19)
(0.544041 0.0813872 -2.5049e-19)
(0.638489 0.100116 -3.17085e-19)
(0.730094 0.119635 -5.23549e-20)
(0.816799 0.139224 -3.52812e-20)
(0.897008 0.158209 -7.3476e-19)
(0.969618 0.176012 3.57037e-19)
(1.03402 0.19217 -4.69398e-19)
(1.09003 0.206354 1.48305e-19)
(1.13786 0.218383 -1.12869e-18)
(1.17789 0.227951 3.39986e-19)
(1.21179 0.238741 4.32419e-19)
(-0.00765421 0.00448527 -6.35834e-20)
(0.00331589 0.00671649 4.54611e-19)
(0.0372999 0.00913507 2.91219e-20)
(0.0902804 0.0129815 7.00939e-20)
(0.159113 0.0193407 -1.42493e-19)
(0.240824 0.0289029 -2.29662e-21)
(0.3323 0.0418316 -3.61504e-21)
(0.430256 0.0578802 -8.5848e-20)
(0.531318 0.0764938 3.04497e-19)
(0.632196 0.0969045 1.17796e-19)
(0.729886 0.118235 5.34752e-19)
(0.821865 0.139597 -1.45913e-19)
(0.90621 0.160179 1.01971e-19)
(0.981657 0.179306 -1.34033e-20)
(1.04758 0.196471 2.82756e-19)
(1.1039 0.211344 1.73438e-19)
(1.151 0.223766 4.19083e-19)
(1.18959 0.233727 -6.77537e-19)
(1.22055 0.241173 8.54026e-19)
(1.24569 0.249241 -2.70859e-19)
(-0.00471117 0.0031091 -5.93036e-19)
(0.0146028 0.00368747 -1.84955e-19)
(0.0589457 0.00622334 1.44672e-19)
(0.123612 0.0115284 9.11811e-20)
(0.204752 0.020405 9.32512e-20)
(0.298586 0.0332653 9.4616e-20)
(0.401128 0.0499318 -2.3663e-19)
(0.508252 0.0697836 -9.78799e-20)
(0.615899 0.0919012 3.03548e-20)
(0.720341 0.115207 -2.89859e-19)
(0.81845 0.138602 -1.31189e-19)
(0.907868 0.161091 7.93214e-19)
(0.987088 0.18186 -2.04552e-19)
(1.05542 0.200326 -2.82572e-19)
(1.11288 0.216138 -1.34543e-19)
(1.16003 0.229162 9.29458e-20)
(1.19784 0.239439 1.1393e-19)
(1.22746 0.247137 -5.46363e-19)
(1.25014 0.252435 7.91865e-19)
(1.26772 0.257886 -6.86903e-19)
(-0.00094412 0.00172928 -6.72752e-20)
(0.028232 0.000929627 1.92955e-20)
(0.084258 0.00411588 -2.44646e-20)
(0.161627 0.0115343 3.58101e-19)
(0.25561 0.0235918 1.96198e-20)
(0.36145 0.0403106 1.31418e-19)
(0.474168 0.0610684 -2.72868e-19)
(0.588788 0.0847947 -9.94885e-21)
(0.700686 0.110179 3.79017e-19)
(0.805939 0.13586 5.28534e-20)
(0.901591 0.160596 -3.30389e-19)
(0.985762 0.183381 -2.89805e-20)
(1.05762 0.203511 -2.71947e-19)
(1.11722 0.220587 2.70625e-19)
(1.16532 0.234483 3.76652e-19)
(1.2031 0.245288 -4.1552e-20)
(1.23201 0.253247 -5.08334e-20)
(1.25356 0.258682 1.54913e-19)
(1.26921 0.26195 -4.99079e-19)
(1.28071 0.265082 4.39318e-19)
(0.00373533 0.000409926 6.73683e-20)
(0.0443569 -0.00136269 -4.35135e-19)
(0.113332 0.00311266 1.16497e-19)
(0.204222 0.0133602 -3.60888e-19)
(0.311241 0.0292551 1.24041e-19)
(0.428494 0.0503034 -4.60619e-19)
(0.549963 0.0753363 1.85733e-19)
(0.669923 0.102785 -5.90777e-20)
(0.783421 0.130964 -2.37408e-21)
(0.886668 0.158309 6.05122e-20)
(0.977223 0.183544 -2.20596e-19)
(1.05397 0.205782 -3.15084e-19)
(1.11695 0.224529 -6.47079e-20)
(1.16703 0.239643 -2.90496e-20)
(1.20567 0.251256 -7.37689e-20)
(1.23458 0.259681 -2.40679e-20)
(1.25555 0.265338 -7.20699e-20)
(1.27026 0.268663 -6.25481e-20)
(1.28025 0.27012 -1.86491e-19)
(1.28712 0.271317 2.96182e-19)
(0.00940364 -0.000770551 1.62415e-19)
(0.0630793 -0.00296755 -1.80322e-19)
(0.146155 0.00353437 3.87948e-19)
(0.251122 0.0173611 -1.67328e-19)
(0.370961 0.0377002 4.47159e-19)
(0.498543 0.0634096 6.27123e-21)
(0.626862 0.0926934 2.24465e-19)
(0.749662 0.12348 -6.00043e-20)
(0.862013 0.153782 2.50819e-19)
(0.960636 0.181951 1.81864e-20)
(1.04393 0.206823 5.97536e-19)
(1.11176 0.227743 -4.12608e-19)
(1.16509 0.244514 5.55535e-20)
(1.2056 0.25729 1.06099e-19)
(1.23532 0.266454 5.5676e-19)
(1.25632 0.272517 -2.00069e-19)
(1.27058 0.276023 -3.97214e-20)
(1.27979 0.277475 -2.10721e-19)
(1.28543 0.277389 -2.22909e-20)
(1.28893 0.277037 1.05545e-19)
(0.0161203 -0.00172049 -7.81181e-20)
(0.0844368 -0.00364145 2.25408e-19)
(0.182592 0.00570932 -2.30458e-19)
(0.301868 0.0238658 9.11528e-20)
(0.433874 0.0491601 -1.08678e-19)
(0.570234 0.0796808 3.99183e-19)
(0.703129 0.112965 -5.54886e-20)
(0.826122 0.146493 1.37018e-19)
(0.934716 0.1781 -8.05916e-20)
(1.02651 0.206215 -2.04339e-21)
(1.101 0.229918 9.22209e-20)
(1.15911 0.248891 -7.14351e-20)
(1.20273 0.263277 1.85376e-19)
(1.23421 0.273526 -9.23838e-20)
(1.25595 0.280245 -4.07345e-19)
(1.27025 0.284087 4.05137e-19)
(1.27907 0.285669 -1.82723e-19)
(1.28403 0.285514 1.45919e-19)
(1.28645 0.284151 2.53293e-19)
(1.28757 0.282591 1.04048e-19)
(0.0239226 -0.00233704 1.94312e-19)
(0.108391 -0.0031277 -4.00348e-19)
(0.222372 0.0099575 7.66389e-20)
(0.355823 0.0331558 -5.55393e-20)
(0.498904 0.0637764 -2.23737e-19)
(0.642094 0.0990494 -1.75556e-19)
(0.77708 0.135864 -3.4471e-20)
(0.897674 0.171369 -3.12952e-19)
(1.00024 0.203395 -1.90058e-20)
(1.08355 0.230608 -5.81369e-20)
(1.14834 0.252459 -1.57892e-19)
(1.19661 0.269026 -3.50738e-20)
(1.231 0.280799 -1.20913e-19)
(1.25434 0.288493 -2.01916e-19)
(1.26927 0.292885 2.06864e-19)
(1.2781 0.294714 2.85724e-20)
(1.28267 0.294624 5.69375e-20)
(1.28444 0.293119 -2.38577e-19)
(1.28456 0.290715 -5.94909e-21)
(1.28404 0.288216 -3.68351e-19)
(0.0328214 -0.00250907 2.13302e-19)
(0.134821 -0.00116694 1.42189e-19)
(0.265093 0.0165732 -2.29014e-19)
(0.412191 0.0454453 3.5762e-19)
(0.564849 0.0815882 -3.84936e-20)
(0.712644 0.121336 1.33483e-19)
(0.847194 0.16102 4.61949e-20)
(0.963039 0.197633 1.63673e-19)
(1.05777 0.229193 -1.28148e-19)
(1.13157 0.254754 4.26979e-20)
(1.18639 0.274223 -4.10085e-20)
(1.22517 0.288094 -1.80724e-20)
(1.25117 0.297179 3.43112e-20)
(1.26749 0.302402 -6.32442e-20)
(1.27681 0.304652 -1.9443e-20)
(1.2813 0.304703 -5.94867e-20)
(1.28266 0.303179 -9.67425e-20)
(1.28212 0.300546 6.24563e-20)
(1.28061 0.297293 -8.57436e-20)
(1.27899 0.294055 3.70465e-19)
(0.0427964 -0.00212099 -1.06609e-19)
(0.163516 0.00249101 -3.01753e-19)
(0.310221 0.0258075 -4.01501e-20)
(0.47005 0.0608661 -1.08642e-20)
(0.630454 0.102529 -1.35021e-19)
(0.780486 0.146268 -2.21586e-19)
(0.912202 0.188019 7.25229e-20)
(1.02133 0.224832 -9.96431e-20)
(1.10698 0.255102 -1.11667e-19)
(1.17079 0.278392 6.21932e-20)
(1.21587 0.295109 -4.70094e-20)
(1.24592 0.306144 -9.51147e-20)
(1.26457 0.312579 -3.21211e-21)
(1.27501 0.315486 6.44124e-20)
(1.27983 0.315806 -6.57031e-20)
(1.28101 0.314302 9.11912e-20)
(1.27998 0.311554 2.45248e-20)
(1.27779 0.30797 6.18317e-20)
(1.27518 0.304013 1.2055e-19)
(1.27282 0.300173 -1.03271e-19)
(0.0537937 -0.00105712 1.01874e-19)
(0.194177 0.00807459 -9.0957e-21)
(0.357109 0.0378531 4.56062e-20)
(0.528391 0.0794581 -6.19528e-20)
(0.694476 0.126433 5.05388e-21)
(0.844381 0.173504 2.14772e-19)
(0.971136 0.216432 -1.4111e-19)
(1.07204 0.252559 5.97258e-20)
(1.1479 0.28082 5.26426e-20)
(1.20175 0.301367 -1.48065e-19)
(1.23769 0.315107 1.39115e-19)
(1.25997 0.323283 1.21955e-21)
(1.27238 0.327183 -9.80115e-20)
(1.27805 0.327961 1.18141e-19)
(1.27935 0.326559 -4.68713e-20)
(1.27804 0.323698 3.58469e-20)
(1.2753 0.319893 -4.01012e-20)
(1.27196 0.315492 -1.60229e-20)
(1.26862 0.310938 -1.40368e-19)
(1.26578 0.30658 4.29598e-20)
(0.0657239 0.000793192 -3.44086e-20)
(0.226421 0.015778 9.22106e-20)
(0.405017 0.0528308 1.43551e-20)
(0.58617 0.101166 6.02519e-20)
(0.75575 0.153049 2.87174e-20)
(0.903304 0.20266 1.34585e-20)
(1.02334 0.245847 7.63208e-20)
(1.11501 0.280468 -9.27747e-21)
(1.18084 0.306128 3.36286e-20)
(1.22516 0.323602 5.40364e-20)
(1.25282 0.334263 2.6065e-20)
(1.26837 0.339643 1.8705e-20)
(1.27563 0.341163 7.58487e-20)
(1.27751 0.340004 -7.34138e-20)
(1.27614 0.337069 1.57564e-20)
(1.273 0.333014 -1.47312e-20)
(1.26906 0.32828 2.28278e-20)
(1.26495 0.323159 1.91189e-20)
(1.26113 0.318075 3.99066e-20)
(1.25799 0.313247 1.69483e-21)
(0.0784624 0.00353044 2.03949e-20)
(0.259792 0.02575 1.8627e-20)
(0.453149 0.0707814 -2.57694e-20)
(0.642358 0.125842 1.60991e-20)
(0.81324 0.18206 9.08621e-21)
(0.956466 0.233332 -2.82633e-20)
(1.06844 0.275882 9.32357e-21)
(1.15034 0.308276 1.67567e-21)
(1.20632 0.330876 1.60716e-20)
(1.2418 0.345073 -4.30695e-20)
(1.26216 0.352648 -1.28156e-22)
(1.27206 0.355347 1.19232e-20)
(1.27515 0.354661 -9.50037e-21)
(1.2741 0.351745 9.61226e-21)
(1.27075 0.347438 2.50572e-20)
(1.26631 0.342315 -1.42448e-20)
(1.26153 0.336744 3.97188e-21)
(1.25693 0.330969 1.55946e-20)
(1.25282 0.325398 -2.57089e-20)
(1.24951 0.320121 1.23392e-20)
(0.0785025 -0.00353031 5.49872e-20)
(0.259892 -0.0257504 -3.02117e-20)
(0.453289 -0.0707811 3.56497e-20)
(0.642521 -0.125838 -2.65449e-20)
(0.813406 -0.182046 -1.20103e-20)
(0.956623 -0.233306 3.70352e-21)
(1.06858 -0.275841 -1.18913e-20)
(1.15046 -0.30822 4.29938e-20)
(1.20642 -0.330807 -3.59901e-20)
(1.24188 -0.344993 8.22996e-21)
(1.26222 -0.352559 -6.34961e-21)
(1.2721 -0.355251 -4.17119e-20)
(1.27518 -0.35456 4.06365e-20)
(1.27413 -0.35164 1.57621e-20)
(1.27077 -0.34733 -1.51864e-20)
(1.26632 -0.342205 3.65066e-20)
(1.26154 -0.336633 -4.30464e-22)
(1.25694 -0.330856 -3.56287e-20)
(1.25282 -0.325285 2.61628e-20)
(1.24951 -0.320006 8.7293e-21)
(0.0657625 -0.000791709 -1.97234e-20)
(0.226519 -0.0157754 5.33032e-20)
(0.405159 -0.0528272 6.2324e-20)
(0.586338 -0.101159 -3.01524e-20)
(0.755926 -0.153034 5.20866e-20)
(0.903475 -0.202634 8.45584e-20)
(1.02349 -0.245807 -4.78512e-21)
(1.11515 -0.280414 -1.52155e-20)
(1.18095 -0.30606 7.52552e-20)
(1.22525 -0.323522 3.72161e-20)
(1.25289 -0.334173 -6.99127e-21)
(1.26843 -0.339545 5.67204e-20)
(1.27567 -0.341059 -6.09401e-20)
(1.27754 -0.339895 9.75291e-20)
(1.27617 -0.336957 -1.59434e-20)
(1.27302 -0.332899 4.86326e-20)
(1.26907 -0.328163 9.54436e-21)
(1.26496 -0.323041 3.48128e-20)
(1.26113 -0.317956 -3.26961e-20)
(1.25799 -0.313127 9.0739e-21)
(0.0538305 0.00105984 -2.92024e-20)
(0.194273 -0.00806906 6.37696e-20)
(0.35725 -0.0378461 4.75165e-20)
(0.528562 -0.0794479 -7.58063e-21)
(0.694661 -0.126416 7.94991e-20)
(0.844565 -0.173478 -6.28273e-20)
(0.971307 -0.216393 -6.60281e-21)
(1.07219 -0.252506 5.6612e-20)
(1.14802 -0.280753 1.88511e-20)
(1.20185 -0.301288 2.6373e-20)
(1.23778 -0.315016 -3.88965e-20)
(1.26003 -0.323184 1.08499e-19)
(1.27243 -0.327077 2.11049e-20)
(1.27808 -0.327849 -9.5821e-20)
(1.27938 -0.326442 1.47557e-19)
(1.27806 -0.323579 -1.74771e-19)
(1.27532 -0.319771 -8.32106e-20)
(1.27197 -0.315369 1.41814e-20)
(1.26862 -0.310813 8.02686e-20)
(1.26578 -0.306454 -1.51994e-19)
(0.0428311 0.00212479 -6.12046e-20)
(0.163608 -0.00248274 -1.43634e-19)
(0.31036 -0.0257971 -1.26596e-19)
(0.470222 -0.0608529 -1.72841e-19)