/*--------------------------------*- C++ -*----------------------------------*\
  =========                 |
  \\      /  F ield         | OpenFOAM: The Open Source CFD Toolbox
   \\    /   O peration     | Website:  https://openfoam.org
    \\  /    A nd           | Version:  6.0
     \\/     M anipulation  |
\*---------------------------------------------------------------------------*/
FoamFile
{
    version     2.0;
    format      ascii;
    class       surfaceScalarField;
    location    "87";
    object      phi;
}
// * * * * * * * * * * * * * * * * * * * * * * * * * * * * * * * * * * * * * //

dimensions      [0 3 -1 0 0 0 0];

internalField   nonuniform List<scalar> 
24700
(
1.51713e-06
0.000106706
-0.000108223
3.83662e-06
0.00027524
-0.00027756
5.55892e-06
0.000406059
-0.000407782
5.94087e-06
0.000504389
-0.000504771
4.74297e-06
0.000575366
-0.000574168
2.0847e-06
0.00062399
-0.000621331
-1.68685e-06
0.000654852
-0.00065108
-6.10382e-06
0.000671939
-0.000667522
-1.0657e-05
0.000678535
-0.000673982
-1.48498e-05
0.000677216
-0.000673023
-1.82325e-05
0.000669898
-0.000666516
-2.04196e-05
0.000657939
-0.000655752
-2.10986e-05
0.000642243
-0.000641564
-2.00308e-05
0.000623377
-0.000624445
-1.70484e-05
0.00060167
-0.000604652
-1.20494e-05
0.000577306
-0.000582305
-4.99094e-06
0.000550395
-0.000557453
4.11766e-06
0.000521025
-0.000530133
1.52229e-05
0.000489305
-0.00050041
2.82341e-05
0.000455382
-0.000468394
4.30306e-05
0.000419454
-0.000434251
5.94672e-05
0.000381757
-0.000398194
7.73784e-05
0.000342553
-0.000360465
9.65713e-05
0.000302086
-0.000321279
0.000260491
-0.000280746
0.000116826
2.21363e-06
0.000104493
6.28631e-06
0.000271168
1.05365e-05
0.000401809
1.39763e-05
0.000500949
1.61621e-05
0.00057318
1.70523e-05
0.000623099
1.68746e-05
0.000655029
1.60146e-05
0.000672799
1.49295e-05
0.00067962
1.4088e-05
0.000678057
1.39295e-05
0.000670057
1.48417e-05
0.000657027
1.71488e-05
0.000639936
2.11081e-05
0.000619418
2.69122e-05
0.000595866
3.46934e-05
0.000569525
4.45307e-05
0.000540557
5.64568e-05
0.000509099
7.04651e-05
0.000475296
8.65155e-05
0.000439332
0.000104538
0.000401432
0.000124432
0.000361863
0.000146068
0.000320917
0.00016927
0.000278885
0.000235961
0.000193801
2.84816e-06
0.000101645
8.56034e-06
0.000265455
1.52225e-05
0.000395147
2.16337e-05
0.000494538
2.71627e-05
0.000567651
3.16131e-05
0.000618649
3.50928e-05
0.00065155
3.79012e-05
0.00066999
4.04389e-05
0.000677083
4.31414e-05
0.000675355
4.64333e-05
0.000666765
5.07009e-05
0.000652759
5.62766e-05
0.000634361
6.34335e-05
0.000612261
7.23854e-05
0.000586914
8.32914e-05
0.000558619
9.62625e-05
0.000527586
0.000111368
0.000493993
0.000128644
0.000458021
0.000148094
0.000419882
0.000169694
0.000379832
0.000193388
0.000338169
0.000219079
0.000295226
0.000246607
0.000251357
0.000206848
0.00027572
3.41465e-06
9.82299e-05
1.0635e-05
0.000258235
1.95677e-05
0.000386214
2.88341e-05
0.000485272
3.76361e-05
0.000558849
4.56318e-05
0.000610653
5.28113e-05
0.00064437
5.9385e-05
0.000663417
6.56915e-05
0.000670776
7.21274e-05
0.000668919
7.9097e-05
0.000659795
8.69796e-05
0.000644877
9.61113e-05
0.000625229
0.000106776
0.000601596
0.000119203
0.000574486
0.000133575
0.000544248
0.000150027
0.000511134
0.00016866
0.00047536
0.000189543
0.000437138
0.000212719
0.000396705
0.000238205
0.000354346
0.000265982
0.000310392
0.000295987
0.000265222
0.000328078
0.000219267
0.000172934
0.000361992
3.90685e-06
9.4323e-05
1.24856e-05
0.000249656
2.35186e-05
0.000375181
3.54884e-05
0.000473302
4.74549e-05
0.000546883
5.89435e-05
0.000599165
6.98307e-05
0.000633483
8.02364e-05
0.000653011
9.0433e-05
0.00066058
0.000100772
0.00065858
0.00011163
0.000648937
0.000123374
0.000633133
0.000136337
0.000612266
0.000150808
0.000587126
0.000167027
0.000558267
0.000185191
0.000526084
0.000205455
0.00049087
0.000227942
0.000452873
0.000252749
0.000412331
0.000279949
0.000369506
0.00030959
0.000324705
0.00034169
0.000278292
0.000376215
0.000230697
0.000413044
0.000182438
0.000134071
0.000451907
4.31834e-06
9.00047e-05
1.40859e-05
0.000239889
2.70174e-05
0.00036225
4.14986e-05
0.000458821
5.64752e-05
0.000531906
7.13564e-05
0.000584283
8.59121e-05
0.000618927
0.000100172
0.000638751
0.000114339
0.000646413
0.000128713
0.000644207
0.000143636
0.000634013
0.000159456
0.000617313
0.000176496
0.000595226
0.000195043
0.000568579
0.000215341
0.000537968
0.000237595
0.000503829
0.000261973
0.000466492
0.000288612
0.000426234
0.000317628
0.000383315
0.000349116
0.000338018
0.000383151
0.000290669
0.000419779
0.000241664
0.000458994
0.000191482
0.000500696
0.000140736
9.01552e-05
0.000544611
4.64312e-06
8.53616e-05
1.54107e-05
0.000229121
3.00064e-05
0.000347654
4.67629e-05
0.000442064
6.4543e-05
0.000514126
8.26594e-05
0.000566167
0.000100785
0.000600802
0.000118863
0.000620673
0.000137021
0.000628254
0.000155506
0.000625722
0.000174617
0.000614902
0.000194675
0.000597255
0.000215985
0.000573916
0.000238827
0.000545738
0.000263441
0.000513354
0.000290034
0.000477236
0.000318778
0.000437748
0.00034982
0.000395192
0.000383287
0.000349849
0.000419288
0.000302016
0.00045792
0.000252037
0.000499252
0.000200332
0.000543305
0.00014743
0.000589998
9.40428e-05
4.11026e-05
0.00063905
4.87579e-06
8.04858e-05
1.64359e-05
0.000217561
3.24287e-05
0.000331661
5.11787e-05
0.000423314
7.14989e-05
0.000493806
9.26276e-05
0.000545038
0.000114154
0.000579276
0.000135938
0.000598889
0.000158037
0.000606156
0.000180632
0.000603127
0.00020398
0.000591554
0.000228364
0.000572872
0.000254065
0.000548215
0.000281346
0.000518457
0.000310439
0.00048426
0.000341547
0.000446129
0.00037484
0.000404455
0.000410468
0.000359564
0.000448565
0.000311753
0.000489252
0.000261329
0.000532642
0.000208647
0.000578826
0.000154147
0.000627851
9.84048e-05
0.000679654
4.22398e-05
-1.31834e-05
0.00073394
5.01184e-06
7.54739e-05
1.71404e-05
0.000205433
3.42326e-05
0.000314569
5.46487e-05
0.000402898
7.71868e-05
0.000471268
0.000101035
0.00052119
0.000125715
0.000554596
0.000151011
0.000573593
0.000176908
0.000580259
0.000203525
0.000576509
0.000231065
0.000564014
0.000259768
0.000544168
0.000289886
0.000518097
0.000321658
0.000486685
0.000355301
0.000450618
0.000391006
0.000410424
0.000428941
0.00036652
0.000469254
0.00031925
0.000512084
0.000268923
0.000557564
0.000215849
0.000605825
0.000160387
0.000656981
0.00010299
0.000711108
4.42784e-05
0.000768161
-1.48133e-05
-7.28377e-05
0.000827815
5.04808e-06
7.04259e-05
1.75076e-05
0.000192973
3.53748e-05
0.000296702
5.70883e-05
0.000381185
8.14656e-05
0.00044689
0.000107671
0.000494984
0.000135175
0.000527093
0.000163698
0.00054507
0.000193156
0.000550801
0.000223604
0.000546061
0.000255187
0.000532431
0.0002881
0.000511255
0.000322554
0.000483642
0.000358762
0.000450477
0.000396919
0.000412461
0.000437204
0.00037014
0.000479776
0.000323948
0.000524786
0.000274241
0.000572376
0.000221332
0.000622695
0.00016553
0.000675895
0.000107187
0.000732125
4.67611e-05
0.000791492
-1.50886e-05
0.000853974
-7.72961e-05
-0.000138059
0.000919196
4.983e-06
6.54429e-05
1.75276e-05
0.000180428
3.58254e-05
0.000278404
5.84335e-05
0.000358577
8.42224e-05
0.000421101
0.000112359
0.000466847
0.000142281
0.00049717
0.000173657
0.000513694
0.000206342
0.000518117
0.000240327
0.000512076
0.0002757
0.000497058
0.000312604
0.000474352
0.000351209
0.000445036
0.000391694
0.000409992
0.000434233
0.000369922
0.000478988
0.000325385
0.000526114
0.000276822
0.000575762
0.000224592
0.000628089
0.000169006
0.000683261
0.000110358
0.000741461
4.8987e-05
0.000802877
-1.46553e-05
0.000867663
-7.98741e-05
0.00093582
-0.000145454
-0.000209136
0.0010069
4.81719e-06
6.06257e-05
1.71983e-05
0.000168047
3.55723e-05
0.00026003
5.86502e-05
0.000335499
8.53866e-05
0.000394365
0.000114977
0.000437256
0.000146847
0.0004653
0.000180628
0.000479914
0.00021612
0.000482625
0.000253258
0.000474937
0.000292074
0.000458243
0.000332658
0.000433767
0.00037514
0.000402554
0.000419665
0.000365467
0.000466384
0.000323204
0.000515447
0.000276321
0.000567008
0.000225261
0.000621226
0.000170375
0.000678273
0.000111958
0.000738345
5.02867e-05
0.00080166
-1.43281e-05
0.000868452
-8.14472e-05
0.000938921
-0.000150344
0.0010131
-0.00021963
-0.000286462
0.00109042
4.55384e-06
5.60718e-05
1.65282e-05
0.000156073
3.46257e-05
0.000241932
5.77427e-05
0.000312382
8.49455e-05
0.000367162
0.000115483
0.000406719
0.000148788
0.000431995
0.000184471
0.000444231
0.000222291
0.000444804
0.000262136
0.000435093
0.000303984
0.000416394
0.000347883
0.000389869
0.000393921
0.000356515
0.000442217
0.000317171
0.000492904
0.000272517
0.000546129
0.000223097
0.000602048
0.000169341
0.000660837
0.000111585
0.000722693
5.01027e-05
0.000787839
-1.48596e-05
0.000856531
-8.30198e-05
0.00092904
-0.000153957
0.00100561
-0.00022691
0.00108627
-0.000300297
-0.000370545
0.00117036
4.19926e-06
5.18726e-05
1.55382e-05
0.000144734
3.30236e-05
0.000224447
5.57628e-05
0.000289643
8.29582e-05
0.000339967
0.000113934
0.000375744
0.000148152
0.000397776
0.000185218
0.000407165
0.000224868
0.000405154
0.000266952
0.000393009
0.000311411
0.000371936
0.000358256
0.000343024
0.00040755
0.000307222
0.000459391
0.000265329
0.000513908
0.000217999
0.000571253
0.000165753
0.000631597
0.000108997
0.000695139
4.80438e-05
0.000762099
-1.68576e-05
0.000832727
-8.54874e-05
0.000907297
-0.000157589
0.000986094
-0.000232754
0.00106936
-0.00031018
0.00115713
-0.000388067
-0.000461975
0.00124856
3.76363e-06
4.81089e-05
1.42639e-05
0.000134234
3.08359e-05
0.000207875
5.28185e-05
0.00026766
7.95698e-05
0.000313215
0.00011051
0.000344804
0.00014515
0.000363136
0.000183112
0.000369203
0.000224126
0.00036414
0.000268024
0.000349111
0.000314726
0.000325233
0.000364226
0.000293524
0.000416574
0.000254874
0.000471869
0.000210034
0.000530249
0.00015962
0.000591882
0.00010412
0.000656965
4.39138e-05
0.000725717
-2.0709e-05
0.000798379
-8.95189e-05
0.0008752
-0.000162309
0.000956441
-0.00023883
0.00104235
-0.000318661
0.00113311
-0.000400945
0.00122869
-0.000483645
-0.000561356
0.00132807
3.26163e-06
4.48473e-05
1.27573e-05
0.000124738
2.81684e-05
0.000192464
4.90796e-05
0.000246749
7.50213e-05
0.000287274
0.000105527
0.000314298
0.00014018
0.000328483
0.000178637
0.000330746
0.000220646
0.00032213
0.000266046
0.000303711
0.000314759
0.000276521
0.000366782
0.000241501
0.000422178
0.000199478
0.000481063
0.000151149
0.000543599
9.70834e-05
0.000609984
3.77359e-05
0.000680436
-2.65391e-05
0.000755191
-9.54636e-05
0.000834478
-0.000168806
0.000918512
-0.000246343
0.00100748
-0.000327794
0.00110151
-0.000412691
0.00120065
-0.000500091
0.00130473
-0.000587722
-0.000669175
0.00141255
2.71303e-06
4.21343e-05
1.10884e-05
0.000116363
2.51645e-05
0.000178388
4.47812e-05
0.000227132
6.96537e-05
0.000262401
9.94466e-05
0.000284505
0.000133833
0.000294097
0.000172532
0.000292046
0.000215335
0.000279327
0.000262113
0.000256934
0.000312817
0.000225817
0.000367475
0.000186843
0.000426184
0.00014077
0.000489095
8.8238e-05
0.000556403
2.97746e-05
0.000628333
-3.41941e-05
0.000705116
-0.000103322
0.000786968
-0.000177316
0.000874068
-0.000255906
0.00096653
-0.000338805
0.00106438
-0.000425648
0.00116757
-0.000515873
0.00127589
-0.000608417
0.00138896
-0.000700788
-0.000785623
0.00150541
2.14286e-06
3.99914e-05
9.34499e-06
0.000109161
2.20043e-05
0.000165728
4.02207e-05
0.000208916
6.39038e-05
0.000238718
9.28649e-05
0.000255544
0.000126888
0.000260074
0.00016578
0.000253155
0.000209401
0.000235706
0.000257685
0.00020865
0.000310639
0.000172862
0.000368345
0.000129137
0.000430949
7.81658e-05
0.000498646
2.0541e-05
0.000571661
-4.32406e-05
0.000650225
-0.000112758
0.000734543
-0.00018764
0.000824765
-0.000267538
0.00092095
-0.000352091
0.00102304
-0.00044089
0.00113081
-0.000533427
0.00124393
-0.000628989
0.00136189
-0.000726375
0.00148401
-0.000822907
-0.000910408
0.00160879
1.58086e-06
3.84105e-05
7.62973e-06
0.000103112
1.88986e-05
0.000154459
3.57473e-05
0.000192067
5.82873e-05
0.000216178
8.64907e-05
0.000227341
0.000120273
0.000226292
0.000159553
0.000213875
0.000204288
0.00019097
0.000254498
0.00015844
0.000310268
0.000117092
0.000371748
6.76562e-05
0.000439139
1.07757e-05
0.000512666
-5.29865e-05
0.000592559
-0.000123133
0.000679011
-0.00019921
0.000772143
-0.000280772
0.000871965
-0.00036736
0.000978334
-0.000458461
0.00109093
-0.000553486
0.00120923
-0.000651728
0.00133253
-0.000752288
0.00145997
-0.000853814
0.00159057
-0.00095351
-0.00104259
0.00172275
1.06004e-06
3.73505e-05
6.05533e-06
9.81165e-05
1.60777e-05
0.000144437
3.17425e-05
0.000176402
5.33679e-05
0.000194553
8.10994e-05
0.000199609
0.000115003
0.000192388
0.000155129
0.000173749
0.000201555
0.000144545
0.000254402
0.000105593
0.000313844
5.76499e-05
0.000380097
1.40334e-06
0.000453396
-6.25234e-05
0.000533968
-0.000133558
0.000621991
-0.000211157
0.000717555
-0.000294774
0.000820616
-0.000383834
0.000930959
-0.000477702
0.00104816
-0.000575661
0.00117156
-0.00067689
0.00130029
-0.000780452
0.00143324
-0.000885245
0.00156922
-0.000989788
0.00170696
-0.00109126
-0.00118049
0.00184487
6.14289e-07
3.67362e-05
4.73629e-06
9.39944e-05
1.37745e-05
0.000135399
2.85914e-05
0.000161585
4.97137e-05
0.00017343
7.74701e-05
0.000171853
0.00011209
0.000157768
0.00015377
0.000132068
0.000202717
9.55984e-05
0.000259159
4.91511e-05
0.000323348
-6.53947e-06
0.000395542
-7.07898e-05
0.000475969
-0.000142951
0.000564797
-0.000222386
0.000662081
-0.00030844
0.00076772
-0.000400413
0.000881419
-0.000497533
0.00100265
-0.000598934
0.00113064
-0.00070365
0.00126436
-0.000810607
0.00140254
-0.000918634
0.00154374
-0.00102645
0.00168645
-0.00113249
0.00182921
-0.00123402
-0.00132175
0.00197047
2.75184e-07
3.6461e-05
3.77884e-06
9.04908e-05
1.22049e-05
0.000126973
2.66496e-05
0.000147141
4.78465e-05
0.000152234
7.63112e-05
0.000143388
0.000112443
0.000121637
0.000156588
8.79226e-05
0.000209077
4.31096e-05
0.00027023
-1.20014e-05
0.000340345
-7.6655e-05
0.000419673
-0.000150118
0.000508376
-0.000231653
0.000606477
-0.000320488
0.000713822
-0.000415785
0.000830031
-0.000516622
0.000954471
-0.000621972
0.00108624
-0.000730701
0.00122416
-0.000841573
0.00136683
-0.000953273
0.00151262
-0.00106443
0.00165981
-0.00117364
0.00180666
-0.00127934
0.00195166
-0.00137902
-0.00146339
0.00209331
6.86552e-08
3.63924e-05
3.27049e-06
8.7289e-05
1.15464e-05
0.000118697
2.62088e-05
0.000132478
4.81903e-05
0.000130252
7.819e-05
0.000113388
0.000116771
8.30554e-05
0.00016442
4.02739e-05
0.000221568
-1.40379e-05
0.000288588
-7.9022e-05
0.000365775
-0.000153842
0.000453304
-0.000237646
0.000551182
-0.000329532
0.000659207
-0.000428513
0.000776921
-0.000533499
0.000903584
-0.000643285
0.00103816
-0.00075655
0.00117934
-0.000871874
0.00132553
-0.000987769
0.00147498
-0.00110272
0.00162577
-0.00121522
0.00177597
-0.00132384
0.00192377
-0.00142714
0.00206768
-0.00152293
-0.00160215
0.00220644
1.20793e-08
3.63803e-05
3.27112e-06
8.40299e-05
1.19214e-05
0.000110047
2.74689e-05
0.000116931
5.10307e-05
0.00010669
8.34762e-05
8.09427e-05
0.000125515
4.10162e-05
0.000177744
-1.19551e-05
0.000240656
-7.6949e-05
0.000314621
-0.000152987
0.000399856
-0.000239078
0.000496378
-0.000334168
0.000603953
-0.000437107
0.000722061
-0.000546621
0.000849867
-0.000661305
0.000986211
-0.00077963
0.00112963
-0.000899968
0.00127839
-0.00102063
0.00143054
-0.00113992
0.00158402
-0.00125619
0.00173669
-0.00136789
0.00188651
-0.00147365
0.00203165
-0.00157228
0.0021708
-0.00166208
-0.00173457
0.00230321
1.12551e-07
3.62677e-05
3.80783e-06
8.03346e-05
1.33874e-05
0.000100467
3.05228e-05
9.97952e-05
5.64935e-05
8.07196e-05
9.23149e-05
4.51213e-05
0.000138812
-5.48059e-06
0.000196646
-6.97898e-05
0.000266314
-0.000146616
0.000348111
-0.000234784
0.000442093
-0.00033306
0.000548029
-0.000440104
0.000665357
-0.000554435
0.000793164
-0.000674428
0.000930181
-0.000798322
0.00107481
-0.000924257
0.00122516
-0.00105032
0.00137915
-0.00117462
0.00153454
-0.00129532
0.0016891
-0.00141075
0.00184061
-0.00151941
0.001987
-0.00162004
0.00212627
-0.00171156
0.00225643
-0.00179224
-0.00185557
0.00237744
3.66166e-07
3.59016e-05
4.87363e-06
7.58272e-05
1.5935e-05
8.94055e-05
3.5355e-05
8.03753e-05
6.45451e-05
5.15295e-05
0.000104632
5.03466e-06
0.000156509
-5.73575e-05
0.000220846
-0.000134128
0.00029807
-0.00022384
0.00038832
-0.000325033
0.0004914
-0.000436141
0.000606743
-0.000555447
0.000733385
-0.000681077
0.000869965
-0.000811007
0.00101476
-0.000943113
0.00116573
-0.00107523
0.00132063
-0.00120523
0.00147711
-0.00133109
0.00163279
-0.001451
0.00178543
-0.00156339
0.00193299
-0.00166697
0.00207375
-0.0017608
0.00220638
-0.00184418
0.00233061
-0.00191647
-0.00197468
0.00244971
7.61762e-07
3.51398e-05
6.43552e-06
7.01534e-05
1.95009e-05
7.63401e-05
4.18599e-05
5.80163e-05
7.50185e-05
1.83708e-05
0.000120169
-4.01155e-05
0.000178216
-0.000115405
0.000249769
-0.000205681
0.000335103
-0.000309174
0.000434109
-0.000424039
0.000546256
-0.000548287
0.000670561
-0.000679753
0.0008056
-0.000816115
0.000949534
-0.000954941
0.00110019
-0.00109377
0.00125515
-0.00123019
0.0014119
-0.00136197
0.00156791
-0.0014871
0.00172082
-0.00160391
0.0018685
-0.00171107
0.0020092
-0.00180767
0.00214159
-0.00189319
0.00226486
-0.00196745
0.00237893
-0.00203054
-0.00208056
0.0024848
1.2806e-06
3.38592e-05
8.43787e-06
6.29961e-05
2.39784e-05
6.07995e-05
4.98629e-05
3.21319e-05
8.76477e-05
-1.9414e-05
0.000138536
-9.10037e-05
0.000203379
-0.000180248
0.000282644
-0.000284946
0.000376366
-0.000402896
0.000484103
-0.000531776
0.000604902
-0.000669087
0.000737307
-0.000812159
0.000879396
-0.000958204
0.00102886
-0.00110441
0.00118312
-0.00124803
0.00133948
-0.00138655
0.00149523
-0.00151773
0.00164786
-0.00163973
0.00179511
-0.00175116
0.00193514
-0.0018511
0.00206653
-0.00193906
0.00218835
-0.00201501
0.00230014
-0.00207924
0.00240187
-0.00213227
-0.00217317
0.00249448
1.9021e-06
3.19571e-05
1.08164e-05
5.40818e-05
2.92411e-05
4.23749e-05
5.91548e-05
2.21816e-06
0.000102115
-6.23741e-05
0.000159273
-0.000148162
0.000231352
-0.000252326
0.000318592
-0.000372185
0.000420699
-0.000505003
0.000536809
-0.000647886
0.000665483
-0.000797761
0.000804747
-0.000951422
0.000952181
-0.00110564
0.00110505
-0.00125727
0.00126045
-0.00140343
0.0014155
-0.0015416
0.00156751
-0.00166973
0.00171407
-0.00178629
0.00185321
-0.00189031
0.00198347
-0.00198135
0.00210386
-0.00205945
0.0022139
-0.00212505
0.00231356
-0.0021789
0.00240319
-0.0022219
-0.00225394
0.00248397
2.60661e-06
2.93505e-05
1.35071e-05
4.31813e-05
3.51597e-05
2.07223e-05
6.95189e-05
-3.2141e-05
0.000118088
-0.000110943
0.000181899
-0.000211974
0.000261462
-0.00033189
0.000356703
-0.000467425
0.000466909
-0.000615209
0.000590718
-0.000771696
0.000726154
-0.000933196
0.000870713
-0.00109598
0.00102151
-0.00125644
0.00117546
-0.00141122
0.00132948
-0.00155745
0.00148064
-0.00169277
0.00162639
-0.00181548
0.00176461
-0.00192452
0.00189375
-0.00201945
0.00201278
-0.00210038
0.00212121
-0.00216789
0.00221903
-0.00222287
0.00230662
-0.00226649
0.00238467
-0.00229995
-0.00232372
0.00245445
3.37785e-06
2.59727e-05
1.64538e-05
3.01053e-05
4.16163e-05
-4.44017e-06
8.07512e-05
-7.12758e-05
0.000135247
-0.000165439
0.000205942
-0.000282668
0.000293046
-0.000418994
0.000396075
-0.000570455
0.000513818
-0.000732952
0.000644354
-0.000902232
0.000785144
-0.00107399
0.000933181
-0.00124402
0.00108519
-0.00140844
0.00123785
-0.00156389
0.00138804
-0.00170763
0.00153296
-0.00183769
0.00167034
-0.00195286
0.00179851
-0.00205268
0.00191636
-0.0021373
0.00202339
-0.00220742
0.00211961
-0.0022641
0.00220542
-0.00230868
0.00228156
-0.00234263
0.00234898
-0.00236737
-0.00238377
0.00240903
4.20418e-06
2.17685e-05
1.96118e-05
1.46977e-05
4.85111e-05
-3.33395e-05
9.26706e-05
-0.000115435
0.000153299
-0.000226067
0.000230955
-0.000360325
0.00032546
-0.000513499
0.000435833
-0.000680828
0.000560287
-0.000857407
0.000696308
-0.00103825
0.000840804
-0.00121848
0.000990328
-0.00139354
0.00114133
-0.00155944
0.00129041
-0.00171297
0.00143454
-0.00185176
0.00157125
-0.00197439
0.00169867
-0.00208029
0.00181563
-0.00216964
0.00192155
-0.00224323
0.00201645
-0.00230231
0.00210075
-0.0023484
0.00217523
-0.00238316
0.00224088
-0.00240828
0.00229883
-0.00242532
-0.00243536
0.00235041
5.0786e-06
1.66899e-05
2.29482e-05
-3.17188e-06
5.57623e-05
-6.61536e-05
0.000105118
-0.000164791
0.000171971
-0.000292919
0.000256514
-0.000444868
0.000358085
-0.00061507
0.000475124
-0.000797867
0.00060522
-0.000987502
0.000745256
-0.00117829
0.000891638
-0.00136487
0.00104058
-0.00154249
0.00118841
-0.00170727
0.00133181
-0.00185636
0.00146802
-0.00198798
0.001595
-0.00210137
0.0017114
-0.00219669
0.00181659
-0.00227482
0.00191052
-0.00233716
0.00199364
-0.00238543
0.00206676
-0.00242151
0.0021309
-0.00244731
0.00218724
-0.00246462
0.00223697
-0.00247504
-0.00247974
0.00228136
5.99762e-06
1.06923e-05
2.64388e-05
-2.36131e-05
6.33014e-05
-0.000103016
0.00011795
-0.000219439
0.000191004
-0.000365974
0.000282203
-0.000536067
0.000390311
-0.000723178
0.000513121
-0.000920677
0.000647573
-0.00112195
0.000789982
-0.0013207
0.000936344
-0.00151123
0.00108268
-0.00168882
0.00122534
-0.00184993
0.00136125
-0.00199228
0.00148811
-0.00211483
0.00160435
-0.00221762
0.00170922
-0.00230156
0.0018026
-0.0023682
0.00188492
-0.00241948
0.00195701
-0.00245752
0.00201995
-0.00248445
0.00207492
-0.00250229
0.00212317
-0.00251287
0.00216589
-0.00251776
-0.0025181
0.00220424
6.95968e-06
3.73259e-06
3.00643e-05
-4.67177e-05
7.10649e-05
-0.000144017
0.000131024
-0.000279398
0.000210141
-0.000445092
0.000307605
-0.000633531
0.000421529
-0.000837102
0.000549018
-0.00104817
0.000686373
-0.00125931
0.000829411
-0.00146374
0.000973849
-0.00165567
0.00111567
-0.00183064
0.00125143
-0.00198569
0.00137846
-0.00211931
0.00149496
-0.00223133
0.00159996
-0.00232262
0.00169325
-0.00239485
0.00177521
-0.00245016
0.00184666
-0.00249093
0.00190871
-0.00251957
0.0019626
-0.00253834
0.00200961
-0.0025493
0.00205096
-0.00255422
0.00208777
-0.00255457
-0.00255142
0.00212109
7.96342e-06
-4.23083e-06
3.38044e-05
-7.25587e-05
7.89868e-05
-0.000189199
0.000144192
-0.000344603
0.000229109
-0.000530009
0.000332291
-0.000736713
0.000451136
-0.000955947
0.000582047
-0.00117908
0.000720738
-0.001398
0.000862643
-0.00160564
0.00100335
-0.00179637
0.00113898
-0.00196627
0.00126645
-0.00211316
0.00138361
-0.00223647
0.00148922
-0.00233694
0.00158291
-0.0024163
0.00166497
-0.0024769
0.0017362
-0.00252139
0.00179772
-0.00255246
0.00185083
-0.00257267
0.00189684
-0.00258435
0.00193702
-0.00258948
0.00197254
-0.00258973
0.00200442
-0.00258645
-0.00258055
0.00203355
9.00619e-06
-1.3237e-05
3.76351e-05
-0.000101188
8.69916e-05
-0.000238556
0.000157291
-0.000414903
0.000247622
-0.00062034
0.000355821
-0.000844911
0.000478537
-0.00107866
0.000611496
-0.00131204
0.000749913
-0.00153642
0.000888982
-0.00174471
0.00102434
-0.00193173
0.00115239
-0.00209433
0.00127055
-0.00223132
0.00137725
-0.00234316
0.00147184
-0.00243154
0.00155451
-0.00249897
0.00162598
-0.00254838
0.00168738
-0.00258279
0.00174003
-0.00260511
0.0017853
-0.00261795
0.00182453
-0.00262358
0.00185892
-0.00262387
0.00188953
-0.00262035
0.00191727
-0.00261418
-0.00260616
0.00194287
1.00831e-05
-2.33202e-05
4.15251e-05
-0.00013263
9.49913e-05
-0.000292022
0.000170142
-0.000490053
0.000265375
-0.000715573
0.000377755
-0.000957291
0.000503175
-0.00120408
0.000636742
-0.0014456
0.000773299
-0.00167297
0.000907962
-0.00187937
0.00103658
-0.00206034
0.001156
-0.00221375
0.0012642
-0.00233953
0.00136023
-0.00243919
0.00144403
-0.00251534
0.00151624
-0.00257118
0.00157795
-0.00261008
0.0016305
-0.00263534
0.00167533
-0.00264993
0.00171382
-0.00265644
0.00174725
-0.00265701
0.00177674
-0.00265336
0.00180321
-0.00264682
0.00182743
-0.00263841
-0.00262875
0.00185003
1.11867e-05
-3.45069e-05
4.54355e-05
-0.000166878
0.000102885
-0.000349471
0.000182547
-0.000569716
0.000282056
-0.000815081
0.000397666
-0.0010729
0.000524541
-0.00133096
0.00065727
-0.00157833
0.00079047
-0.00180617
0.000919354
-0.00200826
0.00104013
-0.00218112
0.00115019
-0.00232382
0.00124814
-0.00243748
0.00133363
-0.00252467
0.0014071
-0.00258881
0.00146959
-0.00263367
0.00152245
-0.00266294
0.00156715
-0.00268005
0.00160516
-0.00268794
0.00163782
-0.0026891
0.00166631
-0.0026855
0.00169162
-0.00267866
0.00171456
-0.00266976
0.00173576
-0.00265961
-0.00264872
0.00175573
1.23068e-05
-4.68137e-05
4.93199e-05
-0.000203891
0.000110559
-0.00041071
0.000194303
-0.000653459
0.000297356
-0.000918135
0.000415157
-0.0011907
0.000542206
-0.00145801
0.000672698
-0.00170882
0.000801192
-0.00193467
0.000923154
-0.00213022
0.00103528
-0.00229324
0.00113558
-0.00242412
0.00122329
-0.00252518
0.00129858
-0.00259997
0.00136238
-0.00265261
0.00141599
-0.00268728
0.00146094
-0.00270789
0.00149874
-0.00271785
0.00153084
-0.00272004
0.00155848
-0.00271674
0.00158273
-0.00270975
0.00160445
-0.00270038
0.00162432
-0.00268963
0.00164286
-0.00267815
-0.00266633
0.00166047
1.34308e-05
-6.02445e-05
5.31259e-05
-0.000243587
0.000117894
-0.000475478
0.0002052
-0.000740765
0.000310981
-0.00102392
0.000429882
-0.0013096
0.000555833
-0.00158396
0.000682786
-0.00183578
0.000805408
-0.00205729
0.000919563
-0.00224437
0.00102252
-0.0023962
0.00111294
-0.00251454
0.00119064
-0.00260288
0.0012563
-0.00266563
0.00131116
-0.00270747
0.00135677
-0.00273288
0.0013947
-0.00274582
0.00142647
-0.00274963
0.00145344
-0.00274701
0.00147675
-0.00274005
0.00149732
-0.00273032
0.0015159
-0.00271896
0.00153305
-0.00270677
0.00154918
-0.00269429
-0.00268177
0.00156462
1.45444e-05
-7.47889e-05
5.67969e-05
-0.000285839
0.000124767
-0.000543449
0.000215039
-0.000831038
0.000322666
-0.00113154
0.000441555
-0.00142849
0.00056519
-0.00170759
0.000687441
-0.00195803
0.000803236
-0.00217308
0.000908951
-0.00235009
0.00100249
-0.00248974
0.00108314
-0.00259519
0.00115126
-0.00267099
0.00120793
-0.0027223
0.00125466
-0.0027542
0.00129309
-0.00277131
0.00132483
-0.00277756
0.00135134
-0.00277613
0.00137384
-0.00276951
0.00139336
-0.00275957
0.0014107
-0.00274766
0.00142647
-0.00273473
0.00144114
-0.00272145
0.00145505
-0.0027082
-0.00269516
0.00146844
1.5632e-05
-9.04209e-05
6.02743e-05
-0.000330481
0.000131057
-0.000614231
0.000223633
-0.000923614
0.000332185
-0.00124009
0.000449966
-0.00154627
0.000570156
-0.00182778
0.000686704
-0.00207458
0.000794936
-0.00228132
0.000891819
-0.00244697
0.000975909
-0.00257383
0.00104708
-0.00266636
0.00110616
-0.00273007
0.00115456
-0.0027707
0.00119393
-0.00279358
0.00122598
-0.00280336
0.00125227
-0.00280385
0.00127414
-0.00279801
0.00129272
-0.00278809
0.00130888
-0.00277573
0.00132331
-0.00276209
0.00133653
-0.00274795
0.0013489
-0.00273382
0.0013607
-0.00272
-0.00270656
0.00137211
1.66771e-05
-0.000107098
6.35e-05
-0.000377304
0.000136648
-0.000687379
0.000230819
-0.00101778
0.000339359
-0.00134863
0.000454983
-0.0016619
0.000570716
-0.00194352
0.000680739
-0.0021846
0.000780884
-0.00238146
0.000868757
-0.00253485
0.000943549
-0.00264863
0.00100567
-0.00272848
0.00105633
-0.00278073
0.00109716
-0.00281153
0.00112993
-0.00282635
0.0011563
-0.00282973
0.00117776
-0.0028253
0.00119553
-0.00281578
0.00121061
-0.00280317
0.00122375
-0.00278887
0.00123552
-0.00277387
0.00124635
-0.00275878
0.00125653
-0.002744
0.00126628
-0.00272975
-0.00271602
0.00127574
1.76633e-05
-0.000124761
6.64176e-05
-0.000426058
0.000141438
-0.000762399
0.000236459
-0.00111281
0.000344063
-0.00145624
0.000456551
-0.00177439
0.000566954
-0.00205392
0.000669811
-0.00228746
0.000761543
-0.00247319
0.000840409
-0.00261371
0.000906195
-0.00271441
0.000959773
-0.00278206
0.00100266
-0.00282361
0.00103662
-0.00284549
0.00106345
-0.00285317
0.00108476
-0.00285104
0.00110191
-0.00284246
0.00111602
-0.00282989
0.00112793
-0.00281508
0.00113829
-0.00279924
0.00114758
-0.00278315
0.00115613
-0.00276733
0.00116419
-0.00275206
0.00117193
-0.00273748
-0.00272354
0.00117944
1.85743e-05
-0.000143336
6.89753e-05
-0.000476459
0.000145336
-0.00083876
0.000240451
-0.00120792
0.000346227
-0.00156202
0.000454695
-0.00188285
0.000559036
-0.00215826
0.000654263
-0.00238268
0.00073743
-0.00255636
0.000807436
-0.00268372
0.000864608
-0.00277159
0.000910198
-0.00282765
0.000945936
-0.00285935
0.000973677
-0.00287324
0.000995171
-0.00287467
0.00101194
-0.00286781
0.00102523
-0.00285574
0.001036
-0.00284066
0.001045
-0.00282408
0.00105276
-0.002807
0.00105968
-0.00279007
0.00106602
-0.00277367
0.00107199
-0.00275803
0.00107772
-0.00274321
-0.00272911
0.00108328
1.93948e-05
-0.000162731
7.11266e-05
-0.000528191
0.000148271
-0.000915904
0.000242724
-0.00130237
0.000345833
-0.00166512
0.000449503
-0.00198652
0.000547201
-0.00225596
0.000634494
-0.00246998
0.00070909
-0.00263095
0.000770494
-0.00274512
0.000819504
-0.00282059
0.000857673
-0.00286582
0.000886871
-0.00288855
0.00090897
-0.00289533
0.000925649
-0.00289135
0.000938315
-0.00288048
0.000948078
-0.00286551
0.000955782
-0.00284837
0.000962052
-0.00283035
0.000967336
-0.00281228
0.000971955
-0.00279469
0.000976132
-0.00277785
0.000980023
-0.00276192
0.000983732
-0.00274691
-0.0027327
0.000987328
2.01105e-05
-0.000182841
7.2832e-05
-0.000580913
0.000150187
-0.000993259
0.000243244
-0.00139543
0.000342914
-0.00176479
0.000441124
-0.00208473
0.000531738
-0.00234657
0.000610936
-0.00254917
0.000677073
-0.00269709
0.000730212
-0.00279826
0.000771544
-0.00286193
0.000802845
-0.00289712
0.000826063
-0.00291177
0.000843033
-0.0029123
0.00085534
-0.00290366
0.000864259
-0.0028894
0.000870771
-0.00287202
0.000875601
-0.0028532
0.000879275
-0.00283402
0.000882163
-0.00281517
0.000884527
-0.00279705
0.00088655
-0.00277987
0.000888357
-0.00276373
0.00089003
-0.00274859
-0.0027343
0.000891627
2.07088e-05
-0.00020355
7.40596e-05
-0.000634264
0.000151049
-0.00107025
0.000242008
-0.00148639
0.000337547
-0.00186033
0.000429749
-0.00217694
0.000512971
-0.0024298
0.000584035
-0.00262024
0.000641918
-0.00275497
0.000687176
-0.00284352
0.00072132
-0.00289607
0.00074628
-0.00292208
0.00076402
-0.00292951
0.000776308
-0.00292459
0.000784609
-0.00291196
0.000790068
-0.00289485
0.000793539
-0.00287549
0.00079564
-0.0028553
0.000796808
-0.00283519
0.000797351
-0.00281571
0.000797481