/*--------------------------------*- C++ -*----------------------------------*\
  =========                 |
  \\      /  F ield         | OpenFOAM: The Open Source CFD Toolbox
   \\    /   O peration     | Website:  https://openfoam.org
    \\  /    A nd           | Version:  6.0
     \\/     M anipulation  |
\*---------------------------------------------------------------------------*/
FoamFile
{
    version     2.0;
    format      ascii;
    class       volVectorField;
    location    "4";
    object      U;
}
// * * * * * * * * * * * * * * * * * * * * * * * * * * * * * * * * * * * * * //

dimensions      [0 1 -1 0 0 0 0];

internalField   nonuniform List<vector> 
8000
(
(-0.00290837 0.00311542 -4.72522e-21)
(-0.0143384 0.00708293 2.52924e-20)
(-0.0340435 0.00952159 -3.09544e-20)
(-0.05705 0.0109661 2.36554e-20)
(-0.0810942 0.0117426 1.16381e-20)
(-0.105111 0.0120686 -3.49787e-20)
(-0.128411 0.0120932 -3.1365e-21)
(-0.150587 0.0119161 -1.17301e-21)
(-0.171424 0.0116021 -1.86469e-20)
(-0.190821 0.0111926 -1.02197e-20)
(-0.208744 0.0107138 7.51485e-21)
(-0.225193 0.0101821 2.91097e-20)
(-0.240192 0.00960794 -2.05419e-21)
(-0.253778 0.00899844 3.23876e-21)
(-0.265988 0.00835884 -2.97548e-20)
(-0.276845 0.00769339 1.83951e-20)
(-0.286404 0.00700508 -2.64485e-20)
(-0.294899 0.00629427 4.00687e-20)
(-0.302533 0.00556211 -4.63495e-23)
(-0.308103 0.00483177 8.90398e-21)
(-0.00326266 0.00919739 1.56871e-20)
(-0.0148712 0.0209289 -8.05063e-20)
(-0.0342783 0.0281474 -5.60178e-20)
(-0.05678 0.0324161 -3.82892e-20)
(-0.0802253 0.0346933 -4.96181e-20)
(-0.103595 0.0356213 1.06297e-20)
(-0.126221 0.0356429 -5.78762e-20)
(-0.147704 0.0350556 -1.33018e-20)
(-0.167829 0.0340553 3.81356e-21)
(-0.186492 0.032768 4.37528e-20)
(-0.203652 0.0312741 -4.8368e-20)
(-0.219305 0.0296251 6.76802e-20)
(-0.23347 0.0278544 -5.1039e-20)
(-0.246181 0.025985 -6.09344e-20)
(-0.257473 0.0240343 -8.44452e-20)
(-0.267368 0.0220161 5.37538e-20)
(-0.275921 0.0199404 -1.76766e-20)
(-0.283368 0.0178086 -6.39571e-20)
(-0.289929 0.0156239 6.03442e-20)
(-0.294406 0.0134552 -4.63547e-20)
(-0.00394027 0.0148675 1.53922e-19)
(-0.0158941 0.0339656 8.04317e-20)
(-0.0347267 0.0458251 9.07291e-20)
(-0.0562492 0.0529058 7.65044e-21)
(-0.0785278 0.0567287 5.04476e-20)
(-0.100632 0.0583235 6.32455e-20)
(-0.12194 0.058406 -1.15786e-19)
(-0.142067 0.0574622 -6.19356e-20)
(-0.1608 0.0558147 -8.18788e-20)
(-0.178029 0.0536739 8.69302e-20)
(-0.193705 0.0511755 -6.69392e-20)
(-0.207814 0.0484077 -8.73861e-20)
(-0.220368 0.0454292 -3.21833e-20)
(-0.231394 0.0422818 3.04691e-20)
(-0.240925 0.0389974 -8.72536e-21)
(-0.248982 0.0356032 1.19817e-20)
(-0.255618 0.0321194 1.42766e-19)
(-0.261071 0.0285511 -2.00953e-20)
(-0.265595 0.0249046 -1.45346e-19)
(-0.268009 0.0212961 1.96241e-19)
(-0.0048824 0.0198858 5.44513e-20)
(-0.0173252 0.0457097 -7.58912e-20)
(-0.0353472 0.0619751 -1.94383e-20)
(-0.0554745 0.0718358 3.62848e-20)
(-0.0760781 0.0772678 1.03274e-19)
(-0.0963566 0.0796289 2.27354e-19)
(-0.115755 0.0798749 2.23726e-19)
(-0.133917 0.0786634 1.92855e-20)
(-0.150636 0.0764372 1.39219e-19)
(-0.165797 0.0734894 2.14515e-19)
(-0.17934 0.0700123 -1.72754e-19)
(-0.191244 0.066133 2.55946e-19)
(-0.201509 0.0619386 -5.99265e-20)
(-0.210156 0.0574927 1.41886e-20)
(-0.217214 0.0528466 6.20475e-20)
(-0.222703 0.0480447 8.31284e-20)
(-0.226674 0.043123 -1.30576e-19)
(-0.229365 0.0380955 -1.09577e-19)
(-0.23108 0.0329729 -1.93413e-19)
(-0.230678 0.0279212 2.86773e-19)
(-0.00600913 0.0240608 -2.81722e-20)
(-0.0190516 0.0557565 -2.91748e-19)
(-0.0360832 0.0760925 -8.69685e-20)
(-0.0544809 0.0886658 -2.12344e-19)
(-0.0729863 0.0957724 8.03758e-20)
(-0.0909604 0.0990209 -1.27798e-19)
(-0.107937 0.0995631 4.48334e-20)
(-0.123604 0.0982054 -2.74154e-19)
(-0.137766 0.0955003 1.45614e-19)
(-0.15031 0.0918205 -1.74353e-19)
(-0.161169 0.0874152 -1.56179e-19)
(-0.170313 0.0824524 -1.77129e-19)
(-0.177736 0.0770504 1.61344e-19)
(-0.183451 0.0712982 -1.46649e-19)
(-0.187485 0.0652697 2.03997e-19)
(-0.189859 0.0590321 5.94224e-20)
(-0.190619 0.0526432 1.47867e-19)
(-0.190001 0.0461327 6.46168e-20)
(-0.188365 0.0395197 -2.57335e-19)
(-0.18466 0.0330217 4.22148e-19)
(-0.00722819 0.027262 1.26954e-19)
(-0.0209411 0.0638048 8.84168e-21)
(-0.0368683 0.0877733 5.24706e-20)
(-0.0533021 0.102938 1.83064e-19)
(-0.069392 0.111764 -2.76834e-20)
(-0.0846859 0.116024 3.00082e-19)
(-0.0988275 0.117012 1.34918e-19)
(-0.111562 0.115656 1.13908e-20)
(-0.122721 0.112602 3.50559e-19)
(-0.132198 0.108297 1.16676e-19)
(-0.139929 0.103047 5.58511e-20)
(-0.145878 0.0970613 1.7641e-19)
(-0.150037 0.090491 1.63182e-19)
(-0.152415 0.0834528 3.00561e-19)
(-0.153038 0.0760461 -2.68898e-19)
(-0.15193 0.0683644 3.83782e-19)
(-0.149135 0.0604936 6.71659e-21)
(-0.144876 0.0524878 -4.92363e-19)
(-0.139575 0.0443805 6.40325e-19)
(-0.132331 0.0364405 2.65626e-19)
(-0.00844495 0.0294272 -7.45263e-20)
(-0.0228549 0.0696734 -1.37371e-19)
(-0.0376344 0.0967355 -2.85376e-19)
(-0.0519805 0.114296 -8.69023e-21)
(-0.0654576 0.124842 4.99116e-20)
(-0.0778146 0.130216 -3.67356e-19)
(-0.0888214 0.1318 -2.74381e-19)
(-0.0982969 0.130605 -3.8877e-20)
(-0.106113 0.127356 -3.51426e-19)
(-0.112182 0.122564 -2.46041e-19)
(-0.116449 0.116589 -7.19975e-20)
(-0.118886 0.10968 -2.3364e-19)
(-0.119484 0.102022 -3.27588e-21)
(-0.118253 0.0937601 -3.14832e-19)
(-0.115222 0.0850193 1.33502e-19)
(-0.110419 0.0759213 -1.52193e-19)
(-0.103888 0.0665847 1.1843e-19)
(-0.0958374 0.0570979 -1.49426e-19)
(-0.0867367 0.0475183 -4.3079e-19)
(-0.0759103 0.0381621 -1.30842e-19)
(-0.00957261 0.0305634 -2.88149e-20)
(-0.0246622 0.0733092 -3.11181e-20)
(-0.0383194 0.102834 2.4022e-19)
(-0.0505665 0.122507 -3.9292e-19)
(-0.0613606 0.134703 5.74043e-20)
(-0.070653 0.141248 -2.29152e-19)
(-0.0783508 0.143551 1.07935e-19)
(-0.0843609 0.142671 4.915e-19)
(-0.0886091 0.139389 -3.02005e-20)
(-0.0910414 0.134271 -3.71869e-19)
(-0.091624 0.127721 6.66627e-20)
(-0.0903408 0.120027 1.26507e-20)
(-0.0871919 0.111406 -8.00877e-20)
(-0.0821939 0.102029 5.60004e-21)
(-0.0753789 0.0920463 6.95687e-19)
(-0.0667846 0.081606 -9.78587e-20)
(-0.0564549 0.0708621 -1.95622e-19)
(-0.0445757 0.059947 -3.53466e-19)
(-0.0316502 0.0489564 3.59935e-19)
(-0.0173 0.0382481 1.53761e-19)
(-0.0105413 0.0307426 1.41111e-19)
(-0.026254 0.0747865 -1.86053e-19)
(-0.0388756 0.106068 2.62588e-19)
(-0.0491182 0.127474 2.64964e-19)
(-0.0572839 0.14116 2.44083e-19)
(-0.0635152 0.148859 4.9706e-19)
(-0.0678603 0.151953 3.23805e-19)
(-0.0703253 0.151513 -6.9982e-19)
(-0.0709031 0.148351 3.60426e-19)
(-0.0695861 0.143071 2.85871e-19)
(-0.0663722 0.136113 -4.05196e-21)
(-0.0612675 0.1278 3.25469e-19)
(-0.0542875 0.118375 2.57186e-19)
(-0.0454579 0.108033 -1.38223e-19)
(-0.0348169 0.0969444 4.76481e-19)
(-0.022409 0.0852807 -5.90938e-19)
(-0.00828135 0.0732299 2.38608e-19)
(0.00740701 0.0609777 3.07838e-19)
(0.0241457 0.0486798 -7.13645e-20)
(0.041951 0.0367339 6.11451e-19)
(-0.0113053 0.0300904 2.87928e-19)
(-0.0275544 0.0742956 1.52137e-20)
(-0.0392758 0.106579 -1.02832e-19)
(-0.0476987 0.129245 -1.08065e-19)
(-0.0534021 0.144157 -5.04637e-19)
(-0.0566988 0.152901 7.1418e-20)
(-0.057774 0.156785 2.04385e-19)
(-0.0567391 0.156855 -9.87632e-20)
(-0.0536646 0.15393 8.19562e-20)
(-0.0485999 0.148633 -2.07663e-20)
(-0.0415848 0.141432 -1.08314e-19)
(-0.032655 0.132675 1.03515e-19)
(-0.0218461 0.122625 -4.57896e-19)
(-0.00919509 0.111493 4.38986e-19)
(0.00525526 0.0994649 -3.84967e-19)
(0.0214575 0.0867286 1.1843e-19)
(0.039363 0.0735008 2.74012e-19)
(0.0588433 0.0600273 -5.60059e-20)
(0.0794107 0.046555 -1.90136e-19)
(0.100668 0.0335362 -1.27286e-19)
(-0.0118469 0.0287731 -3.60584e-19)
(-0.0285288 0.0721225 -2.30172e-20)
(-0.0395176 0.104638 7.58523e-20)
(-0.0463703 0.128011 1.94383e-19)
(-0.0498651 0.143785 -2.74233e-19)
(-0.0504553 0.153361 -2.40086e-19)
(-0.0484525 0.157939 5.63667e-19)
(-0.0440734 0.158514 -3.10885e-19)
(-0.0374717 0.155886 -2.02219e-19)
(-0.0287612 0.150681 -2.93418e-19)
(-0.0180301 0.143379 1.95502e-19)
(-0.00534865 0.13434 -3.19136e-21)
(0.00922576 0.123842 -3.68403e-19)
(0.0256453 0.112104 -6.12162e-19)
(0.0438669 0.0993173 4.67257e-19)
(0.063847 0.0856759 -3.836e-19)
(0.0855407 0.0714161 5.44935e-19)
(0.108852 0.0568447 -1.52239e-19)
(0.133347 0.0423388 3.25709e-19)
(0.158175 0.0284516 -1.07618e-18)
(-0.0121779 0.0269801 -7.3457e-19)
(-0.0291858 0.0686213 4.79666e-19)
(-0.0396219 0.10062 6.49464e-20)
(-0.0451861 0.124098 1.26269e-20)
(-0.0467767 0.140281 -2.94522e-19)
(-0.0449542 0.150377 4.33328e-19)
(-0.0401397 0.155458 4.79731e-20)
(-0.032649 0.156447 -8.96407e-20)
(-0.0227186 0.154105 -2.89154e-19)
(-0.0105287 0.149044 3.13615e-19)
(0.00378272 0.14174 8.03278e-19)
(0.0201106 0.132557 -1.77336e-19)
(0.0383772 0.121774 4.05923e-19)
(0.0585279 0.10961 -4.8497e-19)
(0.0805249 0.0962497 -4.69353e-19)
(0.104336 0.0818833 2.82314e-19)
(0.129925 0.0667505 4.73368e-19)
(0.157226 0.051212 -1.53424e-18)
(0.185883 0.0358161 1.79528e-19)
(0.214565 0.0213008 2.40156e-19)
(-0.0123362 0.0249067 5.44721e-19)
(-0.0295732 0.0641817 1.79182e-19)
(-0.0396261 0.0949763 9.25542e-19)
(-0.044176 0.117938 4.74025e-20)
(-0.0441701 0.13402 -1.02928e-19)
(-0.0402428 0.144241 -4.90116e-19)
(-0.0329038 0.149549 4.16447e-19)
(-0.0225553 0.150779 7.50096e-19)
(-0.0095093 0.14864 5.03897e-19)
(0.00599311 0.143715 3.64718e-19)
(0.0237687 0.136463 3.16664e-19)
(0.043683 0.12724 -5.72837e-19)
(0.0656433 0.116318 -1.83195e-19)
(0.0895934 0.103904 -1.34198e-19)
(0.115505 0.0901688 1.45096e-18)
(0.143361 0.0752843 -2.47266e-21)
(0.17313 0.0594763 -3.66748e-19)
(0.20476 0.0431413 -1.19399e-19)
(0.237989 0.0270346 1.05919e-18)
(0.270993 0.0121962 1.35651e-19)
(-0.0123802 0.0227375 -2.69028e-20)
(-0.0297669 0.0591936 -5.12646e-19)
(-0.0395699 0.0881908 -7.59988e-19)
(-0.0433281 0.110041 -2.10728e-19)
(-0.0419808 0.125489 1.16311e-19)
(-0.0362065 0.135399 2.47979e-20)
(-0.0265799 0.140596 6.66391e-19)
(-0.0135712 0.141831 -8.27344e-19)
(0.00244674 0.139754 -3.1523e-19)
(0.0211848 0.134907 -6.3989e-19)
(0.0424259 0.127724 -5.49576e-19)
(0.0660155 0.118542 -4.89388e-19)
(0.0918534 0.107618 1.22257e-19)
(0.119884 0.0951411 -1.60014e-19)
(0.150086 0.0812627 6.96131e-19)
(0.182446 0.0661259 -3.81833e-19)
(0.21692 0.0499259 -1.21218e-18)
(0.253429 0.0330676 -2.4922e-19)
(0.2918 0.0165351 6.0222e-19)
(0.329753 0.00181264 -5.10698e-19)
(-0.0123792 0.0206315 -8.67792e-20)
(-0.0298533 0.0540145 6.26521e-19)
(-0.0394755 0.0807409 -7.96573e-19)
(-0.0425665 0.10095 1.8432e-19)
(-0.0400201 0.115257 -3.77579e-19)
(-0.0325341 0.124413 8.40226e-19)
(-0.0207241 0.129144 -6.01241e-19)
(-0.00510526 0.130122 6.89882e-19)
(0.0139098 0.127937 -6.5371e-19)
(0.036002 0.123086 2.81972e-19)
(0.0609354 0.115971 -1.35848e-19)
(0.0885456 0.106908 -3.44508e-19)
(0.118727 0.0961324 -4.29852e-19)
(0.151417 0.0838156 4.3197e-19)
(0.186582 0.0700857 -3.64145e-19)
(0.224182 0.0550565 -8.05436e-19)
(0.264111 0.0388814 8.42388e-19)
(0.306198 0.0219414 -1.07892e-18)
(0.350326 0.00544809 4.89521e-19)
(0.393898 -0.00850002 1.36683e-20)
(-0.0124019 0.01871 -7.86187e-19)
(-0.029907 0.0489407 -8.44507e-19)
(-0.0393236 0.073058 9.74379e-20)
(-0.0417293 0.0911948 -8.08559e-19)
(-0.0379546 0.103924 -7.06235e-20)
(-0.0286985 0.111929 -5.93569e-19)
(-0.014594 0.115866 -1.35951e-19)
(0.00382343 0.116341 -3.97617e-19)
(0.0261246 0.113889 5.10643e-21)
(0.0519794 0.108963 -1.73877e-19)
(0.0811446 0.101934 1.46537e-20)
(0.113447 0.0930924 -5.08576e-19)
(0.148765 0.0826541 5.68737e-19)
(0.187002 0.0707751 -8.05172e-19)
(0.228066 0.0575655 2.90532e-19)
(0.271831 0.0431152 1.30103e-20)
(0.318065 0.0275343 -4.636e-19)
(0.366408 0.0111472 1.16494e-18)
(0.416729 -0.00464461 -2.75435e-19)
(0.466424 -0.0169006 -1.75033e-19)
(-0.0125039 0.0170489 8.80338e-19)
(-0.0299683 0.0441864 4.73633e-19)
(-0.0390314 0.0654947 4.38909e-19)
(-0.0405521 0.0812536 6.5316e-20)
(-0.0352992 0.0920742 5.91135e-19)
(-0.0239618 0.09862 8.50329e-19)
(-0.00717011 0.101507 6.94253e-19)
(0.0145418 0.101293 6.36049e-20)
(0.0407465 0.0984688 5.10539e-19)
(0.0711132 0.0934483 7.8991e-19)
(0.105389 0.0865716 -2.0459e-19)
(0.143376 0.0781062 3.45838e-19)
(0.184898 0.0682533 2.79077e-19)
(0.22977 0.0571571 2.87044e-19)
(0.277773 0.044918 1.71871e-18)
(0.328612 0.0316112 -6.46127e-19)
(0.381848 0.0173103 -3.84205e-20)
(0.436848 0.00225066 7.62209e-19)
(0.493356 -0.0120657 -4.33455e-19)
(0.549247 -0.0215124 2.08478e-19)
(-0.0127158 0.0156751 -7.09895e-19)
(-0.0300227 0.0398716 4.44998e-20)
(-0.0384371 0.0583013 -5.62817e-19)
(-0.0386653 0.0715136 -7.23933e-20)
(-0.0314324 0.080226 4.10112e-19)
(-0.0174146 0.0851255 -1.22051e-18)
(0.00277209 0.086816 -1.5734e-21)
(0.0286069 0.0858261 5.6794e-19)
(0.0596684 0.0826118 5.33156e-19)
(0.0956159 0.0775564 -2.35454e-19)
(0.136161 0.0709731 7.84149e-20)
(0.181032 0.0631099 1.80646e-19)
(0.229934 0.0541557 -8.57289e-20)
(0.282516 0.0442485 -9.73815e-19)
(0.338335 0.0334856 2.45877e-19)
(0.396837 0.0219371 6.8956e-19)
(0.457303 0.00964905 -9.87251e-19)
(0.518776 -0.0032605 4.80271e-19)
(0.580781 -0.0153213 1.29831e-19)
(0.642183 -0.0207573 6.42131e-19)
(-0.0130354 0.0145692 -1.0331e-19)
(-0.0299895 0.0360221 -4.9424e-19)
(-0.0372965 0.0516144 2.26991e-19)
(-0.0356069 0.062247 8.45446e-22)
(-0.0256344 0.0687923 -9.83834e-19)
(-0.00805012 0.0719957 1.53931e-19)
(0.0165419 0.0724726 -2.89773e-20)
(0.0476272 0.0707387 1.97772e-19)
(0.0847703 0.0672262 -9.06023e-19)
(0.127583 0.0622925 -6.48017e-20)
(0.175682 0.0562271 -2.15387e-19)
(0.228648 0.0492599 1.89225e-19)
(0.28598 0.0415681 6.48059e-19)
(0.347064 0.0332858 -9.98637e-20)
(0.411147 0.0245133 4.02589e-20)
(0.477332 0.0153263 2.56938e-19)
(0.54455 0.00576059 -6.54165e-20)
(0.611493 -0.00416532 5.30956e-19)
(0.677419 -0.0130641 -3.05653e-19)
(0.742207 -0.0133244 -4.72149e-19)
(-0.0134235 0.0136724 9.6795e-20)
(-0.0297199 0.0325794 2.4186e-20)
(-0.0352932 0.0454602 1.97739e-19)
(-0.030853 0.0536007 4.82676e-19)
(-0.0171461 0.058055 2.70051e-19)
(0.00513892 0.0596501 2.78062e-20)
(0.0353876 0.0590299 -3.20951e-19)
(0.0730577 0.0567085 8.23432e-20)
(0.117648 0.0531007 4.33137e-19)
(0.168652 0.0485397 -7.34598e-19)
(0.225505 0.0432894 5.55461e-19)
(0.287543 0.0375553 -4.19805e-19)
(0.353966 0.0314956 3.57965e-19)
(0.42382 0.0252329 -7.75101e-19)
(0.496 0.0188681 8.57448e-19)
(0.569261 0.0124913 -9.18775e-19)
(0.642207 0.00616516 -2.40546e-19)
(0.713241 -4.88001e-05 7.53391e-19)
(0.781297 -0.00465457 -2.54474e-19)
(0.845206 1.82782e-05 1.10688e-19)
(-0.0138069 0.0129001 -7.28499e-20)
(-0.029006 0.0294222 6.86945e-19)
(-0.0320595 0.0397719 -3.47698e-21)
(-0.0238567 0.0456047 -4.25316e-19)
(-0.00523372 0.0481613 -2.84571e-19)
(0.0230635 0.0483608 5.21731e-19)
(0.0603608 0.0468838 -2.06467e-19)
(0.106023 0.0442471 -2.59879e-20)
(0.159398 0.0408485 4.30017e-19)
(0.219758 0.0369916 -5.34334e-19)
(0.286248 0.0329038 5.92168e-20)
(0.357853 0.0287494 -6.97734e-19)
(0.433391 0.0246445 3.68652e-19)
(0.511525 0.0206717 -1.05603e-18)
(0.590811 0.016899 1.68469e-18)
(0.669751 0.0134012 -3.111e-19)
(0.746863 0.0102836 3.18964e-19)
(0.8208 0.00783351 -8.26308e-19)
(0.890992 0.0075695 1.15945e-20)
(0.950618 0.00990188 8.56665e-19)
(-0.0140858 0.0121566 -2.20202e-19)
(-0.0275967 0.0263939 1.89712e-19)
(-0.0272019 0.0344195 -6.99307e-19)
(-0.0140863 0.0382004 1.03328e-18)
(0.0107579 0.0391471 -7.44994e-19)
(0.0464656 0.0382694 3.83263e-20)
(0.0922253 0.0362828 -8.01449e-19)
(0.147211 0.0337036 5.72795e-19)
(0.210504 0.0309041 -8.19713e-20)
(0.281032 0.028145 -5.0653e-19)
(0.357529 0.0255966 -2.96338e-19)
(0.438534 0.0233556 3.12911e-19)
(0.52242 0.0214624 2.07274e-19)
(0.607455 0.0199175 -9.15164e-19)
(0.691885 0.0187001 3.30766e-19)
(0.774032 0.0177857 -4.85846e-19)
(0.852385 0.0171609 6.12468e-20)
(0.925714 0.0168723 -3.99664e-19)
(0.993474 0.0173904 1.42467e-19)
(1.05235 0.0188074 -5.69172e-19)
(-0.0141439 0.0113511 6.27125e-19)
(-0.0252171 0.0233348 -3.79722e-19)
(-0.0203251 0.0292494 3.12455e-19)
(-0.00105292 0.031283 -3.93722e-19)
(0.0313733 0.0309819 6.59502e-19)
(0.0758846 0.0294327 -1.18524e-20)
(0.131426 0.0273743 -8.03108e-20)
(0.196852 0.0253085 -5.9738e-20)
(0.270844 0.0235648 3.65749e-19)
(0.351851 0.0223373 6.22326e-19)
(0.438089 0.0217109 -3.67938e-19)
(0.527585 0.0216836 3.57938e-19)
(0.618257 0.0221881 6.52956e-19)
(0.708025 0.0231153 -4.57362e-19)
(0.794927 0.0243353 -9.19833e-19)
(0.877231 0.0257173 1.67487e-18)
(0.953522 0.0271418 -2.98819e-19)
(1.02277 0.0285171 -9.27556e-20)
(1.08449 0.0298881 9.71254e-19)
(1.13761 0.0322817 -2.21003e-19)
(-0.0138592 0.0104107 -1.02003e-18)
(-0.0215862 0.0201111 -6.78508e-19)
(-0.0110487 0.0241259 -2.60145e-19)
(0.0156761 0.0247532 5.01712e-19)
(0.0570386 0.0236271 -1.13206e-18)
(0.111658 0.0218859 5.85654e-19)
(0.178101 0.0202689 7.41479e-20)
(0.254759 0.0192379 7.45011e-20)
(0.339761 0.0190491 -7.67802e-19)
(0.430959 0.019796 -2.71435e-19)
(0.525979 0.0214423 -4.77813e-19)
(0.622327 0.0238536 4.60923e-19)
(0.717531 0.0268304 1.29289e-19)
(0.809292 0.03014 2.46124e-20)
(0.895619 0.0335464 5.86416e-19)
(0.974929 0.0368335 -5.9844e-19)
(1.0461 0.0398198 -2.31572e-20)
(1.10851 0.0423739 2.12672e-20)
(1.16199 0.0444061 8.61499e-20)
(1.20689 0.0473773 4.14573e-19)
(-0.013113 0.00928877 3.2473e-19)
(-0.0164301 0.016638 8.3554e-19)
(0.000982514 0.0189673 6.70078e-19)
(0.0364737 0.0185643 -2.30889e-19)
(0.0880668 0.0170925 8.02689e-19)
(0.153937 0.0157047 -6.7278e-20)
(0.23212 0.0151037 -9.54305e-20)
(0.320376 0.015671 5.63307e-20)
(0.416148 0.0175458 7.76307e-19)
(0.516601 0.0206757 4.55959e-19)
(0.618758 0.0248635 1.33278e-19)
(0.719679 0.0298142 8.92274e-21)
(0.816654 0.0351838 -8.7437e-19)
(0.907378 0.0406237 7.6043e-19)
(0.990065 0.0458173 1.26588e-19)
(1.06352 0.0505062 -2.12965e-19)
(1.12711 0.0545026 -8.88916e-19)
(1.18077 0.0576998 -6.78809e-20)
(1.22483 0.0600081 3.3746e-19)
(1.26057 0.0629911 -6.36117e-20)
(-0.0117936 0.00796778 -8.22997e-19)
(-0.00948986 0.0128929 3.4418e-19)
(0.0160935 0.0137717 -1.68033e-18)
(0.0616525 0.0127582 6.88274e-19)
(0.124663 0.011478 -5.49029e-19)
(0.202702 0.0110472 4.0531e-19)
(0.293096 0.0120795 -6.29406e-19)
(0.392819 0.0148187 5.75951e-20)
(0.498515 0.0192293 -3.23333e-20)
(0.606638 0.0250626 1.68889e-19)
(0.713681 0.0319248 2.42844e-19)
(0.816427 0.0393467 -4.58478e-19)
(0.912166 0.0468501 2.43722e-19)
(0.998851 0.0540023 2.20981e-19)
(1.07517 0.060454 9.32864e-19)
(1.1405 0.0659595 -4.10045e-19)
(1.19489 0.0703801 -2.59145e-19)
(1.23886 0.0736785 4.31455e-19)
(1.27329 0.0758496 2.14356e-19)
(1.2999 0.0783087 -4.29141e-19)
(-0.00979821 0.00645807 7.20402e-19)
(-0.000525887 0.00891956 6.94257e-19)
(0.0345735 0.00862807 2.0039e-19)
(0.0914586 0.007482 8.44511e-19)
(0.166917 0.00699083 4.15557e-19)
(0.257748 0.0081673 -7.48663e-19)
(0.360392 0.0114637 1.13498e-18)
(0.470895 0.0169131 -5.5862e-19)
(0.585052 0.0242394 5.5707e-19)
(0.698672 0.0329509 7.18768e-19)
(0.807896 0.0424388 -4.10307e-19)
(0.909489 0.0520718 7.83027e-20)
(1.00104 0.0612763 4.28887e-19)
(1.08105 0.0695917 2.98783e-19)
(1.14887 0.0766987 6.75453e-19)
(1.20465 0.0824229 -2.76729e-19)
(1.2491 0.0867205 -3.91536e-20)
(1.28333 0.0896521 4.02181e-19)
(1.3087 0.091322 -8.95575e-20)
(1.32708 0.0929129 -1.19031e-21)
(-0.00703183 0.00479394 -3.71805e-19)
(0.0106787 0.00482344 -1.36581e-18)
(0.0566671 0.00371444 3.21842e-19)
(0.126056 0.00298484 -2.45046e-19)
(0.21478 0.00393751 -5.66621e-19)
(0.318666 0.00739553 -4.05007e-19)
(0.433099 0.0135593 -2.50289e-19)
(0.553114 0.0221667 6.07553e-19)
(0.673699 0.0326386 -3.60594e-19)
(0.79019 0.0442121 -3.69367e-19)
(0.898658 0.0560744 -4.63093e-19)
(0.99618 0.0674771 -7.63222e-20)
(1.08095 0.0778176 -5.47103e-20)
(1.15225 0.0866804 -1.04467e-18)
(1.21027 0.0938415 4.95388e-19)
(1.25591 0.0992475 -6.52981e-19)
(1.29051 0.102979 1.9434e-19)
(1.31568 0.105205 -1.48767e-18)
(1.33306 0.106134 4.50548e-19)
(1.34453 0.106707 5.4726e-19)
(-0.00340586 0.00302909 -9.34977e-20)
(0.0243137 0.000763592 6.65422e-19)
(0.0825601 -0.000715065 4.27058e-20)
(0.165501 -0.000400854 1.0287e-19)
(0.268031 0.00269485 -2.0936e-19)
(0.38481 0.00909891 -3.47627e-21)
(0.510037 0.018655 -5.31561e-21)
(0.637739 0.0307218 -1.26055e-19)
(0.762255 0.0443731 4.48003e-19)
(0.878743 0.0585805 1.72265e-19)
(0.983558 0.0723758 7.76615e-19)
(1.07443 0.0849703 -2.10845e-19)
(1.15043 0.0958166 1.44941e-19)
(1.21176 0.104619 -1.65897e-20)
(1.25947 0.111304 3.96043e-19)
(1.29514 0.115968 2.36625e-19)
(1.32064 0.118825 5.55788e-19)
(1.33786 0.120144 -8.90256e-19)
(1.34858 0.120213 1.10242e-18)
(1.35458 0.11977 -3.48407e-19)
(0.00116183 0.00123282 -8.65854e-19)
(0.0405343 -0.00305804 -2.70916e-19)
(0.112362 -0.00434834 2.11258e-19)
(0.209716 -0.00228805 1.33394e-19)
(0.326249 0.00366956 1.37356e-19)
(0.455283 0.0136303 1.39045e-19)
(0.589776 0.0269721 -3.48563e-19)
(0.72287 0.0426072 -1.42865e-19)
(0.84854 0.0592547 4.51856e-20)
(0.962145 0.0756683 -4.22549e-19)
(1.06071 0.0908104 -1.88601e-19)
(1.14292 0.103949 1.13717e-18)
(1.20888 0.114679 -2.94258e-19)
(1.25975 0.122886 -3.96299e-19)
(1.29735 0.128679 -1.81735e-19)
(1.32382 0.132313 1.29134e-19)
(1.34135 0.134122 1.49474e-19)
(1.35194 0.134454 -7.14281e-19)
(1.35737 0.133642 1.01757e-18)
(1.35923 0.132278 -8.7973e-19)
(0.00674503 -0.00051257 -9.72304e-20)
(0.0594511 -0.0064067 2.77162e-20)
(0.146084 -0.00683575 -3.60481e-20)
(0.258463 -0.00226717 5.24063e-19)
(0.388797 0.00725548 2.93095e-20)
(0.528951 0.0212814 1.92663e-19)
(0.670706 0.0386248 -4.00864e-19)
(0.80657 0.0577204 -1.42393e-20)
(0.930553 0.0769716 5.53397e-19)
(1.03864 0.0950062 7.58088e-20)
(1.12887 0.110829 -4.76135e-19)
(1.20108 0.123865 -4.1768e-20)
(1.25645 0.133924 -3.80698e-19)
(1.29704 0.141113 3.82049e-19)
(1.32528 0.14573 5.17908e-19)
(1.34367 0.148174 -5.65776e-20)
(1.35451 0.148872 -6.64599e-20)
(1.3598 0.148222 2.02405e-19)
(1.36119 0.146575 -6.37578e-19)
(1.36007 0.144424 5.67017e-19)
(0.0134055 -0.00211345 9.86394e-20)
(0.0811192 -0.00902405 -6.3334e-19)
(0.183627 -0.00780998 1.69236e-19)
(0.311327 6.29319e-05 -5.27794e-19)
(0.454822 0.0137956 1.81755e-19)
(0.604493 0.0322469 -6.74365e-19)
(0.751136 0.0536008 2.7178e-19)
(0.887011 0.0758329 -8.67636e-20)
(1.00663 0.0971226 -3.64364e-21)
(1.107 0.116097 8.68134e-20)
(1.18742 0.131921 -3.14979e-19)
(1.24898 0.144268 -4.44843e-19)
(1.29388 0.15321 -8.89871e-20)
(1.32488 0.159083 -3.98996e-20)
(1.34484 0.162361 -1.00603e-19)
(1.3564 0.163557 -3.21475e-20)
(1.36186 0.16316 -9.60546e-20)
(1.36306 0.161584 -8.24983e-20)
(1.36146 0.159181 -2.3933e-19)
(1.35824 0.156379 3.76135e-19)
(0.0211878 -0.00346605 2.35129e-19)
(0.105526 -0.0106368 -2.61384e-19)
(0.224762 -0.00690469 5.63507e-19)
(0.367722 0.00506767 -2.43952e-19)
(0.523293 0.0235527 6.52151e-19)
(0.680473 0.0466058 1.00924e-20)
(0.829409 0.0717627 3.26757e-19)
(0.962602 0.0966184 -8.80931e-20)
(1.07552 0.119263 3.61601e-19)
(1.16654 0.138463 2.45602e-20)
(1.23635 0.153656 8.46571e-19)
(1.28723 0.164825 -5.81355e-19)
(1.32225 0.172322 7.95164e-20)
(1.34467 0.176699 1.49048e-19)
(1.35756 0.178574 7.55762e-19)
(1.36356 0.178538 -2.7067e-19)
(1.36481 0.177104 -5.27376e-20)
(1.36294 0.174681 -2.72469e-19)
(1.35921 0.171611 -2.64982e-20)
(1.35457 0.168274 1.35023e-19)
(0.0301143 -0.00445811 -1.11783e-19)
(0.132581 -0.0109654 3.24589e-19)
(0.269131 -0.0037719 -3.34522e-19)
(0.426894 0.013054 1.3127e-19)
(0.593041 0.0366907 -1.58601e-19)
(0.755427 0.0643175 5.79694e-19)
(0.904017 0.0928673 -8.14338e-20)
(1.03208 0.119689 1.96174e-19)
(1.13645 0.142947 -1.16462e-19)
(1.21708 0.161685 -3.43906e-21)
(1.27606 0.175699 1.29147e-19)
(1.31672 0.185314 -9.9349e-20)
(1.34277 0.191152 2.56258e-19)
(1.35778 0.19395 -1.28008e-19)
(1.36483 0.194428 -5.49962e-19)
(1.36643 0.193216 5.43328e-19)
(1.36448 0.190826 -2.40958e-19)
(1.36038 0.187638 1.91801e-19)
(1.35516 0.183981 3.26995e-19)
(1.34959 0.180195 1.33845e-19)
(0.0401797 -0.0049712 2.78683e-19)
(0.162113 -0.00973408 -5.74779e-19)
(0.316245 0.00190157 1.09675e-19)
(0.487961 0.0242531 -8.00616e-20)
(0.662831 0.0532663 -3.2425e-19)
(0.827958 0.0852318 -2.53734e-19)
(0.973682 0.116594 -5.0242e-20)
(1.09454 0.144634 -4.48834e-19)
(1.18907 0.167761 -2.71687e-20)
(1.25884 0.185417 -8.25795e-20)
(1.30726 0.19781 -2.22196e-19)
(1.3385 0.205606 -4.96814e-20)
(1.35669 0.209669 -1.67727e-19)
(1.36548 0.210876 -2.75484e-19)
(1.36783 0.210005 2.79161e-19)
(1.36603 0.207694 3.63952e-20)
(1.36171 0.204427 7.23896e-20)
(1.35602 0.200546 -3.1376e-19)
(1.34979 0.196367 -9.00587e-21)
(1.34362 0.192189 -4.75167e-19)
(0.0513476 -0.00488406 3.03353e-19)
(0.19386 -0.00668131 2.02945e-19)
(0.365501 0.0103788 -3.29065e-19)
(0.549943 0.0388075 5.13537e-19)
(0.731421 0.0732293 -5.5932e-20)
(0.89681 0.109107 1.91507e-19)
(1.03741 0.142573 6.61976e-20)
(1.14946 0.171047 2.32578e-19)
(1.23337 0.193345 -1.82106e-19)
(1.29232 0.209392 5.99182e-20)
(1.33082 0.219829 -5.72957e-20)
(1.35364 0.22564 -2.43232e-20)
(1.36512 0.227887 4.71044e-20)
(1.36882 0.227536 -8.56919e-20)
(1.36749 0.225387 -2.56263e-20)
(1.36312 0.222055 -7.88968e-20)
(1.35707 0.217981 -1.27118e-19)
(1.35029 0.213464 8.24622e-20)
(1.34341 0.20881 -1.10287e-19)
(1.33688 0.204268 4.78829e-19)
(0.0635481 -0.00407673 -1.50661e-19)
(0.22748 -0.0015713 -4.28938e-19)
(0.416196 0.0218591 -5.71357e-20)
(0.611807 0.0567654 -1.61932e-20)
(0.797631 0.0964316 -1.92695e-19)
(0.960919 0.135633 -3.15993e-19)
(1.09449 0.170417 1.02734e-19)
(1.19662 0.198552 -1.41068e-19)
(1.26965 0.219395 -1.56659e-19)
(1.31819 0.233409 8.66702e-20)
(1.34765 0.241657 -6.51406e-20)
(1.36315 0.245399 -1.30351e-19)
(1.36903 0.245839 -3.38655e-21)
(1.36867 0.243991 8.80533e-20)
(1.36451 0.240639 -8.8111e-20)
(1.35824 0.236356 1.22359e-19)
(1.35098 0.231531 3.33701e-20)
(1.34347 0.226417 8.18458e-20)
(1.33618 0.221318 1.56653e-19)
(1.32945 0.216419 -1.33989e-19)
(0.0766765 -0.00243528 1.43511e-19)
(0.262554 0.00579465 -1.18209e-20)
(0.467557 0.0364679 6.5299e-20)
(0.672521 0.0780792 -8.79616e-20)
(0.860391 0.12264 7.83294e-21)
(1.01944 0.164454 3.0465e-19)
(1.14451 0.199739 -1.99414e-19)
(1.23608 0.22681 8.40166e-20)
(1.29836 0.245665 7.37607e-20)
(1.33721 0.257324 -2.05587e-19)
(1.35863 0.263237 1.92174e-19)
(1.36791 0.264886 1.74272e-21)
(1.36924 0.263564 -1.33338e-19)
(1.36569 0.260289 1.6022e-19)
(1.3594 0.255805 -6.3035e-20)
(1.35177 0.250628 4.79466e-20)
(1.34369 0.245091 -5.3785e-20)
(1.33571 0.239403 -2.18166e-20)
(1.32819 0.233875 -1.83461e-19)
(1.32137 0.228609 5.63572e-20)
(0.0905947 0.000143169 -4.77871e-20)
(0.298596 0.0155678 1.29544e-19)
(0.518767 0.054249 2.04271e-20)
(0.731088 0.10261 8.49155e-20)
(0.918776 0.151553 4.06046e-20)
(1.07177 0.195187 1.90627e-20)
(1.18727 0.230166 1.07019e-19)
(1.26808 0.25552 -1.29246e-20)
(1.32008 0.271955 4.67312e-20)
(1.35011 0.28103 7.46371e-20)
(1.36456 0.284534 3.57191e-20)
(1.36867 0.28411 2.55026e-20)
(1.36637 0.281088 1.03016e-19)
(1.36039 0.276456 -9.96607e-20)
(1.35254 0.2709 2.12465e-20)
(1.34396 0.264872 -1.97095e-20)
(1.33534 0.258646 3.05499e-20)
(1.32709 0.252398 2.54885e-20)
(1.31948 0.246443 5.2538e-20)
(1.31266 0.24079 2.02543e-21)
(0.105133 0.00374564 2.83799e-20)
(0.33507 0.0278431 2.5904e-20)
(0.569001 0.0751616 -3.59755e-20)
(0.786589 0.130136 2.24857e-20)
(0.972033 0.182818 1.26698e-20)
(1.11749 0.227439 -3.95075e-20)
(1.22281 0.261348 1.29371e-20)
(1.29299 0.284422 2.42647e-21)
(1.3354 0.298101 2.21381e-20)
(1.35761 0.304447 -5.92882e-20)
(1.36614 0.305521 -1.35641e-22)
(1.36605 0.30307 1.6236e-20)
(1.36092 0.298418 -1.29492e-20)
(1.35312 0.292494 1.30657e-20)
(1.34417 0.285915 3.38111e-20)
(1.33496 0.279064 -1.91519e-20)
(1.32602 0.272161 5.39525e-21)
(1.31766 0.265355 2.07828e-20)
(1.31005 0.25897 -3.40308e-20)
(1.3033 0.252903 1.64429e-20)
(0.120097 0.0084388 7.8122e-20)
(0.371409 0.0426536 -4.27477e-20)
(0.617447 0.0990816 5.04838e-20)
(0.838208 0.160365 -3.7579e-20)
(1.01958 0.216043 -1.68101e-20)
(1.15641 0.260818 5.1577e-21)
(1.25127 0.292959 -1.64205e-20)
(1.31125 0.313286 5.8866e-20)
(1.34494 0.323965 -4.89002e-20)
(1.36034 0.327502 1.14834e-20)
(1.36395 0.326168 -8.54108e-21)
(1.36052 0.321754 -5.52229e-20)
(1.35324 0.31554 5.34593e-20)
(1.34414 0.308381 2.02548e-20)
(1.33445 0.300814 -2.0085e-20)
(1.32486 0.293158 4.70162e-20)
(1.31578 0.285583 -7.57891e-22)
(1.30742 0.278217 -4.52341e-20)
(1.29988 0.271391 3.33284e-20)
(1.29326 0.264881 1.04832e-20)
(0.135267 0.0142654 -2.74217e-20)
(0.407031 0.0599666 7.92098e-20)
(0.663344 0.125806 9.18165e-20)
(0.885252 0.192942 -4.34317e-20)
(1.06099 0.250817 7.53653e-20)
(1.18845 0.29494 1.19084e-19)
(1.27292 0.324697 -6.65993e-21)
(1.32336 0.341906 -2.03935e-20)
(1.34926 0.34942 1.00368e-19)
(1.35887 0.350126 4.88713e-20)
(1.35848 0.346433 -8.80401e-21)
(1.35245 0.340127 7.26247e-20)
(1.3436 0.332418 -7.75211e-20)
(1.33362 0.32407 1.20825e-19)
(1.32347 0.315542 -2.00701e-20)
(1.31371 0.307091 5.74333e-20)
(1.30462 0.298842 1.02818e-20)
(1.29636 0.290911 4.0704e-20)
(1.28897 0.283633 -3.86871e-20)
(1.28252 0.276652 9.52654e-21)
(0.150409 0.0212411 -4.26448e-20)
(0.441356 0.0796825 9.9532e-20)
(0.705991 0.155061 7.42392e-20)
(0.927152 0.22747 -1.12899e-20)
(1.09601 0.286712 1.16023e-19)
(1.21369 0.329432 -8.74201e-20)
(1.28811 0.356282 -6.66375e-21)
(1.32978 0.370092 7.64123e-20)
(1.34888 0.374349 2.416e-20)
(1.35366 0.372243 3.39428e-20)
(1.3501 0.36626 -5.00825e-20)
(1.34214 0.358138 1.30691e-19)
(1.3322 0.348993 2.4312e-20)
(1.32166 0.339495 -1.15304e-19)
(1.31131 0.330025 1.68567e-19)
(1.30153 0.320783 -1.98408e-19)
(1.29255 0.311858 -9.08175e-20)
(1.28446 0.303357 1.53469e-20)
(1.27728 0.295613 8.76565e-20)
(1.27106 0.288137 -1.66239e-19)
(0.165279 0.0293522 -9.42868e-20)
(0.473827 0.101637 -2.23303e-19)
(0.744774 0.186508 -1.94136e-19)
(0.963475 0.263514 -2.63389e-19)
(1.12451 0.323299 -1.49848e-19)
(1.23231 0.363936 -3.10127e-19)
(1.29719 0.38745 3.94681e-20)
(1.33099 0.397664 -1.64611e-19)
(1.34427 0.398632 -1.81726e-20)
(1.34512 0.393768 2.70953e-20)
(1.33912 0.385575 -5.95666e-20)
(1.32978 0.375711 7.47971e-20)
(1.31916 0.365185 1.32967e-19)
(1.30836 0.35457 -1.8664e-19)
(1.29798 0.344174 3.03988e-20)
(1.28833 0.334146 8.67222e-20)
(1.27955 0.324541 1.44975e-19)
(1.27172 0.315464 -1.25038e-19)