/*--------------------------------*- C++ -*----------------------------------*\
  =========                 |
  \\      /  F ield         | OpenFOAM: The Open Source CFD Toolbox
   \\    /   O peration     | Website:  https://openfoam.org
    \\  /    A nd           | Version:  6.0
     \\/     M anipulation  |
\*---------------------------------------------------------------------------*/
FoamFile
{
    version     2.0;
    format      ascii;
    class       volVectorField;
    location    "70";
    object      U;
}
// * * * * * * * * * * * * * * * * * * * * * * * * * * * * * * * * * * * * * //

dimensions      [0 1 -1 0 0 0 0];

internalField   nonuniform List<vector> 
12500
(
(-0.000801038 -0.00774769 -9.28995e-22)
(-0.00437779 -0.0307625 1.32737e-20)
(-0.0110758 -0.0582595 -1.92743e-20)
(-0.0193043 -0.0878226 8.83841e-21)
(-0.028284 -0.117813 5.06178e-22)
(-0.0375627 -0.147256 -1.05303e-21)
(-0.0467616 -0.175646 -1.59832e-20)
(-0.0555665 -0.202776 8.74968e-21)
(-0.0637215 -0.2286 5.81683e-21)
(-0.0710218 -0.253126 5.86063e-21)
(-0.0773128 -0.27635 -9.91275e-21)
(-0.0824902 -0.298219 5.74234e-21)
(-0.0864981 -0.318634 -2.70089e-21)
(-0.0893257 -0.337454 4.58223e-21)
(-0.0910017 -0.354526 -1.16321e-20)
(-0.0915877 -0.369702 1.66748e-20)
(-0.0911705 -0.38287 -3.13543e-21)
(-0.089854 -0.393966 -1.17958e-20)
(-0.0877503 -0.402987 6.0662e-21)
(-0.0849739 -0.409996 -5.76274e-21)
(-0.0816484 -0.415123 5.11777e-21)
(-0.0778916 -0.418567 6.69076e-21)
(-0.0736632 -0.420581 6.82697e-22)
(-0.0687057 -0.421475 -1.91271e-20)
(-0.0640289 -0.421668 1.00713e-20)
(-0.000824972 -0.00548631 1.7805e-20)
(-0.00451719 -0.0254015 -4.58078e-20)
(-0.0117032 -0.0508189 1.34175e-20)
(-0.0205966 -0.0790099 8.99949e-21)
(-0.0303412 -0.108158 -7.14963e-21)
(-0.0404509 -0.137184 -4.07364e-20)
(-0.0505181 -0.165521 1.20623e-20)
(-0.0602079 -0.192919 -2.28483e-20)
(-0.0692515 -0.219296 2.72079e-20)
(-0.0774365 -0.244624 -3.62201e-20)
(-0.0846046 -0.268858 1.91989e-20)
(-0.0906495 -0.291905 6.33656e-21)
(-0.0955137 -0.313616 -1.55906e-20)
(-0.0991846 -0.333806 -6.77207e-21)
(-0.101688 -0.352275 5.01762e-20)
(-0.103082 -0.368836 -4.43176e-20)
(-0.10345 -0.383339 1.06592e-20)
(-0.102894 -0.395691 1.82663e-20)
(-0.101524 -0.405867 -3.97212e-21)
(-0.0994548 -0.413918 2.89992e-20)
(-0.0968135 -0.419972 5.29078e-21)
(-0.0937179 -0.424231 -2.0933e-21)
(-0.0901287 -0.426955 -3.64966e-20)
(-0.0858196 -0.428456 3.32734e-20)
(-0.0818022 -0.429196 -6.37681e-20)
(-0.000996929 -0.00288778 5.76414e-20)
(-0.00495252 -0.0192406 1.90494e-20)
(-0.0126354 -0.0422737 -2.52639e-20)
(-0.0221201 -0.0688928 1.09764e-20)
(-0.0325031 -0.0970712 9.92227e-21)
(-0.0432814 -0.125605 3.81149e-20)
(-0.0540325 -0.153843 -4.85243e-20)
(-0.0644111 -0.181482 -8.16224e-21)
(-0.0741433 -0.208397 -3.25275e-20)
(-0.0830156 -0.234519 -2.70213e-20)
(-0.0908702 -0.259765 3.43807e-20)
(-0.0976012 -0.283999 -1.1587e-19)
(-0.103151 -0.30703 -3.8722e-21)
(-0.107504 -0.32863 -6.93779e-20)
(-0.110682 -0.348555 -8.13905e-21)
(-0.112738 -0.366579 9.63033e-21)
(-0.113749 -0.382512 -5.3491e-20)
(-0.113812 -0.396227 -3.33516e-20)
(-0.113033 -0.407675 -3.91219e-20)
(-0.111528 -0.416885 6.09805e-20)
(-0.109424 -0.423977 2.1923e-20)
(-0.10684 -0.42915 -9.89328e-20)
(-0.10374 -0.432666 -4.71462e-20)
(-0.0999318 -0.434844 -5.25046e-20)
(-0.0964145 -0.436187 1.41947e-19)
(-0.00133411 -1.61484e-05 -1.35943e-21)
(-0.00570602 -0.0124201 -4.42405e-20)
(-0.0138697 -0.0328027 -2.20055e-20)
(-0.0238347 -0.0576677 1.375e-20)
(-0.0346868 -0.084753 8.27207e-20)
(-0.0459275 -0.112708 -3.68654e-20)
(-0.0571343 -0.140786 7.93189e-20)
(-0.0679629 -0.168616 7.57996e-20)
(-0.0781426 -0.196024 4.586e-20)
(-0.0874646 -0.2229 -4.51629e-22)
(-0.0957756 -0.249122 9.22762e-20)
(-0.102973 -0.274519 1.61284e-20)
(-0.108998 -0.298861 7.02842e-20)
(-0.113835 -0.321882 1.61593e-19)
(-0.117497 -0.3433 -1.86969e-19)
(-0.120031 -0.362846 2.80627e-19)
(-0.121505 -0.380293 6.05848e-20)
(-0.122008 -0.395476 -1.34442e-19)
(-0.121642 -0.408311 -1.85273e-20)
(-0.120519 -0.418802 4.79279e-20)
(-0.118766 -0.427049 -2.41731e-20)
(-0.116503 -0.433243 -1.45028e-20)
(-0.113701 -0.437641 -1.3848e-20)
(-0.110202 -0.440567 -5.5509e-20)
(-0.106982 -0.442569 1.95319e-19)
(-0.00184482 0.00304778 3.07819e-20)
(-0.00678335 -0.00511322 -1.42156e-19)
(-0.0153867 -0.0226247 1.7311e-19)
(-0.0256864 -0.0455713 -6.85901e-20)
(-0.0368005 -0.0714403 8.28688e-20)
(-0.0482582 -0.0987197 6.81994e-20)
(-0.0596534 -0.126554 2.59078e-20)
(-0.0706542 -0.154497 2.23644e-21)
(-0.0810012 -0.18232 1.45018e-19)
(-0.0904958 -0.209874 1.00892e-19)
(-0.0989927 -0.237001 -3.91932e-20)
(-0.106394 -0.263497 -2.53651e-20)
(-0.112644 -0.289104 1.09382e-19)
(-0.117721 -0.313523 2.03854e-20)
(-0.121633 -0.336438 5.62298e-20)
(-0.124418 -0.357543 1.32301e-19)
(-0.126132 -0.376571 -1.12572e-19)
(-0.126854 -0.393315 8.98136e-20)
(-0.126678 -0.407651 -1.95611e-19)
(-0.12571 -0.419546 1.63233e-19)
(-0.124078 -0.429072 1.01555e-21)
(-0.1219 -0.4364 -1.29087e-19)
(-0.119157 -0.441776 5.12753e-20)
(-0.115726 -0.445528 1.15694e-19)
(-0.112554 -0.448242 -1.7082e-19)
(-0.0025271 0.00620906 1.60862e-19)
(-0.00817156 0.00247828 -1.71405e-19)
(-0.0171494 -0.011992 -2.66926e-20)
(-0.0276093 -0.0328744 3.54131e-20)
(-0.0387474 -0.0574028 -7.49814e-20)
(-0.0501448 -0.0838961 -1.16326e-19)
(-0.0614284 -0.111381 -9.74585e-20)
(-0.07229 -0.139331 -2.34723e-20)
(-0.0824889 -0.167461 -1.66547e-19)
(-0.0918413 -0.195579 1.35749e-19)
(-0.100214 -0.223498 -2.07294e-19)
(-0.107515 -0.25099 1.06018e-19)
(-0.113692 -0.277775 -3.31685e-20)
(-0.11872 -0.303529 8.02104e-20)
(-0.122602 -0.327909 -2.018e-19)
(-0.125362 -0.350577 9.94504e-20)
(-0.127046 -0.371226 8.22689e-21)
(-0.127719 -0.389607 4.33115e-20)
(-0.127464 -0.405546 2.589e-19)
(-0.126381 -0.418966 5.74851e-20)
(-0.124593 -0.429899 -5.11149e-21)
(-0.12222 -0.438484 1.61807e-20)
(-0.11925 -0.444943 1.05073e-19)
(-0.115602 -0.449602 3.00889e-20)
(-0.112191 -0.453081 9.75776e-20)
(-0.00336783 0.00936392 -1.00056e-19)
(-0.00983866 0.010134 1.42774e-19)
(-0.0191047 -0.00118037 9.31098e-21)
(-0.0295289 -0.0198733 -1.75572e-19)
(-0.040431 -0.0429366 3.72398e-19)
(-0.0514676 -0.0685204 -1.1964e-19)
(-0.0623153 -0.0955304 1.76502e-19)
(-0.0726996 -0.123355 1.60874e-19)
(-0.0824053 -0.15165 -1.32796e-19)
(-0.0912678 -0.180185 -1.94109e-19)
(-0.099168 -0.208748 5.34744e-20)
(-0.106024 -0.237092 -5.68251e-20)
(-0.111787 -0.264923 -2.48442e-19)
(-0.116431 -0.291905 3.03854e-19)
(-0.119952 -0.317674 -1.45331e-19)
(-0.122364 -0.341868 -9.91861e-20)
(-0.123699 -0.364143 2.64947e-21)
(-0.124009 -0.384207 8.25913e-20)
(-0.123363 -0.401834 3.25606e-20)
(-0.121852 -0.416892 -1.28394e-19)
(-0.119595 -0.429359 1.47277e-19)
(-0.116707 -0.439327 -2.50955e-19)
(-0.113195 -0.446982 1.53546e-19)
(-0.109014 -0.452634 -1.14248e-19)
(-0.105057 -0.456923 3.19389e-20)
(-0.0043429 0.0124049 1.50037e-19)
(-0.0117343 0.0176242 -1.15756e-19)
(-0.0211856 0.00952107 -7.35363e-20)
(-0.0313653 -0.00688077 -1.30601e-19)
(-0.0417596 -0.0283575 -2.38138e-19)
(-0.052123 -0.0528989 -1.75738e-19)
(-0.0621958 -0.079291 1.11278e-19)
(-0.0717475 -0.106836 -1.68432e-19)
(-0.0805936 -0.13513 2.13373e-19)
(-0.0885929 -0.163906 -3.48295e-19)
(-0.0956429 -0.192929 1.55104e-19)
(-0.101674 -0.221943 3.26964e-19)
(-0.106642 -0.250648 -4.60126e-19)
(-0.110523 -0.278703 6.6008e-20)
(-0.113308 -0.305737 8.57116e-20)
(-0.115002 -0.331369 8.0991e-20)
(-0.115626 -0.355228 -8.69968e-20)
(-0.115217 -0.37698 -2.06658e-20)
(-0.11383 -0.396347 -6.55758e-20)
(-0.111545 -0.413134 -5.22527e-20)
(-0.108475 -0.427253 -2.87618e-19)
(-0.104735 -0.438729 -1.91037e-20)
(-0.100345 -0.447696 3.18526e-21)
(-0.095305 -0.454427 -1.25689e-19)
(-0.0905016 -0.459567 1.30048e-19)
(-0.00541818 0.0152272 5.39592e-21)
(-0.0137923 0.0247214 4.76925e-20)
(-0.0233143 0.0198217 5.03803e-20)
(-0.0330378 0.00578413 2.77782e-20)
(-0.0426525 -0.0139922 2.45367e-19)
(-0.0520293 -0.0373543 2.32445e-19)
(-0.0609857 -0.0629746 -1.88261e-19)
(-0.069343 -0.0900703 -5.92415e-20)
(-0.0769528 -0.11818 -5.15796e-20)
(-0.0836999 -0.146999 2.65626e-19)
(-0.0895011 -0.176274 9.68795e-20)
(-0.0943004 -0.205743 -1.38509e-19)
(-0.0980624 -0.235111 -1.1848e-19)
(-0.100767 -0.26404 2.84516e-19)
(-0.102403 -0.292161 -7.07379e-20)
(-0.102973 -0.319087 -8.60088e-20)
(-0.102485 -0.34443 -1.17884e-19)
(-0.100966 -0.36782 -9.20951e-20)
(-0.0984589 -0.38893 -1.16514e-19)
(-0.0950323 -0.407499 -7.41884e-20)
(-0.0907922 -0.423361 3.08562e-19)
(-0.0858562 -0.436461 -1.51913e-19)
(-0.0802582 -0.446851 1.01469e-19)
(-0.0740426 -0.454742 -2.63852e-19)
(-0.0681231 -0.460765 1.07594e-19)
(-0.00655149 0.0177348 -1.37818e-19)
(-0.0159334 0.0312116 -3.71104e-20)
(-0.0254062 0.0294418 -2.82528e-19)
(-0.034469 0.0178079 -1.36992e-19)
(-0.0430435 -0.000168895 -2.68878e-19)
(-0.0511322 -0.0222179 -2.82955e-20)
(-0.0586404 -0.0469098 1.44732e-19)
(-0.0654481 -0.0733815 -9.00232e-20)
(-0.071447 -0.101113 1.91704e-19)
(-0.0765506 -0.129766 -4.68098e-19)
(-0.0806968 -0.159068 -1.43961e-20)
(-0.0838454 -0.188757 8.31368e-20)
(-0.0859723 -0.218545 -1.05562e-19)
(-0.0870644 -0.248109 9.57808e-20)
(-0.0871153 -0.27709 -7.50705e-20)
(-0.0861247 -0.305107 -1.59083e-19)
(-0.0840991 -0.331767 2.86802e-19)
(-0.0810564 -0.356676 1.76251e-19)
(-0.0770306 -0.379466 -3.82068e-20)
(-0.0720828 -0.399813 1.14495e-19)
(-0.0663141 -0.417466 -2.2547e-19)
(-0.0598453 -0.432273 3.18534e-19)
(-0.052727 -0.44418 -4.32485e-19)
(-0.045047 -0.453302 8.77736e-20)
(-0.0377868 -0.460224 -1.62718e-19)
(-0.00769527 0.0198464 7.94296e-21)
(-0.0180704 0.0369059 -1.27628e-19)
(-0.027374 0.0381253 1.85211e-19)
(-0.0355882 0.0288944 3.8165e-19)
(-0.0428847 0.0127938 -7.45701e-21)
(-0.0494075 -0.00782066 4.36038e-20)
(-0.055158 -0.0314341 -1.6641e-19)
(-0.0600804 -0.0571101 7.60037e-20)
(-0.0641102 -0.0842736 5.39434e-19)
(-0.0671914 -0.112549 -1.22014e-19)
(-0.0692848 -0.14165 -1.46277e-19)
(-0.0703676 -0.171313 5.5087e-19)
(-0.0704297 -0.201262 1.82109e-19)
(-0.0694691 -0.231192 8.5952e-20)
(-0.0674879 -0.260765 8.95632e-20)
(-0.064491 -0.289616 2.39716e-19)
(-0.0604877 -0.317357 -8.98544e-20)
(-0.0554951 -0.343589 2.43748e-19)
(-0.0495446 -0.367914 3.24264e-19)
(-0.0426937 -0.389954 -2.7126e-19)
(-0.035043 -0.409377 3.99803e-19)
(-0.0267208 -0.425922 1.39548e-19)
(-0.0177947 -0.439406 -5.27561e-19)
(-0.00839325 -0.449806 7.56394e-19)
(0.000386113 -0.457627 -6.06877e-19)
(-0.00879987 0.0215002 -3.63871e-19)
(-0.0201134 0.0416497 1.96002e-19)
(-0.0291327 0.0456513 -1.32588e-19)
(-0.0363347 0.0387767 -1.24686e-19)
(-0.0421475 0.024598 -1.37909e-19)
(-0.0468611 0.00551829 -1.49143e-19)
(-0.0505784 -0.0168829 3.97265e-20)
(-0.0533123 -0.0416054 3.92204e-19)
(-0.0550446 -0.0680223 -8.20254e-20)
(-0.0557521 -0.0957227 -2.19809e-19)
(-0.0554193 -0.124403 -1.36276e-19)
(-0.0540427 -0.1538 -5.48315e-20)
(-0.0516284 -0.183647 1.69204e-19)
(-0.0481888 -0.213662 -1.05557e-19)
(-0.0437392 -0.243531 -3.4386e-19)
(-0.0382962 -0.272914 -3.79066e-19)
(-0.031879 -0.301443 1.51857e-19)
(-0.0245124 -0.328725 -2.77684e-19)
(-0.0162328 -0.35435 2.41141e-19)
(-0.00710164 -0.377903 -6.75233e-19)
(0.00277472 -0.398982 5.11599e-19)
(0.0132553 -0.417219 -6.67445e-19)
(0.0242537 -0.432283 -8.52108e-21)
(0.0356072 -0.443971 -2.12716e-19)
(0.0460519 -0.452669 6.32936e-19)
(-0.00981703 0.0226576 5.61713e-19)
(-0.0219745 0.0453311 8.3425e-20)
(-0.0306032 0.0518441 -5.53687e-20)
(-0.0366593 0.0472288 -2.23617e-20)
(-0.0408216 0.0349786 4.30047e-19)
(-0.0435256 0.0175031 1.42032e-19)
(-0.0449778 -0.00357758 1.30401e-19)
(-0.0452629 -0.0272121 -1.03511e-19)
(-0.0444113 -0.0527267 4.02869e-19)
(-0.042434 -0.0796763 -1.96722e-19)
(-0.0393411 -0.107739 1.26724e-19)
(-0.0351492 -0.136647 3.29865e-19)
(-0.0298826 -0.166144 -1.85139e-19)
(-0.0235706 -0.195968 2.04313e-19)
(-0.0162458 -0.225831 1.9319e-19)
(-0.00794216 -0.255422 6.50917e-20)
(0.00130422 -0.284401 -1.58162e-19)
(0.0114525 -0.312395 4.42803e-19)
(0.022452 -0.339001 -3.94922e-20)
(0.0342289 -0.363788 -4.16309e-20)
(0.0466634 -0.386303 5.14424e-19)
(0.0595945 -0.406086 -3.56611e-19)
(0.0729145 -0.42265 5.97175e-19)
(0.0864356 -0.435581 -4.82009e-19)
(0.0986822 -0.445101 6.21173e-19)
(-0.0107034 0.0233047 -2.75887e-19)
(-0.0235739 0.0478858 6.27836e-20)
(-0.031716 0.0565814 -6.52208e-20)
(-0.0365249 0.0540746 -3.01321e-19)
(-0.0389128 0.0437141 1.73275e-20)
(-0.0394542 0.0278738 1.75412e-19)
(-0.0384587 0.0081882 -7.10135e-19)
(-0.0360843 -0.0142551 5.34026e-19)
(-0.0324121 -0.0387424 -5.20827e-19)
(-0.027489 -0.0647963 -3.29074e-19)
(-0.0213517 -0.0920744 2.99079e-19)
(-0.0140383 -0.120302 -6.49786e-19)
(-0.00559221 -0.149231 5.49636e-19)
(0.00393791 -0.178611 -1.73589e-19)
(0.0144995 -0.208181 -4.97573e-19)
(0.0260368 -0.237658 1.2195e-19)
(0.0384907 -0.266732 -1.1349e-19)
(0.0517969 -0.295061 4.09937e-20)
(0.0658816 -0.322264 -1.53078e-19)
(0.0806497 -0.347914 -5.01063e-19)
(0.0959597 -0.371537 1.12705e-19)
(0.111622 -0.392604 2.61156e-21)
(0.127504 -0.41049 -4.91626e-19)
(0.143404 -0.424543 3.46295e-19)
(0.157601 -0.434787 -2.89728e-19)
(-0.0114234 0.0234521 1.12834e-19)
(-0.0248442 0.0492991 2.09424e-19)
(-0.032414 0.0597989 2.91222e-19)
(-0.0359058 0.0591962 1.51529e-19)
(-0.0364374 0.0506363 -1.47955e-19)
(-0.0347112 0.0364175 3.5472e-19)
(-0.0311361 0.0181616 2.64631e-19)
(-0.0259434 -0.00302413 -9.37337e-20)
(-0.0192664 -0.0263952 3.47116e-19)
(-0.0111893 -0.0514446 -3.57382e-19)
(-0.00177685 -0.0778094 -1.04476e-19)
(0.00891015 -0.105205 1.06751e-19)
(0.020808 -0.133383 2.16258e-19)
(0.0338474 -0.162106 1.81066e-21)
(0.0479536 -0.191129 1.37588e-19)
(0.063046 -0.220193 2.50073e-19)
(0.0790379 -0.24902 -4.24774e-19)
(0.0958351 -0.277298 5.26143e-19)
(0.113333 -0.304678 1.75959e-19)
(0.131408 -0.330758 5.80816e-20)
(0.149888 -0.355069 -6.20434e-19)
(0.168547 -0.377051 9.01667e-20)
(0.187221 -0.395968 1.32671e-19)
(0.205708 -0.410933 -2.76859e-20)
(0.222026 -0.421745 1.41964e-19)
(-0.0119517 0.0231331 1.05872e-20)
(-0.0257338 0.0496044 -5.4072e-19)
(-0.0326543 0.0614918 -1.14804e-20)
(-0.0347858 0.0625381 -1.36273e-19)
(-0.0334165 0.0556382 -9.01604e-19)
(-0.0293609 0.0429789 7.82385e-19)
(-0.0231209 0.0261434 -5.58804e-19)
(-0.0149991 0.00624091 -2.65983e-20)
(-0.00518157 -0.0159633 -2.67902e-19)
(0.00620859 -0.039938 4.66215e-19)
(0.0190772 -0.0652998 -5.04062e-19)
(0.0333396 -0.091752 -2.37456e-19)
(0.0489105 -0.119042 6.80113e-21)
(0.0656987 -0.146936 -5.17732e-19)
(0.0836052 -0.175202 7.06395e-19)
(0.102522 -0.203597 -8.16704e-19)
(0.122331 -0.231867 2.17658e-21)
(0.142904 -0.25973 1.25477e-19)
(0.164099 -0.28687 -3.06499e-19)
(0.185754 -0.31292 2.91877e-19)
(0.207662 -0.337439 -4.16055e-19)
(0.229556 -0.359874 -2.66571e-19)
(0.251229 -0.379428 4.88297e-19)
(0.272496 -0.394998 -5.23718e-19)
(0.29112 -0.406151 -8.66107e-21)
(-0.0122745 0.0224001 -4.62171e-19)
(-0.0262095 0.0488781 5.28413e-19)
(-0.0324077 0.0617121 -1.62062e-19)
(-0.0331548 0.064108 3.14401e-19)
(-0.0298683 0.0586775 3.39683e-19)
(-0.0234557 0.0474672 -2.99981e-19)
(-0.0145022 0.0319978 -2.0319e-19)
(-0.00337871 0.0133632 -2.42813e-19)
(0.00967667 -0.00766204 2.22078e-19)
(0.024501 -0.0305284 -1.38019e-20)
(0.0409693 -0.0548344 3.28063e-19)
(0.0589713 -0.0802694 3.2508e-19)
(0.0783984 -0.106574 -3.90351e-19)
(0.0991356 -0.133511 7.69028e-19)
(0.121057 -0.160854 -5.09807e-19)
(0.144025 -0.188371 -8.82844e-20)
(0.167886 -0.21582 9.90027e-19)
(0.192471 -0.242944 -4.57778e-19)
(0.217597 -0.269455 2.86468e-19)
(0.243058 -0.295024 5.53435e-19)
(0.268606 -0.319255 -3.58016e-19)
(0.293923 -0.34163 3.86665e-20)
(0.318758 -0.361343 -2.16634e-20)
(0.342952 -0.377123 -1.34367e-19)
(0.364057 -0.388314 2.54123e-19)
(-0.0123897 0.0213195 1.06755e-19)
(-0.0262566 0.0472331 -3.3885e-19)
(-0.0316586 0.0605633 1.8589e-19)
(-0.0310052 0.0639743 -1.74139e-21)
(-0.0258004 0.0597785 1.39599e-19)
(-0.017023 0.0498609 -2.41816e-19)
(-0.00533005 0.0356601 1.38389e-19)
(0.00884498 0.0182389 3.78907e-19)
(0.0252134 -0.00163062 -1.20926e-20)
(0.0435724 -0.0233877 -1.97343e-19)
(0.0637645 -0.046616 1.99777e-19)
(0.0856519 -0.0709912 -3.73561e-21)
(0.1091 -0.0962432 -6.34779e-19)
(0.133967 -0.12213 2.358e-19)
(0.160096 -0.148422 5.25238e-20)
(0.187314 -0.17489 -9.19607e-20)
(0.215427 -0.2013 -1.61322e-19)
(0.244223 -0.227406 6.22096e-19)
(0.273466 -0.252944 1.48819e-19)
(0.302902 -0.277618 -3.19363e-19)
(0.332234 -0.301079 -3.6263e-20)
(0.361095 -0.322869 4.21899e-19)
(0.38918 -0.34222 -1.97868e-19)
(0.416367 -0.35775 7.98308e-20)
(0.440072 -0.368604 5.39264e-20)
(-0.0123062 0.0199665 -2.14596e-19)
(-0.0258775 0.0448079 2.11577e-19)
(-0.0304016 0.0581904 -1.19636e-19)
(-0.0283273 0.0622601 -3.84734e-19)
(-0.0212022 0.0590287 -3.54621e-19)
(-0.0100546 0.0502082 -1.59527e-19)
(0.00440018 0.0371405 -1.31554e-19)
(0.0216732 0.0208436 -3.91365e-19)
(0.0414284 0.00207658 -1.5879e-19)
(0.0634229 -0.0185964 1.44864e-19)
(0.0874657 -0.0407482 -2.08101e-19)
(0.113388 -0.0640418 -2.2118e-19)
(0.141026 -0.0881957 -2.08505e-19)
(0.170204 -0.112959 3.79949e-19)
(0.200729 -0.138095 -7.97791e-19)
(0.232385 -0.163371 4.54327e-19)
(0.264931 -0.188553 -7.75802e-19)
(0.298098 -0.213402 -1.18303e-19)
(0.331595 -0.237667 -4.18515e-19)
(0.365109 -0.261078 -9.50412e-20)
(0.39829 -0.28333 -1.1695e-19)
(0.430719 -0.304033 -3.80726e-19)
(0.462033 -0.322497 -3.64304e-20)
(0.492155 -0.337286 2.21317e-19)
(0.518475 -0.347378 -5.54474e-19)
(-0.012042 0.018419 1.8523e-19)
(-0.0250885 0.0417566 2.4168e-19)
(-0.0286378 0.0547696 8.4348e-19)
(-0.0251032 0.0591332 -1.48881e-19)
(-0.0160377 0.0565726 3.53214e-19)
(-0.00249686 0.048624 8.45417e-19)
(0.0147597 0.0365241 -2.30709e-19)
(0.0351961 0.0212357 3.14046e-19)
(0.0584325 0.00349518 1.84143e-19)
(0.0841868 -0.0161368 3.35572e-19)
(0.112232 -0.0372266 -6.80003e-20)
(0.142365 -0.0594269 4.55054e-20)
(0.174383 -0.0824444 -1.20247e-19)
(0.20807 -0.106017 6.45606e-19)
(0.243188 -0.129899 8.28035e-20)
(0.279467 -0.153851 5.98235e-19)
(0.316603 -0.177635 -1.51776e-19)
(0.354266 -0.201011 5.41317e-19)
(0.392094 -0.223736 7.33485e-20)
(0.429708 -0.24556 2.6746e-19)
(0.4667 -0.266214 -1.12051e-19)
(0.502598 -0.285378 -1.32854e-20)
(0.536978 -0.30246 6.08005e-19)
(0.569811 -0.31603 3.57735e-19)
(0.598598 -0.324912 -1.46011e-19)
(-0.0116215 0.0167524 -4.49269e-19)
(-0.0239153 0.0382378 -4.53747e-19)
(-0.0263692 0.050495 -4.73924e-19)
(-0.0213021 0.0547949 1.73764e-19)
(-0.0102392 0.0526022 -3.4985e-19)
(0.00575603 0.0452835 -5.23215e-20)
(0.0258938 0.0339673 -1.381e-19)
(0.0496 0.0195546 -5.77186e-19)
(0.0764548 0.00275174 -9.16444e-20)
(0.106137 -0.0158903 1.49371e-19)
(0.138379 -0.0359361 -4.71352e-19)
(0.172936 -0.0570301 6.54389e-19)
(0.209559 -0.0788685 -8.91017e-19)
(0.247979 -0.101178 2.1479e-19)
(0.287894 -0.123703 -5.45837e-19)
(0.328967 -0.146195 -4.41605e-19)
(0.370821 -0.16841 -2.44834e-20)
(0.413043 -0.190108 -6.45237e-20)
(0.455197 -0.211051 5.32097e-20)
(0.496825 -0.231003 -2.42699e-19)
(0.537457 -0.249726 -1.64938e-19)
(0.576573 -0.266961 1.98098e-19)
(0.61369 -0.282232 -5.41754e-19)
(0.648815 -0.294156 1.73074e-19)
(0.679715 -0.301398 1.09571e-19)
(-0.0110722 0.0150349 -7.97207e-20)
(-0.0223869 0.0344035 -1.32054e-19)
(-0.0235932 0.0455661 5.1264e-19)
(-0.0168741 0.0494669 1.90806e-19)
(-0.00370289 0.0473457 2.53276e-19)
(0.0148655 0.0404125 -3.38689e-19)
(0.0380238 0.0296905 2.7376e-22)
(0.065167 0.0160159 -2.76961e-19)
(0.0958383 6.03224e-05 5.12158e-19)
(0.129675 -0.0176403 1.68602e-19)
(0.166363 -0.0366526 1.90944e-19)
(0.205603 -0.0566161 -7.54379e-19)
(0.247086 -0.0772182 9.33478e-19)
(0.290471 -0.0981763 -2.7981e-19)
(0.335378 -0.119225 -1.99673e-19)
(0.381381 -0.140109 5.98232e-19)
(0.428012 -0.160581 2.64446e-19)
(0.474766 -0.180401 -6.67034e-19)
(0.521116 -0.199337 -2.71644e-19)
(0.566527 -0.217169 8.21416e-19)
(0.610466 -0.233687 -6.14631e-19)
(0.652372 -0.248686 3.67242e-19)
(0.691716 -0.261805 1.95994e-19)
(0.728526 -0.271749 -2.51662e-19)
(0.760978 -0.276957 -2.24186e-19)
(-0.0104208 0.0133232 -2.93834e-19)
(-0.0205289 0.0303909 4.56137e-19)
(-0.0202952 0.0401759 1.9386e-19)
(-0.0117459 0.0433785 -2.79773e-19)
(0.00371334 0.0410541 -4.45083e-20)
(0.0250479 0.0342754 -2.93985e-19)
(0.0514421 0.0239675 -1.17561e-19)
(0.0822653 0.0109024 1.32942e-19)
(0.117023 -0.00428573 -3.25958e-20)
(0.155305 -0.0210795 2.52849e-19)
(0.196739 -0.0390516 -2.20066e-19)
(0.240957 -0.0578402 6.10271e-19)
(0.287567 -0.0771274 -7.57772e-19)
(0.336137 -0.0966243 4.72967e-19)
(0.386184 -0.11606 5.86202e-19)
(0.437175 -0.135177 -8.44043e-19)
(0.488532 -0.153728 -2.53014e-19)
(0.539647 -0.171479 4.27142e-19)
(0.589899 -0.188208 -2.59529e-19)
(0.638675 -0.203712 2.4545e-19)
(0.685385 -0.217809 -5.89711e-19)
(0.729442 -0.230345 1.00561e-19)
(0.770297 -0.241073 3.68637e-19)
(0.808012 -0.248775 -5.80824e-19)
(0.841263 -0.251572 1.58837e-19)
(-0.00968986 0.0116606 -2.71434e-19)
(-0.018357 0.0263154 8.50192e-19)
(-0.0164436 0.0345009 1.62674e-19)
(-0.00581735 0.0367537 -4.40158e-19)
(0.0121897 0.0339881 3.15569e-19)
(0.0365687 0.0271617 1.61179e-19)
(0.0665004 0.0171119 2.5785e-19)
(0.101329 0.00455042 -1.56081e-20)
(0.140517 -0.00992689 -2.64886e-20)
(0.183594 -0.0258239 -5.71128e-20)
(0.230113 -0.0427233 -2.49085e-19)
(0.279614 -0.0602663 -8.76535e-21)
(0.331599 -0.0781351 5.8141e-19)
(0.385515 -0.0960405 -9.52614e-19)
(0.440755 -0.113713 6.77332e-19)
(0.496659 -0.1309 1.37875e-19)
(0.55253 -0.147363 2.4177e-19)
(0.607652 -0.162877 -1.19035e-19)
(0.661315 -0.17724 1.07021e-18)
(0.712839 -0.190265 -6.539e-19)
(0.761591 -0.201795 5.14162e-19)
(0.806961 -0.211718 1.16189e-19)
(0.848406 -0.219856 -3.62663e-19)
(0.886023 -0.224994 3.0342e-19)
(0.918885 -0.225052 4.42012e-19)
(-0.00889431 0.0100758 -7.85909e-20)
(-0.0158714 0.0222664 -2.99592e-19)
(-0.011985 0.0286931 -5.10991e-19)
(0.00103988 0.0298015 -2.90886e-19)
(0.0219402 0.0264055 -4.04731e-20)
(0.0497321 0.0193715 -1.14757e-19)
(0.0835908 0.00946208 -5.35887e-19)
(0.122829 -0.00266629 8.89326e-20)
(0.166853 -0.0164552 -6.06325e-19)
(0.215116 -0.0314321 -4.76429e-20)
(0.267069 -0.0471943 -5.83971e-19)
(0.32213 -0.0633922 -2.07819e-19)
(0.379667 -0.0797155 1.19386e-19)
(0.43898 -0.0958839 -5.66543e-19)
(0.499314 -0.11164 5.45928e-21)
(0.559871 -0.126746 -4.83772e-19)
(0.619831 -0.140984 1.85495e-19)
(0.678383 -0.154153 -6.62786e-19)
(0.734756 -0.166072 -1.10246e-19)
(0.788242 -0.176577 -1.10419e-20)
(0.83821 -0.185528 -1.06143e-19)
(0.884081 -0.192822 -1.07399e-19)
(0.92536 -0.198225 -5.36638e-20)
(0.962005 -0.200483 -2.0519e-19)
(0.992425 -0.198392 -4.20749e-19)
(-0.00803902 0.00858263 1.44623e-19)
(-0.0130526 0.0183059 3.79079e-19)
(-0.00684147 0.0228763 4.54734e-19)
(0.00898045 0.0227076 -3.63042e-19)
(0.0332054 0.0185502 6.75173e-19)
(0.0648657 0.0112022 -3.6643e-19)
(0.103121 0.00136464 1.99526e-19)
(0.147238 -0.0103552 3.12893e-19)
(0.196546 -0.0234353 2.85195e-19)
(0.250392 -0.0374296 1.39372e-19)
(0.308095 -0.0519555 2.24719e-19)
(0.368919 -0.0666808 1.3141e-19)
(0.432062 -0.0813131 8.83446e-19)
(0.496655 -0.0955927 -6.39001e-19)
(0.561777 -0.109288 7.28405e-19)
(0.626487 -0.122191 -2.98095e-19)
(0.689854 -0.13412 6.41802e-19)
(0.750998 -0.144913 -3.15262e-20)
(0.809124 -0.154431 -1.31137e-19)
(0.863557 -0.162548 -1.83018e-20)
(0.91376 -0.169153 4.68904e-19)
(0.959356 -0.174122 -4.36639e-19)
(1.00023 -0.177087 3.12485e-19)
(1.03643 -0.177219 3.21637e-19)
(1.06348 -0.177078 5.71496e-20)
(-0.00711719 0.00718211 9.993e-20)
(-0.00985908 0.0144698 -5.40469e-19)
(-0.000910886 0.0171441 -1.96167e-19)
(0.0181809 0.0156297 1.80006e-19)
(0.0462414 0.0106438 -5.52163e-19)
(0.0823012 0.00293662 -1.08744e-19)
(0.125485 -0.00684032 7.58707e-20)
(0.174989 -0.0181234 3.01448e-19)
(0.230037 -0.0304267 -7.6139e-19)
(0.289831 -0.0433348 5.83603e-20)
(0.353521 -0.0564923 -2.23387e-19)
(0.420181 -0.0695949 -6.78548e-19)
(0.488811 -0.0823806 4.60842e-19)
(0.55835 -0.0946247 2.11309e-20)
(0.627709 -0.106136 -1.50587e-20)
(0.695812 -0.116753 4.57885e-19)
(0.76164 -0.126343 -7.98561e-19)
(0.824274 -0.134802 6.25049e-19)
(0.882936 -0.142047 -1.1867e-19)
(0.937015 -0.148022 3.39324e-19)
(0.98609 -0.15269 -5.63648e-19)
(1.02994 -0.156024 3.07396e-19)
(1.06862 -0.15789 -5.29639e-19)
(1.10234 -0.158113 5.17772e-19)
(1.12758 -0.159332 -1.75462e-19)
(-0.00610989 0.00586463 6.65794e-19)
(-0.00622716 0.0107714 -1.07531e-19)
(0.0059306 0.011562 7.9728e-19)
(0.0288329 0.00869687 3.69403e-19)
(0.0613064 0.00288152 3.03729e-20)
(0.102354 -0.00516528 1.61366e-19)
(0.151036 -0.0148318 3.91849e-20)
(0.206442 -0.0255944 6.60397e-19)
(0.267649 -0.037005 2.13478e-19)
(0.333676 -0.0486843 -2.87297e-20)
(0.403461 -0.0603145 5.77973e-20)
(0.475854 -0.0716312 2.20952e-19)
(0.549635 -0.0824173 1.83484e-19)
(0.623546 -0.092498 3.89911e-19)
(0.69634 -0.101736 -4.45365e-19)
(0.766834 -0.110029 1.31332e-19)
(0.833957 -0.117305 4.3564e-20)
(0.896803 -0.123519 1.91328e-19)
(0.954657 -0.128651 4.98815e-19)
(1.00702 -0.132703 -3.33024e-19)
(1.05361 -0.135697 2.05065e-20)
(1.09435 -0.137672 -4.24523e-19)
(1.12942 -0.13862 3.8506e-19)
(1.15906 -0.138529 -3.48711e-19)
(1.18072 -0.139395 4.89039e-20)
(-0.00498703 0.00461347 -5.54307e-19)
(-0.00207352 0.00720735 4.23388e-19)
(0.0138237 0.00617258 -6.88047e-19)
(0.0411341 0.00201151 5.9179e-20)
(0.0786475 -0.00456937 4.84714e-19)
(0.125303 -0.0128715 -8.07801e-19)
(0.180056 -0.0223168 6.42326e-19)
(0.241846 -0.0324212 -1.02013e-18)
(0.309555 -0.0427786 2.03078e-19)
(0.381973 -0.0530551 4.36997e-20)
(0.457786 -0.0629821 3.42757e-19)
(0.535597 -0.07235 -1.13893e-18)
(0.613957 -0.0810013 1.97392e-19)
(0.691422 -0.0888251 2.06702e-19)
(0.766619 -0.0957507 -1.22116e-19)
(0.838303 -0.101741 -7.47517e-19)
(0.905415 -0.106789 3.54512e-19)
(0.96712 -0.110908 6.38892e-19)
(1.02283 -0.114132 -6.58231e-19)
(1.0722 -0.116506 4.6801e-19)
(1.11514 -0.118092 -5.81229e-19)
(1.15175 -0.11896 4.15905e-19)
(1.18235 -0.119141 -1.0359e-19)
(1.20731 -0.118647 5.89221e-19)
(1.2249 -0.119035 -6.44511e-19)
(-0.00370906 0.00340845 7.86123e-20)
(0.00270086 0.00376411 6.24192e-20)
(0.0229197 0.00100173 1.51387e-19)
(0.0552789 -0.00434531 5.43254e-19)
(0.0984868 -0.0115664 -1.74595e-20)
(0.151373 -0.0199777 1.21108e-19)
(0.212739 -0.029034 5.42459e-19)
(0.28132 -0.0382937 2.19242e-19)
(0.355752 -0.047401 -7.26309e-20)
(0.43455 -0.0560792 6.15517e-19)
(0.516119 -0.0641238 -6.9996e-19)
(0.598801 -0.0713952 1.0721e-18)
(0.680931 -0.0778103 -4.24084e-19)
(0.760914 -0.0833337 7.61713e-19)
(0.837301 -0.0879683 -2.57203e-19)
(0.908855 -0.091746 9.25264e-20)
(0.974598 -0.0947189 1.10958e-19)
(1.03384 -0.0969518 -2.03576e-19)
(1.08618 -0.0985159 1.72908e-19)
(1.13149 -0.0994848 1.09125e-19)
(1.16988 -0.099933 1.43443e-19)
(1.20167 -0.0999331 2.86176e-19)
(1.22734 -0.0995155 -3.23737e-20)
(1.2474 -0.0986961 -1.27606e-19)
(1.26083 -0.0987002 3.3936e-19)
(-0.00222957 0.00222954 -4.59509e-19)
(0.00820546 0.000425419 4.84253e-20)
(0.0333729 -0.00393264 -8.72496e-19)
(0.0714492 -0.010306 -2.08024e-19)
(0.12101 -0.0179857 -3.91137e-19)
(0.180723 -0.026304 -8.3476e-20)
(0.249175 -0.0347524 -4.19713e-19)
(0.324842 -0.0429407 -2.51726e-19)
(0.406059 -0.0505754 3.32352e-19)
(0.491027 -0.057452 -5.55251e-19)
(0.577856 -0.0634467 -1.5426e-19)
(0.664632 -0.0685052 5.58423e-21)
(0.74951 -0.0726311 -1.03027e-18)
(0.8308 -0.0758721 4.35249e-19)
(0.907054 -0.0783066 -6.27618e-19)
(0.977121 -0.0800307 -1.79103e-20)
(1.04019 -0.081147 1.16495e-19)
(1.09577 -0.0817561 -1.94482e-19)
(1.14372 -0.0819503 -1.67106e-19)
(1.18415 -0.0818107 7.61343e-20)
(1.21742 -0.0814064 8.15904e-20)
(1.24404 -0.0807933 -5.34304e-19)
(1.26466 -0.0799821 3.01477e-19)
(1.27993 -0.0789832 1.3743e-19)
(1.28934 -0.0787973 2.35843e-20)
(-0.000498075 0.00106012 4.68058e-19)
(0.0145544 -0.00282081 -4.98107e-19)
(0.0453334 -0.00861207 7.00325e-19)
(0.0898056 -0.0158074 1.10473e-19)
(0.146359 -0.0237139 -3.35865e-20)
(0.213435 -0.0316877 -2.3527e-19)
(0.289347 -0.0392677 3.55883e-20)
(0.372246 -0.0461286 3.59884e-19)
(0.460121 -0.0520556 -4.9675e-19)
(0.550836 -0.0569348 5.21752e-19)
(0.642203 -0.0607394 -5.52532e-20)
(0.732089 -0.0635146 2.7023e-20)
(0.818524 -0.0653586 6.68804e-19)
(0.899805 -0.066404 8.84694e-19)
(0.974571 -0.0667997 -3.4709e-19)
(1.04185 -0.0666948 5.96814e-19)
(1.10106 -0.0662272 2.90849e-19)
(1.152 -0.0655151 -1.82651e-19)
(1.1948 -0.0646531 5.49086e-19)
(1.22983 -0.0637118 -3.08168e-20)
(1.25769 -0.0627398 -5.04993e-19)
(1.27909 -0.061765 5.14311e-19)
(1.29482 -0.0607702 6.36254e-20)
(1.30563 -0.0597591 -2.97189e-19)
(1.31136 -0.0595632 9.4315e-20)
(0.00153711 -0.000110543 -6.48035e-19)
(0.0218609 -0.00597658 6.78286e-19)
(0.0589405 -0.0130095 -4.29878e-19)
(0.110481 -0.0207821 -1.33083e-19)
(0.174621 -0.0286393 -3.01531e-19)
(0.249513 -0.0359763 5.34194e-19)
(0.333126 -0.042396 -3.09711e-19)
(0.42323 -0.0476571 -1.42071e-19)
(0.517434 -0.0516443 -4.0574e-19)
(0.613253 -0.0543532 1.10844e-20)
(0.708231 -0.0558704 -1.59044e-19)
(0.800072 -0.0563498 7.52088e-20)
(0.886766 -0.0559867 -8.00162e-19)
(0.966691 -0.054993 2.28247e-19)
(1.03867 -0.0535758 -2.69003e-19)
(1.10199 -0.0519204 -2.10542e-19)
(1.15638 -0.05018 6.33354e-20)
(1.20194 -0.0484705 -2.97122e-19)
(1.23911 -0.0468706 -1.18327e-19)
(1.26852 -0.0454252 3.54308e-19)
(1.29097 -0.0441514 1.39779e-19)
(1.30735 -0.0430425 -5.99304e-19)
(1.31854 -0.0420508 4.26646e-19)
(1.32536 -0.0411716 -7.92932e-20)
(1.32788 -0.0411084 -1.55458e-19)
(0.00392646 -0.00128557 -2.33794e-19)
(0.0302318 -0.00902935 -1.25033e-19)
(0.0743163 -0.0170829 -2.42464e-20)
(0.133574 -0.0251509 1.85648e-19)
(0.205831 -0.0326447 2.01134e-19)
(0.28888 -0.0390205 1.74549e-19)
(0.380279 -0.0439687 2.18439e-19)
(0.477372 -0.0473562 3.3285e-19)
(0.577363 -0.0491902 5.0899e-19)
(0.67744 -0.0495951 5.01369e-19)
(0.774929 -0.048783 2.63543e-19)
(0.867456 -0.0470203 -7.16294e-20)
(0.953072 -0.0445942 1.74529e-20)
(1.03034 -0.0417826 -1.87926e-20)
(1.09836 -0.0388316 2.04173e-19)
(1.15676 -0.0359411 -4.75713e-20)
(1.2056 -0.0332575 5.72199e-19)
(1.24534 -0.0308751 -2.60359e-19)
(1.27667 -0.0288406 9.85773e-22)
(1.3005 -0.0271619 1.63367e-19)
(1.31778 -0.0258182 -3.62852e-19)
(1.32951 -0.0247664 5.79173e-19)
(1.33665 -0.023929 -4.6243e-19)