/*--------------------------------*- C++ -*----------------------------------*\
  =========                 |
  \\      /  F ield         | OpenFOAM: The Open Source CFD Toolbox
   \\    /   O peration     | Website:  https://openfoam.org
    \\  /    A nd           | Version:  6.0
     \\/     M anipulation  |
\*---------------------------------------------------------------------------*/
FoamFile
{
    version     2.0;
    format      ascii;
    class       volScalarField;
    location    "16";
    object      p;
}
// * * * * * * * * * * * * * * * * * * * * * * * * * * * * * * * * * * * * * //

dimensions      [0 2 -2 0 0 0 0];

internalField   nonuniform List<scalar> 
12500
(
-0.274906
-0.275881
-0.276545
-0.277046
-0.277477
-0.27785
-0.278178
-0.278474
-0.278748
-0.279006
-0.279253
-0.279494
-0.279732
-0.279969
-0.280209
-0.280455
-0.280709
-0.280974
-0.281253
-0.281549
-0.281872
-0.28222
-0.282544
-0.28282
-0.283575
-0.275006
-0.275975
-0.276634
-0.277132
-0.277559
-0.277929
-0.278253
-0.278545
-0.278816
-0.27907
-0.279313
-0.27955
-0.279784
-0.280017
-0.280253
-0.280494
-0.280743
-0.281003
-0.281277
-0.281569
-0.281887
-0.282231
-0.282551
-0.282822
-0.283574
-0.275202
-0.276159
-0.276809
-0.2773
-0.27772
-0.278082
-0.278399
-0.278685
-0.278947
-0.279194
-0.279429
-0.279658
-0.279883
-0.280107
-0.280334
-0.280565
-0.280805
-0.281055
-0.281319
-0.281601
-0.281909
-0.282245
-0.282557
-0.282818
-0.283565
-0.275493
-0.276432
-0.27707
-0.277549
-0.277958
-0.27831
-0.278616
-0.27889
-0.279141
-0.279375
-0.279599
-0.279814
-0.280026
-0.280237
-0.280449
-0.280665
-0.280889
-0.281124
-0.281373
-0.28164
-0.281934
-0.282257
-0.282556
-0.282801
-0.28354
-0.275876
-0.276792
-0.277413
-0.277878
-0.278273
-0.278609
-0.2789
-0.279159
-0.279394
-0.279612
-0.279818
-0.280016
-0.28021
-0.280401
-0.280593
-0.280789
-0.280993
-0.281206
-0.281434
-0.28168
-0.281953
-0.282257
-0.282539
-0.282764
-0.283492
-0.276347
-0.277236
-0.277837
-0.278284
-0.278661
-0.278979
-0.279251
-0.279489
-0.279704
-0.279901
-0.280085
-0.28026
-0.28043
-0.280596
-0.280762
-0.280931
-0.281107
-0.281293
-0.281493
-0.281711
-0.281958
-0.282238
-0.282497
-0.282696
-0.283409
-0.276904
-0.277762
-0.27834
-0.278765
-0.27912
-0.279415
-0.279664
-0.279879
-0.280068
-0.280239
-0.280395
-0.280542
-0.280681
-0.280816
-0.28095
-0.281085
-0.281226
-0.281377
-0.281541
-0.281725
-0.281939
-0.282188
-0.282417
-0.282585
-0.28328
-0.277542
-0.278367
-0.278919
-0.27932
-0.279649
-0.279918
-0.280138
-0.280324
-0.280483
-0.280622
-0.280745
-0.280857
-0.28096
-0.281057
-0.281151
-0.281245
-0.281343
-0.281451
-0.281571
-0.281712
-0.281885
-0.282095
-0.282289
-0.282419
-0.283093
-0.278259
-0.279049
-0.279572
-0.279945
-0.280245
-0.280483
-0.280671
-0.280823
-0.280946
-0.281048
-0.281132
-0.281203
-0.281263
-0.281314
-0.281361
-0.281405
-0.281453
-0.281508
-0.281576
-0.281664
-0.281786
-0.281949
-0.282099
-0.282185
-0.282835
-0.279052
-0.279805
-0.280297
-0.280639
-0.280906
-0.281109
-0.281261
-0.281373
-0.281456
-0.281515
-0.281554
-0.281578
-0.281587
-0.281586
-0.281577
-0.281564
-0.281551
-0.281543
-0.281548
-0.281573
-0.281634
-0.28174
-0.281838
-0.281871
-0.282494
-0.279918
-0.280634
-0.281092
-0.281402
-0.281632
-0.281795
-0.281906
-0.281975
-0.282011
-0.282022
-0.282011
-0.28198
-0.281934
-0.281872
-0.2818
-0.28172
-0.281636
-0.281556
-0.281486
-0.281436
-0.281424
-0.281461
-0.281494
-0.281466
-0.282058
-0.280857
-0.281535
-0.281959
-0.282231
-0.282421
-0.282541
-0.282605
-0.282626
-0.282612
-0.282569
-0.282502
-0.282412
-0.282303
-0.282175
-0.282031
-0.281875
-0.281712
-0.281548
-0.281391
-0.281252
-0.281152
-0.281106
-0.281061
-0.28096
-0.281516
-0.281871
-0.28251
-0.282896
-0.283128
-0.283273
-0.283346
-0.283359
-0.283327
-0.283258
-0.283158
-0.28303
-0.282876
-0.282699
-0.282498
-0.282277
-0.282037
-0.281784
-0.281525
-0.281267
-0.281026
-0.280821
-0.280674
-0.280533
-0.280342
-0.280855
-0.28296
-0.283559
-0.283905
-0.284093
-0.28419
-0.28421
-0.284169
-0.28408
-0.283951
-0.283789
-0.283597
-0.283376
-0.283127
-0.282849
-0.282545
-0.282215
-0.281864
-0.281498
-0.281127
-0.280765
-0.280437
-0.280167
-0.279907
-0.279604
-0.280062
-0.284128
-0.284685
-0.284987
-0.285127
-0.285171
-0.285135
-0.285035
-0.284884
-0.284693
-0.284466
-0.284207
-0.283916
-0.283593
-0.283236
-0.282844
-0.282419
-0.281963
-0.281482
-0.280984
-0.280485
-0.280012
-0.279594
-0.279184
-0.278736
-0.27912
-0.285379
-0.285891
-0.286146
-0.286234
-0.28622
-0.286122
-0.285958
-0.285742
-0.285485
-0.285191
-0.284863
-0.284501
-0.284102
-0.283665
-0.283186
-0.282664
-0.282099
-0.281494
-0.280858
-0.280204
-0.279562
-0.278964
-0.278367
-0.277728
-0.278007
-0.286719
-0.287183
-0.287386
-0.287416
-0.287338
-0.287173
-0.28694
-0.286655
-0.286328
-0.285965
-0.285567
-0.285133
-0.28466
-0.284144
-0.283578
-0.282959
-0.282284
-0.281552
-0.280768
-0.279944
-0.279108
-0.278296
-0.277463
-0.276572
-0.276695
-0.288155
-0.288566
-0.288711
-0.288677
-0.288529
-0.28829
-0.287982
-0.287623
-0.287222
-0.286787
-0.286318
-0.285813
-0.285268
-0.284675
-0.284026
-0.283314
-0.28253
-0.28167
-0.280732
-0.279724
-0.278671
-0.277606
-0.276481
-0.275257
-0.27515
-0.289696
-0.290048
-0.290128
-0.290022
-0.289795
-0.289476
-0.289087
-0.288647
-0.288168
-0.287657
-0.287115
-0.286539
-0.285922
-0.285255
-0.284528
-0.283727
-0.28284
-0.281855
-0.280763
-0.279562
-0.27827
-0.276915
-0.275436
-0.273776
-0.273333
-0.291351
-0.291636
-0.291644
-0.291457
-0.291143
-0.290734
-0.290255
-0.289727
-0.289164
-0.288573
-0.287954
-0.287305
-0.286617
-0.285879
-0.285076
-0.284193
-0.283209
-0.282105
-0.280863
-0.279467
-0.277921
-0.276243
-0.274346
-0.272131
-0.271202
-0.293132
-0.293342
-0.293267
-0.292989
-0.292578
-0.292068
-0.29149
-0.290865
-0.29021
-0.289531
-0.288831
-0.288104
-0.287344
-0.286535
-0.285661
-0.284701
-0.283628
-0.282417
-0.281033
-0.279448
-0.277647
-0.275624
-0.273256
-0.270362
-0.268754
-0.295051
-0.295176
-0.295008
-0.294628
-0.294107
-0.293485
-0.292796
-0.292063
-0.291306
-0.290531
-0.289741
-0.288933
-0.288096
-0.287215
-0.286272
-0.285241
-0.284091
-0.282787
-0.281284
-0.279533
-0.277496
-0.27514
-0.272291
-0.268628
-0.266108
-0.297126
-0.297154
-0.29688
-0.296385
-0.295741
-0.294993
-0.294179
-0.293327
-0.292456
-0.291575
-0.290687
-0.289789
-0.28887
-0.287917
-0.286907
-0.285814
-0.284604
-0.283233
-0.281647
-0.279776
-0.277551
-0.274903
-0.271594
-0.267067
-0.263246
-0.299373
-0.299291
-0.298897
-0.298272
-0.29749
-0.296603
-0.295651
-0.294666
-0.293668
-0.29267
-0.291674
-0.290678
-0.289674
-0.288648
-0.287579
-0.286443
-0.285205
-0.283822
-0.282232
-0.280348
-0.27806
-0.275225
-0.271435
-0.26568
-0.259707
-0.301814
-0.301605
-0.301077
-0.300306
-0.299371
-0.298328
-0.297224
-0.296092
-0.294956
-0.293829
-0.292717
-0.291618
-0.290526
-0.289431
-0.288318
-0.287171
-0.285969
-0.284684
-0.283281
-0.281705
-0.279878
-0.277647
-0.274444
-0.268829
-0.262082
-0.304472
-0.304118
-0.303437
-0.302505
-0.3014
-0.300187
-0.298916
-0.297625
-0.296339
-0.295074
-0.293837
-0.29263
-0.29145
-0.290293
-0.289155
-0.288032
-0.28693
-0.285862
-0.284862
-0.284004
-0.283432
-0.283395
-0.284255
-0.287579
-0.299817
-0.307372
-0.306853
-0.306001
-0.30489
-0.303598
-0.302199
-0.300749
-0.299286
-0.297841
-0.296429
-0.295062
-0.293744
-0.292477
-0.291264
-0.29011
-0.289029
-0.288045
-0.287208
-0.286597
-0.286348
-0.286685
-0.287951
-0.290615
-0.295981
-0.308714
-0.310545
-0.309835
-0.308792
-0.307483
-0.305989
-0.30439
-0.302747
-0.301104
-0.29949
-0.297927
-0.296426
-0.294996
-0.293643
-0.292376
-0.29121
-0.290171
-0.2893
-0.288665
-0.288366
-0.288556
-0.289456
-0.291369
-0.294646
-0.299978
-0.310447
-0.314018
-0.313091
-0.311834
-0.31031
-0.308598
-0.306786
-0.30494
-0.303106
-0.301319
-0.299599
-0.297962
-0.296418
-0.294979
-0.293656
-0.292473
-0.291461
-0.29067
-0.290173
-0.290069
-0.290496
-0.291631
-0.293691
-0.296885
-0.301499
-0.30957
-0.317822
-0.316647
-0.315155
-0.313397
-0.311451
-0.309413
-0.307355
-0.305326
-0.303359
-0.30148
-0.299704
-0.298043
-0.296511
-0.295122
-0.293902
-0.292885
-0.292118
-0.291668
-0.291619
-0.292075
-0.293156
-0.29499
-0.29767
-0.301248
-0.307012
-0.321988
-0.320533
-0.318781
-0.316771
-0.314577
-0.312303
-0.310024
-0.307793
-0.305643
-0.3036
-0.30168
-0.299894
-0.298256
-0.296781
-0.295492
-0.294419
-0.293604
-0.293097
-0.29296
-0.293261
-0.294068
-0.295437
-0.29739
-0.299859
-0.303612
-0.326545
-0.324773
-0.322737
-0.320458
-0.318002
-0.315482
-0.312976
-0.310537
-0.3082
-0.305986
-0.303912
-0.301987
-0.300221
-0.298628
-0.297224
-0.296033
-0.295084
-0.294414
-0.294059
-0.294056
-0.294433
-0.295203
-0.296345
-0.297747
-0.299828
-0.331519
-0.329394
-0.32705
-0.324485
-0.321755
-0.31898
-0.31624
-0.313587
-0.311054
-0.308659
-0.306415
-0.304327
-0.302401
-0.300645
-0.299068
-0.297685
-0.296516
-0.295578
-0.294893
-0.294473
-0.294323
-0.294429
-0.294758
-0.29519
-0.295937
-0.336934
-0.334417
-0.331741
-0.328875
-0.325861
-0.322822
-0.319841
-0.316966
-0.314224
-0.311632
-0.309193
-0.306909
-0.304779
-0.302803
-0.300985
-0.299331
-0.297852
-0.296554
-0.295446
-0.294529
-0.293794
-0.293222
-0.292778
-0.292352
-0.292053
-0.342807
-0.339862
-0.336831
-0.333651
-0.330341
-0.32703
-0.323799
-0.32069
-0.317724
-0.314908
-0.31224
-0.309714
-0.307323
-0.305061
-0.302926
-0.30092
-0.299045
-0.297306
-0.295703
-0.294234
-0.292889
-0.29165
-0.290491
-0.289316
-0.288196
-0.349153
-0.345743
-0.342337
-0.338829
-0.335215
-0.331623
-0.32813
-0.324769
-0.321553
-0.318478
-0.315535
-0.31271
-0.309991
-0.307367
-0.304836
-0.302395
-0.300048
-0.297798
-0.295647
-0.293593
-0.291631
-0.289751
-0.287935
-0.286106
-0.284324
-0.355978
-0.352067
-0.348269
-0.344423
-0.340496
-0.336612
-0.332841
-0.329205
-0.325702
-0.322322
-0.319045
-0.315852
-0.312727
-0.309662
-0.306652
-0.303701
-0.300814
-0.297998
-0.29526
-0.292606
-0.290034
-0.287542
-0.285123
-0.282713
-0.280378
-0.363279
-0.358838
-0.354631
-0.35044
-0.34619
-0.342001
-0.337929
-0.333983
-0.330148
-0.326402
-0.32272
-0.31908
-0.315467
-0.311876
-0.308311
-0.30478
-0.301296
-0.297874
-0.294528
-0.291267
-0.288099
-0.285027
-0.28205
-0.279116
-0.276296
-0.371047
-0.366048
-0.361422
-0.356877
-0.352294
-0.34778
-0.343378
-0.339077
-0.33485
-0.330666
-0.326497
-0.322323
-0.318136
-0.313939
-0.309746
-0.305577
-0.301454
-0.297399
-0.293434
-0.289573
-0.285828
-0.282206
-0.278709
-0.275291
-0.272031
-0.379258
-0.373681
-0.368627
-0.363724
-0.358794
-0.353931
-0.349157
-0.344443
-0.339752
-0.335047
-0.3303
-0.325502
-0.320655
-0.315777
-0.310895
-0.306042
-0.30125
-0.296549
-0.291965
-0.287516
-0.283216
-0.279074
-0.275089
-0.271221
-0.267549
-0.387879
-0.381708
-0.376222
-0.370954
-0.365661
-0.360416
-0.355218
-0.350023
-0.344782
-0.339461
-0.334042
-0.328528
-0.322942
-0.317317
-0.311698
-0.30613
-0.300653
-0.295304
-0.29011
-0.285092
-0.280262
-0.275626
-0.271183
-0.266891
-0.262831
-0.396862
-0.390089
-0.384171
-0.378532
-0.372853
-0.367181
-0.361496
-0.355736
-0.349851
-0.343815
-0.337627
-0.331312
-0.324915
-0.318491
-0.312101
-0.305798
-0.299633
-0.293644
-0.287858
-0.282293
-0.276958
-0.271857
-0.266983
-0.262292
-0.257864
-0.406144
-0.398769
-0.392421
-0.386402
-0.380308
-0.374157
-0.367907
-0.361488
-0.354856
-0.348002
-0.340953
-0.33376
-0.326495
-0.319234
-0.312051
-0.305011
-0.298166
-0.291552
-0.285197
-0.279111
-0.2733
-0.267761
-0.262482
-0.257415
-0.252641
-0.415647
-0.407677
-0.400905
-0.394493
-0.387946
-0.381251
-0.374348
-0.367168
-0.359683
-0.351912
-0.343917
-0.335783
-0.327607
-0.319486
-0.311505
-0.303735
-0.296226
-0.289013
-0.282114
-0.275537
-0.269278
-0.263329
-0.257672
-0.252252
-0.247157
-0.425275
-0.416726
-0.409538
-0.402717
-0.395669
-0.388353
-0.380701
-0.372651
-0.364207
-0.355429
-0.346417
-0.337292
-0.328179
-0.31919
-0.31042
-0.301937
-0.29379
-0.286006
-0.278595
-0.271557
-0.26488
-0.25855
-0.252543
-0.246794
-0.241404
-0.434917
-0.425814
-0.418216
-0.410964
-0.40336
-0.395338
-0.38683
-0.377803
-0.368302
-0.358435
-0.34835
-0.338204
-0.328144
-0.318296
-0.308755
-0.299588
-0.290834
-0.282512
-0.274622
-0.267155
-0.260091
-0.25341
-0.247081
-0.241028
-0.235372
-0.444445
-0.43482
-0.426821
-0.419108
-0.410883
-0.402061
-0.392592
-0.382483
-0.371836
-0.360817
-0.349622
-0.338441
-0.327442
-0.316755
-0.306473
-0.296656
-0.287332
-0.278509
-0.270175
-0.262312
-0.254894
-0.247893
-0.241269
-0.23494
-0.229047
-0.453715
-0.443608
-0.435214
-0.427007
-0.418088
-0.408369
-0.397833
-0.386547
-0.37468
-0.362464
-0.350141
-0.337931
-0.326013
-0.31452
-0.303537
-0.293111
-0.283258
-0.273972
-0.265232
-0.257009
-0.249269
-0.241979
-0.235091
-0.228513
-0.222416
-0.462571
-0.452028
-0.443245
-0.434502
-0.424811
-0.414096
-0.402394
-0.389849
-0.37671
-0.363272
-0.349822
-0.336605
-0.323805
-0.311549
-0.299911
-0.288922
-0.278583
-0.268876
-0.259769
-0.251222
-0.243195
-0.235648
-0.228527
-0.221728
-0.215459
-0.470843
-0.459915
-0.450747
-0.441421
-0.430878
-0.419072
-0.406118
-0.392251
-0.377805
-0.363142
-0.348588
-0.334402
-0.320768
-0.307801
-0.295559
-0.284056
-0.27328
-0.263195
-0.253761
-0.244928
-0.236649
-0.228879
-0.221556
-0.214567
-0.208159
-0.478353
-0.467096
-0.457544
-0.447586
-0.436111
-0.423127
-0.408849
-0.393616
-0.377854
-0.361985
-0.346366
-0.331263
-0.316853
-0.303235
-0.290446
-0.278484
-0.267318
-0.256902
-0.247182
-0.238102
-0.229608
-0.22165
-0.214158
-0.207008
-0.200497
-0.484913
-0.473388
-0.46345
-0.452809
-0.440325
-0.426091
-0.410436
-0.393819
-0.376755
-0.359719
-0.343091
-0.327137
-0.312018
-0.297813
-0.284539
-0.272173
-0.260669
-0.249969
-0.240007
-0.230721
-0.22205
-0.21394
-0.206312
-0.199035
-0.192454
-0.490335
-0.478603
-0.468279
-0.456904
-0.443344
-0.4278
-0.41074
-0.392745
-0.374414
-0.35627
-0.338705
-0.321975
-0.306222
-0.2915
-0.277805
-0.265095
-0.253307
-0.242371
-0.232214
-0.222763
-0.213954
-0.20573
-0.198
-0.190628
-0.184014
-0.49443
-0.482554
-0.47184
-0.459684
-0.444993
-0.428102
-0.409633
-0.390288
-0.37075
-0.351574
-0.333156
-0.315735
-0.299428
-0.284264
-0.270215
-0.257221
-0.245205
-0.234085
-0.223778
-0.214207
-0.205301
-0.197001
-0.189205
-0.181772
-0.17516
-0.497011
-0.485056
-0.473949
-0.460972
-0.445109
-0.426857
-0.406997
-0.386358
-0.36569
-0.345575
-0.326399
-0.308378
-0.291603
-0.276074
-0.261742
-0.248528
-0.236342
-0.22509
-0.214682
-0.205035
-0.196075
-0.187738
-0.179913
-0.172455
-0.165882
-0.497901
-0.485929
-0.474429
-0.460599
-0.443542
-0.423936
-0.402733
-0.380876
-0.359176
-0.338226
-0.318395
-0.299873
-0.282718
-0.266906
-0.252363
-0.238994
-0.226696
-0.215366
-0.204908
-0.195233
-0.186263
-0.17793
-0.170113
-0.162666
-0.156168
-0.49693
-0.485004
-0.473113
-0.45841
-0.440157
-0.419231
-0.396754
-0.373778
-0.351158
-0.329488
-0.309114
-0.290192
-0.272751
-0.256737
-0.242057
-0.228601
-0.216252
-0.204901
-0.194444
-0.184788
-0.175853
-0.167567
-0.159798
-0.152399
-0.146013
-0.493945
-0.482125
-0.469849
-0.454268
-0.434839
-0.412651
-0.388993
-0.365013
-0.341599
-0.319333
-0.298531
-0.279316
-0.261682
-0.245551
-0.230811
-0.217335
-0.204998
-0.193683
-0.183281
-0.173694
-0.16484
-0.156644
-0.148963
-0.14165
-0.135415
-0.488808
-0.477154
-0.464504
-0.448055
-0.42749
-0.404121
-0.379396
-0.354545
-0.330472
-0.30774
-0.286631
-0.26723
-0.249499
-0.233337
-0.218612
-0.205186
-0.192926
-0.181706
-0.171413
-0.161946
-0.153222
-0.14516
-0.137609
-0.130423
-0.124374
-0.481401
-0.46997
-0.456965
-0.439673
-0.418036
-0.393589
-0.367928
-0.34235
-0.317762
-0.294699
-0.273405
-0.253926
-0.236195
-0.220088
-0.205457
-0.192152
-0.180033
-0.168968
-0.15884
-0.149546
-0.140999
-0.133118
-0.12574
-0.118721
-0.112897
-0.471628
-0.460474
-0.447141
-0.429048
-0.406423
-0.381021
-0.354572
-0.328419
-0.303466
-0.280209
-0.258852
-0.239405
-0.221771
-0.205805
-0.191345
-0.178233
-0.16632
-0.155471
-0.145566
-0.136497
-0.128179
-0.120525
-0.113365
-0.106556
-0.100993
-0.459415
-0.448592
-0.434965
-0.416131
-0.392621
-0.366404
-0.339323
-0.312758
-0.28759
-0.264278
-0.242981
-0.223672
-0.206231
-0.190492
-0.176282
-0.163433
-0.151793
-0.141222
-0.131597
-0.122809
-0.114771
-0.107394
-0.100496
-0.0939412
-0.0886784
-0.444714
-0.434274
-0.420396
-0.400896
-0.376622
-0.349742
-0.322197
-0.295384
-0.270155
-0.246924
-0.225806
-0.206743
-0.189588
-0.174161
-0.160278
-0.147764
-0.136462
-0.126231
-0.116945
-0.108493
-0.100788
-0.0937373
-0.0871516
-0.0808964
-0.0759712
-0.427504
-0.417496
-0.403418
-0.383342
-0.358438
-0.33106
-0.303224
-0.276329
-0.251189
-0.228172
-0.207352
-0.188637
-0.171861
-0.156829
-0.143348
-0.13124
-0.120342
-0.110513
-0.101624
-0.0935652
-0.0862472
-0.0795748
-0.073351
-0.0674441
-0.0628944
-0.407788
-0.39826
-0.384041
-0.363491
-0.338106
-0.3104
-0.282448
-0.255636
-0.230734
-0.208062
-0.187651
-0.169385
-0.153075
-0.138518
-0.125513
-0.113878
-0.10345
-0.0940841
-0.0856521
-0.0780428
-0.0711672
-0.0649273
-0.0591187
-0.0536111
-0.0494749
-0.385597
-0.376594
-0.362301
-0.341392
-0.31568
-0.287823
-0.25993
-0.233362
-0.208842
-0.186638
-0.166746
-0.149021
-0.133263
-0.119256
-0.106797
-0.0957015
-0.085805
-0.0769628
-0.0690463
-0.0619445
-0.0555682
-0.0498174
-0.0444813
-0.0394285
-0.0357464
-0.360985
-0.352552
-0.338258
-0.317114
-0.291238
-0.263406
-0.235744
-0.209578
-0.185575
-0.163956
-0.144684
-0.12759
-0.112461
-0.0990757
-0.0872286
-0.0767341
-0.0674286
-0.0591681
-0.0518246
-0.045288
-0.0394695
-0.0342674
-0.0294663
-0.0249311
-0.0217517
-0.334035
-0.326214
-0.311997
-0.290748
-0.264873
-0.237242
-0.209979
-0.184363
-0.161006
-0.140084
-0.121525
-0.105143
-0.0907149
-0.078016
-0.0668399
-0.0570027
-0.0483426
-0.0407178
-0.0340023
-0.0280877
-0.0228863
-0.0182956
-0.0140989
-0.0101557
-0.00753622
-0.304851
-0.297681
-0.283625
-0.262405
-0.236698
-0.209441
-0.182737
-0.157812
-0.135222
-0.115097
-0.0973366
-0.0817402
-0.0680766
-0.0561206
-0.0456672
-0.0365357
-0.0285683
-0.021627
-0.0155897
-0.0103511
-0.00582521
-0.00191173
0.00160259
0.00486697
0.00687155
-0.273562
-0.26708
-0.253269
-0.232215
-0.206841
-0.180124
-0.154132
-0.13003
-0.108317
-0.089081
-0.0721967
-0.0574502
-0.0446061
-0.0334402
-0.0237511
-0.0153635
-0.00812546
-0.00190523
0.00341299
0.00792907
0.0117245
0.0148939
0.0176402
0.0201329
0.0214835
-0.240314
-0.234557
-0.221077
-0.200327
-0.175446
-0.149428
-0.124291
-0.101134
-0.0803988
-0.0621346
-0.0461938
-0.0323523
-0.0203729
-0.0100339
-0.00113947
0.00647889
0.0129649
0.0184417
0.0230154
0.0267767
0.0297989
0.0321653
0.0340617
0.0356861
0.0363157
-0.205277
-0.200275
-0.187214
-0.166903
-0.14267
-0.1175
-0.093351
-0.0712507
-0.0515848
-0.034366
-0.0194273
-0.00653716
0.00454211
0.0140282
0.0221101
0.0289479
0.0346753
0.0394036
0.0432253
0.046216
0.0484373
0.0499572
0.0509229
0.0515203
0.0511875
-0.168633
-0.164415
-0.15186
-0.132119
-0.108681
-0.0845011
-0.0614613
-0.0405186
-0.0220035
-0.0058948
0.00799131
0.0198925
0.0300456
0.0386638
0.045929
0.0519919
0.0569744
0.0609722
0.0640561
0.0662777
0.0676807
0.0683036
0.0681779
0.0673433
0.0655207
-0.130581
-0.127174
-0.115207
-0.0961632
-0.0736581
-0.0505974
-0.0287786
-0.00908461
0.00820688
0.0231483
0.0359384
0.0468196
0.0560284
0.063774
0.0702331
0.0755493
0.0798346
0.0831687
0.0855964
0.0871376
0.0878081
0.0875662
0.0861433
0.083235
0.0794181
-0.0913343
-0.0887583
-0.0774598
-0.0592316
-0.0377884
-0.015965
0.00453256
0.0228964
0.0388994
0.0526226
0.0642778
0.0741118
0.0823605
0.0892321
0.0949019
0.0995133
0.103179
0.105978
0.107953
0.109125
0.109522
0.109012
0.106883
0.102437
0.0977362
-0.0511142
-0.0493868
-0.0388306
-0.021529
-0.00126467
0.0192152
0.0383024
0.055264
0.069921
0.0823801
0.0928643
0.101623
0.108893
0.11488
0.119762
0.123687
0.126777
0.129132
0.130827
0.131957
0.132674
0.13293
0.131846
0.1289
0.131173
-0.0101428
-0.00927946
0.000464416
0.0167373
0.0357168
0.0547589
0.0723579
0.0878546
0.101115
0.112269
0.121549
0.129204
0.135469
0.140551
0.144624
0.147839
0.150323
0.152183
0.153515
0.154442
0.155126
0.15555
0.155219
0.15456
0.159091
0.0313448
0.0313332
0.0402018
0.0553545
0.0729565
0.09048
0.106525
0.120504
0.132326
0.142139
0.150183
0.156707
0.161942
0.166092
0.16933
0.171805
0.173646
0.174962
0.175859
0.176459
0.176903
0.177169
0.176905
0.176605
0.180629
0.073112
0.0722192
0.0801573
0.0941101
0.110255
0.126193
0.140629
0.153049
0.163397
0.171842
0.178623
0.183991
0.18817
0.191359
0.193728
0.19542
0.196562
0.197263
0.197625
0.197763
0.197805
0.197732
0.197248
0.196753
0.199829
0.114922
0.113146
0.120107
0.132792
0.147415
0.161713
0.174501
0.185329
0.19418
0.201234
0.206734
0.210924
0.214025
0.216229
0.217696
0.218568
0.218963
0.218983
0.218725
0.218291
0.217789
0.21719
0.216226
0.215267
0.217436
0.156539
0.153882
0.159827
0.171189
0.184241
0.196861
0.207972
0.217189
0.224528
0.230178
0.234384
0.237384
0.239392
0.24059
0.241133
0.241153
0.240763
0.240056
0.239119
0.238044
0.236921
0.235708
0.234157
0.232638
0.233928
0.197729
0.194198
0.199098
0.209097
0.220542
0.23146
0.240879
0.248478
0.2543
0.258544
0.261453
0.263258
0.264165
0.264347
0.263951
0.263101
0.2619
0.260435
0.258783
0.257025
0.255235
0.253364
0.251186
0.249078
0.249528
0.238263
0.233869
0.237705
0.246313
0.256131
0.265337
0.273065
0.279051
0.283363
0.286208
0.287826
0.28844
0.288247
0.287412
0.286072
0.284344
0.282322
0.280084
0.277701
0.275242
0.27277
0.270229
0.267422
0.264725
0.264369
0.277916
0.272675
0.275437
0.282642
0.290828
0.298328
0.304378
0.308766
0.311586
0.31305
0.313392
0.312829
0.311548
0.309704
0.307427
0.304824
0.301981
0.298971
0.295855
0.292695
0.289542
0.28634
0.282915
0.279643
0.278514
0.316472
0.310404
0.312094
0.317894
0.324459
0.330273
0.33467
0.33749
0.338847
0.338957
0.338049
0.336331
0.333982
0.331147
0.327948
0.324483
0.320832
0.31706
0.313221
0.309371
0.305552
0.301708
0.297689
0.293859
0.291988
0.35372
0.346851
0.347477
0.351887
0.356857
0.361018
0.363801
0.365094
0.365028
0.363821
0.361697
0.358856
0.355467
0.351667
0.347569
0.343265
0.338827
0.334312
0.32977
0.32525
0.320787
0.316327
0.31174
0.307376
0.304793
0.38946
0.381818
0.381402
0.384449
0.387861
0.390418
0.391638
0.391454
0.390014
0.387537
0.384241
0.380316
0.375924
0.371193
0.366229
0.361114
0.355916
0.350686
0.345468
0.340304
0.335224
0.330177
0.325054
0.32018
0.316916
0.423499
0.415118
0.41369
0.415414
0.417321
0.418333
0.418054
0.416455
0.4137
0.410008
0.40559
0.400629
0.395278
0.389657
0.383863
0.377974
0.37205
0.366137
0.360274
0.354499
0.348834
0.343234
0.337606
0.332248
0.328335
0.455655
0.446574
0.444173
0.444625
0.445093
0.444633
0.442927
0.439985
0.435983
0.431138
0.425657
0.419715
0.413455
0.40699
0.400412
0.393789
0.387178
0.38062
0.374149
0.367797
0.361582
0.355464
0.349364
0.343551
0.339024
0.48576
0.47602
0.472693
0.471938
0.471043
0.469193
0.466144
0.46194
0.456767
0.450841
0.444362
0.437499
0.430386
0.42313
0.415815
0.408506
0.401252
0.394089
0.387049
0.380158
0.373432
0.366832
0.360296
0.354057
0.348952
0.513653
0.503301
0.499104
0.497216
0.495047
0.491901
0.487602
0.482224
0.475962
0.469032
0.461628
0.453909
0.446005
0.438016
0.430018
0.422072
0.414221
0.4065
0.398934
0.391545
0.384346
0.377304
0.370367
0.363733
0.358089
0.539188
0.528273
0.523271
0.520334
0.516989
0.512649
0.507202
0.500746
0.493486
0.485635
0.477382
0.46888
0.460251
0.451589
0.442966
0.434436
0.426041
0.417808
0.409761
0.401918
0.394288
0.386844
0.379542
0.372546
0.366407
0.562232
0.550808
0.545071
0.541179
0.536764
0.531343
0.524855
0.517425
0.509262
0.500579
0.491559
0.48235
0.473066
0.463797
0.45461
0.445554
0.436666
0.427973
0.419492
0.41124
0.403223
0.395417
0.387789
0.380466
0.373877
0.582665
0.570788
0.564393
0.559646
0.554278
0.547894
0.540481
0.532185
0.523222
0.5138
0.5041
0.494263
0.484398
0.474591
0.464903
0.455381
0.446058
0.436956
0.428092
0.419478
0.411118
0.402993
0.395077
0.387464
0.380474
0.60038
0.588109
0.58114
0.575647
0.569449
0.562226
0.55401
0.544963
0.535304
0.525242
0.514951
0.504569
0.494201
0.483927
0.473806
0.463879
0.454178
0.444723
0.435527
0.4266
0.417944
0.409544
0.401379
0.393514
0.386173
0.615285
0.602682
0.595227
0.589103
0.582203
0.574274
0.56538
0.555699
0.545455
0.534854
0.524066
0.513226
0.502435
0.491768
0.481281
0.471015
0.460996
0.451244
0.441769
0.432579
0.423674
0.415043
0.406669
0.398591
0.390955
0.627304
0.614432
0.606583
0.599948
0.59248
0.58398
0.574539
0.564348
0.553631
0.542595
0.531406
0.520197
0.509064
0.49808
0.4873
0.476759
0.466485
0.456493
0.446793
0.437391
0.428285
0.419469
0.410928
0.402678
0.394802
0.636373
0.623299
0.615151
0.608129
0.600232
0.5913
0.581446
0.570869
0.559795
0.548431
0.53694
0.525452
0.514061
0.502838
0.491836
0.481089
0.470621
0.460449
0.45058
0.441017
0.431761
0.422805
0.414137
0.405757
0.3977
0.642447
0.629236
0.620888
0.613606
0.605421
0.5962
0.586069
0.575233
0.563921
0.552337
0.540644
0.528968
0.517405
0.506022
0.494871
0.483986
0.473389
0.463096
0.453113
0.443444
0.434087
0.425037
0.416285
0.407817
0.399639
0.645493
0.632215
0.623766
0.616353
0.608023
0.598657
0.588388
0.577422
0.56599
0.554295
0.542501
0.530732
0.519082
0.507619
0.496393
0.485438
0.474777
0.464423
0.454384
0.444661
0.435253
0.426156
0.417361
0.408851
0.400611
0.645497
0.632218
0.623769
0.616357
0.608027
0.59866
0.588391
0.577425
0.565993
0.554298
0.542503
0.530734
0.519084
0.507621
0.496396
0.485441
0.474779
0.464425
0.454386
0.444663
0.435255
0.426158
0.417363
0.408853
0.400613
0.642458
0.629247
0.620898
0.613616
0.605431
0.596209
0.586078
0.575242
0.56393
0.552345
0.540652
0.528976
0.517412
0.50603
0.494878
0.483993
0.473396
0.463103
0.45312
0.44345
0.434093
0.425043
0.416291
0.407823
0.399645
0.636391
0.623317
0.615168
0.608146
0.600248
0.591315
0.581461
0.570883
0.559809
0.548444
0.536953
0.525464
0.514073
0.502851
0.491848
0.4811
0.470633
0.46046
0.450591
0.441028
0.431771
0.422815
0.414147
0.405767
0.39771
0.627329
0.614457
0.606607
0.599971
0.592503
0.584001
0.57456
0.564368
0.55365
0.542614
0.531425
0.520215
0.509081
0.498097
0.487316
0.476775
0.466501
0.456509
0.446809
0.437406
0.4283
0.419483
0.410942
0.402692
0.394816
0.615318
0.602714
0.595258
0.589133
0.582232
0.574302
0.565407
0.555725
0.54548
0.534878
0.52409
0.513249
0.502457
0.49179
0.481303
0.471036
0.461017
0.451264
0.441789
0.432598
0.423692
0.415061
0.406688
0.398609
0.390973
0.600419
0.588147
0.581178
0.575684
0.569484
0.56226
0.554043
0.544994
0.535334
0.525271
0.51498
0.504597
0.494229
0.483954
0.473832
0.463905
0.454203
0.444747
0.435551
0.426623
0.417966
0.409566
0.401401
0.393535
0.386194
0.582711
0.570833
0.564438
0.559689
0.55432
0.547934
0.54052
0.532223
0.523258
0.513835
0.504134
0.494295
0.48443
0.474622
0.464934
0.455411
0.446087
0.436984
0.42812
0.419505
0.411145
0.40302
0.395104
0.38749
0.380499
0.562285
0.55086
0.545122
0.541228
0.536811
0.531389
0.524899
0.517467
0.509303
0.500619
0.491598
0.482387
0.473103
0.463833
0.454645
0.445588
0.4367
0.428006
0.419525
0.411272
0.403254
0.395448
0.387819
0.380496
0.373906
0.539248
0.528332
0.523328
0.52039
0.517042
0.512701
0.507251
0.500794
0.493532
0.48568
0.477426
0.468923
0.460292
0.451629
0.443005
0.434475
0.426078
0.417845
0.409797
0.401953
0.394323
0.386878
0.379576
0.37258
0.36644
0.513719
0.503365
0.499168
0.497278
0.495106
0.491958
0.487657
0.482277
0.476014
0.469082
0.461676
0.453957
0.446051
0.438061
0.430062
0.422114
0.414263
0.406541
0.398974
0.391584
0.384385
0.377342
0.370404
0.36377
0.358125
0.485832
0.476091
0.472762
0.472005
0.471108
0.469256
0.466205
0.461999
0.456823
0.450895
0.444415
0.437551
0.430436
0.423179
0.415863
0.408553
0.401297
0.394134
0.387093
0.380202
0.373474
0.366874
0.360337
0.354097
0.348991
0.455733
0.446651
0.444248
0.444698
0.445163
0.4447
0.442992
0.440048
0.436044
0.431198
0.425715
0.419771
0.413509
0.407044
0.400464
0.39384
0.387228
0.380669
0.374197
0.367843
0.361628
0.355509
0.349409
0.343595
0.339067
0.423582
0.4152
0.41377
0.415492
0.417396
0.418406
0.418124
0.416523
0.413766
0.410072
0.405652
0.40069
0.395336
0.389714
0.383919
0.378029
0.372103
0.366189
0.360326
0.354549
0.348884
0.343283
0.337654
0.332295
0.328382
0.389548
0.381905
0.381488
0.384532
0.387941
0.390496
0.391713
0.391527
0.390085
0.387605
0.384307
0.380381
0.375987
0.371254
0.366288
0.361172
0.355973
0.350742
0.345523
0.340358
0.335277
0.33023
0.325106
0.320231
0.316966
0.353814
0.346944
0.347568
0.351975
0.356942
0.361101
0.363881
0.365171
0.365102
0.363893
0.361767
0.358925
0.355533
0.351732
0.347633
0.343327
0.338887
0.334372
0.329829
0.325308
0.320843
0.316382
0.311795
0.30743
0.304846
0.316571
0.310502
0.312189
0.317986
0.324549
0.33036
0.334754
0.337571
0.338926
0.339034
0.338124
0.336404
0.334052
0.331216
0.328015
0.324549
0.320897
0.317123
0.313283
0.309432
0.305611
0.301767
0.297746
0.293916
0.292044
0.278019
0.272777
0.275537
0.282739
0.290922
0.298419
0.304466
0.308851
0.311669
0.313131
0.31347
0.312905
0.311622
0.309776
0.307498
0.304893
0.302049
0.299038
0.29592
0.292759
0.289604
0.286402
0.282976
0.279703
0.278573
0.23837
0.233975
0.237809
0.246414
0.256229
0.265432
0.273157
0.27914
0.283449
0.286292
0.287907
0.288519
0.288324
0.287487
0.286146
0.284416
0.282393
0.280154
0.277769
0.275309
0.272835
0.270294
0.267486
0.264788
0.264431
0.19784
0.194308
0.199206
0.209202
0.220644
0.231558
0.240975
0.248571
0.25439
0.258632
0.261538
0.263341
0.264246
0.264426
0.264028
0.263176
0.261974
0.260507
0.258854
0.257095
0.255303
0.253431
0.251253
0.249144
0.249593
0.156654
0.153996
0.159938
0.171298
0.184347
0.196964
0.208071
0.217285
0.224621
0.230269
0.234472
0.23747
0.239476
0.240672
0.241213
0.241232
0.24084
0.240132
0.239193
0.238117
0.236992
0.235779
0.234227
0.232706
0.233995
0.115041
0.113263
0.120222
0.132904
0.147524
0.161819
0.174603
0.185428
0.194277
0.201328
0.206825
0.211013
0.214112
0.216314
0.21778
0.218649
0.219042
0.219062
0.218802
0.218367
0.217863
0.217263
0.216298
0.215338
0.217505
0.0732336
0.0723394
0.0802755
0.0942255
0.110368
0.126302
0.140735
0.153151
0.163497
0.171939
0.178718
0.184083
0.18826
0.191447
0.193814
0.195504
0.196645
0.197344
0.197704
0.197842
0.197882
0.197807
0.197323
0.196826
0.199901
0.0314692
0.0314562
0.0403228
0.0554728
0.0730716
0.0905918
0.106633
0.120609
0.132428
0.142239
0.15028
0.156801
0.162035
0.166183
0.169419