/*--------------------------------*- C++ -*----------------------------------*\
  =========                 |
  \\      /  F ield         | OpenFOAM: The Open Source CFD Toolbox
   \\    /   O peration     | Website:  https://openfoam.org
    \\  /    A nd           | Version:  6.0
     \\/     M anipulation  |
\*---------------------------------------------------------------------------*/
FoamFile
{
    version     2.0;
    format      ascii;
    class       volVectorField;
    location    "16";
    object      U;
}
// * * * * * * * * * * * * * * * * * * * * * * * * * * * * * * * * * * * * * //

dimensions      [0 1 -1 0 0 0 0];

internalField   nonuniform List<vector> 
12500
(
(-0.000344521 0.000402905 -6.04879e-22)
(-0.00198594 0.00102618 8.34312e-21)
(-0.00513854 0.00149301 -1.20859e-20)
(-0.00916221 0.00183688 5.54296e-21)
(-0.0137174 0.00208271 3.32308e-22)
(-0.0185988 0.00225063 -6.81439e-22)
(-0.0236451 0.00235777 -1.00537e-20)
(-0.0287376 0.00241859 5.5132e-21)
(-0.0337945 0.00244532 3.64102e-21)
(-0.0387623 0.00244829 3.69356e-21)
(-0.0436095 0.00243626 -6.24594e-21)
(-0.0483215 0.00241668 3.629e-21)
(-0.0528969 0.00239582 -1.7073e-21)
(-0.0573445 0.00237901 2.89148e-21)
(-0.0616802 0.00237068 -7.36871e-21)
(-0.0659257 0.00237446 1.06377e-20)
(-0.070106 0.00239327 -2.02424e-21)
(-0.0742486 0.00242936 -7.50808e-21)
(-0.0783813 0.00248431 3.84198e-21)
(-0.0825325 0.00255913 -3.66469e-21)
(-0.0867353 0.00265415 3.27635e-21)
(-0.091022 0.00276915 4.32837e-21)
(-0.0953647 0.00290428 4.41821e-22)
(-0.099664 0.00306051 -1.23672e-20)
(-0.104335 0.00323124 6.54582e-21)
(-0.000393933 0.00122429 1.10403e-20)
(-0.00210663 0.00313332 -2.84864e-20)
(-0.00530311 0.00457836 8.39123e-21)
(-0.00935011 0.00565709 5.60152e-21)
(-0.013912 0.00644224 -4.45892e-21)
(-0.0187861 0.00699278 -2.53112e-20)
(-0.0238131 0.00735917 7.51505e-21)
(-0.0288758 0.00758434 -1.41794e-20)
(-0.0338936 0.00770471 1.69427e-20)
(-0.0388138 0.00775132 -2.25889e-20)
(-0.0436056 0.00775061 1.20477e-20)
(-0.0482548 0.00772511 3.89041e-21)
(-0.0527603 0.00769402 -9.78621e-21)
(-0.0571312 0.00767355 -4.32258e-21)
(-0.0613836 0.0076773 3.15775e-20)
(-0.0655395 0.00771648 -2.79104e-20)
(-0.0696243 0.00780009 6.6648e-21)
(-0.0736657 0.00793504 1.15208e-20)
(-0.0776922 0.00812633 -2.63319e-21)
(-0.0817324 0.00837707 1.85357e-20)
(-0.0858202 0.00868839 3.37875e-21)
(-0.0899885 0.00905969 -1.19412e-21)
(-0.0942101 0.00949145 -2.33352e-20)
(-0.0983841 0.0099867 2.14811e-20)
(-0.102927 0.0105255 -4.10687e-20)
(-0.000492271 0.00203393 3.54119e-20)
(-0.00234698 0.00521168 1.17651e-20)
(-0.00563083 0.00762251 -1.54073e-20)
(-0.00972414 0.00942652 6.61233e-21)
(-0.0142991 0.0107432 6.1816e-21)
(-0.0191583 0.0116696 2.34375e-20)
(-0.0241464 0.012289 -2.97353e-20)
(-0.0291494 0.0126723 -4.83016e-21)
(-0.0340889 0.01288 -1.98652e-20)
(-0.0389141 0.0129634 -1.65681e-20)
(-0.0435951 0.0129665 2.13665e-20)
(-0.0481188 0.0129269 -7.14379e-20)
(-0.0524848 0.0128766 -2.23396e-21)
(-0.0567025 0.0128428 -4.27841e-20)
(-0.0607888 0.0128484 -5.03836e-21)
(-0.0647659 0.0129124 6.05843e-21)
(-0.06866 0.01305 -3.31128e-20)
(-0.0724995 0.0132732 -2.06987e-20)
(-0.0763137 0.0135906 -2.44853e-20)
(-0.0801324 0.0140077 3.83226e-20)
(-0.0839906 0.0145266 1.40143e-20)
(-0.0879228 0.0151467 -6.21804e-20)
(-0.0919025 0.0158689 -2.99445e-20)
(-0.0958268 0.0166985 -3.34744e-20)
(-0.100114 0.0176021 9.04672e-20)
(-0.000638223 0.00282431 -1.09777e-21)
(-0.0027043 0.00724265 -2.72013e-20)
(-0.0061188 0.0105987 -1.30556e-20)
(-0.0102818 0.013112 8.08376e-21)
(-0.0148771 0.0149471 5.02968e-20)
(-0.0197149 0.0162381 -2.26648e-20)
(-0.0246459 0.0171002 4.82718e-20)
(-0.0295608 0.0176316 4.59281e-20)
(-0.0343847 0.0179161 2.79281e-20)
(-0.0390692 0.018025 -4.23235e-22)
(-0.0435865 0.0180197 5.61831e-20)
(-0.0479245 0.0179525 9.71631e-21)
(-0.0520839 0.0178682 4.27843e-20)
(-0.0560748 0.0178052 9.82713e-20)
(-0.0599148 0.0177956 -1.13891e-19)
(-0.0636269 0.0178667 1.71092e-19)
(-0.0672382 0.0180403 3.72101e-20)
(-0.0707782 0.0183337 -8.19762e-20)
(-0.0742775 0.0187598 -1.16356e-20)
(-0.0777674 0.019327 2.97544e-20)
(-0.0812846 0.020039 -1.49171e-20)
(-0.0848664 0.0208951 -8.93338e-21)
(-0.0884877 0.0218972 -8.70527e-21)
(-0.0920425 0.0230536 -3.50099e-20)
(-0.095953 0.0243169 1.22943e-19)
(-0.000829912 0.00358863 1.84561e-20)
(-0.0031747 0.00920918 -8.57006e-20)
(-0.00676277 0.0134821 1.03882e-19)
(-0.0110195 0.0166826 -4.13259e-20)
(-0.0156433 0.0190182 4.9436e-20)
(-0.0204546 0.0206583 4.03094e-20)
(-0.0253122 0.0217488 1.5293e-20)
(-0.0301128 0.0224144 7.51846e-22)
(-0.0347862 0.0227613 8.59263e-20)
(-0.0392874 0.0228805 5.94286e-20)
(-0.0435909 0.02285 -2.38082e-20)
(-0.0476865 0.0227366 -1.53299e-20)
(-0.051576 0.022598 6.45478e-20)
(-0.0552705 0.0224835 1.21427e-20)
(-0.0587885 0.0224352 3.29414e-20)
(-0.0621538 0.0224884 7.88391e-20)
(-0.0653946 0.0226725 -6.80502e-20)
(-0.0685419 0.0230107 5.49103e-20)
(-0.0716281 0.0235208 -1.18287e-19)
(-0.0746865 0.0242149 9.93621e-20)
(-0.0777566 0.0250989 6.52924e-22)
(-0.0808788 0.0261729 -7.91616e-20)
(-0.0840306 0.0274401 3.18342e-20)
(-0.0871025 0.0289127 7.23182e-20)
(-0.0905214 0.0305289 -1.06782e-19)
(-0.00106501 0.00432107 9.54787e-20)
(-0.00375323 0.0110962 -1.01369e-19)
(-0.00755716 0.0162504 -1.62955e-20)
(-0.0119318 0.0201103 2.05565e-20)
(-0.0165936 0.0229235 -4.4363e-20)
(-0.0213751 0.0248931 -6.91334e-20)
(-0.0261449 0.0261943 -5.74615e-20)
(-0.0308076 0.0269767 -1.38483e-20)
(-0.0352986 0.0273684 -9.87889e-20)
(-0.0395771 0.0274789 7.865e-20)
(-0.0436208 0.0274024 -1.22091e-19)
(-0.0474215 0.0272198 6.16876e-20)
(-0.0509825 0.0270014 -2.04646e-20)
(-0.0543161 0.0268075 4.73923e-20)
(-0.0574415 0.0266901 -1.1912e-19)
(-0.0603837 0.0266935 5.77142e-20)
(-0.0631722 0.026855 4.30633e-21)
(-0.0658395 0.0272048 2.55766e-20)
(-0.0684202 0.0277665 1.54516e-19)
(-0.0709506 0.0285568 3.42522e-20)
(-0.0734732 0.029585 -3.08633e-21)
(-0.076033 0.0308529 9.77302e-21)
(-0.0786112 0.0323659 6.43586e-20)
(-0.0810948 0.0341412 1.83382e-20)
(-0.0839171 0.0361024 6.04015e-20)
(-0.00134085 0.00501686 -5.9488e-20)
(-0.00443411 0.0128911 8.44613e-20)
(-0.00849516 0.0188844 5.29525e-21)
(-0.0130123 0.0233704 -1.0306e-19)
(-0.0177222 0.026634 2.1664e-19)
(-0.0224719 0.0289099 -7.00162e-20)
(-0.0271418 0.0304006 1.02176e-19)
(-0.0316454 0.0312798 9.34665e-20)
(-0.0359251 0.0316958 -7.73006e-20)
(-0.0399454 0.0317756 -1.12504e-19)
(-0.0436874 0.0316289 3.07818e-20)
(-0.0471456 0.0313503 -3.24506e-20)
(-0.0503249 0.031022 -1.43546e-19)
(-0.0532387 0.0307154 1.74365e-19)
(-0.0559073 0.0304927 -8.36109e-20)
(-0.0583566 0.0304075 -5.76515e-20)
(-0.0606174 0.0305058 5.26813e-22)
(-0.0627242 0.0308258 4.70789e-20)
(-0.064714 0.0313983 1.942e-20)
(-0.0666265 0.0322462 -7.60183e-20)
(-0.0685084 0.0333833 8.68094e-20)
(-0.0704102 0.0348146 -1.5081e-19)
(-0.0723183 0.0365492 9.20778e-20)
(-0.0741171 0.0386106 -7.0566e-20)
(-0.0762485 0.040908 1.83667e-20)
(-0.00165457 0.00567241 8.66248e-20)
(-0.00521085 0.0145836 -6.66138e-20)
(-0.00956875 0.0213681 -4.23673e-20)
(-0.0142524 0.026442 -7.47851e-20)
(-0.0190211 0.0301248 -1.3669e-19)
(-0.0237382 0.0326804 -1.00979e-19)
(-0.0282974 0.0343371 6.29306e-20)
(-0.032623 0.0352906 -9.53043e-20)
(-0.0366656 0.0357082 1.20946e-19)
(-0.0403954 0.0357334 -1.96819e-19)
(-0.043798 0.0354901 8.74243e-20)
(-0.0468707 0.0350858 1.84648e-19)
(-0.0496205 0.034614 -2.59413e-19)
(-0.0520618 0.0341571 3.70321e-20)
(-0.0542158 0.0337874 4.82051e-20)
(-0.0561094 0.0335684 4.66163e-20)
(-0.0577746 0.0335556 -5.004e-20)
(-0.0592478 0.0337963 -1.22799e-20)
(-0.0605688 0.03433 -3.67384e-20)
(-0.0617809 0.0351878 -3.06531e-20)
(-0.0629363 0.0363903 -1.68292e-19)
(-0.0640922 0.0379472 -1.13792e-20)
(-0.0652419 0.0398732 1.84338e-21)
(-0.0662686 0.0422009 -7.61219e-20)
(-0.0676259 0.044825 7.84836e-20)
(-0.00200325 0.00628522 2.51434e-21)
(-0.0060764 0.0161658 2.72441e-20)
(-0.0107687 0.0236886 2.83714e-20)
(-0.0156418 0.029308 1.64504e-20)
(-0.0204795 0.0333752 1.39138e-19)
(-0.0251633 0.0361813 1.30669e-19)
(-0.029602 0.0379782 -1.06188e-19)
(-0.033732 0.0389821 -3.23219e-20)
(-0.0375132 0.0393777 -2.86989e-20)
(-0.0409231 0.0393234 1.48059e-19)
(-0.0439519 0.0389561 5.31633e-20)
(-0.0466006 0.0383949 -7.73573e-20)
(-0.048878 0.0377442 -6.54974e-20)
(-0.0507999 0.0370964 1.57791e-19)
(-0.0523882 0.036534 -3.88933e-20)
(-0.0536705 0.0361305 -4.7158e-20)
(-0.0546795 0.0359517 -6.58286e-20)
(-0.0554536 0.0360556 -5.12408e-20)
(-0.0560354 0.0364921 -6.54232e-20)
(-0.0564724 0.0373026 -4.27997e-20)
(-0.0568227 0.038517 1.77795e-19)
(-0.0571521 0.040153 -8.75447e-20)
(-0.0574627 0.0422336 5.89491e-20)
(-0.0576389 0.0448034 -1.56867e-19)
(-0.0581502 0.0477439 6.32162e-20)
(-0.00238394 0.00685377 -7.78265e-20)
(-0.0070233 0.0176321 -2.02745e-20)
(-0.0120844 0.0258361 -1.58294e-19)
(-0.0171678 0.0319547 -7.58362e-20)
(-0.0220831 0.0363685 -1.49658e-19)
(-0.0267317 0.0393937 -1.5605e-20)
(-0.0310394 0.041304 8.01831e-20)
(-0.0349562 0.042334 -4.88419e-20)
(-0.0384527 0.0426839 1.05247e-19)
(-0.0415142 0.0425257 -2.55712e-19)
(-0.0441371 0.0420077 -7.42573e-21)
(-0.0463259 0.0412591 4.53174e-20)
(-0.048092 0.0403938 -5.74857e-20)
(-0.0494523 0.0395137 5.23314e-20)
(-0.0504292 0.0387107 -3.99852e-20)
(-0.0510505 0.0380684 -8.57111e-20)
(-0.0513497 0.0376636 1.5637e-19)
(-0.0513664 0.0375658 9.70034e-20)
(-0.0511458 0.0378376 -2.0079e-20)
(-0.05074 0.0385334 6.40322e-20)
(-0.0502136 0.0396958 -1.26309e-19)
(-0.0496426 0.041354 1.82094e-19)
(-0.04904 0.0435435 -2.48689e-19)
(-0.0482951 0.0463259 5.11976e-20)
(-0.0478989 0.0495708 -9.73292e-20)
(-0.00279376 0.00737736 4.22421e-21)
(-0.00804363 0.0189787 -6.92805e-20)
(-0.013504 0.0278031 1.02546e-19)
(-0.0188148 0.0343715 2.10216e-19)
(-0.0238132 0.0390918 -3.4626e-21)
(-0.0284221 0.0423032 2.37954e-20)
(-0.0325859 0.0442995 -8.99082e-20)
(-0.0362698 0.0453318 4.20819e-20)
(-0.0394565 0.0456142 2.90105e-19)
(-0.0421405 0.04533 -6.58141e-20)
(-0.0443249 0.0446371 -7.77478e-20)
(-0.0460187 0.0436734 2.93781e-19)
(-0.0472359 0.0425607 9.59593e-20)
(-0.0479948 0.0414088 4.56892e-20)
(-0.0483181 0.040318 4.67561e-20)
(-0.0482335 0.0393818 1.27377e-19)
(-0.0477744 0.0386876 -4.89752e-20)
(-0.0469811 0.0383179 1.29429e-19)
(-0.045901 0.0383498 1.75183e-19)
(-0.0445904 0.0388535 -1.49442e-19)
(-0.0431213 0.0398883 2.22077e-19)
(-0.041581 0.0415 7.92864e-20)
(-0.0399961 0.0437422 -3.00796e-19)
(-0.038265 0.0466997 4.35044e-19)
(-0.0369086 0.0502344 -3.52328e-19)
(-0.00322989 0.00785584 -1.98313e-19)
(-0.00912898 0.0202031 1.08014e-19)
(-0.0150138 0.0295843 -7.2469e-20)
(-0.0205642 0.0365503 -6.88117e-20)
(-0.0256462 0.0415349 -7.42614e-20)
(-0.030206 0.044899 -8.05508e-20)
(-0.0342083 0.0469544 2.20967e-20)
(-0.037635 0.047967 2.09984e-19)
(-0.0404825 0.0481628 -4.49616e-20)
(-0.0427557 0.0477346 -1.17115e-19)
(-0.0444654 0.0468479 -7.15208e-20)
(-0.0456261 0.0456472 -2.92626e-20)
(-0.0462549 0.0442601 8.65706e-20)
(-0.0463717 0.0428026 -5.5279e-20)
(-0.0459994 0.0413819 -1.80468e-19)
(-0.0451651 0.0400996 -1.99173e-19)
(-0.0439015 0.0390539 7.9407e-20)
(-0.0422487 0.0383402 -1.47846e-19)
(-0.0402555 0.0380514 1.28425e-19)
(-0.0379817 0.0382769 -3.62648e-19)
(-0.0355071 0.0390971 2.78697e-19)
(-0.0329312 0.0405803 -3.6863e-19)
(-0.0302972 0.0428059 -6.93341e-21)
(-0.0275177 0.0458912 -1.24216e-19)
(-0.0251544 0.0496963 3.64348e-19)
(-0.00368952 0.00828935 3.04296e-19)
(-0.0102703 0.0213036 4.4577e-20)
(-0.0165982 0.0311752 -2.92874e-20)
(-0.0223935 0.0384846 -1.23518e-20)
(-0.0275526 0.04369 2.29755e-19)
(-0.0320466 0.0471728 7.47147e-20)
(-0.0358621 0.0492615 6.77387e-20)
(-0.0389996 0.0502351 -5.44493e-20)
(-0.0414704 0.0503297 2.09979e-19)
(-0.0432915 0.0497456 -1.03257e-19)
(-0.0444826 0.0486539 6.6607e-20)
(-0.0450645 0.0472032 1.69453e-19)
(-0.0450585 0.0455248 -9.61169e-20)
(-0.0444863 0.0437383 1.04079e-19)
(-0.0433713 0.0419555 9.82946e-20)
(-0.0417398 0.0402843 3.36455e-20)
(-0.039623 0.0388317 -8.2949e-20)
(-0.0370599 0.0377053 2.29331e-19)
(-0.0340994 0.0370149 -2.13571e-20)
(-0.0308043 0.0368711 -2.46524e-20)
(-0.0272612 0.0373802 2.7477e-19)
(-0.023583 0.0386397 -1.95537e-19)
(-0.0198318 0.0407649 3.2939e-19)
(-0.0159404 0.0439177 -2.73252e-19)
(-0.0125258 0.047966 3.5088e-19)
(-0.0041698 0.00867807 -1.47021e-19)
(-0.0114578 0.0222786 3.25485e-20)
(-0.0182394 0.0325722 -3.394e-20)
(-0.0242762 0.0401685 -1.60569e-19)
(-0.0294964 0.0455501 9.32237e-21)
(-0.0338978 0.0491179 9.1367e-20)
(-0.0374904 0.0512158 -3.71617e-19)
(-0.040295 0.0521348 2.77368e-19)
(-0.0423396 0.0521193 -2.69998e-19)
(-0.0436545 0.0513753 -1.70302e-19)
(-0.0442697 0.0500773 1.52702e-19)
(-0.0442137 0.048376 -3.30498e-19)
(-0.0435128 0.0464036 2.78363e-19)
(-0.0421918 0.0442806 -8.8511e-20)
(-0.0402748 0.0421203 -2.52882e-19)
(-0.0377875 0.0400337 6.24829e-20)
(-0.0347594 0.0381338 -5.86613e-20)
(-0.0312273 0.0365387 2.21461e-20)
(-0.0272393 0.0353735 -7.9069e-20)
(-0.0228592 0.0347713 -2.62501e-19)
(-0.0181798 0.0348681 5.87845e-20)
(-0.0133276 0.0357982 -1.09433e-22)
(-0.00838557 0.0377238 -2.70787e-19)
(-0.0033122 0.0408685 1.90211e-19)
(0.00120065 0.0451221 -1.64237e-19)
(-0.00466768 0.00902201 5.95213e-20)
(-0.0126804 0.0231264 1.0952e-19)
(-0.0199168 0.0337712 1.53162e-19)
(-0.026181 0.0415961 7.87551e-20)
(-0.0314345 0.0471082 -7.72183e-20)
(-0.0357032 0.0507275 1.84176e-19)
(-0.0390226 0.0528129 1.36277e-19)
(-0.0414351 0.0536658 -4.9607e-20)
(-0.0429868 0.0535378 1.77138e-19)
(-0.0437229 0.052639 -1.82197e-19)
(-0.0436854 0.0511458 -5.34484e-20)
(-0.0429116 0.0492085 5.42295e-20)
(-0.0414344 0.046958 1.07431e-19)
(-0.039283 0.0445124 1.28963e-21)
(-0.0364833 0.041983 6.80132e-20)
(-0.0330611 0.0394801 1.25596e-19)
(-0.0290446 0.0371185 -2.13857e-19)
(-0.0244681 0.0350223 2.65871e-19)
(-0.0193774 0.0333294 8.9755e-20)
(-0.0138362 0.0321937 3.17185e-20)
(-0.00794161 0.0317825 -3.22719e-19)
(-0.00183307 0.0322732 4.56531e-20)
(0.00438465 0.033888 7.0857e-20)
(0.0107221 0.0369329 -1.70379e-20)
(0.0163891 0.0413399 8.06991e-20)
(-0.00517987 0.00932082 4.63883e-21)
(-0.0139261 0.0238445 -2.82082e-19)
(-0.0216072 0.0347675 -7.03329e-21)
(-0.0280718 0.0427607 -7.10797e-20)
(-0.0333161 0.0483565 -4.66952e-19)
(-0.0373961 0.0519943 4.03087e-19)
(-0.0403738 0.0540472 -2.86767e-19)
(-0.0423149 0.0548267 -1.44545e-20)
(-0.043285 0.0545907 -1.35442e-19)
(-0.0433455 0.0535523 2.34161e-19)
(-0.0425514 0.0518884 -2.5203e-19)
(-0.0409511 0.0497474 -1.18004e-19)
(-0.0385857 0.0472565 2.45224e-21)
(-0.0354901 0.0445288 -2.55349e-19)
(-0.0316944 0.04167 3.48395e-19)
(-0.027226 0.0387851 -4.03723e-19)
(-0.0221128 0.0359853 7.66248e-22)
(-0.0163877 0.0333948 6.18547e-20)
(-0.0100935 0.0311578 -1.54915e-19)
(-0.00329257 0.0294448 1.50332e-19)
(0.00391557 0.0284521 -2.13235e-19)
(0.0113801 0.0284031 -1.40977e-19)
(0.0189749 0.0295917 2.62768e-19)
(0.0266774 0.0324318 -2.86729e-19)
(0.0335709 0.0369243 -5.54378e-21)
(-0.00570269 0.00957373 -2.38843e-19)
(-0.0151809 0.0244296 2.73883e-19)
(-0.023284 0.035555 -8.45105e-20)
(-0.0299068 0.0436541 1.62562e-19)
(-0.0350826 0.0492856 1.75259e-19)
(-0.0388983 0.0529087 -1.54346e-19)
(-0.0414443 0.0549109 -1.02271e-19)
(-0.0428104 0.0556135 -1.22458e-19)
(-0.0430827 0.0552804 1.12099e-19)
(-0.0423401 0.0541272 -7.51225e-21)
(-0.0406522 0.0523308 1.63377e-19)
(-0.0380795 0.0500367 1.61028e-19)
(-0.0346733 0.0473671 -1.92397e-19)
(-0.0304767 0.0444281 3.77782e-19)
(-0.0255264 0.0413166 -2.50569e-19)
(-0.0198543 0.0381281 -4.3e-20)
(-0.0134908 0.0349642 4.88261e-19)
(-0.00646916 0.0319415 -2.26082e-19)
(0.00116883 0.029202 1.44172e-19)
(0.0093628 0.0269226 2.81678e-19)
(0.0180122 0.0253216 -1.82763e-19)
(0.0269571 0.0246649 1.92456e-20)
(0.0360528 0.0253256 -1.2593e-20)
(0.0452462 0.0278516 -7.50707e-20)
(0.0534638 0.0323471 1.40945e-19)
(-0.00623199 0.00977953 5.45871e-20)
(-0.0164294 0.0248772 -1.73473e-19)
(-0.0249171 0.0361265 9.48029e-20)
(-0.0316391 0.0442668 -1.18082e-21)
(-0.036667 0.0498842 7.1322e-20)
(-0.0401208 0.0534589 -1.22679e-19)
(-0.0421196 0.0553931 7.01766e-20)
(-0.0427785 0.0560182 1.911e-19)
(-0.0422048 0.0556042 -5.83615e-21)
(-0.0404954 0.0543696 -9.75778e-20)
(-0.0377356 0.0524912 9.80652e-20)
(-0.0339992 0.050112 -2.26182e-21)
(-0.0293498 0.047349 -3.10706e-19)
(-0.0238412 0.0443006 1.15179e-19)
(-0.0175198 0.0410533 2.54294e-20)
(-0.010426 0.0376898 -4.4805e-20)
(-0.00259716 0.0342966 -8.0025e-20)
(0.00592855 0.0309752 3.06478e-19)
(0.0151067 0.0278538 7.48042e-20)
(0.0248763 0.0251027 -1.60262e-19)
(0.035136 0.0229463 -1.92917e-20)
(0.0457186 0.0216804 2.20943e-19)
(0.0564661 0.0217539 -1.0316e-19)
(0.0673052 0.0238726 4.43733e-20)
(0.0769787 0.0282818 2.9872e-20)
(-0.00676308 0.00993664 -1.09248e-19)
(-0.0176542 0.0251822 1.08569e-19)
(-0.0264728 0.0364736 -6.11373e-20)
(-0.0332155 0.0445875 -1.96217e-19)
(-0.0379942 0.0501392 -1.80604e-19)
(-0.0409629 0.0536307 -7.98608e-20)
(-0.0422707 0.0554799 -6.61748e-20)
(-0.042058 0.0560287 -1.9564e-19)
(-0.0404535 0.0555537 -7.90483e-20)
(-0.0375724 0.0542774 7.20652e-20)
(-0.033516 0.0523773 -1.02836e-19)
(-0.0283728 0.0499954 -1.08525e-19)
(-0.0222197 0.0472448 -1.01852e-19)
(-0.0151241 0.0442172 1.85051e-19)
(-0.00714575 0.0409893 -3.8857e-19)
(0.00166165 0.03763 2.22014e-19)
(0.0112476 0.0342083 -3.79685e-19)
(0.0215617 0.0308035 -5.85425e-20)
(0.0325497 0.0275196 -2.08719e-19)
(0.0441437 0.0245033 -4.87993e-20)
(0.0562376 0.0219633 -5.94984e-20)
(0.0686568 0.020199 -1.98906e-19)
(0.0812361 0.0197151 -2.18772e-20)
(0.0939049 0.0213854 1.21895e-19)
(0.105208 0.0256319 -3.16443e-19)
(-0.0072907 0.0100432 9.37107e-20)
(-0.0188355 0.0253388 1.22499e-19)
(-0.0279133 0.0365872 4.28768e-19)
(-0.0345766 0.0446044 -7.52417e-20)
(-0.0389801 0.0500367 1.79038e-19)
(-0.0413127 0.0534091 4.26402e-19)
(-0.041754 0.0551558 -1.16186e-19)
(-0.0404696 0.0556301 1.5721e-19)
(-0.0376096 0.0551161 9.16507e-20)
(-0.0333069 0.0538413 1.66106e-19)
(-0.0276788 0.0519863 -3.32352e-20)
(-0.0208286 0.0496937 2.2485e-20)
(-0.0128479 0.0470758 -5.82084e-20)
(-0.00381986 0.0442207 3.1454e-19)
(0.00617905 0.0411985 4.02112e-20)
(0.0170761 0.0380669 2.91808e-19)
(0.0288003 0.0348783 -7.46695e-20)
(0.0412794 0.0316884 2.67064e-19)
(0.0544375 0.0285692 3.75421e-20)
(0.0681881 0.0256291 1.35891e-19)
(0.0824104 0.0230348 -5.87118e-20)
(0.096916 0.0210508 -1.0589e-20)
(0.111536 0.020193 3.23518e-19)
(0.12624 0.0214868 1.9922e-19)
(0.139392 0.025549 -8.28824e-20)
(-0.00780895 0.0100973 -2.26953e-19)
(-0.0199513 0.0253408 -2.29885e-19)
(-0.0291962 0.036458 -2.40201e-19)
(-0.0356561 0.0443058 8.8017e-20)
(-0.0395311 0.0495632 -1.76702e-19)
(-0.041046 0.0527796 -2.63214e-20)
(-0.040411 0.0544058 -6.93613e-20)
(-0.0378169 0.0548073 -2.87575e-19)
(-0.0334338 0.054277 -4.48895e-20)
(-0.0274122 0.0530486 7.37048e-20)
(-0.0198844 0.0513078 -2.31177e-19)
(-0.0109681 0.049201 3.20433e-19)
(-0.00077048 0.0468431 -4.34998e-19)
(0.0106085 0.0443236 1.04727e-19)
(0.0230723 0.0417115 -2.66248e-19)
(0.0365241 0.0390601 -2.161e-19)
(0.0508645 0.0364117 -1.23309e-20)
(0.0659883 0.033803 -3.27129e-20)
(0.0817832 0.0312758 2.5729e-20)
(0.0981255 0.0288927 -1.23548e-19)
(0.11486 0.0267573 -8.55604e-20)
(0.131768 0.0250548 1.05268e-19)
(0.148669 0.0242413 -2.91277e-19)
(0.16562 0.0254318 9.47471e-20)
(0.180882 0.0294117 6.73499e-20)
(-0.00831121 0.0100969 -4.02269e-20)
(-0.0209767 0.0251822 -6.6679e-20)
(-0.0302737 0.0360772 2.59278e-19)
(-0.03638 0.0436814 9.6369e-20)
(-0.0395432 0.0487078 1.27498e-19)
(-0.0400255 0.0517309 -1.70249e-19)
(-0.0380678 0.0532191 3.27593e-22)
(-0.0338853 0.0535503 -1.37651e-19)
(-0.0276677 0.0530266 2.54387e-19)
(-0.0195812 0.0518898 8.30178e-20)
(-0.0097726 0.0503321 9.31234e-20)
(0.00162655 0.0485067 -3.70104e-19)
(0.0144941 0.0465354 4.56458e-19)
(0.0287121 0.0445143 -1.37037e-19)
(0.044162 0.0425188 -9.80842e-20)
(0.0607196 0.0406071 2.93815e-19)
(0.0782502 0.0388229 1.31215e-19)
(0.0966054 0.0371977 -3.32073e-19)
(0.11562 0.035756 -1.3884e-19)
(0.135112 0.0345237 4.18911e-19)
(0.154863 0.0335375 -3.20405e-19)
(0.17459 0.0328687 1.92754e-19)
(0.194067 0.0328235 1.0801e-19)
(0.21348 0.034484 -1.38932e-19)
(0.231157 0.0387132 -1.33913e-19)
(-0.00878992 0.01004 -1.47909e-19)
(-0.0218834 0.0248574 2.29866e-19)
(-0.0310922 0.0354374 9.78695e-20)
(-0.0366652 0.0427236 -1.41294e-19)
(-0.0389006 0.0474639 -2.26031e-20)
(-0.0380995 0.0502585 -1.48014e-19)
(-0.0345336 0.0515933 -5.89275e-20)
(-0.028442 0.0518588 6.61692e-20)
(-0.0200329 0.0513669 -1.65419e-20)
(-0.00948779 0.0503674 1.2476e-19)
(0.00303344 0.049061 -1.08355e-19)
(0.0173858 0.0476094 2.99839e-19)
(0.0334323 0.0461444 -3.71667e-19)
(0.0510374 0.0447737 2.31755e-19)
(0.0700597 0.0435861 2.88059e-19)
(0.0903456 0.042655 -4.16457e-19)
(0.111722 0.0420404 -1.26838e-19)
(0.133991 0.0417893 2.13806e-19)
(0.156922 0.0419357 -1.32054e-19)
(0.18025 0.0425011 1.27748e-19)
(0.203658 0.0434869 -3.09729e-19)
(0.226742 0.0448567 5.15192e-20)
(0.249159 0.0466986 2.02489e-19)
(0.271217 0.0499193 -3.26269e-19)
(0.291625 0.0552984 8.79456e-20)
(-0.00923642 0.00992469 -1.36692e-19)
(-0.0226391 0.0243614 4.2851e-19)
(-0.0315908 0.0345336 8.22227e-20)
(-0.0364182 0.0414293 -2.22122e-19)
(-0.0374744 0.0458319 1.59085e-19)
(-0.0351004 0.0483674 8.08004e-20)
(-0.0295994 0.0495391 1.28911e-19)
(-0.0212345 0.0497493 -8.39308e-21)
(-0.0102321 0.0493193 -1.34139e-20)
(0.00321151 0.0485069 -2.811e-20)
(0.018923 0.047521 -1.22661e-19)
(0.036744 0.0465325 -4.17011e-21)
(0.0565225 0.0456841 2.86519e-19)
(0.0781048 0.0450973 -4.70053e-19)
(0.101328 0.0448787 3.34432e-19)
(0.12601 0.0451248 6.7693e-20)
(0.151944 0.0459254 1.19755e-19)
(0.178882 0.0473665 -6.19255e-20)
(0.20653 0.0495311 5.48857e-19)
(0.234524 0.0524988 -3.40272e-19)
(0.262411 0.0563271 2.72515e-19)
(0.289572 0.0609923 6.43891e-20)
(0.315363 0.0664931 -2.00379e-19)
(0.340011 0.0736619 1.6996e-19)
(0.362947 0.0828601 2.63585e-19)
(-0.00964052 0.009749 -3.96578e-20)
(-0.0232067 0.0236901 -1.51059e-19)
(-0.0317001 0.0333632 -2.58036e-19)
(-0.0355341 0.0398006 -1.46937e-19)
(-0.0351205 0.043821 -2.05391e-20)
(-0.0308429 0.0460758 -5.79539e-20)
(-0.0230371 0.0470846 -2.68683e-19)
(-0.0119907 0.0472604 4.45503e-20)
(0.00205051 0.0469327 -3.01727e-19)
(0.018874 0.0463661 -2.34106e-20)
(0.0382912 0.0457758 -2.89259e-19)
(0.0601277 0.0453401 -1.03012e-19)
(0.0842142 0.0452103 5.91361e-20)
(0.110378 0.0455193 -2.81442e-19)
(0.138434 0.0463889 2.53728e-21)
(0.16818 0.0479374 -2.42633e-19)
(0.199385 0.0502873 9.37669e-20)
(0.231781 0.0535737 -3.39237e-19)
(0.265051 0.0579567 -5.82749e-20)
(0.298801 0.0636357 -8.09542e-21)
(0.332517 0.070851 -5.75337e-20)
(0.36544 0.0798578 -5.89556e-20)
(0.396562 0.0911096 -2.93233e-20)
(0.425249 0.106051 -1.18507e-19)
(0.449926 0.123901 -2.54762e-19)
(-0.0099902 0.00951088 7.25708e-20)
(-0.0235433 0.0228404 1.91416e-19)
(-0.0313414 0.0319274 2.29948e-19)
(-0.0338949 0.0378467 -1.83638e-19)
(-0.0316793 0.0414512 3.40728e-19)
(-0.025124 0.043417 -1.84879e-19)
(-0.0145993 0.0442782 1.004e-19)
(-0.00042014 0.0444571 1.56493e-19)
(0.0171454 0.044289 1.42321e-19)
(0.0378645 0.0440426 6.92063e-20)
(0.0615276 0.0439363 1.11797e-19)
(0.0879378 0.0441509 6.50052e-20)
(0.116901 0.0448399 4.39367e-19)
(0.148218 0.0461388 -3.19318e-19)
(0.18168 0.0481728 3.6472e-19)
(0.21706 0.0510656 -1.51621e-19)
(0.254116 0.0549491 3.27541e-19)
(0.292593 0.0599768 -1.54152e-20)
(0.332219 0.0663443 -6.7878e-20)
(0.372723 0.0743194 -1.24727e-20)
(0.413839 0.0842826 2.58508e-19)
(0.455347 0.0968296 -2.53424e-19)
(0.497365 0.113216 1.77886e-19)
(0.54049 0.135467 1.97778e-19)
(0.580716 0.158215 4.09494e-20)
(-0.0102709 0.00920804 5.02019e-20)
(-0.0235992 0.0218102 -2.73634e-19)
(-0.0304255 0.030231 -9.93464e-20)
(-0.0313688 0.035584 9.07416e-20)
(-0.026975 0.0387544 -2.79262e-19)
(-0.0177228 0.0404414 -5.50299e-20)
(-0.0040217 0.0411915 3.81764e-20)
(0.0137819 0.0414337 1.50791e-19)
(0.0353913 0.0415062 -3.81609e-19)
(0.0605448 0.0416781 2.90162e-20)
(0.0890014 0.0421657 -1.11525e-19)
(0.120529 0.0431456 -3.38907e-19)
(0.154893 0.0447644 2.3089e-19)
(0.191853 0.047147 9.89864e-21)
(0.231153 0.0504038 -6.9457e-21)
(0.272527 0.0546376 2.32989e-19)
(0.3157 0.0599505 -4.12075e-19)
(0.360399 0.066452 3.2651e-19)
(0.406365 0.0742691 -6.03295e-20)
(0.453382 0.0835568 1.90949e-19)
(0.501303 0.0945038 -3.14296e-19)
(0.55011 0.10736 1.80638e-19)
(0.600161 0.122648 -3.24113e-19)
(0.652278 0.141049 3.34984e-19)
(0.701331 0.157045 -1.04295e-19)
(-0.0104652 0.00883795 3.37101e-19)
(-0.023317 0.0205988 -5.48899e-20)
(-0.0288518 0.0282831 4.04608e-19)
(-0.0278103 0.0330372 1.87236e-19)
(-0.0208162 0.0357755 1.50401e-20)
(-0.0084037 0.0372173 8.16646e-20)
(0.00897277 0.0379192 1.97215e-20)
(0.0309271 0.0383135 3.32479e-19)
(0.0571235 0.0387375 1.07059e-19)
(0.087258 0.0394558 -1.43639e-20)
(0.121041 0.0406764 2.87479e-20)
(0.158185 0.0425634 1.1065e-19)
(0.198394 0.0452459 9.23591e-20)
(0.241355 0.0488252 1.97678e-19)
(0.286742 0.0533805 -2.2519e-19)
(0.334213 0.0589733 6.8051e-20)
(0.383422 0.0656515 2.06394e-20)
(0.43403 0.0734525 1.00801e-19)
(0.48572 0.0824041 2.73471e-19)
(0.538221 0.0925232 -1.78348e-19)
(0.59133 0.103804 1.53355e-20)
(0.644934 0.116206 -2.53081e-19)
(0.699119 0.129766 2.39753e-19)
(0.75426 0.144796 -2.32417e-19)
(0.80547 0.157923 2.21319e-20)
(-0.0105524 0.00839815 -2.8114e-19)
(-0.0226316 0.0192073 2.1488e-19)
(-0.0265086 0.0260981 -3.49595e-19)
(-0.0230608 0.0302402 3.01342e-20)
(-0.0129989 0.0325722 2.45804e-19)
(0.00307974 0.0338308 -4.09293e-19)
(0.0246662 0.0345786 3.24552e-19)
(0.0513226 0.035247 -5.1472e-19)
(0.0826583 0.0361674 1.02536e-19)
(0.118307 0.0375937 2.19204e-20)
(0.157908 0.0397181 1.7284e-19)
(0.20109 0.0426827 -5.74179e-19)
(0.247465 0.0465881 9.9132e-20)
(0.296619 0.0514995 1.05022e-19)
(0.348119 0.0574511 -6.2986e-20)
(0.401515 0.0644499 -3.90811e-19)
(0.456354 0.0724783 1.83983e-19)
(0.512191 0.0814943 3.44599e-19)
(0.568608 0.0914314 -3.63847e-19)
(0.625229 0.102194 2.6408e-19)
(0.681737 0.113646 -3.42805e-19)
(0.737872 0.125595 2.49275e-19)
(0.793467 0.137864 -6.94357e-20)
(0.848553 0.150691 3.97069e-19)
(0.899141 0.16251 -4.54014e-19)
(-0.010508 0.00788642 4.01969e-20)
(-0.0214695 0.0176395 3.17029e-20)
(-0.0232737 0.0236958 7.75867e-20)
(-0.0169511 0.0272361 2.76956e-19)
(-0.00331016 0.0292162 -8.6823e-21)
(0.0169777 0.0303855 6.18343e-20)
(0.0433355 0.0313078 2.75195e-19)
(0.0752559 0.0324078 1.11013e-19)
(0.112272 0.0340047 -3.65713e-20)
(0.153928 0.0363337 3.11221e-19)
(0.199762 0.0395614 -3.54353e-19)
(0.249287 0.0437973 5.43639e-19)
(0.301987 0.0491015 -2.15717e-19)
(0.357316 0.0554906 3.91542e-19)
(0.414701 0.0629426 -1.3221e-19)
(0.473558 0.0714011 4.82335e-20)
(0.533304 0.0807778 5.84535e-20)
(0.593373 0.0909552 -1.13125e-19)
(0.653235 0.101787 9.46815e-20)
(0.71241 0.113097 6.0954e-20)
(0.770482 0.124674 8.42409e-20)
(0.827089 0.136263 1.79044e-19)
(0.881929 0.14761 -1.50432e-20)
(0.934873 0.158898 -8.1978e-20)
(0.983082 0.169921 2.48203e-19)
(-0.0103043 0.00730124 -2.35079e-19)
(-0.0197495 0.0159024 2.48565e-20)
(-0.0190159 0.0211033 -4.46545e-19)
(-0.00930401 0.0240786 -1.06599e-19)
(0.00846658 0.0257928 -1.99542e-19)
(0.0335356 0.0270016 -4.27698e-20)
(0.0652391 0.0282632 -2.13563e-19)
(0.102977 0.0299883 -1.27606e-19)
(0.146176 0.0324749 1.6892e-19)
(0.19426 0.0359289 -2.81899e-19)
(0.246627 0.04048 -7.82957e-20)
(0.30264 0.0461918 3.116e-21)
(0.361621 0.0530707 -5.29342e-19)
(0.422859 0.0610726 2.25069e-19)
(0.485622 0.0701093 -3.28696e-19)
(0.549177 0.0800548 -1.02811e-20)
(0.612807 0.0907505 6.50032e-20)
(0.675835 0.102011 -1.05352e-19)
(0.737644 0.113628 -9.24528e-20)
(0.797687 0.125373 4.6374e-20)
(0.8555 0.137002 5.19941e-20)
(0.910698 0.14825 -3.36689e-19)
(0.962958 0.158857 1.9209e-19)
(1.01213 0.168954 9.74266e-20)
(1.05644 0.17926 2.73012e-20)
(-0.00990968 0.00664236 2.40469e-19)
(-0.0173836 0.0140079 -2.5648e-19)
(-0.0135969 0.0183557 3.59664e-19)
(6.13803e-05 0.0208331 5.59748e-20)
(0.0225443 0.0224016 -1.71468e-20)
(0.0529831 0.0238152 -1.20757e-19)
(0.0906023 0.0256171 1.81599e-20)
(0.134678 0.0281942 1.8358e-19)
(0.184494 0.0318112 -2.53215e-19)
(0.239316 0.0366317 2.65924e-19)
(0.298363 0.0427334 -2.80955e-20)
(0.360809 0.0501192 1.23374e-20)
(0.425784 0.0587275 3.45886e-19)
(0.492394 0.0684417 4.63822e-19)
(0.559738 0.0790993 -1.81453e-19)
(0.626939 0.0905019 3.22812e-19)
(0.693171 0.102425 1.64358e-19)
(0.75768 0.114626 -1.00338e-19)
(0.819809 0.126853 3.19049e-19)
(0.879008 0.138855 -1.18174e-20)
(0.93484 0.150381 -3.07604e-19)
(0.986977 0.161189 3.25416e-19)
(1.03518 0.171051 4.7405e-20)
(1.07937 0.180066 -2.0274e-19)
(1.11866 0.189515 6.35258e-20)
(-0.00928972 0.00591147 -3.34554e-19)
(-0.0142784 0.0119739 3.4962e-19)
(-0.00687478 0.0154978 -2.21796e-19)
(0.0113243 0.0175775 -6.91826e-20)
(0.0391243 0.019157 -1.54866e-19)
(0.0755232 0.0209774 2.73812e-19)
(0.119602 0.0235553 -1.58903e-19)
(0.170473 0.0272395 -7.28121e-20)
(0.22724 0.0322466 -2.08399e-19)
(0.288961 0.0386809 5.37655e-21)
(0.354639 0.0465508 -8.15209e-20)
(0.423229 0.0557818 3.97239e-20)
(0.493648 0.0662302 -4.17982e-19)
(0.564812 0.0776964 1.1908e-19)
(0.635666 0.0899391 -1.43943e-19)
(0.705219 0.10269 -1.16199e-19)
(0.772579 0.115666 3.58304e-20)
(0.836975 0.128585 -1.70069e-19)
(0.897781 0.141173 -7.35275e-20)
(0.954515 0.153178 2.1097e-19)
(1.00685 0.164371 8.998e-20)
(1.05459 0.174554 -3.82082e-19)
(1.09764 0.183554 2.81836e-19)
(1.13608 0.19147 -5.34019e-20)
(1.16969 0.19984 -1.10947e-19)
(-0.00840726 0.00511288 -1.21931e-19)
(-0.0103369 0.00982582 -6.52236e-20)
(0.00129277 0.012586 -1.30165e-20)
(0.0246565 0.014404 9.53944e-20)
(0.0583878 0.0161886 1.03715e-19)
(0.101319 0.0186534 9.02698e-20)
(0.152349 0.0222728 1.12274e-19)
(0.210383 0.02734 1.71321e-19)
(0.274293 0.0340041 2.61809e-19)
(0.342891 0.04229 2.58986e-19)
(0.414929 0.0521171 1.36762e-19)
(0.489117 0.0633168 -3.67203e-20)
(0.56416 0.0756505 9.16126e-21)
(0.638801 0.0888295 -1.26339e-20)
(0.711864 0.102534 1.08331e-19)
(0.782301 0.116434 -2.91728e-20)
(0.849221 0.130206 3.22524e-19)
(0.911912 0.143545 -1.44288e-19)
(0.969855 0.156183 2.44951e-21)
(1.02272 0.167889 1.02919e-19)