/*--------------------------------*- C++ -*----------------------------------*\
  =========                 |
  \\      /  F ield         | OpenFOAM: The Open Source CFD Toolbox
   \\    /   O peration     | Website:  https://openfoam.org
    \\  /    A nd           | Version:  6.0
     \\/     M anipulation  |
\*---------------------------------------------------------------------------*/
FoamFile
{
    version     2.0;
    format      ascii;
    class       volScalarField;
    location    "75";
    object      p;
}
// * * * * * * * * * * * * * * * * * * * * * * * * * * * * * * * * * * * * * //

dimensions      [0 2 -2 0 0 0 0];

internalField   nonuniform List<scalar> 
4000
(
-0.658771
-0.643614
-0.62822
-0.608961
-0.584943
-0.557479
-0.528236
-0.498687
-0.469924
-0.442617
-0.417093
-0.393443
-0.371618
-0.351498
-0.332934
-0.315776
-0.299885
-0.285095
-0.271187
-0.258477
-0.662297
-0.646775
-0.630275
-0.609084
-0.582684
-0.552838
-0.521521
-0.490335
-0.46037
-0.432232
-0.406163
-0.382179
-0.36017
-0.339974
-0.321412
-0.304314
-0.288525
-0.273858
-0.26008
-0.247601
-0.663328
-0.647527
-0.629875
-0.606683
-0.577911
-0.545793
-0.512582
-0.47997
-0.449011
-0.420226
-0.393771
-0.369584
-0.347502
-0.327325
-0.308846
-0.291878
-0.276254
-0.261765
-0.248172
-0.235978
-0.661522
-0.645531
-0.626696
-0.601479
-0.570405
-0.536182
-0.501302
-0.4675
-0.435768
-0.406531
-0.379851
-0.355599
-0.33356
-0.3135
-0.295192
-0.278432
-0.263041
-0.248792
-0.23544
-0.223591
-0.656568
-0.640473
-0.620448
-0.59323
-0.559983
-0.523872
-0.48758
-0.452844
-0.420571
-0.39108
-0.364344
-0.340168
-0.318293
-0.298456
-0.280409
-0.26394
-0.248858
-0.234914
-0.221869
-0.210428
-0.648187
-0.632075
-0.610877
-0.581735
-0.546502
-0.508765
-0.471347
-0.435951
-0.403376
-0.373834
-0.347212
-0.323255
-0.301669
-0.282164
-0.264477
-0.248387
-0.233692
-0.220125
-0.207456
-0.196487
-0.636145
-0.620104
-0.597782
-0.566846
-0.529863
-0.490799
-0.452562
-0.416785
-0.38415
-0.35476
-0.328424
-0.304835
-0.283666
-0.264605
-0.247381
-0.231762
-0.217537
-0.204424
-0.192205
-0.181776
-0.620257
-0.604376
-0.581013
-0.54846
-0.51001
-0.469946
-0.43121
-0.395336
-0.362882
-0.333848
-0.30797
-0.284897
-0.264274
-0.245775
-0.229117
-0.214065
-0.200399
-0.187821
-0.176129
-0.166309
-0.600395
-0.584766
-0.560476
-0.526532
-0.486931
-0.446212
-0.407302
-0.371614
-0.339579
-0.3111
-0.28585
-0.263441
-0.243496
-0.225677
-0.209695
-0.195309
-0.182293
-0.170335
-0.159253
-0.15011
-0.576488
-0.561207
-0.536136
-0.501064
-0.460656
-0.419639
-0.380878
-0.345652
-0.314268
-0.286539
-0.262084
-0.240485
-0.221348
-0.204329
-0.189131
-0.175514
-0.163244
-0.151997
-0.141612
-0.133216
-0.548529
-0.533694
-0.508019
-0.472113
-0.431259
-0.390301
-0.352006
-0.317509
-0.286997
-0.260203
-0.236703
-0.216056
-0.197856
-0.181754
-0.167452
-0.154708
-0.143282
-0.132843
-0.123251
-0.115683
-0.516573
-0.502286
-0.476205
-0.439784
-0.398851
-0.358304
-0.320779
-0.287264
-0.257831
-0.232149
-0.209756
-0.190195
-0.173055
-0.157984
-0.144687
-0.132921
-0.122441
-0.112914
-0.104221
-0.0975668
-0.480736
-0.467102
-0.440835
-0.40423
-0.363586
-0.323788
-0.28732
-0.255021
-0.226861
-0.20245
-0.181303
-0.162953
-0.146988
-0.133058
-0.12087
-0.110183
-0.100752
-0.0922451
-0.0845649
-0.0789037
-0.441194
-0.428318
-0.402099
-0.365648
-0.32565
-0.286924
-0.251779
-0.220909
-0.194195
-0.1712
-0.151423
-0.134394
-0.119706
-0.107014
-0.0960314
-0.0865219
-0.0782423
-0.0708706
-0.0643157
-0.0596921
-0.39818
-0.386168
-0.360238
-0.324278
-0.28527
-0.247913
-0.214333
-0.185083
-0.159966
-0.138511
-0.120207
-0.10459
-0.0912619
-0.0798889
-0.0701958
-0.0619535
-0.0549277
-0.0488098
-0.043487
-0.0399328
-0.35198
-0.340935
-0.315539
-0.280396
-0.2427
-0.206985
-0.175185
-0.147722
-0.12433
-0.104516
-0.0877679
-0.0736306
-0.0617219
-0.0517256
-0.0433837
-0.0364812
-0.0307984
-0.0260464
-0.0220876
-0.019761
-0.302927
-0.292949
-0.268326
-0.234313
-0.198227
-0.1644
-0.134567
-0.109031
-0.087471
-0.0693752
-0.0542386
-0.0416227
-0.0311665
-0.0225794
-0.0156287
-0.010117
-0.00584402
-0.00258264
-0.000258915
0.000383168
-0.251395
-0.242576
-0.21896
-0.18637
-0.152165
-0.12044
-0.0927365
-0.0692453
-0.0495961
-0.0332696
-0.019771
-0.00868257
0.000328075
0.00751448
0.013072
0.0171753
0.0199774
0.0215139
0.0216248
0.0199736
-0.197791
-0.190218
-0.167829
-0.136932
-0.104849
-0.0754158
-0.0499788
-0.0286265
-0.0109478
0.00358305
0.0154513
0.0250563
0.0327029
0.0386052
0.0429182
0.0457816
0.0472196
0.0468376
0.0441179
0.040109
-0.142552
-0.136301
-0.115343
-0.0863821
-0.0566338
-0.0296553
-0.00660206
0.0125308
0.0281897
0.0409069
0.0511642
0.0593558
0.0657808
0.07065
0.0741301
0.0763765
0.077268
0.0758731
0.071457
0.0670389
-0.0861344
-0.0812699
-0.0619268
-0.0351169
-0.00788644
0.0165003
0.0370702
0.0539121
0.0675008
0.0783722
0.0870059
0.093798
0.0990617
0.103048
0.106014
0.108247
0.109694
0.109274
0.106731
0.110976
-0.028999
-0.0255775
-0.0080115
0.0164624
0.0410228
0.0627057
0.0807113
0.0952014
0.106671
0.115652
0.122616
0.12795
0.131965
0.134923
0.137099
0.138763
0.139884
0.139944
0.139924
0.146433
0.0283789
0.0303149
0.0459669
0.0679536
0.0897247
0.108619
0.124
0.136092
0.145402
0.152456
0.15771
0.16154
0.16425
0.166101
0.167352
0.168227
0.16869
0.168422
0.168417
0.173716
0.0855261
0.085948
0.0995768
0.11896
0.137857
0.153908
0.166626
0.176291
0.183412
0.188503
0.192002
0.194267
0.195587
0.19621
0.196371
0.196272
0.195893
0.194991
0.194377
0.198034
0.141975
0.140869
0.152395
0.169095
0.185068
0.198251
0.208296
0.215525
0.220449
0.223563
0.225282
0.225943
0.225817
0.225127
0.224085
0.222859
0.22142
0.219556
0.218009
0.220151
0.19727
0.194636
0.204009
0.217985
0.231021
0.241342
0.248731
0.253541
0.25628
0.257421
0.257356
0.2564
0.254799
0.252758
0.250463
0.248053
0.245484
0.242569
0.240009
0.240705
0.250966
0.246821
0.254022
0.265271
0.275392
0.282892
0.287668
0.290102
0.290692
0.289889
0.28806
0.285497
0.282423
0.279023
0.275458
0.271844
0.268126
0.264147
0.260574
0.259908
0.30264
0.297015
0.302057
0.31061
0.317876
0.322626
0.324861
0.324986
0.323487
0.320792
0.317243
0.313108
0.308591
0.303855
0.299042
0.294245
0.289406
0.284395
0.279839
0.277884
0.351885
0.344828
0.347754
0.353681
0.358184
0.360285
0.360078
0.357987
0.354481
0.349966
0.344763
0.339114
0.333205
0.32718
0.321163
0.315228
0.309318
0.303328
0.297836
0.294664
0.398321
0.389893
0.390776
0.394179
0.396045
0.395625
0.393102
0.388908
0.383499
0.377259
0.370485
0.363399
0.356168
0.34892
0.341761
0.334751
0.327835
0.320931
0.314555
0.31024
0.441589
0.431868
0.430807
0.431822
0.431205
0.428422
0.423729
0.417567
0.410379
0.402525
0.39428
0.385849
0.377382
0.36899
0.360765
0.352755
0.344908
0.33716
0.32996
0.324579
0.48136
0.470437
0.467557
0.466349
0.463432
0.458465
0.45177
0.443795
0.434967
0.425625
0.416026
0.406356
0.39675
0.387306
0.378101
0.369174
0.360478
0.351961
0.344002
0.337637
0.517332
0.50531
0.500762
0.497522
0.492511
0.485563
0.477053
0.467436
0.457121
0.446432
0.435606
0.424815
0.414178
0.403783
0.393693
0.383938
0.374479
0.365273
0.356626
0.349365
0.549232
0.536227
0.530183
0.525128
0.518251
0.509541
0.499421
0.488345
0.476712
0.464828
0.452914
0.441128
0.429578
0.418339
0.407465
0.396979
0.386848
0.377034
0.367773
0.359712
0.576821
0.56296
0.555611
0.548976
0.540482
0.530247
0.518734
0.506397
0.493625
0.480707
0.467853
0.455207
0.442867
0.4309
0.419349
0.408233
0.397523
0.387185
0.377392
0.368633
0.599891
0.58531
0.576863
0.568903
0.559056
0.547547
0.53487
0.521481
0.507757
0.493976
0.480337
0.466972
0.453973
0.441398
0.429281
0.417639
0.406447
0.395673
0.385432
0.376084
0.618269
0.603112
0.593788
0.584773
0.57385
0.561329
0.547728
0.533504
0.519023
0.504557
0.490293
0.476358
0.462835
0.449775
0.437209
0.425148
0.413573
0.402452
0.391851
0.38203
0.631817
0.616234
0.606265
0.596476
0.584766
0.571503
0.557226
0.54239
0.527355
0.512386
0.497664
0.483309
0.4694
0.455984
0.443087
0.430717
0.41886
0.407484
0.396615
0.386441
0.640431
0.624579
0.614204
0.603932
0.59173
0.578004
0.563304
0.548084
0.532701
0.517416
0.502404
0.487785
0.473632
0.459989
0.446882
0.434316
0.42228
0.41074
0.399699
0.389296
0.644046
0.628082
0.617549
0.607089
0.594695
0.580789
0.565922
0.550549
0.535028
0.519615
0.504486
0.489758
0.475505
0.461769
0.448573
0.435925
0.423812
0.412203
0.401087
0.39058
0.642632
0.626717
0.616273
0.605923
0.593641
0.579838
0.565063
0.549771
0.534321
0.518971
0.503898
0.489219
0.475009
0.461312
0.448151
0.435534
0.423449
0.411864
0.40077
0.390288
0.636198
0.62049
0.610383
0.600441
0.588573
0.575156
0.560731
0.545753
0.530585
0.515487
0.500642
0.48617
0.472148
0.458622
0.445619
0.433146
0.421193
0.409725
0.398752
0.388423
0.624788
0.609445
0.599918
0.590679
0.579523
0.566774
0.552954
0.538521
0.523841
0.509185
0.494739
0.480629
0.466937
0.453715
0.440991
0.428776
0.417057
0.405801
0.395044
0.384992
0.608484
0.59366
0.58495
0.5767
0.566551
0.554744
0.541781
0.528118
0.514133
0.500103
0.486224
0.47263
0.459409
0.446619
0.434294
0.422449
0.411065
0.400112
0.389667
0.380015
0.587404
0.573247
0.565582
0.558598
0.549739
0.539143
0.527281
0.51461
0.501518
0.488295
0.475148
0.46222
0.449608
0.437376
0.425568
0.414201
0.403253
0.392694
0.38265
0.373517
0.561702
0.548353
0.54195
0.536495
0.529198
0.52007
0.509545
0.498081
0.486075
0.473833
0.461576
0.449459
0.437589
0.426039
0.414861
0.404079
0.393665
0.383587
0.374032
0.365531
0.531569
0.519159
0.514217
0.510539
0.505063
0.497649
0.488686
0.478631
0.467896
0.456803
0.445589
0.434422
0.423421
0.412671
0.402234
0.392138
0.382353
0.372842
0.363859
0.356097
0.497225
0.485878
0.48258
0.480907
0.477491
0.472021
0.464833
0.45638
0.447091
0.437305
0.427277
0.417192
0.407183
0.397345
0.387753
0.378443
0.369379
0.360518
0.352185
0.34526
0.458928
0.448754
0.447262
0.4478
0.446664
0.443351
0.438135
0.431464
0.423783
0.415452
0.406745
0.397866
0.388961
0.380141
0.371492
0.363062
0.354808
0.346676
0.339066
0.333071
0.416964
0.408062
0.408516
0.411445
0.412785
0.411823
0.408757
0.404032
0.398108
0.391367
0.384105
0.376545
0.368849
0.361145
0.353532
0.346068
0.338707
0.331383
0.324563
0.319584
0.371651
0.364104
0.366619
0.372091
0.376079
0.377637
0.376882
0.37425
0.370216
0.365186
0.359479
0.353339
0.346947
0.340445
0.333951
0.327535
0.321147
0.314703
0.308736
0.30485
0.323334
0.317214
0.321875
0.330011
0.33679
0.341012
0.342708
0.342295
0.340266
0.337052
0.332996
0.328363
0.323355
0.318131
0.312828
0.307531
0.302188
0.296693
0.291636
0.288918
0.272386
0.267747
0.274614
0.285501
0.29518
0.302186
0.306444
0.308356
0.308428
0.307116
0.304788
0.301733
0.298175
0.294291
0.290237
0.286119
0.281884
0.2774
0.273304
0.271822
0.219204
0.216086
0.225186
0.238876
0.251533
0.26141
0.268318
0.272636
0.274883
0.275538
0.274996
0.273571
0.271507
0.269004
0.266239
0.263341
0.260262
0.25684
0.25375
0.253574
0.164207
0.162634
0.173963
0.190471
0.206148
0.218951
0.22857
0.23535
0.239822
0.242486
0.243766
0.243998
0.243452
0.242349
0.24089
0.239228
0.237329
0.235001
0.232946
0.234146
0.107836
0.107816
0.121339
0.140641
0.159341
0.175095
0.187454
0.196727
0.203447
0.208141
0.211253
0.213145
0.21411
0.214392
0.214216
0.213766
0.213023
0.211771
0.210751
0.213412
0.0505475
0.0520725
0.0677214
0.0897542
0.111445
0.130139
0.14524
0.157008
0.165979
0.172695
0.177625
0.181154
0.183594
0.185212
0.186263
0.186962
0.187303
0.18704
0.186979
0.191168
-0.00718821
-0.00413989
0.0135365
0.0381981
0.0628093
0.0844002
0.102214
0.116457
0.127656
0.136367
0.14308
0.148197
0.152047
0.154911
0.157065
0.158753
0.15995
0.160334
0.160892
0.166738
-0.0648903
-0.0603553
-0.04078
-0.0136292
0.0137942
0.0382064
0.0586794
0.075351
0.0887345
0.0993943
0.107832
0.114464
0.119625
0.123601
0.126682
0.12916
0.131015
0.131728
0.132284
0.139383
-0.122073
-0.116102
-0.094784
-0.0653201
-0.0352279
-0.00810018
0.0149528
0.0339905
0.0495041
0.0620604
0.0721707
0.0802603
0.0866672
0.0916648
0.0955299
0.0985733
0.10076
0.101001
0.0990176
0.103828
-0.17825
-0.170906
-0.148028
-0.116461
-0.083878
-0.0541693
-0.0286371
-0.00731134
0.010268
0.0246631
0.0363874
0.0458643
0.053418
0.0592807
0.0636386
0.0666697
0.068273
0.067497
0.063532
0.0594977
-0.23295
-0.224305
-0.200069
-0.166641
-0.131776
-0.0996478
-0.0717565
-0.0482324
-0.0286537
-0.0124668
0.000844516
0.0117079
0.0204522
0.0273108
0.0324538
0.0360386
0.0381069
0.0382478
0.0358653
0.0320342
-0.285707
-0.275843
-0.250473
-0.215454
-0.178547
-0.144187
-0.114075
-0.0884522
-0.0669403
-0.0489945
-0.0340901
-0.0217822
-0.011715
-0.00361657
0.00272246
0.00749121
0.0108599
0.0128655
0.0133011
0.0117738
-0.336077
-0.325085
-0.29882
-0.262507
-0.223828
-0.18745
-0.155279
-0.127671
-0.104302
-0.0846379
-0.0681447
-0.0543572
-0.0428911
-0.0334369
-0.025747
-0.0196103
-0.0148108
-0.011109
-0.00844253
-0.0076054
-0.383648
-0.371626
-0.344714
-0.307426
-0.267276
-0.229123
-0.195076
-0.165621
-0.140492
-0.119176
-0.101132
-0.0858811
-0.073017
-0.0622044
-0.0531691
-0.0456824
-0.0395103
-0.0343496
-0.0300569
-0.0274841
-0.428042
-0.415092
-0.387791
-0.349866
-0.30857
-0.268915
-0.233206
-0.202064
-0.175299
-0.152424
-0.1329
-0.11624
-0.102021
-0.0898926
-0.0795615
-0.0707845
-0.0633141
-0.0568288
-0.0512077
-0.0474223
-0.468926
-0.455154
-0.42772
-0.38951
-0.34742
-0.306564
-0.269432
-0.236793
-0.20854
-0.184223
-0.163317
-0.145327
-0.129826
-0.116449
-0.104893
-0.0949085
-0.0862379
-0.0785479
-0.0717403
-0.066932
-0.506019
-0.49153
-0.464215
-0.426078
-0.383565
-0.341835
-0.303549
-0.269626
-0.240056
-0.214439
-0.192269
-0.173055
-0.156366
-0.141831
-0.129145
-0.118051
-0.108291
-0.0995212
-0.0916364
-0.0858372
-0.539093
-0.523993
-0.497037
-0.459331
-0.416781
-0.374525
-0.335377
-0.300407
-0.269714
-0.242959
-0.219664
-0.199351
-0.181588
-0.166006
-0.152295
-0.140198
-0.12946
-0.119733
-0.110889
-0.104141
-0.567983
-0.552374
-0.526001
-0.489073
-0.446877
-0.404463
-0.364766
-0.329009
-0.297406
-0.269693
-0.245429
-0.224155
-0.205447
-0.188939
-0.174318
-0.161331
-0.149726
-0.13916
-0.129479
-0.121869
-0.592588
-0.576568
-0.550977
-0.515157
-0.473704
-0.43151
-0.391595
-0.355326
-0.323044
-0.294567
-0.269504
-0.247419
-0.227903
-0.210596
-0.195188
-0.181426
-0.169067
-0.157775
-0.147376
-0.139003
-0.612871
-0.596536
-0.571896
-0.537484
-0.497154
-0.455562
-0.41577
-0.37928
-0.346562
-0.317527
-0.291842
-0.269106
-0.248925
-0.230951
-0.214879
-0.20046
-0.187457
-0.175549
-0.164539
-0.155497
-0.628865
-0.612305
-0.588754
-0.556013
-0.517161
-0.476547
-0.437228
-0.400816
-0.367915
-0.338537
-0.312416
-0.28919
-0.268491
-0.249984
-0.233372
-0.218411
-0.204873
-0.192452
-0.180931
-0.171302
-0.640667
-0.623971
-0.601609
-0.570755
-0.533704
-0.494432
-0.455931
-0.419904
-0.387079
-0.357578
-0.331209
-0.307659
-0.286591
-0.267684
-0.250655
-0.235265
-0.221298
-0.208461
-0.196524
-0.186389
-0.648439
-0.631692
-0.610581
-0.581779
-0.546812
-0.509218
-0.471873
-0.436536
-0.40405
-0.374648
-0.348223
-0.324515
-0.303224
-0.28405
-0.266725
-0.251017
-0.236721
-0.223564
-0.211301
-0.20074
-0.652402
-0.635688
-0.615856
-0.589213
-0.556556
-0.520945
-0.485076
-0.450728
-0.418843
-0.389765
-0.363473
-0.339774
-0.318404
-0.299094
-0.281591
-0.265673
-0.251147
-0.23776
-0.225259
-0.214353
-0.652832
-0.636236
-0.617676
-0.593238
-0.563059
-0.52969
-0.495592
-0.462519
-0.431492
-0.402958
-0.37699
-0.353461
-0.332157
-0.312837
-0.295269
-0.279246
-0.264585
-0.251055
-0.2384
-0.22723
-0.65005
-0.633656
-0.616334
-0.59409
-0.56649
-0.535568
-0.503503
-0.471972
-0.442051
-0.414278
-0.388819
-0.365621
-0.34452
-0.325313
-0.307791
-0.291763
-0.277059
-0.263468
-0.25074
-0.239383
-0.644413
-0.62831
-0.612168
-0.592051
-0.567062
-0.538731
-0.508912
-0.479165
-0.450582
-0.423779
-0.399011
-0.376298
-0.355536
-0.33656
-0.31919
-0.303254
-0.288593
-0.275021
-0.262296
-0.250829
-0.636308
-0.620584
-0.605551
-0.587448
-0.565034
-0.539368
-0.511958
-0.484203
-0.457171
-0.431536
-0.407633
-0.385557
-0.365263
-0.346632
-0.329515
-0.313761
-0.299227
-0.285749
-0.273098
-0.261596
0.0510237
0.0211781
0.000350208
-0.00940547
-0.0184467
-0.0307448
-0.0444413
-0.0575616
-0.0698271
-0.0816641
-0.0933045
-0.1047
-0.115735
-0.126348
-0.136523
-0.146261
-0.155559
-0.164414
-0.172824
-0.180797
0.00289135
-0.0107087
-0.0211688
-0.0277197
-0.0331739
-0.039564
-0.0467764
-0.0538939
-0.0604533
-0.0665365
-0.0723464
-0.0779615
-0.0833553
-0.088487
-0.0933429
-0.09793
-0.102259
-0.106336
-0.110167
-0.113755
-0.000357992
-0.00558529
-0.00891035
-0.0123171
-0.0161077
-0.0200409
-0.0239691
-0.0278244
-0.0315627
-0.0351806
-0.0387077
-0.0421704
-0.0455748
-0.0489151
-0.0521867
-0.0553904
-0.0585302
-0.06161
-0.0646331
-0.0676022
0.000690616
-0.00226418
-0.00413509
-0.00660715
-0.00966136
-0.0127589
-0.0156622
-0.0184184
-0.0211116
-0.0237637
-0.0263617
-0.0288942
-0.0313595
-0.0337597
-0.0360958
-0.0383684
-0.0405784
-0.0427272
-0.0448168
-0.0468494
0.00213742
-0.000129616
-0.00140732
-0.00294159
-0.00490336
-0.00695539
-0.00887786
-0.0106715
-0.0124071
-0.0141218
-0.0158144
-0.0174747
-0.0190994
-0.0206913
-0.0222544
-0.0237919
-0.0253056
-0.0267977
-0.02827
-0.0297244
0.00352306
0.00176761
0.00086456
-0.000119873
-0.00141135
-0.00281851
-0.00417277
-0.00544856
-0.00668602
-0.00791501
-0.00913979
-0.010354
-0.011553
-0.0127368
-0.0139066
-0.0150637
-0.0162087
-0.0173417
-0.0184631
-0.0195731
0.00534003
0.00404196
0.00339519
0.0027138
0.0018125
0.000811239
-0.000169691
-0.00110322
-0.00201154
-0.00291507
-0.00381849
-0.00471835
-0.00561136
-0.00649672
-0.00737509
-0.00824721
-0.00911354
-0.00997435
-0.0108299
-0.0116806
0.00722832
0.0062862
0.00577768
0.00523822
0.00454953
0.00379065
0.00304019
0.00231757
0.0016102
0.000905402
0.000199807
-0.000504687
-0.00120593
-0.00190317
-0.0025966
-0.00328652
-0.00397313
-0.00465652
-0.00533677
-0.00601392
0.00892909
0.0082748
0.00785758
0.00739232
0.00683119
0.00623202
0.00564078
0.00506649
0.00450111
0.0039376
0.00337431
0.00281244
0.00225318
0.00169696
0.00114371
0.000593253
4.54883e-05
-0.000499656
-0.00104227
-0.00158236
0.0102618
0.00983085
0.00948759
0.00907507
0.00860161
0.00811543
0.00764053
0.00717691
0.00671809
0.0062605
0.00580394
0.00534931
0.00489719
0.00444766
0.00400059
0.00355586
0.00311336
0.00267301
0.00223469
0.00179838
0.0112168
0.0109483
0.0106744
0.0103188
0.00992312
0.00953012
0.00915115
0.00878069
0.00841274
0.00804551
0.00767964
0.00731592
0.00695456
0.00659543
0.00623831
0.00588305
0.00552953
0.00517764
0.00482723
0.00447824
0.0118681
0.0117146
0.0115079
0.0112168
0.0108974
0.0105878
0.0102929
0.0100048
0.0097178
0.00943101
0.00914534
0.00886147
0.00857946
0.00829902
0.0080199
0.00774192
0.00746493
0.0071888
0.00691338
0.00663858
0.012336
0.0122749
0.0121365
0.0119138
0.011669
0.0114369
0.0112191
0.011007
0.010795
0.0105826
0.0103708
0.0101601
0.00995036
0.00974133
0.00953265
0.00932408
0.00911546
0.00890661
0.00869736
0.00848761
0.0127001
0.0127299
0.0126631
0.012508
0.0123335
0.0121739
0.012029
0.0118889
0.0117481
0.011606
0.0114635
0.011321
0.0111783
0.011035
0.0108905
0.0107446
0.0105971
0.0104477
0.0102963
0.0101428
0.0130109
0.0131597
0.0131874
0.0131134
0.0130186
0.0129412
0.0128797
0.0128221
0.0127619
0.012698
0.0126314
0.0125623
0.0124903
0.0124148
0.0123353
0.0122515
0.012163
0.0120698
0.0119716
0.0118685
0.0131679
0.0134288
0.013593
0.0136612
0.0136995
0.0137443
0.0137972
0.0138482
0.0138907
0.013923
0.0139457
0.0139593
0.0139635
0.0139581
0.0139426
0.0139172
0.0138818
0.0138365
0.0137817
0.0137176
0.0137044
0.0140518
0.0144563
0.0148243
0.015132
0.0153926
0.0156213
0.015824
0.0160005
0.0161499
0.0162724
0.0163691
0.0164416
0.0164913
0.0165194
0.0165271
0.0165156
0.0164862
0.0164401
0.0163785
0.0165699
0.01719
0.0178384
0.0183824
0.0188167
0.0191716
0.0194684
0.019715
0.0199139
0.0200672
0.020178
0.0202498
0.0202861
0.0202902
0.0202651
0.0202134
0.0201378
0.0200406
0.0199241
0.0197903
0.0281565
0.0319131
0.0332987
0.032796
0.031873
0.0312076
0.0307859
0.0304227
0.0300211
0.029578
0.0291187
0.0286591
0.0282023
0.0277469
0.0272919
0.026838
0.0263865
0.0259385
0.0254947
0.0250559
0.0400874
0.0522229
0.0559699
0.0535084
0.0498938
0.0473262
0.0456989
0.0443755
0.0430287
0.0416413
0.0402863
0.0390059
0.037802
0.036662
0.0355759
0.0345394
0.0335508
0.032608
0.0317087
0.0308503
0.1168
0.117252
0.118165
0.119538
0.121367
0.123672
0.126466
0.129772
0.133598
0.137949
0.142801
0.148098
0.153714
0.159405
0.164733
0.16884
0.170134
0.165321
0.147443
0.100466
0.109171
0.109496
0.110092
0.110983
0.112129
0.113555
0.115192
0.117068
0.119054
0.121173
0.123179
0.125058
0.126332
0.126876
0.12574
0.122483
0.115073
0.102035
0.0781991
0.0371476
0.100191
0.100345
0.10061
0.100993
0.101464
0.102013
0.10257
0.103103
0.103489
0.103656
0.103397
0.10256
0.100793
0.09779
0.092966
0.0857413
0.0752576
0.0607001
0.0414611
0.0171543
0.0904737
0.0904728
0.0904534
0.0904111
0.0903259
0.0901658
0.0898751
0.0893872
0.0886083
0.0874292
0.0857082
0.0832717
0.0799213
0.0754043
0.0695061
0.061955
0.0526916
0.0415308
0.0284256
0.0120498
0.0806372
0.0805292
0.080309
0.0799689
0.0794969
0.078858
0.078011
0.0768895
0.0754299
0.0735382
0.0711358
0.0681034
0.0643689
0.0598087
0.0544125
0.0480827
0.0408795
0.0325682
0.0228938
0.0106879
0.0711785
0.0710113
0.0706759
0.070166
0.0694754
0.0685772
0.0674443
0.0660282
0.0642916
0.0621751
0.0596453
0.0566423
0.053155
0.0491316
0.0445942
0.0394696
0.0337549
0.0272143
0.0196083
0.0101183
0.062422
0.0622316
0.0618503
0.0612738
0.0604998
0.0595119
0.0582951
0.0568205
0.0550694
0.0530103
0.0506322
0.0479064
0.0448352
0.0413869
0.0375709
0.0333272
0.0286458
0.0233822
0.0174106
0.0102231
0.05453
0.05434
0.0539597
0.053386
0.0526188
0.0516496
0.0504717
0.0490698
0.0474361
0.0455537
0.0434196
0.0410167
0.0383477
0.0353909
0.032155
0.0286092
0.0247692
0.0205738
0.0159863
0.0107158
0.0475426
0.0473661
0.0470131
0.0464807
0.0457696
0.0448755
0.0437968
0.0425256
0.0410596
0.0393896
0.0375155
0.0354269
0.0331286
0.0306094
0.0278844
0.0249446
0.0218223
0.0185042
0.015024
0.0113005
0.0414215
0.0412642
0.04095
0.0404756
0.0398415
0.0390456
0.0380886
0.0369672
0.0356824
0.0342298
0.0326126
0.0308259
0.0288777
0.0267641
0.0245035
0.0220962
0.0195804
0.01697
0.014351
0.0117964
0.0360872
0.0359506
0.0356778
0.0352655
0.0347137
0.0340211
0.0331901
0.0322199
0.0311143
0.0298724
0.0285007
0.0269986
0.0253769
0.0236354
0.0217927
0.019852
0.0178524
0.0158222
0.0138742
0.012162
0.0314452
0.0313282
0.031095
0.0307421
0.0302694
0.0296763
0.0289662
0.0281402
0.0272037
0.0261581
0.0250119
0.0237673
0.0224375
0.0210258
0.0195517
0.0180203
0.0164687
0.0149276
0.0135142
0.0124083
0.0274038
0.0273034
0.0271041
0.0268027
0.0263994
0.0258946
0.0252932
0.0245979
0.0238153
0.0229476
0.0220034
0.0209852
0.0199071
0.0187751
0.017613
0.0164314
0.0152688
0.0141537
0.013194
0.0125679
0.0238856
0.023797
0.0236221
0.0233582
0.0230064
0.022569
0.022053
0.0214639
0.0208112
0.0200989
0.0193356
0.0185219
0.0176679
0.0167761
0.0158703
0.0149686
0.0141226
0.0133743
0.0128295
0.0126434
0.020837
0.0207535
0.0205898
0.0203435
0.0200167
0.0196132
0.0191431
0.0186156
0.018046
0.0174447
0.0168274
0.0161977
0.0155643
0.014918
0.0142664
0.0136109
0.0130077
0.0125272
0.0123286
0.0126041
0.0182338
0.0181481
0.0179808
0.017729
0.0173957
0.016984
0.0165058
0.0159716
0.0154032
0.0148185
0.0142508
0.0137216
0.0132649
0.0128799
0.0125691
0.0122814
0.0120152
0.011789
0.0118314
0.0124727
0.0160813
0.0159877
0.0158039
0.0155266
0.0151579
0.0146986
0.0141582
0.013543
0.0128734
0.0121667
0.0114663
0.0108145
0.0102948
0.00997461
0.00994641
0.0102044
0.0107018
0.0112438
0.0118373
0.0128848
0.0144077
0.014305
0.0140978
0.0137841
0.0133628
0.0128334
0.0121964
0.0114527
0.0106059
0.00966327
0.00864255
0.00757959
0.00654893
0.00568447
0.00520998
0.00543015
0.00665562
0.00897911
0.0120062
0.014895
0.0132558
0.0131456
0.012916
0.0125675
0.0120951
0.0114978
0.010765
0.00989341
0.00886387
0.00767011
0.00628171
0.00469376
0.0028773
0.00088399
-0.00118175
-0.00290373
-0.00350186
-0.00144788
0.0050671
0.017298
0.0126699
0.0125527
0.0123096
0.0119395
0.011437
0.0107972
0.0100072
0.00905443
0.00791368
0.00655862
0.00494018
0.00300195
0.000646177
-0.00224185
-0.0058246
-0.0101981
-0.0151761
-0.019369
-0.0177947
0.00525941
0.125204
0.125703
0.126825
0.128478
0.130806
0.133709
0.137427
0.141819
0.147257
0.153541
0.161247
0.170079
0.180961
0.193427
0.209051
0.227038
0.250283
0.277266
0.313596
0.355997
0.125199
0.125697
0.126819
0.128472
0.130798
0.1337
0.137416
0.141806
0.147241
0.153521
0.161221
0.170044
0.180912
0.19336
0.208952
0.226896
0.25006
0.276922
0.313051
0.3551
0.125161
0.125659
0.12678
0.128432
0.130756
0.133656
0.137367
0.141752
0.147179
0.15345
0.161135
0.169941
0.180777
0.193186
0.208706
0.226552
0.24954
0.276141
0.311821
0.353108
0.125092
0.12559
0.126709
0.128359
0.130679
0.133575
0.13728
0.141658
0.147073
0.153329
0.160992
0.169768
0.180557
0.192903
0.208312
0.22601
0.248725
0.274926
0.309913
0.350033
0.124992
0.125489
0.126606
0.128253
0.130569
0.133459
0.137156
0.141522
0.146923
0.153158
0.160791
0.169528
0.180253
0.192515
0.207775
0.225273
0.24762
0.273286
0.307334
0.345888
0.12486
0.125357
0.126472
0.128115
0.130426
0.133308
0.136994
0.141347
0.146728
0.152938
0.160534
0.169221
0.179866
0.192022
0.207097
0.224344
0.246231
0.271231
0.304095
0.340695
0.124697
0.125194
0.126306
0.127945
0.130249
0.133123
0.136796
0.141133
0.146491
0.15267
0.160222
0.168847
0.179399
0.191427
0.206282
0.223228
0.244566
0.268772
0.30021
0.33448
0.124504
0.125001
0.126109
0.127744
0.130039
0.132903
0.136562
0.140879
0.146211
0.152354
0.159855
0.16841
0.178854
0.190732
0.205334
0.221932
0.242632
0.265924
0.295695
0.327272
0.12428
0.124777
0.125882
0.127511
0.129797
0.13265
0.136292
0.140588
0.14589
0.151992
0.159436
0.167909
0.178233
0.189939
0.20426
0.22046
0.240442
0.262703
0.290567
0.319111
0.124027
0.124523
0.125624
0.127248
0.129524
0.132364
0.135988
0.14026
0.145529
0.151585
0.158966
0.167348
0.177539
0.189053
0.203064
0.218819
0.238007
0.259126
0.284848
0.310036
0.123744
0.12424
0.125337
0.126955
0.129221
0.132047
0.135651
0.139896
0.145129
0.151134
0.158446
0.166727
0.176776
0.188075
0.201753
0.217016
0.235342
0.25521
0.278562
0.300096
0.123432
0.123929
0.125021
0.126632
0.128887
0.131698
0.13528
0.139496
0.14469
0.15064
0.157879
0.16605
0.175946
0.18701
0.200334
0.215059
0.232462
0.250974
0.271735
0.289341
0.123091
0.123589
0.124677
0.126282
0.128524
0.131319
0.134878
0.139063
0.144215
0.150106
0.157266
0.165318
0.175052
0.185863
0.198814
0.212956
0.229384
0.246435
0.264398
0.277824
0.122722
0.123222
0.124306
0.125903
0.128133
0.130911
0.134445
0.138598
0.143705
0.149533
0.156609
0.164534
0.174099
0.184637
0.197201
0.210714
0.226128
0.241612
0.256589
0.265597
0.122326
0.122828
0.123908
0.125498
0.127714
0.130475
0.133983
0.138101
0.143161
0.148922
0.15591
0.163701
0.173087
0.183336
0.195499
0.208343
0.222713
0.236523
0.248352
0.252704
0.121904
0.122407
0.123484
0.125067
0.127268
0.13001
0.13349
0.137572
0.142582
0.148272
0.155167
0.162815
0.172016
0.181959
0.193709
0.205843
0.219152
0.231181
0.239743
0.239182
0.121455
0.121962
0.123035
0.124611
0.126798
0.12952
0.132971
0.137015
0.141972
0.147589
0.154386
0.161885
0.170892
0.180515
0.191842
0.203229
0.215466
0.2256
0.230825
0.225063
0.12098
0.121493
0.122565
0.124135
0.126309
0.129014
0.132439
0.136447
0.141356
0.146903
0.153607
0.160961
0.169779
0.179077
0.189984
0.200591
0.211751
0.219831
0.221626
0.210206
0.120481
0.121
0.122073
0.123641
0.125805
0.128498
0.131901
0.135881
0.140749
0.146236
0.152858
0.160075
0.168715
0.177692
0.188184
0.197982
0.208057
0.213902
0.212137
0.193755
0.119952
0.120473
0.121538
0.123095
0.125234
0.127897
0.131251
0.135176
0.139956
0.145341
0.151805
0.158829
0.167176
0.175768
0.185699
0.19467
0.203583
0.207378
0.202572
0.176198
0.11892
0.119441
0.120511
0.122064
0.124203
0.12685
0.130192
0.134081
0.138832
0.14415
0.150554
0.157465
0.165692
0.174103
0.183783
0.192486
0.200865
0.204326
0.198414
0.171641
0.119503
0.120023
0.121101
0.122666
0.124831
0.127508
0.130902
0.134848
0.13969
0.145113
0.151679
0.158787
0.167309
0.176114
0.186352
0.195899
0.20543
0.210951
0.208014
0.189056
0.120057
0.120569
0.121645
0.123211
0.125386
0.128077
0.131492
0.135469
0.140355
0.145843
0.152497
0.159751
0.168459
0.177603
0.188267
0.198645
0.20927
0.217012
0.217593
0.205357
0.120586
0.121091
0.122168
0.123739
0.125925
0.128634
0.132077
0.13609
0.141026
0.146589
0.153338
0.160748
0.169649
0.179131
0.190225
0.2014
0.213116
0.222899
0.226925
0.220237
0.121088
0.12159
0.122669
0.124247
0.126448
0.129176
0.132649
0.136702
0.141692
0.147332
0.154181
0.161746
0.170845
0.180659
0.192184
0.204118
0.216925
0.228598
0.236003
0.234442
0.121565
0.122063
0.123145
0.12473
0.126946
0.129693
0.133194
0.137286
0.142327
0.148041
0.154986
0.1627
0.17199
0.182119
0.194067
0.206722
0.220614
0.234065
0.244787
0.248085
0.122014
0.12251
0.123596
0.125188
0.127417
0.130183
0.13371
0.137838
0.142928
0.148713
0.155748
0.163603
0.173076
0.183504
0.195864
0.209199
0.224162
0.239285
0.253211
0.261139
0.122436
0.122931
0.12402
0.125619
0.12786
0.130644
0.134197
0.138359
0.143495
0.149346
0.156468
0.164455
0.174104
0.184813
0.197574
0.211546
0.227553
0.244244
0.261217
0.273563
0.12283
0.123323
0.124417
0.126022
0.128276
0.131076
0.134653
0.138848
0.144027
0.14994
0.157144
0.165256
0.175072
0.186044
0.199191
0.213756
0.230768
0.248926
0.268761
0.285308
0.123195
0.123688
0.124785
0.126397
0.128662
0.131478
0.135077
0.139303
0.144522
0.150494
0.157774
0.166002
0.175978
0.187192
0.200708
0.21582
0.233788
0.253312
0.275806
0.296321
0.12353
0.124024
0.125125
0.126743
0.129019
0.131849
0.135469
0.139723
0.14498
0.151006
0.158358
0.166692
0.176817
0.188253
0.202117
0.217731
0.236594
0.257385
0.28232
0.306543
0.123837
0.12433
0.125435
0.127059
0.129345
0.132189
0.135827
0.140107
0.145399
0.151474
0.158891
0.167322
0.177586
0.189223
0.203412
0.219481
0.239172
0.261127
0.288276
0.315923
0.124113
0.124607
0.125715
0.127345
0.12964
0.132496
0.136151
0.140455
0.145777
0.151897
0.159374
0.167892
0.178283
0.190099
0.204585
0.221064
0.241507
0.264518
0.293649
0.32441
0.124358
0.124853
0.125964
0.1276
0.129902
0.13277