/*--------------------------------*- C++ -*----------------------------------*\
  =========                 |
  \\      /  F ield         | OpenFOAM: The Open Source CFD Toolbox
   \\    /   O peration     | Website:  https://openfoam.org
    \\  /    A nd           | Version:  6.0
     \\/     M anipulation  |
\*---------------------------------------------------------------------------*/
FoamFile
{
    version     2.0;
    format      ascii;
    class       volVectorField;
    location    "83";
    object      U;
}
// * * * * * * * * * * * * * * * * * * * * * * * * * * * * * * * * * * * * * //

dimensions      [0 1 -1 0 0 0 0];

internalField   nonuniform List<vector> 
8000
(
(-0.00129416 0.0604112 -5.97138e-21)
(-0.00410634 0.143868 3.20596e-20)
(-0.00851703 0.198744 -3.88881e-20)
(-0.0142377 0.23174 2.95945e-20)
(-0.0208185 0.248557 1.43821e-20)
(-0.0278227 0.253872 -4.33828e-20)
(-0.0348398 0.251307 -3.81259e-21)
(-0.0415259 0.243512 -1.31472e-21)
(-0.0476158 0.23232 -2.28513e-20)
(-0.0529168 0.218929 -1.24486e-20)
(-0.0572991 0.204075 9.17804e-21)
(-0.0606885 0.188185 3.50305e-20)
(-0.0630612 0.171498 -2.41315e-21)
(-0.064442 0.154158 4.03734e-21)
(-0.0648989 0.136272 -3.6044e-20)
(-0.0645212 0.117952 2.23706e-20)
(-0.0634245 0.0993258 -3.21809e-20)
(-0.0619476 0.080531 4.90577e-20)
(-0.0607439 0.0616615 -6.3108e-23)
(-0.0587763 0.0427253 1.06933e-20)
(-0.00341694 0.0605349 2.0198e-20)
(-0.00859331 0.145169 -1.04229e-19)
(-0.01364 0.20157 -7.18214e-20)
(-0.0189986 0.236028 -4.83819e-20)
(-0.0246422 0.254014 -6.25748e-20)
(-0.0303888 0.260106 1.30146e-20)
(-0.0359945 0.257911 -7.24414e-20)
(-0.0412152 0.250106 -1.64216e-20)
(-0.0458376 0.238576 4.74777e-21)
(-0.0496895 0.224574 5.37539e-20)
(-0.052643 0.208893 -5.97846e-20)
(-0.0546133 0.192018 8.37405e-20)
(-0.0555587 0.174246 -6.33125e-20)
(-0.0554809 0.15578 -7.56531e-20)
(-0.0544212 0.136788 -1.04993e-19)
(-0.0524385 0.117445 6.66968e-20)
(-0.0496139 0.0979367 -2.27384e-20)
(-0.0462718 0.0784474 -8.05518e-20)
(-0.0431215 0.0591029 7.58683e-20)
(-0.0390369 0.040012 -5.69325e-20)
(-0.0054935 0.0600245 2.0321e-19)
(-0.0130253 0.145082 1.04079e-19)
(-0.0186925 0.202654 1.17086e-19)
(-0.0236323 0.238482 9.83384e-21)
(-0.0282278 0.257703 6.461e-20)
(-0.0325496 0.264724 7.92125e-20)
(-0.0365258 0.263086 -1.47891e-19)
(-0.0400197 0.255467 -7.78888e-20)
(-0.0428781 0.243781 -1.03552e-19)
(-0.044958 0.229329 1.0837e-19)
(-0.0461398 0.212956 -8.38544e-20)
(-0.0463344 0.195199 -1.1045e-19)
(-0.0454867 0.176408 -4.17045e-20)
(-0.0435782 0.156838 3.84553e-20)
(-0.0406259 0.136713 -1.11667e-20)
(-0.0366606 0.116261 1.45821e-20)
(-0.0317304 0.0957284 1.81546e-19)
(-0.0261372 0.0753545 -2.56439e-20)
(-0.0206437 0.0553164 -1.8731e-19)
(-0.0141258 0.0358624 2.44784e-19)
(-0.00746136 0.0588771 7.27218e-20)
(-0.0172734 0.143563 -9.90197e-20)
(-0.0235252 0.2019 -2.44545e-20)
(-0.0279909 0.238952 4.82526e-20)
(-0.0314361 0.259432 1.34093e-19)
(-0.034176 0.267508 2.9188e-19)
(-0.0363121 0.266605 2.8639e-19)
(-0.0378222 0.259364 2.51022e-20)
(-0.0386222 0.247712 1.77254e-19)
(-0.0386067 0.232985 2.73172e-19)
(-0.0376732 0.216073 -2.19018e-19)
(-0.0357355 0.19756 3.2522e-19)
(-0.0327315 0.177843 -7.8134e-20)
(-0.0286279 0.157219 1.77566e-20)
(-0.0234217 0.135955 7.98461e-20)
(-0.0171206 0.114331 1.07888e-19)
(-0.00974406 0.0926508 -1.69547e-19)
(-0.0015645 0.0712177 -1.43823e-19)
(0.00660965 0.0502832 -2.54663e-19)
(0.0157999 0.0302758 3.65982e-19)
(-0.00926191 0.0571088 -3.79071e-20)
(-0.0212168 0.140607 -3.85919e-19)
(-0.0280041 0.199246 -1.13639e-19)
(-0.0319503 0.237317 -2.76339e-19)
(-0.034163 0.25903 1.05568e-19)
(-0.0351856 0.268248 -1.64896e-19)
(-0.0352912 0.26823 5.88039e-20)
(-0.0345772 0.26155 -3.52829e-19)
(-0.033037 0.250124 1.88143e-19)
(-0.0306125 0.23531 -2.23693e-19)
(-0.0272274 0.218035 -2.00137e-19)
(-0.0228074 0.198922 -2.28381e-19)
(-0.0172909 0.178404 2.07789e-19)
(-0.0106375 0.156816 -1.9094e-19)
(-0.00283034 0.134457 2.64525e-19)
(0.00613854 0.111644 7.78966e-20)
(0.0162714 0.0887358 1.94872e-19)
(0.0273306 0.0661087 8.54543e-20)
(0.0384753 0.0441106 -3.42965e-19)
(0.0505208 0.0233862 5.47652e-19)
(-0.0108437 0.0547594 1.70522e-19)
(-0.0247484 0.136251 1.17967e-20)
(-0.0320154 0.194681 6.94014e-20)
(-0.0354149 0.2335 2.40137e-19)
(-0.0363426 0.256354 -3.53243e-20)
(-0.0355467 0.266747 3.90686e-19)
(-0.0334649 0.267731 1.75622e-19)
(-0.0303171 0.261775 1.4814e-20)
(-0.0261817 0.25076 4.53997e-19)
(-0.0210576 0.236053 1.51045e-19)
(-0.0149045 0.218606 7.26655e-20)
(-0.00766915 0.199075 2.28539e-19)
(0.000700191 0.177923 2.12306e-19)
(0.0102432 0.155508 3.92757e-19)
(0.0209823 0.132152 -3.51569e-19)
(0.0329331 0.108197 5.06616e-19)
(0.046111 0.0840475 1.19814e-20)
(0.0603152 0.0601526 -6.55507e-19)
(0.0746929 0.0369766 8.58538e-19)
(0.089752 0.015409 3.5028e-19)
(-0.0121662 0.0518929 -1.00618e-19)
(-0.0277815 0.130587 -1.83182e-19)
(-0.0354711 0.188256 -3.76178e-19)
(-0.0383208 0.227479 -1.08311e-20)
(-0.0379491 0.251306 6.53342e-20)
(-0.0352786 0.262843 -4.79229e-19)
(-0.0308997 0.264892 -3.56782e-19)
(-0.0251543 0.259785 -5.0351e-20)
(-0.0182124 0.249348 -4.55909e-19)
(-0.0101383 0.234936 -3.19253e-19)
(-0.00093768 0.217516 -9.33265e-20)
(0.00941263 0.197768 -3.03917e-19)
(0.0209455 0.176178 -3.87261e-21)
(0.0336915 0.153118 -4.1206e-19)
(0.0476709 0.128922 1.75806e-19)
(0.0628995 0.103944 -2.00249e-19)
(0.0793962 0.0786152 1.58831e-19)
(0.0969979 0.053454 -1.97272e-19)
(0.114865 0.029053 -5.78656e-19)
(0.133106 0.00656655 -1.72271e-19)
(-0.0132034 0.0485972 -3.80695e-20)
(-0.0302566 0.12376 -4.09875e-20)
(-0.038315 0.180088 3.16838e-19)
(-0.0406388 0.219303 -5.1672e-19)
(-0.0389964 0.243851 7.57937e-20)
(-0.0344484 0.256418 -2.99307e-19)
(-0.0277213 0.259526 1.4062e-19)
(-0.0192754 0.255342 6.39292e-19)
(-0.00937592 0.245611 -3.92564e-20)
(0.00183968 0.231659 -4.84086e-19)
(0.0143116 0.214457 8.63817e-20)
(0.028024 0.194698 1.61477e-20)
(0.0429834 0.172882 -1.06153e-19)
(0.0592041 0.149392 5.55034e-21)
(0.0766987 0.12456 9.18932e-19)
(0.0954773 0.0987393 -1.28045e-19)
(0.115556 0.0723682 -2.61194e-19)
(0.136805 0.0460194 -4.76459e-19)
(0.158429 0.0204209 4.84327e-19)
(0.180068 -0.00299554 2.03866e-19)
(-0.0139474 0.0449812 1.8816e-19)
(-0.0321476 0.115967 -2.46763e-19)
(-0.0405267 0.170365 3.47757e-19)
(-0.0423743 0.209097 3.48724e-19)
(-0.0395324 0.234028 3.20431e-19)
(-0.0331602 0.247421 6.4962e-19)
(-0.024099 0.251498 4.21962e-19)
(-0.0129203 0.248242 -9.10738e-19)
(1.47818e-05 0.23929 4.68958e-19)
(0.0144904 0.225925 3.72353e-19)
(0.0303859 0.209103 -5.32046e-21)
(0.0476403 0.189524 4.26181e-19)
(0.0662278 0.167693 3.38825e-19)
(0.0861426 0.143996 -1.8107e-19)
(0.107386 0.118758 6.31691e-19)
(0.129962 0.0923151 -7.83939e-19)
(0.153879 0.0650958 3.18994e-19)
(0.179037 0.0377049 4.13819e-19)
(0.204718 0.0110078 -9.68502e-20)
(0.230043 -0.0132731 8.134e-19)
(-0.0144101 0.0411698 3.82991e-19)
(-0.0334652 0.10745 1.92042e-20)
(-0.0421232 0.159344 -1.36173e-19)
(-0.0435634 0.197069 -1.42386e-19)
(-0.0396282 0.221965 -6.60365e-19)
(-0.0315348 0.235885 9.36079e-20)
(-0.020216 0.240753 2.66242e-19)
(-0.00634271 0.238345 -1.28535e-19)
(0.00963092 0.230178 1.066e-19)
(0.0274092 0.217467 -2.67792e-20)
(0.0468073 0.201145 -1.41194e-19)
(0.0677157 0.181901 1.35084e-19)
(0.0900747 0.160242 -6.02079e-19)
(0.113857 0.136548 5.77231e-19)
(0.139055 0.111132 -5.10056e-19)
(0.165667 0.0843031 1.56416e-19)
(0.193692 0.0564624 3.66762e-19)
(0.223055 0.0282226 -7.40216e-20)
(0.253144 0.000587171 -2.56069e-19)
(0.282553 -0.0244058 -1.69011e-19)
(-0.0146238 0.037297 -4.77353e-19)
(-0.0342579 0.0984845 -2.93442e-20)
(-0.0431558 0.147338 9.99302e-20)
(-0.044264 0.183507 2.54075e-19)
(-0.0393599 0.207883 -3.58923e-19)
(-0.0296814 0.221947 -3.12953e-19)
(-0.016227 0.227333 7.33287e-19)
(0.000248026 0.225607 -4.04386e-19)
(0.0192043 0.218149 -2.62839e-19)
(0.0402699 0.206094 -3.81968e-19)
(0.0631975 0.190331 2.54973e-19)
(0.0878311 0.171531 -3.05366e-21)
(0.114079 0.150191 -4.81892e-19)
(0.141897 0.12668 -8.06927e-19)
(0.171269 0.101293 6.16604e-19)
(0.202192 0.0743096 -5.10753e-19)
(0.234656 0.0460898 7.26678e-19)
(0.268593 0.0172308 -2.02657e-19)
(0.303523 -0.0111264 4.41396e-19)
(0.337546 -0.0365776 -1.42554e-18)
(-0.0146398 0.0334975 -9.68399e-19)
(-0.0346077 0.0893594 6.31323e-19)
(-0.0437026 0.134701 8.56329e-20)
(-0.0445411 0.168767 1.64732e-20)
(-0.0387845 0.192096 -3.8402e-19)
(-0.0276589 0.205855 5.64455e-19)
(-0.0122029 0.211405 6.24364e-20)
(0.00676307 0.210112 -1.16581e-19)
(0.0286278 0.20321 -3.75547e-19)
(0.0529532 0.191739 4.07634e-19)
(0.0794384 0.176532 1.04705e-18)
(0.107888 0.158229 -2.30909e-19)
(0.138186 0.137307 5.31971e-19)
(0.170275 0.114122 -6.3879e-19)
(0.204134 0.0889485 -6.21757e-19)
(0.239757 0.0620358 3.73603e-19)
(0.277114 0.033697 6.32842e-19)
(0.316115 0.00449375 -2.05241e-18)
(0.356417 -0.0242962 2.39489e-19)
(0.395719 -0.0498213 3.16883e-19)
(-0.0145248 0.0298975 7.17538e-19)
(-0.0346217 0.0803609 2.34203e-19)
(-0.0438538 0.121806 1.21178e-18)
(-0.0444455 0.153253 6.13859e-20)
(-0.037908 0.175002 -1.34027e-19)
(-0.0254304 0.187964 -6.36808e-19)
(-0.00806637 0.193271 5.41365e-19)
(0.013321 0.192096 9.73416e-19)
(0.0380689 0.185528 6.54376e-19)
(0.0656905 0.174506 4.74236e-19)
(0.0958465 0.159796 4.13063e-19)
(0.128315 0.141995 -7.47695e-19)
(0.162964 0.121555 -2.40704e-19)
(0.199725 0.0988116 -1.76987e-19)
(0.238567 0.0740233 1.91688e-18)
(0.279464 0.047416 -9.11562e-22)
(0.32234 0.0192599 -4.8844e-19)
(0.367029 -0.00993377 -1.61654e-19)
(0.413292 -0.0387592 1.41556e-18)
(0.45862 -0.0637988 1.76736e-19)
(-0.0143542 0.0266055 -3.63616e-20)
(-0.0344168 0.0717486 -6.72646e-19)
(-0.043691 0.109017 -9.94218e-19)
(-0.0439862 0.137395 -2.7444e-19)
(-0.036649 0.157055 1.51435e-19)
(-0.0228142 0.168731 3.25525e-20)
(-0.003527 0.173364 8.64976e-19)
(0.0203332 0.171957 -1.0735e-18)
(0.0480771 0.165462 -4.08862e-19)
(0.0791927 0.154714 -8.31003e-19)
(0.113321 0.140404 -7.15219e-19)
(0.150226 0.123081 -6.39256e-19)
(0.189763 0.103167 1.59748e-19)
(0.231844 0.0809796 -2.10268e-19)
(0.276401 0.0567655 9.19235e-19)
(0.323349 0.0307397 -5.03338e-19)
(0.372511 0.0031439 -1.60996e-18)
(0.423569 -0.0255685 -3.33486e-19)
(0.476308 -0.0538911 8.01532e-19)
(0.528328 -0.0776767 -6.69187e-19)
(-0.0142031 0.0237026 -1.14163e-19)
(-0.0341001 0.0637355 8.19107e-19)
(-0.0432608 0.0966614 -1.04021e-18)
(-0.0430994 0.121612 2.40965e-19)
(-0.0348022 0.138745 -4.90793e-19)
(-0.0194401 0.148685 1.09142e-18)
(0.00197219 0.152234 -7.80283e-19)
(0.028566 0.150252 8.95012e-19)
(0.0596535 0.143565 -8.48328e-19)
(0.0947206 0.132909 3.6659e-19)
(0.133403 0.1189 -1.7616e-19)
(0.175454 0.102036 -4.49569e-19)
(0.220701 0.0827083 -5.63642e-19)
(0.269002 0.0612204 5.67192e-19)
(0.3202 0.0378176 -4.79877e-19)
(0.374078 0.0127193 -1.06639e-18)
(0.430281 -0.0138416 1.11686e-18)
(0.488249 -0.0414695 -1.43264e-18)
(0.547659 -0.0686205 6.50648e-19)
(0.606692 -0.090198 1.88613e-20)
(-0.0141359 0.0212351 -1.02779e-18)
(-0.0337462 0.0564697 -1.10308e-18)
(-0.0425475 0.0850065 1.27378e-19)
(-0.0416197 0.106287 -1.05244e-18)
(-0.0320098 0.120555 -9.10984e-20)
(-0.0147223 0.128395 -7.70868e-19)
(0.00927685 0.130516 -1.76467e-19)
(0.0391541 0.127666 -5.16188e-19)
(0.0742449 0.120564 6.0718e-21)
(0.114047 0.109855 -2.26407e-19)
(0.158188 0.0960848 1.94245e-20)
(0.206388 0.0797041 -6.63975e-19)
(0.258401 0.0610752 7.45089e-19)
(0.313964 0.0404934 -1.05708e-18)
(0.372745 0.0182106 3.83253e-19)
(0.434298 -0.00553763 1.80707e-20)
(0.498008 -0.0305077 -6.13024e-19)
(0.562992 -0.0563581 1.54478e-18)
(0.628667 -0.0816206 -3.64381e-19)
(0.694358 -0.0999721 -2.27762e-19)
(-0.0141944 0.0192091 1.14991e-18)
(-0.0333755 0.0500212 6.1848e-19)
(-0.0414504 0.0742348 5.72164e-19)
(-0.0392619 0.091733 8.50586e-20)
(-0.027753 0.102926 7.69343e-19)
(-0.00786595 0.108421 1.10494e-18)
(0.019492 0.108876 9.0168e-19)
(0.0535356 0.10496 8.2253e-20)
(0.0936294 0.0973055 6.63346e-19)
(0.139271 0.0864784 1.02791e-18)
(0.190047 0.0729645 -2.67503e-19)
(0.245584 0.0571702 4.51221e-19)
(0.30548 0.0394342 3.64397e-19)
(0.369249 0.0200451 3.75296e-19)
(0.43628 -0.000737714 2.26341e-18)
(0.505801 -0.0226619 -8.51611e-19)
(0.576863 -0.0454683 -5.03331e-20)
(0.648246 -0.0688681 1.00797e-18)
(0.718987 -0.0916226 -5.72792e-19)
(0.790029 -0.105892 2.71034e-19)
(-0.0143879 0.0175889 -9.26737e-19)
(-0.0329375 0.0443765 5.79852e-20)
(-0.0397718 0.064432 -7.33171e-19)
(-0.0356211 0.0781677 -9.38414e-20)
(-0.0213713 0.0862217 5.3359e-19)
(0.00208321 0.0892688 -1.58678e-18)
(0.0338896 0.0879576 -1.51995e-21)
(0.073302 0.0829048 7.37899e-19)
(0.119689 0.0746783 6.94348e-19)
(0.1725 0.0637813 -3.05515e-19)
(0.231206 0.0506473 1.02716e-19)
(0.295237 0.0356448 2.36334e-19)
(0.363919 0.0190889 -1.11602e-19)
(0.436428 0.00125669 -1.27919e-18)
(0.511768 -0.0175959 3.22847e-19)
(0.588777 -0.0372172 9.08911e-19)
(0.66615 -0.0573522 -1.3024e-18)
(0.742383 -0.0777823 6.32884e-19)
(0.816181 -0.0976173 1.71251e-19)
(0.89016 -0.107382 8.32786e-19)
(-0.014687 0.0163003 -1.34736e-19)
(-0.0323042 0.0394422 -6.44759e-19)
(-0.0372204 0.0555827 2.95708e-19)
(-0.0301946 0.0657 6.64783e-22)
(-0.0121136 0.0706942 -1.28069e-18)
(0.0161477 0.0713433 2.00156e-19)
(0.0537624 0.068315 -3.76323e-20)
(0.0999825 0.0621997 2.57548e-19)
(0.154116 0.0535197 -1.18059e-18)
(0.21547 0.0427288 -8.49329e-20)
(0.283283 0.030216 -2.82059e-19)
(0.356661 0.0163133 2.47337e-19)
(0.434529 0.00130729 8.49838e-19)
(0.515618 -0.0145486 -1.30894e-19)
(0.598482 -0.0310221 5.32423e-20)
(0.681547 -0.0478912 3.36814e-19)
(0.763184 -0.0649472 -8.67314e-20)
(0.841714 -0.0820707 6.99078e-19)
(0.91582 -0.0986286 -4.01776e-19)
(0.988983 -0.104227 -6.13416e-19)
(-0.0150231 0.0152401 1.26331e-19)
(-0.0312747 0.0350593 3.15133e-20)
(-0.0334297 0.0475793 2.57908e-19)
(-0.0224227 0.0543272 6.29011e-19)
(0.000790116 0.0564736 3.51607e-19)
(0.0353037 0.0549195 3.62864e-20)
(0.0802572 0.0503722 -4.18386e-19)
(0.134818 0.0434142 1.07007e-19)
(0.198124 0.0345361 5.65128e-19)
(0.269211 0.024151 -9.59609e-19)
(0.346941 0.0126048 7.26741e-19)
(0.429961 0.000187911 -5.49672e-19)
(0.516694 -0.012854 4.69353e-19)
(0.605372 -0.0263086 -1.01664e-18)
(0.694099 -0.039988 1.12493e-18)
(0.780952 -0.0537232 -1.20517e-18)
(0.864066 -0.067378 -3.15268e-19)
(0.941692 -0.0808989 9.84603e-19)
(1.01286 -0.0935069 -3.32363e-19)
(1.07962 -0.0971512 1.4224e-19)
(-0.0152936 0.0142895 -9.51474e-20)
(-0.0295901 0.0310266 8.9648e-19)
(-0.027987 0.0402446 -4.72363e-21)
(-0.0117366 0.0439521 -5.54635e-19)
(0.0180541 0.0435741 -3.71358e-19)
(0.0603746 0.0401407 6.80509e-19)
(0.114233 0.034408 -2.69384e-19)
(0.17859 0.0269602 -3.40412e-20)
(0.252266 0.018262 5.61909e-19)
(0.333869 0.00868448 -6.98953e-19)
(0.421742 -0.00147739 7.78106e-20)
(0.51397 -0.0119912 -9.14099e-19)
(0.608428 -0.0226737 4.8287e-19)
(0.702875 -0.0333779 -1.38207e-18)
(0.795077 -0.0439814 2.20166e-18)
(0.882938 -0.0543765 -4.08081e-19)
(0.964604 -0.0644672 4.13318e-19)
(1.03857 -0.0741351 -1.07039e-18)
(1.10424 -0.0825437 1.64712e-20)
(1.15706 -0.0915201 1.07611e-18)
(-0.0153723 0.0133305 -2.87749e-19)
(-0.0269549 0.0271312 2.47839e-19)
(-0.0204647 0.0333661 -9.12997e-19)
(0.00239774 0.0344175 1.34901e-18)
(0.0402796 0.0319279 -9.72876e-19)
(0.0919604 0.0270476 4.98272e-20)
(0.156184 0.0205801 -1.04785e-18)
(0.231543 0.0131093 7.48897e-19)
(0.316374 0.00506732 -1.07461e-19)
(0.408697 -0.00322983 -6.63853e-19)
(0.506225 -0.01156 -3.88342e-19)
(0.606431 -0.0197761 4.10211e-19)
(0.706675 -0.0277879 2.71144e-19)
(0.804367 -0.0355441 -1.19377e-18)
(0.897126 -0.0430143 4.32267e-19)
(0.982928 -0.0501724 -6.30965e-19)
(1.06021 -0.0569803 8.06005e-20)
(1.12792 -0.0633549 -5.11696e-19)
(1.18571 -0.0689718 1.74794e-19)
(1.23258 -0.0746419 -7.17441e-19)
(-0.0151219 0.0122613 8.19295e-19)
(-0.0230591 0.0231805 -4.95779e-19)
(-0.0104469 0.0267382 4.07881e-19)
(0.0204516 0.0255551 -5.14003e-19)
(0.0679266 0.0214373 8.61669e-19)
(0.130413 0.0156339 -1.62216e-20)
(0.206226 0.00898065 -1.055e-19)
(0.293404 0.00204454 -7.86571e-20)
(0.389626 -0.00479596 4.79086e-19)
(0.492196 -0.0113088 8.15434e-19)
(0.598133 -0.0173783 -4.82101e-19)
(0.704333 -0.0229773 4.68709e-19)
(0.807774 -0.02814 8.52512e-19)
(0.905722 -0.0329333 -5.96793e-19)
(0.995904 -0.0374324 -1.19096e-18)
(1.07663 -0.0416994 2.16306e-18)
(1.14683 -0.0457685 -3.85615e-19)
(1.20608 -0.0496395 -1.17573e-19)
(1.25455 -0.0531936 1.22184e-18)
(1.29268 -0.0567945 -2.84242e-19)
(-0.0144054 0.0110084 -1.33287e-18)
(-0.0175977 0.0190308 -8.86436e-19)
(0.00245406 0.0202038 -3.40063e-19)
(0.0428213 0.0172378 6.56055e-19)
(0.101311 0.012036 -1.48051e-18)
(0.17585 0.00591141 7.6627e-19)
(0.264131 -0.000299094 9.70576e-20)
(0.363451 -0.0060786 9.73364e-20)
(0.470671 -0.0111418 -1.0067e-18)
(0.5823 -0.0153835 -3.5579e-19)
(0.694689 -0.0188361 -6.25188e-19)
(0.804293 -0.0216262 6.02476e-19)
(0.907931 -0.0239321 1.67058e-19)
(1.003 -0.0259431 3.11101e-20)
(1.08763 -0.0278277 7.53893e-19)
(1.1607 -0.0297108 -7.72443e-19)
(1.22184 -0.0316632 -2.91275e-20)
(1.27129 -0.0337001 2.96421e-20)
(1.30985 -0.0357446 1.11698e-19)
(1.33875 -0.0379721 5.15419e-19)
(-0.0130944 0.00953269 4.24317e-19)
(-0.0102826 0.0146068 1.0917e-18)
(0.0185873 0.0136878 8.75825e-19)
(0.0698265 0.0094246 -3.01946e-19)
(0.140612 0.00374149 1.0506e-18)
(0.228175 -0.00203513 -8.76546e-20)
(0.329377 -0.00711616 -1.25181e-19)
(0.44059 -0.0110888 7.37026e-20)
(0.55775 -0.0138171 1.01809e-18)
(0.676573 -0.0153756 5.97748e-19)
(0.792875 -0.0159849 1.74925e-19)
(0.902904 -0.015946 1.25814e-20)
(1.00362 -0.0155794 -1.13478e-18)
(1.09288 -0.0151749 9.87408e-19)
(1.16947 -0.0149577 1.61886e-19)
(1.23303 -0.015072 -2.74816e-19)
(1.28396 -0.0155805 -1.12967e-18)
(1.3232 -0.016474 -8.34729e-20)
(1.35207 -0.0176682 4.23596e-19)
(1.37231 -0.0192642 -7.79261e-20)
(-0.0110722 0.00782978 -1.07514e-18)
(-0.000850991 0.00991077 4.49781e-19)
(0.0382582 0.00721736 -2.19663e-18)
(0.101708 0.00218953 9.00559e-19)
(0.185878 -0.00331315 -7.18891e-19)
(0.287091 -0.00801832 5.31373e-19)
(0.401171 -0.0112557 -8.25423e-19)
(0.523417 -0.0127902 7.55972e-20)
(0.64881 -0.0127038 -4.23346e-20)
(0.772387 -0.0113023 2.21059e-19)
(0.889672 -0.00901961 3.16279e-19)
(0.997035 -0.00632653 -5.96816e-19)
(1.09193 -0.00365521 3.17945e-19)
(1.17294 -0.00134767 2.86016e-19)
(1.2397 0.000368998 1.19383e-18)
(1.29274 0.00138411 -5.27194e-19)
(1.33318 0.00168783 -3.2715e-19)
(1.36258 0.00134927 5.43067e-19)
(1.38265 0.000496504 2.64418e-19)
(1.39526 -0.000984006 -5.40075e-19)
(-0.00823471 0.00592638 9.40586e-19)
(0.0109317 0.00502103 9.0661e-19)
(0.061722 0.000925761 2.61814e-19)
(0.13862 -0.00427198 1.10493e-18)
(0.237012 -0.00887483 5.44806e-19)
(0.352094 -0.0117528 -9.81277e-19)
(0.478462 -0.0124472 1.48843e-18)
(0.610264 -0.0109894 -7.32466e-19)
(0.741608 -0.00774809 7.29553e-19)
(0.867093 -0.00329537 9.38685e-19)
(0.982296 0.0017249 -5.35508e-19)
(1.08408 0.0067095 1.02422e-19)
(1.17072 0.0111736 5.54904e-19)
(1.24174 0.0147888 3.84289e-19)
(1.29774 0.0173865 8.61962e-19)
(1.34007 0.0189368 -3.56056e-19)
(1.37049 0.019514 -5.22643e-20)
(1.39097 0.019263 5.03657e-19)
(1.40347 0.0183556 -1.13167e-19)
(1.40984 0.0166707 -1.93582e-21)
(-0.00448804 0.00387447 -4.85275e-19)
(0.0252673 8.34757e-05 -1.78317e-18)
(0.0891716 -0.00495719 4.20644e-19)
(0.180606 -0.00965655 -3.20395e-19)
(0.293752 -0.0125927 -7.42165e-19)
(0.422453 -0.0128888 -5.31176e-19)
(0.559946 -0.0104087 -3.28006e-19)
(0.699258 -0.0055419 7.9592e-19)
(0.83384 0.00100377 -4.72001e-19)
(0.958209 0.00838655 -4.83754e-19)
(1.0684 0.0157936 -6.02221e-19)
(1.16215 0.0225585 -9.90553e-20)
(1.23877 0.0282211 -7.28705e-20)
(1.29887 0.0325365 -1.34112e-18)
(1.34395 0.0354472 6.30476e-19)
(1.37605 0.037036 -8.31635e-19)
(1.39743 0.0374752 2.43328e-19)
(1.41027 0.036986 -1.86608e-18)
(1.41658 0.0357762 5.65812e-19)
(1.41809 0.0337307 6.81045e-19)
(0.00025242 0.00174551 -1.22262e-19)
(0.0423201 -0.0047012 8.67714e-19)
(0.120722 -0.0101246 5.57441e-20)
(0.227578 -0.0135814 1.3446e-19)
(0.355637 -0.0140581 -2.73822e-19)
(0.497199 -0.0110629 -4.76028e-21)
(0.644101 -0.00490088 -6.76493e-21)
(0.788416 0.00360278 -1.64348e-19)
(0.923286 0.0133829 5.85527e-19)
(1.04359 0.0233675 2.24123e-19)
(1.14624 0.0326524 1.00656e-18)
(1.23012 0.0405981 -2.72566e-19)
(1.29572 0.0468506 1.86024e-19)
(1.34469 0.0513081 -2.02065e-20)
(1.37934 0.0540581 5.05561e-19)
(1.40221 0.0553083 2.99664e-19)
(1.4158 0.0553256 6.98655e-19)
(1.42237 0.0543936 -1.11645e-18)
(1.42384 0.0527403 1.37678e-18)
(1.42174 0.0502851 -4.35552e-19)
(0.00606188 -0.000373983 -1.127e-18)
(0.0622081 -0.00909076 -3.53628e-19)
(0.15639 -0.0142161 2.75149e-19)
(0.279289 -0.0156201 1.73986e-19)
(0.421993 -0.0128523 1.80026e-19)
(0.57514 -0.00595172 1.81576e-19)
(0.729251 0.00422526 -4.56333e-19)
(0.875761 0.0163739 -1.85455e-19)
(1.00797 0.0291012 5.95403e-20)
(1.12157 0.0411877 -5.48754e-19)
(1.21472 0.0517418 -2.43204e-19)
(1.28759 0.0602466 1.4648e-18)
(1.3419 0.0665243 -3.79401e-19)
(1.38018 0.0706551 -5.06306e-19)
(1.40533 0.072884 -2.2961e-19)
(1.4202 0.0735371 1.64428e-19)
(1.42737 0.0729595 1.87601e-19)
(1.42899 0.0714756 -8.95196e-19)
(1.42679 0.0693209 1.27066e-18)
(1.42213 0.0664668 -1.09984e-18)
(0.0130037 -0.00238537 -1.25768e-19)
(0.0849927 -0.0128137 3.57331e-20)
(0.19608 -0.0168424 -4.72477e-20)
(0.335313 -0.0153395 6.8361e-19)
(0.491937 -0.00859172 3.87343e-20)
(0.654903 0.00268447 2.51234e-19)
(0.813662 0.017 -5.23527e-19)
(0.959464 0.0325775 -1.82241e-20)
(1.08628 0.0477773 7.19292e-19)
(1.19105 0.0613495 9.76157e-20)
(1.27338 0.0725284 -6.1467e-19)
(1.33482 0.0810049 -5.39037e-20)
(1.37814 0.0868254 -4.86129e-19)
(1.4066 0.0902674 4.89046e-19)
(1.42346 0.0917255 6.57912e-19)
(1.43166 0.0916241 -7.17348e-20)
(1.43369 0.090362 -8.32757e-20)
(1.43153 0.0882813 2.54132e-19)
(1.42667 0.0856159 -7.95825e-19)
(1.42024 0.0823979 7.11119e-19)
(0.021125 -0.00417978 1.28664e-19)
(0.110668 -0.0155799 -8.23211e-19)
(0.239564 -0.0176075 2.1973e-19)
(0.395047 -0.0123327 -6.88122e-19)
(0.564399 -0.00096449 2.37243e-19)
(0.735011 0.014974 -8.78891e-19)
(0.89566 0.0333287 3.53902e-19)
(1.03796 0.0519163 -1.13212e-19)
(1.15705 0.0689764 -4.84319e-21)
(1.25145 0.083363 1.11836e-19)
(1.32231 0.0945426 -4.0498e-19)
(1.37248 0.102477 -5.69657e-19)
(1.40558 0.107458 -1.13016e-19)
(1.42534 0.109954 -5.06581e-20)
(1.43519 0.110487 -1.27584e-19)
(1.43801 0.10955 -4.0596e-20)
(1.43606 0.10757 -1.21113e-19)
(1.43109 0.104886 -1.03736e-19)
(1.42434 0.101727 -2.99319e-19)
(1.41675 0.0981809 4.70828e-19)
(0.0304516 -0.00563967 3.04486e-19)
(0.13915 -0.017091 -3.38954e-19)
(0.286482 -0.0161292 7.3168e-19)
(0.457723 -0.00624658 -3.17358e-19)
(0.63818 0.0102446 8.484e-19)
(0.81397 0.0309243 1.3933e-20)
(0.97373 0.0530051 4.24109e-19)
(1.11002 0.074022 -1.14839e-19)
(1.21957 0.0922502 4.6679e-19)
(1.30268 0.106781 3.07868e-20)
(1.36202 0.117398 1.0853e-18)
(1.40152 0.124369 -7.43979e-19)
(1.42543 0.12823 1.02145e-19)
(1.43775 0.129615 1.90452e-19)
(1.44185 0.129139 9.5798e-19)
(1.44042 0.127337 -3.42923e-19)
(1.43547 0.12464 -6.64788e-20)
(1.42846 0.121364 -3.42158e-19)
(1.42043 0.117736 -3.28644e-20)
(1.4121 0.113888 1.69571e-19)
(0.040983 -0.00664095 -1.43829e-19)
(0.170272 -0.0170497 4.19282e-19)
(0.336342 -0.0120575 -4.34148e-19)
(0.522431 0.00319749 1.69538e-19)
(0.712007 0.0251414 -2.0629e-19)
(0.89036 0.0504272 7.51656e-19)
(1.04661 0.0757354 -1.06162e-19)
(1.17479 0.0984907 2.52309e-19)
(1.27358 0.11717 -1.50491e-19)
(1.34505 0.131219 -4.72641e-21)
(1.39326 0.140796 1.64887e-19)
(1.42301 0.146481 -1.26679e-19)
(1.43892 0.14903 3.26268e-19)
(1.44501 0.14921 -1.62965e-19)
(1.44451 0.147694 -6.96801e-19)
(1.43982 0.145029 6.87558e-19)
(1.43265 0.141627 -3.03939e-19)
(1.42422 0.137777 2.41943e-19)
(1.41532 0.133703 4.11173e-19)
(1.40656 0.129564 1.68848e-19)
(0.0526875 -0.00705581 3.5905e-19)
(0.203777 -0.0151715 -7.41192e-19)
(0.38853 -0.00509084 1.4118e-19)
(0.588166 0.0161888 -1.03507e-19)
(0.784611 0.0437205 -4.20099e-19)
(0.96291 0.0732749 -3.28022e-19)
(1.11331 0.101168 -6.52174e-20)
(1.23179 0.124913 -5.77836e-19)
(1.31912 0.143347 -3.49723e-20)
(1.3791 0.156362 -1.05901e-19)
(1.41693 0.164514 -2.84128e-19)
(1.438 0.168679 -6.35856e-20)
(1.44711 0.169801 -2.13681e-19)
(1.44814 0.168733 -3.49884e-19)
(1.44403 0.166176 3.53935e-19)
(1.43688 0.162664 4.58149e-20)
(1.42812 0.158576 9.11726e-20)
(1.41871 0.154166 -3.96374e-19)
(1.40928 0.149662 -1.14322e-20)
(1.40028 0.145226 -6.00729e-19)
(0.0655002 -0.00675658 3.89022e-19)
(0.239325 -0.0111954 2.60892e-19)
(0.442331 0.00500951 -4.24528e-19)
(0.65387 0.0328191 6.62161e-19)
(0.854782 0.0658718 -7.25772e-20)
(1.03055 0.0991814 2.46602e-19)
(1.17315 0.128919 8.51849e-20)
(1.28085 0.152894 2.9817e-19)
(1.35653 0.170444 -2.33466e-19)
(1.40552 0.181958 7.65484e-20)
(1.43393 0.188392 -7.30902e-20)
(1.44749 0.190884 -3.07998e-20)
(1.45094 0.190516 5.98961e-20)
(1.44793 0.188194 -1.08806e-19)
(1.44105 0.184611 -3.24463e-20)
(1.4321 0.180271 -1.00059e-19)
(1.42222 0.175511 -1.60909e-19)
(1.41217 0.170547 1.0441e-19)
(1.40243 0.165621 -1.39464e-19)
(1.39333 0.160871 6.07267e-19)
(0.0793208 -0.00562023 -1.92566e-19)
(0.276494 -0.0048952 -5.50167e-19)
(0.496954 0.0184077 -7.33129e-20)
(0.718478 0.0530809 -2.12927e-20)
(0.921426 0.0913927 -2.47531e-19)
(1.09243 0.127805 -4.05644e-19)
(1.22573 0.158596 1.31474e-19)
(1.32205 0.182072 -1.80498e-19)
(1.38628 0.198172 -1.99855e-19)
(1.42507 0.207811 1.10429e-19)
(1.44514 0.212317 -8.29045e-20)
(1.45233 0.213044 -1.65722e-19)
(1.45118 0.211166 -4.21172e-21)
(1.445 0.2076 1.11916e-19)
(1.43605 0.203012 -1.1201e-19)
(1.4258 0.19786 1.55407e-19)
(1.41516 0.192436 4.24175e-20)
(1.40472 0.18692 1.03894e-19)
(1.39483 0.181571 1.98768e-19)
(1.38573 0.176477 -1.70425e-19)
(0.0940147 -0.00353332 1.83139e-19)
(0.314795 0.00390896 -1.44091e-20)
(0.551563 0.0351855 8.40602e-20)
(0.780965 0.0768702 -1.12723e-19)
(0.9836 0.120004 1.04675e-20)
(1.14794 0.158768 3.90064e-19)
(1.27087 0.189814 -2.54872e-19)
(1.35565 0.212118 1.07267e-19)
(1.40897 0.226289 9.41222e-20)
(1.43851 0.233767 -2.61639e-19)
(1.45135 0.236206 2.44479e-19)
(1.45324 0.235123 2.23345e-21)
(1.44842 0.231738 -1.69568e-19)
(1.43982 0.226949 2.03709e-19)
(1.42935 0.221376 -8.02712e-20)
(1.4182 0.215423 6.10252e-20)
(1.40708 0.209334 -6.8377e-20)
(1.39642 0.203261 -2.78395e-20)
(1.3865 0.197481 -2.33625e-19)
(1.37747 0.192009 7.21491e-20)
(0.109415 -0.000396957 -6.05499e-20)
(0.353686 0.015342 1.6514e-19)
(0.605306 0.0553379 2.62145e-20)
(0.840384 0.103994 1.08401e-19)
(1.04053 0.151368 5.19063e-20)
(1.19668 0.191675 2.43824e-20)
(1.30862 0.222202 1.36343e-19)
(1.38203 0.242735 -1.64016e-20)
(1.4252 0.254591 5.9449e-20)
(1.44653 0.259699 9.48687e-20)
(1.45324 0.259989 4.54146e-20)
(1.45081 0.257085 3.24499e-20)
(1.44313 0.252212 1.31107e-19)
(1.43272 0.246224 -1.26918e-19)
(1.42117 0.239681 2.70562e-20)
(1.40942 0.232932 -2.52509e-20)
(1.39802 0.226172 3.89183e-20)
(1.3873 0.219532 3.252e-20)
(1.37743 0.213308 6.71832e-20)
(1.36852 0.207419 2.4965e-21)
(0.125326 0.00386855 3.59862e-20)
(0.392585 0.0294666 3.2853e-20)
(0.657348 0.078773 -4.57171e-20)
(0.895888 0.134183 2.85806e-20)
(1.09161 0.1851 1.60932e-20)
(1.23842 0.226124 -5.02396e-20)
(1.33912 0.255411 1.6418e-20)
(1.40165 0.273659 3.11976e-21)
(1.43558 0.282898 2.80856e-20)
(1.44977 0.285498 -7.52923e-20)
(1.45136 0.283601 -1.89529e-22)
(1.44549 0.278888 2.06758e-20)
(1.43562 0.272554 -1.64984e-20)
(1.42391 0.26539 1.66286e-20)
(1.41163 0.257887 4.31895e-20)
(1.39954 0.25034 -2.45404e-20)
(1.38803 0.242899 6.87331e-21)
(1.37734 0.23568 2.67137e-20)
(1.3676 0.228995 -4.3748e-20)
(1.35886 0.222652 2.11814e-20)
(0.141528 0.00931965 9.84274e-20)
(0.430896 0.0462789 -5.40548e-20)
(0.706894 0.105316 6.39511e-20)
(0.946754 0.167099 -4.76206e-20)
(1.13641 0.220788 -2.12923e-20)
(1.27312 0.261715 6.56804e-21)
(1.36266 0.289111 -2.07943e-20)
(1.415 0.304651 7.45446e-20)
(1.44067 0.31105 -6.19905e-20)
(1.44877 0.31106 1.45714e-20)
(1.44618 0.306974 -1.08323e-20)
(1.43764 0.30048 -7.03688e-20)
(1.42617 0.292714 6.82284e-20)
(1.41356 0.284392 2.59596e-20)
(1.40084 0.275936 -2.57253e-20)
(1.38858 0.267585 6.0423e-20)
(1.37709 0.259451 -9.20056e-22)
(1.36653 0.251639 -5.83888e-20)
(1.35697 0.244478 4.30816e-20)
(1.34845 0.237642 1.37235e-20)
(0.157786 0.0159865 -3.45663e-20)
(0.46802 0.0657074 9.97634e-20)
(0.753218 0.134717 1.1585e-19)
(0.99239 0.202355 -5.48878e-20)
(1.17466 0.258001 9.51426e-20)
(1.30083 0.298056 1.50419e-19)
(1.37957 0.322993 -8.46873e-21)
(1.42255 0.335489 -2.58763e-20)
(1.44099 0.338897 1.27136e-19)
(1.444 0.336284 6.20347e-20)
(1.43808 0.330029 -1.12717e-20)
(1.42752 0.32179 9.2595e-20)
(1.41492 0.312624 -9.92468e-20)
(1.40175 0.30316 1.54927e-19)
(1.38882 0.293753 -2.57651e-20)
(1.37656 0.284592 7.42696e-20)
(1.36519 0.275753 1.34861e-20)
(1.35484 0.267337 5.29355e-20)
(1.34551 0.259682 -5.02639e-20)
(1.33725 0.25232 1.25985e-20)
(0.17385 0.0238703 -5.3775e-20)
(0.503378 0.0876127 1.24503e-19)
(0.79567 0.166656 9.31097e-20)
(1.03233 0.23952 -1.42016e-20)
(1.2062 0.296297 1.45976e-19)
(1.32172 0.334767 -1.10508e-19)
(1.39021 0.356764 -8.55583e-21)
(1.42475 0.365963 9.6494e-20)
(1.43699 0.366293 3.05106e-20)
(1.43582 0.361059 4.3101e-20)
(1.42734 0.352676 -6.373e-20)
(1.41533 0.342735 1.67231e-19)
(1.40201 0.332197 3.13906e-20)
(1.38856 0.321606 -1.48177e-19)
(1.37561 0.311251 2.18023e-19)
(1.36347 0.301272 -2.57255e-19)
(1.35233 0.291718 -1.18582e-19)
(1.34225 0.282689 1.98815e-20)
(1.3332 0.274526 1.14734e-19)
(1.32525 0.266612 -2.19446e-19)
(0.189467 0.0329418 -1.17844e-19)
(0.536422 0.111792 -2.7983e-19)
(0.833695 0.200757 -2.43942e-19)
(1.06624 0.278136 -3.30746e-19)
(1.23099 0.335234 -1.88573e-19)
(1.33601 0.371481 -3.90496e-19)
(1.39498 0.390147 4.97038e-20)
(1.42205 0.395874 -2.08319e-19)
(1.42906 0.393089 -2.30847e-20)
(1.42457 0.385268 3.44132e-20)
(1.41418 0.37481 -7.60793e-20)
(1.40121 0.363213 9.64548e-20)
(1.38751 0.351335 1.71921e-19)
(1.37402 0.339632 -2.40933e-19)
(1.36121 0.328331 4.0044e-20)
(1.34932 0.31753 1.13453e-19)
(1.33848 0.307254 1.90342e-19)
(1.32874 0.297605 -1.64146e-19)
(1.32002 0.288923 -7.92798e-21)