/*--------------------------------*- C++ -*----------------------------------*\
  =========                 |
  \\      /  F ield         | OpenFOAM: The Open Source CFD Toolbox
   \\    /   O peration     | Website:  https://openfoam.org
    \\  /    A nd           | Version:  6.0
     \\/     M anipulation  |
\*---------------------------------------------------------------------------*/
FoamFile
{
    version     2.0;
    format      ascii;
    class       volScalarField;
    location    "14.9";
    object      p;
}
// * * * * * * * * * * * * * * * * * * * * * * * * * * * * * * * * * * * * * //

dimensions      [0 2 -2 0 0 0 0];

internalField   nonuniform List<scalar> 
8000
(
-0.283276
-0.284433
-0.28518
-0.285717
-0.286169
-0.286555
-0.286894
-0.287201
-0.287489
-0.287765
-0.288036
-0.288307
-0.288586
-0.288877
-0.289188
-0.28953
-0.289908
-0.290281
-0.290631
-0.291404
-0.28342
-0.284568
-0.285307
-0.285838
-0.286282
-0.286661
-0.286992
-0.287292
-0.287572
-0.287839
-0.2881
-0.288362
-0.28863
-0.288911
-0.289211
-0.289542
-0.28991
-0.290274
-0.290613
-0.291382
-0.283715
-0.284841
-0.285566
-0.286083
-0.286513
-0.286878
-0.287194
-0.287478
-0.287741
-0.287991
-0.288233
-0.288475
-0.288723
-0.288982
-0.28926
-0.289571
-0.289919
-0.290265
-0.290584
-0.291343
-0.284155
-0.285252
-0.285955
-0.286451
-0.28686
-0.287203
-0.287496
-0.287756
-0.287993
-0.288215
-0.288428
-0.288639
-0.288855
-0.289081
-0.289326
-0.289604
-0.289922
-0.290238
-0.290527
-0.291272
-0.284736
-0.285796
-0.28647
-0.286939
-0.28732
-0.287631
-0.287893
-0.288118
-0.288319
-0.288503
-0.288676
-0.288844
-0.289014
-0.289194
-0.289392
-0.289624
-0.289898
-0.290175
-0.290422
-0.291147
-0.285451
-0.286468
-0.287107
-0.287543
-0.287886
-0.288159
-0.288379
-0.288561
-0.288714
-0.288848
-0.288967
-0.289079
-0.289189
-0.289306
-0.289442
-0.289611
-0.289828
-0.290051
-0.290243
-0.290942
-0.286295
-0.287265
-0.287864
-0.288258
-0.288558
-0.288782
-0.288951
-0.289077
-0.289172
-0.289243
-0.289294
-0.289333
-0.289368
-0.289406
-0.289459
-0.289549
-0.289689
-0.289842
-0.289967
-0.290631
-0.287263
-0.288183
-0.288736
-0.289083
-0.28933
-0.289497
-0.289604
-0.289665
-0.289689
-0.289683
-0.289653
-0.289603
-0.289543
-0.289482
-0.289434
-0.289421
-0.289463
-0.289525
-0.289566
-0.290188
-0.288354
-0.289221
-0.289724
-0.290016
-0.290201
-0.290303
-0.290338
-0.290323
-0.290265
-0.29017
-0.290043
-0.289889
-0.289716
-0.289534
-0.28936
-0.289219
-0.289138
-0.289083
-0.28902
-0.289589
-0.289568
-0.290379
-0.290825
-0.291056
-0.291172
-0.291199
-0.291154
-0.291053
-0.290902
-0.290708
-0.290472
-0.290198
-0.289894
-0.28957
-0.289244
-0.288946
-0.288708
-0.288505
-0.288308
-0.288811
-0.290907
-0.291659
-0.292043
-0.292204
-0.292243
-0.292187
-0.292054
-0.291859
-0.291609
-0.291307
-0.290952
-0.290547
-0.290097
-0.28961
-0.289106
-0.288617
-0.288184
-0.287788
-0.287415
-0.287829
-0.292379
-0.293066
-0.29338
-0.293463
-0.293417
-0.29327
-0.293042
-0.292749
-0.292395
-0.29198
-0.291502
-0.290958
-0.29035
-0.289684
-0.288976
-0.288262
-0.287587
-0.28694
-0.286328
-0.28661
-0.293991
-0.294605
-0.294841
-0.294837
-0.294696
-0.29445
-0.294123
-0.293727
-0.293267
-0.292739
-0.292138
-0.291455
-0.290686
-0.28983
-0.288897
-0.287922
-0.286952
-0.285981
-0.285034
-0.285109
-0.295755
-0.296287
-0.296432
-0.296329
-0.296083
-0.295731
-0.295297
-0.294796
-0.29423
-0.293593
-0.292874
-0.292057
-0.29113
-0.29008
-0.28891
-0.287643
-0.286322
-0.284936
-0.283521
-0.283263
-0.297685
-0.29812
-0.298161
-0.297946
-0.297583
-0.297113
-0.296565
-0.295954
-0.295282
-0.29454
-0.293709
-0.292769
-0.291693
-0.290457
-0.289044
-0.287462
-0.285738
-0.283837
-0.281778
-0.280991
-0.299796
-0.300118
-0.300038
-0.299694
-0.299197
-0.298596
-0.297923
-0.297196
-0.296414
-0.295567
-0.294631
-0.293577
-0.292365
-0.290955
-0.289306
-0.287398
-0.285231
-0.282722
-0.279819
-0.278226
-0.302106
-0.302296
-0.302075
-0.301582
-0.300931
-0.30018
-0.299367
-0.29851
-0.29761
-0.296654
-0.295614
-0.294451
-0.293115
-0.291547
-0.289679
-0.287455
-0.284834
-0.281668
-0.277751
-0.275003
-0.304639
-0.304675
-0.304289
-0.303622
-0.302794
-0.30187
-0.300894
-0.299889
-0.298855
-0.297779
-0.296629
-0.295359
-0.293908
-0.292198
-0.290135
-0.287618
-0.284555
-0.280713
-0.27563
-0.271244
-0.307422
-0.307278
-0.306701
-0.305832
-0.304797
-0.303673
-0.30251
-0.301333
-0.300147
-0.298935
-0.297666
-0.296291
-0.294744
-0.292936
-0.290746
-0.288029
-0.284606
-0.280075
-0.273526
-0.266703
-0.310491
-0.310136
-0.309336
-0.308235
-0.306964
-0.305611
-0.304233
-0.30286
-0.301498
-0.300136
-0.298745
-0.297283
-0.295696
-0.293913
-0.291843
-0.289368
-0.286317
-0.282175
-0.27562
-0.267851
-0.313886
-0.313285
-0.31223
-0.310863
-0.309324
-0.307712
-0.306093
-0.3045
-0.302944
-0.301419
-0.299906
-0.29838
-0.296815
-0.295199
-0.293546
-0.291936
-0.290555
-0.289722
-0.290721
-0.300173
-0.317658
-0.31677
-0.315422
-0.313757
-0.311919
-0.310021
-0.308136
-0.306303
-0.304538
-0.30284
-0.301201
-0.299612
-0.298076
-0.296624
-0.295334
-0.294371
-0.294027
-0.294766
-0.2976
-0.306849
-0.321862
-0.32064
-0.318959
-0.316963
-0.314798
-0.312591
-0.310421
-0.308334
-0.306348
-0.30447
-0.302698
-0.301039
-0.299515
-0.298181
-0.297141
-0.29657
-0.296737
-0.298002
-0.300874
-0.307606
-0.326557
-0.324946
-0.322892
-0.320534
-0.318016
-0.31548
-0.313012
-0.31066
-0.308445
-0.306376
-0.304458
-0.302703
-0.301143
-0.299835
-0.298879
-0.298415
-0.298631
-0.299738
-0.301959
-0.306225
-0.331805
-0.329743
-0.327275
-0.324524
-0.321633
-0.318753
-0.315975
-0.313347
-0.31089
-0.308611
-0.306516
-0.304615
-0.302936
-0.301527
-0.300459
-0.299828
-0.299735
-0.300269
-0.301515
-0.303597
-0.337664
-0.335086
-0.33216
-0.328991
-0.325707
-0.322469
-0.319369
-0.316451
-0.31373
-0.311207
-0.308881
-0.306755
-0.304846
-0.303185
-0.301815
-0.300787
-0.300143
-0.299901
-0.300093
-0.300466
-0.344186
-0.341022
-0.3376
-0.333988
-0.330294
-0.326684
-0.323246
-0.320013
-0.316989
-0.314165
-0.311528
-0.309072
-0.306801
-0.30473
-0.302881
-0.301278
-0.299933
-0.298834
-0.297996
-0.297055
-0.351415
-0.347596
-0.343638
-0.339562
-0.335443
-0.331443
-0.327641
-0.324053
-0.320666
-0.317457
-0.314402
-0.311487
-0.308707
-0.306071
-0.303592
-0.301283
-0.29915
-0.297182
-0.295387
-0.293443
-0.359381
-0.354839
-0.350312
-0.345754
-0.341191
-0.336777
-0.33257
-0.328563
-0.324726
-0.32102
-0.317416
-0.313895
-0.310458
-0.307113
-0.303879
-0.300775
-0.29781
-0.294989
-0.292316
-0.289559
-0.368096
-0.36277
-0.357646
-0.352589
-0.347561
-0.342694
-0.338019
-0.333504
-0.329099
-0.324759
-0.320453
-0.316176
-0.311937
-0.307761
-0.30368
-0.299722
-0.295911
-0.292264
-0.288782
-0.28532
-0.377554
-0.371392
-0.365648
-0.360077
-0.354552
-0.349174
-0.343944
-0.338801
-0.333682
-0.328546
-0.32338
-0.318196
-0.31303
-0.307928
-0.302936
-0.298098
-0.293445
-0.289001
-0.284765
-0.280654
-0.387723
-0.380684
-0.374306
-0.368201
-0.362134
-0.356165
-0.350259
-0.344336
-0.338334
-0.332232
-0.326047
-0.319825
-0.313633
-0.307538
-0.301604
-0.29588
-0.290404
-0.285198
-0.280251
-0.275522
-0.398542
-0.390599
-0.383579
-0.376913
-0.37024
-0.36357
-0.356838
-0.349957
-0.342888
-0.335649
-0.328303
-0.320938
-0.31365
-0.306529
-0.299646
-0.293054
-0.286783
-0.280853
-0.275235
-0.269913
-0.409917
-0.401062
-0.393393
-0.38613
-0.378762
-0.37125
-0.363512
-0.355478
-0.347157
-0.338625
-0.330001
-0.321418
-0.313
-0.304848
-0.297035
-0.289605
-0.282581
-0.275966
-0.269717
-0.263834
-0.421717
-0.411957
-0.403636
-0.395724
-0.387546
-0.37902
-0.370075
-0.360688
-0.350941
-0.340986
-0.331003
-0.321165
-0.311614
-0.302452
-0.293744
-0.28552
-0.277788
-0.270536
-0.263697
-0.257291
-0.43377
-0.423132
-0.414154
-0.405521
-0.396388
-0.386655
-0.376291
-0.365359
-0.354039
-0.342567
-0.331183
-0.320086
-0.309427
-0.299297
-0.289744
-0.28078
-0.272393
-0.264553
-0.257171
-0.250288
-0.445864
-0.434392
-0.424747
-0.4153
-0.405044
-0.393892
-0.381903
-0.369259
-0.356255
-0.343215
-0.330424
-0.318099
-0.30638
-0.295341
-0.285005
-0.27536
-0.266375
-0.258001
-0.250124
-0.24282
-0.457749
-0.445502
-0.435171
-0.424795
-0.413228
-0.400446
-0.386644
-0.372157
-0.357405
-0.342788
-0.328623
-0.315126
-0.302415
-0.290537
-0.279486
-0.269226
-0.259705
-0.250856
-0.242538
-0.234871
-0.469132
-0.456183
-0.445141
-0.4337
-0.420626
-0.406015
-0.390248
-0.373834
-0.357316
-0.341155
-0.325682
-0.311092
-0.297473
-0.284837
-0.273147
-0.262342
-0.252351
-0.243085
-0.234385
-0.226418
-0.479691
-0.466124
-0.454332
-0.44168
-0.426908
-0.410297
-0.392457
-0.374085
-0.355832
-0.3382
-0.32151
-0.305925
-0.291493
-0.278187
-0.26594
-0.254664
-0.244272
-0.234656
-0.225633
-0.217434
-0.489077
-0.474984
-0.462396
-0.448381
-0.431736
-0.412995
-0.393031
-0.372723
-0.352813
-0.333815
-0.316024
-0.299556
-0.284415
-0.270534
-0.257816
-0.246148
-0.235429
-0.225528
-0.216247
-0.207885
-0.496922
-0.482398
-0.468961
-0.453439
-0.434778
-0.413831
-0.39175
-0.369583
-0.348132
-0.327903
-0.309143
-0.291918
-0.27618
-0.261825
-0.248726
-0.23675
-0.22578
-0.215666
-0.206194
-0.197741
-0.502852
-0.487995
-0.473656
-0.456498
-0.435724
-0.412554
-0.388422
-0.36452
-0.341681
-0.320377
-0.300797
-0.282947
-0.266731
-0.252009
-0.238624
-0.226428
-0.215288
-0.205034
-0.195443
-0.186972
-0.506494
-0.491403
-0.476112
-0.457219
-0.434288
-0.40894
-0.38288
-0.357411
-0.333366
-0.311162
-0.29092
-0.272586
-0.256017
-0.241038
-0.227468
-0.215144
-0.203918
-0.193603
-0.183966
-0.175552
-0.507493
-0.492264
-0.475981
-0.455294
-0.430219
-0.402802
-0.374988
-0.348156
-0.323108
-0.300192
-0.279456
-0.260785
-0.243993
-0.228873
-0.215223
-0.202866
-0.191643
-0.181347
-0.171742
-0.163463
-0.505514
-0.490242
-0.472947
-0.450452
-0.423311
-0.393989
-0.36464
-0.336676
-0.310846
-0.287416
-0.26636
-0.247504
-0.230623
-0.215481
-0.201861
-0.18957
-0.178443
-0.168249
-0.158759
-0.150691
-0.500262
-0.48504
-0.466735
-0.442469
-0.413397
-0.38239
-0.351759
-0.322916
-0.296537
-0.272797
-0.251597
-0.232712
-0.215879
-0.20084
-0.18736
-0.175241
-0.164303
-0.154301
-0.145009
-0.137233
-0.491485
-0.476403
-0.457118
-0.431171
-0.400362
-0.367929
-0.336297
-0.306844
-0.280153
-0.256311
-0.235148
-0.216391
-0.199746
-0.184936
-0.171713
-0.15987
-0.14922
-0.139501
-0.130495
-0.123088
-0.478981
-0.464131
-0.443926
-0.41644
-0.384135
-0.350571
-0.318239
-0.288451
-0.261689
-0.237952
-0.217005
-0.198533
-0.182218
-0.167764
-0.154916
-0.14346
-0.133199
-0.123857
-0.115229
-0.108271
-0.462609
-0.448082
-0.427051
-0.398214
-0.364695
-0.33032
-0.297597
-0.26775
-0.241156
-0.217728
-0.197175
-0.179145
-0.1633
-0.149333
-0.136979
-0.126021
-0.116254
-0.107389
-0.0992353
-0.0928049
-0.442288
-0.428176
-0.406443
-0.376487
-0.342067
-0.307216
-0.274414
-0.244781
-0.218588
-0.195667
-0.175679
-0.158246
-0.143009
-0.129656
-0.117916
-0.10757
-0.0984057
-0.0901225
-0.0825458
-0.0767321
-0.418003
-0.4044
-0.382118
-0.351308
-0.316322
-0.281334
-0.248762
-0.219607
-0.194037
-0.171813
-0.152556
-0.135864
-0.121371
-0.108756
-0.0977496
-0.0881284
-0.0796755
-0.0720847
-0.0651977
-0.0600962
-0.389804
-0.376804
-0.354153
-0.322779
-0.287572
-0.252785
-0.220741
-0.192315
-0.167577
-0.146228
-0.127855
-0.112043
-0.0984189
-0.0866623
-0.0765023
-0.0677166
-0.0600851
-0.0533017
-0.0472235
-0.0429209
-0.357805
-0.345505
-0.322683
-0.291054
-0.255974
-0.221717
-0.190481
-0.163018
-0.139304
-0.118991
-0.101642
-0.0868338
-0.0741942
-0.0634046
-0.0541981
-0.0463545
-0.0396543
-0.0337984
-0.0286471
-0.025197
-0.322183
-0.310678
-0.2879
-0.256332
-0.221722
-0.188306
-0.158142
-0.131854
-0.109338
-0.0902037
-0.0739997
-0.0603022
-0.048744
-0.0390144
-0.0308552
-0.0240524
-0.0183935
-0.0135893
-0.00947857
-0.00692476
-0.283171
-0.272558
-0.250047
-0.218857
-0.185046
-0.152765
-0.123912
-0.0989887
-0.0778217
-0.059989
-0.0450306
-0.0325285
-0.0221263
-0.0135278
-0.00648955
-0.00081011
0.00371052
0.00734473
0.0102763
0.011765
-0.241059
-0.231429
-0.209411
-0.178911
-0.146212
-0.115333
-0.0880049
-0.0646147
-0.0449258
-0.0284937
-0.0148578
-0.00361111
0.00558543
0.0130062
0.0188714
0.0233663
0.0266743
0.0290119
0.0304977
0.0304717
-0.196181
-0.187621
-0.166323
-0.13681
-0.105513
-0.0762788
-0.0506663
-0.0289523
-0.0108469
0.00411064
0.0163763
0.0263415
0.0343213
0.0405571
0.0452349
0.0485183
0.0505499
0.0513693
0.0508638
0.0487513
-0.148911
-0.141506
-0.121143
-0.0928993
-0.0632698
-0.0358983
-0.0121677
0.00774778
0.0241849
0.0376173
0.0484969
0.0572015
0.0640231
0.0691685
0.0727863
0.0750088
0.075863
0.0749896
0.0719191
0.0676718
-0.0996598
-0.0934825
-0.0742632
-0.0475478
-0.0198247
0.00549179
0.0271942
0.0452037
0.0598983
0.0717638
0.0812529
0.0887415
0.0945186
0.0987896
0.101716
0.103448
0.103885
0.102175
0.0976115
0.093014
-0.0488617
-0.0439778
-0.0260918
-0.00113979
0.024466
0.0475598
0.067106
0.0831124
0.0959908
0.106236
0.114302
0.120568
0.125338
0.128855
0.131366
0.133147
0.134171
0.133451
0.130727
0.134319
0.00303792
0.00657102
0.0229508
0.0459319
0.0692387
0.0899678
0.107249
0.121167
0.132158
0.140721
0.147301
0.152273
0.15594
0.158555
0.160383
0.161685
0.16245
0.162203
0.161844
0.167596
0.0555754
0.0577121
0.0724354
0.0932695
0.114128
0.132378
0.147307
0.159066
0.16811
0.174933
0.179972
0.183591
0.186086
0.187712
0.188718
0.189326
0.189518
0.188999
0.188683
0.193316
0.108285
0.108992
0.121934
0.140479
0.158773
0.17446
0.186973
0.19652
0.203568
0.208601
0.212039
0.214232
0.215461
0.215969
0.215987
0.21571
0.215135
0.214038
0.213169
0.216297
0.160701
0.15996
0.171023
0.187171
0.202822
0.215891
0.225951
0.233258
0.238282
0.241492
0.243292
0.244008
0.243907
0.243209
0.24212
0.240809
0.239257
0.237267
0.235532
0.237257
0.212369
0.210172
0.219287
0.23297
0.245934
0.256365
0.263963
0.269025
0.272018
0.273395
0.273537
0.272751
0.271281
0.269329
0.267077
0.264667
0.262066
0.259098
0.25642
0.256802
0.26284
0.259198
0.266326
0.27751
0.28778
0.295585
0.300743
0.30358
0.30456
0.304116
0.302606
0.300317
0.297469
0.294247
0.290809
0.287274
0.283599
0.279635
0.276011
0.275124
0.311686
0.306622
0.311754
0.320444
0.32805
0.333273
0.336037
0.336697
0.335706
0.333477
0.330346
0.326576
0.322369
0.31789
0.313279
0.308632
0.303903
0.298969
0.294424
0.29233
0.358493
0.352045
0.355204
0.361439
0.366445
0.369161
0.369609
0.368163
0.365266
0.36131
0.356608
0.351403
0.345878
0.340178
0.334428
0.328707
0.322966
0.317108
0.311681
0.308444
0.40287
0.395093
0.396328
0.400185
0.402687
0.403002
0.401235
0.397778
0.393061
0.387456
0.381254
0.374678
0.367892
0.361028
0.354193
0.34745
0.340755
0.334029
0.327767
0.32345
0.444451
0.435412
0.434802
0.436388
0.436515
0.434559
0.430704
0.425352
0.418922
0.411764
0.40415
0.396282
0.388311
0.380352
0.372496
0.364798
0.357214
0.349685
0.34264
0.337311
0.482894
0.472675
0.470324
0.469778
0.467685
0.463615
0.45782
0.450709
0.442689
0.43409
0.425166
0.416101
0.407031
0.398058
0.38926
0.380681
0.372282
0.364016
0.356247
0.34998
0.517885
0.506581
0.502619
0.500106
0.495976
0.489971
0.482403
0.473686
0.464214
0.454302
0.444182
0.434025
0.423955
0.414058
0.404403
0.395025
0.385889
0.376958
0.368529
0.361403
0.549142
0.536861
0.531438
0.527149
0.521186
0.513445
0.504288
0.494134
0.483363
0.472274
0.461086
0.449954
0.438988
0.428268
0.417848
0.407758
0.397969
0.388448
0.379426
0.371529
0.576413
0.563272
0.55656
0.550707
0.543137
0.533876
0.523329
0.511918
0.500013
0.487897
0.475776
0.463792
0.452046
0.440607
0.429522
0.418812
0.408455
0.398422
0.388882
0.380307
0.599478
0.585606
0.577793
0.570608
0.561671
0.551121
0.539397
0.526923
0.514058
0.501073
0.488161
0.475457
0.463052
0.451005
0.439357
0.428124
0.41729
0.406826
0.396845
0.387694
0.618155
0.603687
0.594975
0.586705
0.576659
0.565063
0.552385
0.539048
0.525405
0.511716
0.498165
0.484878
0.471939
0.4594
0.447297
0.435642
0.424422
0.41361
0.403271
0.393652
0.632293
0.617373
0.607976
0.598882
0.587993
0.575604
0.562203
0.548213
0.533981
0.519759
0.505724
0.491995
0.478652
0.465742
0.453294
0.44132
0.429809
0.418734
0.408122
0.398147
0.641781
0.626555
0.616698
0.607049
0.595593
0.582672
0.568785
0.554357
0.539729
0.52515
0.51079
0.496765
0.483151
0.469991
0.457313
0.445125
0.433418
0.422167
0.411372
0.401157
0.646542
0.631164
0.621074
0.611146
0.599406
0.586217
0.572087
0.557439
0.542613
0.527853
0.51333
0.499157
0.485406
0.472122
0.459327
0.447032
0.435228
0.423888
0.413001
0.402665
0.646539
0.631161
0.621072
0.611144
0.599404
0.586215
0.572085
0.557437
0.542611
0.527852
0.513329
0.499156
0.485405
0.472121
0.459326
0.447031
0.435227
0.423887
0.413
0.402664
0.641773
0.626548
0.616691
0.607042
0.595587
0.582666
0.56878
0.554352
0.539725
0.525145
0.510785
0.496761
0.483147
0.469987
0.457309
0.445121
0.433415
0.422163
0.411369
0.401153
0.63228
0.61736
0.607964
0.598871
0.587982
0.575594
0.562194
0.548205
0.533973
0.519751
0.505716
0.491988
0.478645
0.465735
0.453288
0.441314
0.429803
0.418728
0.408117
0.398142
0.618137
0.603669
0.594958
0.58669
0.576644
0.565049
0.552372
0.539036
0.525393
0.511705
0.498154
0.484868
0.471929
0.459391
0.447288
0.435634
0.424414
0.413602
0.403263
0.393644
0.599455
0.585583
0.577771
0.570587
0.561652
0.551104
0.53938
0.526907
0.514043
0.501058
0.488148
0.475444
0.46304
0.450993
0.439345
0.428113
0.417279
0.406816
0.396835
0.387685
0.576384
0.563244
0.556533
0.550682
0.543113
0.533854
0.523308
0.511899
0.499995
0.48788
0.475759
0.463776
0.452031
0.440593
0.429508
0.418798
0.408442
0.39841
0.388869
0.380296
0.549108
0.536827
0.531406
0.527119
0.521159
0.51342
0.504264
0.494111
0.483342
0.472254
0.461066
0.449935
0.438971
0.428251
0.417832
0.407742
0.397953
0.388433
0.379411
0.371515
0.517846
0.506543
0.502582
0.500072
0.495944
0.489942
0.482375
0.47366
0.46419
0.454278
0.444159
0.434004
0.423934
0.414039
0.404384
0.395006
0.385872
0.376941
0.368512
0.361387
0.482849
0.472631
0.470282
0.469739
0.467649
0.463581
0.457788
0.450679
0.442661
0.434063
0.42514
0.416076
0.407008
0.398035
0.389238
0.38066
0.372262
0.363996
0.356228
0.349961
0.444401
0.435363
0.434755
0.436345
0.436474
0.434521
0.430668
0.425319
0.41889
0.411734
0.404121
0.396254
0.388285
0.380326
0.372472
0.364775
0.357192
0.349663
0.342619
0.337291
0.402816
0.395039
0.396277
0.400137
0.402642
0.40296
0.401196
0.397741
0.393026
0.387423
0.381223
0.374647
0.367864
0.361001
0.354166
0.347424
0.34073
0.334005
0.327743
0.323427
0.358433
0.351986
0.355148
0.361387
0.366396
0.369115
0.369566
0.368122
0.365228
0.361274
0.356574
0.35137
0.345846
0.340148
0.334399
0.328679
0.322939
0.317082
0.311656
0.308419
0.311621
0.306558
0.311693
0.320386
0.327996
0.333223
0.33599
0.336652
0.335664
0.333437
0.330308
0.326539
0.322335
0.317857
0.313247
0.308601
0.303873
0.29894
0.294396
0.292303
0.26277
0.259129
0.26626
0.277448
0.287723
0.295531
0.300692
0.303532
0.304514
0.304073
0.302566
0.300277
0.297432
0.294211
0.290775
0.287241
0.283566
0.279604
0.275981
0.275095
0.212293
0.210098
0.219216
0.232903
0.245872
0.256307
0.263909
0.268973
0.271969
0.273348
0.273493
0.272709
0.271241
0.26929
0.26704
0.264631
0.262031
0.259064
0.256387
0.256771
0.160621
0.159881
0.170947
0.1871
0.202756
0.215829
0.225893
0.233203
0.23823
0.241443
0.243244
0.243963
0.243864
0.243167
0.24208
0.24077
0.239219
0.237231
0.235496
0.237224
0.108199
0.108908
0.121853
0.140403
0.158703
0.174393
0.18691
0.196461
0.203513
0.208548
0.211989
0.214183
0.215415
0.215925
0.215944
0.215669
0.215095
0.213999
0.213131
0.216261
0.0554849
0.0576233
0.0723504
0.0931895
0.114053
0.132308
0.147241
0.159003
0.168051
0.174877
0.179918
0.18354
0.186037
0.187665
0.188672
0.189282
0.189475
0.188958
0.188643
0.193278
0.00294271
0.0064775
0.0228612
0.0458474
0.0691597
0.0898937
0.107179
0.121101
0.132096
0.140661
0.147245
0.152219
0.155888
0.158505
0.160334
0.161638
0.162405
0.162159
0.161801
0.167555
-0.0489615
-0.0440758
-0.0261858
-0.00122844
0.0243829
0.0474819
0.0670327
0.0830431
0.0959251
0.106173
0.114242
0.120511
0.125283
0.128802
0.131315
0.133097
0.134123
0.133404
0.130681
0.134275
-0.099764
-0.093585
-0.0743615
-0.0476406
-0.0199117
0.0054101
0.0271173
0.045131
0.0598293
0.071698
0.08119
0.0886811
0.0944604
0.0987334
0.101662
0.103395
0.103834
0.102124
0.0975615
0.0929645
-0.14902
-0.141612
-0.121246
-0.092996
-0.0633606
-0.0359836
-0.0122481
0.00767175
0.0241127
0.0375484
0.0484309
0.0571381
0.063962
0.0691093
0.0727289
0.0749528
0.0758083
0.0749359
0.071866
0.0676189
-0.196293
-0.187732
-0.166429
-0.13691
-0.105607
-0.0763676
-0.05075
-0.0290316
-0.0109222
0.00403874
0.0163073
0.0262752
0.0342573
0.0404952
0.0451746
0.0484596
0.0504925
0.051313
0.0508082
0.0486961
-0.241175
-0.231543
-0.209521
-0.179015
-0.14631
-0.115425
-0.0880918
-0.0646971
-0.0450042
-0.0285685
-0.0149296
-0.00368017
0.00551873
0.0129416
0.0188085
0.0233051
0.0266144
0.0289532
0.03044
0.0304147
-0.283291
-0.272675
-0.25016
-0.218964
-0.185148
-0.15286
-0.124002
-0.099074
-0.0779028
-0.0600666
-0.0451051
-0.0326002
-0.0221956
-0.013595
-0.00655481
-0.000873725
0.00364835
0.00728386
0.0102165
0.0117061
-0.322305
-0.310798
-0.288016
-0.256442
-0.221826
-0.188405
-0.158235
-0.131942
-0.109421
-0.0902839
-0.0740768
-0.0603764
-0.0488157
-0.0390839
-0.0309228
-0.0241183
-0.0184579
-0.0136523
-0.00954036
-0.00698563
-0.35793
-0.345627
-0.322802
-0.291167
-0.256081
-0.221818
-0.190577
-0.163108
-0.13939
-0.119074
-0.101721
-0.0869103
-0.0742683
-0.0634764
-0.054268
-0.0464225
-0.0397208
-0.0338635
-0.0287109
-0.0252599
-0.389931
-0.376929
-0.354274
-0.322895
-0.287681
-0.252889
-0.220839
-0.192408
-0.167665
-0.146313
-0.127936
-0.112121
-0.0984952
-0.0867362
-0.0765743
-0.0677868
-0.0601536
-0.0533687
-0.0472892
-0.0429856
-0.418131
-0.404526
-0.382241
-0.351425
-0.316433
-0.281439
-0.248862
-0.219702
-0.194127
-0.1719
-0.15264
-0.135945
-0.121449
-0.108832
-0.0978236
-0.0882005
-0.079746
-0.0721537
-0.0652653
-0.0601627
-0.442418
-0.428304
-0.406567
-0.376606
-0.34218
-0.307323
-0.274516
-0.244878
-0.218681
-0.195756
-0.175765
-0.158328
-0.14309
-0.129734
-0.117992
-0.107644
-0.0984781
-0.0901933
-0.0826153
-0.0768004
-0.462739
-0.448211
-0.427176
-0.398335
-0.36481
-0.330429
-0.297701
-0.267849
-0.241251
-0.217819
-0.197262
-0.17923
-0.163382
-0.149412
-0.137056
-0.126097
-0.116329
-0.107462
-0.0993065
-0.092875
-0.479112
-0.46426
-0.444052
-0.416562
-0.384251
-0.350681
-0.318344
-0.288551
-0.261785
-0.238044
-0.217094
-0.198619
-0.182301
-0.167846
-0.154995
-0.143538
-0.133275
-0.123931
-0.115302
-0.108342
-0.491615
-0.476532
-0.457244
-0.431293
-0.400478
-0.36804
-0.336403
-0.306946
-0.28025
-0.256405
-0.235238
-0.216478
-0.199831
-0.185018
-0.171794
-0.159949
-0.149298
-0.139577
-0.13057
-0.123162
-0.500392
-0.485168
-0.46686
-0.44259
-0.413514
-0.382501
-0.351865
-0.323019
-0.296635
-0.272891
-0.251689
-0.232801
-0.215966
-0.200924
-0.187443
-0.175322
-0.164382
-0.154379
-0.145085
-0.137308
-0.505643
-0.490369
-0.473072
-0.450573
-0.423427
-0.394101
-0.364747
-0.336779
-0.310945
-0.287512
-0.266452
-0.247594
-0.230711
-0.215567
-0.201944
-0.189652
-0.178523
-0.168329
-0.158837
-0.150768
-0.507619
-0.492389
-0.476104
-0.455414
-0.430335
-0.402914
-0.375096
-0.348259
-0.323207
-0.300288
-0.279549
-0.260876
-0.244082
-0.22896
-0.215308
-0.202949
-0.191726
-0.181428
-0.171822
-0.163541
-0.506619
-0.491527
-0.476233
-0.457338
-0.434402
-0.409051
-0.382987
-0.357514
-0.333465
-0.311258
-0.291014
-0.272678
-0.256107
-0.241126
-0.227554
-0.215228
-0.204002
-0.193685
-0.184047
-0.175632
-0.502974
-0.488116
-0.473775
-0.456614
-0.435837
-0.412664
-0.388528
-0.364623
-0.341781
-0.320474
-0.300891
-0.283039
-0.266821
-0.252097
-0.238711
-0.226514
-0.215373
-0.205118
-0.195526
-0.187054
-0.497042
-0.482516
-0.469078
-0.453553
-0.43489
-0.41394
-0.391856
-0.369685
-0.348231
-0.328
-0.309238
-0.29201
-0.276271
-0.261915
-0.248814
-0.236837
-0.225866
-0.215751
-0.206278
-0.197825
-0.489194
-0.475099
-0.462509
-0.448493
-0.431845
-0.413102
-0.393135
-0.372825
-0.352911
-0.333912
-0.316118
-0.299649
-0.284506
-0.270624
-0.257904
-0.246236
-0.235516
-0.225614
-0.216333
-0.20797
-0.479804
-0.466236
-0.454443
-0.441789
-0.427015
-0.410402
-0.39256
-0.374185
-0.35593
-0.338296
-0.321604
-0.306018
-0.291584
-0.278277
-0.266029
-0.254753
-0.24436
-0.234743
-0.22572
-0.21752
-0.469242
-0.456292
-0.445248
-0.433806
-0.420731
-0.406118
-0.390349
-0.373933
-0.357413
-0.341251
-0.325776
-0.311184
-0.297564
-0.284927
-0.273237
-0.262431
-0.25244
-0.243174
-0.234474
-0.226507
-0.457855
-0.445607
-0.435276
-0.424898
-0.41333
-0.400546
-0.386743
-0.372255
-0.3575
-0.342882
-0.328716
-0.315218
-0.302506
-0.290628
-0.279577
-0.269316
-0.259795
-0.250945
-0.242628
-0.234961
-0.445968
-0.434494
-0.424848
-0.4154
-0.405143
-0.39399
-0.381999
-0.369354
-0.356349
-0.343308
-0.330516
-0.318191
-0.306471
-0.295431
-0.285095
-0.27545
-0.266465
-0.258092
-0.250215
-0.242911
-0.433869
-0.42323
-0.414251
-0.405618
-0.396484
-0.386749
-0.376384
-0.365452
-0.354131
-0.342658
-0.331273
-0.320177
-0.309517
-0.299387
-0.289835
-0.280871
-0.272484
-0.264645
-0.257263
-0.250381
-0.421813
-0.412052
-0.40373
-0.395818
-0.387638
-0.379112
-0.370166
-0.360778
-0.351031
-0.341075
-0.331092
-0.321254
-0.311703
-0.302542
-0.293834
-0.285611
-0.27788
-0.270629
-0.263791
-0.257385
-0.41001
-0.401154
-0.393483
-0.38622
-0.378851
-0.371338
-0.3636
-0.355566
-0.347244
-0.338712
-0.330088
-0.321506
-0.313089
-0.304937
-0.297125
-0.289696
-0.282673
-0.27606
-0.269812
-0.26393
-0.398632
-0.390688
-0.383667
-0.377
-0.370326
-0.363655
-0.356923
-0.350042
-0.342973
-0.335734
-0.328388
-0.321024
-0.313737
-0.306617
-0.299736
-0.293145
-0.286876
-0.280947
-0.275331
-0.270011
-0.38781
-0.380769
-0.374391
-0.368285
-0.362217
-0.356247
-0.350341
-0.344418
-0.338416
-0.332314
-0.32613
-0.319909
-0.313718
-0.307625
-0.301692
-0.295971
-0.290496
-0.285293
-0.280348
-0.27562
-0.377638
-0.371475
-0.365731
-0.360158
-0.354632
-0.349254
-0.344023
-0.338879
-0.333761
-0.328626
-0.32346
-0.318278
-0.313114
-0.308013
-0.303024
-0.298188
-0.293537
-0.289096
-0.284862
-0.280754
-0.368177
-0.362851
-0.357726
-0.352668
-0.347639
-0.342771
-0.338095
-0.33358
-0.329175
-0.324835
-0.320531
-0.316255
-0.312018
-0.307844
-0.303766
-0.299811
-0.296003
-0.292359
-0.28888
-0.285422
-0.35946
-0.354917
-0.350389
-0.345831
-0.341267
-0.336851
-0.332643
-0.328636
-0.324798
-0.321093
-0.31749
-0.313972
-0.310536
-0.307194
-0.303964
-0.300863
-0.297901
-0.295084
-0.292415
-0.289662
-0.351492
-0.347672
-0.343713
-0.339637
-0.335516
-0.331515
-0.327712
-0.324122
-0.320735
-0.317527
-0.314474
-0.31156
-0.308783
-0.30615
-0.303675
-0.30137
-0.299241
-0.297277
-0.295487
-0.293546
-0.344261
-0.341097
-0.337674
-0.334061
-0.330366
-0.326754
-0.323314
-0.32008
-0.317056
-0.314232
-0.311597
-0.309143
-0.306874
-0.304807
-0.302963
-0.301364
-0.300023
-0.29893
-0.298096
-0.29716
-0.337738
-0.335159
-0.332233
-0.329063
-0.325777
-0.322537
-0.319435
-0.316515
-0.313793
-0.311271
-0.308946
-0.306823
-0.304917
-0.30326
-0.301895
-0.300872
-0.300234
-0.299997
-0.300195
-0.300572
-0.331878
-0.329816
-0.327347
-0.324595
-0.321702
-0.318819
-0.316039
-0.313409
-0.310951
-0.308673
-0.306579
-0.30468
-0.303005
-0.3016
-0.300538
-0.299912
-0.299826
-0.300366
-0.301618
-0.303705
-0.32663
-0.325019
-0.322964
-0.320604
-0.318084
-0.315545
-0.313075
-0.31072
-0.308504
-0.306435
-0.304519
-0.302766
-0.30121
-0.299907
-0.298956
-0.298499
-0.298723
-0.299836
-0.302064
-0.306336
-0.321936
-0.320714
-0.319032
-0.317034
-0.314866
-0.312655
-0.310483
-0.308394
-0.306407
-0.304528
-0.302758
-0.301101
-0.299581
-0.298253
-0.297219
-0.296656
-0.296831
-0.298103
-0.300983
-0.307721
-0.317735
-0.316846
-0.315496
-0.313829
-0.311988
-0.310087
-0.308199
-0.306363
-0.304597
-0.302899
-0.301261
-0.299674
-0.298143
-0.296697
-0.295414
-0.294459
-0.294125
-0.294873
-0.297714
-0.30697
-0.313966
-0.313364
-0.312306
-0.310937
-0.309394
-0.307779
-0.306156
-0.304561
-0.303004
-0.301479
-0.299967
-0.298444
-0.296884
-0.295274
-0.293629
-0.292028
-0.290657
-0.289835
-0.290843
-0.300303
-0.310574
-0.310217
-0.309415
-0.308311
-0.307036
-0.30568
-0.304299
-0.302923
-0.30156
-0.300198
-0.298808
-0.29735
-0.295768
-0.293992
-0.29193
-0.289465
-0.286425
-0.282296
-0.275753
-0.267997
-0.307511
-0.307363
-0.306783
-0.305911
-0.304873
-0.303746
-0.302579
-0.3014
-0.300212
-0.299001
-0.297733
-0.296362
-0.29482
-0.293019
-0.290839
-0.288132
-0.28472
-0.280203
-0.273668
-0.266858
-0.304732
-0.304764
-0.304375
-0.303705
-0.302873
-0.301946
-0.300967
-0.29996
-0.298926
-0.29785
-0.296701
-0.295435
-0.29399
-0.292287
-0.290233
-0.287727
-0.284677
-0.280848
-0.27578
-0.271408
-0.302204
-0.302389
-0.302165
-0.301668
-0.301014
-0.30026
-0.299444
-0.298585
-0.297685
-0.29673
-0.295692
-0.294533
-0.293204
-0.291643
-0.289784
-0.287571
-0.284963
-0.281811
-0.277909
-0.275178
-0.299898
-0.300215
-0.300131
-0.299784
-0.299283
-0.29868
-0.298005
-0.297276
-0.296494
-0.295649
-0.294716
-0.293665
-0.29246
-0.291057
-0.289418
-0.287522
-0.285368
-0.282874
-0.279986
-0.278411
-0.297792
-0.29822
-0.298257
-0.298039
-0.297672
-0.2972
-0.296651
-0.296039
-0.295367
-0.294627
-0.293799
-0.292864
-0.291794
-0.290566
-0.289163
-0.287593
-0.285882
-0.283996
-0.281952
-0.281184
-0.295865
-0.296389
-0.296529
-0.296424
-0.296175
-0.295821
-0.295386
-0.294884
-0.294319
-0.293684
-0.292969
-0.292157
-0.291236
-0.290196
-0.289035
-0.28778
-0.286472
-0.285101
-0.283702
-0.283462
-0.294102
-0.294709
-0.29494
-0.294932
-0.294789
-0.294542
-0.294213
-0.293818
-0.293359
-0.292834
-0.292237
-0.291559
-0.290797
-0.289949
-0.289027
-0.288063
-0.287106
-0.28615
-0.285219
-0.285312
-0.29249
-0.293169
-0.293479
-0.293559
-0.29351
-0.293361
-0.293134
-0.292841
-0.292488
-0.292076
-0.291602
-0.291065
-0.290464
-0.289806
-0.289108
-0.288405
-0.287743
-0.287111
-0.286514
-0.286814
-0.291017
-0.291761
-0.29214
-0.292298
-0.292335
-0.292278
-0.292145
-0.291951
-0.291703
-0.291403
-0.291053
-0.290654
-0.29021
-0.289732
-0.289237
-0.28876
-0.28834
-0.287957
-0.287599
-0.288031
-0.289674
-0.290477
-0.290919
-0.291147
-0.291262
-0.291287
-0.291242
-0.291142
-0.290994
-0.290802
-0.290571
-0.290303
-0.290006
-0.28969
-0.289373
-0.289086
-0.288861
-0.288671
-0.288488
-0.289008
-0.288455
-0.289315
-0.289813