/*--------------------------------*- C++ -*----------------------------------*\
  =========                 |
  \\      /  F ield         | OpenFOAM: The Open Source CFD Toolbox
   \\    /   O peration     | Website:  https://openfoam.org
    \\  /    A nd           | Version:  6.0
     \\/     M anipulation  |
\*---------------------------------------------------------------------------*/
FoamFile
{
    version     2.0;
    format      ascii;
    class       surfaceScalarField;
    location    "14.9";
    object      phi;
}
// * * * * * * * * * * * * * * * * * * * * * * * * * * * * * * * * * * * * * //

dimensions      [0 3 -1 0 0 0 0];

internalField   nonuniform List<scalar> 
15760
(
-3.2552e-06
3.10661e-06
1.48593e-07
-1.14477e-05
7.82344e-06
3.69093e-07
-2.33806e-05
1.1401e-05
5.31951e-07
-3.81067e-05
1.40761e-05
6.49995e-07
-5.48847e-05
1.60444e-05
7.33633e-07
-7.31495e-05
1.74732e-05
7.91499e-07
-9.24858e-05
1.85057e-05
8.30632e-07
-0.000112607
1.92643e-05
8.56652e-07
-0.000133335
1.98542e-05
8.73948e-07
-0.000154586
2.03653e-05
8.85862e-07
-0.000176355
2.08743e-05
8.9487e-07
-0.000198704
2.14457e-05
9.02751e-07
-0.000221747
2.21323e-05
9.10731e-07
-0.000245642
2.29755e-05
9.19609e-07
-0.000270577
2.40057e-05
9.29846e-07
-0.000296761
2.52421e-05
9.41629e-07
-0.000324409
2.66932e-05
9.54929e-07
-0.000353735
2.83566e-05
9.69529e-07
-0.000384943
3.02228e-05
9.85124e-07
3.22851e-05
1.00141e-06
-0.00041823
-3.22417e-06
6.33078e-06
-1.13407e-05
1.594e-05
-2.31586e-05
2.32188e-05
-3.77311e-05
2.86486e-05
-5.43144e-05
3.26277e-05
-7.23383e-05
3.54972e-05
-9.13809e-05
3.75483e-05
-0.000111147
3.90303e-05
-0.000131449
4.01567e-05
-0.000152195
4.11104e-05
-0.000173367
4.20473e-05
-0.000195021
4.30988e-05
-0.000217262
4.43734e-05
-0.000240243
4.59569e-05
-0.000264151
4.79131e-05
-0.000289192
5.02836e-05
-0.000315587
5.3088e-05
-0.000343554
5.63237e-05
-0.000373304
5.99733e-05
6.40231e-05
-0.000405042
-3.16301e-06
9.49378e-06
-1.11292e-05
2.39062e-05
-2.27193e-05
3.48089e-05
-3.69882e-05
4.29174e-05
-5.31874e-05
4.88269e-05
-7.07376e-05
5.30474e-05
-8.92038e-05
5.60145e-05
-0.000108275
5.81011e-05
-0.000127745
5.96268e-05
-0.0001475
6.08661e-05
-0.000167507
6.20543e-05
-0.0001878
6.33911e-05
-0.00020847
6.50434e-05
-0.000229658
6.71457e-05
-0.000251546
6.98004e-05
-0.00027434
7.30775e-05
-0.000298266
7.7014e-05
-0.000323554
8.16125e-05
-0.000350433
8.68514e-05
9.27106e-05
-0.00037912
-3.07668e-06
1.25705e-05
-1.08286e-05
3.16581e-05
-2.20924e-05
4.60728e-05
-3.59256e-05
5.67506e-05
-5.15737e-05
6.44751e-05
-6.84448e-05
6.99185e-05
-8.60856e-05
7.36553e-05
-0.000104162
7.6177e-05
-0.000122441
7.7906e-05
-0.00014078
7.92057e-05
-0.000159116
8.03902e-05
-0.000177454
8.17291e-05
-0.000195862
8.34512e-05
-0.000214462
8.57458e-05
-0.000233424
8.8762e-05
-0.000252954
9.26076e-05
-0.000273287
9.73468e-05
-0.000294672
0.000102997
-0.000317361
0.000109541
0.000116953
-0.000341603
-2.97177e-06
1.55422e-05
-1.04591e-05
3.91454e-05
-2.13171e-05
5.69308e-05
-3.46064e-05
7.00399e-05
-4.95662e-05
7.94349e-05
-6.55897e-05
8.59419e-05
-8.22016e-05
9.02672e-05
-9.90392e-05
9.30146e-05
-0.000115836
9.47032e-05
-0.000132413
9.57821e-05
-0.000148664
9.66417e-05
-0.000164557
9.76222e-05
-0.000180125
9.90186e-05
-0.000195461
0.000101082
-0.000210718
0.000104019
-0.000226097
0.000107987
-0.000241844
0.000113094
-0.000258234
0.000119387
-0.000275557
0.000126864
0.000135505
-0.00029411
-2.85558e-06
1.83978e-05
-1.00432e-05
4.6333e-05
-2.04365e-05
6.73242e-05
-3.31002e-05
8.27035e-05
-4.72671e-05
9.36019e-05
-6.23157e-05
0.00010099
-7.77471e-05
0.000105699
-9.31671e-05
0.000108435
-0.000108271
0.000109807
-0.000122832
0.000110343
-0.000136697
0.000110507
-0.000149783
0.000110708
-0.000162074
0.00011131
-0.000173624
0.000112632
-0.000184557
0.000114952
-0.000195065
0.000118495
-0.000205401
0.00012343
-0.000215873
0.000129859
-0.000226826
0.000137818
0.000147305
-0.000238625
-2.7351e-06
2.11329e-05
-9.60209e-06
5.32e-05
-1.94913e-05
7.72133e-05
-3.14716e-05
9.46839e-05
-4.47719e-05
0.000106902
-5.87571e-05
0.000114976
-7.29063e-05
0.000119848
-8.67932e-05
0.000122321
-0.000100071
0.000123085
-0.000112465
0.000122737
-0.000123763
0.000121805
-0.000133821
0.000120765
-0.000142561
0.00012005
-0.000149981
0.000120053
-0.000156163
0.000121133
-0.000161273
0.000123605
-0.00016557
0.000127726
-0.000169396
0.000133685
-0.000173168
0.00014159
0.000151489
-0.000177352
-2.61589e-06
2.37488e-05
-9.15238e-06
5.97365e-05
-1.85122e-05
8.65731e-05
-2.97695e-05
0.000105941
-4.21513e-05
0.000119284
-5.50138e-05
0.000127838
-6.78176e-05
0.000132652
-8.01079e-05
0.000134612
-9.14988e-05
0.000134476
-0.000101663
0.000132901
-0.000110327
0.000130469
-0.000117275
0.000127713
-0.000122354
0.000125129
-0.000125489
0.000123188
-0.000126696
0.00012234
-0.0001261
0.000123008
-0.000123946
0.000125573
-0.000120613
0.000130352
-0.000116603
0.00013758
0.000147403
-0.000112517
-2.50124e-06
2.625e-05
-8.70303e-06
6.59383e-05
-1.75147e-05
9.53848e-05
-2.80158e-05
0.000116442
-3.94356e-05
0.000130704
-5.11266e-05
0.000139529
-6.25386e-05
0.000144064
-7.31953e-05
0.000145269
-8.26772e-05
0.000143958
-9.06095e-05
0.000140833
-9.66573e-05
0.000136517
-0.000100528
0.000131584
-0.000101983
0.000126584
-0.000100854
0.000122058
-9.70661e-05
0.000118553
-9.06745e-05
0.000116617
-8.18894e-05
0.000116788
-7.11061e-05
0.000119569
-5.89207e-05
0.000125394
0.0001346
-4.61169e-05
-2.39157e-06
2.86416e-05
-8.25351e-06
7.18002e-05
-1.64944e-05
0.000103626
-2.61984e-05
0.000126146
-3.66007e-05
0.000141106
-4.70573e-05
0.000149986
-5.70155e-05
0.000154022
-6.59885e-05
0.000154242
-7.35343e-05
0.000151503
-7.9241e-05
0.00014654
-8.27194e-05
0.000139996
-8.3604e-05
0.000132469
-8.15627e-05
0.000124543
-7.63193e-05
0.000116815
-6.76862e-05
0.00010992
-5.56106e-05
0.000104541
-4.02281e-05
0.000101406
-2.19215e-05
0.000101262
-1.37422e-06
0.000104847
0.000112818
2.04076e-05
-2.28434e-06
3.09259e-05
-7.79321e-06
7.73091e-05
-1.54254e-05
0.000111258
-2.42675e-05
0.000134988
-3.35624e-05
0.000150401
-4.26757e-05
0.000159099
-5.10621e-05
0.000162408
-5.82364e-05
0.000161416
-6.3749e-05
0.000157016
-6.71676e-05
0.000149958
-6.80648e-05
0.000140893
-6.60148e-05
0.000130419
-6.06e-05
0.000119128
-5.14318e-05
0.000107647
-3.81888e-05
9.66768e-05
-2.06755e-05
8.70278e-05
1.09725e-06
7.9633e-05
2.68117e-05
7.55476e-05
5.57283e-05
7.59302e-05
8.19581e-05
8.6588e-05
-2.17444e-06
3.31004e-05
-7.30256e-06
8.24372e-05
-1.42623e-05
0.000118218
-2.21372e-05
0.000142863
-3.01773e-05
0.000158441
-3.77606e-05
0.000166682
-4.43563e-05
0.000169004
-4.94922e-05
0.000166552
-5.27275e-05
0.000160251
-5.36298e-05
0.00015086
-5.17581e-05
0.000139021
-4.66521e-05
0.000125313
-3.78318e-05
0.000110308
-2.48113e-05
9.46261e-05
-7.13369e-06
7.89992e-05
1.55638e-05
6.43303e-05
4.34466e-05
5.17502e-05
7.63346e-05
4.26595e-05
0.000113499
3.87659e-05
4.20308e-05
0.000153426
-2.05514e-06
3.51555e-05
-6.7557e-06
8.71378e-05
-1.29451e-05
0.000124407
-1.96942e-05
0.000149612
-2.62543e-05
0.000165001
-3.20132e-05
0.000172441
-3.64562e-05
0.000173447
-3.91308e-05
0.000169226
-3.96175e-05
0.000160738
-3.75042e-05
0.000148747
-3.23644e-05
0.000133881
-2.37404e-05
0.000116689
-1.11317e-05
9.76989e-05
6.00329e-06
7.74911e-05
2.82259e-05
5.67766e-05
5.60599e-05
3.64963e-05
8.988e-05
1.79301e-05
0.000129723
2.81694e-06
0.000174978
-6.48921e-06
-6.92647e-06
0.000223935
-1.91927e-06
3.70748e-05
-6.12417e-06
9.13427e-05
-1.14063e-05
0.000129689
-1.68093e-05
0.000155015
-2.15729e-05
0.000169765
-2.50849e-05
0.000175953
-2.68391e-05
0.000175201
-2.63997e-05
0.000168787
-2.3372e-05
0.00015771
-1.7377e-05
0.000142752
-8.02811e-06
0.000124533
5.08996e-06
0.000103571
2.24412e-05
8.03476e-05
4.45529e-05
5.53795e-05
7.20159e-05
2.93136e-05
0.000105454
3.05798e-06
0.000145432
-2.20473e-05
0.000192254
-4.40051e-05
0.000245568
-5.98031e-05
-6.49783e-05
0.000303619
-1.76047e-06
3.88353e-05
-5.38062e-06
9.49628e-05
-9.57905e-06
0.000133888
-1.33516e-05
0.000158788
-1.5907e-05
0.00017232
-1.66133e-05
0.00017666
-1.49548e-05
0.000173542
-1.04963e-05
0.000164328
-2.85711e-06
0.000150071
8.31133e-06
0.000131584
2.33442e-05
0.0001095
4.25832e-05
8.43318e-05
6.63984e-05
5.65324e-05
9.5214e-05
2.65639e-05
0.000129533
-5.0054e-06
0.000169947
-3.73559e-05
0.000217096
-6.91963e-05
0.00027152
-9.84294e-05
0.000333247
-0.00012153
-0.000132479
0.000400747
-1.57392e-06
4.04092e-05
-4.50141e-06
9.78903e-05
-7.40239e-06
0.000136789
-9.1995e-06
0.000160585
-9.04369e-06
0.000172164
-6.25583e-06
0.000173872
-2.80869e-07
0.000167567
9.3452e-06
0.000154702
2.30175e-05
0.000136399
4.10767e-05
0.000113524
6.3819e-05
8.67574e-05
9.15053e-05
5.66454e-05
0.000124375
2.36624e-05
0.00016267
-1.17309e-05
0.000206668
-4.90037e-05
0.000256734
-8.74217e-05
0.000313352
-0.000125814
0.000377096
-0.000162173
0.000448364
-0.000192798
-0.000210292
0.000526178
-1.35633e-06
4.17655e-05
-3.46679e-06
0.000100001
-4.82299e-06
0.000138145
-4.2448e-06
0.000160007
-7.94214e-07
0.000168714
6.28965e-06
0.000166788
1.76385e-05
0.000156219
3.3786e-05
0.000138555
5.51843e-05
0.000115001
8.22087e-05
8.65e-05
0.000115155
5.38109e-05
0.000154232
1.75683e-05
0.000199555
-2.16604e-05
0.000251147
-6.33223e-05
0.000308959
-0.000106816
0.000372927
-0.00015139
0.000443057
-0.000195944
0.000519529
-0.000238646
0.000602744
-0.000276013
-0.000300076
0.000692528
-1.10499e-06
4.28705e-05
-2.25828e-06
0.000101154
-1.79057e-06
0.000137677
1.61262e-06
0.000156604
9.01185e-06
0.000161314
2.12866e-05
0.000154513
3.91858e-05
0.000138319
6.33576e-05
0.000114383
9.43599e-05
8.39984e-05
0.000132656
4.82035e-05
0.000178601
7.8668e-06
0.000232409
-3.62399e-05
0.000294128
-8.338e-05
0.000363603
-0.000132797
0.000440448
-0.000183661
0.000524057
-0.000234998
0.000613664
-0.00028555
0.000708494
-0.000333477
0.000808068
-0.000375587
-0.00040514
0.000913132
-8.15899e-07
4.36864e-05
-8.53462e-07
0.000101192
1.7515e-06
0.000135072
8.47939e-06
0.000149876
2.05461e-05
0.000149248
3.89844e-05
0.000136075
6.46976e-05
0.000112606
9.84869e-05
8.05937e-05
0.000141059
4.14266e-05
0.000193014
-3.75132e-06
0.000254821
-5.39411e-05
0.000326785
-0.000108204
0.000408991
-0.000165586
0.000501243
-0.000225049
0.000602979
-0.000285398
0.000713177
-0.000345196
0.000830257
-0.00040263
0.000952018
-0.000455238
0.00107587
-0.000499437
-0.000531957
0.00120269
-4.81607e-07
4.4168e-05
7.80246e-07
9.99297e-05
5.8779e-06
0.000129975
1.64871e-05
0.000139267
3.40079e-05
0.000131727
5.96543e-05
0.000110428
9.45085e-05
7.7752e-05
0.000139547
3.55557e-05
0.00019564
-1.4667e-05
0.000263543
-7.16547e-05
0.00034387
-0.000134268
0.000437067
-0.0002014
0.000543381
-0.0002719
0.000662829
-0.000344497
0.000795148
-0.000417717
0.000939713
-0.00048976
0.00109532
-0.000558241
0.00125947
-0.000619385
0.00142557
-0.000665541
-0.000679605
0.00157322
-9.01183e-08
4.42581e-05
2.68965e-06
9.715e-05
1.06898e-05
0.000121974
2.58064e-05
0.00012415
4.96456e-05
0.000107888
8.36175e-05
7.64566e-05
0.000128988
3.23817e-05
0.000186895
-2.23513e-05
0.000258344
-8.61163e-05
0.00034419
-0.0001575
0.000445115
-0.000235194
0.000561624
-0.00031791
0.000694059
-0.000404334
0.000842659
-0.000493097
0.00100771
-0.000582765
0.00118981
-0.000671864
0.00139044
-0.000758873
0.00161321
-0.000842152
0.00186779
-0.000920117
-0.000987996
0.00217618
3.78644e-07
4.38795e-05
4.9422e-06
9.25864e-05
1.63229e-05
0.000110594
3.66559e-05
0.000103817
6.77644e-05
7.67793e-05
0.000111252
3.29687e-05
0.000168544
-2.49098e-05
0.000240885
-9.46921e-05
0.000329318
-0.00017455
0.000434653
-0.000262835
0.000557437
-0.000357977
0.000697945
-0.000458418
0.000856203
-0.000562593
0.00103205
-0.000668948
0.00122528
-0.00077599
0.00143579
-0.000882376
0.00166394
-0.000987028
0.00191105
-0.00108926
0.00217972
-0.00118879
-0.00127776
0.00246949
9.48214e-07
4.29313e-05
7.6169e-06
8.59177e-05
2.29341e-05
9.52766e-05
4.92827e-05
7.74683e-05
8.8699e-05
3.7363e-05
0.000142954
-2.12862e-05
0.00021357
-9.55258e-05
0.000301795
-0.000182917
0.000408556
-0.00028131
0.000534402
-0.000388682
0.000679473
-0.000503048
0.000843481
-0.000622425
0.00102574
-0.000744849
0.00122521
-0.000868424
0.00144063
-0.000991405
0.00167055
-0.0011123
0.00191351
-0.00122998
0.002168
-0.00134375
0.00243242
-0.00145321
-0.00155021
0.00270487
1.64629e-06
4.1285e-05
1.08019e-05
7.67621e-05
3.06913e-05
7.53871e-05
6.39388e-05
4.42208e-05
0.000112768
-1.14664e-05
0.000179058
-8.7576e-05
0.000264324
-0.000180792
0.000369659
-0.000288252
0.000495656
-0.000407308
0.000642345
-0.000535371
0.000809156
-0.000669859
0.000994928
-0.000808197
0.00119796
-0.000947881
0.0014161
-0.00108657
0.00164688
-0.00122218
0.00188757
-0.00135299
0.00213531
-0.00147772
0.00238709
-0.00159554
0.00263987
-0.00170598
-0.00180252
0.00289218
2.50101e-06
3.8784e-05
1.45832e-05
6.468e-05
3.97501e-05
5.02202e-05
8.08399e-05
3.13098e-06
0.000140207
-7.08337e-05
0.000219736
-0.000167105
0.000320776
-0.000281832
0.000444048
-0.000411524
0.000589547
-0.000552806
0.000756487
-0.000702311
0.000943299
-0.000856672
0.0011477
-0.0010126
0.00136683
-0.001167
0.00159737
-0.00131711
0.00183578
-0.00146059
0.00207844
-0.00159565
0.00232173
-0.00172102
0.00256218
-0.00183599
0.00279654
-0.00194035
-0.00202968
0.0030237
3.53777e-06
3.52462e-05
1.90339e-05
4.91839e-05
5.02307e-05
1.90234e-05
0.000100124
-4.6762e-05
0.0001711
-0.000141811
0.000264896
-0.0002609
0.000382476
-0.000399413
0.000523916
-0.000552964
0.00068831
-0.000717201
0.000873769
-0.000887769
0.0010775
-0.0010604
0.00129596
-0.00123107
0.00152515
-0.00139619
0.00176078
-0.00155274
0.00199861
-0.00169843
0.00223462
-0.00183166
0.00246518
-0.00195157
0.00268712
-0.00205792
0.00289786
-0.00215109
-0.00222868
0.00309686
4.77668e-06
3.04695e-05
2.4205e-05
2.97555e-05
6.21976e-05
-1.89691e-05
0.000121813
-0.000106377
0.000205325
-0.000225323
0.000314105
-0.00036968
0.000448461
-0.000533768
0.000607509
-0.000712012
0.000789148
-0.00089884
0.000990148
-0.00108877
0.00120638
-0.00127663
0.00143311
-0.0014578
0.00166539
-0.00162847
0.00189838
-0.00178573
0.00212765
-0.0019277
0.0023494
-0.0020534
0.00256056
-0.00216274
0.00275889
-0.00225625
0.0029429
-0.0023351
-0.00239861
0.00311282
6.23076e-06
2.42388e-05
3.01188e-05
5.86746e-06
7.56446e-05
-6.44949e-05
0.000145792
-0.000176525
0.000242517
-0.000322048
0.000366555
-0.000493718
0.000517236
-0.000684449
0.000692408
-0.000887184
0.000888523
-0.00109496
0.0011009
-0.00130115
0.00132414
-0.00149987
0.00155258
-0.00168624
0.00178076
-0.00185664
0.00200379
-0.00200876
0.00221765
-0.00214156
0.00241931
-0.00225507
0.00260677
-0.00235019
0.00277897
-0.00242845
0.00293566
-0.0024918
-0.00254092
0.00307798
7.90514e-06
1.63336e-05
3.67646e-05
-2.2992e-05
9.04861e-05
-0.000118216
0.000171789
-0.000257827
0.000282052
-0.000432311
0.000421056
-0.000632722
0.000586823
-0.000850216
0.00077566
-0.00107602
0.000982445
-0.00130174
0.00120112
-0.00151982
0.00142527
-0.00172402
0.00164876
-0.00190972
0.00186616
-0.00207404
0.00207315
-0.00221575
0.00226662
-0.00233503
0.0024447
-0.00243315
0.00260666
-0.00251215
0.00275267
-0.00257446
0.00288362
-0.00262274
-0.00265864
0.00300134
9.79668e-06
6.53693e-06
4.40968e-05
-5.72921e-05
0.000106553
-0.000180672
0.000199377
-0.000350652
0.000323062
-0.000555995
0.000476088
-0.000785748
0.00065487
-0.001029
0.000854011
-0.00127516
0.00106685
-0.00151458
0.00128623
-0.00173919
0.00150519
-0.00194298
0.00171767
-0.00212221
0.00191889
-0.00227527
0.00210556
-0.00240242
0.00227585
-0.00250531
0.0024292
-0.0025865
0.00256611
-0.00264905
0.00268779
-0.00269615
0.00279594
-0.00273088
-0.00275552
0.00289282
1.18938e-05
-5.3569e-06
5.20348e-05
-9.74331e-05
0.000123591
-0.000252229
0.000227979
-0.00045504
0.000364455
-0.000692472
0.000529874
-0.000951167
0.000718826
-0.00121795
0.0009242
-0.00148054
0.00113805
-0.00172844
0.00135255
-0.00195369
0.00156081
-0.00215124
0.00175743
-0.00231883
0.00193876
-0.0024566
0.00210285
-0.00256651
0.00224924
-0.00265171
0.00237864
-0.0027159
0.00249253
-0.00276294
0.00259284
-0.00279646
0.00268169
-0.00281974
-0.00283533
0.0027615
1.41764e-05
-1.95333e-05
6.04619e-05
-0.000143719
0.000141269
-0.000333035
0.000256883
-0.000570654
0.000404976
-0.000840565
0.000580501
-0.00112669
0.000776144
-0.00141359
0.00098327
-0.00168766
0.00119308
-0.00193824
0.00139766
-0.00215828
0.00159079
-0.00234437
0.00176822
-0.00249626
0.00192773
-0.00261611
0.00206881
-0.00270759
0.00219227
-0.00277517
0.00229979
-0.00282342
0.00239352
-0.00285667
0.00247578
-0.00287871
0.0025488
-0.00289276
-0.00290137
0.00261484
1.66153e-05
-3.61486e-05
6.92271e-05
-0.00019633
0.000159179
-0.000422988
0.000285273
-0.000696747
0.00044327
-0.000998563
0.000626055
-0.00130948
0.000824511
-0.00161205
0.00102885
-0.001892
0.00122998
-0.00213937
0.00142055
-0.00234885
0.00159546
-0.00251928
0.00175197
-0.00265277
0.00188934
-0.00275348
0.00200839
-0.00282664
0.00211092
-0.0028777
0.00219929
-0.00291179
0.00227596
-0.00293334
0.00234332
-0.00294607
0.00240348
-0.00295293
-0.00295631
0.00245843
1.9172e-05
-5.53206e-05
7.81468e-05
-0.000255305
0.000176858
-0.000521698
0.000312267
-0.000832156
0.000477974
-0.00116427
0.000664778
-0.00149628
0.00086204
-0.00180931
0.00105935
-0.00208931
0.00124794
-0.00232797
0.00142154
-0.00252245
0.00157656
-0.0026743
0.0017118
-0.00278801
0.00182793
-0.00286961
0.00192682
-0.00292553
0.00201095
-0.00296184
0.002083
-0.00298383
0.00214548
-0.00299583
0.00220065
-0.00300123
0.00225037
-0.00300264
-0.00300219
0.00229625
2.17991e-05
-7.71197e-05
8.70096e-05
-0.000320516
0.000193798
-0.000628486
0.000336968
-0.000975326
0.000507813
-0.00133512
0.0006952
-0.00168367
0.000887419
-0.00200153
0.00107404
-0.00227593
0.0012472
-0.00250113
0.00140209
-0.00267733
0.00153674
-0.00280895
0.00165144
-0.00290272
0.00174801
-0.00296617
0.00182903
-0.00300655
0.00189736
-0.00303017
0.00195571
-0.00304218
0.00200647
-0.00304659
0.00205159
-0.00304636
0.00209266
-0.00304371
-0.00304046
0.00213093
2.4441e-05
-0.000101561
9.55831e-05
-0.000391658
0.000209477
-0.00074238
0.000358516
-0.00112437
0.000531688
-0.00150829
0.00071625
-0.00186823
0.00089998
-0.00218526
0.00107303
-0.00244898
0.00122888
-0.00265698
0.00136438
-0.00281283
0.00147916
-0.00292372
0.00157476
-0.00299832
0.00165381
-0.00304523
0.00171934
-0.00307207
0.00177425
-0.00308508
0.00182114
-0.00308907
0.00186211
-0.00308756
0.00189882
-0.00308307
0.00193254
-0.00307742
-0.00307212
0.0019642
2.70351e-05
-0.000128596
0.000103624
-0.000468247
0.000223386
-0.000862141
0.000376151
-0.00127713
0.000548754
-0.00168089
0.00072731
-0.00204679
0.000899683
-0.00235763
0.00105712
-0.00260642
0.00119473
-0.00279459
0.00131104
-0.00292914
0.00140709
-0.00301976
0.00148538
-0.00307661
0.00154905
-0.0031089
0.00160126
-0.00312428
0.00164481
-0.00312864
0.00168202
-0.00312628
0.00171469
-0.00312022
0.00174415
-0.00311254
0.0017714
-0.00310467
-0.00309784
0.00179712
2.95147e-05
-0.00015811
0.00011089
-0.000549623
0.000235055
-0.000986306
0.00038925
-0.00143133
0.000558466
-0.00185011
0.000728223
-0.00221654
0.000887039
-0.00251645
0.00102764
-0.00274702
0.00114686
-0.00291382
0.0012448
-0.00302709
0.00132363
-0.00309859
0.0013865
-0.00313948
0.00143679
-0.00315919
0.00147757
-0.00316507
0.00151142
-0.00316248
0.00154032
-0.00315518
0.00156575
-0.00314565
0.00158878
-0.00313557
0.00161015
-0.00312604
-0.00311805
0.00163036
3.18112e-05
-0.000189922
0.000117151
-0.000634963
0.000244085
-0.00111324
0.000397374
-0.00158461
0.000560592
-0.00201332
0.000719245
-0.0023752
0.000862981
-0.00266018
0.000986221
-0.00287026
0.00108751
-0.00301511
0.00116828
-0.00310786
0.00123154
-0.00316184
0.00128081
-0.00318875
0.00131947
-0.00319785
0.00135039
-0.00319599
0.00137582
-0.00318791
0.00139741
-0.00317677
0.00141637
-0.0031646
0.0014335
-0.0031527
0.00144937
-0.00314192
-0.00313301
0.00146434
3.38575e-05
-0.000223779
0.000122202
-0.000723307
0.000250166
-0.0012412
0.000400273
-0.00173472
0.000555197
-0.00216825
0.000700973
-0.00252097
0.000828732
-0.00278794
0.000934667
-0.00297619
0.00101888
-0.00309932
0.00108387
-0.00317285
0.00113318
-0.00321116
0.00117049
-0.00322605
0.00119899
-0.00322636
0.00122128
-0.00321827
0.00123925
-0.00320588
0.00125425
-0.00319178
0.00126723
-0.00317759
0.00127882
-0.00316429
0.00128944
-0.00315253
-0.00314289
0.00129931
3.55949e-05
-0.000259374
0.00012588
-0.000813592
0.000253101
-0.00136843
0.000397906
-0.00187953
0.000542617
-0.00231296
0.000674266
-0.00265262
0.000785683
-0.00289936
0.000874786
-0.0030653
0.000943007
-0.00316754
0.000993634
-0.00322347
0.00103052
-0.00324804
0.00105725
-0.00325279
0.00107679
-0.0032459
0.00109138
-0.00323285
0.00110258
-0.00321709
0.0011115
-0.00320069
0.00111885
-0.00318493
0.00112511
-0.00317056
0.0011306
-0.00315802
-0.00314777
0.00113548
3.69615e-05
-0.000296336
0.000128043
-0.000904673
0.000252771
-0.00149315
0.00039037
-0.00201712
0.000523345
-0.00244593
0.000640092
-0.00276937
0.000735224
-0.00299449
0.000808244
-0.00313832
0.000861663
-0.00322096
0.000899293
-0.0032611
0.000925067
-0.00327382
0.000942388
-0.00327011
0.000953894
-0.00325741
0.000961476
-0.00324044
0.000966422
-0.00322203
0.000969581
-0.00320385
0.000971513
-0.00318687
0.000972587
-0.00317163
0.000973033
-0.00315847
-0.0031477
0.000972964
3.79147e-05
-0.00033425
0.000128615
-0.000995374
0.00024919
-0.00161373
0.000377946
-0.00214588
0.000498058
-0.00256604
0.000599534
-0.00287085
0.00067875
-0.00307371
0.000736599
-0.00319616
0.000776407
-0.00326077
0.00080228
-0.00328698
0.000818073
-0.00328961
0.00082691
-0.00327894
0.000831088
-0.00326159
0.000832177
-0.00324153
0.000831204
-0.00322106
0.000828829
-0.00320148
0.000825481
-0.00318352
0.000821442
-0.00316759
0.000816888
-0.00315391
-0.00314271
0.000811898
3.84195e-05
-0.00037267
0.000127562
-0.00108452
0.000242456
-0.00172862
0.000361017
-0.00226444
0.0004675
-0.00267253
0.000553665
-0.00295701
0.000617549
-0.00313759
0.000661205
-0.00323982
0.000688531
-0.00328809
0.000703735
-0.00330218
0.000710477
-0.00329635
0.000711558
-0.00328002
0.000708937
-0.00325897
0.000703895
-0.00323648
0.000697238
-0.0032144
0.000689473
-0.00319371
0.000680928
-0.00317497
0.000671822
-0.00315849
0.000662291
-0.00314438
-0.00313281
0.000652393
3.84527e-05
-0.000411122
0.000124892
-0.00117096
0.000232744
-0.00183648
0.000340045
-0.00237174
0.000432451
-0.00276493
0.000503515
-0.00302808
0.00055278
-0.00318686
0.00058322
-0.00327026
0.000599093
-0.00330397
0.000604555
-0.00330764
0.000602997
-0.00329479
0.000596881
-0.00327391
0.00058785
-0.00324993
0.000576931
-0.00322556
0.000564748
-0.00320222
0.000551685
-0.00318065
0.000537994
-0.00316128
0.000523846
-0.00314434
0.000509351
-0.00312989
-0.00311802
0.000494556
3.80035e-05
-0.000449126
0.000120657
-0.00125361
0.000220291
-0.00193611
0.000315538
-0.00246699
0.000393683
-0.00284308
0.000450038
-0.00308443
0.000485459
-0.00322228
0.000503618
-0.00328842
0.000508946
-0.0033093
0.000505439
-0.00330413
0.000496175
-0.00328553
0.000483284
-0.00326102
0.000468123
-0.00323477
0.000451504
-0.00320894
0.0004339
-0.00318461
0.000415599
-0.00316235
0.000396792
-0.00314247
0.000377618
-0.00312516
0.000358169
-0.00311044
-0.00309834
0.000338487
3.70724e-05
-0.000486198
0.000114941
-0.00133148
0.000205376
-0.00202654
0.000288023
-0.00254964
0.000351937
-0.00290699
0.000394095
-0.00312659
0.000416461
-0.00324464
0.0004232
-0.00329516
0.000418769
-0.00330486
0.000406925
-0.00329229
0.000390419
-0.00326902
0.000371067
-0.00324167
0.000349975
-0.00321368
0.000327775
-0.00318675
0.000304821
-0.00316166
0.00028132
-0.00313885
0.000257418
-0.00311857
0.000233228
-0.00310097
0.000208833
-0.00308604
-0.00307378
0.000184275
3.5671e-05
-0.000521869
0.000107856
-0.00140366
0.000188303
-0.00210699
0.00025802
-0.00261935
0.000307898
-0.00295687
0.000336444
-0.00315514
0.000346527
-0.00325473
0.000342623
-0.00329126
0.0003291
-0.00329134
0.000309428
-0.00327262
0.000286034
-0.00324563
0.000260448
-0.00321608
0.000233565
-0.0031868
0.000205866
-0.00315905
0.000177608
-0.0031334
0.000148934
-0.00311018
0.000119951
-0.00308959
9.0753e-05
-0.00307178
6.14198e-05
-0.00305671
-0.00304436
3.2e-05
3.38199e-05
-0.000555689
9.95349e-05
-0.00146938
0.000169389
-0.00217684
0.000226032
-0.002676
0.000262192
-0.00299303
0.000277747
-0.00317069
0.000276277
-0.00325326
0.000262418
-0.0032774
0.00024036
-0.00326928
0.000213267
-0.00324553
0.000183251
-0.00321561
0.000151595
-0.00318443
0.000119013
-0.00315421
8.58679e-05
-0.0031259
5.23358e-05
-0.00309987
1.85079e-05
-0.00307635
-1.55443e-05
-0.00305554
-4.97424e-05
-0.00303758
-8.4003e-05
-0.00302245
-0.0030101
-0.000118266
3.15482e-05
-0.000587237
9.0123e-05
-0.00152795
0.000148951
-0.00223567
0.000192529
-0.00271957
0.000215377
-0.00301588
0.000218573
-0.00317389
0.000206228
-0.00324091
0.000183014
-0.00325418
0.000152886
-0.00323916
0.000118691
-0.00321133
8.22514e-05
-0.00317917
4.4635e-05
-0.00314681
6.41031e-06
-0.00311599
-3.21517e-05
-0.00308734
-7.094e-05
-0.00306108
-0.00010991
-0.00303738
-0.000149023
-0.00301643
-0.000188213
-0.00299839
-0.00022739
-0.00298327
-0.00297101
-0.000266476
2.88912e-05
-0.000616129
7.97749e-05
-0.00157884
0.000127298
-0.0022832
0.000157948
-0.00275022
0.000167949
-0.00302588
0.000159408
-0.00316535
0.000136812
-0.00321831
0.000104765
-0.00322214
6.695e-05
-0.00320134
2.59001e-05
-0.00317028
-1.68205e-05
-0.00313645
-6.03283e-05
-0.0031033
-0.000104169
-0.00307215
-0.00014814
-0.00304337
-0.000192183
-0.00301704
-0.000236293
-0.00299327
-0.000280465
-0.00297225
-0.000324648
-0.0029542
-0.000368738
-0.00293918
-0.00292712
-0.000412631
2.58897e-05
-0.000642018
6.86481e-05
-0.0016216
0.000104727
-0.00231927
0.000122684
-0.00276818
0.000120342
-0.00302354
0.000100669
-0.00314567
6.83883e-05
-0.00318603
2.79626e-05
-0.00318171
-1.72223e-05
-0.00315616
-6.49322e-05
-0.00312257
-0.000113836
-0.00308755
-0.0001632
-0.00305394
-0.000212658
-0.00302269
-0.000262056
-0.00299397
-0.00031137
-0.00296773
-0.000360635
-0.002944
-0.000409881
-0.00292301
-0.000459077
-0.00290501
-0.000508105
-0.00289016
-0.0028784
-0.000556822
2.25882e-05
-0.000664606
5.68998e-05
-0.00165591
8.1514e-05
-0.00234389
8.70974e-05
-0.00277376
7.29398e-05
-0.00300938
4.27144e-05
-0.00311545
1.26612e-06
-0.00314459
-4.71419e-05
-0.0031333
-9.943e-05
-0.00310387
-0.000153647
-0.00306835
-0.000208666
-0.00303253
-0.000263881
-0.00299872
-0.000318986
-0.00296759
-0.000373855
-0.0029391
-0.000428485
-0.0029131
-0.000482942
-0.00288955
-0.000537301
-0.00286865
-0.000591563
-0.00285075
-0.000645597
-0.00283612
-0.0028248
-0.0006992
1.90339e-05
-0.00068364
4.4684e-05
-0.00168156
5.79204e-05
-0.00235713
5.15101e-05
-0.00276735
2.60766e-05
-0.00298395
-1.41457e-05
-0.00307523
-6.42863e-05
-0.00309445
-0.000120323
-0.00307727
-0.000179484
-0.00304471
-0.000240081
-0.00300776
-0.000301171
-0.00297144
-0.000362252
-0.00293764
-0.00042306
-0.00290678
-0.000483479
-0.00287868
-0.000543504
-0.00285307
-0.000603223
-0.00282983
-0.000662758
-0.00280911
-0.000722161
-0.00279134
-0.000781298
-0.00277699
-0.00276622
-0.00083987
1.52756e-05
-0.000698916
3.21491e-05
-0.00169843
3.41856e-05
-0.00235916
1.6212e-05
-0.00274938
-1.99515e-05
-0.00294778
-6.96374e-05
-0.00302554
-0.000128028
-0.00303605
-0.000191369
-0.00301392
-0.000257191
-0.00297889
-0.000324052
-0.00294089
-0.000391177
-0.00290431
-0.000458152
-0.00287067
-0.000524746
-0.00284019
-0.000590833
-0.00281259
-0.000656384
-0.00278752
-0.000721482
-0.00276473
-0.00078629
-0.00274431
-0.000850925
-0.00272671
-0.000915264
-0.00271265
-0.00270262
-0.000978872
1.13627e-05
-0.000710279
1.94365e-05
-0.0017065
1.05292e-05
-0.00235025
-1.85381e-05
-0.00272031
-6.48828e-05
-0.00290144
-0.000123517
-0.00296691
-0.000189737
-0.00296984
-0.000260072
-0.00294359
-0.000332346
-0.00290661
-0.000405349
-0.00286789
-0.000478459
-0.0028312
-0.000551352
-0.00279777
-0.000623829
-0.00276771
-0.000695749
-0.00274067
-0.000767035
-0.00271623
-0.000837725
-0.00269404
-0.00090799
-0.00267404
-0.000978025
-0.00265667
-0.00104774
-0.00264293
-0.00263377
-0.00111659
7.34407e-06
-0.000717623
6.67888e-06
-0.00170584
-1.28494e-05
-0.00233073
-5.25103e-05
-0.00268065
-0.000108487
-0.00284546
-0.000175566
-0.00289983
-0.000249205
-0.0028962
-0.000326224
-0.00286657
-0.000404727
-0.00282811
-0.00048372
-0.0027889
-0.000562733
-0.00275219
-0.000641537
-0.00271897
-0.000719982
-0.00268926
-0.000797926
-0.00266273
-0.000875239
-0.00263892
-0.000951884
-0.00261739
-0.00102801
-0.00259792
-0.00110389
-0.00258079
-0.00117953
-0.0025673
-0.00255875
-0.00125455
3.26721e-06
-0.00072089
-6.00126e-06
-0.00169657
-3.57723e-05
-0.00230096
-8.55031e-05
-0.00263092
-0.000150561
-0.0027804
-0.000225589
-0.0028248
-0.000306236
-0.00281555
-0.000389614
-0.00278319
-0.000474092
-0.00274363
-0.000558879
-0.00270411
-0.000643652
-0.00266742
-0.000728298
-0.00263432
-0.000812747
-0.00260481
-0.000896901
-0.00257858
-0.000980611
-0.00255521
-0.00106376
-0.00253424
-0.00114646
-0.00251522
-0.00122909
-0.00249815
-0.00131188
-0.00248451
-0.00247522
-0.00139541
-8.22913e-07
-0.000720067
-1.84933e-05
-0.0016789
-5.80837e-05
-0.00226136
-0.000117344
-0.00257166
-0.000190933
-0.00270682
-0.000273415
-0.00274231
-0.000360651
-0.00272831
-0.000450033
-0.00269381
-0.000540177
-0.00265349
-0.000630481
-0.00261381
-0.000720772
-0.00257713
-0.000811069
-0.00254403
-0.000901445
-0.00251444
-0.000991935
-0.00248809
-0.00108248
-0.00246466
-0.00117298
-0.00244374
-0.00126343
-0.00242477
-0.0013542
-0.00240739
-0.00144584
-0.00239286
-0.00237995
-0.00154111
-4.88497e-06
-0.000715182
-3.07001e-05
-0.00165308
-7.96519e-05
-0.00221241
-0.000147891
-0.00250342
-0.000229464
-0.00262524
-0.000318907
-0.00265287
-0.000412298
-0.00263492
-0.000507293
-0.00259882
-0.000602722
-0.00255806
-0.000698146
-0.00251838
-0.00079352
-0.00248175
-0.000889
-0.00244855
-0.000984841
-0.00241859
-0.00108134
-0.00239159
-0.00117877
-0.00236723
-0.00127733
-0.00234518
-0.00137716
-0.00232494
-0.00147881
-0.00230574
-0.00158456
-0.00228711
-0.00228056
-0.00168394
-8.86995e-06
-0.000706312
-4.25195e-05
-0.00161944
-0.000100347
-0.00215459
-0.000177013
-0.00242676
-0.000266034
-0.00253622
-0.000361953
-0.00255695