/*--------------------------------*- C++ -*----------------------------------*\
  =========                 |
  \\      /  F ield         | OpenFOAM: The Open Source CFD Toolbox
   \\    /   O peration     | Website:  https://openfoam.org
    \\  /    A nd           | Version:  6.0
     \\/     M anipulation  |
\*---------------------------------------------------------------------------*/
FoamFile
{
    version     2.0;
    format      ascii;
    class       volScalarField;
    location    "2";
    object      p;
}
// * * * * * * * * * * * * * * * * * * * * * * * * * * * * * * * * * * * * * //

dimensions      [0 2 -2 0 0 0 0];

internalField   nonuniform List<scalar> 
4000
(
-0.720628
-0.704599
-0.686945
-0.663306
-0.633115
-0.598524
-0.562011
-0.525598
-0.490641
-0.457883
-0.427608
-0.399826
-0.374398
-0.351125
-0.329791
-0.310192
-0.292143
-0.27544
-0.259856
-0.245648
-0.724909
-0.708629
-0.689661
-0.663721
-0.630834
-0.593705
-0.555121
-0.517179
-0.48118
-0.447755
-0.417087
-0.389099
-0.363593
-0.34033
-0.319066
-0.299581
-0.281676
-0.265129
-0.249702
-0.235744
-0.726137
-0.70967
-0.689348
-0.661098
-0.625621
-0.586166
-0.545772
-0.506569
-0.469768
-0.435883
-0.40499
-0.376936
-0.35147
-0.328316
-0.307209
-0.287913
-0.27022
-0.253886
-0.23867
-0.22502
-0.724014
-0.707424
-0.685736
-0.65522
-0.617319
-0.575794
-0.533885
-0.493702
-0.456346
-0.422209
-0.391265
-0.363288
-0.337982
-0.315041
-0.294182
-0.275157
-0.257746
-0.24169
-0.226746
-0.213464
-0.718281
-0.701633
-0.678597
-0.645915
-0.605813
-0.562519
-0.51941
-0.478539
-0.44088
-0.406698
-0.375875
-0.348121
-0.3231
-0.30048
-0.279964
-0.261295
-0.244243
-0.228532
-0.213926
-0.201075
-0.70872
-0.692083
-0.667751
-0.633057
-0.591023
-0.546289
-0.50231
-0.461047
-0.423336
-0.389319
-0.358792
-0.331409
-0.306799
-0.284613
-0.264539
-0.246316
-0.229704
-0.21441
-0.200212
-0.187859
-0.695162
-0.678611
-0.653069
-0.616563
-0.572909
-0.527088
-0.482579
-0.441221
-0.403707
-0.370062
-0.340004
-0.31314
-0.289073
-0.267435
-0.247907
-0.230223
-0.214135
-0.199336
-0.18562
-0.173832
-0.677492
-0.661104
-0.634473
-0.5964
-0.551468
-0.504929
-0.460231
-0.419072
-0.381999
-0.348931
-0.319515
-0.293319
-0.269924
-0.248952
-0.230077
-0.213027
-0.197551
-0.183328
-0.170173
-0.159018
-0.655644
-0.639505
-0.611937
-0.572581
-0.526736
-0.479855
-0.435306
-0.394633
-0.35824
-0.325946
-0.297342
-0.271962
-0.249371
-0.229182
-0.211067
-0.194752
-0.179979
-0.166416
-0.153904
-0.14345
-0.629614
-0.613814
-0.585491
-0.545162
-0.498785
-0.451936
-0.407868
-0.367957
-0.332472
-0.301146
-0.273517
-0.249098
-0.227441
-0.208154
-0.190907
-0.175428
-0.161452
-0.148639
-0.136856
-0.127173
-0.599448
-0.584084
-0.555214
-0.514246
-0.467723
-0.421275
-0.378004
-0.339118
-0.304758
-0.274581
-0.248087
-0.224768
-0.204171
-0.185903
-0.169635
-0.155094
-0.142011
-0.130044
-0.119081
-0.110245
-0.565253
-0.550426
-0.521235
-0.479974
-0.433691
-0.387998
-0.345826
-0.308211
-0.27518
-0.246323
-0.22111
-0.199025
-0.17961
-0.162473
-0.14729
-0.13379
-0.121701
-0.110679
-0.100639
-0.0927304
-0.527187
-0.513002
-0.483731
-0.442531
-0.396861
-0.352262
-0.311468
-0.275351
-0.243834
-0.216454
-0.19266
-0.17193
-0.15381
-0.137913
-0.123918
-0.111559
-0.100564
-0.090593
-0.081586
-0.0746841
-0.485459
-0.472024
-0.442923
-0.402134
-0.357439
-0.314248
-0.275088
-0.240675
-0.210838
-0.185074
-0.162819
-0.143554
-0.12683
-0.112268
-0.099558
-0.088437
-0.0786375
-0.0698306
-0.0619685
-0.0561303
-0.440327
-0.42775
-0.399073
-0.359038
-0.315657
-0.274163
-0.236869
-0.204341
-0.176329
-0.1523
-0.131687
-0.113975
-0.0987303
-0.0855864
-0.0742432
-0.0644482
-0.0559425
-0.0484136
-0.0418051
-0.037073
-0.392096
-0.380482
-0.352481
-0.313528
-0.271775
-0.23224
-0.197014
-0.166528
-0.140464
-0.118268
-0.099376
-0.0832876
-0.0695832
-0.0579162
-0.048003
-0.0396045
-0.0324769
-0.0263317
-0.0210984
-0.0175931
-0.341106
-0.330558
-0.303478
-0.265917
-0.226079
-0.188733
-0.155752
-0.127439
-0.103421
-0.0831335
-0.0660197
-0.0515986
-0.0394729
-0.029321
-0.0208833
-0.0139367
-0.00825714
-0.0036151
1.45935e-05
0.001949
-0.287736
-0.27835
-0.252425
-0.216541
-0.178877
-0.143922
-0.113334
-0.0872997
-0.0654028
-0.0470716
-0.0317638
-0.0190215
-0.0084764
0.000156934
0.00710315
0.0125625
0.0167136
0.0196226
0.0211441
0.020976
-0.232391
-0.224256
-0.199705
-0.165758
-0.130495
-0.0981039
-0.0700327
-0.0463628
-0.0266392
-0.0102882
0.00321885
0.014319
0.0233512
0.0305619
0.0361358
0.0402379
0.0429283
0.0439021
0.0427239
0.040214
-0.175501
-0.168696
-0.145719
-0.113943
-0.0812773
-0.0515965
-0.0261447
-0.00490767
0.0126014
0.0269586
0.0386842
0.0482055
0.0558515
0.0618609
0.0664252
0.0697212
0.0716755
0.071492
0.0685262
0.0652617
-0.117513
-0.112105
-0.0908811
-0.0614784
-0.0315771
-0.0047272
0.018021
0.0367668
0.0520221
0.0643618
0.0742995
0.0822589
0.0885762
0.0935215
0.0973626
0.100394
0.102588
0.102949
0.101237
0.105718
-0.058876
-0.0549248
-0.0356108
-0.00875304
0.0182483
0.042172
0.0621514
0.0783593
0.0913247
0.101616
0.109732
0.116085
0.121005
0.124768
0.127654
0.129939
0.131599
0.132129
0.132433
0.138807
-5.29668e-05
0.00239683
0.0196695
0.0438439
0.0678419
0.0887716
0.105937
0.119576
0.130225
0.138442
0.144711
0.149426
0.15291
0.155431
0.157256
0.158611
0.159466
0.159497
0.159645
0.164797
0.0584957
0.0594131
0.0745409
0.0959283
0.116853
0.134749
0.149079
0.160132
0.16845
0.174574
0.178964
0.181998
0.183979
0.185162
0.185791
0.186067
0.185971
0.185257
0.184715
0.188272
0.116315
0.115683
0.128592
0.147124
0.16494
0.179792
0.191289
0.199763
0.205754
0.209781
0.212283
0.213612
0.214051
0.213834
0.213176
0.212249
0.211024
0.209285
0.207772
0.209848
0.172959
0.170777
0.181421
0.197067
0.211774
0.223602
0.232294
0.238218
0.241905
0.243853
0.244474
0.244097
0.242981
0.241338
0.239361
0.237193
0.234789
0.231961
0.229417
0.230071
0.227995
0.224276
0.232642
0.245407
0.257038
0.265892
0.271835
0.275261
0.27669
0.276597
0.275367
0.273305
0.270646
0.267582
0.264281
0.260863
0.257275
0.253357
0.249788
0.249098
0.281006
0.275779
0.281884
0.291807
0.300431
0.306392
0.309666
0.31067
0.30991
0.307835
0.304806
0.301102
0.296937
0.292484
0.287889
0.283251
0.278511
0.273541
0.268981
0.267013
0.331594
0.324905
0.328792
0.33595
0.341667
0.344843
0.345555
0.344236
0.341375
0.337399
0.332641
0.327359
0.321746
0.315955
0.310115
0.304306
0.29847
0.292504
0.286999
0.28382
0.379381
0.37129
0.373035
0.377536
0.380475
0.381004
0.379284
0.37576
0.370908
0.365128
0.358731
0.351951
0.344964
0.337906
0.330886
0.323971
0.317106
0.310209
0.303812
0.299489
0.424015
0.414595
0.4143
0.416282
0.416606
0.414647
0.410646
0.405059
0.398341
0.390872
0.38294
0.374758
0.366485
0.35824
0.350119
0.342174
0.334356
0.326598
0.319367
0.313973
0.465167
0.454508
0.452298
0.45193
0.449823
0.445561
0.439452
0.431957
0.423517
0.414488
0.405138
0.395663
0.386203
0.376865
0.36773
0.358839
0.350149
0.341605
0.333603
0.327217
0.502535
0.490739
0.486766
0.484242
0.479913
0.473552
0.465524
0.456295
0.446289
0.435843
0.425205
0.414554
0.404018
0.393688
0.383633
0.373887
0.36441
0.355159
0.346455
0.339161
0.535848
0.523028
0.517464
0.513001
0.506682
0.498444
0.488704
0.477927
0.466524
0.454814
0.443028
0.431329
0.419834
0.40862
0.397747
0.387241
0.377068
0.36719
0.357858
0.349749
0.564864
0.551145
0.54418
0.538016
0.529957
0.520081
0.508847
0.496721
0.484102
0.471291
0.458504
0.445894
0.433563
0.421582
0.409998
0.398832
0.388056
0.377635
0.367753
0.358929
0.589371
0.574888
0.56673
0.559121
0.549588
0.538326
0.525829
0.512564
0.498917
0.485176
0.471545
0.458165
0.44513
0.4325
0.420317
0.408594
0.397311
0.386433
0.376085
0.366654
0.609194
0.59409
0.58496
0.576177
0.565448
0.553063
0.539545
0.525358
0.510879
0.496386
0.482073
0.468071
0.454466
0.441313
0.428645
0.416474
0.404782
0.393536
0.382809
0.372883
0.624188
0.608612
0.598744
0.58907
0.577435
0.5642
0.549909
0.535025
0.519917
0.504855
0.490026
0.475553
0.461518
0.447969
0.434935
0.422425
0.410424
0.3989
0.387885
0.377584
0.634247
0.618353
0.607988
0.597714
0.58547
0.571666
0.556856
0.541503
0.525974
0.510531
0.495355
0.480567
0.466243
0.452429
0.43915
0.426413
0.414206
0.402494
0.391286
0.380732
0.639296
0.623243
0.612627
0.602053
0.589503
0.575412
0.560342
0.544755
0.529013
0.513379
0.498029
0.483083
0.468614
0.454667
0.441264
0.428414
0.416103
0.404298
0.392992
0.382311
0.639301
0.623247
0.612632
0.602057
0.589507
0.575416
0.560345
0.544758
0.529016
0.513382
0.498032
0.483086
0.468617
0.45467
0.441267
0.428416
0.416105
0.4043
0.392994
0.382313
0.634261
0.618367
0.608001
0.597726
0.585482
0.571677
0.556866
0.541513
0.525983
0.51054
0.495363
0.480575
0.466251
0.452436
0.439157
0.42642
0.414212
0.4025
0.391292
0.380737
0.624212
0.608635
0.598766
0.58909
0.577454
0.564219
0.549926
0.535041
0.519932
0.50487
0.490039
0.475566
0.46153
0.447981
0.434946
0.422436
0.410435
0.39891
0.387895
0.377593
0.609227
0.594122
0.584991
0.576206
0.565475
0.553089
0.539569
0.525381
0.510901
0.496406
0.482092
0.468089
0.454483
0.44133
0.428661
0.416489
0.404797
0.39355
0.382822
0.372896
0.589414
0.574931
0.566771
0.559159
0.549623
0.538359
0.52586
0.512593
0.498944
0.485201
0.471569
0.458188
0.445152
0.432522
0.420337
0.408614
0.39733
0.386451
0.376103
0.36667
0.564916
0.551197
0.544229
0.538062
0.53
0.520121
0.508884
0.496756
0.484135
0.471322
0.458534
0.445922
0.43359
0.421608
0.410023
0.398856
0.388079
0.377657
0.367774
0.35895
0.535911
0.52309
0.517522
0.513055
0.506733
0.498491
0.488748
0.477968
0.466563
0.454851
0.443063
0.431363
0.419865
0.408651
0.397777
0.387269
0.377095
0.367216
0.357883
0.349773
0.502607
0.49081
0.486833
0.484304
0.479972
0.473606
0.465575
0.456343
0.446334
0.435886
0.425245
0.414593
0.404055
0.393723
0.383666
0.373919
0.364441
0.355188
0.346484
0.339188
0.465248
0.454588
0.452374
0.452001
0.449889
0.445622
0.43951
0.432011
0.423568
0.414537
0.405184
0.395706
0.386245
0.376905
0.367767
0.358875
0.350183
0.341638
0.333635
0.327247
0.424106
0.414685
0.414385
0.416362
0.416679
0.414716
0.410711
0.405119
0.398398
0.390926
0.382991
0.374807
0.366531
0.358284
0.350161
0.342215
0.334395
0.326635
0.319403
0.314007
0.379482
0.371388
0.373128
0.377623
0.380557
0.38108
0.379355
0.375827
0.370971
0.365187
0.358787
0.352005
0.345015
0.337954
0.330932
0.324015
0.317149
0.31025
0.303851
0.299526
0.331704
0.325013
0.328895
0.336046
0.341756
0.344927
0.345633
0.344308
0.341444
0.337463
0.332702
0.327417
0.321801
0.316008
0.310166
0.304354
0.298516
0.292549
0.287042
0.283861
0.281125
0.275897
0.281995
0.291911
0.300528
0.306482
0.30975
0.310749
0.309984
0.307905
0.304872
0.301165
0.296998
0.292541
0.287944
0.283303
0.278561
0.273589
0.269028
0.267058
0.228124
0.224402
0.232762
0.245519
0.257143
0.26599
0.271926
0.275346
0.276771
0.276673
0.275439
0.273373
0.270711
0.267644
0.26434
0.26092
0.257329
0.253409
0.249838
0.249146
0.173097
0.170912
0.18155
0.197188
0.211886
0.223706
0.232391
0.238309
0.241991
0.243934
0.244551
0.24417
0.243051
0.241405
0.239425
0.237253
0.234847
0.232017
0.229471
0.230123
0.116462
0.115828
0.128729
0.147252
0.16506
0.179903
0.191393
0.199861
0.205846
0.209868
0.212365
0.213691
0.214126
0.213905
0.213244
0.212314
0.211086
0.209345
0.20783
0.209903
0.0586522
0.0595663
0.0746866
0.0960644
0.11698
0.134867
0.149189
0.160235
0.168548
0.174666
0.179051
0.182081
0.184058
0.185238
0.185863
0.186136
0.186038
0.185321
0.184777
0.188331
0.000112481
0.00255874
0.0198235
0.0439879
0.0679757
0.0888961
0.106054
0.119685
0.130328
0.138539
0.144803
0.149514
0.152993
0.155512
0.157333
0.158685
0.159537
0.159566
0.159712
0.16486
-0.0587019
-0.0547544
-0.0354486
-0.00860134
0.0183893
0.0423032
0.0622738
0.0784741
0.0914328
0.101718
0.109829
0.116178
0.121093
0.124852
0.127736
0.130017
0.131674
0.132202
0.132504
0.138874
-0.11733
-0.111927
-0.090711
-0.0613192
-0.031429
-0.00458946
0.0181495
0.0368873
0.0521356
0.0644692
0.0744014
0.082356
0.0886691
0.0936105
0.0974483
0.100477
0.102667
0.103026
0.101312
0.105791
-0.175311
-0.16851
-0.145541
-0.113776
-0.0811225
-0.0514523
-0.0260101
-0.00478147
0.0127203
0.027071
0.0387909
0.0483072
0.0559488
0.0619542
0.066515
0.0698079
0.0717595
0.0715738
0.0686068
0.0653416
-0.232193
-0.224062
-0.19952
-0.165585
-0.130334
-0.0979536
-0.0698923
-0.046231
-0.0265151
-0.0101708
0.00333036
0.0144253
0.0234528
0.0306594
0.0362297
0.0403286
0.0430163
0.0439879
0.0428083
0.0402977
-0.287531
-0.278149
-0.252233
-0.216361
-0.178709
-0.143765
-0.113188
-0.0871627
-0.0652737
-0.0469493
-0.0316477
-0.0189108
-0.00837054
0.000258504
0.00720091
0.0126569
0.0168049
0.0197114
0.021231
0.0210616
-0.340894
-0.33035
-0.30328
-0.26573
-0.225906
-0.188571
-0.155601
-0.127297
-0.103287
-0.0830068
-0.0658993
-0.0514838
-0.0393632
-0.0292158
-0.0207821
-0.0138391
-0.0081628
-0.00352359
0.000103792
0.00203624
-0.391877
-0.380268
-0.352276
-0.313336
-0.271596
-0.232073
-0.196858
-0.166381
-0.140326
-0.118137
-0.0992518
-0.0831693
-0.0694701
-0.0578077
-0.0478987
-0.0395041
-0.0323798
-0.0262377
-0.021007
-0.017504
-0.440102
-0.42753
-0.398862
-0.35884
-0.315472
-0.273991
-0.236708
-0.20419
-0.176187
-0.152166
-0.131559
-0.113854
-0.0986142
-0.0854752
-0.0741364
-0.0643453
-0.0558432
-0.0483176
-0.0417118
-0.0369823
-0.485228
-0.471798
-0.442707
-0.40193
-0.357249
-0.314071
-0.274923
-0.24052
-0.210692
-0.184936
-0.162689
-0.14343
-0.126711
-0.112155
-0.0994491
-0.0883322
-0.0785364
-0.0697329
-0.0618739
-0.0560384
-0.526951
-0.512771
-0.483509
-0.442322
-0.396666
-0.35208
-0.311298
-0.275193
-0.243685
-0.216313
-0.192526
-0.171804
-0.153689
-0.137797
-0.123807
-0.111452
-0.100461
-0.0904941
-0.0814904
-0.0745914
-0.565014
-0.550191
-0.521009
-0.479761
-0.433491
-0.387812
-0.345652
-0.308049
-0.275027
-0.246179
-0.220974
-0.198896
-0.179487
-0.162356
-0.147178
-0.133682
-0.121597
-0.110579
-0.100543
-0.0926371
-0.599205
-0.583846
-0.554984
-0.514028
-0.46752
-0.421085
-0.377827
-0.338953
-0.304604
-0.274436
-0.247949
-0.224638
-0.204047
-0.185784
-0.169521
-0.154985
-0.141907
-0.129943
-0.118984
-0.110151
-0.629368
-0.613572
-0.585259
-0.544942
-0.498579
-0.451744
-0.407688
-0.367789
-0.332315
-0.300998
-0.273377
-0.248966
-0.227315
-0.208034
-0.190793
-0.175319
-0.161347
-0.148538
-0.136758
-0.127079
-0.655397
-0.639262
-0.611702
-0.572357
-0.526526
-0.479659
-0.435124
-0.394463
-0.35808
-0.325797
-0.297201
-0.271829
-0.249244
-0.229062
-0.210952
-0.194642
-0.179873
-0.166315
-0.153806
-0.143356
-0.677243
-0.660859
-0.634236
-0.596175
-0.551256
-0.504731
-0.460046
-0.4189
-0.381838
-0.34878
-0.319373
-0.293185
-0.269797
-0.248831
-0.229961
-0.212917
-0.197445
-0.183226
-0.170075
-0.158924
-0.694914
-0.678366
-0.652831
-0.616336
-0.572695
-0.526889
-0.482393
-0.441048
-0.403544
-0.36991
-0.339861
-0.313005
-0.288945
-0.267313
-0.247791
-0.230112
-0.214029
-0.199234
-0.185523
-0.173738
-0.708472
-0.691839
-0.667513
-0.632829
-0.590808
-0.546088
-0.502122
-0.460872
-0.423173
-0.389167
-0.358648
-0.331273
-0.306671
-0.284491
-0.264424
-0.246205
-0.229598
-0.214309
-0.200115
-0.187766
-0.718034
-0.70139
-0.67836
-0.645688
-0.605597
-0.562317
-0.519221
-0.478363
-0.440716
-0.406545
-0.375732
-0.347986
-0.322972
-0.300359
-0.279849
-0.261185
-0.244138
-0.228431
-0.213829
-0.200983
-0.72377
-0.707183
-0.6855
-0.654993
-0.617103
-0.575591
-0.533696
-0.493526
-0.456182
-0.422056
-0.391121
-0.363153
-0.337855
-0.314921
-0.294067
-0.275048
-0.257642
-0.24159
-0.226651
-0.213373
-0.725896
-0.709432
-0.689115
-0.660873
-0.625406
-0.585963
-0.545583
-0.506393
-0.469604
-0.43573
-0.404848
-0.376802
-0.351344
-0.328197
-0.307096
-0.287806
-0.270117
-0.253788
-0.238576
-0.22493
-0.724673
-0.708396
-0.689431
-0.663497
-0.63062
-0.593503
-0.554932
-0.517003
-0.481016
-0.447603
-0.416944
-0.388965
-0.363467
-0.340211
-0.318954
-0.299475
-0.281575
-0.265033
-0.249609
-0.235656
-0.720396
-0.70437
-0.686719
-0.663086
-0.632902
-0.598321
-0.561821
-0.52542
-0.490476
-0.457729
-0.427465
-0.399692
-0.374273
-0.351007
-0.32968
-0.310086
-0.292043
-0.275345
-0.259765
-0.245561
0.051275
0.0284042
0.0124882
0.0030356
-0.0066495
-0.0185318
-0.0311223
-0.0431848
-0.0546246
-0.0657252
-0.0765972
-0.0871717
-0.097353
-0.107087
-0.116354
-0.125139
-0.13343
-0.141215
-0.148484
-0.155237
0.0215525
0.0144616
0.00514992
-0.00344812
-0.0107357
-0.017801
-0.0251678
-0.0325561
-0.0396315
-0.0463372
-0.0527559
-0.0589415
-0.0648924
-0.0705914
-0.0760341
-0.081229
-0.0861895
-0.0909292
-0.0954612
-0.0997991
0.0131885
0.0121783
0.00803441
0.00222356
-0.00301336
-0.00731489
-0.0112828
-0.015278
-0.0192577
-0.0230901
-0.0267333
-0.0302134
-0.0335603
-0.0367856
-0.0398904
-0.0428766
-0.045749
-0.0485136
-0.0511761
-0.0537418
0.00703845
0.00558527
0.00312928
-0.000173174
-0.00344495
-0.00630098
-0.00887698
-0.0113857
-0.0138919
-0.0163591
-0.0187497
-0.0210586
-0.0232979
-0.0254784
-0.0276047
-0.0296784
-0.0317011
-0.0336755
-0.0356045
-0.0374914
0.00534003
0.00388261
0.00264013
0.00106367
-0.000714822
-0.00243316
-0.00401495
-0.00551763
-0.00699917
-0.00847175
-0.00992364
-0.0113454
-0.0127368
-0.0141011
-0.0154416
-0.0167596
-0.0180556
-0.0193305
-0.020585
-0.0218207
0.00618969
0.00500662
0.0042498
0.00331789
0.00216222
0.000957595
-0.000191187
-0.00128654
-0.00236364
-0.00344073
-0.00451656
-0.00558452
-0.0066411
-0.00768621
-0.00872082
-0.00974547
-0.0107602
-0.011765
-0.0127597
-0.0137448
0.00783267
0.00690284
0.00633938
0.00567756
0.00484761
0.00396232
0.00310429
0.00228315
0.00147865
0.000676669
-0.000124358
-0.000920831
-0.00171004
-0.00249139
-0.00326529
-0.00403219
-0.00479224
-0.00554549
-0.00629195
-0.00703207
0.00927576
0.00851226
0.00802784
0.00749859
0.00685749
0.00617073
0.0054953
0.00484241
0.00420099
0.00356155
0.00292211
0.00228454
0.00165062
0.00102095
0.000395447
-0.000226063
-0.000843609
-0.00145711
-0.00206644
-0.00267179
0.0104291
0.00981274
0.00938874
0.00894378
0.00842833
0.00788102
0.00733839
0.00680936
0.00628814
0.00576891
0.00525019
0.00473295
0.00421833
0.00370682
0.00319846
0.00269322
0.00219111
0.00169222
0.00119663
0.000704192
0.011268
0.0107625
0.0103839
0.00999737
0.00956829
0.00911823
0.00866965
0.00822895
0.00779328
0.00735924
0.00692581
0.00649351
0.00606304
0.00563474
0.00520872
0.004785
0.00436363
0.00394471
0.00352834
0.00311443
0.0118515
0.0114328
0.0110951
0.0107561
0.0103926
0.0100158
0.00963924
0.00926717
0.00889834
0.00853086
0.00816412
0.00779837
0.00743406
0.00707143
0.00671061
0.00635164
0.00599459
0.00563957
0.00528666
0.00493581
0.0122345
0.0118826
0.0115812
0.0112818
0.0109689
0.0106479
0.0103265
0.0100076
0.00969063
0.00937475
0.00905955
0.00874517
0.0084319
0.00811992
0.00780934
0.00750024
0.0071927
0.0068868
0.00658265
0.0062802
0.0124706
0.012169
0.0118993
0.011634
0.0113619
0.0110849
0.0108071
0.0105305
0.0102551
0.00998052
0.00970653
0.00943321
0.00916073
0.00888924
0.00861886
0.00834966
0.00808173
0.00781515
0.00755002
0.00728631
0.0126043
0.0123422
0.0121003
0.0118637
0.0116243
0.0113817
0.0111382
0.0108952
0.0106528
0.0104111
0.0101697
0.00992893
0.00968875
0.00944932
0.00921075
0.00897313
0.00873652
0.00850102
0.00826672
0.00803361
0.0126712
0.0124429
0.0122256
0.0120122
0.0117979
0.0115818
0.011365
0.0111483
0.010932
0.010716
0.0105004
0.0102851
0.0100704
0.00985619
0.00964271
0.00942999
0.00921812
0.00900716
0.00879722
0.00858827
0.0126944
0.0124922
0.0122951
0.0121004
0.0119057
0.01171
0.0115139
0.0113176
0.0111216
0.0109257
0.0107302
0.0105349
0.01034
0.0101456
0.00995174
0.00975852
0.009566
0.00937425
0.00918336
0.00899334
0.0126914
0.0125064
0.0123244
0.0121448
0.0119656
0.0117858
0.0116055
0.011425
0.0112446
0.0110643
0.0108842
0.0107044
0.0105248
0.0103456
0.0101669
0.0099887
0.00981109
0.00963414
0.0094579
0.00928241
0.0126773
0.0125036
0.0123325
0.0121641
0.0119962
0.0118278
0.0116589
0.0114897
0.0113206
0.0111516
0.0109828
0.0108141
0.0106457
0.0104777
0.01031
0.0101428
0.00997608
0.00980995
0.00964447
0.00947966
0.0126637
0.0124981
0.0123343
0.0121727
0.0120117
0.0118504
0.0116887
0.0115268
0.011365
0.0112033
0.0110418
0.0108804
0.0107194
0.0105586
0.0103982
0.0102382
0.0100787
0.00991978
0.00976138
0.00960357
0.0126552
0.0124931
0.0123322
0.0121732
0.0120148
0.0118563
0.0116977
0.011539
0.0113805
0.0112222
0.0110642
0.0109065
0.0107492
0.0105922
0.0104357
0.0102797
0.0101242
0.00996921
0.00981489
0.00966123
0.107595
0.107988
0.1088
0.110021
0.111655
0.113701
0.116189
0.119102
0.122511
0.126305
0.130608
0.135116
0.139942
0.144543
0.148669
0.151417
0.15141
0.146058
0.130417
0.093343
0.100349
0.100591
0.101079
0.101809
0.102754
0.103907
0.10523
0.106707
0.108267
0.109799
0.11117
0.112123
0.112333
0.11146
0.108549
0.103193
0.0936193
0.0793803
0.0593696
0.0360653
0.0919483
0.0920378
0.0922049
0.0924499
0.0927385
0.0930528
0.0933185
0.0935005
0.0934619
0.0930985
0.0922049
0.0905516
0.0878315
0.0836977
0.0776393
0.0693207
0.0583029
0.0445864
0.0293686
0.0158993
0.0830267
0.0829884
0.082894
0.0827436
0.0825074
0.0821645
0.0816403
0.0808906
0.079786
0.0782441
0.0760958
0.073202
0.0693836
0.0644972
0.0583911
0.0510587
0.0424681
0.0327522
0.0222048
0.0114713
0.0741744
0.0740481
0.0737796
0.0733703
0.0728003
0.0720512
0.0710642
0.069802
0.0681737
0.0661325
0.0635818
0.0604671
0.05672
0.052313
0.047205
0.0414306
0.0349051
0.0276128
0.0194424
0.0103937
0.0658401
0.0656682
0.0653127
0.064775
0.0640426
0.0631037
0.0619201
0.0604698
0.0586996
0.0565904
0.0540944
0.0511942
0.0478587
0.0440791
0.0398173
0.035091
0.0298143
0.0240017
0.0175711
0.0104455
0.0582917
0.0581058
0.0577255
0.0571513
0.0563762
0.0553955
0.0541871
0.0527406
0.0510265
0.0490388
0.0467519
0.044159
0.0412416
0.0379974
0.0344025
0.0304882
0.026208
0.0216095
0.0166243
0.0111682
0.0516376
0.0514566
0.0510882
0.050532
0.0497843
0.0488444
0.0477003
0.0463481
0.044772
0.042972
0.0409351
0.0386611
0.0361428
0.0333869
0.0303853
0.0271735
0.0237232
0.0200787
0.0161741
0.0119312
0.0458812
0.0457144
0.0453758
0.0448643
0.0441777
0.0433172
0.0422765
0.0410561
0.0396483
0.0380573
0.0362781
0.0343152
0.0321686
0.0298482
0.0273522
0.0247103
0.0219023
0.0189653
0.0158504
0.0125141
0.0409679
0.0408188
0.0405165
0.0400596
0.0394465
0.0386794
0.0377554
0.0366774
0.035443
0.0340586
0.0325236
0.0308441
0.0290233
0.0270711
0.0249882
0.0227993
0.0204912
0.0180967
0.0155823
0.0129241
0.0368176
0.0366865
0.0364211
0.0360196
0.035481
0.0348079
0.0339993
0.0330591
0.031988
0.0307931
0.029476
0.0280429
0.0264984
0.0248515
0.0231048
0.0212783
0.0193643
0.0173902
0.0153333
0.0131833
0.0333433
0.033229
0.0329979
0.0326481
0.0321791
0.0315931
0.0308906
0.0300754
0.02915
0.0281213
0.026992
0.0257678
0.0244539
0.0230581
0.0215841
0.0200481
0.0184453
0.0167979
0.0150913
0.0133236
0.0304613
0.0303621
0.0301613
0.0298573
0.0294497
0.0289407
0.0283311
0.0276247
0.0268248
0.0259377
0.0249664
0.0239162
0.0227919
0.0216007
0.0203465
0.0190425
0.0176864
0.0162962
0.0148619
0.013383
0.0280964
0.0280098
0.0278349
0.02757
0.0272148
0.0267714
0.0262406
0.0256261
0.0249313
0.024162
0.023321
0.0224131
0.0214427
0.0204161
0.0193372
0.0182168
0.0170545
0.0158645
0.0146407
0.0133822
0.026183
0.0261071
0.0259536
0.025721
0.0254092
0.0250199
0.0245542
0.0240151
0.0234063
0.0227326
0.021997
0.0212034
0.0203558
0.0194598
0.018519
0.0175418
0.0165289
0.0154916
0.0144271
0.013339
0.024667
0.0245995
0.0244631
0.0242564
0.0239794
0.0236335
0.0232198
0.022741
0.0222006
0.0216028
0.0209503
0.0202465
0.0194951
0.0187008
0.0178669
0.0170003
0.0161024
0.0151821
0.014239
0.0132797
0.0235042
0.0234433
0.0233201
0.0231335
0.0228833
0.0225709
0.0221972
0.0217647
0.0212767
0.020737
0.0201479
0.0195125
0.0188341
0.0181169
0.0173641
0.0165813
0.0157709
0.0149399
0.014089
0.0132227
0.0226609
0.0226047
0.0224911
0.022319
0.0220883
0.0218002
0.0214556
0.0210567
0.0206066
0.0201089
0.0195656
0.0189796
0.0183537
0.017692
0.0169974
0.016275
0.0155274
0.0147604
0.0139749
0.013173
0.022112
0.0220589
0.0219516
0.021789
0.021571
0.0212987
0.020973
0.0205959
0.0201705
0.0197
0.0191865
0.0186324
0.0180405
0.0174145
0.0167574
0.0160735
0.0153656
0.0146385
0.0138937
0.0131336
0.0218416
0.02179
0.0216858
0.0215278
0.021316
0.0210515
0.0207352
0.0203689
0.0199556
0.0194985
0.0189996
0.0184612
0.017886
0.0172774
0.0166385
0.0159732
0.0152845
0.0145765
0.0138512
0.0131118
0.116035
0.116504
0.117552
0.119101
0.121298
0.124028
0.127577
0.131732
0.136989
0.143014
0.15057
0.159189
0.169981
0.182348
0.197988
0.21608
0.239568
0.266987
0.303925
0.347163
0.116005
0.116474
0.117521
0.119069
0.121265
0.123993
0.127539
0.131691
0.136944
0.142961
0.15051
0.159115
0.16989
0.18223
0.19783
0.215866
0.239256
0.266534
0.303228
0.346058
0.115945
0.116414
0.11746
0.119006
0.121199
0.123923
0.127464
0.131609
0.136853
0.142856
0.150389
0.158968
0.169708
0.181997
0.197515
0.21544
0.238634
0.265632
0.301838
0.343858
0.115856
0.116325
0.117368
0.118912
0.1211
0.123819
0.127352
0.131487
0.136718
0.1427
0.150209
0.158748
0.169436
0.181648
0.197044
0.214804
0.237707
0.264287
0.299761
0.340573
0.115738
0.116205
0.117246
0.118786
0.120969
0.123681
0.127204
0.131324
0.136538
0.142493
0.149971
0.158456
0.169076
0.181184
0.196421
0.21396
0.236477
0.262506
0.297008
0.336221
0.11559
0.116057
0.117095
0.11863
0.120805
0.123508
0.127019
0.131121
0.136314
0.142235
0.149674
0.158093
0.168628
0.180608
0.195647
0.212913
0.234952
0.260299
0.293589
0.330824
0.115413
0.115879
0.116913
0.118443
0.12061
0.123303
0.126798
0.13088
0.136047
0.141927
0.149321
0.157659
0.168096
0.17992
0.194728
0.211666
0.233137
0.257679
0.289517
0.32441
0.115207
0.115673
0.116703
0.118227
0.120383
0.123064
0.126541
0.1306
0.135738
0.14157
0.148911
0.157157
0.167481
0.179124
0.193666
0.210225
0.231043
0.254659
0.284811
0.317013
0.114973
0.115439
0.116463
0.117981
0.120126
0.122794
0.126251
0.130282
0.135387
0.141166
0.148448
0.156587
0.166785
0.178221
0.192468
0.208595
0.22868
0.251255
0.279488
0.308674
0.114711
0.115176
0.116196
0.117707
0.119839
0.122492
0.125926
0.129928
0.134995
0.140716
0.147932
0.155952
0.166012
0.177214
0.191138
0.206782
0.22606
0.247483
0.27357
0.299438
0.114422
0.114887
0.115901
0.117404
0.119522
0.122159
0.125568
0.129539
0.134565
0.140221
0.147364
0.155253
0.165163
0.176106
0.189682
0.204791
0.223195
0.24336
0.267083
0.289357
0.114106
0.11457
0.115579
0.117074
0.119177
0.121796
0.125179
0.129115
0.134096
0.139683
0.146747
0.154493
0.164242
0.174901
0.188107
0.202628
0.220102
0.238904
0.260055
0.278489
0.113763
0.114228
0.11523
0.116717
0.118805
0.121405
0.124758
0.128657
0.13359
0.139103
0.146083
0.153674
0.163252
0.173601
0.18642
0.2003
0.216798
0.23413
0.25252
0.266896
0.113394
0.113859
0.114857
0.116334
0.118405
0.120986
0.124307
0.128168
0.133048
0.138483
0.145372
0.152798
0.162195
0.172212
0.184625
0.197815
0.213299
0.229054
0.244518
0.254641
0.112999
0.113466
0.114458
0.115926
0.11798
0.120539
0.123826
0.127647
0.132472
0.137825
0.144617
0.151867
0.161073
0.170735
0.182728
0.195179
0.209625
0.223692
0.236098
0.241783
0.11258
0.113049
0.114035
0.115494
0.117529
0.120066
0.123317
0.127096
0.131861
0.137129
0.143815
0.150881
0.159884
0.169171
0.180729
0.192393
0.205787
0.218054
0.227322
0.228377
0.112137
0.112608
0.113589
0.115039
0.117054
0.119568
0.122781
0.126516
0.131219
0.136398
0.142974
0.149845
0.158636
0.167528
0.178637
0.189473
0.201807
0.212155
0.218263
0.21447
0.11167
0.112146
0.113123
0.114566
0.116563
0.119054
0.122231
0.125927
0.130571
0.135663
0.142131
0.148804
0.157387
0.16587
0.176532
0.186499
0.197783
0.206059
0.208999
0.19998
0.11118
0.111661
0.112638
0.114076
0.116057
0.118529
0.121673
0.125336
0.129927
0.134942
0.141306
0.147786
0.156162
0.164231
0.174441
0.183501
0.193734
0.199775
0.199575
0.184231
0.110664
0.111144
0.112112
0.113536
0.115487
0.117923
0.121007
0.124606
0.129094
0.133993
0.140169
0.14642
0.154448
0.162063
0.171622
0.179752
0.188759
0.19272
0.189893
0.167556
0.110672
0.111152
0.112119
0.113544
0.115495
0.117932
0.121016
0.124616
0.129104
0.134005
0.140182
0.146434
0.154464
0.162081
0.171642
0.179776
0.188787
0.192754
0.189936
0.16761
0.111187
0.111668
0.112645
0.114084
0.116065
0.118538
0.121682
0.125345
0.129937
0.134953
0.141318
0.1478
0.156178
0.164248
0.174461
0.183524
0.193762
0.199808
0.199616
0.184283
0.111677
0.112153
0.11313
0.114573
0.11657
0.119062
0.122239
0.125936
0.13058
0.135674
0.142142
0.148817
0.157401
0.165886
0.176551
0.18652
0.197808
0.20609
0.209038
0.200029
0.112143
0.112615
0.113596
0.115046
0.117062
0.119576
0.122789
0.126525
0.131228
0.136408
0.142984
0.149857
0.15865
0.167544
0.178655
0.189493
0.201832
0.212184
0.2183
0.214517
0.112586
0.113055
0.114041
0.115501
0.117535
0.120073
0.123324
0.127103
0.131869
0.137138
0.143825
0.150892
0.159897
0.169185
0.180745
0.192412
0.20581
0.218081
0.227357
0.22842
0.113005
0.113472
0.114464
0.115933
0.117986
0.120546
0.123833
0.127655
0.13248
0.137834
0.144626
0.151878
0.161085
0.170749
0.182744
0.195197
0.209647
0.223718
0.236131
0.241824
0.113399
0.113865
0.114862
0.11634
0.118411
0.120992
0.124313
0.128175
0.133056
0.138492
0.145381
0.152808
0.162206
0.172224
0.18464
0.197832
0.213319
0.229078
0.244548
0.254679
0.113767
0.114233
0.115236
0.116722
0.11881
0.121411
0.124764
0.128664
0.133596
0.139111
0.146091
0.153683
0.163262
0.173613
0.186433
0.200316
0.216816
0.234152
0.252548
0.266932
0.11411
0.114575
0.115584
0.117079
0.119182
0.121802
0.125184
0.129121
0.134102
0.13969
0.146755
0.154502
0.164252
0.174912
0.18812
0.202642
0.220119
0.238924
0.260081
0.278522
0.114426
0.114891
0.115905
0.117408
0.119527
0.122164
0.125573
0.129544
0.13457
0.140228
0.147371
0.155261
0.165172
0.176116
0.189694
0.204804
0.223211
0.243379
0.267107
0.289387
0.114715
0.11518
0.1162
0.117711
0.119843
0.122496
0.125931
0.129933
0.135001
0.140722
0.147938
0.155959
0.16602
0.177223
0.191148
0.206794
0.226074
0.2475
0.273592
0.299465
0.114977
0.115442
0.116467
0.117985
0.12013
0.122798
0.126255
0.130287
0.135392
0.141172
0.148454
0.156594
0.166792
0.178229
0.192477
0.208606
0.228693
0.25127
0.279507
0.308698
0.11521
0.115676
0.116706
0.11823
0.120387
0.123068
0.126545
0.130604
0.135742
0.141575
0.148917
0.157163
0.167487
0.179131
0.193674
0.210235
0.231055
0.254673
0.284828
0.317035
0.115415
0.115882