/*--------------------------------*- C++ -*----------------------------------*\
  =========                 |
  \\      /  F ield         | OpenFOAM: The Open Source CFD Toolbox
   \\    /   O peration     | Website:  https://openfoam.org
    \\  /    A nd           | Version:  6.0
     \\/     M anipulation  |
\*---------------------------------------------------------------------------*/
FoamFile
{
    version     2.0;
    format      ascii;
    class       surfaceScalarField;
    location    "87";
    object      phi;
}
// * * * * * * * * * * * * * * * * * * * * * * * * * * * * * * * * * * * * * //

dimensions      [0 3 -1 0 0 0 0];

internalField   nonuniform List<scalar> 
7840
(
-8.42251e-07
-0.000121266
0.000122109
-4.81559e-06
-0.000310705
0.000314678
-1.24432e-05
-0.000457448
0.000465076
-2.34861e-05
-0.000568568
0.00057961
-3.71596e-05
-0.000650881
0.000664554
-5.23632e-05
-0.000710891
0.000726095
-6.78991e-05
-0.000754234
0.00076977
-8.26472e-05
-0.000785371
0.000800119
-9.5684e-05
-0.00080754
0.000820577
-0.000106348
-0.000822893
0.000833557
-0.000114259
-0.000832729
0.00084064
-0.0001193
-0.000837756
0.000842797
-0.000121579
-0.000838322
0.0008406
-0.000121369
-0.000834597
0.000834387
-0.000119047
-0.000826695
0.000824372
-0.000115023
-0.000814737
0.000810713
-0.000109682
-0.000798882
0.000793541
-0.000103328
-0.000779302
0.000772948
-9.61451e-05
-0.00075607
0.000748887
-0.000729164
0.000721149
-8.813e-05
-2.85633e-06
-0.00011841
-1.13941e-05
-0.000302167
-2.51386e-05
-0.000443704
-4.3143e-05
-0.000550563
-6.41276e-05
-0.000629896
-8.66599e-05
-0.000688359
-0.00010933
-0.000731564
-0.000130891
-0.00076381
-0.000150351
-0.000788081
-0.000167019
-0.000806224
-0.000180521
-0.000819227
-0.000190775
-0.000827502
-0.000197951
-0.000831146
-0.000202409
-0.000830138
-0.000204634
-0.00082447
-0.000205156
-0.000814215
-0.000204477
-0.000799561
-0.000203009
-0.00078077
-0.000201022
-0.000758057
-0.000731603
-0.000198583
-4.96916e-06
-0.000113441
-1.81812e-05
-0.000288955
-3.80837e-05
-0.000423801
-6.30072e-05
-0.00052564
-9.11957e-05
-0.000601708
-0.000120915
-0.000658639
-0.000150571
-0.000701908
-0.000178802
-0.000735579
-0.000204545
-0.000762338
-0.000227063
-0.000783706
-0.000245956
-0.000800334
-0.000261136
-0.000812321
-0.000272798
-0.000819484
-0.000281358
-0.000821578
-0.000287387
-0.00081844
-0.00029153
-0.000810073
-0.000294418
-0.000796673
-0.000296595
-0.000778593
-0.000298454
-0.000756198
-0.000729886
-0.000300171
-7.10581e-06
-0.000106335
-2.49464e-05
-0.000271114
-5.08603e-05
-0.000397887
-8.24728e-05
-0.000494027
-0.00011759
-0.00056659
-0.00015422
-0.000622009
-0.000190615
-0.000665513
-0.000225319
-0.000700875
-0.000257193
-0.000730464
-0.000285432
-0.000755466
-0.000309572
-0.000776195
-0.000329472
-0.000792421
-0.000345299
-0.000803657
-0.000357479
-0.000809398
-0.00036664
-0.000809279
-0.000373526
-0.000803187
-0.000378909
-0.000791291
-0.000383493
-0.000774009
-0.000387834
-0.000751856
-0.000725455
-0.000392265
-9.17641e-06
-9.71587e-05
-3.14219e-05
-0.000248869
-6.29894e-05
-0.00036632
-0.000100848
-0.000456168
-0.000142426
-0.000525013
-0.000185522
-0.000578913
-0.000228279
-0.000622756
-0.000269164
-0.00065999
-0.000306966
-0.000692663
-0.000340792
-0.000721641
-0.000370071
-0.000746916
-0.000394561
-0.000767932
-0.000414336
-0.000783882
-0.000429775
-0.000793959
-0.000441513
-0.000797542
-0.000450371
-0.000794329
-0.000457259
-0.000784402
-0.000463072
-0.000768196
-0.000468578
-0.00074635
-0.000719712
-0.000474321
-1.10792e-05
-8.60795e-05
-3.73104e-05
-0.000222638
-7.39439e-05
-0.000329686
-0.000117373
-0.000412739
-0.000164716
-0.00047767
-0.000213629
-0.000530001
-0.000262185
-0.000574199
-0.000308807
-0.000613368
-0.000352219
-0.000649251
-0.000391427
-0.000682432
-0.000425728
-0.000712615
-0.000454719
-0.000738941
-0.000478319
-0.000760281
-0.000496786
-0.000775491
-0.000510698
-0.00078363
-0.000520905
-0.000784122
-0.000528445
-0.000776863
-0.00053442
-0.000762221
-0.000539865
-0.000740905
-0.000713972
-0.000545605
-1.27061e-05
-7.33735e-05
-4.23012e-05
-0.000193042
-8.31736e-05
-0.000288814
-0.000131246
-0.000364667
-0.000183409
-0.000425506
-0.000237237
-0.000476173
-0.000290786
-0.00052065
-0.000342467
-0.000561686
-0.000390963
-0.000600755
-0.000435188
-0.000638207
-0.000474284
-0.000673519
-0.00050765
-0.000705575
-0.00053499
-0.000732941
-0.000556359
-0.000754123
-0.000572193
-0.000767796
-0.000583301
-0.000773013
-0.000590806
-0.000769358
-0.000596021
-0.000757005
-0.000600295
-0.000736632
-0.000709445
-0.000604821
-1.39513e-05
-5.94222e-05
-4.60921e-05
-0.000160902
-9.01416e-05
-0.000244764
-0.000141675
-0.000313134
-0.000197442
-0.000369739
-0.000254993
-0.000418622
-0.000312417
-0.000463225
-0.00036816
-0.000505944
-0.000420898
-0.000548017
-0.000469477
-0.000589628
-0.000512898
-0.000630098
-0.000550347
-0.000668126
-0.000581265
-0.000702024
-0.000605427
-0.00072996
-0.000623034
-0.00075019
-0.000634751
-0.000761296
-0.000641704
-0.000762405
-0.000645388
-0.000753321
-0.000647495
-0.000734525
-0.000707262
-0.000649678
-1.47222e-05
-4.47e-05
-4.84178e-05
-0.000127206
-9.43716e-05
-0.000198811
-0.000147945
-0.00025956
-0.000205825
-0.000311859
-0.000265595
-0.000358853
-0.000325421
-0.0004034
-0.000383824
-0.00044754
-0.000439527
-0.000492315
-0.000491355
-0.000537799
-0.000538211
-0.000583243
-0.000579091
-0.000627246
-0.000613161
-0.000667954
-0.000639869
-0.000703252
-0.000659078
-0.000730981
-0.000671187
-0.000749187
-0.000677202
-0.00075639
-0.000678707
-0.000751816
-0.000677727
-0.000735506
-0.000708529
-0.00067646
-1.49506e-05
-2.97494e-05
-4.90813e-05
-9.30753e-05
-9.55016e-05
-0.00015239
-0.000149494
-0.000205568
-0.000207751
-0.000253601
-0.00026793
-0.000298674
-0.000328306
-0.000343024
-0.000387516
-0.00038833
-0.000444377
-0.000435453
-0.000497766
-0.00048441
-0.000546559
-0.00053445
-0.000589631
-0.000584174
-0.000625917
-0.000631668
-0.000654531
-0.000674637
-0.000674936
-0.000710577
-0.000687131
-0.000736992
-0.000691833
-0.000751688
-0.000690559
-0.000753091
-0.000685576
-0.000740489
-0.000714429
-0.000679675
-1.46046e-05
-1.51447e-05
-4.79844e-05
-5.96955e-05
-9.33379e-05
-0.000107037
-0.000145994
-0.000152912
-0.000202711
-0.000196885
-0.000261236
-0.000240148
-0.000319968
-0.000284292
-0.000377683
-0.000330615
-0.000433339
-0.000379797
-0.000485931
-0.000431819
-0.000534403
-0.000485978
-0.000577619
-0.000540958
-0.000614389
-0.000594898
-0.000643561
-0.000645465
-0.000664193
-0.000689944
-0.000675797
-0.000725388
-0.000678616
-0.00074887
-0.000673864
-0.000757842
-0.000663856
-0.000750496
-0.000726353
-0.000651933
-1.36961e-05
-1.44863e-06
-4.51504e-05
-2.82413e-05
-8.78977e-05
-6.42895e-05
-0.000137427
-0.000103383
-0.000190596
-0.000143715
-0.000245253
-0.000185492
-0.000299906
-0.000229639
-0.000353471
-0.000277049
-0.000405066
-0.000328203
-0.000453856
-0.000383029
-0.000498948
-0.000440886
-0.000539322
-0.000500584
-0.000573813
-0.000560406
-0.000601156
-0.000618123
-0.000620107
-0.000670993
-0.000629685
-0.000715809
-0.000629521
-0.000749034
-0.000620262
-0.000767102
-0.000603944
-0.000766814
-0.000746035
-0.000584262
-1.22838e-05
1.08352e-05
-4.07335e-05
2.08392e-07
-7.94304e-05
-2.55926e-05
-0.000124115
-5.86987e-05
-0.000171773
-9.60564e-05
-0.000220336
-0.000136929
-0.000268398
-0.000181577
-0.000314984
-0.000230463
-0.000359358
-0.000283828
-0.000400874
-0.000341513
-0.000438858
-0.000402902
-0.000472518
-0.000466924
-0.000500882
-0.000532043
-0.000522774
-0.000596231
-0.000536858
-0.000656908
-0.000541804
-0.000710863
-0.00053662
-0.000754218
-0.000521167
-0.000782555
-0.000496797
-0.000791184
-0.000775678
-0.000467154
-1.04694e-05
2.13046e-05
-3.50108e-05
2.47498e-05
-6.84073e-05
7.8039e-06
-0.00010672
-2.03858e-05
-0.00014708
-5.56966e-05
-0.00018748
-9.65289e-05
-0.00022656
-0.000142497
-0.000263407
-0.000193617
-0.000297387
-0.000249849
-0.000328013
-0.000310886
-0.000354835
-0.00037608
-0.000377342
-0.000444416
-0.000394879
-0.000514506
-0.000406565
-0.000584545
-0.000411245
-0.000652229
-0.000407521
-0.000714587
-0.000393974
-0.000767765
-0.000369643
-0.000806886
-0.000334833
-0.000825994
-0.000817986
-0.000292524
-8.38661e-06
2.96912e-05
-2.83549e-05
4.4718e-05
-5.54777e-05
3.49267e-05
-8.61827e-05
1.03193e-05
-0.000117753
-2.41262e-05
-0.000148227
-6.60546e-05
-0.000176249
-0.000114475
-0.000200912
-0.000168954
-0.000221624
-0.000229137
-0.000237997
-0.000294514
-0.000249752
-0.000364324
-0.000256645
-0.000437523
-0.000258373
-0.000512778
-0.000254476
-0.000588441
-0.000244226
-0.00066248
-0.000226515
-0.000732297
-0.000199883
-0.000794397
-0.000162804
-0.000843966
-0.000114413
-0.000874386
-0.000876031
-5.63683e-05
-6.18474e-06
3.5876e-05
-2.11901e-05
5.97233e-05
-4.13936e-05
5.51303e-05
-6.36081e-05
3.25338e-05
-8.52747e-05
-2.45957e-06
-0.000104465
-4.68645e-05
-0.000119796
-9.91438e-05
-0.000130325
-0.000158426
-0.00013544
-0.000224021
-0.000134782
-0.000295172
-0.000128172
-0.000370934
-0.000115555
-0.00045014
-9.69349e-05
-0.000531398
-7.22876e-05
-0.000613089
-4.14311e-05
-0.000693336
-3.8439e-06
-0.000769884
4.15108e-05
-0.000839751
9.6194e-05
-0.000898649
0.000161923
-0.000940115
-0.000952878
0.000238771
-4.00977e-06
3.98857e-05
-1.39399e-05
6.96534e-05
-2.69164e-05
6.81068e-05
-4.01277e-05
4.57451e-05
-5.1173e-05
8.58576e-06
-5.81517e-05
-3.98858e-05
-5.96411e-05
-9.76544e-05
-5.46318e-05
-0.000163435
-4.24571e-05
-0.000236196
-2.27333e-05
-0.000314896
4.68441e-06
-0.000398352
3.97377e-05
-0.000485194
8.22014e-05
-0.000573862
0.000131739
-0.000662626
0.000188001
-0.000749598
0.000250806
-0.00083269
0.000320418
-0.000909363
0.000397808
-0.000976039
0.000484762
-0.00102707
-0.00105111
0.000582997
-1.98585e-06
4.18716e-05
-6.97361e-06
7.46412e-05
-1.27194e-05
7.38525e-05
-1.67491e-05
4.97748e-05
-1.68115e-05
8.64807e-06
-1.10327e-05
-4.56646e-05
2.05219e-06
-0.000110739
2.35233e-05
-0.000184906
5.41156e-05
-0.000266788
9.42532e-05
-0.000355034
0.000144075
-0.000448173
0.000203449
-0.000544568
0.000271991
-0.000642404
0.000349083
-0.000739718
0.000433933
-0.000834448
0.000525695
-0.000924452
0.000623741
-0.00100741
0.000728051
-0.00108035
0.000839597
-0.00113862
-0.0011727
0.000961185
-2.00569e-07
4.20722e-05
-5.61862e-07
7.50025e-05
6.95131e-07
7.25956e-05
5.77093e-06
4.4699e-05
1.67888e-05
-2.36984e-06
3.55966e-05
-6.44724e-05
6.36934e-05
-0.000138836
0.000102216
-0.000223428
0.000151948
-0.00031652
0.000213331
-0.000416417
0.000286477
-0.000521319
0.000371171
-0.000629263
0.000466883
-0.000738115
0.000572777
-0.000845612
0.000687729
-0.0009494
0.000810372
-0.0010471
0.000939235
-0.00113627
0.00107307
-0.00121418
0.00121142
-0.00127697
-0.00131865
0.00135738
1.30396e-06
4.07682e-05
5.15294e-06
7.11535e-05
1.30525e-05
6.4696e-05
2.70144e-05
3.07371e-05
4.90666e-05
-2.4422e-05
8.10331e-05
-9.64389e-05
0.000124427
-0.00018223
0.000180404
-0.000279405
0.000249738
-0.000385854
0.000332813
-0.000499492
0.000429628
-0.000618134
0.000539805
-0.00073944
0.00066263
-0.00086094
0.0007971
-0.000980082
0.00094199
-0.00109429
0.00109591
-0.00120101
0.00125731
-0.00129767
0.00142418
-0.00138105
0.00159254
-0.00144533
-0.00147828
0.00175216
2.53274e-06
3.82355e-05
1.0166e-05
6.35203e-05
2.43271e-05
5.05349e-05
4.69345e-05
8.12969e-06
7.99593e-05
-5.74469e-05
0.0001252
-0.000141679
0.000184146
-0.000241176
0.000257894
-0.000353154
0.000347098
-0.000475058
0.000451936
-0.00060433
0.00057211
-0.000738308
0.000706883
-0.000874214
0.000855161
-0.00100922
0.00101562
-0.00114054
0.00118693
-0.00126559
0.001368
-0.00138209
0.00155848
-0.00148815
0.00175972
-0.00158229
0.00197808
-0.00166368
-0.00173091
0.00223071
3.53506e-06
3.47004e-05
1.46021e-05
5.24533e-05
3.47272e-05
3.04097e-05
6.58284e-05
-2.29715e-05
0.000109855
-0.000101473
0.000168561
-0.000200385
0.000243344
-0.000315959
0.000335122
-0.000444932
0.00044425
-0.000584186
0.000570479
-0.000730558
0.000712955
-0.000880784
0.00087029
-0.00103155
0.00104067
-0.0011796
0.00122206
-0.00132193
0.00141236
-0.0014559
0.00160972
-0.00157944
0.00181274
-0.00169117
0.00202095
-0.00179051
0.00223516
-0.0018779
-0.0019515
0.00245575
4.3916e-06
3.03088e-05
1.86838e-05
3.81611e-05
4.46412e-05
4.45234e-06
8.42555e-05
-6.25858e-05
0.000139469
-0.000156686
0.000211945
-0.000272861
0.000302873
-0.000406888
0.000412817
-0.000554875
0.000541602
-0.000712972
0.000688284
-0.00087724
0.000851182
-0.00104368
0.001028
-0.00120836
0.00121599
-0.0013676
0.00141224
-0.00151817
0.00161381
-0.00165747
0.00181803
-0.00178366
0.0020226
-0.00189575
0.00222566
-0.00199356
0.00242543
-0.00207767
-0.00214655
0.00262048
5.20189e-06
2.51069e-05
2.26918e-05
2.06711e-05
5.45592e-05
-2.7415e-05
0.00010291
-0.000110937
0.000169657
-0.000223434
0.000256279
-0.000359483
0.000363589
-0.000514198
0.00049156
-0.000682846
0.000639218
-0.00086063
0.000804651
-0.00104267
0.000985115
-0.00122415
0.00117725
-0.0014005
0.00137736
-0.00156771
0.00158169
-0.00172249
0.00178669
-0.00186248
0.00198926
-0.00198623
0.00218678
-0.00209327
0.00237714
-0.00218392
0.00255862
-0.00225916
-0.00231874
0.00273081
6.06774e-06
1.90392e-05
2.69155e-05
-1.76601e-07
6.49809e-05
-6.54804e-05
0.000122475
-0.000168431
0.000201207
-0.000302165
0.000302314
-0.00046059
0.000426006
-0.00063789
0.000571387
-0.000828228
0.000736406
-0.00102565
0.000917949
-0.00122422
0.00111209
-0.00141828
0.00131441
-0.00160282
0.0015204
-0.0017737
0.00172579
-0.00192789
0.00192685
-0.00206354
0.00212054
-0.00217992
0.00230459
-0.00227732
0.00247743
-0.00235676
0.00263812
-0.00241985
-0.00246755
0.00278694
7.07855e-06
1.19606e-05
3.16072e-05
-2.47053e-05
7.63278e-05
-0.000110201
0.000143485
-0.000235588
0.000234645
-0.000393325
0.000350386
-0.000576331
0.000490035
-0.000777539
0.000651539
-0.000989731
0.000831525
-0.00120563
0.00102556
-0.00141825
0.00122854
-0.00162127
0.00143521
-0.00180949
0.00164059
-0.00197907
0.00184033
-0.00212763
0.00203101
-0.00225422
0.00221019
-0.0023591
0.0023764
-0.00244352
0.00252902
-0.00250938
0.00266815
-0.00255897
-0.00259426
0.00279485
8.30042e-06
3.6602e-06
3.69483e-05
-5.33531e-05
8.88772e-05
-0.00016213
0.000166228
-0.000312939
0.000270115
-0.000497212
0.000400282
-0.000706497
0.000554871
-0.000932129
0.000730413
-0.00116527
0.000922071
-0.00139729
0.00112411
-0.00162029
0.0013305
-0.00182766
0.00153548
-0.00201447
0.00173408
-0.00217766
0.00192239
-0.00231594
0.00209774
-0.00242957
0.00225866
-0.00252003
0.00240473
-0.00258959
0.00253636
-0.00264101
0.00265458
-0.0026772
-0.00270076
0.00276109
9.77089e-06
-6.11069e-06
4.30301e-05
-8.66123e-05
0.000102728
-0.000221828
0.000190695
-0.000400906
0.000307323
-0.00061384
0.00045121
-0.000850385
0.000619031
-0.00109995
0.000805722
-0.00135196
0.00100499
-0.00159656
0.00121002
-0.00182532
0.00141421
-0.00203185
0.00161183
-0.00221209
0.0017984
-0.00236423
0.0019709
-0.00248844
0.00212775
-0.00258643
0.00226862
-0.00266089
0.00239413
-0.00271511
0.00250563
-0.00275251
0.00260485
-0.00277642
-0.0027898
0.00269389
1.14992e-05
-1.76099e-05
4.98533e-05
-0.000124966
0.000117798
-0.000289772
0.000216585
-0.000499694
0.00034557
-0.000742825
0.000501892
-0.00100671
0.000680533
-0.00127859
0.000874801
-0.00154623
0.00107713
-0.00179889
0.00128
-0.00202819
0.00147677
-0.00222862
0.00166222
-0.00239754
0.00183285
-0.00253486
0.00198683
-0.00264243
0.0021238
-0.00272339
0.00224451
-0.00278161
0.00235052
-0.00282111
0.00244381
-0.00284579
0.00252654
-0.00285915
-0.00286423
0.00260096
1.34709e-05
-3.10809e-05
5.73391e-05
-0.000168834
0.000133847
-0.00036628
0.000243354
-0.000609201
0.000383839
-0.00088331
0.000550711
-0.00117358
0.000737152
-0.00146503
0.000934964
-0.00174404
0.00113567
-0.00199959
0.00133155
-0.00222408
0.00151647
-0.00241354
0.00168621
-0.00256728
0.00183852
-0.00268717
0.00197287
-0.00277678
0.00209007
-0.00284059
0.00219181
-0.00288334
0.00228027
-0.00290957
0.0023578
-0.00292333
0.00242671
-0.00292806
-0.00292669
0.00248918
1.56538e-05
-4.67347e-05
6.53474e-05
-0.000218528
0.000150514
-0.000451446
0.000270275
-0.000728962
0.000420912
-0.00103395
0.000595906
-0.00134857
0.000786685
-0.00165581
0.000983845
-0.0019412
0.00117849
-0.00219423
0.00136327
-0.00240886
0.00153302
-0.00258329
0.00168485
-0.00271911
0.00181789
-0.00282021
0.00193284
-0.00289174
0.00203149
-0.00293924
0.00211618
-0.00296803
0.00218944
-0.00298283
0.00225373
-0.00298761
0.00231127
-0.0029856
-0.00297944
0.00236402
1.80039e-05
-6.47385e-05
7.36945e-05
-0.000274219
0.000167355
-0.000545107
0.000296515
-0.000858122
0.000455484
-0.00119292
0.000635752
-0.00152884
0.000827192
-0.00184725
0.00101965
-0.00213366
0.00120436
-0.00237894
0.00137488
-0.00257938
0.00152736
-0.00273577
0.00166036
-0.00285211
0.00177435
-0.0029342
0.00187109
-0.00298848
0.00195304
-0.00302119
0.00202291
-0.0030379
0.00208333
-0.00304325
0.00213665
-0.00304093
0.00218487
-0.00303383
-0.00302422
0.00222966
2.04698e-05
-8.52083e-05
8.21688e-05
-0.000335918
0.000183876
-0.000646813
0.000321197
-0.000995444
0.000486286
-0.001358
0.000668716
-0.00171127
0.000857176
-0.00203571
0.0010413
-0.00231778
0.001213
-0.00255065
0.00136714
-0.00273351
0.00150136
-0.00287
0.00161568
-0.00296643
0.0017117
-0.00303022
0.00179195
-0.00306872
0.00185929
-0.00308854
0.00191655
-0.00309516
0.00196623
-0.00309294
0.00201047
-0.00308517
0.00205097
-0.00307433
-0.00306232
0.00208907
2.2995e-05
-0.000108203
9.05422e-05
-0.000403465
0.000199564
-0.000755836
0.000343465
-0.00113934
0.000512172
-0.00152671
0.000693581
-0.00189268
0.00087568
-0.00221781
0.00104845
-0.00249055
0.00120497
-0.00270717
0.0013416
-0.00287014
0.00145755
-0.00298595
0.00155409
-0.00306297
0.00163371
-0.00310983
0.0016994
-0.00313441
0.00175418
-0.00314332
0.00180078
-0.00314175
0.00184147
-0.00313363
0.00187809
-0.00312179
0.00191204
-0.00310827
-0.00309464
0.00194435
2.55195e-05
-0.000133723
9.85784e-05
-0.000476524
0.000213916
-0.000871173
0.000362531
-0.00128796
0.0005322
-0.00169638
0.000709517
-0.00207
0.000882318
-0.00239061
0.00104145
-0.00264968
0.00118146
-0.00284718
0.00130033
-0.00298902
0.0013987
-0.00308431
0.00147883
-0.0031431
0.0015438
-0.00317481
0.00159684
-0.00318745
0.0016409
-0.00318737
0.00167847
-0.00317932
0.00171153
-0.0031667
0.00174161
-0.00315187
0.00176981
-0.00313647
-0.00312175
0.00179692
2.79804e-05
-0.000161703
0.000106042
-0.000554585
0.000226456
-0.000991587
0.000377722
-0.00143923
0.000545682
-0.00186434
0.000716109
-0.00224042
0.000877233
-0.00255174
0.00102118
-0.00279363
0.00114414
-0.00297014
0.00124567
-0.00309054
0.00132757
-0.00316621
0.00139287
-0.0032084
0.00144497
-0.0032269
0.00148707
-0.00322956
0.00152194
-0.00322224
0.00155176
-0.00320914
0.0015782
-0.00319314
0.00160248
-0.00317615
0.00162546
-0.00315945
-0.00314401
0.00164773
3.03126e-05
-0.000192016
0.000112704
-0.000636976
0.000236761
-0.00111564
0.000388513
-0.00159098
0.00055221
-0.00202804
0.000713336
-0.00240155
0.000861011
-0.00269941
0.000988916
-0.00292154
0.00109492
-0.00307614
0.00117995
-0.00317557
0.00124676
-0.00323303
0.00129884
-0.00326049
0.00133967
-0.00326773
0.0013723
-0.00326219
0.0013992
-0.00324913
0.00142223
-0.00323217
0.00144275
-0.00321367
0.00146173
-0.00319513
0.00147982
-0.00317754
-0.00316163
0.00149745
3.24489e-05
-0.000224465
0.000118349
-0.000722876
0.000244478
-0.00124177
0.000394546
-0.00174105
0.000551654
-0.00218515
0.00070153
-0.00255143
0.000834571
-0.00283245
0.000946158
-0.00303312
0.00103573
-0.00316572
0.0011054
-0.00324523
0.00115856
-0.00328619
0.00119893
-0.00330085
0.00122989
-0.00329869
0.00125423
-0.00328653
0.00127409
-0.00326899
0.00129101
-0.0032491
0.0013061
-0.00322875
0.00132008
-0.00320911
0.00133346
-0.00319092
-0.00317471
0.00134653
3.43305e-05
-0.000258795
0.000122806
-0.000811352
0.000249361
-0.00136833
0.00039566
-0.00188734
0.000544152
-0.00233364
0.000681294
-0.00268857
0.000799038
-0.0029502
0.000894476
-0.00312856
0.00096846
-0.0032397
0.00102399
-0.00330077
0.00106489
-0.00332708
0.00109487
-0.00333083
0.00111711
-0.00332094
0.00113409
-0.0033035
0.0011476
-0.0032825
0.00115889
-0.0032604
0.00116884
-0.0032387
0.00117801
-0.00321828
0.00118676
-0.00319967
-0.00318326
0.0011953
3.59082e-05
0.000125939
0.000251259
0.000391857
0.000530049
0.000653428
0.00075565
0.000835439
0.000894833
0.000937478
0.000967368
0.000988096
0.00100254
0.00101284
0.00102048
0.00102646
0.00103145
0.00103588
0.00104004
0.00104406
3.95405e-05
0.000253544
0.000138633
0.000829306
0.000275865
0.00142738
0.000428387
0.00199123
0.000576363
0.0024762
0.000706406
0.00285904
0.000812218
0.00313756
0.00089316
0.00332396
0.000952079
0.00343716
0.000993326
0.00349693
0.00102139
0.00352047
0.00104013
0.00352111
0.00105253
0.00350833
0.00106072
0.00348843
0.00106614
0.00346535
0.00106975
0.0034415
0.00107216
0.00341825
0.00107377
0.00339643
0.00107484
0.00337646
0.00335864
0.00107554
3.78558e-05
0.000215688
0.000135509
0.000731653
0.000274637
0.00128825
0.000434112
0.00183176
0.000593989
0.00231632
0.000739393
0.00271364
0.000862038
0.00301491
0.000959522
0.00322647
0.00103351
0.00336317
0.0010878
0.00344265
0.0011268
0.00348147
0.00115463
0.00349329
0.00117463
0.00348834
0.0011893
0.00347375
0.00120043
0.00345423
0.00120921
0.00343272
0.00121643
0.00341103
0.00122263
0.00339023
0.00122815
0.00337095
0.0033536
0.00123319
3.58161e-05
0.000179872
0.000130879
0.00063659
0.000270093
0.00114904
0.000434527
0.00166732
0.000604717
0.00214613
0.000764699
0.00255366
0.000904286
0.00287533
0.00101915
0.00311161
0.00110948
0.00327284
0.00117825
0.00337388
0.00122956
0.00343015
0.00126764
0.00345521
0.00129615
0.00345983
0.00131797
0.00345193
0.00133525
0.00343695
0.00134948
0.00341849
0.00136168
0.00339883
0.00137254
0.00337937
0.00138251
0.00336098
0.00334423
0.00139187
3.34886e-05
0.000146383
0.000124903
0.000545176
0.000262381
0.00101156
0.000429558
0.00150015
0.000608059
0.00196763
0.000781348
0.00238037
0.000937561
0.00271911
0.00107037
0.0029788
0.00117825
0.00316495
0.00126301
0.00328913
0.0013282
0.00336496
0.00137795
0.00340546
0.00141613
0.00342165
0.001446
0.00342206
0.00147007
0.00341288
0.00149018
0.00339838
0.00150763
0.00338138
0.00152331
0.00336369
0.00153781
0.00334648
0.00333052
0.00155152
3.09409e-05
0.000115442
0.000117776
0.000458341
0.000251754
0.000877583
0.000419318
0.00133258
0.000603739
0.00178321
0.000788516
0.00219559
0.000960487
0.00254714
0.00111139
0.0028279
0.0012378
0.00303855
0.00134004
0.00318688
0.00142082
0.00328418
0.00148391
0.00334238
0.00153323
0.00337232
0.00157233
0.00338296
0.00160409
0.00338112
0.00163072
0.00337175
0.00165384
0.00335826
0.0016746
0.00334293
0.00169379
0.00332729
0.00331238
0.00171193
2.82374e-05
8.72048e-05
0.000109705
0.000376874
0.000238541
0.000748747
0.000404085
0.00116704
0.00059172
0.00159557
0.000785623
0.00200169
0.000971854
0.00236091
0.00114044
0.00265931
0.00128597
0.00289302
0.00140706
0.0030658
0.00150519
0.00318605
0.00158349
0.00326407
0.00164573
0.00331009
0.00169557
0.00333312
0.00173622
0.00334047
0.00177028
0.00333769
0.00179973
0.00332881
0.00182601
0.00331665
0.00185016
0.00330314
0.00328965
0.0018729
2.54458e-05
6.1759e-05
0.000100923
0.000301397
0.000223156
0.000626513
0.000384325
0.00100587
0.000572257
0.00140764
0.000772419
0.00180153
0.00097072
0.00216261
0.00115587
0.00247417
0.00132056
0.00272832
0.00146151
0.00292485
0.00157867
0.00306888
0.0016742
0.00316854
0.00175138
0.00323291
0.00181383
0.00327067
0.00186496
0.00328934
0.0019077
0.00329494
0.00194441
0.0032921
0.00197689
0.00328417
0.00200646
0.00327356
0.00326201
0.0020341
2.26312e-05
3.91278e-05
9.1671e-05
0.000232357
0.000206074
0.00051211
0.000360676
0.000851269
0.00054591
0.00122241
0.000749061
0.00159837
0.000956555
0.00195512
0.00115633
0.00227439
0.00133946
0.00254519
0.00150073
0.00276358
0.00163832
0.00293129
0.00175306
0.00305381
0.00184741
0.00313856
0.00192466
0.00319343
0.00198823
0.00322576
0.00204131
0.00324186
0.0020866
0.00324682
0.00212626
0.00324451
0.00216198
0.00323784
0.00322898
0.00219501
1.98523e-05
1.92755e-05
8.21845e-05
0.000170025
0.0001878
0.000406494
0.000333903
0.000705167
0.00051353
0.00104278
0.000716152
0.00139575
0.000929351
0.00174192
0.00114096
0.00206278
0.00134088
0.00234528
0.00152211
0.00258235
0.00168097
0.00277243
0.00181663
0.00291814
0.00193041
0.00302478
0.0020249
0.00309894
0.00210328
0.00314737
0.0021688
0.00317634
0.00222442
0.00319119
0.00227268
0.00319626
0.0023156
0.00319492
0.00318978
0.0023548
1.71572e-05
2.11824e-06
7.26759e-05
0.000114506
0.000168832
0.000310338
0.000304845
0.000569153
0.000476197
0.000871427
0.000674727
0.00119722
0.000889705
0.00152694
0.00110954
0.00184295
0.00132357
0.00213125
0.00152339
0.00238253
0.00170349
0.00259233
0.00186124
0.00276038
0.00199646
0.00288956
0.00211069
0.00298471
0.00220654
0.00305153
0.00228704
0.00309584
0.00235526
0.00312297
0.00241399
0.00313753
0.00246563
0.00314328
0.00314325
0.00251216
1.45811e-05
-1.24628e-05
6.33234e-05
6.57638e-05
0.000149626
0.000224036
0.000274349
0.00044443
0.000435135
0.00071064
0.000626194
0.00100616
0.000838825
0.00131431
0.00106264
0.00161913
0.0012871
0.00190679
0.00150294
0.0021667
0.00170312
0.00239216
0.00188321
0.00258029
0.0020413
0.00273147
0.00217756
0.00284845
0.0022936
0.00293549
0.00239195
0.00299749
0.0024755
0.00303943
0.00254714
0.00306588
0.00260955
0.00308087
0.00308775
0.00266506
1.21439e-05
-2.46067e-05
5.42622e-05
2.36454e-05
0.000130574
0.000147724
0.000243209
0.000331795
0.000391623
0.000562227
0.000572216
0.000825571
0.000778464
0.00110806
0.00100164
0.00139595
0.00123201
0.00167642
0.00146011
0.0019386
0.00167786
0.00217441
0.00187927
0.00237888
0.00206068
0.00255006
0.00222059
0.00268854
0.00235933
0.00279675
0.00247849
0.00287833
0.00258045
0.00293746
0.00266796
0.00297838
0.00274377
0.00300506
0.00302105
0.00281046
9.8521e-06
-3.44588e-05
4.55851e-05
-1.20876e-05
0.000111992
8.13169e-05
0.000212131
0.000231656
0.000346894
0.000427463
0.000514582
0.000657884
0.000710781
0.000911862
0.000928696
0.00117804
0.00115992
0.00144519
0.00139549
0.00170303
0.00162693
0.00194297
0.00184713
0.00215868
0.00205086
0.00234633
0.00223495
0.00250445
0.00239815
0.00263356
0.00254077
0.00273571
0.0026643
0.00281392
0.00277097
0.0028717
0.00286336
0.00291268
0.00294031
0.0029441
7.70355e-06
-4.21623e-05
3.73541e-05
-4.17382e-05
9.4126e-05
2.4545e-05
0.000181719
0.000144063
0.00030209
0.000307093
0.00045508
0.000504894
0.00063817
0.000728771
0.000846534
0.000969672
0.00107345
0.00121828
0.00131101
0.00146547
0.00155104
0.00170294
0.00178592
0.0019238
0.0020093
0.00212295
0.0022165
0.00229725
0.00240463
0.00244543
0.0025725
0.00256785
0.00272034
0.00266608
0.00284947
0.00274257
0.0029619
0.00280024
0.00284213
0.00306008
5.69588e-06
-4.78582e-05
2.96226e-05
-6.56649e-05
7.71924e-05
-2.30248e-05
0.000152505
6.87503e-05
0.00025825
0.000201347
0.000395434
0.000367711
0.000563113
0.000561092
0.000758284
0.0007745
0.000976022
0.00100054
0.00120989
0.0012316
0.00145259
0.00146024
0.00169668
0.00167971
0.00193528
0.00188435
0.00216261
0.00206992
0.00237435
0.00223369
0.00256775
0.00237444
0.00274158
0.00249225
0.0028959
0.00258825
0.00303177
0.00266437
0.00272277
0.00315113
3.83697e-06
-5.16952e-05
2.24632e-05
-8.42912e-05
6.1419e-05
-6.19806e-05
0.000125007
5.16238e-06
0.000216362
0.000109992
0.000337298
0.000246774
0.000488087
0.000410303
0.000667279
0.000595308
0.000871667
0.000796152
0.00109646
0.00100681
0.00133564
0.00122105
0.00158254
0.00143281
0.00183039
0.0016365
0.00207293
0.00182738
0.00230482
0.0020018
0.002522
0.00215727
0.00272173
0.00229252
0.00290264
0.00240735
0.0030645
0.00250251
0.00257877
0.0032085
2.1535e-06
-5.38487e-05
1.59914e-05
-9.8129e-05
4.70894e-05
-9.30786e-05
9.97893e-05
-4.75375e-05
0.000177429
3.2353e-05
0.000282312
0.000141891
0.000415563
0.000277052
0.000576951
0.00043392
0.000764764
0.000608339
0.000975813
0.000795758
0.00120559
0.000991276
0.0014486
0.0011898
0.00169877
0.00138633
0.00194997
0.00157618
0.00219646
0.00175531
0.00243327
0.00192045
0.0026565
0.00206929
0.00286338
0.00220046
0.00305232
0.00231358
0.00240731
0.00322378
6.93953e-07
-5.45426e-05
1.03737e-05
-0.000107809
3.45603e-05
-0.000117265
7.74956e-05
-9.04728e-05
0.000142517
-3.2668e-05
0.000232143
5.22649e-05
0.000348019
0.000161175
0.00049078
0.000291159
0.000659904
0.000439215
0.000853619
0.000602044
0.00106891
0.000775982
0.00130167
0.000957048
0.00154693
0.00114107
0.00179924
0.00132387
0.00205305
0.00150149
0.00230312
0.00167038
0.00254483
0.00182758
0.00277444
0.00197085
0.00298914
0.00209887
0.00220779
0.00318866
-4.76814e-07
-5.40658e-05
5.81268e-06
-0.000114098
2.42377e-05
-0.00013569
5.882e-05
-0.000125055
0.000112729
-8.65773e-05
0.000188471
-2.34766e-05
0.000287916
6.173e-05
0.000412229
0.000166846
0.000561737
0.000289707
0.000735803
0.000427977
0.000932745
0.000579041
0.00114984
0.000739956
0.00138341
0.000907493
0.00162907
0.00107821
0.00188196
0.0012486
0.00213712
0.00141522
0.00238984
0.00157487
0.00263604
0.00172466
0.00287276
0.00186215
0.00197973
0.00310082
-1.29106e-06
-5.27748e-05
2.50859e-06
-0.000117898
1.651e-05
-0.000149692
4.44131e-05
-0.000152958
8.9089e-05
-0.000131253
0.000152846
-8.72336e-05
0.000237537
-2.29607e-05
0.000344551
5.98323e-05
0.000474729
0.000159529
0.000628241
0.000274466
0.000804462
0.000402819
0.0010019
0.000542521
0.00121816
0.000691225
0.00145006
0.000846315
0.00169373
0.00100494
0.00194488
0.00116407
0.00219913
0.00132061
0.0024525
0.0014713
0.00270267
0.00161197
0.00172641
0.002956
-1.69545e-06
-5.10793e-05
6.09867e-07
-0.000120203
1.16563e-05
-0.000160738
3.4741e-05
-0.000176043
7.23437e-05
-0.000168856
0.000126443
-0.000141333
0.000198683
-9.52011e-05
0.000290429
-3.19132e-05
0.000402728
4.72296e-05
0.000536221
0.000140973
0.000691023
0.000248017
0.0008666
0.000366943
0.00106168
0.000496146
0.00127421
0.00063379
0.00150134
0.000777798
0.00173956
0.000925861
0.00198468
0.00107548
0.00223193
0.00122404
0.00247575
0.00136815
0.00149262
0.00270954
-1.67119e-06
-4.94081e-05
1.599e-07
-0.000122034
9.75181e-06
-0.00017033
2.99398e-05
-0.000196231
6.27571e-05
-0.000201673
0.000109774
-0.000188349
0.000172302
-0.000157729
0.000251495
-0.000111106
0.000348361
-4.96367e-05