/*--------------------------------*- C++ -*----------------------------------*\
  =========                 |
  \\      /  F ield         | OpenFOAM: The Open Source CFD Toolbox
   \\    /   O peration     | Website:  https://openfoam.org
    \\  /    A nd           | Version:  6.0
     \\/     M anipulation  |
\*---------------------------------------------------------------------------*/
FoamFile
{
    version     2.0;
    format      ascii;
    class       surfaceScalarField;
    location    "15";
    object      phi;
}
// * * * * * * * * * * * * * * * * * * * * * * * * * * * * * * * * * * * * * //

dimensions      [0 3 -1 0 0 0 0];

internalField   nonuniform List<scalar> 
7840
(
3.55838e-05
-0.000259206
0.000125849
-0.000813123
0.000253055
-0.00136771
0.00039786
-0.00187864
0.000542591
-0.00231199
0.000674281
-0.00265165
0.00078575
-0.00289842
0.000874912
-0.00306442
0.000943191
-0.00316674
0.000993873
-0.00322274
0.0010308
-0.00324737
0.00105758
-0.00325217
0.00107716
-0.00324533
0.00109178
-0.00323231
0.00110301
-0.00321657
0.00111196
-0.0032002
0.00111933
-0.00318446
0.00112562
-0.0031701
0.00113113
-0.00315758
-0.00314735
0.00113603
3.69514e-05
-0.000296157
0.000128016
-0.000904188
0.000252736
-0.00149243
0.000390343
-0.00201625
0.000523345
-0.00244499
0.000640136
-0.00276844
0.00073532
-0.00299361
0.000808396
-0.0031375
0.000861868
-0.00322022
0.000899547
-0.00326042
0.000925365
-0.00327319
0.000942724
-0.00326953
0.000954262
-0.00325686
0.000961874
-0.00323992
0.000966846
-0.00322154
0.000970029
-0.00320338
0.000971984
-0.00318642
0.00097308
-0.0031712
0.000973547
-0.00315805
-0.0031473
0.000973499
3.79058e-05
-0.000334063
0.000128594
-0.000994876
0.000249166
-0.001613
0.000377937
-0.00214502
0.000498081
-0.00256514
0.000599602
-0.00286996
0.00067887
-0.00307288
0.000736771
-0.0031954
0.000776629
-0.00326007
0.000802546
-0.00328634
0.000818377
-0.00328902
0.000827248
-0.0032784
0.000831455
-0.00326107
0.00083257
-0.00324104
0.000831622
-0.00322059
0.00082927
-0.00320103
0.000825944
-0.00318309
0.000821926
-0.00316718
0.000817392
-0.00315352
-0.00314233
0.000812421
3.84119e-05
-0.000372475
0.000127546
-0.00108401
0.000242443
-0.0017279
0.000361024
-0.0022636
0.000467543
-0.00267166
0.000553753
-0.00295617
0.000617688
-0.00313681
0.000661392
-0.00323911
0.000688763
-0.00328744
0.000704007
-0.00330158
0.000710783
-0.0032958
0.000711894
-0.00327951
0.0007093
-0.00325848
0.000704282
-0.00323602
0.000697648
-0.00321396
0.000689905
-0.00319329
0.000681381
-0.00317456
0.000672295
-0.00315809
0.000662783
-0.00314401
-0.00313245
0.000652904
3.84466e-05
-0.000410922
0.000124882
-0.00117045
0.000232742
-0.00183576
0.000340067
-0.00237093
0.00043251
-0.0027641
0.00050362
-0.00302728
0.000552933
-0.00318612
0.000583418
-0.00326959
0.000599332
-0.00330336
0.000604829
-0.00330708
0.000603302
-0.00329427
0.000597214
-0.00327342
0.000588208
-0.00324947
0.000577312
-0.00322512
0.00056515
-0.0032018
0.000552108
-0.00318025
0.000538437
-0.00316089
0.000524308
-0.00314397
0.000509832
-0.00312953
-0.00311768
0.000495055
3.79988e-05
-0.00044892
0.000120652
-0.0012531
0.000220298
-0.00193541
0.000315573
-0.0024662
0.000393757
-0.00284228
0.000450157
-0.00308368
0.000485622
-0.00322159
0.000503823
-0.00328779
0.000509189
-0.00330872
0.000505714
-0.00330361
0.000496478
-0.00328504
0.000483613
-0.00326056
0.000468475
-0.00323433
0.000451877
-0.00320853
0.000434294
-0.00318421
0.000416013
-0.00316196
0.000397225
-0.00314211
0.000378069
-0.00312481
0.000358638
-0.0031101
-0.00309801
0.000338974
3.70693e-05
-0.00048599
0.000114941
-0.00133097
0.000205392
-0.00202586
0.000288069
-0.00254888
0.000352022
-0.00290624
0.000394223
-0.00312588
0.000416632
-0.003244
0.00042341
-0.00329457
0.000419013
-0.00330433
0.000407199
-0.00329179
0.000390718
-0.00326856
0.00037139
-0.00324123
0.00035032
-0.00321326
0.000328141
-0.00318635
0.000305206
-0.00316128
0.000281725
-0.00313848
0.000257841
-0.00311822
0.000233668
-0.00310064
0.00020929
-0.00308572
-0.00307347
0.000184749
3.56693e-05
-0.000521659
0.000107861
-0.00140316
0.000188327
-0.00210632
0.000258075
-0.00261863
0.000307992
-0.00295616
0.00033658
-0.00315447
0.000346702
-0.00325412
0.000342835
-0.0032907
0.000329342
-0.00329083
0.000309699
-0.00327215
0.000286328
-0.00324519
0.000260766
-0.00321566
0.000233903
-0.0031864
0.000206224
-0.00315867
0.000177984
-0.00313304
0.000149329
-0.00310983
0.000120364
-0.00308926
9.11828e-05
-0.00307146
6.18664e-05
-0.0030564
-0.00304407
3.24629e-05
3.38196e-05
-0.000555479
9.95434e-05
-0.00146889
0.000169419
-0.0021762
0.000226095
-0.0026753
0.000262293
-0.00299235
0.000277888
-0.00317006
0.000276455
-0.00325268
0.000262629
-0.00327688
0.000240601
-0.00326881
0.000213533
-0.00324508
0.000183541
-0.00321519
0.000151906
-0.00318403
0.000119343
-0.00315384
8.62172e-05
-0.00312554
5.27034e-05
-0.00309953
1.88931e-05
-0.00307602
-1.51418e-05
-0.00305522
-4.93233e-05
-0.00303727
-8.35676e-05
-0.00302216
-0.00300982
-0.000117815
3.15492e-05
-0.000587028
9.01352e-05
-0.00152747
0.000148987
-0.00223505
0.000192598
-0.00271891
0.000215484
-0.00301524
0.000218717
-0.0031733
0.000206407
-0.00324037
0.000183224
-0.00325369
0.000153124
-0.0032387
0.000118952
-0.00321091
8.25346e-05
-0.00317878
4.49385e-05
-0.00314643
6.73292e-06
-0.00311563
-3.18107e-05
-0.003087
-7.05814e-05
-0.00306075
-0.000109535
-0.00303706
-0.000148631
-0.00301613
-0.000187805
-0.0029981
-0.000226966
-0.002983
-0.00297075
-0.000266036
2.88935e-05
-0.000615921
7.97904e-05
-0.00157837
0.000127339
-0.0022826
0.000158022
-0.0027496
0.000168059
-0.00302528
0.000159554
-0.00316479
0.00013699
-0.00321781
0.000104973
-0.00322168
6.71831e-05
-0.00320092
2.6156e-05
-0.00316988
-1.65438e-05
-0.00313608
-6.0032e-05
-0.00310294
-0.000103854
-0.00307181
-0.000147808
-0.00304304
-0.000191833
-0.00301673
-0.000235927
-0.00299297
-0.000280082
-0.00297197
-0.00032425
-0.00295393
-0.000368324
-0.00293892
-0.00292687
-0.000412203
2.58931e-05
-0.000641814
6.86664e-05
-0.00162114
0.000104771
-0.0023187
0.000122762
-0.00276759
0.000120455
-0.00302297
0.000100816
-0.00314515
6.85654e-05
-0.00318556
2.81668e-05
-0.00318128
-1.6994e-05
-0.00315575
-6.46821e-05
-0.00312219
-0.000113565
-0.00308719
-0.000162911
-0.0030536
-0.000212351
-0.00302237
-0.000261732
-0.00299366
-0.00031103
-0.00296743
-0.000360278
-0.00294372
-0.000409508
-0.00292274
-0.00045869
-0.00290475
-0.000507702
-0.00288991
-0.00287817
-0.000556405
2.25926e-05
-0.000664407
5.69205e-05
-0.00165547
8.15614e-05
-0.00234335
8.71773e-05
-0.0027732
7.30535e-05
-0.00300885
4.28601e-05
-0.00311496
1.44076e-06
-0.00314414
-4.69416e-05
-0.00313289
-9.92068e-05
-0.00310349
-0.000153403
-0.003068
-0.000208403
-0.00303219
-0.0002636
-0.0029984
-0.000318687
-0.00296728
-0.00037354
-0.00293881
-0.000428153
-0.00291282
-0.000482595
-0.00288928
-0.000536938
-0.0028684
-0.000591186
-0.0028505
-0.000645204
-0.00283589
-0.00282458
-0.000698793
1.90392e-05
-0.000683446
4.47066e-05
-0.00168114
5.797e-05
-0.00235661
5.15915e-05
-0.00276682
2.61904e-05
-0.00298345
-1.40015e-05
-0.00307477
-6.41148e-05
-0.00309403
-0.000120127
-0.00307688
-0.000179266
-0.00304435
-0.000239843
-0.00300742
-0.000300915
-0.00297112
-0.000361978
-0.00293734
-0.000422769
-0.00290649
-0.000483171
-0.00287841
-0.00054318
-0.00285281
-0.000602884
-0.00282958
-0.000662405
-0.00280888
-0.000721793
-0.00279112
-0.000780916
-0.00277677
-0.00276602
-0.000839475
1.52816e-05
-0.000698728
3.21733e-05
-0.00169803
3.42368e-05
-0.00235867
1.62942e-05
-0.00274888
-1.98382e-05
-0.00294731
-6.94953e-05
-0.00302511
-0.00012786
-0.00303566
-0.000191178
-0.00301356
-0.000256979
-0.00297855
-0.000323821
-0.00294058
-0.000390927
-0.00290401
-0.000457885
-0.00287038
-0.000524462
-0.00283991
-0.000590533
-0.00281234
-0.000656069
-0.00278727
-0.000721153
-0.00276449
-0.000785946
-0.00274408
-0.000850566
-0.0027265
-0.000914892
-0.00271244
-0.00270242
-0.000978487
1.13694e-05
-0.000710097
1.94619e-05
-0.00170612
1.05815e-05
-0.00234979
-1.84557e-05
-0.00271985
-6.47708e-05
-0.002901
-0.000123378
-0.0029665
-0.000189573
-0.00296947
-0.000259886
-0.00294325
-0.00033214
-0.0029063
-0.000405124
-0.00286759
-0.000478216
-0.00283092
-0.000551092
-0.00279751
-0.000623554
-0.00276745
-0.000695458
-0.00274043
-0.000766729
-0.002716
-0.000837404
-0.00269382
-0.000907655
-0.00267383
-0.000977676
-0.00265647
-0.00104738
-0.00264274
-0.00263359
-0.00111621
7.35125e-06
-0.000717448
6.70519e-06
-0.00170548
-1.27966e-05
-0.00233029
-5.24284e-05
-0.00268021
-0.000108376
-0.00284505
-0.00017543
-0.00289945
-0.000249045
-0.00289585
-0.000326043
-0.00286625
-0.000404526
-0.00282781
-0.000483502
-0.00278862
-0.000562497
-0.00275193
-0.000641285
-0.00271872
-0.000719714
-0.00268902
-0.000797643
-0.0026625
-0.000874941
-0.0026387
-0.000951571
-0.00261719
-0.00102768
-0.00259772
-0.00110355
-0.0025806
-0.00117917
-0.00256712
-0.00255858
-0.00125418
3.27482e-06
-0.000720723
-5.97433e-06
-0.00169623
-3.57193e-05
-0.00230054
-8.54221e-05
-0.00263051
-0.000150452
-0.00278002
-0.000225456
-0.00282445
-0.000306081
-0.00281523
-0.000389438
-0.00278289
-0.000473897
-0.00274335
-0.000558666
-0.00270385
-0.000643424
-0.00266717
-0.000728053
-0.00263409
-0.000812487
-0.00260459
-0.000896626
-0.00257837
-0.000980321
-0.00255501
-0.00106346
-0.00253405
-0.00114614
-0.00251504
-0.00122876
-0.00249798
-0.00131154
-0.00248435
-0.00247506
-0.00139505
-8.14972e-07
-0.000719908
-1.8466e-05
-0.00167858
-5.80309e-05
-0.00226098
-0.000117264
-0.00257128
-0.000190827
-0.00270646
-0.000273286
-0.00274199
-0.0003605
-0.00272801
-0.000449863
-0.00269353
-0.000539989
-0.00265323
-0.000630276
-0.00261356
-0.00072055
-0.0025769
-0.000810832
-0.00254381
-0.000901193
-0.00251423
-0.000991667
-0.00248789
-0.0010822
-0.00246447
-0.00117268
-0.00244357
-0.00126312
-0.0024246
-0.00135387
-0.00240723
-0.00144551
-0.00239271
-0.00237981
-0.00154076
-4.87679e-06
-0.000715031
-3.06726e-05
-0.00165278
-7.95996e-05
-0.00221205
-0.000147813
-0.00250306
-0.000229361
-0.00262491
-0.000318781
-0.00265257
-0.000412152
-0.00263464
-0.000507128
-0.00259856
-0.00060254
-0.00255782
-0.000697947
-0.00251815
-0.000793306
-0.00248154
-0.00088877
-0.00244834
-0.000984596
-0.0024184
-0.00108108
-0.00239141
-0.00117849
-0.00236706
-0.00127705
-0.00234501
-0.00137686
-0.00232479
-0.00147849
-0.0023056
-0.00158423
-0.00228698
-0.00228043
-0.0016836
-8.8616e-06
-0.00070617
-4.2492e-05
-0.00161915
-0.000100296
-0.00215425
-0.000176937
-0.00242642
-0.000265933
-0.00253591
-0.000361831
-0.00255667
-0.000460922
-0.00253555
-0.000561098
-0.00249838
-0.000661366
-0.00245755
-0.000761396
-0.00241812
-0.000861209
-0.00238172
-0.000961008
-0.00234854
-0.00106112
-0.00231829
-0.00116201
-0.00229052
-0.00126429
-0.00226477
-0.00136881
-0.0022405
-0.00147643
-0.00221717
-0.00158754
-0.00219449
-0.0017031
-0.00217142
-0.00214089
-0.00184265
-1.27592e-05
-0.000693411
-5.38941e-05
-0.00157801
-0.000120083
-0.00208806
-0.000204606
-0.0023419
-0.00030053
-0.00243999
-0.000402435
-0.00245476
-0.000506824
-0.00243116
-0.000611796
-0.00239341
-0.000716506
-0.00235284
-0.000820694
-0.00231394
-0.000924385
-0.00227803
-0.00102772
-0.00224521
-0.00113089
-0.00221512
-0.00123411
-0.0021873
-0.00133763
-0.00216125
-0.00144164
-0.00213649
-0.00154621
-0.0021126
-0.00165157
-0.00208913
-0.00175841
-0.00206457
-0.00203543
-0.00186387
-1.65313e-05
-0.000676879
-6.48069e-05
-0.00152974
-0.000138879
-0.00201399
-0.000230752
-0.00225003
-0.000333102
-0.00233764
-0.000440569
-0.0023473
-0.000549857
-0.00232187
-0.000659255
-0.00228401
-0.000768043
-0.00224405
-0.000876025
-0.00220595
-0.000983246
-0.00217081
-0.00108983
-0.00213862
-0.00119594
-0.00210902
-0.00130168
-0.00208155
-0.00140716
-0.00205578
-0.00151239
-0.00203126
-0.00161733
-0.00200766
-0.00172195
-0.00198451
-0.00182553
-0.00196099
-0.00193626
-0.0019247
-2.01566e-05
-0.000656723
-7.51911e-05
-0.0014747
-0.000156646
-0.00193253
-0.000255351
-0.00215132
-0.000363652
-0.00222934
-0.000476263
-0.00223469
-0.00059008
-0.00220806
-0.00070356
-0.00217053
-0.000816087
-0.00213152
-0.000927511
-0.00209453
-0.00103788
-0.00206045
-0.00114728
-0.00202921
-0.00125583
-0.00200047
-0.00136358
-0.0019738
-0.00147054
-0.00194882
-0.00157662
-0.00192518
-0.00168169
-0.00190258
-0.00178547
-0.00188073
-0.0018873
-0.00185916
-0.00183745
-0.00198611
-2.3618e-05
-0.000633105
-8.50181e-05
-0.0014133
-0.000173362
-0.00184419
-0.000278402
-0.00204628
-0.000392206
-0.00211553
-0.000509572
-0.00211732
-0.000627581
-0.00209005
-0.000744843
-0.00205327
-0.000860839
-0.00201553
-0.00097546
-0.00197991
-0.00108876
-0.00194715
-0.00120082
-0.00191715
-0.00131172
-0.00188957
-0.00142149
-0.00186403
-0.00153011
-0.0018402
-0.00163751
-0.00181778
-0.00174354
-0.00179656
-0.00184795
-0.00177632
-0.00195035
-0.00175676
-0.00173766
-0.00205014
-2.69019e-05
-0.000606203
-9.42682e-05
-0.00134594
-0.000189015
-0.00174944
-0.000299914
-0.00193538
-0.000418797
-0.00199665
-0.000540557
-0.00199556
-0.000662447
-0.00196816
-0.000783221
-0.00193249
-0.000902445
-0.0018963
-0.00102005
-0.0018623
-0.0011361
-0.00183109
-0.0012507
-0.00180256
-0.00136389
-0.00177638
-0.00147572
-0.00175221
-0.00158617
-0.00172975
-0.00169518
-0.00170877
-0.00180265
-0.00168909
-0.00190842
-0.00167054
-0.00201231
-0.00165287
-0.00163594
-0.00211403
-2.9998e-05
-0.000576205
-0.000102929
-0.00127301
-0.000203605
-0.00164877
-0.000319906
-0.00181908
-0.000443467
-0.00187309
-0.000569283
-0.00186974
-0.000694769
-0.00184267
-0.000818811
-0.00180845
-0.000941051
-0.00177406
-0.00106147
-0.00174189
-0.00118014
-0.00171242
-0.00129716
-0.00168553
-0.00141262
-0.00166092
-0.00152656
-0.00163827
-0.00163898
-0.00161733
-0.00174986
-0.00159789
-0.00185916
-0.00157979
-0.00196681
-0.00156289
-0.00207272
-0.00154697
-0.00153193
-0.00217673
-3.28984e-05
-0.000543306
-0.000110992
-0.00119491
-0.000217135
-0.00154262
-0.000338399
-0.00169782
-0.000466259
-0.00174523
-0.000595811
-0.00174019
-0.000724625
-0.00171386
-0.000851705
-0.00168137
-0.00097677
-0.001649
-0.00109983
-0.00161882
-0.001221
-0.00159126
-0.00134038
-0.00156615
-0.00145807
-0.00154322
-0.00157414
-0.0015222
-0.00168862
-0.00150285
-0.00180153
-0.00148498
-0.00191286
-0.00146846
-0.00202261
-0.00145314
-0.00213076
-0.00143882
-0.00142545
-0.00223724
-3.55967e-05
-0.00050771
-0.000118451
-0.00111206
-0.000229609
-0.00143147
-0.000355415
-0.00157201
-0.00048721
-0.00161343
-0.000620193
-0.00160721
-0.000752078
-0.00158197
-0.00088198
-0.00155147
-0.00100968
-0.0015213
-0.00113524
-0.00149327
-0.00125877
-0.00146772
-0.00138042
-0.0014445
-0.0015003
-0.00142335
-0.00161849
-0.00140402
-0.00173505
-0.00138629
-0.00185004
-0.00137
-0.00196348
-0.00135501
-0.00207542
-0.0013412
-0.00218588
-0.00132836
-0.00131649
-0.00229483
-3.80878e-05
-0.000469622
-0.000125304
-0.00102484
-0.000241035
-0.00131573
-0.000370974
-0.00144207
-0.000506352
-0.00147806
-0.000642472
-0.00147109
-0.000777179
-0.00144727
-0.000909688
-0.00141896
-0.00103984
-0.00139114
-0.00116773
-0.00136538
-0.00129351
-0.00134195
-0.00141732
-0.00132069
-0.00153929
-0.00130137
-0.00165955
-0.00128376
-0.00177816
-0.00126767
-0.00189522
-0.00125294
-0.00201077
-0.00123946
-0.00212489
-0.00122708
-0.00223762
-0.00121563
-0.00120514
-0.00234897
-4.03673e-05
-0.000429254
-0.000131548
-0.000933661
-0.000251418
-0.00119586
-0.000385091
-0.0013084
-0.000523713
-0.00133943
-0.000662682
-0.00133212
-0.000799965
-0.00130998
-0.000934866
-0.00128406
-0.00106728
-0.00125872
-0.00119734
-0.00123532
-0.00132521
-0.00121408
-0.00145105
-0.00119484
-0.00157503
-0.0011774
-0.00169725
-0.00116153
-0.00181784
-0.00114708
-0.00193689
-0.0011339
-0.00205448
-0.00112187
-0.00217069
-0.00111087
-0.00228558
-0.00110074
-0.00109151
-0.00239921
-4.24314e-05
-0.000386823
-0.00013718
-0.000838912
-0.000260762
-0.00107228
-0.000397781
-0.00117138
-0.000539313
-0.0011979
-0.000680847
-0.00119059
-0.000820459
-0.00117037
-0.000957535
-0.00114699
-0.00109202
-0.00112424
-0.00122407
-0.00110328
-0.00135387
-0.00108428
-0.0014816
-0.00106711
-0.00160743
-0.00105156
-0.00173151
-0.00103746
-0.00185396
-0.00102464
-0.00197488
-0.00101298
-0.00209438
-0.00100237
-0.00221255
-0.000992699
-0.00232947
-0.000983815
-0.000975783
-0.0024452
-4.42764e-05
-0.000342547
-0.000142198
-0.000740991
-0.000269071
-0.00094541
-0.000409053
-0.0010314
-0.000553165
-0.00105379
-0.000696982
-0.00104677
-0.000838677
-0.00102868
-0.000977704
-0.00100796
-0.00111406
-0.000987884
-0.0012479
-0.000969432
-0.00137946
-0.000952731
-0.00150891
-0.000937653
-0.00163645
-0.000924024
-0.00176223
-0.00091168
-0.00188638
-0.000900485
-0.00200903
-0.000890326
-0.00213029
-0.000881111
-0.00225026
-0.000872726
-0.00236903
-0.000865045
-0.00085814
-0.00248668
-4.58991e-05
-0.000296648
-0.000146598
-0.000640292
-0.000276344
-0.000815664
-0.000418912
-0.000888832
-0.00056528
-0.000907423
-0.000711097
-0.000900951
-0.000854624
-0.00088515
-0.000995376
-0.000867207
-0.00113338
-0.00084988
-0.00126883
-0.000833983
-0.00140195
-0.000819612
-0.00153295
-0.000806653
-0.00166201
-0.000794955
-0.00178932
-0.000784377
-0.001915
-0.000774798
-0.00203921
-0.000766124
-0.00216205
-0.000758271
-0.00228363
-0.000751141
-0.00240405
-0.000744622
-0.000738792
-0.0025234
-4.72963e-05
-0.000249351
-0.000150377
-0.000537211
-0.000282582
-0.000683459
-0.000427362
-0.000744052
-0.000575662
-0.000759123
-0.000723198
-0.000753415
-0.000868304
-0.000740044
-0.00101055
-0.000724965
-0.00114998
-0.000710445
-0.00128682
-0.000697143
-0.0014213
-0.00068513
-0.00155365
-0.000674308
-0.00168406
-0.000664549
-0.0018127
-0.000655736
-0.00193973
-0.000647767
-0.00206529
-0.000640563
-0.00218951
-0.000634051
-0.0023125
-0.000628147
-0.00243437
-0.00062276
-0.000617964
-0.00255519
-4.84654e-05
-0.000200886
-0.000153533
-0.000432144
-0.000287785
-0.000549206
-0.000434405
-0.000597432
-0.000584314
-0.000609215
-0.000733285
-0.000604444
-0.000879713
-0.000593616
-0.00102321
-0.000581472
-0.00116385
-0.000569805
-0.00130186
-0.000559128
-0.0014375
-0.000549495
-0.00157098
-0.000540824
-0.00170252
-0.000533011
-0.00183229
-0.000525963
-0.00196046
-0.000519597
-0.00208718
-0.000513848
-0.00221257
-0.00050866
-0.00233675
-0.000503962
-0.00245983
-0.000499682
-0.000495885
-0.00258191
-4.94039e-05
-0.000151482
-0.000156061
-0.000325486
-0.00029195
-0.000413318
-0.000440041
-0.000449341
-0.000591237
-0.000458018
-0.000741359
-0.000454322
-0.000888849
-0.000446126
-0.00103335
-0.000436972
-0.00117496
-0.000428193
-0.00131392
-0.000420166
-0.00145049
-0.000412929
-0.00158489
-0.000406418
-0.00171735
-0.000400556
-0.00184804
-0.000395271
-0.00197714
-0.000390502
-0.00210478
-0.0003862
-0.00223112
-0.000382321
-0.00235627
-0.000378813
-0.00248033
-0.00037562
-0.000372797
-0.00260342
-5.01096e-05
-0.000101372
-0.00015796
-0.000217636
-0.000295075
-0.000276203
-0.000444269
-0.000300147
-0.000596431
-0.000305856
-0.000747417
-0.000303337
-0.000895705
-0.000297838
-0.00104096
-0.000291714
-0.00118331
-0.000285848
-0.00132299
-0.000280488
-0.00146026
-0.000275658
-0.00159536
-0.000271315
-0.00172851
-0.000267406
-0.0018599
-0.000263884
-0.00198969
-0.000260707
-0.00211805
-0.000257844
-0.0022451
-0.000255265
-0.00237098
-0.000252933
-0.00249579
-0.000250814
-0.000248944
-0.00261964
-5.05809e-05
-5.07914e-05
-0.000159228
-0.000108989
-0.00029716
-0.00013827
-0.000447088
-0.000150219
-0.000599894
-0.00015305
-0.000751457
-0.000151774
-0.000900279
-0.000149015
-0.00104605
-0.000145948
-0.00118888
-0.000143012
-0.00132904
-0.000140331
-0.00146678
-0.000137915
-0.00160235
-0.000135743
-0.00173597
-0.000133789
-0.00186782
-0.000132029
-0.00199809
-0.000130443
-0.00212692
-0.000129014
-0.00225446
-0.000127726
-0.00238083
-0.000126563
-0.00250613
-0.000125507
-0.000124577
-0.0026305
-5.08168e-05
2.53731e-08
-0.000159861
5.54908e-08
-0.000298203
7.08856e-08
-0.000448498
7.70338e-08
-0.000601626
7.81273e-08
-0.000753477
7.68443e-08
-0.000902567
7.46404e-08
-0.00104859
7.21909e-08
-0.00119167
6.97611e-08
-0.00133207
6.74362e-08
-0.00147005
6.52339e-08
-0.00160585
6.31513e-08
-0.0017397
6.11801e-08
-0.00187179
5.93117e-08
-0.00200229
5.75383e-08
-0.00213136
5.58532e-08
-0.00225914
5.42505e-08
-0.00238576
5.27234e-08
-0.00251132
5.1264e-08
4.9872e-08
-0.00263594
-5.08168e-05
5.08422e-05
-0.000159861
0.0001091
-0.000298203
0.000138412
-0.000448498
0.000150373
-0.000601626
0.000153206
-0.000753477
0.000151928
-0.000902567
0.000149165
-0.00104859
0.000146093
-0.00119167
0.000143152
-0.00133207
0.000140466
-0.00147005
0.000138045
-0.00160585
0.00013587
-0.00173971
0.000133912
-0.00187179
0.000132148
-0.00200229
0.000130558
-0.00213136
0.000129125
-0.00225914
0.000127835
-0.00238576
0.000126669
-0.00251132
0.00012561
0.000124676
-0.00263595
-5.0581e-05
0.000101423
-0.000159228
0.000217747
-0.00029716
0.000276345
-0.000447089
0.000300301
-0.000599895
0.000306013
-0.000751458
0.000303491
-0.00090028
0.000297987
-0.00104605
0.000291859
-0.00118888
0.000285988
-0.00132904
0.000280624
-0.00146678
0.000275789
-0.00160236
0.000271441
-0.00173597
0.000267528
-0.00186783
0.000264002
-0.00199809
0.000260823
-0.00212692
0.000257956
-0.00225446
0.000255373
-0.00238083
0.000253039
-0.00250614
0.000250916
0.000249044
-0.0026305
-5.01097e-05
0.000151533
-0.000157961
0.000325598
-0.000295076
0.00041346
-0.00044427
0.000449495
-0.000596432
0.000458175
-0.000747418
0.000454476
-0.000895707
0.000446276
-0.00104097
0.000437117
-0.00118331
0.000428333
-0.00132299
0.000420302
-0.00146026
0.00041306
-0.00159536
0.000406545
-0.00172851
0.000400679
-0.0018599
0.00039539
-0.0019897
0.000390618
-0.00211805
0.000386312
-0.00224511
0.00038243
-0.00237099
0.000378918
-0.0024958
0.000375723
0.000372897
-0.00261965
-4.9404e-05
0.000200937
-0.000156062
0.000432255
-0.00029195
0.000549349
-0.000440042
0.000597587
-0.000591239
0.000609372
-0.000741361
0.000604598
-0.000888851
0.000593766
-0.00103335
0.000581617
-0.00117496
0.000569945
-0.00131393
0.000559264
-0.00145049
0.000549626
-0.0015849
0.000540951
-0.00171735
0.000533135
-0.00184805
0.000526082
-0.00197714
0.000519713
-0.00210479
0.000513961
-0.00223113
0.000508769
-0.00235628
0.000504068
-0.00248034
0.000499785
0.000495986
-0.00260343
-4.84655e-05
0.000249402
-0.000153533
0.000537323
-0.000287786
0.000683602
-0.000434407
0.000744208
-0.000584316
0.000759281
-0.000733288
0.00075357
-0.000879716
0.000740194
-0.00102321
0.000725111
-0.00116385
0.000710586
-0.00130187
0.000697279
-0.0014375
0.000685262
-0.00157098
0.000674436
-0.00170252
0.000664673
-0.0018323
0.000655856
-0.00196047
0.000647884
-0.00208718
0.000640676
-0.00221257
0.00063416
-0.00233676
0.000628254
-0.00245984
0.000622864
0.000618065
-0.00258192
-4.72965e-05
0.000296699
-0.000150378
0.000640404
-0.000282583
0.000815807
-0.000427364
0.000888988
-0.000575664
0.000907581
-0.000723201
0.000901107
-0.000868307
0.000885301
-0.00101055
0.000867353
-0.00114999
0.000850022
-0.00128683
0.00083412
-0.00142131
0.000819745
-0.00155366
0.000806782
-0.00168406
0.000795079
-0.0018127
0.000784497
-0.00193974
0.000774915
-0.0020653
0.000766238
-0.00218952
0.000758382
-0.00231251
0.000751248
-0.00243438
0.000744727
0.000738894
-0.00255521
-4.58992e-05
0.000342598
-0.000146598
0.000741103
-0.000276345
0.000945554
-0.000418914
0.00103156
-0.000565282
0.00105395
-0.000711101
0.00104693
-0.000854629
0.00102883
-0.000995381
0.00100811
-0.00113339
0.000988026
-0.00126883
0.00096957
-0.00140195
0.000952864
-0.00153295
0.000937782
-0.00166202
0.000924149
-0.00178933
0.000911802
-0.00191501
0.000900603
-0.00203922
0.000890441
-0.00216206
0.000881222
-0.00228364
0.000872834
-0.00240407
0.00086515
0.000858242
-0.00252341
-4.42765e-05
0.000386875
-0.000142199
0.000839025
-0.000269072
0.00107243
-0.000409055
0.00117154
-0.000553168
0.00119806
-0.000696986
0.00119074
-0.000838681
0.00117052
-0.00097771
0.00114713
-0.00111406
0.00112438
-0.00124791
0.00110342
-0.00137946
0.00108442
-0.00150892
0.00106724
-0.00163646
0.00105169
-0.00176224
0.00103758
-0.00188639
0.00102476
-0.00200904
0.00101309
-0.0021303
0.00100248
-0.00225028
0.000992808
-0.00236905
0.000983921
0.000975886
-0.00248669
-4.24315e-05
0.000429306
-0.000137181
0.000933775
-0.000260764
0.00119601
-0.000397784
0.00130856
-0.000539316
0.0013396
-0.000680851
0.00133228
-0.000820464
0.00131014
-0.000957541
0.00128421
-0.00109203
0.00125887
-0.00122408
0.00123546
-0.00135387
0.00121422
-0.00148161
0.00119497
-0.00160744
0.00117752
-0.00173152
0.00116166
-0.00185397
0.0011472
-0.00197489
0.00113401
-0.00209439
0.00112198
-0.00221257
0.00111098
-0.00232949
0.00110084
0.00109162
-0.00244522
-4.03675e-05
0.000469674
-0.000131549
0.00102496
-0.00025142
0.00131588
-0.000385094
0.00144223
-0.000523717
0.00147822
-0.000662687
0.00147125
-0.000799971
0.00144742
-0.000934873
0.00141911
-0.00106729
0.00139129
-0.00119735
0.00136552
-0.00132522
0.00134208
-0.00145106
0.00132082
-0.00157504
0.0013015
-0.00169727
0.00128389
-0.00181786
0.00126779
-0.0019369
0.00125306
-0.00205449
0.00123957
-0.0021707
0.00122719
-0.0022856
0.00121574
0.00120524
-0.00239923
-3.80879e-05
0.000507761
-0.000125305
0.00111217
-0.000241037
0.00143161
-0.000370976
0.00157217
-0.000506356
0.0016136
-0.000642477
0.00160737
-0.000777186
0.00158213
-0.000909695
0.00155162
-0.00103985
0.00152144
-0.00116774
0.00149341
-0.00129352
0.00146786
-0.00141733
0.00144463
-0.00153931
0.00142348
-0.00165956
0.00140414
-0.00177818
0.00138641
-0.00189523
0.00137011
-0.00201079
0.00135513
-0.00212491
0.00134131
-0.00223764
0.00132847
0.0013166
-0.00234899
-3.55968e-05
0.000543358
-0.000118452
0.00119503
-0.000229611
0.00154277
-0.000355418
0.00169798
-0.000487214
0.00174539
-0.000620198
0.00174035
-0.000752085
0.00171402
-0.000881988
0.00168153
-0.00100969
0.00164915
-0.00113525
0.00161897
-0.00125879
0.0015914
-0.00138044
0.00156628
-0.00150031
0.00154335
-0.0016185
0.00152233
-0.00173507
0.00150297
-0.00185006
0.0014851
-0.0019635
0.00146857
-0.00207545
0.00145325
-0.0021859
0.00143893
0.00142555
-0.00229486
-3.28985e-05
0.000576257
-0.000110992
0.00127312
-0.000217136
0.00164892
-0.000338402
0.00181925
-0.000466263
0.00187325
-0.000595816
0.00186991
-0.000724632
0.00184283
-0.000851714
0.00180861
-0.00097678
0.00177421
-0.00109984
0.00174203
-0.00122101
0.00171256
-0.0013404
0.00168567
-0.00145809
0.00166105
-0.00157416
0.0016384
-0.00168864
0.00161746
-0.00180155
0.00159801
-0.00191288
0.00157991
-0.00202263
0.001563
-0.00213078
0.00154708
0.00153203
-0.00223726
-2.9998e-05
0.000606255
-0.000102929
0.00134605
-0.000203607
0.00174959
-0.000319909
0.00193555
-0.000443471
0.00199682
-0.000569289
0.00199572
-0.000694777
0.00196832
-0.000818819
0.00193265
-0.000941061
0.00189646
-0.00106148
0.00186245
-0.00118015
0.00183124
-0.00129718
0.0018027
-0.00141264
0.00177651
-0.00152657
0.00175234
-0.001639
0.00172988
-0.00174988
0.0017089
-0.00185918
0.00168921
-0.00196683
0.00167065
-0.00207274
0.00165299
0.00163605
-0.00217676
-2.69018e-05
0.000633157
-9.42686e-05
0.00141342
-0.000189017
0.00184434
-0.000299917
0.00204645
-0.000418801
0.0021157
-0.000540563
0.00211749
-0.000662455
0.00209021
-0.00078323
0.00205343
-0.000902455
0.00201568
-0.00102006
0.00198005
-0.00113612
0.00194729
-0.00125071
0.00191729
-0.00136391
0.00188971
-0.00147574
0.00186417
-0.00158619
0.00184033
-0.0016952
0.00181791
-0.00180267
0.00179668
-0.00190845
0.00177643
-0.00201234
0.00175688
0.00173777
-0.00211406
-2.36178e-05
0.000656774
-8.50183e-05
0.00147482
-0.000173363
0.00193269
-0.000278404
0.00215149
-0.00039221
0.00222951
-0.000509578
0.00223485
-0.000627588
0.00220822
-0.000744852
0.00217069
-0.00086085
0.00213168
-0.000975473
0.00209468
-0.00108877
0.00206059
-0.00120084
0.00202935
-0.00131174
0.00200061
-0.00142151
0.00197394
-0.00153013
0.00194895
-0.00163753
0.0019253
-0.00174356
0.00190271
-0.00184798
0.00188085
-0.00195038
0.00185928
0.00183757
-0.00205017
-2.01564e-05
0.000676931
-7.51911e-05
0.00152986
-0.000156647
0.00201414
-0.000255353
0.0022502
-0.000363656
0.00233781
-0.000476269
0.00234747
-0.000590087
0.00232204
-0.000703569
0.00228417
-0.000816098
0.00224421
-0.000927524
0.0022061
-0.00103789
0.00217096
-0.0011473
0.00213876
-0.00125585
0.00210916
-0.0013636
0.00208169
-0.00147056
0.00205591
-0.00157664
0.00203139
-0.00168172
0.00200778
-0.0017855
0.00198464
-0.00188733
0.00196111
0.00193637
-0.00198614
-1.6531e-05
0.000693462
-6.48067e-05
0.00157813
-0.00013888
0.00208821
-0.000230754
0.00234207
-0.000333106
0.00244016
-0.000440574
0.00245494
-0.000549864
0.00243133
-0.000659264
0.00239357
-0.000768054
0.002353
-0.000876038
0.00231409
-0.000983261
0.00227818
-0.00108985
0.00224535
-0.00119595
0.00221526
-0.0013017
0.00218744
-0.00140718
0.00216139
-0.00151241
0.00213662
-0.00161736
0.00211273
-0.00172198
0.00208925
-0.00182556
0.00206469
0.00203554
-0.00192473
-1.27587e-05
0.000706221
-5.38936e-05
0.00161927
-0.000120083
0.0021544
-0.000204608
0.00242659
-0.000300533
0.00253609
-0.00040244
0.00255684
-0.000506831
0.00253572
-0.000611805
0.00249855
-0.000716516
0.00245771
-0.000820707
0.00241828
-0.0009244
0.00238187
-0.00102774
0.00234869
-0.00113091
0.00231843
-0.00123414
0.00229066
-0.00133765
0.00226491
-0.00144167
0.00224063
-0.00154624
0.0022173
-0.0016516
0.00219461
-0.00175844
0.00217154
0.002141
-0.00186391
-8.861e-06
0.000715082
-4.24912e-05
0.0016529
-0.000100296
0.00221221
-0.000176938
0.00250324
-0.000265936
0.00262509
-0.000361835
0.00265274
-0.000460929
0.00263481
-0.000561106
0.00259872
-0.000661376
0.00255798
-0.000761409
0.00251831
-0.000861224
0.00248169
-0.000961025
0.00244849
-0.00106114
0.00241855
-0.00116203
0.00239155
-0.00126432
0.0023672
-0.00136884
0.00234515
-0.00147646
0.00232492
-0.00158757
0.00230573
-0.00170313
0.0022871
0.00228056
-0.00184269
-4.87603e-06
0.000719958
-3.06714e-05
0.00167869
-7.95988e-05
0.00226114
-0.000147813
0.00257145
-0.000229363
0.00270664
-0.000318785
0.00274216
-0.000412158
0.00272819
-0.000507135
0.0026937
-0.000602549
0.00265339
-0.000697959
0.00261372
-0.00079332
0.00257705
-0.000888787
0.00254396
-0.000984615
0.00251438
-0.0010811
0.00248803
-0.00117852
0.00246461