1.275 	2.15223e-18 	-2.76991e-20 	-0.29903
1.825 	2.15223e-18 	-1.39322e-20 	-0.352608
2.375 	2.15223e-18 	1.38775e-18 	-0.352092
2.925 	2.15223e-18 	2.78958e-18 	-0.265443
3.475 	2.15223e-18 	4.53849e-18 	-0.154438
4.025 	2.15223e-18 	6.28755e-18 	-0.0753754
4.575 	2.15223e-18 	6.30203e-18 	-0.0263804
5.125 	2.15223e-18 	6.31666e-18 	0.0147355
5.675 	2.15223e-18 	6.33144e-18 	0.0253552
6.225 	2.15223e-18 	4.61166e-18 	0.0323627
