1.275 	2.15223e-18 	-2.76991e-20 	-0.124831 	-0.0181311 	-2.68886e-22
1.825 	2.15223e-18 	-1.39322e-20 	-0.264133 	-0.12 	3.71016e-21
2.375 	2.15223e-18 	-2.66896e-23 	-0.248578 	-0.150846 	-1.64946e-21
