/*--------------------------------*- C++ -*----------------------------------*\
  =========                 |
  \\      /  F ield         | OpenFOAM: The Open Source CFD Toolbox
   \\    /   O peration     | Website:  https://openfoam.org
    \\  /    A nd           | Version:  6.0
     \\/     M anipulation  |
\*---------------------------------------------------------------------------*/
FoamFile
{
    version     2.0;
    format      ascii;
    class       volScalarField;
    location    "54";
    object      p;
}
// * * * * * * * * * * * * * * * * * * * * * * * * * * * * * * * * * * * * * //

dimensions      [0 2 -2 0 0 0 0];

internalField   nonuniform List<scalar> 
4000
(
-0.438517
-0.424806
-0.412747
-0.399589
-0.384147
-0.366857
-0.348464
-0.329741
-0.311356
-0.293787
-0.277315
-0.26206
-0.248035
-0.235184
-0.223419
-0.212639
-0.202749
-0.193626
-0.185079
-0.177401
-0.446504
-0.432346
-0.419491
-0.404935
-0.387604
-0.368218
-0.347782
-0.327236
-0.307317
-0.288504
-0.271039
-0.254996
-0.240341
-0.226982
-0.214803
-0.203682
-0.193508
-0.184141
-0.175372
-0.167571
-0.452713
-0.438207
-0.424506
-0.408423
-0.389095
-0.367574
-0.345138
-0.322872
-0.301556
-0.281642
-0.263325
-0.246622
-0.231453
-0.217691
-0.205192
-0.193817
-0.183441
-0.173903
-0.164985
-0.157133
-0.456776
-0.442022
-0.427429
-0.409715
-0.388326
-0.364693
-0.340357
-0.31652
-0.293973
-0.273125
-0.254107
-0.236881
-0.221321
-0.207265
-0.194546
-0.183008
-0.172513
-0.162882
-0.153888
-0.146061
-0.458338
-0.443434
-0.42791
-0.408494
-0.385041
-0.35938
-0.333295
-0.308074
-0.284488
-0.262885
-0.243329
-0.225724
-0.2099
-0.195664
-0.182828
-0.171222
-0.160697
-0.151053
-0.142061
-0.134335
-0.457064
-0.442107
-0.425627
-0.404482
-0.379019
-0.351473
-0.323837
-0.297448
-0.273034
-0.250868
-0.230944
-0.213109
-0.197152
-0.182855
-0.17001
-0.158435
-0.14797
-0.138397
-0.129488
-0.121941
-0.452651
-0.437736
-0.420297
-0.397445
-0.370086
-0.340849
-0.311899
-0.284584
-0.259565
-0.237035
-0.216916
-0.199003
-0.18305
-0.168814
-0.15607
-0.144628
-0.134318
-0.124904
-0.116162
-0.108873
-0.44484
-0.430058
-0.411683
-0.387195
-0.358111
-0.327425
-0.297427
-0.269441
-0.24405
-0.22136
-0.201223
-0.183387
-0.167576
-0.153524
-0.140996
-0.129794
-0.119736
-0.110571
-0.102084
-0.0951296
-0.433418
-0.418862
-0.399602
-0.373602
-0.343013
-0.311155
-0.280395
-0.252007
-0.226479
-0.203832
-0.183854
-0.166251
-0.150721
-0.136982
-0.124787
-0.113931
-0.104226
-0.0954047
-0.0872625
-0.0807219
-0.418232
-0.403993
-0.383931
-0.356589
-0.324758
-0.292032
-0.260811
-0.23229
-0.20686
-0.184457
-0.164814
-0.1476
-0.13249
-0.119191
-0.107447
-0.0970496
-0.0878009
-0.0794219
-0.0717198
-0.0656731
-0.399188
-0.385358
-0.364607
-0.336136
-0.303359
-0.270087
-0.238708
-0.210324
-0.185222
-0.16326
-0.144122
-0.127447
-0.112896
-0.100164
-0.0889908
-0.0791637
-0.0704789
-0.0626462
-0.0554866
-0.0500212
-0.376255
-0.362927
-0.341629
-0.312277
-0.278874
-0.245387
-0.214153
-0.186166
-0.161612
-0.14028
-0.12181
-0.105822
-0.0919624
-0.0799212
-0.0694364
-0.0602925
-0.0522804
-0.0451037
-0.038598
-0.0338084
-0.349469
-0.336736
-0.315059
-0.285103
-0.251408
-0.218035
-0.18724
-0.159898
-0.1361
-0.115574
-0.0979279
-0.0827633
-0.0697208
-0.0584893
-0.0488063
-0.0404558
-0.0332256
-0.0268188
-0.0210853
-0.0170587
-0.318929
-0.306885
-0.285017
-0.254753
-0.221104
-0.188168
-0.158092
-0.131628
-0.108779
-0.0892212
-0.072537
-0.0583201
-0.0462098
-0.035897
-0.0271224
-0.0196717
-0.0133331
-0.00781578
-0.00297232
0.000234995
-0.284796
-0.273535
-0.251682
-0.221415
-0.188148
-0.155958
-0.126861
-0.101489
-0.0797628
-0.0613165
-0.0457168
-0.0325547
-0.0214743
-0.0121738
-0.00440151
0.00205075
0.00738835
0.0118925
0.0157314
0.0180734
-0.24729
-0.236906
-0.215282
-0.185321
-0.152761
-0.121608
-0.09373
-0.069641
-0.0491905
-0.0319796
-0.017566
-0.00554494
0.00442962
0.0126461
0.0193418
0.024713
0.0289528
0.0323261
0.035023
0.0363355
-0.206686
-0.197269
-0.176094
-0.146744
-0.115199
-0.0853512
-0.0589085
-0.0362715
-0.0172277
-0.00135344
0.0117952
0.0226134
0.0314309
0.0385152
0.0440812
0.0483094
0.051377
0.0534946
0.05479
0.0546387
-0.163307
-0.154943
-0.134435
-0.105989
-0.0757492
-0.0474504
-0.0226348
-0.00159587
0.0159335
0.0303943
0.0422276
0.0518141
0.0594607
0.0654033
0.069823
0.0728793
0.0747095
0.0753538
0.0747159
0.0725399
-0.117515
-0.110284
-0.0906586
-0.0633958
-0.0347252
-0.00819451
0.0148245
0.0341402
0.0500673
0.0630612
0.07356
0.0819319
0.0884619
0.0933521
0.0967473
0.0987753
0.0994619
0.0984597
0.0953202
0.0910472
-0.0697099
-0.0636863
-0.0451449
-0.0193233
0.00753724
0.0321049
0.0531781
0.0706601
0.0849076
0.0963897
0.105546
0.112744
0.118266
0.122313
0.125042
0.126597
0.126885
0.125072
0.12047
0.115819
-0.0203174
-0.0155648
0.00170393
0.0258497
0.0506874
0.0731212
0.0921173
0.107665
0.120157
0.130072
0.137851
0.143866
0.148414
0.151734
0.154065
0.155679
0.156552
0.155725
0.152935
0.156317
0.030225
0.0336498
0.049474
0.0717357
0.0943661
0.114521
0.131327
0.144853
0.155515
0.163798
0.170136
0.174896
0.178374
0.180821
0.182492
0.183647
0.184276
0.183917
0.183446
0.188956
0.0814603
0.0835121
0.0977417
0.117942
0.138212
0.155969
0.170496
0.181925
0.190696
0.197287
0.202126
0.20557
0.20791
0.209395
0.210269
0.210751
0.210827
0.210209
0.209786
0.214207
0.132928
0.133574
0.146083
0.164076
0.181867
0.197138
0.209317
0.218596
0.225423
0.23027
0.23355
0.235604
0.23671
0.237106
0.237017
0.236638
0.235966
0.234782
0.233821
0.236774
0.184168
0.183388
0.194078
0.209754
0.224982
0.237709
0.2475
0.254595
0.259447
0.262516
0.264197
0.26481
0.264617
0.263836
0.262667
0.261277
0.259651
0.257596
0.255787
0.257368
0.234727
0.232515
0.241315
0.2546
0.267217
0.277375
0.284765
0.289667
0.292536
0.293814
0.293875
0.29302
0.291489
0.289481
0.287175
0.284711
0.282058
0.279046
0.276314
0.27658
0.284161
0.280525
0.287394
0.298251
0.308245
0.315841
0.320847
0.323575
0.324475
0.323971
0.322416
0.320089
0.31721
0.313958
0.310492
0.306926
0.303222
0.299233
0.295575
0.294597
0.332042
0.327004
0.33193
0.34036
0.347755
0.352829
0.355494
0.356091
0.355061
0.352809
0.349665
0.345888
0.341678
0.337195
0.332578
0.327923
0.323185
0.318246
0.313684
0.311523
0.377957
0.371556
0.374557
0.380595
0.385451
0.388073
0.38847
0.387002
0.384104
0.380159
0.375476
0.370291
0.364787
0.359108
0.353374
0.347665
0.341935
0.336088
0.330662
0.327379
0.421518
0.413805
0.414927
0.418644
0.421052
0.421321
0.419548
0.416109
0.411426
0.405863
0.399707
0.393177
0.386436
0.379614
0.372815
0.366103
0.359436
0.352737
0.34649
0.342148
0.462356
0.453398
0.452716
0.454214
0.454297
0.452341
0.448519
0.44322
0.436855
0.429767
0.422224
0.414426
0.406521
0.398623
0.390822
0.383173
0.375633
0.368144
0.361128
0.355792
0.50013
0.490007
0.487623
0.487034
0.484942
0.480913
0.475185
0.468159
0.460232
0.451729
0.442898
0.433924
0.424939
0.416045
0.407318
0.398802
0.390461
0.382248
0.374521
0.368262
0.534526
0.523332
0.519369
0.516855
0.512765
0.506836
0.499367
0.490763
0.481409
0.471613
0.461608
0.45156
0.441591
0.431789
0.42222
0.412918
0.403853
0.394986
0.386609
0.379506
0.565261
0.553101
0.547707
0.543452
0.537564
0.52993
0.520898
0.510881
0.500249
0.489297
0.47824
0.467233
0.456384
0.445771
0.435449
0.425447
0.415739
0.406292
0.397333
0.389471
0.592081
0.579071
0.572413
0.566625
0.559158
0.55003
0.539632
0.528378
0.516631
0.504668
0.492692
0.480847
0.46923
0.45791
0.446933
0.436322
0.426055
0.416105
0.406635
0.398107
0.614767
0.601034
0.593295
0.5862
0.577391
0.566996
0.55544
0.543139
0.530445
0.517627
0.504874
0.49232
0.480054
0.468135
0.456605
0.445479
0.434742
0.424367
0.414463
0.405369
0.633134
0.618811
0.61019
0.60203
0.592131
0.580706
0.568211
0.555061
0.541602
0.52809
0.514708
0.501579
0.488787
0.476385
0.464406
0.452864
0.441748
0.43103
0.420774
0.411218
0.647031
0.63226
0.622967
0.613998
0.60327
0.591065
0.577858
0.564065
0.550025
0.535989
0.522129
0.508566
0.495375
0.482607
0.470289
0.458433
0.44703
0.436053
0.425529
0.415623
0.656345
0.641273
0.631526
0.622012
0.610727
0.597999
0.584313
0.570088
0.555659
0.541269
0.52709
0.513235
0.499777
0.486763
0.474217
0.462151
0.450555
0.439405
0.428701
0.418559
0.661001
0.645776
0.635801
0.626013
0.614449
0.601456
0.587531
0.573089
0.558464
0.543897
0.529557
0.515555
0.501964
0.488826
0.476167
0.463994
0.452303
0.441065
0.43027
0.42001
0.660958
0.645732
0.635758
0.62597
0.614406
0.601414
0.587488
0.573046
0.558421
0.543854
0.529514
0.515512
0.501921
0.488783
0.476124
0.463952
0.45226
0.441023
0.430228
0.419969
0.656217
0.641142
0.631397
0.621883
0.610599
0.59787
0.584185
0.569959
0.55553
0.54114
0.52696
0.513105
0.499648
0.486634
0.474088
0.462022
0.450427
0.439278
0.428574
0.418435
0.646815
0.632041
0.622748
0.613781
0.603054
0.59085
0.577642
0.563849
0.549809
0.535772
0.521912
0.508349
0.495159
0.482391
0.470073
0.458218
0.446816
0.43584
0.425317
0.415415
0.632827
0.618499
0.60988
0.601723
0.591825
0.580401
0.567906
0.554756
0.541296
0.527785
0.514402
0.501273
0.488482
0.47608
0.464102
0.452562
0.441447
0.43073
0.420476
0.410926
0.614365
0.600625
0.592889
0.585798
0.576992
0.566598
0.555043
0.542742
0.530048
0.51723
0.504478
0.491924
0.479658
0.467741
0.456212
0.445088
0.434353
0.42398
0.414079
0.404992
0.591577
0.57856
0.571905
0.566124
0.558661
0.549536
0.539139
0.527886
0.516139
0.504177
0.492202
0.480358
0.468743
0.457424
0.44645
0.435841
0.425577
0.415629
0.406162
0.397644
0.564647
0.552479
0.547091
0.542845
0.536964
0.529334
0.520305
0.510289
0.499659
0.488709
0.477653
0.466648
0.455802
0.445191
0.434873
0.424874
0.41517
0.405726
0.396771
0.388921
0.533794
0.522592
0.518638
0.516136
0.512055
0.506133
0.498668
0.490067
0.480716
0.470924
0.460921
0.450876
0.440911
0.431112
0.421547
0.41225
0.40319
0.394327
0.385956
0.378867
0.49927
0.489139
0.486767
0.486194
0.484115
0.480095
0.474375
0.467354
0.459432
0.450933
0.442107
0.433137
0.424157
0.415268
0.406547
0.398037
0.389702
0.381495
0.373774
0.367531
0.461357
0.452391
0.451726
0.453244
0.453344
0.451402
0.44759
0.442299
0.435941
0.42886
0.421323
0.413532
0.405633
0.397742
0.389949
0.382307
0.374775
0.367293
0.360285
0.354968
0.420368
0.412648
0.413791
0.417535
0.419965
0.420253
0.418493
0.415066
0.410393
0.404839
0.398692
0.39217
0.385439
0.378625
0.371835
0.365134
0.358476
0.351786
0.345548
0.341228
0.376644
0.370236
0.373263
0.379335
0.38422
0.386865
0.387281
0.385829
0.382945
0.379012
0.37434
0.369167
0.363675
0.358006
0.352285
0.346588
0.340869
0.335033
0.329617
0.32636
0.33055
0.325508
0.330466
0.338938
0.34637
0.351474
0.354163
0.35478
0.353768
0.351532
0.348403
0.344641
0.340444
0.335975
0.331373
0.326733
0.322009
0.317082
0.312534
0.310403
0.282477
0.278838
0.285746
0.296655
0.306694
0.314328
0.319364
0.322117
0.32304
0.322557
0.321021
0.318712
0.315851
0.312616
0.309167
0.305619
0.301931
0.297958
0.294315
0.293371
0.232835
0.230622
0.23947
0.252817
0.265489
0.275692
0.28312
0.288055
0.290952
0.292255
0.292339
0.291506
0.289997
0.288009
0.285724
0.283281
0.280648
0.277653
0.27494
0.275244
0.182053
0.181274
0.192021
0.20777
0.223064
0.235847
0.245684
0.252818
0.257705
0.260805
0.262513
0.263154
0.262986
0.262228
0.261084
0.259718
0.258115
0.256081
0.254293
0.255916
0.130574
0.131224
0.143799
0.161878
0.179747
0.195084
0.207319
0.216645
0.223513
0.228397
0.231711
0.233797
0.234932
0.235356
0.235295
0.234943
0.234297
0.233137
0.2322
0.235199
0.0788512
0.08091
0.095216
0.115515
0.135877
0.153713
0.168305
0.179791
0.18861
0.195245
0.200124
0.203605
0.205978
0.207495
0.2084
0.208913
0.209017
0.208424
0.208026
0.2125
0.0273452
0.0307801
0.0466915
0.0690668
0.0918038
0.11205
0.128934
0.142525
0.153245
0.161579
0.167963
0.172765
0.176282
0.178764
0.180469
0.181657
0.182318
0.181985
0.181538
0.187105
-0.023483
-0.0187171
-0.00135002
0.0229249
0.047885
0.0704248
0.0895107
0.105135
0.117694
0.127668
0.1355
0.141563
0.146155
0.149514
0.151883
0.153532
0.154438
0.153635
0.150857
0.154284
-0.0731758
-0.0671356
-0.0484843
-0.0225173
0.00448282
0.029172
0.0503486
0.0679191
0.0822435
0.0937934
0.10301
0.110263
0.115833
0.119924
0.122692
0.124283
0.1246
0.122809
0.118215
0.113564
-0.121295
-0.114044
-0.0942968
-0.0668715
-0.0380434
-0.0113744
0.0117628
0.0311798
0.0471948
0.060266
0.0708335
0.0792668
0.0858518
0.0907911
0.0942299
0.0962964
0.0970164
0.0960412
0.0929194
0.0886512
-0.167412
-0.159024
-0.138384
-0.109759
-0.079342
-0.050887
-0.0259374
-0.00478325
0.0128461
0.0273948
0.0393062
0.0489625
0.0566718
0.0626707
0.0671411
0.0702429
0.0721142
0.0727959
0.0721895
0.070031
-0.211127
-0.201684
-0.180365
-0.150817
-0.119076
-0.0890536
-0.0624596
-0.0396926
-0.0205357
-0.00456192
0.00867526
0.0195728
0.0284618
0.035611
0.0412359
0.0455178
0.0486349
0.0507993
0.0521372
0.0520141
-0.252075
-0.241662
-0.219884
-0.189708
-0.156932
-0.125584
-0.0975369
-0.0733018
-0.0527241
-0.0354011
-0.0208877
-0.0087769
0.00127889
0.00956938
0.0163328
0.021766
0.0260638
0.0294925
0.0322407
0.0335895
-0.28993
-0.278638
-0.256622
-0.226124
-0.19262
-0.160215
-0.13093
-0.105395
-0.0835263
-0.0649546
-0.049243
-0.0359801
-0.0248082
-0.015424
-0.00757484
-0.00105163
0.00435232
0.0089202
0.0128186
0.0152045
-0.324416
-0.312339
-0.2903
-0.259789
-0.225884
-0.192712
-0.162427
-0.135783
-0.112776
-0.0930788
-0.07627
-0.0619406
-0.049728
-0.0393215
-0.0304605
-0.0229297
-0.0165162
-0.0109268
-0.0060158
-0.00275683
-0.35531
-0.342541
-0.320687
-0.290471
-0.256499
-0.222869
-0.191847
-0.164306
-0.140334
-0.119654
-0.10187
-0.0865803
-0.0734244
-0.0620888
-0.0523096
-0.04387
-0.0365562
-0.0300691
-0.02426
-0.020174
-0.382446
-0.369081
-0.347602
-0.317978
-0.284281
-0.250516
-0.219034
-0.190829
-0.166084
-0.144583
-0.125962
-0.109837
-0.0958523
-0.0836964
-0.0731056
-0.0638633
-0.0557589
-0.0484938
-0.0419047
-0.0370478
-0.405723
-0.391855
-0.370921
-0.342168
-0.309081
-0.275511
-0.243865
-0.215244
-0.189934
-0.167788
-0.148484
-0.13166
-0.116973
-0.104115
-0.0928262
-0.0828914
-0.0741057
-0.0661767
-0.058926
-0.0533853
-0.425102
-0.410824
-0.390579
-0.362948
-0.330793
-0.297752
-0.266243
-0.237468
-0.211813
-0.18921
-0.169387
-0.152011
-0.136754
-0.123318
-0.111449
-0.100934
-0.0915763
-0.0830929
-0.075292
-0.0691623
-0.440609
-0.426013
-0.406572
-0.380281
-0.349358
-0.317168
-0.286103
-0.257442
-0.231672
-0.208809
-0.188638
-0.170861
-0.155171
-0.141286
-0.128955
-0.117973
-0.10815
-0.0992163
-0.0909676
-0.084336
-0.452335
-0.437511
-0.41896
-0.394184
-0.364758
-0.333728
-0.303407
-0.275132
-0.249482
-0.226561
-0.206218
-0.188195
-0.172212
-0.158004
-0.14533
-0.133992
-0.123808
-0.114523
-0.105921
-0.0988681
-0.46043
-0.445471
-0.427863
-0.404728
-0.377025
-0.347434
-0.318148
-0.290526
-0.265234
-0.242459
-0.22212
-0.204007
-0.187872
-0.173468
-0.160569
-0.148983
-0.138537
-0.128995
-0.120132
-0.112735
-0.465103
-0.450101
-0.433461
-0.412042
-0.386238
-0.358331
-0.330348
-0.303639
-0.278937
-0.256512
-0.236355
-0.218308
-0.202158
-0.187683
-0.174673
-0.162944
-0.152336
-0.142627
-0.133589
-0.125927
-0.466611
-0.45166
-0.435986
-0.416309
-0.392522
-0.3665
-0.34006
-0.314507
-0.29062
-0.268746
-0.248945
-0.231117
-0.215088
-0.200665
-0.187654
-0.175886
-0.165208
-0.155421
-0.146292
-0.138442
-0.465254
-0.45045
-0.435719
-0.41776
-0.39605
-0.372061
-0.347366
-0.32319
-0.300331
-0.279199
-0.259924
-0.242464
-0.22669
-0.212437
-0.199534
-0.187825
-0.177169
-0.167386
-0.158248
-0.150289
-0.461365
-0.446806
-0.432979
-0.416672
-0.397039
-0.37517
-0.352378
-0.329769
-0.308132
-0.287925
-0.26934
-0.252393
-0.237
-0.223031
-0.21034
-0.198785
-0.18824
-0.178543
-0.169472
-0.16148
-0.4553
-0.441084
-0.428115
-0.413356
-0.395743
-0.376024
-0.355239
-0.334349
-0.314105
-0.29499
-0.277249
-0.260952
-0.246064
-0.23249
-0.220109
-0.2088
-0.19845
-0.188915
-0.179986
-0.172036
-0.447425
-0.433651
-0.421489
-0.408151
-0.392451
-0.374849
-0.35612
-0.337058
-0.318346
-0.300471
-0.283716
-0.2682
-0.253933
-0.240857
-0.228883
-0.217907
-0.207831
-0.198533
-0.189818
-0.181984
0.0971515
0.0696292
0.0493335
0.0395748
0.030812
0.0190396
0.00586399
-0.00685752
-0.0188438
-0.0304988
-0.0420549
-0.0534834
-0.064694
-0.0756478
-0.086354
-0.0968376
-0.107125
-0.117244
-0.127231
-0.137133
0.0400563
0.026149
0.0138967
0.0065503
0.00112504
-0.00521208
-0.012617
-0.0200584
-0.0269496
-0.0333498
-0.0394844
-0.0454469
-0.0512101
-0.0567263
-0.0619747
-0.0669559
-0.0716735
-0.076126
-0.0803068
-0.0842063
0.0250356
0.0188461
0.0131632
0.00850337
0.00439795
0.000185702
-0.00433606
-0.00897381
-0.0135155
-0.0179162
-0.022237
-0.0265346
-0.0308228
-0.035093
-0.039338
-0.0435603
-0.0477676
-0.051968
-0.0561688
-0.0603768
0.0157359
0.0118499
0.00791245
0.00416297
0.000585966
-0.00294622
-0.00650702
-0.0100795
-0.0136146
-0.0170852
-0.0204941
-0.0238536
-0.0271701
-0.0304424
-0.0336671
-0.0368428
-0.0399699
-0.0430496
-0.0460831
-0.0490713
0.00825896
0.00510454
0.00208841
-0.000625873
-0.00321231
-0.00580082
-0.00840584
-0.0109981
-0.0135577
-0.0160823
-0.0185776
-0.0210493
-0.0235013
-0.0259353
-0.0283531
-0.0307565
-0.0331478
-0.0355295
-0.037904
-0.0402737
0.00239181
-0.000156828
-0.002445
-0.00442198
-0.00631572
-0.00825386
-0.0102318
-0.0122096
-0.0141682
-0.0161094
-0.0180402
-0.0199643
-0.0218823
-0.0237937
-0.0256984
-0.0275968
-0.0294894
-0.0313765
-0.0332587
-0.0351363
-0.00157368
-0.0035691
-0.00530783
-0.0068037
-0.00825264
-0.00975151
-0.0112905
-0.0128347
-0.0143678
-0.0158917
-0.017412
-0.0189314
-0.02045
-0.0219669
-0.0234818
-0.0249948
-0.0265062
-0.0280165
-0.0295258
-0.0310345
-0.00421447
-0.00576458
-0.00713459
-0.00833496
-0.00950315
-0.010709
-0.0119472
-0.0131926
-0.014433
-0.0156685
-0.0169032
-0.0181389
-0.0193755
-0.0206122
-0.0218487
-0.0230847
-0.0243204
-0.0255558
-0.0267909
-0.0280257
-0.00605007
-0.00723755
-0.00834468
-0.00934938
-0.0103253
-0.01132
-0.012336
-0.0133596
-0.0143816
-0.0154012
-0.0164203
-0.0174402
-0.018461
-0.0194821
-0.0205032
-0.0215241
-0.0225448
-0.0235654
-0.0245857
-0.0256059
-0.00745774
-0.00834798
-0.00924957
-0.0101094
-0.0109438
-0.0117793
-0.0126248
-0.0134766
-0.0143293
-0.0151811
-0.0160323
-0.0168837
-0.0177354
-0.0185873
-0.0194391
-0.0202907
-0.021142
-0.0219931
-0.022844
-0.0236945
-0.00863582
-0.0092914
-0.0100216
-0.0107569
-0.0114729
-0.0121781
-0.0128842
-0.0135943
-0.0143066
-0.0150191
-0.015731
-0.0164426
-0.0171542
-0.0178658
-0.0185773
-0.0192887
-0.0200001
-0.0207112
-0.0214223
-0.0221334
-0.00966652
-0.0101451
-0.0107295
-0.0113486
-0.0119555
-0.0125465
-0.0131327
-0.013721
-0.0143121
-0.0149041
-0.015496
-0.0160876
-0.0166794
-0.0172714
-0.0178637
-0.0184564
-0.0190494
-0.0196428
-0.0202367
-0.020831
-0.0105425
-0.0108809
-0.0113366
-0.011845
-0.0123487
-0.0128352
-0.0133139
-0.0137933
-0.0142757
-0.0147598
-0.0152445
-0.0157295
-0.0162151
-0.0167017
-0.0171892
-0.017678
-0.0181681
-0.0186594
-0.0191522
-0.0196465
-0.0112548
-0.0114655
-0.0118025
-0.0122085
-0.0126165
-0.0130066
-0.0133865
-0.0137661
-0.0141491
-0.0145347
-0.0149219
-0.0153105
-0.0157007
-0.0160929
-0.0164876
-0.0168849
-0.017285
-0.0176879
-0.0180937
-0.0185027
-0.0117994
-0.0118618
-0.012067
-0.0123634
-0.01267
-0.0129573
-0.0132318
-0.0135056
-0.0137843
-0.014068
-0.0143557
-0.0146472
-0.0149429
-0.0152434
-0.0155491
-0.0158604
-0.0161773
-0.0165
-0.0168286
-0.0171631
-0.012315
-0.0122428
-0.0122822
-0.0124124
-0.0125667
-0.0127137
-0.0128548
-0.0130004
-0.0131564
-0.0133239
-0.0135024
-0.0136914
-0.0138911
-0.0141018
-0.0143238
-0.0145569
-0.0148012
-0.0150563
-0.0153221
-0.0155981
-0.0122927
-0.0121195
-0.0118951
-0.0117018
-0.0115658
-0.0114781
-0.0114253
-0.0114012
-0.0114053
-0.0114382
-0.0114997
-0.0115887
-0.0117035
-0.0118428
-0.0120052
-0.0121895
-0.0123942
-0.0126182
-0.01286
-0.0131185
-0.00976785
-0.00930638
-0.00881509
-0.00842554
-0.00814663
-0.00795047
-0.00781603
-0.00773463
-0.0077033
-0.00771978
-0.00778097
-0.00788325
-0.00802299
-0.00819684
-0.00840171
-0.00863476
-0.00889333
-0.00917491
-0.00947715
-0.00979786
0.00178404
0.00547347
0.00675797
0.00610051
0.0049988
0.004155
0.00356103
0.00302785
0.00245464
0.00183715
0.00120117
0.000563355
-7.28027e-05
-0.00070882
-0.00134559
-0.00198241
-0.00261794
-0.00325093
-0.00388052
-0.00450599
0.0137984
0.0260839
0.0298425
0.0272113
0.0233572
0.0205614
0.0187336
0.0172231
0.0156894
0.014111
0.0125627
0.0110889
0.00969198
0.0083593
0.00708069
0.00585166
0.00467032
0.00353483
0.00244281
0.0013917
0.132021
0.132557
0.133654
0.135304
0.137508
0.140278
0.143636
0.147603
0.152198
0.157422
0.163265
0.169664
0.176514
0.183576
0.190445
0.19632
0.199716
0.197616
0.183498
0.142442
0.122694
0.123088
0.123839
0.124966
0.126431
0.128255
0.130373
0.132814
0.135452
0.138312
0.141147
0.143954
0.146251
0.147945
0.14807
0.146269
0.140505
0.129491
0.108182
0.0709219
0.111634
0.111851
0.112235
0.112801
0.113514
0.114369
0.115289
0.116248
0.117113
0.117825
0.118155
0.117977
0.1169
0.114667
0.110624
0.104281
0.0946612
0.0811416
0.0630366
0.0406969
0.0995423
0.0995878
0.0996486
0.0997263
0.0997981
0.0998367
0.0997781
0.0995597
0.0990752
0.0982216
0.0968375
0.0947605
0.091758
0.0875975
0.0820041
0.0747444
0.0656703
0.0547072
0.04181
0.0262028
0.087124
0.0870415
0.0868612
0.0865799
0.0861837
0.0856396
0.0848998
0.0838973
0.0825579
0.0807859
0.0784872
0.07554
0.0718473
0.0672844
0.0618008
0.055309
0.0478195
0.0391583
0.0290734
0.0166994
0.0749704
0.0748088
0.0744775
0.0739727
0.0732866
0.0723918
0.0712561
0.0698271
0.068059
0.0658863
0.0632636
0.0601222
0.0564338
0.0521373
0.0472296
0.0416351
0.0353188
0.0280682
0.0196376
0.00937794
0.0634952
0.0632943
0.0628875
0.0622716
0.0614428
0.0603827
0.0590721
0.057477
0.0555723
0.053319
0.0506969
0.0476677
0.0442215
0.040316
0.0359429
0.0310334
0.0255528
0.0193588
0.0123134
0.00399467
0.0529369
0.052724
0.0522951
0.0516471
0.0507784
0.0496781
0.0483362
0.0467327
0.0448544
0.0426778
0.0401929
0.0373738
0.0342144
0.0306829
0.0267753
0.0224501
0.0177041
0.0124691
0.00668989
0.000102805
0.0433956
0.0431873
0.0427686
0.0421362
0.0412893
0.0402215
0.0389285
0.0373984
0.0356249
0.033593
0.0312973
0.0287202
0.0258598
0.0226967
0.0192371
0.0154634
0.0113944
0.00700696
0.00230996
-0.00279452
0.0348783
0.0346832
0.0342915
0.0336995
0.0329063
0.031908
0.0307032
0.0292853
0.0276524
0.0257954
0.0237136
0.0213961
0.0188464
0.0160544
0.0130324
0.00977424
0.00630853
0.00263975
-0.00116804
-0.00506419
0.027337
0.0271588
0.0268013
0.0262604
0.025535
0.0246223
0.0235231
0.0222342
0.0207571
0.0190874
0.0172288
0.0151762
0.0129372
0.010507
0.00790015
0.00511477
0.00218378
-0.000871417
-0.00394919
-0.00690367
0.020698
0.0205372
0.0202152
0.0197278
0.0190737
0.0182511
0.0172624
0.0161068
0.0147883
0.0133056
0.0116653
0.00986633
0.00792005
0.00582595
0.00360153
0.00124787
-0.00120048
-0.00371626
-0.00618398
-0.00841946
0.0148809
0.0147359
0.0144462
0.0140078
0.0134201
0.0126824
0.0117991
0.0107715
0.00960539
0.00830114
0.00686609
0.00530058
0.00361751
0.00182063
-6.70322e-05
-0.0020372
-0.00405131
-0.00608171
-0.00801738
-0.00967149
0.00981376
0.00968049
0.00941525
0.00901437
0.0084783
0.00780853
0.00701192
0.00609316
0.00506127
0.00391912
0.00267481
0.00132742
-0.000113313
-0.0016462
-0.00324706
-0.00489875
-0.0065477
-0.00815156
-0.00959919
-0.0107272
0.0054442
0.00531648
0.0050633
0.00468135
0.00417227
0.00353922
0.00279231
0.00194042
0.000998942
-2.24442e-05
-0.00110792
-0.00225453
-0.00345332
-0.00471431
-0.00602901
-0.00739635
-0.00875729
-0.0100398
-0.0110773
-0.0116693
0.00174663
0.00161724
0.00136166
0.000976223
0.000463255
-0.000174416
-0.000924746
-0.00177741
-0.00271012
-0.00370511
-0.00472841
-0.00575858
-0.00676015
-0.0077342
-0.0086768
-0.00963998
-0.0106229
-0.0116058
-0.0123497
-0.0125133
-0.00127648
-0.00141317
-0.00168389
-0.00209294
-0.0026386
-0.00332049
-0.0041288
-0.00505729
-0.00608499
-0.0071947
-0.00834176
-0.00948344
-0.0105338
-0.0114241
-0.012058
-0.0124412
-0.0126185
-0.0127881
-0.0129362
-0.012642
-0.00359998
-0.00374515
-0.0040382
-0.00448203
-0.00507811
-0.00582734
-0.00672899
-0.00778217
-0.00898288
-0.0103241
-0.0117873
-0.0133361
-0.0148941
-0.0163245
-0.0173975
-0.017801
-0.0172143
-0.0155409
-0.0131808
-0.0109976
-0.00518347
-0.00533585
-0.00565056
-0.00612795
-0.00677374
-0.00758892
-0.00858422
-0.00976295
-0.0111441
-0.0127343
-0.0145639
-0.0166384
-0.0189864
-0.0215558
-0.0242386
-0.0266101
-0.0278708
-0.0264602
-0.020529
-0.00881345
-0.0059846
-0.006144
-0.00647175
-0.00697024
-0.00764522
-0.00850215
-0.00955351
-0.0108124
-0.0123035
-0.0140544
-0.0161136
-0.0185399
-0.0214307
-0.0249052
-0.0291258
-0.034194
-0.0399156
-0.0448801
-0.0439969
-0.0212325
0.14251
0.143092
0.144391
0.146312
0.148999
0.152351
0.156612
0.161636
0.167805
0.174904
0.183525
0.193344
0.205302
0.218887
0.235679
0.254804
0.279113
0.306959
0.343777
0.386062
0.142477
0.143059
0.144358
0.146278
0.148964
0.152316
0.156575
0.161597
0.167763
0.174858
0.183472
0.193283
0.205226
0.218792
0.235549
0.254626
0.278847
0.306562
0.343152
0.385051
0.142407
0.142989
0.144287
0.146207
0.14889
0.152239
0.156495
0.161513
0.167671
0.174757
0.183358
0.19315
0.205063
0.218589
0.235273
0.254252
0.278294
0.305744
0.341876
0.383
0.142301
0.142882
0.144179
0.146097
0.148778
0.152123
0.156373
0.161384
0.167532
0.174604
0.183183
0.192947
0.204814
0.218278
0.234854
0.253684
0.277459
0.30451
0.339955
0.37992
0.142157
0.142739
0.144034
0.145949
0.148626
0.151966
0.156209
0.16121
0.167344
0.174397
0.182948
0.192673
0.204479
0.217861
0.234293
0.252926
0.276344
0.302869
0.337398
0.375827
0.141978
0.142559
0.143852
0.145764
0.148436
0.15177
0.156004
0.160992
0.167109
0.174137
0.182654
0.192331
0.204061
0.217339
0.233594
0.251982
0.274957
0.300831
0.334216
0.370744
0.141762
0.142343
0.143634
0.145542
0.148209
0.151535
0.155757
0.16073
0.166827
0.173826
0.182302
0.191921
0.203562
0.216716
0.232761
0.250856
0.273305
0.298408
0.330424
0.364696
0.141511
0.142091
0.143379
0.145284
0.147944
0.151261
0.155471
0.160426
0.166499
0.173465
0.181893
0.191444
0.202983
0.215993
0.231797
0.249555
0.271396
0.295614
0.326038
0.357717
0.141224
0.141804
0.14309
0.14499
0.147642
0.150949
0.155144
0.160081
0.166126
0.173054
0.181429
0.190903
0.202328
0.215174
0.230709
0.248083
0.269242
0.292466
0.321077
0.349845
0.140902
0.141483
0.142765
0.14466
0.147304
0.150601
0.15478
0.159694
0.16571
0.172595
0.180911
0.1903
0.2016
0.21426
0.229502
0.246449
0.266854
0.288979
0.315563
0.341122
0.140545
0.141127
0.142406
0.144296
0.146931
0.150216
0.154377
0.159268
0.165251
0.172089
0.180342
0.189635
0.2008
0.213257
0.228182
0.244659
0.264246
0.285174
0.30952
0.331597
0.140155
0.140738
0.142014
0.143899
0.146524
0.149796
0.153939
0.158804
0.164751
0.171539
0.179723
0.188913
0.199934
0.212168
0.226756
0.24272
0.261433
0.281067
0.302976
0.32132
0.139731
0.140315
0.141588
0.143468
0.146084
0.149342
0.153464
0.158302
0.164211
0.170945
0.179056
0.188134
0.199003
0.210996
0.225232
0.24064
0.258433
0.276678
0.295961
0.310347
0.139274
0.13986
0.141131
0.143006
0.145611
0.148855
0.152956
0.157764
0.163634
0.17031
0.178344
0.187303
0.198012
0.209747
0.223616
0.238429
0.255263
0.272025
0.288513
0.298732
0.138784
0.139374
0.140643
0.142512
0.145106
0.148335
0.152414
0.157192
0.163019
0.169634
0.177587
0.186421
0.196963
0.208425
0.221914
0.236093
0.251943
0.267127
0.280675
0.286523
0.138263
0.138857
0.140124
0.141988
0.144571
0.147784
0.151838
0.156584
0.162367
0.168918
0.176785
0.185486
0.195853
0.207027
0.220125
0.233636
0.248486
0.261998
0.272499
0.273759
0.137711
0.13831
0.139576
0.141436
0.144007
0.147204
0.151233
0.155946
0.161681
0.168165
0.175942
0.184505
0.19469
0.205562
0.218261
0.23107
0.244911
0.256653
0.264048
0.260471
0.137129
0.137735
0.139002
0.14086
0.143422
0.146606
0.150614
0.155297
0.16099
0.167411
0.175104
0.183531
0.19354
0.204106
0.216408
0.228481
0.241312
0.251147
0.255367
0.246563
0.136517
0.137132
0.138403
0.140263
0.14282
0.145997
0.149989
0.154651
0.160311
0.166681
0.174301
0.182604
0.192449
0.202713
0.214626
0.225939
0.237757
0.245527
0.246482
0.231384
0.135871
0.136489
0.137754
0.139604
0.142137
0.145287
0.149233
0.153844
0.15942
0.165696
0.173166
0.181287
0.190855
0.200756
0.212141
0.222682
0.233421
0.23931
0.237463
0.215216
0.135729
0.136345
0.137604
0.139446
0.141968
0.145103
0.14903
0.153617
0.159165
0.165406
0.172834
0.180904
0.190411
0.200236
0.211531
0.221955
0.232554
0.238254
0.236168
0.213575
0.136381
0.136995
0.138261
0.140112
0.142658
0.145821
0.149795
0.154435
0.160067
0.166405
0.173985
0.18224
0.192026
0.202219
0.214046
0.225249
0.236936
0.24453
0.245261
0.229857
0.137
0.137604
0.138866
0.140716
0.143268
0.146439
0.150429
0.155091
0.160759
0.167149
0.174805
0.183186
0.19314
0.203638
0.215859
0.227829
0.240537
0.250208
0.254222
0.245145
0.137589
0.138186
0.139447
0.141299
0.14386
0.147045
0.151058
0.155751
0.161462
0.167917
0.175659
0.184178
0.194312
0.20512
0.217743
0.230454
0.24418
0.25577
0.262975
0.259148
0.138147
0.138739
0.140002
0.14186
0.144433
0.147634
0.151673
0.156401
0.16216
0.168683
0.176517
0.185177
0.195496
0.20661
0.219638
0.233057
0.247799
0.261171
0.271498
0.272528
0.138675
0.139263
0.140528
0.142391
0.144976
0.148194
0.152258
0.157019
0.162825
0.169414
0.177336
0.186131
0.196628
0.208034
0.221456
0.235551
0.251301
0.266355
0.279742
0.285382
0.139171
0.139757
0.141024
0.142892
0.145489
0.148723
0.15281
0.157603
0.163452
0.170104
0.178109
0.187033
0.1977
0.209383
0.223189
0.237923
0.254665
0.271307
0.28765
0.297679
0.139635
0.140219
0.141488
0.143363
0.145971
0.149219
0.153329
0.158151
0.164043
0.170754
0.178838
0.187883
0.198713
0.210658
0.224836
0.240172
0.257879
0.276014
0.295166
0.30938
0.140067
0.140648
0.141921
0.143801
0.14642
0.149682
0.153814
0.158665
0.164595
0.171362
0.179522
0.188681
0.199666
0.211856
0.226392
0.242289
0.260924
0.280457
0.302247
0.320436
0.140465
0.141045
0.142321
0.144207
0.146836
0.150112
0.154263
0.159141
0.165108
0.171928
0.180158
0.189423
0.200556
0.212972
0.227849
0.244265
0.263781
0.284618
0.308857
0.330795
0.140828
0.141408
0.142688
0.144579
0.147217
0.150506
0.154676
0.159579
0.16558
0.172448
0.180744
0.190107
0.201378
0.214002
0.2292
0.246092
0.266433
0.288477
0.314966
0.340402
0.141158
0.141738
0.14302
0.144917
0.147564