/*--------------------------------*- C++ -*----------------------------------*\
  =========                 |
  \\      /  F ield         | OpenFOAM: The Open Source CFD Toolbox
   \\    /   O peration     | Website:  https://openfoam.org
    \\  /    A nd           | Version:  6.0
     \\/     M anipulation  |
\*---------------------------------------------------------------------------*/
FoamFile
{
    version     2.0;
    format      ascii;
    class       surfaceScalarField;
    location    "54";
    object      phi;
}
// * * * * * * * * * * * * * * * * * * * * * * * * * * * * * * * * * * * * * //

dimensions      [0 3 -1 0 0 0 0];

internalField   nonuniform List<scalar> 
7840
(
3.45746e-05
-0.000244949
0.000123013
-0.000773146
0.000248769
-0.00130657
0.000393454
-0.00180295
0.000539826
-0.00222895
0.00067479
-0.00256746
0.000790686
-0.00281741
0.000884835
-0.00298892
0.000958151
-0.00309749
0.00101357
-0.00315949
0.00105475
-0.00318935
0.00108526
-0.00319848
0.0011081
-0.00319514
0.00112558
-0.00318494
0.00113937
-0.00317151
0.00115065
-0.00315707
0.00116021
-0.003143
0.00116856
-0.00313014
0.00117606
-0.003119
-0.00311012
0.00118288
3.60349e-05
-0.000280984
0.000125608
-0.000862719
0.000249442
-0.00143041
0.000387593
-0.0019411
0.000522813
-0.00236417
0.000643223
-0.00268787
0.000742892
-0.00291708
0.000820756
-0.00306678
0.000878884
-0.00315562
0.000920827
-0.00320143
0.000950416
-0.00321894
0.000971066
-0.00321913
0.000985485
-0.00320956
0.000995655
-0.00319511
0.00100295
-0.0031788
0.00100828
-0.00316241
0.00101227
-0.00314699
0.00101531
-0.00313318
0.00101767
-0.00312136
-0.00311191
0.00101945
3.70968e-05
-0.000318081
0.000126642
-0.000952264
0.000246869
-0.00155063
0.000376763
-0.00207099
0.000499569
-0.00248698
0.000604913
-0.00279322
0.000688609
-0.00300078
0.000751033
-0.0031292
0.000795156
-0.00319974
0.000824905
-0.00323118
0.000844093
-0.00323813
0.000855892
-0.00323093
0.000862682
-0.00321635
0.000866121
-0.00319855
0.000867311
-0.00317999
0.000866969
-0.00316207
0.000865561
-0.00314558
0.000863397
-0.00313102
0.000860667
-0.00311863
-0.0031087
0.000857457
3.77218e-05
-0.000355803
0.000126066
-0.00104061
0.000241119
-0.00166569
0.00036131
-0.00219119
0.000470814
-0.00259648
0.000560934
-0.00288334
0.000629158
-0.003069
0.00067709
-0.00317714
0.000708354
-0.00323101
0.000727044
-0.00324987
0.000736829
-0.00324792
0.000740576
-0.00323468
0.000740331
-0.0032161
0.000737456
-0.00319567
0.000732821
-0.00317535
0.000726976
-0.00315622
0.000720279
-0.00313889
0.000712969
-0.00312371
0.000705191
-0.00311085
-0.00310052
0.000697006
3.78832e-05
-0.000393686
0.000123874
-0.0011266
0.000232341
-0.00177415
0.000341673
-0.00230052
0.000437317
-0.00269212
0.000512332
-0.00295835
0.000565747
-0.00312242
0.000600158
-0.00321155
0.000619619
-0.00325047
0.000628232
-0.00325848
0.000629424
-0.00324911
0.000625738
-0.00323099
0.000618897
-0.00320926
0.000610003
-0.00318678
0.00059973
-0.00316508
0.000588497
-0.00314499
0.000576577
-0.00312697
0.000564156
-0.00311129
0.000551351
-0.00309804
-0.00308737
0.000538208
3.75663e-05
-0.000431252
0.000120104
-0.00120914
0.000220754
-0.0018748
0.000318343
-0.00239811
0.000399853
-0.00277363
0.00046009
-0.00301859
0.000499443
-0.00316177
0.000521275
-0.00323338
0.00052988
-0.00325907
0.000529237
-0.00325784
0.000522486
-0.00324236
0.000511835
-0.00322034
0.000498719
-0.00319614
0.000484011
-0.00317207
0.000468227
-0.0031493
0.00045168
-0.00312844
0.000434578
-0.00310987
0.000417069
-0.00309378
0.00039925
-0.00308023
-0.00306928
0.000381162
3.67684e-05
-0.00046802
0.000114831
-0.0012872
0.000206623
-0.00196659
0.000291844
-0.00248333
0.000359177
-0.00284097
0.000405101
-0.00306451
0.00043117
-0.00318784
0.000441306
-0.00324352
0.000439877
-0.00325764
0.000430658
-0.00324862
0.00041647
-0.00322817
0.000399207
-0.00320308
0.000380044
-0.00317698
0.000359664
-0.00315169
0.000338453
-0.00312809
0.000316641
-0.00310663
0.000294384
-0.00308761
0.000271802
-0.00307119
0.000248981
-0.0030574
-0.00304626
0.000225962
3.54977e-05
-0.000503518
0.000108159
-0.00135986
0.000190245
-0.00204868
0.000262698
-0.00255578
0.000315992
-0.00289426
0.000348161
-0.00309668
0.000361719
-0.0032014
0.000360959
-0.00324276
0.0003502
-0.00324688
0.000332955
-0.00323138
0.00031172
-0.00320693
0.000288102
-0.00317946
0.000263052
-0.00315193
0.000237097
-0.00312574
0.000210517
-0.00310151
0.000183473
-0.00307958
0.00015608
-0.00306022
0.000128437
-0.00304355
0.000100625
-0.00302959
-0.00301833
7.26902e-05
3.37724e-05
-0.000537291
0.000100214
-0.0014263
0.000171936
-0.0021204
0.000231417
-0.00261526
0.000270947
-0.00293379
0.000289965
-0.0031157
0.000291752
-0.00320318
0.000280809
-0.00323181
0.000261314
-0.00322739
0.000236481
-0.00320655
0.000208496
-0.00317895
0.000178708
-0.00314967
0.000147881
-0.0031211
0.000116414
-0.00309427
8.45021e-05
-0.00306959
5.22502e-05
-0.00304733
1.97364e-05
-0.0030277
-1.29581e-05
-0.00301086
-4.57492e-05
-0.0029968
-0.0029855
-7.85795e-05
3.16194e-05
-0.00056891
9.11393e-05
-0.00148582
0.000152012
-0.00218128
0.000198482
-0.00266173
0.000224624
-0.00295993
0.000231116
-0.00312219
0.000221824
-0.00319389
0.000201326
-0.00321131
0.000173587
-0.00319965
0.000141514
-0.00317447
0.000107
-0.00314443
7.11696e-05
-0.00311384
3.46339e-05
-0.00308457
-2.30836e-06
-0.00305733
-3.9529e-05
-0.00303237
-7.69735e-05
-0.00300989
-0.000114597
-0.00299008
-0.000152333
-0.00297312
-0.00019009
-0.00295904
-0.0029478
-0.000227794
2.90725e-05
-0.000597982
8.10875e-05
-0.00153784
0.000130787
-0.00223097
0.000164343
-0.00269529
0.00017754
-0.00297313
0.00017213
-0.00311678
0.000152398
-0.00317416
0.000122891
-0.00318181
8.7318e-05
-0.00316408
4.8276e-05
-0.00313543
7.39288e-06
-0.00310355
-3.43977e-05
-0.00307205
-7.66063e-05
-0.00304236
-0.00011901
-0.00301492
-0.000161534
-0.00298985
-0.000204165
-0.00296726
-0.000246895
-0.00294735
-0.000289671
-0.00293034
-0.000332389
-0.00291633
-0.00290524
-0.000374951
2.61714e-05
-0.000624154
7.02161e-05
-0.00158188
0.000108563
-0.00226932
0.00012941
-0.00271613
0.000130154
-0.00297387
0.000113449
-0.00310008
8.38611e-05
-0.00314457
4.5821e-05
-0.00314377
2.75366e-06
-0.00312101
-4.30444e-05
-0.00308963
-9.01839e-05
-0.00305641
-0.00013789
-0.00302434
-0.000185766
-0.00299448
-0.000233643
-0.00296705
-0.000281484
-0.00294201
-0.000329314
-0.00291943
-0.000377162
-0.0028995
-0.000424996
-0.00288251
-0.000472698
-0.00286862
-0.0028578
-0.000520129
2.29597e-05
-0.000647114
5.86836e-05
-0.00161761
8.56244e-05
-0.00229626
9.40567e-05
-0.00272457
8.28672e-05
-0.00296268
5.54556e-05
-0.00307267
1.65449e-05
-0.00310566
-2.96121e-05
-0.00309761
-7.98897e-05
-0.00307073
-0.000132276
-0.00303725
-0.000185594
-0.00300309
-0.000239202
-0.00297074
-0.000292769
-0.00294092
-0.00034616
-0.00291366
-0.000399358
-0.00288881
-0.000452423
-0.00286636
-0.000505425
-0.0028465
-0.000558365
-0.00282957
-0.000611114
-0.00281587
-0.00280545
-0.000663473
1.94846e-05
-0.000666598
4.66458e-05
-0.00164477
6.22386e-05
-0.00231186
5.86189e-05
-0.00272095
3.60326e-05
-0.0029401
-1.52157e-06
-0.00303511
-4.92646e-05
-0.00305792
-0.000103168
-0.00304371
-0.000160411
-0.00301349
-0.000219247
-0.00297841
-0.000278691
-0.00294365
-0.000338208
-0.00291122
-0.000397519
-0.0028816
-0.000456497
-0.00285468
-0.000515129
-0.00283018
-0.000573495
-0.00280799
-0.000631713
-0.00278828
-0.000689832
-0.00277145
-0.000747722
-0.00275799
-0.00274808
-0.00080509
1.57947e-05
-0.000682393
3.42539e-05
-0.00166323
3.8653e-05
-0.00231625
2.33989e-05
-0.00270569
-1.00384e-05
-0.00290666
-5.71925e-05
-0.00298796
-0.000113312
-0.0030018
-0.000174624
-0.00298239
-0.000238608
-0.00294951
-0.000303771
-0.00291325
-0.000369296
-0.00287812
-0.000434747
-0.00284577
-0.00049988
-0.00281647
-0.00056456
-0.00279
-0.000628753
-0.00276599
-0.000692535
-0.00274421
-0.000756062
-0.00272476
-0.000819449
-0.00270807
-0.000882578
-0.00269486
-0.00268563
-0.000945022
1.19397e-05
-0.000694333
2.16523e-05
-0.00167294
1.50947e-05
-0.0023097
-1.13334e-05
-0.00267927
-5.5071e-05
-0.00286292
-0.000111301
-0.00293173
-0.000175363
-0.00293773
-0.000243763
-0.00291399
-0.000314271
-0.002879
-0.00038563
-0.00284189
-0.000457184
-0.00280657
-0.00052859
-0.00277436
-0.000599637
-0.00274543
-0.000670179
-0.00271946
-0.000740137
-0.00269603
-0.000809543
-0.00267481
-0.000878561
-0.00265574
-0.000947382
-0.00263924
-0.00101592
-0.00262632
-0.00261791
-0.00108364
7.96896e-06
-0.000702301
8.97672e-06
-0.00167395
-8.23035e-06
-0.00229249
-4.53381e-05
-0.00264216
-9.88231e-05
-0.00280944
-0.000163616
-0.00286693
-0.000235202
-0.00286615
-0.000310369
-0.00283883
-0.000387172
-0.0028022
-0.000464573
-0.00276449
-0.000542071
-0.00272907
-0.00061942
-0.00269701
-0.000696463
-0.00266838
-0.000773054
-0.00264286
-0.000849063
-0.00262002
-0.000924447
-0.00259942
-0.000999348
-0.00258084
-0.00107404
-0.00256455
-0.00114852
-0.00255184
-0.00254402
-0.00122242
3.93056e-06
-0.000706232
-3.64723e-06
-0.00166637
-3.11377e-05
-0.002265
-7.8405e-05
-0.00259489
-0.000141083
-0.00274676
-0.000213936
-0.00279408
-0.000292625
-0.00278746
-0.000374228
-0.00275722
-0.000457066
-0.00271936
-0.000540309
-0.00268124
-0.000623609
-0.00264577
-0.000706832
-0.00261379
-0.000789906
-0.00258531
-0.000872727
-0.00256004
-0.000955148
-0.0025376
-0.00103705
-0.00251752
-0.00111854
-0.00249935
-0.00119998
-0.00248311
-0.00128161
-0.00247021
-0.00246164
-0.00136398
-1.29893e-07
-0.000706102
-1.61058e-05
-0.00165039
-5.34657e-05
-0.00222764
-0.000110354
-0.002538
-0.000181671
-0.00267544
-0.00026208
-0.00271367
-0.000347447
-0.00270209
-0.000435126
-0.00266954
-0.000523689
-0.00263079
-0.000612498
-0.00259243
-0.000701356
-0.00255691
-0.000790266
-0.00252488
-0.000879294
-0.00249628
-0.00096847
-0.00247087
-0.00105774
-0.00244833
-0.00114699
-0.00242827
-0.00123622
-0.00241012
-0.00132578
-0.00239355
-0.00141623
-0.00237976
-0.0023676
-0.00151027
-4.17029e-06
-0.000701932
-2.8299e-05
-0.00162626
-7.50775e-05
-0.00218086
-0.000141036
-0.00247204
-0.000220441
-0.00259604
-0.000307908
-0.00262621
-0.000399512
-0.00261049
-0.000492873
-0.00257618
-0.000586779
-0.00253689
-0.000680758
-0.00249845
-0.000774745
-0.00246293
-0.00086888
-0.00243074
-0.00096341
-0.00240175
-0.00105862
-0.00237566
-0.00115478
-0.00235217
-0.0012521
-0.00233095
-0.0013507
-0.00231153
-0.00145111
-0.00229313
-0.00155558
-0.0022753
-0.00226928
-0.0016539
-8.14099e-06
-0.000693791
-4.0122e-05
-0.00159428
-9.5839e-05
-0.00212514
-0.000170315
-0.00239757
-0.000257265
-0.00250909
-0.000351299
-0.00253217
-0.000448703
-0.00251309
-0.000547328
-0.00247756
-0.000646147
-0.00243807
-0.000744802
-0.0023998
-0.000843295
-0.00236443
-0.000941817
-0.00233222
-0.00104069
-0.00230288
-0.00114036
-0.00227599
-0.00124144
-0.00225108
-0.00134477
-0.00222762
-0.0014512
-0.00220509
-0.00156115
-0.00218318
-0.00167556
-0.00216089
-0.00213126
-0.00181357
-1.20306e-05
-0.00068176
-5.15415e-05
-0.00155477
-0.000115708
-0.00206098
-0.000198155
-0.00231512
-0.000292125
-0.00241512
-0.000392251
-0.00243204
-0.000495025
-0.00241031
-0.00059851
-0.00237407
-0.000701827
-0.00233475
-0.000804693
-0.00229693
-0.000907118
-0.00226201
-0.00100924
-0.0022301
-0.00111123
-0.00220089
-0.00121331
-0.0021739
-0.00131573
-0.00214866
-0.00141867
-0.00212468
-0.00152221
-0.00210155
-0.00162657
-0.00207882
-0.00173245
-0.00205501
-0.00202669
-0.00183702
-1.58003e-05
-0.00066596
-6.24833e-05
-0.00150809
-0.0001346
-0.00198886
-0.000224482
-0.00222524
-0.000324966
-0.00231463
-0.000430735
-0.00232628
-0.000538477
-0.00230257
-0.000646448
-0.0022661
-0.000753898
-0.0022273
-0.000860611
-0.00219022
-0.000966617
-0.002156
-0.00107204
-0.00212468
-0.00117702
-0.00209591
-0.00128168
-0.00206924
-0.00138612
-0.00204423
-0.00149035
-0.00202046
-0.00159433
-0.00199757
-0.00169802
-0.00197513
-0.00180074
-0.0019523
-0.00192827
-0.00189915
-1.94278e-05
-0.000646532
-7.29058e-05
-0.00145461
-0.000152473
-0.00190929
-0.00024927
-0.00212844
-0.000355789
-0.00220812
-0.000466776
-0.00221529
-0.000579113
-0.00219023
-0.000691223
-0.00215399
-0.000802466
-0.00211606
-0.000912673
-0.00208001
-0.00102188
-0.0020468
-0.00113017
-0.00201639
-0.00123766
-0.00198842
-0.00134439
-0.00196251
-0.00145037
-0.00193825
-0.00155553
-0.0019153
-0.00165972
-0.00189338
-0.00176267
-0.00187218
-0.00186372
-0.00185125
-0.00183017
-0.00196182
-2.28952e-05
-0.000623637
-8.27783e-05
-0.00139473
-0.000169302
-0.00182277
-0.000272513
-0.00202523
-0.000384612
-0.00209602
-0.000500426
-0.00209947
-0.000617016
-0.00207364
-0.000732964
-0.00203804
-0.000847727
-0.0020013
-0.00096118
-0.00196656
-0.00107337
-0.00193461
-0.00118437
-0.00190538
-0.00129426
-0.00187853
-0.00140307
-0.0018537
-0.00151077
-0.00183054
-0.0016173
-0.00180877
-0.0017225
-0.00178817
-0.00182615
-0.00176854
-0.00192783
-0.00174957
-0.00173103
-0.00202697
-2.61883e-05
-0.000597449
-9.20793e-05
-0.00132884
-0.000185072
-0.00172978
-0.000294218
-0.00191608
-0.000411469
-0.00197877
-0.000531742
-0.0019792
-0.000652272
-0.00195311
-0.000771784
-0.00191853
-0.000889823
-0.00188326
-0.00100631
-0.00185007
-0.0011213
-0.00181962
-0.00123488
-0.0017918
-0.00134711
-0.0017663
-0.00145803
-0.00174278
-0.00156761
-0.00172096
-0.0016758
-0.00170058
-0.0017825
-0.00168147
-0.00188756
-0.00166348
-0.00199078
-0.00164635
-0.00162993
-0.00209187
-2.9296e-05
-0.000568153
-0.000100794
-0.00125734
-0.00019978
-0.00163079
-0.0003144
-0.00180146
-0.000436398
-0.00185677
-0.000560788
-0.00185481
-0.000684968
-0.00182893
-0.000807796
-0.0017957
-0.000928898
-0.00176216
-0.00104824
-0.00173073
-0.00116589
-0.00170197
-0.00128195
-0.00167574
-0.00139649
-0.00165176
-0.00150956
-0.00162972
-0.00162116
-0.00160936
-0.00173127
-0.00159047
-0.00183984
-0.0015729
-0.00194681
-0.00155651
-0.00205208
-0.00154108
-0.00152651
-0.00215551
-3.22098e-05
-0.000535943
-0.000108913
-0.00118063
-0.000213428
-0.00152628
-0.000333078
-0.00168181
-0.000459438
-0.00173041
-0.000587622
-0.00172663
-0.000715179
-0.00170138
-0.000841092
-0.00166979
-0.000965062
-0.00163819
-0.00108709
-0.00160871
-0.00120728
-0.00158178
-0.00132573
-0.00155729
-0.00144255
-0.00153494
-0.00155779
-0.00151448
-0.00167149
-0.00149566
-0.00178366
-0.0014783
-0.0018943
-0.00146226
-0.0020034
-0.00144741
-0.00211095
-0.00143353
-0.00142059
-0.00221687
-3.49227e-05
-0.00050102
-0.00011643
-0.00109913
-0.000226018
-0.00141669
-0.000350272
-0.00155756
-0.000480627
-0.00160005
-0.000612294
-0.00159496
-0.000742969
-0.0015707
-0.000871746
-0.00154101
-0.000998393
-0.00151154
-0.00112295
-0.00148415
-0.00124555
-0.00145919
-0.00136631
-0.00143653
-0.00148534
-0.00141591
-0.00160274
-0.00139708
-0.00171856
-0.00137984
-0.00183284
-0.00136401
-0.00194563
-0.00134947
-0.00205696
-0.00133608
-0.00216684
-0.00132365
-0.00131217
-0.00227526
-3.74291e-05
-0.000463591
-0.00012334
-0.00101322
-0.000237556
-0.00130247
-0.000366001
-0.00142911
-0.000499994
-0.00146606
-0.000634846
-0.00146011
-0.000768386
-0.00143716
-0.000899809
-0.00140959
-0.00102895
-0.0013824
-0.00115588
-0.00135722
-0.00128074
-0.00133432
-0.0014037
-0.00131357
-0.00152487
-0.00129474
-0.00164436
-0.00127759
-0.00176227
-0.00126194
-0.00187865
-0.00124763
-0.00199357
-0.00123455
-0.0021071
-0.00122256
-0.00221928
-0.00121147
-0.00120133
-0.00233012
-3.97241e-05
-0.000423867
-0.000129639
-0.000923302
-0.000248046
-0.00118407
-0.000380279
-0.00129688
-0.000517565
-0.00132878
-0.00065531
-0.00132236
-0.000791465
-0.00130101
-0.000925317
-0.00127574
-0.00105675
-0.00125097
-0.00118588
-0.00122809
-0.00131287
-0.00120733
-0.00143789
-0.00118855
-0.00156109
-0.00117154
-0.00168259
-0.00115609
-0.00180249
-0.00114204
-0.00192089
-0.00112923
-0.00203788
-0.00111756
-0.00215352
-0.00110691
-0.00226789
-0.0010971
-0.00108819
-0.00238103
-4.18036e-05
-0.000382064
-0.000135324
-0.000829782
-0.000257491
-0.0010619
-0.000393119
-0.00116125
-0.00053336
-0.00118853
-0.00067371
-0.00118201
-0.000812231
-0.00116249
-0.00094829
-0.00113968
-0.00108182
-0.00111743
-0.00121297
-0.00109694
-0.00134192
-0.00107837
-0.00146886
-0.00106161
-0.00159395
-0.00104645
-0.00171732
-0.00103272
-0.00183911
-0.00102025
-0.00195941
-0.00100893
-0.00207833
-0.000998644
-0.00219596
-0.000989279
-0.00231237
-0.000980688
-0.000972933
-0.00242763
-4.36636e-05
-0.0003384
-0.000140391
-0.000733054
-0.000265893
-0.000936397
-0.000404529
-0.00102262
-0.000547391
-0.00104567
-0.00069006
-0.00103934
-0.000830696
-0.00102185
-0.000968737
-0.00100164
-0.00110416
-0.000982008
-0.00123714
-0.000963962
-0.00136787
-0.000947641
-0.00149656
-0.000932924
-0.00162337
-0.000919638
-0.00174847
-0.000907622
-0.00187198
-0.000896739
-0.00199404
-0.000886877
-0.00211474
-0.000877943
-0.00223419
-0.000869828
-0.00235247
-0.000862404
-0.000855742
-0.00246966
-4.53005e-05
-0.000293099
-0.000144838
-0.000633517
-0.000273252
-0.000807982
-0.000414514
-0.000881356
-0.000559668
-0.000900519
-0.00070437
-0.000894641
-0.000846867
-0.000879354
-0.000986659
-0.000861847
-0.00112376
-0.000844904
-0.00125836
-0.000829359
-0.00139069
-0.000815318
-0.00152094
-0.000802673
-0.0016493
-0.000791273
-0.00177595
-0.000780978
-0.00190102
-0.00077167
-0.00202464
-0.000763253
-0.00214694
-0.000755645
-0.00226802
-0.000748748
-0.00238797
-0.000742451
-0.000736832
-0.00250688
-4.67111e-05
-0.000246388
-0.00014866
-0.000531568
-0.000279569
-0.000677073
-0.000423078
-0.000737847
-0.000570196
-0.000753401
-0.000716645
-0.000748191
-0.000860746
-0.000735252
-0.00100205
-0.000720542
-0.00114061
-0.000706347
-0.00127662
-0.000693343
-0.00141033
-0.000681611
-0.00154195
-0.000671056
-0.00167167
-0.000661551
-0.00179967
-0.000652978
-0.0019261
-0.000645239
-0.0020511
-0.000638253
-0.0021748
-0.000631948
-0.0022973
-0.000626242
-0.00241871
-0.000621044
-0.000616425
-0.00253912
-4.78923e-05
-0.000198496
-0.000151853
-0.000427607
-0.000284841
-0.000544086
-0.000430221
-0.000592467
-0.000578976
-0.000604645
-0.000726886
-0.000600282
-0.000872331
-0.000589807
-0.00101491
-0.000577965
-0.00115469
-0.000566565
-0.0012919
-0.000556135
-0.00142677
-0.000546734
-0.00155955
-0.000538283
-0.00169042
-0.000530679
-0.00181957
-0.00052383
-0.00194715
-0.000517653
-0.00207332
-0.000512085
-0.0021982
-0.000507068
-0.00232191
-0.000502533
-0.00244455
-0.000498408
-0.000494757
-0.00256622
-4.88417e-05
-0.000149654
-0.000154415
-0.000322033
-0.000289066
-0.000409435
-0.000435943
-0.00044559
-0.00058601
-0.000454578
-0.000735091
-0.000451201
-0.000881617
-0.000443281
-0.00102522
-0.000434364
-0.00116599
-0.000425796
-0.00130416
-0.000417964
-0.00143998
-0.00041091
-0.00157369
-0.000404573
-0.0017055
-0.000398877
-0.00183558
-0.00039375
-0.0019641
-0.000389131
-0.00209121
-0.000384971
-0.00221705
-0.000381227
-0.00234174
-0.000377847
-0.00246537
-0.000374777
-0.000372069
-0.00258806
-4.95568e-05
-0.000100097
-0.000156343
-0.000215247
-0.000292243
-0.000273536
-0.000440244
-0.000297588
-0.000591297
-0.000303526
-0.000741259
-0.000301238
-0.0008886
-0.00029594
-0.00103297
-0.00028999
-0.00117449
-0.000284279
-0.00131339
-0.000279063
-0.00144993
-0.000274369
-0.00158435
-0.000270154
-0.00171686
-0.000266368
-0.00184765
-0.000262963
-0.00197688
-0.000259897
-0.00210471
-0.000257139
-0.00223128
-0.000254659
-0.00235671
-0.000252422
-0.00248109
-0.000250392
-0.000248607
-0.00260455
-5.00362e-05
-5.00613e-05
-0.000157634
-0.000107649
-0.000294369
-0.0001368
-0.000443123
-0.000148834
-0.000594835
-0.000151814
-0.000745388
-0.000150684
-0.000893276
-0.000148052
-0.00103817
-0.000145096
-0.00118019
-0.000142261
-0.00131958
-0.000139673
-0.0014566
-0.000137345
-0.0015915
-0.000135258
-0.00172448
-0.000133384
-0.00185575
-0.0001317
-0.00198546
-0.000130186
-0.00211377
-0.000128825
-0.00224083
-0.000127602
-0.00236675
-0.0001265
-0.00249164
-0.000125501
-0.000124625
-0.00261562
-5.02785e-05
2.172e-07
-0.000158287
3.59429e-07
-0.000295444
3.57046e-07
-0.000444578
2.99593e-07
-0.000596624
2.3151e-07
-0.000747476
1.68253e-07
-0.000895641
1.11841e-07
-0.0010408
6.04191e-08
-0.00118307
1.22102e-08
-0.00132271
-3.36813e-08
-0.00145998
-7.7538e-08
-0.00159512
-1.19379e-07
-0.00172834
-1.59154e-07
-0.00185984
-1.96818e-07
-0.0019898
-2.32347e-07
-0.00211836
-2.65723e-07
-0.00224566
-2.96951e-07
-0.00237183
-3.26125e-07
-0.00249698
-3.53476e-07
-3.78914e-07
-0.00262123
-5.02834e-05
5.05006e-05
-0.000158301
0.000108377
-0.000295467
0.000137524
-0.00044461
0.000149442
-0.000596664
0.000152285
-0.000747523
0.000151028
-0.000895694
0.000148283
-0.00104086
0.000145223
-0.00118313
0.00014229
-0.00132278
0.000139611
-0.00146005
0.000137195
-0.00159519
0.000135024
-0.00172842
0.00013307
-0.00185993
0.00013131
-0.00198989
0.000129725
-0.00211845
0.000128297
-0.00224576
0.000127011
-0.00237194
0.000125851
-0.00249709
0.000124797
0.000123869
-0.00262133
-5.00509e-05
0.000100551
-0.000157675
0.000216001
-0.000294439
0.000274287
-0.000443219
0.000298222
-0.000594954
0.00030402
-0.000745529
0.000301602
-0.000893435
0.000296189
-0.00103835
0.000290134
-0.00118038
0.000284325
-0.00131979
0.000279017
-0.00145683
0.000274233
-0.00159174
0.000269934
-0.00172473
0.000266067
-0.00185601
0.000262585
-0.00198573
0.000259447
-0.00211405
0.000256622
-0.00224112
0.000254078
-0.00236705
0.000251782
-0.00249195
0.000249697
0.000247859
-0.00261594
-4.95813e-05
0.000150133
-0.000156412
0.000322832
-0.000292359
0.000410234
-0.000440404
0.000446268
-0.000591496
0.000455112
-0.000741494
0.0004516
-0.000888867
0.000443562
-0.00103327
0.000434538
-0.00117481
0.00042587
-0.00131374
0.000417943
-0.00145031
0.000410798
-0.00158475
0.000404375
-0.00171728
0.000398597
-0.00184808
0.000393392
-0.00197734
0.000388699
-0.00210519
0.000384471
-0.00223177
0.000380662
-0.00235721
0.000377222
-0.00248161
0.000374095
0.000371334
-0.00260508
-4.88759e-05
0.000199009
-0.000154512
0.000428467
-0.000289229
0.000544952
-0.000436168
0.000593207
-0.00058629
0.000605234
-0.00073542
0.000600731
-0.000881991
0.000590133
-0.00102563
0.000578181
-0.00116644
0.000566678
-0.00130465
0.000556151
-0.00144051
0.000546656
-0.00157425
0.000538117
-0.00170608
0.000530429
-0.00183619
0.0005235
-0.00196474
0.000517248
-0.00209188
0.000511609
-0.00221774
0.000506525
-0.00234245
0.000501928
-0.0024661
0.000497745
0.00049404
-0.0025888
-4.79364e-05
0.000246945
-0.000151977
0.000532508
-0.00028505
0.000678025
-0.000430511
0.000738667
-0.000579337
0.000754061
-0.000727311
0.000748704
-0.000872814
0.000735636
-0.00101544
0.000720811
-0.00115528
0.00070651
-0.00129253
0.000693405
-0.00142745
0.000681577
-0.00156027
0.000670931
-0.00169117
0.000661339
-0.00182036
0.000652685
-0.00194798
0.000644868
-0.00207418
0.000637808
-0.00219909
0.000631435
-0.00232282
0.000625665
-0.00244549
0.000620406
0.000615732
-0.00256718
-4.67649e-05
0.00029371
-0.000148811
0.000634554
-0.000279826
0.00080904
-0.000423433
0.000882275
-0.000570639
0.000901266
-0.000717167
0.000895232
-0.000861339
0.000879808
-0.00100271
0.000862181
-0.00114133
0.000845128
-0.0012774
0.000829478
-0.00141116
0.000815339
-0.00154283
0.000802598
-0.0016726
0.000791108
-0.00180064
0.000780728
-0.00192712
0.00077134
-0.00205215
0.000762847
-0.00217589
0.000755168
-0.00229843
0.000748204
-0.00241986
0.000741845
0.000736166
-0.0025403
-4.53641e-05
0.000339074
-0.000145017
0.000734207
-0.000273557
0.00093758
-0.000414936
0.00102365
-0.000560195
0.00104652
-0.00070499
0.00104003
-0.000847571
0.00102239
-0.000987441
0.00100205
-0.00112462
0.000982304
-0.00125929
0.000964149
-0.00139167
0.000947725
-0.00152199
0.00093291
-0.00165041
0.00091953
-0.0017771
0.000907426
-0.00190222
0.000896458
-0.00202589
0.000886517
-0.00214823
0.000877509
-0.00226935
0.000869324
-0.00238934
0.000861834
0.00085511
-0.00250829
-4.37369e-05
0.000382811
-0.000140599
0.000831069
-0.000266246
0.00106323
-0.000405019
0.00116243
-0.000548002
0.00118951
-0.00069078
0.0011828
-0.000831513
0.00116312
-0.000969644
0.00114018
-0.00110515
0.00111781
-0.00123821
0.00109721
-0.00136902
0.00107853
-0.00149778
0.00106167
-0.00162466
0.00104641
-0.00174981
0.00103258
-0.00187338
0.00102003
-0.00199549
0.00100862
-0.00211624
0.000998259
-0.00223573
0.00098882
-0.00235406
0.000980159
0.000972339
-0.00247129
-4.18865e-05
0.000424698
-0.000135559
0.000924742
-0.000257893
0.00118556
-0.000393677
0.00129821
-0.000534057
0.00132989
-0.000674531
0.00132328
-0.000813164
0.00130176
-0.000949326
0.00127634
-0.00108296
0.00125144
-0.00121419
0.00122844
-0.00134323
0.00120757
-0.00147025
0.00118868
-0.00159541
0.00117157
-0.00171885
0.00115603
-0.0018407
0.00114188
-0.00196107
0.00112898
-0.00208004
0.00111724
-0.00219773
0.0011065
-0.00231419
0.00109662
0.00108764
-0.00242949
-3.98165e-05
0.000464514
-0.000129903
0.00101483
-0.000248497
0.00130416
-0.000380907
0.00143062
-0.00051835
0.00146733
-0.000656235
0.00146116
-0.000792516
0.00143804
-0.000926484
0.00141031
-0.00105803
0.00138299
-0.00118726
0.00135768
-0.00131435
0.00133466
-0.00143946
0.0013138
-0.00156274
0.00129485
-0.00168432
0.0012776
-0.00180429
0.00126185
-0.00192276
0.00124745
-0.00203981
0.00123428
-0.00215552
0.00122221
-0.00226994
0.00121105
0.00120083
-0.00238312
-3.75308e-05
0.000502045
-0.000123632
0.00110093
-0.000238057
0.00141858
-0.000366699
0.00155926
-0.000500868
0.0016015
-0.000635876
0.00159617
-0.000769557
0.00157172
-0.00090111
0.00154186
-0.00103037
0.00151225
-0.00115741
0.00148472
-0.00128239
0.00145963
-0.00140544
0.00143685
-0.00152671
0.00141612
-0.00164629
0.00139719
-0.00176428
0.00137984
-0.00188073
0.00136391
-0.00199573
0.00134928
-0.00210932
0.0013358
-0.00222156
0.00132329
0.00131173
-0.00233246
-3.50336e-05
0.000537079
-0.00011675
0.00118264
-0.000226569
0.0015284
-0.000351042
0.00168373
-0.000481591
0.00173205
-0.000613431
0.00172801
-0.000744263
0.00170255
-0.000873183
0.00167079
-0.000999965
0.00163903
-0.00112465
0.0016094
-0.00124736
0.00158235
-0.00136824
0.00155772
-0.00148738
0.00153526
-0.00160487
0.00151468
-0.00172078
0.00149575
-0.00183515
0.00147829
-0.00194802
0.00146215
-0.00205942
0.0014472
-0.00216937
0.00143323
0.00142021
-0.00227785
-3.23296e-05
0.000569408
-0.000109261
0.00125958
-0.000214029
0.00163317
-0.00033392
0.00180362
-0.000460496
0.00185862
-0.00058887
0.00185639
-0.000716599
0.00183028
-0.00084267
0.00179686
-0.000966786
0.00176314
-0.00108895
0.00173157
-0.00120927
0.00170267
-0.00132785
0.0016763
-0.00144478
0.00165219
-0.00156013
0.00163003
-0.00167393
0.00160955
-0.0017862
0.00159055
-0.00189693
0.00157288
-0.00200611
0.00155639
-0.00211373
0.00154086
0.00152619
-0.00221972
-2.94243e-05
0.000598832
-0.000101169
0.00133132
-0.000200433
0.00173243
-0.000315315
0.00191851
-0.000437549
0.00198086
-0.000562148
0.00198098
-0.000686515
0.00195465
-0.000809516
0.00191986
-0.000930779
0.00188441
-0.00105027
0.00185106
-0.00116806
0.00182046
-0.00128426
0.0017925
-0.00139893
0.00176686
-0.00151211
0.00174322
-0.00162383
0.00172126
-0.00173404
0.00170077
-0.00184272
0.00168155
-0.00194977
0.00166344
-0.00205513
0.00164621
0.00162969
-0.00215863
-2.63247e-05
0.000625157
-9.24813e-05
0.00139748
-0.000185775
0.00182573
-0.000295208
0.00202794
-0.000412716
0.00209837
-0.000533217
0.00210149
-0.000653951
0.00207538
-0.00077365
0.00203956
-0.000891864
0.00200262
-0.00100851
0.00196771
-0.00112366
0.00193561
-0.00123739
0.00190622
-0.00134976
0.00187923
-0.00146081
0.00185426
-0.00157052
0.00183097
-0.00167883
0.00180908
-0.00178563
0.00178836
-0.00189079
0.0017686
-0.0019941
0.00174952
0.00173088
-0.00209529
-2.30391e-05
0.000648196
-8.32065e-05
0.00145765
-0.000170054
0.00191257
-0.000273578
0.00213146
-0.000385956
0.00221074
-0.000502017
0.00221755
-0.000618828
0.00219219
-0.000734979
0.00215571
-0.000849931
0.00211757
-0.000963562
0.00208134
-0.00107592
0.00204796
-0.00118708
0.00201739
-0.00129713
0.00198928
-0.00140608
0.00196322
-0.00151392
0.00193882
-0.00162058
0.00191573
-0.00172591
0.00189369
-0.00182967
0.00187236
-0.00193145
0.00185131
0.00183011
-0.00203069
-1.95785e-05
0.000667775
-7.3359e-05
0.00151143
-0.000153275
0.00199249
-0.000250409
0.0022286
-0.000357231
0.00231757
-0.000468486
0.0023288
-0.000581062
0.00230477
-0.000693391
0.00226804
-0.000804836
0.00222902
-0.000915235
0.00219174
-0.00102462
0.00215735
-0.00113309
0.00212586
-0.00124074
0.00209693
-0.00134763
0.00207011
-0.00145377
0.00204495
-0.00155907
0.00202104
-0.0016634
0.00199802
-0.00176648
0.00197544
-0.00186766
0.00195249
0.00192831
-0.00196587
-1.5957e-05
0.000683732
-6.29602e-05
0.00155843
-0.000135451
0.00206498
-0.000225696
0.00231884
-0.000326507
0.00241838
-0.000432565
0.00243486
-0.000540565
0.00241277
-0.00064877
0.00237624
-0.000756437
0.00233668
-0.000863356
0.00229866
-0.000969558
0.00226355
-0.00107517
0.00223147
-0.00118033
0.00220209
-0.00128517
0.00217495
-0.00138978
0.00214956
-0.00149416
0.00212543
-0.00159831
0.00210216
-0.00170215
0.00207929
-0.00180501
0.00205534
0.00202686
-0.00190355
-1.21924e-05
0.000695924
-5.20402e-05
0.00159828
-0.000116605
0.00212955
-0.000199442
0.00240168
-0.000293765
0.0025127
-0.000394203
0.0025353
-0.000497253
0.00251582
-0.000600989
0.00247998
-0.000704538
0.00244023
-0.000807623
0.00240174
-0.000910256
0.00236618
-0.00101257
0.00233379
-0.00111476
0.00230427
-0.00121704
0.00227722
-0.00131963
0.00225216
-0.00142276
0.00222855
-0.00152647
0.00220588
-0.00163101
0.00218382
-0.00173706
0.00216139
0.00213159
-0.00184179
-8.30663e-06
0.000704231
-4.06404e-05
0.00163061
-9.678e-05
0.00218568
-0.000171674
0.00247658
-0.000259004
0.00260003
-0.000353373
0.00262967
-0.000451073
0.00261352
-0.000549965
0.00257887
-0.00064903
0.0025393
-0.000747918
0.00250063
-0.000846633
0.0024649
-0.00094537
0.00243252
-0.00104445
0.00240335
-0.00114432
0.0023771
-0.00124562
0.00235345
-0.00134915
0.00233208
-0.0014558
0.00231252
-0.00156597
0.00229399
-0.00168059
0.00227602
0.00226992
-0.00181893
-4.33851e-06
0.000708569
-2.88345e-05
0.00165511
-7.606e-05
0.00223291
-0.000142466
0.00254298
-0.000222278
0.00267984
-0.000310105
0.00271749
-0.000402026
0.00270544
-0.00049567
0.00267251
-0.000589837
0.00263347
-0.000684062
0.00259486
-0.000778282
0.00255912
-0.000872643
0.00252688
-0.000967392
0.0024981
-0.00106282
0.00247252
-0.00115919