1.275 	2.15223e-18 	-2.76991e-20 	-0.13158 	0.0211462 	-2.55086e-22
1.825 	2.15223e-18 	-1.39322e-20 	-0.266564 	0.00650829 	3.50359e-21
2.375 	2.15223e-18 	1.38775e-18 	-0.286013 	-0.0799506 	-1.57058e-21
2.925 	2.15223e-18 	2.78958e-18 	-0.424961 	-0.155773 	1.38231e-22
3.475 	2.15223e-18 	4.53849e-18 	-0.357752 	-0.090094 	-1.33794e-21
4.025 	2.15223e-18 	6.28755e-18 	-0.268518 	0.0802503 	-1.11208e-22
4.575 	2.15223e-18 	6.30203e-18 	-0.139013 	0.195858 	1.60276e-21
5.125 	2.15223e-18 	6.31666e-18 	-0.123661 	0.210426 	-1.16379e-21
5.675 	2.15223e-18 	6.33144e-18 	0.0401194 	0.126658 	-1.7868e-22
6.225 	2.15223e-18 	4.61166e-18 	0.1738 	-0.00857953 	-3.06177e-22
