/*--------------------------------*- C++ -*----------------------------------*\
  =========                 |
  \\      /  F ield         | OpenFOAM: The Open Source CFD Toolbox
   \\    /   O peration     | Website:  https://openfoam.org
    \\  /    A nd           | Version:  6.0
     \\/     M anipulation  |
\*---------------------------------------------------------------------------*/
FoamFile
{
    version     2.0;
    format      ascii;
    class       surfaceScalarField;
    location    "82";
    object      phi;
}
// * * * * * * * * * * * * * * * * * * * * * * * * * * * * * * * * * * * * * //

dimensions      [0 3 -1 0 0 0 0];

internalField   nonuniform List<scalar> 
15760
(
-9.31623e-06
6.45851e-05
-5.52689e-05
-3.09737e-05
0.000119027
-9.737e-05
-6.08768e-05
0.000123608
-9.37044e-05
-9.61856e-05
9.5998e-05
-6.06892e-05
-0.00013485
4.86638e-05
-9.99944e-06
-0.000175325
-1.00425e-05
5.05172e-05
-0.000216375
-7.47675e-05
0.000115818
-0.000256961
-0.000142182
0.000182768
-0.00029618
-0.000210204
0.000249424
-0.000333249
-0.000277452
0.00031452
-0.000367502
-0.000342896
0.000377149
-0.000398408
-0.000405691
0.000436597
-0.000425582
-0.000465121
0.000492295
-0.000448799
-0.000520618
0.000543835
-0.000468008
-0.000571805
0.000591014
-0.000483334
-0.000618555
0.000633881
-0.000495075
-0.000661015
0.000672756
-0.000503689
-0.000699649
0.000708263
-0.000509782
-0.000735349
0.000741442
-0.000769411
0.000773779
-0.00051415
-9.5666e-06
7.41517e-05
-3.20543e-05
0.000141515
-6.33945e-05
0.000154948
-0.000100713
0.000133317
-0.000141895
8.98454e-05
-0.000185323
3.33856e-05
-0.000229697
-3.03936e-05
-0.000273915
-9.79637e-05
-0.00031701
-0.000167109
-0.000358123
-0.000236339
-0.0003965
-0.000304519
-0.000431502
-0.000370689
-0.000462629
-0.000433994
-0.000489547
-0.000493699
-0.000512117
-0.000549236
-0.000530412
-0.000600259
-0.000544735
-0.000646693
-0.000555602
-0.000688782
-0.000563745
-0.000727206
-0.000763028
-0.000570129
-9.41873e-06
8.35704e-05
-3.18963e-05
0.000163993
-6.35782e-05
0.00018663
-0.00010166
0.000171398
-0.000144017
0.000132203
-0.000188998
7.83669e-05
-0.000235262
1.58695e-05
-0.000281663
-5.15623e-05
-0.000327189
-0.000121584
-0.000370918
-0.000192609
-0.000412013
-0.000263424
-0.000449729
-0.000332972
-0.000483444
-0.000400279
-0.000512696
-0.000464448
-0.00053723
-0.000524701
-0.000557048
-0.000580441
-0.000572429
-0.000631312
-0.000583946
-0.000677264
-0.000592473
-0.00071868
-0.000756323
-0.000599177
-8.83558e-06
9.2406e-05
-3.03735e-05
0.000185531
-6.11769e-05
0.000217433
-9.86221e-05
0.000208843
-0.000140643
0.000174223
-0.000185589
0.000123313
-0.000232105
6.23854e-05
-0.000279027
-4.63989e-06
-0.000325316
-7.52947e-05
-0.00037001
-0.000147916
-0.000412205
-0.000221229
-0.000451064
-0.000294113
-0.000485845
-0.000365499
-0.000515948
-0.000434345
-0.000540986
-0.000499663
-0.000560851
-0.000560576
-0.000575773
-0.00061639
-0.000586355
-0.000666682
-0.000593612
-0.000711423
-0.000750985
-0.00059895
-7.8115e-06
0.000100218
-2.74515e-05
0.000205171
-5.60981e-05
0.00024608
-9.14234e-05
0.000244169
-0.000131485
0.000214285
-0.000174675
0.000166504
-0.000219652
0.000107362
-0.000265255
4.09632e-05
-0.000310442
-3.01074e-05
-0.000354238
-0.000104121
-0.000395702
-0.000179764
-0.000433932
-0.000255883
-0.000468083
-0.000331348
-0.000497424
-0.000405003
-0.00052142
-0.000475667
-0.000539821
-0.000542175
-0.000552759
-0.000603452
-0.000560826
-0.000658615
-0.000565148
-0.000707101
-0.000748754
-0.000567379
-6.37779e-06
0.000106595
-2.31989e-05
0.000221992
-4.84313e-05
0.000271312
-8.01484e-05
0.000275886
-0.000116596
0.000250732
-0.000156251
0.000206159
-0.000197807
0.000148918
-0.00024013
8.32864e-05
-0.0002822
1.19626e-05
-0.000323057
-6.32641e-05
-0.000361761
-0.00014106
-0.000397382
-0.000220262
-0.00042901
-0.00029972
-0.000455807
-0.000378206
-0.000477087
-0.000454387
-0.00049243
-0.000526833
-0.000501813
-0.000594069
-0.000505742
-0.000654685
-0.000505394
-0.000707449
-0.000751493
-0.000502655
-4.60139e-06
0.000111197
-1.77915e-05
0.000235182
-3.84586e-05
0.000291979
-6.51654e-05
0.000302593
-9.64053e-05
0.000281972
-0.000130773
0.000240527
-0.000167026
0.00018517
-0.000204072
0.000120333
-0.000240936
4.88257e-05
-0.000276698
-2.75015e-05
-0.000310459
-0.000107298
-0.000341307
-0.000189415
-0.000368316
-0.000272711
-0.000390581
-0.000355941
-0.000407287
-0.000437681
-0.000417832
-0.000516288
-0.00042198
-0.000589921
-0.000420061
-0.000656604
-0.000413196
-0.000714314
-0.000761236
-0.000403452
-2.58267e-06
0.000113779
-1.15062e-05
0.000244105
-2.66495e-05
0.000307122
-4.71254e-05
0.000323069
-7.1723e-05
0.00030657
-9.91894e-05
0.000267993
-0.000128363
0.000214344
-0.000158212
0.000150182
-0.000187813
7.84276e-05
-0.000216316
1.00075e-06
-0.000242886
-8.0728e-05
-0.000266675
-0.000165626
-0.000286795
-0.000252591
-0.000302331
-0.000340406
-0.000312387
-0.000427625
-0.000316191
-0.000512484
-0.000313264
-0.000592848
-0.000303665
-0.000666203
-0.000288327
-0.000729653
-0.000780158
-0.000269405
-4.46994e-07
0.000114226
-4.70224e-06
0.000248361
-1.36336e-05
0.000316054
-2.69314e-05
0.000336366
-4.37148e-05
0.000323353
-6.29103e-05
0.000287188
-8.34564e-05
0.00023489
-0.000104388
0.000171113
-0.000124846
9.88853e-05
-0.000144049
2.02041e-05
-0.000161251
-6.3526e-05
-0.000175694
-0.000151183
-0.000186577
-0.000241708
-0.000193035
-0.000333947
-0.000194161
-0.000426499
-0.000189065
-0.000517579
-0.000177034
-0.000604879
-0.000157798
-0.000685439
-0.000131967
-0.000755484
-0.000810471
-0.000101654
1.66693e-06
0.000112559
2.20939e-06
0.000247818
-1.52761e-07
0.000318416
-5.676e-06
0.00034189
-1.38254e-05
0.000331503
-2.37281e-05
0.000297091
-3.44377e-05
0.0002456
-4.50619e-05
0.000181737
-5.48032e-05
0.000108627
-6.2949e-05
2.83499e-05
-6.88367e-05
-5.76383e-05
-7.1811e-05
-0.000148208
-7.11817e-05
-0.000242338
-6.61891e-05
-0.00033894
-5.59855e-05
-0.000436703
-3.96558e-05
-0.000533909
-1.63203e-05
-0.000628215
1.46154e-05
-0.000716375
5.2956e-05
-0.000793824
-0.000854298
9.67829e-05
3.6211e-06
0.000108938
8.8047e-06
0.000242635
1.30062e-05
0.000314214
1.54545e-05
0.000339441
1.63436e-05
0.000330614
1.63337e-05
0.000297101
1.62449e-05
0.000245688
1.68928e-05
0.000181089
1.90195e-05
0.0001065
2.32833e-05
2.4086e-05
3.02794e-05
-6.46343e-05
4.05737e-05
-0.000158503
5.4743e-05
-0.000256507
7.34165e-05
-0.000357613
9.73156e-05
-0.000460602
0.000127279
-0.000563873
0.00016423
-0.000665165
0.000208992
-0.000761137
0.000261798
-0.00084663
-0.00091356
0.00032106
5.29264e-06
0.000103646
1.46905e-05
0.000233237
2.50911e-05
0.000303814
3.52987e-05
0.000329234
4.51943e-05
0.000320718
5.52268e-05
0.000287069
6.60844e-05
0.000234831
7.85053e-05
0.000168668
9.31855e-05
9.18198e-05
0.000110749
6.52298e-06
0.000131749
-8.56347e-05
0.000156692
-0.000183445
0.000186061
-0.000285876
0.000220353
-0.000391905
0.000260124
-0.000500373
0.000306039
-0.000609788
0.00035891
-0.000718036
0.000419621
-0.000821848
0.000488732
-0.000915742
-0.000989896
0.000565068
6.58693e-06
9.70588e-05
1.9547e-05
0.000220277
3.54677e-05
0.000287893
5.28502e-05
0.000311851
7.13159e-05
0.000302252
9.11198e-05
0.000267265
0.000112823
0.000213127
0.000137092
0.000144399
0.000164589
6.43227e-05
0.000195924
-2.4812e-05
0.00023164
-0.00012135
0.000272212
-0.000224018
0.000318061
-0.000331724
0.000369562
-0.000443407
0.000427085
-0.000557895
0.000491046
-0.000673749
0.000561993
-0.000788984
0.00064065
-0.000900504
0.000727702
-0.00100279
-0.00108458
0.000822384
7.44748e-06
8.96113e-05
2.31641e-05
0.00020456
4.36941e-05
0.000267363
6.73815e-05
0.000288164
9.36646e-05
0.000275969
0.000122643
0.000238287
0.00015477
0.000181
0.000190656
0.000108513
0.000230946
2.40331e-05
0.000276256
-7.01222e-05
0.00032714
-0.000172234
0.000384066
-0.000280944
0.000447402
-0.000395061
0.000517409
-0.000513414
0.000594246
-0.000634732
0.000678017
-0.00075752
0.000768875
-0.000879842
0.000867159
-0.000998788
0.000973409
-0.00110904
-0.00119835
0.00108718
7.86182e-06
8.17495e-05
2.54661e-05
0.000186956
4.95783e-05
0.000243251
7.85438e-05
0.000259198
0.000111716
0.000242797
0.000149097
0.000200905
0.000191072
0.000139024
0.000238221
6.13641e-05
0.000291194
-2.8939e-05
0.000350627
-0.000129555
0.00041709
-0.000238697
0.000491037
-0.000354891
0.000572766
-0.000476789
0.000662382
-0.00060303
0.000759787
-0.000732137
0.0008647
-0.000862433
0.000976763
-0.000991905
0.00109575
-0.00111777
0.00122178
-0.00123508
-0.00133114
0.00135457
7.86299e-06
7.38865e-05
2.65232e-05
0.000168296
5.32089e-05
0.000216565
8.64277e-05
0.00022598
0.000125559
0.000203666
0.000170589
0.000155876
0.000221887
8.77258e-05
0.00028004
3.2111e-06
0.00034572
-9.46185e-05
0.000419584
-0.000203419
0.000502192
-0.000321306
0.000593934
-0.000446633
0.000694959
-0.000577815
0.000805127
-0.000713198
0.000923975
-0.000850985
0.00105074
-0.000989199
0.00118446
-0.00112562
0.00132421
-0.00125752
0.00146951
-0.00138038
-0.00148167
0.00162004
7.52659e-06
6.63599e-05
2.65468e-05
0.000149275
5.49545e-05
0.000188158
9.15708e-05
0.000189363
0.000135921
0.000159316
0.000188062
0.000103735
0.000248413
2.73743e-05
0.000317603
-6.59785e-05
0.000396328
-0.000173344
0.000485232
-0.000292324
0.000584794
-0.000420868
0.000695224
-0.000557062
0.000816379
-0.00069897
0.000947712
-0.000844531
0.00108825
-0.000991522
0.00123663
-0.00113758
0.0013912
-0.0012802
0.00155033
-0.00141665
0.00171284
-0.00154289
-0.00164703
0.0018782
6.96374e-06
5.93962e-05
2.5869e-05
0.00013037
5.54273e-05
0.000158599
9.49052e-05
0.000149885
0.000144086
0.000110135
0.000203189
4.46328e-05
0.000272737
-4.21736e-05
0.000353414
-0.000146656
0.000445909
-0.000265839
0.000550767
-0.000397181
0.000668242
-0.000538343
0.000798184
-0.000687004
0.000939951
-0.000840738
0.00109238
-0.000996958
0.0012538
-0.00115294
0.00142213
-0.0013059
0.00159503
-0.0014531
0.00177022
-0.00159184
0.00194596
-0.00171863
-0.00182249
0.00212143
6.30962e-06
5.30866e-05
2.49062e-05
0.000111773
5.54127e-05
0.000128093
9.76437e-05
0.000107654
0.000151736
5.60422e-05
0.000218137
-2.17677e-05
0.000297501
-0.000121538
0.000390539
-0.000239694
0.000497841
-0.000373141
0.000619693
-0.000519033
0.000755921
-0.000674571
0.000905775
-0.000836858
0.00106787
-0.00100283
0.00124021
-0.0011693
0.00142027
-0.001333
0.00160517
-0.0014908
0.00179187
-0.00163981
0.00197758
-0.00177755
0.00216028
-0.00190134
-0.00200151
0.0023393
5.70843e-06
4.73781e-05
2.41094e-05
9.33725e-05
5.57701e-05
9.64321e-05
0.000101116
6.23082e-05
0.000160697
-3.53883e-06
0.000235217
-9.62874e-05
0.000325435
-0.000211756
0.000431995
-0.000346254
0.000555219
-0.000496365
0.000694913
-0.000658726
0.000850212
-0.000829871
0.00101951
-0.00100616
0.00120047
-0.00118379
0.00139013
-0.00135896
0.00158509
-0.00152796
0.00178172
-0.00168743
0.0019764
-0.00183449
0.00216562
-0.00196677
0.00234613
-0.00208184
-0.0021733
0.00251792
5.29539e-06
4.20827e-05
2.39069e-05
7.4761e-05
5.73177e-05
6.30213e-05
0.00010658
1.30463e-05
0.000172664
-6.96231e-05
0.000256498
-0.000180121
0.000358848
-0.000314106
0.000480116
-0.000467523
0.000620122
-0.00063637
0.00077791
-0.000816515
0.000951659
-0.00100362
0.00113868
-0.00119318
0.00133557
-0.00138068
0.00153841
-0.00156179
0.00174306
-0.00173262
0.00194551
-0.00188988
0.00214208
-0.00203106
0.00232971
-0.0021544
0.00250679
-0.00225893
-0.00234359
0.00267708
5.18243e-06
3.69003e-05
2.46539e-05
5.52895e-05
6.07274e-05
2.69479e-05
0.000115042
-4.12684e-05
0.000188936
-0.000143517
0.000283453
-0.000274638
0.000399188
-0.000429841
0.000536057
-0.000604392
0.000693085
-0.000793398
0.000868275
-0.000991705
0.00105861
-0.00119396
0.00126021
-0.00139478
0.00146861
-0.00158907
0.00167907
-0.00177226
0.00188702
-0.00194057
0.00208836
-0.00209122
0.00227973
-0.00222244
0.00245883
-0.0023335
0.0026246
-0.0024247
-0.00249676
0.00277777
5.44249e-06
3.14578e-05
2.65877e-05
3.41443e-05
6.64422e-05
-1.29066e-05
0.000127135
-0.000101961
0.000210244
-0.000226627
0.000316749
-0.000381143
0.000446818
-0.00055991
0.000599585
-0.000757159
0.000772981
-0.000966795
0.000963725
-0.00118245
0.00116749
-0.00139772
0.00137922
-0.00160651
0.00159356
-0.00180341
0.00180532
-0.00198402
0.00200986
-0.00214511
0.00220342
-0.00228477
0.00238326
-0.00240228
0.00254776
-0.002498
0.00269622
-0.00257315
-0.00262971
0.00282917
6.10736e-06
2.53505e-05
2.98155e-05
1.04362e-05
7.4647e-05
-5.77382e-05
0.000143065
-0.000170378
0.000236695
-0.000320257
0.000356193
-0.00050064
0.000500999
-0.000704717
0.000669148
-0.000925307
0.000857217
-0.00115486
0.0010605
-0.00138574
0.00127339
-0.00161061
0.00148986
-0.00182298
0.00170406
-0.00201761
0.00191076
-0.00219071
0.00210575
-0.0023401
0.00228603
-0.00246505
0.00244987
-0.00256612
0.00259669
-0.00264482
0.00272689
-0.00270335
-0.00274482
0.002842
7.17058e-06
1.81799e-05
3.43217e-05
-1.6715e-05
8.52838e-05
-0.0001087
0.000162645
-0.000247739
0.000267822
-0.000425434
0.000400837
-0.000633655
0.000560071
-0.000863951
0.000742171
-0.00110741
0.000942192
-0.00135489
0.00115402
-0.00159756
0.00137095
-0.00182754
0.0015864
-0.00203843
0.00179447
-0.00222568
0.00199042
-0.00238666
0.00217091
-0.00252059
0.00233404
-0.00262818
0.00247924
-0.00271132
0.00260702
-0.00277261
0.00271874
-0.00281508
-0.00284239
0.00281632
8.59769e-06
9.5822e-06
3.99969e-05
-4.81142e-05
9.81042e-05
-0.000166808
0.000185378
-0.000335012
0.000302718
-0.000542775
0.000449172
-0.000780109
0.00062174
-0.00103652
0.000815465
-0.00130113
0.00102385
-0.00156327
0.00123954
-0.00181325
0.00145515
-0.00204315
0.001664
-0.00224729
0.0018607
-0.00242238
0.00204145
-0.00256741
0.00220409
-0.00268323
0.00234798
-0.00277208
0.00247373
-0.00283707
0.00258284
-0.00288172
0.0026774
-0.00290963
-0.00292473
0.00275974
1.0339e-05
-7.5682e-07
4.66733e-05
-8.44484e-05
0.000112736
-0.00023287
0.000210562
-0.000432838
0.000340193
-0.000672406
0.000499349
-0.000939265
0.000683382
-0.00122055
0.000885633
-0.00150338
0.00109818
-0.00177582
0.00131281
-0.00202788
0.00152192
-0.00225227
0.00171932
-0.00244468
0.00190058
-0.00260364
0.00206317
-0.00273
0.00220628
-0.00282634
0.00233051
-0.0028963
0.00243744
-0.002944
0.00252931
-0.00297359
0.00260863
-0.00298895
-0.00299396
0.00267785
1.2341e-05
-1.30978e-05
5.41577e-05
-0.000126265
0.000128743
-0.000307456
0.000237384
-0.000541479
0.0003789
-0.000813922
0.000549365
-0.00110973
0.000742303
-0.00141349
0.000949412
-0.00171049
0.00116166
-0.00198806
0.00137043
-0.00223665
0.00156853
-0.00245037
0.00175071
-0.00262686
0.00191387
-0.0027668
0.0020569
-0.00287303
0.0021803
-0.00294974
0.0022857
-0.00300171
0.00237545
-0.00303375
0.00245218
-0.00305032
0.00251857
-0.00305534
-0.00305242
0.00257703
1.45531e-05
-2.7651e-05
6.2252e-05
-0.000173964
0.000145663
-0.000390867
0.000264978
-0.000660794
0.000417438
-0.000966382
0.000597213
-0.0012895
0.000795953
-0.00161223
0.00100394
-0.00191848
0.00121148
-0.00219561
0.00141017
-0.00243534
0.0015937
-0.00263389
0.00175816
-0.00279132
0.00190195
-0.0029106
0.00202535
-0.00299643
0.00212998
-0.00305436
0.00221825
-0.00308998
0.00229294
-0.00310844
0.00235682
-0.00311421
0.0024125
-0.00311102
-0.0031021
0.00246218
1.69297e-05
-4.45807e-05
7.07614e-05
-0.000227796
0.000163028
-0.000483134
0.000292467
-0.000790232
0.000454419
-0.00112833
0.000640992
-0.00147608
0.000842083
-0.00181332
0.00104695
-0.00212335
0.00124581
-0.00239446
0.00143099
-0.00262052
0.0015975
-0.0028004
0.001743
-0.00293682
0.00186736
-0.00303496
0.00197208
-0.00310115
0.00205961
-0.00314189
0.00213284
-0.00316321
0.00219472
-0.00317031
0.00224794
-0.00316743
0.00229486
-0.00315794
-0.00314465
0.00233741
1.94282e-05
-6.40089e-05
7.9492e-05
-0.000287859
0.000180365
-0.000584007
0.000318977
-0.000928845
0.000488513
-0.00129787
0.000679004
-0.00166657
0.000878878
-0.0020132
0.00107689
-0.00232135
0.00126372
-0.00258129
0.00143293
-0.00278973
0.00158111
-0.00294858
0.0017075
-0.00306321
0.00181329
-0.00314075
0.00190091
-0.00318877
0.00197335
-0.00321434
0.00203372
-0.00322358
0.00208487
-0.00322146
0.00212929
-0.00321185
0.00216903
-0.00319768
-0.00318129
0.00220567
2.20057e-05
-8.60145e-05
8.82463e-05
-0.0003541
0.000197196
-0.000692957
0.000343659
-0.00107531
0.000518506
-0.00147272
0.000709834
-0.0018579
0.000905035
-0.0022084
0.00109293
-0.00250925
0.00126522
-0.00275358
0.00141699
-0.00294151
0.00154652
-0.0030781
0.00165447
-0.00317116
0.00174312
-0.0032294
0.00181553
-0.00326118
0.00187496
-0.00327377
0.00192446
-0.00327308
0.00196669
-0.00326369
0.00200381
-0.00324897
0.00203754
-0.00323141
-0.0032129
0.00206915
2.46159e-05
-0.00011063
9.68186e-05
-0.000426303
0.000213045
-0.000809184
0.000365709
-0.00122797
0.000543346
-0.00165035
0.000732414
-0.00204696
0.000919807
-0.00239579
0.00109498
-0.00268442
0.00125104
-0.00290964
0.0013848
-0.00307527
0.00149611
-0.00318941
0.00158687
-0.00326192
0.00166011
-0.00330265
0.00171926
-0.00332033
0.00176758
-0.00332209
0.00180795
-0.00331345
0.00184269
-0.00329843
0.00187364
-0.00327993
0.00190219
-0.00325996
-0.00324004
0.00192934
2.72077e-05
-0.000137838
0.000104996
-0.000504091
0.000227447
-0.000931635
0.000384405
-0.00138493
0.000562194
-0.00182814
0.000746065
-0.00223083
0.000922985
-0.00257271
0.00108353
-0.00284497
0.0012225
-0.00304861
0.00133839
-0.00319117
0.00143246
-0.00328348
0.00150757
-0.00333702
0.00156721
-0.0033623
0.00161491
-0.00336802
0.00165378
-0.00336096
0.00168639
-0.00334605
0.00171473
-0.00332678
0.00174032
-0.00330552
0.00176425
-0.00328389
-0.00326306
0.00178727
2.97251e-05
-0.000167563
0.000112561
-0.000586927
0.000239962
-0.00105904
0.000399139
-0.00154411
0.000574462
-0.00200347
0.0007505
-0.00240687
0.000914842
-0.00273705
0.00105956
-0.00298969
0.00118122
-0.00317027
0.00127993
-0.00328988
0.00135809
-0.00336163
0.00141918
-0.00339811
0.00146693
-0.00341005
0.00150477
-0.00340586
0.00153553
-0.00339172
0.00156145
-0.00337197
0.00158419
-0.00334952
0.00160495
-0.00332628
0.00162458
-0.00330352
-0.00328214
0.00164366
3.21089e-05
-0.000199672
0.000119304
-0.000674122
0.000250204
-0.00118994
0.000409443
-0.00170334
0.000579826
-0.00217385
0.000745797
-0.00257284
0.000896041
-0.0028873
0.00102436
-0.00311801
0.00112905
-0.00327496
0.0012116
-0.00337244
0.00127528
-0.00342531
0.00132395
-0.00344678
0.00136133
-0.00344744
0.00139062
-0.00343515
0.00141433
-0.00341543
0.00143434
-0.00339198
0.00145201
-0.00336718
0.00146827
-0.00334254
0.00148379
-0.00331904
-0.00329733
0.00149899
3.42988e-05
-0.000233971
0.000125029
-0.000764852
0.000257852
-0.00132276
0.00041501
-0.0018605
0.000578222
-0.00233706
0.000732345
-0.00272697
0.000867524
-0.00302248
0.000979367
-0.00322985
0.00106779
-0.00336338
0.00113541
-0.00344005
0.00118606
-0.00347596
0.00122376
-0.00348448
0.00125207
-0.00347574
0.00127386
-0.00345694
0.00129131
-0.00343288
0.00130595
-0.00340663
0.00131889
-0.00338011
0.00133085
-0.0033545
0.00134232
-0.00333052
-0.00330864
0.00135363
3.62365e-05
-0.000270208
0.000129564
-0.00085818
0.000262668
-0.00145586
0.0004157
-0.00201353
0.00056982
-0.00249118
0.000710774
-0.00286792
0.000830406
-0.00314211
0.00092611
-0.00332555
0.000999209
-0.00343648
0.00105317
-0.00349401
0.00109215
-0.00351495
0.00112014
-0.00351246
0.00114042
-0.00349602
0.00115552
-0.00347205
0.00116727
-0.00344463
0.00117692
-0.00341628
0.00118532
-0.00338852
0.00119305
-0.00336223
0.00120048
-0.00333794
-0.003316
0.00120784
3.78679e-05
-0.000308075
0.000132769
-0.000953081
0.000264503
-0.0015876
0.00041153
-0.00216056
0.00055498
-0.00263463
0.000681879
-0.00299482
0.000785884
-0.00324611
0.000866057
-0.00340573
0.000924886
-0.00349531
0.000966424
-0.00353555
0.000994963
-0.00354349
0.00101428
-0.00353178
0.00102737
-0.0035091
0.00103638
-0.00348106
0.00104282
-0.00345107
0.00104769
-0.00342116
0.00105167
-0.00339249
0.00105519
-0.00336575
0.00105853
-0.00334129
-0.00331935
0.00106187
3.91456e-05
-0.000347221
0.000134541
-0.00104848
0.000263299
-0.00171636
0.000402658
-0.00229992
0.000534212
-0.00276619
0.000646551
-0.00310716
0.000735157
-0.00333472
0.000800582
-0.00347115
0.000846224
-0.00354095
0.000876491
-0.00356582
0.00089563
-0.00356263
0.000907146
-0.0035433
0.000913662
-0.00351562
0.000917006
-0.0034844
0.000918395
-0.00345245
0.000918622
-0.00342138
0.000918205
-0.00339208
0.000917486
-0.00336503
0.000916678
-0.00334048
-0.00331859
0.000915916
4.00356e-05
-0.000387257
0.000134827
-0.00114327
0.0002591
-0.00184063
0.000389372
-0.00243019
0.000508138
-0.00288495
0.000605734
-0.00320475
0.000679393
-0.00340838
0.00073094
-0.0035227
0.000764441
-0.00357445
0.000784463
-0.00358584
0.000795077
-0.00357324
0.000799461
-0.00354768
0.000799881
-0.00351604
0.000797851
-0.00348237
0.000794346
-0.00344895
0.000789983
-0.00341702
0.000785166
-0.00338726
0.000780158
-0.00336002
0.000775124
-0.00333545
-0.00331363
0.000770167
4.04991e-05
-0.000427756
0.000133584
-0.00123635
0.000251983
-0.00195903
0.000371997
-0.00255021
0.000477384
-0.00299034
0.000560305
-0.00328767
0.000619612
-0.00346769
0.000658177
-0.00356127
0.000680508
-0.00359678
0.00069117
-0.0035965
0.000693974
-0.00357605
0.000691747
-0.00354545
0.000686412
-0.0035107
0.000679205
-0.00347516
0.000670894
-0.00344064
0.000661959
-0.00340809
0.000652711
-0.00337801
0.000643356
-0.00335067
0.000634022
-0.00332611
-0.0033044
0.000624789
4.05211e-05
-0.000468277
0.000130836
-0.00132667
0.000242125
-0.00207032
0.000350963
-0.00265904
0.000442641
-0.00308202
0.000511149
-0.00335618
0.000556785
-0.00351332
0.000583239
-0.00358772
0.000595274
-0.00360882
0.000597324
-0.00359855
0.000592889
-0.00357161
0.00058444
-0.003537
0.000573588
-0.00349985
0.000561327
-0.0034629
0.000548253
-0.00342756
0.000534735
-0.00339457
0.000521014
-0.00336429
0.000507251
-0.0033369
0.000493549
-0.00331241
-0.00329082
0.000479971
4.00916e-05
-0.000508368
0.000126629
-0.00141321
0.000229739
-0.00217343
0.000326716
-0.00275602
0.000404573
-0.00315987
0.000459067
-0.00341068
0.000491747
-0.003546
0.000506911
-0.00360288
0.000509412
-0.00361132
0.000503469
-0.00359261
0.00049224
-0.00356038
0.000477857
-0.00352262
0.00046165
-0.00348365
0.000444406
-0.00344566
0.000426583
-0.00340974
0.000408458
-0.00337644
0.000390218
-0.00334605
0.000371991
-0.00331868
0.000353862
-0.00329428
-0.00327284
0.000335882
3.92107e-05
-0.000547579
0.000121038
-0.00149503
0.000215072
-0.00226746
0.000299714
-0.00284066
0.000363812
-0.00322397
0.000404781
-0.00345165
0.000425219
-0.00356644
0.000429842
-0.00360751
0.000423466
-0.00360494
0.000410031
-0.00357917
0.00039235
-0.0035427
0.000372239
-0.00350251
0.000350783
-0.00346219
0.000328594
-0.00342347
0.000306016
-0.00338716
0.000283254
-0.00335368
0.000260452
-0.00332325
0.000237713
-0.00329594
0.000215108
-0.00327168
-0.00325041
0.000192682
3.78872e-05
-0.000585466
0.00011416
-0.00157131
0.000198388
-0.00235169
0.000270407
-0.00291268
0.000320942
-0.00327451
0.000348927
-0.00347963
0.000357812
-0.00357533
0.000352566
-0.00360226
0.000337867
-0.00359024
0.000317342
-0.00355865
0.000293467
-0.00351882
0.000267772
-0.00347681
0.00024113
-0.00343555
0.000214011
-0.00339635
0.000186664
-0.00335982
0.000159236
-0.00332625
0.000131833
-0.00329584
0.00010454
-0.00326865
7.74205e-05
-0.00324456
-0.00322351
5.05168e-05
3.61377e-05
-0.000621604
0.000106108
-0.00164128
0.000179963
-0.00242554
0.000239227
-0.00297194
0.000276497
-0.00331178
0.000292062
-0.0034952
0.000290043
-0.00357331
0.000275519
-0.00358774
0.000252959
-0.00356768
0.000225661
-0.00353135
0.00019578
-0.00348894
0.000164596
-0.00344563
0.000132804
-0.00340376
0.000100756
-0.0033643
6.86212e-05
-0.00332768
3.64979e-05
-0.00329413
4.46161e-06
-0.00326381
-2.74182e-05
-0.00323677
-5.90808e-05
-0.00321289
-0.00319211
-9.04838e-05
3.39856e-05
-0.000655589
9.7008e-05
-0.0017043
0.00016007
-0.0024886
0.00020658
-0.00301846
0.000230953
-0.00333615
0.000234667
-0.00349891
0.000222341
-0.00356098
0.000199055
-0.00356445
0.000169015
-0.00353764
0.000135189
-0.00349752
9.94382e-05
-0.00345319
6.28245e-05
-0.00340902
2.58962e-05
-0.00336683
-1.10923e-05
-0.00332731
-4.80342e-05
-0.00329074
-8.48771e-05
-0.00325729
-0.000121573
-0.00322711
-0.000158066
-0.00320027
-0.000194293
-0.00317667
-0.00315619
-0.000230207
3.14597e-05
-0.000687049
8.69911e-05
-0.00175983
0.000138975
-0.00254059
0.000172842
-0.00305232
0.000184734
-0.00334804
0.000177153
-0.00349133
0.000155068
-0.0035389
0.000123465
-0.00353285
8.62569e-05
-0.00350044
4.60895e-05
-0.00345736
4.56101e-06
-0.00341167
-3.74526e-05
-0.003367
-7.95215e-05
-0.00332476
-0.000121468
-0.00328537
-0.000163239
-0.00324897
-0.000204823
-0.0032157
-0.0002462
-0.00318574
-0.000287324
-0.00315915
-0.000328129
-0.00313586
-0.00311576
-0.000368557
2.85934e-05
-0.000715643
7.61924e-05
-0.00180743
0.000116935
-0.00258133
0.000138355
-0.00307374
0.000138215
-0.0033479
0.000119876
-0.00347299
8.85267e-05
-0.00350755
4.89891e-05
-0.00349331
4.8667e-06
-0.00345631
-4.15011e-05
-0.00341099
-8.87501e-05
-0.00336442
-0.000136158
-0.00331959
-0.000183388
-0.00327753
-0.000230319
-0.00323843
-0.000276945
-0.00320234
-0.000323291
-0.00316936
-0.000369368
-0.00313966
-0.00041514
-0.00311338
-0.000460531
-0.00309047
-0.00307083
-0.00050547
2.54233e-05
-0.000741066
6.47469e-05
-0.00184675
9.41918e-05
-0.00261078
0.000103432
-0.00308298
9.1725e-05
-0.0033362
6.31405e-05
-0.0034444
2.29744e-05
-0.00346738
-2.41672e-05
-0.00344617
-7.4997e-05
-0.00340548
-0.000127462
-0.00335852
-0.000180402
-0.00331148
-0.00023322
-0.00326678
-0.000285648
-0.0032251
-0.000337606
-0.00318648
-0.000389122
-0.00315083
-0.000440258
-0.00311822
-0.000491057
-0.00308886
-0.000541498
-0.00306294
-0.000591492
-0.00304048
-0.00302137
-0.000640943
2.1989e-05
-0.000763055
5.2788e-05
-0.00187755
7.09729e-05
-0.00262896
6.83549e-05
-0.00308036
4.55568e-05
-0.0033134
7.21356e-06
-0.00340606
-4.13633e-05
-0.0034188
-9.58214e-05
-0.00339171
-0.000153188
-0.00334812
-0.000211673
-0.00330004
-0.000270297
-0.00325285
-0.000328562
-0.00320851
-0.000386246
-0.00316742
-0.000443293
-0.00312943
-0.000499752
-0.00309437
-0.000555722
-0.00306225
-0.000611283
-0.0030333
-0.000666436
-0.00300778
-0.000721076
-0.00298584
-0.00296738
-0.000775072
1.83317e-05
-0.000781387
4.04458e-05
-0.00189967
4.74911e-05
-0.00263601
3.33823e-05
-0.00306626
-2.8755e-08
-0.00327999
-4.76673e-05
-0.00335842
-0.000104283
-0.00336219
-0.000165803
-0.00333019
-0.00022956
-0.00328436
-0.000294009
-0.00323559
-0.000358325
-0.00318854
-0.000422091
-0.00314475
-0.000485111
-0.0031044
-0.000547336
-0.0030672
-0.000608822
-0.00303288
-0.000669696
-0.00300138
-0.000730085
-0.00297291
-0.000790027
-0.00294784
-0.000849405
-0.00292646
-0.00290876
-0.000908028
1.44939e-05
-0.000795881
2.78464e-05
-0.00191302
2.39449e-05
-0.0026321
-1.25191e-06
-0.00304106
-4.47962e-05
-0.00323644
-0.000101287
-0.00330193
-0.000165595
-0.00329788
-0.000233942
-0.00326184
-0.000303958
-0.00321434
-0.000374321
-0.00316523
-0.000444346
-0.00311851
-0.000513681
-0.00307541
-0.000582145
-0.00303593
-0.000649673
-0.00299968
-0.000716307
-0.00296625
-0.000782191
-0.00293549
-0.000847504
-0.0029076
-0.000912339
-0.00288301
-0.00097658
-0.00286222
-0.00284541
-0.00103993
1.0519e-05
-0.000806399
1.51111e-05
-0.00191761
5.1888e-07
-0.00261751
-3.53335e-05
-0.00300521
-8.85311e-05
-0.00318324
-0.000153444
-0.00323702
-0.000225113
-0.00322621
-0.000300062
-0.00318689
-0.000376205
-0.0031382
-0.000452429
-0.003089
-0.000528175
-0.00304277
-0.000603154
-0.00300043
-0.000677193
-0.00296189
-0.000750194
-0.00292668
-0.000822159
-0.00289428
-0.000893215
-0.00286444
-0.000963585
-0.00283723
-0.00103344
-0.00281316
-0.00110266
-0.00279299
-0.00277725
-0.00117082
6.45036e-06
-0.00081285
2.35557e-06
-0.00191352
-2.26158e-05
-0.00259254
-6.86668e-05
-0.00295915
-0.000131036
-0.00312088
-0.00020395
-0.00316411
-0.000282655
-0.0031475
-0.000363977
-0.00310557
-0.0004461
-0.00305608
-0.000528106
-0.003007
-0.000609564
-0.00296131
-0.00069025
-0.00291975
-0.000770006
-0.00288214
-0.000848699
-0.00284798
-0.000926262
-0.00281672
-0.00100276
-0.00278794
-0.00107842
-0.00276156
-0.0011535
-0.00273808
-0.00122791
-0.00271858
-0.00270405
-0.00130112
2.33099e-06
-0.000815181
-1.03112e-05
-0.00190087
-4.53019e-05
-0.00255755
-0.000101074
-0.00290338
-0.000172131
-0.00304982
-0.000252627
-0.00308361
-0.000338038
-0.00306209
-0.000425486
-0.00301812
-0.000513412
-0.00296815
-0.000601084
-0.00291932
-0.000688197
-0.00287419
-0.00077461
-0.00283333
-0.000860204
-0.00279655
-0.000944834
-0.00276335
-0.00102836
-0.0027332
-0.00111074
-0.00270555
-0.00119217
-0.00268013
-0.00127299
-0.00265727
-0.00135319
-0.00263837
-0.0026247
-0.00143254
-1.79763e-06
-0.000813383
-2.27878e-05
-0.00187988
-6.73972e-05
-0.00251294
-0.000132395
-0.00283839
-0.000211653
-0.00297056
-0.000299307
-0.00299596
-0.000391078
-0.00297032
-0.000484378
-0.00292482
-0.000577886
-0.00287464
-0.000671047
-0.00282616
-0.000763687
-0.00278155
-0.000855772
-0.00274125
-0.000947269
-0.00270505
-0.00103807
-0.00267255
-0.001128
-0.00264326
-0.00121694
-0.00261662
-0.00130498
-0.00259209
-0.00139258
-0.00256967
-0.00147998
-0.00255098
-0.00253659
-0.00156808
-5.89631e-06
-0.000807487
-3.49829e-05
-0.0018508
-8.87762e-05
-0.00245915
-0.000162491
-0.00276467
-0.000249457
-0.00288359
-0.000343837
-0.00290158
-0.000441601
-0.00287256
-0.000540434
-0.00282599
-0.000639237
-0.00277584
-0.000737617
-0.00272778
-0.000835539
-0.00268363
-0.000933105
-0.00264368
-0.00103043
-0.00260772
-0.00112757
-0.00257541
-0.00122444
-0.00254639
-0.00132091
-0.00252016
-0.00141695
-0.00249604
-0.00151297
-0.00247365
-0.00160956
-0.00245439
-0.0024364
-0.00170975
-9.92926e-06
-0.000797558
-4.68161e-05
-0.00181391
-0.000109333
-0.00239663
-0.000191249
-0.00268276
-0.000285429
-0.00278941
-0.000386094
-0.00280091
-0.000489459
-0.00276919
-0.000593457
-0.00272199
-0.000697179
-0.00267212
-0.000800372
-0.00262459
-0.000903115
-0.00258089
-0.00100565
-0.00254115
-0.00110829
-0.00250508
-0.00121139
-0.00247232
-0.00131526
-0.00244253
-0.00142008
-0.00241533
-0.00152597
-0.00239016
-0.00163354
-0.00236608
-0.00174536
-0.00234257
-0.0023333
-0.00184846
-1.38516e-05
-0.000783706
-5.81989e-05
-0.00176956
-0.000128959
-0.00232587
-0.000218558
-0.00259316
-0.000319464