/*--------------------------------*- C++ -*----------------------------------*\
  =========                 |
  \\      /  F ield         | OpenFOAM: The Open Source CFD Toolbox
   \\    /   O peration     | Website:  https://openfoam.org
    \\  /    A nd           | Version:  6.0
     \\/     M anipulation  |
\*---------------------------------------------------------------------------*/
FoamFile
{
    version     2.0;
    format      ascii;
    class       volVectorField;
    location    "55";
    object      U;
}
// * * * * * * * * * * * * * * * * * * * * * * * * * * * * * * * * * * * * * //

dimensions      [0 1 -1 0 0 0 0];

internalField   nonuniform List<vector> 
12500
(
(-0.000458223 0.00257673 -1.18607e-21)
(-0.00252087 0.0109369 1.6689e-20)
(-0.00630579 0.0211453 -2.4316e-20)
(-0.0109852 0.0321749 1.12168e-20)
(-0.0161142 0.0433137 6.8497e-22)
(-0.0214182 0.0541213 -1.41733e-21)
(-0.0266784 0.0643613 -2.0656e-20)
(-0.0317265 0.0739416 1.13859e-20)
(-0.0364362 0.0828678 7.52162e-21)
(-0.0407135 0.0912046 7.67876e-21)
(-0.0444901 0.099048 -1.29962e-20)
(-0.0477191 0.106505 7.58354e-21)
(-0.0503727 0.113683 -3.57124e-21)
(-0.0524396 0.120681 6.05692e-21)
(-0.0539235 0.12759 -1.54666e-20)
(-0.0548413 0.134489 2.24187e-20)
(-0.0552222 0.141453 -4.31859e-21)
(-0.0551056 0.148551 -1.5827e-20)
(-0.0545402 0.155849 8.07626e-21)
(-0.053583 0.163418 -7.70401e-21)
(-0.0523064 0.171326 6.91763e-21)
(-0.0507921 0.17965 9.1785e-21)
(-0.049051 0.18847 9.05323e-22)
(-0.0469942 0.197887 -2.62107e-20)
(-0.0452407 0.208028 1.45981e-20)
(-0.000525343 0.00349494 2.1131e-20)
(-0.00265693 0.0132292 -5.66896e-20)
(-0.00632631 0.02442 1.68629e-20)
(-0.0107789 0.0361216 1.12851e-20)
(-0.0155997 0.0476803 -9.05746e-21)
(-0.0205293 0.058699 -5.15004e-20)
(-0.0253632 0.0689742 1.54015e-20)
(-0.0299457 0.0784402 -2.90362e-20)
(-0.0341609 0.0871238 3.48784e-20)
(-0.0379237 0.0951083 -4.6712e-20)
(-0.0411729 0.102507 2.50152e-20)
(-0.0438672 0.109443 7.9984e-21)
(-0.0459828 0.11604 -2.03923e-20)
(-0.047511 0.122414 -9.04245e-21)
(-0.0484569 0.128671 6.60932e-20)
(-0.0488379 0.13491 -5.84417e-20)
(-0.0486828 0.14122 1.39672e-20)
(-0.0480306 0.147687 2.42036e-20)
(-0.0469288 0.154394 -5.61039e-21)
(-0.0454346 0.161426 3.91106e-20)
(-0.0436216 0.16887 7.0169e-21)
(-0.0415767 0.176819 -2.47516e-21)
(-0.0393083 0.185375 -4.92225e-20)
(-0.0367009 0.194666 4.53453e-20)
(-0.0344527 0.204823 -9.09148e-20)
(-0.000642532 0.00427563 6.7497e-20)
(-0.00292395 0.0151831 2.33447e-20)
(-0.00654337 0.0272147 -3.06082e-20)
(-0.0108185 0.0394879 1.31397e-20)
(-0.0153651 0.0513967 1.25243e-20)
(-0.0199406 0.0625795 4.74594e-20)
(-0.0243563 0.0728604 -6.03976e-20)
(-0.0284704 0.0821953 -9.69154e-21)
(-0.0321792 0.0906287 -4.05677e-20)
(-0.0354071 0.0982594 -3.39491e-20)
(-0.0381012 0.105215 4.41661e-20)
(-0.0402266 0.111634 -1.4753e-19)
(-0.0417639 0.117654 -4.43009e-21)
(-0.0427075 0.123405 -8.85475e-20)
(-0.0430642 0.129011 -1.03511e-20)
(-0.042852 0.134584 1.27427e-20)
(-0.0420998 0.14023 -6.87253e-20)
(-0.040846 0.14605 -4.29721e-20)
(-0.0391384 0.152145 -5.10095e-20)
(-0.0370341 0.158616 8.01068e-20)
(-0.0346097 0.165568 2.93169e-20)
(-0.0319584 0.173115 -1.29749e-19)
(-0.0290896 0.181382 -6.25619e-20)
(-0.0258652 0.190534 -6.98313e-20)
(-0.0230539 0.200712 1.9855e-19)
(-0.000799563 0.00492384 -2.30911e-21)
(-0.00330112 0.0168075 -5.38316e-20)
(-0.00693599 0.0295372 -2.55764e-20)
(-0.0110887 0.0422783 1.5947e-20)
(-0.0154044 0.0544631 1.00922e-19)
(-0.0196574 0.0657591 -4.58607e-20)
(-0.0236754 0.0760124 9.77942e-20)
(-0.0273316 0.0851962 9.31969e-20)
(-0.0305347 0.0933692 5.69761e-20)
(-0.0332201 0.100643 -9.26923e-22)
(-0.0353436 0.107156 1.15217e-19)
(-0.0368772 0.11306 1.98914e-20)
(-0.0378067 0.118505 8.80512e-20)
(-0.0381298 0.123635 2.02151e-19)
(-0.0378554 0.128585 -2.34735e-19)
(-0.0370023 0.133484 3.52919e-19)
(-0.0355997 0.138451 7.66199e-20)
(-0.0336862 0.143605 -1.69149e-19)
(-0.03131 0.149062 -2.4096e-20)
(-0.0285296 0.154941 6.19193e-20)
(-0.0254254 0.161368 -3.07042e-20)
(-0.0220988 0.168478 -1.81405e-20)
(-0.018564 0.176428 -1.78441e-20)
(-0.0146649 0.185426 -7.24707e-20)
(-0.0112348 0.195627 2.6728e-19)
(-0.000987199 0.00544886 3.48233e-20)
(-0.0037689 0.0181205 -1.68213e-19)
(-0.00748301 0.0314077 2.04942e-19)
(-0.0115719 0.0445114 -8.21053e-20)
(-0.0157066 0.0568948 9.84226e-20)
(-0.0196776 0.0682485 8.03066e-20)
(-0.0233288 0.0784362 3.05535e-20)
(-0.026548 0.0874447 1.05796e-21)
(-0.0292574 0.0953432 1.73377e-19)
(-0.0314035 0.102253 1.19931e-19)
(-0.0329516 0.108322 -4.86514e-20)
(-0.0338808 0.113711 -3.11538e-20)
(-0.0341826 0.11858 1.31402e-19)
(-0.0338584 0.123085 2.4901e-20)
(-0.0329192 0.127373 6.69139e-20)
(-0.0313853 0.131585 1.60985e-19)
(-0.0292861 0.135856 -1.3989e-19)
(-0.026661 0.140318 1.13229e-19)
(-0.023559 0.145105 -2.42806e-19)
(-0.0200413 0.150357 2.04153e-19)
(-0.0161931 0.156219 1.20005e-21)
(-0.0121263 0.162852 -1.6253e-19)
(-0.00786425 0.170451 6.6018e-20)
(-0.003238 0.179274 1.49463e-19)
(0.00085814 0.189504 -2.30811e-19)
(-0.0011977 0.00586345 1.79468e-19)
(-0.00431008 0.0191484 -1.97471e-19)
(-0.00816461 0.0328573 -3.2376e-20)
(-0.0122497 0.0462183 4.02401e-20)
(-0.0162579 0.0587197 -8.80165e-20)
(-0.0199936 0.0700711 -1.38029e-19)
(-0.0233161 0.0801502 -1.14778e-19)
(-0.0261279 0.0889538 -2.77512e-20)
(-0.0283643 0.0965591 -1.99317e-19)
(-0.0299835 0.103093 1.5782e-19)
(-0.0309601 0.108712 -2.47067e-19)
(-0.0312814 0.113582 1.24652e-19)
(-0.0309443 0.117872 -4.21641e-20)
(-0.0299541 0.121745 9.63853e-20)
(-0.0283244 0.12536 -2.42462e-19)
(-0.0260767 0.128869 1.16691e-19)
(-0.0232411 0.13242 8.25565e-21)
(-0.0198578 0.136161 5.22243e-20)
(-0.0159776 0.140241 3.15168e-19)
(-0.0116646 0.144822 6.91686e-20)
(-0.0070107 0.150073 -6.84161e-21)
(-0.00214021 0.156185 1.98604e-20)
(0.0029095 0.163392 1.31946e-19)
(0.00831339 0.172017 3.72921e-20)
(0.0131179 0.182277 1.29454e-19)
(-0.00142519 0.00618289 -1.1189e-19)
(-0.0049107 0.0199238 1.64551e-19)
(-0.00896337 0.0339261 1.0219e-20)
(-0.0131044 0.0474403 -2.02659e-19)
(-0.0170421 0.0599768 4.2701e-19)
(-0.0205928 0.0712617 -1.38958e-19)
(-0.0236297 0.0811841 2.02949e-19)
(-0.0260693 0.0897481 1.86463e-19)
(-0.0278598 0.0970361 -1.55086e-19)
(-0.028971 0.10318 -2.25733e-19)
(-0.0293875 0.108337 6.18831e-20)
(-0.0291043 0.11268 -6.52349e-20)
(-0.0281242 0.116382 -2.89421e-19)
(-0.0264566 0.119614 3.51022e-19)
(-0.0241175 0.122542 -1.68509e-19)
(-0.0211294 0.125327 -1.16484e-19)
(-0.0175233 0.12813 4.35949e-22)
(-0.0133402 0.131113 9.44535e-20)
(-0.00863264 0.134443 3.93491e-20)
(-0.00346878 0.138302 -1.54432e-19)
(0.00205187 0.142889 1.75129e-19)
(0.00779002 0.148425 -3.06612e-19)
(0.0136895 0.155194 1.86934e-19)
(0.0199231 0.163592 -1.44335e-19)
(0.025476 0.173882 3.82723e-20)
(-0.00166586 0.00642423 1.61155e-19)
(-0.00556051 0.0204836 -1.28409e-19)
(-0.00986502 0.0346603 -8.2203e-20)
(-0.0141194 0.0482265 -1.45685e-19)
(-0.0180419 0.0607144 -2.68065e-19)
(-0.0214585 0.0718652 -1.99058e-19)
(-0.0242545 0.0815778 1.2392e-19)
(-0.0263596 0.0898624 -1.88368e-19)
(-0.0277347 0.0968042 2.40055e-19)
(-0.028361 0.102536 -3.91532e-19)
(-0.0282331 0.107218 1.74135e-19)
(-0.0273538 0.111023 3.6848e-19)
(-0.025732 0.114127 -5.18405e-19)
(-0.0233811 0.116704 7.40535e-20)
(-0.0203191 0.118926 9.61188e-20)
(-0.0165695 0.120963 9.34867e-20)
(-0.0121638 0.122985 -1.01328e-19)
(-0.00714324 0.125167 -2.55591e-20)
(-0.00156211 0.127696 -7.34691e-20)
(0.00450711 0.130776 -6.20976e-20)
(0.0109561 0.134634 -3.38426e-19)
(0.0176285 0.139532 -2.26406e-20)
(0.024444 0.145806 3.49475e-21)
(0.0315639 0.153939 -1.54424e-19)
(0.0379058 0.164257 1.65516e-19)
(-0.00191803 0.00660537 4.22097e-21)
(-0.00625324 0.0208676 5.23001e-20)
(-0.0108587 0.0351105 5.45642e-20)
(-0.0152798 0.0486319 3.24683e-20)
(-0.0192392 0.0609872 2.71655e-19)
(-0.0225698 0.0719337 2.55496e-19)
(-0.0251678 0.08138 -2.08942e-19)
(-0.0269753 0.0893409 -6.3077e-20)
(-0.0279653 0.0959031 -5.65751e-20)
(-0.0281305 0.101199 2.93037e-19)
(-0.0274753 0.105387 1.04673e-19)
(-0.0260106 0.10864 -1.54153e-19)
(-0.023751 0.111132 -1.2983e-19)
(-0.0207138 0.113039 3.1391e-19)
(-0.0169188 0.114535 -7.7511e-20)
(-0.0123903 0.115796 -9.36984e-20)
(-0.00715901 0.117 -1.31151e-19)
(-0.00126607 0.118335 -1.01878e-19)
(0.00523314 0.120004 -1.29923e-19)
(0.0122622 0.122236 -8.52827e-20)
(0.0197033 0.125293 3.55102e-19)
(0.0273806 0.129476 -1.74728e-19)
(0.0351849 0.135187 1.17862e-19)
(0.0432551 0.143008 -3.14343e-19)
(0.05043 0.153345 1.31724e-19)
(-0.00218212 0.0067443 -1.43573e-19)
(-0.0069865 0.0211159 -3.82779e-20)
(-0.0119372 0.0353291 -3.04027e-19)
(-0.0165723 0.0487142 -1.45822e-19)
(-0.0206144 0.0608544 -2.90015e-19)
(-0.0239014 0.0715252 -3.02198e-20)
(-0.026339 0.0806457 1.56665e-19)
(-0.0278809 0.0882354 -9.5113e-20)
(-0.0285121 0.0943815 2.06486e-19)
(-0.0282366 0.0992144 -5.02481e-19)
(-0.0270686 0.102889 -1.4044e-20)
(-0.025027 0.105574 8.94097e-20)
(-0.0221322 0.10744 -1.13638e-19)
(-0.0184052 0.108662 1.03163e-19)
(-0.0138674 0.109413 -7.87273e-20)
(-0.00854263 0.10987 -1.68636e-19)
(-0.0024605 0.110218 3.08313e-19)
(0.00433935 0.110654 1.91132e-19)
(0.0118017 0.111399 -3.95717e-20)
(0.0198469 0.112708 1.25989e-19)
(0.0283477 0.114875 -2.49383e-19)
(0.0371074 0.118254 3.60503e-19)
(0.0459824 0.123317 -4.93433e-19)
(0.0550776 0.130765 1.02266e-19)
(0.0631355 0.141104 -2.02488e-19)
(-0.00246042 0.0068583 7.5829e-21)
(-0.00776146 0.021268 -1.30632e-19)
(-0.013096 0.0353678 1.96037e-19)
(-0.0179849 0.0485317 4.03526e-19)
(-0.0221466 0.0603767 -6.21729e-21)
(-0.0254229 0.0707003 4.60331e-20)
(-0.0277283 0.0794343 -1.73945e-19)
(-0.0290276 0.0866035 8.26602e-20)
(-0.0293177 0.0922955 5.64999e-19)
(-0.0286135 0.0966371 -1.28902e-19)
(-0.0269394 0.0997784 -1.5143e-19)
(-0.0243222 0.101881 5.7494e-19)
(-0.0207883 0.10311 1.86747e-19)
(-0.016362 0.103635 8.90152e-20)
(-0.011066 0.103624 9.07545e-20)
(-0.00492323 0.103254 2.49483e-19)
(0.00203918 0.102709 -9.61945e-20)
(0.00978447 0.102197 2.52491e-19)
(0.0182592 0.101951 3.42596e-19)
(0.0273823 0.102252 -2.93665e-19)
(0.0370179 0.103431 4.36272e-19)
(0.0469469 0.105899 1.55022e-19)
(0.056987 0.110212 -5.91895e-19)
(0.0671966 0.117206 8.56885e-19)
(0.0761976 0.127517 -7.21592e-19)
(-0.00275689 0.00696323 -3.61138e-19)
(-0.00858217 0.0213604 2.04737e-19)
(-0.014333 0.0352755 -1.37862e-19)
(-0.0195055 0.0481404 -1.32235e-19)
(-0.0238119 0.0596138 -1.42105e-19)
(-0.0270974 0.0695203 -1.55087e-19)
(-0.0292852 0.0778073 4.33578e-20)
(-0.030351 0.0845067 4.06811e-19)
(-0.0303033 0.0897064 -8.84521e-20)
(-0.0291686 0.0935297 -2.28322e-19)
(-0.0269809 0.0961198 -1.38966e-19)
(-0.0237756 0.0976295 -5.73398e-20)
(-0.0195849 0.0982161 1.66812e-19)
(-0.0144366 0.0980384 -1.08063e-19)
(-0.00835429 0.0972582 -3.51987e-19)
(-0.00135944 0.0960449 -3.87746e-19)
(0.00652426 0.0945822 1.5455e-19)
(0.0152645 0.093078 -2.8835e-19)
(0.0248118 0.0917787 2.48676e-19)
(0.0350856 0.0909857 -7.06053e-19)
(0.0459431 0.0910722 5.42628e-19)
(0.0571429 0.092507 -7.18619e-19)
(0.0684597 0.0959457 -1.35717e-20)
(0.0798931 0.102385 -2.4381e-19)
(0.0899123 0.112621 7.40062e-19)
(-0.00307665 0.00707291 5.52692e-19)
(-0.00945463 0.0214252 8.34117e-20)
(-0.015647 0.0350966 -5.49729e-20)
(-0.021121 0.0475922 -2.3744e-20)
(-0.0255822 0.0586222 4.38139e-19)
(-0.0288799 0.0680444 1.42263e-19)
(-0.0309464 0.0758258 1.28934e-19)
(-0.0317684 0.0820074 -1.0478e-19)
(-0.0313664 0.086679 4.03986e-19)
(-0.0297784 0.0899598 -1.99866e-19)
(-0.0270485 0.0919854 1.29737e-19)
(-0.0232204 0.0928988 3.27093e-19)
(-0.0183326 0.0928456 -1.86491e-19)
(-0.0124164 0.0919724 2.00561e-19)
(-0.00549645 0.0904292 1.8948e-19)
(0.00240743 0.0883744 6.53187e-20)
(0.0112757 0.0859836 -1.60274e-19)
(0.0210818 0.0834616 4.43084e-19)
(0.0317822 0.0810599 -4.16186e-20)
(0.0432995 0.0790979 -4.78268e-20)
(0.0554861 0.0779865 5.30718e-19)
(0.0680793 0.078259 -3.78197e-19)
(0.0808078 0.0806818 6.36977e-19)
(0.0936009 0.0864421 -5.30284e-19)
(0.104736 0.0965343 7.02552e-19)
(-0.00342554 0.00719854 -2.65307e-19)
(-0.0103856 0.0214893 5.99871e-20)
(-0.0170361 0.0348685 -6.32657e-20)
(-0.022815 0.0469321 -3.04074e-19)
(-0.0274229 0.0574526 1.78903e-20)
(-0.0307149 0.0663274 1.73256e-19)
(-0.0326332 0.0735478 -7.09922e-19)
(-0.0331764 0.0791671 5.30656e-19)
(-0.032377 0.0832782 -5.18411e-19)
(-0.0302846 0.0859973 -3.27867e-19)
(-0.0269537 0.0874522 2.93247e-19)
(-0.0224364 0.0877749 -6.34612e-19)
(-0.0167777 0.0870976 5.34756e-19)
(-0.0100129 0.0855522 -1.7116e-19)
(-0.00216812 0.0832728 -4.86851e-19)
(0.00673824 0.0804021 1.206e-19)
(0.0166907 0.0771014 -1.1397e-19)
(0.027669 0.0735649 4.24908e-20)
(0.0396367 0.0700409 -1.53209e-19)
(0.0525222 0.0668593 -5.03747e-19)
(0.0661758 0.0644624 1.1353e-19)
(0.0803147 0.0634478 -1.63955e-21)
(0.0946209 0.0647032 -5.17794e-19)
(0.108945 0.0696385 3.63658e-19)
(0.121325 0.0794964 -3.26368e-19)
(-0.0038095 0.00734825 1.0698e-19)
(-0.0113812 0.0215725 2.03103e-19)
(-0.0184961 0.0346204 2.86445e-19)
(-0.0245662 0.0461971 1.47417e-19)
(-0.0292909 0.056148 -1.45735e-19)
(-0.032534 0.0644176 3.48717e-19)
(-0.0342491 0.0710264 2.58366e-19)
(-0.0344475 0.0760434 -9.57946e-20)
(-0.0331741 0.0795672 3.3754e-19)
(-0.0304901 0.081712 -3.48508e-19)
(-0.0264601 0.0825987 -1.02712e-19)
(-0.0211449 0.0823479 1.04283e-19)
(-0.0145961 0.0810779 2.04572e-19)
(-0.0068538 0.0789037 2.89744e-21)
(0.00205377 0.0759409 1.29025e-19)
(0.0121084 0.072312 2.39528e-19)
(0.0232975 0.0681579 -4.08117e-19)
(0.0356063 0.0636539 5.06976e-19)
(0.0490058 0.059035 1.69033e-19)
(0.0634307 0.0546296 5.86854e-20)
(0.078732 0.0509 -6.12632e-19)
(0.0946092 0.0485006 8.62579e-20)
(0.110698 0.0484452 1.34917e-19)
(0.126766 0.0523989 -3.2829e-20)
(0.140564 0.06191 1.60754e-19)
(-0.00423385 0.00752669 7.41575e-21)
(-0.0124454 0.0216873 -5.22317e-19)
(-0.0200179 0.0343726 -1.40582e-20)
(-0.0263456 0.0454144 -1.33264e-19)
(-0.0311319 0.0547423 -8.77638e-19)
(-0.0342533 0.0623552 7.60043e-19)
(-0.035677 0.0683078 -5.42611e-19)
(-0.0354277 0.0726889 -2.83393e-20)
(-0.0335631 0.075605 -2.56848e-19)
(-0.0301556 0.0771709 4.44375e-19)
(-0.02528 0.0775014 -4.78885e-19)
(-0.0190051 0.0767074 -2.24067e-19)
(-0.0113896 0.0748929 3.75099e-21)
(-0.00247891 0.0721562 -4.83673e-19)
(0.0076951 0.0685926 6.60858e-19)
(0.0191124 0.0643015 -7.65035e-19)
(0.0317608 0.0593983 2.19657e-21)
(0.0456283 0.0540316 1.17064e-19)
(0.0606906 0.0484113 -2.92402e-19)
(0.0768882 0.0428491 2.83631e-19)
(0.0940733 0.0378098 -4.02687e-19)
(0.11193 0.0339868 -2.65062e-19)
(0.130051 0.0325137 4.93187e-19)
(0.148127 0.0353378 -5.385e-19)
(0.163569 0.0443757 -9.03905e-21)
(-0.00470267 0.00773479 -4.24527e-19)
(-0.0135783 0.0218378 5.05415e-19)
(-0.021586 0.0341347 -1.57568e-19)
(-0.0281142 0.0446006 3.03349e-19)
(-0.032878 0.0532594 3.28726e-19)
(-0.0357711 0.0601712 -2.90792e-19)
(-0.0367768 0.0654304 -1.91414e-19)
(-0.0359342 0.069149 -2.30755e-19)
(-0.0333139 0.071445 2.12358e-19)
(-0.028999 0.0724357 -1.49752e-20)
(-0.0230735 0.0722327 3.09688e-19)
(-0.0156143 0.0709386 3.05266e-19)
(-0.00668697 0.0686453 -3.64085e-19)
(0.00365697 0.0654352 7.14582e-19)
(0.01538 0.0613841 -4.74022e-19)
(0.0284572 0.0565677 -7.93156e-20)
(0.0428725 0.0510728 9.20528e-19)
(0.0586112 0.0450153 -4.27407e-19)
(0.0756484 0.0385693 2.70681e-19)
(0.0939259 0.0320129 5.28025e-19)
(0.113296 0.0257892 -3.43014e-19)
(0.133428 0.020602 3.66812e-20)
(0.153875 0.0176804 -2.39812e-20)
(0.174269 0.0192671 -1.3803e-19)
(0.191646 0.0277075 2.70722e-19)
(-0.00521796 0.00796962 9.65889e-20)
(-0.0147744 0.0220198 -3.17504e-19)
(-0.0231761 0.033906 1.74436e-19)
(-0.029821 0.0437613 -2.55016e-21)
(-0.0344456 0.0517123 1.32934e-19)
(-0.0369657 0.057887 -2.29075e-19)
(-0.0373837 0.0624239 1.31738e-19)
(-0.0357542 0.0654619 3.59797e-19)
(-0.0321602 0.0671338 -1.09062e-20)
(-0.0266949 0.0675624 -1.83235e-19)
(-0.0194507 0.0668589 1.83854e-19)
(-0.0105118 0.0651203 -4.97676e-21)
(4.92718e-05 0.0624295 -5.84959e-19)
(0.0121737 0.0588562 2.1725e-19)
(0.0258157 0.0544592 4.76583e-20)
(0.0409414 0.0492927 -8.30599e-20)
(0.0575243 0.0434157 -1.49483e-19)
(0.0755392 0.0369086 5.74877e-19)
(0.0949513 0.0299025 1.38508e-19)
(0.115695 0.0226258 -3.00002e-19)
(0.137616 0.0154734 -3.6098e-20)
(0.160368 0.00911937 4.098e-19)
(0.183473 0.00484213 -1.91877e-19)
(0.206528 0.00516616 8.17366e-20)
(0.226198 0.012914 5.51117e-20)
(-0.00577895 0.00822443 -1.92493e-19)
(-0.0160213 0.0222204 1.99225e-19)
(-0.0247529 0.0336754 -1.12476e-19)
(-0.0314009 0.0428908 -3.62971e-19)
(-0.0357332 0.0501035 -3.35949e-19)
(-0.0376939 0.0555141 -1.47664e-19)
(-0.0373073 0.0593094 -1.23747e-19)
(-0.0346444 0.0616587 -3.6596e-19)
(-0.0298004 0.0627121 -1.48453e-19)
(-0.0228779 0.0626016 1.3606e-19)
(-0.0139765 0.0614405 -1.93802e-19)
(-0.00318725 0.0593244 -2.03954e-19)
(0.00941001 0.056331 -1.9132e-19)
(0.0237474 0.0525214 3.46519e-19)
(0.0397676 0.0479428 -7.29729e-19)
(0.0574216 0.0426327 4.1555e-19)
(0.0766647 0.0366267 -7.10715e-19)
(0.0974502 0.0299727 -1.08957e-19)
(0.11972 0.0227564 -3.88717e-19)
(0.143387 0.0151465 -8.9864e-20)
(0.16828 0.00746508 -1.10473e-19)
(0.194033 0.000310097 -3.67027e-19)
(0.220137 -0.00506002 -3.86782e-20)
(0.246205 -0.00589016 2.22685e-19)
(0.268575 0.00113938 -5.92747e-19)
(-0.00638147 0.00848887 1.64636e-19)
(-0.0172981 0.0224192 2.23182e-19)
(-0.0262692 0.0334219 7.86162e-19)
(-0.032773 0.0419733 -1.383e-19)
(-0.0366205 0.0484252 3.31684e-19)
(-0.0377902 0.053055 7.92447e-19)
(-0.0363313 0.0561005 -2.16947e-19)
(-0.0323324 0.057764 2.94069e-19)
(-0.0259008 0.058216 1.71465e-19)
(-0.0171474 0.0575998 3.11475e-19)
(-0.00617889 0.0560349 -6.17294e-20)
(0.00690691 0.0536188 4.2722e-20)
(0.0220216 0.0504283 -1.07747e-19)
(0.0390855 0.0465219 5.89999e-19)
(0.0580248 0.0419411 7.60259e-20)
(0.0787683 0.0367141 5.45255e-19)
(0.101242 0.0308614 -1.38801e-19)
(0.125365 0.0244059 4.9733e-19)
(0.15104 0.0173938 6.89493e-20)
(0.178138 0.0099329 2.51058e-19)
(0.206455 0.00225661 -1.07264e-19)
(0.235593 -0.00515576 -1.72606e-20)
(0.265016 -0.0111517 5.91918e-19)
(0.294397 -0.0128426 3.60052e-19)
(0.319896 -0.00643454 -1.53912e-19)
(-0.00701739 0.00874937 -3.97348e-19)
(-0.0185742 0.0225886 -4.17335e-19)
(-0.027664 0.0331156 -4.38896e-19)
(-0.0338397 0.0409834 1.61982e-19)
(-0.0369677 0.0466611 -3.26427e-19)
(-0.0370671 0.0505044 -4.88073e-20)
(-0.0342154 0.0528044 -1.2909e-19)
(-0.0285199 0.0537981 -5.35508e-19)
(-0.0201002 0.0536783 -8.31773e-20)
(-0.00907595 0.0526026 1.37504e-19)
(0.00443908 0.0506992 -4.30932e-19)
(0.0203387 0.048071 5.99128e-19)
(0.0385232 0.0447988 -8.12721e-19)
(0.0588964 0.0409433 1.95259e-19)
(0.0813614 0.0365473 -4.9717e-19)
(0.105815 0.0316383 -4.02483e-19)
(0.132144 0.0262319 -2.25428e-20)
(0.160215 0.0203382 -5.99973e-20)
(0.189872 0.0139763 4.8388e-20)
(0.220925 0.00720292 -2.27856e-19)
(0.253114 0.000163076 -1.56982e-19)
(0.285993 -0.00680967 1.91705e-19)
(0.318983 -0.0127558 -5.29467e-19)
(0.351869 -0.0147947 1.71161e-19)
(0.380879 -0.0087328 1.24345e-19)
(-0.0076743 0.00898979 -7.01544e-20)
(-0.0198091 0.0226952 -1.20286e-19)
(-0.0288624 0.0327193 4.73191e-19)
(-0.0344868 0.0398882 1.76608e-19)
(-0.0366162 0.0447869 2.34599e-19)
(-0.0353167 0.0478504 -3.14803e-19)
(-0.0306975 0.0494233 1.05284e-21)
(-0.0228868 0.0497783 -2.5537e-19)
(-0.0120175 0.0491318 4.74027e-19)
(0.00178065 0.0476574 1.54484e-19)
(0.0183845 0.0454942 1.72599e-19)
(0.037676 0.0427538 -6.9089e-19)
(0.059539 0.0395242 8.51301e-19)
(0.0838536 0.0358731 -2.56207e-19)
(0.110491 0.0318508 -1.8252e-19)
(0.139304 0.0274918 5.46923e-19)
(0.170126 0.0228173 2.42976e-19)
(0.202757 0.0178388 -6.15918e-19)
(0.236962 0.0125654 -2.55101e-19)
(0.272468 0.00702294 7.72184e-19)
(0.308931 0.00128547 -5.86763e-19)
(0.345839 -0.00445967 3.52648e-19)
(0.382545 -0.0095141 1.93858e-19)
(0.418958 -0.0111729 -2.49522e-19)
(0.451738 -0.00495102 -2.41377e-19)
(-0.00833534 0.00919218 -2.57352e-19)
(-0.0209517 0.0227018 4.15741e-19)
(-0.0297756 0.0321907 1.78212e-19)
(-0.0345836 0.0386488 -2.589e-19)
(-0.0353896 0.0427735 -4.17599e-20)
(-0.032313 0.0450772 -2.73446e-19)
(-0.0254986 0.0459572 -1.08969e-19)
(-0.0150983 0.0457216 1.22826e-19)
(-0.00126128 0.0446112 -3.13955e-20)
(0.0158692 0.0428163 2.31638e-19)
(0.0361557 0.0404884 -2.01476e-19)
(0.0594618 0.0377492 5.59258e-19)
(0.0856463 0.0346964 -6.92434e-19)
(0.114556 0.0314077 4.33014e-19)
(0.146016 0.0279448 5.36288e-19)
(0.179826 0.0243551 -7.74763e-19)
(0.215748 0.0206747 -2.34772e-19)
(0.253501 0.0169295 3.96296e-19)
(0.292756 0.0131392 -2.44043e-19)
(0.333129 0.0093265 2.34006e-19)
(0.37417 0.00553084 -5.6685e-19)
(0.415266 0.00182715 9.54701e-20)
(0.45567 -0.0013664 3.64269e-19)
(0.495383 -0.00165521 -5.81092e-19)
(0.531924 0.00564025 1.58289e-19)
(-0.00897936 0.0093378 -2.37279e-19)
(-0.0219412 0.0225691 7.72998e-19)
(-0.0303016 0.0314847 1.49337e-19)
(-0.0339849 0.0372237 -4.058e-19)
(-0.0330966 0.040589 2.92321e-19)
(-0.0278157 0.0421671 1.4912e-19)
(-0.0183278 0.0424056 2.38183e-19)
(-0.0048128 0.0416472 -1.60557e-20)
(0.0125585 0.040156 -2.54459e-20)
(0.0336231 0.0381389 -5.25881e-20)
(0.0582204 0.0357602 -2.28097e-19)
(0.0861852 0.0331516 -6.71273e-21)
(0.117339 0.0304204 5.34609e-19)
(0.15148 0.0276546 -8.74915e-19)
(0.188376 0.024928 6.23963e-19)
(0.227756 0.0223034 1.26522e-19)
(0.269302 0.0198361 2.23294e-19)
(0.312639 0.0175775 -1.13229e-19)
(0.357336 0.015578 1.01294e-18)
(0.402889 0.0138937 -6.26094e-19)
(0.448712 0.0125896 4.98346e-19)
(0.494043 0.0117175 1.15638e-19)
(0.537941 0.01153 -3.60443e-19)
(0.580337 0.0141899 3.04066e-19)
(0.619832 0.0244233 4.69742e-19)
(-0.00958129 0.00940817 -6.85515e-20)
(-0.0227072 0.0222582 -2.72395e-19)
(-0.0303264 0.0305564 -4.68453e-19)
(-0.0325325 0.0355715 -2.68063e-19)
(-0.0295333 0.0382022 -3.77613e-20)
(-0.0215747 0.0391041 -1.06774e-19)
(-0.00888931 0.0387717 -4.96628e-19)
(0.00830822 0.0375794 8.30661e-20)
(0.0298171 0.0358134 -5.60161e-19)
(0.0554435 0.0336955 -4.32623e-20)
(0.0849909 0.031401 -5.38931e-19)
(0.118249 0.0290697 -1.91736e-19)
(0.154985 0.0268157 1.09923e-19)
(0.19493 0.0247335 -5.25025e-19)
(0.237778 0.022904 4.95982e-21)
(0.283173 0.0214003 -4.51439e-19)
(0.330708 0.0202927 1.73759e-19)
(0.379924 0.0196559 -6.2839e-19)
(0.430305 0.0195782 -1.0664e-19)
(0.481273 0.0201746 -1.4001e-20)
(0.532166 0.0215962 -1.04896e-19)
(0.582142 0.0240156 -1.07502e-19)
(0.630098 0.0278521 -5.42516e-20)
(0.675427 0.0354329 -2.11872e-19)
(0.716099 0.0507055 -4.48624e-19)
(-0.0101128 0.00938625 1.26001e-19)
(-0.023172 0.0217332 3.44775e-19)
(-0.0297261 0.0293645 4.16957e-19)
(-0.0300575 0.0336549 -3.34934e-19)
(-0.0244871 0.0355867 6.2488e-19)
(-0.013335 0.0358783 -3.40652e-19)
(0.00311076 0.035066 1.85894e-19)
(0.0245905 0.0335522 2.90165e-19)
(0.0508609 0.0316422 2.64431e-19)
(0.0816814 0.0295702 1.28739e-19)
(0.1168 0.0275184 2.08676e-19)
(0.15594 0.0256304 1.21638e-19)
(0.198788 0.0240205 8.20025e-19)
(0.244988 0.0227815 -5.96415e-19)
(0.294132 0.0219905 6.806e-19)
(0.345766 0.0217154 -2.82501e-19)
(0.399385 0.0220219 6.08332e-19)
(0.454449 0.0229821 -3.03463e-20)
(0.510391 0.0246879 -1.25864e-19)
(0.566634 0.0272704 -2.18372e-20)
(0.622616 0.0309266 4.70077e-19)
(0.677799 0.0359777 -4.53109e-19)
(0.731839 0.0432469 3.20325e-19)
(0.784925 0.0550379 3.43089e-19)
(0.831515 0.0699844 6.74009e-20)
(-0.0105429 0.00925735 8.70953e-20)
(-0.0232508 0.0209634 -4.92464e-19)
(-0.0283685 0.0278745 -1.80111e-19)
(-0.0263835 0.0314444 1.6543e-19)
(-0.01774 0.0327255 -5.12192e-19)
(-0.00284173 0.0324905 -1.01273e-19)
(0.017957 0.0313113 7.05676e-20)
(0.0443371 0.029614 2.79234e-19)
(0.0759943 0.027718 -7.10392e-19)
(0.112619 0.0258653 5.38738e-20)
(0.153878 0.0242399 -2.08761e-19)
(0.199399 0.0229818 -6.33382e-19)
(0.248759 0.0221966 4.32507e-19)
(0.301479 0.0219634 1.81258e-20)
(0.357028 0.0223405 -1.24816e-20)
(0.414821 0.023371 4.33588e-19)
(0.474239 0.0250891 -7.6681e-19)
(0.534642 0.0275262 6.05117e-19)
(0.595393 0.030718 -1.13579e-19)
(0.655889 0.0347129 3.45924e-19)
(0.715592 0.0395763 -5.72531e-19)
(0.774073 0.0453998 3.21965e-19)
(0.831142 0.052454 -5.70683e-19)
(0.887143 0.0616417 5.74663e-19)
(0.93717 0.0709031 -1.85068e-19)
(-0.0108387 0.00901002 5.8432e-19)
(-0.0228543 0.0199256 -9.8742e-20)
(-0.0261154 0.0260623 7.33298e-19)
(-0.0213288 0.0289234 3.41437e-19)
(-0.00907251 0.0296162 2.74177e-20)
(0.010155 0.028958 1.50551e-19)
(0.0359179 0.0275494 3.65662e-20)
(0.0678182 0.0258333 6.1739e-19)
(0.105467 0.0241377 1.99275e-19)
(0.148456 0.0227058 -2.65638e-20)
(0.196337 0.0217156 5.4298e-20)
(0.248607 0.0212943 2.08344e-19)
(0.304698 0.0215277 1.73323e-19)
(0.363976 0.0224681 3.6908e-19)
(0.425752 0.0241401 -4.224e-19)
(0.489292 0.0265455 1.26813e-19)
(0.553838 0.0296693 3.92777e-20)
(0.618637 0.0334835 1.8712e-19)
(0.682965 0.0379519 5.01292e-19)
(0.746162 0.0430315 -3.30499e-19)
(0.80766 0.0486695 2.43704e-20)
(0.867004 0.0547927 -4.5246e-19)
(0.923909 0.0613617 4.20629e-19)
(0.978452 0.0687856 -3.98581e-19)
(1.02687 0.0762434 4.44906e-20)
(-0.0109659 0.00863691 -4.87347e-19)
(-0.0218894 0.0186063 3.86683e-19)
(-0.0228243 0.0239173 -6.3359e-19)
(-0.014709 0.026092 5.50003e-20)
(0.00173332 0.0262758 4.50757e-19)
(0.0258949 0.0253204 -7.5455e-19)
(0.0572387 0.0238459 6.0073e-19)
(0.0952625 0.0223042 -9.56559e-19)
(0.13946 0.0210243 1.91444e-19)
(0.189291 0.0202413 4.07238e-20)
(0.244151 0.0201173 3.22863e-19)
(0.303367 0.0207551 -1.07698e-18)
(0.366188 0.0222079 1.8667e-19)
(0.431795 0.0244877 1.97082e-19)
(0.499315 0.0275715 -1.17971e-19)
(0.567851 0.0314075 -7.28627e-19)
(0.636505 0.0359215 3.4498e-19)
(0.704415 0.0410214 6.38206e-19)
(0.770786 0.046602 -6.69595e-19)
(0.834915 0.052546 4.82927e-19)
(0.896221 0.0587226 -6.18145e-19)
(0.954252 0.0649776 4.46943e-19)
(1.00869 0.0711575 -1.19529e-19)
(1.05951 0.077497 6.80461e-19)
(1.10415 0.0841422 -7.68069e-19)
(-0.0108898 0.00813504 6.97483e-20)
(-0.0202609 0.0170034 5.7101e-20)
(-0.0183505 0.0214454 1.40799e-19)
(-0.00633972 0.0229711 5.05392e-19)
(0.0148897 0.022746 -1.58406e-20)
(0.0446022 0.0216444 1.14281e-19)
(0.082134 0.0202956 5.10105e-19)
(0.126846 0.0191507 2.06545e-19)
(0.178078 0.0185286 -6.80584e-20)
(0.23511 0.0186455 5.82644e-19)
(0.297144 0.0196343 -6.64188e-19)
(0.363294 0.0215593 1.02123e-18)
(0.432591 0.0244268 -4.05331e-19)
(0.504006 0.0281946 7.35196e-19)
(0.576476 0.0327804 -2.48688e-19)
(0.648945 0.0380706 9.05578e-20)
(0.720393 0.0439283 1.09704e-19)
(0.789886 0.0502013 -2.08378e-19)
(0.856598 0.0567284 1.75877e-19)
(0.919844 0.0633434 1.12135e-19)
(0.979088 0.0698771 1.52674e-19)
(1.03395 0.0761537 3.17288e-19)
(1.0842 0.0820023 -3.07514e-20)
(1.12983 0.0875747 -1.44188e-19)
(1.1694 0.0936298 4.15534e-19)
(-0.0105751 0.00750594 -4.07856e-19)
(-0.0178723 0.0151264 4.47382e-20)
(-0.0125488 0.018671 -8.09863e-19)
(0.00396061 0.0196051 -1.94653e-19)
(0.0305989 0.0190961 -3.66372e-19)
(0.0664789 0.0180277 -7.90917e-20)
(0.110778 0.0170257 -3.96227e-19)
(0.162681 0.0165279 -2.37487e-19)
(0.221327 0.0168296 3.158e-19)
(0.285772 0.0181128 -5.28897e-19)
(0.354977 0.0204653 -1.47289e-19)
(0.427805 0.0238968 5.10111e-21)
(0.503047 0.0283512 -9.95684e-19)
(0.579457 0.0337189 4.23449e-19)
(0.655792 0.0398494 -6.17258e-19)
(0.730862 0.0465633 -1.87442e-20)
(0.803579 0.0536645 1.19744e-19)
(0.87299 0.0609507 -1.97406e-19)
(0.938315 0.0682228 -1.71851e-19)
(0.998956 0.0752916 8.32115e-20)
(1.05451 0.0819816 9.18932e-20)
(1.10474 0.0881321 -5.97439e-19)
(1.14959 0.0935998 3.39741e-19)
(1.18918 0.0985037 1.65078e-19)
(1.2229 0.1039 3.98445e-20)
(-0.0099861 0.00675559 4.17368e-19)
(-0.0146268 0.0129977 -4.62106e-19)
(-0.00527521 0.0156378 6.52526e-19)
(0.0163671 0.016064 1.02058e-19)
(0.0490476 0.0154256 -3.14806e-20)
(0.0916971 0.0146006 -2.23309e-19)
(0.143295 0.0141962 3.37387e-20)
(0.202802 0.0146207 3.42324e-19)
(0.269106 0.0161287 -4.74024e-19)
(0.340991 0.0188492 4.99028e-19)
(0.417134 0.0228063 -5.25575e-20)
(0.496123 0.0279367 2.40805e-20)
(0.5765 0.0341067 6.52593e-19)
(0.656813 0.041129 8.71659e-19)
(0.735676 0.04878 -3.42286e-19)
(0.811825 0.056817 6.02971e-19)
(0.884171 0.0649936 3.02977e-19)
(0.951828 0.0730738 -1.87609e-19)
(1.01414 0.0808421 5.84249e-19)
(1.07068 0.0881111 -2.60833e-20)
(1.12124 0.0947251 -5.54435e-19)
(1.16581 0.100561 5.7897e-19)
(1.20453 0.105523 7.88498e-20)
(1.23772 0.109729 -3.50749e-19)
(1.26537 0.11432 1.10879e-19)
(-0.00908675 0.00589422 -5.80893e-19)
(-0.010428 0.0106524 6.30001e-19)
(0.00361017 0.0124098 -4.02578e-19)
(0.0310443 0.0124439 -1.26549e-19)
(0.0703998 0.011864 -2.84697e-19)
(0.120388 0.0115247 5.06176e-19)
(0.179744 0.0119965 -2.9538e-19)
(0.247149 0.0136377 -1.35877e-19)
(0.321189 0.0166408 -3.90476e-19)
(0.400327 0.02106 1.0295e-20)
(0.482926 0.026834 -1.53616e-19)
(0.567289 0.0338089 7.43962e-20)
(0.651722 0.0417605 -7.87373e-19)
(0.734612 0.0504176 2.25126e-19)
(0.81449 0.0594855 -2.70011e-19)
(0.890102 0.0686675 -2.16529e-19)
(0.960444 0.0776835 6.6716e-20)
(1.02479 0.0862847 -3.13116e-19)
(1.08268 0.094263 -1.31337e-19)
(1.13394 0.101456 3.85003e-19)
(1.17861 0.10775 1.59586e-19)
(1.21693 0.113072 -6.80457e-19)
(1.24926 0.117385 4.95543e-19)
(1.27612 0.120829 -9.29526e-20)
(1.29787 0.124481 -1.90442e-19)
(-0.00784053 0.00493611 -2.11824e-19)
(-0.00518107 0.00813743 -1.17588e-19)
(0.0142407 0.0090705 -2.3697e-20)
(0.0481402 0.00886557 1.74272e-19)
(0.0947887 0.00856853 1.9079e-19)
(0.152633 0.0089895 1.67138e-19)
(0.220106 0.0106391 2.08781e-19)
(0.295557 0.0138016 3.2018e-19)
(0.377213 0.0185815 4.91078e-19)
(0.463183 0.0249334 4.87232e-19)
(0.5515 0.0326893 2.57495e-19)
(0.640193 0.0415887 -6.93896e-20)
(0.727379 0.0513091 1.7861e-20)
(0.81135 0.0614967 -2.20079e-20)
(0.890648 0.0717957 2.05171e-19)
(0.964121 0.0818729 -5.26022e-20)
(1.03095 0.0914369 5.99266e-19)
(1.09065 0.100251 -2.70022e-19)
(1.14304 0.108139 2.93061e-21)
(1.18823 0.114984 1.8425e-19)
(1.22653 0.120728 -4.04871e-19)
(1.25842 0.12536 6.65073e-19)
(1.28449 0.128902 -5.36966e-19)
(1.30541 0.131522 9.59167e-20)
(1.32177 0.134164 -3.43414e-19)
(-0.00621058 0.00389941 4.54478e-19)
(0.00120592 0.00551198 3.17885e-19)
(0.0267392 0.0057216 -2.05155e-19)
(0.0677806 0.00547286 9.12363e-19)