/*--------------------------------*- C++ -*----------------------------------*\
  =========                 |
  \\      /  F ield         | OpenFOAM: The Open Source CFD Toolbox
   \\    /   O peration     | Website:  https://openfoam.org
    \\  /    A nd           | Version:  6.0
     \\/     M anipulation  |
\*---------------------------------------------------------------------------*/
FoamFile
{
    version     2.0;
    format      ascii;
    class       volVectorField;
    location    "79";
    object      U;
}
// * * * * * * * * * * * * * * * * * * * * * * * * * * * * * * * * * * * * * //

dimensions      [0 1 -1 0 0 0 0];

internalField   nonuniform List<vector> 
4000
(
(0.108942 0.00810801 6.8474e-20)
(0.343467 0.0417657 -3.73297e-20)
(0.578509 0.0984993 4.39889e-20)
(0.794142 0.161427 -3.27133e-20)
(0.975341 0.21991 -1.45949e-20)
(1.11538 0.268128 4.45979e-21)
(1.21518 0.303793 -1.42181e-20)
(1.28056 0.327313 5.09149e-20)
(1.31931 0.340633 -4.21692e-20)
(1.33909 0.346208 9.86408e-21)
(1.34632 0.346363 -7.35766e-21)
(1.34584 0.342987 -4.71364e-20)
(1.34099 0.337473 4.55083e-20)
(1.33396 0.330767 1.71311e-20)
(1.32607 0.32348 -1.69653e-20)
(1.3181 0.315985 3.95411e-20)
(1.31052 0.308485 -6.92255e-22)
(1.30356 0.301126 -3.77578e-20)
(1.29734 0.294256 2.77304e-20)
(1.29197 0.287701 8.60276e-21)
(0.123958 0.0135395 -2.40079e-20)
(0.379386 0.0582341 6.95472e-20)
(0.625645 0.124317 8.0414e-20)
(0.843453 0.193228 -3.79126e-20)
(1.01978 0.254039 6.58546e-20)
(1.15075 0.301634 1.03728e-19)
(1.24006 0.334819 -5.73062e-21)
(1.29551 0.355032 -1.75534e-20)
(1.32596 0.364962 8.6775e-20)
(1.33941 0.367486 4.20933e-20)
(1.34216 0.365095 -7.46961e-21)
(1.3387 0.359687 6.20946e-20)
(1.332 0.352578 -6.57679e-20)
(1.32386 0.344623 1.02448e-19)
(1.31536 0.336342 -1.69516e-20)
(1.3071 0.328039 4.81265e-20)
(1.29942 0.319865 8.46162e-21)
(1.29248 0.311949 3.37667e-20)
(1.28634 0.304637 -3.21134e-20)
(1.28108 0.297626 7.80428e-21)
(0.13906 0.0201173 -3.73739e-20)
(0.414262 0.0771372 8.81047e-20)
(0.669796 0.152725 6.55528e-20)
(0.88777 0.227031 -9.91102e-21)
(1.05779 0.289303 1.01737e-19)
(1.17913 0.335475 -7.60051e-20)
(1.25816 0.365623 -5.5832e-21)
(1.30441 0.382239 6.65299e-20)
(1.32755 0.388697 2.11317e-20)
(1.33569 0.388214 2.92593e-20)
(1.33487 0.383377 -4.29587e-20)
(1.32916 0.376041 1.11608e-19)
(1.32112 0.367425 2.04825e-20)
(1.31226 0.35828 -9.76208e-20)
(1.30342 0.34904 1.41716e-19)
(1.29505 0.339944 -1.66108e-19)
(1.2874 0.331101 -7.53319e-20)
(1.28057 0.322627 1.29374e-20)
(1.27458 0.314866 7.23619e-20)
(1.2695 0.307378 -1.36111e-19)
(0.154 0.0278378 -8.34897e-20)
(0.447507 0.0983277 -1.97348e-19)
(0.710286 0.183395 -1.70996e-19)
(0.926586 0.262406 -2.31995e-19)
(1.08918 0.325273 -1.31393e-19)
(1.20065 0.369304 -2.71478e-19)
(1.26986 0.395962 3.45155e-20)
(1.3078 0.408784 -1.42889e-19)
(1.32464 0.411751 -1.55847e-20)
(1.32843 0.408338 2.3376e-20)
(1.32482 0.401163 -5.09815e-20)
(1.31747 0.391998 6.35402e-20)
(1.30856 0.381951 1.12228e-19)
(1.29929 0.371663 -1.57762e-19)
(1.29033 0.36149 2.51904e-20)
(1.282 0.351611 7.20499e-20)
(1.27448 0.3421 1.19859e-19)
(1.26785 0.333066 -1.03396e-19)
(1.26207 0.324847 -4.81216e-21)
(1.25722 0.316866 1.19687e-19)
(0.168526 0.0366667 -1.57121e-19)
(0.478566 0.121595 4.31897e-19)
(0.746536 0.215948 -7.60296e-20)
(0.959532 0.298897 1.00876e-19)
(1.11391 0.361527 -9.82804e-20)
(1.21554 0.402784 3.01803e-19)
(1.27557 0.425602 -4.77268e-20)
(1.30613 0.434514 2.84833e-20)
(1.31767 0.434024 -1.41265e-20)
(1.31798 0.427783 4.63046e-20)
(1.3123 0.418381 2.98044e-20)
(1.30384 0.407483 3.75594e-20)
(1.29442 0.396069 -1.05947e-19)
(1.28501 0.38468 1.54527e-19)
(1.27609 0.373594 -1.17137e-19)
(1.26793 0.36294 2.2079e-20)
(1.26065 0.352763 -7.4511e-20)
(1.25429 0.343169 1.55983e-20)
(1.24878 0.334485 1.74894e-20)
(1.24421 0.326001 -1.63931e-19)
(0.182385 0.0465386 1.09186e-20)
(0.50693 0.14667 -2.17111e-19)
(0.778069 0.249958 1.20207e-19)
(0.986368 0.336037 -4.17774e-19)
(1.13202 0.397646 2.02244e-19)
(1.22409 0.435598 -3.45576e-19)
(1.27572 0.454321 -2.6909e-19)
(1.29987 0.459278 -1.0303e-20)
(1.30703 0.455408 -9.10903e-20)
(1.30466 0.446456 -2.82297e-19)
(1.29752 0.434942 -3.53024e-20)
(1.2884 0.422398 -2.69099e-19)
(1.2788 0.409678 4.87237e-20)
(1.26946 0.397222 -3.86228e-20)
(1.26076 0.385241 2.26593e-20)
(1.25288 0.373821 -1.77945e-19)
(1.24592 0.362982 9.56142e-21)
(1.2399 0.352832 3.56257e-20)
(1.23471 0.343678 -8.14491e-20)
(1.2305 0.334687 7.09761e-20)
(0.195335 0.0573583 -8.88718e-20)
(0.532153 0.173234 3.96278e-19)
(0.804518 0.284966 3.14641e-21)
(1.00697 0.373349 -3.42561e-19)
(1.14366 0.433226 2.58492e-19)
(1.22663 0.467438 1.08345e-19)
(1.27071 0.481901 2.19202e-20)
(1.2894 0.482924 -1.82253e-19)
(1.29307 0.47578 2.95564e-19)
(1.28874 0.464247 -1.73194e-19)
(1.28068 0.450734 6.22052e-20)
(1.27128 0.436628 2.91144e-19)
(1.26176 0.422658 -2.6156e-19)
(1.25269 0.40917 2.85815e-19)
(1.24433 0.396315 -1.85748e-19)
(1.23684 0.38414 -3.6303e-20)
(1.23029 0.372646 4.32774e-20)
(1.22468 0.361944 5.46779e-20)
(1.21987 0.352321 7.54528e-20)
(1.21608 0.34283 4.51444e-20)
(0.207151 0.0690023 3.52673e-20)
(0.553858 0.200926 -3.55497e-19)
(0.825624 0.320493 6.33513e-20)
(1.02132 0.410363 8.2559e-19)
(1.14904 0.467875 -7.61414e-20)
(1.22352 0.498013 2.28295e-19)
(1.26094 0.508133 1.42225e-19)
(1.2751 0.505291 2.33804e-20)
(1.27609 0.495008 -1.64623e-19)
(1.27042 0.481032 2.69759e-19)
(1.26191 0.465632 -3.12525e-20)
(1.25257 0.450046 4.08736e-19)
(1.24337 0.43488 1.56685e-19)
(1.23473 0.420396 9.77195e-20)
(1.22685 0.406688 -2.04175e-19)
(1.21984 0.393773 4.36018e-20)
(1.21378 0.381637 1.57431e-19)
(1.20864 0.370394 4.03832e-20)
(1.20428 0.360307 -1.89703e-19)
(1.20097 0.35033 -4.7162e-20)
(0.217627 0.0813222 -1.97483e-19)
(0.571742 0.229355 6.36497e-19)
(0.841229 0.35605 -3.46623e-19)
(1.0295 0.446616 -3.18953e-19)
(1.14841 0.501221 -2.77354e-19)
(1.21512 0.527044 -2.33658e-19)
(1.24679 0.53281 -2.87856e-19)
(1.2573 0.526217 3.60387e-19)
(1.25634 0.512949 -2.57279e-19)
(1.2499 0.496673 -2.05864e-20)
(1.24135 0.4795 -1.68743e-21)
(1.23235 0.462514 -4.91785e-20)
(1.22368 0.446208 -1.26508e-19)
(1.21563 0.430765 -1.4075e-19)
(1.20835 0.416232 -7.48262e-21)
(1.20192 0.402597 -3.10979e-20)
(1.19641 0.389836 -7.66249e-20)
(1.1918 0.378067 -2.36585e-20)
(1.18796 0.367526 2.54366e-20)
(1.1852 0.357089 -1.61719e-19)
(0.226585 0.0941478 3.44374e-19)
(0.58558 0.258107 3.57138e-19)
(0.85127 0.391146 -2.21808e-19)
(1.03165 0.481661 1.36642e-19)
(1.1421 0.532907 2.35997e-19)
(1.2018 0.554264 -4.8923e-20)
(1.22861 0.55573 5.79022e-20)
(1.2363 0.545538 6.54365e-20)
(1.23405 0.529454 1.08846e-19)
(1.22734 0.511025 -1.27442e-19)
(1.21909 0.49219 6.23249e-20)
(1.2107 0.473887 -4.3413e-20)
(1.20275 0.456498 1.91169e-19)
(1.19544 0.440138 8.3328e-20)
(1.18886 0.424813 -1.90172e-19)
(1.1831 0.410484 1.04504e-19)
(1.17823 0.39712 5.13513e-20)
(1.17422 0.384844 -9.47538e-20)
(1.17096 0.373866 2.54531e-19)
(1.16881 0.363007 -1.88018e-19)
(0.233877 0.107291 -2.53062e-19)
(0.595226 0.286756 -3.29237e-19)
(0.855776 0.425298 2.30859e-19)
(1.02799 0.515073 -2.12911e-19)
(1.13044 0.562599 -1.91874e-20)
(1.18393 0.579423 -2.33904e-19)
(1.20676 0.576698 1.93464e-19)
(1.21238 0.563087 3.58348e-19)
(1.20943 0.544369 -4.98154e-19)
(1.20288 0.523937 2.5392e-20)
(1.19526 0.503554 1.91815e-20)
(1.1877 0.484014 -9.96549e-20)
(1.18064 0.465604 6.86907e-20)
(1.1742 0.448375 -2.89566e-20)
(1.16845 0.432295 1.93926e-19)
(1.16344 0.417302 -2.08591e-19)
(1.15928 0.403361 -7.20261e-20)
(1.15594 0.390601 1.86339e-19)
(1.15333 0.379207 -2.78063e-19)
(1.15186 0.367975 1.75039e-19)
(0.239387 0.120551 5.26144e-19)
(0.600608 0.314873 4.66592e-19)
(0.854852 0.458041 -7.82751e-20)
(1.0188 0.546448 -1.00196e-20)
(1.11378 0.589987 -2.37249e-19)
(1.1619 0.602284 1.00705e-19)
(1.18156 0.595527 4.97769e-19)
(1.1858 0.578701 -4.37358e-19)
(1.18269 0.557539 2.77369e-19)
(1.17668 0.535256 -2.50256e-20)
(1.16995 0.513439 1.70015e-19)
(1.16343 0.492747 -4.12089e-20)
(1.15742 0.473379 1.01912e-19)
(1.15199 0.455332 1.32051e-19)
(1.14716 0.438538 -7.25658e-20)
(1.14301 0.422918 8.93604e-20)
(1.13962 0.40843 -1.26181e-19)
(1.13702 0.395206 3.20675e-19)
(1.13512 0.383415 -1.99734e-19)
(1.13442 0.371864 1.42823e-19)
(0.243034 0.133718 -2.57271e-19)
(0.601731 0.342035 -4.80533e-19)
(0.848677 0.488931 -3.31497e-19)
(1.00439 0.575415 -2.39813e-20)
(1.09253 0.614783 7.91131e-20)
(1.13607 0.622627 -4.40153e-20)
(1.15333 0.612037 -2.83421e-19)
(1.15681 0.592221 -1.24452e-19)
(1.15399 0.568813 -2.27431e-19)
(1.14885 0.544834 -1.1291e-19)
(1.14326 0.521696 5.6421e-20)
(1.13795 0.499937 -2.66864e-19)
(1.13315 0.479678 -6.26029e-20)
(1.12886 0.460868 -6.16626e-20)
(1.12508 0.443407 -1.95018e-19)
(1.12186 0.427196 8.69647e-20)
(1.11933 0.41219 1.61291e-21)
(1.11753 0.398519 7.89549e-20)
(1.11642 0.386343 -3.38682e-20)
(1.11656 0.374523 -1.16973e-19)
(0.244773 0.146578 5.94505e-19)
(0.598664 0.367835 5.17678e-19)
(0.837491 0.517553 6.43302e-19)
(0.985119 0.601632 -6.67042e-20)
(1.06706 0.636726 -2.33266e-19)
(1.1068 0.640254 6.89546e-19)
(1.12238 0.626063 -3.43984e-19)
(1.12566 0.603498 3.8209e-19)
(1.12354 0.578046 -7.05148e-20)
(1.11954 0.552526 2.34285e-19)
(1.11529 0.528183 2.615e-20)
(1.11136 0.505444 1.1255e-19)
(1.1079 0.484361 -2.53978e-20)
(1.10487 0.464843 1.12625e-19)
(1.10225 0.446763 -9.12047e-20)
(1.10008 0.430003 6.45834e-21)
(1.09848 0.414508 4.58207e-20)
(1.09754 0.4004 7.19346e-20)
(1.09729 0.387842 -1.02513e-20)
(1.0983 0.375812 3.69311e-20)
(0.244592 0.15892 -1.82715e-19)
(0.591544 0.391883 -5.14131e-19)
(0.821589 0.543527 -3.12762e-19)
(0.961383 0.624791 -5.46289e-19)
(1.03779 0.655586 5.87407e-19)
(1.07448 0.654984 -4.14976e-19)
(1.08901 0.637455 2.63009e-19)
(1.09258 0.612393 -9.13865e-20)
(1.09149 0.585105 -1.12092e-19)
(1.08889 0.558203 -7.85802e-20)
(1.08614 0.53277 4.1151e-20)
(1.08372 0.509135 5.34179e-20)
(1.08173 0.487294 4.19701e-20)
(1.08009 0.467122 -5.78608e-20)
(1.07876 0.44847 -3.88559e-20)
(1.07773 0.431202 1.26655e-19)
(1.07714 0.415247 -1.72028e-20)
(1.07713 0.400712 -4.35234e-20)
(1.07779 0.387784 5.32447e-21)
(1.07968 0.37563 -2.83912e-21)
(0.242517 0.170537 8.09719e-19)
(0.58056 0.413819 3.807e-19)
(0.801311 0.566508 3.55307e-19)
(0.933591 0.644622 -2.1089e-19)
(1.00512 0.671158 2.65584e-20)
(1.03946 0.666659 2.98801e-19)
(1.05352 0.646081 3.97543e-20)
(1.0578 0.618786 8.31767e-20)
(1.05803 0.589875 9.09035e-20)
(1.05701 0.561749 7.10184e-21)
(1.05591 0.535344 4.64783e-20)
(1.05511 0.510897 -9.73453e-21)
(1.05469 0.48836 -2.47265e-20)
(1.05456 0.467581 -6.37276e-20)
(1.05463 0.448395 1.86137e-20)
(1.05489 0.43065 4.4838e-21)
(1.05542 0.414256 -6.11205e-21)
(1.05639 0.399297 3.16775e-21)
(1.058 0.386012 1.19848e-20)
(1.06084 0.373845 -5.02547e-21)
(0.238604 0.181231 -5.80496e-19)
(0.565956 0.433315 -5.01951e-19)
(0.777037 0.586194 2.40944e-19)
(0.902177 0.66089 -2.96728e-19)
(0.969476 0.683271 -2.18613e-20)
(1.0021 0.675148 4.04187e-20)
(1.0162 0.651826 -4.64685e-20)
(1.02155 0.622573 -3.81556e-20)
(1.02335 0.592256 -8.10575e-20)
(1.02406 0.563071 -5.07163e-20)
(1.02471 0.535813 -1.45535e-20)
(1.02561 0.510641 -2.64476e-20)
(1.02684 0.487465 1.12201e-20)
(1.0283 0.466118 -9.90914e-21)
(1.02991 0.446421 9.22907e-21)
(1.03159 0.428216 -2.17403e-20)
(1.03337 0.41139 -2.65188e-20)
(1.03543 0.395973 -3.15615e-20)
(1.03813 0.382247 3.25049e-22)
(1.04219 0.370082 5.26019e-20)
(0.232941 0.190818 5.41926e-19)
(0.548017 0.450077 1.79005e-20)
(0.749178 0.602323 -5.09204e-20)
(0.867589 0.673401 6.02007e-20)
(0.931279 0.691783 2.07108e-19)
(0.962767 0.680342 -1.49726e-19)
(0.977357 0.654602 6.25807e-20)
(0.984077 0.623672 -8.50569e-20)
(0.98763 0.592175 1.83791e-20)
(0.99019 0.5621 -1.89835e-20)
(0.992642 0.534113 -2.25161e-20)
(0.995286 0.508299 -2.34104e-20)
(0.998185 0.484536 2.28794e-20)
(1.0013 0.462642 -1.20753e-20)
(1.00455 0.442438 -1.22188e-19)
(1.00781 0.423772 1.16746e-19)
(1.01103 0.406508 -7.61266e-20)
(1.01441 0.390539 -5.07049e-20)
(1.01859 0.376075 5.89257e-20)
(1.02437 0.363651 -7.44464e-20)
(0.225642 0.199133 -1.13706e-19)
(0.527067 0.463852 1.20947e-19)
(0.718169 0.614679 8.44504e-20)
(0.830285 0.681996 -1.27554e-19)
(0.890953 0.696584 6.01773e-20)
(0.921827 0.682159 -1.03432e-19)
(0.937285 0.654341 -1.34803e-20)
(0.945622 0.622029 3.31238e-21)
(0.95107 0.589585 -8.80916e-21)
(0.955547 0.558802 -7.322e-20)
(0.959829 0.530218 9.25944e-21)
(0.964195 0.503849 -5.35581e-21)
(0.968733 0.479533 9.19498e-20)
(0.973464 0.45707 -2.50841e-19)
(0.978355 0.436284 2.34082e-19)
(0.983286 0.417053 1.27883e-19)
(0.988135 0.399227 -3.02166e-20)
(0.993201 0.382472 1.97432e-20)
(0.999452 0.366773 2.30753e-19)
(1.00719 0.353685 -9.57573e-20)
(0.216848 0.206028 -3.52966e-20)
(0.50346 0.474427 8.83787e-20)
(0.684465 0.623085 -9.91604e-20)
(0.790733 0.686556 1.3306e-19)
(0.848925 0.697593 -1.29853e-20)
(0.879647 0.680542 -1.44374e-20)
(0.896295 0.651001 1.14284e-20)
(0.906446 0.617612 -4.37888e-20)
(0.913892 0.584475 4.5373e-20)
(0.920322 0.55319 3.61862e-20)
(0.926416 0.524175 2.25891e-20)
(0.93243 0.497374 1.01403e-21)
(0.938474 0.472569 8.57652e-20)
(0.944621 0.449512 -8.89756e-20)
(0.950909 0.427987 1.04664e-19)
(0.95726 0.407858 -2.17407e-19)
(0.963596 0.388917 2.46738e-19)
(0.970401 0.370514 -2.12833e-19)
(0.978715 0.35236 -1.40721e-19)
(0.987395 0.337923 2.46158e-19)
(0.20672 0.211377 5.04298e-20)
(0.477573 0.481633 1.60872e-21)
(0.648534 0.627411 1.44498e-20)
(0.749402 0.686995 -1.45991e-20)
(0.805623 0.694757 -1.00691e-20)
(0.836597 0.675455 8.81464e-21)
(0.854707 0.644557 -1.17209e-19)
(0.866829 0.61041 7.80171e-20)
(0.876349 0.576852 8.40389e-20)
(0.884752 0.545305 -1.2312e-19)
(0.892631 0.516087 1.50745e-19)
(0.90021 0.489077 -5.65615e-20)
(0.907591 0.464009 1.17087e-19)
(0.914851 0.440577 -1.86272e-19)
(0.922038 0.418485 3.90059e-19)
(0.929111 0.397477 -8.65718e-20)
(0.936098 0.377137 -2.3998e-20)
(0.943676 0.356204 2.61701e-19)
(0.952592 0.332758 -1.2682e-19)
(0.957852 0.309318 5.96248e-20)
(0.195436 0.215079 -2.35647e-20)
(0.4498 0.485339 -1.15744e-20)
(0.610851 0.627566 -2.83025e-20)
(0.706764 0.683262 1.69469e-20)
(0.761471 0.688051 -1.26644e-20)
(0.793049 0.666885 -1.33501e-19)
(0.812845 0.634998 2.01857e-19)
(0.827064 0.600416 1.51071e-20)
(0.838717 0.566716 -2.26294e-20)
(0.849115 0.535163 5.12789e-21)
(0.858779 0.505994 7.26757e-20)
(0.867906 0.479056 1.26729e-19)
(0.876575 0.454078 7.5336e-20)
(0.884824 0.430774 -1.80525e-19)
(0.892643 0.408887 -5.35186e-20)
(0.899973 0.388224 -6.90746e-21)
(0.906929 0.368517 3.55907e-20)
(0.914104 0.34908 5.43497e-21)
(0.92141 0.329219 3.95439e-19)
(0.924215 0.311021 -2.76147e-19)
(0.183184 0.21705 9.72588e-20)
(0.420542 0.485453 4.07608e-21)
(0.57189 0.623495 -9.6736e-20)
(0.663283 0.67534 2.82494e-19)
(0.716891 0.677473 7.14941e-20)
(0.749371 0.654833 -1.92188e-19)
(0.771035 0.622327 1.84828e-19)
(0.787445 0.587629 -4.55287e-20)
(0.801275 0.554065 1.68881e-19)
(0.813689 0.522752 8.06144e-20)
(0.825155 0.493858 -3.69741e-19)
(0.835863 0.467203 -4.20445e-20)
(0.8459 0.442512 5.21459e-19)
(0.855302 0.419506 -6.3983e-19)
(0.86405 0.39794 5.92163e-19)
(0.87208 0.377609 2.06709e-19)
(0.879466 0.358233 -7.32298e-19)
(0.886609 0.33924 3.55647e-19)
(0.893309 0.320346 -7.23522e-20)
(0.896121 0.303915 8.56536e-20)
(0.170162 0.217232 -2.33895e-19)
(0.390208 0.481925 -2.44709e-19)
(0.532123 0.615186 1.67225e-19)
(0.619417 0.663239 -2.20914e-19)
(0.672294 0.663046 -6.27489e-19)
(0.705927 0.639323 -2.59883e-20)
(0.729599 0.606561 -1.8877e-19)
(0.748267 0.572064 5.93347e-21)
(0.764301 0.538909 -3.83585e-19)
(0.778736 0.508085 -3.90957e-19)
(0.792003 0.479703 -2.6916e-19)
(0.804289 0.453567 -1.15714e-20)
(0.815692 0.42941 -6.63073e-19)
(0.826263 0.406972 -7.55844e-21)
(0.836011 0.386038 3.24648e-19)
(0.844908 0.366441 -3.22414e-19)
(0.853038 0.34796 -2.5025e-19)
(0.860723 0.330162 2.41207e-19)
(0.86776 0.312877 -1.72524e-19)
(0.87135 0.297956 3.34687e-20)
(0.156575 0.215588 2.01276e-19)
(0.359205 0.474739 1.55859e-19)
(0.492015 0.602661 -9.06261e-21)
(0.575615 0.647004 -1.4153e-19)
(0.628082 0.644818 3.2721e-19)
(0.663069 0.620396 5.40733e-19)
(0.688853 0.587732 -5.73171e-20)
(0.709819 0.553739 7.80446e-21)
(0.728068 0.521256 1.03692e-19)
(0.74453 0.491152 2.42688e-19)
(0.759611 0.463491 3.54027e-19)
(0.773503 0.438069 -2.88441e-19)
(0.786321 0.414624 2.82697e-19)
(0.798134 0.39291 -9.88455e-20)
(0.808972 0.372725 3.31253e-19)
(0.818839 0.353912 -1.29146e-19)
(0.827849 0.336275 -3.22262e-19)
(0.836324 0.319477 1.93186e-19)
(0.844096 0.303463 -2.76859e-19)
(0.848732 0.289783 -3.14985e-19)
(0.142629 0.212105 9.95565e-20)
(0.327935 0.463919 1.7601e-19)
(0.452019 0.585976 -1.84386e-19)
(0.532308 0.626709 5.24001e-21)
(0.584643 0.622863 3.17599e-20)
(0.621141 0.598117 2.64336e-19)
(0.6491 0.565891 -3.88621e-19)
(0.672377 0.532693 3.68818e-19)
(0.692832 0.50113 -3.68418e-20)
(0.711308 0.471963 1.00683e-19)
(0.728195 0.445219 1.63984e-19)
(0.7437 0.420688 -3.12868e-19)
(0.757959 0.398118 1.48783e-19)
(0.771066 0.377276 1.41797e-19)
(0.783078 0.357974 5.24796e-20)
(0.79403 0.340063 -2.68775e-19)
(0.80406 0.323362 9.05213e-19)
(0.813486 0.307584 -5.0749e-19)
(0.822136 0.292703 9.20881e-19)
(0.827868 0.279998 -5.98783e-20)
(0.128529 0.20679 7.5247e-20)
(0.296789 0.449521 4.24266e-19)
(0.412571 0.565225 1.53165e-19)
(0.489911 0.602455 3.13481e-19)
(0.542348 0.597277 8.35222e-20)
(0.580468 0.572568 -5.06427e-19)
(0.610632 0.541105 7.86702e-19)
(0.636207 0.508978 4.0905e-19)
(0.658838 0.47857 1.74274e-20)
(0.679298 0.450545 5.2956e-19)
(0.69797 0.424896 8.67102e-20)
(0.715078 0.401413 5.53248e-20)
(0.730781 0.379851 3.16206e-19)
(0.745198 0.35999 -1.18583e-19)
(0.758412 0.34165 -1.24059e-19)
(0.770489 0.324688 7.36043e-19)
(0.78159 0.308935 -6.14113e-19)
(0.792025 0.29414 2.38669e-20)
(0.801615 0.280295 7.77219e-19)
(0.808464 0.268442 -7.96671e-22)
(0.114477 0.199669 -9.189e-19)
(0.266148 0.431636 -1.497e-19)
(0.37409 0.540529 -2.07503e-19)
(0.44882 0.574374 -1.60023e-19)
(0.501549 0.568182 -4.09011e-19)
(0.541362 0.543856 1.39971e-19)
(0.573726 0.513465 -1.96749e-19)
(0.601558 0.482669 5.84845e-20)
(0.626314 0.453636 -2.84799e-19)
(0.648709 0.42694 -2.67921e-19)
(0.669128 0.402551 5.71351e-20)
(0.687812 0.380258 -4.34606e-19)
(0.704943 0.359827 3.47914e-19)
(0.720665 0.341048 -1.25581e-19)
(0.735085 0.32375 3.9214e-19)
(0.748297 0.307793 -8.46196e-19)
(0.760477 0.293015 -1.60752e-19)
(0.77192 0.279197 -3.03416e-19)
(0.782447 0.266332 -8.13874e-19)
(0.790398 0.255261 -1.31239e-19)
(0.100668 0.190789 1.49024e-19)
(0.236372 0.410383 -1.6142e-20)
(0.336974 0.512044 -2.34146e-19)
(0.40941 0.542625 8.29019e-20)
(0.462581 0.535726 -1.67574e-19)
(0.504117 0.512111 -1.96565e-21)
(0.538643 0.483081 2.27421e-19)
(0.568664 0.453859 -3.39954e-19)
(0.595472 0.426405 1.32152e-19)
(0.619736 0.401214 -7.64455e-20)
(0.641843 0.378235 2.09663e-20)
(0.662055 0.357262 -3.79379e-19)
(0.680576 0.338071 -4.60627e-19)
(0.697573 0.320464 -1.74232e-20)
(0.713175 0.304275 5.12436e-19)
(0.727498 0.289371 2.3781e-20)
(0.740733 0.2756 6.4708e-19)
(0.753153 0.262766 -9.42926e-19)
(0.76459 0.250859 5.01434e-19)
(0.773611 0.240545 8.64814e-19)
(0.0872914 0.180215 -1.33138e-19)
(0.207808 0.385912 7.15312e-20)
(0.301597 0.479955 4.65563e-19)
(0.372032 0.507392 1.15288e-19)
(0.425756 0.500078 -1.5505e-19)
(0.469008 0.477481 1.22546e-19)
(0.505627 0.450083 4.81163e-19)
(0.537747 0.422663 -3.90911e-19)
(0.566513 0.396979 3.61254e-20)
(0.592559 0.373455 -1.4222e-19)
(0.616278 0.352025 5.13826e-19)
(0.637951 0.332491 3.66448e-19)
(0.657805 0.314642 -5.34449e-20)
(0.676026 0.298288 -5.55032e-19)
(0.692764 0.283276 2.99171e-20)
(0.708156 0.269475 -6.79849e-20)
(0.722396 0.256746 3.25655e-19)
(0.735743 0.244914 5.28747e-19)
(0.748048 0.233963 4.61074e-19)
(0.758095 0.224409 -7.72109e-19)
(0.0745252 0.168028 -8.4071e-20)
(0.180776 0.358401 3.58076e-19)
(0.268309 0.444471 -3.48442e-19)
(0.337013 0.468885 4.85702e-19)
(0.391365 0.461432 -2.63241e-19)
(0.436291 0.440141 1.89675e-19)
(0.474907 0.414625 4.79472e-19)
(0.50901 0.389215 -5.7668e-19)
(0.53962 0.365476 2.62455e-19)
(0.567344 0.343768 3.31501e-19)
(0.592582 0.324017 -4.50108e-19)
(0.615633 0.306032 -3.16108e-20)
(0.636745 0.289616 -3.59676e-19)
(0.656123 0.274595 5.77224e-19)
(0.673935 0.260823 -3.12314e-19)
(0.690333 0.248177 3.35338e-19)
(0.705517 0.236528 -6.04218e-20)
(0.719728 0.225725 2.06768e-19)
(0.732845 0.21574 4.69805e-20)
(0.743862 0.206964 -1.20655e-19)
(0.0625374 0.154327 -2.58819e-19)
(0.155579 0.328054 -5.93392e-19)
(0.237433 0.40583 1.5621e-19)
(0.304655 0.427339 -5.00333e-19)
(0.359675 0.420001 -4.73751e-19)
(0.406201 0.40028 -3.40314e-19)
(0.446691 0.376876 2.65008e-19)
(0.482641 0.353668 2.03443e-19)
(0.514965 0.332035 -1.29275e-21)
(0.544246 0.31228 -1.77133e-19)
(0.570893 0.294325 -3.19147e-19)
(0.595225 0.277991 2.87061e-19)
(0.617506 0.263096 -9.92302e-20)
(0.637959 0.24948 -4.88149e-19)
(0.656767 0.237008 3.16871e-19)
(0.674098 0.225567 -2.3825e-19)
(0.690152 0.215039 -9.68601e-20)
(0.705156 0.205294 -2.70713e-19)
(0.719022 0.196295 -2.44856e-19)
(0.730944 0.188328 6.34922e-20)
(0.0514833 0.139224 2.2603e-19)
(0.132492 0.295095 1.16821e-19)
(0.209264 0.364294 1.78843e-19)
(0.275233 0.383008 -6.1094e-19)
(0.33093 0.376022 6.53691e-19)
(0.378956 0.35811 2.68583e-21)
(0.421172 0.337026 5.2696e-21)
(0.458813 0.316193 -3.96707e-19)
(0.492702 0.296812 3.6976e-19)
(0.523404 0.279135 -2.57274e-19)
(0.551338 0.263083 7.73043e-20)
(0.576839 0.248491 -3.4331e-19)
(0.600188 0.235197 -1.62779e-19)
(0.621621 0.223054 -7.72935e-20)
(0.641339 0.21194 5.85718e-19)
(0.659518 0.201752 -2.87474e-19)
(0.67636 0.192387 -2.58722e-19)
(0.692079 0.183731 2.65893e-19)
(0.706627 0.175741 -2.17998e-19)
(0.719378 0.16862 1.69968e-19)
(0.0415048 0.122848 4.81751e-19)
(0.111765 0.259775 -2.90835e-19)
(0.184071 0.320144 4.35553e-20)
(0.248993 0.336168 5.08516e-19)
(0.305351 0.329745 2.01629e-19)
(0.354746 0.313859 2.49645e-19)
(0.398521 0.295281 2.48297e-19)
(0.437681 0.276979 5.25679e-19)
(0.472972 0.25998 -1.20462e-19)
(0.504946 0.244492 2.8696e-19)
(0.534032 0.230438 4.16117e-19)
(0.560579 0.217673 1.52913e-19)
(0.584883 0.206051 2.76545e-19)
(0.607194 0.195443 1.00028e-19)
(0.627724 0.185741 5.87832e-20)
(0.646659 0.176852 -4.28385e-20)
(0.664202 0.168688 3.41004e-19)
(0.680554 0.161152 2.09627e-19)
(0.695709 0.154197 -1.90974e-19)
(0.709206 0.147959 1.79827e-19)
(0.0327292 0.105336 -3.20083e-19)
(0.0936208 0.222361 3.60325e-20)
(0.162088 0.273684 -9.22831e-20)
(0.226156 0.287111 -2.8019e-19)
(0.283131 0.28144 -1.48181e-19)
(0.333746 0.267769 -2.69023e-19)
(0.378892 0.251861 1.24867e-19)
(0.419382 0.236225 -4.82477e-19)
(0.455899 0.221723 2.84342e-19)
(0.488985 0.208522 -3.93079e-19)
(0.519077 0.196553 -2.43601e-19)
(0.546539 0.185688 -3.21637e-19)
(0.571676 0.175802 7.35473e-20)
(0.594753 0.166785 -7.27394e-20)
(0.61599 0.158542 8.62789e-20)
(0.635584 0.150995 4.61238e-20)
(0.653733 0.144068 9.15881e-20)
(0.670633 0.13768 -7.70699e-19)
(0.686317 0.131785 3.82943e-19)
(0.700468 0.126469 -2.30036e-19)
(0.0252679 0.0868406 1.05814e-19)
(0.0782531 0.183138 2.13474e-19)
(0.143522 0.225231 -1.39086e-19)
(0.206912 0.236146 3.43694e-19)
(0.264439 0.231391 -5.48675e-20)
(0.316103 0.220099 3.96763e-19)
(0.362418 0.207001 7.64538e-20)
(0.404038 0.194148 -8.01281e-20)
(0.441594 0.182241 2.91624e-19)
(0.475621 0.171411 2.2239e-19)
(0.506565 0.161599 8.22879e-20)
(0.534799 0.152698 1.08265e-19)
(0.560642 0.144605 5.41947e-20)
(0.584365 0.137227 -2.29331e-19)
(0.606199 0.130486 -3.17411e-20)
(0.626348 0.124317 2.38758e-19)
(0.645007 0.118658 -1.63157e-19)
(0.662367 0.113445 -7.65838e-21)
(0.678497 0.108634 -3.4014e-19)
(0.693202 0.104276 6.8538e-19)
(0.019216 0.0675215 2.83691e-19)
(0.0658264 0.142407 -3.40485e-19)
(0.128547 0.17512 1.59612e-19)
(0.191421 0.183596 -2.25406e-19)
(0.249417 0.179894 1.98695e-19)
(0.301943 0.171116 -3.44453e-19)
(0.349211 0.160944 -2.51956e-19)
(0.391749 0.150972 1.86154e-20)
(0.430147 0.141741 -3.42192e-19)
(0.464937 0.133353 -2.13183e-19)
(0.496571 0.125759 -3.68323e-19)
(0.525431 0.118876 -1.18761e-20)
(0.551843 0.112622 -1.42115e-19)
(0.576089 0.106924 3.60406e-19)
(0.598405 0.101721 2.47726e-19)
(0.619001 0.0969616 -8.33269e-20)
(0.638069 0.0925988 -7.50238e-20)
(0.655798 0.0885826 -3.25364e-21)
(0.672288 0.0848751 9.33522e-21)
(0.687441 0.0815056 1.35188e-19)
(0.014651 0.0475474 -7.10446e-20)
(0.0564749 0.100479 -2.4257e-19)
(0.117303 0.123698 -1.51145e-19)
(0.179814 0.129794 -9.44995e-20)
(0.238181 0.127253 -1.95482e-19)
(0.291369 0.121099 3.34708e-19)
(0.339363 0.113946 -3.58308e-20)
(0.382598 0.106931 -8.04081e-20)
(0.421635 0.100441 3.38903e-21)
(0.457003 0.0945505 2.35205e-19)
(0.489158 0.0892234 -2.22969e-19)
(0.51849 0.0844003 2.17822e-19)
(0.545333 0.0800221 1.02134e-19)
(0.569972 0.076037 -1.85579e-19)
(0.592651 0.0724011 4.05204e-20)
(0.613582 0.0690772 1.18885e-19)
(0.632958 0.066032 4.12377e-20)
(0.650963 0.0632306 -2.87751e-20)
(0.667725 0.0606446 -2.4903e-19)
(0.683213 0.0582889 1.98423e-19)
(0.0116325 0.0270933 6.38692e-20)
(0.0503011 0.0576765 7.74905e-20)
(0.109899 0.0713209 2.18312e-20)
(0.17219 0.0750817 -1.63106e-20)
(0.23082 0.073785 4.67664e-20)
(0.284459 0.070334 7.13592e-20)
(0.332944 0.0662669 2.70777e-20)
(0.376648 0.0622651 3.29309e-20)
(0.416115 0.0585648 -6.95604e-20)
(0.45187 0.0552124 1.30476e-19)
(0.484374 0.052188 -3.07261e-20)
(0.514022 0.0494563 -2.49099e-21)
(0.541151 0.0469819 3.11243e-20)
(0.566052 0.0447339 3.50604e-20)
(0.588972 0.0426861 -9.37706e-20)
(0.610125 0.0408164 6.17922e-20)
(0.629703 0.0391051 4.0504e-20)
(0.647891 0.037532 3.45144e-20)
(0.664833 0.0360804 7.37442e-20)
(0.68054 0.0347569 3.05266e-20)
(0.010202 0.0063391 -1.30491e-20)
(0.047376 0.0143299 2.70921e-20)
(0.106409 0.0183508 -3.78764e-20)
(0.168618 0.0198085 2.37885e-20)
(0.227394 0.0198085 1.39229e-20)
(0.281266 0.0191117 6.25936e-21)
(0.330002 0.0181744 1.46944e-20)
(0.373944 0.0172217 -4.20959e-20)
(0.413626 0.0163406 2.68651e-20)
(0.449575 0.0155524 9.39776e-21)
(0.482253 0.0148534 -5.24671e-22)
(0.512056 0.014233 5.72393e-20)
(0.539326 0.0136799 -1.73989e-20)
(0.564354 0.0131845 -1.66258e-20)
(0.58739 0.0127385 -1.58999e-20)
(0.60865 0.0123351 2.45812e-21)
(0.628325 0.0119681 -2.11656e-20)
(0.646601 0.0116319 4.03216e-21)
(0.663629 0.011323 7.94318e-22)
(0.679436 0.011043 -2.69225e-21)
(0.0103819 -0.0145326 8.26516e-21)
(0.0477383 -0.0292275 -4.39504e-20)
(0.106875 -0.0348444 5.23483e-20)
(0.169135 -0.035673 -3.93119e-20)
(0.227936 -0.0343523 -1.83015e-20)
(0.281821 -0.0322725 5.47544e-20)
(0.330564 -0.0300616 4.5507e-21)
(0.374509 -0.0279502 1.25578e-21)
(0.414192 -0.0259997 2.53853e-20)
(0.450138 -0.0242128 1.30834e-20)
(0.482812 -0.0225769 -1.03812e-20)
(0.51261 -0.0210778 -3.62659e-20)
(0.539873 -0.0197021 3.50499e-21)
(0.564893 -0.0184384 -3.09842e-21)
(0.58792 -0.0172768 3.36176e-20)
(0.60917 -0.0162089 -2.01936e-20)
(0.628835 -0.0152271 2.76314e-20)
(0.647103 -0.0143224 -4.13687e-20)
(0.664122 -0.0134848 4.78301e-23)
(0.679908 -0.0127175 -8.68496e-21)
(0.0121759 -0.035338 -2.73889e-20)
(0.0513944 -0.0726602 1.37832e-19)
(0.111303 -0.0878957 9.2757e-20)
(0.173749 -0.0910088 6.13416e-20)
(0.232452 -0.0883722 7.63593e-20)
(0.286128 -0.0835225 -1.88157e-20)
(0.334633 -0.0781698 8.44009e-20)
(0.378346 -0.0730002 1.71565e-20)
(0.417814 -0.0682231 -7.68772e-21)
(0.453563 -0.0638656 -6.01887e-20)
(0.486055 -0.0598988 6.21021e-20)
(0.515686 -0.0562834 -8.41708e-20)
(0.542795 -0.0529818 6.10044e-20)
(0.567671 -0.0499614 6.97155e-20)
(0.590564 -0.0471942 9.19946e-20)
(0.611686 -0.0446568 -6.05627e-20)
(0.631235 -0.0423276 1.68822e-20)
(0.649398 -0.0401827 6.34765e-20)
(0.666315 -0.0381995 -6.00729e-20)
(0.681957 -0.0363878 4.5256e-20)
(0.0155686 -0.0558939 -2.63334e-19)
(0.0583183 -0.115634 -1.32162e-19)
(0.119665 -0.140435 -1.4686e-19)
(0.182433 -0.145845 -1.14985e-20)
(0.24092 -0.141927 -7.90903e-20)
(0.294167 -0.134343 -9.72107e-20)
(0.342193 -0.12588 1.70581e-19)
(0.385441 -0.117678 8.6872e-20)
(0.424479 -0.110097 1.0627e-19)
(0.459836 -0.103189 -1.16071e-19)
(0.49197 -0.0969081 8.57185e-20)
(0.521273 -0.0911913 1.03899e-19)
(0.54808 -0.0859769 3.63334e-20)
(0.572678 -0.0812113 -3.4724e-20)
(0.595311 -0.0768485 7.34424e-21)
(0.616191 -0.0728502 -1.51528e-20)
(0.635516 -0.069181 -1.46029e-19)
(0.653479 -0.0658015 2.26699e-20)
(0.670199 -0.0626778 1.41387e-19)
(0.685578 -0.0598321 -1.90044e-19)
(0.0205261 -0.0760194 -8.57333e-20)
(0.0684518 -0.157817 1.28578e-19)
(0.131901 -0.192098 2.9618e-20)
(0.195132 -0.199833 -5.46724e-20)
(0.25329 -0.194694 -1.55448e-19)
(0.305894 -0.18444 -3.32999e-19)
(0.353203 -0.172923 -3.16206e-19)
(0.395757 -0.161737 -2.22476e-20)
(0.434154 -0.151392 -1.83169e-19)
(0.468926 -0.141968 -2.73398e-19)
(0.500528 -0.133403 2.11908e-19)
(0.529345 -0.125611 -3.12106e-19)
(0.555707 -0.118507 6.10173e-20)
(0.579893 -0.112016 -2.00906e-20)
(0.602143 -0.106076 -6.48083e-20)
(0.622666 -0.100632 -8.1485e-20)
(0.641661 -0.0956362 1.32351e-19)
(0.659329 -0.0910325 1.05328e-19)
(0.67576 -0.0867782 1.80985e-19)
(0.69076 -0.082916 -2.71221e-19)
(0.0269958 -0.0955379 4.67136e-20)
(0.081705 -0.198885 4.51584e-19)
(0.147916 -0.242526 1.29036e-19)
(0.211758 -0.252627 3.11954e-19)
(0.269484 -0.246359 -1.16104e-19)
(0.321241 -0.233527 1.7897e-19)
(0.367602 -0.219036 -5.52594e-20)
(0.409238 -0.204933 3.61501e-19)
(0.446787 -0.191883 -1.85228e-19)
(0.480788 -0.179991 2.18627e-19)
(0.511689 -0.169186 1.89542e-19)
(0.539865 -0.159357 2.01483e-19)
(0.565638 -0.150396 -1.80339e-19)
(0.589282 -0.142209 1.53715e-19)
(0.611029 -0.134716 -2.14103e-19)
(0.631082 -0.127849 -5.86583e-20)
(0.649644 -0.121545 -1.39954e-19)
(0.666923 -0.115732 -5.95474e-20)
(0.682974 -0.110361 2.35089e-19)
(0.697482 -0.105507 -3.89854e-19)
(0.0349072 -0.114279 -1.84873e-19)
(0.0979564 -0.238524 -2.29162e-20)
(0.167582 -0.29137 -7.35495e-20)
(0.232193 -0.303891 -2.59574e-19)
(0.289397 -0.296612 4.52742e-20)
(0.340114 -0.281323 -4.05099e-19)
(0.385306 -0.263962 -1.68873e-19)
(0.425809 -0.247031 -1.28002e-20)
(0.462312 -0.231348 -4.25093e-19)
(0.49536 -0.217054 -1.31217e-19)
(0.525394 -0.204064 -5.95763e-20)