/*--------------------------------*- C++ -*----------------------------------*\
  =========                 |
  \\      /  F ield         | OpenFOAM: The Open Source CFD Toolbox
   \\    /   O peration     | Website:  https://openfoam.org
    \\  /    A nd           | Version:  6.0
     \\/     M anipulation  |
\*---------------------------------------------------------------------------*/
FoamFile
{
    version     2.0;
    format      ascii;
    class       surfaceScalarField;
    location    "92";
    object      phi;
}
// * * * * * * * * * * * * * * * * * * * * * * * * * * * * * * * * * * * * * //

dimensions      [0 3 -1 0 0 0 0];

internalField   nonuniform List<scalar> 
7840
(
3.68183e-05
-0.000288121
0.000128699
-0.000889613
0.000255864
-0.00148028
0.000397538
-0.00201344
0.000535677
-0.00245527
0.000657923
-0.0027924
0.000758231
-0.00302962
0.000835697
-0.00318281
0.000892672
-0.00327184
0.000933006
-0.00331571
0.000960777
-0.00333004
0.000979576
-0.00332645
0.000992222
-0.00331289
0.00100076
-0.00329446
0.00100659
-0.00327428
0.00101066
-0.00325418
0.00101355
-0.00323518
0.00101568
-0.00321787
0.00101728
-0.00320252
-0.00318934
0.00101848
3.79573e-05
-0.000326078
0.000129932
-0.000981589
0.000253546
-0.00160389
0.000386906
-0.0021468
0.000512502
-0.00258086
0.000619559
-0.00289946
0.000703852
-0.00311392
0.000765951
-0.00324491
0.000809109
-0.003315
0.000837525
-0.00334412
0.000855225
-0.00334774
0.000865527
-0.00333675
0.000870897
-0.00331826
0.000873044
-0.00329661
0.000873094
-0.00327433
0.000871773
-0.00325286
0.000869549
-0.00323296
0.000866724
-0.00321504
0.000863478
-0.00319927
-0.00318577
0.000859907
3.86622e-05
-0.00036474
0.000129553
-0.00107248
0.000248039
-0.00172238
0.000371637
-0.0022704
0.000483813
-0.00269304
0.00057555
-0.00299119
0.000644356
-0.00318272
0.000692051
-0.00329261
0.000722533
-0.00334548
0.000740146
-0.00336173
0.000748738
-0.00335633
0.000751297
-0.00333931
0.000749938
-0.0033169
0.000746062
-0.00329273
0.00074056
-0.00326883
0.000733993
-0.00324629
0.00072672
-0.00322569
0.000718973
-0.0032073
0.000710892
-0.00319119
-0.00317743
0.00070255
3.89054e-05
-0.000403646
0.000127555
-0.00116113
0.00023949
-0.00183431
0.000352167
-0.00238307
0.00045038
-0.00279125
0.000526939
-0.00306775
0.000580941
-0.00323673
0.000615213
-0.00332688
0.000634074
-0.00336434
0.000641845
-0.0033695
0.000642111
-0.0033566
0.00063751
-0.00333471
0.000629823
-0.00330921
0.000620182
-0.00328309
0.00060928
-0.00325793
0.000597548
-0.00323456
0.000585263
-0.0032134
0.000572605
-0.00319464
0.000559688
-0.00317827
-0.0031643
0.000546566
3.8671e-05
-0.000442317
0.000123971
-0.00124643
0.000228112
-0.00193845
0.000328984
-0.00248395
0.00041297
-0.00287524
0.000474693
-0.00312947
0.000514651
-0.00327668
0.000536447
-0.00334867
0.00054462
-0.00337252
0.000543353
-0.00336824
0.000535913
-0.00334916
0.000524591
-0.00332339
0.000510865
-0.00329549
0.000495633
-0.00326786
0.000479429
-0.00324173
0.000462579
-0.00321771
0.000445298
-0.00319612
0.00042773
-0.00317707
0.000409969
-0.00316051
-0.0031464
0.000392063
3.79552e-05
-0.000480272
0.000118873
-0.00132735
0.000214168
-0.00203375
0.000302605
-0.00257238
0.000372329
-0.00294496
0.000419694
-0.00317684
0.000446394
-0.00330338
0.000456594
-0.00335887
0.000454895
-0.00337082
0.00044525
-0.00335859
0.00043059
-0.0033345
0.000412875
-0.00330567
0.000393313
-0.00327592
0.000372607
-0.00324715
0.000351162
-0.00322028
0.000329221
-0.00319577
0.000306949
-0.00317385
0.000284467
-0.00315459
0.000261857
-0.0031379
-0.0031237
0.000239163
3.67647e-05
-0.000517037
0.000112362
-0.00140294
0.000197951
-0.00211934
0.000273549
-0.00264798
0.000329152
-0.00300057
0.000362723
-0.00321041
0.000376942
-0.0033176
0.000376345
-0.00335828
0.000365468
-0.00335994
0.00034798
-0.0033411
0.000326473
-0.00331299
0.000302602
-0.0032818
0.000277345
-0.00325067
0.000251244
-0.00322105
0.000224595
-0.00319363
0.000197577
-0.00316875
0.000170316
-0.00314659
0.000142915
-0.00312719
0.000115451
-0.00311044
-0.00309622
8.79699e-05
3.51161e-05
-0.000552153
0.000104561
-0.00147239
0.000179769
-0.00219455
0.000242318
-0.00271053
0.000284077
-0.00304233
0.000304464
-0.0032308
0.000306944
-0.00332008
0.000296258
-0.00334759
0.000276787
-0.00334047
0.000251883
-0.0033162
0.000223811
-0.00328492
0.000193957
-0.00325195
0.000163101
-0.00321981
0.000131653
-0.0031896
9.98242e-05
-0.0031618
6.77369e-05
-0.00313666
3.54866e-05
-0.00311433
3.1617e-06
-0.00309486
-2.91586e-05
-0.00307812
-0.00306396
-6.14217e-05
3.30346e-05
-0.000585187
9.56088e-05
-0.00153496
0.000159935
-0.00225887
0.000209387
-0.00275998
0.000237678
-0.00307062
0.000245505
-0.00323863
0.000236938
-0.00331152
0.000216787
-0.00332744
0.000189207
-0.00331289
0.000157224
-0.00328422
0.000122798
-0.00325049
8.70786e-05
-0.00321623
5.0685e-05
-0.00318342
1.39205e-05
-0.00315284
-2.30751e-05
-0.00312481
-6.02263e-05
-0.00309951
-9.74664e-05
-0.00307709
-0.000134717
-0.00305761
-0.000171892
-0.00304094
-0.00302692
-0.000208928
3.05521e-05
-0.000615739
8.56533e-05
-0.00159007
0.000138757
-0.00231198
0.000175199
-0.00279642
0.000190462
-0.00308588
0.000186353
-0.00323452
0.000167373
-0.00329254
0.000138297
-0.00329836
0.000103008
-0.0032776
6.42098e-05
-0.00324542
2.35827e-05
-0.00320987
-1.7923e-05
-0.00317472
-5.98195e-05
-0.00314152
-0.000101887
-0.00311077
-0.000144044
-0.00308265
-0.000186257
-0.0030573
-0.000228488
-0.00303486
-0.000270666
-0.00301543
-0.000312694
-0.00299892
-0.00298513
-0.000354489
2.77061e-05
-0.000643446
7.4848e-05
-0.00163721
0.000116529
-0.00235366
0.000140156
-0.00282005
0.000142876
-0.0030886
0.000127435
-0.00321908
9.86219e-05
-0.00326372
6.10887e-05
-0.00326083
1.84214e-05
-0.00323493
-2.69883e-05
-0.00320001
-7.37081e-05
-0.00316315
-0.000120955
-0.00312748
-0.000168344
-0.00309413
-0.000215718
-0.0030634
-0.000263041
-0.00303533
-0.000310321
-0.00301002
-0.000357548
-0.00298764
-0.000404663
-0.00296832
-0.000451549
-0.00295203
-0.00293858
-0.000498098
2.45384e-05
-0.000667984
6.3347e-05
-0.00167602
9.35312e-05
-0.00238384
0.000104623
-0.00283114
9.53115e-05
-0.00307929
6.91191e-05
-0.00319288
3.09978e-05
-0.0032256
-1.45867e-05
-0.00321525
-6.43588e-05
-0.00318516
-0.000116221
-0.00314815
-0.00016896
-0.00311041
-0.000221931
-0.00307451
-0.000274824
-0.00304124
-0.000327526
-0.0030107
-0.000380038
-0.00298282
-0.000432403
-0.00295765
-0.000484648
-0.00293539
-0.000536729
-0.00291624
-0.000588508
-0.00290025
-0.00288725
-0.000639837
2.10938e-05
-0.000689078
5.13018e-05
-0.00170622
7.00246e-05
-0.00240256
6.89277e-05
-0.00283005
4.81112e-05
-0.00305847
1.17212e-05
-0.00315649
-3.52303e-05
-0.00317865
-8.85103e-05
-0.00316197
-0.000145156
-0.00312851
-0.000203346
-0.00308996
-0.000262057
-0.0030517
-0.000320756
-0.00301581
-0.000379189
-0.00298281
-0.000437267
-0.00295262
-0.000495011
-0.00292507
-0.000552501
-0.00290016
-0.000609807
-0.00287809
-0.000666912
-0.00285913
-0.000723663
-0.0028435
-0.00283107
-0.000779844
1.7419e-05
-0.000706497
3.88596e-05
-0.00172766
4.6251e-05
-0.00240996
3.33658e-05
-0.00281716
1.57586e-06
-0.00302668
-4.44833e-05
-0.00311043
-9.98256e-05
-0.00312331
-0.000160483
-0.00310131
-0.000223801
-0.0030652
-0.000288211
-0.00302555
-0.000352863
-0.00298704
-0.000417315
-0.00295136
-0.000481348
-0.00291877
-0.000544879
-0.00288909
-0.000607931
-0.00286202
-0.000670608
-0.00283749
-0.000733036
-0.00281566
-0.000795245
-0.00279693
-0.000857071
-0.00278167
-0.00276995
-0.000918194
1.35617e-05
-0.000720059
2.61615e-05
-0.00174026
2.2433e-05
-0.00240623
-1.79923e-06
-0.00279293
-4.40286e-05
-0.00298445
-9.92505e-05
-0.00305521
-0.000162573
-0.00305999
-0.000230312
-0.00303357
-0.000300114
-0.00299539
-0.000370647
-0.00295501
-0.000441213
-0.00291648
-0.000511451
-0.00288112
-0.000581168
-0.00284906
-0.000650267
-0.00281999
-0.000718749
-0.00279354
-0.000786722
-0.00276951
-0.000854356
-0.00274802
-0.000921752
-0.00272953
-0.000988751
-0.00271467
-0.00270382
-0.00105488
9.56991e-06
-0.000729628
1.33411e-05
-0.00174404
-1.22593e-06
-0.00239166
-3.63315e-05
-0.00275782
-8.84666e-05
-0.00293232
-0.000152362
-0.00299132
-0.000223272
-0.00298908
-0.000297807
-0.00295903
-0.000373903
-0.0029193
-0.000450447
-0.00287847
-0.000526886
-0.00284004
-0.000602941
-0.00280506
-0.00067844
-0.00277356
-0.000753268
-0.00274516
-0.000827379
-0.00271943
-0.000900842
-0.00269605
-0.00097385
-0.00267502
-0.00104659
-0.00265679
-0.00111892
-0.00264234
-0.00263247
-0.00119027
5.49076e-06
-0.000735119
5.22998e-07
-0.00173907
-2.45419e-05
-0.00236659
-7.00218e-05
-0.00271234
-0.000131529
-0.00287081
-0.000203619
-0.00291923
-0.000281731
-0.00291096
-0.000362773
-0.00287799
-0.000444954
-0.00283712
-0.000527369
-0.00279606
-0.000609605
-0.0027578
-0.000691471
-0.0027232
-0.00077284
-0.00269219
-0.000853588
-0.00266441
-0.000933613
-0.0026394
-0.00101291
-0.00261675
-0.00109167
-0.00259626
-0.00117019
-0.00257828
-0.0012484
-0.00256412
-0.00255495
-0.00132592
1.36978e-06
-0.000736489
-1.21778e-05
-0.00172552
-4.73507e-05
-0.00233142
-0.000102686
-0.00265701
-0.000173034
-0.00280046
-0.000252844
-0.00283942
-0.000337769
-0.00282604
-0.00042501
-0.00279075
-0.000513035
-0.00274909
-0.000601131
-0.00270796
-0.000689027
-0.00266991
-0.000776638
-0.00263558
-0.000863915
-0.00260491
-0.000950771
-0.00257756
-0.00103708
-0.00255309
-0.00112276
-0.00253107
-0.00120797
-0.00251105
-0.00129314
-0.00249311
-0.00137847
-0.00247879
-0.00246892
-0.0014645
-2.75015e-06
-0.000733739
-2.4658e-05
-0.00170361
-6.95093e-05
-0.00228657
-0.000134168
-0.00259235
-0.000212823
-0.00272181
-0.000299881
-0.00275236
-0.000391219
-0.0027347
-0.00048432
-0.00269765
-0.00057789
-0.00265552
-0.000671397
-0.00261445
-0.000764712
-0.00257659
-0.000857881
-0.00254242
-0.000950991
-0.0025118
-0.00104408
-0.00248446
-0.00113711
-0.00246006
-0.00123
-0.00243818
-0.0013228
-0.00241825
-0.00141594
-0.00239997
-0.00151006
-0.00238467
-0.00237121
-0.00160778
-6.82986e-06
-0.000726909
-3.68274e-05
-0.00167361
-9.08971e-05
-0.0022325
-0.000164339
-0.00251891
-0.000250773
-0.00263537
-0.000344604
-0.00265853
-0.000441941
-0.00263736
-0.000540522
-0.00259907
-0.000639266
-0.00255678
-0.000737792
-0.00251593
-0.000836096
-0.00247829
-0.000934356
-0.00244416
-0.00103284
-0.00241332
-0.00113184
-0.00238546
-0.00123165
-0.00236026
-0.00133246
-0.00233737
-0.00143441
-0.0023163
-0.00153812
-0.00229626
-0.00164597
-0.00227681
-0.00226935
-0.00174783
-1.08223e-05
-0.000716087
-4.85901e-05
-0.00163585
-0.000111395
-0.0021697
-0.00019308
-0.00243722
-0.000286774
-0.00254168
-0.000386913
-0.00255839
-0.000489828
-0.00253445
-0.00059349
-0.00249541
-0.000696986
-0.00245328
-0.00080004
-0.00241287
-0.000902706
-0.00237562
-0.00100521
-0.00234165
-0.00110789
-0.00231064
-0.00121121
-0.00228213
-0.00131581
-0.00225566
-0.00142249
-0.00223069
-0.00153209
-0.0022067
-0.00164499
-0.00218337
-0.00176219
-0.00215961
-0.0021284
-0.00190314
-1.47196e-05
-0.000701367
-5.9922e-05
-0.00159064
-0.000130974
-0.00209864
-0.000220372
-0.00234782
-0.000320822
-0.00244123
-0.000426817
-0.00245239
-0.000534902
-0.00242636
-0.000643255
-0.00238705
-0.000751099
-0.00234544
-0.000858222
-0.00230575
-0.000964679
-0.00226917
-0.00107063
-0.0022357
-0.00117627
-0.002205
-0.00128184
-0.00217657
-0.00138758
-0.00214992
-0.00149369
-0.00212457
-0.00160025
-0.00210014
-0.00170749
-0.00207613
-0.00181605
-0.00205105
-0.00202139
-0.00192306
-1.84854e-05
-0.000682882
-7.07564e-05
-0.00153837
-0.000149562
-0.00201984
-0.000246152
-0.00225123
-0.000352875
-0.00233451
-0.000464299
-0.00234097
-0.000577171
-0.00231349
-0.000689855
-0.00227437
-0.000801693
-0.0022336
-0.000912533
-0.00219491
-0.00102244
-0.00215926
-0.00113157
-0.00212658
-0.00124006
-0.0020965
-0.00134806
-0.00206857
-0.00145566
-0.00204232
-0.00156288
-0.00201735
-0.00166971
-0.00199331
-0.0017761
-0.00196974
-0.00188133
-0.00194581
-0.00192071
-0.00198201
-2.21001e-05
-0.000660782
-8.10584e-05
-0.00147942
-0.000167125
-0.00193377
-0.000270407
-0.00214795
-0.000382946
-0.00222197
-0.000499395
-0.00222452
-0.000616698
-0.00219619
-0.00073338
-0.00215769
-0.000848883
-0.0021181
-0.000963096
-0.0020807
-0.00107608
-0.00204627
-0.00118796
-0.0020147
-0.00129884
-0.00198563
-0.00140878
-0.00195863
-0.00151779
-0.00193331
-0.00162581
-0.00190933
-0.0017327
-0.00188642
-0.00183819
-0.00186425
-0.00194162
-0.00184238
-0.00182041
-0.00204192
-2.55482e-05
-0.000635233
-9.08036e-05
-0.00141416
-0.000183648
-0.00184093
-0.000293139
-0.00203846
-0.000411062
-0.00210404
-0.000532165
-0.00210342
-0.000653574
-0.00207478
-0.000773967
-0.00203729
-0.000892875
-0.00199919
-0.00101022
-0.00196335
-0.00112609
-0.00193041
-0.00124056
-0.00190023
-0.00135373
-0.00187246
-0.00146563
-0.00184672
-0.00157626
-0.00182268
-0.00168553
-0.00180006
-0.00179333
-0.00177862
-0.0018994
-0.00175818
-0.00200335
-0.00173843
-0.00171916
-0.0021046
-2.8818e-05
-0.000606415
-9.99762e-05
-0.001343
-0.000199126
-0.00174178
-0.000314365
-0.00192322
-0.000437264
-0.00198115
-0.000562673
-0.00197801
-0.000687893
-0.00194956
-0.000811736
-0.00191345
-0.000933818
-0.00187711
-0.0010541
-0.00184306
-0.00117267
-0.00181184
-0.00128962
-0.00178327
-0.00140504
-0.00175704
-0.00151895
-0.00173281
-0.00163136
-0.00171028
-0.0017422
-0.00168921
-0.00185139
-0.00166943
-0.00195879
-0.00165079
-0.00206419
-0.00163303
-0.00161602
-0.00216733
-3.19002e-05
-0.000574515
-0.000108566
-0.00126634
-0.000213559
-0.00163679
-0.000334107
-0.00180267
-0.000461597
-0.00185366
-0.00059099
-0.00184862
-0.000719745
-0.0018208
-0.000846806
-0.00178639
-0.00097186
-0.00175206
-0.00109491
-0.00172001
-0.00121605
-0.00169069
-0.0013354
-0.00166393
-0.00145304
-0.0016394
-0.00156902
-0.00161683
-0.00168336
-0.00159594
-0.00179605
-0.00157653
-0.00190704
-0.00155845
-0.00201627
-0.00154156
-0.00212366
-0.00152564
-0.00151061
-0.00222907
-3.47883e-05
-0.000539727
-0.000116568
-0.00118456
-0.000226956
-0.0015264
-0.000352389
-0.00167724
-0.000484107
-0.00172194
-0.000617177
-0.00171555
-0.000749213
-0.00168877
-0.000879273
-0.00165633
-0.00100712
-0.00162421
-0.00113278
-0.00159435
-0.00125639
-0.00156709
-0.00137806
-0.00154225
-0.0014979
-0.00151956
-0.00161598
-0.00149874
-0.00173235
-0.00147957
-0.00184703
-0.00146185
-0.00196002
-0.00144546
-0.00207132
-0.00143025
-0.00218093
-0.00141603
-0.00140277
-0.00228878
-3.74769e-05
-0.00050225
-0.000123979
-0.00109805
-0.000239324
-0.00141105
-0.000369237
-0.00154733
-0.000504834
-0.00158634
-0.00064129
-0.00157909
-0.000776361
-0.0015537
-0.000909213
-0.00152348
-0.00103967
-0.00149376
-0.0011678
-0.00146622
-0.00129375
-0.00144114
-0.00141767
-0.00141834
-0.00153967
-0.00139756
-0.00165984
-0.00137857
-0.00177827
-0.00136114
-0.00189501
-0.00134511
-0.00201009
-0.00133037
-0.00212357
-0.00131678
-0.00223546
-0.00130414
-0.00129247
-0.00234576
-3.99617e-05
-0.000462288
-0.000130798
-0.00100722
-0.000250672
-0.00129118
-0.000384672
-0.00141333
-0.000523813
-0.0014472
-0.000663373
-0.00143953
-0.000801243
-0.00141583
-0.000936682
-0.00138804
-0.00106957
-0.00136087
-0.00120002
-0.00133577
-0.0013282
-0.00131296
-0.00145425
-0.00129228
-0.00157834
-0.00127348
-0.00170057
-0.00125634
-0.00182103
-0.00124067
-0.00193981
-0.00122633
-0.00205698
-0.0012132
-0.00217262
-0.00120114
-0.00228676
-0.00118999
-0.00117978
-0.00239944
-4.22393e-05
-0.000420049
-0.000137023
-0.000912433
-0.000261009
-0.00116719
-0.000398713
-0.00127562
-0.000541072
-0.00130484
-0.000683463
-0.00129714
-0.000823895
-0.0012754
-0.000961718
-0.00125021
-0.00109686
-0.00122572
-0.00122947
-0.00120316
-0.00135973
-0.00118271
-0.00148781
-0.00116419
-0.00161388
-0.00114741
-0.00173807
-0.00113215
-0.0018605
-0.00111825
-0.00198126
-0.00110557
-0.00210045
-0.00109401
-0.00221817
-0.00108343
-0.00233447
-0.00107369
-0.00106485
-0.00244941
-4.43065e-05
-0.000375742
-0.000142654
-0.000814085
-0.00027034
-0.00103951
-0.000411376
-0.00113459
-0.000556634
-0.00115958
-0.000701584
-0.00115219
-0.000844345
-0.00113264
-0.000984343
-0.00111022
-0.00112156
-0.00108851
-0.00125616
-0.00106856
-0.00138834
-0.00105052
-0.00151832
-0.00103422
-0.00164624
-0.00101948
-0.00177228
-0.00100611
-0.00189655
-0.000993973
-0.00201919
-0.000982939
-0.00214028
-0.000972909
-0.00225995
-0.000963768
-0.00237826
-0.000955377
-0.000947813
-0.0024953
-4.61603e-05
-0.000329582
-0.000147689
-0.000712557
-0.000278669
-0.000908527
-0.000422671
-0.000990586
-0.000570514
-0.00101174
-0.000717754
-0.00100495
-0.000862607
-0.000987782
-0.00100457
-0.000968254
-0.00114366
-0.000949416
-0.00128007
-0.000932155
-0.00141402
-0.000916568
-0.00154572
-0.00090252
-0.00167535
-0.000889842
-0.00180309
-0.000878377
-0.00192907
-0.000867992
-0.00205343
-0.000858581
-0.00217628
-0.000850056
-0.00229774
-0.000842309
-0.0024179
-0.000835221
-0.000828877
-0.00253684
-4.77978e-05
-0.000281784
-0.000152125
-0.00060823
-0.000286
-0.000774652
-0.000432606
-0.000843979
-0.000582724
-0.000861623
-0.000731986
-0.000855685
-0.000878692
-0.000841076
-0.0010224
-0.000824548
-0.00116316
-0.000808655
-0.00130119
-0.000794127
-0.00143672
-0.000781036
-0.00156998
-0.000769265
-0.00170115
-0.000758666
-0.00183042
-0.000749105
-0.00195795
-0.000740469
-0.00208386
-0.000732667
-0.0022083
-0.00072562
-0.00233137
-0.000719237
-0.00245317
-0.000713415
-0.000708241
-0.00257381
-4.92166e-05
-0.000232568
-0.000155962
-0.000501484
-0.000292334
-0.000638281
-0.000441187
-0.000695126
-0.00059327
-0.00070954
-0.000744285
-0.000704671
-0.000892603
-0.000692758
-0.00103783
-0.00067932
-0.00118005
-0.000666432
-0.0013195
-0.00065468
-0.00145642
-0.000644117
-0.00159104
-0.000634642
-0.00172357
-0.000626134
-0.0018542
-0.00061848
-0.00198308
-0.000611588
-0.00211036
-0.000605382
-0.00223619
-0.000599796
-0.00236067
-0.000594752
-0.00248392
-0.000590168
-0.000586124
-0.00260604
-5.04142e-05
-0.000182154
-0.000159197
-0.000392701
-0.00029767
-0.000499808
-0.000448417
-0.000544379
-0.000602158
-0.000555798
-0.000754654
-0.000552175
-0.000904339
-0.000543073
-0.00105086
-0.000532799
-0.00119433
-0.000522965
-0.00133498
-0.000514024
-0.00147309
-0.000506013
-0.00160888
-0.000498852
-0.00174257
-0.000492444
-0.00187434
-0.000486701
-0.00200438
-0.00048155
-0.00213284
-0.00047693
-0.00225984
-0.00047279
-0.00238553
-0.000469066
-0.00251
-0.000465698
-0.000462755
-0.00263337
-5.13886e-05
-0.000130765
-0.000161828
-0.000282262
-0.000302009
-0.000359626
-0.000454296
-0.000392092
-0.00060939
-0.000400704
-0.000763096
-0.000398468
-0.000913899
-0.00039227
-0.00106148
-0.000385218
-0.00120597
-0.000378478
-0.00134761
-0.000372376
-0.00148669
-0.000366937
-0.00162344
-0.000362104
-0.00175808
-0.000357804
-0.00189081
-0.000353974
-0.00202179
-0.000350561
-0.0021512
-0.000347522
-0.00227918
-0.000344817
-0.00240584
-0.000342401
-0.00253131
-0.000340233
-0.000338368
-0.00265569
-5.21378e-05
-7.86272e-05
-0.000163852
-0.000170548
-0.000305351
-0.000218128
-0.000458827
-0.000238616
-0.000614966
-0.000244565
-0.000769611
-0.000243824
-0.000921281
-0.0002406
-0.00106968
-0.000236816
-0.00121496
-0.000233199
-0.00135738
-0.000229957
-0.00149721
-0.000227107
-0.0016347
-0.000224612
-0.00177008
-0.000222428
-0.00190354
-0.000220515
-0.00203526
-0.00021884
-0.0021654
-0.000217377
-0.00229412
-0.000216101
-0.00242153
-0.000214986
-0.00254776
-0.000214008
-0.000213204
-0.00267292
-5.26605e-05
-2.59667e-05
-0.000165268
-5.79403e-05
-0.000307694
-7.57021e-05
-0.000462009
-8.43005e-05
-0.000618889
-8.76853e-05
-0.000774198
-8.85148e-05
-0.000926483
-8.83153e-05
-0.00107547
-8.78305e-05
-0.00122131
-8.73599e-05
-0.00136427
-8.69946e-05
-0.00150463
-8.67453e-05
-0.00164265
-8.65984e-05
-0.00177854
-8.65367e-05
-0.00191251
-8.65447e-05
-0.00204474
-8.66099e-05
-0.00217539
-8.67224e-05
-0.00230462
-8.68737e-05
-0.00243255
-8.70546e-05
-0.0025593
-8.72602e-05
-8.75085e-05
-0.002685
-5.29558e-05
2.69891e-05
-0.000166076
5.51794e-05
-0.000309038
6.72606e-05
-0.000463844
7.05058e-05
-0.000621159
6.9629e-05
-0.000776859
6.71853e-05
-0.000929505
6.43307e-05
-0.00107883
6.14956e-05
-0.001225
5.88057e-05
-0.00136827
5.62829e-05
-0.00150894
5.3922e-05
-0.00164725
5.17132e-05
-0.00178344
4.96465e-05
-0.00191769
4.77128e-05
-0.00205021
4.5904e-05
-0.00218114
4.42131e-05
-0.00231065
4.26335e-05
-0.00243886
4.11557e-05
-0.00256589
3.97663e-05
3.84683e-05
-0.00269186
-5.30237e-05
8.00129e-05
-0.000166275
0.00016843
-0.000309386
0.000210371
-0.000464334
0.000225455
-0.000621778
0.000227073
-0.000777596
0.000223002
-0.000930348
0.000217083
-0.00107977
0.00021092
-0.00122603
0.000205063
-0.00136939
0.000199645
-0.00151014
0.000194668
-0.00164852
0.000190097
-0.00178477
0.000185896
-0.00191909
0.000182031
-0.00205166
0.000178473
-0.00218264
0.000175198
-0.0023122
0.000172185
-0.00244044
0.000169405
-0.0025675
0.000166826
0.000164473
-0.00269351
-5.28638e-05
0.000132877
-0.000165865
0.000281432
-0.000308736
0.000353242
-0.00046348
0.000380198
-0.000620749
0.000384342
-0.00077641
0.000378664
-0.000929016
0.000369689
-0.0010783
0.000360201
-0.00122441
0.000351176
-0.00136763
0.000342862
-0.00150823
0.000335265
-0.00164646
0.000328329
-0.00178255
0.000321988
-0.0019167
0.000316185
-0.0020491
0.00031087
-0.0021799
0.000306002
-0.00230926
0.000301545
-0.00243731
0.000297453
-0.00256416
0.000293674
0.000290251
-0.00268994
-5.24767e-05
0.000185353
-0.000164848
0.000393804
-0.000307091
0.000495485
-0.000461283
0.00053439
-0.000618073
0.000541133
-0.000773306
0.000533896
-0.000925513
0.000521896
-0.00107441
0.000509098
-0.00122015
0.000496913
-0.00136299
0.000485706
-0.00150322
0.00047549
-0.00164107
0.000466184
-0.00177678
0.000457698
-0.00191055
0.00044995
-0.00204255
0.000442868
-0.00217294
0.000436396
-0.00230188
0.000430483
-0.00242949
0.000425063
-0.00255588
0.000420068
0.000415555
-0.00268119
-5.18634e-05
0.000237217
-0.000163226
0.000505166
-0.000304452
0.000636711
-0.000457745
0.000687683
-0.000613755
0.000697143
-0.000768288
0.00068843
-0.000919845
0.000673452
-0.00106812
0.000657373
-0.00121325
0.000642044
-0.0013555
0.000627953
-0.00149513
0.00061512
-0.00163239
0.000603445
-0.0017675
0.00059281
-0.00190066
0.000583107
-0.00203204
0.000574248
-0.0021618
0.000566157
-0.00229008
0.000558769
-0.00241702
0.000552003
-0.00254273
0.00054577
0.00054014
-0.00266731
-5.10253e-05
0.000288242
-0.000160999
0.00061514
-0.000300823
0.000776535
-0.00045287
0.00083973
-0.000607796
0.000852069
-0.000761361
0.000841995
-0.00091202
0.000824111
-0.00105944
0.000804792
-0.00120374
0.000786344
-0.00134517
0.000769382
-0.00148399
0.000753941
-0.00162044
0.000739898
-0.00175474
0.000727109
-0.00188708
0.000715445
-0.00201762
0.000704794
-0.00214653
0.000695066
-0.00227395
0.000686183
-0.00239999
0.000678047
-0.00252477
0.000670549
0.000663767
-0.0026484
-4.99642e-05
0.000338206
-0.000158172
0.000723348
-0.000296204
0.000914566
-0.000446658
0.000990185
-0.000600199
0.00100561
-0.000752529
0.000994325
-0.000902046
0.000973628
-0.00104838
0.000951124
-0.00119163
0.000929591
-0.00133202
0.000909781
-0.00146983
0.000891744
-0.00160527
0.000875337
-0.00173855
0.000860393
-0.00186986
0.000846758
-0.00199937
0.0008343
-0.00212722
0.000822915
-0.00225355
0.00081251
-0.00237847
0.000802975
-0.0025021
0.00079418
0.000786204
-0.00262454
-4.86821e-05
0.000386888
-0.000154746
0.000829412
-0.000290597
0.00105042
-0.000439112
0.0011387
-0.000590967
0.00115746
-0.000741796
0.00114515
-0.00088993
0.00112176
-0.00103495
0.00109615
-0.00117693
0.00107157
-0.0013161
0.00104894
-0.00145268
0.00102833
-0.00158691
0.00100957
-0.00171899
0.000992469
-0.00184908
0.000976853
-0.00197735
0.000962572
-0.00210395
0.000949505
-0.00222898
0.000937549
-0.00235259
0.000926579
-0.00247485
0.000916446
0.000907226
-0.00259588
-4.71811e-05
0.000434069
-0.000150723
0.000932954
-0.000284003
0.0011837
-0.000430228
0.00128492
-0.000580096
0.00130733
-0.000729162
0.00129422
-0.000875677
0.00126828
-0.00101917
0.00123964
-0.00115968
0.00121208
-0.00129741
0.00118667
-0.00143259
0.00116351
-0.00156543
0.00114241
-0.00169612
0.00112316
-0.00182482
0.00110555
-0.00195168
0.00108943
-0.00207682
0.00107465
-0.00220039
0.00106111
-0.00232247
0.00104866
-0.00244317
0.00103714
0.00102662
-0.00256256
-4.54635e-05
0.000479533
-0.000146106
0.0010336
-0.000276422
0.00131401
-0.000420005
0.00142851
-0.000567584
0.00145491
-0.000714626
0.00144126
-0.000859288
0.00141294
-0.00100104
0.00138139
-0.00113988
0.00135093
-0.001276
0.00132279
-0.00140959
0.0012971
-0.00154087
0.00127369
-0.00167001
0.00125229
-0.00179715
0.0012327
-0.00192244
0.00121472
-0.00204599
0.0011982
-0.0021679
0.00118303
-0.00228829
0.00116905
-0.00240723
0.00115609
0.00114418
-0.00252479
-4.35315e-05
0.000523064
-0.000140896
0.00113096
-0.00026785
0.00144097
-0.000408435
0.00156909
-0.00055342
0.0015999
-0.000698177
0.00158602
-0.000840759
0.00155552
-0.000980562
0.00152119
-0.00111755
0.00148791
-0.00125187
0.00145711
-0.00138373
0.00142896
-0.0015133
0.00140326
-0.00164074
0.00137974
-0.00176619
0.00135815
-0.00188977
0.0013383
-0.00201158
0.00132001
-0.00213171
0.00130315
-0.00225025
0.00128759
-0.00236726
0.0012731
0.00125972
-0.00248281
-4.13872e-05
0.000564452
-0.000135093
0.00122467
-0.000258283
0.00156416
-0.000395508
0.00170632
-0.000537592
0.00174198
-0.000679801
0.00172823
-0.000820076
0.0016958
-0.000957732
0.00165885
-0.00109268
0.00162286
-0.00122505
0.00158948
-0.00135502
0.00155893
-0.00148275
0.00153099
-0.00160838
0.00150537
-0.00173204
0.00148181
-0.00185381
0.00146007
-0.00197377
0.00143997
-0.00209201
0.00142139
-0.00220858
0.00140416
-0.00232354
0.00138807
0.00137309
-0.00243691
-3.90331e-05
0.000603485
-0.000128696
0.00131433
-0.000247712
0.00168317
-0.000381208
0.00183981
-0.000520076
0.00188085
-0.000659475
0.00186763
-0.000797216
0.00183354
-0.000932527
0.00179416
-0.00106527
0.0017556
-0.00119554
0.00171975
-0.00132349
0.00168688
-0.00144927
0.00165677
-0.001573
0.0016291
-0.00169479
0.00160359
-0.00181468
0.00157997
-0.00193275
0.00155804
-0.00204903
0.00153767
-0.00216357
0.00151869
-0.00227638
0.00150088
0.00148416
-0.00238746
-3.64713e-05
0.000639956
-0.000121705
0.00139956
-0.000236129
0.0017976
-0.000365515
0.0019692
-0.000500845
0.00201618
-0.000637162
0.00200394
-0.000772142
0.00196852
-0.000904913
0.00192693
-0.00103528
0.00188597
-0.0011633
0.00184778
-0.00128912
0.0018127
-0.00141287
0.00178051
-0.00153465
0.00175088
-0.00165452
0.00172346
-0.00177254
0.00169798
-0.00188872
0.00167422
-0.00200306
0.00165201
-0.00211556
0.0016312
-0.00222621
0.00161153
0.00159288
-0.00233493
-3.37049e-05
0.000673661
-0.000114118
0.00147998
-0.000223522
0.001907
-0.000348405
0.00209408
-0.000479863
0.00214764
-0.000612819
0.0021369
-0.000744802
0.0021005
-0.000874833
0.00205696
-0.00100265
0.00201379
-0.0011283
0.00197342
-0.00125188
0.00193628
-0.00137352
0.00190216
-0.00149331
0.00187066
-0.00161129
0.00184144
-0.00172748
0.00181417
-0.00184186
0.0017886
-0.00195437
0.00176453
-0.00206496
0.00174179
-0.00217353
0.0017201
0.00169927
-0.00227991
-3.07374e-05
0.000704398
-0.000105936
0.00155518
-0.000209878
0.00201094
-0.000329851
0.00221405
-0.000457086
0.00227487
-0.000586388
0.0022662
-0.000715128
0.00222924
-0.000842209
0.00218404
-0.000967308
0.00213889
-0.00109043
0.00209654
-0.00121167
0.00205753
-0.00133115
0.00202163
-0.00144894
0.00198846
-0.00156508
0.00195758
-0.00167956
0.00192865
-0.00179232
0.00190135
-0.00190324
0.00187545
-0.00201218
0.00185073
-0.00211893
0.00182684
0.00180351
-0.00222318
-2.75738e-05
0.000731972
-9.71587e-05
0.00162476
-0.000195187
0.00210897
-0.000309822
0.00232869
-0.000432465
0.00239751
-0.000557804
0.00239154
-0.000683037
0.00235448
-0.000806943
0.00230794
-0.000929127
0.00226107
-0.00104956
0.00221698
-0.00116835
0.00217631
-0.00128559
0.00213888
-0.00140138
0.00210425
-0.00151576
0.00207196
-0.00162871
0.0020416
-0.00174016
0.0020128
-0.00184995
0.00198524
-0.00195782
0.0019586
-0.00206333
0.00193236
0.00190603
-0.00216585
-2.4221e-05
0.000756193
-8.77928e-05
0.00168833
-0.000179439
0.00220062
-0.000288291
0.00243754
-0.000405952
0.00251518
-0.000526993
0.00251258
-0.000648432
0.00247591
-0.000768907
0.00242842
-0.000887948
0.00238011
-0.0010055
0.00233453
-0.00112166
0.00229247
-0.00123656
0.00225378
-0.00135031
0.002218
-0.001463
0.00218465
-0.00157462
0.00215322
-0.00168509
0.00212327
-0.00179427
0.00209443
-0.00190187
0.0020662
-0.00200716
0.00203764
0.00200785
-0.00210898
-2.06887e-05
0.000776882
-7.78486e-05
0.00174549
-0.000162635
0.0022854
-0.000265236
0.00254014
-0.000377501
0.00262744
-0.000493886
0.00262897
-0.000611217
0.00259325
-0.00072798
0.00254518
-0.000843622
0.00249575
-0.000958058
0.00244896
-0.0010714
0.00240581
-0.00118382
0.00236619
-0.00129548
0.00232967
-0.00140654
0.00229571
-0.0015171
0.00226378
-0.00162716
0.00223333
-0.00173671
0.00220398
-0.00184571
0.0021752
-0.00195337
0.0021453
0.00211026
-0.00205578
-1.69899e-05
0.000793872
-6.7345e-05
0.00179585
-0.000144784
0.00236284
-0.000240648
0.00263601
-0.000347075
0.00273387
-0.000458417
0.00274031
-0.000571292
0.00270612
-0.000684014
0.0026579
-0.000795922
0.00260766
-0.000906887
0.00255993
-0.00101701
0.00251594
-0.00112648
0.00247567
-0.00123552
0.00243871
-0.00134437
0.00240456
-0.00145329
0.00237269
-0.00156248
0.00234253
-0.001672
0.00231349
-0.0017821
0.0022853
-0.00189362
0.00225682
0.00221989
-0.00200324
-1.31417e-05
0.000807014
-5.63104e-05
0.00183902
-0.000125908
0.00243244
-0.00021453
0.00272463
-0.000314658
0.002834
-0.000420545
0.0028462
-0.000528591
0.00281417
-0.000636912
0.00276622
-0.00074473
0.00271548
-0.000851864
0.00266706
-0.000958432
0.0026225
-0.0010647
0.00258194
-0.00117107
0.00254507
-0.00127804
0.00251153
-0.00138633
0.00248099
-0.00149686
0.00245305
-0.00161053
0.00242717
-0.00172765
0.00240242
-0.00184913
0.0023783
0.00236856
-0.0019978
-9.17887e-06
0.000816192
-4.48063e-05
0.00187464
-0.000106074
0.00249371
-0.000186939
0.00280549
-0.000280283
0.00292734
-0.000380284
0.0029462
-0.000483102
0.00291699
-0.000586636
0.00286976
-0.000689952
0.0028188
-0.000792784
0.0027699
-0.000895204
0.00272492
-0.000997448
0.00268418
-0.00109983
0.00264745
-0.00120271
0.00261441
-0.00130639
0.00258467
-0.00141109