1.275 	2.15223e-18 	-2.76991e-20 	0.157692 	-0.0211067 	-1.60813e-22
1.825 	2.15223e-18 	-1.39322e-20 	0.540911 	-0.0115215 	-8.7282e-22
2.375 	2.15223e-18 	-2.66896e-23 	0.782532 	-0.00557395 	2.32789e-22
