1.45 	0 	0 	-0.0371026
2.35 	0 	0 	0.0265075
