/*--------------------------------*- C++ -*----------------------------------*\
  =========                 |
  \\      /  F ield         | OpenFOAM: The Open Source CFD Toolbox
   \\    /   O peration     | Website:  https://openfoam.org
    \\  /    A nd           | Version:  6.0
     \\/     M anipulation  |
\*---------------------------------------------------------------------------*/
FoamFile
{
    version     2.0;
    format      ascii;
    class       volScalarField;
    location    "33";
    object      p;
}
// * * * * * * * * * * * * * * * * * * * * * * * * * * * * * * * * * * * * * //

dimensions      [0 2 -2 0 0 0 0];

internalField   nonuniform List<scalar> 
4000
(
-0.250578
-0.251509
-0.252122
-0.252567
-0.252937
-0.253248
-0.253512
-0.25374
-0.253943
-0.254125
-0.254293
-0.254451
-0.254602
-0.254751
-0.254902
-0.255066
-0.255242
-0.255378
-0.255447
-0.25601
-0.250695
-0.251624
-0.252235
-0.252676
-0.253042
-0.253348
-0.253607
-0.25383
-0.254026
-0.254203
-0.254364
-0.254515
-0.25466
-0.254802
-0.254948
-0.255105
-0.255276
-0.255408
-0.255471
-0.256032
-0.250916
-0.251842
-0.252447
-0.252881
-0.253238
-0.253534
-0.25378
-0.253991
-0.254175
-0.254337
-0.254485
-0.254622
-0.254752
-0.25488
-0.255011
-0.255155
-0.255314
-0.255433
-0.255483
-0.256038
-0.251243
-0.252164
-0.25276
-0.253182
-0.253525
-0.253804
-0.254033
-0.254224
-0.254387
-0.254529
-0.254654
-0.254768
-0.254875
-0.254979
-0.255087
-0.255209
-0.255347
-0.255447
-0.255476
-0.25602
-0.251677
-0.25259
-0.253174
-0.25358
-0.253903
-0.254159
-0.254363
-0.254528
-0.254662
-0.254774
-0.254868
-0.254949
-0.255023
-0.255094
-0.255169
-0.255258
-0.255366
-0.255439
-0.255438
-0.255966
-0.252219
-0.253122
-0.253691
-0.254077
-0.254374
-0.2546
-0.254772
-0.254901
-0.254999
-0.255071
-0.255124
-0.255163
-0.255193
-0.255219
-0.255248
-0.255293
-0.25536
-0.255394
-0.255353
-0.255859
-0.252872
-0.253764
-0.254313
-0.254672
-0.254938
-0.255128
-0.255259
-0.255346
-0.255397
-0.255421
-0.255422
-0.255406
-0.255379
-0.255346
-0.255316
-0.255303
-0.255316
-0.255298
-0.255204
-0.255681
-0.253642
-0.254518
-0.255043
-0.25537
-0.255597
-0.255743
-0.255827
-0.255861
-0.255858
-0.255822
-0.255761
-0.255678
-0.25558
-0.255474
-0.255369
-0.25528
-0.255221
-0.255135
-0.254972
-0.255412
-0.254532
-0.255388
-0.255884
-0.256173
-0.256354
-0.256449
-0.256477
-0.256451
-0.256383
-0.256279
-0.256143
-0.255981
-0.255798
-0.255601
-0.255402
-0.255218
-0.255066
-0.25489
-0.254638
-0.255031
-0.255551
-0.256381
-0.25684
-0.257083
-0.257211
-0.257248
-0.257212
-0.257119
-0.256979
-0.256796
-0.256575
-0.256321
-0.256038
-0.255733
-0.255419
-0.255116
-0.254845
-0.254552
-0.254183
-0.254513
-0.256706
-0.257501
-0.257917
-0.258106
-0.258173
-0.258143
-0.258037
-0.257869
-0.257649
-0.257381
-0.257066
-0.256709
-0.256311
-0.255881
-0.255429
-0.254979
-0.254557
-0.254111
-0.253589
-0.253833
-0.258006
-0.258757
-0.259119
-0.259245
-0.259243
-0.259139
-0.258955
-0.258706
-0.2584
-0.25804
-0.257626
-0.257157
-0.256633
-0.25606
-0.255448
-0.254823
-0.254212
-0.253567
-0.252838
-0.25296
-0.25946
-0.260154
-0.260451
-0.260505
-0.260422
-0.260236
-0.259967
-0.259632
-0.259237
-0.258782
-0.258264
-0.257678
-0.257021
-0.256293
-0.2555
-0.254668
-0.253827
-0.252927
-0.251918
-0.251862
-0.26108
-0.261701
-0.26192
-0.261888
-0.261715
-0.261435
-0.261074
-0.260647
-0.260159
-0.259608
-0.258985
-0.258282
-0.257489
-0.256598
-0.255609
-0.254543
-0.253427
-0.252205
-0.250823
-0.250501
-0.262875
-0.263407
-0.263532
-0.2634
-0.263121
-0.262737
-0.262274
-0.261748
-0.261163
-0.260513
-0.259787
-0.25897
-0.258042
-0.256988
-0.255795
-0.254473
-0.253042
-0.251428
-0.24955
-0.24883
-0.264858
-0.265282
-0.265294
-0.265044
-0.264643
-0.264139
-0.26356
-0.262925
-0.262236
-0.261485
-0.260656
-0.259728
-0.258672
-0.25746
-0.256065
-0.254479
-0.252705
-0.250635
-0.248128
-0.246823
-0.267042
-0.267336
-0.267215
-0.266825
-0.266282
-0.265638
-0.264927
-0.264168
-0.263364
-0.262505
-0.261571
-0.260534
-0.259359
-0.258003
-0.256421
-0.254582
-0.252465
-0.249917
-0.246674
-0.244539
-0.269444
-0.269585
-0.269307
-0.268754
-0.268043
-0.267236
-0.26637
-0.265468
-0.264533
-0.263554
-0.262509
-0.261365
-0.260079
-0.258599
-0.256858
-0.254796
-0.252359
-0.249339
-0.245254
-0.241894
-0.272085
-0.272049
-0.271587
-0.270842
-0.269936
-0.268937
-0.267891
-0.266823
-0.265737
-0.264624
-0.263462
-0.262217
-0.260845
-0.259285
-0.257455
-0.255257
-0.25257
-0.249043
-0.243789
-0.238416
-0.274995
-0.274752
-0.274077
-0.27311
-0.271977
-0.270757
-0.269504
-0.268244
-0.266988
-0.265729
-0.264451
-0.263131
-0.261738
-0.260234
-0.258569
-0.256679
-0.254451
-0.251426
-0.246361
-0.240407
-0.278209
-0.277728
-0.276806
-0.275584
-0.274193
-0.272723
-0.271234
-0.26976
-0.268316
-0.266902
-0.265515
-0.264151
-0.262815
-0.261532
-0.260371
-0.259483
-0.259146
-0.259812
-0.26311
-0.276071
-0.281772
-0.281015
-0.279811
-0.278301
-0.27662
-0.274872
-0.273124
-0.271416
-0.26977
-0.268195
-0.2667
-0.265302
-0.264038
-0.262981
-0.262264
-0.262125
-0.26295
-0.265311
-0.270444
-0.283099
-0.285735
-0.284658
-0.283135
-0.281304
-0.279305
-0.277253
-0.275227
-0.273272
-0.271416
-0.269677
-0.268077
-0.266648
-0.26545
-0.264582
-0.264202
-0.264551
-0.265973
-0.26891
-0.273984
-0.283842
-0.290156
-0.288708
-0.286826
-0.284643
-0.2823
-0.279926
-0.277608
-0.275397
-0.273326
-0.271421
-0.26971
-0.268238
-0.267072
-0.266315
-0.266113
-0.266664
-0.268213
-0.271025
-0.275367
-0.282447
-0.295095
-0.293219
-0.290937
-0.288373
-0.285663
-0.282951
-0.280331
-0.277858
-0.275566
-0.273485
-0.271647
-0.270094
-0.26889
-0.268124
-0.267908
-0.268375
-0.269665
-0.271893
-0.27515
-0.279692
-0.300611
-0.298243
-0.29552
-0.292548
-0.289452
-0.286391
-0.28346
-0.280715
-0.27819
-0.275911
-0.273904
-0.272206
-0.270865
-0.269944
-0.269516
-0.269653
-0.270414
-0.271818
-0.273883
-0.276364
-0.306757
-0.303831
-0.300628
-0.297222
-0.293726
-0.290302
-0.28705
-0.284018
-0.281233
-0.278712
-0.276471
-0.274534
-0.272931
-0.271697
-0.270872
-0.270482
-0.270538
-0.271013
-0.271899
-0.272768
-0.313582
-0.310028
-0.306305
-0.302446
-0.298533
-0.294735
-0.291143
-0.287793
-0.284702
-0.281871
-0.279305
-0.277011
-0.275002
-0.273296
-0.271907
-0.270842
-0.270088
-0.269612
-0.269396
-0.269026
-0.321117
-0.316869
-0.312592
-0.30826
-0.303917
-0.299725
-0.295762
-0.292047
-0.288577
-0.285341
-0.282329
-0.279538
-0.276973
-0.274641
-0.27255
-0.270701
-0.269083
-0.267671
-0.266446
-0.265089
-0.329383
-0.324376
-0.319516
-0.314697
-0.309905
-0.305289
-0.300906
-0.296752
-0.292804
-0.289038
-0.285437
-0.281997
-0.278725
-0.275631
-0.272729
-0.270025
-0.267518
-0.265201
-0.263055
-0.260867
-0.338378
-0.332559
-0.327092
-0.321771
-0.316505
-0.311419
-0.306543
-0.301846
-0.297289
-0.292844
-0.288497
-0.284256
-0.280138
-0.27617
-0.272377
-0.268777
-0.265382
-0.262196
-0.259199
-0.256266
-0.348079
-0.341402
-0.335313
-0.329473
-0.323697
-0.318074
-0.312603
-0.307229
-0.301907
-0.296615
-0.291362
-0.286176
-0.281097
-0.276172
-0.271439
-0.26693
-0.262661
-0.258646
-0.254857
-0.251231
-0.358434
-0.35087
-0.344148
-0.337768
-0.331428
-0.325174
-0.318974
-0.31276
-0.306496
-0.300188
-0.293877
-0.287624
-0.281498
-0.275564
-0.269874
-0.264463
-0.259351
-0.254548
-0.250018
-0.245735
-0.36936
-0.360894
-0.353534
-0.346585
-0.339606
-0.332597
-0.325504
-0.318265
-0.310876
-0.303387
-0.295887
-0.288476
-0.28125
-0.274288
-0.267648
-0.261362
-0.255446
-0.249902
-0.244678
-0.239776
-0.380738
-0.371373
-0.363373
-0.355811
-0.348092
-0.340174
-0.332
-0.32354
-0.314847
-0.306036
-0.297248
-0.288623
-0.280277
-0.272296
-0.264733
-0.257614
-0.250943
-0.244707
-0.238839
-0.233361
-0.392411
-0.382168
-0.373525
-0.365289
-0.356703
-0.347695
-0.338236
-0.328362
-0.318207
-0.307962
-0.297825
-0.287965
-0.27851
-0.269543
-0.261104
-0.253204
-0.245831
-0.238959
-0.232497
-0.226494
-0.404181
-0.3931
-0.383808
-0.374816
-0.365207
-0.354909
-0.34396
-0.332496
-0.320754
-0.309006
-0.297496
-0.286416
-0.275891
-0.265988
-0.256732
-0.24811
-0.240096
-0.232644
-0.225642
-0.219172
-0.41581
-0.403946
-0.393993
-0.384143
-0.373335
-0.361541
-0.34891
-0.335713
-0.322299
-0.309019
-0.296153
-0.283896
-0.272359
-0.261589
-0.251582
-0.242306
-0.233714
-0.225743
-0.218259
-0.211383
-0.427022
-0.414445
-0.40381
-0.392978
-0.380783
-0.367294
-0.352819
-0.337785
-0.322664
-0.307867
-0.293694
-0.28033
-0.267859
-0.256298
-0.245615
-0.235755
-0.226654
-0.218228
-0.210321
-0.203106
-0.437507
-0.424298
-0.412951
-0.400999
-0.38723
-0.371867
-0.355424
-0.338504
-0.321686
-0.305428
-0.290029
-0.275646
-0.262332
-0.250066
-0.238789
-0.228421
-0.218881
-0.210066
-0.201801
-0.194315
-0.437043
-0.423838
-0.412495
-0.400553
-0.386797
-0.37145
-0.355027
-0.338126
-0.321327
-0.305087
-0.289704
-0.275338
-0.262039
-0.249787
-0.238523
-0.228168
-0.218639
-0.209836
-0.201581
-0.194105
-0.426554
-0.41398
-0.40335
-0.392526
-0.380343
-0.366868
-0.352411
-0.337396
-0.322293
-0.307514
-0.293359
-0.280011
-0.267556
-0.256009
-0.245341
-0.235494
-0.226405
-0.217991
-0.210096
-0.202891
-0.415338
-0.403478
-0.39353
-0.383686
-0.372888
-0.361108
-0.348494
-0.335313
-0.321918
-0.308656
-0.295807
-0.283567
-0.272046
-0.261291
-0.251298
-0.242036
-0.233457
-0.225499
-0.218027
-0.211162
-0.403708
-0.392631
-0.383343
-0.374357
-0.364756
-0.35447
-0.343536
-0.332088
-0.320363
-0.308632
-0.29714
-0.286076
-0.275567
-0.265681
-0.256439
-0.247832
-0.239832
-0.232393
-0.225404
-0.218946
-0.391938
-0.3817
-0.37306
-0.364829
-0.35625
-0.347252
-0.337805
-0.327946
-0.317807
-0.307579
-0.297458
-0.287615
-0.278177
-0.269226
-0.260802
-0.252917
-0.245559
-0.2387
-0.232252
-0.226262
-0.380266
-0.370905
-0.362908
-0.355351
-0.347639
-0.339729
-0.331565
-0.323118
-0.314439
-0.305643
-0.296872
-0.288263
-0.279933
-0.271968
-0.264422
-0.257318
-0.250662
-0.244441
-0.238587
-0.233124
-0.36889
-0.360428
-0.353071
-0.346126
-0.339152
-0.332151
-0.325067
-0.317839
-0.310461
-0.302987
-0.295502
-0.288106
-0.280896
-0.273951
-0.267326
-0.261056
-0.255156
-0.249628
-0.244419
-0.239532
-0.357966
-0.350407
-0.343688
-0.337312
-0.330976
-0.324728
-0.318535
-0.31233
-0.306077
-0.299781
-0.293483
-0.287244
-0.281134
-0.275216
-0.269542
-0.264147
-0.259051
-0.254265
-0.249751
-0.245483
-0.347615
-0.340943
-0.334857
-0.32902
-0.323247
-0.317629
-0.312163
-0.306796
-0.301483
-0.296202
-0.29096
-0.285787
-0.280723
-0.275812
-0.271096
-0.266603
-0.262352
-0.258353
-0.254581
-0.250971
-0.337918
-0.332102
-0.32664
-0.321321
-0.316058
-0.310976
-0.306104
-0.301413
-0.296862
-0.292425
-0.288088
-0.283858
-0.279753
-0.2758
-0.272022
-0.268438
-0.26506
-0.261892
-0.258914
-0.255999
-0.328926
-0.323924
-0.319067
-0.314252
-0.309462
-0.304849
-0.300469
-0.296318
-0.292375
-0.288615
-0.285022
-0.281591
-0.27833
-0.275249
-0.272362
-0.269674
-0.267185
-0.264887
-0.26276
-0.26059
-0.320664
-0.31642
-0.312147
-0.307818
-0.303478
-0.299288
-0.295327
-0.291614
-0.288148
-0.284915
-0.281908
-0.279125
-0.276568
-0.274248
-0.272171
-0.270338
-0.268737
-0.267344
-0.266141
-0.264804
-0.313132
-0.309583
-0.305863
-0.302007
-0.298098
-0.294301
-0.29071
-0.287362
-0.284272
-0.281443
-0.27888
-0.27659
-0.274589
-0.272892
-0.271515
-0.270465
-0.269729
-0.269273
-0.269079
-0.268731
-0.306311
-0.303389
-0.30019
-0.296787
-0.293293
-0.289872
-0.28662
-0.283587
-0.280802
-0.278281
-0.276042
-0.274107
-0.272509
-0.271282
-0.270467
-0.270091
-0.270164
-0.27066
-0.27157
-0.272464
-0.300167
-0.297804
-0.295086
-0.292116
-0.289023
-0.285962
-0.283032
-0.280286
-0.277759
-0.275478
-0.273471
-0.271772
-0.270434
-0.269518
-0.269098
-0.269248
-0.270025
-0.27145
-0.27354
-0.276051
-0.294654
-0.292783
-0.290505
-0.287944
-0.285236
-0.282525
-0.279904
-0.277429
-0.275135
-0.273051
-0.271209
-0.269655
-0.268451
-0.267688
-0.267478
-0.267955
-0.26926
-0.271509
-0.274792
-0.279368
-0.289717
-0.288275
-0.286397
-0.284217
-0.281875
-0.279501
-0.277182
-0.274968
-0.272893
-0.270983
-0.269269
-0.267793
-0.266625
-0.265868
-0.265671
-0.26623
-0.267792
-0.270624
-0.274994
-0.282112
-0.285298
-0.284228
-0.282709
-0.28088
-0.278882
-0.27683
-0.274802
-0.272843
-0.270981
-0.269237
-0.26763
-0.266196
-0.264995
-0.264125
-0.263747
-0.264102
-0.265536
-0.268492
-0.273593
-0.283494
-0.281338
-0.280588
-0.279388
-0.27788
-0.276199
-0.274449
-0.272698
-0.270986
-0.269333
-0.267751
-0.266249
-0.264845
-0.263575
-0.262514
-0.261797
-0.261663
-0.262498
-0.264876
-0.270039
-0.282742
-0.277779
-0.277305
-0.276387
-0.275167
-0.273775
-0.272302
-0.270809
-0.269329
-0.267877
-0.266456
-0.26506
-0.263688
-0.262345
-0.261057
-0.259894
-0.259007
-0.258677
-0.259359
-0.262687
-0.275698
-0.274571
-0.274336
-0.273663
-0.272697
-0.271562
-0.27034
-0.269081
-0.267814
-0.266548
-0.26528
-0.263993
-0.262663
-0.261261
-0.25975
-0.258081
-0.256189
-0.253964
-0.250946
-0.245899
-0.239961
-0.271669
-0.271639
-0.271181
-0.270435
-0.269527
-0.268524
-0.267471
-0.266394
-0.265298
-0.264174
-0.263001
-0.261746
-0.260364
-0.258795
-0.256959
-0.254757
-0.252069
-0.248543
-0.243303
-0.237933
-0.269037
-0.269185
-0.26891
-0.268355
-0.267642
-0.266828
-0.265955
-0.265043
-0.264097
-0.263106
-0.262048
-0.260892
-0.259595
-0.258105
-0.256355
-0.254287
-0.251845
-0.248822
-0.244744
-0.241377
-0.266648
-0.266948
-0.266829
-0.266437
-0.26589
-0.265239
-0.26452
-0.26375
-0.262933
-0.262061
-0.261114
-0.260063
-0.258875
-0.257507
-0.255915
-0.254066
-0.25194
-0.249385
-0.246142
-0.243989
-0.26448
-0.264908
-0.264921
-0.264668
-0.264263
-0.263751
-0.263163
-0.262516
-0.261814
-0.261049
-0.260206
-0.259262
-0.258192
-0.256966
-0.255558
-0.253959
-0.252172
-0.250091
-0.247579
-0.246248
-0.262515
-0.26305
-0.263175
-0.263039
-0.262755
-0.262363
-0.26189
-0.261351
-0.260753
-0.260088
-0.259347
-0.258513
-0.25757
-0.256499
-0.255291
-0.253953
-0.252507
-0.250877
-0.248989
-0.248237
-0.26074
-0.261363
-0.261581
-0.261545
-0.261366
-0.261078
-0.260706
-0.260266
-0.259764
-0.259197
-0.258559
-0.257839
-0.257029
-0.25612
-0.255114
-0.254029
-0.252895
-0.251654
-0.250258
-0.249901
-0.259143
-0.259837
-0.260132
-0.260181
-0.260092
-0.259897
-0.259617
-0.25927
-0.25886
-0.25839
-0.257855
-0.257252
-0.256577
-0.25583
-0.255018
-0.254166
-0.253304
-0.252383
-0.251358
-0.251265
-0.257712
-0.258462
-0.258821
-0.258943
-0.258933
-0.258821
-0.258626
-0.258365
-0.258045
-0.257669
-0.257238
-0.256751
-0.256209
-0.255617
-0.254985
-0.254338
-0.253706
-0.253038
-0.25229
-0.252374
-0.256437
-0.25723
-0.257642
-0.257827
-0.257887
-0.257848
-0.257731
-0.257551
-0.257317
-0.257033
-0.256703
-0.256327
-0.255912
-0.255462
-0.254989
-0.254519
-0.254073
-0.253604
-0.253061
-0.253268
-0.255308
-0.256134
-0.25659
-0.256828
-0.256949
-0.256977
-0.256931
-0.256827
-0.256673
-0.256475
-0.256239
-0.255967
-0.255666
-0.255342
-0.255008
-0.254684
-0.25439
-0.254074
-0.253685
-0.253978
-0.254316
-0.255168
-0.255659
-0.255942
-0.256117
-0.256204
-0.256222
-0.256186
-0.256105
-0.255987
-0.255836
-0.255658
-0.255457
-0.255243
-0.255024
-0.25482
-0.254645
-0.254448
-0.254175
-0.254534
-0.253452
-0.254323
-0.254844
-0.255166
-0.255386
-0.255525
-0.2556
-0.255625
-0.255609
-0.255561
-0.255485
-0.255388
-0.255274
-0.255151
-0.255027
-0.25492
-0.25484
-0.254733
-0.254551
-0.25496
-0.252709
-0.253595
-0.254141
-0.254495
-0.254754
-0.254938
-0.255061
-0.255138
-0.25518
-0.255192
-0.25518
-0.255151
-0.255109
-0.255061
-0.255015
-0.254984
-0.254978
-0.254942
-0.25483
-0.255279
-0.252082
-0.25298
-0.253545
-0.253926
-0.254218
-0.254439
-0.254603
-0.254725
-0.254813
-0.254876
-0.254918
-0.254944
-0.254961
-0.254974
-0.254988
-0.255018
-0.255069
-0.255087
-0.25503
-0.255511
-0.251566
-0.252474
-0.253055
-0.253457
-0.253776
-0.254027
-0.254224
-0.254382
-0.254509
-0.254612
-0.254697
-0.254769
-0.254832
-0.254892
-0.254954
-0.25503
-0.255125
-0.255184
-0.25517
-0.255677
-0.251157
-0.252074
-0.252667
-0.253086
-0.253426
-0.2537
-0.253924
-0.25411
-0.254267
-0.254402
-0.25452
-0.254626
-0.254725
-0.25482
-0.254918
-0.25503
-0.255157
-0.255247
-0.255265
-0.255793
-0.250855
-0.251778
-0.252381
-0.252813
-0.253167
-0.253459
-0.253703
-0.25391
-0.254089
-0.254247
-0.254389
-0.25452
-0.254644
-0.254766
-0.25489
-0.255026
-0.255177
-0.255289
-0.255331
-0.255875
-0.250658
-0.251586
-0.252195
-0.252635
-0.253
-0.253304
-0.25356
-0.253781
-0.253975
-0.254148
-0.254306
-0.254454
-0.254595
-0.254734
-0.254875
-0.255028
-0.255194
-0.255321
-0.255379
-0.255933
-0.250566
-0.251496
-0.252109
-0.252553
-0.252923
-0.253233
-0.253496
-0.253724
-0.253926
-0.254107
-0.254274
-0.25443
-0.25458
-0.254728
-0.254878
-0.25504
-0.255215
-0.255349
-0.255416
-0.255977
-0.275813
-0.259888
-0.312296
-0.299086
-0.232539
-0.166186
-0.103702
-0.0601498
-0.0304793
-0.00754609
0.00231584
0.0101348
0.0118895
0.0132022
0.012327
0.0114544
0.0094254
0.00778526
0.00468087
0.00274628
-0.275995
-0.259951
-0.311989
-0.298669
-0.232421
-0.166612
-0.104408
-0.0607853
-0.0308865
-0.00763322
0.00242441
0.0103263
0.0120852
0.0133236
0.0123806
0.0114319
0.00935711
0.00770847
0.00459935
0.00270826
-0.276271
-0.260066
-0.311869
-0.298582
-0.232581
-0.167226
-0.105249
-0.0615029
-0.0313651
-0.00777306
0.00248869
0.0104828
0.0122538
0.0134248
0.0124188
0.0113983
0.00928067
0.00762581
0.0045148
0.00266699
-0.276626
-0.26022
-0.311914
-0.298805
-0.233008
-0.168018
-0.106215
-0.0622948
-0.0319093
-0.00796539
0.00250712
0.0106011
0.0123922
0.0135033
0.0124404
0.0113534
0.00919655
0.00753786
0.00442816
0.00262295
-0.277038
-0.260398
-0.312086
-0.299301
-0.233684
-0.168975
-0.107297
-0.0631547
-0.0325135
-0.0082106
0.00247813
0.0106778
0.0124973
0.013557
0.012444
0.0112968
0.00910518
0.00744513
0.00434029
0.00257657
-0.27748
-0.260578
-0.312337
-0.300025
-0.234584
-0.170084
-0.108486
-0.0640771
-0.0331733
-0.00850963
0.00240023
0.0107098
0.0125667
0.0135837
0.0124287
0.0112281
0.00900697
0.00734808
0.004252
0.00252821
-0.277923
-0.260739
-0.312614
-0.300922
-0.23568
-0.171332
-0.109773
-0.0650578
-0.0338847
-0.00886382
0.00227204
0.0106943
0.0125979
0.0135818
0.0123936
0.0111471
0.00890233
0.00724712
0.00416398
0.00247816
-0.27834
-0.26086
-0.312861
-0.301937
-0.236941
-0.172702
-0.111151
-0.0660932
-0.0346448
-0.00927465
0.00209244
0.0106289
0.0125893
0.0135499
0.0123381
0.0110538
0.00879164
0.0071426
0.00407683
0.00242665
-0.278702
-0.26092
-0.313025
-0.303013
-0.238336
-0.174182
-0.112612
-0.0671805
-0.035451
-0.0097435
0.00186057
0.0105118
0.0125397
0.0134871
0.012262
0.0109481
0.00867528
0.00703482
0.00399102
0.00237383
-0.278988
-0.260904
-0.313056
-0.304101
-0.239837
-0.175758
-0.11415
-0.0683172
-0.0363013
-0.0102714
0.001576
0.0103418
0.0124484
0.013393
0.0121651
0.0108302
0.0085536
0.00692404
0.00390692
0.00231979
-0.279178
-0.260799
-0.312915
-0.305157
-0.241418
-0.177417
-0.11576
-0.069501
-0.0371934
-0.0108589
0.00123877
0.0101184
0.0123155
0.0132674
0.0120478
0.0107004
0.00842694
0.00681048
0.00382477
0.00226458
-0.27926
-0.260598
-0.312569
-0.306144
-0.243058
-0.17915
-0.117435
-0.0707295
-0.0381253
-0.0115057
0.000849376
0.00984157
0.0121413
0.0131108
0.0119105
0.0105592
0.00829565
0.00669434
0.00374474
0.00220819
-0.279227
-0.260297
-0.311991
-0.307035
-0.244742
-0.180948
-0.119174
-0.0720014
-0.0390954
-0.0122111
0.000408706
0.00951225
0.0119268
0.0129239
0.0117538
0.010407
0.00816005
0.0065758
0.0036669
0.0021506
-0.279076
-0.259897
-0.311162
-0.307806
-0.24646
-0.182808
-0.120973
-0.0733157
-0.0401017
-0.0129739
-8.19107e-05
0.00913169
0.0116731
0.0127077
0.0115786
0.0102444
0.00802045
0.00645503
0.00359126
0.00209176
-0.278797
-0.259397
-0.310062
-0.308425
-0.248199
-0.184717
-0.122824
-0.0746661
-0.0411372
-0.0137893
-0.000619328
0.00870207
0.0113819
0.0124635
0.0113856
0.010072
0.0078771
0.00633211
0.00351774
0.0020316
-0.278373
-0.258794
-0.308676
-0.308851
-0.249919
-0.186642
-0.124695
-0.0760317
-0.0421855
-0.0146466
-0.0011972
0.00822748
0.0110554
0.0121925
0.0111758
0.00989027
0.00773015
0.00620707
0.00344619
0.00197003
-0.277829
-0.258116
-0.30702
-0.309104
-0.251627
-0.188581
-0.126588
-0.0774142
-0.0432533
-0.0155451
-0.00181474
0.00771193
0.010697
0.011898
0.0109511
0.0097006
0.00758008
0.00608046
0.00337638
0.00190717
-0.277236
-0.257449
-0.305116
-0.309362
-0.253576
-0.190767
-0.128705
-0.0789553
-0.0444518
-0.0165427
-0.00250132
0.00714816
0.0103075
0.0115844
0.0107153
0.00950648
0.00742851
0.00595421
0.00330858
0.00184352
-0.275987
-0.256633
-0.302677
-0.309466
-0.256
-0.193503
-0.131306
-0.0808273
-0.0458695
-0.017703
-0.00328673
0.00651389
0.00987689
0.0112457
0.0104669
0.00930728
0.00727631
0.00582783
0.003244
0.00177842
-0.271758
-0.254729
-0.299029
-0.307597
-0.257296
-0.195457
-0.133255
-0.0822095
-0.0467914
-0.0186531
-0.00396754
0.00585345
0.00939843
0.0108461
0.0101776
0.00907658
0.00711272
0.00568448
0.00318171
0.00170574
-0.231898
-0.236146
-0.272921
-0.284279
-0.253273
-0.197198
-0.136391
-0.0842922
-0.0470415
-0.0214141
-0.00645469
0.00227039
0.00645562
0.0081387
0.00819679
0.00748284
0.0060643
0.0047141
0.00281795
0.00123849
-0.190857
-0.217223
-0.236595
-0.244367
-0.228344
-0.18524
-0.131926
-0.0833012
-0.047737
-0.0252759
-0.0118646
-0.0042149
0.000263492
0.00269497
0.00385135
0.0041699
0.0037584
0.00304011
0.00187697
0.000543715
-0.170868
-0.192677
-0.203986
-0.205996
-0.19333
-0.162335
-0.120856
-0.080578
-0.049515
-0.029478
-0.017373
-0.010084
-0.00534859
-0.00221895
-0.000195295
0.00103575
0.00152986
0.00149028
0.000977483
0.00019134
-0.142091
-0.164795
-0.172801
-0.171138
-0.160081
-0.13873
-0.109411
-0.0784837
-0.0523269
-0.0339382
-0.02225
-0.0148452
-0.00980736
-0.00621861
-0.00363404
-0.00176939
-0.000557537
5.13962e-05
0.000197062
5.54231e-05
-0.118067
-0.138548
-0.145553
-0.143303
-0.134584
-0.120157
-0.100012
-0.0766775
-0.0547814
-0.0378336
-0.0262927
-0.0186518
-0.0133209
-0.0094129
-0.00646191
-0.00415758
-0.00239557
-0.00120133
-0.00046149
-0.000149424
-0.098105
-0.116179
-0.123103
-0.122138
-0.116061
-0.105994
-0.0916242
-0.0738296
-0.0557072
-0.0404259
-0.0291673
-0.0213173
-0.0157394
-0.0116442
-0.00852943
-0.00601215
-0.00391464
-0.00227165
-0.00105123
-0.000298868
-0.0825954
-0.09815
-0.105232
-0.105892
-0.101978
-0.0945681
-0.0837878
-0.070056
-0.0552153
-0.0417026
-0.030969
-0.023127
-0.017486
-0.0133642
-0.0102311
-0.00762378
-0.00530022
-0.00329492
-0.0016721
-0.000530413
-0.0706003
-0.0839748
-0.0910188
-0.092849
-0.0905013
-0.0849407
-0.0766143
-0.0658332
-0.0536601
-0.0419041
-0.0320157
-0.0245037
-0.0189816
-0.0148918
-0.0117315
-0.00902209
-0.00649396
-0.00419365
-0.00222861
-0.000696337
-0.0613218
-0.0728342
-0.0795494
-0.0820304
-0.0808385
-0.07673
-0.0701838
-0.0615328
-0.0515161
-0.0414857
-0.0326723
-0.0256806
-0.0203356
-0.0162387
-0.0129782
-0.0101242
-0.00741307
-0.00490343
-0.00267585
-0.000817577
-0.0540486
-0.063969
-0.0701793
-0.0729785
-0.0726433
-0.0696747
-0.0644781
-0.0574653
-0.0492463
-0.0408076
-0.0330776
-0.0266305
-0.0214646
-0.0173258
-0.0139224
-0.010914
-0.00807534
-0.00544767
-0.00305075
-0.000951893
-0.0482412
-0.0568145
-0.0624831
-0.0654098
-0.0656795
-0.0636026
-0.0595116
-0.0538437
-0.0471029
-0.0400044
-0.0332264
-0.0272896
-0.0223053
-0.0181265
-0.0145881
-0.0114687
-0.00857736
-0.00590111
-0.00339816
-0.0010976
-0.0435154
-0.0509731
-0.0561412
-0.0590882
-0.0597884
-0.0584367
-0.0552814
-0.0507114
-0.0451397
-0.0391093
-0.0331303
-0.0276568
-0.0228569
-0.0186768
-0.0150668
-0.0119133
-0.00901638
-0.00630584
-0.00370093
-0.00120954
-0.0395868
-0.0461524
-0.0508985
-0.0538312
-0.054864
-0.0541043
-0.0517139
-0.0480141
-0.0433501
-0.0381572
-0.0328388
-0.0277771
-0.0231772
-0.0190676
-0.0154708
-0.0123271
-0.00940999
-0.00663158
-0.0039132
-0.00127438
-0.0362492
-0.0421355
-0.0465673
-0.0495006
-0.0507998
-0.0505032
-0.0487147
-0.0456967
-0.0417354
-0.037197
-0.0324208
-0.0277319
-0.0233631
-0.0193907
-0.0158487
-0.0126923
-0.00971153
-0.00684365
-0.00404048
-0.00132361
-0.0333269
-0.0387651
-0.0430096
-0.0459721
-0.0474802
-0.0475344
-0.0462109
-0.0437215
-0.0403065
-0.0362868
-0.0319608
-0.0276159
-0.0234906
-0.019672
-0.0161657
-0.012955
-0.00989982
-0.00697034
-0.00413515
-0.0013791
-0.0307153
-0.0359394
-0.0401257
-0.0431407
-0.044809
-0.0451252
-0.0441532
-0.0420695
-0.0390867
-0.0354871
-0.0315383
-0.0274968
-0.0235825
-0.0198799
-0.0163766
-0.0131132
-0.0100206
-0.00707406
-0.00422637
-0.00142787
-0.028319
-0.0335995
-0.0378429
-0.0409242
-0.0427117
-0.0432175
-0.0425081
-0.0407398
-0.0380996
-0.0348345
-0.0311927
-0.0273957
-0.0236288
-0.0199908
-0.0164904
-0.0132179
-0.0101309
-0.00717875
-0.00429679
-0.00145025
-0.0261786
-0.0317439
-0.0361275
-0.0392742
-0.0411415
-0.0417781
-0.0412651
-0.0397407
-0.0373604
-0.0343439
-0.0309285
-0.0273036
-0.0236285
-0.0200359
-0.0165633
-0.0133099
-0.0102333
-0.00725891
-0.00433184
-0.00145668
-0.0244143
-0.0304212
-0.034969
-0.0381616
-0.0400743
-0.0407981
-0.040423
-0.0390685
-0.0368671
-0.0340169
-0.0307394
-0.0272121
-0.0236001
-0.0200649
-0.0166329
-0.0133844
-0.0102921
-0.00729035
-0.00434471
-0.00146589
-0.0233042
-0.0297161
-0.0343753
-0.0375873
-0.0395203
-0.0402919
-0.03999
-0.0387221
-0.0366154
-0.0338512
-0.030634
-0.0271449
-0.0235723
-0.0200878
-0.0166839
-0.0134226
-0.0103049
-0.0072891
-0.00435002
-0.00147475
-0.154677
-0.164699
-0.174851
-0.185226
-0.195926
-0.207069
-0.218781
-0.231193
-0.244436
-0.258621
-0.273802
-0.289943
-0.306793
-0.323875
-0.340191
-0.354578
-0.365058
-0.370855
-0.369863
-0.366737
-0.095345
-0.0987347
-0.101809
-0.104551
-0.106939
-0.108947
-0.110551
-0.111725
-0.112442
-0.112688
-0.11246
-0.111788
-0.110745
-0.109501
-0.108288
-0.107567
-0.107735
-0.109679
-0.113716
-0.121904
-0.0715752
-0.0758567
-0.0801725
-0.0845331
-0.0889499
-0.0934346
-0.0979998
-0.102658
-0.107421
-0.112299
-0.117297
-0.122414
-0.127631
-0.132913
-0.138179
-0.143322
-0.148153
-0.152486
-0.156005
-0.158495
-0.0585956
-0.0615091
-0.0643797
-0.0672078
-0.0699938
-0.0727376
-0.0754389
-0.078097
-0.0807111
-0.0832805
-0.0858048
-0.0882852
-0.0907256
-0.0931352
-0.0955316
-0.0979449
-0.100427
-0.103052
-0.105971
-0.109402
-0.0489117
-0.0512841
-0.053659
-0.0560386
-0.0584253
-0.0608215
-0.0632295
-0.0656518
-0.0680907
-0.0705485
-0.0730273
-0.0755289
-0.0780543
-0.0806028
-0.0831729
-0.0857571
-0.0883506
-0.0909284
-0.0935013
-0.0960105
-0.0430252
-0.0448948
-0.0467613
-0.0486253
-0.0504873
-0.0523479
-0.0542077
-0.0560674
-0.0579277
-0.0597893
-0.0616531
-0.0635199
-0.065391
-0.0672674
-0.0691518
-0.0710453
-0.072957
-0.0748851
-0.0768728
-0.0789132
-0.0383365
-0.0398406
-0.0413454
-0.0428512
-0.0443588
-0.0458685
-0.0473809
-0.0488965
-0.0504159
-0.0519397
-0.0534684
-0.0550025
-0.0565426
-0.0580888
-0.0596421
-0.0612013
-0.0627705
-0.0643426
-0.065943
-0.0675452
-0.0348758
-0.0361036
-0.0373313
-0.0385592
-0.0397874
-0.0410162
-0.0422456
-0.0434759
-0.0447075
-0.0459404
-0.047175
-0.0484116
-0.0496505
-0.0508918
-0.0521364
-0.0533836
-0.0546369
-0.0558913
-0.0571683
-0.0584463
-0.0321036
-0.0331162
-0.0341289
-0.0351415
-0.0361543
-0.0371673
-0.0381807
-0.0391946
-0.0402091
-0.0412244
-0.0422405
-0.0432576
-0.0442759
-0.0452953
-0.0463162
-0.047338
-0.048363
-0.0493872
-0.0504261
-0.0514614
-0.0299129
-0.0307559
-0.0315987
-0.0324414
-0.0332839
-0.0341264
-0.0349689
-0.0358114
-0.036654
-0.0374967
-0.0383397
-0.0391828
-0.0400262
-0.0408698
-0.0417139
-0.0425579
-0.0434035
-0.0442477
-0.0451021
-0.0459528
-0.0281216
-0.0288255
-0.0295295
-0.0302336
-0.0309377
-0.0316419
-0.0323462
-0.0330507
-0.0337554
-0.0344602
-0.0351651
-0.0358702
-0.0365753
-0.0372805
-0.0379859
-0.0386909
-0.0393968
-0.0401013
-0.040813
-0.041522
-0.0266269
-0.0272153
-0.0278043
-0.0283939
-0.0289841
-0.0295749
-0.0301663
-0.0307583
-0.0313508
-0.0319438
-0.0325372
-0.0331309
-0.033725
-0.0343191
-0.0349134
-0.0355075
-0.0361021
-0.0366957
-0.0372944
-0.037892
-0.0252795
-0.0257699
-0.0262618
-0.0267554
-0.0272505
-0.0277471
-0.0282453
-0.0287448
-0.0292457
-0.0297479
-0.0302511
-0.0307554
-0.0312605
-0.0317663
-0.0322728
-0.0327795
-0.0332869
-0.0337939
-0.0343049
-0.0348165
-0.0239988
-0.0244069
-0.0248181
-0.0252323
-0.0256495
-0.0260695
-0.0264921
-0.0269174
-0.0273451
-0.0277749
-0.0282068
-0.0286404
-0.0290756
-0.0295122
-0.0299498
-0.0303882
-0.0308275
-0.031267
-0.0317097
-0.0321544
-0.022544
-0.0228831
-0.0232277
-0.0235776
-0.0239328
-0.0242928
-0.0246576
-0.0250267
-0.0253999
-0.0257768
-0.0261571
-0.0265405
-0.0269266
-0.0273151
-0.0277056
-0.0280977
-0.0284914
-0.0288861
-0.0292837
-0.0296848
-0.02089
-0.0211784
-0.0214757
-0.0217814
-0.022095
-0.0224159
-0.0227437
-0.0230776
-0.0234173
-0.023762
-0.0241113
-0.0244647
-0.0248215
-0.0251813
-0.0255436
-0.025908
-0.026274
-0.0266412
-0.0270107
-0.0273843
-0.0183735
-0.0186545
-0.0189484
-0.0192541
-0.0195704
-0.0198962
-0.0202307
-0.0205727
-0.0209214
-0.021276
-0.0216355
-0.0219993
-0.0223665
-0.0227366
-0.0231089
-0.0234828
-0.0238578
-0.0242335
-0.0246104
-0.0249908
-0.0151002
-0.0154449
-0.0158022
-0.0161707
-0.0165487
-0.0169349
-0.017328
-0.0177269
-0.0181306
-0.0185379
-0.0189481
-0.0193603
-0.0197737
-0.0201878
-0.0206019
-0.0210154
-0.0214279
-0.0218392
-0.0222489
-0.0226601
-0.0100867
-0.0106948
-0.0112971
-0.0118932
-0.0124827
-0.0130653
-0.0136407
-0.0142088
-0.0147694
-0.0153222
-0.0158673
-0.0164046
-0.016934
-0.0174554
-0.0179689
-0.0184746
-0.0189722
-0.0194623
-0.0199445
-0.0204218
-0.00458371
-0.00555223
-0.00648649
-0.00738842
-0.00825979
-0.00910231
-0.00991757
-0.0107071
-0.0114722
-0.0122142
-0.0129344
-0.0136339
-0.0143138
-0.014975
-0.0156185
-0.0162453
-0.016856
-0.0174517
-0.0180325
-0.0186017
-0.00460277
-0.00557115
-0.00650528
-0.00740706
-0.00827829
-0.00912066
-0.00993576
-0.0107251
-0.01149
-0.0122319
-0.0129519
-0.0136512
-0.0143309
-0.0149919
-0.0156353
-0.0162618
-0.0168723
-0.0174678
-0.0180484
-0.0186174
-0.0101059
-0.010714
-0.0113162
-0.0119122
-0.0125015
-0.013084
-0.0136593
-0.0142272
-0.0147876
-0.0153403
-0.0158853
-0.0164224
-0.0169516
-0.0174729
-0.0179862
-0.0184916
-0.0189891
-0.019479
-0.0199609
-0.0204381
-0.0151203
-0.0154648
-0.0158221
-0.0161905
-0.0165684
-0.0169545
-0.0173475
-0.0177463
-0.0181498
-0.018557
-0.0189671
-0.0193791
-0.0197924
-0.0202064
-0.0206203