/*--------------------------------*- C++ -*----------------------------------*\
  =========                 |
  \\      /  F ield         | OpenFOAM: The Open Source CFD Toolbox
   \\    /   O peration     | Website:  https://openfoam.org
    \\  /    A nd           | Version:  6.0
     \\/     M anipulation  |
\*---------------------------------------------------------------------------*/
FoamFile
{
    version     2.0;
    format      ascii;
    class       volVectorField;
    location    "10.2";
    object      U;
}
// * * * * * * * * * * * * * * * * * * * * * * * * * * * * * * * * * * * * * //

dimensions      [0 1 -1 0 0 0 0];

internalField   nonuniform List<vector> 
8000
(
(-0.000761698 0.000892637 -4.01002e-21)
(-0.004044 0.00216893 2.14378e-20)
(-0.0100285 0.00305677 -2.6092e-20)
(-0.0173575 0.00366657 1.98761e-20)
(-0.0253624 0.00407339 9.68908e-21)
(-0.0336885 0.00433348 -2.90978e-20)
(-0.042088 0.00449147 -2.57595e-21)
(-0.0504044 0.00458287 -9.20407e-22)
(-0.0585539 0.00463608 -1.51511e-20)
(-0.0665042 0.00467397 -8.2232e-21)
(-0.0742595 0.00471497 6.11837e-21)
(-0.0818498 0.00477376 2.33452e-20)
(-0.0893225 0.00486177 -1.72349e-21)
(-0.0967335 0.00498752 2.52794e-21)
(-0.104147 0.00515668 -2.36144e-20)
(-0.111652 0.00537185 1.45731e-20)
(-0.119327 0.00563314 -2.09482e-20)
(-0.127017 0.00594202 3.17204e-20)
(-0.134385 0.00630149 -3.49129e-23)
(-0.143034 0.00667952 6.98024e-21)
(-0.000881182 0.00258497 1.33162e-20)
(-0.00429682 0.00629449 -6.80801e-20)
(-0.0103116 0.0088863 -4.70592e-20)
(-0.0176057 0.010677 -3.198e-20)
(-0.0255292 0.0118812 -4.11692e-20)
(-0.0337368 0.0126599 9.03831e-21)
(-0.0419873 0.013141 -4.75765e-20)
(-0.0501282 0.0134268 -1.07149e-20)
(-0.0580779 0.0135994 3.34446e-21)
(-0.0658052 0.0137255 3.5618e-20)
(-0.0733149 0.0138592 -3.89263e-20)
(-0.0806373 0.014044 5.42038e-20)
(-0.0878202 0.0143141 -4.0649e-20)
(-0.0949202 0.0146955 -4.82971e-20)
(-0.102003 0.0152058 -6.67391e-20)
(-0.109158 0.0158535 4.2533e-20)
(-0.116468 0.0166398 -1.38868e-20)
(-0.123782 0.01757 -5.04807e-20)
(-0.130753 0.0186543 4.77567e-20)
(-0.138988 0.0197969 -3.58681e-20)
(-0.00111419 0.00421445 1.30217e-19)
(-0.00479186 0.0102799 6.74982e-20)
(-0.0108684 0.0145293 7.59328e-20)
(-0.018097 0.0174708 6.32582e-21)
(-0.0258629 0.0194508 4.19917e-20)
(-0.0338401 0.0207304 5.24446e-20)
(-0.0417997 0.0215175 -9.5347e-20)
(-0.0495971 0.021979 -5.05594e-20)
(-0.0571553 0.0222495 -6.59473e-20)
(-0.0644452 0.0224388 7.03911e-20)
(-0.0714728 0.0226363 -5.38247e-20)
(-0.078269 0.0229148 -6.93838e-20)
(-0.0848823 0.0233324 -2.52878e-20)
(-0.0913707 0.0239337 2.40376e-20)
(-0.097802 0.02475 -6.79673e-21)
(-0.10427 0.0257979 9.59336e-21)
(-0.110863 0.0270812 1.12333e-19)
(-0.117435 0.0286111 -1.56509e-20)
(-0.123628 0.0304082 -1.14674e-19)
(-0.13105 0.0323129 1.53046e-19)
(-0.001452 0.00574414 4.53794e-20)
(-0.00551469 0.0140414 -6.4021e-20)
(-0.0116887 0.0198726 -1.60914e-20)
(-0.0188295 0.0239149 3.00695e-20)
(-0.0263728 0.0266347 8.54153e-20)
(-0.0340197 0.0283853 1.87113e-19)
(-0.04156 0.0294498 1.82958e-19)
(-0.0488607 0.0300562 1.525e-20)
(-0.0558511 0.0303892 1.12377e-19)
(-0.062506 0.0306001 1.72158e-19)
(-0.0688328 0.0308137 -1.37788e-19)
(-0.0748632 0.0311324 2.03894e-19)
(-0.0806467 0.0316394 -4.6425e-20)
(-0.0862433 0.0324004 1.15817e-20)
(-0.0917239 0.0334632 4.85661e-20)
(-0.0971873 0.0348558 6.47413e-20)
(-0.102733 0.036588 -1.01633e-19)
(-0.108227 0.0386804 -8.50828e-20)
(-0.113286 0.0411696 -1.51066e-19)
(-0.119528 0.0438328 2.22216e-19)
(-0.00188271 0.00714384 -2.36881e-20)
(-0.00644532 0.0175082 -2.42711e-19)
(-0.012758 0.0248184 -7.18358e-20)
(-0.0198004 0.0298926 -1.75083e-19)
(-0.0270705 0.0333015 6.61807e-20)
(-0.0343045 0.0354813 -1.04464e-19)
(-0.0413157 0.0367835 3.59695e-20)
(-0.0479865 0.0374921 -2.21532e-19)
(-0.0542552 0.0378388 1.1693e-19)
(-0.060101 0.0380145 -1.39551e-19)
(-0.0655335 0.0381783 -1.24249e-19)
(-0.0705855 0.0384627 -1.39337e-19)
(-0.0753072 0.0389776 1.26631e-19)
(-0.0797612 0.0398125 -1.13895e-19)
(-0.0840222 0.0410362 1.58698e-19)
(-0.088196 0.0426926 4.60528e-20)
(-0.092397 0.044803 1.14203e-19)
(-0.0965054 0.0474027 5.03035e-20)
(-0.100118 0.0505529 -1.99099e-19)
(-0.104853 0.0539705 3.28287e-19)
(-0.00239249 0.0083918 1.04638e-19)
(-0.00756001 0.0206266 7.98788e-21)
(-0.0140581 0.029289 4.3104e-20)
(-0.0210043 0.0353078 1.50397e-19)
(-0.0279679 0.039341 -2.3015e-20)
(-0.0347257 0.0418965 2.44396e-19)
(-0.0411202 0.0433861 1.08572e-19)
(-0.0470523 0.0441439 9.11769e-21)
(-0.0524716 0.044444 2.79527e-19)
(-0.0573635 0.044514 9.17487e-20)
(-0.0617397 0.0445456 4.3552e-20)
(-0.0656341 0.0447012 1.38263e-19)
(-0.0690976 0.0451192 1.2693e-19)
(-0.0721949 0.0459162 2.32168e-19)
(-0.0750052 0.0471866 -2.07551e-19)
(-0.0776427 0.0489974 2.94416e-19)
(-0.0802398 0.0513886 4.31895e-21)
(-0.0826992 0.0544182 -3.77365e-19)
(-0.0845964 0.0581846 4.90189e-19)
(-0.0875522 0.0623508 2.06335e-19)
(-0.00296693 0.00947563 -6.16539e-20)
(-0.00883307 0.0233611 -1.12024e-19)
(-0.0155681 0.0332293 -2.33019e-19)
(-0.0224328 0.0400888 -6.91249e-21)
(-0.029073 0.0446681 3.98175e-20)
(-0.0353118 0.0475352 -2.97697e-19)
(-0.0410245 0.0491527 -2.20975e-19)
(-0.0461348 0.0498982 -3.15831e-20)
(-0.0506058 0.0500824 -2.79848e-19)
(-0.0544302 0.0499656 -1.93977e-19)
(-0.057623 0.0497692 -5.65608e-20)
(-0.0602183 0.0496846 -1.8231e-19)
(-0.0622674 0.0498793 -2.87358e-21)
(-0.0638361 0.0505001 -2.42666e-19)
(-0.065008 0.051673 1.02427e-19)
(-0.0659063 0.0534963 -1.16797e-19)
(-0.0666845 0.0560385 8.99528e-20)
(-0.0672755 0.0593926 -1.14011e-19)
(-0.0672402 0.0637106 -3.27159e-19)
(-0.0682003 0.0686152 -9.99079e-20)
(-0.00359239 0.0103922 -2.27801e-20)
(-0.0102387 0.0256957 -2.47098e-20)
(-0.0172647 0.0366074 1.95418e-19)
(-0.0240723 0.0441896 -3.18082e-19)
(-0.0303865 0.0492252 4.666e-20)
(-0.0360806 0.0523304 -1.83808e-19)
(-0.0410672 0.0540098 8.6872e-20)
(-0.045296 0.0546761 3.90761e-19)
(-0.0487467 0.0546706 -2.49642e-20)
(-0.0514208 0.0542803 -2.91874e-19)
(-0.0533372 0.0537522 5.30546e-20)
(-0.0545302 0.0533039 1.02137e-20)
(-0.05505 0.0531314 -6.02736e-20)
(-0.0549623 0.0534139 5.82312e-21)
(-0.0543535 0.0543146 5.29453e-19)
(-0.0533558 0.0559722 -7.52826e-20)
(-0.0521456 0.0584972 -1.47485e-19)
(-0.0506937 0.0620334 -2.65315e-19)
(-0.0485585 0.0668103 2.70536e-19)
(-0.0473668 0.0724324 1.17606e-19)
(-0.004257 0.0111466 1.1472e-19)
(-0.0117521 0.0276314 -1.50164e-19)
(-0.0191222 0.0394137 2.12241e-19)
(-0.0259019 0.0475893 2.13609e-19)
(-0.0318961 0.0529816 1.96888e-19)
(-0.0370314 0.0562451 3.99325e-19)
(-0.0412619 0.0579168 2.5834e-19)
(-0.0445669 0.0584368 -5.55314e-19)
(-0.0469457 0.058169 2.84136e-19)
(-0.0484113 0.0574204 2.23143e-19)
(-0.0489871 0.0564574 -3.08646e-21)
(-0.0487076 0.055519 2.50192e-19)
(-0.0476205 0.0548265 1.95433e-19)
(-0.0457892 0.0545915 -1.06199e-19)
(-0.0433004 0.0550183 3.59926e-19)
(-0.0402933 0.0562958 -4.46339e-19)
(-0.036968 0.0585914 1.79015e-19)
(-0.0333399 0.0621214 2.30712e-19)
(-0.0289822 0.0672244 -5.41768e-20)
(-0.0255399 0.0735219 4.66706e-19)
(-0.00495141 0.0117507 2.30851e-19)
(-0.0133506 0.0291837 1.1937e-20)
(-0.0211116 0.0416579 -8.27918e-20)
(-0.0278906 0.0502891 -8.73941e-20)
(-0.033571 0.0559321 -4.04739e-19)
(-0.0381358 0.0592707 5.72836e-20)
(-0.0415844 0.0608663 1.62457e-19)
(-0.0439296 0.0611781 -7.81013e-20)
(-0.045194 0.0605847 6.44464e-20)
(-0.0454045 0.0594049 -1.70892e-20)
(-0.0445914 0.0579167 -8.43213e-20)
(-0.0427895 0.0563725 7.99664e-20)
(-0.040043 0.055013 -3.48918e-19)
(-0.0364103 0.0540783 3.34322e-19)
(-0.0319749 0.0538144 -2.90232e-19)
(-0.0268797 0.0544672 8.96374e-20)
(-0.0213463 0.0562772 2.04511e-19)
(-0.0154404 0.0595594 -4.25869e-20)
(-0.00877086 0.0648032 -1.419e-19)
(-0.0030285 0.0716998 -9.65932e-20)
(-0.00566891 0.0122204 -2.87591e-19)
(-0.0150129 0.0303785 -1.87879e-20)
(-0.0231996 0.043364 6.05259e-20)
(-0.0299939 0.0523084 1.55456e-19)
(-0.0353562 0.0580925 -2.19496e-19)
(-0.0393286 0.0614235 -1.91518e-19)
(-0.0419592 0.0628805 4.47119e-19)
(-0.0432987 0.0629342 -2.47019e-19)
(-0.0433968 0.0619701 -1.59399e-19)
(-0.0422982 0.0603104 -2.28845e-19)
(-0.0400422 0.0582349 1.51567e-19)
(-0.0366659 0.0559997 -4.04223e-21)
(-0.0322097 0.0538545 -2.83249e-19)
(-0.0267251 0.0520591 -4.64126e-19)
(-0.0202887 0.0508955 3.53626e-19)
(-0.013042 0.0506687 -2.87096e-19)
(-0.00522449 0.0517044 4.07375e-19)
(0.00304581 0.0544453 -1.14192e-19)
(0.0121023 0.0595836 2.41852e-19)
(0.0201625 0.0669546 -8.14841e-19)
(-0.00640518 0.0125739 -5.82513e-19)
(-0.0167188 0.0312469 3.81668e-19)
(-0.0253465 0.0445648 5.19063e-20)
(-0.0321504 0.0536784 1.00249e-20)
(-0.0371669 0.0594939 -2.35002e-19)
(-0.0404993 0.0627386 3.45551e-19)
(-0.042248 0.0640044 3.77887e-20)
(-0.0425051 0.0637685 -7.09087e-20)
(-0.0413517 0.062416 -2.27375e-19)
(-0.0388542 0.0602645 2.45901e-19)
(-0.0350652 0.0575861 6.23715e-19)
(-0.0300269 0.0546285 -1.37859e-19)
(-0.0237781 0.0516372 3.11476e-19)
(-0.016363 0.0488768 -3.68423e-19)
(-0.00784881 0.0466521 -3.5352e-19)
(0.00162889 0.0453184 2.12777e-19)
(0.0118183 0.0452908 3.52578e-19)
(0.0225502 0.0471637 -1.14196e-18)
(0.0340821 0.051893 1.33863e-19)
(0.0444748 0.0595567 1.80976e-19)
(-0.00715744 0.0128286 4.31349e-19)
(-0.018447 0.0318205 1.41656e-19)
(-0.0275035 0.0452961 7.37751e-19)
(-0.0342786 0.054436 3.78822e-20)
(-0.0388837 0.0601755 -8.20103e-20)
(-0.0414858 0.0632618 -3.90322e-19)
(-0.0422398 0.0642978 3.31967e-19)
(-0.0412827 0.0637633 5.9527e-19)
(-0.0387305 0.0620391 3.96805e-19)
(-0.0346756 0.0594318 2.86203e-19)
(-0.0291886 0.0561975 2.4668e-19)
(-0.0223221 0.0525648 -4.43784e-19)
(-0.0141177 0.0487593 -1.39378e-19)
(-0.00461638 0.0450312 -1.02295e-19)
(0.00612297 0.0416861 1.09872e-18)
(0.0179728 0.0391082 -3.64862e-21)
(0.0306736 0.0377882 -2.7431e-19)
(0.0440094 0.0384819 -8.6903e-20)
(0.0581543 0.0424693 7.8771e-19)
(0.0709345 0.0501938 9.94762e-20)
(-0.00792343 0.0129991 -2.14042e-20)
(-0.020173 0.032127 -4.07532e-19)
(-0.0296107 0.0455907 -6.05789e-19)
(-0.0362738 0.0546172 -1.68382e-19)
(-0.0403495 0.0601775 9.29314e-20)
(-0.04207 0.0630417 2.00477e-20)
(-0.0416467 0.063824 5.30691e-19)
(-0.039263 0.0630067 -6.58258e-19)
(-0.0350721 0.0609646 -2.50352e-19)
(-0.0291963 0.057991 -5.04553e-19)
(-0.0217293 0.0543215 -4.2993e-19)
(-0.0127408 0.0501578 -3.80491e-19)
(-0.00228416 0.0456927 9.50909e-20)
(0.00959416 0.0411424 -1.23408e-19)
(0.0228358 0.0367843 5.29741e-19)
(0.0373166 0.032996 -2.90681e-19)
(0.052769 0.0303069 -9.11725e-19)
(0.0689355 0.0296142 -1.84294e-19)
(0.0859183 0.0325645 4.50186e-19)
(0.101238 0.0401017 -3.90474e-19)
(-0.00870002 0.0130963 -6.88218e-20)
(-0.0218668 0.0321867 4.97902e-19)
(-0.0315935 0.0454749 -6.34707e-19)
(-0.0380053 0.0542524 1.46796e-19)
(-0.041367 0.0595357 -3.01858e-19)
(-0.0419772 0.0621226 6.72064e-19)
(-0.0401038 0.0626419 -4.80262e-19)
(-0.0359765 0.0615801 5.49454e-19)
(-0.0297865 0.0593085 -5.20632e-19)
(-0.0216883 0.0561092 2.22282e-19)
(-0.0118033 0.0521986 -1.07854e-19)
(-0.000226911 0.0477502 -2.70568e-19)
(0.0129641 0.0429185 -3.34335e-19)
(0.0277022 0.0378711 3.33512e-19)
(0.0439121 0.0328304 -2.79313e-19)
(0.061458 0.0281237 -6.1116e-19)
(0.0800533 0.0242581 6.36685e-19)
(0.099398 0.022207 -8.11935e-19)
(0.11956 0.0239811 3.66279e-19)
(0.137727 0.0311449 1.35724e-20)
(-0.00948191 0.0131257 -6.22602e-19)
(-0.0234899 0.0320108 -6.71696e-19)
(-0.0333605 0.0449648 7.74677e-20)
(-0.0393146 0.0533633 -6.46877e-19)
(-0.0416984 0.0582782 -5.72845e-20)
(-0.0408772 0.0605413 -4.75585e-19)
(-0.0371739 0.0608003 -1.09016e-19)
(-0.0308626 0.0595506 -3.18456e-19)
(-0.0221715 0.057165 3.16217e-21)
(-0.0112873 0.0539207 -1.39148e-19)
(0.00163619 0.0500227 1.00441e-20)
(0.0164696 0.0456236 -4.01402e-19)
(0.033098 0.0408452 4.42882e-19)
(0.0514113 0.0358053 -6.27746e-19)
(0.0712901 0.0306573 2.22729e-19)
(0.0925572 0.0256408 8.50201e-21)
(0.11488 0.0211676 -3.54136e-19)
(0.137896 0.0181748 8.79628e-19)
(0.161698 0.0189549 -2.09265e-19)
(0.183234 0.0257528 -1.36576e-19)
(-0.0102602 0.0130878 6.98357e-19)
(-0.0249927 0.0316006 3.76902e-19)
(-0.0348002 0.0440668 3.50399e-19)
(-0.0400135 0.051963 5.23108e-20)
(-0.0410648 0.0564261 4.73458e-19)
(-0.0383868 0.0583282 6.82086e-19)
(-0.0323548 0.0583406 5.5795e-19)
(-0.0232841 0.0569728 5.01014e-20)
(-0.011437 0.0546058 4.08491e-19)
(0.00296739 0.0515214 6.3092e-19)
(0.0197401 0.0479247 -1.63412e-19)
(0.0387086 0.043963 2.74629e-19)
(0.0597039 0.0397425 2.21709e-19)
(0.0825483 0.0353479 2.25818e-19)
(0.107043 0.0308723 1.33454e-18)
(0.132929 0.0264572 -5.00285e-19)
(0.159779 0.0223621 -3.027e-20)
(0.187124 0.0193452 5.79869e-19)
(0.215121 0.0198011 -3.28711e-19)
(0.240775 0.0266251 1.62734e-19)
(-0.0110213 0.0129782 -5.64229e-19)
(-0.0263114 0.0309486 3.59039e-20)
(-0.0357782 0.0427785 -4.50923e-19)
(-0.0398814 0.0500585 -5.86055e-20)
(-0.0391463 0.053998 3.29814e-19)
(-0.0340732 0.0555142 -9.81876e-19)
(-0.0250877 0.0553061 -7.72698e-22)
(-0.0125432 0.0539016 4.5677e-19)
(0.00326613 0.0516962 4.28732e-19)
(0.0220883 0.0489851 -1.8898e-19)
(0.0436945 0.0459872 6.22243e-20)
(0.06786 0.0428627 1.44267e-19)
(0.0943446 0.0397275 -6.84423e-20)
(0.122876 0.0366657 -7.66391e-19)
(0.153137 0.0337487 1.93992e-19)
(0.18473 0.0310536 5.33962e-19)
(0.217074 0.0286891 -7.60919e-19)
(0.249498 0.0271284 3.70754e-19)
(0.282213 0.0286495 9.9325e-20)
(0.312839 0.0367103 5.01848e-19)
(-0.0117455 0.0127884 -8.29901e-20)
(-0.0273661 0.0300402 -3.94818e-19)
(-0.0361345 0.0410923 1.81712e-19)
(-0.0386639 0.047656 8.95161e-22)
(-0.0355814 0.0510174 -7.9094e-19)
(-0.0274568 0.0521417 1.2353e-19)
(-0.0147653 0.0517574 -2.33976e-20)
(0.00210217 0.0504132 1.59453e-19)
(0.0228182 0.0485225 -7.29762e-19)
(0.0470939 0.0463997 -5.11233e-20)
(0.0746536 0.044286 -1.71359e-19)
(0.105209 0.04237 1.52388e-19)
(0.138434 0.0408017 5.14536e-19)
(0.173943 0.0397056 -7.95657e-20)
(0.211265 0.0391944 3.09186e-20)
(0.249804 0.0393739 2.02235e-19)
(0.288727 0.0403206 -5.02042e-20)
(0.326988 0.0423276 4.07746e-19)
(0.364581 0.0475956 -2.37452e-19)
(0.400265 0.0600211 -3.70041e-19)
(-0.0124058 0.0125067 7.71743e-20)
(-0.0280576 0.0288563 1.89781e-20)
(-0.0356805 0.0389993 1.58217e-19)
(-0.03607 0.0447668 3.87351e-19)
(-0.0299668 0.0475216 2.17289e-19)
(-0.0180144 0.0482771 2.26069e-20)
(-0.000741343 0.0477907 -2.59107e-19)
(0.0214188 0.0466302 6.64763e-20)
(0.0480965 0.0452255 3.49186e-19)
(0.0789538 0.043908 -5.91596e-19)
(0.113653 0.0429399 4.46304e-19)
(0.151831 0.0425374 -3.36262e-19)
(0.193072 0.0428905 2.85262e-19)
(0.236884 0.044183 -6.15257e-19)
(0.282681 0.0466158 6.7681e-19)
(0.329731 0.0504248 -7.23789e-19)
(0.377022 0.0558723 -1.88072e-19)
(0.42314 0.0635258 5.89219e-19)
(0.467118 0.0760872 -1.99602e-19)
(0.506395 0.0973284 8.93224e-20)
(-0.0129673 0.0121197 -5.82937e-20)
(-0.0282658 0.0273772 5.50315e-19)
(-0.0341971 0.0364948 -2.3286e-21)
(-0.0317721 0.0414144 -3.4159e-19)
(-0.0218596 0.043571 -2.29528e-19)
(-0.00518623 0.0440235 4.20603e-19)
(0.017655 0.0435537 -1.66574e-19)
(0.0461713 0.0427433 -2.09735e-20)
(0.0799282 0.0420304 3.4691e-19)
(0.118509 0.041751 -4.3097e-19)
(0.161482 0.0421699 4.71939e-20)
(0.208376 0.0435049 -5.59997e-19)
(0.258665 0.0459491 2.94749e-19)
(0.311767 0.0496957 -8.43077e-19)
(0.367054 0.0549711 1.34209e-18)
(0.42387 0.0620778 -2.46244e-19)
(0.481562 0.0714856 2.54921e-19)
(0.539708 0.0843261 -6.62249e-19)
(0.598607 0.10371 6.40862e-21)
(0.649769 0.127738 7.33376e-19)
(-0.0133858 0.011613 -1.76427e-19)
(-0.0278479 0.0255849 1.52353e-19)
(-0.0314341 0.0335831 -5.61612e-19)
(-0.0254068 0.0376414 8.30674e-19)
(-0.0107822 0.0392576 -5.9967e-19)
(0.0116126 0.0395301 3.0964e-20)
(0.0410969 0.0392582 -6.46501e-19)
(0.077086 0.0390269 4.62207e-19)
(0.119036 0.0392684 -6.60655e-20)
(0.166396 0.0403027 -4.07778e-19)
(0.218575 0.0423667 -2.37838e-19)
(0.274922 0.0456361 2.51375e-19)
(0.334729 0.0502431 1.66056e-19)
(0.397237 0.0562925 -7.34229e-19)
(0.461683 0.0638783 2.6528e-19)
(0.527338 0.0730956 -3.90134e-19)
(0.593579 0.0840557 4.73034e-20)
(0.660072 0.0970373 -3.28541e-19)
(0.727342 0.113132 1.29979e-19)
(0.788755 0.130169 -4.85076e-19)
(-0.0136072 0.010973 5.02357e-19)
(-0.0266382 0.023468 -3.04424e-19)
(-0.0271112 0.0302832 2.50815e-19)
(-0.0165796 0.0335153 -3.16611e-19)
(0.00376707 0.0347109 5.30549e-19)
(0.0329726 0.0349982 -9.24589e-21)
(0.0702287 0.0351822 -6.45847e-20)
(0.114804 0.0358374 -4.79035e-20)
(0.165975 0.0373699 2.94738e-19)
(0.222975 0.0400573 5.01034e-19)
(0.284962 0.0440756 -2.95977e-19)
(0.351012 0.0495182 2.8759e-19)
(0.420134 0.0564111 5.24743e-19)
(0.491302 0.0647248 -3.67981e-19)
(0.563504 0.0743836 -7.4478e-19)
(0.6358 0.085268 1.35977e-18)
(0.707374 0.0972042 -2.43016e-19)
(0.777614 0.109987 -7.82009e-20)
(0.846449 0.123805 8.32633e-19)
(0.909729 0.138993 -1.79177e-19)
(-0.0135677 0.0101888 -8.17348e-19)
(-0.0244492 0.0210255 -5.44091e-19)
(-0.020922 0.0266342 -2.08852e-19)
(-0.0048739 0.0291352 4.03035e-19)
(0.0222969 0.0301029 -9.10098e-19)
(0.0594605 0.0306814 4.71413e-19)
(0.10562 0.0316648 5.97484e-20)
(0.159816 0.0335953 6.03925e-20)
(0.221052 0.0368259 -6.17557e-19)
(0.288238 0.0415588 -2.18081e-19)
(0.360177 0.0478715 -3.84194e-19)
(0.435578 0.0557368 3.70838e-19)
(0.513093 0.0650409 1.04833e-19)
(0.591375 0.0755988 2.01058e-20)
(0.669145 0.0871678 4.79874e-19)
(0.745249 0.099456 -4.87012e-19)
(0.818707 0.112121 -1.98554e-20)
(0.888759 0.124786 1.37382e-20)
(0.954951 0.137186 6.7823e-20)
(1.01545 0.15154 3.6635e-19)
(-0.0131937 0.00925365 2.60159e-19)
(-0.0210736 0.0182715 6.69981e-19)
(-0.0125404 0.0227017 5.37627e-19)
(0.0101358 0.0246365 -1.85396e-19)
(0.0452989 0.0256512 6.45081e-19)
(0.0915805 0.0268845 -5.43437e-20)
(0.147706 0.0290945 -7.65858e-20)
(0.212383 0.0327597 4.55795e-20)
(0.28422 0.0381427 6.2388e-19)
(0.361691 0.0453279 3.66523e-19)
(0.443145 0.0542517 1.07045e-19)
(0.526855 0.0647294 6.74215e-21)
(0.611095 0.0764824 -7.07882e-19)
(0.694221 0.0891652 6.15076e-19)
(0.774757 0.10239 1.04732e-19)
(0.851452 0.115746 -1.73354e-19)
(0.923323 0.128815 -7.4451e-19)
(0.989678 0.141206 -6.11882e-20)
(1.05004 0.152434 2.91061e-19)
(1.10441 0.165788 -5.78982e-20)
(-0.0124031 0.0081674 -6.59568e-19)
(-0.0162891 0.0152401 2.75969e-19)
(-0.00163035 0.0185828 -1.34789e-18)
(0.0288652 0.0201966 5.52332e-19)
(0.0732174 0.0216208 -4.40581e-19)
(0.129727 0.0239584 3.24889e-19)
(0.196726 0.0278944 -5.04942e-19)
(0.272456 0.0337992 4.63507e-20)
(0.355 0.0417947 -2.60322e-20)
(0.442288 0.0517966 1.35788e-19)
(0.532147 0.0635552 1.95858e-19)
(0.622407 0.0766969 -3.70081e-19)
(0.711019 0.0907677 1.96116e-19)
(0.796155 0.105275 1.79543e-19)
(0.876304 0.119725 7.71266e-19)
(0.950317 0.133653 -3.36001e-19)
(1.01742 0.146642 -2.20594e-19)
(1.07722 0.158366 3.6979e-19)
(1.12952 0.168341 1.93785e-19)
(1.17541 0.180163 -3.69578e-19)
(-0.0111062 0.00693829 5.77321e-19)
(-0.00986375 0.0119897 5.56613e-19)
(0.0121414 0.0144119 1.60787e-19)
(0.0516985 0.016038 6.77153e-19)
(0.106413 0.0183235 3.32933e-19)
(0.174135 0.0222917 -6.003e-19)
(0.252657 0.0285022 9.09525e-19)
(0.339607 0.0371573 -4.47636e-19)
(0.432422 0.0481763 4.46869e-19)
(0.528408 0.061251 5.77898e-19)
(0.624874 0.0759062 -3.302e-19)
(0.719284 0.0915638 6.27944e-20)
(0.809408 0.107606 3.48686e-19)
(0.893438 0.123432 2.45019e-19)
(0.970054 0.138503 5.6181e-19)
(1.03844 0.152369 -2.26092e-19)
(1.09824 0.164689 -2.8936e-20)
(1.14953 0.175253 3.49424e-19)
(1.19258 0.183721 -7.57727e-20)
(1.22907 0.193507 -5.81318e-23)
(-0.00920815 0.00558497 -2.97929e-19)
(-0.00156372 0.0086074 -1.095e-18)
(0.02909 0.0103646 2.57992e-19)
(0.0789613 0.0124302 -1.96457e-19)
(0.145125 0.0161132 -4.5388e-19)
(0.224827 0.0222964 -3.2442e-19)
(0.31516 0.0313436 -2.00444e-19)
(0.412991 0.0432145 4.86666e-19)
(0.51502 0.0575573 -2.89021e-19)
(0.617931 0.0737899 -2.96138e-19)
(0.718601 0.0911905 -3.73803e-19)
(0.814302 0.108988 -6.16796e-20)
(0.902862 0.126445 -4.23764e-20)
(0.982748 0.142918 -8.59627e-19)
(1.05308 0.157899 4.14538e-19)
(1.11357 0.171032 -5.45513e-19)
(1.16443 0.182113 1.69144e-19)
(1.20629 0.19108 -1.28889e-18)
(1.23992 0.197816 3.89008e-19)
(1.26722 0.20528 4.86502e-19)
(-0.00661117 0.00413818 -7.48824e-20)
(0.00883712 0.00521177 5.33629e-19)
(0.049494 0.00665883 3.42528e-20)
(0.110892 0.00968576 8.24083e-20)
(0.189428 0.0153745 -1.67592e-19)
(0.281571 0.0243862 -2.83954e-21)
(0.383543 0.0368002 -4.35164e-21)
(0.491338 0.0522494 -1.01278e-19)
(0.600901 0.0700465 3.59339e-19)
(0.708387 0.0893056 1.38741e-19)
(0.810438 0.109069 6.29262e-19)
(0.904402 0.128421 -1.71371e-19)
(0.988451 0.146579 1.19274e-19)
(1.06159 0.162945 -1.50676e-20)
(1.12358 0.177127 3.2931e-19)
(1.1748 0.188927 2.0038e-19)
(1.21608 0.19832 4.79963e-19)
(1.24854 0.205411 -7.73575e-19)
(1.2734 0.2103 9.69751e-19)
(1.29259 0.215421 -3.06701e-19)
(-0.003218 0.00264196 -6.94731e-19)
(0.0215463 0.00195433 -2.17207e-19)
(0.0735752 0.00355388 1.69533e-19)
(0.147611 0.00815374 1.06954e-19)
(0.239202 0.0165066 1.09951e-19)
(0.34385 0.0289495 1.11316e-19)
(0.456761 0.0451751 -2.78934e-19)
(0.573011 0.0644054 -1.15146e-19)
(0.687873 0.0855734 3.58408e-20)
(0.797181 0.107494 -3.41221e-19)
(0.897638 0.129026 -1.53974e-19)
(0.986988 0.149195 9.29762e-19)
(1.06403 0.167274 -2.40056e-19)
(1.12853 0.182803 -3.29187e-19)
(1.181 0.195576 -1.5501e-19)
(1.2225 0.205601 1.07999e-19)
(1.25441 0.213041 1.30126e-19)
(1.27824 0.218157 -6.23125e-19)
(1.2955 0.221228 8.98577e-19)
(1.30804 0.224195 -7.77664e-19)
(0.00106436 0.00115452 -7.83081e-20)
(0.0367401 -0.000980778 2.23821e-20)
(0.101477 0.00134522 -2.88312e-20)
(0.189094 0.00820631 4.19989e-19)
(0.2941 0.0199005 2.33486e-20)
(0.41085 0.0363194 1.54402e-19)
(0.533448 0.0566613 -3.2111e-19)
(0.656105 0.0796711 -1.16654e-20)
(0.773629 0.103894 4.45789e-19)
(0.88185 0.127898 6.19556e-20)
(0.977885 0.150453 -3.87517e-19)
(1.06019 0.170639 -3.40869e-20)
(1.12843 0.187888 -3.16597e-19)
(1.18321 0.20196 3.15781e-19)
(1.22583 0.212882 4.36209e-19)
(1.25794 0.220877 -4.79865e-20)
(1.28133 0.226284 -5.7992e-20)
(1.29775 0.229485 1.76787e-19)
(1.3088 0.23088 -5.65619e-19)
(1.3162 0.232 4.99058e-19)
(0.00632005 -0.000251655 7.90259e-20)
(0.0545504 -0.00337934 -5.08723e-19)
(0.133243 0.00035596 1.36057e-19)
(0.235147 0.0102219 -4.23061e-19)
(0.353536 0.0259139 1.4558e-19)
(0.481484 0.0467441 -5.40668e-19)
(0.611995 0.0713205 2.18165e-19)
(0.738598 0.0978801 -6.9561e-20)
(0.85596 0.124624 -2.8736e-21)
(0.960295 0.149972 7.08911e-20)
(1.04949 0.172732 -2.57831e-19)
(1.12297 0.192161 -3.67402e-19)
(1.18137 0.207941 -7.49578e-20)
(1.22618 0.220102 -3.36452e-20)
(1.25933 0.228918 -8.52192e-20)
(1.28293 0.234807 -2.76433e-20)
(1.299 0.238247 -8.27181e-20)
(1.30936 0.239698 -7.15635e-20)
(1.31557 0.239624 -2.11715e-19)
(1.31918 0.239237 3.3505e-19)
(0.0126194 -0.00149024 1.89295e-19)
(0.0750511 -0.00500188 -2.10331e-19)
(0.168802 0.000924909 4.52966e-19)
(0.285394 0.0145647 -1.95791e-19)
(0.416697 0.0348443 5.23391e-19)
(0.554441 0.0603644 7.70672e-21)
(0.690658 0.0890768 2.62957e-19)
(0.818512 0.118733 -7.0685e-20)
(0.932942 0.147287 2.93597e-19)
(1.03095 0.173153 2.09527e-20)
(1.11148 0.195316 6.96821e-19)
(1.17508 0.213314 -4.80443e-19)
(1.22337 0.227143 6.49457e-20)
(1.25858 0.237119 1.23485e-19)
(1.28314 0.243741 6.42239e-19)
(1.29941 0.247585 -2.30589e-19)
(1.30947 0.249218 -4.55377e-20)
(1.31509 0.249135 -2.39928e-19)
(1.31768 0.247819 -2.48532e-20)
(1.31859 0.246242 1.19755e-19)
(0.0200134 -0.0024625 -9.05125e-20)
(0.0982457 -0.00559066 2.62001e-19)
(0.207948 0.00339167 -2.68974e-19)
(0.339274 0.0215626 1.05949e-19)
(0.482566 0.046907 -1.27306e-19)
(0.628259 0.0772018 4.66594e-19)
(0.767689 0.109727 -6.52487e-20)
(0.894074 0.141833 1.59737e-19)
(1.00308 0.171377 -9.4324e-20)
(1.09284 0.196927 -2.64146e-21)
(1.16356 0.217773 1.07033e-19)
(1.21692 0.233814 -8.28863e-20)
(1.25542 0.24538 2.14692e-19)
(1.28187 0.253056 -1.07125e-19)
(1.29899 0.257527 -4.69173e-19)
(1.3092 0.259473 4.65846e-19)
(1.31452 0.259502 -2.09192e-19)
(1.31655 0.258107 1.66943e-19)
(1.31652 0.255764 2.88423e-19)
(1.31556 0.253256 1.1841e-19)
(0.0285291 -0.00305947 2.25395e-19)
(0.124057 -0.00487896 -4.64646e-19)
(0.250341 0.00807988 8.88092e-20)
(0.396052 0.0314866 -6.45807e-20)
(0.549971 0.0622184 -2.6108e-19)
(0.701428 0.0971583 -2.04879e-19)
(0.841461 0.132966 -4.03805e-20)
(0.963835 0.166736 -3.6492e-19)
(1.06537 0.196411 -2.2294e-20)
(1.14558 0.220869 -6.77335e-20)
(1.206 0.239807 -1.83534e-19)
(1.24934 0.253521 -4.08334e-20)
(1.27882 0.262667 -1.401e-19)
(1.29759 0.268054 -2.33101e-19)
(1.30849 0.270498 2.38218e-19)
(1.31387 0.270734 3.24711e-20)
(1.31556 0.269369 6.46918e-20)
(1.31494 0.266863 -2.73083e-19)
(1.31307 0.263674 -7.02767e-21)
(1.31084 0.260435 -4.19785e-19)
(0.0381642 -0.0031652 2.4645e-19)
(0.152321 -0.00260202 1.64572e-19)
(0.295507 0.0152798 -2.65943e-19)
(0.454848 0.0445322 4.15256e-19)
(0.617655 0.0807886 -4.49355e-20)
(0.772479 0.12003 1.5524e-19)
(0.910569 0.158419 5.37702e-20)
(1.02673 0.192991 1.90242e-19)
(1.11928 0.221964 -1.48987e-19)
(1.18925 0.244659 4.95786e-20)
(1.23943 0.261244 -4.75258e-20)
(1.27341 0.272412 -2.07383e-20)
(1.29487 0.279103 3.96522e-20)
(1.30716 0.282296 -7.2876e-20)
(1.31303 0.282882 -2.22897e-20)
(1.31465 0.281602 -6.82753e-20)
(1.31364 0.279032 -1.10792e-19)
(1.31113 0.275584 7.15938e-20)
(1.30798 0.271692 -9.77721e-20)
(1.30491 0.267859 4.22892e-19)
(0.0488839 -0.00266074 -1.22833e-19)
(0.182782 0.00149072 -3.48618e-19)
(0.342843 0.0252313 -4.64439e-20)
(0.514676 0.0608068 -1.28227e-20)
(0.684339 0.102523 -1.56478e-19)
(0.840076 0.145527 -2.57037e-19)
(0.973899 0.185678 8.40642e-20)
(1.08211 0.220175 -1.15518e-19)
(1.16472 0.247688 -1.29248e-19)
(1.2243 0.268081 7.19531e-20)
(1.26473 0.282012 -5.43173e-20)
(1.29027 0.290538 -1.09737e-19)
(1.30486 0.294829 -3.56541e-21)
(1.31181 0.29597 7.43256e-20)
(1.31372 0.294875 -7.56017e-20)
(1.3125 0.292259 1.04924e-19)
(1.30951 0.288642 2.82982e-20)
(1.30568 0.284381 7.09708e-20)
(1.30167 0.279891 1.3791e-19)
(1.29805 0.275554 -1.18118e-19)
(0.0606183 -0.00142887 1.17218e-19)
(0.215098 0.00762304 -1.01121e-20)
(0.391646 0.0381097 5.28727e-20)
(0.574487 0.0803229 -7.15868e-20)
(0.748798 0.12723 6.03151e-21)
(0.903078 0.173301 2.4867e-19)
(1.03065 0.214331 -1.63232e-19)
(1.12966 0.247914 6.91653e-20)
(1.20191 0.273318 6.09879e-20)
(1.25139 0.291005 -1.71038e-19)
(1.28288 0.302105 1.6066e-19)
(1.30104 0.30799 1.45812e-21)
(1.30988 0.309988 -1.12998e-19)
(1.31256 0.309237 1.36155e-19)
(1.31142 0.306631 -5.39842e-20)
(1.30809 0.302831 4.12495e-20)
(1.3037 0.298291 -4.61509e-20)
(1.29896 0.293313 -1.85182e-20)
(1.2944 0.288295 -1.60999e-19)
(1.29043 0.283504 4.93759e-20)
(0.0732615 0.000640777 -3.93583e-20)
(0.248845 0.0159797 1.05992e-19)
(0.441133 0.0540141 1.65889e-20)
(0.633224 0.102998 6.9427e-20)
(0.809914 0.154641 3.3189e-20)
(0.960575 0.202966 1.55665e-20)
(1.08033 0.243984 8.80802e-20)
(1.16938 0.27589 -1.06576e-20)
(1.2313 0.298657 3.88214e-20)
(1.2713 0.31336 6.23177e-20)
(1.29481 0.321558 3.00533e-20)
(1.30669 0.324866 2.15716e-20)
(1.31085 0.324709 8.74396e-20)
(1.31018 0.322225 -8.46393e-20)
(1.30675 0.318256 1.81546e-20)
(1.3019 0.313394 -1.70031e-20)
(1.29653 0.308021 2.62827e-20)
(1.2912 0.30239 2.20177e-20)
(1.28629 0.29689 4.5917e-20)
(1.28212 0.291666 1.88608e-21)
(0.0866727 0.00364643 2.33449e-20)
(0.283532 0.0266958 2.13241e-20)
(0.490475 0.0729604 -2.95608e-20)
(0.689863 0.128658 1.84776e-20)
(0.866721 0.184422 1.04488e-20)
(1.0119 0.234125 -3.25233e-20)
(1.12272 0.274271 1.07241e-20)
(1.2015 0.303838 1.95727e-21)
(1.25348 0.323567 1.84865e-20)
(1.28484 0.335119 -4.96011e-20)
(1.30141 0.340419 -1.54812e-22)
(1.30807 0.341255 1.37407e-20)
(1.30849 0.339089 -1.09521e-20)
(1.30527 0.335017 1.10793e-20)
(1.30015 0.329808 2.89129e-20)
(1.29424 0.323975 -1.64556e-20)
(1.28822 0.317833 4.58131e-21)
(1.28252 0.311591 1.80238e-20)
(1.27742 0.305632 -2.96855e-20)
(1.27314 0.299978 1.42695e-20)
(0.10068 0.00766912 6.48149e-20)
(0.318615 0.0398477 -3.53274e-20)
(0.53883 0.094879 4.16537e-20)
(0.743463 0.15705 -3.10087e-20)
(0.91843 0.216198 -1.39174e-20)
(1.05662 0.26638 4.22105e-21)
(1.1578 0.304864 -1.36613e-20)
(1.2264 0.331543 4.91245e-20)
(1.26908 0.347945 -4.09238e-20)
(1.29275 0.35627 9.61238e-21)
(1.30344 0.358733 -7.15751e-21)
(1.30586 0.357224 -4.66779e-20)
(1.30338 0.35319 4.52943e-20)
(1.29826 0.347655 1.72607e-20)
(1.29194 0.341303 -1.7162e-20)
(1.28531 0.334567 4.03172e-20)
(1.27889 0.327696 -5.89369e-22)
(1.27299 0.320867 -3.91229e-20)
(1.2678 0.314461 2.89713e-20)
(1.26351 0.308367 9.16051e-21)
(0.115081 0.0127683 -2.2722e-20)
(0.353517 0.0554476 6.58367e-20)
(0.585377 0.119617 7.618e-20)
(0.793186 0.187855 -3.59945e-20)
(0.964434 0.249564 6.25932e-20)
(1.09451 0.299346 9.91328e-20)
(1.18574 0.335466 -5.48944e-21)
(1.24454 0.358822 -1.70685e-20)
(1.27875 0.371713 8.41779e-20)
(1.29574 0.376805 4.10782e-20)
(1.30155 0.376528 -7.47406e-21)
(1.30061 0.372809 6.13289e-20)
(1.29592 0.367036 -6.58409e-20)
(1.28944 0.360143 1.0258e-19)
(1.28231 0.352722 -1.71125e-20)
(1.27523 0.345128 4.91334e-20)
(1.26859 0.337555 8.88881e-21)
(1.26263 0.330152 3.51782e-20)
(1.25745 0.323299 -3.34663e-20)
(1.25321 0.316751 8.12969e-21)
(0.129654 0.0189776 -3.53657e-20)
(0.387645 0.0734397 8.34896e-20)
(0.629337 0.146943 6.2127e-20)
(0.838323 0.220696 -9.43934e-21)
(1.0043 0.284099 9.70694e-20)
(1.12551 0.332653 -7.27622e-20)
(1.20681 0.365809 -5.73809e-21)
(1.25642 0.385519 6.41374e-20)
(1.28308 0.3948 2.03466e-20)
(1.29441 0.39671 2.85818e-20)
(1.29626 0.393811 -4.22496e-20)
(1.29272 0.388012 1.10369e-19)
(1.28644 0.380617 2.06695e-20)
(1.27902 0.372451 -9.78953e-20)
(1.27139 0.364016 1.43362e-19)
(1.26407 0.355597 -1.69248e-19)
(1.25737 0.347335 -7.78507e-20)
(1.25145 0.339365 1.2908e-20)
(1.24636 0.332062 7.5594e-20)
(1.24222 0.325043 -1.42972e-19)
(0.144159 0.0263023 -7.91467e-20)
(0.420413 0.0937004 -1.8697e-19)
(0.670007 0.176556 -1.61977e-19)
(0.878304 0.255158 -2.20516e-19)
(1.03777 0.31938 -1.25341e-19)
(1.14968 0.365949 -2.59974e-19)
(1.22137 0.395651 3.30472e-20)
(1.26256 0.41149 -1.38409e-19)
(1.28265 0.417137 -1.5252e-20)
(1.28927 0.415952 2.28099e-20)
(1.288 0.41056 -5.02655e-20)