1.22 	3.45254e-18 	-6.98323e-18 	-0.124906 	0.00102057 	-4.25885e-22
1.66 	3.45254e-18 	-6.96118e-18 	-0.249516 	-0.00267502 	-2.17326e-23
2.1 	3.45254e-18 	-6.93894e-18 	-0.267789 	0.000457111 	-1.20451e-21
2.54 	3.45254e-18 	-8.30431e-18 	-0.367786 	0.0130329 	9.49303e-24
2.98 	3.45254e-18 	-8.28171e-18 	-0.421414 	0.0247783 	1.39401e-21
3.42 	3.45254e-18 	-6.87115e-18 	-0.448882 	0.020017 	1.45786e-21
3.86 	3.45254e-18 	-6.84819e-18 	-0.344063 	0.00388285 	2.72907e-22
4.3 	3.45254e-18 	-6.82504e-18 	-0.287368 	-0.0124413 	9.26202e-22
4.74 	3.45254e-18 	-5.41391e-18 	-0.1658 	-0.0242692 	-4.39801e-22
5.18 	3.45254e-18 	-2.61482e-18 	-0.0877876 	-0.0270164 	-1.58626e-22
5.62 	3.45254e-18 	-1.2033e-18 	0.0170634 	-0.0230699 	4.67177e-23
6.06 	3.45254e-18 	-1.17937e-18 	0.0951107 	-0.0152523 	4.83033e-23
6.5 	3.45254e-18 	-1.15524e-18 	0.181176 	-0.00640241 	1.58996e-23
