1.275 	2.15223e-18 	-2.76991e-20 	0.355747 	-0.0228547 	-7.66748e-23
1.825 	2.15223e-18 	-1.39322e-20 	0.682515 	-0.00852472 	-7.57305e-22
2.375 	2.15223e-18 	-2.66896e-23 	0.847003 	-0.00385772 	2.0696e-22
