1.275 	2.15223e-18 	-2.76991e-20 	-0.412721
1.825 	2.15223e-18 	-1.39322e-20 	-0.36601
2.375 	2.15223e-18 	1.38775e-18 	-0.309346
2.925 	2.15223e-18 	2.78958e-18 	-0.237582
3.475 	2.15223e-18 	4.53849e-18 	-0.110618
4.025 	2.15223e-18 	6.28755e-18 	-0.0416747
4.575 	2.15223e-18 	6.30203e-18 	-0.10822
5.125 	2.15223e-18 	6.31666e-18 	-0.145933
5.675 	2.15223e-18 	6.33144e-18 	-0.0861787
6.225 	2.15223e-18 	4.61166e-18 	-0.0562745
