/*--------------------------------*- C++ -*----------------------------------*\
  =========                 |
  \\      /  F ield         | OpenFOAM: The Open Source CFD Toolbox
   \\    /   O peration     | Website:  https://openfoam.org
    \\  /    A nd           | Version:  6.0
     \\/     M anipulation  |
\*---------------------------------------------------------------------------*/
FoamFile
{
    version     2.0;
    format      ascii;
    class       volScalarField;
    location    "16.8";
    object      p;
}
// * * * * * * * * * * * * * * * * * * * * * * * * * * * * * * * * * * * * * //

dimensions      [0 2 -2 0 0 0 0];

internalField   nonuniform List<scalar> 
8000
(
-0.277503
-0.278611
-0.279329
-0.279844
-0.280274
-0.28064
-0.280956
-0.281239
-0.281498
-0.281741
-0.281974
-0.282203
-0.282434
-0.28267
-0.282919
-0.283189
-0.283484
-0.283783
-0.284071
-0.284627
-0.27765
-0.27875
-0.279461
-0.279971
-0.280395
-0.280754
-0.281063
-0.281339
-0.281591
-0.281826
-0.282051
-0.282272
-0.282493
-0.28272
-0.28296
-0.283221
-0.283508
-0.283799
-0.284079
-0.28463
-0.277937
-0.279021
-0.279719
-0.280217
-0.280628
-0.280974
-0.281269
-0.28153
-0.281767
-0.281986
-0.282194
-0.282397
-0.282599
-0.282808
-0.283028
-0.28327
-0.28354
-0.283814
-0.284076
-0.28462
-0.278361
-0.279422
-0.280101
-0.280581
-0.280973
-0.281298
-0.281572
-0.28181
-0.282022
-0.282216
-0.282397
-0.282572
-0.282745
-0.282923
-0.283113
-0.283326
-0.283568
-0.283815
-0.28405
-0.284582
-0.278919
-0.27995
-0.280605
-0.28106
-0.281426
-0.281722
-0.281966
-0.282173
-0.282352
-0.28251
-0.282654
-0.282789
-0.282921
-0.283056
-0.283203
-0.283374
-0.283576
-0.283786
-0.283983
-0.284497
-0.279606
-0.280603
-0.281228
-0.281652
-0.281985
-0.282245
-0.28245
-0.282615
-0.28275
-0.282862
-0.282956
-0.283039
-0.283116
-0.283194
-0.283284
-0.283397
-0.283546
-0.283705
-0.283853
-0.284344
-0.280421
-0.281378
-0.281968
-0.282355
-0.282646
-0.282862
-0.283019
-0.283133
-0.283213
-0.283266
-0.283298
-0.283314
-0.283321
-0.283327
-0.283341
-0.283381
-0.283459
-0.283553
-0.283638
-0.284099
-0.281359
-0.282274
-0.282824
-0.283167
-0.283409
-0.283571
-0.283671
-0.283723
-0.283738
-0.283721
-0.283677
-0.283611
-0.283532
-0.283446
-0.283366
-0.283312
-0.283299
-0.283307
-0.283314
-0.283737
-0.282421
-0.28329
-0.283794
-0.284087
-0.284272
-0.284372
-0.284406
-0.284387
-0.284325
-0.284226
-0.284093
-0.283931
-0.283748
-0.283551
-0.283355
-0.283182
-0.283054
-0.282952
-0.28286
-0.283236
-0.283608
-0.284428
-0.28488
-0.285115
-0.285235
-0.285265
-0.285224
-0.285126
-0.284979
-0.284787
-0.284553
-0.284282
-0.283977
-0.283649
-0.283313
-0.282994
-0.28272
-0.282477
-0.282257
-0.282573
-0.284925
-0.28569
-0.286083
-0.286252
-0.2863
-0.286252
-0.286128
-0.285943
-0.285704
-0.285412
-0.285069
-0.284676
-0.284236
-0.283758
-0.283256
-0.282761
-0.282304
-0.281878
-0.281489
-0.28172
-0.286377
-0.28708
-0.287407
-0.287502
-0.287468
-0.287335
-0.287122
-0.286845
-0.286508
-0.286112
-0.285654
-0.285133
-0.284547
-0.283902
-0.283212
-0.282506
-0.281822
-0.281159
-0.280539
-0.280647
-0.287974
-0.288606
-0.288856
-0.288867
-0.288743
-0.288515
-0.288208
-0.287833
-0.287397
-0.286896
-0.286323
-0.285672
-0.284936
-0.284113
-0.283214
-0.282264
-0.281305
-0.280335
-0.279395
-0.279311
-0.289724
-0.290273
-0.290435
-0.29035
-0.290125
-0.289795
-0.289385
-0.288911
-0.288374
-0.287769
-0.287085
-0.286308
-0.285423
-0.28442
-0.283298
-0.282075
-0.280788
-0.279428
-0.278045
-0.277653
-0.29164
-0.292093
-0.292152
-0.291957
-0.291617
-0.291173
-0.290654
-0.290073
-0.289434
-0.288728
-0.287938
-0.287043
-0.286017
-0.284838
-0.283487
-0.281969
-0.280306
-0.278463
-0.276475
-0.275599
-0.293737
-0.294075
-0.294015
-0.293693
-0.293222
-0.29265
-0.292008
-0.291313
-0.290568
-0.289759
-0.288867
-0.287861
-0.286705
-0.28536
-0.283786
-0.281964
-0.279887
-0.277478
-0.274702
-0.273093
-0.29603
-0.296236
-0.296035
-0.295566
-0.294943
-0.294223
-0.293442
-0.29262
-0.291757
-0.290841
-0.289846
-0.288734
-0.287458
-0.285961
-0.28418
-0.282062
-0.279564
-0.276546
-0.272828
-0.270169
-0.298542
-0.298593
-0.298228
-0.297587
-0.296788
-0.295896
-0.294954
-0.293985
-0.292989
-0.291954
-0.290849
-0.289631
-0.288243
-0.286612
-0.284647
-0.282257
-0.279352
-0.27571
-0.270907
-0.266739
-0.301298
-0.301169
-0.300614
-0.299773
-0.298769
-0.297678
-0.29655
-0.295409
-0.29426
-0.293089
-0.291866
-0.290545
-0.289065
-0.287341
-0.285262
-0.28269
-0.279456
-0.275172
-0.268973
-0.262499
-0.304332
-0.303994
-0.303219
-0.302146
-0.300907
-0.299588
-0.298245
-0.296908
-0.295585
-0.294264
-0.29292
-0.291515
-0.29
-0.28831
-0.286363
-0.284053
-0.281219
-0.27736
-0.271201
-0.263882
-0.307686
-0.307105
-0.306075
-0.304739
-0.303233
-0.301656
-0.300072
-0.298515
-0.296997
-0.295515
-0.294051
-0.292586
-0.291101
-0.289591
-0.288082
-0.286669
-0.285557
-0.285094
-0.286637
-0.2969
-0.311408
-0.310544
-0.309223
-0.307591
-0.305787
-0.303925
-0.302075
-0.300279
-0.298553
-0.296899
-0.295312
-0.293791
-0.292344
-0.291012
-0.289884
-0.28914
-0.289093
-0.290227
-0.2936
-0.303626
-0.315554
-0.31436
-0.31271
-0.310749
-0.308619
-0.306448
-0.304315
-0.302264
-0.300319
-0.298487
-0.296774
-0.295191
-0.293768
-0.292569
-0.29171
-0.291379
-0.291859
-0.293527
-0.296913
-0.304351
-0.320184
-0.318605
-0.316587
-0.314265
-0.311785
-0.309285
-0.306854
-0.30454
-0.302368
-0.300351
-0.298499
-0.296831
-0.295386
-0.294232
-0.293476
-0.293271
-0.293815
-0.295328
-0.298042
-0.302941
-0.325359
-0.323336
-0.320906
-0.318195
-0.315342
-0.3125
-0.30976
-0.307173
-0.304763
-0.302544
-0.300525
-0.298725
-0.297179
-0.295942
-0.295095
-0.294738
-0.29498
-0.295914
-0.297625
-0.300259
-0.331138
-0.328605
-0.325722
-0.322595
-0.319351
-0.316152
-0.313093
-0.31022
-0.307553
-0.305099
-0.302863
-0.300855
-0.299099
-0.29763
-0.296498
-0.295756
-0.295449
-0.295593
-0.296216
-0.297063
-0.337574
-0.334462
-0.331086
-0.327518
-0.323867
-0.320299
-0.316905
-0.313723
-0.310763
-0.308022
-0.305492
-0.303173
-0.301075
-0.299216
-0.297621
-0.296312
-0.295299
-0.294568
-0.294126
-0.293593
-0.344712
-0.340951
-0.337043
-0.333014
-0.32894
-0.324986
-0.321233
-0.317705
-0.314395
-0.311285
-0.308358
-0.305602
-0.303017
-0.300611
-0.298397
-0.296386
-0.294578
-0.292957
-0.291524
-0.289936
-0.352581
-0.348104
-0.343631
-0.339122
-0.334608
-0.330244
-0.326095
-0.32216
-0.318416
-0.31483
-0.311375
-0.308037
-0.304814
-0.301716
-0.298757
-0.29595
-0.2933
-0.290805
-0.288465
-0.286027
-0.361197
-0.355942
-0.350875
-0.34587
-0.340894
-0.336084
-0.331479
-0.327052
-0.32276
-0.318562
-0.314431
-0.310358
-0.306353
-0.302437
-0.298635
-0.294972
-0.291464
-0.288124
-0.284948
-0.281777
-0.370554
-0.364467
-0.358784
-0.353267
-0.347799
-0.342489
-0.337343
-0.332307
-0.327325
-0.322357
-0.317389
-0.312432
-0.307516
-0.302682
-0.297972
-0.293422
-0.28906
-0.284906
-0.280953
-0.277111
-0.380621
-0.373661
-0.367346
-0.361299
-0.355297
-0.349408
-0.343605
-0.337813
-0.331974
-0.326065
-0.320102
-0.314126
-0.308196
-0.302375
-0.29672
-0.291277
-0.286079
-0.281146
-0.276463
-0.271985
-0.39134
-0.383479
-0.376523
-0.369921
-0.363323
-0.356749
-0.350142
-0.343418
-0.33654
-0.329521
-0.322417
-0.315312
-0.308296
-0.30145
-0.294842
-0.288521
-0.282516
-0.276843
-0.271473
-0.266388
-0.402618
-0.393847
-0.386245
-0.379052
-0.371772
-0.364376
-0.356788
-0.348941
-0.340837
-0.332548
-0.324186
-0.315874
-0.307732
-0.299853
-0.292309
-0.28514
-0.278369
-0.271998
-0.265981
-0.260321
-0.414328
-0.404653
-0.396402
-0.388568
-0.380494
-0.372108
-0.363341
-0.354169
-0.344666
-0.334975
-0.325268
-0.315708
-0.306433
-0.29754
-0.289093
-0.281121
-0.27363
-0.266608
-0.259989
-0.253793
-0.426301
-0.415748
-0.406843
-0.398299
-0.38929
-0.379722
-0.369566
-0.358878
-0.347825
-0.336634
-0.325534
-0.31472
-0.304334
-0.294468
-0.285168
-0.276445
-0.268287
-0.260666
-0.253491
-0.246807
-0.438328
-0.42694
-0.417372
-0.408027
-0.397917
-0.38696
-0.375208
-0.362833
-0.350117
-0.33737
-0.32487
-0.312826
-0.301377
-0.290594
-0.280502
-0.271088
-0.262321
-0.254155
-0.246475
-0.239358
-0.450161
-0.437996
-0.427748
-0.417489
-0.406094
-0.393536
-0.38
-0.365805
-0.351355
-0.33704
-0.323168
-0.309949
-0.297503
-0.285874
-0.275058
-0.265018
-0.255706
-0.247053
-0.238922
-0.231432
-0.461512
-0.448642
-0.437689
-0.426384
-0.413509
-0.39915
-0.383674
-0.367572
-0.351367
-0.335512
-0.32033
-0.306015
-0.292653
-0.280257
-0.268793
-0.258199
-0.248407
-0.239329
-0.230806
-0.223006
-0.47206
-0.458569
-0.446874
-0.434379
-0.419832
-0.4035
-0.385974
-0.367927
-0.349995
-0.332669
-0.316267
-0.30095
-0.286767
-0.273693
-0.261662
-0.250589
-0.240386
-0.230948
-0.222094
-0.214053
-0.481459
-0.467438
-0.454957
-0.44112
-0.424726
-0.40629
-0.386657
-0.366684
-0.347096
-0.328403
-0.310894
-0.294687
-0.279786
-0.266129
-0.253617
-0.242143
-0.231604
-0.221874
-0.212753
-0.20454
-0.489343
-0.474888
-0.461569
-0.446246
-0.427862
-0.40724
-0.385502
-0.363675
-0.342546
-0.322616
-0.304131
-0.287157
-0.271651
-0.25751
-0.244609
-0.232818
-0.22202
-0.212068
-0.202748
-0.194437
-0.495338
-0.480548
-0.466337
-0.4494
-0.428925
-0.406095
-0.382315
-0.358754
-0.336233
-0.31522
-0.295906
-0.278299
-0.262306
-0.247788
-0.234593
-0.222573
-0.211597
-0.201497
-0.19205
-0.183712
-0.499074
-0.484046
-0.468895
-0.450244
-0.427629
-0.402633
-0.376928
-0.351797
-0.328063
-0.306141
-0.286156
-0.268055
-0.251699
-0.236915
-0.223526
-0.211369
-0.200299
-0.19013
-0.18063
-0.172342
-0.500192
-0.485025
-0.468895
-0.448467
-0.423722
-0.396664
-0.369204
-0.342703
-0.317956
-0.295313
-0.274822
-0.256374
-0.239786
-0.224851
-0.211373
-0.199175
-0.1881
-0.177942
-0.168467
-0.160305
-0.498361
-0.483149
-0.466017
-0.443796
-0.416995
-0.388034
-0.359034
-0.331392
-0.305852
-0.282683
-0.261861
-0.243218
-0.226529
-0.211565
-0.198106
-0.185966
-0.174978
-0.164916
-0.155548
-0.147591
-0.493282
-0.478118
-0.459986
-0.436005
-0.407279
-0.376629
-0.346339
-0.317808
-0.291706
-0.268214
-0.247237
-0.228554
-0.211903
-0.197031
-0.183705
-0.171727
-0.160921
-0.151042
-0.141865
-0.134192
-0.484701
-0.469676
-0.450572
-0.424918
-0.394456
-0.362374
-0.331072
-0.301917
-0.27549
-0.251883
-0.23093
-0.212363
-0.19589
-0.181237
-0.168159
-0.15645
-0.145923
-0.136319
-0.127421
-0.12011
-0.472415
-0.457621
-0.437604
-0.410415
-0.378453
-0.345231
-0.313215
-0.283709
-0.257197
-0.233682
-0.212933
-0.194639
-0.178485
-0.164179
-0.151466
-0.140135
-0.129989
-0.120755
-0.112228
-0.105357
-0.456279
-0.441807
-0.420968
-0.392429
-0.359247
-0.325201
-0.292779
-0.263198
-0.236839
-0.213619
-0.193251
-0.175388
-0.159693
-0.145863
-0.133635
-0.122793
-0.113134
-0.104369
-0.0963086
-0.0899585
-0.436211
-0.422153
-0.400614
-0.370953
-0.336859
-0.302322
-0.269804
-0.240422
-0.214448
-0.191721
-0.171906
-0.154626
-0.13953
-0.126304
-0.114681
-0.104441
-0.0953758
-0.0871856
-0.0796949
-0.073954
-0.412193
-0.398642
-0.376554
-0.346032
-0.311359
-0.276669
-0.244363
-0.215442
-0.190075
-0.168031
-0.148933
-0.132384
-0.11802
-0.105523
-0.094623
-0.0850998
-0.0767377
-0.0692322
-0.0624236
-0.0573874
-0.384271
-0.371322
-0.348862
-0.317768
-0.282859
-0.248351
-0.216555
-0.188345
-0.163795
-0.142611
-0.124384
-0.108703
-0.0951978
-0.0835482
-0.0734858
-0.0647894
-0.0572403
-0.0505344
-0.044527
-0.0402822
-0.352556
-0.340305
-0.31767
-0.286309
-0.251511
-0.217514
-0.186508
-0.159243
-0.135701
-0.11554
-0.0983241
-0.0836354
-0.0711031
-0.0604105
-0.0512923
-0.0435291
-0.0369033
-0.0311171
-0.026029
-0.0226299
-0.317223
-0.305765
-0.283168
-0.251854
-0.217508
-0.184333
-0.15438
-0.128273
-0.105913
-0.0869169
-0.0708342
-0.0572445
-0.045783
-0.0361406
-0.0280604
-0.0213294
-0.0157366
-0.0109942
-0.0069394
-0.00443032
-0.278503
-0.267933
-0.245595
-0.214645
-0.181079
-0.149019
-0.120357
-0.0955992
-0.0745743
-0.0568655
-0.0420162
-0.0296108
-0.0192951
-0.0107741
-0.00380575
0.0018104
0.00627309
0.00985338
0.0127365
0.0141875
-0.236681
-0.227091
-0.205238
-0.174961
-0.142488
-0.11181
-0.0846558
-0.0614141
-0.0418528
-0.0255315
-0.0119929
-0.000832232
0.00828782
0.0156403
0.0214443
0.0258844
0.0291425
0.0314344
0.0328803
0.0328265
-0.19209
-0.183568
-0.162423
-0.133117
-0.102026
-0.0729745
-0.047518
-0.0259366
-0.00794479
0.0069143
0.0190938
0.0289832
0.0368958
0.0430722
0.0476971
0.0509337
0.0529232
0.0537057
0.0531715
0.051043
-0.145104
-0.137732
-0.117512
-0.0894577
-0.0600143
-0.0328063
-0.00921459
0.0105835
0.0269202
0.040266
0.0510699
0.0597081
0.066471
0.0715647
0.075137
0.0773193
0.0781383
0.077237
0.07415
0.0698941
-0.0961283
-0.0899802
-0.0708917
-0.044349
-0.0167928
0.0083785
0.0299585
0.0478651
0.062472
0.074262
0.0836852
0.091116
0.0968419
0.101068
0.103954
0.105649
0.106056
0.104323
0.099749
0.095138
-0.0455975
-0.0407385
-0.0229713
0.00182537
0.027283
0.0502492
0.0696888
0.085606
0.0984089
0.108589
0.116599
0.122815
0.127541
0.131018
0.133493
0.13524
0.136233
0.135491
0.132751
0.136303
0.00604461
0.00955736
0.0258305
0.0486734
0.0718502
0.0924686
0.109658
0.1235
0.134427
0.142935
0.149468
0.154399
0.158027
0.160609
0.162405
0.163678
0.164415
0.164145
0.163763
0.169469
0.0583358
0.0604567
0.0750856
0.0957983
0.116544
0.1347
0.149551
0.161246
0.170238
0.177016
0.182016
0.1856
0.188065
0.189662
0.190642
0.191225
0.191394
0.190855
0.190516
0.19511
0.110811
0.111507
0.124366
0.142806
0.161005
0.176612
0.189061
0.198557
0.205562
0.210559
0.213967
0.216132
0.217338
0.217824
0.21782
0.217523
0.216929
0.215813
0.214926
0.218021
0.163006
0.162258
0.17325
0.189309
0.20488
0.217884
0.227893
0.23516
0.240151
0.243334
0.245111
0.245808
0.245688
0.244974
0.243869
0.242542
0.240975
0.238972
0.237222
0.23892
0.214466
0.212267
0.221323
0.23493
0.247829
0.258209
0.265768
0.2708
0.27377
0.275128
0.275255
0.274456
0.272974
0.271011
0.268749
0.266328
0.263716
0.260739
0.25805
0.258411
0.264744
0.261104
0.268183
0.279306
0.289525
0.297291
0.30242
0.305237
0.306203
0.305748
0.304231
0.301934
0.299081
0.295852
0.292409
0.288868
0.285187
0.281218
0.277587
0.276683
0.31341
0.308352
0.313446
0.322087
0.329655
0.334851
0.337598
0.338246
0.337249
0.335017
0.331884
0.328113
0.323906
0.319426
0.314814
0.310166
0.305435
0.300499
0.295951
0.293845
0.360052
0.353614
0.356744
0.362943
0.367922
0.370622
0.371062
0.369614
0.366718
0.362765
0.358068
0.352867
0.347346
0.341651
0.335904
0.330185
0.324446
0.31859
0.313163
0.309918
0.404279
0.396515
0.39773
0.401562
0.404048
0.404356
0.40259
0.399138
0.39443
0.388834
0.382642
0.376075
0.369299
0.362444
0.355615
0.348879
0.342189
0.335468
0.329208
0.324887
0.445723
0.436701
0.436079
0.43765
0.437771
0.435817
0.431971
0.426631
0.420215
0.413072
0.405473
0.397619
0.389662
0.381715
0.373871
0.366182
0.358607
0.351085
0.344046
0.338716
0.484045
0.473845
0.47149
0.470938
0.468848
0.464789
0.459009
0.451916
0.443916
0.435337
0.426432
0.417385
0.408333
0.399375
0.390592
0.382025
0.373638
0.365381
0.35762
0.351355
0.518929
0.507648
0.503688
0.501177
0.497057
0.49107
0.483522
0.47483
0.465383
0.455494
0.445398
0.435263
0.425213
0.415336
0.405698
0.396334
0.387213
0.378294
0.369874
0.362753
0.550094
0.537837
0.532422
0.528142
0.522197
0.514479
0.505348
0.495223
0.484481
0.47342
0.462258
0.451152
0.44021
0.429511
0.419111
0.409037
0.399264
0.389757
0.380747
0.372858
0.577286
0.564172
0.557473
0.551635
0.544087
0.534855
0.524339
0.512961
0.501088
0.489004
0.476912
0.464956
0.453237
0.441821
0.430757
0.420066
0.409727
0.39971
0.390183
0.381618
0.600288
0.586444
0.578647
0.571482
0.562573
0.552056
0.540367
0.527928
0.515098
0.502147
0.489268
0.476594
0.464217
0.452196
0.44057
0.429359
0.418544
0.408097
0.39813
0.388991
0.618915
0.604477
0.595784
0.587538
0.577523
0.565963
0.553322
0.540024
0.526419
0.512766
0.499249
0.485994
0.473084
0.460573
0.448494
0.436861
0.425661
0.414868
0.404544
0.394937
0.633017
0.618128
0.608753
0.599685
0.58883
0.576479
0.563118
0.549169
0.534976
0.520791
0.506792
0.493096
0.479783
0.466902
0.454479
0.442529
0.431039
0.419982
0.409387
0.399425
0.642483
0.627289
0.617455
0.607834
0.596414
0.583532
0.569687
0.5553
0.540713
0.526172
0.511848
0.497858
0.484274
0.471144
0.458491
0.446327
0.434642
0.42341
0.412632
0.402431
0.647236
0.63189
0.621824
0.611925
0.600221
0.587073
0.572984
0.558378
0.543592
0.528872
0.514386
0.500247
0.486528
0.473272
0.460504
0.448233
0.436451
0.42513
0.414261
0.403939
0.64724
0.631893
0.621827
0.611928
0.600224
0.587075
0.572986
0.558381
0.543595
0.528874
0.514388
0.500249
0.48653
0.473275
0.460506
0.448235
0.436453
0.425132
0.414263
0.403941
0.642493
0.627299
0.617464
0.607843
0.596423
0.583541
0.569695
0.555308
0.540721
0.526179
0.511855
0.497865
0.484281
0.47115
0.458498
0.446333
0.434649
0.423416
0.412639
0.402437
0.633034
0.618144
0.608769
0.5997
0.588844
0.576493
0.563131
0.549182
0.534988
0.520803
0.506804
0.493108
0.479795
0.466913
0.45449
0.442539
0.431049
0.419993
0.409397
0.399435
0.618938
0.6045
0.595806
0.58756
0.577543
0.565982
0.553341
0.540043
0.526436
0.512783
0.499266
0.48601
0.4731
0.460588
0.448509
0.436876
0.425676
0.414882
0.404558
0.394951
0.600318
0.586474
0.578676
0.57151
0.562599
0.552081
0.540391
0.527952
0.515121
0.502169
0.489289
0.476615
0.464237
0.452216
0.44059
0.429378
0.418563
0.408115
0.398149
0.389009
0.577323
0.564208
0.557507
0.551668
0.544119
0.534886
0.524369
0.51299
0.501116
0.489031
0.476938
0.464982
0.453262
0.441846
0.430781
0.42009
0.409751
0.399733
0.390206
0.38164
0.550137
0.53788
0.532463
0.528182
0.522235
0.514516
0.505383
0.495257
0.484514
0.473452
0.46229
0.451182
0.44024
0.42954
0.419139
0.409065
0.399292
0.389784
0.380774
0.372883
0.518979
0.507697
0.503735
0.501222
0.497101
0.491112
0.483563
0.474869
0.465421
0.455531
0.445434
0.435299
0.425248
0.415369
0.405731
0.396366
0.387244
0.378325
0.369905
0.362783
0.484101
0.473901
0.471544
0.47099
0.468898
0.464837
0.459055
0.451961
0.443959
0.435379
0.426473
0.417425
0.408372
0.399414
0.390629
0.382061
0.373673
0.365417
0.357655
0.351389
0.445786
0.436763
0.436139
0.437708
0.437827
0.435871
0.432023
0.426681
0.420264
0.413119
0.405519
0.397664
0.389706
0.381758
0.373912
0.366223
0.358647
0.351124
0.344084
0.338753
0.404348
0.396584
0.397796
0.401626
0.40411
0.404415
0.402647
0.399193
0.394483
0.388886
0.382693
0.376124
0.369347
0.362491
0.355661
0.348924
0.342233
0.335511
0.329251
0.324929
0.360128
0.35369
0.356817
0.363014
0.36799
0.370687
0.371125
0.369674
0.366776
0.362822
0.358123
0.352921
0.347399
0.341703
0.335955
0.330235
0.324495
0.318638
0.31321
0.309963
0.313493
0.308434
0.313526
0.322164
0.329728
0.334921
0.337666
0.338312
0.337313
0.335079
0.331944
0.328172
0.323964
0.319482
0.314869
0.31022
0.305487
0.300551
0.296001
0.293894
0.264834
0.261193
0.268269
0.279389
0.289604
0.297367
0.302494
0.305309
0.306272
0.305815
0.304296
0.301998
0.299143
0.295913
0.292469
0.288926
0.285244
0.281274
0.277641
0.276736
0.214563
0.212363
0.221415
0.235019
0.247915
0.258291
0.265848
0.270877
0.273844
0.2752
0.275325
0.274524
0.273041
0.271076
0.268813
0.266391
0.263777
0.260799
0.258109
0.258468
0.16311
0.16236
0.173349
0.189404
0.204972
0.217972
0.227978
0.235242
0.240231
0.243412
0.245186
0.245881
0.24576
0.245044
0.243938
0.242609
0.241041
0.239037
0.237285
0.238982
0.110921
0.111616
0.124472
0.142908
0.161102
0.176706
0.189151
0.198644
0.205647
0.210642
0.214047
0.216211
0.217414
0.217898
0.217893
0.217594
0.216999
0.215882
0.214993
0.218086
0.058453
0.0605725
0.075198
0.0959064
0.116648
0.1348
0.149647
0.16134
0.170328
0.177103
0.182101
0.185684
0.188146
0.189742
0.19072
0.191301
0.191468
0.190928
0.190588
0.19518
0.00616859
0.0096799
0.0259495
0.0487879
0.0719602
0.0925743
0.10976
0.123598
0.134523
0.143028
0.149559
0.154487
0.158114
0.160694
0.162488
0.163759
0.164495
0.164223
0.16384
0.169544
-0.0454668
-0.0406092
-0.0228457
0.00194626
0.0273991
0.0503609
0.0697965
0.0857102
0.0985099
0.108687
0.116694
0.122908
0.127632
0.131108
0.13358
0.135326
0.136318
0.135574
0.132833
0.136383
-0.0959908
-0.0898443
-0.0707595
-0.0442218
-0.0166705
0.00849608
0.0300719
0.0479748
0.0625784
0.0743654
0.0837861
0.0912144
0.0969382
0.101162
0.104046
0.10574
0.106145
0.104411
0.0998367
0.0952254
-0.14496
-0.137589
-0.117373
-0.0893241
-0.0598859
-0.0326828
-0.00909549
0.0106987
0.027032
0.0403747
0.0511759
0.0598115
0.0665723
0.0716639
0.0752344
0.0774151
0.0782327
0.0773302
0.0742423
0.0699862
-0.19194
-0.183419
-0.162278
-0.132977
-0.101892
-0.0728451
-0.0473932
-0.0258159
-0.00782769
0.00702817
0.0192048
0.0290916
0.0370019
0.0431761
0.0477992
0.051034
0.053022
0.0538031
0.0532678
0.0511386
-0.236524
-0.226936
-0.205086
-0.174815
-0.142347
-0.111675
-0.0845254
-0.0612879
-0.0417304
-0.0254125
-0.0118769
-0.000718979
0.00839861
0.0157488
0.0215509
0.0259891
0.0292456
0.0315358
0.0329804
0.0329256
-0.278339
-0.267771
-0.245437
-0.214492
-0.180933
-0.148878
-0.120221
-0.0954677
-0.0744467
-0.0567414
-0.0418953
-0.0294928
-0.0191796
-0.010661
-0.00369483
0.00191934
0.0063802
0.00995875
0.0128402
0.0142902
-0.317053
-0.305597
-0.283003
-0.251696
-0.217355
-0.184187
-0.154238
-0.128136
-0.105781
-0.0867879
-0.0707084
-0.0571218
-0.045663
-0.0360231
-0.0279452
-0.0212163
-0.0156255
-0.010885
-0.00683194
-0.00432415
-0.35238
-0.34013
-0.3175
-0.286144
-0.251352
-0.217361
-0.186361
-0.1591
-0.135563
-0.115406
-0.0981936
-0.083508
-0.0709786
-0.0602887
-0.0511729
-0.0434119
-0.0367883
-0.031004
-0.0259179
-0.0225203
-0.384089
-0.371141
-0.348686
-0.317597
-0.282694
-0.248193
-0.216402
-0.188198
-0.163652
-0.142472
-0.124249
-0.108571
-0.0950689
-0.083422
-0.0733622
-0.0646681
-0.0571214
-0.0504176
-0.0444122
-0.0401691
-0.412005
-0.398456
-0.376372
-0.345856
-0.311189
-0.276505
-0.244206
-0.21529
-0.189927
-0.167888
-0.148793
-0.132248
-0.117887
-0.105392
-0.0944953
-0.0849746
-0.0766149
-0.0691116
-0.0623052
-0.0572707
-0.436018
-0.421962
-0.400427
-0.370771
-0.336684
-0.302153
-0.269642
-0.240264
-0.214295
-0.191573
-0.171761
-0.154485
-0.139392
-0.126169
-0.114549
-0.104312
-0.0952491
-0.0870613
-0.0795728
-0.0738338
-0.456081
-0.44161
-0.420775
-0.392242
-0.359066
-0.325027
-0.292611
-0.263036
-0.236682
-0.213466
-0.193102
-0.175243
-0.159551
-0.145724
-0.133499
-0.12266
-0.113003
-0.104241
-0.0961828
-0.0898347
-0.472212
-0.457419
-0.437406
-0.410222
-0.378267
-0.345052
-0.313042
-0.283542
-0.257035
-0.233524
-0.212779
-0.19449
-0.178339
-0.164036
-0.151326
-0.139998
-0.129855
-0.120623
-0.112099
-0.10523
-0.484493
-0.46947
-0.45037
-0.424721
-0.394265
-0.36219
-0.330895
-0.301745
-0.275323
-0.251721
-0.230773
-0.212209
-0.19574
-0.18109
-0.168015
-0.156308
-0.145785
-0.136183
-0.127288
-0.119979
-0.49307
-0.477907
-0.459779
-0.435803
-0.407084
-0.376441
-0.346157
-0.317631
-0.291534
-0.268048
-0.247075
-0.228395
-0.211749
-0.19688
-0.183557
-0.171582
-0.160779
-0.150902
-0.141728
-0.134057
-0.498146
-0.482935
-0.465806
-0.44359
-0.416795
-0.387841
-0.358847
-0.331211
-0.305677
-0.282512
-0.261694
-0.243055
-0.226371
-0.211409
-0.197954
-0.185817
-0.174832
-0.164772
-0.155407
-0.147452
-0.499974
-0.484808
-0.46868
-0.448257
-0.423519
-0.396466
-0.369013
-0.342517
-0.317776
-0.295137
-0.274652
-0.256208
-0.239623
-0.224692
-0.211217
-0.199022
-0.18795
-0.177794
-0.168322
-0.160163
-0.498853
-0.483826
-0.468678
-0.450031
-0.427421
-0.402432
-0.376733
-0.351607
-0.327878
-0.305962
-0.285981
-0.267884
-0.251532
-0.236752
-0.223366
-0.211212
-0.200145
-0.189978
-0.180481
-0.172195
-0.495115
-0.480326
-0.466118
-0.449184
-0.428714
-0.40589
-0.382116
-0.35856
-0.336045
-0.315037
-0.295727
-0.278124
-0.262135
-0.24762
-0.234428
-0.222411
-0.211438
-0.201341
-0.191897
-0.183562
-0.489118
-0.474664
-0.461347
-0.446028
-0.427648
-0.407031
-0.385299
-0.363477
-0.342354
-0.322428
-0.303948
-0.286978
-0.271476
-0.257339
-0.244441
-0.232653
-0.221858
-0.211908
-0.202591
-0.194282
-0.481233
-0.467213
-0.454734
-0.4409
-0.42451
-0.406079
-0.386451
-0.366483
-0.3469
-0.328212
-0.310707
-0.294504
-0.279607
-0.265953
-0.253444
-0.241973
-0.231438
-0.22171
-0.212591
-0.204382
-0.471833
-0.458343
-0.44665
-0.434157
-0.419613
-0.403287
-0.385765
-0.367723
-0.349795
-0.332474
-0.316076
-0.300763
-0.286584
-0.273513
-0.261485
-0.250415
-0.240215
-0.23078
-0.221928
-0.21389
-0.461284
-0.448415
-0.437464
-0.426161
-0.413289
-0.398935
-0.383463
-0.367364
-0.351164
-0.335314
-0.320136
-0.305824
-0.292465
-0.280073
-0.268612
-0.258021
-0.248231
-0.239156
-0.230635
-0.222839
-0.449933
-0.437769
-0.427523
-0.417266
-0.405873
-0.393319
-0.379786
-0.365595
-0.351149
-0.336838
-0.32297
-0.309755
-0.297311
-0.285685
-0.274872
-0.264835
-0.255525
-0.246875
-0.238747
-0.231259
-0.438101
-0.426714
-0.417147
-0.407803
-0.397696
-0.386741
-0.374993
-0.362622
-0.349908
-0.337165
-0.324668
-0.312628
-0.301181
-0.290402
-0.280312
-0.2709
-0.262136
-0.253972
-0.246295
-0.23918
-0.426074
-0.415523
-0.406618
-0.398076
-0.389069
-0.379503
-0.36935
-0.358664
-0.347614
-0.336426
-0.325329
-0.314518
-0.304134
-0.294271
-0.284973
-0.276253
-0.268097
-0.260478
-0.253305
-0.246623
-0.414102
-0.404429
-0.396178
-0.388346
-0.380273
-0.371889
-0.363124
-0.353954
-0.344453
-0.334764
-0.325059
-0.315502
-0.306229
-0.297339
-0.288894
-0.280924
-0.273434
-0.266415
-0.259798
-0.253603
-0.402393
-0.393624
-0.386023
-0.378831
-0.371552
-0.364157
-0.356571
-0.348725
-0.340623
-0.332335
-0.323975
-0.315665
-0.307524
-0.299647
-0.292104
-0.284938
-0.278168
-0.271799
-0.265784
-0.260125
-0.391116
-0.383257
-0.376302
-0.369701
-0.363103
-0.35653
-0.349924
-0.343202
-0.336324
-0.329306
-0.322203
-0.3151
-0.308084
-0.301239
-0.294633
-0.288313
-0.282309
-0.276638
-0.271269
-0.266185
-0.380399
-0.37344
-0.367126
-0.36108
-0.355078
-0.34919
-0.343388
-0.337596
-0.331757
-0.325849
-0.319886
-0.31391
-0.30798
-0.30216
-0.296505
-0.291063
-0.285866
-0.280934
-0.276253
-0.271776
-0.370333
-0.364247
-0.358565
-0.353049
-0.347582
-0.342272
-0.337126
-0.33209
-0.327108
-0.322139
-0.317171
-0.312213
-0.307297
-0.302462
-0.297752
-0.293202
-0.28884
-0.284687
-0.280735
-0.276894
-0.360977
-0.355723
-0.350657
-0.345653
-0.340678
-0.335868
-0.331263
-0.326836
-0.322543
-0.318343
-0.31421
-0.310136
-0.30613
-0.302212
-0.29841
-0.294746
-0.291238
-0.287897
-0.284722
-0.281552
-0.352363
-0.347887
-0.343415
-0.338907
-0.334393
-0.330029
-0.32588
-0.321944
-0.318198
-0.31461
-0.311153
-0.307812
-0.304587
-0.301487
-0.298526
-0.295718
-0.293067
-0.290571
-0.288231
-0.285792
-0.344494
-0.340734
-0.336828
-0.3328
-0.328727
-0.324772
-0.321019
-0.317489
-0.314177
-0.311064
-0.308134
-0.305374
-0.302786
-0.300377
-0.298161
-0.296147
-0.294337
-0.292714
-0.291281
-0.289693
-0.337357
-0.334247
-0.330872
-0.327305
-0.323655
-0.320086
-0.316691
-0.313508
-0.310545
-0.3078
-0.305266
-0.302943
-0.300841
-0.298978
-0.297379
-0.296066
-0.295051
-0.294317
-0.293873
-0.29334
-0.330921
-0.32839
-0.325509
-0.322382
-0.319139
-0.31594
-0.312879
-0.310004
-0.307334
-0.304876
-0.302635
-0.300623
-0.298861
-0.297387
-0.29625
-0.295504
-0.295193
-0.295334
-0.295955
-0.2968
-0.325142
-0.323121
-0.320693
-0.317983
-0.315131
-0.312288
-0.309546
-0.306956
-0.304543
-0.302319
-0.300295
-0.298489
-0.296937
-0.295694
-0.294841
-0.294478
-0.294716
-0.295646
-0.297353
-0.299986
-0.319967
-0.318391
-0.316374
-0.314053
-0.311574
-0.309073
-0.30664
-0.304323
-0.302146
-0.300124
-0.298266
-0.296592
-0.29514
-0.293979
-0.293216
-0.293005
-0.293543
-0.295051
-0.29776
-0.302658
-0.315338
-0.314146
-0.312499
-0.310538
-0.308409
-0.306236
-0.3041
-0.302046
-0.300096
-0.298258
-0.296538
-0.294948
-0.293517
-0.292311
-0.291444
-0.291106
-0.291579
-0.293241
-0.296621
-0.304057
-0.311193
-0.310331
-0.309013
-0.307381
-0.305577
-0.303713
-0.30186
-0.300059
-0.298327
-0.296667
-0.295073
-0.293544
-0.292089
-0.290749
-0.289613
-0.288861
-0.288806
-0.289933
-0.293299
-0.303322
-0.307472
-0.306894
-0.305866
-0.304531
-0.303023
-0.301444
-0.299856
-0.298294
-0.29677
-0.295281
-0.293809
-0.292336
-0.290843
-0.289324
-0.287806
-0.286384
-0.285263
-0.284792
-0.286328
-0.296585
-0.304121
-0.303787
-0.303012
-0.30194
-0.300699
-0.299377
-0.298029
-0.296687
-0.295356
-0.294028
-0.292676
-0.291262
-0.289738
-0.288039
-0.286083
-0.283764
-0.28092
-0.277052
-0.270883
-0.263553
-0.301091
-0.300965
-0.300411
-0.299569
-0.298563
-0.297469
-0.296336
-0.295188
-0.294032
-0.292853
-0.291621
-0.290291
-0.288801
-0.287068
-0.284981
-0.2824
-0.279157
-0.274864
-0.268656
-0.262175
-0.29834
-0.298394
-0.298031
-0.297388
-0.296586
-0.29569
-0.294743
-0.293766
-0.292763
-0.291719
-0.290605
-0.289378
-0.28798
-0.28634
-0.284366
-0.281967
-0.279054
-0.275404
-0.270596
-0.266423
-0.295836
-0.296044
-0.295844
-0.295373
-0.294747
-0.294022
-0.293235
-0.292406
-0.291535
-0.29061
-0.289606
-0.288484
-0.287199
-0.285693
-0.283903
-0.281776
-0.279271
-0.276246
-0.272525
-0.269862
-0.293551
-0.293892
-0.293831
-0.293507
-0.293033
-0.292455
-0.291807
-0.291105
-0.290351
-0.289534
-0.288633
-0.287617
-0.286452
-0.285097
-0.283515
-0.281685
-0.279601
-0.277187
-0.274409
-0.272797
-0.291465
-0.291918
-0.291976
-0.29178
-0.291436
-0.290987
-0.290461
-0.289873
-0.289226
-0.288511
-0.287712
-0.286807
-0.285772
-0.284584
-0.283226
-0.281701
-0.280031
-0.278184
-0.276194
-0.275316
-0.28956
-0.290109
-0.29027
-0.290182
-0.289953
-0.289618
-0.289202
-0.288721
-0.288176
-0.287562
-0.28687
-0.286083
-0.28519
-0.284179
-0.283049
-0.281819
-0.280526
-0.279162
-0.277777
-0.277383
-0.287822
-0.288453
-0.288701
-0.28871
-0.288582
-0.288349
-0.288036
-0.287654
-0.28721
-0.286701
-0.28612
-0.28546
-0.284716
-0.283886
-0.282979
-0.282024
-0.281059
-0.280084
-0.279143
-0.279055
-0.286239
-0.28694
-0.287264
-0.287357
-0.287319
-0.287181
-0.286962
-0.286678
-0.286334
-0.28593
-0.285465
-0.284936
-0.284343
-0.283691
-0.282994
-0.282282
-0.281593
-0.280926
-0.280304
-0.280408
-0.2848
-0.285562
-0.285953
-0.286119
-0.286163
-0.28611
-0.285981
-0.28579
-0.285544
-0.285245
-0.284895
-0.284495
-0.284048
-0.283563
-0.283056
-0.282555
-0.282093
-0.281663
-0.281271
-0.281499
-0.283497
-0.284313
-0.284762
-0.284994
-0.285111
-0.285137
-0.285091
-0.284987
-0.284834
-0.284636
-0.284396
-0.284117
-0.283807
-0.283473
-0.283131
-0.282807
-0.282528
-0.282282
-0.282059
-0.282371
-0.282323
-0.283189
-0.283689
-0.283979