1.275 	2.15223e-18 	-2.76991e-20 	-0.275463
1.825 	2.15223e-18 	-1.39322e-20 	-0.259492
2.375 	2.15223e-18 	1.38775e-18 	-0.31107
2.925 	2.15223e-18 	2.78958e-18 	-0.299022
3.475 	2.15223e-18 	4.53849e-18 	-0.233457
4.025 	2.15223e-18 	6.28755e-18 	-0.166877
4.575 	2.15223e-18 	6.30203e-18 	-0.104338
5.125 	2.15223e-18 	6.31666e-18 	-0.0608076
5.675 	2.15223e-18 	6.33144e-18 	-0.0311159
6.225 	2.15223e-18 	4.61166e-18 	-0.00805536
