/*--------------------------------*- C++ -*----------------------------------*\
  =========                 |
  \\      /  F ield         | OpenFOAM: The Open Source CFD Toolbox
   \\    /   O peration     | Website:  https://openfoam.org
    \\  /    A nd           | Version:  6.0
     \\/     M anipulation  |
\*---------------------------------------------------------------------------*/
FoamFile
{
    version     2.0;
    format      ascii;
    class       volScalarField;
    location    "77";
    object      p;
}
// * * * * * * * * * * * * * * * * * * * * * * * * * * * * * * * * * * * * * //

dimensions      [0 2 -2 0 0 0 0];

internalField   nonuniform List<scalar> 
12500
(
-0.498203
-0.497818
-0.497488
-0.497175
-0.497001
-0.497112
-0.4976
-0.498506
-0.49983
-0.501548
-0.50362
-0.506004
-0.508654
-0.51153
-0.514594
-0.517811
-0.521152
-0.524589
-0.528099
-0.531658
-0.535233
-0.538803
-0.542498
-0.546467
-0.549263
-0.506013
-0.505258
-0.504721
-0.504294
-0.504059
-0.504161
-0.504691
-0.50569
-0.507158
-0.509071
-0.511386
-0.514059
-0.517039
-0.520281
-0.52374
-0.527375
-0.531149
-0.535027
-0.538978
-0.542971
-0.546967
-0.550937
-0.555007
-0.559346
-0.562467
-0.513353
-0.512239
-0.511494
-0.510948
-0.510645
-0.510725
-0.511281
-0.512353
-0.513943
-0.516024
-0.518555
-0.521484
-0.52476
-0.52833
-0.532145
-0.536155
-0.540316
-0.544584
-0.548921
-0.553288
-0.55764
-0.56194
-0.566307
-0.570926
-0.574309
-0.520175
-0.518716
-0.517766
-0.517095
-0.516711
-0.516753
-0.517314
-0.518435
-0.520116
-0.522334
-0.525044
-0.528192
-0.531723
-0.535579
-0.539704
-0.544041
-0.548538
-0.553144
-0.557811
-0.562493
-0.567138
-0.571702
-0.576293
-0.581107
-0.584694
-0.526441
-0.524656
-0.523504
-0.522702
-0.522224
-0.522208
-0.522748
-0.523885
-0.525624
-0.527938
-0.530784
-0.534107
-0.537846
-0.541938
-0.546321
-0.550933
-0.555712
-0.5606
-0.565541
-0.57048
-0.575358
-0.580123
-0.584869
-0.589799
-0.593541
-0.532124
-0.530041
-0.528693
-0.527753
-0.527166
-0.527069
-0.527557
-0.528674
-0.530426
-0.532791
-0.535724
-0.539169
-0.543061
-0.547333
-0.551918
-0.556746
-0.56175
-0.566861
-0.572016
-0.577154
-0.582207
-0.587115
-0.591953
-0.596928
-0.600781
-0.537214
-0.534865
-0.53333
-0.532246
-0.531534
-0.53133
-0.531731
-0.532786
-0.534504
-0.536867
-0.53983
-0.543337
-0.547321
-0.551712
-0.556435
-0.561416
-0.56658
-0.571853
-0.577162
-0.582438
-0.587609
-0.592605
-0.597479
-0.602434
-0.606357
-0.54171
-0.539133
-0.537425
-0.536194
-0.535341
-0.535002
-0.53528
-0.536227
-0.537859
-0.540161
-0.543093
-0.546597
-0.550606
-0.555046
-0.559839
-0.564905
-0.570163
-0.575532
-0.580931
-0.586285
-0.591515
-0.596545
-0.601402
-0.606279
-0.610236
-0.545627
-0.542867
-0.541003
-0.539624
-0.538615
-0.538115
-0.538231
-0.539023
-0.540514
-0.542695
-0.54553
-0.548963
-0.552927
-0.557345
-0.562135
-0.567214
-0.572495
-0.57789
-0.583315
-0.588684
-0.593914
-0.598923
-0.603713
-0.608457
-0.612412
-0.548992
-0.546099
-0.544101
-0.542574
-0.541397
-0.540711
-0.54063
-0.541221
-0.542517
-0.544516
-0.547189
-0.550481
-0.554328
-0.558651
-0.563366
-0.568385
-0.573617
-0.57897
-0.584351
-0.589671
-0.594841
-0.599771
-0.604442
-0.608997
-0.612908
-0.551844
-0.548873
-0.546764
-0.545095
-0.543742
-0.542849
-0.542538
-0.542886
-0.543936
-0.545697
-0.548144
-0.55123
-0.55489
-0.559048
-0.563617
-0.568506
-0.57362
-0.578862
-0.584133
-0.589339
-0.594384
-0.599175
-0.603668
-0.60797
-0.611782
-0.554237
-0.551242
-0.54905
-0.547248
-0.545714
-0.544599
-0.544031
-0.5441
-0.544861
-0.546331
-0.548497
-0.551317
-0.55473
-0.558659
-0.563018
-0.567712
-0.572644
-0.57771
-0.582807
-0.587833
-0.592687
-0.597271
-0.601516
-0.605485
-0.609118
-0.556231
-0.55327
-0.551024
-0.549099
-0.547386
-0.546038
-0.545194
-0.544957
-0.545394
-0.546534
-0.548374
-0.550879
-0.553992
-0.557639
-0.561733
-0.566178
-0.57087
-0.575703
-0.580565
-0.585347
-0.58994
-0.59424
-0.598153
-0.601684
-0.605023
-0.557901
-0.555026
-0.552754
-0.550721
-0.548833
-0.54725
-0.546121
-0.54556
-0.54565
-0.546432
-0.547914
-0.550068
-0.552844
-0.556169
-0.559956
-0.564107
-0.568514
-0.573062
-0.577634
-0.582108
-0.586367
-0.590296
-0.593775
-0.596733
-0.599616
-0.559328
-0.556589
-0.554317
-0.55219
-0.550135
-0.548321
-0.546905
-0.546016
-0.54575
-0.546161
-0.547266
-0.54905
-0.551465
-0.554442
-0.557894
-0.561718
-0.565802
-0.570023
-0.574252
-0.578355
-0.582201
-0.585661
-0.588587
-0.590813
-0.593032
-0.560603
-0.558038
-0.555791
-0.553584
-0.551375
-0.549338
-0.547644
-0.546433
-0.545813
-0.545854
-0.546582
-0.54799
-0.550035
-0.552652
-0.555752
-0.559228
-0.562959
-0.566814
-0.57065
-0.574318
-0.577665
-0.58055
-0.582791
-0.584112
-0.585423
-0.561822
-0.559462
-0.557256
-0.554983
-0.552632
-0.550388
-0.548431
-0.546914
-0.545958
-0.545642
-0.546005
-0.547045
-0.548727
-0.550983
-0.553722
-0.556834
-0.560188
-0.56364
-0.56703
-0.570191
-0.572951
-0.575147
-0.576567
-0.576816
-0.576965
-0.563089
-0.560949
-0.558795
-0.556466
-0.553988
-0.551556
-0.549359
-0.547561
-0.546294
-0.545648
-0.545669
-0.546361
-0.547691
-0.549593
-0.551971
-0.554705
-0.557655
-0.560661
-0.563547
-0.566125
-0.568202
-0.569593
-0.570064
-0.569107
-0.567867
-0.564509
-0.56259
-0.560489
-0.558112
-0.555522
-0.552923
-0.550512
-0.548465
-0.546921
-0.545978
-0.545688
-0.546059
-0.547057
-0.548613
-0.550626
-0.552965
-0.555478
-0.557987
-0.560301
-0.562212
-0.563507
-0.563986
-0.563402
-0.561158
-0.558366
-0.566189
-0.564473
-0.56242
-0.559998
-0.55731
-0.554566
-0.551972
-0.549711
-0.547929
-0.546726
-0.546159
-0.546235
-0.546918
-0.548134
-0.549772
-0.551691
-0.553721
-0.555672
-0.557335
-0.558488
-0.558905
-0.558377
-0.556663
-0.55312
-0.548707
-0.56823
-0.566685
-0.564665
-0.562198
-0.559422
-0.556555
-0.55381
-0.551371
-0.549388
-0.547963
-0.54715
-0.546955
-0.547335
-0.548207
-0.549449
-0.550906
-0.552396
-0.553713
-0.554638
-0.554941
-0.554393
-0.552789
-0.549913
-0.545125
-0.539132
-0.570727
-0.569303
-0.567294
-0.564778
-0.561923
-0.558953
-0.556083
-0.553501
-0.551351
-0.549736
-0.548703
-0.54825
-0.548327
-0.548838
-0.549649
-0.55059
-0.551467
-0.552065
-0.552158
-0.55152
-0.549934
-0.547215
-0.543193
-0.53728
-0.529865
-0.57376
-0.572397
-0.570368
-0.567794
-0.564864
-0.561807
-0.558837
-0.556138
-0.55385
-0.552067
-0.550827
-0.550119
-0.549878
-0.549996
-0.550323
-0.550679
-0.550859
-0.550642
-0.549806
-0.548136
-0.545439
-0.541567
-0.536422
-0.529492
-0.520894
-0.577394
-0.576021
-0.573938
-0.571291
-0.568285
-0.56515
-0.562097
-0.5593
-0.556891
-0.554951
-0.553505
-0.552527
-0.551938
-0.551614
-0.551393
-0.551084
-0.550477
-0.549352
-0.547495
-0.544706
-0.540814
-0.535704
-0.529309
-0.521167
-0.511541
-0.581675
-0.580216
-0.578038
-0.575301
-0.572212
-0.569002
-0.565872
-0.562986
-0.56046
-0.55836
-0.556693
-0.555416
-0.554433
-0.553606
-0.552762
-0.551705
-0.550226
-0.548116
-0.545177
-0.541232
-0.536129
-0.529751
-0.521937
-0.512148
-0.501715
-0.586633
-0.585009
-0.582693
-0.579841
-0.576657
-0.573365
-0.570157
-0.567178
-0.564527
-0.562248
-0.56033
-0.558709
-0.557273
-0.555871
-0.554324
-0.552439
-0.550016
-0.546868
-0.542828
-0.537758
-0.531552
-0.524132
-0.515402
-0.50535
-0.495827
-0.592277
-0.590414
-0.587914
-0.58492
-0.581621
-0.578234
-0.574933
-0.571847
-0.569048
-0.566559
-0.564346
-0.562323
-0.560364
-0.558308
-0.555978
-0.553188
-0.549762
-0.545543
-0.540404
-0.534255
-0.527046
-0.518766
-0.509435
-0.499203
-0.489147
-0.598607
-0.596431
-0.593704
-0.590538
-0.587099
-0.583594
-0.580181
-0.576959
-0.57398
-0.571236
-0.568668
-0.566174
-0.563613
-0.560822
-0.557629
-0.553869
-0.549394
-0.544087
-0.537866
-0.530691
-0.522561
-0.513512
-0.50361
-0.493001
-0.482387
-0.605609
-0.603058
-0.60006
-0.596689
-0.593082
-0.589433
-0.585875
-0.582484
-0.579277
-0.57622
-0.57323
-0.570184
-0.566936
-0.563326
-0.559197
-0.55441
-0.548857
-0.542463
-0.535194
-0.527055
-0.518087
-0.50836
-0.497965
-0.487043
-0.476099
-0.613266
-0.610284
-0.606976
-0.603369
-0.599563
-0.595736
-0.591998
-0.588391
-0.584899
-0.58146
-0.577965
-0.574281
-0.570257
-0.565744
-0.560612
-0.554757
-0.548112
-0.540648
-0.532377
-0.523343
-0.51362
-0.5033
-0.492485
-0.481315
-0.470159
-0.62156
-0.6181
-0.614446
-0.610571
-0.606535
-0.602496
-0.598534
-0.594655
-0.59081
-0.586907
-0.582817
-0.578398
-0.573505
-0.568012
-0.56182
-0.554867
-0.547131
-0.538629
-0.529412
-0.519557
-0.509161
-0.498329
-0.487166
-0.475812
-0.464541
-0.630472
-0.626493
-0.622462
-0.618293
-0.613995
-0.609704
-0.605467
-0.601252
-0.596974
-0.592513
-0.587727
-0.582472
-0.57662
-0.570075
-0.562777
-0.554711
-0.5459
-0.536402
-0.526302
-0.5157
-0.504707
-0.493432
-0.481978
-0.470479
-0.459133
-0.639981
-0.63545
-0.631019
-0.626531
-0.621939
-0.617354
-0.612784
-0.608156
-0.603353
-0.59823
-0.592638
-0.586443
-0.579545
-0.571884
-0.563449
-0.554269
-0.544411
-0.533968
-0.52305
-0.511772
-0.500249
-0.488589
-0.476885
-0.465264
-0.45386
-0.650068
-0.644959
-0.640108
-0.635278
-0.630361
-0.625433
-0.620463
-0.615336
-0.609902
-0.604002
-0.597489
-0.590253
-0.582228
-0.573401
-0.56381
-0.553528
-0.542661
-0.53133
-0.519658
-0.50777
-0.495776
-0.483775
-0.471849
-0.460115
-0.44865
-0.660708
-0.655
-0.649713
-0.644523
-0.639246
-0.633922
-0.628474
-0.622747
-0.616566
-0.609767
-0.602218
-0.593842
-0.58462
-0.574591
-0.563839
-0.552481
-0.540651
-0.528489
-0.516127
-0.503686
-0.491269
-0.478963
-0.466834
-0.454988
-0.443452
-0.671872
-0.665549
-0.659816
-0.654246
-0.648573
-0.642789
-0.636773
-0.630334
-0.623281
-0.615455
-0.606756
-0.597151
-0.586676
-0.575422
-0.56352
-0.551119
-0.538378
-0.525444
-0.51245
-0.499508
-0.48671
-0.474124
-0.461805
-0.449843
-0.438223
-0.683519
-0.67657
-0.670385
-0.664416
-0.658302
-0.651986
-0.6453
-0.638026
-0.629967
-0.620988
-0.611032
-0.600122
-0.588353
-0.575868
-0.562837
-0.549437
-0.535839
-0.522191
-0.508618
-0.49522
-0.482073
-0.46923
-0.456729
-0.444645
-0.43293
-0.695598
-0.688019
-0.681376
-0.674986
-0.668381
-0.661448
-0.65398
-0.645737
-0.636536
-0.626281
-0.614972
-0.602697
-0.58961
-0.575901
-0.561775
-0.547425
-0.533024
-0.518717
-0.504614
-0.4908
-0.477333
-0.46425
-0.451573
-0.439362
-0.427543
-0.708043
-0.699834
-0.692731
-0.685894
-0.678738
-0.671093
-0.662717
-0.653367
-0.642889
-0.631244
-0.618501
-0.604817
-0.590404
-0.575495
-0.560315
-0.545068
-0.529921
-0.515006
-0.500418
-0.486222
-0.47246
-0.45915
-0.446304
-0.433964
-0.422036
-0.720771
-0.71194
-0.704374
-0.69706
-0.689282
-0.680818
-0.671401
-0.660803
-0.648919
-0.635783
-0.621543
-0.606426
-0.590697
-0.57462
-0.558437
-0.542348
-0.526509
-0.511035
-0.496002
-0.481455
-0.467419
-0.453898
-0.44089
-0.428419
-0.416383
-0.733683
-0.724244
-0.716213
-0.708384
-0.699905
-0.690504
-0.679907
-0.667922
-0.654513
-0.639803
-0.624023
-0.607467
-0.590446
-0.573247
-0.556115
-0.53924
-0.522763
-0.506775
-0.491334
-0.476466
-0.462177
-0.448458
-0.435296
-0.422696
-0.410557
-0.746662
-0.736636
-0.728137
-0.719748
-0.710478
-0.700014
-0.688097
-0.674592
-0.659556
-0.643208
-0.625864
-0.607883
-0.589609
-0.571341
-0.553319
-0.535716
-0.518651
-0.502194
-0.486381
-0.471218
-0.456696
-0.442793
-0.429486
-0.416763
-0.404529
-0.759576
-0.748989
-0.740018
-0.731016
-0.720855
-0.709198
-0.695823
-0.680679
-0.663931
-0.645903
-0.626995
-0.607618
-0.588142
-0.568865
-0.550014
-0.531741
-0.514138
-0.497254
-0.481101
-0.46567
-0.450935
-0.436865
-0.423426
-0.410588
-0.398271
-0.772273
-0.76116
-0.75171
-0.742034
-0.730875
-0.717894
-0.702931
-0.686044
-0.667522
-0.647795
-0.627343
-0.606616
-0.585998
-0.565779
-0.546163
-0.527276
-0.509186
-0.491914
-0.475455
-0.459782
-0.444856
-0.430636
-0.417078
-0.404135
-0.391752
-0.784589
-0.772988
-0.763049
-0.752633
-0.740366
-0.725931
-0.709263
-0.690551
-0.670216
-0.648796
-0.626837
-0.604821
-0.583131
-0.562039
-0.541723
-0.52228
-0.50375
-0.486132
-0.4694
-0.453511
-0.438417
-0.424067
-0.410406
-0.397371
-0.38494
-0.796345
-0.784301
-0.77386
-0.762631
-0.749144
-0.733134
-0.71466
-0.694064
-0.671903
-0.648818
-0.625409
-0.602176
-0.57949
-0.5576
-0.53665
-0.516708
-0.497787
-0.479863
-0.462891
-0.446816
-0.431578
-0.417118
-0.403374
-0.390262
-0.377804
-0.807353
-0.794913
-0.783955
-0.771836
-0.757021
-0.739327
-0.718969
-0.696454
-0.672481
-0.64778
-0.622994
-0.598627
-0.575028
-0.552414
-0.530898
-0.510516
-0.491252
-0.473063
-0.455887
-0.439656
-0.4243
-0.409754
-0.395946
-0.382776
-0.370315
-0.817415
-0.804629
-0.793136
-0.780051
-0.763804
-0.744335
-0.722038
-0.697598
-0.671851
-0.645604
-0.619529
-0.594117
-0.569693
-0.546436
-0.524422
-0.503656
-0.4841
-0.465688
-0.448344
-0.431988
-0.416543
-0.401937
-0.388087
-0.374881
-0.362442
-0.826327
-0.813248
-0.8012
-0.787073
-0.769304
-0.747988
-0.723724
-0.697382
-0.669922
-0.642218
-0.614951
-0.588595
-0.563436
-0.539616
-0.517174
-0.496085
-0.476286
-0.457695
-0.440222
-0.423776
-0.408272
-0.393633
-0.379767
-0.366547
-0.354158
-0.833885
-0.820567
-0.807943
-0.792703
-0.773334
-0.750125
-0.723895
-0.695698
-0.666612
-0.637554
-0.609205
-0.582009
-0.55621
-0.531908
-0.509109
-0.487758
-0.46777
-0.449046
-0.431483
-0.414982
-0.399452
-0.384811
-0.370955
-0.357746
-0.345436
-0.839885
-0.826382
-0.813162
-0.796747
-0.77572
-0.750595
-0.722429
-0.692453
-0.661843
-0.63155
-0.602237
-0.57431
-0.547967
-0.523269
-0.500185
-0.478634
-0.45851
-0.439701
-0.422091
-0.405574
-0.390053
-0.375441
-0.361624
-0.348453
-0.336254
-0.844125
-0.830492
-0.816658
-0.799014
-0.776293
-0.74926
-0.719216
-0.687559
-0.65555
-0.624151
-0.593999
-0.565453
-0.538667
-0.513658
-0.490363
-0.468675
-0.448472
-0.429626
-0.412015
-0.395522
-0.380047
-0.365498
-0.35175
-0.338646
-0.326591
-0.846414
-0.832704
-0.818242
-0.799332
-0.774902
-0.745997
-0.71416
-0.680945
-0.647674
-0.615309
-0.584447
-0.5554
-0.52827
-0.503037
-0.479606
-0.457848
-0.437623
-0.418793
-0.401226
-0.3848
-0.369409
-0.35496
-0.341313
-0.328308
-0.316429
-0.846571
-0.832838
-0.817738
-0.79754
-0.771412
-0.740699
-0.707179
-0.672546
-0.638166
-0.604981
-0.573544
-0.544112
-0.516742
-0.491373
-0.467883
-0.446121
-0.425935
-0.407174
-0.3897
-0.373385
-0.358121
-0.343808
-0.330297
-0.317423
-0.305756
-0.844429
-0.830725
-0.814986
-0.793493
-0.765706
-0.733275
-0.698207
-0.662313
-0.626984
-0.593132
-0.561258
-0.531561
-0.504054
-0.478639
-0.455167
-0.433471
-0.413385
-0.394749
-0.377419
-0.361262
-0.346166
-0.33203
-0.31869
-0.305982
-0.294562
-0.839838
-0.826214
-0.809841
-0.78707
-0.757686
-0.723653
-0.687192
-0.650208
-0.6141
-0.579738
-0.547563
-0.517723
-0.490182
-0.464811
-0.441438
-0.419878
-0.399955
-0.381502
-0.364367
-0.348417
-0.333534
-0.319615
-0.306484
-0.293978
-0.282842
-0.832667
-0.819173
-0.802181
-0.778166
-0.747273
-0.711778
-0.674095
-0.636204
-0.599492
-0.564778
-0.532444
-0.50258
-0.475111
-0.449875
-0.42668
-0.405328
-0.385632
-0.367421
-0.350536
-0.334841
-0.320219
-0.306559
-0.293675
-0.281409
-0.270594
-0.822806
-0.809491
-0.791907
-0.766701
-0.734411
-0.697614
-0.658895
-0.620287
-0.58315
-0.548245
-0.515889
-0.486122
-0.458828
-0.433819
-0.410883
-0.389812
-0.37041
-0.3525
-0.335921
-0.320533
-0.306218
-0.292862
-0.280266
-0.268278
-0.257821
-0.810168
-0.797082
-0.77894
-0.75262
-0.719064
-0.681142
-0.641586
-0.602456
-0.565074
-0.530136
-0.497897
-0.468346
-0.441331
-0.41664
-0.394045
-0.373328
-0.354287
-0.336739
-0.320523
-0.305495
-0.291536
-0.278529
-0.266263
-0.254593
-0.244532
-0.794691
-0.781882
-0.763229
-0.735888
-0.701219
-0.662364
-0.622175
-0.582721
-0.545274
-0.51046
-0.478474
-0.449257
-0.422623
-0.39834
-0.376168
-0.355878
-0.337265
-0.320143
-0.304347
-0.289732
-0.276179
-0.263568
-0.251675
-0.240367
-0.230739
-0.776337
-0.763852
-0.744748
-0.716495
-0.680881
-0.641295
-0.600683
-0.561105
-0.52377
-0.489235
-0.457634
-0.428865
-0.402714
-0.378929
-0.35726
-0.337472
-0.319355
-0.30272
-0.287403
-0.273256
-0.260161
-0.247993
-0.236519
-0.225615
-0.216458
-0.755094
-0.742982
-0.723493
-0.694456
-0.658078
-0.617972
-0.577149
-0.537642
-0.500592
-0.466486
-0.435399
-0.40719
-0.38162
-0.358422
-0.337335
-0.318122
-0.300568
-0.284485
-0.269705
-0.256082
-0.243498
-0.231823
-0.220815
-0.210361
-0.201712
-0.730976
-0.719285
-0.69949
-0.669806
-0.632857
-0.592444
-0.551622
-0.512379
-0.475783
-0.442248
-0.4118
-0.384259
-0.359365
-0.336839
-0.316414
-0.297847
-0.280924
-0.265455
-0.251272
-0.238229
-0.226209
-0.215078
-0.204585
-0.194628
-0.186527
-0.704022
-0.692799
-0.672784
-0.642606
-0.605284
-0.56478
-0.524166
-0.485373
-0.449391
-0.416568
-0.386875
-0.360106
-0.33598
-0.314208
-0.294519
-0.27667
-0.260443
-0.24565
-0.232124
-0.219718
-0.208317
-0.197784
-0.187857
-0.178448
-0.170931
-0.674297
-0.66359
-0.643449
-0.612935
-0.575442
-0.535062
-0.494858
-0.456694
-0.42148
-0.389497
-0.360672
-0.334771
-0.311499
-0.29056
-0.27168
-0.254615
-0.23915
-0.225095
-0.212283
-0.200573
-0.189847
-0.179965
-0.170661
-0.161852
-0.154957
-0.64189
-0.631746
-0.61158
-0.580894
-0.543435
-0.503388
-0.463788
-0.426423
-0.392121
-0.361099
-0.333246
-0.308303
-0.285966
-0.265933
-0.24793
-0.231713
-0.217069
-0.203811
-0.191773
-0.180816
-0.170822
-0.161651
-0.153028
-0.144877
-0.138644
-0.606915
-0.597378
-0.577291
-0.546604
-0.509379
-0.469869
-0.431059
-0.394651
-0.361394
-0.331446
-0.30466
-0.280758
-0.259428
-0.240367
-0.223302
-0.207993
-0.194228
-0.181823
-0.170616
-0.160468
-0.151267
-0.142867
-0.134991
-0.127564
-0.122044
-0.569505
-0.560621
-0.540721
-0.5102
-0.473409
-0.43463
-0.396784
-0.361482
-0.329391
-0.300619
-0.274986
-0.252199
-0.231941
-0.21391
-0.197838
-0.183487
-0.170651
-0.159151
-0.148828
-0.139547
-0.131197
-0.123634
-0.116578
-0.109956
-0.10521
-0.529817
-0.521628
-0.502024
-0.471839
-0.435673
-0.39781
-0.36109
-0.327027
-0.296216
-0.26871
-0.244305
-0.222697
-0.203566
-0.186614
-0.171579
-0.158228
-0.146364
-0.135812
-0.12642
-0.118057
-0.110617
-0.103958
-0.0978068
-0.092084
-0.0881707
-0.488025
-0.480573
-0.461374
-0.431689
-0.396331
-0.359557
-0.324112
-0.291413
-0.261979
-0.235821
-0.212709
-0.192332
-0.174372
-0.158537
-0.144571
-0.13225
-0.121386
-0.111813
-0.103388
-0.095987
-0.0895091
-0.0838217
-0.0786649
-0.0739395
-0.0708906
-0.444321
-0.437644
-0.418958
-0.389933
-0.355556
-0.320033
-0.285999
-0.254774
-0.226805
-0.202063
-0.180298
-0.161196
-0.14444
-0.129747
-0.116868
-0.105593
-0.0957411
-0.0871603
-0.0797183
-0.0733045
-0.0678271
-0.0631676
-0.0590882
-0.0554567
-0.0533279
-0.398912
-0.393045
-0.374976
-0.346764
-0.313532
-0.279407
-0.246907
-0.217254
-0.190827
-0.167559
-0.147187
-0.129391
-0.113862
-0.100322
-0.0885358
-0.0783032
-0.0694583
-0.0618629
-0.0554023
-0.0499837
-0.0455293
-0.0419394
-0.039022
-0.0366563
-0.0357175
-0.352018
-0.346993
-0.329643
-0.302388
-0.270452
-0.237858
-0.207003
-0.179007
-0.154188
-0.132444
-0.113499
-0.0970332
-0.0827412
-0.0703554
-0.0596497
-0.050438
-0.0425698
-0.0359264
-0.03042
-0.0259869
-0.0225696
-0.0201048
-0.0185389
-0.0179159
-0.0188064
-0.30387
-0.299716
-0.283179
-0.257017
-0.226514
-0.195573
-0.166459
-0.140197
-0.117043
-0.0968641
-0.0793743
-0.0642535
-0.0512013
-0.0399571
-0.0303033
-0.0220636
-0.0151004
-0.0093154
-0.00465281
-0.00108602
0.00141104
0.00280383
0.00278517
0.000914956
-0.00241078
-0.254709
-0.251449
-0.235814
-0.210869
-0.181924
-0.152743
-0.125457
-0.100993
-0.0795515
-0.0609735
-0.0449631
-0.0312004
-0.0193888
-0.00927171
-0.000634692
0.00669724
0.0128618
0.0179556
0.0220306
0.0251188
0.027264
0.0283196
0.0274371
0.023737
0.0194214
-0.20478
-0.202434
-0.187783
-0.164167
-0.13689
-0.109564
-0.0841778
-0.0615678
-0.0418811
-0.0249348
-0.0104263
0.00196358
0.0125278
0.0215201
0.0291549
0.0356117
0.0410394
0.0455561
0.0492555
0.0522569
0.054748
0.0566681
0.0569284
0.0548702
0.0589234
-0.154328
-0.152911
-0.139319
-0.117134
-0.0916237
-0.066231
-0.0428072
-0.0220974
-0.00420034
0.0110873
0.0240729
0.0350729
0.0443757
0.0522309
0.0588508
0.0644152
0.0690768
0.0729633
0.0761905
0.0789097
0.0813181
0.083383
0.0844883
0.0851284
0.0918649
-0.103604
-0.10313
-0.0906604
-0.0699952
-0.0463336
-0.0229411
-0.00152904
0.0172441
0.0333239
0.0469308
0.0583744
0.0679672
0.0759915
0.0826915
0.0882756
0.092922
0.0967838
0.0999927
0.102672
0.104972
0.107059
0.108896
0.110037
0.111055
0.117168
-0.0528594
-0.0533347
-0.0420448
-0.0229734
-0.00122799
0.0201123
0.0394756
0.0562857
0.0705285
0.0824384
0.0923248
0.100494
0.107221
0.112743
0.11726
0.120947
0.123952
0.126404
0.128425
0.130154
0.131742
0.133157
0.134027
0.134801
0.139774
-0.0023433
-0.00376999
0.00629444
0.0237114
0.0434887
0.0627396
0.0800298
0.0948614
0.107256
0.11746
0.12578
0.132515
0.13793
0.142252
0.145676
0.148366
0.150464
0.15209
0.153357
0.154389
0.155313
0.156091
0.156379
0.156597
0.160499
0.0476997
0.0453241
0.0541273
0.0698439
0.0876168
0.104756
0.119962
0.132811
0.143358
0.151855
0.158606
0.163901
0.167995
0.171105
0.173415
0.175079
0.176231
0.176982
0.177432
0.177693
0.17787
0.177911
0.177498
0.177053
0.17992
0.0970297
0.0937125
0.101229
0.115214
0.130963
0.145983
0.159107
0.169982
0.178689
0.185489
0.190678
0.194538
0.197311
0.199203
0.200388
0.20101
0.201193
0.201036
0.200632
0.200076
0.199457
0.198712
0.197555
0.196416
0.198298
0.145413
0.141166
0.147382
0.159619
0.173339
0.186248
0.197307
0.206226
0.213115
0.218237
0.221881
0.224318
0.225779
0.226459
0.22652
0.226097
0.225301
0.224226
0.222951
0.221562
0.220133
0.218593
0.21669
0.214858
0.215798
0.192623
0.187464
0.192376
0.202863
0.214565
0.225386
0.234409
0.241405
0.246507
0.24998
0.252105
0.253142
0.25331
0.252793
0.251742
0.250282
0.248514
0.246523
0.24438
0.242161
0.239925
0.237603
0.234972
0.232465
0.232502
0.238442
0.232392
0.236007
0.244758
0.254468
0.263238
0.270268
0.275385
0.278743
0.280606
0.281249
0.280918
0.279822
0.278133
0.275992
0.273513
0.270791
0.2679
0.264904
0.26187
0.258847
0.255767
0.252436
0.249277
0.24845
0.28266
0.275747
0.278083
0.285124
0.292884
0.299654
0.304746
0.30804
0.309707
0.310009
0.309214
0.307557
0.305234
0.302407
0.299207
0.295739
0.292089
0.288323
0.2845
0.280676
0.276895
0.273089
0.26909
0.265307
0.263653
0.325078
0.317333
0.318418
0.323791
0.329657
0.334492
0.337712
0.339249
0.339287
0.338088
0.33591
0.332976
0.329472
0.325549
0.321329
0.316908
0.312364
0.307757
0.303138
0.298558
0.294051
0.289555
0.284927
0.280548
0.278102
0.365508
0.356966
0.356839
0.360598
0.364638
0.367614
0.369043
0.3689
0.367381
0.364748
0.361248
0.357094
0.352462
0.347492
0.342298
0.336967
0.33157
0.326161
0.320784
0.315485
0.310292
0.305146
0.299925
0.294982
0.291782
0.403772
0.394473
0.393182
0.395392
0.397689
0.398896
0.398622
0.396884
0.39389
0.389897
0.385145
0.379835
0.374135
0.368174
0.362056
0.355864
0.34966
0.343493
0.337402
0.331425
0.325586
0.319831
0.314057
0.308582
0.304668
0.439703
0.429692
0.427293
0.428033
0.428681
0.428217
0.42634
0.423102
0.418721
0.413451
0.407522
0.401128
0.394424
0.387532
0.380549
0.373549
0.366589
0.359712
0.352952
0.346342
0.3399
0.333579
0.327292
0.321319
0.316732
0.473147
0.462472
0.459031
0.458389
0.457492
0.455468
0.452096
0.44746
0.441788
0.43533
0.428307
0.420904
0.413267
0.40551
0.397722
0.389972
0.382309
0.374774
0.367394
0.360198
0.353199
0.346357
0.339597
0.333162
0.327946
0.503963
0.492676
0.488266
0.486341
0.484012
0.480547
0.475795
0.469872
0.463012
0.45546
0.44743
0.439099
0.430604
0.422052
0.413525
0.405085
0.396778
0.388637
0.380689
0.372956
0.365448
0.358129
0.350939
0.344079
0.338282
0.532021
0.520178
0.51488
0.511779
0.508142
0.503362
0.497354
0.49026
0.482319
0.473773
0.464829
0.455655
0.446381
0.437107
0.427909
0.418843
0.409952
0.401264
0.392801
0.384582
0.376613
0.368865
0.361287
0.354041
0.347712
0.557207
0.544867
0.538767
0.534606
0.529792
0.523831
0.516697
0.508553
0.499644
0.490209
0.480446
0.470518
0.460547
0.450628
0.440831
0.431207
0.421793
0.412617
0.403695
0.395041
0.386662
0.378532
0.370609
0.363017
0.356211
0.579418
0.566644
0.559834
0.554735
0.548882
0.541881
0.533755
0.524689
0.51493
0.504712
0.494232
0.483642
0.47306
0.462575
0.452251
0.442137
0.432267
0.422662
0.413338
0.404305
0.395567
0.387102
0.378878
0.370983
0.363756
0.598569
0.585424
0.578002
0.572093
0.565345
0.557448
0.548471
0.538613
0.528124
0.517237
0.506141
0.494985
0.483879
0.472909
0.462136
0.451603
0.441342
0.431371
0.421703
0.412346
0.403301
0.394552
0.386071
0.377916
0.370326
0.614585
0.601136
0.593203
0.586619
0.579124
0.570482
0.560796
0.55028
0.539186
0.527744
0.516138
0.504512
0.492973
0.481602
0.470456
0.459577
0.448992
0.438718
0.428766
0.419141
0.409843
0.400859
0.392166
0.383796
0.375904
0.627408
0.613723
0.605385
0.598262
0.590173
0.580939
0.570692
0.559655
0.548082
0.536201
0.524192
0.512195
0.500314
0.488627
0.477188
0.466035
0.455195
0.444683
0.434508
0.424672
0.415174
0.406005
0.397146
0.388606
0.380476
0.636996
0.623144
0.614508
0.606986
0.598459
0.588789
0.578129
0.56671
0.554787
0.542584
0.530281
0.518013
0.505884
0.493966
0.482313
0.470962
0.459936
0.449251
0.438913
0.428924
0.419282
0.409978
0.400999
0.392336
0.384031
0.64332
0.629372
0.620547
0.612769
0.60396
0.594012
0.583089
0.571427
0.559283
0.546878
0.53439
0.521953
0.509668
0.497606
0.48582
0.474345
0.463204
0.452411
0.441972
0.431888
0.422156
0.412769
0.403715
0.394976
0.386562
0.646367
0.632394
0.623489
0.615598
0.606666
0.596598
0.585563
0.5738
0.561564
0.549076
0.536513
0.524008
0.51166
0.499542
0.487703
0.47618
0.464994
0.454159
0.44368
0.433559
0.423792
0.414373
0.40529
0.396523
0.388066
0.64614
0.632211
0.623337
0.615476
0.606579
0.596548
0.585552
0.573828
0.56163
0.549179
0.536651
0.524179
0.511862
0.499773
0.487963
0.476466
0.465305
0.454493
0.444037
0.433937
0.42419
0.414789
0.405724
0.396976
0.388542
0.642655
0.628843
0.620108
0.612419
0.603713
0.593877
0.58307
0.571523
0.559492
0.547196
0.534811
0.522473
0.510281
0.498308
0.486606
0.47521
0.464144
0.453421
0.443048
0.433027
0.423354
0.414022
0.40502
0.396339
0.387994
0.635947
0.622319
0.61383
0.606453
0.598093
0.588607
0.578136
0.566906
0.555168
0.543144
0.531012
0.518907
0.506931
0.495159
0.483644
0.472423
0.461521
0.450952
0.440723
0.430838
0.421294
0.412081
0.403187
0.39462
0.386427
0.626061
0.612687
0.604549
0.59762
0.589758
0.580773
0.570784
0.560006
0.548687
0.537051
0.525276
0.513503
0.501834
0.490347
0.479098
0.468125
0.457454
0.447102
0.437077
0.427385
0.418022
0.408979
0.400238
0.391829
0.383853
0.613061
0.600007
0.592321
0.585973
0.578756
0.570421
0.561056
0.550862
0.540085
0.528949
0.517636
0.50629
0.495017
0.483898
0.472991
0.462337
0.451964
0.441892
0.43213
0.422686
0.413558
0.404732
0.39619
0.387984
0.380285
0.597025
0.584355
0.577217
0.571577
0.565147
0.557606
0.549002
0.539522
0.529406
0.51888
0.508131
0.497306
0.486515
0.475844
0.465353
0.455088
0.445079
0.435348
0.425906
0.416764
0.407923
0.399363
0.391061
0.383102
0.37574
0.578043
0.565819
0.559323
0.554512
0.549005
0.542395
0.534685
0.526043
0.516703
0.506894
0.496807
0.486593
0.476368
0.466223
0.456221
0.446412
0.436831
0.427499
0.418434
0.409647
0.401142
0.392895
0.384878
0.377207
0.370238
0.556222
0.544503
0.538734
0.534865
0.53041
0.524863
0.518175
0.51049
0.502037
0.493048
0.483716
0.4742
0.464623
0.455078
0.445635
0.436348
0.427254
0.41838
0.409745
0.401366
0.393246
0.385358
0.377667
0.370324
0.363802
0.531679
0.520522
0.51556
0.51274
0.509457
0.505097
0.499551
0.492936
0.485477
0.477403
0.468918
0.460184
0.45133
0.442457
0.43364
0.424937
0.416389
0.408028
0.399876
0.391953
0.384266
0.376782
0.369458
0.362482
0.356458
0.504549
0.494006
0.489923
0.488248
0.48625
0.483193
0.478901
0.473464
0.467097
0.460032
0.452477
0.444603
0.436547
0.428414
0.420286
0.412226
0.40428
0.396484
0.388865
0.381445
0.374237
0.367201
0.360284
0.353711
0.348233
0.474975
0.465095
0.461957
0.461514
0.460901
0.459253
0.456321
0.452161
0.446979
0.441009
0.434465
0.427526
0.420334
0.413004
0.405625
0.398263
0.390973
0.383792
0.376752
0.369881
0.363195
0.35665
0.350179
0.344044
0.339155
0.443116
0.433943
0.431806
0.432672
0.433535
0.433393
0.431915
0.429125
0.425214
0.420418
0.414958
0.40902
0.402757
0.39629
0.389713
0.383102
0.376514
0.369994
0.363578
0.357299
0.351176
0.345163
0.339176
0.333512
0.329254
0.409139
0.400715
0.399627
0.401865
0.404284
0.405732
0.405796
0.404457
0.401894
0.398345
0.394036
0.389162
0.383885
0.378333
0.372609
0.366795
0.360954
0.355138
0.349385
0.343737
0.338217
0.332774
0.327308
0.322146
0.31856
0.373225
0.365586
0.365585
0.369249
0.373289
0.376401
0.378081
0.378266
0.377122
0.374883
0.371785
0.36803
0.363789
0.359199
0.354372
0.349396
0.344343
0.339267
0.334215
0.329233
0.324351
0.319516
0.314606
0.309976
0.307096
0.335564
0.328742
0.329857
0.334986
0.3407
0.345538
0.348897
0.35067
0.351003
0.350131
0.348295
0.345706
0.342545
0.338958
0.335065
0.330962
0.326728
0.322424
0.318103
0.313818
0.309607
0.305412
0.301092
0.297022
0.294885
0.296356
0.290378
0.292628
0.299248
0.306675
0.313286
0.318377
0.321789
0.323649
0.324191
0.323659
0.322276
0.320231
0.31768
0.314751
0.311548
0.308159
0.304652
0.301086
0.297522
0.294007
0.290482
0.286782
0.283296
0.281937
0.255811
0.250699
0.254092
0.262215
0.27138
0.279797
0.286659
0.291751
0.295178
0.29717
0.297977
0.297831
0.296928
0.295437
0.293493
0.29121
0.288682
0.285986
0.28319
0.280363
0.277561
0.274729
0.271675
0.268795
0.268249
0.214144
0.209918
0.214451
0.224077
0.234988
0.245231
0.25389
0.26069
0.265712
0.269181
0.271352
0.272463
0.272722
0.272305
0.271358
0.270003
0.268343
0.266463
0.264439
0.262351
0.260268
0.25814
0.255747
0.253487
0.253791
0.17158
0.168253
0.173915
0.185027
0.197678
0.209752
0.22022
0.228745
0.235381
0.240344
0.243892
0.246273
0.247703
0.248365
0.248417
0.247988
0.247189
0.246115
0.24485
0.243487
0.24211
0.240676
0.238943
0.237304
0.238496
0.12835
0.12593
0.1327
0.145266
0.159636
0.173531
0.185806
0.196061
0.204317
0.210782
0.215714
0.219367
0.221967
0.223705
0.224746
0.225229
0.225271
0.224976
0.224437
0.223759
0.223045
0.222263
0.221149
0.220103
0.222224
0.0846893
0.0831808
0.0910245
0.105003
0.121053
0.136744
0.150813
0.16279
0.172663
0.180626
0.186938
0.191859
0.19562
0.198422
0.200434
0.201803
0.202654
0.203094
0.203226
0.203167
0.20304
0.202821
0.202217
0.201662
0.204744
0.0408359
0.0402386
0.049115
0.0644468
0.0821263
0.099573
0.115408
0.129089
0.140564
0.150014
0.157696
0.163872
0.16878