/*--------------------------------*- C++ -*----------------------------------*\
  =========                 |
  \\      /  F ield         | OpenFOAM: The Open Source CFD Toolbox
   \\    /   O peration     | Website:  https://openfoam.org
    \\  /    A nd           | Version:  6.0
     \\/     M anipulation  |
\*---------------------------------------------------------------------------*/
FoamFile
{
    version     2.0;
    format      ascii;
    class       surfaceScalarField;
    location    "73";
    object      phi;
}
// * * * * * * * * * * * * * * * * * * * * * * * * * * * * * * * * * * * * * //

dimensions      [0 3 -1 0 0 0 0];

internalField   nonuniform List<scalar> 
24700
(
-4.65854e-06
-1.22123e-05
1.68708e-05
-1.57581e-05
-6.10356e-06
1.72031e-05
-3.13591e-05
2.09112e-05
-5.31021e-06
-5.00923e-05
6.13701e-05
-4.26369e-05
-7.09551e-05
0.000109748
-8.88856e-05
-9.31764e-05
0.000162202
-0.00013998
-0.000116124
0.000216178
-0.00019323
-0.000139249
0.000270067
-0.000246942
-0.000162057
0.000322894
-0.000300086
-0.000184102
0.000374076
-0.000352031
-0.000204986
0.000423231
-0.000402348
-0.000224367
0.000470071
-0.00045069
-0.000241965
0.000514329
-0.000496731
-0.000257566
0.000555748
-0.000540147
-0.00027102
0.000594082
-0.000580629
-0.00028224
0.000629128
-0.000617909
-0.000291194
0.000660746
-0.000651791
-0.000297899
0.000688885
-0.00068218
-0.000302407
0.00071361
-0.000709102
-0.000304799
0.00073511
-0.000732718
-0.000305167
0.000753708
-0.00075334
-0.000303615
0.000769872
-0.000771423
-0.000300253
0.000784207
-0.000787569
-0.00029519
0.000797514
-0.000802577
0.000810894
-0.000817524
-0.00028856
-4.07758e-06
-8.13467e-06
-1.37357e-05
3.55457e-06
-2.72258e-05
3.44013e-05
-4.33159e-05
7.74602e-05
-6.11077e-05
0.00012754
-7.99101e-05
0.000181004
-9.91523e-05
0.00023542
-0.000118332
0.000289247
-0.000136993
0.000341555
-0.000154716
0.000391799
-0.00017113
0.000439646
-0.000185919
0.00048486
-0.000198829
0.000527239
-0.000209674
0.000566593
-0.000218336
0.000602744
-0.000224759
0.000635552
-0.000228943
0.00066493
-0.00023093
0.000690872
-0.000230791
0.000713471
-0.000228614
0.000732933
-0.000224493
0.000749587
-0.000218521
0.0007639
-0.00021079
0.000776476
-0.000201392
0.000788116
0.00079995
-0.000190449
-3.44659e-06
-4.68809e-06
-1.15479e-05
1.16558e-05
-2.27647e-05
4.56182e-05
-3.60115e-05
9.07069e-05
-5.04997e-05
0.000142028
-6.5623e-05
0.000196127
-8.08773e-05
0.000250675
-9.58139e-05
0.000304184
-0.000110018
0.000355759
-0.000123108
0.000404888
-0.00013474
0.000451278
-0.000144624
0.000494744
-0.00015253
0.000535145
-0.000158295
0.000572357
-0.000161824
0.000606274
-0.000163085
0.000636813
-0.000162097
0.000663942
-0.00015892
0.000687695
-0.000153637
0.000708188
-0.000146343
0.000725639
-0.00013713
0.000740375
-0.000126084
0.000752854
-0.000113284
0.000763677
-9.8811e-05
0.000773643
0.000783924
-8.27847e-05
-2.79966e-06
-1.88842e-06
-9.30505e-06
1.81612e-05
-1.81887e-05
5.45018e-05
-2.85105e-05
0.000101029
-3.95905e-05
0.000153108
-5.0907e-05
0.000207444
-6.20251e-05
0.000261793
-7.25534e-05
0.000314712
-8.21255e-05
0.000365331
-9.03985e-05
0.000413162
-9.70626e-05
0.000457942
-0.000101853
0.000499534
-0.000104562
0.000537854
-0.000105047
0.000572842
-0.000103229
0.000604455
-9.90895e-05
0.000632674
-9.26615e-05
0.000657514
-8.40144e-05
0.000679047
-7.32398e-05
0.000697414
-6.04364e-05
0.000712835
-4.56965e-05
0.000725635
-2.91009e-05
0.000736258
-1.07225e-05
0.000745298
9.36182e-06
0.000753559
0.00076226
3.10255e-05
-2.16895e-06
2.80526e-07
-7.11203e-06
2.31043e-05
-1.37018e-05
6.10916e-05
-2.11335e-05
0.00010846
-2.88279e-05
0.000160803
-3.63434e-05
0.000214959
-4.33124e-05
0.000268762
-4.94023e-05
0.000320802
-5.4298e-05
0.000370227
-5.77002e-05
0.000416564
-5.93346e-05
0.000459577
-5.89653e-05
0.000499165
-5.64063e-05
0.000535295
-5.153e-05
0.000567966
-4.42697e-05
0.000597195
-3.46155e-05
0.000623019
-2.26061e-05
0.000645505
-8.31587e-06
0.000664757
8.15969e-06
0.000680938
2.67191e-05
0.000694276
4.7268e-05
0.000705086
6.97258e-05
0.0007138
9.40204e-05
0.000721003
0.000120072
0.000727507
0.000734593
0.000147739
-1.58292e-06
1.86344e-06
-5.06381e-06
2.65852e-05
-9.49139e-06
6.55192e-05
-1.41783e-05
0.000113147
-1.86323e-05
0.000165257
-2.24825e-05
0.00021881
-2.54234e-05
0.000271703
-2.71793e-05
0.000322558
-2.7487e-05
0.000370535
-2.60929e-05
0.00041517
-2.27613e-05
0.000456245
-1.72862e-05
0.00049369
-9.5038e-06
0.000527513
6.99093e-07
0.000557763
1.3381e-05
0.000584513
2.85481e-05
0.000607852
4.61607e-05
0.000627892
6.61443e-05
0.000644774
8.84033e-05
0.000658679
0.000112834
0.000669845
0.00013934
0.00067858
0.000167835
0.000685305
0.000198242
0.000690596
0.00023047
0.000695279
0.000700708
0.000264355
-1.06592e-06
2.92936e-06
-3.24254e-06
2.87618e-05
-5.72168e-06
6.79983e-05
-7.90903e-06
0.000115335
-9.38111e-06
0.000166729
-9.8244e-06
0.000219253
-8.98675e-06
0.000270865
-6.64419e-06
0.000320215
-2.58307e-06
0.000366473
3.40424e-06
0.000409182
1.15139e-05
0.000448135
2.19204e-05
0.000483283
3.47648e-05
0.000514668
5.01463e-05
0.000542382
6.81171e-05
0.000566542
8.86829e-05
0.000587287
0.000111807
0.000604768
0.000137419
0.000619161
0.000165428
0.000630671
0.000195729
0.000639544
0.000228222
0.000646087
0.000262814
0.000650713
0.000299417
0.000653994
0.000337921
0.000656775
0.000660502
0.000378127
-6.37274e-07
3.56663e-06
-1.71494e-06
2.98395e-05
-2.52831e-06
6.88117e-05
-2.54747e-06
0.000115354
-1.39605e-06
0.000165578
1.19824e-06
0.000216659
5.44608e-06
0.000266617
1.15279e-05
0.000314133
1.96125e-05
0.000358389
2.98641e-05
0.000398931
4.24401e-05
0.000435559
5.74827e-05
0.000468241
7.51101e-05
0.000497041
9.54075e-05
0.000522084
0.000118422
0.000543528
0.00014416
0.000561548
0.000172592
0.000576335
0.000203657
0.000588096
0.00023727
0.000597059
0.000273331
0.000603482
0.000311739
0.00060768
0.000352391
0.000610061
0.000395182
0.000611202
0.000439976
0.000611982
0.00061395
0.000486528
-3.1123e-07
3.87786e-06
-5.31205e-07
3.00594e-05
-1.5169e-08
6.82957e-05
1.7335e-06
0.000113605
5.06745e-06
0.000162244
1.02357e-05
0.00021149
1.74212e-05
0.000259432
2.67712e-05
0.000304783
3.84171e-05
0.000346743
5.24845e-05
0.000384863
6.90943e-05
0.00041895
8.83581e-05
0.000448977
0.000110371
0.000475028
0.000135205
0.000497251
0.000162901
0.000515832
0.000193471
0.000530978
0.000226895
0.000542912
0.000263123
0.000551868
0.000302084
0.000558098
0.000343688
0.000561878
0.000387836
0.000563532
0.000434421
0.000563476
0.000483318
0.000562305
0.000534354
0.000560946
0.000561081
0.000587224
-9.69931e-08
3.97485e-06
2.75589e-07
2.96869e-05
1.74779e-06
6.68235e-05
4.81464e-06
0.000110538
9.82876e-06
0.00015723
1.70342e-05
0.000204285
2.66009e-05
0.000249865
3.86545e-05
0.00029273
5.3298e-05
0.000332099
7.0625e-05
0.000367536
9.07245e-05
0.00039885
0.00011368
0.000426021
0.000139565
0.000449143
0.000168438
0.000468377
0.000200339
0.000483931
0.000235282
0.000496034
0.000273262
0.000504933
0.000314246
0.000510884
0.000358184
0.00051416
0.000405004
0.000515058
0.000454618
0.000513917
0.000506921
0.000511174
0.000561771
0.000507454
0.000618955
0.000503762
0.000501953
0.000678083
1.16642e-09
3.97368e-06
6.89712e-07
2.89983e-05
2.72592e-06
6.47872e-05
6.63394e-06
0.00010663
1.27889e-05
0.000151075
2.14474e-05
0.000195626
3.27807e-05
0.000238532
4.69046e-05
0.000278606
6.39036e-05
0.0003151
8.38471e-05
0.000347593
0.000106798
0.000375899
0.000132816
0.000400004
0.000161955
0.000420003
0.000194263
0.000436069
0.000229777
0.000448417
0.000268521
0.000457291
0.000310504
0.00046295
0.000355719
0.000465669
0.000404144
0.000465735
0.000455739
0.000463463
0.00051044
0.000459215
0.000568158
0.000453456
0.000628747
0.000446865
0.000691947
0.000440562
0.000436633
0.000757266
-1.61415e-08
3.98982e-06
7.12978e-07
2.82692e-05
2.92092e-06
6.25793e-05
7.18931e-06
0.000102362
1.39362e-05
0.000144328
2.34463e-05
0.000186116
3.5905e-05
0.000226073
5.14296e-05
0.000263081
7.00959e-05
0.000296434
9.19573e-05
0.000325731
0.000117057
0.000350799
0.000145436
0.000371625
0.000177132
0.000388307
0.000212185
0.000401016
0.000250632
0.00040997
0.000292507
0.000415416
0.000337841
0.000417616
0.000386658
0.000416852
0.000438976
0.000413417
0.0004948
0.000407639
0.000554114
0.000399901
0.000616865
0.000390705
0.000682921
0.00038081
0.000751988
0.000371495
0.000365174
0.000823447
-1.4336e-07
4.13318e-06
3.65076e-07
2.77608e-05
2.37179e-06
6.05726e-05
6.54091e-06
9.81928e-05
1.33506e-05
0.000137518
2.3127e-05
0.00017634
3.60806e-05
0.000213119
5.234e-05
0.000246822
7.19812e-05
0.000276793
9.50497e-05
0.000302663
0.000121576
0.000324273
0.000151588
0.000341614
0.000185112
0.000354783
0.000222182
0.000363946
0.000262838
0.000369314
0.000307127
0.000371126
0.000355106
0.000369638
0.000406838
0.00036512
0.000462393
0.000357863
0.000521839
0.000348193
0.000585232
0.000336508
0.000652585
0.000323352
0.000723813
0.000309582
0.000798607
0.000296701
0.000287578
0.000876203
-3.69784e-07
4.50297e-06
-3.15964e-07
2.77069e-05
1.15573e-06
5.91009e-05
4.8128e-06
9.45357e-05
1.12075e-05
0.000131123
2.07175e-05
0.00016683
3.35875e-05
0.00020025
4.99658e-05
0.000230444
6.99369e-05
0.000256822
9.35463e-05
0.000279054
0.000120819
0.000297
0.000151775
0.000310658
0.000186436
0.000320122
0.000224833
0.000325549
0.000267013
0.000327135
0.000313038
0.000325101
0.000362995
0.00031968
0.000416993
0.000311122
0.000475164
0.000299692
0.000537657
0.0002857
0.000604621
0.000269543
0.000676173
0.000251801
0.000752311
0.000233444
0.000832745
0.000216266
0.000203763
0.00091656
-6.79303e-07
5.18227e-06
-1.27342e-06
2.8301e-05
-6.11556e-07
5.8439e-05
2.19337e-06
9.17308e-05
7.77803e-06
0.000125539
1.65799e-05
0.000158028
2.88846e-05
0.000187945
4.4868e-05
0.00021446
6.46307e-05
0.000237059
8.82263e-05
0.000255458
0.000115683
0.000269543
0.000147021
0.00027932
0.000182262
0.000284881
0.000221441
0.000286369
0.000264615
0.000283961
0.000311868
0.000277848
0.000363317
0.000268231
0.000419119
0.000255319
0.000479475
0.000239336
0.000544622
0.000220553
0.000614824
0.000199341
0.000690323
0.000176302
0.00077124
0.000152527
0.000857349
0.000130158
0.000113525
0.000947586
-1.05029e-06
6.23256e-06
-2.43213e-06
2.96829e-05
-2.77699e-06
5.87839e-05
-1.06691e-06
9.00207e-05
3.42663e-06
0.000121045
1.12067e-05
0.000150248
2.26067e-05
0.000176545
3.78369e-05
0.00019923
5.7023e-05
0.000217873
8.02364e-05
0.000232245
0.000107518
0.000242261
0.000138899
0.00024794
0.00017441
0.00024937
0.000214099
0.00024668
0.00025804
0.00024002
0.00030634
0.000229548
0.000359149
0.000215422
0.000416672
0.000197796
0.000479171
0.000176838
0.000546967
0.000152756
0.000620433
0.000125876
0.00069994
9.67945e-05
0.000785754
6.67134e-05
0.000877747
3.81651e-05
1.65283e-05
0.000974744
-1.45587e-06
7.68843e-06
-3.70008e-06
3.19271e-05
-5.15389e-06
6.02377e-05
-4.66203e-06
8.95288e-05
-1.39934e-06
0.000117782
5.20816e-06
0.00014364
1.5548e-05
0.000166205
2.98737e-05
0.000184904
4.8346e-05
0.000199401
7.10664e-05
0.000209524
9.81023e-05
0.000215225
0.000129508
0.000216535
0.000165338
0.000213539
0.000205666
0.000206352
0.000250588
0.000195097
0.000300241
0.000179895
0.000354807
0.000160856
0.000414526
0.000138078
0.000479703
0.000111661
0.000550715
8.17439e-05
0.000628003
4.85876e-05
0.000712036
1.27612e-05
0.000803201
-2.44516e-05
0.000901493
-6.01267e-05
-8.7663e-05
0.00100568
-1.86482e-06
9.55325e-06
-4.97185e-06
3.50341e-05
-7.52942e-06
6.27953e-05
-8.24314e-06
9.02426e-05
-6.18816e-06
0.000115727
-7.14432e-07
0.000138167
8.62759e-06
0.000156863
2.21449e-05
0.000171387
4.00467e-05
0.000181499
6.24794e-05
0.000187091
8.95533e-05
0.000188151
0.000121363
0.000184725
0.000158006
0.000176897
0.00019959
0.000164768
0.000246249
0.000148438
0.00029815
0.000127995
0.000355499
0.000103507
0.000418551
7.50257e-05
0.000487617
4.25948e-05
0.000563071
6.29005e-06
0.000645349
-3.36909e-05
0.000734932
-7.68215e-05
0.000832255
-0.000121774
0.000937421
-0.000165293
-0.000199486
0.00104924
-2.24329e-06
1.17965e-05
-6.13451e-06
3.89253e-05
-9.67647e-06
6.63372e-05
-1.14382e-05
9.20043e-05
-1.03931e-05
0.000114682
-5.80943e-06
0.000133583
2.83389e-06
0.00014822
1.591e-05
0.000158311
3.36918e-05
0.000163717
5.63883e-05
0.000164395
8.41712e-05
0.000160368
0.000117195
0.000151701
0.000155613
0.000138479
0.000199584
0.000120797
0.000249285
9.87373e-05
0.000304909
7.23708e-05
0.000366671
4.17453e-05
0.000434807
6.88893e-06
0.00050958
-3.21782e-05
0.000591279
-7.54088e-05
0.000680229
-0.000122641
0.000776793
-0.000173385
0.00088133
-0.000226312
0.000993993
-0.000277955
-0.000319241
0.00111375
-2.55732e-06
1.43539e-05
-7.07567e-06
4.34437e-05
-1.13696e-05
7.06312e-05
-1.38779e-05
9.45125e-05
-1.34713e-05
0.000114276
-9.3295e-06
0.000129441
-8.49538e-07
0.00013974
1.24218e-05
0.00014504
3.08374e-05
0.000145301
5.46859e-05
0.000140546
8.42175e-05
0.000130836
0.000119662
0.000116256
0.00016124
9.69014e-05
0.000209168
7.28682e-05
0.000263661
4.42447e-05
0.000324925
1.11066e-05
0.000393155
-2.64851e-05
0.000468525
-6.84808e-05
0.000551179
-0.000114832
0.000641231
-0.000165461
0.000738775
-0.000220185
0.000843911
-0.00027852
0.000956769
-0.00033917
0.00107744
-0.000398626
-0.000446944
0.00120514
-2.77591e-06
1.71298e-05
-7.69302e-06
4.83608e-05
-1.24038e-05
7.5342e-05
-1.52261e-05
9.73348e-05
-1.4928e-05
0.000113978
-1.05946e-05
0.000125108
-1.53001e-06
0.000130675
1.28119e-05
0.000130698
3.28777e-05
0.000125236
5.9049e-05
0.000114375
9.16654e-05
9.82199e-05
0.000131038
7.68832e-05
0.000177457
5.0483e-05
0.000231186
1.91389e-05
0.000292461
-1.70304e-05
0.000361474
-5.79063e-05
0.000438357
-0.000103368
0.000523166
-0.000153289
0.000615859
-0.000207525
0.000716292
-0.000265893
0.000824223
-0.000328116
0.00093936
-0.000393657
0.00106145
-0.000461259
0.00119037
-0.000527548
-0.000582191
0.00132562
-2.8742e-06
2.0004e-05
-7.90404e-06
5.33906e-05
-1.26126e-05
8.00506e-05
-1.52095e-05
9.99316e-05
-1.43615e-05
0.00011313
-9.05387e-06
0.0001198
1.51006e-06
0.000120111
1.79788e-05
0.000114229
4.09006e-05
0.000102314
7.07549e-05
8.45209e-05
0.00010797
6.10043e-05
0.000152933
3.19205e-05
0.000205985
-2.56861e-06
0.000267415
-4.22909e-05
0.000337444
-8.70598e-05
0.000416206
-0.000136668
0.00050372
-0.000190883
0.000599867
-0.000249437
0.000704364
-0.000312022
0.000816744
-0.000378274
0.000936368
-0.00044774
0.00106247
-0.000519761
0.0011943
-0.000593086
0.00133133
-0.000664582
-0.000724072
0.00147321
-2.83619e-06
2.28402e-05
-7.65411e-06
5.82086e-05
-1.18843e-05
8.42807e-05
-1.36426e-05
0.00010169
-1.14988e-05
0.000110986
-4.33619e-06
0.000112638
8.74622e-06
0.000107029
2.85016e-05
9.44737e-05
5.55789e-05
7.52365e-05
9.05483e-05
4.95515e-05
0.000133913
1.76395e-05
0.00018611
-2.02766e-05
0.000247502
-6.396e-05
0.000318359
-0.000113148
0.000398841
-0.000167542
0.000488969
-0.000226796
0.000588599
-0.000290512
0.000697388
-0.000358226
0.000814773
-0.000429407
0.000939944
-0.000503444
0.00107184
-0.000579637
0.00120921
-0.000657129
0.00135074
-0.00073462
0.00149537
-0.000809212
-0.000871362
0.00164266
-2.65638e-06
2.54966e-05
-6.92127e-06
6.24734e-05
-1.01702e-05
8.75296e-05
-1.04422e-05
0.000101962
-6.21638e-06
0.00010676
3.72233e-06
0.000102699
2.03763e-05
9.03747e-05
4.45969e-05
7.02531e-05
7.71209e-05
4.27126e-05
0.000118589
8.08372e-06
0.000169548
-3.33199e-05
0.000230447
-8.11761e-05
0.000301621
-0.000135133
0.000383266
-0.000194794
0.000475425
-0.0002597
0.000577951
-0.000329323
0.000690492
-0.000403054
0.000812463
-0.000480198
0.000943023
-0.000559967
0.00108105
-0.000641472
0.00122513
-0.000723714
0.00137354
-0.000805543
0.00152439
-0.000885471
0.00167592
-0.000960741
-0.00102301
0.00182757
-2.33989e-06
2.78364e-05
-5.71667e-06
6.58502e-05
-7.48589e-06
8.92988e-05
-5.62761e-06
0.000100104
1.45901e-06
9.96736e-05
1.50788e-05
8.9079e-05
3.63245e-05
6.91291e-05
6.61284e-05
4.04492e-05
0.000105291
3.55039e-06
0.000154487
-4.11131e-05
0.000214267
-9.30993e-05
0.000285035
-0.000151944
0.000367035
-0.000217134
0.000460328
-0.000288087
0.000564772
-0.000364143
0.000680002
-0.000444553
0.000805424
-0.000528476
0.000940213
-0.000614986
0.00108331
-0.000703067
0.00123345
-0.000791611
0.00138914
-0.000879402
0.00154864
-0.000965047
0.00170982
-0.00104665
0.00186936
-0.00112028
-0.00117398
0.00202034
-1.90149e-06
2.97379e-05
-4.08097e-06
6.80297e-05
-3.90375e-06
8.91216e-05
6.91025e-07
9.5509e-05
1.13699e-05
8.89947e-05
2.95125e-05
7.09364e-05
5.62821e-05
4.23595e-05
9.26657e-05
4.06561e-06
0.00013949
-4.3274e-05
0.000197421
-9.90438e-05
0.000266949
-0.000162628
0.000348372
-0.000233367
0.000441772
-0.000310534
0.000546997
-0.000393312
0.000663648
-0.000480794
0.000791077
-0.000571982
0.000928402
-0.000665801
0.00107453
-0.000761115
0.00122821
-0.000856751
0.00138813
-0.000951526
0.001553
-0.00104428
0.00172184
-0.00113388
0.0018944
-0.0012192
0.0020728
-0.00129869
-0.00136625
0.00226507
-1.3609e-06
3.10988e-05
-2.07282e-06
6.87416e-05
4.66726e-07
8.65821e-05
8.34201e-06
8.76337e-05
2.32679e-05
7.40688e-05
4.66782e-05
4.75261e-05
7.97796e-05
9.25814e-06
0.000123577
-3.97321e-05
0.000178879
-9.85754e-05
0.000246282
-0.000166447
0.000326153
-0.000242499
0.000418607
-0.000325821
0.000523485
-0.000415411
0.000640341
-0.000510168
0.000768445
-0.000608898
0.000906794
-0.000710332
0.00105415
-0.000813156
0.00120908
-0.000916045
0.00137003
-0.00101771
0.00153543
-0.00111692
0.00170376
-0.00121261
0.00187372
-0.00130384
0.00204443
-0.00138991
0.0022158
-0.00147006
-0.00153886
0.00238842
-7.41836e-07
3.18407e-05
2.37362e-07
6.77624e-05
5.49355e-06
8.13259e-05
1.71181e-05
7.60091e-05
3.68544e-05
5.43325e-05
6.61644e-05
1.82161e-05
0.000106264
-3.08414e-05
0.000158132
-9.16003e-05
0.000222501
-0.000162945
0.000299835
-0.00024378
0.000390302
-0.000332966
0.000493754
-0.000429273
0.000609709
-0.000531366
0.000737353
-0.000637812
0.000875558
-0.000747103
0.00102292
-0.000857691
0.0011778
-0.000968035
0.00133841
-0.00107666
0.00150289
-0.00118219
0.00166939
-0.00128343
0.00183615
-0.00137937
0.00200158
-0.00146927
0.0021643
-0.00155263
0.00232318
-0.00162894
-0.00169366
0.00247797
-6.63923e-08
3.19071e-05
2.7816e-06
6.49144e-05
1.10467e-05
7.30608e-05
2.68124e-05
6.02434e-05
5.18285e-05
2.93164e-05
8.75544e-05
-1.75098e-05
0.000135174
-7.84611e-05
0.000195588
-0.000152014
0.000269389
-0.000236746
0.000356834
-0.000331225
0.000457812
-0.000433944
0.000571829
-0.00054329
0.000698008
-0.000657545
0.000835104
-0.000774908
0.000981549
-0.000893548
0.00113551
-0.00101166
0.00129499
-0.00112751
0.00145788
-0.00123954
0.00162208
-0.00134639
0.00178559
-0.00144694
0.00194656
-0.00154034
0.00210337
-0.00162608
0.0022546
-0.00170386
0.00239915
-0.00177349
-0.00183163
0.00253712
6.47596e-07
3.12595e-05
5.50292e-06
6.00591e-05
1.70142e-05
6.15496e-05
3.72431e-05
4.00145e-05
6.79213e-05
-1.36183e-06
0.00011047
-6.00584e-05
0.000165993
-0.000133984
0.00023525
-0.000221272
0.000318624
-0.00032012
0.000416081
-0.000428682
0.00052715
-0.000545013
0.000650915
-0.000667056
0.000786039
-0.000792669
0.000930809
-0.000919678
0.00108321
-0.00104595
0.00124103
-0.00116947
0.00140194
-0.00128842
0.00156365
-0.00140125
0.00172396
-0.0015067
0.00188089
-0.00160386
0.00203271
-0.00169217
0.002178
-0.00177136
0.00231563
-0.0018415
0.00244485
-0.0019027
-0.00195281
0.00256603
1.38852e-06
2.98709e-05
8.36125e-06
5.30864e-05
2.33133e-05
4.65976e-05
4.82697e-05
1.50581e-05
8.49159e-05
-3.80081e-05
0.000134593
-0.000109735
0.000198267
-0.000197658
0.000276489
-0.000299494
0.000369348
-0.000412979
0.000476437
-0.000535771
0.000596842
-0.000665418
0.00072916
-0.000799375
0.000871556
-0.000935064
0.00102184
-0.00106997
0.00117761
-0.00120171
0.00133631
-0.00132818
0.00149546
-0.00144757
0.0016527
-0.00155849
0.00180591
-0.00165992
0.00195332
-0.00175127
0.0020935
-0.00183235
0.00222542
-0.00190328
0.00234839
-0.00196447
0.00246212
-0.00201643
-0.002058
0.00256731
2.15158e-06
2.77194e-05
1.13352e-05
4.39028e-05
2.98929e-05
2.80398e-05
5.97956e-05
-1.48446e-05
0.000102649
-8.08616e-05
0.000159663
-0.00016675
0.000231603
-0.000269597
0.000318727
-0.000386618
0.000420746
-0.000514997
0.000536793
-0.000651818
0.000665443
-0.000794068
0.000804762
-0.000938694
0.000952413
-0.00108271
0.00110578
-0.00122333
0.00126212
-0.00135805
0.00141873
-0.00148479
0.00157307
-0.00160192
0.00172292
-0.00170833
0.00186641
-0.00180341
0.00200213
-0.00188699
0.00212908
-0.0019593
0.00224671
-0.0020209
0.00235482
-0.00207258
0.00245359
-0.00211519
-0.00214836
0.00254395
2.93797e-06
2.47814e-05
1.442e-05
3.24207e-05
3.67299e-05
5.72992e-06
7.17612e-05
-4.98758e-05
0.000120999
-0.000130099
0.000185462
-0.000231213
0.000265636
-0.000349771
0.000361402
-0.000482384
0.000472002
-0.000625597
0.000596035
-0.000775852
0.000731513
-0.000929545
0.000875964
-0.00108315
0.00102659
-0.00123334
0.00118042
-0.00137717
0.00133454
-0.00151217
0.00148622
-0.00163647
0.00163308
-0.00174878
0.00177317
-0.00184842
0.00190503
-0.00193527
0.00202771
-0.00200966
0.00214072
-0.00207231
0.00224398
-0.00212417
0.00233778
-0.00216638
0.00242267
-0.00220008
-0.00222548
0.00249979
3.75312e-06
2.10283e-05
1.76221e-05
1.85517e-05
4.38187e-05
-2.04666e-05
8.41271e-05
-9.01843e-05
0.00013986
-0.000185832
0.000211776
-0.000303129
0.000299994
-0.000437988
0.000403927
-0.000586318
0.000522266
-0.000743936
0.000653017
-0.000906603
0.000793614
-0.00107014
0.00094108
-0.00123061
0.00109224
-0.00138449
0.00124392
-0.00152885
0.00139318
-0.00166143
0.00153745
-0.00178074
0.00167466
-0.00188598
0.00180328
-0.00197704
0.00192235
-0.00205435
0.00203144
-0.00211875
0.00213056
-0.00217142
0.00222008
-0.00221369
0.00230064
-0.00224695
0.00237311
-0.00227254
-0.00229106
0.00243869
4.60441e-06
1.64239e-05
2.09527e-05
2.20344e-06
5.1159e-05
-5.06729e-05
9.68557e-05
-0.000135881
0.000159121
-0.000248097
0.00023837
-0.000382378
0.000334265
-0.000533884
0.000445663
-0.000697716
0.000570635
-0.000868909
0.00070657
-0.00104254
0.000850346
-0.00121392
0.000998565
-0.00137883
0.00114781
-0.00153374
0.00129486
-0.00167591
0.00143694
-0.00180351
0.0015718
-0.00191559
0.0016978
-0.00201199
0.00181395
-0.00209319
0.00191982
-0.00216021
0.00201547
-0.0022144
0.00210135
-0.00225731
0.00217821
-0.00229055
0.00224695
-0.00231569
0.00230859
-0.00233418
-0.00234685
0.00236438
5.49892e-06
1.09249e-05
2.4421e-05
-1.67187e-05
5.87438e-05
-8.49956e-05
0.000109893
-0.00018703
0.000178637
-0.000316841
0.00026496
-0.000468702
0.000367975
-0.000636898
0.000485905
-0.000815646
0.000616163
-0.000999167
0.000755531
-0.0011819
0.000900406
-0.00135879
0.0010471
-0.00152552
0.0011921
-0.00167874
0.00133235
-0.00181616
0.00146537
-0.00193653
0.00158938
-0.0020396
0.00170328
-0.00212589
0.00180662
-0.00219653
0.00189948
-0.00225307
0.00198237
-0.0022973
0.0020561
-0.00233104
0.00212165
-0.0023561
0.0021801
-0.00237414
0.00223252
-0.00238661
-0.00239443
0.00228011
6.44154e-06
4.48341e-06
2.80287e-05
-3.83059e-05
6.65496e-05
-0.000123516
0.000123156
-0.000243636
0.000198221
-0.000391906
0.000291205
-0.000561686
0.000400585
-0.000746279
0.000523899
-0.000938959
0.000657896
-0.00113316
0.000798808
-0.00132282
0.000942668
-0.00150265
0.00108565
-0.0016685
0.00122435
-0.00181744
0.00135602
-0.00194782
0.00147863
-0.00205915
0.00159095
-0.00215192
0.00169245
-0.00222739
0.0017832
-0.00228728
0.00186373
-0.00233361
0.00193491
-0.00236848
0.00199779
-0.00239392
0.0020535
-0.0024118
0.00210315
-0.0024238
0.00214783
-0.00243129
-0.0024352
0.00218861
7.43379e-06
-2.95038e-06
3.17664e-05
-6.26385e-05
7.45302e-05
-0.00016628
0.000136523
-0.000305629
0.000217632
-0.000473015
0.000316702
-0.000660756
0.000431508
-0.000861085
0.000558873
-0.00106632
0.000694923
-0.00126921
0.000835442
-0.00146333
0.000976252
-0.00164346
0.00111357
-0.00180582
0.00124427
-0.00194815
0.00136605
-0.0020696
0.00147744
-0.00217054
0.00157778
-0.00225226
0.00166708
-0.00231669
0.00174588
-0.00236608
0.00181508
-0.00240281
0.00187578
-0.00242918
0.00192918
-0.00244731
0.00197645
-0.00245908
0.0020187
-0.00246605
0.00205692
-0.00246951
-0.00247033
0.00209205
8.47329e-06
-1.14237e-05
3.56122e-05
-8.97775e-05
8.26152e-05
-0.000213283
0.000149838
-0.000372852
0.000236587
-0.000559765
0.00034101
-0.000765178
0.000460132
-0.000980207
0.000590079
-0.00119627
0.000726434
-0.00140557
0.000864671
-0.00160157
0.00100057
-0.00177937
0.00113059
-0.00193583
0.001252
-0.00206956
0.00136307
-0.00218066
0.00146291
-0.00227038
0.00155143
-0.00234078
0.00162913
-0.00239439
0.00169691
-0.00243386
0.00175593
-0.00246183
0.00180744
-0.00248069
0.00185269
-0.00249255
0.00189281
-0.0024992
0.00192885
-0.00250209
0.00196168
-0.00250234
-0.00250074
0.00199209
9.55376e-06
-2.09774e-05
3.95319e-05
-0.000119756
9.07113e-05
-0.000264463
0.000162911
-0.000445051
0.000254766
-0.00065162
0.000363661
-0.000874073
0.00048586
-0.00110241
0.000616844
-0.00132725
0.00075177
-0.0015405
0.000885971
-0.00173577
0.00101537
-0.00190877
0.0011368
-0.00205726
0.00124808
-0.00218085
0.00134806
-0.00228064
0.00143645
-0.00235877
0.00151367
-0.002418
0.00158061
-0.00246132
0.00163845
-0.0024917
0.0016885
-0.00251188
0.00173205
-0.00252425
0.00177034
-0.00253084
0.00180443
-0.00253329
0.00183524
-0.0025329
0.00186354
-0.00253063
-0.00252715
0.00188995
1.06655e-05
-3.16429e-05
4.34804e-05
-0.000152571
9.87061e-05
-0.000319688
0.000175529
-0.000521874
0.000271832
-0.000747924
0.000384194
-0.000986435
0.000508142
-0.00122635
0.000638602
-0.00145771
0.000770459
-0.00167235
0.000899079
-0.00186439
0.0010207
-0.00203039
0.00113264
-0.0021692
0.00123334
-0.00228155
0.00132225
-0.00236955
0.00139962
-0.00243614
0.00146629
-0.00248467
0.00152346
-0.00251849
0.00157247
-0.00254071
0.00161469
-0.0025541
0.00165142
-0.00256097
0.00168379
-0.00256321
0.00171276
-0.00256227
0.00173914
-0.00255928
0.00176355
-0.00255505
-0.00255011
0.00178651
1.17957e-05
-4.34386e-05
4.74041e-05
-0.000188179
0.000106474
-0.000378758
0.000187466
-0.000602866
0.000287447
-0.000847904
0.000402179
-0.00110117
0.000526506
-0.00135068
0.000654932
-0.00158614
0.000782235
-0.00179966
0.000903987
-0.00198614
0.00101687
-0.00214327
0.0011188
-0.00227113
0.00120884
-0.00237158
0.001287
-0.00244771
0.001354
-0.00250315
0.00141102
-0.00254169
0.00145943
-0.0025669
0.00150069
-0.00258197
0.00153614
-0.00258955
0.001567
-0.00259184
0.00159431
-0.00259051
0.00161891
-0.00258686
0.00164146
-0.00258183
0.00166249
-0.00257608
-0.00257001
0.0016824
1.29297e-05
-5.63682e-05
5.12433e-05
-0.000226493
0.00011388
-0.000441395
0.000198495
-0.000687481
0.000301291
-0.0009507
0.000417235
-0.00121711
0.000540587
-0.00147403
0.000665573
-0.00171113
0.00078704
-0.00192112
0.000900919
-0.00210002
0.00100445
-0.0022468
0.00109616
-0.00236284
0.00117573
-0.00245116
0.00124368
-0.00251566
0.00130111
-0.00256057
0.00134941
-0.00258999
0.00139007
-0.00260757
0.00142456
-0.00261645
0.00145415
-0.00261915
0.00147996
-0.00261765
0.0015029
-0.00261345
0.00152369
-0.00260766
0.00154289
-0.00260103
0.0015609
-0.00259409
-0.00258714
0.00157803
1.40508e-05
-7.04191e-05
5.49348e-05
-0.000267377
0.000120791
-0.000507251
0.000208397
-0.000775087
0.000313077
-0.00105538
0.000429058
-0.00133309
0.000550134
-0.00159511
0.000670425
-0.00183142
0.000785006
-0.00203571
0.000890293
-0.00220531
0.000984139
-0.00234065
0.00106571
-0.00244442
0.00113524
-0.00252068
0.00119366
-0.00257408
0.00124235
-0.00260926
0.00128286
-0.00263049
0.0013167
-0.00264141
0.00134527
-0.00264502
0.00136977
-0.00264365
0.00139118
-0.00263907
0.0014103
-0.00263257
0.00142772
-0.00262507
0.00144389
-0.0026172
0.00145914
-0.00260934
-0.00260169
0.00147369
1.51417e-05
-8.55608e-05
5.84142e-05
-0.000310649
0.000127073
-0.000575909
0.000216971
-0.000864985
0.000322563
-0.00116097
0.000437422
-0.00144795
0.000555023
-0.00171271
0.000669543
-0.00194594
0.00077643
-0.00214259
0.000872674
-0.00230155
0.000956772
-0.00242475
0.00102849
-0.00251614
0.00108853
-0.00258072
0.00113818
-0.00262372
0.00117898
-0.00265007
0.00121256
-0.00266406
0.00124039
-0.00266924
0.00126378
-0.00266841
0.00128382
-0.00266368
0.00130136
-0.00265661
0.00131706
-0.00264827
0.00133142
-0.00263944
0.00134481
-0.00263058
0.00135747
-0.002622
-0.0026138
0.00136958
1.61844e-05
-0.000101745
6.16183e-05
-0.000356083
0.000132604
-0.000646895
0.000224043
-0.000956423
0.000329563
-0.00126649
0.000442192
-0.00156058
0.000555248
-0.00182577
0.000663117
-0.00205381
0.000761738
-0.00224121
0.00084873
-0.00238854
0.000923221
-0.00249924
0.000985521
-0.00257844
0.00103673
-0.00263193
0.00107836
-0.00266536
0.00111209
-0.0026838
0.0011395
-0.00269148
0.00116203
-0.00269177
0.00118085
-0.00268723
0.00119692
-0.00267976
0.00121098
-0.00267066
0.00122358
-0.00266087
0.00123512
-0.00265097
0.00124588
-0.00264135
0.00125607
-0.00263219
-0.00262354
0.00126582
1.7161e-05
-0.000118906
6.44873e-05
-0.000403409
0.000137276
-0.000719684
0.000229472
-0.00104862
0.000333948
-0.00137097
0.000443323
-0.00166996
0.000550911
-0.00193335
0.00065145
-0.00215434
0.000741451
-0.00233122
0.000819181
-0.00246627
0.000884365
-0.00256442
0.000937779
-0.00263185
0.00098083
-0.00267498
0.0010152
-0.00269973
0.00104258
-0.00271118
0.00106452
-0.00271341
0.00108232
-0.00270958
0.00109706
-0.00270198
0.00110956
-0.00269225
0.00112044
-0.00268154
0.00113015
-0.00267058
0.00113902
-0.00265984
0.00114728
-0.0026496
0.00115508
-0.00263999
-0.00263098
0.00116251
1.80542e-05
-0.00013696
6.69664e-05
-0.000452321
0.000140994
-0.000793711
0.000233152
-0.00114078
0.000335652
-0.00147347
0.000440852
-0.00177516
0.00054221
-0.00203471
0.00063493
-0.00224706
0.000716149
-0.00241244
0.000784769
-0.00253489
0.000841055
-0.00262071
0.000886169
-0.00267697
0.000921742
-0.00271055
0.000949536
-0.00272752
0.000971221
-0.00273286
0.000988254
-0.00273045
0.00100183
-0.00272315
0.00101287
-0.00271302
0.00102209
-0.00270148
0.00103001
-0.00268946
0.00103699
-0.00267756
0.0010433
-0.00266615
0.00104912
-0.00265542
0.00105457
-0.00264543
-0.00263612
0.00105971
1.88479e-05
-0.000155808
6.90074e-05
-0.000502481
0.000143685
-0.000868389
0.000235016
-0.00123211
0.00033467
-0.00157312
0.000434888
-0.00187537
0.000529416
-0.00212924
0.000614005
-0.00233165
0.000686439
-0.00248487
0.000746222
-0.00259467
0.000794087
-0.00266857
0.000831501