/*--------------------------------*- C++ -*----------------------------------*\
  =========                 |
  \\      /  F ield         | OpenFOAM: The Open Source CFD Toolbox
   \\    /   O peration     | Website:  https://openfoam.org
    \\  /    A nd           | Version:  6.0
     \\/     M anipulation  |
\*---------------------------------------------------------------------------*/
FoamFile
{
    version     2.0;
    format      ascii;
    class       volScalarField;
    location    "23";
    object      p;
}
// * * * * * * * * * * * * * * * * * * * * * * * * * * * * * * * * * * * * * //

dimensions      [0 2 -2 0 0 0 0];

internalField   nonuniform List<scalar> 
12500
(
-0.259134
-0.259931
-0.26048
-0.260898
-0.261256
-0.261561
-0.261823
-0.262053
-0.262257
-0.262442
-0.262611
-0.262768
-0.262916
-0.263059
-0.263198
-0.263337
-0.263477
-0.263622
-0.263774
-0.263935
-0.264113
-0.264309
-0.26447
-0.264565
-0.26514
-0.259196
-0.259992
-0.26054
-0.260957
-0.261312
-0.261615
-0.261874
-0.262101
-0.262302
-0.262483
-0.262648
-0.262801
-0.262945
-0.263084
-0.263219
-0.263353
-0.263488
-0.263629
-0.263775
-0.263932
-0.264106
-0.264298
-0.264455
-0.264546
-0.265118
-0.259328
-0.260122
-0.260668
-0.26108
-0.261431
-0.261729
-0.261982
-0.262202
-0.262396
-0.26257
-0.262728
-0.262873
-0.263009
-0.263139
-0.263265
-0.263389
-0.263516
-0.263647
-0.263785
-0.263932
-0.264098
-0.264283
-0.264432
-0.264515
-0.265083
-0.259531
-0.260322
-0.260863
-0.261269
-0.261613
-0.261903
-0.262148
-0.262358
-0.262541
-0.262704
-0.26285
-0.262983
-0.263106
-0.263223
-0.263335
-0.263446
-0.263558
-0.263675
-0.263799
-0.263934
-0.264087
-0.26426
-0.264399
-0.264469
-0.265031
-0.259805
-0.26059
-0.261125
-0.261524
-0.261859
-0.262137
-0.26237
-0.262567
-0.262736
-0.262883
-0.263013
-0.26313
-0.263235
-0.263334
-0.263427
-0.263519
-0.263612
-0.26371
-0.263815
-0.263931
-0.264066
-0.264224
-0.264348
-0.264401
-0.264956
-0.26015
-0.260929
-0.261456
-0.261846
-0.262168
-0.262432
-0.262649
-0.262829
-0.26298
-0.263108
-0.263217
-0.263312
-0.263395
-0.26347
-0.263539
-0.263606
-0.263674
-0.263747
-0.263826
-0.263918
-0.264031
-0.264168
-0.264273
-0.264304
-0.264849
-0.260566
-0.261339
-0.261856
-0.262234
-0.262541
-0.262788
-0.262986
-0.263145
-0.263273
-0.263377
-0.263461
-0.263529
-0.263584
-0.263629
-0.263668
-0.263704
-0.26374
-0.26378
-0.263829
-0.263889
-0.263973
-0.264084
-0.264165
-0.26417
-0.264703
-0.261056
-0.26182
-0.262327
-0.262689
-0.262979
-0.263206
-0.26338
-0.263514
-0.263616
-0.263691
-0.263744
-0.26378
-0.263801
-0.263811
-0.263813
-0.26381
-0.263807
-0.263807
-0.263816
-0.263839
-0.263886
-0.263964
-0.264014
-0.263987
-0.264506
-0.26162
-0.262375
-0.262868
-0.263214
-0.263483
-0.263686
-0.263833
-0.263938
-0.264008
-0.264049
-0.264067
-0.264065
-0.264046
-0.264014
-0.263971
-0.263922
-0.263872
-0.263824
-0.263784
-0.263759
-0.263762
-0.263798
-0.263811
-0.263745
-0.264247
-0.262261
-0.263005
-0.263483
-0.263809
-0.264054
-0.264229
-0.264346
-0.264417
-0.264451
-0.264454
-0.264431
-0.264385
-0.26432
-0.264238
-0.264144
-0.264041
-0.263934
-0.263828
-0.26373
-0.263647
-0.263594
-0.263579
-0.263545
-0.263432
-0.263915
-0.262982
-0.263713
-0.264174
-0.264477
-0.264694
-0.264838
-0.26492
-0.264954
-0.264947
-0.264907
-0.264838
-0.264743
-0.264626
-0.264488
-0.264334
-0.264168
-0.263994
-0.26382
-0.263651
-0.263498
-0.263377
-0.263299
-0.263206
-0.263037
-0.263496
-0.263787
-0.264502
-0.264943
-0.265219
-0.265405
-0.265513
-0.265557
-0.265549
-0.265498
-0.265411
-0.265291
-0.265142
-0.264967
-0.264767
-0.264546
-0.264308
-0.264058
-0.263802
-0.26355
-0.263313
-0.263108
-0.262952
-0.262786
-0.262546
-0.262976
-0.264679
-0.265376
-0.265792
-0.266038
-0.266189
-0.266258
-0.266259
-0.266206
-0.266107
-0.265969
-0.265795
-0.265588
-0.265349
-0.265081
-0.264786
-0.264468
-0.264131
-0.263783
-0.263433
-0.263095
-0.262789
-0.262536
-0.262277
-0.261949
-0.26234
-0.265665
-0.266338
-0.266725
-0.266937
-0.267049
-0.267074
-0.267029
-0.266926
-0.266776
-0.266584
-0.266352
-0.266084
-0.265779
-0.265439
-0.265064
-0.264658
-0.264225
-0.263772
-0.263309
-0.262852
-0.262424
-0.262049
-0.261673
-0.261231
-0.261571
-0.266748
-0.267393
-0.267746
-0.267919
-0.267985
-0.267963
-0.267867
-0.267713
-0.267508
-0.267259
-0.266968
-0.266636
-0.266263
-0.265847
-0.265389
-0.26489
-0.264353
-0.263784
-0.263193
-0.262596
-0.262022
-0.261498
-0.260972
-0.260382
-0.260648
-0.267935
-0.268544
-0.268858
-0.268985
-0.269002
-0.268927
-0.268776
-0.268566
-0.268304
-0.267997
-0.267645
-0.267249
-0.266807
-0.266315
-0.265772
-0.265176
-0.264529
-0.263835
-0.263102
-0.262346
-0.261598
-0.260891
-0.260174
-0.259388
-0.259549
-0.269232
-0.269797
-0.270064
-0.27014
-0.270101
-0.269967
-0.269757
-0.269487
-0.269165
-0.268797
-0.268385
-0.267925
-0.267414
-0.266847
-0.26622
-0.265527
-0.264767
-0.263941
-0.263054
-0.26212
-0.261171
-0.260243
-0.259284
-0.258239
-0.258244
-0.270644
-0.271156
-0.271369
-0.271386
-0.271284
-0.271085
-0.27081
-0.270474
-0.27009
-0.269659
-0.269184
-0.268661
-0.268083
-0.267444
-0.266735
-0.265948
-0.265076
-0.264116
-0.263067
-0.261938
-0.26076
-0.25957
-0.258311
-0.256926
-0.256701
-0.272177
-0.272627
-0.272776
-0.272726
-0.272552
-0.272281
-0.271933
-0.271527
-0.271075
-0.270579
-0.270039
-0.269452
-0.26881
-0.268101
-0.267315
-0.266438
-0.265458
-0.264365
-0.263152
-0.261818
-0.260388
-0.258895
-0.257272
-0.255444
-0.254883
-0.273837
-0.274215
-0.274292
-0.274165
-0.273909
-0.273555
-0.273127
-0.272643
-0.272116
-0.27155
-0.270943
-0.270291
-0.269583
-0.268808
-0.267948
-0.266988
-0.265907
-0.264688
-0.263313
-0.261771
-0.260072
-0.258242
-0.25619
-0.2538
-0.252756
-0.275633
-0.275928
-0.27592
-0.275705
-0.275358
-0.27491
-0.274391
-0.27382
-0.273209
-0.272565
-0.271886
-0.271165
-0.270391
-0.269549
-0.26862
-0.267582
-0.26641
-0.265075
-0.26355
-0.261807
-0.259839
-0.25765
-0.255115
-0.25204
-0.250322
-0.277573
-0.277773
-0.27767
-0.277355
-0.276901
-0.276348
-0.275725
-0.275055
-0.274351
-0.27362
-0.272859
-0.272063
-0.271219
-0.27031
-0.269315
-0.268207
-0.266955
-0.265524
-0.263872
-0.261955
-0.259739
-0.257207
-0.254181
-0.250332
-0.247707
-0.279668
-0.279761
-0.279549
-0.27912
-0.278547
-0.277873
-0.277133
-0.27635
-0.27554
-0.27471
-0.273859
-0.27298
-0.27206
-0.271083
-0.270024
-0.268857
-0.267545
-0.266047
-0.264309
-0.262267
-0.25986
-0.257033
-0.253546
-0.248829
-0.244901
-0.281931
-0.281903
-0.281569
-0.281011
-0.280303
-0.279494
-0.27862
-0.277711
-0.276781
-0.27584
-0.274887
-0.273916
-0.272916
-0.27187
-0.270757
-0.269549
-0.268212
-0.266703
-0.264963
-0.262909
-0.260438
-0.257423
-0.253454
-0.247499
-0.241396
-0.284378
-0.284215
-0.283743
-0.28304
-0.282181
-0.28122
-0.280198
-0.279146
-0.278083
-0.277018
-0.275952
-0.274883
-0.273799
-0.272689
-0.271537
-0.270323
-0.269027
-0.267624
-0.26608
-0.264343
-0.262341
-0.25993
-0.256535
-0.250698
-0.2438
-0.287029
-0.286715
-0.286089
-0.285224
-0.284197
-0.283067
-0.281881
-0.280673
-0.279462
-0.278262
-0.277075
-0.2759
-0.274733
-0.273565
-0.272392
-0.271211
-0.270026
-0.268855
-0.267736
-0.266751
-0.266059
-0.265923
-0.266734
-0.27017
-0.282687
-0.289907
-0.289423
-0.288625
-0.287581
-0.286368
-0.285054
-0.28369
-0.282311
-0.280942
-0.279597
-0.278282
-0.276998
-0.275746
-0.274527
-0.273344
-0.272213
-0.27116
-0.270238
-0.269534
-0.269193
-0.269457
-0.270686
-0.273378
-0.278941
-0.292075
-0.293038
-0.292363
-0.291373
-0.290133
-0.288718
-0.287204
-0.285648
-0.284088
-0.282551
-0.281054
-0.279606
-0.278211
-0.276876
-0.275608
-0.274421
-0.273343
-0.272418
-0.271719
-0.271355
-0.271489
-0.272358
-0.274282
-0.277635
-0.283177
-0.294056
-0.296451
-0.29556
-0.294359
-0.292904
-0.291271
-0.289544
-0.287783
-0.286033
-0.284321
-0.282667
-0.281083
-0.279576
-0.278157
-0.276839
-0.275644
-0.274606
-0.27378
-0.273243
-0.273105
-0.273513
-0.274658
-0.276773
-0.280085
-0.284921
-0.293397
-0.300177
-0.299043
-0.297608
-0.295921
-0.294054
-0.292101
-0.290127
-0.288179
-0.286287
-0.284472
-0.282749
-0.281127
-0.27962
-0.278243
-0.277023
-0.275995
-0.275214
-0.274752
-0.2747
-0.275172
-0.276301
-0.278227
-0.281054
-0.284855
-0.291
-0.304246
-0.302837
-0.301147
-0.29921
-0.297096
-0.294905
-0.29271
-0.290558
-0.288481
-0.286502
-0.284636
-0.282893
-0.281286
-0.279832
-0.278557
-0.277493
-0.276686
-0.276195
-0.276087
-0.276438
-0.277325
-0.278814
-0.280931
-0.283619
-0.287709
-0.308688
-0.306972
-0.305003
-0.302799
-0.300424
-0.297987
-0.295563
-0.293202
-0.290937
-0.288788
-0.286769
-0.284892
-0.283166
-0.281607
-0.280233
-0.279072
-0.278158
-0.277532
-0.277237
-0.277315
-0.2778
-0.27871
-0.280025
-0.281634
-0.284005
-0.313532
-0.311473
-0.309201
-0.306714
-0.304067
-0.301375
-0.298717
-0.296141
-0.29368
-0.291352
-0.289168
-0.287136
-0.285261
-0.283554
-0.282027
-0.280699
-0.279591
-0.278727
-0.278132
-0.277821
-0.277801
-0.278062
-0.278568
-0.279195
-0.280187
-0.318803
-0.316364
-0.313766
-0.310982
-0.308051
-0.305096
-0.302197
-0.2994
-0.296733
-0.294211
-0.29184
-0.289621
-0.287557
-0.285649
-0.283904
-0.282331
-0.280942
-0.279748
-0.278757
-0.277974
-0.277389
-0.276983
-0.276718
-0.276477
-0.276388
-0.324521
-0.321664
-0.318719
-0.315624
-0.3124
-0.309175
-0.306026
-0.302997
-0.300109
-0.297371
-0.294781
-0.292335
-0.290028
-0.287857
-0.285821
-0.283923
-0.282168
-0.28056
-0.279101
-0.277788
-0.27661
-0.275546
-0.274568
-0.273573
-0.272639
-0.330701
-0.327391
-0.324077
-0.320658
-0.317133
-0.313629
-0.310221
-0.306945
-0.303813
-0.300826
-0.297975
-0.295248
-0.292636
-0.290128
-0.287724
-0.285421
-0.283222
-0.281131
-0.279148
-0.27727
-0.27549
-0.273794
-0.272163
-0.270511
-0.268905
-0.337351
-0.333553
-0.329853
-0.326101
-0.322265
-0.318472
-0.314791
-0.311245
-0.307838
-0.304559
-0.301392
-0.29832
-0.295328
-0.292407
-0.289553
-0.286769
-0.284059
-0.281427
-0.27888
-0.27642
-0.274043
-0.271745
-0.269515
-0.267285
-0.265122
-0.344472
-0.340153
-0.336051
-0.331957
-0.327803
-0.323709
-0.319734
-0.315888
-0.312162
-0.308536
-0.304986
-0.301493
-0.298042
-0.294626
-0.291247
-0.287912
-0.284631
-0.281418
-0.278282
-0.275231
-0.272271
-0.269401
-0.26662
-0.26387
-0.261227
-0.352054
-0.347188
-0.342671
-0.338228
-0.333745
-0.329333
-0.325036
-0.320849
-0.316749
-0.312708
-0.308698
-0.304701
-0.300706
-0.296715
-0.292739
-0.288793
-0.284898
-0.281073
-0.277335
-0.273698
-0.270171
-0.266761
-0.263466
-0.26024
-0.257163
-0.360077
-0.35464
-0.349702
-0.344904
-0.34008
-0.335327
-0.330671
-0.326089
-0.321548
-0.317011
-0.312455
-0.307865
-0.303243
-0.298602
-0.293966
-0.289362
-0.28482
-0.280366
-0.276025
-0.271812
-0.26774
-0.263816
-0.260041
-0.256372
-0.252892
-0.368509
-0.362486
-0.35712
-0.351962
-0.346782
-0.341657
-0.336594
-0.331552
-0.326488
-0.321367
-0.316172
-0.3109
-0.305571
-0.300214
-0.294867
-0.28957
-0.284362
-0.279275
-0.274337
-0.269565
-0.26497
-0.260561
-0.256335
-0.252249
-0.248388
-0.377306
-0.370687
-0.364892
-0.359367
-0.35381
-0.348273
-0.342743
-0.337163
-0.331486
-0.325684
-0.319754
-0.313716
-0.307608
-0.30148
-0.295385
-0.289374
-0.283494
-0.27778
-0.272259
-0.266948
-0.261857
-0.256988
-0.252337
-0.247858
-0.243636
-0.386406
-0.379189
-0.372969
-0.367069
-0.361107
-0.355109
-0.349038
-0.34283
-0.336441
-0.329858
-0.323103
-0.316221
-0.309275
-0.302334
-0.295467
-0.288735
-0.282188
-0.27586
-0.269778
-0.263953
-0.258391
-0.253089
-0.248038
-0.243189
-0.238627
-0.395735
-0.387927
-0.381285
-0.375
-0.368598
-0.362077
-0.355382
-0.348447
-0.341242
-0.333781
-0.326116
-0.318323
-0.310493
-0.302714
-0.295067
-0.287619
-0.280418
-0.273498
-0.266879
-0.260568
-0.254562
-0.248855
-0.243431
-0.238232
-0.233353
-0.405201
-0.396817
-0.38976
-0.383074
-0.376189
-0.369072
-0.361659
-0.353892
-0.345767
-0.337336
-0.328688
-0.319935
-0.311191
-0.302563
-0.294141
-0.285991
-0.278159
-0.270675
-0.263548
-0.25678
-0.25036
-0.244275
-0.238503
-0.232979
-0.227808
-0.414696
-0.405758
-0.398295
-0.391188
-0.383766
-0.375971
-0.36774
-0.359035
-0.349892
-0.340409
-0.33072
-0.32097
-0.3113
-0.301828
-0.292646
-0.283819
-0.275387
-0.267369
-0.259767
-0.252572
-0.245767
-0.239334
-0.233241
-0.227416
-0.22198
-0.424097
-0.414635
-0.406774
-0.399219
-0.391198
-0.382636
-0.373481
-0.363735
-0.353485
-0.342884
-0.332113
-0.321351
-0.310758
-0.300459
-0.290544
-0.281073
-0.272075
-0.263558
-0.255515
-0.247926
-0.240768
-0.234016
-0.22763
-0.22153
-0.215858
-0.433263
-0.423316
-0.415064
-0.407028
-0.39834
-0.388915
-0.378733
-0.367849
-0.356418
-0.344651
-0.332776
-0.321003
-0.309505
-0.298408
-0.287798
-0.277722
-0.268197
-0.259219
-0.25077
-0.242822
-0.235343
-0.228302
-0.221652
-0.215303
-0.209426
-0.44204
-0.431654
-0.423017
-0.414462
-0.40503
-0.394646
-0.383339
-0.371236
-0.358565
-0.345604
-0.332623
-0.319858
-0.307486
-0.295633
-0.28437
-0.273733
-0.263723
-0.254325
-0.245508
-0.237236
-0.22947
-0.222172
-0.215288
-0.208718
-0.202667
-0.450264
-0.439488
-0.430472
-0.421353
-0.411099
-0.399662
-0.387142
-0.373753
-0.359806
-0.345643
-0.331575
-0.317851
-0.304651
-0.29209
-0.280225
-0.269075
-0.258626
-0.24885
-0.239705
-0.231146
-0.223126
-0.215604
-0.208518
-0.201756
-0.195564
-0.457759
-0.446649
-0.437254
-0.427524
-0.41637
-0.403793
-0.389987
-0.375266
-0.36003
-0.344679
-0.329557
-0.314924
-0.300951
-0.287739
-0.275328
-0.263716
-0.252877
-0.242767
-0.233335
-0.224527
-0.21629
-0.208578
-0.20132
-0.194397
-0.188098
-0.46434
-0.452954
-0.443183
-0.432792
-0.420662
-0.406871
-0.391724
-0.375648
-0.35913
-0.342627
-0.326505
-0.311023
-0.296343
-0.282543
-0.269644
-0.257626
-0.246447
-0.23605
-0.226374
-0.217356
-0.20894
-0.201073
-0.193676
-0.186622
-0.180251
-0.469821
-0.458222
-0.448072
-0.43697
-0.423797
-0.408732
-0.392212
-0.374782
-0.357014
-0.339413
-0.322357
-0.306101
-0.290784
-0.276465
-0.263141
-0.250775
-0.239308
-0.228672
-0.218796
-0.209611
-0.201054
-0.193069
-0.185567
-0.178415
-0.172006
-0.474015
-0.462265
-0.451734
-0.439876
-0.425603
-0.409224
-0.391321
-0.372562
-0.353599
-0.334971
-0.317063
-0.300112
-0.284238
-0.269472
-0.25579
-0.243136
-0.231436
-0.220611
-0.210581
-0.201271
-0.192613
-0.184547
-0.176976
-0.16976
-0.163347
-0.476736
-0.464899
-0.453986
-0.44133
-0.425916
-0.408204
-0.388934
-0.368895
-0.348809
-0.329243
-0.310574
-0.29302
-0.276671
-0.261535
-0.247564
-0.234683
-0.222807
-0.211845
-0.201709
-0.192318
-0.183601
-0.175494
-0.167889
-0.160643
-0.154263
-0.477807
-0.465946
-0.45465
-0.441165
-0.424584
-0.405544
-0.384947
-0.3637
-0.342586
-0.322181
-0.302853
-0.28479
-0.268055
-0.252627
-0.238437
-0.225395
-0.213401
-0.202355
-0.192163
-0.182738
-0.174004
-0.165896
-0.158295
-0.151054
-0.144744
-0.477059
-0.465237
-0.453559
-0.439224
-0.421472
-0.401132
-0.379274
-0.356913
-0.334876
-0.313746
-0.293866
-0.275395
-0.258364
-0.242726
-0.228392
-0.215254
-0.203202
-0.192127
-0.18193
-0.172518
-0.163813
-0.155745
-0.148185
-0.140987
-0.134783
-0.474337
-0.462615
-0.450562
-0.435369
-0.416462
-0.394875
-0.371844
-0.348479
-0.325642
-0.303907
-0.28359
-0.264814
-0.24758
-0.231815
-0.217411
-0.204245
-0.192197
-0.18115
-0.171
-0.16165
-0.153019
-0.145034
-0.137557
-0.13044
-0.124378
-0.469503
-0.45794
-0.445524
-0.42948
-0.409454
-0.386696
-0.362601
-0.338359
-0.314855
-0.292644
-0.272007
-0.253033
-0.23569
-0.219883
-0.205484
-0.192359
-0.180377
-0.169417
-0.159368
-0.15013
-0.141621
-0.133764
-0.12641
-0.119412
-0.113529
-0.462436
-0.45109
-0.438328
-0.421456
-0.400371
-0.376541
-0.351508
-0.326531
-0.302499
-0.279943
-0.259107
-0.240041
-0.222686
-0.206922
-0.192605
-0.179591
-0.16774
-0.156926
-0.147034
-0.13796
-0.129621
-0.121936
-0.114747
-0.10791
-0.102244
-0.453038
-0.441964
-0.428881
-0.411222
-0.389157
-0.364373
-0.338544
-0.312981
-0.288569
-0.265803
-0.244888
-0.22584
-0.208568
-0.192932
-0.178775
-0.165941
-0.154287
-0.143679
-0.133999
-0.125142
-0.117023
-0.109558
-0.102579
-0.0959434
-0.0905303
-0.441233
-0.430485
-0.417115
-0.398723
-0.375778
-0.350174
-0.323704
-0.297713
-0.27307
-0.250231
-0.229358
-0.210433
-0.193339
-0.177916
-0.163996
-0.151415
-0.140022
-0.129681
-0.120271
-0.111685
-0.103837
-0.0966396
-0.0899156
-0.0835265
-0.0784042
-0.426971
-0.416601
-0.402985
-0.383933
-0.360222
-0.333948
-0.307
-0.280743
-0.256019
-0.233242
-0.212531
-0.193835
-0.177012
-0.161887
-0.14828
-0.136021
-0.124955
-0.114943
-0.105861
-0.0976015
-0.0900768
-0.0831966
-0.0767754
-0.0706779
-0.065884
-0.410227
-0.400284
-0.386471
-0.366845
-0.342501
-0.315716
-0.288459
-0.2621
-0.237446
-0.214863
-0.19443
-0.176065
-0.159604
-0.144859
-0.131641
-0.119774
-0.109101
-0.0994788
-0.0907835
-0.0829057
-0.0757578
-0.0692465
-0.0631782
-0.05742
-0.0529922
-0.391
-0.381532
-0.367579
-0.34748
-0.322645
-0.295518
-0.268125
-0.241827
-0.217388
-0.195128
-0.175087
-0.157151
-0.141141
-0.126855
-0.114098
-0.102692
-0.0924744
-0.083304
-0.0750541
-0.067615
-0.0608991
-0.0548102
-0.0491476
-0.0437794
-0.0397555
-0.369318
-0.36037
-0.346344
-0.325881
-0.300709
-0.273412
-0.246055
-0.219978
-0.195897
-0.174084
-0.15454
-0.137129
-0.121652
-0.107901
-0.095676
-0.0847948
-0.0750961
-0.0664369
-0.0586907
-0.0517478
-0.0455203
-0.0399101
-0.0347101
-0.029787
-0.0262074
-0.345232
-0.33685
-0.32282
-0.302115
-0.276764
-0.249471
-0.222322
-0.196621
-0.173034
-0.151784
-0.13284
-0.11604
-0.101175
-0.0880302
-0.0764017
-0.0661075
-0.0569863
-0.0488961
-0.0417108
-0.0353215
-0.0296406
-0.0245683
-0.0198929
-0.0154773
-0.0123901
-0.318821
-0.311046
-0.297089
-0.276269
-0.250902
-0.223788
-0.197012
-0.171836
-0.148871
-0.128294
-0.110043
-0.0939361
-0.0797549
-0.0672797
-0.0563071
-0.0466559
-0.0381666
-0.0306993
-0.0241296
-0.0183503
-0.0132749
-0.00880296
-0.00472103
-0.000886686
0.00165115
-0.290187
-0.283058
-0.269256
-0.248453
-0.223234
-0.196469
-0.170225
-0.145714
-0.123491
-0.103689
-0.0862158
-0.0708754
-0.0574416
-0.045693
-0.0354279
-0.0264681
-0.0186579
-0.0118611
-0.00595711
-0.000841714
0.00356986
0.00737618
0.0107871
0.013954
0.0158877
-0.259452
-0.253008
-0.239443
-0.218792
-0.193884
-0.167633
-0.142074
-0.11836
-0.0969886
-0.0780535
-0.0614356
-0.0469261
-0.0342945
-0.0233199
-0.0138042
-0.00557414
0.00152016
0.00760883
0.0128063
0.0172112
0.0209043
0.0239783
0.0266331
0.0290402
0.0303302
-0.226763
-0.221037
-0.207797
-0.187433
-0.162995
-0.137415
-0.112683
-0.0898874
-0.0694696
-0.0514841
-0.0357893
-0.0221664
-0.0103824
-0.000219074
0.00851676
0.0159914
0.0223469
0.0277048
0.03217
0.0358322
0.0387639
0.0410469
0.0428639
0.0444146
0.0449938
-0.192284
-0.187309
-0.174478
-0.154535
-0.130719
-0.105962
-0.0821893
-0.0604233
-0.0410503
-0.0240881
-0.00937551
0.00331423
0.0142147
0.0235404
0.031478
0.0381855
0.0437951
0.0484167
0.0521417
0.0550451
0.0571877
0.0586362
0.0595352
0.0600721
0.0597013
-0.156195
-0.152
-0.139663
-0.120271
-0.0972252
-0.0734289
-0.0507384
-0.0301037
-0.0118576
0.00401605
0.0176956
0.029414
0.0394044
0.047877
0.0550116
0.0609569
0.0658336
0.0697362
0.0727349
0.0748806
0.0762165
0.0767802
0.0766022
0.0757251
0.0738838
-0.118694
-0.115303
-0.103543
-0.0848272
-0.0626888
-0.0399834
-0.0184862
0.00092557
0.0179715
0.032699
0.0453015
0.0560172
0.0650787
0.0726929
0.0790342
0.0842446
0.0884349
0.0916839
0.0940363
0.0955115
0.0961251
0.0958355
0.094377
0.0914511
0.087639
-0.0799879
-0.0774239
-0.0663189
-0.0483983
-0.0272952
-0.00579894
0.0144043
0.0325111
0.0482915
0.0618213
0.0733075
0.0829924
0.0911088
0.0978624
0.103426
0.107943
0.111523
0.114245
0.116151
0.117263
0.117607
0.117053
0.114899
0.110454
0.105761
-0.0402987
-0.0385782
-0.0282022
-0.0111864
0.00876424
0.0289448
0.0477646
0.0644938
0.0789505
0.0912362
0.101569
0.110195
0.117347
0.123229
0.128016
0.131856
0.134869
0.137153
0.138785
0.139857
0.140518
0.140723
0.139607
0.13665
0.138854
0.000154375
0.00101595
0.0105934
0.0266024
0.0452947
0.0640651
0.0814228
0.0967112
0.109793
0.120793
0.129939
0.137476
0.143638
0.148627
0.152617
0.155757
0.158172
0.159969
0.161242
0.162113
0.162744
0.163117
0.162745
0.162048
0.166483
0.0411381
0.0411299
0.0498461
0.0647571
0.0820982
0.0993767
0.115206
0.129
0.140664
0.150342
0.158269
0.164691
0.169836
0.173905
0.177071
0.17948
0.18126
0.182521
0.183364
0.183914
0.184308
0.184526
0.184222
0.183879
0.187815
0.0824176
0.0815333
0.0893332
0.103066
0.118976
0.134695
0.148941
0.161197
0.171409
0.179736
0.186417
0.191697
0.1958
0.198921
0.201227
0.202863
0.203954
0.204606
0.204921
0.205015
0.205012
0.204895
0.204372
0.203837
0.206836
0.123758
0.121995
0.128832
0.141319
0.155733
0.169837
0.182458
0.193145
0.201878
0.208833
0.214248
0.218365
0.221403
0.223549
0.224966
0.225791
0.226142
0.226122
0.225825
0.225353
0.224812
0.224175
0.223176
0.222182
0.224284
0.164923
0.162284
0.168119
0.179306
0.192172
0.204623
0.21559
0.224687
0.231927
0.237495
0.241632
0.244573
0.246529
0.247682
0.248184
0.248168
0.247742
0.247003
0.246035
0.244929
0.243773
0.242529
0.24095
0.2394
0.240633
0.205681
0.202174
0.206978
0.216822
0.228105
0.238877
0.248175
0.255674
0.261415
0.265593
0.268447
0.270206
0.271074
0.271222
0.270795
0.269918
0.268691
0.267202
0.265526
0.263743
0.261928
0.260033
0.257833
0.255702
0.256103
0.245804
0.241438
0.245192
0.253665
0.263344
0.272428
0.280055
0.285959
0.290208
0.293003
0.29458
0.295161
0.29494
0.294082
0.292722
0.290975
0.288936
0.286682
0.284282
0.281807
0.279316
0.276758
0.273935
0.27122
0.270824
0.285069
0.27986
0.282553
0.289642
0.297711
0.30511
0.311078
0.315404
0.318177
0.319605
0.31992
0.319336
0.318038
0.316182
0.313894
0.311281
0.30843
0.305411
0.302286
0.299116
0.295952
0.292739
0.289304
0.286019
0.284858
0.323257
0.317226
0.318859
0.324562
0.331031
0.336763
0.341098
0.343873
0.345198
0.345286
0.344364
0.342637
0.340282
0.337444
0.334243
0.330778
0.327126
0.323353
0.319512
0.315659
0.311835
0.307986
0.303962
0.300126
0.29823
0.36016
0.353331
0.353914
0.358244
0.363136
0.367236
0.369974
0.371238
0.371154
0.369939
0.367813
0.364974
0.361589
0.357796
0.353705
0.349408
0.344976
0.340468
0.335931
0.331414
0.326952
0.322493
0.317907
0.313541
0.31094
0.395577
0.38798
0.387532
0.390516
0.393869
0.396382
0.397574
0.397376
0.395932
0.393459
0.390171
0.386259
0.381881
0.377165
0.372216
0.367116
0.361931
0.356714
0.351507
0.346353
0.34128
0.33624
0.331123
0.326252
0.322976
0.429316
0.420984
0.419534
0.421211
0.423076
0.424061
0.423769
0.42217
0.419424
0.415747
0.411348
0.40641
0.401081
0.395483
0.389713
0.383845
0.377942
0.372048
0.366202
0.360442
0.35479
0.349201
0.343583
0.338233
0.334314
0.461197
0.452167
0.449754
0.450174
0.450616
0.450143
0.448439
0.44551
0.441528
0.43671
0.431258
0.425347
0.419117
0.412684
0.406135
0.399541
0.392956
0.386423
0.379974
0.373642
0.367445
0.361343
0.355258
0.349456
0.344928
0.491048
0.481362
0.478033
0.477259
0.476353
0.474505
0.471471
0.467291
0.462149
0.456259
0.449818
0.442994
0.43592
0.428702
0.421423
0.414148
0.406926
0.399794
0.392781
0.385915
0.37921
0.372631
0.366114
0.359889
0.354788
0.518711
0.508416
0.504226
0.502331
0.500163
0.497032
0.492759
0.487417
0.481196
0.47431
0.466952
0.45928
0.451422
0.443476
0.435521
0.427614
0.419801
0.412115
0.40458
0.397221
0.390048
0.38303
0.376115
0.3695
0.363865
0.544039
0.533184
0.528196
0.525263
0.521931
0.517618
0.512207
0.505797
0.498586
0.490788
0.482588
0.474139
0.465562
0.45695
0.448374
0.43989
0.431536
0.423342
0.415331
0.407521
0.399921
0.392504
0.385228
0.378254
0.372127
0.566899
0.555536
0.549821
0.545942
0.541552
0.536167
0.529726
0.522349
0.514244
0.505621
0.49666
0.48751
0.478283
0.469069
0.459934
0.450928
0.442086
0.433435
0.424995
0.416779
0.408795
0.401019
0.393419
0.386121
0.379548
0.58717
0.575357
0.56899
0.564266
0.558931
0.552592
0.545234
0.536999
0.5281
0.518744
0.509109
0.499336
0.489534
0.479786
0.470154
0.460685
0.451411
0.442356
0.433535
0.42496
0.416636
0.408545
0.400659
0.393073
0.386102
0.604747
0.592541
0.585605
0.580143
0.573986
0.566816
0.558662
0.549682
0.540093
0.530102
0.519881
0.509568
0.499266
0.489055
0.478994
0.469124
0.459475
0.450069
0.440919
0.432033
0.423415
0.415051
0.406919
0.399082
0.391764
0.619536
0.607
0.599582
0.593495
0.586643
0.578773
0.569947
0.560339
0.550169
0.539644
0.528931
0.518163
0.507441
0.49684
0.486416
0.476209
0.466246
0.456545
0.447118
0.437971
0.429107
0.420513
0.412174
0.404126
0.396515
0.631462
0.618658
0.61085
0.604256
0.596842
0.588406
0.579038
0.568923
0.558286
0.547328
0.536218
0.525083
0.514022
0.503108
0.492392
0.481913
0.471696
0.461757
0.452107
0.44275
0.433687
0.424909
0.416404
0.408186
0.400337
0.640461
0.627456
0.619351
0.612374
0.604535
0.595671
0.585893
0.575396
0.564405
0.553122
0.541711
0.5303
0.518983
0.507832
0.496896
0.486212
0.475803
0.465686
0.455867
0.446352
0.437139
0.428222
0.419591
0.411244
0.403216
0.646487
0.633346
0.625043
0.617809
0.609684
0.600534
0.590481
0.579728
0.568499
0.556998
0.545387
0.53379
0.522302
0.510992
0.499909
0.489087
0.478551
0.468313
0.458383
0.448761
0.439447
0.430438
0.421723
0.41329
0.405141
0.649508
0.6363
0.627897
0.620533
0.612265
0.602971
0.592781
0.581899
0.570552
0.558941
0.547229
0.53554
0.523966
0.512576
0.501419
0.490529
0.479928
0.46963
0.459643
0.449968
0.440604
0.431548
0.422791
0.414315
0.406105
0.649509
0.6363
0.627898
0.620534
0.612266
0.602971
0.592782
0.581899
0.570552
0.558942
0.547229
0.53554
0.523966
0.512576
0.501419
0.490529
0.479928
0.46963
0.459643
0.449968
0.440604
0.431548
0.422792
0.414315
0.406105
0.646489
0.633349
0.625046
0.617811
0.609686
0.600535
0.590483
0.579729
0.568501
0.557
0.545388
0.533791
0.522303
0.510993
0.49991
0.489088
0.478551
0.468314
0.458383
0.448761
0.439448
0.430438
0.421723
0.41329
0.405141
0.640465
0.62746
0.619355
0.612378
0.604538
0.595674
0.585896
0.575399
0.564407
0.553124
0.541713
0.530302
0.518985
0.507833
0.496897
0.486213
0.475804
0.465686
0.455868
0.446352
0.437139
0.428222
0.419591
0.411244
0.403216
0.631468
0.618664
0.610855
0.604261
0.596847
0.58841
0.579042
0.568927
0.558289
0.547331
0.53622
0.525085
0.514024
0.50311
0.492394
0.481914
0.471697
0.461759
0.452108
0.442751
0.433688
0.42491
0.416404
0.408186
0.400337
0.619543
0.607007
0.599589
0.593501
0.586648
0.578778
0.569952
0.560343
0.550173
0.539647
0.528934
0.518166
0.507443
0.496842
0.486418
0.476211
0.466247
0.456546
0.447119
0.437972
0.429107
0.420513
0.412174
0.404126
0.396515
0.604755
0.592549
0.585612
0.580149
0.573992
0.566822
0.558667
0.549687
0.540097
0.530106
0.519885
0.509571
0.499269
0.489058
0.478996
0.469126
0.459477
0.450071
0.44092
0.432034
0.423416
0.415051
0.406919
0.399082
0.391764
0.587179
0.575365
0.568998
0.564273
0.558938
0.552599
0.54524
0.537005
0.528105
0.518749
0.509113
0.49934
0.489537
0.479789
0.470157
0.460687
0.451413
0.442357
0.433536
0.424961
0.416637
0.408545
0.400659
0.393073
0.386102
0.566908
0.555545
0.549829
0.54595
0.54156
0.536174
0.529732
0.522355
0.514249
0.505626
0.496665
0.487514
0.478287
0.469072
0.459937
0.45093
0.442088
0.433437
0.424996
0.41678
0.408795
0.401019
0.393419
0.386121
0.379548
0.544049
0.533193
0.528204
0.525271
0.521939
0.517625
0.512214
0.505803
0.498592
0.490793
0.482593
0.474143
0.465565
0.456953
0.448377
0.439892
0.431537
0.423343
0.415332
0.407522
0.399921
0.392504
0.385228
0.378253
0.372127
0.51872
0.508424
0.504234
0.502339
0.500171
0.497039
0.492766
0.487423
0.481201
0.474315
0.466956
0.459284
0.451425
0.443479
0.435523
0.427616
0.419802
0.412115
0.404581
0.397221
0.390048
0.383029
0.376114
0.369498
0.363863
0.491057
0.481371
0.478041
0.477267
0.47636
0.474512
0.471477
0.467297
0.462154
0.456263
0.449822
0.442997
0.435922
0.428704
0.421425
0.414149
0.406927
0.399794
0.392781
0.385914
0.37921
0.37263
0.366112
0.359888
0.354787
0.461205
0.452174
0.449761
0.450181
0.450622
0.450149
0.448444
0.445515
0.441533
0.436714
0.431261
0.425349
0.41912
0.412685
0.406136
0.399542
0.392957
0.386423
0.379973
0.373641
0.367444
0.361341
0.355256
0.349454
0.344926
0.429323
0.42099
0.41954
0.421216
0.423081
0.424066
0.423773
0.422174
0.419427
0.41575
0.411351
0.406412
0.401083
0.395484
0.389713
0.383845
0.377941
0.372047
0.366201
0.36044
0.354787
0.349198
0.34358
0.33823
0.334311
0.395582
0.387983
0.387535
0.390519
0.393872
0.396385
0.397577
0.397378
0.395934
0.393461
0.390172
0.38626
0.381881
0.377165
0.372215
0.367115
0.36193
0.356712
0.351505
0.34635
0.341277
0.336236
0.331119
0.326247
0.322971
0.360163
0.353333
0.353915
0.358246
0.363138
0.367238
0.369976
0.371239
0.371155
0.369939
0.367813
0.364973
0.361588
0.357794
0.353703
0.349405
0.344973
0.340464
0.335927
0.33141
0.326948
0.322488
0.317902
0.313536
0.310935
0.323257
0.317224
0.318857
0.324561
0.33103
0.336763
0.341097
0.343872
0.345197
0.345285
0.344362
0.342635
0.340279
0.337441
0.33424
0.330774
0.327122
0.323348
0.319507
0.315653
0.311829
0.30798
0.303956
0.300119
0.298223
0.285065
0.279855
0.282548
0.289637
0.297707
0.305106
0.311075
0.315401
0.318173
0.319601
0.319916
0.319332
0.318034
0.316177
0.313889
0.311275
0.308424
0.305405
0.302279
0.299109
0.295944
0.292731
0.289296
0.286011
0.28485
0.245797
0.24143
0.245183
0.253658
0.263337
0.272421
0.280049
0.285953
0.290202
0.292997
0.294573
0.295154
0.294934
0.294075
0.292715
0.290968
0.288928
0.286674
0.284274
0.281798
0.279307
0.276749
0.273925
0.27121
0.270814
0.205669
0.20216
0.206965
0.21681
0.228094
0.238867
0.248166
0.255665
0.261406
0.265584
0.268438
0.270197
0.271064
0.271212
0.270786
0.269908
0.268681
0.267191
0.265515
0.263732
0.261917
0.260021
0.257821
0.255689
0.256091
0.164906
0.162266
0.168102
0.17929
0.192157
0.20461
0.215577
0.224675
0.231915
0.237483
0.24162
0.244561
0.246517
0.247669
0.248172
0.248155
0.24773
0.24699
0.246021
0.244915
0.243759
0.242515
0.240935
0.239386
0.240619
0.123735
0.121971
0.128809
0.141298
0.155713
0.169819
0.182441
0.193129
0.201863
0.208817
0.214233
0.21835
0.221388
0.223534
0.224951
0.225775
0.226127
0.226107
0.225809
0.225336
0.224795
0.224159
0.22316
0.222165
0.224267
0.0823889
0.0815036
0.0893047
0.10304
0.118952
0.134673
0.14892
0.161177
0.17139
0.179717
0.186399
0.191679
0.195781
0.198902
0.201209
0.202845
0.203935
0.204587
0.204902
0.204996
0.204992
0.204875
0.204352
0.203817
0.206816
0.041103
0.0410939
0.0498115
0.0647249
0.0820685
0.0993492
0.11518
0.128975
0.14064
0.150319
0.158247
0.164669
0.169814
0.173884
0.177049
0.179458
0.181238