/*--------------------------------*- C++ -*----------------------------------*\
  =========                 |
  \\      /  F ield         | OpenFOAM: The Open Source CFD Toolbox
   \\    /   O peration     | Website:  https://openfoam.org
    \\  /    A nd           | Version:  6.0
     \\/     M anipulation  |
\*---------------------------------------------------------------------------*/
FoamFile
{
    version     2.0;
    format      ascii;
    class       volVectorField;
    location    "23";
    object      U;
}
// * * * * * * * * * * * * * * * * * * * * * * * * * * * * * * * * * * * * * //

dimensions      [0 1 -1 0 0 0 0];

internalField   nonuniform List<vector> 
12500
(
(-0.000272655 0.000251913 -5.70003e-22)
(-0.00159726 0.000648993 7.86063e-21)
(-0.00415952 0.00094548 -1.13838e-20)
(-0.00743719 0.00115978 5.21958e-21)
(-0.0111455 0.0013064 3.12567e-22)
(-0.0151074 0.00139771 -6.41843e-22)
(-0.0191818 0.00144493 -9.46199e-21)
(-0.0232641 0.00145806 5.18828e-21)
(-0.0272822 0.00144594 3.42573e-21)
(-0.0311888 0.00141642 3.47465e-21)
(-0.0349569 0.00137641 -5.87307e-21)
(-0.0385751 0.00133203 3.4119e-21)
(-0.0420445 0.00128866 -1.60449e-21)
(-0.0453757 0.00125099 2.71692e-21)
(-0.0485866 0.00122305 -6.92065e-21)
(-0.0517003 0.00120823 9.98722e-21)
(-0.0547435 0.00120931 -1.90153e-21)
(-0.057745 0.00122841 -7.04445e-21)
(-0.0607341 0.00126707 3.60335e-21)
(-0.0637401 0.00132619 -3.43455e-21)
(-0.0667972 0.00140603 3.0697e-21)
(-0.0699394 0.00150623 4.05213e-21)
(-0.0731383 0.0016268 4.10852e-22)
(-0.076284 0.00176875 -1.1569e-20)
(-0.0798033 0.00192497 6.10623e-21)
(-0.000311929 0.000912919 1.04027e-20)
(-0.00169883 0.00236083 -2.68371e-20)
(-0.00430796 0.00346066 7.90347e-21)
(-0.00761881 0.00427503 5.27402e-21)
(-0.0113481 0.00485384 -4.19891e-21)
(-0.0153197 0.00523982 -2.38242e-20)
(-0.0193939 0.00547155 7.07396e-21)
(-0.023467 0.00558331 -1.33397e-20)
(-0.0274675 0.00560533 1.59381e-20)
(-0.031349 0.00556418 -2.12475e-20)
(-0.0350849 0.00548322 1.13278e-20)
(-0.0386642 0.00538291 3.65556e-21)
(-0.0420885 0.00528108 -9.19631e-21)
(-0.0453686 0.00519313 -4.0579e-21)
(-0.0485229 0.0051322 2.96588e-20)
(-0.0515748 0.00510925 -2.62032e-20)
(-0.0545516 0.00513316 6.25861e-21)
(-0.0574826 0.00521076 1.08112e-20)
(-0.0603975 0.00534691 -2.46591e-21)
(-0.0633265 0.00554453 1.73746e-20)
(-0.0663044 0.00580444 3.15825e-21)
(-0.0693662 0.00612559 -1.12856e-21)
(-0.0724838 0.00650803 -2.18484e-20)
(-0.0755467 0.0069547 2.00858e-20)
(-0.0789829 0.00744406 -3.83133e-20)
(-0.000392567 0.00157008 3.33617e-20)
(-0.00190672 0.00406203 1.10799e-20)
(-0.00461053 0.00595896 -1.45071e-20)
(-0.00798761 0.0073675 6.22328e-21)
(-0.0117578 0.00837275 5.81968e-21)
(-0.0157476 0.00904771 2.20576e-20)
(-0.0198198 0.00945818 -2.79808e-20)
(-0.0238726 0.00966257 -4.54285e-21)
(-0.0278362 0.00971233 -1.86849e-20)
(-0.0316656 0.0096527 -1.55788e-20)
(-0.0353352 0.00952337 2.00898e-20)
(-0.0388351 0.0093591 -6.71492e-20)
(-0.0421674 0.0091902 -2.09418e-21)
(-0.0453438 0.00904288 -4.0187e-20)
(-0.0483832 0.00893952 -4.72433e-21)
(-0.0513101 0.00889887 5.69246e-21)
(-0.0541524 0.00893616 -3.1069e-20)
(-0.0569405 0.00906321 -1.94113e-20)
(-0.0597055 0.0092885 -2.29534e-20)
(-0.0624786 0.00961725 3.592e-20)
(-0.0652964 0.0100511 1.31161e-20)
(-0.0681952 0.0105886 -5.82296e-20)
(-0.0711486 0.0112298 -2.80124e-20)
(-0.0740443 0.01198 -3.12854e-20)
(-0.0773129 0.0128031 8.43993e-20)
(-0.000514301 0.0022205 -1.04328e-21)
(-0.00222026 0.00574468 -2.56217e-20)
(-0.00506634 0.00842798 -1.22819e-20)
(-0.00854252 0.0104206 7.6103e-21)
(-0.0123735 0.0118427 4.73411e-20)
(-0.0163901 0.0127973 -2.133e-20)
(-0.0204584 0.013377 4.54224e-20)
(-0.0244802 0.0136643 4.32055e-20)
(-0.0283881 0.0137314 2.62685e-20)
(-0.0321392 0.0136422 -3.95822e-22)
(-0.0357094 0.0134524 5.28209e-20)
(-0.0390902 0.013211 9.13175e-21)
(-0.0422849 0.0129609 4.02015e-20)
(-0.0453062 0.0127392 9.22947e-20)
(-0.048174 0.0125777 -1.06939e-19)
(-0.0509137 0.0125033 1.60592e-19)
(-0.0535548 0.012538 3.48911e-20)
(-0.0561291 0.0126992 -7.68924e-20)
(-0.0586694 0.0129994 -1.08982e-20)
(-0.061209 0.0134467 2.78948e-20)
(-0.0637866 0.014044 -1.39648e-20)
(-0.0664414 0.0147897 -8.34576e-21)
(-0.0691488 0.0156845 -8.12806e-21)
(-0.0717946 0.0167362 -3.27168e-20)
(-0.074813 0.0178939 1.14702e-19)
(-0.000676725 0.00286152 1.73753e-20)
(-0.0026384 0.00740127 -8.06842e-20)
(-0.00567387 0.0108559 9.77821e-20)
(-0.00928166 0.0134186 -3.88937e-20)
(-0.0131931 0.0152443 4.65183e-20)
(-0.0172447 0.0164655 3.79188e-20)
(-0.0213078 0.0172017 1.43821e-20)
(-0.0252882 0.0175587 7.00684e-22)
(-0.0291222 0.0176293 8.07963e-20)
(-0.0327695 0.0174954 5.58623e-20)
(-0.0362085 0.0172287 -2.23769e-20)
(-0.0394322 0.0168924 -1.43921e-20)
(-0.0424454 0.0165416 6.06457e-20)
(-0.0452619 0.0162246 1.14108e-20)
(-0.0479031 0.0159831 3.09243e-20)
(-0.0503957 0.0158525 7.39806e-20)
(-0.0527707 0.0158621 -6.38478e-20)
(-0.055062 0.0160355 5.1495e-20)
(-0.0573047 0.0163901 -1.10885e-19)
(-0.0595347 0.0169376 9.3096e-20)
(-0.0617937 0.0176831 6.0107e-22)
(-0.0641248 0.0186251 -7.40894e-20)
(-0.0665064 0.0197656 2.98031e-20)
(-0.0688218 0.0211159 6.76183e-20)
(-0.0715106 0.0226097 -9.96378e-20)
(-0.000879312 0.00349075 8.98637e-20)
(-0.00315967 0.00902489 -9.53947e-20)
(-0.00643089 0.0132315 -1.53443e-20)
(-0.0102021 0.0163466 1.93344e-20)
(-0.0142131 0.0185591 -4.17379e-20)
(-0.0183077 0.0200311 -6.50378e-20)
(-0.0223638 0.020908 -5.40392e-20)
(-0.0262927 0.0213185 -1.30195e-20)
(-0.0300351 0.0213757 -9.2887e-20)
(-0.0335544 0.0211787 7.39221e-20)
(-0.0368317 0.0208151 -1.14742e-19)
(-0.039862 0.0203616 5.79612e-20)
(-0.0426518 0.0198859 -1.92251e-20)
(-0.0452164 0.0194475 4.44999e-20)
(-0.0475785 0.0190979 -1.11819e-19)
(-0.0497664 0.018882 5.41482e-20)
(-0.0518129 0.018837 4.0313e-21)
(-0.0537543 0.0189937 2.39919e-20)
(-0.0556284 0.0193754 1.4482e-19)
(-0.0574746 0.0199986 3.20576e-20)
(-0.0593387 0.0208713 -2.92028e-21)
(-0.0612685 0.0219935 9.14293e-21)
(-0.0632463 0.023369 6.0212e-20)
(-0.0651537 0.0250137 1.71403e-20)
(-0.0674371 0.0268457 5.63653e-20)
(-0.00112144 0.00410606 -5.59931e-20)
(-0.00378216 0.0106091 7.94829e-20)
(-0.00733424 0.0155446 4.97855e-21)
(-0.0112995 0.0191906 -9.69547e-20)
(-0.0154281 0.0217703 2.03768e-19)
(-0.0195729 0.0234745 -6.58541e-20)
(-0.0236197 0.024474 9.60827e-20)
(-0.0274869 0.0249197 8.78755e-20)
(-0.0311205 0.0249441 -7.268e-20)
(-0.0344882 0.0246633 -1.05737e-19)
(-0.0375745 0.0241796 2.89295e-20)
(-0.0403769 0.0235834 -3.04904e-20)
(-0.0429036 0.0229544 -1.34809e-19)
(-0.0451716 0.0223633 1.63692e-19)
(-0.0472048 0.0218722 -7.84664e-20)
(-0.0490332 0.0215353 -5.40809e-20)
(-0.0506916 0.0213993 4.94455e-22)
(-0.0522189 0.0215029 4.41324e-20)
(-0.0536561 0.021877 1.81889e-20)
(-0.0550467 0.0225441 -7.12187e-20)
(-0.0564413 0.0235166 8.126e-20)
(-0.057894 0.0247976 -1.41133e-19)
(-0.0593926 0.0263937 8.61455e-20)
(-0.060817 0.028327 -6.59498e-20)
(-0.0626235 0.0305001 1.71637e-20)
(-0.00140238 0.00470555 8.1464e-20)
(-0.00450344 0.012148 -6.26453e-20)
(-0.0083797 0.0177853 -3.98457e-20)
(-0.0125677 0.0219378 -7.03261e-20)
(-0.0168301 0.0248624 -1.28543e-19)
(-0.0210306 0.0267779 -9.49533e-20)
(-0.0250648 0.0278802 5.91605e-20)
(-0.0288591 0.0283414 -8.95804e-20)
(-0.0323663 0.0283124 1.13668e-19)
(-0.0355593 0.0279255 -1.84945e-19)
(-0.0384263 0.0272971 8.21279e-20)
(-0.0409676 0.0265302 1.73406e-19)
(-0.0431936 0.0257164 -2.43567e-19)
(-0.0451226 0.0249374 3.47651e-20)
(-0.04678 0.024266 4.5218e-20)
(-0.0481971 0.0237668 4.37083e-20)
(-0.0494109 0.0234963 -4.69536e-20)
(-0.0504626 0.0235029 -1.15406e-20)
(-0.0513971 0.0238263 -3.4439e-20)
(-0.0522625 0.0244973 -2.87189e-20)
(-0.0531152 0.0255349 -1.57529e-19)
(-0.0540171 0.0269466 -1.06307e-20)
(-0.0549627 0.0287443 1.71508e-21)
(-0.0558322 0.0309583 -7.1157e-20)
(-0.0570942 0.0334755 7.32876e-20)
(-0.0017213 0.00528747 2.35273e-21)
(-0.00532046 0.0136359 2.56224e-20)
(-0.00956158 0.0199445 2.66727e-20)
(-0.0139983 0.0245761 1.54781e-20)
(-0.0184079 0.0278209 1.30822e-19)
(-0.0226671 0.0299257 1.22838e-19)
(-0.026683 0.03111 -9.98257e-20)
(-0.0303916 0.0315666 -3.03719e-20)
(-0.0337536 0.0314635 -2.69667e-20)
(-0.0367479 0.0309481 1.39106e-19)
(-0.0393672 0.0301498 4.99187e-20)
(-0.0416151 0.0291835 -7.26632e-20)
(-0.043504 0.0281519 -6.14789e-20)
(-0.0450536 0.0271473 1.48098e-19)
(-0.0462906 0.0262532 -3.65082e-20)
(-0.0472475 0.0255449 -4.42413e-20)
(-0.0479628 0.0250899 -6.17206e-20)
(-0.0484804 0.0249476 -4.80263e-20)
(-0.048849 0.0251687 -6.12802e-20)
(-0.0491216 0.0257945 -4.00584e-20)
(-0.0493617 0.0268532 1.66411e-19)
(-0.0496402 0.0283599 -8.1917e-20)
(-0.0499608 0.030334 5.51434e-20)
(-0.0502052 0.0328171 -1.46598e-19)
(-0.0508594 0.0356816 5.90578e-20)
(-0.0020772 0.00585001 -7.31502e-20)
(-0.00622932 0.015067 -1.90509e-20)
(-0.0108725 0.022013 -1.48796e-19)
(-0.0155801 0.0270936 -7.12796e-20)
(-0.0201464 0.0306325 -1.40678e-19)
(-0.0244635 0.0329035 -1.46657e-20)
(-0.0284516 0.0341493 7.53611e-20)
(-0.0320584 0.0345818 -4.58935e-20)
(-0.0352535 0.0343852 9.88837e-20)
(-0.038023 0.0337203 -2.40212e-19)
(-0.0403649 0.0327285 -6.95561e-21)
(-0.0422862 0.0315353 4.25526e-20)
(-0.0438016 0.0302533 -5.397e-20)
(-0.0449324 0.0289849 4.90912e-20)
(-0.0457058 0.0278237 -3.75237e-20)
(-0.0461553 0.026856 -8.03751e-20)
(-0.0463207 0.0261611 1.46572e-19)
(-0.046248 0.0258108 9.08734e-20)
(-0.0459893 0.0258692 -1.8833e-20)
(-0.0456033 0.0263906 5.99269e-20)
(-0.0451613 0.0274162 -1.18217e-19)
(-0.0447446 0.028972 1.70326e-19)
(-0.0443684 0.0310891 -2.32573e-19)
(-0.0439189 0.0338251 4.78699e-20)
(-0.0439052 0.0370388 -9.09379e-20)
(-0.00246881 0.00639124 3.96886e-21)
(-0.0072251 0.0164352 -6.50735e-20)
(-0.0123027 0.0239813 9.63782e-20)
(-0.0172981 0.0294786 1.97573e-19)
(-0.0220254 0.033284 -3.24812e-21)
(-0.0263939 0.0356982 2.23642e-20)
(-0.0303396 0.0369858 -8.44826e-20)
(-0.0338232 0.0373768 3.95522e-20)
(-0.0368251 0.0370701 2.72541e-19)
(-0.0393395 0.0362383 -6.18298e-20)
(-0.0413704 0.0350331 -7.29969e-20)
(-0.0429291 0.0335891 2.75824e-19)
(-0.0440327 0.0320274 9.00412e-20)
(-0.0447038 0.0304591 4.28478e-20)
(-0.0449703 0.0289874 4.38472e-20)
(-0.0448658 0.0277091 1.1945e-19)
(-0.0444306 0.0267156 -4.58913e-20)
(-0.0437124 0.0260925 1.21278e-19)
(-0.0427664 0.0259193 1.64071e-19)
(-0.0416567 0.026267 -1.3991e-19)
(-0.040463 0.0271935 2.07827e-19)
(-0.039279 0.0287408 7.41183e-20)
(-0.0381335 0.0309572 -2.81222e-19)
(-0.0369209 0.0339225 4.06597e-19)
(-0.0361811 0.0374847 -3.29295e-19)
(-0.00289453 0.00690886 -1.86235e-19)
(-0.00830152 0.0177339 1.015e-19)
(-0.0138402 0.0258393 -6.80957e-20)
(-0.0191337 0.0317186 -6.46707e-20)
(-0.0240188 0.0357623 -6.97829e-20)
(-0.0284251 0.0382971 -7.56959e-20)
(-0.0323062 0.0396088 2.07729e-20)
(-0.0356379 0.039944 1.97297e-19)
(-0.0384128 0.0395148 -4.22602e-20)
(-0.0406346 0.0385041 -1.10021e-19)
(-0.0423145 0.0370719 -6.71716e-20)
(-0.0434685 0.0353598 -2.74765e-20)
(-0.0441167 0.0334958 8.12445e-20)
(-0.0442832 0.0315978 -5.1889e-20)
(-0.043996 0.029777 -1.69289e-19)
(-0.0432885 0.0281398 -1.86745e-19)
(-0.0422008 0.0267894 7.44438e-20)
(-0.0407812 0.0258261 -1.38523e-19)
(-0.0390873 0.0253464 1.20244e-19)
(-0.0371879 0.0254415 -3.39541e-19)
(-0.0351717 0.0261908 2.60807e-19)
(-0.033146 0.0276583 -3.44824e-19)
(-0.031156 0.0299173 -6.4247e-21)
(-0.0291087 0.033078 -1.16026e-19)
(-0.0275855 0.0369831 3.40645e-19)
(-0.00335227 0.00740009 2.85754e-19)
(-0.0094507 0.0189552 4.18767e-20)
(-0.0154696 0.0275755 -2.75103e-20)
(-0.0210632 0.0338002 -1.16074e-20)
(-0.0260943 0.0380532 2.15899e-19)
(-0.0305151 0.040687 7.02068e-20)
(-0.0342995 0.0420076 6.36473e-20)
(-0.0374402 0.0422771 -5.11614e-20)
(-0.0399438 0.041719 1.97264e-19)
(-0.041825 0.0405248 -9.69765e-20)
(-0.0431032 0.0388608 6.25733e-20)
(-0.0438003 0.0368735 1.59114e-19)
(-0.0439401 0.0346952 -9.02168e-20)
(-0.0435482 0.0324485 9.76691e-20)
(-0.0426529 0.0302502 9.2219e-20)
(-0.0412872 0.0282146 3.1556e-20)
(-0.0394899 0.0264552 -7.77112e-20)
(-0.0373089 0.0250866 2.14903e-19)
(-0.0348029 0.0242238 -1.9995e-20)
(-0.0320448 0.0239807 -2.30202e-20)
(-0.0291316 0.0244637 2.57151e-19)
(-0.0261857 0.0257658 -1.8287e-19)
(-0.0232713 0.0279947 3.07974e-19)
(-0.0203127 0.0313038 -2.55326e-19)
(-0.0179467 0.035538 3.28094e-19)
(-0.0038393 0.00786156 -1.38026e-19)
(-0.0106628 0.0200901 3.05866e-20)
(-0.0171724 0.0291771 -3.18756e-20)
(-0.0230581 0.035708 -1.50873e-19)
(-0.0282123 0.0401408 8.75377e-21)
(-0.0326126 0.0428532 8.58608e-20)
(-0.0362555 0.0441706 -3.49202e-19)
(-0.0391526 0.0443695 2.60621e-19)
(-0.0413263 0.0436833 -2.53679e-19)
(-0.0428039 0.0423105 -1.59964e-19)
(-0.0436146 0.0404214 1.43429e-19)
(-0.0437871 0.0381652 -3.10314e-19)
(-0.0433499 0.0356759 2.61324e-19)
(-0.0423312 0.0330779 -8.30895e-20)
(-0.0407599 0.0304906 -2.37234e-19)
(-0.0386681 0.0280329 5.85905e-20)
(-0.0360933 0.0258265 -5.5003e-20)
(-0.0330818 0.0239982 2.07138e-20)
(-0.0296919 0.0226812 -7.40973e-20)
(-0.0259992 0.0220141 -2.45739e-19)
(-0.0221083 0.0221344 5.50459e-20)
(-0.0181568 0.0231723 -9.67129e-23)
(-0.0142302 0.0252816 -2.53075e-19)
(-0.0102754 0.0286753 1.7777e-19)
(-0.00700245 0.033213 -1.53577e-19)
(-0.00435214 0.00828925 5.58706e-20)
(-0.0119258 0.021128 1.02862e-19)
(-0.018926 0.0306291 1.43906e-19)
(-0.0250842 0.0374248 7.40062e-20)
(-0.0303257 0.042007 -7.25625e-20)
(-0.0346563 0.0447787 1.73083e-19)
(-0.0380971 0.0460841 1.28066e-19)
(-0.040681 0.0462129 -4.66127e-20)
(-0.0424478 0.0454074 1.66437e-19)
(-0.0434392 0.0438713 -1.7118e-19)
(-0.0436953 0.0417774 -5.01934e-20)
(-0.0432537 0.0392752 5.09364e-20)
(-0.0421488 0.0364979 1.00894e-19)
(-0.0404125 0.0335681 1.20858e-21)
(-0.0380754 0.0306045 6.382e-20)
(-0.0351694 0.0277266 1.17772e-19)
(-0.0317305 0.0250598 -2.00482e-19)
(-0.0278028 0.0227397 2.49157e-19)
(-0.0234432 0.0209148 8.40256e-20)
(-0.0187279 0.0197479 2.96122e-20)
(-0.0137676 0.0194106 -3.02003e-19)
(-0.00871472 0.0200775 4.27393e-20)
(-0.00367726 0.0219619 6.62649e-20)
(0.00137065 0.0253575 -1.58901e-20)
(0.00562369 0.0301569 7.55111e-20)
(-0.0048865 0.00867856 4.37637e-21)
(-0.0132255 0.0220573 -2.64963e-19)
(-0.0207044 0.031915 -6.60096e-21)
(-0.0271019 0.0389308 -6.67916e-20)
(-0.0323798 0.0436308 -4.3887e-19)
(-0.0365745 0.0464432 3.78872e-19)
(-0.0397342 0.0477305 -2.69546e-19)
(-0.0419146 0.0477949 -1.35631e-20)
(-0.0431748 0.0468869 -1.27293e-19)
(-0.0435722 0.0452142 2.20056e-19)
(-0.0431598 0.0429506 -2.36817e-19)
(-0.0419855 0.0402444 -1.10855e-19)
(-0.0400914 0.0372251 2.33891e-21)
(-0.0375151 0.034011 -2.39718e-19)
(-0.0342907 0.0307158 3.27007e-19)
(-0.0304513 0.0274548 -3.7875e-19)
(-0.0260326 0.0243516 7.52745e-22)
(-0.0210768 0.0215445 5.8012e-20)
(-0.0156385 0.0191919 -1.45095e-19)
(-0.00979319 0.0174765 1.40697e-19)
(-0.00365524 0.0166033 -1.99592e-19)
(0.00260957 0.0167957 -1.3182e-19)
(0.00887101 0.0183401 2.45561e-19)
(0.0151255 0.0216365 -2.67827e-19)
(0.0204459 0.0266362 -5.17097e-21)
(-0.00543717 0.00902447 -2.24297e-19)
(-0.0145449 0.0228651 2.57289e-19)
(-0.0224774 0.0330162 -7.93861e-20)
(-0.0290659 0.0402038 1.52786e-19)
(-0.0343122 0.044988 1.64732e-19)
(-0.0382858 0.0478224 -1.4508e-19)
(-0.0410637 0.0490874 -9.61693e-20)
(-0.0427261 0.0490978 -1.15119e-19)
(-0.0433527 0.0481113 1.05377e-19)
(-0.0430181 0.0463393 -7.03055e-21)
(-0.0417899 0.0439562 1.53551e-19)
(-0.0397276 0.0411074 1.51314e-19)
(-0.0368835 0.0379178 -1.80703e-19)
(-0.0333031 0.0344985 3.54786e-19)
(-0.0290265 0.0309547 -2.35211e-19)
(-0.0240912 0.0273927 -4.03276e-20)
(-0.0185348 0.023928 4.57942e-19)
(-0.0123997 0.0206933 -2.12016e-19)
(-0.00573894 0.0178478 1.35034e-19)
(0.00137363 0.0155858 2.6368e-19)
(0.00882183 0.0141386 -1.71063e-19)
(0.0164292 0.0137774 1.80327e-20)
(0.0240459 0.0148712 -1.17529e-20)
(0.0316409 0.0179554 -7.00511e-20)
(0.0381368 0.0230736 1.31762e-19)
(-0.00599811 0.0093217 5.12588e-20)
(-0.015865 0.0235377 -1.63067e-19)
(-0.0242109 0.0339133 8.91192e-20)
(-0.0309253 0.0412198 -1.09676e-21)
(-0.0360531 0.0460519 6.70645e-20)
(-0.0396988 0.0488883 -1.15379e-19)
(-0.0419699 0.0501277 6.60008e-20)
(-0.0429723 0.050097 1.79702e-19)
(-0.0428073 0.0490617 -5.46078e-21)
(-0.0415676 0.047237 -9.1754e-20)
(-0.0393365 0.0447975 9.22284e-20)
(-0.0361873 0.0418864 -2.13651e-21)
(-0.0321842 0.0386229 -2.91972e-19)
(-0.0273834 0.0351103 1.08251e-19)
(-0.0218348 0.0314429 2.39162e-20)
(-0.0155839 0.0277142 -4.20623e-20)
(-0.0086748 0.0240251 -7.49879e-20)
(-0.00115421 0.020494 2.87429e-19)
(0.00692281 0.0172692 7.00599e-20)
(0.0154827 0.0145422 -1.50111e-19)
(0.0244084 0.0125567 -1.80263e-20)
(0.0335156 0.0116203 2.06561e-19)
(0.0426402 0.012185 -9.64592e-20)
(0.0517336 0.0149484 4.13996e-20)
(0.0595418 0.0200871 2.78705e-20)
(-0.00656253 0.00956507 -1.02646e-19)
(-0.0171643 0.0240617 1.02017e-19)
(-0.0258671 0.0345859 -5.74877e-20)
(-0.0326239 0.0419537 -1.84518e-19)
(-0.0375253 0.0467934 -1.69842e-19)
(-0.0407129 0.0496096 -7.51663e-20)
(-0.0423254 0.0508192 -6.22353e-20)
(-0.0424953 0.0507617 -1.84056e-19)
(-0.041346 0.0497106 -7.43336e-20)
(-0.038989 0.0478857 6.77382e-20)
(-0.0355238 0.0454632 -9.67078e-20)
(-0.0310388 0.0425847 -1.02093e-19)
(-0.025612 0.0393655 -9.57647e-20)
(-0.0193135 0.0359015 1.73852e-19)
(-0.0122064 0.0322762 -3.65098e-19)
(-0.00434977 0.0285686 2.08402e-19)
(0.00419968 0.0248609 -3.5638e-19)
(0.0133838 0.0212497 -5.49019e-20)
(0.0231388 0.0178597 -1.95594e-19)
(0.0333856 0.0148617 -4.56602e-20)
(0.0440041 0.0124888 -5.56945e-20)
(0.0548033 0.0110603 -1.85956e-19)
(0.065612 0.0110941 -2.03402e-20)
(0.0763858 0.0134662 1.13748e-19)
(0.0856805 0.0185274 -2.95691e-19)
(-0.007123 0.00974976 8.80525e-20)
(-0.0184193 0.0244238 1.15155e-19)
(-0.0274048 0.0350145 4.03266e-19)
(-0.0341002 0.0423801 -7.07925e-20)
(-0.0386448 0.0471832 1.68443e-19)
(-0.0412181 0.0499538 4.01203e-19)
(-0.0419913 0.0511274 -1.0932e-19)
(-0.0411234 0.0510563 1.4793e-19)
(-0.0387599 0.0500232 8.62684e-20)
(-0.0350311 0.0482534 1.56303e-19)
(-0.030053 0.0459266 -3.13001e-20)
(-0.0239293 0.0431853 2.11441e-20)
(-0.0167537 0.0401432 -5.4688e-20)
(-0.00861207 0.0368921 2.95805e-19)
(0.000414731 0.0335076 3.78489e-20)
(0.0102488 0.0300561 2.7416e-19)
(0.0208129 0.0266014 -7.00801e-20)
(0.0320277 0.0232146 2.50558e-19)
(0.0438093 0.0199874 3.51271e-20)
(0.0560622 0.0170521 1.27243e-19)
(0.068654 0.0146029 -5.48881e-20)
(0.0813829 0.0129307 -9.73167e-21)
(0.0940767 0.0125768 3.02201e-19)
(0.106732 0.0145851 1.85755e-19)
(0.117731 0.0195092 -7.74771e-20)
(-0.00767157 0.00987163 -2.13399e-19)
(-0.0196044 0.0246123 -2.1628e-19)
(-0.0287786 0.0351806 -2.26029e-19)
(-0.035287 0.0424755 8.28109e-20)
(-0.0393195 0.047193 -1.66291e-19)
(-0.0410949 0.0498891 -2.47721e-20)
(-0.0408171 0.0510175 -6.52923e-20)
(-0.0386716 0.0509441 -2.70715e-19)
(-0.0348252 0.0499611 -4.22474e-20)
(-0.0294263 0.0483013 6.93938e-20)
(-0.0226071 0.0461495 -2.17631e-19)
(-0.0144866 0.0436524 3.01588e-19)
(-0.0051743 0.0409264 -4.09347e-19)
(0.00522589 0.0380635 9.85063e-20)
(0.0166126 0.0351376 -2.50416e-19)
(0.0288836 0.0322086 -2.03092e-19)
(0.041933 0.0293279 -1.15442e-20)
(0.0556492 0.0265451 -3.06473e-20)
(0.0699129 0.023918 2.42005e-20)
(0.0845938 0.0215303 -1.15713e-19)
(0.0995292 0.0195113 -8.00541e-20)
(0.114491 0.0180744 9.83495e-20)
(0.129301 0.017711 -2.7195e-19)
(0.144049 0.0195739 8.83816e-20)
(0.157015 0.0244071 6.30107e-20)
(-0.00819995 0.00992739 -3.78583e-20)
(-0.0206922 0.0246172 -6.28121e-20)
(-0.0299395 0.0350686 2.44006e-19)
(-0.036111 0.0422194 9.07312e-20)
(-0.0394494 0.0467988 1.20055e-19)
(-0.0402136 0.0493882 -1.60318e-19)
(-0.0386403 0.0504598 2.76512e-22)
(-0.0349408 0.0503926 -1.29648e-19)
(-0.0293028 0.0494894 2.39591e-19)
(-0.0218915 0.0479913 7.81774e-20)
(-0.0128542 0.0460907 8.76542e-20)
(-0.00232461 0.0439414 -3.48527e-19)
(0.00957205 0.0416664 4.29697e-19)
(0.0227137 0.0393646 -1.29046e-19)
(0.0369764 0.0371152 -9.23043e-20)
(0.0522302 0.034982 2.76297e-19)
(0.0683343 0.033016 1.23226e-19)
(0.085134 0.0312582 -3.11836e-19)
(0.102459 0.0297452 -1.30111e-19)
(0.12012 0.0285185 3.92597e-19)
(0.137897 0.0276337 -2.99877e-19)
(0.155502 0.0271849 1.80288e-19)
(0.172721 0.0275128 1.00729e-19)
(0.189782 0.0297517 -1.29542e-19)
(0.205037 0.0347537 -1.24981e-19)
(-0.00869945 0.0099147 -1.39258e-19)
(-0.0216528 0.0244307 2.16366e-19)
(-0.0308339 0.0346665 9.2138e-20)
(-0.0364918 0.0415967 -1.3304e-19)
(-0.0389247 0.0459831 -2.12884e-20)
(-0.0384323 0.0484322 -1.39444e-19)
(-0.0352841 0.0494339 -5.55431e-20)
(-0.029717 0.0493805 6.23249e-20)
(-0.0219381 0.0485848 -1.55694e-20)
(-0.0121288 0.0472973 1.17568e-19)
(-0.000450257 0.0457191 -1.0209e-19)
(0.0129502 0.0440132 2.82435e-19)
(0.0279322 0.0423132 -3.50013e-19)
(0.0443561 0.0407296 2.18242e-19)
(0.0620758 0.0393554 2.71089e-19)
(0.0809324 0.0382692 -3.91758e-19)
(0.100748 0.0375375 -1.19206e-19)
(0.121318 0.0372152 2.00837e-19)
(0.142408 0.0373455 -1.23968e-19)
(0.163748 0.0379604 1.1967e-19)
(0.185021 0.039071 -2.90032e-19)
(0.205823 0.0406502 4.83034e-20)
(0.225828 0.0428041 1.88988e-19)
(0.245409 0.0464842 -3.04001e-19)
(0.263314 0.0524797 8.19767e-20)
(-0.00916086 0.00983213 -1.28799e-19)
(-0.0224537 0.0240479 4.03648e-19)
(-0.0314023 0.0339668 7.74717e-20)
(-0.0363405 0.040599 -2.09295e-19)
(-0.0376241 0.0447379 1.49888e-19)
(-0.0355951 0.0470145 7.60921e-20)
(-0.0305558 0.0479355 1.21491e-19)
(-0.0227683 0.047905 -7.93825e-21)
(-0.0124591 0.0472459 -1.26219e-20)
(0.000175202 0.0462172 -2.64519e-20)
(0.0149598 0.045029 -1.1557e-19)
(0.0317341 0.043854 -3.9135e-21)
(0.0503437 0.0428376 2.69968e-19)
(0.0706321 0.042105 -4.42691e-19)
(0.092433 0.0417675 3.14944e-19)
(0.115562 0.041928 6.37287e-20)
(0.139808 0.0426838 1.12678e-19)
(0.164922 0.0441296 -5.80728e-20)
(0.190604 0.0463582 5.15254e-19)
(0.21649 0.0494588 -3.19196e-19)
(0.242122 0.053495 2.55273e-19)
(0.266882 0.0584399 6.01285e-20)
(0.290147 0.0642862 -1.87061e-19)
(0.312226 0.0718718 1.58485e-19)
(0.332656 0.0815184 2.45767e-19)
(-0.0095742 0.00967899 -3.74384e-20)
(-0.023059 0.0234661 -1.4233e-19)
(-0.0315788 0.0329671 -2.43175e-19)
(-0.035558 0.0392263 -1.38538e-19)
(-0.0354131 0.0430673 -1.93701e-20)
(-0.0315298 0.0451448 -5.46691e-20)
(-0.0242442 0.0459804 -2.53303e-19)
(-0.013844 0.0459892 4.19588e-20)
(-0.000575389 0.045502 -2.84466e-19)
(0.0153485 0.0447852 -2.20641e-20)
(0.0337384 0.0440557 -2.72684e-19)
(0.0544189 0.0434946 -9.71045e-20)
(0.0772202 0.0432565 5.57177e-20)
(0.10197 0.0434791 -2.6519e-19)
(0.128483 0.0442904 2.40242e-21)
(0.15656 0.0458168 -2.28399e-19)
(0.185971 0.0481907 8.81771e-20)
(0.216451 0.0515595 -3.18932e-19)
(0.247683 0.056098 -5.46724e-20)
(0.279278 0.0620221 -7.61654e-21)
(0.310714 0.0695875 -5.39655e-20)
(0.34123 0.079058 -5.53673e-20)
(0.369822 0.0908889 -2.77655e-20)
(0.395925 0.106481 -1.11093e-19)
(0.418199 0.124809 -2.38139e-19)
(-0.00992833 0.00945514 6.83428e-20)
(-0.0234281 0.0226853 1.80436e-19)
(-0.0312892 0.0316707 2.16803e-19)
(-0.0340334 0.0374877 -1.73197e-19)
(-0.0321419 0.0409891 3.21269e-19)
(-0.0260464 0.0428513 -1.74373e-19)
(-0.0161184 0.0436095 9.46682e-20)
(-0.00267315 0.043687 1.47545e-19)
(0.0140209 0.0434207 1.34214e-19)
(0.0337311 0.043081 6.52483e-20)
(0.0562486 0.0428888 1.05424e-19)
(0.0813784 0.0430279 6.12878e-20)
(0.10893 0.0436564 4.14149e-19)
(0.138708 0.0449154 -3.00939e-19)
(0.17051 0.0469375 3.43587e-19)
(0.20412 0.0498563 -1.42784e-19)
(0.239307 0.0538157 3.08216e-19)
(0.275827 0.0589852 -1.46316e-20)
(0.313425 0.0655802 -6.3826e-20)
(0.351847 0.0738935 -1.17647e-20)
(0.390847 0.084336 2.42657e-19)
(0.430234 0.0975425 -2.38004e-19)
(0.470189 0.114809 1.66754e-19)
(0.511388 0.138029 1.85572e-19)
(0.550376 0.161277 3.85537e-20)
(-0.0102102 0.00916052 4.72935e-20)
(-0.0235152 0.0217072 -2.58138e-19)
(-0.0304498 0.0300862 -9.36981e-20)
(-0.0316428 0.0354025 8.55342e-20)
(-0.0276446 0.0385361 -2.63414e-19)
(-0.0189364 0.0401834 -5.19513e-20)
(-0.00592835 0.0408906 3.6011e-20)
(0.0110328 0.0410868 1.42212e-19)
(0.0316512 0.0411115 -3.59963e-19)
(0.0556671 0.0412357 2.73615e-20)
(0.0828433 0.0416784 -1.05192e-19)
(0.112953 0.0426199 -3.19585e-19)
(0.145772 0.0442116 2.17711e-19)
(0.181069 0.0465852 9.31256e-21)
(0.218604 0.0498591 -6.51923e-21)
(0.258129 0.0541466 2.19383e-19)
(0.299391 0.0595623 -3.87945e-19)
(0.342142 0.0662314 3.072e-19)
(0.386151 0.0742992 -5.6801e-20)
(0.431237 0.0839429 1.79463e-19)
(0.47729 0.0953762 -2.95432e-19)
(0.524344 0.10888 1.69743e-19)
(0.572839 0.12501 -3.05008e-19)
(0.623662 0.144331 3.15792e-19)
(0.671895 0.160797 -9.82108e-20)
(-0.0104044 0.00879498 3.18118e-19)
(-0.0232671 0.0205359 -5.18606e-20)
(-0.0289663 0.0282278 3.81802e-19)
(-0.0282482 0.0329999 1.76653e-19)
(-0.0217391 0.0357565 1.41569e-20)
(-0.00997425 0.0372115 7.70559e-20)
(0.00659198 0.0379193 1.85881e-20)
(0.0275747 0.0383114 3.13696e-19)
(0.0526411 0.0387261 1.00995e-19)
(0.0814924 0.0394299 -1.35454e-20)
(0.113848 0.0406338 2.71297e-20)
(0.149431 0.0425061 1.04393e-19)
(0.187961 0.0451815 8.70982e-20)
(0.229146 0.0487685 1.86299e-19)
(0.272683 0.053355 -2.12249e-19)
(0.318258 0.0590131 6.40946e-20)
(0.365557 0.0658026 1.94453e-20)
(0.414274 0.0737745 9.48834e-20)
(0.464131 0.0829714 2.57279e-19)
(0.514899 0.0934257 -1.67763e-19)
(0.566419 0.105146 1.439e-20)
(0.618628 0.118108 -2.38272e-19)
(0.671679 0.132364 2.25868e-19)
(0.725992 0.148156 -2.19639e-19)
(0.776693 0.161653 2.06524e-20)
(-0.0104923 0.0083583 -2.65374e-19)
(-0.0226235 0.0191771 2.02802e-19)
(-0.0267333 0.0261153 -3.2996e-19)
(-0.0236985 0.0303193 2.84523e-20)
(-0.014229 0.0327136 2.31978e-19)
(0.00107883 0.0340266 -3.86277e-19)
(0.0217182 0.0348171 3.06272e-19)
(0.0472551 0.0355151 -4.85716e-19)
(0.0773058 0.0364527 9.67626e-20)
(0.111514 0.0378856 2.06735e-20)
(0.149535 0.0400097 1.63021e-19)
(0.191015 0.042972 -5.41568e-19)
(0.235591 0.0468796 9.3505e-20)
(0.282879 0.0518056 9.9013e-20)
(0.332479 0.0577936 -5.93624e-20)
(0.383977 0.0648612 -3.6816e-19)
(0.43696 0.0730021 1.73337e-19)
(0.491024 0.0821862 3.24488e-19)
(0.545792 0.0923584 -3.42594e-19)
(0.600931 0.103433 2.4865e-19)
(0.656165 0.115281 -3.22946e-19)
(0.711274 0.127716 2.34855e-19)
(0.766134 0.140568 -6.56521e-20)
(0.820801 0.154043 3.75442e-19)
(0.871188 0.166196 -4.30537e-19)
(-0.010452 0.00785023 3.79891e-20)
(-0.0215156 0.0176386 2.9941e-20)
(-0.0236345 0.0237742 7.33166e-20)
(-0.0178304 0.0274103 2.61517e-19)
(-0.00490684 0.0294854 -8.18016e-21)
(0.0144689 0.0307388 5.83917e-20)
(0.0397255 0.031729 2.59775e-19)
(0.070364 0.0328788 1.0478e-19)
(0.10593 0.034508 -3.45032e-20)
(0.145985 0.0368542 2.93667e-19)
(0.19009 0.0400884 -3.34289e-19)
(0.237788 0.0443261 5.12795e-19)
(0.288596 0.0496352 -2.03431e-19)
(0.342006 0.0560412 3.69144e-19)
(0.39749 0.0635327 -1.24634e-19)
(0.454506 0.0720637 4.54577e-20)
(0.512516 0.0815573 5.5084e-20)
(0.570996 0.091906 -1.06564e-19)
(0.629459 0.102972 8.91907e-20)
(0.68746 0.114586 5.73929e-20)
(0.744615 0.126538 7.93724e-20)
(0.800587 0.138573 1.6893e-19)
(0.855094 0.150435 -1.40446e-20)
(0.908016 0.162302 -7.73836e-20)
(0.956361 0.173667 2.35655e-19)
(-0.0102576 0.00727073 -2.22135e-19)
(-0.0198669 0.015931 2.34794e-20)
(-0.0195436 0.0212364 -4.21848e-19)
(-0.0104714 0.0243323 -1.00711e-19)
(0.00644046 0.0261641 -1.88442e-19)
(0.0304404 0.0274757 -4.04045e-20)
(0.0608755 0.0288194 -2.01643e-19)
(0.09716 0.030604 -1.20445e-19)
(0.138741 0.0331281 1.59438e-19)
(0.185069 0.0366013 -2.66047e-19)
(0.235577 0.0411589 -7.38821e-20)
(0.289665 0.046872 2.91233e-21)
(0.3467 0.0537564 -4.99217e-19)
(0.40602 0.0617786 2.12223e-19)
(0.466942 0.0708617 -3.09866e-19)
(0.52878 0.0808908 -9.6839e-21)
(0.590865 0.0917179 6.12512e-20)
(0.65256 0.103166 -9.92962e-20)
(0.713279 0.115033 -8.71174e-20)
(0.772502 0.127095 4.37348e-20)
(0.829783 0.139104 4.90875e-20)
(0.884744 0.15079 -3.17804e-19)
(0.937061 0.161887 1.81356e-19)
(0.986571 0.17253 9.23018e-20)
(1.03135 0.183218 2.61837e-20)
(-0.0098797 0.00662048 2.27317e-19)
(-0.017593 0.0140688 -2.42462e-19)
(-0.0143267 0.0185408 3.39892e-19)
(-0.0014439 0.0211556 5.28231e-20)
(0.0200248 0.022855 -1.6196e-20)
(0.0492257 0.0243804 -1.14094e-19)
(0.0854012 0.0262689 1.71557e-20)
(0.12785 0.0289057 1.73331e-19)
(0.175888 0.0325576 -2.39042e-19)
(0.228816 0.0373931 2.50972e-19)
(0.2859 0.0434974 -2.64977e-20)
(0.346363 0.0508831 1.16678e-20)
(0.409392 0.0595 3.26275e-19)
(0.474146 0.0692435 4.3736e-19)
(0.539778 0.0799633 -1.71096e-19)
(0.60546 0.0914723 3.04308e-19)
(0.670405 0.103555 1.54937e-19)
(0.733893 0.115976 -9.45913e-20)
(0.795287 0.128488 3.00836e-19)
(0.854046 0.140837 -1.10598e-20)
(0.909735 0.152768 -2.90214e-19)
(0.962013 0.16403 3.07245e-19)
(1.01062 0.174385 4.49213e-20)
(1.05545 0.183935 -1.91786e-19)
(1.09548 0.193818 6.01241e-20)
(-0.00928514 0.00590156 -3.16392e-19)
(-0.0146035 0.012071 3.3055e-19)
(-0.00784464 0.0157348 -2.09701e-19)
(0.00942976 0.0179619 -6.54498e-20)
(0.0360489 0.0196773 -1.46341e-19)
(0.0710331 0.0216095 2.58682e-19)
(0.11349 0.0242698 -1.50106e-19)
(0.162568 0.0280066 -6.87524e-20)
(0.217411 0.03304 -1.9676e-19)
(0.277128 0.0394816 5.08755e-21)
(0.34078 0.0473497 -7.69367e-20)
(0.407382 0.056582 3.74661e-20)
(0.475915 0.0670481 -3.94275e-19)
(0.545353 0.0785618 1.12322e-19)
(0.614693 0.0908943 -1.35727e-19)
(0.682987 0.103788 -1.09573e-19)
(0.749374 0.116967 3.38046e-20)
(0.813102 0.130153 -1.60363e-19)
(0.873546 0.143073 -6.93796e-20)
(0.93022 0.155469 1.99034e-19)
(0.982773 0.167105 8.49978e-20)
(1.03098 0.177769 -3.60839e-19)
(1.07472 0.187276 2.66351e-19)
(1.11402 0.195724 -5.04975e-20)
(1.14855 0.204575 -1.05114e-19)
(-0.00843793 0.0051182 -1.15408e-19)
(-0.0108036 0.00996332 -6.17205e-20)
(4.31656e-05 0.0128755 -1.23441e-20)
(0.0223214 0.0148449 9.01537e-20)
(0.0546968 0.0167631 9.80349e-20)
(0.0960342 0.0193322 8.53307e-20)
(0.14527 0.0230226 1.0607e-19)
(0.201357 0.0281293 1.6184e-19)
(0.263223 0.0348074 2.47244e-19)
(0.329745 0.0430921 2.44521e-19)
(0.399743 0.0529156 1.29074e-19)
(0.471997 0.0641238 -3.46468e-20)
(0.545279 0.0764933 8.67021e-21)
(0.618388 0.0897493 -1.19025e-20)
(0.690198 0.103584 1.02197e-19)
(0.759687 0.117677 -2.75262e-20)
(0.825982 0.131707 3.04215e-19)