/*--------------------------------*- C++ -*----------------------------------*\
  =========                 |
  \\      /  F ield         | OpenFOAM: The Open Source CFD Toolbox
   \\    /   O peration     | Website:  https://openfoam.org
    \\  /    A nd           | Version:  6.0
     \\/     M anipulation  |
\*---------------------------------------------------------------------------*/
FoamFile
{
    version     2.0;
    format      ascii;
    class       volScalarField;
    location    "98";
    object      p;
}
// * * * * * * * * * * * * * * * * * * * * * * * * * * * * * * * * * * * * * //

dimensions      [0 2 -2 0 0 0 0];

internalField   nonuniform List<scalar> 
4000
(
-0.520054
-0.505348
-0.491701
-0.475823
-0.456501
-0.434492
-0.410953
-0.387003
-0.363544
-0.341178
-0.320231
-0.300822
-0.28294
-0.266501
-0.251388
-0.237476
-0.224648
-0.212761
-0.20161
-0.191495
-0.527334
-0.512237
-0.497647
-0.480075
-0.458541
-0.434193
-0.408492
-0.382722
-0.357827
-0.334372
-0.312619
-0.292621
-0.274312
-0.257564
-0.242231
-0.228166
-0.215236
-0.203277
-0.192072
-0.181998
-0.532466
-0.517074
-0.501486
-0.482102
-0.458296
-0.431638
-0.40389
-0.376465
-0.350312
-0.325939
-0.303534
-0.28308
-0.264458
-0.247503
-0.232039
-0.217901
-0.204941
-0.192977
-0.181782
-0.171816
-0.535079
-0.519487
-0.502851
-0.481578
-0.455495
-0.426623
-0.396997
-0.368119
-0.340909
-0.315804
-0.292908
-0.272138
-0.253325
-0.236268
-0.220767
-0.206642
-0.193732
-0.181834
-0.170716
-0.160927
-0.534819
-0.519121
-0.501404
-0.478211
-0.449911
-0.418982
-0.387692
-0.357592
-0.329547
-0.303905
-0.280688
-0.259749
-0.240871
-0.223823
-0.208386
-0.194364
-0.181586
-0.169828
-0.158861
-0.149321
-0.531367
-0.515653
-0.496846
-0.471751
-0.441358
-0.408584
-0.375884
-0.344816
-0.316168
-0.290192
-0.266828
-0.245869
-0.227057
-0.210135
-0.194865
-0.181042
-0.168483
-0.156946
-0.146206
-0.136987
-0.524442
-0.508803
-0.488923
-0.462001
-0.429695
-0.395334
-0.361508
-0.329744
-0.300735
-0.274632
-0.251298
-0.230472
-0.211861
-0.195185
-0.180191
-0.166666
-0.154416
-0.143184
-0.132751
-0.123928
-0.513813
-0.498339
-0.477434
-0.448813
-0.414831
-0.37918
-0.344532
-0.312352
-0.283226
-0.257205
-0.23408
-0.213541
-0.195268
-0.178961
-0.164355
-0.15123
-0.139385
-0.128544
-0.118504
-0.110151
-0.499306
-0.484087
-0.46224
-0.432098
-0.396721
-0.360103
-0.324952
-0.292642
-0.263642
-0.23791
-0.215171
-0.195076
-0.177279
-0.161465
-0.147361
-0.134743
-0.123399
-0.113041
-0.103481
-0.0956714
-0.480807
-0.465934
-0.44326
-0.411823
-0.375366
-0.338126
-0.302794
-0.270636
-0.242002
-0.216762
-0.194585
-0.175087
-0.157903
-0.142708
-0.129224
-0.11722
-0.106478
-0.0966996
-0.0877115
-0.0805229
-0.458264
-0.443831
-0.420477
-0.388009
-0.350814
-0.313304
-0.278114
-0.246382
-0.218346
-0.193796
-0.172349
-0.153598
-0.137163
-0.122712
-0.109962
-0.0986827
-0.0886482
-0.0795506
-0.0712353
-0.0647524
-0.431692
-0.417796
-0.393938
-0.360733
-0.323157
-0.285731
-0.250995
-0.219955
-0.192737
-0.169061
-0.148507
-0.130646
-0.11509
-0.101504
-0.089604
-0.079158
-0.0699363
-0.0616268
-0.054094
-0.0484089
-0.401173
-0.387912
-0.363749
-0.330122
-0.292528
-0.255533
-0.22155
-0.19145
-0.165257
-0.142629
-0.123117
-0.10628
-0.0917256
-0.079119
-0.0681787
-0.0586725
-0.0503689
-0.0429585
-0.0363233
-0.031516
-0.36685
-0.354324
-0.330074
-0.296352
-0.259103
-0.222869
-0.189922
-0.160992
-0.13601
-0.114588
-0.0962527
-0.0805594
-0.0671175
-0.0555955
-0.0457169
-0.0372521
-0.0299719
-0.0235762
-0.0179497
-0.0140619
-0.328928
-0.317236
-0.293129
-0.259647
-0.223091
-0.187933
-0.15628
-0.128727
-0.105126
-0.0850461
-0.0680049
-0.0535574
-0.0413204
-0.0309718
-0.0222444
-0.0149157
-0.00876471
-0.00350265
0.00101034
0.00394683
-0.287668
-0.27691
-0.253182
-0.220267
-0.184739
-0.150948
-0.120823
-0.0948321
-0.0727562
-0.0541358
-0.0384835
-0.0253617
-0.0144001
-0.00529173
0.00221459
0.00832778
0.0132555
0.0172694
0.0205357
0.0223499
-0.243383
-0.233654
-0.210543
-0.178513
-0.144326
-0.112165
-0.0837761
-0.0595076
-0.0390793
-0.0220116
-0.00781946
0.00392172
0.0135634
0.021389
0.0276258
0.032466
0.0360998
0.0387405
0.0404875
0.0407069
-0.196429
-0.187821
-0.16556
-0.134717
-0.102158
-0.0718641
-0.0453934
-0.0229827
-0.0043
0.0111474
0.0238376
0.0341777
0.0424933
0.0490337
0.0539914
0.0575378
0.0598203
0.0608669
0.060537
0.0585821
-0.147203
-0.1398
-0.118611
-0.0892379
-0.0585678
-0.0303496
-0.00595494
0.014484
0.0313438
0.0451274
0.0563063
0.0652719
0.0723252
0.0776798
0.081491
0.0838997
0.0849336
0.0842102
0.0812362
0.0771333
-0.0961293
-0.090008
-0.0701002
-0.0424547
-0.0139055
0.0120534
0.0342351
0.0526036
0.0675742
0.0796593
0.0893291
0.096971
0.102882
0.107272
0.110311
0.112153
0.112692
0.111048
0.10653
0.102157
-0.0436598
-0.038886
-0.0204502
0.00523801
0.0314639
0.055006
0.0748569
0.0910667
0.104082
0.114423
0.122557
0.128875
0.133687
0.137242
0.13979
0.141609
0.142661
0.141952
0.139268
0.142933
0.00974812
0.0131165
0.0299091
0.0534392
0.0771703
0.0981645
0.115586
0.129561
0.140559
0.1491
0.155643
0.160571
0.164193
0.166767
0.168562
0.169838
0.170578
0.17032
0.170004
0.175761
0.0636199
0.0655376
0.0805405
0.101745
0.122843
0.141187
0.156102
0.167782
0.176711
0.183402
0.188305
0.19179
0.194159
0.19567
0.196575
0.197093
0.197203
0.196629
0.196315
0.200908
0.11748
0.117916
0.131009
0.149755
0.168117
0.183737
0.196095
0.205436
0.212256
0.217055
0.220265
0.22224
0.223268
0.223593
0.223447
0.223024
0.22232
0.221128
0.220219
0.223248
0.170858
0.169793
0.180885
0.197077
0.212636
0.225493
0.235266
0.242251
0.246942
0.249824
0.25131
0.251732
0.251358
0.250413
0.249103
0.247592
0.245863
0.243738
0.241923
0.243499
0.22329
0.22072
0.229751
0.243331
0.256056
0.266142
0.273335
0.277967
0.280532
0.281495
0.281245
0.280094
0.278288
0.276031
0.273504
0.270846
0.268024
0.264882
0.262084
0.262272
0.274324
0.270263
0.277201
0.288149
0.298049
0.305388
0.310032
0.312344
0.31281
0.311874
0.309902
0.307183
0.303942
0.30036
0.296599
0.292772
0.288836
0.284662
0.28088
0.279758
0.323527
0.318
0.322847
0.331182
0.338299
0.342949
0.345105
0.345154
0.343571
0.340781
0.337125
0.332868
0.328216
0.32333
0.318352
0.313373
0.308348
0.303171
0.298434
0.296069
0.370481
0.363531
0.366319
0.372095
0.376509
0.378558
0.378314
0.376182
0.372626
0.368048
0.362765
0.357023
0.351005
0.344858
0.338703
0.332614
0.326546
0.320415
0.314765
0.311227
0.414792
0.406477
0.407268
0.410575
0.412397
0.411964
0.409433
0.405226
0.399793
0.393513
0.386682
0.379525
0.372208
0.36486
0.357586
0.350446
0.343396
0.336373
0.32986
0.325217
0.45609
0.446482
0.445365
0.446326
0.4457
0.44293
0.438251
0.432096
0.4249
0.417023
0.40874
0.400255
0.391719
0.383246
0.374924
0.366804
0.358844
0.350995
0.343676
0.338003
0.494031
0.483216
0.480309
0.479077
0.476173
0.471236
0.46457
0.456613
0.447788
0.438435
0.428809
0.419098
0.409437
0.399925
0.390639
0.381617
0.372825
0.364222
0.35616
0.349536
0.528297
0.516375
0.511819
0.508576
0.503592
0.496682
0.488207
0.478612
0.468307
0.457612
0.446767
0.435942
0.42526
0.414806
0.404647
0.394811
0.385269
0.375988
0.36725
0.359762
0.558601
0.545685
0.539643
0.534596
0.527753
0.519082
0.508995
0.497942
0.486318
0.47443
0.462499
0.450684
0.439093
0.427804
0.416869
0.406312
0.396108
0.386229
0.376888
0.368629
0.584687
0.5709
0.563558
0.556936
0.548473
0.538272
0.526786
0.514466
0.501699
0.488774
0.475902
0.463228
0.45085
0.438836
0.42723
0.416051
0.405276
0.39488
0.385016
0.376086
0.606331
0.591807
0.583366
0.575417
0.565593
0.554107
0.541447
0.528065
0.514338
0.500545
0.486883
0.473489
0.460452
0.447831
0.435664
0.423963
0.412713
0.401886
0.391581
0.382088
0.623343
0.608224
0.598902
0.58989
0.578978
0.566465
0.552867
0.538636
0.524143
0.509655
0.495363
0.481393
0.46783
0.454725
0.442109
0.429995
0.418366
0.407195
0.396537
0.386596
0.635568
0.620003
0.610028
0.600233
0.588516
0.575245
0.560953
0.546095
0.531034
0.516033
0.501274
0.486879
0.472927
0.459465
0.446519
0.434098
0.42219
0.410767
0.399847
0.389577
0.642887
0.62703
0.61664
0.606349
0.594123
0.580369
0.565635
0.550377
0.534953
0.519624
0.504567
0.489901
0.4757
0.46201
0.448853
0.436238
0.424154
0.412569
0.401481
0.391006
0.645215
0.629224
0.618666
0.608173
0.595737
0.581782
0.566863
0.551435
0.535858
0.52039
0.505206
0.490424
0.476118
0.462331
0.449086
0.43639
0.424231
0.412579
0.40142
0.390866
0.642506
0.626541
0.616063
0.605668
0.593326
0.579454
0.564608
0.549245
0.533725
0.518307
0.50317
0.488431
0.474164
0.460413
0.447203
0.434539
0.422411
0.410784
0.399653
0.389149
0.634751
0.618973
0.608823
0.598826
0.586882
0.573379
0.558866
0.543801
0.528549
0.513374
0.498456
0.483917
0.469834
0.456254
0.443201
0.430685
0.418691
0.407185
0.39618
0.385852
0.621976
0.606544
0.59697
0.587668
0.576424
0.563574
0.549652
0.535118
0.520345
0.505602
0.491076
0.476896
0.463141
0.449863
0.437091
0.424836
0.413081
0.401788
0.391007
0.380982
0.604247
0.589316
0.580559
0.572244
0.561999
0.550081
0.537005
0.523232
0.509145
0.495021
0.481059
0.467392
0.454108
0.441264
0.428894
0.417013
0.4056
0.394615
0.384151
0.374554
0.581665
0.567385
0.559679
0.552634
0.543678
0.532965
0.520984
0.508198
0.494999
0.48168
0.468448
0.455447
0.442774
0.430492
0.418645
0.407249
0.396278
0.385693
0.37564
0.36659
0.554365
0.540882
0.534448
0.528946
0.521557
0.512315
0.501669
0.490089
0.477976
0.46564
0.453301
0.441115
0.429188
0.417595
0.406386
0.395584
0.385157
0.375061
0.365508
0.35712
0.52252
0.509968
0.505016
0.501313
0.495759
0.488239
0.479163
0.468997
0.458161
0.44698
0.43569
0.424462
0.413414
0.40263
0.392173
0.38207
0.372284
0.362766
0.353798
0.346181
0.486335
0.474843
0.471564
0.469898
0.466429
0.460872
0.453584
0.445033
0.435654
0.425791
0.4157
0.405567
0.395523
0.385665
0.376067
0.366766
0.357717
0.348862
0.340559
0.333815
0.446051
0.435732
0.434299
0.434888
0.433736
0.430364
0.42507
0.418322
0.41057
0.40218
0.393428
0.384517
0.375596
0.366774
0.358138
0.349736
0.341515
0.333407
0.325845
0.320068
0.401938
0.392896
0.393459
0.396497
0.397871
0.396888
0.393779
0.389005
0.383037
0.376261
0.368978
0.361409
0.35372
0.346036
0.33846
0.331048
0.323744
0.316463
0.309712
0.304992
0.354297
0.346623
0.349308
0.354962
0.359046
0.360635
0.359882
0.357239
0.353195
0.348163
0.342466
0.336347
0.329989
0.323536
0.317106
0.31077
0.304466
0.29809
0.292216
0.288634
0.30346
0.297229
0.302136
0.310541
0.317494
0.321814
0.323565
0.323191
0.321197
0.318021
0.314012
0.309436
0.304497
0.299356
0.29415
0.288966
0.283738
0.27834
0.273404
0.271037
0.249784
0.245057
0.252258
0.26352
0.273467
0.280651
0.285033
0.287044
0.287204
0.285979
0.283744
0.280789
0.27734
0.273577
0.269659
0.265691
0.261608
0.257254
0.25331
0.252232
0.193655
0.190477
0.200012
0.2142
0.227237
0.237388
0.244503
0.248991
0.25139
0.252191
0.251794
0.250519
0.248611
0.246274
0.243687
0.240981
0.238096
0.234841
0.231938
0.232224
0.135479
0.13388
0.14576
0.162907
0.179095
0.192284
0.202206
0.209241
0.213939
0.216817
0.218304
0.218742
0.218405
0.217517
0.216283
0.214861
0.213201
0.21108
0.209249
0.210974
0.0756872
0.0756806
0.089884
0.109985
0.129347
0.145617
0.158391
0.168015
0.175049
0.180033
0.183421
0.185584
0.186816
0.187366
0.187466
0.187304
0.186847
0.185846
0.185088
0.188344
0.0147277
0.0163111
0.0327844
0.0557966
0.0783195
0.0976784
0.113322
0.125553
0.134934
0.142027
0.147312
0.15118
0.153951
0.155896
0.157276
0.158314
0.158988
0.159014
0.159249
0.164108
-0.0469349
-0.0437793
-0.0251213
0.000719802
0.0263546
0.0487789
0.067281
0.0821118
0.0938314
0.103017
0.110171
0.115704
0.119952
0.123202
0.125738
0.127811
0.129379
0.130075
0.13095
0.137557
-0.108824
-0.104129
-0.0834018
-0.0548515
-0.0261906
-0.000755796
0.0205683
0.0379693
0.051997
0.0632392
0.072213
0.0793442
0.0849751
0.0893962
0.0929103
0.0958187
0.0980852
0.0991297
0.0999958
0.107915
-0.170454
-0.164267
-0.141616
-0.110513
-0.0789466
-0.0505854
-0.0264987
-0.00657359
0.00972188
0.0229813
0.0337336
0.0424152
0.0493717
0.0548817
0.0592312
0.0627446
0.0653699
0.0659164
0.064073
0.0695243
-0.231338
-0.22372
-0.199317
-0.165852
-0.131535
-0.100359
-0.07359
-0.0512007
-0.032686
-0.0174533
-0.00496966
0.00520034
0.013388
0.0198279
0.024709
0.0282118
0.030219
0.0297185
0.0258577
0.0217915
-0.290998
-0.282021
-0.256061
-0.220457
-0.183575
-0.149722
-0.120368
-0.0955848
-0.0748996
-0.0577244
-0.043521
-0.0318474
-0.0223665
-0.0148409
-0.00909782
-0.00497714
-0.00243972
-0.00191304
-0.00402423
-0.00776356
-0.34896
-0.338706
-0.311406
-0.273918
-0.234687
-0.19832
-0.166498
-0.139399
-0.116589
-0.0974855
-0.0815365
-0.0682797
-0.0573474
-0.0484595
-0.0414002
-0.0359737
-0.0320005
-0.0294362
-0.0285145
-0.0297279
-0.404768
-0.39333
-0.364925
-0.325835
-0.284505
-0.245813
-0.211659
-0.182336
-0.157458
-0.136446
-0.118736
-0.103841
-0.0913609
-0.0809748
-0.0724257
-0.0654937
-0.0599484
-0.0555334
-0.0522183
-0.0509234
-0.457992
-0.445471
-0.416212
-0.375828
-0.332677
-0.29188
-0.255554
-0.224122
-0.197252
-0.174379
-0.154929
-0.138395
-0.124354
-0.112454
-0.102412
-0.0939885
-0.0869329
-0.0809204
-0.0758426
-0.0727015
-0.508234
-0.494736
-0.464885
-0.423538
-0.378875
-0.336223
-0.297915
-0.264513
-0.235754
-0.211096
-0.18996
-0.171826
-0.156254
-0.142873
-0.131378
-0.121516
-0.11302
-0.105544
-0.0990024
-0.0945284
-0.555135
-0.540773
-0.510594
-0.468636
-0.422798
-0.37857
-0.338498
-0.303294
-0.272776
-0.246433
-0.223691
-0.204026
-0.186982
-0.172176
-0.159292
-0.148065
-0.138222
-0.129401
-0.121535
-0.115905
-0.598382
-0.583268
-0.553031
-0.510823
-0.464172
-0.418678
-0.377089
-0.340276
-0.308153
-0.280249
-0.256008
-0.234902
-0.216471
-0.200323
-0.186135
-0.173639
-0.162555
-0.152512
-0.143432
-0.136677
-0.637715
-0.621962
-0.591926
-0.549838
-0.502757
-0.456332
-0.4135
-0.375298
-0.341744
-0.312428
-0.286814
-0.264381
-0.244668
-0.22728
-0.211889
-0.198224
-0.186009
-0.174865
-0.164691
-0.156853
-0.672927
-0.656646
-0.62706
-0.585461
-0.538345
-0.491347
-0.44757
-0.40822
-0.373435
-0.342873
-0.316029
-0.292399
-0.271524
-0.25301
-0.236526
-0.2218
-0.20856
-0.196433
-0.185285
-0.17645
-0.703873
-0.687171
-0.658264
-0.617511
-0.570763
-0.523568
-0.479166
-0.43893
-0.403131
-0.371503
-0.343589
-0.318902
-0.296994
-0.277475
-0.260013
-0.244338
-0.230182
-0.217181
-0.205174
-0.195438
-0.730468
-0.713447
-0.685426
-0.645858
-0.599878
-0.552872
-0.508181
-0.467339
-0.430755
-0.398258
-0.369441
-0.343847
-0.321042
-0.300643
-0.282321
-0.265808
-0.250843
-0.237072
-0.22431
-0.213758
-0.752691
-0.735449
-0.708491
-0.670418
-0.625594
-0.579168
-0.534535
-0.49338
-0.456256
-0.423093
-0.39355
-0.367204
-0.343641
-0.322489
-0.303425
-0.286183
-0.270511
-0.256069
-0.242646
-0.231357
-0.770585
-0.753214
-0.727461
-0.691157
-0.647858
-0.602397
-0.558175
-0.51701
-0.479598
-0.445981
-0.415892
-0.388952
-0.364772
-0.342995
-0.323306
-0.305442
-0.289162
-0.274142
-0.260147
-0.248194
-0.784256
-0.766842
-0.742401
-0.708095
-0.666656
-0.622534
-0.579077
-0.538209
-0.500766
-0.466913
-0.436462
-0.409087
-0.384431
-0.362154
-0.341954
-0.323573
-0.306781
-0.29127
-0.276789
-0.264247
-0.793868
-0.776493
-0.753434
-0.721303
-0.68202
-0.639586
-0.59724
-0.556977
-0.519767
-0.485896
-0.455268
-0.427617
-0.402624
-0.379971
-0.359371
-0.340575
-0.323361
-0.307443
-0.292558
-0.279502
-0.799639
-0.782385
-0.76074
-0.730905
-0.694024
-0.653598
-0.612693
-0.573339
-0.536623
-0.502954
-0.472335
-0.444566
-0.419372
-0.396464
-0.375571
-0.356457
-0.33891
-0.322665
-0.307452
-0.293955
-0.801839
-0.784785
-0.764554
-0.737078
-0.702786
-0.664646
-0.62549
-0.587339
-0.551376
-0.518128
-0.4877
-0.459967
-0.434705
-0.411658
-0.390577
-0.371237
-0.353441
-0.336943
-0.321475
-0.307608
-0.800779
-0.784001
-0.765156
-0.740044
-0.708467
-0.672841
-0.635712
-0.599043
-0.564084
-0.531473
-0.501418
-0.473874
-0.448673
-0.425599
-0.404428
-0.384951
-0.366983
-0.350302
-0.334647
-0.320476
-0.796802
-0.780381
-0.762867
-0.740072
-0.711268
-0.678328
-0.643467
-0.608537
-0.574824
-0.54306
-0.513554
-0.486347
-0.461333
-0.438338
-0.417169
-0.397637
-0.379572
-0.362774
-0.346992
-0.332582
0.0881137
0.0584705
0.0374427
0.0285742
0.0209356
0.00984943
-0.00290261
-0.0151497
-0.0265141
-0.0374505
-0.0482442
-0.0588724
-0.069225
-0.0792433
-0.0889231
-0.0982787
-0.107323
-0.11607
-0.124534
-0.132738
0.0353101
0.0229855
0.0126493
0.00616986
0.00116862
-0.00463132
-0.0113637
-0.018127
-0.0243797
-0.0301649
-0.0356947
-0.0410661
-0.0462593
-0.0512308
-0.0559626
-0.0604591
-0.0647297
-0.06878
-0.0726116
-0.0762227
0.0281943
0.0234892
0.0198479
0.0162038
0.0124604
0.00866638
0.00481345
0.000952959
-0.00283154
-0.00651155
-0.010116
-0.0136798
-0.017215
-0.0207175
-0.0241829
-0.027613
-0.0310139
-0.0343923
-0.0377544
-0.0411054
0.0249258
0.0222899
0.020089
0.01732
0.0141778
0.0110742
0.00813502
0.00529618
0.00249634
-0.00027081
-0.00299048
-0.00565479
-0.00826451
-0.0108221
-0.0133287
-0.0157844
-0.0181901
-0.0205469
-0.0228567
-0.0251205
0.0226454
0.020499
0.0189159
0.0171188
0.0150366
0.0129155
0.0109038
0.00899165
0.0071224
0.00526796
0.00342999
0.00161659
-0.000170104
-0.00193321
-0.00367694
-0.00540454
-0.00711839
-0.00882072
-0.0105138
-0.0121998
0.0211349
0.0193956
0.0182496
0.017065
0.0156648
0.0141769
0.0127269
0.0113371
0.00997688
0.00862124
0.00726568
0.00591522
0.00457374
0.00324152
0.00191707
0.00059907
-0.000713178
-0.00202007
-0.00332199
-0.00461922
0.02082
0.0194819
0.0186395
0.0178051
0.0168115
0.0157319
0.0146603
0.0136241
0.0126082
0.0115949
0.0105791
0.00956316
0.00855025
0.00754128
0.00653575
0.00553289
0.00453222
0.00353342
0.00253622
0.00154035
0.0211308
0.0201358
0.0194684
0.0188037
0.0180328
0.0172007
0.0163679
0.0155546
0.0147533
0.0139534
0.0131512
0.0123478
0.0115453
0.0107445
0.00994555
0.00914802
0.00835182
0.00755688
0.00676321
0.0059708
0.0216217
0.0209252
0.0203823
0.0198094
0.0191707
0.0185021
0.0178364
0.0171818
0.0165337
0.0158866
0.0152388
0.0145911
0.0139444
0.0132994
0.0126559
0.0120139
0.0113733
0.0107341
0.010096
0.00945922
0.0219929
0.021529
0.0210876
0.020584
0.0200396
0.0194896
0.0189485
0.018415
0.0178845
0.0173545
0.0168249
0.0162964
0.0157695
0.0152442
0.0147206
0.0141984
0.0136776
0.0131582
0.01264
0.012123
0.0221787
0.0218796
0.0215282
0.0210981
0.020641
0.0201917
0.0197551
0.0193248
0.0188955
0.0184664
0.0180381
0.0176114
0.0171863
0.0167629
0.0163409
0.0159201
0.0155006
0.0150822
0.0146648
0.0142483
0.0222188
0.0220344
0.0217649
0.0214127
0.0210406
0.0206816
0.0203362
0.0199959
0.0196558
0.0193151
0.0189751
0.0186364
0.0182988
0.0179624
0.0176267
0.0172916
0.0169571
0.016623
0.0162892
0.0159556
0.0222051
0.0221129
0.0219219
0.0216478
0.0213568
0.0210803
0.0208174
0.0205587
0.0202993
0.0200389
0.0197786
0.0195188
0.0192595
0.0190003
0.0187409
0.0184812
0.018221
0.0179602
0.0176986
0.017436
0.0221903
0.0221889
0.0220764
0.0218765
0.0216604
0.0214602
0.0212738
0.0210913
0.0209073
0.0207214
0.0205347
0.0203474
0.0201594
0.0199702
0.0197795
0.0195869
0.0193922
0.0191954
0.0189961
0.0187942
0.0222029
0.0223202
0.0223073
0.022193
0.0220598
0.0219445
0.0218443
0.0217473
0.0216469
0.0215424
0.0214346
0.0213239
0.0212098
0.0210918
0.0209693
0.020842
0.0207098
0.0205724
0.0204298
0.0202818
0.0221278
0.0223568
0.0224835
0.0225144
0.0225166
0.0225253
0.0225414
0.0225549
0.0225593
0.0225531
0.0225369
0.022511
0.0224753
0.0224295
0.0223734
0.0223068
0.02223
0.0221429
0.022046
0.0219394
0.0224887
0.0228042
0.0231728
0.0235048
0.023777
0.024002
0.0241947
0.0243608
0.0245004
0.0246124
0.0246971
0.0247557
0.0247897
0.0248005
0.0247894
0.0247576
0.0247063
0.0246368
0.0245503
0.024448
0.0252227
0.0258106
0.0264234
0.0269314
0.0273301
0.0276495
0.0279106
0.0281211
0.0282837
0.0284005
0.0284744
0.028509
0.0285079
0.0284744
0.0284114
0.0283215
0.0282075
0.0280716
0.0279162
0.0277433
0.0366883
0.0404013
0.0417464
0.04121
0.0402563
0.0395599
0.0391058
0.0387092
0.0382737
0.0377967
0.0373032
0.0368091
0.0363175
0.0358269
0.0353364
0.0348467
0.0343591
0.0338747
0.0333942
0.0329184
0.0485335
0.060593
0.0642844
0.0617932
0.0581584
0.0555684
0.0539142
0.0525612
0.0511844
0.0497668
0.0483815
0.0470704
0.0458351
0.0446631
0.0435446
0.0424753
0.0414533
0.0404768
0.0395433
0.0386503
0.121185
0.121682
0.122693
0.124224
0.12627
0.12886
0.132006
0.135756
0.140115
0.145128
0.150768
0.157036
0.163806
0.170927
0.177961
0.184211
0.188119
0.186744
0.173367
0.132932
0.115346
0.115727
0.116438
0.117512
0.118909
0.12067
0.122718
0.125111
0.127711
0.130584
0.133466
0.136408
0.138904
0.140921
0.141466
0.140208
0.135057
0.124619
0.10364
0.0659559
0.107857
0.108069
0.108457
0.109033
0.109769
0.110661
0.111645
0.112694
0.113695
0.114586
0.115167
0.115302
0.114638
0.112895
0.109459
0.103791
0.0949356
0.0821709
0.0648063
0.0431214
0.0993186
0.0993732
0.099474
0.0996142
0.0997809
0.0999386
0.100043
0.100021
0.0997945
0.0992467
0.0982505
0.0966262
0.0941819
0.0906636
0.0858373
0.0794407
0.0713459
0.0614157
0.0495364
0.0347069
0.0903589
0.0903006
0.0901868
0.0900071
0.0897551
0.089391
0.0888822
0.0881555
0.087158
0.0857859
0.0839716
0.0815842
0.0785563
0.0747537
0.0701514
0.0646445
0.058242
0.0507161
0.0417422
0.0303203
0.0815077
0.0813823
0.0811352
0.0807588
0.0802498
0.0795776
0.0787195
0.0776217
0.0762521
0.0745435
0.0724668
0.0699515
0.0669862
0.0635072
0.0595229
0.0549502
0.0497477
0.0436757
0.0364372
0.0272952
0.0731344
0.0729776
0.0726663
0.0721959
0.0715652
0.0707546
0.0697506
0.06852
0.0670458
0.0652902
0.0632424
0.0608648
0.0581561
0.0550751
0.0516195
0.0477216
0.0433454
0.0383429
0.0325499
0.0255045
0.0654485
0.0652841
0.0649569
0.0644636
0.063804
0.0629668
0.0619453
0.0607205
0.0592844
0.0576151
0.0557079
0.0535386
0.0511055
0.0483796
0.0453603
0.0420106
0.0383287
0.0342537
0.0297297
0.0245144
0.0585333
0.0583752
0.0580603
0.0575854
0.0569506
0.0561493
0.0551788
0.0540283
0.0526949
0.0511648
0.0494361
0.0474926
0.045335
0.0429462
0.0403337
0.0374837
0.0344164
0.0311217
0.0276297
0.0239198
0.0523881
0.0522431
0.0519543
0.0515183
0.0509347
0.0501991
0.0493116
0.0482661
0.0470627
0.0456936
0.0441599
0.0424523
0.0405753
0.0385203
0.0363
0.0339116
0.0313856
0.0287404
0.0260644
0.0234836
0.0469651
0.046836
0.0465785
0.0461892
0.0456673
0.0450098
0.0442181
0.0432892
0.0422262
0.0410254
0.0396917
0.0382207
0.0366211
0.0348889
0.0330392
0.031073
0.029025
0.0269265
0.0248931
0.0231161
0.0421958
0.0420824
0.0418566
0.0415149
0.0410563
0.0404789
0.0397853
0.0389747
0.0380521
0.0370166
0.0358755
0.0346284
0.0332869
0.0318515
0.0303399
0.028755
0.0271314
0.0255011
0.0239831
0.0227825
0.0380079
0.0379083
0.0377107
0.0374114
0.0370104
0.0365069
0.035905
0.0352062
0.0344167
0.033537
0.0325748
0.0315308
0.0304178
0.02924
0.0280197
0.0267661
0.0255158
0.0242982
0.0232221
0.0224825
0.0343393
0.0342494
0.0340718
0.0338036
0.0334454
0.0329986
0.0324699
0.0318639
0.0311894
0.0304495
0.0296521
0.0287963
0.0278914
0.0269387
0.0259608
0.0249748
0.0240311
0.023172
0.0225042
0.0221939
0.0311473
0.0310611
0.0308915
0.0306361
0.0302967
0.0298765
0.029385
0.028831
0.0282293
0.0275895
0.0269267
0.0262437
0.0255485
0.0248311
0.0240982
0.0233507
0.0226438
0.0220478
0.0217225
0.0218668
0.0284158
0.0283262
0.0281508
0.0278867
0.0275364
0.0271027
0.0265972
0.02603
0.0254224
0.0247919
0.0241711
0.023581
0.0230552
0.0225921
0.0221939
0.0218092
0.0214358
0.0210918
0.0210058
0.0215112
0.0261553
0.0260572
0.0258639
0.0255719
0.0251834
0.0246986
0.0241269
0.0234743
0.022761
0.0220037
0.0212456
0.0205285
0.0199353
0.0195328
0.0194131
0.01957
0.0199568
0.020379
0.0208436
0.0217527
0.0243981
0.0242903
0.0240727
0.0237429
0.0232998
0.0227428
0.022072
0.0212883
0.020395
0.0193992
0.0183183
0.0171878
0.016082
0.0151341
0.0145671
0.0146845
0.0157961
0.017994
0.0208858
0.0236339
0.0231893
0.0230737
0.022833
0.0224677
0.0219724
0.0213462
0.0205782
0.019665
0.0185875
0.0173392
0.0158895
0.0142335
0.012342
0.0102666
0.00811119
0.00629082
0.00558275
0.00751084
0.0138787
0.025941
0.0225745
0.0224517
0.0221974
0.0218101
0.0212842
0.0206149
0.019789
0.0187941
0.0176047
0.0161945
0.0145143
0.012508
0.0100774
0.00710893
0.00343948
-0.00102545
-0.00610175
-0.0104023
-0.00896111
0.0138895
0.124336
0.124835
0.125959
0.127616
0.129948
0.132857
0.136582
0.140984
0.146434
0.152735
0.160461
0.169321
0.180236
0.192749
0.208431
0.2265
0.249842
0.276964
0.313461
0.356103
0.124557
0.125059
0.126187
0.127851
0.130192
0.133113
0.136852
0.141272
0.146743
0.153069
0.160822
0.169717
0.180666
0.193226
0.208944
0.227063
0.250424
0.277566
0.314001
0.356491
0.124746
0.12525
0.126382
0.128052
0.130401
0.133333
0.137084
0.141519
0.147006
0.153352
0.161125
0.170044
0.18101
0.193593
0.209308
0.227425
0.250709
0.277729
0.313856
0.355786
0.124904
0.125409
0.126545
0.12822
0.130576
0.133516
0.137277
0.141724
0.147223
0.153584
0.161368
0.170302
0.181268
0.193852
0.209525
0.227587
0.250698
0.277459
0.313032
0.354
0.125029
0.125536
0.126675
0.128355
0.130716
0.133663
0.137432
0.141888
0.147395
0.153765
0.161553
0.17049
0.18144
0.194004
0.209596
0.227553
0.250396
0.276762
0.31154
0.351148
0.125123
0.125631
0.126772
0.128456
0.130821
0.133774
0.137548
0.142011
0.147522
0.153896
0.16168
0.17061
0.181528
0.194049
0.209525
0.227325
0.249808
0.275649
0.309389
0.347255
0.125184
0.125694
0.126837
0.128524
0.130892
0.133849
0.137627
0.142092
0.147605
0.153976
0.161751
0.170662
0.181534
0.19399
0.209314
0.226908
0.248942
0.274133
0.306594
0.342346
0.125214
0.125725
0.12687
0.128559
0.130929
0.133889
0.137668
0.142134
0.147644
0.154008
0.161765
0.170647
0.18146
0.193828
0.208969
0.226308
0.247806
0.272227
0.303171
0.336456
0.125213
0.125725
0.12687
0.128561
0.130933
0.133893
0.137672
0.142135
0.147639
0.15399
0.161724
0.170567
0.181308
0.193567
0.208494
0.225531
0.246412
0.269947
0.29914
0.329621
0.12518
0.125694
0.12684
0.128531
0.130903
0.133863
0.13764
0.142098
0.147592
0.153926
0.16163
0.170424
0.18108
0.193208
0.207895
0.224581
0.244771
0.26731
0.294522
0.321886
0.125116
0.125632
0.126778
0.12847
0.130841
0.133799
0.137571
0.142022
0.147503
0.153814
0.161484
0.170218
0.180779
0.192755
0.207177
0.223467
0.242896
0.264334
0.289341
0.3133
0.125022
0.125539
0.126685
0.128378
0.130746
0.133702
0.137468
0.141909
0.147374
0.153658
0.161288
0.169952
0.180409
0.192211
0.206348
0.222194
0.240804
0.261037
0.283625
0.303913
0.124897
0.125416
0.126562
0.128255
0.13062
0.133572
0.13733
0.141759
0.147206
0.153458
0.161043
0.169628
0.179972
0.19158
0.205415
0.220771
0.238512
0.257436
0.277406
0.293781
0.124743
0.125264
0.12641
0.128102
0.130464
0.133411
0.137159
0.141573
0.146999
0.153216
0.160751
0.169249
0.179471
0.190867
0.204384
0.219206
0.236038
0.253551
0.27072
0.282957
0.124559
0.125083
0.126229
0.127919
0.130277
0.133218
0.136956
0.141354
0.146755
0.152932
0.160412
0.168816
0.178909
0.190075
0.203262
0.217506
0.233403
0.249399
0.263612
0.271488
0.124346
0.124874
0.126019
0.127708
0.130061
0.132995
0.136719
0.141099
0.146473
0.152606
0.160026
0.168327
0.178282
0.189201
0.202046
0.215674
0.230617
0.244993
0.256139
0.259413
0.124105
0.124637
0.125782
0.12747
0.129817
0.132742
0.136453
0.140812
0.146156
0.152242
0.159598
0.167789
0.177599
0.188255
0.200748
0.213721
0.227702
0.240346
0.248361
0.246761
0.123836
0.124374
0.125521
0.127209
0.129552
0.132472
0.136171
0.140513
0.145831
0.151874
0.159171
0.167254
0.176925
0.187313
0.199457
0.211739
0.224756
0.235517
0.240321
0.233418
0.123539
0.124085
0.125236
0.126928
0.12927
0.132189
0.135882
0.140215
0.145516
0.151527
0.158777
0.166764
0.176308
0.186434
0.198239
0.209806
0.221859
0.230563
0.232058
0.21865
0.123212
0.12376
0.124905
0.126591
0.128915
0.131816
0.135473
0.139768
0.145003
0.150938
0.158063
0.165896
0.175199
0.184996
0.19632
0.207145
0.218165
0.224978
0.223675
0.202824
0.113702
0.114195
0.115183
0.116604
0.118554
0.120961
0.123995
0.127512
0.131805
0.136576
0.142321
0.148431
0.155718
0.162941
0.171261
0.178135
0.184448
0.184909
0.175462
0.14307
0.114485
0.114978
0.115976
0.117414
0.119398
0.121847
0.124946
0.128538
0.132944
0.137846
0.143786
0.150134
0.157767
0.165443
0.174402
0.18221
0.189809
0.192507
0.186297
0.162339
0.115241
0.115727
0.116726
0.118172
0.120175
0.122649
0.125786
0.129428
0.133901
0.138897
0.144961
0.151495
0.159366
0.16744
0.176902
0.18564
0.194457
0.199573
0.197151
0.180421
0.115975
0.116455
0.117458
0.118915
0.120939
0.123442
0.126621
0.130318
0.134865
0.139962
0.146155
0.152882
0.160996
0.169467
0.179431
0.189061
0.199084
0.206425
0.207686
0.196895
0.116685
0.117162
0.11817
0.11964
0.121687
0.124222
0.127446
0.131201
0.135825
0.141025
0.147352
0.154274
0.162635
0.171495
0.181962
0.192446
0.203674
0.213081
0.217946
0.212642
0.117371
0.117846
0.118861
0.120344
0.122414
0.12498
0.128248
0.132059
0.136757
0.142059
0.148516
0.155625
0.164226
0.173462
0.184424
0.195725
0.20815
0.219505
0.227904
0.227796
0.118032
0.118506
0.119528
0.121025
0.123117
0.125713
0.129023
0.132889
0.137659
0.143058
0.14964
0.15693
0.165763
0.175358
0.186803
0.198881
0.212488
0.225681
0.237494
0.242333
0.118667
0.119141
0.120171
0.121681
0.123796
0.126421
0.129772
0.133691
0.13853
0.144023
0.150724
0.158189
0.167246
0.177183
0.189099
0.201911
0.216671
0.231595
0.246658
0.256215
0.119277
0.119751
0.120788
0.122312
0.124448
0.127102
0.130493
0.134463
0.139369
0.144952
0.151769
0.159399
0.168672
0.178933
0.191305
0.204807
0.220681
0.237231
0.255349
0.269395
0.119859
0.120334
0.12138
0.122916
0.125074
0.127756
0.131184
0.135204
0.140174
0.145844
0.152771
0.160558
0.170038
0.180604
0.193415
0.207561
0.224498
0.242571
0.263533
0.281821
0.120414
0.12089
0.121944
0.123494
0.125672
0.128381
0.131846
0.135913
0.140944
0.146696
0.153729
0.161663
0.171341
0.182191
0.19542
0.210164
0.228104
0.247596
0.271178
0.293438
0.120941
0.121419
0.122481
0.124044
0.126242
0.128977
0.132476
0.136588
0.141677
0.147507
0.154639
0.162713
0.172578
0.183691
0.197314
0.21261
0.231482
0.25229
0.278258
0.304194
0.121439
0.121919
0.122989
0.124565
0.126781
0.129541
0.133073
0.137229
0.142373
0.148275
0.155502
0.163703
0.173744
0.185099
0.19909
0.21489
0.234619
0.256632
0.284748
0.314041
0.121907
0.12239
0.123468
0.125056
0.127291
0.130074
0.133638
0.137833
0.143029
0.148999
0.156313
0.164634
0.174837
0.186413
0.200741
0.216999
0.237502
0.260606
0.290628
0.322936
0.122347