1.275 	2.15223e-18 	-2.76991e-20 	-0.112286 	0.0758469 	-2.88632e-22
1.825 	2.15223e-18 	-1.39322e-20 	-0.248265 	0.109177 	4.09872e-21
2.375 	2.15223e-18 	-2.66896e-23 	-0.179082 	-0.0991015 	-1.86558e-21
