1.275 	2.15223e-18 	-2.76991e-20 	-0.300365
1.825 	2.15223e-18 	-1.39322e-20 	-0.304089
2.375 	2.15223e-18 	1.38775e-18 	-0.31045
2.925 	2.15223e-18 	2.78958e-18 	-0.285134
3.475 	2.15223e-18 	4.53849e-18 	-0.259398
4.025 	2.15223e-18 	6.28755e-18 	-0.247529
4.575 	2.15223e-18 	6.30203e-18 	-0.205492
5.125 	2.15223e-18 	6.31666e-18 	-0.127083
5.675 	2.15223e-18 	6.33144e-18 	-0.0964953
6.225 	2.15223e-18 	4.61166e-18 	-0.0935856
