/*--------------------------------*- C++ -*----------------------------------*\
  =========                 |
  \\      /  F ield         | OpenFOAM: The Open Source CFD Toolbox
   \\    /   O peration     | Website:  https://openfoam.org
    \\  /    A nd           | Version:  6.0
     \\/     M anipulation  |
\*---------------------------------------------------------------------------*/
FoamFile
{
    version     2.0;
    format      ascii;
    class       volScalarField;
    location    "8";
    object      p;
}
// * * * * * * * * * * * * * * * * * * * * * * * * * * * * * * * * * * * * * //

dimensions      [0 2 -2 0 0 0 0];

internalField   nonuniform List<scalar> 
4000
(
-0.317931
-0.320113
-0.321497
-0.322532
-0.323488
-0.324422
-0.325372
-0.326363
-0.32741
-0.328517
-0.329688
-0.330921
-0.332216
-0.333574
-0.335001
-0.336521
-0.338111
-0.339546
-0.340842
-0.344092
-0.318302
-0.320427
-0.321781
-0.322795
-0.323736
-0.324656
-0.325593
-0.326573
-0.327609
-0.328705
-0.329864
-0.331085
-0.332368
-0.333713
-0.335127
-0.336636
-0.338216
-0.339644
-0.340926
-0.344167
-0.319028
-0.321045
-0.322338
-0.323313
-0.324221
-0.325113
-0.326024
-0.32698
-0.327993
-0.329066
-0.330201
-0.331398
-0.332656
-0.333975
-0.335363
-0.336847
-0.338407
-0.339819
-0.341072
-0.344296
-0.320078
-0.32194
-0.323144
-0.32406
-0.324919
-0.325768
-0.32664
-0.327559
-0.328535
-0.329571
-0.330668
-0.331826
-0.333044
-0.334322
-0.335669
-0.337112
-0.338638
-0.340023
-0.341231
-0.344422
-0.321408
-0.323077
-0.324168
-0.325007
-0.3258
-0.32659
-0.327407
-0.328273
-0.329196
-0.330179
-0.331222
-0.332324
-0.333484
-0.334703
-0.33599
-0.337374
-0.338848
-0.340192
-0.341337
-0.344473
-0.322964
-0.324411
-0.32537
-0.326116
-0.326826
-0.32754
-0.328286
-0.329081
-0.329934
-0.330846
-0.331815
-0.332841
-0.333923
-0.335062
-0.336267
-0.337569
-0.338971
-0.340253
-0.341313
-0.344369
-0.324688
-0.325897
-0.326709
-0.327347
-0.327958
-0.328579
-0.329234
-0.32994
-0.330702
-0.331522
-0.332396
-0.333324
-0.334305
-0.33534
-0.336438
-0.337633
-0.338936
-0.340134
-0.341086
-0.344033
-0.326524
-0.327491
-0.328147
-0.328664
-0.329161
-0.329671
-0.330216
-0.33081
-0.33146
-0.332164
-0.33292
-0.333725
-0.334579
-0.335483
-0.336448
-0.337508
-0.338683
-0.339772
-0.340592
-0.3434
-0.328419
-0.329152
-0.329648
-0.330034
-0.330402
-0.330782
-0.331197
-0.331659
-0.332173
-0.332738
-0.333351
-0.334008
-0.334709
-0.335455
-0.336257
-0.337151
-0.338168
-0.339117
-0.33978
-0.342421
-0.330332
-0.330847
-0.331185
-0.331431
-0.331656
-0.331891
-0.332156
-0.332464
-0.332821
-0.333224
-0.333669
-0.334154
-0.334676
-0.335237
-0.335846
-0.336543
-0.337367
-0.338142
-0.338622
-0.34107
-0.332231
-0.332554
-0.33274
-0.332839
-0.33291
-0.332983
-0.33308
-0.333215
-0.333394
-0.333614
-0.333872
-0.334163
-0.334483
-0.334833
-0.335223
-0.33569
-0.336284
-0.336845
-0.337106
-0.339334
-0.334103
-0.334263
-0.334303
-0.334252
-0.334159
-0.334056
-0.33397
-0.333915
-0.333899
-0.333921
-0.333976
-0.334057
-0.334158
-0.334277
-0.334422
-0.334628
-0.334951
-0.33525
-0.335239
-0.337208
-0.335948
-0.335977
-0.33588
-0.335675
-0.335408
-0.335118
-0.334835
-0.334578
-0.334356
-0.33417
-0.334012
-0.333875
-0.333748
-0.333624
-0.333505
-0.333422
-0.333431
-0.333405
-0.333046
-0.334683
-0.337783
-0.33771
-0.337483
-0.33712
-0.336672
-0.336185
-0.335696
-0.335228
-0.334795
-0.334396
-0.334026
-0.33367
-0.333316
-0.332947
-0.332554
-0.332159
-0.33181
-0.331384
-0.33056
-0.331738
-0.339642
-0.339491
-0.339137
-0.338612
-0.337975
-0.337283
-0.336581
-0.335898
-0.335252
-0.334643
-0.334065
-0.3335
-0.332928
-0.332322
-0.331657
-0.330933
-0.330185
-0.329274
-0.327832
-0.328341
-0.341574
-0.341358
-0.340877
-0.340182
-0.339348
-0.338444
-0.337524
-0.336625
-0.335766
-0.334953
-0.334177
-0.333417
-0.332643
-0.331816
-0.330889
-0.329834
-0.328653
-0.327178
-0.324942
-0.324487
-0.343639
-0.34336
-0.342745
-0.341871
-0.340831
-0.339707
-0.338565
-0.337447
-0.336379
-0.335369
-0.334405
-0.333464
-0.332507
-0.331477
-0.330307
-0.32893
-0.327304
-0.325217
-0.32205
-0.320273
-0.345907
-0.345552
-0.34479
-0.343722
-0.342465
-0.341115
-0.339745
-0.338408
-0.337133
-0.33593
-0.334788
-0.333679
-0.332553
-0.331343
-0.32995
-0.328266
-0.326191
-0.323454
-0.319237
-0.315699
-0.348453
-0.347996
-0.347065
-0.345787
-0.344299
-0.342713
-0.341111
-0.339553
-0.338072
-0.33668
-0.335368
-0.334105
-0.332837
-0.331484
-0.329928
-0.328014
-0.325554
-0.322143
-0.316625
-0.310665
-0.351354
-0.350755
-0.349625
-0.348116
-0.346382
-0.344549
-0.342709
-0.340927
-0.339241
-0.337665
-0.336193
-0.334799
-0.333437
-0.332041
-0.330514
-0.328727
-0.326496
-0.323323
-0.317739
-0.310782
-0.354686
-0.353891
-0.352526
-0.35076
-0.348763
-0.346671
-0.344586
-0.342577
-0.340685
-0.338928
-0.337304
-0.335798
-0.334386
-0.333041
-0.331748
-0.330528
-0.329478
-0.328778
-0.329223
-0.336523
-0.358518
-0.357464
-0.355822
-0.353771
-0.35149
-0.349126
-0.346788
-0.344548
-0.342448
-0.340507
-0.33873
-0.337111
-0.335642
-0.334328
-0.333201
-0.332347
-0.331948
-0.332307
-0.334086
-0.340751
-0.362914
-0.361529
-0.359563
-0.357197
-0.354609
-0.351959
-0.349359
-0.346881
-0.344567
-0.342436
-0.340495
-0.338742
-0.337182
-0.335833
-0.334744
-0.334012
-0.333797
-0.334332
-0.335951
-0.340236
-0.367929
-0.366135
-0.363797
-0.361082
-0.358165
-0.355213
-0.35234
-0.349614
-0.347074
-0.344736
-0.342603
-0.340674
-0.338953
-0.33746
-0.336236
-0.335354
-0.334916
-0.335039
-0.335876
-0.337919
-0.37361
-0.371329
-0.368567
-0.365471
-0.3622
-0.358929
-0.355768
-0.352779
-0.349992
-0.347413
-0.345039
-0.342862
-0.34088
-0.339102
-0.337555
-0.336277
-0.335316
-0.334709
-0.334522
-0.33467
-0.379996
-0.37715
-0.373916
-0.370406
-0.366759
-0.363149
-0.35968
-0.356402
-0.353329
-0.350455
-0.347765
-0.34524
-0.342869
-0.340653
-0.338601
-0.336731
-0.335058
-0.333583
-0.332344
-0.331043
-0.387121
-0.383633
-0.379882
-0.375929
-0.371881
-0.36791
-0.364105
-0.360497
-0.357079
-0.35383
-0.350719
-0.347721
-0.344818
-0.342007
-0.339291
-0.336683
-0.334189
-0.331807
-0.329563
-0.327144
-0.395009
-0.390809
-0.386498
-0.382077
-0.377605
-0.373244
-0.369061
-0.36506
-0.361213
-0.357478
-0.353817
-0.3502
-0.346614
-0.34306
-0.339551
-0.336104
-0.332735
-0.329454
-0.326285
-0.322985
-0.403673
-0.398696
-0.393793
-0.388881
-0.383959
-0.379167
-0.374545
-0.370064
-0.365671
-0.361313
-0.356949
-0.352558
-0.348141
-0.343717
-0.339314
-0.334967
-0.330706
-0.326555
-0.322534
-0.318486
-0.413113
-0.407304
-0.401781
-0.396359
-0.390955
-0.385677
-0.380528
-0.375448
-0.370364
-0.36522
-0.359987
-0.354668
-0.349287
-0.343891
-0.338529
-0.333253
-0.328104
-0.323117
-0.318309
-0.313586
-0.423309
-0.416623
-0.410462
-0.404509
-0.398578
-0.392735
-0.386944
-0.381113
-0.375165
-0.369057
-0.362791
-0.356402
-0.349951
-0.343513
-0.337157
-0.330947
-0.324932
-0.319148
-0.313603
-0.308244
-0.434215
-0.426621
-0.419809
-0.4133
-0.406781
-0.400268
-0.393685
-0.386924
-0.379921
-0.372669
-0.365215
-0.35764
-0.350044
-0.342525
-0.335168
-0.328042
-0.321194
-0.314654
-0.308416
-0.30245
-0.445757
-0.437238
-0.429768
-0.422668
-0.415478
-0.408157
-0.400601
-0.392709
-0.384455
-0.375889
-0.367118
-0.358274
-0.34949
-0.340882
-0.332543
-0.324535
-0.316895
-0.309643
-0.302753
-0.296209
-0.457821
-0.448378
-0.440245
-0.432506
-0.424534
-0.416236
-0.407503
-0.398268
-0.388574
-0.37855
-0.368367
-0.358206
-0.348225
-0.338549
-0.329263
-0.320418
-0.312035
-0.304119
-0.296619
-0.289533
-0.470259
-0.459908
-0.451107
-0.442662
-0.433769
-0.424297
-0.414165
-0.403382
-0.392083
-0.380488
-0.368837
-0.357348
-0.346192
-0.335488
-0.325307
-0.315679
-0.306608
-0.298077
-0.290012
-0.282429
-0.482878
-0.471654
-0.462175
-0.452935
-0.442952
-0.432091
-0.42034
-0.407819
-0.394785
-0.381552
-0.368417
-0.355622
-0.343337
-0.331663
-0.320649
-0.3103
-0.300598
-0.291505
-0.282925
-0.274895
-0.495444
-0.483398
-0.473225
-0.463076
-0.451814
-0.43934
-0.425762
-0.411351
-0.396495
-0.381599
-0.367002
-0.352953
-0.339605
-0.327033
-0.315255
-0.30425
-0.293978
-0.284382
-0.275338
-0.26692
-0.507684
-0.494881
-0.483986
-0.472797
-0.460051
-0.445746
-0.430164
-0.413754
-0.397039
-0.3805
-0.364499
-0.349272
-0.334943
-0.321553
-0.309086
-0.297495
-0.286719
-0.276678
-0.267226
-0.258481
-0.519286
-0.505804
-0.494151
-0.48177
-0.467335
-0.451004
-0.433284
-0.414818
-0.396257
-0.378135
-0.360816
-0.344506
-0.329291
-0.31517
-0.302096
-0.289993
-0.27878
-0.268358
-0.258557
-0.24955
-0.529909
-0.515834
-0.503375
-0.489642
-0.473323
-0.454808
-0.434868
-0.414346
-0.394
-0.374392
-0.355865
-0.338584
-0.322585
-0.307829
-0.294232
-0.281695
-0.270118
-0.25938
-0.249292
-0.240093
-0.529862
-0.515787
-0.503328
-0.489597
-0.473279
-0.454766
-0.434827
-0.414308
-0.393964
-0.374358
-0.355833
-0.338553
-0.322556
-0.307801
-0.294206
-0.28167
-0.270094
-0.259358
-0.249271
-0.240073
-0.519236
-0.505754
-0.494101
-0.481721
-0.467288
-0.450958
-0.43324
-0.414777
-0.396219
-0.378098
-0.360781
-0.344473
-0.32926
-0.315141
-0.302068
-0.289967
-0.278755
-0.268335
-0.258535
-0.24953
-0.507631
-0.494828
-0.483934
-0.472745
-0.460001
-0.445697
-0.430117
-0.413709
-0.396997
-0.38046
-0.364461
-0.349236
-0.334909
-0.321521
-0.309056
-0.297467
-0.286693
-0.276654
-0.267203
-0.258459
-0.495389
-0.483343
-0.47317
-0.463022
-0.451761
-0.439288
-0.425712
-0.411303
-0.39645
-0.381556
-0.366962
-0.352915
-0.339569
-0.326999
-0.315223
-0.30422
-0.293951
-0.284356
-0.275314
-0.266897
-0.48282
-0.471597
-0.462118
-0.452878
-0.442896
-0.432037
-0.420287
-0.407769
-0.394737
-0.381506
-0.368374
-0.355581
-0.343298
-0.331627
-0.320615
-0.310268
-0.300568
-0.291478
-0.2829
-0.274872
-0.470199
-0.459849
-0.451048
-0.442603
-0.43371
-0.42424
-0.41411
-0.403328
-0.392032
-0.38044
-0.368791
-0.357304
-0.346151
-0.335449
-0.325271
-0.315646
-0.306577
-0.298048
-0.289986
-0.282405
-0.45776
-0.448316
-0.440184
-0.432445
-0.424474
-0.416177
-0.407445
-0.398212
-0.38852
-0.378498
-0.368318
-0.358159
-0.348181
-0.338507
-0.329225
-0.320382
-0.312003
-0.304089
-0.296592
-0.289508
-0.445694
-0.437175
-0.429705
-0.422606
-0.415416
-0.408096
-0.400541
-0.39265
-0.384398
-0.375834
-0.367066
-0.358224
-0.349443
-0.340838
-0.332502
-0.324497
-0.316861
-0.309612
-0.302725
-0.296184
-0.434151
-0.426558
-0.419746
-0.413236
-0.406718
-0.400205
-0.393623
-0.386863
-0.379861
-0.372612
-0.365159
-0.357587
-0.349994
-0.342478
-0.335125
-0.328002
-0.321158
-0.314622
-0.308386
-0.302424
-0.423244
-0.416558
-0.410397
-0.404444
-0.398513
-0.392671
-0.38688
-0.38105
-0.375103
-0.368997
-0.362732
-0.356345
-0.349898
-0.343462
-0.33711
-0.330904
-0.324893
-0.319114
-0.313572
-0.308218
-0.413047
-0.407239
-0.401715
-0.396294
-0.390889
-0.385611
-0.380463
-0.375382
-0.370299
-0.365156
-0.359925
-0.354608
-0.34923
-0.343837
-0.33848
-0.333207
-0.328063
-0.323081
-0.318277
-0.313559
-0.403606
-0.39863
-0.393726
-0.388815
-0.383893
-0.379101
-0.374478
-0.369997
-0.365604
-0.361247
-0.356884
-0.352495
-0.34808
-0.343659
-0.339261
-0.334918
-0.330662
-0.326516
-0.3225
-0.318458
-0.394941
-0.390742
-0.386431
-0.38201
-0.377538
-0.373176
-0.368992
-0.364991
-0.361143
-0.357409
-0.353748
-0.350133
-0.346549
-0.342999
-0.339494
-0.336051
-0.332688
-0.329413
-0.326249
-0.322955
-0.387052
-0.383566
-0.379814
-0.375862
-0.371813
-0.367841
-0.364035
-0.360426
-0.357007
-0.353757
-0.350647
-0.34765
-0.34475
-0.341941
-0.33923
-0.336626
-0.334138
-0.331763
-0.329525
-0.327114
-0.379927
-0.377082
-0.373848
-0.370338
-0.36669
-0.363079
-0.359609
-0.356329
-0.353254
-0.35038
-0.347689
-0.345165
-0.342797
-0.340583
-0.338536
-0.33667
-0.335004
-0.333537
-0.332305
-0.331011
-0.37354
-0.371261
-0.368499
-0.365403
-0.362131
-0.358858
-0.355695
-0.352704
-0.349914
-0.347334
-0.34496
-0.342783
-0.340803
-0.339028
-0.337485
-0.336213
-0.335258
-0.334659
-0.334481
-0.334637
-0.36786
-0.366067
-0.363729
-0.361014
-0.358095
-0.355141
-0.352265
-0.349537
-0.346994
-0.344654
-0.34252
-0.340591
-0.338872
-0.337382
-0.336163
-0.335286
-0.334855
-0.334987
-0.335833
-0.337886
-0.362846
-0.361462
-0.359496
-0.357129
-0.354539
-0.351887
-0.349284
-0.346802
-0.344485
-0.342352
-0.340409
-0.338656
-0.337097
-0.335751
-0.334667
-0.333941
-0.333734
-0.334277
-0.335906
-0.340203
-0.358452
-0.357399
-0.355756
-0.353704
-0.351421
-0.349054
-0.346713
-0.344468
-0.342364
-0.340421
-0.338642
-0.337022
-0.335555
-0.334243
-0.33312
-0.332273
-0.331882
-0.332251
-0.334042
-0.34072
-0.354622
-0.353828
-0.352463
-0.350695
-0.348695
-0.3466
-0.344511
-0.342497
-0.340601
-0.338841
-0.337215
-0.335708
-0.334297
-0.332954
-0.331665
-0.330452
-0.329411
-0.328722
-0.329179
-0.336494
-0.351294
-0.350696
-0.349565
-0.348053
-0.346316
-0.344479
-0.342634
-0.340848
-0.339158
-0.337578
-0.336104
-0.334708
-0.333347
-0.331953
-0.330431
-0.328651
-0.326429
-0.323267
-0.317697
-0.310754
-0.348398
-0.347941
-0.347008
-0.345728
-0.344237
-0.342646
-0.341039
-0.339476
-0.337991
-0.336595
-0.33528
-0.334016
-0.332748
-0.331398
-0.329847
-0.32794
-0.325489
-0.322089
-0.316585
-0.310639
-0.345858
-0.345502
-0.344739
-0.343668
-0.342407
-0.341052
-0.339677
-0.338335
-0.337056
-0.335849
-0.334704
-0.333593
-0.332468
-0.33126
-0.329872
-0.328195
-0.326129
-0.323404
-0.319201
-0.315678
-0.343597
-0.343316
-0.3427
-0.341822
-0.340778
-0.339649
-0.338501
-0.337379
-0.336307
-0.335292
-0.334326
-0.333384
-0.332427
-0.3314
-0.330235
-0.328865
-0.327249
-0.325173
-0.32202
-0.320257
-0.34154
-0.341321
-0.340838
-0.340139
-0.339301
-0.338392
-0.337467
-0.336563
-0.3357
-0.334884
-0.334105
-0.333345
-0.332572
-0.331747
-0.330825
-0.329777
-0.328606
-0.327142
-0.32492
-0.324479
-0.339617
-0.339462
-0.339105
-0.338575
-0.337934
-0.337237
-0.33653
-0.335844
-0.335193
-0.334582
-0.334001
-0.333437
-0.332866
-0.332263
-0.331603
-0.330887
-0.330148
-0.329248
-0.327819
-0.328341
-0.337766
-0.337689
-0.337457
-0.33709
-0.336638
-0.336146
-0.335653
-0.335182
-0.334745
-0.334344
-0.333972
-0.333617
-0.333264
-0.332899
-0.332512
-0.332123
-0.331784
-0.331369
-0.330558
-0.331747
-0.335939
-0.335963
-0.335861
-0.335652
-0.335381
-0.335087
-0.3348
-0.334539
-0.334315
-0.334127
-0.333969
-0.333832
-0.333707
-0.333588
-0.333474
-0.333398
-0.333417
-0.333401
-0.333054
-0.334701
-0.334102
-0.334256
-0.334291
-0.334237
-0.334139
-0.334032
-0.333942
-0.333885
-0.333867
-0.333887
-0.333942
-0.334024
-0.334128
-0.334252
-0.334402
-0.334616
-0.334948
-0.335256
-0.335257
-0.337236
-0.332238
-0.332553
-0.332734
-0.33283
-0.332897
-0.332966
-0.33306
-0.333193
-0.33337
-0.333589
-0.333848
-0.33414
-0.334464
-0.334818
-0.335214
-0.335688
-0.33629
-0.336862
-0.337133
-0.339371
-0.330344
-0.330852
-0.331185
-0.331427
-0.331649
-0.33188
-0.332143
-0.332449
-0.332804
-0.333207
-0.333654
-0.33414
-0.334666
-0.335231
-0.335847
-0.336551
-0.337382
-0.338167
-0.338657
-0.341115
-0.328436
-0.329161
-0.329653
-0.330035
-0.330399
-0.330777
-0.33119
-0.33165
-0.332164
-0.332729
-0.333343
-0.334002
-0.334707
-0.335457
-0.336265
-0.337166
-0.33819
-0.339148
-0.339821
-0.342471
-0.326544
-0.327504
-0.328155
-0.328669
-0.329163
-0.32967
-0.330213
-0.330807
-0.331456
-0.33216
-0.332918
-0.333725
-0.334583
-0.335492
-0.336461
-0.337528
-0.338711
-0.339808
-0.340637
-0.343453
-0.32471
-0.325912
-0.32672
-0.327355
-0.327963
-0.328582
-0.329236
-0.329941
-0.330703
-0.331523
-0.332398
-0.333329
-0.334313
-0.335352
-0.336455
-0.337657
-0.338966
-0.340173
-0.341133
-0.344088
-0.322986
-0.324426
-0.325381
-0.326125
-0.326833
-0.327545
-0.328289
-0.329084
-0.329937
-0.33085
-0.331821
-0.332849
-0.333934
-0.335077
-0.336287
-0.337594
-0.339002
-0.340292
-0.341359
-0.344422
-0.321429
-0.323091
-0.324179
-0.325016
-0.325807
-0.326596
-0.327412
-0.328278
-0.329201
-0.330185
-0.331229
-0.332333
-0.333496
-0.334719
-0.336009
-0.337398
-0.338878
-0.340227
-0.341379
-0.344522
-0.320096
-0.321953
-0.323155
-0.324069
-0.324926
-0.325774
-0.326646
-0.327564
-0.32854
-0.329577
-0.330675
-0.331834
-0.333055
-0.334336
-0.335686
-0.337133
-0.338663
-0.340053
-0.341267
-0.344463
-0.319041
-0.321055
-0.322346
-0.32332
-0.324226
-0.325118
-0.326029
-0.326985
-0.327997
-0.329071
-0.330207
-0.331405
-0.332665
-0.333986
-0.335377
-0.336863
-0.338426
-0.339842
-0.3411
-0.344327
-0.31831
-0.320434
-0.321786
-0.3228
-0.32374
-0.32466
-0.325596
-0.326576
-0.327612
-0.328708
-0.329868
-0.33109
-0.332374
-0.33372
-0.335136
-0.336647
-0.338229
-0.339659
-0.340943
-0.344187
-0.317934
-0.320115
-0.321499
-0.322533
-0.32349
-0.324424
-0.325373
-0.326364
-0.327411
-0.328519
-0.329689
-0.330922
-0.332218
-0.333576
-0.335004
-0.336525
-0.338115
-0.339551
-0.340848
-0.344098
-0.422064
-0.358359
-0.18819
-0.0554798
0.0118974
0.0503563
0.0479484
0.0415943
0.0336515
0.0275427
0.0216584
0.0166793
0.012737
0.00968274
0.00725761
0.00534148
0.00379511
0.00255475
0.0014505
0.000519313
-0.422851
-0.359356
-0.188959
-0.0559157
0.0115705
0.0501526
0.0478338
0.0415154
0.0336045
0.0275137
0.0216401
0.016667
0.0127294
0.00967848
0.00725523
0.00534007
0.00379425
0.00255421
0.00145026
0.000519136
-0.424349
-0.361306
-0.190485
-0.0567821
0.0109281
0.0497499
0.0476068
0.0413587
0.0335111
0.027456
0.0216034
0.0166425
0.0127142
0.00966996
0.00725046
0.00533725
0.00379255
0.00255315
0.0014498
0.00051878
-0.426379
-0.364074
-0.192713
-0.0580692
0.00998161
0.0491491
0.0472667
0.0411239
0.033372
0.0273704
0.021549
0.016606
0.0126917
0.00965724
0.00724335
0.00533303
0.00378999
0.00255157
0.0014491
0.000518246
-0.428708
-0.367481
-0.195566
-0.0597621
0.00874754
0.0483515
0.0468126
0.040811
0.0331881
0.027258
0.0214776
0.0165579
0.0126619
0.00964042
0.00723392
0.00532742
0.00378658
0.00254945
0.00144818
0.000517537
-0.431076
-0.371326
-0.198962
-0.0618419
0.00724613
0.04736
0.046244
0.0404198
0.0329607
0.0271203
0.0213902
0.0164988
0.0126251
0.00961959
0.00722223
0.00532044
0.00378233
0.00254681
0.00144701
0.000516653
-0.433232
-0.37541
-0.202817
-0.0642865
0.00550059
0.0461791
0.0455605
0.0399504
0.032691
0.0269588
0.0212879
0.0164293
0.0125815
0.00959489
0.00720833
0.00531212
0.00377725
0.00254364
0.00144561
0.000515598
-0.434952
-0.379552
-0.207053
-0.0670714
0.00353612
0.0448156
0.0447627
0.0394033
0.0323804
0.0267752
0.0211717
0.0163499
0.0125316
0.00956648
0.00719229
0.00530248
0.00377135
0.00253995
0.00144398
0.000514376
-0.436063
-0.3836
-0.211603
-0.0701717
0.00137897
0.043279
0.0438522
0.0387791
0.0320302
0.0265711
0.0210431
0.0162613
0.0124757
0.0095345
0.00717421
0.00529157
0.00376464
0.00253575
0.00144212
0.000512992
-0.43644
-0.387435
-0.216412
-0.0735627
-0.000944189
0.0415815
0.0428322
0.0380793
0.0316419
0.0263484
0.0209031
0.0161644
0.012414
0.00949915
0.00715416
0.00527942
0.00375714
0.00253103
0.00144002
0.000511449
-0.436015
-0.390971
-0.221432
-0.0772206
-0.00340694
0.0397379
0.0417072
0.0373057
0.0312166
0.0261084
0.020753
0.0160597
0.012347
0.00946059
0.00713224
0.00526607
0.00374886
0.00252581
0.00143769
0.000509753
-0.434767
-0.394151
-0.226626
-0.0811247
-0.0059849
0.037765
0.0404837
0.0364611
0.0307557
0.0258528
0.0205941
0.0159481
0.012275
0.00941902
0.00710853
0.00525157
0.00373981
0.00252009
0.00143512
0.000507909
-0.432713
-0.396947
-0.231976
-0.0852633
-0.00865999
0.0356794
0.0391688
0.035549
0.0302607
0.0255829
0.0204275
0.0158303
0.0121984
0.00937464
0.00708315
0.00523596
0.00373003
0.00251388
0.00143232
0.000505922
-0.429895
-0.399344
-0.237472
-0.0896344
-0.011419
0.0334987
0.0377713
0.034573
0.0297329
0.0253
0.0202543
0.015707
0.0121177
0.00932765
0.00705622
0.0052193
0.00371953
0.00250719
0.0014293
0.000503799
-0.426363
-0.401287
-0.243046
-0.0942031
-0.0142266
0.0312523
0.0363035
0.0335374
0.0291729
0.0250049
0.0200753
0.0155786
0.012033
0.00927816
0.00702776
0.0052016
0.0037083
0.00250001
0.00142603
0.00050154
-0.422168
-0.40267
-0.248511
-0.0988442
-0.0170031
0.0289871
0.0347829
0.0324477
0.0285813
0.0246975
0.0198904
0.0154452
0.0119442
0.00922602
0.00699769
0.00518278
0.00369629
0.00249229
0.0014225
0.00049914
-0.417381
-0.403633
-0.253926
-0.103548
-0.0197751
0.0266933
0.0332146
0.0313149
0.0279646
0.0243813
0.0197021
0.0153083
0.0118522
0.00917181
0.00696632
0.00516303
0.00368358
0.0024841
0.00141872
0.000496617
-0.41191
-0.404923
-0.260442
-0.109055
-0.0230172
0.0241716
0.0315608
0.0301522
0.0273398
0.0240699
0.0195213
0.0151763
0.0117628
0.00911909
0.00693592
0.0051438
0.00367108
0.00247601
0.001415
0.000494096
-0.404853
-0.40611
-0.268892
-0.116272
-0.0270948
0.0213478
0.0298152
0.0289356
0.0266914
0.0237623
0.0193534
0.0150538
0.0116789
0.00907015
0.00690823
0.00512629
0.00365957
0.00246845
0.00141162
0.00049165
-0.39533
-0.401318
-0.273059
-0.121572
-0.0294505
0.0195126
0.028281
0.0275577
0.0258718
0.0233535
0.0191198
0.0148808
0.011559
0.00899833
0.00686642
0.00509951
0.00364218
0.00245694
0.00140622
0.000488201
-0.337117
-0.341833
-0.259316
-0.127808
-0.0269036
0.0179129
0.0221744
0.0192235
0.0201059
0.0202031
0.017168
0.0133949
0.0105137
0.00835257
0.00647885
0.00484792
0.00347978
0.00234911
0.00135274
0.000457891
-0.255184
-0.267943
-0.217577
-0.119086
-0.0298631
0.00859459
0.00944245
0.00589389
0.0101653
0.0141912
0.0133086
0.0104645
0.00833862
0.00689783
0.00553839
0.00421813
0.00305752
0.00207859
0.0012045
0.000399544
-0.200649
-0.207811
-0.17297
-0.106074
-0.0397385
-0.00469081
0.000116213
-0.00137617
0.00376159
0.00959112
0.010389
0.00835516
0.00666654
0.00566051
0.00468199
0.00362254
0.00264386
0.00180635
0.00105479
0.000354667
-0.151918
-0.15912
-0.136762
-0.0949644
-0.0471386
-0.0131429
-0.00309705
-0.00372522
-0.000517076
0.00510571
0.00712465
0.0060068
0.00476503
0.00416145
0.00360056
0.00287051
0.00212609
0.00146597
0.000861881
0.000287585
-0.115734
-0.123263
-0.111135
-0.0844442
-0.0487993
-0.0184095
-0.00656376
-0.00667622
-0.0048246
0.000586851
0.00385225
0.00386167
0.00313647
0.00284863
0.00261609
0.00217071
0.00163587
0.00113701
0.000674175
0.000227569
-0.0893536
-0.0975226
-0.09107
-0.0729484
-0.0470186
-0.0225166
-0.0104338
-0.00893281
-0.00738761
-0.00261158
0.00112337
0.00193885
0.00164838
0.00159079
0.00161737
0.001438
0.00111861
0.000789015
0.000473119
0.000159739
-0.0702937
-0.0781041
-0.0746864
-0.0625226
-0.0443454
-0.0253782
-0.0136736
-0.0105426
-0.00898004
-0.00507709
-0.00134693
0.000106033
0.000284643
0.000454713
0.000690353
0.000740884
0.000622148
0.000453435
0.000278325
9.53411e-05
-0.056088
-0.063165
-0.0617903
-0.0538893
-0.0411891
-0.0266663
-0.0160205
-0.0118685
-0.0100914
-0.00691425
-0.00342422
-0.00154932
-0.000948074
-0.000567013
-0.000166904
7.60772e-05
0.000141774
0.000127259
8.78621e-05
3.14509e-05
-0.0454582
-0.0518175
-0.051832
-0.0467581
-0.0377771
-0.0267886
-0.0176471
-0.0130504
-0.0109404
-0.00824043
-0.00509344
-0.00300456
-0.00205764
-0.00147633
-0.000939199
-0.000538234
-0.000309188
-0.000180386
-9.21224e-05
-2.87274e-05
-0.0376173
-0.043257
-0.0440799
-0.0408557
-0.0344733
-0.0262381
-0.0186599
-0.0140273
-0.0116075
-0.00918839
-0.00639677
-0.00425187
-0.0030485
-0.00228377
-0.00162747
-0.00109724
-0.000726658
-0.000466968
-0.000260163
-8.50627e-05
-0.0319123
-0.0367981
-0.038025
-0.0360403
-0.0314933
-0.0253185
-0.0191503
-0.0147624
-0.0121506
-0.00988384
-0.00739825
-0.00529284
-0.00391818
-0.00299508
-0.00223303
-0.0015965
-0.00110577
-0.000729279
-0.000414287
-0.000136656
-0.0278093
-0.0319399
-0.0333156
-0.032153
-0.0288948
-0.0242321
-0.019256
-0.0152693
-0.0125955
-0.0104092
-0.00815966
-0.00614071
-0.00466692
-0.00361623
-0.0027608
-0.00203579
-0.00144435
-0.000965647
-0.000553528
-0.00018321
-0.0248751
-0.0283008
-0.0296671
-0.0290344
-0.0266826
-0.0231247
-0.0191128
-0.0155791
-0.0129479
-0.0108141
-0.00873652
-0.00681781
-0.00529836
-0.00415169
-0.00321572
-0.00241648
-0.00174139
-0.00117492
-0.000677214
-0.000224501
-0.0227689
-0.0255807
-0.0268525
-0.0265527
-0.0248392
-0.0220857
-0.0188285
-0.0157327
-0.0132135
-0.0111296
-0.00917425
-0.00734996
-0.0058197
-0.00460571
-0.00360266
-0.00274114
-0.0019971
-0.00135666
-0.000785057
-0.000260471
-0.0212418
-0.0235526
-0.0246976
-0.0246008
-0.0233349
-0.0211644
-0.0184841
-0.0157756
-0.0134027
-0.0113744
-0.00950636
-0.00776185
-0.00624041
-0.00498253
-0.00392587
-0.00301272
-0.00221244
-0.00151091
-0.000876988
-0.000291123
-0.0201337
-0.0220531
-0.0230709
-0.0230935
-0.0221378
-0.0203863
-0.018137
-0.0157498
-0.013529
-0.0115609
-0.00975661
-0.00807503
-0.00657105
-0.00528676
-0.00418907
-0.00323413
-0.0023888
-0.00163807
-0.000953099
-0.000316508
-0.0193436
-0.0209671
-0.0218738
-0.0219633
-0.0212184
-0.0197622
-0.0178263
-0.0156904
-0.0136074
-0.0116984
-0.00994134
-0.0083068
-0.00682186
-0.00552306
-0.00439546
-0.00340796
-0.00252766
-0.0017387
-0.00101358
-0.000336691
-0.0188019
-0.0202138
-0.0210335
-0.0211585
-0.0205515
-0.0192956
-0.0175768
-0.0156242
-0.0136521
-0.0117942
-0.0100716
-0.00847019
-0.00700173
-0.0056958
-0.0045477
-0.00353639
-0.00263044
-0.00181346
-0.00105865
-0.000351743
-0.0184611
-0.0197383
-0.020499
-0.0206415
-0.0201177
-0.0189859
-0.0174039
-0.0155703
-0.013675
-0.0118545
-0.0101548
-0.00857436
-0.00711768
-0.00580869
-0.00464793
-0.00362105
-0.00269828
-0.00186291
-0.00108854
-0.000361712
-0.0182954
-0.0195079
-0.0202386
-0.0203882
-0.0199038
-0.0188317
-0.0173159
-0.0155409
-0.0136845
-0.0118835
-0.0101952
-0.00862506
-0.00717449
-0.00586444
-0.00469766
-0.00366306
-0.002732
-0.00188747
-0.00110341
-0.000366614
-0.187769
-0.197634
-0.207547
-0.217588
-0.227844
-0.238414
-0.249406
-0.260935
-0.273121
-0.286082
-0.299902
-0.314633
-0.330185
-0.346351
-0.362514
-0.377957
-0.391081
-0.401222
-0.406061
-0.409104
-0.122956
-0.126912
-0.130638
-0.134125
-0.137363
-0.140338
-0.143033
-0.145432
-0.147518
-0.149276
-0.150699
-0.1518
-0.152614
-0.153249
-0.153849
-0.154766
-0.156323
-0.159359
-0.164393
-0.173661
-0.0865049
-0.0905556
-0.0946367
-0.0987582
-0.10293
-0.107164
-0.111471
-0.115864
-0.120356
-0.124958
-0.129681
-0.134532
-0.139509
-0.144597
-0.149754
-0.154918
-0.159963
-0.164768
-0.169149
-0.173108
-0.0667197
-0.0693991
-0.0720491
-0.0746718
-0.0772684
-0.0798407
-0.0823902
-0.0849181
-0.0874257
-0.0899144
-0.0923856
-0.094842
-0.0972878
-0.0997307
-0.102185
-0.104674
-0.107246
-0.109971
-0.113029
-0.116726
-0.0504842
-0.0525464
-0.0546171
-0.0566983
-0.0587913
-0.0608981
-0.0630204
-0.0651602
-0.0673193
-0.0694997
-0.0717031
-0.0739312
-0.0761855
-0.0784665
-0.0807748
-0.0831066
-0.0854643
-0.0878381
-0.0902741
-0.0928143
-0.0396003
-0.0412135
-0.0428288
-0.0444462
-0.0460652
-0.047686
-0.0493086
-0.0509336
-0.0525612
-0.0541921
-0.055827
-0.0574667
-0.0591124
-0.0607652
-0.0624277
-0.0641011
-0.0657946
-0.067511
-0.0693034
-0.0712175
-0.0305812
-0.0319163
-0.0332526
-0.0345899
-0.0359279
-0.0372665
-0.038606
-0.0399466
-0.0412887
-0.0426325
-0.0439786
-0.0453273
-0.0466793
-0.0480349
-0.0493952
-0.0507597
-0.0521329
-0.0535123
-0.0549298
-0.0563983
-0.0238827
-0.0250396
-0.0261906
-0.0273355
-0.0284742
-0.0296066
-0.0307332
-0.0318541
-0.0329698
-0.0340807
-0.0351871
-0.0362897
-0.0373891
-0.0384857
-0.0395806
-0.0406738
-0.0417689
-0.0428641
-0.0439831
-0.0451297
-0.0191911
-0.0201898
-0.0211777
-0.0221552
-0.0231224
-0.0240798
-0.0250279
-0.0259673
-0.0268985
-0.0278221
-0.0287385
-0.0296483
-0.0305521
-0.0314503
-0.0323438
-0.0332325
-0.034119
-0.0350012
-0.0358958
-0.0367995
-0.0164985
-0.0173324
-0.0181543
-0.0189647
-0.0197641
-0.0205531
-0.0213323
-0.0221022
-0.0228633
-0.0236161
-0.0243612
-0.0250991
-0.0258302
-0.0265549
-0.0272739
-0.0279872
-0.0286966
-0.0294004
-0.0301102
-0.0308197
-0.0152857
-0.0159471
-0.0165989
-0.0172415
-0.0178753
-0.0185009
-0.0191187
-0.0197291
-0.0203325
-0.0209293
-0.0215198
-0.0221044
-0.0226834
-0.0232571
-0.0238259
-0.0243898
-0.0249501
-0.0255053
-0.0260632
-0.0266172
-0.0150284
-0.0155277
-0.0160212
-0.0165092
-0.016992
-0.0174698
-0.0179428
-0.0184113
-0.0188753
-0.019335
-0.0197907
-0.0202425
-0.0206905
-0.0211348
-0.0215757
-0.0220131
-0.0224478
-0.0228786
-0.0233108
-0.0237384
-0.0151986
-0.0155623
-0.015924
-0.0162837
-0.0166414
-0.0169973
-0.0173511
-0.017703
-0.0180528
-0.0184006
-0.0187464
-0.0190901
-0.0194318
-0.0197714
-0.020109
-0.0204445
-0.0207782
-0.0211094
-0.0214415
-0.0217698
-0.015379
-0.0156483
-0.0159176
-0.0161868
-0.0164559
-0.0167247
-0.016993
-0.0172607
-0.0175276
-0.0177937
-0.0180589
-0.018323
-0.018586
-0.0188478
-0.0191084
-0.0193676
-0.0196255
-0.0198817
-0.0201384
-0.0203924
-0.0154022
-0.0156165
-0.0158309
-0.0160453
-0.0162596
-0.0164737
-0.0166874
-0.0169006
-0.0171132
-0.0173251
-0.0175362
-0.0177464
-0.0179557
-0.0181638
-0.0183709
-0.0185767
-0.0187815
-0.0189847
-0.0191878
-0.0193888
-0.0153775
-0.0155569
-0.0157359
-0.0159144
-0.0160924
-0.0162699
-0.0164467
-0.0166227
-0.016798
-0.0169724
-0.0171459
-0.0173184
-0.0174899
-0.0176603
-0.0178295
-0.0179975
-0.0181644
-0.0183298
-0.0184947
-0.0186579
-0.0154106
-0.0155601
-0.0157093
-0.0158581
-0.0160065
-0.0161545
-0.0163019
-0.0164488
-0.016595
-0.0167404
-0.0168851
-0.017029
-0.0171719
-0.0173139
-0.0174549
-0.0175948
-0.0177336
-0.0178712
-0.018008
-0.0181434
-0.0154607
-0.0155868
-0.0157129
-0.015839
-0.015965
-0.0160909
-0.0162166
-0.0163419
-0.0164668
-0.0165913
-0.0167151
-0.0168384
-0.0169609
-0.0170827
-0.0172037
-0.0173237
-0.0174428
-0.0175609
-0.017678
-0.0177941
-0.0154582
-0.0155724
-0.0156867
-0.015801
-0.0159152
-0.0160293
-0.0161431
-0.0162567
-0.0163698
-0.0164825
-0.0165946
-0.0167061
-0.016817
-0.0169271
-0.0170365
-0.017145
-0.0172525
-0.0173591
-0.0174648
-0.0175694
-0.0154273
-0.0155384
-0.0156492
-0.0157597
-0.0158699
-0.0159798
-0.0160893
-0.0161983
-0.0163068
-0.0164148
-0.0165221
-0.0166289
-0.016735
-0.0168403
-0.0169449
-0.0170486
-0.0171515
-0.0172535
-0.0173545
-0.0174545
-0.0153926
-0.015505
-0.0156171
-0.0157288
-0.0158401
-0.0159511
-0.0160617
-0.0161717
-0.0162812
-0.0163901
-0.0164984
-0.016606
-0.0167129
-0.016819
-0.0169243
-0.0170287
-0.0171323
-0.0172349
-0.0173364
-0.0174371
-0.0154141
-0.0155312
-0.0156482
-0.0157649
-0.0158813
-0.0159975
-0.0161132
-0.0162284
-0.0163431
-0.0164572
-0.0165707
-0.0166834
-0.0167954
-0.0169066
-0.0170168
-0.0171262
-0.0172346
-0.0173419
-0.0174482
-0.0175534
-0.0154445
-0.0155718
-0.015699
-0.015826
-0.0159529