/*--------------------------------*- C++ -*----------------------------------*\
  =========                 |
  \\      /  F ield         | OpenFOAM: The Open Source CFD Toolbox
   \\    /   O peration     | Website:  https://openfoam.org
    \\  /    A nd           | Version:  6.0
     \\/     M anipulation  |
\*---------------------------------------------------------------------------*/
FoamFile
{
    version     2.0;
    format      ascii;
    class       volScalarField;
    location    "102";
    object      p;
}
// * * * * * * * * * * * * * * * * * * * * * * * * * * * * * * * * * * * * * //

dimensions      [0 2 -2 0 0 0 0];

internalField   nonuniform List<scalar> 
12500
(
-0.437927
-0.439905
-0.440923
-0.441399
-0.441617
-0.441662
-0.441607
-0.441509
-0.441401
-0.441303
-0.441224
-0.441171
-0.441144
-0.441147
-0.441181
-0.441245
-0.44134
-0.441464
-0.44161
-0.441773
-0.441958
-0.44215
-0.442207
-0.44203
-0.442896
-0.441543
-0.443956
-0.445259
-0.445966
-0.446406
-0.446669
-0.446824
-0.446921
-0.446988
-0.447035
-0.447064
-0.447074
-0.44706
-0.447021
-0.446954
-0.446857
-0.446731
-0.446575
-0.446386
-0.446164
-0.445918
-0.445637
-0.44518
-0.444469
-0.444796
-0.445667
-0.448473
-0.450044
-0.450979
-0.451649
-0.452141
-0.452519
-0.452827
-0.453082
-0.453286
-0.453432
-0.45351
-0.453508
-0.453418
-0.453234
-0.452953
-0.452576
-0.452104
-0.451539
-0.450886
-0.450161
-0.44936
-0.448345
-0.447058
-0.446803
-0.45037
-0.453513
-0.455328
-0.456485
-0.457387
-0.458119
-0.458735
-0.45927
-0.459731
-0.460109
-0.460386
-0.460541
-0.460555
-0.460413
-0.460103
-0.459622
-0.458969
-0.458148
-0.457167
-0.456038
-0.454787
-0.453416
-0.451796
-0.449893
-0.449012
-0.455708
-0.459115
-0.461141
-0.46251
-0.463646
-0.464626
-0.465495
-0.466276
-0.466964
-0.467535
-0.467961
-0.46821
-0.468251
-0.468062
-0.467625
-0.466933
-0.465984
-0.464787
-0.463353
-0.461705
-0.459879
-0.457888
-0.455614
-0.453051
-0.451498
-0.461712
-0.465298
-0.467496
-0.469062
-0.47043
-0.471665
-0.4728
-0.473845
-0.474779
-0.475567
-0.476165
-0.476528
-0.476615
-0.476392
-0.475834
-0.474927
-0.473672
-0.472076
-0.470158
-0.46795
-0.465502
-0.462838
-0.459858
-0.456585
-0.454312
-0.468386
-0.472056
-0.474382
-0.476125
-0.477718
-0.47921
-0.480621
-0.481945
-0.483146
-0.484173
-0.484967
-0.48547
-0.485625
-0.485387
-0.484722
-0.483609
-0.482044
-0.480036
-0.477609
-0.474805
-0.471687
-0.468297
-0.464553
-0.460514
-0.457468
-0.475702
-0.479355
-0.481758
-0.483655
-0.485459
-0.487207
-0.488898
-0.490512
-0.491995
-0.493282
-0.494297
-0.494964
-0.495215
-0.494987
-0.494236
-0.492932
-0.491063
-0.488638
-0.485685
-0.482255
-0.478425
-0.474253
-0.469685
-0.464815
-0.460937
-0.483598
-0.487134
-0.48956
-0.491581
-0.493578
-0.49557
-0.497539
-0.499446
-0.501222
-0.502783
-0.504038
-0.504894
-0.505265
-0.505075
-0.504264
-0.50279
-0.500633
-0.497798
-0.494312
-0.490234
-0.485654
-0.480649
-0.47519
-0.469412
-0.464635
-0.491986
-0.495306
-0.497699
-0.499809
-0.501972
-0.504189
-0.506424
-0.508617
-0.510685
-0.512526
-0.514031
-0.515093
-0.515607
-0.51548
-0.514636
-0.513019
-0.510597
-0.507365
-0.50335
-0.498612
-0.493253
-0.487367
-0.48095
-0.47418
-0.468428
-0.500747
-0.503761
-0.506066
-0.508224
-0.510519
-0.512931
-0.515407
-0.517869
-0.520215
-0.522329
-0.524085
-0.525357
-0.526026
-0.52598
-0.525126
-0.523391
-0.520729
-0.517124
-0.512593
-0.507196
-0.501039
-0.494233
-0.486794
-0.478941
-0.472134
-0.509747
-0.512376
-0.514539
-0.5167
-0.519083
-0.52165
-0.524331
-0.527029
-0.529626
-0.531989
-0.533978
-0.535453
-0.536274
-0.536315
-0.535464
-0.533631
-0.530753
-0.526799
-0.521773
-0.515727
-0.508769
-0.501016
-0.492503
-0.48348
-0.475535
-0.518838
-0.52102
-0.522989
-0.525105
-0.527525
-0.530198
-0.533033
-0.53592
-0.538724
-0.541297
-0.543487
-0.545135
-0.54609
-0.546208
-0.545358
-0.543435
-0.540356
-0.536073
-0.530575
-0.5239
-0.516149
-0.507443
-0.497821
-0.487552
-0.478394
-0.52787
-0.529562
-0.531293
-0.533312
-0.535714
-0.538432
-0.541361
-0.544376
-0.547327
-0.550055
-0.552393
-0.554171
-0.555221
-0.555385
-0.554518
-0.552495
-0.549217
-0.544618
-0.538667
-0.531386
-0.522863
-0.513213
-0.50247
-0.490907
-0.480475
-0.536703
-0.537882
-0.539336
-0.541207
-0.54353
-0.546226
-0.54918
-0.55225
-0.555278
-0.55809
-0.56051
-0.562354
-0.563443
-0.563606
-0.562682
-0.560533
-0.557042
-0.552124
-0.545731
-0.537865
-0.528596
-0.518028
-0.50618
-0.493307
-0.481563
-0.545212
-0.545874
-0.547021
-0.548696
-0.550879
-0.553483
-0.556384
-0.55943
-0.562453
-0.56527
-0.567692
-0.569528
-0.570586
-0.570684
-0.56965
-0.56733
-0.563593
-0.558339
-0.551502
-0.543064
-0.533076
-0.521627
-0.508715
-0.494553
-0.48149
-0.553295
-0.553456
-0.554276
-0.555711
-0.557694
-0.560135
-0.562904
-0.565843
-0.568775
-0.57151
-0.573851
-0.575596
-0.576545
-0.576505
-0.575293
-0.572744
-0.568716
-0.563094
-0.555798
-0.546792
-0.536108
-0.52382
-0.509904
-0.494509
-0.480149
-0.56088
-0.560572
-0.561056
-0.562212
-0.563939
-0.566148
-0.568708
-0.571458
-0.574214
-0.576781
-0.578954
-0.580524
-0.581283
-0.581027
-0.579566
-0.576724
-0.57235
-0.566318
-0.558536
-0.548957
-0.537594
-0.52451
-0.509663
-0.493123
-0.477517
-0.567926
-0.567196
-0.56734
-0.568187
-0.569609
-0.571524
-0.573804
-0.576287
-0.578787
-0.581104
-0.583027
-0.58434
-0.584829
-0.584282
-0.5825
-0.5793
-0.574522
-0.568034
-0.559736
-0.549572
-0.537543
-0.523705
-0.508005
-0.490432
-0.473659
-0.574426
-0.573326
-0.573137
-0.573653
-0.574729
-0.576297
-0.578234
-0.580381
-0.582552
-0.584544
-0.586142
-0.587125
-0.58727
-0.58636
-0.58419
-0.58057
-0.575334
-0.568346
-0.559503
-0.548744
-0.536063
-0.521513
-0.505044
-0.486568
-0.46873
-0.580405
-0.57899
-0.578481
-0.578649
-0.57935
-0.580527
-0.582069
-0.583822
-0.585601
-0.587204
-0.588411
-0.588997
-0.588734
-0.587399
-0.58478
-0.580684
-0.574943
-0.567419
-0.558008
-0.546652
-0.533344
-0.518135
-0.500992
-0.481763
-0.462976
-0.585913
-0.584239
-0.583425
-0.583238
-0.583542
-0.584297
-0.585403
-0.586715
-0.588052
-0.589212
-0.589973
-0.590105
-0.589376
-0.58756
-0.58444
-0.579822
-0.573537
-0.56545
-0.555464
-0.543523
-0.529626
-0.513833
-0.496134
-0.476329
-0.456715
-0.591027
-0.589141
-0.588038
-0.587496
-0.587391
-0.587702
-0.588344
-0.58918
-0.590036
-0.590709
-0.590977
-0.590607
-0.589364
-0.587017
-0.583352
-0.578174
-0.571319
-0.562659
-0.552105
-0.539609
-0.525176
-0.508874
-0.490722
-0.47047
-0.450142
-0.59584
-0.59378
-0.592405
-0.59151
-0.590991
-0.590847
-0.591007
-0.591344
-0.591689
-0.591841
-0.591578
-0.590664
-0.588862
-0.585944
-0.581696
-0.575931
-0.568497
-0.559277
-0.548197
-0.535221
-0.520356
-0.503656
-0.485093
-0.464313
-0.443317
-0.600458
-0.598248
-0.596613
-0.595371
-0.594441
-0.593838
-0.593508
-0.593331
-0.593143
-0.592747
-0.591919
-0.590423
-0.588024
-0.584495
-0.579633
-0.573264
-0.565255
-0.555515
-0.543999
-0.530708
-0.515675
-0.498952
-0.480408
-0.459575
-0.438672
-0.604992
-0.602641
-0.600754
-0.599174
-0.597838
-0.59678
-0.595956
-0.595256
-0.594521
-0.593553
-0.592129
-0.590016
-0.586979
-0.582803
-0.577295
-0.570304
-0.561724
-0.551501
-0.539636
-0.526189
-0.511277
-0.495059
-0.47768
-0.459757
-0.44433
-0.609553
-0.607056
-0.604919
-0.603006
-0.601273
-0.599765
-0.59845
-0.597223
-0.595926
-0.594364
-0.592314
-0.589546
-0.585832
-0.580967
-0.574779
-0.567143
-0.557983
-0.547284
-0.535089
-0.521503
-0.506689
-0.490856
-0.474258
-0.457556
-0.442729
-0.614245
-0.61158
-0.60919
-0.60695
-0.604827
-0.602878
-0.601075
-0.599315
-0.597443
-0.595263
-0.592554
-0.58909
-0.584655
-0.57906
-0.572155
-0.563844
-0.554087
-0.542902
-0.530369
-0.516623
-0.501846
-0.48626
-0.470108
-0.453856
-0.438716
-0.619158
-0.616296
-0.613642
-0.611077
-0.608571
-0.606186
-0.603895
-0.601596
-0.599132
-0.596307
-0.592902
-0.588699
-0.583497
-0.577126
-0.569466
-0.56045
-0.550072
-0.538384
-0.525493
-0.511548
-0.496739
-0.481272
-0.465355
-0.449323
-0.434016
-0.624372
-0.62127
-0.618338
-0.615447
-0.612561
-0.609742
-0.606961
-0.604111
-0.601033
-0.597529
-0.593386
-0.588397
-0.582379
-0.575188
-0.566734
-0.556985
-0.545968
-0.533763
-0.520497
-0.506332
-0.491451
-0.476046
-0.460291
-0.444447
-0.429112
-0.629946
-0.626556
-0.623328
-0.620106
-0.616838
-0.613583
-0.610303
-0.606884
-0.603162
-0.59894
-0.594013
-0.588188
-0.581304
-0.57325
-0.563969
-0.553465
-0.541796
-0.529069
-0.515426
-0.501035
-0.486073
-0.470715
-0.455116
-0.439493
-0.424288
-0.635924
-0.632196
-0.628647
-0.625085
-0.621431
-0.61773
-0.613935
-0.609922
-0.60552
-0.600534
-0.59477
-0.588056
-0.58026
-0.571304
-0.56117
-0.549897
-0.537575
-0.52433
-0.51032
-0.495712
-0.480678
-0.465376
-0.449943
-0.434572
-0.419585
-0.642329
-0.638213
-0.634321
-0.630408
-0.626354
-0.622193
-0.61786
-0.613217
-0.608089
-0.602287
-0.59563
-0.587974
-0.57922
-0.569331
-0.558327
-0.546282
-0.533313
-0.519568
-0.50521
-0.490404
-0.475313
-0.46008
-0.444828
-0.429726
-0.415007
-0.649172
-0.64462
-0.640361
-0.636081
-0.631613
-0.626968
-0.622063
-0.616748
-0.610841
-0.604162
-0.596554
-0.587903
-0.578152
-0.567305
-0.555422
-0.542612
-0.529015
-0.514793
-0.50011
-0.485129
-0.469998
-0.454846
-0.439778
-0.424948
-0.41051
-0.656446
-0.651416
-0.646768
-0.642104
-0.6372
-0.632041
-0.626523
-0.620481
-0.613733
-0.606113
-0.597493
-0.587798
-0.577017
-0.565196
-0.552436
-0.538876
-0.524676
-0.510004
-0.495025
-0.47989
-0.464734
-0.449668
-0.434781
-0.420208
-0.406042
-0.664134
-0.65859
-0.653532
-0.648465
-0.643098
-0.637387
-0.631204
-0.624371
-0.616712
-0.608083
-0.598391
-0.587607
-0.575768
-0.562968
-0.549343
-0.535056
-0.520282
-0.505192
-0.489943
-0.474675
-0.459504
-0.444523
-0.429806
-0.415468
-0.401552
-0.672204
-0.666116
-0.66063
-0.655142
-0.64928
-0.64297
-0.63606
-0.628365
-0.619718
-0.610007
-0.599185
-0.587273
-0.57436
-0.560583
-0.546112
-0.531128
-0.515815
-0.500338
-0.484846
-0.46946
-0.45428
-0.439379
-0.424815
-0.410686
-0.39699
-0.680611
-0.673958
-0.668031
-0.662099
-0.655705
-0.64874
-0.641033
-0.632392
-0.622677
-0.611813
-0.599806
-0.586736
-0.572742
-0.558001
-0.54271
-0.527065
-0.511247
-0.495416
-0.479703
-0.464213
-0.449026
-0.434197
-0.419769
-0.40582
-0.392314
-0.6893
-0.68207
-0.67569
-0.669291
-0.662321
-0.654637
-0.646049
-0.636377
-0.625508
-0.613422
-0.600185
-0.585935
-0.570862
-0.555179
-0.539102
-0.522833
-0.506548
-0.490392
-0.47448
-0.458896
-0.443703
-0.428937
-0.414626
-0.400829
-0.387486
-0.698201
-0.69039
-0.683549
-0.676656
-0.669059
-0.660581
-0.651025
-0.640227
-0.628122
-0.614751
-0.600246
-0.584807
-0.568668
-0.552072
-0.535248
-0.518395
-0.501679
-0.485228
-0.469136
-0.453469
-0.438268
-0.423556
-0.409345
-0.395676
-0.382473
-0.707232
-0.698843
-0.691535
-0.684118
-0.675837
-0.666483
-0.655862
-0.643843
-0.630422
-0.615711
-0.599913
-0.583287
-0.566106
-0.548634
-0.531106
-0.513712
-0.496601
-0.479882
-0.463628
-0.447885
-0.432677
-0.41801
-0.403885
-0.390324
-0.377243
-0.716295
-0.70734
-0.69956
-0.691586
-0.682554
-0.672235
-0.660449
-0.647117
-0.632307
-0.616213
-0.59911
-0.58131
-0.563121
-0.544818
-0.526631
-0.508738
-0.491269
-0.474308
-0.45791
-0.442099
-0.426883
-0.412256
-0.398207
-0.384736
-0.371765
-0.725279
-0.715776
-0.707521
-0.698951
-0.689096
-0.677716
-0.664665
-0.649932
-0.633672
-0.616166
-0.59776
-0.578814
-0.559658
-0.540573
-0.521777
-0.503429
-0.485635
-0.46846
-0.451933
-0.436064
-0.420843
-0.406252
-0.392271
-0.378879
-0.366011
-0.734058
-0.724033
-0.715298
-0.706088
-0.695333
-0.682794
-0.66838
-0.652168
-0.63441
-0.615479
-0.595788
-0.575733
-0.555662
-0.535849
-0.516494
-0.497735
-0.479653
-0.462287
-0.44565
-0.429732
-0.41451
-0.399956
-0.386038
-0.372717
-0.359951
-0.742492
-0.731977
-0.722758
-0.71286
-0.701121
-0.687326
-0.671459
-0.653701
-0.634416
-0.614064
-0.593118
-0.572006
-0.551077
-0.530593
-0.510733
-0.491607
-0.47327
-0.455742
-0.439012
-0.423057
-0.407841
-0.393326
-0.379471
-0.366219
-0.353556
-0.750429
-0.739461
-0.729752
-0.719113
-0.706306
-0.691161
-0.673761
-0.65441
-0.633586
-0.611834
-0.58968
-0.56757
-0.545848
-0.524754
-0.504442
-0.484993
-0.466438
-0.448773
-0.431972
-0.415993
-0.400793
-0.386324
-0.372534
-0.359351
-0.346798
-0.757705
-0.746328
-0.736121
-0.724685
-0.710726
-0.694144
-0.675147
-0.654173
-0.631817
-0.608706
-0.585404
-0.562365
-0.539918
-0.518279
-0.49757
-0.477844
-0.459107
-0.441334
-0.424482
-0.408497
-0.393324
-0.378909
-0.365192
-0.352082
-0.339651
-0.764148
-0.752408
-0.741696
-0.729405
-0.714214
-0.696121
-0.675479
-0.652874
-0.629015
-0.6046
-0.580223
-0.556332
-0.533235
-0.511116
-0.490066
-0.47011
-0.451229
-0.433377
-0.416498
-0.400525
-0.385395
-0.371048
-0.357413
-0.344385
-0.332087
-0.769579
-0.757527
-0.746298
-0.733096
-0.7166
-0.696936
-0.674624
-0.650401
-0.625088
-0.599442
-0.574072
-0.549413
-0.525744
-0.503214
-0.481882
-0.461743
-0.442756
-0.424858
-0.407978
-0.392039
-0.376971
-0.362707
-0.349166
-0.336231
-0.324084
-0.773816
-0.761503
-0.749749
-0.735581
-0.717718
-0.696441
-0.672454
-0.64665
-0.619952
-0.593163
-0.566893
-0.541556
-0.517396
-0.494525
-0.472969
-0.452697
-0.433645
-0.415736
-0.398883
-0.383003
-0.368017
-0.353855
-0.340424
-0.327596
-0.315618
-0.776676
-0.764157
-0.751866
-0.736684
-0.717405
-0.694495
-0.668854
-0.641529
-0.613531
-0.585698
-0.55863
-0.53271
-0.508142
-0.485002
-0.463283
-0.442929
-0.423856
-0.40597
-0.389177
-0.373383
-0.358503
-0.344464
-0.331163
-0.318459
-0.306672
-0.777976
-0.765305
-0.752471
-0.736234
-0.715506
-0.690966
-0.663716
-0.634949
-0.605756
-0.57699
-0.549233
-0.522828
-0.497939
-0.474604
-0.452785
-0.432401
-0.413351
-0.395529
-0.378828
-0.36315
-0.348404
-0.334512
-0.32136
-0.3088
-0.297228
-0.777541
-0.764774
-0.751389
-0.734067
-0.711879
-0.685734
-0.656943
-0.626837
-0.596567
-0.566989
-0.538656
-0.511868
-0.486746
-0.463291
-0.441436
-0.421077
-0.402099
-0.384381
-0.36781
-0.352279
-0.337696
-0.323978
-0.310999
-0.298606
-0.287273
-0.775204
-0.762395
-0.748459
-0.730035
-0.706394
-0.678695
-0.648455
-0.617128
-0.585912
-0.55565
-0.526859
-0.499793
-0.474529
-0.451031
-0.429205
-0.408929
-0.39007
-0.372501
-0.356098
-0.340751
-0.326363
-0.312847
-0.300066
-0.287864
-0.276798
-0.770807
-0.758012
-0.743528
-0.723999
-0.698934
-0.669757
-0.63818
-0.605769
-0.573747
-0.542938
-0.513811
-0.486573
-0.461257
-0.437794
-0.416066
-0.39593
-0.377243
-0.359868
-0.343675
-0.328548
-0.314389
-0.301107
-0.288552
-0.276568
-0.265797
-0.764211
-0.751482
-0.736461
-0.715839
-0.689404
-0.658845
-0.626065
-0.592718
-0.56004
-0.528822
-0.499484
-0.472181
-0.446906
-0.423558
-0.401996
-0.382061
-0.3636
-0.346466
-0.330526
-0.31566
-0.301766
-0.288751
-0.276452
-0.264715
-0.254267
-0.755288
-0.74268
-0.727138
-0.705455
-0.677723
-0.645901
-0.612067
-0.577945
-0.544768
-0.513284
-0.483858
-0.456599
-0.431458
-0.408306
-0.386979
-0.367308
-0.349127
-0.332286
-0.316645
-0.30208
-0.28849
-0.275776
-0.263765
-0.252305
-0.242212
-0.743934
-0.731497
-0.715462
-0.692765
-0.663831
-0.630885
-0.59616
-0.561432
-0.527915
-0.496309
-0.466923
-0.439816
-0.414902
-0.392026
-0.371007
-0.351662
-0.333819
-0.317322
-0.302026
-0.287807
-0.27456
-0.262185
-0.250496
-0.239345
-0.229637
-0.73006
-0.717848
-0.701354
-0.677708
-0.647688
-0.613773
-0.578331
-0.543172
-0.509479
-0.477895
-0.448673
-0.421826
-0.397232
-0.374714
-0.354075
-0.335121
-0.317674
-0.301573
-0.286672
-0.272844
-0.259982
-0.247984
-0.236652
-0.225845
-0.216553
-0.713605
-0.701668
-0.684759
-0.660246
-0.629272
-0.594558
-0.558584
-0.523172
-0.489466
-0.458047
-0.429113
-0.402632
-0.378451
-0.356372
-0.336184
-0.317687
-0.300696
-0.285046
-0.27059
-0.257198
-0.244766
-0.233184
-0.222247
-0.21182
-0.202975
-0.694528
-0.682916
-0.665647
-0.640364
-0.608585
-0.573251
-0.536933
-0.50145
-0.467892
-0.436779
-0.408255
-0.382244
-0.358568
-0.337008
-0.317345
-0.299369
-0.282893
-0.26775
-0.253791
-0.240884
-0.228925
-0.217802
-0.207298
-0.197289
-0.188923
-0.672812
-0.661574
-0.644008
-0.618067
-0.585645
-0.54988
-0.51341
-0.478034
-0.444784
-0.414115
-0.386117
-0.360679
-0.337597
-0.316637
-0.297569
-0.28018
-0.264281
-0.2497
-0.236289
-0.223917
-0.212478
-0.201857
-0.191828
-0.182276
-0.174422
-0.648465
-0.637651
-0.619858
-0.593385
-0.56049
-0.524488
-0.488058
-0.452966
-0.420178
-0.390086
-0.362729
-0.337962
-0.31556
-0.295277
-0.276876
-0.26014
-0.244876
-0.230915
-0.218105
-0.206317
-0.195446
-0.185373
-0.175863
-0.16681
-0.159499
-0.621519
-0.611178
-0.593238
-0.566367
-0.533179
-0.497135
-0.460936
-0.426299
-0.394122
-0.364733
-0.338126
-0.314125
-0.292487
-0.272956
-0.255289
-0.239269
-0.224701
-0.211415
-0.199261
-0.188108
-0.177854
-0.168377
-0.159431
-0.150922
-0.144188
-0.592032
-0.582211
-0.56421
-0.537085
-0.503786
-0.467897
-0.432114
-0.398097
-0.366672
-0.338107
-0.312353
-0.289207
-0.268412
-0.249704
-0.232838
-0.217594
-0.20378
-0.191225
-0.17978
-0.169315
-0.159729
-0.150897
-0.142565
-0.134647
-0.128522
-0.560084
-0.550829
-0.532859
-0.505628
-0.472405
-0.436862
-0.401675
-0.368435
-0.337895
-0.310267
-0.285461
-0.263254
-0.243375
-0.225557
-0.209553
-0.195145
-0.18214
-0.170371
-0.159687
-0.149963
-0.141097
-0.132963
-0.125301
-0.118026
-0.112545
-0.525778
-0.517135
-0.499291
-0.472108
-0.439145
-0.404135
-0.369714
-0.337399
-0.307869
-0.281281
-0.257512
-0.236318
-0.217423
-0.200556
-0.185471
-0.171952
-0.159808
-0.148875
-0.139006
-0.130076
-0.121984
-0.114604
-0.107671
-0.101101
-0.0963081
-0.489239
-0.481253
-0.463634
-0.436652
-0.40413
-0.369833
-0.33634
-0.305087
-0.276681
-0.251227
-0.228573
-0.208462
-0.190609
-0.174746
-0.160629
-0.148046
-0.136811
-0.126762
-0.117756
-0.109671
-0.10241
-0.095844
-0.089709
-0.0839172
-0.0798675
-0.450614
-0.443325
-0.426031
-0.399405
-0.3675
-0.334087
-0.301672
-0.271606
-0.244427
-0.220193
-0.198724
-0.179753
-0.162993
-0.148179
-0.135071
-0.123462
-0.113174
-0.104049
-0.0959499
-0.0887601
-0.0823837
-0.0766958
-0.0714372
-0.0665131
-0.0632593
-0.410066
-0.403515
-0.386645
-0.360526
-0.329407
-0.297038
-0.26584
-0.237076
-0.211216
-0.188275
-0.168051
-0.150269
-0.134643
-0.12091
-0.10884
-0.0982336
-0.0889184
-0.0807467
-0.0735888
-0.0673345
-0.0618936
-0.0571487
-0.0528535
-0.0488921
-0.046466
-0.367779
-0.362002
-0.345654
-0.320188
-0.290016
-0.258839
-0.228985
-0.201626
-0.177166
-0.155582
-0.136653
-0.120099
-0.105636
-0.0930075
-0.081992
-0.0723993
-0.0640683
-0.0568616
-0.0506608
-0.0453667
-0.0408985
-0.0371518
-0.0339015
-0.0309984
-0.0294546
-0.323948
-0.318979
-0.30325
-0.278577
-0.249501
-0.219653
-0.191257
-0.165394
-0.142406
-0.122232
-0.104639
-0.0893412
-0.0760601
-0.0645468
-0.0545886
-0.046007
-0.0386534
-0.0324043
-0.0271575
-0.0228305
-0.0193552
-0.0166454
-0.0145198
-0.0128376
-0.0124256
-0.278785
-0.274654
-0.259635
-0.235888
-0.208046
-0.179653
-0.152817
-0.12853
-0.107073
-0.0883549
-0.0721291
-0.0581082
-0.0460181
-0.0356179
-0.026705
-0.0191129
-0.0127075
-0.0073838
-0.00306468
0.000305508
0.00277607
0.00439971
0.00522479
0.00523543
0.00392197
-0.23251
-0.229243
-0.215022
-0.192324
-0.165845
-0.139018
-0.113832
-0.0911895
-0.0713159
-0.054091
-0.0392571
-0.0265261
-0.0156279
-0.00632816
0.00156789
0.00821734
0.0137419
0.018227
0.0217193
0.0242392
0.0258069
0.0263821
0.0256656
0.0232622
0.0196345
-0.185355
-0.182974
-0.169632
-0.148097
-0.123095
-0.0979316
-0.0744741
-0.0535363
-0.0352902
-0.01959
-0.00616869
0.00526227
0.0149699
0.0231848
0.030099
0.0358683
0.0406139
0.044419
0.0473252
0.0493561
0.0505465
0.0507443
0.0491222
0.0448626
0.0402112
-0.137558
-0.13608
-0.123689
-0.10342
-0.0799966
-0.0565836
-0.0349215
-0.0157384
0.000843064
0.0149915
0.0269813
0.0371005
0.0456134
0.0527483
0.0586974
0.0636209
0.0676511
0.0708912
0.0734224
0.0753508
0.0768479
0.0778406
0.0772607
0.0745068
0.0778902
-0.0893533
-0.0887934
-0.0774213
-0.05851
-0.0367537
-0.0151637
0.00464736
0.0220346
0.0369209
0.0494947
0.0600353
0.0688291
0.0761365
0.0821821
0.0871565
0.0912206
0.0945105
0.0971393
0.0992095
0.100859
0.102268
0.103395
0.103628
0.103466
0.109347
-0.040986
-0.0413538
-0.0310588
-0.013585
0.00643009
0.0261378
0.044054
0.0596136
0.0727814
0.0837625
0.0928388
0.100294
0.106382
0.111324
0.115306
0.118489
0.121009
0.122984
0.124523
0.125764
0.126859
0.127761
0.128037
0.128264
0.133541
0.00730027
0.00600016
0.0151687
0.0311387
0.0493528
0.0671328
0.0831224
0.0968328
0.108267
0.117643
0.125243
0.131347
0.136201
0.14002
0.142985
0.145251
0.146951
0.1482
0.149107
0.149799
0.150413
0.150911
0.150929
0.150931
0.155096
0.0552641
0.0530316
0.061034
0.0754474
0.0918156
0.107637
0.12168
0.133531
0.143224
0.150989
0.157109
0.161853
0.165463
0.168143
0.170067
0.171383
0.172218
0.172679
0.172866
0.172893
0.172875
0.172766
0.172238
0.17172
0.17484
0.102667
0.099507
0.106313
0.119131
0.133624
0.14747
0.159561
0.169551
0.177507
0.183665
0.188305
0.191689
0.194049
0.19558
0.196448
0.19679
0.196726
0.196354
0.195764
0.195058
0.194328
0.193519
0.192329
0.191183
0.193299
0.149276
0.145197
0.150788
0.161986
0.174589
0.186457
0.196603
0.204745
0.210976
0.21554
0.21871
0.220742
0.221855
0.222236
0.222039
0.221395
0.220412
0.219181
0.217781
0.216299
0.214815
0.21326
0.211367
0.209563
0.210721
0.194862
0.18988
0.194246
0.203814
0.214528
0.224431
0.232652
0.238968
0.243498
0.24649
0.248211
0.248906
0.248785
0.248023
0.246767
0.245136
0.24323
0.24113
0.238907
0.236637
0.234384
0.232078
0.229479
0.227018
0.227263
0.239204
0.233338
0.23648
0.244422
0.253264
0.261229
0.267558
0.272085
0.274949
0.2764
0.2767
0.276084
0.27475
0.272865
0.270563
0.267957
0.265135
0.262172
0.25913
0.256075
0.253061
0.250016
0.246729
0.243628
0.243
0.282091
0.275363
0.277294
0.283628
0.290629
0.296697
0.30118
0.303964
0.305207
0.305161
0.304078
0.302185
0.29967
0.296688
0.293365
0.289803
0.286085
0.282276
0.278432
0.274611
0.270855
0.267095
0.263149
0.25943
0.257968
0.323317
0.315757
0.316499
0.321256
0.326462
0.330687
0.333383
0.334482
0.334159
0.332666
0.330249
0.327122
0.323465
0.319422
0.31511
0.310624
0.306037
0.30141
0.296789
0.292228
0.287759
0.283316
0.278744
0.274434
0.272175
0.362688
0.354328
0.353913
0.35714
0.36061
0.36306
0.364038
0.36352
0.361697
0.358818
0.355121
0.350812
0.34606
0.340999
0.33574
0.330366
0.324947
0.319535
0.314172
0.308902
0.303755
0.298666
0.293503
0.288632
0.285614
0.400019
0.390898
0.389367
0.391121
0.392927
0.393683
0.393024
0.390969
0.387719
0.383523
0.37861
0.373177
0.367384
0.361356
0.355195
0.348979
0.342769
0.336611
0.330544
0.324605
0.318816
0.313121
0.307405
0.302004
0.298266
0.435137
0.425296
0.422701
0.423051
0.423279
0.422431
0.420227
0.416722
0.412128
0.406691
0.400633
0.394142
0.387368
0.38043
0.37342
0.36641
0.359455
0.352597
0.345869
0.339302
0.332914
0.326653
0.320423
0.314524
0.310107
0.46788
0.457365
0.453765
0.452793
0.451539
0.44919
0.445541
0.440682
0.434834
0.428239
0.421113
0.413636
0.405948
0.39816
0.390359
0.382609
0.374961
0.367451
0.360107
0.352957
0.346013
0.33923
0.332527
0.326164
0.32111
0.498097
0.486959
0.482422
0.480219
0.47759
0.47385
0.468867
0.462758
0.455752
0.448089
0.439979
0.431591
0.42306
0.414489
0.405959
0.397528
0.389241
0.381131
0.373221
0.365535
0.358081
0.350819
0.343683
0.336893
0.331249
0.525651
0.513943
0.508544
0.505212
0.501323
0.496314
0.490113
0.482865
0.474805
0.46617
0.457163
0.447947
0.438648
0.429365
0.42017
0.411119
0.402251
0.393595
0.385172
0.376998
0.369082
0.361387
0.35386
0.34668
0.340494
0.550417
0.538196
0.532018
0.527666
0.522643
0.516492
0.509198
0.500928
0.491923
0.482416
0.472605
0.462646
0.452659
0.442737
0.432947
0.42334
0.413952
0.404807
0.395923
0.387314
0.378984
0.370903
0.363027
0.355496
0.34882
0.572284
0.55961
0.552742
0.547486
0.541461
0.534303
0.526047
0.516878
0.507041
0.496767
0.486249
0.475636
0.465044
0.45456
0.444247
0.434151
0.424305
0.41473
0.405442
0.39645
0.387756
0.379337
0.371155
0.363314
0.356203
0.591154
0.57809
0.570625
0.56459
0.557703
0.549679
0.540596
0.530654
0.520104
0.509172
0.498047
0.486873
0.475762
0.464795
0.454032
0.443516
0.433277
0.423334
0.413698
0.404377
0.395372
0.386662
0.378218
0.37011
0.362621
0.606943
0.593555
0.585591
0.578907
0.571302
0.562559
0.552789
0.542207
0.531064
0.519586
0.507957
0.496318
0.484775
0.473407
0.462271
0.451406
0.44084
0.43059
0.420665
0.411071
0.401806
0.392856
0.384194
0.375863
0.368056
0.619582
0.605937
0.597578
0.590378
0.582205
0.572894
0.562581
0.551492
0.539881
0.527971
0.515944
0.503936
0.492052
0.480367
0.468935
0.457794
0.446969
0.436476
0.426322
0.41651
0.40704
0.397898
0.389064
0.380553
0.372491
0.629018
0.615183
0.606534
0.598958
0.590369
0.580643
0.569934
0.558476
0.546523
0.534299
0.52198
0.509704
0.497569
0.485652
0.474003
0.462659
0.451645
0.440972
0.430649
0.420678
0.411056
0.401773
0.392811
0.384168
0.375914
0.635209
0.621257
0.612425
0.604612
0.595764
0.585779
0.574824
0.563135
0.550969
0.538548
0.526047
0.513601
0.50131
0.489245
0.47746
0.465988
0.454852
0.444066
0.433636
0.423562
0.413842
0.404469
0.395426
0.386697
0.378316
0.638133
0.624133
0.615228
0.607322
0.598371
0.588285
0.577233
0.565454
0.553204
0.540704
0.52813
0.515616
0.503261
0.491137
0.479295
0.46777
0.456583
0.445749
0.435273
0.425155
0.415392
0.405979
0.3969
0.388134
0.379692
0.63778
0.623803
0.614934
0.607077
0.598183
0.588154
0.577156
0.565427
0.553222
0.540763
0.528227
0.515746
0.503421
0.491324
0.479506
0.468002
0.456835
0.446018
0.435557
0.425453
0.415703
0.406301
0.397233
0.388475
0.380039
0.634157
0.620273
0.61155
0.603885
0.595205
0.58539
0.574596
0.563058
0.551028
0.538729
0.526339
0.513992
0.501791
0.489807
0.478094
0.466686
0.455609
0.444875
0.434491
0.424459
0.414777
0.405437
0.396424
0.387723
0.379359
0.627283
0.613564
0.605095
0.597763
0.589453
0.580009
0.569569
0.55836
0.546633
0.534613
0.522478
0.510367
0.498381
0.486597
0.475068
0.463832
0.452913
0.442328
0.432082
0.42218
0.412619
0.403391
0.394481
0.385883
0.377657
0.617196
0.603711
0.595602
0.588743
0.580956
0.572037
0.562099
0.551357
0.54006
0.528435
0.516663
0.504886
0.493208
0.481709
0.470444
0.459452
0.448762
0.438388
0.428342
0.418626
0.409241
0.400176
0.391413
0.382965
0.374941
0.603948
0.590764
0.583118
0.576867
0.569755
0.561513
0.55222
0.54208
0.531339
0.520224
0.508921
0.497575
0.486296
0.475165
0.464241
0.453567
0.443173
0.433075
0.423287
0.413815
0.404659
0.395806
0.387234
0.378982
0.371223
0.587605
0.574789
0.567706
0.562193
0.555901
0.548483
0.539978
0.530571
0.520507
0.510015
0.499285
0.488467
0.477674
0.466993
0.456488
0.446202
0.43617
0.426411
0.41694
0.407767
0.398892
0.3903
0.381964
0.373952
0.366518
0.568247
0.555863
0.549438
0.54479
0.539458
0.533007
0.525426
0.516881
0.507613
0.497853
0.487796
0.477598
0.467379
0.457229
0.447215
0.437388
0.427782
0.418423
0.409326
0.400505
0.391964
0.383681
0.375624
0.367894
0.360846
0.545971
0.534079
0.528403
0.524738
0.520502
0.515153
0.508628
0.501069
0.492711
0.483789
0.474503
0.465016
0.455453
0.44591
0.436461
0.427159
0.418043
0.409142
0.400476
0.392061
0.383902
0.375975
0.36824
0.360834
0.354226
0.520886
0.509545
0.504701
0.50213
0.499116
0.495001
0.489657
0.483202
0.475865
0.467882
0.459461
0.45077
0.441943
0.433083
0.424267
0.415555
0.406991
0.398605
0.390423
0.382464
0.374738
0.367213
0.359841
0.352798
0.346685
0.493115
0.482379
0.478445
0.477072
0.475399
0.472638
0.468595
0.463357
0.457144
0.450197
0.442729
0.434918
0.426904
0.418797
0.410681
0.402621
0.394666
0.386851
0.379204
0.371751
0.364504
0.357426
0.350459
0.343816
0.338247
0.462793
0.452714
0.44976
0.449679
0.449456
0.448164
0.445532
0.441616
0.436626
0.430806
0.424376
0.417523
0.410394
0.403107
0.395753
0.388404
0.381113
0.373921
0.36686
0.35996
0.353236
0.346649
0.340127
0.333921
0.328942
0.430071
0.420697
0.418784
0.420079
0.421403
0.421684
0.420567
0.418071
0.414396
0.409787
0.404474
0.398651
0.392474
0.38607
0.379538
0.372954
0.366379
0.359859
0.35343
0.347128
0.340973
0.334918
0.328879
0.323144
0.3188
0.39511
0.386483
0.385666
0.388408
0.391368
0.393316
0.393807
0.39282
0.390544
0.387226
0.383101
0.378374
0.373212
0.367749
0.362092
0.356324
0.350514
0.34471
0.338957
0.333295
0.32775
0.322269
0.316751
0.31152
0.30785
0.358082
0.350241
0.350563
0.354814
0.359486
0.363182
0.365365
0.365969
0.365167
0.363209
0.360339
0.35677
0.352678
0.348208
0.343474
0.338569
0.333566
0.328521
0.323484
0.318501
0.313604
0.308736
0.303776
0.299078
0.296122
0.319171
0.312153
0.313648
0.319455
0.325901
0.331417
0.335363
0.337628
0.338368
0.337833
0.336275
0.333916
0.330944
0.327513
0.323745
0.319743
0.315585
0.311337
0.307051
0.302782
0.298568
0.294349
0.289983
0.285848
0.283641
0.278574
0.272406
0.2751
0.282499
0.290766
0.298159
0.30393
0.307916
0.310256
0.311197
0.311
0.309898
0.308088
0.305733
0.302968
0.299902
0.296621
0.293199
0.289694
0.286169
0.28267
0.279134
0.275395
0.27185
0.270428
0.236493
0.231203
0.235109
0.24412
0.254244
0.263557
0.271201
0.276957
0.280943
0.283405
0.28461
0.284801
0.284187
0.282941
0.281206
0.279101
0.276722
0.274148
0.271448
0.26869
0.265931
0.263107
0.260026
0.257095
0.256492
0.193144
0.188752
0.193874
0.204504
0.216503
0.227765
0.237318
0.244881
0.25055
0.254568
0.257206
0.258718
0.259324
0.259208
0.258522
0.257395
0.255933
0.254222
0.252338
0.250362
0.24836
0.24627
0.243871
0.241576
0.241828
0.148749
0.14527
0.151601
0.163842
0.177719
0.190946
0.202429
0.211825
0.219203
0.224799
0.228892
0.231744
0.233586
0.234611
0.234984
0.234842
0.234299
0.233452
0.232386
0.231192
0.22995
0.228605
0.226904
0.225258
0.226402
0.103537
0.100983
0.108505
0.122335
0.138078
0.153269
0.16669
0.177931
0.187031
0.19422
0.199779
0.20398
0.207063
0.209233
0.210663
0.2115
0.211867
0.211871
0.211607
0.211177
0.21068
0.210069
0.209062
0.208067
0.210143
0.0577452
0.0561224
0.0648073
0.0801881
0.0977693
0.114908
0.130262
0.143348
0.154173
0.162958
0.169985
0.175535
0.179856
0.183162
0.185636
0.187434
0.188687
0.189511
0.19001
0.190301
0.190502
0.190577
0.190222
0.189845
0.192898
0.0116142
0.0109246
0.0207339
0.0376141
0.0569887
0.0760439
0.0933104
0.10823
0.120773
0.131147
0.139635
0.146524
0.15207
0.156497
0.159993
0.162722
0.164823
0.166418
0.16762
0.16856
0.169377
0.170045
0.170227
0.170364
0.17443
-0.0346101
-0.0343693
-0.0234839
-0.00517042
0.0159376
0.0368633
0.0560093
0.0727391
0.0869813
0.0989283
0.108863
0.117075
0.123828
0.129352
0.133841