/*--------------------------------*- C++ -*----------------------------------*\
  =========                 |
  \\      /  F ield         | OpenFOAM: The Open Source CFD Toolbox
   \\    /   O peration     | Website:  https://openfoam.org
    \\  /    A nd           | Version:  6.0
     \\/     M anipulation  |
\*---------------------------------------------------------------------------*/
FoamFile
{
    version     2.0;
    format      ascii;
    class       volScalarField;
    location    "16.2";
    object      p;
}
// * * * * * * * * * * * * * * * * * * * * * * * * * * * * * * * * * * * * * //

dimensions      [0 2 -2 0 0 0 0];

internalField   nonuniform List<scalar> 
8000
(
-0.279203
-0.280324
-0.28105
-0.281571
-0.282007
-0.282378
-0.2827
-0.28299
-0.283257
-0.283509
-0.283752
-0.283993
-0.284236
-0.284488
-0.284754
-0.285043
-0.285362
-0.285682
-0.285989
-0.286598
-0.279348
-0.280461
-0.28118
-0.281695
-0.282125
-0.282489
-0.282804
-0.283087
-0.283346
-0.28359
-0.283825
-0.284057
-0.284291
-0.284533
-0.284789
-0.285069
-0.285378
-0.28569
-0.285988
-0.286593
-0.279636
-0.280732
-0.281437
-0.28194
-0.282357
-0.282708
-0.283009
-0.283276
-0.28352
-0.283747
-0.283964
-0.284178
-0.284392
-0.284614
-0.28485
-0.285111
-0.285402
-0.285696
-0.285976
-0.286572
-0.280063
-0.281134
-0.281821
-0.282305
-0.282702
-0.283031
-0.28331
-0.283554
-0.283773
-0.283974
-0.284164
-0.284349
-0.284533
-0.284724
-0.284929
-0.285159
-0.285421
-0.285688
-0.285939
-0.286522
-0.280627
-0.281666
-0.282327
-0.282786
-0.283156
-0.283456
-0.283705
-0.283917
-0.284101
-0.284266
-0.284418
-0.284561
-0.284703
-0.28485
-0.285011
-0.285197
-0.285419
-0.285647
-0.285859
-0.286424
-0.281321
-0.282324
-0.282953
-0.283381
-0.283716
-0.28398
-0.284189
-0.284358
-0.284498
-0.284615
-0.284716
-0.284806
-0.284892
-0.28498
-0.285082
-0.285209
-0.285376
-0.285552
-0.285714
-0.286254
-0.282143
-0.283104
-0.283697
-0.284087
-0.28438
-0.284598
-0.284758
-0.284875
-0.284959
-0.285017
-0.285054
-0.285075
-0.285089
-0.285102
-0.285127
-0.285179
-0.285273
-0.285382
-0.285479
-0.285988
-0.283089
-0.284006
-0.284557
-0.284902
-0.285145
-0.285309
-0.285411
-0.285465
-0.285482
-0.285467
-0.285426
-0.285364
-0.285289
-0.285209
-0.285137
-0.285092
-0.285093
-0.285115
-0.285132
-0.285602
-0.284158
-0.285028
-0.285532
-0.285825
-0.286011
-0.286111
-0.286145
-0.286127
-0.286066
-0.285967
-0.285835
-0.285674
-0.285492
-0.285298
-0.285107
-0.284941
-0.284824
-0.284734
-0.28465
-0.285072
-0.285353
-0.286172
-0.286623
-0.286857
-0.286976
-0.287005
-0.286963
-0.286864
-0.286715
-0.286522
-0.286287
-0.286013
-0.285707
-0.285379
-0.285044
-0.284728
-0.284462
-0.284228
-0.284015
-0.284375
-0.286676
-0.287439
-0.28783
-0.287998
-0.288043
-0.287993
-0.287867
-0.287679
-0.287436
-0.28714
-0.286793
-0.286395
-0.28595
-0.285468
-0.284964
-0.284467
-0.284014
-0.283594
-0.28321
-0.283485
-0.288135
-0.288835
-0.289158
-0.289251
-0.289214
-0.289077
-0.28886
-0.288578
-0.288235
-0.287833
-0.287369
-0.28684
-0.286246
-0.285593
-0.284895
-0.284184
-0.2835
-0.282838
-0.28222
-0.28237
-0.289736
-0.290365
-0.290611
-0.290619
-0.29049
-0.290258
-0.289945
-0.289565
-0.289121
-0.288612
-0.28803
-0.287368
-0.286621
-0.285787
-0.284875
-0.283915
-0.282949
-0.281975
-0.281033
-0.280986
-0.291492
-0.292037
-0.292195
-0.292106
-0.291875
-0.291539
-0.291123
-0.290641
-0.290096
-0.289481
-0.288786
-0.287996
-0.287098
-0.286079
-0.28494
-0.283701
-0.2824
-0.281029
-0.279635
-0.279275
-0.293414
-0.293862
-0.293917
-0.293717
-0.293371
-0.29292
-0.292393
-0.291804
-0.291156
-0.290439
-0.289636
-0.288727
-0.287685
-0.286487
-0.285115
-0.283575
-0.281889
-0.280026
-0.278016
-0.277158
-0.295516
-0.295851
-0.295785
-0.295458
-0.29498
-0.2944
-0.29375
-0.293046
-0.29229
-0.291471
-0.290566
-0.289544
-0.288371
-0.287004
-0.285406
-0.283554
-0.281446
-0.279003
-0.276188
-0.274577
-0.297816
-0.298018
-0.297812
-0.297337
-0.296707
-0.295978
-0.295189
-0.294357
-0.293484
-0.292556
-0.291548
-0.29042
-0.289125
-0.287605
-0.285796
-0.283642
-0.281103
-0.278036
-0.274257
-0.271566
-0.300335
-0.300382
-0.300013
-0.299365
-0.298558
-0.297657
-0.296707
-0.295727
-0.294722
-0.293674
-0.292556
-0.291322
-0.289914
-0.288258
-0.286262
-0.28383
-0.280873
-0.277166
-0.272276
-0.268038
-0.303101
-0.302968
-0.302407
-0.301558
-0.300546
-0.299447
-0.29831
-0.297159
-0.296
-0.294817
-0.293581
-0.292243
-0.290742
-0.288991
-0.286877
-0.284258
-0.280962
-0.276599
-0.27029
-0.263707
-0.306147
-0.305804
-0.305022
-0.303942
-0.302694
-0.301366
-0.300014
-0.298667
-0.297333
-0.296001
-0.294643
-0.293221
-0.291683
-0.289964
-0.287978
-0.285615
-0.282711
-0.278761
-0.272478
-0.265018
-0.309514
-0.308927
-0.30789
-0.306546
-0.305031
-0.303444
-0.301851
-0.300284
-0.298756
-0.297262
-0.295784
-0.2943
-0.292791
-0.291248
-0.289693
-0.288217
-0.28702
-0.286441
-0.287814
-0.297825
-0.313252
-0.31238
-0.311052
-0.30941
-0.307598
-0.305726
-0.303866
-0.30206
-0.300323
-0.298657
-0.297055
-0.295513
-0.294039
-0.29267
-0.291491
-0.290678
-0.290538
-0.291549
-0.294753
-0.304539
-0.317415
-0.316212
-0.314554
-0.312583
-0.310443
-0.308262
-0.306119
-0.304059
-0.302102
-0.300257
-0.298527
-0.296921
-0.295467
-0.294227
-0.293311
-0.292905
-0.293288
-0.29483
-0.298056
-0.305276
-0.322065
-0.320476
-0.318447
-0.316115
-0.313624
-0.311115
-0.308674
-0.306349
-0.304165
-0.302133
-0.300261
-0.298568
-0.297087
-0.295886
-0.295068
-0.294783
-0.295225
-0.296612
-0.299173
-0.303877
-0.327261
-0.325226
-0.322785
-0.320063
-0.317199
-0.314346
-0.311596
-0.308997
-0.306574
-0.304338
-0.302296
-0.300466
-0.298879
-0.29759
-0.296675
-0.296233
-0.296372
-0.297182
-0.298749
-0.301212
-0.333063
-0.330517
-0.327622
-0.324482
-0.321227
-0.318017
-0.314946
-0.31206
-0.309378
-0.306904
-0.304641
-0.302598
-0.300795
-0.299268
-0.298063
-0.297233
-0.296823
-0.296848
-0.297338
-0.298038
-0.339525
-0.336397
-0.333007
-0.329427
-0.325764
-0.322183
-0.318777
-0.315581
-0.312602
-0.309836
-0.307275
-0.304915
-0.302765
-0.300841
-0.299169
-0.297769
-0.296655
-0.29581
-0.295246
-0.294588
-0.346689
-0.34291
-0.338988
-0.334946
-0.330858
-0.326891
-0.323125
-0.319579
-0.316246
-0.313107
-0.310142
-0.307338
-0.304695
-0.302219
-0.299925
-0.297823
-0.295915
-0.294188
-0.292644
-0.290946
-0.354586
-0.35009
-0.345601
-0.341078
-0.33655
-0.332171
-0.328005
-0.32405
-0.320278
-0.316657
-0.313157
-0.309765
-0.306478
-0.303305
-0.300263
-0.297365
-0.29462
-0.292025
-0.289583
-0.287047
-0.363231
-0.357954
-0.352871
-0.347851
-0.34286
-0.338033
-0.333408
-0.328956
-0.32463
-0.32039
-0.316207
-0.312073
-0.307998
-0.304004
-0.300118
-0.296365
-0.292766
-0.289332
-0.286063
-0.282803
-0.372617
-0.366507
-0.360807
-0.355274
-0.34979
-0.34446
-0.339289
-0.334222
-0.3292
-0.324182
-0.319155
-0.314131
-0.30914
-0.304226
-0.299431
-0.294794
-0.290343
-0.286102
-0.282063
-0.278139
-0.382713
-0.37573
-0.369397
-0.363333
-0.357312
-0.351399
-0.345566
-0.339736
-0.333849
-0.327883
-0.321854
-0.315805
-0.309797
-0.303894
-0.298155
-0.292628
-0.287346
-0.28233
-0.277568
-0.273014
-0.393461
-0.385576
-0.378602
-0.371981
-0.365361
-0.358759
-0.352115
-0.345346
-0.338411
-0.331327
-0.324152
-0.316969
-0.309872
-0.302944
-0.296254
-0.289852
-0.283767
-0.278017
-0.272572
-0.267415
-0.404767
-0.395972
-0.38835
-0.381137
-0.373831
-0.366401
-0.358769
-0.350867
-0.3427
-0.334339
-0.325899
-0.317507
-0.309283
-0.301323
-0.293698
-0.286452
-0.279604
-0.27316
-0.267074
-0.261347
-0.416503
-0.406803
-0.398532
-0.390675
-0.382571
-0.374144
-0.365325
-0.35609
-0.346515
-0.336746
-0.326957
-0.317315
-0.307958
-0.298985
-0.290461
-0.282414
-0.27485
-0.26776
-0.261075
-0.254816
-0.428499
-0.417921
-0.408995
-0.400425
-0.39138
-0.381764
-0.371547
-0.360787
-0.349656
-0.338382
-0.327198
-0.3163
-0.305833
-0.295889
-0.286514
-0.277719
-0.269493
-0.261807
-0.25457
-0.247827
-0.440545
-0.429133
-0.419542
-0.410167
-0.400015
-0.389001
-0.37718
-0.364726
-0.351925
-0.339092
-0.326506
-0.314379
-0.30285
-0.291992
-0.281827
-0.272344
-0.263513
-0.255285
-0.247547
-0.240374
-0.452393
-0.440204
-0.429932
-0.419638
-0.408193
-0.39557
-0.381956
-0.367676
-0.353137
-0.338733
-0.324775
-0.311474
-0.298949
-0.287247
-0.276362
-0.266257
-0.256883
-0.248171
-0.239986
-0.232443
-0.463752
-0.450859
-0.43988
-0.428536
-0.415603
-0.401171
-0.38561
-0.369416
-0.353119
-0.337175
-0.321907
-0.30751
-0.294073
-0.281606
-0.270076
-0.259419
-0.249568
-0.240435
-0.231859
-0.224011
-0.474303
-0.46079
-0.449067
-0.436526
-0.421913
-0.4055
-0.387883
-0.36974
-0.351714
-0.334299
-0.317812
-0.302416
-0.28816
-0.275017
-0.262923
-0.25179
-0.241532
-0.232041
-0.223137
-0.215049
-0.483698
-0.469656
-0.457144
-0.443255
-0.426788
-0.408263
-0.388533
-0.368462
-0.34878
-0.329998
-0.312405
-0.296122
-0.281151
-0.267428
-0.254855
-0.243324
-0.232732
-0.222951
-0.213783
-0.205527
-0.49157
-0.477095
-0.463742
-0.448361
-0.429896
-0.409179
-0.387341
-0.365415
-0.344191
-0.324174
-0.305608
-0.288561
-0.272987
-0.258783
-0.245823
-0.233979
-0.22313
-0.21313
-0.203766
-0.195413
-0.497546
-0.482736
-0.468488
-0.451487
-0.430924
-0.407996
-0.384113
-0.360452
-0.337838
-0.31674
-0.297348
-0.27967
-0.263611
-0.249033
-0.235782
-0.223711
-0.212687
-0.202542
-0.193053
-0.184676
-0.501254
-0.486208
-0.471016
-0.452295
-0.429587
-0.404489
-0.37868
-0.35345
-0.329625
-0.307621
-0.28756
-0.269391
-0.252973
-0.238132
-0.22469
-0.212484
-0.201369
-0.191157
-0.181616
-0.173292
-0.502337
-0.487152
-0.470977
-0.450474
-0.425633
-0.39847
-0.370907
-0.344309
-0.319475
-0.296751
-0.276189
-0.257676
-0.241028
-0.226039
-0.212511
-0.200266
-0.189148
-0.178949
-0.169437
-0.16124
-0.500462
-0.485233
-0.468054
-0.445753
-0.418852
-0.389787
-0.360685
-0.332949
-0.307324
-0.284079
-0.263188
-0.244483
-0.227738
-0.212722
-0.199216
-0.187032
-0.176003
-0.165903
-0.156499
-0.14851
-0.495332
-0.480151
-0.461969
-0.437905
-0.409079
-0.378325
-0.347935
-0.319313
-0.29313
-0.269566
-0.248524
-0.229782
-0.213078
-0.198157
-0.184786
-0.172767
-0.161922
-0.152008
-0.142797
-0.135093
-0.486693
-0.471652
-0.452496
-0.426757
-0.396193
-0.364009
-0.332611
-0.303369
-0.276865
-0.25319
-0.232176
-0.213553
-0.19703
-0.182331
-0.169211
-0.157463
-0.1469
-0.137262
-0.128333
-0.120994
-0.474343
-0.459533
-0.439462
-0.412186
-0.380125
-0.346803
-0.314695
-0.285107
-0.258522
-0.234942
-0.214136
-0.19579
-0.179589
-0.16524
-0.152488
-0.14112
-0.130941
-0.121676
-0.113119
-0.106223
-0.458138
-0.443651
-0.422756
-0.39413
-0.36085
-0.326708
-0.294199
-0.264541
-0.238113
-0.214833
-0.19441
-0.176499
-0.160761
-0.146891
-0.134626
-0.12375
-0.11406
-0.105266
-0.097178
-0.0908045
-0.437996
-0.423923
-0.402328
-0.372581
-0.338392
-0.303764
-0.271163
-0.241708
-0.21567
-0.192887
-0.173022
-0.155697
-0.14056
-0.127297
-0.11564
-0.10537
-0.0962754
-0.0880581
-0.0805424
-0.0747803
-0.4139
-0.400334
-0.37819
-0.347584
-0.31282
-0.278043
-0.245661
-0.216672
-0.191245
-0.16915
-0.150005
-0.133415
-0.119013
-0.106482
-0.0955508
-0.0859991
-0.0776106
-0.0700803
-0.0632489
-0.0581937
-0.385897
-0.372933
-0.350418
-0.319242
-0.284247
-0.249659
-0.21779
-0.189518
-0.164913
-0.143681
-0.125412
-0.109693
-0.096153
-0.0844723
-0.0743815
-0.0656592
-0.0580862
-0.0513578
-0.0453298
-0.0410682
-0.354099
-0.341834
-0.319145
-0.287706
-0.252826
-0.218754
-0.187681
-0.160358
-0.136767
-0.116561
-0.0993071
-0.0845838
-0.0720204
-0.0612997
-0.0521559
-0.0443693
-0.037722
-0.0319155
-0.0268091
-0.0233952
-0.318681
-0.30721
-0.28456
-0.253173
-0.21875
-0.185506
-0.155491
-0.129332
-0.106927
-0.0878908
-0.0717729
-0.058152
-0.0466624
-0.0369948
-0.0288917
-0.0221399
-0.0165279
-0.0117676
-0.00769658
-0.0051745
-0.279876
-0.269294
-0.246906
-0.215886
-0.18225
-0.150125
-0.121408
-0.0966024
-0.0755364
-0.0577917
-0.0429109
-0.0304775
-0.0201368
-0.0115933
-0.00460475
0.00102972
0.00550919
0.00910509
0.0120022
0.0134642
-0.23797
-0.228368
-0.206467
-0.176126
-0.143587
-0.112851
-0.0856469
-0.0623622
-0.0427641
-0.0264107
-0.0128441
-0.00165852
0.00748363
0.0148558
0.0206776
0.0251335
0.0284061
0.0307111
0.0321686
0.0321229
-0.193295
-0.184763
-0.163573
-0.134207
-0.103056
-0.0739521
-0.0484505
-0.0268309
-0.00880629
0.0060812
0.0182855
0.0281968
0.0361288
0.0423223
0.0469625
0.0502126
0.0522143
0.0530074
0.0524815
0.0503577
-0.146226
-0.138844
-0.118583
-0.0904744
-0.0609772
-0.0337221
-0.0100903
0.0097416
0.0261073
0.039478
0.0503037
0.058961
0.0657409
0.0708494
0.0744348
0.0766287
0.0774578
0.0765646
0.0734823
0.0692289
-0.0971701
-0.0910138
-0.0718875
-0.045295
-0.0176906
0.00752253
0.0291378
0.047074
0.061706
0.0735178
0.08296
0.0904073
0.0961479
0.100387
0.103284
0.10499
0.105406
0.103679
0.0991084
0.0945013
-0.0465615
-0.0416954
-0.023894
0.000947453
0.0264478
0.0494507
0.0689209
0.0848637
0.0976882
0.107887
0.115913
0.122144
0.126882
0.130371
0.132856
0.134613
0.135615
0.134879
0.132144
0.135707
0.00515556
0.00867403
0.0249779
0.0478605
0.0710747
0.0917249
0.108941
0.122804
0.13375
0.142273
0.14882
0.153762
0.157402
0.159993
0.161798
0.16308
0.163825
0.163561
0.163186
0.168905
0.0575184
0.0596437
0.0742997
0.0950473
0.115826
0.134008
0.148882
0.160595
0.169601
0.176392
0.181403
0.184998
0.187471
0.189077
0.190064
0.190654
0.190829
0.190296
0.189964
0.194569
0.110061
0.110761
0.123644
0.142113
0.16034
0.175969
0.188437
0.197947
0.204965
0.209972
0.213388
0.215561
0.216774
0.217266
0.217268
0.216977
0.216388
0.215278
0.214396
0.2175
0.162321
0.161575
0.172587
0.188671
0.204265
0.217288
0.227312
0.23459
0.23959
0.242781
0.244564
0.245266
0.245152
0.244442
0.243342
0.242019
0.240456
0.238457
0.236711
0.238417
0.213841
0.211643
0.220715
0.234344
0.247262
0.257656
0.265226
0.270266
0.273243
0.274606
0.274737
0.273941
0.272463
0.270503
0.268244
0.265826
0.263217
0.260243
0.257557
0.257923
0.264175
0.260534
0.267627
0.278767
0.289001
0.296778
0.301915
0.304738
0.305707
0.305255
0.30374
0.301445
0.298594
0.295367
0.291925
0.288386
0.284706
0.280738
0.277109
0.27621
0.312893
0.307833
0.312938
0.321593
0.329171
0.334375
0.337126
0.337778
0.336782
0.334551
0.331418
0.327647
0.32344
0.31896
0.314349
0.309701
0.30497
0.300035
0.295487
0.293385
0.359583
0.353142
0.35628
0.36249
0.367476
0.37018
0.370622
0.369174
0.366277
0.362324
0.357625
0.352422
0.3469
0.341204
0.335456
0.329736
0.323997
0.31814
0.312713
0.309469
0.403853
0.396085
0.397306
0.401145
0.403635
0.403945
0.402178
0.398725
0.394013
0.388415
0.38222
0.37565
0.368871
0.362013
0.355182
0.348444
0.341752
0.33503
0.32877
0.32445
0.445337
0.43631
0.435691
0.437266
0.437389
0.435434
0.431585
0.426241
0.419821
0.412673
0.405069
0.397211
0.38925
0.381299
0.373452
0.36576
0.358182
0.350658
0.343617
0.338288
0.483693
0.473488
0.471134
0.470583
0.468493
0.46443
0.458645
0.451547
0.44354
0.434956
0.426045
0.416993
0.407935
0.398973
0.390185
0.381614
0.373224
0.364964
0.357201
0.350935
0.518608
0.507321
0.503359
0.500848
0.496725
0.490732
0.483178
0.474479
0.465024
0.455128
0.445025
0.434884
0.424828
0.414945
0.405302
0.395934
0.386808
0.377886
0.369463
0.362341
0.549799
0.537536
0.532118
0.527835
0.521885
0.51416
0.505021
0.494887
0.484137
0.473068
0.461898
0.450784
0.439835
0.42913
0.418724
0.408646
0.398868
0.389357
0.380343
0.372451
0.577014
0.563893
0.557189
0.551347
0.543792
0.534551
0.524026
0.512639
0.500757
0.488663
0.476562
0.464598
0.452871
0.441448
0.430378
0.419682
0.409338
0.399316
0.389785
0.381217
0.600034
0.586182
0.57838
0.571209
0.562292
0.551765
0.540066
0.527616
0.514776
0.501815
0.488926
0.476244
0.463858
0.45183
0.440198
0.42898
0.418159
0.407707
0.397736
0.388594
0.618675
0.604228
0.59553
0.587277
0.577252
0.565682
0.55303
0.539721
0.526104
0.512441
0.498914
0.485649
0.472731
0.460212
0.448126
0.436487
0.425281
0.414482
0.404153
0.394543
0.632788
0.617889
0.608508
0.599432
0.588567
0.576205
0.562832
0.548871
0.534667
0.520471
0.506461
0.492756
0.479434
0.466544
0.454115
0.442157
0.430661
0.419599
0.408999
0.399033
0.642259
0.627056
0.617215
0.607586
0.596155
0.583262
0.569405
0.555006
0.540407
0.525854
0.51152
0.49752
0.483927
0.470788
0.458128
0.445957
0.434266
0.423028
0.412245
0.40204
0.647014
0.631658
0.621586
0.611678
0.599964
0.586804
0.572703
0.558085
0.543287
0.528555
0.514058
0.49991
0.486181
0.472917
0.460142
0.447863
0.436075
0.424748
0.413874
0.403548
0.647015
0.63166
0.621587
0.611679
0.599965
0.586805
0.572704
0.558086
0.543288
0.528556
0.51406
0.499911
0.486182
0.472918
0.460143
0.447864
0.436076
0.42475
0.413875
0.403549
0.642263
0.62706
0.617218
0.607589
0.596159
0.583266
0.569408
0.555009
0.54041
0.525858
0.511523
0.497523
0.48393
0.470791
0.458131
0.44596
0.434269
0.423031
0.412248
0.402043
0.632793
0.617894
0.608513
0.599438
0.588572
0.576211
0.562838
0.548877
0.534672
0.520477
0.506467
0.492762
0.47944
0.46655
0.45412
0.442162
0.430666
0.419604
0.409004
0.399038
0.618683
0.604236
0.595538
0.587285
0.57726
0.56569
0.553038
0.539729
0.526112
0.512448
0.498921
0.485657
0.472738
0.460219
0.448133
0.436494
0.425288
0.414489
0.404161
0.39455
0.600045
0.586192
0.57839
0.57122
0.562302
0.551775
0.540076
0.527626
0.514786
0.501825
0.488936
0.476254
0.463868
0.451839
0.440207
0.428989
0.418168
0.407716
0.397746
0.388603
0.577027
0.563905
0.557202
0.551359
0.543805
0.534564
0.524039
0.512651
0.500769
0.488675
0.476574
0.46461
0.452883
0.44146
0.43039
0.419693
0.409349
0.399327
0.389796
0.381228
0.549814
0.537551
0.532133
0.52785
0.521899
0.514175
0.505036
0.494902
0.484151
0.473082
0.461912
0.450798
0.439849
0.429144
0.418738
0.408659
0.398881
0.38937
0.380356
0.372464
0.518626
0.507338
0.503377
0.500865
0.496742
0.490749
0.483195
0.474495
0.465041
0.455145
0.445041
0.434901
0.424844
0.414961
0.405318
0.39595
0.386824
0.377901
0.369479
0.362356
0.483713
0.473508
0.471154
0.470603
0.468512
0.464449
0.458664
0.451566
0.443559
0.434975
0.426063
0.417011
0.407954
0.398991
0.390203
0.381633
0.373242
0.364982
0.357219
0.350953
0.445359
0.436332
0.435713
0.437288
0.43741
0.435455
0.431606
0.426263
0.419842
0.412695
0.40509
0.397232
0.389271
0.38132
0.373472
0.36578
0.358202
0.350678
0.343637
0.338307
0.403878
0.39611
0.39733
0.401169
0.40366
0.403969
0.402202
0.398748
0.394037
0.388438
0.382243
0.375673
0.368894
0.362036
0.355205
0.348466
0.341774
0.335052
0.328791
0.324471
0.359611
0.35317
0.356307
0.362517
0.367503
0.370207
0.370649
0.3692
0.366304
0.36235
0.357651
0.352448
0.346926
0.341229
0.335481
0.329761
0.324021
0.318164
0.312737
0.309493
0.312924
0.307864
0.312968
0.321623
0.329201
0.334404
0.337155
0.337807
0.336811
0.334579
0.331446
0.327675
0.323468
0.318988
0.314376
0.309728
0.304996
0.300061
0.295513
0.29341
0.264209
0.260568
0.26766
0.2788
0.289033
0.29681
0.301947
0.304769
0.305738
0.305286
0.303771
0.301476
0.298624
0.295396
0.291955
0.288415
0.284735
0.280767
0.277137
0.276238
0.213877
0.211679
0.220751
0.234379
0.247296
0.25769
0.265261
0.2703
0.273276
0.274639
0.27477
0.273974
0.272496
0.270535
0.268276
0.265857
0.263248
0.260273
0.257587
0.257953
0.162361
0.161614
0.172626
0.18871
0.204303
0.217325
0.227349
0.234626
0.239626
0.242817
0.244599
0.245301
0.245187
0.244476
0.243376
0.242053
0.24049
0.23849
0.236743
0.238449
0.110104
0.110803
0.123686
0.142155
0.160381
0.17601
0.188476
0.197987
0.205004
0.21001
0.213426
0.215599
0.216811
0.217303
0.217305
0.217013
0.216424
0.215313
0.214431
0.217534
0.0575645
0.0596896
0.074345
0.0950918
0.115869
0.134051
0.148924
0.160637
0.169643
0.176433
0.181444
0.185038
0.187511
0.189116
0.190103
0.190693
0.190868
0.190334
0.190002
0.194606
0.00520518
0.00872347
0.0250266
0.0479083
0.0711217
0.0917711
0.108986
0.122849
0.133795
0.142317
0.148864
0.153806
0.157445
0.160036
0.16184
0.163121
0.163866
0.163602
0.163226
0.168944
-0.0465083
-0.0416424
-0.0238418
0.000998625
0.026498
0.0495001
0.0689696
0.0849118
0.0977357
0.107934
0.115959
0.122189
0.126927
0.130416
0.1329
0.134657
0.135658
0.134922
0.132187
0.135749
-0.0971131
-0.090957
-0.0718317
-0.0452403
-0.017637
0.0075752
0.0291896
0.0471251
0.0617565
0.0735676
0.0830092
0.090456
0.0961961
0.100434
0.103332
0.105037
0.105452
0.103725
0.0991542
0.0945472
-0.146165
-0.138784
-0.118524
-0.090416
-0.0609201
-0.033666
-0.0100352
0.00979585
0.0261608
0.0395308
0.0503558
0.0590125
0.0657918
0.0708998
0.0744847
0.0766781
0.0775068
0.0766131
0.0735305
0.069277
-0.19323
-0.184698
-0.163509
-0.134145
-0.102996
-0.0738926
-0.0483921
-0.0267734
-0.00874972
0.00613698
0.0183406
0.0282511
0.0361825
0.0423754
0.047015
0.0502645
0.0522656
0.0530582
0.0525318
0.0504077
-0.237901
-0.228299
-0.2064
-0.17606
-0.143523
-0.112788
-0.0855851
-0.0623015
-0.0427044
-0.0263519
-0.0127861
-0.00160136
0.00754004
0.0149115
0.0207326
0.0251879
0.0284598
0.0307642
0.0322211
0.0321749
-0.279803
-0.269221
-0.246834
-0.215816
-0.182181
-0.150059
-0.121343
-0.0965384
-0.0754735
-0.0577298
-0.04285
-0.0304175
-0.0200776
-0.011535
-0.00454716
0.00108657
0.0055653
0.00916046
0.0120569
0.0135184
-0.318603
-0.307133
-0.284484
-0.253099
-0.218678
-0.185436
-0.155423
-0.129264
-0.106861
-0.0878257
-0.0717089
-0.0580891
-0.0466004
-0.0369337
-0.0288315
-0.0220805
-0.0164694
-0.0117099
-0.00763975
-0.00511824
-0.354017
-0.341752
-0.319064
-0.287627
-0.25275
-0.218679
-0.187608
-0.160287
-0.136697
-0.116493
-0.0992401
-0.084518
-0.0719557
-0.0612359
-0.0520931
-0.0443075
-0.0376611
-0.0318556
-0.0267501
-0.0233369
-0.38581
-0.372847
-0.350333
-0.31916
-0.284166
-0.24958
-0.217714
-0.189443
-0.16484
-0.14361
-0.125342
-0.109624
-0.0960853
-0.0844058
-0.0743161
-0.0655948
-0.0580229
-0.0512955
-0.0452686
-0.0410078
-0.413808
-0.400243
-0.3781
-0.347497
-0.312736
-0.277961
-0.245581
-0.216593
-0.191169
-0.169075
-0.149932
-0.133343
-0.118943
-0.106412
-0.0954827
-0.0859322
-0.0775448
-0.0700157
-0.0631854
-0.058131
-0.4379
-0.423827
-0.402233
-0.372489
-0.338303
-0.303677
-0.27108
-0.241626
-0.21559
-0.192809
-0.172945
-0.155622
-0.140487
-0.127225
-0.115569
-0.1053
-0.0962072
-0.0879911
-0.0804766
-0.0747155
-0.458038
-0.44355
-0.422657
-0.394034
-0.360757
-0.326618
-0.294111
-0.264455
-0.23803
-0.214751
-0.194331
-0.176421
-0.160684
-0.146816
-0.134553
-0.123678
-0.113989
-0.105196
-0.0971098
-0.0907374
-0.474238
-0.459428
-0.439358
-0.412086
-0.380027
-0.346709
-0.314603
-0.285018
-0.258435
-0.234857
-0.214053
-0.195709
-0.17951
-0.165162
-0.152412
-0.141045
-0.130868
-0.121604
-0.113049
-0.106153
-0.486583
-0.471543
-0.452388
-0.426651
-0.396091
-0.36391
-0.332516
-0.303276
-0.276775
-0.253101
-0.23209
-0.213469
-0.196948
-0.18225
-0.169131
-0.157385
-0.146824
-0.137188
-0.12826
-0.120922
-0.495218
-0.480037
-0.461856
-0.437795
-0.408972
-0.378222
-0.347835
-0.319216
-0.293036
-0.269474
-0.248435
-0.229694
-0.212992
-0.198073
-0.184704
-0.172687
-0.161844
-0.15193
-0.142721
-0.135019
-0.500343
-0.485114
-0.467937
-0.445638
-0.418742
-0.389679
-0.360581
-0.332848
-0.307226
-0.283983
-0.263095
-0.244392
-0.22765
-0.212635
-0.199131
-0.186949
-0.175922
-0.165823
-0.156421
-0.148433
-0.502214
-0.487029
-0.470856
-0.450355
-0.425518
-0.398359
-0.370799
-0.344204
-0.319373
-0.296652
-0.276093
-0.257582
-0.240936
-0.225949
-0.212423
-0.20018
-0.189064
-0.178867
-0.169356
-0.161161
-0.501127
-0.486082
-0.470891
-0.452172
-0.429468
-0.404373
-0.378568
-0.353342
-0.32952
-0.307518
-0.28746
-0.269294
-0.252878
-0.238039
-0.224599
-0.212395
-0.201282
-0.191071
-0.181533
-0.17321
-0.497416
-0.482606
-0.46836
-0.451361
-0.430801
-0.407876
-0.383997
-0.360339
-0.337729
-0.316634
-0.297245
-0.279569
-0.263512
-0.248937
-0.235688
-0.223619
-0.212597
-0.202454
-0.192966
-0.184591
-0.491437
-0.476962
-0.46361
-0.448231
-0.429769
-0.409056
-0.387222
-0.365298
-0.344078
-0.324064
-0.305501
-0.288456
-0.272884
-0.258683
-0.245726
-0.233883
-0.223037
-0.213039
-0.203677
-0.195325
-0.483562
-0.46952
-0.457009
-0.443122
-0.426658
-0.408136
-0.38841
-0.368342
-0.348663
-0.329884
-0.312295
-0.296014
-0.281045
-0.267324
-0.254754
-0.243226
-0.232636
-0.222857
-0.213691
-0.205437
-0.474164
-0.460652
-0.44893
-0.43639
-0.42178
-0.40537
-0.387756
-0.369617
-0.351594
-0.334181
-0.317698
-0.302305
-0.288051
-0.274911
-0.262819
-0.251688
-0.241432
-0.231943
-0.223041
-0.214956
-0.463611
-0.450719
-0.439741
-0.428398
-0.415467
-0.401037
-0.385479
-0.369289
-0.352995
-0.337054
-0.321789
-0.307395
-0.29396
-0.281496
-0.269968
-0.259314
-0.249465
-0.240334
-0.231761
-0.223914
-0.45225
-0.440061
-0.42979
-0.419498
-0.408055
-0.395434
-0.381823
-0.367545
-0.35301
-0.338608
-0.324653
-0.311355
-0.298833
-0.287133
-0.27625
-0.266148
-0.256776
-0.248067
-0.239884
-0.232343
-0.440401
-0.428989
-0.419399
-0.410025
-0.399874
-0.388862
-0.377043
-0.364592
-0.351794
-0.338964
-0.326381
-0.314257
-0.30273
-0.291874
-0.281712
-0.272232
-0.263403
-0.255177
-0.247441
-0.240271
-0.428353
-0.417776
-0.40885
-0.400281
-0.391237
-0.381623
-0.371408
-0.360651
-0.349521
-0.33825
-0.327069
-0.316174
-0.305709
-0.295768
-0.286395
-0.277603
-0.269379
-0.261695
-0.25446
-0.24772
-0.416356
-0.406657
-0.398386
-0.390531
-0.382427
-0.374001
-0.365184
-0.355951
-0.346378
-0.336611
-0.326825
-0.317185
-0.30783
-0.29886
-0.290337
-0.282292
-0.274731
-0.267644
-0.260961
-0.254705
-0.40462
-0.395825
-0.388204
-0.380991
-0.373686
-0.366257
-0.358627
-0.350726
-0.34256
-0.334201
-0.325763
-0.317373
-0.30915
-0.301193
-0.29357
-0.286326
-0.279481
-0.273039
-0.266956
-0.261231
-0.393313
-0.385429
-0.378455
-0.371835
-0.365215
-0.358614
-0.351971
-0.345202
-0.338269
-0.331186
-0.324012
-0.316831
-0.309735
-0.302809
-0.296121
-0.289721
-0.283639
-0.277891
-0.272448
-0.267294
-0.382565
-0.375582
-0.36925
-0.363186
-0.357166
-0.351254
-0.345421
-0.339591
-0.333704
-0.32774
-0.321711
-0.315663
-0.309656
-0.303755
-0.298018
-0.292492
-0.287212
-0.282199
-0.277439
-0.272888
-0.372468
-0.36636
-0.36066
-0.355128
-0.349644
-0.344314
-0.339143
-0.334076
-0.329053
-0.324036
-0.319009
-0.313985
-0.308995
-0.304082
-0.299288
-0.294653
-0.290204
-0.285965
-0.281928
-0.278007
-0.363082
-0.357807
-0.352724
-0.347704
-0.342714
-0.337887
-0.333261
-0.328808
-0.324482
-0.320241
-0.316057
-0.311923
-0.307848
-0.303855
-0.29997
-0.296218
-0.29262
-0.289189
-0.285922
-0.282665
-0.354437
-0.349942
-0.345454
-0.340931
-0.336403
-0.332024
-0.327857
-0.323901
-0.320128
-0.316505
-0.313005
-0.309611
-0.306324
-0.303151
-0.300109
-0.297212
-0.294468
-0.291875
-0.289435
-0.286901
-0.34654
-0.342763
-0.338841
-0.334799
-0.330712
-0.326744
-0.322976
-0.319429
-0.316095
-0.312954
-0.309986
-0.307181
-0.304536
-0.30206
-0.299765
-0.297664
-0.295757
-0.294031
-0.292489
-0.290794
-0.339375
-0.33625
-0.332861
-0.329281
-0.325617
-0.322036
-0.318628
-0.31543
-0.312449
-0.30968
-0.307116
-0.304754
-0.302602
-0.300677
-0.299004
-0.297604
-0.29649
-0.295647
-0.295084
-0.294427
-0.332914
-0.330369
-0.327475
-0.324336
-0.32108
-0.317869
-0.314797
-0.311908
-0.309222
-0.306745
-0.30448
-0.302433
-0.300628
-0.299099
-0.297892
-0.297062
-0.296651
-0.296677
-0.297168
-0.29787
-0.327112
-0.325079
-0.322639
-0.319917
-0.317053
-0.314198
-0.311445
-0.308843
-0.306417
-0.304177
-0.302131
-0.300297
-0.298707
-0.297415
-0.296498
-0.296055
-0.296194
-0.297004
-0.298571
-0.301037
-0.321916
-0.320329
-0.318301
-0.315969
-0.313478
-0.310966
-0.308522
-0.306194
-0.304006
-0.301969
-0.300093
-0.298395
-0.296911
-0.295707
-0.294886
-0.294599
-0.29504
-0.296427
-0.298988
-0.303694
-0.317267
-0.316067
-0.314409
-0.312438
-0.310297
-0.308113
-0.305967
-0.303902
-0.301941
-0.300091
-0.298356
-0.296745
-0.295287
-0.294043
-0.293124
-0.292716
-0.293097
-0.294638
-0.297864
-0.305086
-0.313106
-0.312237
-0.310909
-0.309267
-0.307452
-0.305577
-0.303714
-0.301903
-0.30016
-0.298489
-0.296881
-0.295334
-0.293856
-0.292482
-0.291301
-0.290485
-0.290343
-0.291352
-0.294556
-0.304344
-0.309371
-0.308787
-0.30775
-0.306404
-0.304887
-0.303297
-0.301698
-0.300126
-0.298593
-0.297092
-0.295609
-0.294119
-0.292605
-0.291058
-0.2895
-0.288021
-0.286822
-0.286241
-0.287612
-0.297623
-0.306009
-0.305668
-0.304885
-0.303803
-0.302553
-0.30122
-0.299863
-0.29851
-0.29717
-0.295831
-0.294467
-0.29304
-0.291497
-0.289773
-0.287783
-0.285418
-0.282512
-0.27856
-0.272275
-0.264813
-0.302969
-0.302837
-0.302275
-0.301424
-0.300409
-0.299305
-0.298161
-0.297005
-0.295839
-0.294649
-0.293406
-0.292063
-0.290556
-0.288801
-0.286684
-0.284062
-0.280765
-0.276401
-0.270092
-0.26351
-0.30021
-0.300258
-0.299887
-0.299236
-0.298425
-0.29752
-0.296563
-0.295577
-0.294564
-0.29351
-0.292385
-0.291145
-0.289732
-0.288071
-0.286072
-0.283638
-0.280681
-0.276974
-0.272087
-0.267852
-0.297699
-0.297901
-0.297693
-0.297215
-0.296581
-0.295847
-0.295051
-0.294212
-0.293332
-0.292398
-0.291383
-0.290249
-0.288949
-0.287425
-0.285612
-0.283457
-0.280919
-0.277853
-0.274079
-0.271393
-0.295409
-0.295742
-0.295675
-0.295344
-0.294862
-0.294276
-0.29362
-0.292909
-0.292147
-0.29132
-0.290408
-0.289381
-0.288203
-0.286832
-0.285232
-0.283379
-0.281272
-0.278832
-0.276023
-0.274419
-0.293317
-0.293763
-0.293815
-0.293612
-0.293261
-0.292805
-0.292272
-0.291676
-0.291021
-0.290298
-0.289489
-0.288574
-0.287528
-0.286326
-0.284953
-0.283412
-0.281728
-0.279868
-0.277864
-0.277014
-0.291406
-0.291949
-0.292103
-0.29201
-0.291775
-0.291434
-0.291012
-0.290523
-0.289972
-0.289351
-0.28865
-0.287856
-0.286953
-0.285932
-0.284791
-0.283552
-0.282253
-0.280885
-0.279499
-0.279145
-0.289662
-0.290286
-0.290529
-0.290532
-0.290399
-0.290162
-0.289844
-0.289457
-0.289008
-0.288493
-0.287907
-0.287241
-0.28649
-0.285653
-0.284741
-0.283781
-0.282817
-0.281847
-0.280911
-0.280871
-0.288071
-0.288766
-0.289086
-0.289174
-0.289133
-0.288991
-0.288769
-0.288482
-0.288134
-0.287727
-0.287258
-0.286726
-0.286129
-0.285474
-0.284776
-0.284065
-0.283383
-0.282725
-0.282113
-0.282269
-0.286624
-0.28738
-0.287767
-0.287931
-0.287972
-0.287918
-0.287787
-0.287594
-0.287346
-0.287046
-0.286695
-0.286294
-0.285848
-0.285364
-0.284859
-0.284364
-0.283913
-0.283497
-0.283117
-0.283398
-0.28531
-0.286122
-0.286569
-0.286799
-0.286915
-0.28694
-0.286893
-0.28679
-0.286637
-0.28644
-0.286202
-0.285926
-0.285618
-0.285289
-0.284953
-0.284639
-0.284375
-0.284145
-0.283936
-0.284302
-0.284124
-0.284988
-0.285487
-0.285776
-0.285958