/*--------------------------------*- C++ -*----------------------------------*\
  =========                 |
  \\      /  F ield         | OpenFOAM: The Open Source CFD Toolbox
   \\    /   O peration     | Website:  https://openfoam.org
    \\  /    A nd           | Version:  6.0
     \\/     M anipulation  |
\*---------------------------------------------------------------------------*/
FoamFile
{
    version     2.0;
    format      ascii;
    class       surfaceScalarField;
    location    "13.2";
    object      phi;
}
// * * * * * * * * * * * * * * * * * * * * * * * * * * * * * * * * * * * * * //

dimensions      [0 3 -1 0 0 0 0];

internalField   nonuniform List<scalar> 
15760
(
-3.46545e-06
3.41724e-06
4.82106e-08
-1.21587e-05
8.59802e-06
9.52631e-08
-2.48107e-05
1.25444e-05
1.07593e-07
-4.04316e-05
1.55247e-05
9.62349e-08
-5.82555e-05
1.77544e-05
6.95183e-08
-7.77048e-05
1.94158e-05
3.34438e-08
-9.83604e-05
2.06635e-05
-7.82623e-09
-0.000119938
2.1629e-05
-5.15476e-08
-0.000142266
2.24246e-05
-9.6021e-08
-0.000165273
2.31464e-05
-1.40272e-07
-0.000188964
2.38756e-05
-1.83797e-07
-0.000213418
2.46801e-05
-2.2638e-07
-0.000238765
2.56153e-05
-2.67968e-07
-0.000265181
2.67239e-05
-3.08578e-07
-0.000292869
2.80367e-05
-3.48245e-07
-0.000322055
2.95723e-05
-3.86984e-07
-0.000352967
3.13376e-05
-4.24793e-07
-0.000385832
3.33269e-05
-4.61659e-07
-0.000420862
3.55268e-05
-4.97523e-07
3.79306e-05
-5.32378e-07
-0.00045826
-3.42111e-06
6.83835e-06
-1.20081e-05
1.71851e-05
-2.45027e-05
2.50389e-05
-3.9918e-05
3.094e-05
-5.74868e-05
3.53232e-05
-7.66266e-05
3.85556e-05
-9.69112e-05
4.09481e-05
-0.000118047
4.27647e-05
-0.000139853
4.42306e-05
-0.000162244
4.55379e-05
-0.000185219
4.68499e-05
-0.000208842
4.83035e-05
-0.000233238
5.0011e-05
-0.000258575
5.20606e-05
-0.000285054
5.45164e-05
-0.000312901
5.74192e-05
-0.000342349
6.07857e-05
-0.00037363
6.46076e-05
-0.000406963
6.88602e-05
7.35297e-05
-0.000442563
-3.33642e-06
1.01748e-05
-1.17196e-05
2.55683e-05
-2.39114e-05
3.72307e-05
-3.89308e-05
4.59594e-05
-5.60075e-05
5.23999e-05
-7.45502e-05
5.70982e-05
-9.41186e-05
6.05165e-05
-0.000114401
6.30474e-05
-0.000135197
6.50264e-05
-0.0001564
6.67402e-05
-0.000177984
6.84341e-05
-0.000199996
7.03155e-05
-0.000222542
7.25569e-05
-0.000245777
7.52963e-05
-0.000269899
7.86377e-05
-0.00029513
8.26503e-05
-0.000321712
8.73677e-05
-0.000349889
9.27854e-05
-0.000379901
9.88717e-05
0.000105607
-0.000411978
-3.21806e-06
1.33928e-05
-1.13139e-05
3.36641e-05
-2.30768e-05
4.89936e-05
-3.75338e-05
6.04163e-05
-5.39109e-05
6.87771e-05
-7.16041e-05
7.47914e-05
-9.01536e-05
7.9066e-05
-0.000109223
8.21165e-05
-0.00012858
8.43842e-05
-0.000148088
8.62479e-05
-0.000167688
8.80339e-05
-0.000187394
9.00219e-05
-0.000207286
9.24486e-05
-0.000227499
9.55089e-05
-0.000248216
9.93551e-05
-0.000269661
0.000104096
-0.000292086
0.000109793
-0.000315757
0.000116456
-0.000340941
0.000124056
0.000132568
-0.000367903
-3.07499e-06
1.64678e-05
-1.08189e-05
4.1408e-05
-2.20527e-05
6.02274e-05
-3.58131e-05
7.41768e-05
-5.13223e-05
8.42863e-05
-6.79616e-05
9.14306e-05
-8.52474e-05
9.63519e-05
-0.000102812
9.96812e-05
-0.000120387
0.000101959
-0.000137792
0.000103652
-0.000154924
0.000105166
-0.000171755
0.000106853
-0.000188325
0.000109019
-0.000204738
0.000111922
-0.000221159
0.000115776
-0.000237806
0.000120743
-0.000254943
0.000126929
-0.000272866
0.000134379
-0.000291887
0.000143077
0.000153005
-0.000312324
-2.91733e-06
1.93852e-05
-1.02659e-05
4.87565e-05
-2.08994e-05
7.0861e-05
-3.38656e-05
8.7143e-05
-4.83831e-05
9.88039e-05
-6.38185e-05
0.000106866
-7.9663e-05
0.000112196
-9.55142e-05
0.000115532
-0.00011106
0.000117505
-0.000126071
0.000118663
-0.000140389
0.000119485
-0.000153932
0.000120395
-0.000166684
0.000121771
-0.000178707
0.000123945
-0.000190134
0.000127203
-0.000201171
0.00013178
-0.000212093
0.000137852
-0.000223233
0.000145519
-0.000234966
0.00015481
0.000165727
-0.000247689
-2.75506e-06
2.21402e-05
-9.6857e-06
5.56871e-05
-1.96762e-05
8.08515e-05
-3.17856e-05
9.92523e-05
-4.52312e-05
0.000112249
-5.93664e-05
0.000121001
-7.36586e-05
0.000126489
-8.76703e-05
0.000129544
-0.000101044
0.00013088
-0.000113495
0.000131114
-0.000124802
0.000130792
-0.000134815
0.000130407
-0.000143451
0.000130407
-0.000150709
0.000131203
-0.000156675
0.000133169
-0.00016153
0.000136634
-0.000165551
0.000141873
-0.000169113
0.000149081
-0.000172671
0.000158368
0.000169794
-0.000176737
-2.5967e-06
2.47369e-05
-9.10442e-06
6.21949e-05
-1.84324e-05
9.01795e-05
-2.96513e-05
0.000110471
-4.19797e-05
0.000124578
-5.47623e-05
0.000133784
-6.74469e-05
0.000139173
-7.95648e-05
0.000141662
-9.07152e-05
0.00014203
-0.000100556
0.000140954
-0.000108799
0.000139035
-0.000115214
0.000136823
-0.000119638
0.000134831
-0.000121988
0.000133553
-0.000122278
0.000133459
-0.000120641
0.000134997
-0.000117343
0.000138575
-0.000112795
0.000144533
-0.000107551
0.000153123
0.000164521
-0.000102278
-2.44815e-06
2.71851e-05
-8.53948e-06
6.82862e-05
-1.72002e-05
9.88401e-05
-2.75116e-05
0.000120783
-3.86973e-05
0.000135764
-5.00994e-05
0.000145186
-6.11537e-05
0.000150228
-7.13679e-05
0.000151876
-8.03047e-05
0.000150967
-8.75699e-05
0.000148219
-9.28082e-05
0.000144274
-9.5707e-05
0.000139722
-9.60071e-05
0.000135132
-9.35233e-05
0.000131069
-8.81726e-05
0.000128108
-8.00078e-05
0.000126832
-6.92544e-05
0.000127821
-5.63436e-05
0.000131622
-4.19335e-05
0.000138713
0.000149485
-2.68975e-05
-2.31192e-06
2.9497e-05
-7.99714e-06
7.39714e-05
-1.59883e-05
0.000106831
-2.53758e-05
0.00013017
-3.53914e-05
0.000145779
-4.53814e-05
0.000155176
-5.47796e-05
0.000159626
-6.3082e-05
0.000160179
-6.98265e-05
0.000157711
-7.45788e-05
0.000152971
-7.69247e-05
0.000146619
-7.64716e-05
0.000139268
-7.286e-05
0.00013152
-6.5787e-05
0.000123996
-5.50433e-05
0.000117365
-4.05636e-05
0.000112353
-2.24891e-05
0.000109747
-1.23524e-06
0.000110368
2.24435e-05
0.000115035
0.000124506
4.74226e-05
-2.1868e-06
3.16838e-05
-7.47128e-06
7.92559e-05
-1.47801e-05
0.00011414
-2.32085e-05
0.000138599
-3.19983e-05
0.000154569
-4.05066e-05
0.000163684
-4.81751e-05
0.000167294
-5.45013e-05
0.000166505
-5.90152e-05
0.000162225
-6.12601e-05
0.000155216
-6.07807e-05
0.00014614
-5.71196e-05
0.000135607
-4.98246e-05
0.000124225
-3.84707e-05
0.000112642
-2.2702e-05
0.000101596
-2.29581e-06
9.19466e-05
2.27462e-05
8.47049e-05
5.20832e-05
8.10312e-05
8.49006e-05
8.22171e-05
8.9616e-05
0.00011979
-2.06821e-06
3.3752e-05
-6.94417e-06
8.41318e-05
-1.35338e-05
0.00012073
-2.09303e-05
0.000145995
-2.83837e-05
0.000162022
-3.52651e-05
0.000170566
-4.10316e-05
0.000173061
-4.5195e-05
0.000170668
-4.72945e-05
0.000164325
-4.68734e-05
0.000154795
-4.34616e-05
0.000142728
-3.6565e-05
0.000128711
-2.56644e-05
0.000113324
-1.02297e-05
9.72077e-05
1.02422e-05
8.11239e-05
3.61574e-05
6.60315e-05
6.77095e-05
5.31528e-05
0.000104712
4.40283e-05
0.000146367
4.05628e-05
4.50013e-05
0.000190981
-1.94906e-06
3.57011e-05
-6.38901e-06
8.85718e-05
-1.21877e-05
0.000126528
-1.8425e-05
0.000152232
-2.43523e-05
0.00016795
-2.93518e-05
0.000175565
-3.2898e-05
0.000176607
-3.45236e-05
0.000172294
-3.37905e-05
0.000163592
-3.02637e-05
0.000151268
-2.34888e-05
0.000135953
-1.2974e-05
0.000118196
1.82135e-06
9.85289e-05
2.14869e-05
7.75421e-05
4.66385e-05
5.59723e-05
7.78567e-05
3.48132e-05
0.000115565
1.54447e-05
0.000159816
-2.23332e-07
0.000209947
-9.56725e-06
-9.09878e-06
0.000264047
-1.82103e-06
3.75221e-05
-5.77377e-06
9.25245e-05
-1.06677e-05
0.000131422
-1.55527e-05
0.000157117
-1.96681e-05
0.000172065
-2.23961e-05
0.000178293
-2.32206e-05
0.000177431
-2.16923e-05
0.000170766
-1.73995e-05
0.000159299
-9.94181e-06
0.000143811
1.09308e-06
0.000124919
1.61519e-05
0.000103137
3.57371e-05
7.89438e-05
6.04224e-05
5.28568e-05
9.08553e-05
2.55395e-05
0.000127724
-2.05533e-06
0.000171656
-2.84878e-05
0.000223
-5.15673e-05
0.000281375
-6.7942e-05
-7.25485e-05
0.000344825
-1.6759e-06
3.9198e-05
-5.06537e-06
9.5914e-05
-8.89576e-06
0.000135253
-1.21649e-05
0.000160387
-1.4079e-05
0.000173979
-1.39998e-05
0.000178214
-1.14016e-05
0.000174833
-5.83606e-06
0.0001652
3.09408e-06
0.000150369
1.57572e-05
0.000131147
3.2512e-05
0.000108164
5.37283e-05
8.1921e-05
7.98097e-05
5.28624e-05
0.000111221
2.14452e-05
0.000148517
-1.17559e-05
0.000192349
-4.58879e-05
0.00024343
-7.95683e-05
0.00030236
-0.000110498
0.000369174
-0.000134756
-0.000145538
0.000442163
-1.50653e-06
4.07045e-05
-4.23289e-06
9.86404e-05
-6.79695e-06
0.000137817
-8.11758e-06
0.000161707
-7.33994e-06
0.000173202
-3.77647e-06
0.00017465
3.13916e-06
0.000167917
1.38851e-05
0.000154454
2.88735e-05
0.00013538
4.84646e-05
0.000111556
7.29765e-05
8.36517e-05
0.000102695
5.22023e-05
0.000137888
1.76698e-05
0.000178827
-1.94943e-05
0.000225832
-5.87602e-05
0.000279315
-9.93712e-05
0.000339826
-0.000140079
0.000408008
-0.00017868
0.0004843
-0.000211048
-0.000228835
0.000567598
-1.30712e-06
4.20116e-05
-3.24854e-06
0.000100582
-4.30228e-06
0.00013887
-3.27776e-06
0.000160683
7.73306e-07
0.00016915
8.62348e-06
0.0001668
2.09183e-05
0.000155623
3.82077e-05
0.000137165
6.0962e-05
0.000112626
8.95769e-05
8.29415e-05
0.000124369
4.88594e-05
0.000165569
1.10026e-05
0.000213312
-3.00737e-05
0.000267645
-7.38265e-05
0.000328542
-0.000119658
0.000395974
-0.000166803
0.000469995
-0.000214099
0.000550853
-0.000259539
0.000639016
-0.00029921
-0.000324083
0.000734264
-1.07242e-06
4.30841e-05
-2.08583e-06
0.000101595
-1.34598e-06
0.000138131
2.47928e-06
0.000156857
1.0466e-05
0.000161164
2.35096e-05
0.000153757
4.2376e-05
0.000136756
6.77321e-05
0.000111809
0.000100155
8.02024e-05
0.00014013
4.29671e-05
0.000188027
9.62018e-07
0.000244081
-4.50509e-05
0.000308351
-9.43439e-05
0.000380692
-0.000146167
0.000460727
-0.000199693
0.000547863
-0.000253939
0.000641371
-0.000307607
0.000740547
-0.000358715
0.000845011
-0.000403674
-0.000434609
0.000955537
-7.96232e-07
4.38803e-05
-7.15249e-07
0.000101514
2.14242e-06
0.000135273
9.28204e-06
0.000149718
2.19407e-05
0.000148505
4.11713e-05
0.000134526
6.78977e-05
0.00011003
0.000102942
7.67648e-05
0.000147029
3.61151e-05
0.000200777
-1.07811e-05
0.000264669
-6.29301e-05
0.000339015
-0.000119397
0.000423899
-0.000179228
0.000519119
-0.000241387
0.0006241
-0.000304674
0.000737809
-0.000367649
0.000858683
-0.000428481
0.000984602
-0.000484633
0.00111315
-0.000532225
-0.000566765
0.00124531
-4.6942e-07
4.43497e-05
9.01287e-07
0.000100144
6.24836e-06
0.000129926
1.72791e-05
0.000138687
3.54202e-05
0.000130364
6.19099e-05
0.000108036
9.78534e-05
7.40863e-05
0.000144247
3.03713e-05
0.000201979
-2.16165e-05
0.000271812
-8.06147e-05
0.000354362
-0.00014548
0.000450062
-0.000215096
0.000559134
-0.000288301
0.000681556
-0.000363808
0.000817011
-0.00044013
0.000964817
-0.000515454
0.00112373
-0.000587397
0.00129128
-0.000652177
0.00146107
-0.000702022
-0.000719164
0.00161347
-7.89982e-08
4.44287e-05
2.81391e-06
9.72506e-05
1.10795e-05
0.00012166
2.66513e-05
0.000123115
5.11665e-05
0.000105849
8.60628e-05
7.314e-05
0.000132629
2.75201e-05
0.000192021
-2.90207e-05
0.000265253
-9.48483e-05
0.000353175
-0.000168537
0.000456451
-0.000248756
0.000575547
-0.000334192
0.000710743
-0.000423496
0.00086219
-0.000515256
0.00103005
-0.000607995
0.00121479
-0.000700192
0.00141768
-0.000790283
0.00164208
-0.00087658
0.00189745
-0.000957395
-0.00102733
0.00220562
3.95329e-07
4.40334e-05
5.09093e-06
9.2555e-05
1.67735e-05
0.000109978
3.76197e-05
0.000102269
6.94872e-05
7.39812e-05
0.000114008
2.86188e-05
0.000172628
-3.10999e-05
0.000246603
-0.000102995
0.000336972
-0.000185217
0.000444522
-0.000276087
0.000569755
-0.00037399
0.000712879
-0.000477316
0.000873824
-0.000584441
0.00105231
-0.000693743
0.00124797
-0.000803655
0.00146054
-0.000912761
0.00169017
-0.00101991
0.00193792
-0.00112433
0.00220622
-0.00122569
-0.00131598
0.00249487
9.76575e-07
4.30568e-05
7.80992e-06
8.57216e-05
2.34842e-05
9.43035e-05
5.0426e-05
7.53273e-05
9.07074e-05
3.36998e-05
0.000146126
-2.67994e-05
0.000218217
-0.000103192
0.000308229
-0.000193007
0.000417064
-0.000294052
0.000545227
-0.000404249
0.000692782
-0.000521544
0.000859342
-0.000643877
0.0010441
-0.000769197
0.00124588
-0.00089552
0.00146324
-0.00102102
0.00169459
-0.00114412
0.00193829
-0.00126361
0.0021927
-0.00137874
0.00245608
-0.00148907
-0.00158658
0.00272667
1.69135e-06
4.13655e-05
1.10556e-05
7.63574e-05
3.13726e-05
7.39865e-05
6.53104e-05
4.13895e-05
0.000115126
-1.6116e-05
0.000182719
-9.43921e-05
0.000269607
-0.000190079
0.000376861
-0.000300262
0.00050503
-0.000422221
0.000654064
-0.000553284
0.000823292
-0.000690772
0.00101142
-0.000832007
0.00121661
-0.000974385
0.00143656
-0.00111547
0.00166863
-0.00125309
0.00190999
-0.00138547
0.00215765
-0.00151127
0.00240854
-0.00162963
0.00265957
-0.0017401
-0.00183637
0.00290936
2.56636e-06
3.87991e-05
1.49095e-05
6.40142e-05
4.05853e-05
4.83108e-05
8.24725e-05
-4.97805e-07
0.000142953
-7.65968e-05
0.00022392
-0.000175359
0.000326708
-0.000292867
0.00045199
-0.000425544
0.000599685
-0.000569915
0.000768896
-0.000722495
0.000957924
-0.000879799
0.00116434
-0.00103842
0.00138511
-0.00119516
0.0016168
-0.00134716
0.00185574
-0.00149203
0.00209821
-0.00162795
0.00234058
-0.00175364
0.00257935
-0.00186841
0.00281134
-0.00197209
-0.00206052
0.0030355
3.62557e-06
3.51735e-05
1.94399e-05
4.81998e-05
5.1232e-05
1.65187e-05
0.000102032
-5.12976e-05
0.000174244
-0.000148809
0.000269593
-0.000270709
0.000389006
-0.00041228
0.000532481
-0.000569019
0.000699
-0.000736435
0.000886535
-0.00091003
0.00109213
-0.0010854
0.00131211
-0.0012584
0.0015423
-0.00142534
0.00177832
-0.00158318
0.00201585
-0.00172957
0.00225086
-0.00186295
0.00247972
-0.0019825
0.00269935
-0.00208804
0.00290728
-0.00218002
-0.0022563
0.00310306
4.88781e-06
3.02857e-05
2.46934e-05
2.83943e-05
6.33678e-05
-2.21557e-05
0.000123994
-0.000111924
0.000208846
-0.000233661
0.000319263
-0.000381125
0.00045548
-0.000548497
0.000616503
-0.000730042
0.000800087
-0.000920019
0.00100284
-0.00111278
0.00122046
-0.00130302
0.00144809
-0.00148602
0.00168066
-0.00165791
0.00191327
-0.00181578
0.00214147
-0.00195777
0.00236151
-0.00208299
0.00257042
-0.00219141
0.00276606
-0.00228368
0.00294708
-0.00236105
-0.00242306
0.00311384
6.36516e-06
2.39206e-05
3.06882e-05
4.07123e-06
7.69777e-05
-6.84452e-05
0.000148226
-0.000183173
0.00024637
-0.000331804
0.00037208
-0.000506836
0.000524581
-0.000700998
0.000701576
-0.000907037
0.000899347
-0.00111779
0.00111305
-0.00132648
0.00133712
-0.00152709
0.00156578
-0.00171469
0.00179353
-0.00188566
0.00201548
-0.00203773
0.00222766
-0.00216995
0.00242714
-0.00228247
0.00261203
-0.0023763
0.00278142
-0.00245307
0.00293522
-0.00251485
-0.00256247
0.00307463
8.06209e-06
1.58585e-05
3.74109e-05
-2.52776e-05
9.19688e-05
-0.000123003
0.000174445
-0.000265649
0.000286169
-0.000443528
0.000426825
-0.000647492
0.000594293
-0.000868466
0.000784707
-0.00109745
0.000992765
-0.00132585
0.00121224
-0.00154596
0.00143662
-0.00175147
0.00165969
-0.00193776
0.00187605
-0.00210201
0.00208141
-0.0022431
0.00227279
-0.00236133
0.00244845
-0.00245813
0.00260779
-0.00253563
0.00275111
-0.0025964
0.00287942
-0.00264316
-0.00267768
0.00299463
9.97505e-06
5.88341e-06
4.48138e-05
-6.01164e-05
0.000108166
-0.000186355
0.000202209
-0.000359692
0.000327355
-0.000568673
0.000481951
-0.000802088
0.000662239
-0.00104875
0.00086263
-0.00129784
0.0010763
-0.00153951
0.00129594
-0.0017656
0.00151454
-0.00197008
0.00172605
-0.00214927
0.00192575
-0.00230171
0.00211046
-0.0024278
0.00227847
-0.00252934
0.00242938
-0.00260904
0.0025638
-0.00267005
0.00268307
-0.00271567
0.00278894
-0.00274903
-0.00277247
0.00288373
1.20921e-05
-6.20873e-06
5.28138e-05
-0.000100838
0.00012531
-0.000258851
0.000230932
-0.000465315
0.000368822
-0.000706564
0.000535667
-0.000968933
0.000725859
-0.00123895
0.0009321
-0.00150408
0.0011463
-0.00175371
0.00136055
-0.00197985
0.00156795
-0.00217748
0.00176317
-0.00234449
0.00194268
-0.00248122
0.00210465
-0.00258978
0.00224879
-0.00267348
0.00237589
-0.00273614
0.00248756
-0.00278172
0.00258579
-0.0028139
0.00267276
-0.00283599
-0.00285057
0.00275086
1.43928e-05
-2.06015e-05
6.12926e-05
-0.000147738
0.000143063
-0.000340621
0.000259894
-0.000582146
0.000409305
-0.000855975
0.000586053
-0.00114568
0.000782621
-0.00143551
0.000990203
-0.00171167
0.00119989
-0.0019634
0.00140378
-0.00218373
0.00159566
-0.00236936
0.00177143
-0.00252026
0.00192899
-0.00263878
0.00206797
-0.00272876
0.00218931
-0.00279482
0.00229479
-0.00284162
0.00238661
-0.00287354
0.00246714
-0.00289442
0.00253861
-0.00290747
-0.00291524
0.00260328
1.68473e-05
-3.74489e-05
7.00967e-05
-0.000200987
0.000161014
-0.000431539
0.000288271
-0.000709403
0.000447444
-0.00101515
0.000631204
-0.00132944
0.000830239
-0.00163455
0.00103463
-0.00191606
0.00123524
-0.00216401
0.00142474
-0.00237323
0.00159817
-0.00254279
0.00175289
-0.00267499
0.00188833
-0.00277421
0.00200541
-0.00284584
0.00210604
-0.00289545
0.00219264
-0.00292822
0.00226772
-0.00294862
0.00233365
-0.00296036
0.00239257
-0.00296638
-0.00296907
0.0024464
1.94168e-05
-5.68657e-05
7.90407e-05
-0.000260611
0.000178696
-0.000531194
0.00031518
-0.000845887
0.000481881
-0.00118185
0.000669381
-0.00151694
0.000866872
-0.00183204
0.00106386
-0.00211305
0.0012516
-0.00235175
0.0014239
-0.00254553
0.0015773
-0.00269619
0.00171076
-0.00280844
0.00182506
-0.00288851
0.00192218
-0.00294296
0.00200466
-0.00297794
0.00207522
-0.00299877
0.00213639
-0.00300979
0.00219039
-0.00301436
0.00223908
-0.00301507
-0.00301403
0.00228405
2.20531e-05
-7.89188e-05
8.79111e-05
-0.000326469
0.000195598
-0.000638881
0.000339723
-0.000990011
0.00051135
-0.00135348
0.000699142
-0.00170473
0.000891262
-0.00202416
0.00107725
-0.00229904
0.00124932
-0.00252382
0.00140277
-0.00269898
0.00153578
-0.0028292
0.00164879
-0.00292145
0.00174369
-0.00298342
0.00182317
-0.00302244
0.0018901
-0.00304487
0.00194721
-0.00305588
0.00199687
-0.00305945
0.00204104
-0.00305852
0.00208125
-0.00305529
-0.00305153
0.00211875
2.47e-05
-0.000103619
9.64744e-05
-0.000398243
0.000211199
-0.000753606
0.000361046
-0.00113986
0.00053477
-0.0015272
0.000719454
-0.00188942
0.000902796
-0.0022075
0.00107498
-0.00247122
0.00122958
-0.00267842
0.0013636
-0.002833
0.0014768
-0.0029424
0.00157084
-0.00301549
0.00164842
-0.00306101
0.00171261
-0.00308663
0.00176635
-0.00309861
0.0018122
-0.00310173
0.00185226
-0.00309951
0.00188817
-0.00309443
0.00192115
-0.00308828
-0.00308252
0.00195215
2.72946e-05
-0.000130913
0.000104487
-0.000475436
0.000224991
-0.000874109
0.000378397
-0.00129326
0.00055132
-0.00170012
0.000729737
-0.00206783
0.000901487
-0.00237925
0.00105789
-0.00262762
0.00119418
-0.00281472
0.00130904
-0.00294785
0.00140361
-0.00303697
0.0014805
-0.00309238
0.00154289
-0.0031234
0.00159397
-0.0031377
0.00163652
-0.00314116
0.00167286
-0.00313807
0.00170475
-0.0031314
0.00173353
-0.00312321
0.00176014
-0.00311489
-0.00310765
0.00178527
2.97698e-05
-0.000160683
0.000111706
-0.000557372
0.000236508
-0.000998911
0.000391168
-0.00144793
0.000560479
-0.00186943
0.000729871
-0.00223722
0.000887885
-0.00253726
0.00102735
-0.00276709
0.00114525
-0.00293262
0.00124181
-0.00304441
0.00131929
-0.00311445
0.00138093
-0.00315401
0.00143011
-0.00317259
0.00146993
-0.00317752
0.00150293
-0.00317416
0.00153108
-0.00316622
0.00155585
-0.00315617
0.00157827
-0.00314563
0.00159908
-0.0031357
-0.00312733
0.00161875
3.2057e-05
-0.00019274
0.000117904
-0.00064322
0.000245357
-0.00112636
0.000398932
-0.0016015
0.00056204
-0.00203254
0.000720143
-0.00239533
0.000862955
-0.00268008
0.000985019
-0.00288915
0.00108502
-0.00303262
0.00116451
-0.0031239
0.00122657
-0.0031765
0.00127476
-0.0032022
0.00131247
-0.0032103
0.00134256
-0.00320761
0.00136726
-0.00319886
0.0013882
-0.00318717
0.00140656
-0.00317453
0.00142315
-0.00316222
0.00143852
-0.00315106
-0.0031418
0.00145299
3.40894e-05
-0.00022683
0.000122877
-0.000732007
0.000251234
-0.00125472
0.000401456
-0.00175172
0.000556091
-0.00218718
0.000701176
-0.00254041
0.000827936
-0.00280684
0.0009327
-0.00299391
0.00101569
-0.00311562
0.00107951
-0.00318772
0.00112776
-0.00322475
0.00116412
-0.00323856
0.00119181
-0.00323799
0.00121337
-0.00322917
0.0012307
-0.00321619
0.00124513
-0.0032016
0.00125758
-0.00318698
0.00126867
-0.00317331
0.00127881
-0.0031612
-0.00315122
0.00128823
3.58085e-05
-0.000262638
0.000126465
-0.000822664
0.000253952
-0.00138221
0.000398713
-0.00189648
0.000542986
-0.00233145
0.000673844
-0.00267127
0.000784231
-0.00291722
0.000872197
-0.00308188
0.000939286
-0.00318271
0.000988859
-0.00323729
0.0010248
-0.00326069
0.00105071
-0.00326447
0.00106953
-0.00325681
0.00108348
-0.00324312
0.00109412
-0.00322683
0.00110251
-0.00320999
0.00110938
-0.00319384
0.00111518
-0.00317911
0.00112022
-0.00316625
-0.00315567
0.00112467
3.71531e-05
-0.000299791
0.00012853
-0.000914041
0.0002534
-0.00150708
0.000390813
-0.00203389
0.000523232
-0.00246387
0.000639124
-0.00278716
0.000733226
-0.00301132
0.000805165
-0.00315382
0.000857544
-0.00323509
0.000894229
-0.00327398
0.00091917
-0.00328563
0.000935765
-0.00328107
0.000946634
-0.00326768
0.00095365
-0.00325014
0.00095808
-0.00323126
0.000960761
-0.00321267
0.000962242
-0.00319532
0.000962882
-0.00317975
0.000962909
-0.00316628
-0.0031552
0.000962434
3.80813e-05
-0.000337873
0.000128999
-0.00100496
0.000249598
-0.00162768
0.000378046
-0.00216234
0.000497514
-0.00258334
0.000598102
-0.00288775
0.000676312
-0.00308953
0.000733147
-0.00321065
0.000772007
-0.00327395
0.000797033
-0.003299
0.000812086
-0.00330069
0.000820278
-0.00328926
0.000823885
-0.00327129
0.00082446
-0.00325071
0.000823014
-0.00322981
0.000820194
-0.00320985
0.000816421
-0.00319155
0.000811973
-0.0031753
0.00080702
-0.00316132
-0.00314982
0.000801643
3.85589e-05
-0.000376431
0.000127841
-0.00109424
0.000242651
-0.00174249
0.000360803
-0.00228049
0.000466581
-0.00268912
0.00055185
-0.00297302
0.000614767
-0.00315245
0.00065748
-0.00325337
0.000683945
-0.00330041
0.000698389
-0.00331345
0.000704469
-0.00330677
0.00070497
-0.00328976
0.000701831
-0.00326815
0.000696316
-0.0032452
0.000689218
-0.00322272
0.000681034
-0.00320167
0.000672087
-0.0031826
0.000662592
-0.00316581
0.000652681
-0.00315141
-0.00313955
0.000642414
3.85636e-05
-0.000414995
0.000125067
-0.00118074
0.000232739
-0.00185016
0.000339552
-0.00238731
0.000431214
-0.00278078
0.000501392
-0.0030432
0.000549738
-0.0032008
0.000579308
-0.00328294
0.000594399
-0.0033155
0.000599175
-0.00331822
0.00059702
-0.00330461
0.000590376
-0.00328312
0.000580868
-0.00325864
0.000569509
-0.00323384
0.000556911
-0.00321012
0.000543451
-0.00318821
0.000529377
-0.00316853
0.000514857
-0.00315129
0.0005
-0.00313656
-0.00312441
0.000484852
3.80853e-05
-0.00045308
0.000120732
-0.00126339
0.000220103
-0.00194953
0.000314801
-0.00248201
0.000392183
-0.00285816
0.000447675
-0.00309869
0.00048223
-0.00323535
0.000499587
-0.00330029
0.000504203
-0.00332012
0.000500074
-0.00331409
0.000490266
-0.0032948
0.00047689
-0.00326974
0.000461285
-0.00324303
0.000444251
-0.00321681
0.000426254
-0.00319212
0.000407575
-0.00316953
0.000388402
-0.00314935
0.000368872
-0.00313176
0.000349075
-0.00311676
-0.00310439
0.000329055
3.71254e-05
-0.000490206
0.000114922
-0.00134119
0.000205025
-0.00203963
0.000287079
-0.00256406
0.000350225
-0.00292131
0.000391551
-0.00314002
0.000413106
-0.00325691
0.000419107
-0.0033063
0.000414025
-0.00331504
0.000401613
-0.00330168
0.000384605
-0.00327779
0.000364801
-0.00324994
0.000343293
-0.00322152
0.000320701
-0.00319421
0.000297371
-0.00316879
0.000273508
-0.00314567
0.000249255
-0.0031251
0.000224723
-0.00310723
0.000199995
-0.00309203
-0.0030795
0.000175114
3.56958e-05
-0.000525902
0.00010775
-0.00141324
0.000187808
-0.00211969
0.000256904
-0.00263315
0.000306022
-0.00297043
0.000333772
-0.00316777
0.000343097
-0.00326623
0.000338512
-0.00330171
0.000324391
-0.00330091
0.000304196
-0.00328149
0.000280335
-0.00325393
0.000254325
-0.00322393
0.000227047
-0.00319425
0.000198974
-0.00316614
0.000170356
-0.00314017
0.000141335
-0.00311665
0.000112015
-0.00309578
8.24887e-05
-0.0030777
5.28364e-05
-0.00306238
-0.00304978
2.31069e-05
3.3818e-05
-0.00055972
9.93501e-05
-0.00147877
0.000168772
-0.00218911
0.000224776
-0.00268916
0.000260192
-0.00300584
0.00027499
-0.00318256
0.000272813
-0.00326406
0.000258323
-0.00328722
0.000235713
-0.0032783
0.000208133
-0.00325391
0.00017768
-0.00322348
0.000145623
-0.00319187
0.000112664
-0.00316129
7.91604e-05
-0.00313264
4.52833e-05
-0.0031063
1.11214e-05
-0.00308248
-2.32551e-05
-0.0030614
-5.77685e-05
-0.00304319
-9.23352e-05
-0.00302781
-0.00301521
-0.000126895
3.15213e-05
-0.000591241
8.98689e-05
-0.00153712
0.000148231
-0.00224747
0.000191165
-0.00273209
0.000213289
-0.00302797
0.000215768
-0.00318504
0.000202763
-0.00325105
0.000178963
-0.00326342
0.000148322
-0.00324766
0.00011367
-0.00321926
7.68173e-05
-0.00318663
3.88185e-05
-0.00315387
2.32998e-07
-0.0031227
-3.86736e-05
-0.00309373
-7.77941e-05
-0.00306718
-0.000117086
-0.00304319
-0.000156511
-0.00302198
-0.000196005
-0.00300369
-0.000235475
-0.00298834
-0.00297584
-0.000274845
2.88414e-05
-0.000620082
7.94607e-05
-0.00158774
0.000126494
-0.00229451
0.000156501
-0.0027621
0.000165804
-0.00303727
0.000156585
-0.00317582
0.000133371
-0.00322784
0.000100778
-0.00323083
6.24817e-05
-0.00320937
2.10014e-05
-0.00317778
-2.21123e-05
-0.00314352
-6.59865e-05
-0.00311
-0.000110174
-0.00307851
-0.000154478
-0.00304943
-0.000198841
-0.00302281
-0.000243261
-0.00299877
-0.000287734
-0.00297751
-0.000332208
-0.00295922
-0.000376581
-0.00294397
-0.00293168
-0.000420747
2.58193e-05
-0.000645902
6.82828e-05
-0.0016302
0.000103856
-0.00233008
0.000121179
-0.00277942
0.000118166
-0.00303426
9.78517e-05
-0.00315551
6.49916e-05
-0.00319498
2.40543e-05
-0.00318989
-2.15839e-05
-0.00316373
-6.97024e-05
-0.00312966
-0.000118982
-0.00309424
-0.000168699
-0.00306028
-0.000218492
-0.00302872
-0.000268211
-0.00299971
-0.000317835
-0.00297319
-0.000367399
-0.00294921
-0.000416935
-0.00292797
-0.000466413
-0.00290974
-0.000515712
-0.00289467
-0.0028827
-0.000564691
2.24995e-05
-0.000668401
5.64921e-05
-0.0016642
8.05918e-05
-0.00235418
8.55531e-05
-0.00278439
7.07528e-05
-0.00301945
3.99216e-05
-0.00312468
-2.07089e-06
-0.00315298
-5.09605e-05
-0.003141
-0.000103678
-0.00311101
-0.000158285
-0.00307505
-0.000213666
-0.00303885
-0.000269221
-0.00300472
-0.00032465
-0.00297329
-0.000379831
-0.00294453
-0.00043476
-0.00291826
-0.000489507
-0.00289446
-0.000544146
-0.00287333
-0.00059868
-0.00285521
-0.000652976
-0.00284037
-0.00282884
-0.000706831
1.89293e-05
-0.000687331
4.42419e-05
-0.00168951
5.69608e-05
-0.0023669
4.99441e-05
-0.00277737
2.38964e-05
-0.00299341
-1.68986e-05
-0.00308388
-6.75521e-05
-0.00310233
-0.000124044
-0.00308451
-0.000183613
-0.00305144
-0.000244584
-0.00301408
-0.000306024
-0.00297741
-0.000367435
-0.00294331
-0.000428557
-0.00291217
-0.000489278
-0.00288381
-0.000549593
-0.00285794
-0.000609593
-0.00283446
-0.0006694
-0.00281352
-0.000729066
-0.00279554
-0.000788457
-0.00278098
-0.00277003
-0.000847272
1.51575e-05
-0.000702488
3.168e-05
-0.00170603
3.32007e-05
-0.00236842
1.46388e-05
-0.00275881
-2.21108e-05
-0.00295666
-7.23387e-05
-0.00303365
-0.000131214
-0.00304346
-0.000194987
-0.00302074
-0.000261199
-0.00298523
-0.000328421
-0.00294686
-0.000395883
-0.00290995
-0.000463179
-0.00287602
-0.000530079
-0.00284527
-0.00059646
-0.00281743
-0.000662293
-0.00279211
-0.000727664
-0.00276909
-0.000792735
-0.00274845
-0.000857624
-0.00273065
-0.00092221
-0.0027164
-0.00270619
-0.000986052
1.12332e-05
-0.000713721
1.89471e-05
-0.00171375
9.52956e-06
-0.002359
-2.01065e-05
-0.00272917
-6.70101e-05
-0.00290975
-0.000126158
-0.00297451
-0.000192837
-0.00297678
-0.000263584
-0.00294999
-0.000336232
-0.00291258
-0.000409582
-0.00287351
-0.00048302
-0.00283652
-0.000556225
-0.00280281
-0.000629002
-0.00277249
-0.000701208
-0.00274522
-0.000772769
-0.00272055
-0.000843723
-0.00269814
-0.000914244
-0.00267793
-0.000984527
-0.00266037
-0.00105448
-0.00264644
-0.00263711
-0.00112356
7.20539e-06
-0.000720927
6.17512e-06
-0.00171272
-1.3855e-05
-0.00233897
-5.40643e-05
-0.00268896
-0.000110573
-0.00285325
-0.00017814
-0.00290694
-0.000252215
-0.0029027
-0.000329627
-0.00287258
-0.000408489
-0.00283372
-0.000487819
-0.00279418
-0.00056715
-0.00275718
-0.000646258
-0.0027237
-0.000724996
-0.00269376
-0.00080322
-0.002667
-0.000880802
-0.00264297
-0.000957705
-0.00262124
-0.00103408
-0.00260156
-0.00111021
-0.00258424
-0.00118607
-0.00257058
-0.00256186
-0.00126132
3.1213e-06
-0.000724048
-6.51411e-06
-0.00170308
-3.67762e-05
-0.00230871
-8.70346e-05
-0.0026387
-0.0001526
-0.00278768
-0.000228091
-0.00283145
-0.000309153
-0.00282164
-0.000392907
-0.00278882
-0.000477731
-0.00274889
-0.000562843
-0.00270907
-0.000647926
-0.0026721
-0.000732867
-0.00263876
-0.000817603
-0.00260902
-0.000902033
-0.00258257
-0.000986008
-0.00255899
-0.00106942
-0.00253783
-0.00115236
-0.00251861
-0.00123523
-0.00250137
-0.00131826
-0.00248755
-0.0024781
-0.00140202
-9.74247e-07
-0.000723074
-1.90107e-05
-0.00168504
-5.90798e-05
-0.00226864
-0.000118847
-0.00257894
-0.000192919
-0.00271361
-0.000275842
-0.00274853
-0.000363473
-0.00273401
-0.000453216
-0.00269908
-0.000543693
-0.00265842
-0.000634311
-0.00261845
-0.000724902
-0.00258151
-0.000815488
-0.00254818
-0.000906144
-0.00251836
-0.000996904
-0.00249181
-0.00108772
-0.00246818
-0.00117847
-0.00244707
-0.00126917
-0.00242791
-0.00136017
-0.00241036
-0.00145207
-0.00239566
-0.00238259
-0.00154758
-5.04011e-06
-0.000718034
-3.12181e-05
-0.00165887
-8.0635e-05
-0.00221922
-0.00014936
-0.00251021
-0.000231394
-0.00263157
-0.000321256
-0.00265866
-0.000415025
-0.00264024
-0.000510365
-0.00260374
-0.000606115
-0.00256267
-0.000701842
-0.00252272
-0.000797506
-0.00248585
-0.000893266
-0.00245242
-0.000989378
-0.00242225
-0.00108614
-0.00239505
-0.00118383
-0.00237049
-0.00128265
-0.00234825
-0.00138272
-0.00232784
-0.00148462
-0.00230846
-0.00159063
-0.00228966
-0.00228299
-0.00169023
-9.0274e-06
-0.000709006
-4.30348e-05
-0.00162486
-0.000101313
-0.00216095
-0.000178445
-0.00243308
-0.000267905