/*--------------------------------*- C++ -*----------------------------------*\
  =========                 |
  \\      /  F ield         | OpenFOAM: The Open Source CFD Toolbox
   \\    /   O peration     | Website:  https://openfoam.org
    \\  /    A nd           | Version:  6.0
     \\/     M anipulation  |
\*---------------------------------------------------------------------------*/
FoamFile
{
    version     2.0;
    format      ascii;
    class       volScalarField;
    location    "65";
    object      p;
}
// * * * * * * * * * * * * * * * * * * * * * * * * * * * * * * * * * * * * * //

dimensions      [0 2 -2 0 0 0 0];

internalField   nonuniform List<scalar> 
4000
(
-0.560902
-0.546128
-0.532407
-0.51645
-0.497061
-0.47502
-0.451487
-0.42758
-0.404194
-0.381921
-0.36108
-0.341784
-0.324016
-0.307689
-0.292683
-0.27887
-0.266129
-0.254315
-0.243214
-0.233144
-0.568123
-0.552937
-0.538246
-0.520556
-0.498908
-0.474463
-0.448694
-0.422884
-0.397969
-0.374514
-0.352774
-0.332798
-0.314515
-0.297796
-0.282491
-0.26845
-0.255537
-0.243587
-0.23237
-0.222289
-0.573174
-0.557671
-0.541951
-0.522408
-0.498432
-0.471611
-0.443719
-0.416169
-0.389909
-0.365448
-0.342969
-0.322454
-0.30378
-0.286778
-0.271271
-0.25709
-0.244086
-0.232072
-0.22081
-0.210789
-0.575681
-0.559955
-0.543154
-0.521677
-0.495364
-0.46626
-0.436411
-0.407324
-0.379926
-0.35465
-0.331601
-0.310695
-0.291758
-0.274587
-0.258978
-0.24475
-0.23174
-0.219739
-0.208504
-0.198619
-0.575291
-0.559434
-0.541517
-0.518068
-0.489475
-0.458241
-0.426648
-0.39626
-0.367946
-0.342057
-0.318614
-0.297469
-0.278402
-0.261179
-0.245576
-0.231398
-0.21847
-0.206562
-0.195432
-0.185759
-0.57168
-0.555782
-0.536736
-0.511331
-0.480576
-0.447421
-0.41434
-0.382906
-0.353915
-0.327621
-0.303964
-0.282735
-0.263676
-0.246523
-0.231037
-0.217008
-0.204254
-0.192525
-0.181581
-0.172198
-0.564564
-0.548715
-0.528554
-0.501263
-0.468525
-0.433706
-0.399421
-0.367216
-0.337793
-0.311306
-0.287618
-0.266465
-0.247553
-0.230596
-0.215339
-0.201566
-0.189081
-0.177617
-0.166945
-0.15793
-0.553708
-0.537996
-0.516766
-0.487713
-0.453226
-0.417039
-0.381857
-0.349166
-0.319559
-0.293093
-0.269558
-0.248642
-0.230019
-0.213386
-0.198476
-0.185064
-0.172947
-0.161841
-0.151528
-0.142961
-0.538931
-0.523446
-0.501226
-0.470589
-0.434631
-0.397402
-0.361644
-0.328754
-0.299212
-0.272979
-0.24978
-0.22926
-0.21107
-0.19489
-0.180446
-0.167507
-0.15586
-0.145206
-0.135345
-0.127303
-0.520112
-0.504946
-0.481851
-0.449851
-0.412739
-0.374812
-0.338804
-0.306002
-0.27677
-0.250978
-0.228293
-0.208328
-0.190713
-0.175118
-0.16126
-0.148906
-0.137834
-0.127734
-0.118421
-0.110985
-0.497196
-0.482443
-0.458617
-0.425517
-0.387593
-0.349324
-0.313391
-0.280957
-0.25227
-0.22712
-0.205124
-0.185868
-0.168968
-0.154085
-0.140935
-0.12928
-0.118893
-0.109452
-0.100792
-0.0940502
-0.470191
-0.455947
-0.431565
-0.39766
-0.359281
-0.321027
-0.285486
-0.253688
-0.225771
-0.201453
-0.180311
-0.161912
-0.145861
-0.131817
-0.119493
-0.108651
-0.0990587
-0.0903885
-0.0824957
-0.0765459
-0.439172
-0.425536
-0.400797
-0.366402
-0.327935
-0.290046
-0.2552
-0.224291
-0.197353
-0.174044
-0.15391
-0.136504
-0.121429
-0.108343
-0.0969592
-0.0870419
-0.0783544
-0.0705713
-0.0635668
-0.0584957
-0.404277
-0.39135
-0.366472
-0.331916
-0.293726
-0.256536
-0.222671
-0.192884
-0.167116
-0.144977
-0.125989
-0.109701
-0.0957152
-0.0836949
-0.073358
-0.0644714
-0.0567995
-0.050025
-0.044028
-0.0398872
-0.365707
-0.353588
-0.328803
-0.294422
-0.256861
-0.220689
-0.188066
-0.159613
-0.135187
-0.114357
-0.0966346
-0.0815677
-0.068767
-0.0579042
-0.048707
-0.0409494
-0.0344031
-0.0287623
-0.0238866
-0.0207163
-0.323717
-0.312508
-0.288053
-0.254178
-0.217584
-0.182725
-0.151583
-0.124651
-0.101715
-0.0823133
-0.0659527
-0.0521888
-0.0406447
-0.0310078
-0.0230221
-0.0164749
-0.011151
-0.00676281
-0.00314817
-0.00112113
-0.278618
-0.268414
-0.244529
-0.211482
-0.176173
-0.142894
-0.113444
-0.0881966
-0.0668749
-0.0489966
-0.0340705
-0.0216653
-0.0114233
-0.00305592
0.00366836
0.00894545
0.0129728
0.0159787
0.0180548
0.0184676
-0.230762
-0.221657
-0.198577
-0.166664
-0.132932
-0.101474
-0.0739033
-0.050478
-0.0308704
-0.0145839
-0.00113406
0.00989248
0.0188271
0.0259233
0.0313761
0.0353591
0.0380263
0.0394182
0.0393834
0.0375805
-0.180543
-0.172622
-0.150574
-0.120082
-0.0881933
-0.0587701
-0.0332393
-0.0117533
0.00606126
0.0207119
0.0326769
0.0423542
0.05005
0.0559811
0.0603033
0.0631578
0.0645758
0.0641767
0.0614376
0.0573798
-0.128385
-0.121727
-0.100922
-0.0721153
-0.0423069
-0.0151072
0.00824272
0.0276874
0.0436403
0.0566193
0.067102
0.0754833
0.0820658
0.0870648
0.0906502
0.0929819
0.0939568
0.0926725
0.0883707
0.083973
-0.0747378
-0.0694091
-0.0500443
-0.0231575
0.00436203
0.0291754
0.0502216
0.0675329
0.0815554
0.0928139
0.101786
0.108869
0.114382
0.118578
0.121716
0.12409
0.125665
0.125397
0.123004
0.127205
-0.0200571
-0.0161182
0.00163097
0.0263902
0.0514428
0.0737329
0.0923717
0.107469
0.119495
0.128973
0.136375
0.142091
0.146435
0.149676
0.152088
0.153947
0.155234
0.155448
0.155527
0.161984
0.0351828
0.0376847
0.0536664
0.0761235
0.0985643
0.118222
0.134372
0.147189
0.157161
0.164807
0.170585
0.174875
0.177986
0.180183
0.181728
0.182851
0.183529
0.183449
0.18356
0.188837
0.0905076
0.0915384
0.105627
0.125643
0.145361
0.162307
0.175909
0.186399
0.194272
0.200037
0.204133
0.206925
0.208706
0.209729
0.210234
0.210426
0.210299
0.209611
0.209142
0.212838
0.145447
0.144986
0.157085
0.174555
0.191477
0.205665
0.216687
0.224825
0.230575
0.234429
0.236807
0.238052
0.238438
0.238196
0.237541
0.236647
0.235495
0.233871
0.232494
0.234726
0.199537
0.197579
0.207621
0.222481
0.236569
0.247983
0.256423
0.262208
0.265832
0.267767
0.268412
0.268085
0.267039
0.265485
0.263614
0.26157
0.259319
0.256672
0.25431
0.25514
0.25233
0.248884
0.256832
0.269055
0.280308
0.288966
0.29485
0.298308
0.299828
0.299861
0.29878
0.296882
0.294397
0.291515
0.288404
0.285185
0.281811
0.278123
0.274774
0.274282
0.30339
0.298481
0.304331
0.313926
0.322381
0.328334
0.331716
0.332899
0.332361
0.330531
0.327758
0.324314
0.320411
0.316218
0.311882
0.307502
0.303027
0.298327
0.294018
0.292271
0.352305
0.345972
0.349749
0.356763
0.36249
0.365821
0.366782
0.365768
0.363241
0.35961
0.355199
0.350258
0.34498
0.339515
0.33399
0.328489
0.322959
0.317296
0.312068
0.309131
0.398682
0.39098
0.392738
0.397253
0.400358
0.401177
0.399826
0.396714
0.39229
0.38694
0.380965
0.374595
0.368004
0.361324
0.354668
0.348102
0.341577
0.335009
0.328912
0.324852
0.442154
0.433153
0.432975
0.435106
0.435723
0.434169
0.430638
0.42555
0.41934
0.412371
0.404923
0.397208
0.389381
0.38156
0.373841
0.366279
0.358828
0.351421
0.34451
0.339399
0.482379
0.472162
0.470158
0.47005
0.468343
0.464579
0.459022
0.452099
0.444231
0.43576
0.426947
0.417984
0.409011
0.400133
0.391432
0.382951
0.37465
0.366476
0.358811
0.352724
0.519044
0.507709
0.504014
0.50184
0.497997
0.492209
0.4848
0.4762
0.466817
0.456975
0.446916
0.436814
0.426797
0.416956
0.407361
0.398046
0.388977
0.380109
0.371756
0.364775
0.551868
0.539523
0.534293
0.530251
0.524484
0.516878
0.507807
0.497704
0.486965
0.475894
0.464718
0.453598
0.442647
0.431945
0.421551
0.411492
0.40174
0.392256
0.383285
0.3755
0.580598
0.567364
0.560777
0.555086
0.547628
0.538426
0.527898
0.516479
0.504551
0.492406
0.480253
0.468242
0.456474
0.44502
0.433929
0.423222
0.412876
0.402857
0.393344
0.384852
0.605018
0.591025
0.583273
0.576172
0.567272
0.556712
0.544945
0.532408
0.519471
0.506413
0.493431
0.480663
0.468203
0.456111
0.444429
0.433174
0.422326
0.411854
0.40188
0.392784
0.624944
0.61033
0.601622
0.593366
0.583287
0.571619
0.558841
0.545393
0.531634
0.517832
0.504175
0.490792
0.477768
0.465158
0.452995
0.441295
0.43004
0.419201
0.40885
0.39926
0.640227
0.625138
0.615694
0.606551
0.595567
0.583049
0.569499
0.555353
0.540965
0.526595
0.512422
0.498569
0.485114
0.472108
0.459579
0.447539
0.435974
0.424855
0.414215
0.404246
0.650756
0.635342
0.625392
0.615637
0.604032
0.590931
0.576851
0.562228
0.54741
0.532651
0.518125
0.50395
0.490201
0.476925
0.464145
0.451873
0.440097
0.428787
0.417949
0.40772
0.656455
0.640871
0.630649
0.620566
0.608628
0.595217
0.580854
0.565977
0.55093
0.535964
0.521251
0.506905
0.493001
0.479581
0.466669
0.454273
0.442385
0.430975
0.420032
0.409665
0.657288
0.641689
0.631433
0.621309
0.60933
0.595881
0.581485
0.566578
0.551506
0.536517
0.521783
0.507419
0.493498
0.480063
0.467137
0.454729
0.442829
0.431408
0.420456
0.410074
0.653255
0.637796
0.627745
0.617866
0.606137
0.592924
0.578745
0.564034
0.549138
0.53431
0.519723
0.505492
0.491694
0.478372
0.46555
0.453239
0.441428
0.430088
0.419219
0.408946
0.644393
0.629228
0.619617
0.610266
0.599076
0.586371
0.572655
0.558363
0.543846
0.529361
0.515085
0.501139
0.487602
0.474519
0.461921
0.449816
0.438192
0.427023
0.416332
0.40629
0.630777
0.616058
0.607115
0.598569
0.588201
0.57627
0.563261
0.549607
0.535667
0.521704
0.507903
0.494391
0.48125
0.468533
0.456272
0.444481
0.433145
0.422234
0.411813
0.40212
0.612519
0.598391
0.590338
0.582863
0.573592
0.562695
0.550628
0.537828
0.524657
0.511392
0.498225
0.48529
0.472679
0.46045
0.448642
0.437271
0.426317
0.415753
0.405689
0.396461
0.589768
0.576369
0.569414
0.563266
0.555355
0.545741
0.534846
0.523104
0.510891
0.498492
0.486112
0.473897
0.461944
0.450322
0.439076
0.428227
0.417752
0.40762
0.397997
0.389344
0.562707
0.550168
0.544505
0.539923
0.533621
0.525526
0.516021
0.505537
0.494459
0.483088
0.471643
0.460281
0.449111
0.43821
0.427633
0.417405
0.407499
0.397882
0.388781
0.380808
0.531553
0.519995
0.515801
0.513005
0.508544
0.502192
0.494281
0.485241
0.475467
0.465278
0.454908
0.444527
0.434257
0.424185
0.414377
0.404866
0.395619
0.386596
0.378093
0.370896
0.496558
0.48609
0.483523
0.482711
0.480302
0.475898
0.469773
0.462349
0.454037
0.445172
0.436006
0.426726
0.417465
0.408325
0.399382
0.390678
0.382175
0.373823
0.365989
0.359659
0.458002
0.448723
0.447918
0.449263
0.449096
0.446826
0.44266
0.437011
0.430304
0.422894
0.415052
0.406981
0.398831
0.390715
0.382726
0.374913
0.367234
0.359628
0.352528
0.347147
0.416199
0.408193
0.40926
0.412908
0.415148
0.415175
0.413121
0.409388
0.404415
0.398576
0.392163
0.385399
0.37845
0.371444
0.364488
0.357644
0.350865
0.344075
0.337769
0.333413
0.371488
0.364825
0.367849
0.373916
0.378698
0.381161
0.381351
0.379657
0.376528
0.372361
0.367469
0.362096
0.356425
0.350601
0.344747
0.33894
0.33313
0.327221
0.321765
0.318505
0.324236
0.318971
0.324009
0.332578
0.340006
0.345017
0.347561
0.348004
0.346811
0.344399
0.341103
0.337189
0.332858
0.328275
0.323578
0.318864
0.314082
0.309114
0.304556
0.302458
0.274832
0.271007
0.278086
0.289205
0.299352
0.306993
0.311972
0.314632
0.315445
0.314849
0.313204
0.310797
0.307851
0.304547
0.301046
0.297464
0.293756
0.289775
0.286156
0.285288
0.223688
0.22133
0.230446
0.244128
0.25703
0.267353
0.274823
0.279751
0.282617
0.283878
0.283918
0.283045
0.281505
0.279497
0.277207
0.274773
0.272161
0.269196
0.266543
0.266968
0.171236
0.170353
0.181474
0.197693
0.213352
0.226377
0.236364
0.243588
0.24853
0.251665
0.253399
0.254063
0.253922
0.253198
0.252097
0.250786
0.249247
0.247282
0.245592
0.247389
0.117921
0.118511
0.131572
0.150266
0.168646
0.184359
0.196862
0.206382
0.213398
0.218401
0.221816
0.223993
0.225217
0.225731
0.225765
0.225517
0.224979
0.223927
0.223124
0.226353
0.0642017
0.0662456
0.0811533
0.102222
0.123252
0.141607
0.156596
0.168389
0.177457
0.184299
0.18936
0.193005
0.195532
0.197196
0.198249
0.198913
0.199166
0.198711
0.19848
0.203251
0.0105448
0.0140105
0.0306439
0.0539517
0.0775237
0.0984437
0.115861
0.129881
0.140957
0.149593
0.156244
0.161287
0.165024
0.167714
0.169621
0.171009
0.171861
0.171698
0.171437
0.177352
-0.0425809
-0.0377384
-0.0195266
0.00585014
0.0318221
0.0552003
0.0749663
0.0911492
0.104177
0.114556
0.122746
0.12913
0.134014
0.137644
0.140268
0.142164
0.143298
0.142666
0.140012
0.14376
-0.0947076
-0.0885456
-0.0689264
-0.0416829
-0.0134855
0.0122164
0.0342291
0.0524954
0.0674112
0.0794743
0.0891446
0.0968027
0.10274
0.107163
0.110235
0.112107
0.112675
0.111066
0.10657
0.102067
-0.145385
-0.137969
-0.117131
-0.0882515
-0.058033
-0.0301677
-0.00602947
0.0142296
0.0309652
0.0446645
0.0557878
0.0647183
0.0717513
0.0770954
0.0809011
0.0833027
0.0843266
0.0836039
0.080652
0.0765087
-0.19417
-0.185576
-0.163727
-0.133467
-0.101461
-0.0716176
-0.0454929
-0.0233422
-0.00485488
0.0104446
0.023022
0.0332755
0.0415244
0.0480131
0.0529298
0.0564412
0.058692
0.0597193
0.0593964
0.0574391
-0.240648
-0.230958
-0.208316
-0.176957
-0.143423
-0.111813
-0.0838613
-0.0599346
-0.0397743
-0.0229195
-0.00889815
0.00270454
0.0122331
0.0199657
0.0261255
0.030901
0.0344793
0.0370776
0.0388015
0.0389826
-0.284432
-0.273736
-0.25053
-0.218369
-0.183594
-0.150454
-0.120859
-0.0952933
-0.0735596
-0.0552179
-0.0397954
-0.0268648
-0.0160636
-0.0070905
0.000301235
0.00631638
0.0111595
0.0151051
0.0183234
0.0200626
-0.325177
-0.31357
-0.290031
-0.257381
-0.221675
-0.187268
-0.156238
-0.129194
-0.10601
-0.0862761
-0.0695244
-0.0553216
-0.0432931
-0.0331228
-0.0245483
-0.0173519
-0.0113161
-0.00614887
-0.00170315
0.00114286
-0.362582
-0.350161
-0.326519
-0.293702
-0.257393
-0.222008
-0.189778
-0.161442
-0.136953
-0.115944
-0.0979587
-0.0825644
-0.0693797
-0.0580796
-0.048393
-0.0400952
-0.0329615
-0.0266887
-0.0211515
-0.0173639
-0.396399
-0.383263
-0.35974
-0.327078
-0.290512
-0.254459
-0.221287
-0.191865
-0.166241
-0.144094
-0.124993
-0.10851
-0.0942627
-0.0819228
-0.0712148
-0.0619118
-0.0537875
-0.0465312
-0.0400134
-0.0353239
-0.426437
-0.412684
-0.389488
-0.3573
-0.320829
-0.284436
-0.2506
-0.220323
-0.193751
-0.170624
-0.150542
-0.133091
-0.117893
-0.104619
-0.0929933
-0.0827887
-0.0737816
-0.0656599
-0.0582774
-0.0527364
-0.452564
-0.438291
-0.415613
-0.384201
-0.348179
-0.311786
-0.277582
-0.246697
-0.219382
-0.19545
-0.174538
-0.156252
-0.140226
-0.126134
-0.113702
-0.102704
-0.0929215
-0.0840472
-0.0759171
-0.0696086
-0.474713
-0.460016
-0.438022
-0.407666
-0.372437
-0.33639
-0.302127
-0.270896
-0.243058
-0.218505
-0.196924
-0.177949
-0.161225
-0.146438
-0.133316
-0.121635
-0.111183
-0.101664
-0.0928971
-0.0859139
-0.492882
-0.477854
-0.456681
-0.42763
-0.393522
-0.358162
-0.324157
-0.292851
-0.264721
-0.239744
-0.217664
-0.198148
-0.180863
-0.165505
-0.15181
-0.139556
-0.128542
-0.118481
-0.109177
-0.101605
-0.507132
-0.491866
-0.471619
-0.444083
-0.411396
-0.377055
-0.343622
-0.312521
-0.284336
-0.259136
-0.236731
-0.216829
-0.199121
-0.183319
-0.169166
-0.15645
-0.144974
-0.134468
-0.124721
-0.116637
-0.517588
-0.502173
-0.482929
-0.457069
-0.426067
-0.393055
-0.360503
-0.329885
-0.301885
-0.276669
-0.254117
-0.233983
-0.215991
-0.19987
-0.185376
-0.172302
-0.160463
-0.149604
-0.139503
-0.130982
-0.524432
-0.50896
-0.490759
-0.46669
-0.437588
-0.406186
-0.374808
-0.344946
-0.317374
-0.292348
-0.269826
-0.249617
-0.231477
-0.21516
-0.200436
-0.187109
-0.175002
-0.163878
-0.153507
-0.144625
-0.527902
-0.512463
-0.495319
-0.4731
-0.446062
-0.416511
-0.386576
-0.357734
-0.330824
-0.306194
-0.283878
-0.263746
-0.245593
-0.229201
-0.214357
-0.200876
-0.188592
-0.177287
-0.166728
-0.15756
-0.528279
-0.512967
-0.496866
-0.476506
-0.451637
-0.424127
-0.395875
-0.368296
-0.342276
-0.318242
-0.296306
-0.276401
-0.258367
-0.242016
-0.227158
-0.213619
-0.201246
-0.18984
-0.17917
-0.16979
-0.525885
-0.510793
-0.495703
-0.47716
-0.454503
-0.429173
-0.402801
-0.376706
-0.351789
-0.328542
-0.307155
-0.287622
-0.269834
-0.253637
-0.238865
-0.22536
-0.212982
-0.201552
-0.190844
-0.181325
-0.521067
-0.506291
-0.492166
-0.475357
-0.454895
-0.431823
-0.407481
-0.383059
-0.359438
-0.33716
-0.316482
-0.297461
-0.280041
-0.264106
-0.249516
-0.236132
-0.223828
-0.212446
-0.20177
-0.192181
-0.514193
-0.499828
-0.486613
-0.471423
-0.453083
-0.432282
-0.410069
-0.387468
-0.365312
-0.34417
-0.324352
-0.305978
-0.289043
-0.273471
-0.259154
-0.245974
-0.233819
-0.222553
-0.211974
-0.202382
0.0679127
0.0379022
0.0164611
0.00657496
-0.00233086
-0.0145901
-0.0284025
-0.0417122
-0.0542019
-0.0663175
-0.0783209
-0.0901815
-0.101795
-0.113112
-0.124133
-0.134879
-0.145368
-0.15562
-0.165661
-0.175526
0.0146255
0.000765158
-0.0106581
-0.0178574
-0.0236023
-0.0302659
-0.0378902
-0.0455107
-0.052592
-0.059199
-0.0655508
-0.0717399
-0.0777422
-0.0835139
-0.0890384
-0.0943214
-0.0993729
-0.104198
-0.108799
-0.113176
0.00597797
0.000229193
-0.00406457
-0.00813604
-0.0123147
-0.0166237
-0.0210299
-0.0254342
-0.0297405
-0.0339301
-0.0380422
-0.0421144
-0.0461571
-0.0501646
-0.0541321
-0.0580615
-0.0619592
-0.0658316
-0.0696844
-0.0735235
0.00324584
-0.000136852
-0.00272384
-0.00574755
-0.00918701
-0.0126533
-0.0159807
-0.0192036
-0.0223763
-0.0255102
-0.0285954
-0.0316259
-0.0346019
-0.0375246
-0.040394
-0.0432102
-0.0459737
-0.0486859
-0.0513484
-0.0539628
0.0017944
-0.000873848
-0.00271545
-0.00470474
-0.00702293
-0.00942336
-0.0117262
-0.0139239
-0.0160708
-0.0181984
-0.0203075
-0.0223907
-0.0244457
-0.026475
-0.0284825
-0.0304713
-0.0324438
-0.0344022
-0.0363489
-0.0382864
0.00118463
-0.000916821
-0.0022411
-0.00357215
-0.00515406
-0.00685016
-0.00851227
-0.0101082
-0.011669
-0.0132217
-0.0147722
-0.0163155
-0.0178477
-0.0193684
-0.0208787
-0.0223801
-0.0238731
-0.0253583
-0.0268359
-0.0283065
0.00162489
3.72987e-05
-0.000927047
-0.00187408
-0.00300973
-0.0042476
-0.00547705
-0.0066657
-0.00783029
-0.00899014
-0.010151
-0.0113102
-0.0124646
-0.0136132
-0.0147566
-0.0158954
-0.0170302
-0.0181612
-0.0192888
-0.0204134
0.00257677
0.0013988
0.00065093
-9.14891e-05
-0.000966049
-0.0019144
-0.00286195
-0.00378506
-0.00469308
-0.00559834
-0.00650497
-0.00741154
-0.0083159
-0.00921713
-0.0101153
-0.0110107
-0.0119035
-0.0127939
-0.0136817
-0.0145671
0.00363468
0.00278478
0.00218308
0.00156134
0.000852893
0.000101703
-0.000647258
-0.00138133
-0.00210644
-0.00282967
-0.00355325
-0.00427632
-0.00499762
-0.00571659
-0.00643324
-0.00714771
-0.00786011
-0.00857051
-0.00927895
-0.00998552
0.00454796
0.0039565
0.00346887
0.00293322
0.00234149
0.0017324
0.00113015
0.000537762
-4.97571e-05
-0.000636066
-0.00122183
-0.00180635
-0.00238898
-0.00296951
-0.00354799
-0.00412452
-0.00469916
-0.00527199
-0.00584308
-0.00641247
0.00523528
0.00483827
0.00444903
0.00399191
0.00349719
0.00300166
0.00251706
0.00203996
0.00156537
0.00109144
0.000618519
0.000147268
-0.000322023
-0.000789396
-0.00125499
-0.00171891
-0.00218125
-0.00264209
-0.00310152
-0.00355961
0.00570884
0.00545291
0.0051515
0.00477353
0.00436849
0.0039711
0.00358652
0.00320807
0.00283073
0.00245348
0.00207712
0.00170227
0.00132903
0.000957188
0.000586546
0.000216952
-0.000151702
-0.000519526
-0.000886641
-0.00125313
0.00604764
0.00590278
0.00568455
0.00538636
0.00506661
0.0047583
0.00446326
0.00417338
0.00388364
0.00359339
0.0033035
0.00301453
0.00272643
0.00243889
0.00215162
0.00186442
0.00157714
0.00128962
0.00100173
0.000713356
0.00631278
0.0062724
0.00613713
0.00591587
0.00567546
0.00544928
0.00523706
0.00502938
0.0048209
0.004611
0.00440055
0.00418999
0.0039791
0.00376742
0.00355457
0.00334027
0.00312432
0.00290653
0.00268672
0.00246479
0.00654727
0.00663642
0.00660495
0.00647254
0.00631931
0.00618313
0.00606246
0.00594556
0.00582585
0.00570238
0.005576
0.00544703
0.00531508
0.00517954
0.00503991
0.00489586
0.00474718
0.0045937
0.00443528
0.00427191
0.00664481
0.00685376
0.00696617
0.0069827
0.00696923
0.00696198
0.00696253
0.00696103
0.00695081
0.00693031
0.00690004
0.00686043
0.00681133
0.0067524
0.0066834
0.00660428
0.00651512
0.00641609
0.0063074
0.00618936
0.00713858
0.00743859
0.0077973
0.00812101
0.00838441
0.0085999
0.00878275
0.00893912
0.00906905
0.00917153
0.00924674
0.0092959
0.00932053
0.00932204
0.00930172
0.0092608
0.00920053
0.00912214
0.00902689
0.00891604
0.00998968
0.0105683
0.011178
0.0116841
0.0120796
0.0123943
0.0126498
0.0128545
0.013011
0.0131214
0.0131887
0.0132165
0.0132084
0.0131677
0.0130973
0.0130002
0.0128787
0.0127355
0.0125727
0.0123926
0.021657
0.0254064
0.0267718
0.0262285
0.025256
0.0245417
0.0240737
0.0236655
0.0232185
0.0227294
0.0222236
0.0217172
0.0212136
0.0207112
0.0202091
0.019708
0.0192092
0.0187138
0.0182228
0.0177367
0.0336848
0.0458967
0.0496631
0.0471519
0.0434626
0.0408257
0.0391401
0.0377636
0.0363642
0.0349231
0.0335139
0.0321797
0.0309226
0.0297299
0.0285915
0.0275031
0.0264629
0.0254688
0.0245186
0.0236097
0.128321
0.128792
0.129755
0.131201
0.133128
0.135548
0.13848
0.141941
0.145942
0.150482
0.155536
0.161039
0.16686
0.17275
0.178248
0.182513
0.183908
0.179256
0.161654
0.115904
0.11936
0.119692
0.120316
0.12125
0.122454
0.123951
0.125668
0.127635
0.129716
0.131937
0.134034
0.136007
0.137342
0.137952
0.136817
0.133584
0.126125
0.113134
0.0893205
0.0484666
0.108976
0.109137
0.109411
0.109809
0.110299
0.110869
0.111447
0.111998
0.112394
0.112562
0.112283
0.11141
0.109571
0.106472
0.101498
0.094096
0.0833445
0.0684478
0.0486553
0.0236891
0.0978309
0.0978308
0.0978039
0.0977485
0.097644
0.0974582
0.0971324
0.0965965
0.0957535
0.0944884
0.0926562
0.0900757
0.0865434
0.0817979
0.0756108
0.0676967
0.0579555
0.0461845
0.0322872
0.0150451
0.0865786
0.0864632
0.0862207
0.0858448
0.0853239
0.084622
0.0836963
0.0824759
0.0808956
0.0788532
0.0762699
0.073014
0.0690125
0.064125
0.0583349
0.0515247
0.0437386
0.0347249
0.0241956
0.0109773
0.0757518
0.0755702
0.0752016
0.0746403
0.0738801
0.0728925
0.0716496
0.0700983
0.0682001
0.065888
0.0631278
0.0598481
0.0560375
0.0516294
0.0466439
0.0409927
0.0346655
0.0274085
0.0189534
0.0084537
0.0657038
0.0654948
0.0650733
0.0644353
0.0635781
0.0624836
0.061136
0.0595026
0.0575639
0.0552819
0.0526452
0.049616
0.0461967
0.0423452
0.0380699
0.033299
0.0280164
0.0220601
0.0152824
0.00714602
0.0566173
0.0564061
0.0559818
0.0553409
0.0544827
0.0533972
0.0520772
0.0505046
0.0486709
0.0465548
0.0441526
0.0414411
0.0384232
0.0350698
0.0313892
0.0273407
0.0229354
0.0180965
0.0127694
0.00663252
0.0485436
0.0483449
0.0479463
0.0473446
0.0465396
0.045526
0.0443019
0.0428574
0.0411901
0.0392872
0.0371487
0.0347597
0.0321255
0.0292297
0.0260876
0.0226835
0.0190468
0.0151513
0.0110124
0.00650859
0.0414496
0.0412702
0.0409106
0.0403675
0.0396405
0.0387267
0.0376267
0.0363359
0.0348554
0.0331783
0.031308
0.0292366
0.0269728
0.0245092
0.0218651
0.0190362
0.0160592
0.0129377
0.00974265
0.00651255
0.0352561
0.035098
0.0347816
0.034303
0.0336617
0.0328559
0.0318879
0.0307562
0.0294646
0.0280109
0.0264017
0.0246346
0.0227211
0.0206587
0.0184672
0.0161464
0.0137353
0.0112546
0.0088097
0.00653422
0.0298655
0.0297281
0.0294535
0.0290379
0.0284806
0.0277807
0.0269416
0.0259641
0.0248537
0.0236111
0.022245
0.0207564
0.0191597
0.0174562
0.0156671
0.0137951
0.0118783
0.00994312
0.00810536
0.00653591
0.0251805
0.025061
0.024823
0.0244629
0.0239805
0.0233761
0.0226547
0.0218187
0.0208752
0.0198259
0.0186797
0.0174387
0.0161177
0.014722
0.0132769
0.0117917
0.0103069
0.00884899
0.00752722
0.00651609
0.0211174
0.021011
0.0208001
0.0204816
0.0200564
0.0195265
0.0188994
0.0181804
0.0173795
0.0165006
0.0155527
0.0145362
0.013462
0.0123324
0.0111727
0.0100008
0.00887055
0.00782318
0.00696704
0.00645551
0.017616
0.017516
0.0173188
0.0170217
0.0166267
0.0161375
0.0155644
0.0149169
0.0142108
0.0134565
0.0126703
0.011856
0.011023
0.0101622
0.00928247
0.00838526
0.00752909
0.00678453
0.00631445
0.00631082
0.0146459
0.0145447
0.014346
0.0140468
0.0136498
0.0131581
0.012584
0.0119382
0.0112431
0.0105168
0.00979344
0.00909479
0.00845609
0.00787668
0.00736019
0.00685524
0.00636192
0.005899
0.00570011
0.00609783
0.0122067
0.0120984
0.0118851
0.0115631
0.0111344
0.0105997
0.00996901
0.00924874
0.00845989
0.00762003
0.00677352
0.00596324
0.00527409
0.00477439
0.0045586
0.00462086
0.00491542
0.00524553
0.0056215
0.00645366
0.0103221
0.0102054
0.00997006
0.00961363
0.00913506
0.00853376
0.00781051
0.00696648
0.0060057
0.00493558
0.00377462
0.0025592
0.00136513
0.000327873
-0.000325882
-0.000288162
0.000755652
0.0028989
0.00574337
0.0084367
0.0090315
0.00890773
0.00865082
0.00826103
0.00773306
0.00706618
0.00624982
0.00528087
0.00414055
0.00282273
0.00129732
-0.00044041
-0.00241891
-0.00458586
-0.0068348
-0.0087455
-0.00952942
-0.00764532
-0.00127059
0.0108456
0.00837684
0.00824616
0.00797626
0.00756548
0.00700843
0.00630004
0.00542782
0.00437911
0.00312927
0.00165159
-0.000102235
-0.00218938
-0.00470692
-0.00777094
-0.0115433
-0.0161214
-0.0213153
-0.025726
-0.0243293
-0.00128405
0.13931
0.139843
0.141042
0.14281
0.145292
0.148388
0.15234
0.157004
0.162759
0.169395
0.1775
0.186759
0.198112
0.211063
0.227199
0.245675
0.269377
0.29671
0.333207
0.375463
0.139221
0.139754
0.140951
0.142717
0.145196
0.148287
0.152234
0.15689
0.162636
0.169259
0.177349
0.186587
0.197912
0.210826
0.226906
0.245307
0.268887
0.296044
0.332255
0.374043
0.139099
0.139631
0.140826
0.142588
0.145063
0.148148
0.152087
0.156733
0.162466
0.169071
0.177138
0.186346
0.197626
0.210481
0.226466
0.24474
0.268105
0.294947
0.330634
0.371554
0.138943
0.139475
0.140667
0.142425
0.144894
0.147972
0.151901
0.156534
0.162249
0.168832
0.176868
0.186034
0.197254
0.210028
0.225882
0.243978
0.267034
0.293427
0.328351
0.368009
0.138753
0.139284
0.140473
0.142227
0.144689
0.147758
0.151675
0.156292
0.161987
0.168542
0.176539
0.185655
0.196797
0.20947
0.225154
0.243022
0.265678
0.29149
0.325415
0.363423
0.138531
0.13906
0.140246
0.141995
0.144449
0.147507
0.15141
0.156009
0.161679
0.168201
0.176153
0.185207
0.196258
0.208808
0.224287
0.241878
0.264044
0.289147
0.321837
0.357818
0.138275
0.138804
0.139985
0.141728
0.144174
0.147221
0.151108
0.155685
0.161327
0.167811
0.175711
0.184693
0.195638
0.208043
0.223285
0.24055
0.262139
0.286411
0.317632
0.351221
0.137986
0.138514
0.139692
0.141429
0.143864
0.146898
0.150767
0.155321
0.160932
0.167373
0.175214
0.184115
0.19494
0.207179
0.222151
0.239044
0.259972
0.283296
0.312815
0.343665
0.137665
0.138193
0.139366
0.141096
0.143521
0.146541
0.150391
0.154918
0.160494
0.166887
0.174664
0.183473
0.194166
0.206219
0.220892
0.237367
0.257555
0.279818
0.307406
0.335188
0.137312
0.13784
0.139009
0.140731
0.143145
0.14615
0.149978
0.154477
0.160015
0.166355
0.174061
0.182769
0.19332
0.205165
0.219514
0.235524
0.254898
0.275994
0.301425
0.325832
0.136928
0.137455
0.13862
0.140335
0.142736
0.145725
0.14953
0.153999
0.159496
0.165779
0.173409
0.182007
0.192403
0.204022
0.218022
0.233522
0.252017
0.271843
0.294898
0.315646
0.136513
0.137041
0.138201
0.139908
0.142297
0.145268
0.149049
0.153485
0.158938
0.16516
0.172709
0.181187
0.191421
0.202792
0.216423
0.23137
0.248926
0.267383
0.28785
0.304682
0.136068
0.136596
0.137752
0.139452
0.141826
0.14478
0.148534
0.152936
0.158343
0.164499
0.171963
0.180314
0.190375
0.20148
0.214725
0.229075
0.245643
0.262632
0.280314
0.292993
0.135593
0.136123
0.137274
0.138966
0.141327
0.144261
0.147989
0.152354
0.157712
0.1638
0.171174
0.179388
0.18927
0.20009
0.212935
0.226645
0.242187
0.257609
0.272326
0.280635
0.135088
0.13562
0.136768
0.138452
0.140798
0.143713
0.147412
0.151739
0.157046
0.163062
0.170341
0.178413
0.188108
0.198627
0.211059
0.224088
0.238577
0.252331
0.263929
0.267655
0.134555
0.135091
0.136234
0.137911
0.140242
0.143137
0.146805
0.151092
0.156345
0.162285
0.169465
0.177386
0.186886
0.197089
0.209097
0.221407
0.234826
0.246813
0.255178
0.254092
0.133995
0.134534
0.135675
0.137345
0.13966
0.142534
0.146171
0.150417
0.155613
0.161474
0.168551
0.176315
0.185613
0.195485
0.207059
0.218615
0.230956
0.241068
0.246138
0.239976
0.133407
0.133953
0.135093
0.136757
0.13906
0.141915
0.145523
0.149731
0.154876
0.160662
0.167639
0.17525
0.18435
0.193885
0.205028
0.215795
0.227056
0.235147
0.236848
0.225195
0.132793
0.133346
0.134489
0.136151
0.138444
0.141285
0.144871
0.149048
0.154147
0.159868
0.166756
0.174222
0.183133
0.192335
0.203049
0.212997
0.223173
0.229071
0.227311
0.209021
0.132147
0.132703
0.133837
0.135488
0.137753
0.140563
0.144096
0.148215
0.153221
0.158835
0.165558
0.172824
0.181436
0.190244
0.200394
0.20951
0.218535
0.222419
0.217698
0.191777
0.134193
0.134761
0.13593
0.137638
0.139985
0.142905
0.146574
0.150866
0.15608
0.161954
0.168983
0.176633
0.185696
0.195077
0.205908
0.215905
0.226013
0.231298
0.228471
0.205055
0.13474
0.135306
0.136481
0.138199
0.14057
0.143515
0.147231
0.151573
0.15687
0.162837
0.170016
0.177846
0.187185
0.196933
0.208294
0.219077
0.230285
0.237509
0.23756
0.221603
0.135256
0.135813
0.136985
0.138703
0.141079
0.144033
0.147764
0.152128
0.157458
0.163477
0.170728
0.178682
0.188185
0.198234
0.209986
0.22154
0.233776
0.243119
0.246537
0.23711
0.135743
0.136295
0.137466
0.139186
0.141572
0.144539
0.148292
0.152685
0.158057
0.164137
0.171471
0.179561
0.189238
0.199594
0.211743
0.22404
0.237302
0.248596
0.25528
0.251229
0.136203
0.13675
0.137923
0.139648
0.142045
0.145028
0.148806
0.153231
0.158649
0.164796
0.172218
0.180445
0.190301
0.20096
0.213509
0.226516
0.2408
0.253899
0.263773
0.26468
0.136634
0.137177
0.138353
0.140083
0.142491
0.145489
0.149291
0.153747
0.159209
0.165419
0.172925
0.181283
0.191312
0.202258
0.215196
0.228878
0.244176
0.258974
0.271973
0.277576
0.137035
0.137576
0.138754
0.140489
0.142908
0.14592
0.149744
0.15423
0.159732
0.166001
0.173586
0.182068
0.192261
0.203479
0.216795
0.231113
0.247408
0.263806
0.279819
0.289884
0.137407
0.137946
0.139126
0.140867
0.143296
0.146321
0.150165
0.154679
0.160219
0.166544
0.174203
0.182801
0.193151
0.204624
0.218307
0.233221
0.250485
0.268381
0.287257
0.301567
0.137748
0.138286
0.139469
0.141214
0.143652
0.14669
0.150553
0.155093
0.160669
0.167046
0.174776
0.183482
0.19398
0.205691
0.219725
0.235192
0.253388
0.272682
0.294241
0.312578
0.138058
0.138595
0.139781
0.14153
0.143978
0.147027
0.150908
0.155471
0.161081
0.167506
0.1753
0.184107
0.194745
0.206674
0.221042
0.237019
0.256096
0.27669
0.300737
0.322862
0.138337
0.138873
0.140061
0.141815
0.144271
0.147331
0.151227
0.155813
0.161453
0.167921
0.175776
0.184673
0.195442
0.20757
0.22225
0.238693
0.258593
0.280387
0.306712
0.332366
0.138583
0.139119
0.14031
0.142068
0.144531
0.147601
0.151511
0.156116
0.161783
0.168291
0.176201
0.185179
0.196069
0.208375
0.223345