1.275 	2.15223e-18 	-2.76991e-20 	-0.12804 	-0.0135366 	-2.58673e-22
1.825 	2.15223e-18 	-1.39322e-20 	-0.263235 	0.0250571 	3.49234e-21
2.375 	2.15223e-18 	-2.66896e-23 	-0.265234 	0.156873 	-1.53006e-21
