/*--------------------------------*- C++ -*----------------------------------*\
  =========                 |
  \\      /  F ield         | OpenFOAM: The Open Source CFD Toolbox
   \\    /   O peration     | Website:  https://openfoam.org
    \\  /    A nd           | Version:  6.0
     \\/     M anipulation  |
\*---------------------------------------------------------------------------*/
FoamFile
{
    version     2.0;
    format      ascii;
    class       volScalarField;
    location    "68";
    object      p;
}
// * * * * * * * * * * * * * * * * * * * * * * * * * * * * * * * * * * * * * //

dimensions      [0 2 -2 0 0 0 0];

internalField   nonuniform List<scalar> 
12500
(
-0.451631
-0.451656
-0.451501
-0.451177
-0.450798
-0.450479
-0.450312
-0.450355
-0.450635
-0.451161
-0.451929
-0.452928
-0.454149
-0.455579
-0.457209
-0.459026
-0.46102
-0.463176
-0.46548
-0.467912
-0.470453
-0.473081
-0.475746
-0.47839
-0.481233
-0.447935
-0.448483
-0.448637
-0.448514
-0.448293
-0.448095
-0.448013
-0.448106
-0.448397
-0.448894
-0.449589
-0.450471
-0.45153
-0.452754
-0.454135
-0.455664
-0.457331
-0.459126
-0.461036
-0.463047
-0.465143
-0.467305
-0.469473
-0.471581
-0.473995
-0.444167
-0.445258
-0.445727
-0.445809
-0.445746
-0.445666
-0.445664
-0.445797
-0.446087
-0.446536
-0.447138
-0.447878
-0.448746
-0.449731
-0.450827
-0.452027
-0.453325
-0.454713
-0.456183
-0.457724
-0.459327
-0.460975
-0.462598
-0.464122
-0.466075
-0.440446
-0.442087
-0.442872
-0.443158
-0.443254
-0.443291
-0.443364
-0.443528
-0.443805
-0.444193
-0.444681
-0.445255
-0.445905
-0.446619
-0.447392
-0.448221
-0.449103
-0.450035
-0.451013
-0.452032
-0.453088
-0.454172
-0.455198
-0.45609
-0.457547
-0.436904
-0.439085
-0.440181
-0.44067
-0.440923
-0.441075
-0.441219
-0.44141
-0.441664
-0.441978
-0.442336
-0.442724
-0.443127
-0.443537
-0.44395
-0.444363
-0.44478
-0.445202
-0.44563
-0.446067
-0.446519
-0.44698
-0.447351
-0.44756
-0.448482
-0.433677
-0.436375
-0.43777
-0.438457
-0.438865
-0.439131
-0.439345
-0.439559
-0.439786
-0.440016
-0.440231
-0.440413
-0.440546
-0.44062
-0.440632
-0.440584
-0.440481
-0.440333
-0.440149
-0.439938
-0.439718
-0.439489
-0.439142
-0.438609
-0.438952
-0.430904
-0.434078
-0.435752
-0.43663
-0.437191
-0.437571
-0.437856
-0.438093
-0.438289
-0.438432
-0.438496
-0.438458
-0.4383
-0.438009
-0.437582
-0.437024
-0.436346
-0.435564
-0.434695
-0.43376
-0.432791
-0.431796
-0.430656
-0.429313
-0.429026
-0.428715
-0.432308
-0.434235
-0.435295
-0.436006
-0.4365
-0.436859
-0.437123
-0.437293
-0.437348
-0.437258
-0.436993
-0.436528
-0.435848
-0.434948
-0.433835
-0.432524
-0.431038
-0.429406
-0.427662
-0.425855
-0.424003
-0.421981
-0.419747
-0.418768
-0.427226
-0.431165
-0.433314
-0.434542
-0.4354
-0.436011
-0.43645
-0.436749
-0.436901
-0.436877
-0.436637
-0.436144
-0.435365
-0.43428
-0.432879
-0.431168
-0.429168
-0.426909
-0.42443
-0.421783
-0.419034
-0.416221
-0.413208
-0.409983
-0.408237
-0.426531
-0.430731
-0.433062
-0.434444
-0.435444
-0.436176
-0.436703
-0.437048
-0.437196
-0.437107
-0.436731
-0.436019
-0.43493
-0.433432
-0.431512
-0.429171
-0.426433
-0.423332
-0.419922
-0.416269
-0.412466
-0.408568
-0.40444
-0.400101
-0.397494
-0.426694
-0.43106
-0.433529
-0.435048
-0.436184
-0.437039
-0.437663
-0.43807
-0.438232
-0.438097
-0.437606
-0.436695
-0.435309
-0.433406
-0.430962
-0.427973
-0.424458
-0.420458
-0.416034
-0.411275
-0.406296
-0.401179
-0.39579
-0.390189
-0.386606
-0.427747
-0.432176
-0.434735
-0.436369
-0.437634
-0.438613
-0.439344
-0.439828
-0.440024
-0.439869
-0.439289
-0.438206
-0.43655
-0.434263
-0.431306
-0.427666
-0.423355
-0.418414
-0.412911
-0.406949
-0.400676
-0.394196
-0.387385
-0.380353
-0.375661
-0.429684
-0.43407
-0.436667
-0.438393
-0.439774
-0.440876
-0.441721
-0.442296
-0.442546
-0.442397
-0.441757
-0.440536
-0.438644
-0.436006
-0.432566
-0.428294
-0.423191
-0.417291
-0.410664
-0.403426
-0.395751
-0.387772
-0.379375
-0.370728
-0.364772
-0.432463
-0.436702
-0.439284
-0.441073
-0.442553
-0.443772
-0.444732
-0.445405
-0.445726
-0.445604
-0.444935
-0.443609
-0.44152
-0.438574
-0.434693
-0.429828
-0.423962
-0.417116
-0.409356
-0.400802
-0.391647
-0.382057
-0.371925
-0.361481
-0.354095
-0.436007
-0.440002
-0.442516
-0.444334
-0.445891
-0.447211
-0.44828
-0.449053
-0.449452
-0.449372
-0.448694
-0.447293
-0.445045
-0.441835
-0.437563
-0.432159
-0.425583
-0.417838
-0.408974
-0.399109
-0.388447
-0.377176
-0.365201
-0.352802
-0.343822
-0.440213
-0.443877
-0.446268
-0.448079
-0.449682
-0.451081
-0.452242
-0.453105
-0.453577
-0.453541
-0.452864
-0.451407
-0.449028
-0.445592
-0.44098
-0.435097
-0.427881
-0.41931
-0.409414
-0.398294
-0.386156
-0.373203
-0.359343
-0.344892
-0.33417
-0.444956
-0.448215
-0.450432
-0.452195
-0.453808
-0.455253
-0.456478
-0.457407
-0.457934
-0.457929
-0.457248
-0.455737
-0.45324
-0.449605
-0.444693
-0.438388
-0.430605
-0.421298
-0.41047
-0.398203
-0.384686
-0.370127
-0.354432
-0.337918
-0.325345
-0.450099
-0.452898
-0.454895
-0.456565
-0.458144
-0.459592
-0.460842
-0.461802
-0.462351
-0.462349
-0.461641
-0.460061
-0.457441
-0.453613
-0.448424
-0.441741
-0.433457
-0.423506
-0.411865
-0.39859
-0.383845
-0.367833
-0.35045
-0.331968
-0.317494
-0.455505
-0.457807
-0.459541
-0.461073
-0.462569
-0.463972
-0.465198
-0.466139
-0.466666
-0.466625
-0.465852
-0.464171
-0.461404
-0.457373
-0.451912
-0.444875
-0.436141
-0.425625
-0.413287
-0.399154
-0.383365
-0.366107
-0.347267
-0.327019
-0.310662
-0.461047
-0.46283
-0.464268
-0.465616
-0.466977
-0.46828
-0.469425
-0.470293
-0.470741
-0.470608
-0.469722
-0.467897
-0.464946
-0.460686
-0.454942
-0.447559
-0.438407
-0.427391
-0.414457
-0.399611
-0.382966
-0.364691
-0.34467
-0.322939
-0.304791
-0.466611
-0.467874
-0.468987
-0.470108
-0.471282
-0.472426
-0.47343
-0.474163
-0.474473
-0.474192
-0.473136
-0.471117
-0.467941
-0.463419
-0.457373
-0.449642
-0.440095
-0.42863
-0.415188
-0.399762
-0.38244
-0.363379
-0.342467
-0.319583
-0.299788
-0.472107
-0.472863
-0.473631
-0.474485
-0.475421
-0.476349
-0.477152
-0.477689
-0.477801
-0.477311
-0.476032
-0.47377
-0.470327
-0.465512
-0.459146
-0.451069
-0.441149
-0.429287
-0.415421
-0.39954
-0.381713
-0.362088
-0.340575
-0.316885
-0.295602
-0.477475
-0.477748
-0.478158
-0.47871
-0.479361
-0.480019
-0.480563
-0.480845
-0.480701
-0.479948
-0.478395
-0.475846
-0.472101
-0.46697
-0.460277
-0.451867
-0.441613
-0.429421
-0.415231
-0.399028
-0.380859
-0.360855
-0.338944
-0.314659
-0.291933
-0.482682
-0.482502
-0.482548
-0.482769
-0.483094
-0.483434
-0.483667
-0.483641
-0.483188
-0.482124
-0.480254
-0.477381
-0.473309
-0.467851
-0.460841
-0.452134
-0.441616
-0.429206
-0.414853
-0.398539
-0.38028
-0.360139
-0.337937
-0.31291
-0.288462
-0.487722
-0.487124
-0.486804
-0.486671
-0.486636
-0.486618
-0.486495
-0.486116
-0.485311
-0.483894
-0.481671
-0.478447
-0.474031
-0.468246
-0.460941
-0.451992
-0.441312
-0.428853
-0.414603
-0.398585
-0.380849
-0.361429
-0.340004
-0.315518
-0.290756
-0.492618
-0.491635
-0.490951
-0.490447
-0.490026
-0.489616
-0.489101
-0.488332
-0.487138
-0.485335
-0.482731
-0.479133
-0.47436
-0.468252
-0.460675
-0.451537
-0.440788
-0.428433
-0.41453
-0.399207
-0.38267
-0.3652
-0.347091
-0.329376
-0.316999
-0.497413
-0.496072
-0.495027
-0.494142
-0.493316
-0.49249
-0.491556
-0.490368
-0.488757
-0.486539
-0.483528
-0.479536
-0.474396
-0.467961
-0.460125
-0.450825
-0.440053
-0.427858
-0.414357
-0.39974
-0.38428
-0.368336
-0.352351
-0.337383
-0.326688
-0.502169
-0.50049
-0.499086
-0.497812
-0.49657
-0.495312
-0.493939
-0.492309
-0.490257
-0.487602
-0.48416
-0.479755
-0.474229
-0.467458
-0.459358
-0.449898
-0.439104
-0.427063
-0.413928
-0.399916
-0.385313
-0.370466
-0.355763
-0.341869
-0.330709
-0.506956
-0.504948
-0.503187
-0.501522
-0.499855
-0.498156
-0.49633
-0.494243
-0.491729
-0.488614
-0.484718
-0.479874
-0.47394
-0.466809
-0.458424
-0.44878
-0.437931
-0.425989
-0.413121
-0.399548
-0.385531
-0.37136
-0.357321
-0.343806
-0.332063
-0.511849
-0.509511
-0.507393
-0.505335
-0.503242
-0.501094
-0.498808
-0.496248
-0.493256
-0.489657
-0.485279
-0.479966
-0.473591
-0.466068
-0.457361
-0.447491
-0.436533
-0.424613
-0.411905
-0.398614
-0.38497
-0.371207
-0.357529
-0.344176
-0.331997
-0.516923
-0.514243
-0.511763
-0.509312
-0.506793
-0.504195
-0.501439
-0.498395
-0.494902
-0.490793
-0.485901
-0.480083
-0.473226
-0.465267
-0.456193
-0.446045
-0.434915
-0.422941
-0.410293
-0.397161
-0.383745
-0.370235
-0.356786
-0.343563
-0.331166
-0.522246
-0.519202
-0.516354
-0.51351
-0.510564
-0.507513
-0.504281
-0.500736
-0.49672
-0.492068
-0.486623
-0.480255
-0.47287
-0.464426
-0.454932
-0.444452
-0.433091
-0.420994
-0.408326
-0.395266
-0.381987
-0.36865
-0.35538
-0.342305
-0.32986
-0.527874
-0.524439
-0.521213
-0.517975
-0.514602
-0.511094
-0.507374
-0.503308
-0.498739
-0.493506
-0.487463
-0.480494
-0.472528
-0.463546
-0.453582
-0.442717
-0.431072
-0.418796
-0.406052
-0.393004
-0.37981
-0.366606
-0.353501
-0.340603
-0.328231
-0.533851
-0.529992
-0.526377
-0.522741
-0.518938
-0.514966
-0.510743
-0.506131
-0.500973
-0.495113
-0.488418
-0.480793
-0.472191
-0.462619
-0.452136
-0.440841
-0.428869
-0.416373
-0.403512
-0.390441
-0.377299
-0.364209
-0.351264
-0.338558
-0.326331
-0.540206
-0.535889
-0.531871
-0.527834
-0.523595
-0.519147
-0.514398
-0.509206
-0.503413
-0.496872
-0.489468
-0.481128
-0.471835
-0.461625
-0.450579
-0.438818
-0.426488
-0.413744
-0.40074
-0.387621
-0.374513
-0.361523
-0.34873
-0.336222
-0.324171
-0.546952
-0.542142
-0.53771
-0.533264
-0.52858
-0.523636
-0.518332
-0.512517
-0.506036
-0.498754
-0.490577
-0.481464
-0.471427
-0.460533
-0.44889
-0.436637
-0.423927
-0.410917
-0.397756
-0.384574
-0.371486
-0.358583
-0.345933
-0.333611
-0.321739
-0.554084
-0.548752
-0.543893
-0.539031
-0.533886
-0.528422
-0.522523
-0.516033
-0.508801
-0.500711
-0.491697
-0.481751
-0.470922
-0.459308
-0.447043
-0.43428
-0.42118
-0.407896
-0.394567
-0.381314
-0.368235
-0.355405
-0.342881
-0.330728
-0.319023
-0.561585
-0.555705
-0.550408
-0.54512
-0.539495
-0.533476
-0.526934
-0.519706
-0.511653
-0.502684
-0.492767
-0.481934
-0.470271
-0.45791
-0.445007
-0.431727
-0.418232
-0.404672
-0.391173
-0.377842
-0.364761
-0.351991
-0.339575
-0.327567
-0.316007
-0.569421
-0.562974
-0.55723
-0.551503
-0.545373
-0.538757
-0.531511
-0.523473
-0.514523
-0.504601
-0.493717
-0.481948
-0.46942
-0.456295
-0.442747
-0.42895
-0.415066
-0.401232
-0.387563
-0.37415
-0.361058
-0.348333
-0.336007
-0.324119
-0.31268
-0.577541
-0.570515
-0.56432
-0.558139
-0.55147
-0.544204
-0.536185
-0.527258
-0.517329
-0.506381
-0.494472
-0.481727
-0.468312
-0.454414
-0.440225
-0.425921
-0.411656
-0.397556
-0.383721
-0.370222
-0.357111
-0.344418
-0.332163
-0.320371
-0.309033
-0.585882
-0.578274
-0.571623
-0.564971
-0.557723
-0.549745
-0.540874
-0.530971
-0.51998
-0.507935
-0.494952
-0.481201
-0.466887
-0.452221
-0.437403
-0.422606
-0.407975
-0.39362
-0.379622
-0.366038
-0.352901
-0.340229
-0.328029
-0.316313
-0.305057
-0.594364
-0.586178
-0.579069
-0.571924
-0.56405
-0.555288
-0.545478
-0.534509
-0.522375
-0.509172
-0.495073
-0.480298
-0.465086
-0.449665
-0.434237
-0.418969
-0.403989
-0.389392
-0.375239
-0.36157
-0.348403
-0.335743
-0.323586
-0.311928
-0.300742
-0.602892
-0.59414
-0.586574
-0.578909
-0.570353
-0.560727
-0.549886
-0.537761
-0.524408
-0.509993
-0.494751
-0.478948
-0.462851
-0.446697
-0.430685
-0.414971
-0.399664
-0.38484
-0.370542
-0.356791
-0.343592
-0.330938
-0.318815
-0.307202
-0.296078
-0.611355
-0.602059
-0.594035
-0.585819
-0.576517
-0.565941
-0.553974
-0.540606
-0.525968
-0.510302
-0.493903
-0.477081
-0.460121
-0.443265
-0.426703
-0.410571
-0.394961
-0.379927
-0.365494
-0.351668
-0.338438
-0.325788
-0.313693
-0.302117
-0.291053
-0.619629
-0.609815
-0.601335
-0.59253
-0.582413
-0.570797
-0.55761
-0.542919
-0.526943
-0.51
-0.492447
-0.474628
-0.456839
-0.43932
-0.422244
-0.405728
-0.389841
-0.374616
-0.360062
-0.346167
-0.33291
-0.320265
-0.308196
-0.296653
-0.285651
-0.627573
-0.617277
-0.608341
-0.598905
-0.587897
-0.575148
-0.560654
-0.544573
-0.52722
-0.508994
-0.490305
-0.471522
-0.452948
-0.43481
-0.417261
-0.400396
-0.38426
-0.368867
-0.354207
-0.340255
-0.326978
-0.314341
-0.302302
-0.290791
-0.279856
-0.635036
-0.624299
-0.614904
-0.604791
-0.592815
-0.578844
-0.562964
-0.54544
-0.52669
-0.507191
-0.487398
-0.467699
-0.448392
-0.429684
-0.411708
-0.394531
-0.378177
-0.36264
-0.347892
-0.333896
-0.320609
-0.307989
-0.295984
-0.28451
-0.273652
-0.641854
-0.630721
-0.620865
-0.610026
-0.597003
-0.581728
-0.564396
-0.545395
-0.525248
-0.504504
-0.483655
-0.463097
-0.443114
-0.423893
-0.405537
-0.388089
-0.37155
-0.355894
-0.341079
-0.327056
-0.313773
-0.301181
-0.289218
-0.277789
-0.26702
-0.647856
-0.636376
-0.626055
-0.614438
-0.600293
-0.583641
-0.564809
-0.544317
-0.522793
-0.500849
-0.479006
-0.457656
-0.437064
-0.417387
-0.398703
-0.381026
-0.364337
-0.348591
-0.333733
-0.319702
-0.306439
-0.293889
-0.281981
-0.270606
-0.259944
-0.652861
-0.641089
-0.630298
-0.61785
-0.602515
-0.584429
-0.564068
-0.542093
-0.519231
-0.496151
-0.473387
-0.45132
-0.430188
-0.41012
-0.39116
-0.3733
-0.356497
-0.340693
-0.325818
-0.311802
-0.298579
-0.286089
-0.27425
-0.262944
-0.252406
-0.65669
-0.644681
-0.633413
-0.620086
-0.603502
-0.58394
-0.562044
-0.538616
-0.514477
-0.490339
-0.466739
-0.444036
-0.42244
-0.402045
-0.382866
-0.36487
-0.347994
-0.332165
-0.317302
-0.303327
-0.290166
-0.277756
-0.266005
-0.254784
-0.244392
-0.659157
-0.646969
-0.635219
-0.620969
-0.60309
-0.582032
-0.558618
-0.53379
-0.508453
-0.483348
-0.459005
-0.435756
-0.413775
-0.393121
-0.373782
-0.355699
-0.338793
-0.322976
-0.308157
-0.29425
-0.281178
-0.268871
-0.257228
-0.246111
-0.235887
-0.660085
-0.647774
-0.635539
-0.620328
-0.601126
-0.578573
-0.553682
-0.527529
-0.501089
-0.475122
-0.450138
-0.426436
-0.404151
-0.38331
-0.363871
-0.345754
-0.328862
-0.313096
-0.298357
-0.28455
-0.271594
-0.259415
-0.247903
-0.236912
-0.226881
-0.659298
-0.646925
-0.634201
-0.618004
-0.597467
-0.573445
-0.54714
-0.519757
-0.492327
-0.46561
-0.440093
-0.416035
-0.393533
-0.372578
-0.353102
-0.335004
-0.318175
-0.302502
-0.287878
-0.274205
-0.261396
-0.249375
-0.238018
-0.227178
-0.217366
-0.656634
-0.644255
-0.631045
-0.613848
-0.591985
-0.566543
-0.538912
-0.510412
-0.482114
-0.454771
-0.428835
-0.404521
-0.381888
-0.360894
-0.341446
-0.323425
-0.306707
-0.291172
-0.276704
-0.263201
-0.250573
-0.238739
-0.227565
-0.216902
-0.207338
-0.651941
-0.639613
-0.625924
-0.607727
-0.584568
-0.557778
-0.52893
-0.499442
-0.470411
-0.442572
-0.416332
-0.391866
-0.369192
-0.348236
-0.328882
-0.310996
-0.294442
-0.279091
-0.264822
-0.251527
-0.239114
-0.2275
-0.216539
-0.206081
-0.196793
-0.645082
-0.632861
-0.618705
-0.599524
-0.575122
-0.547079
-0.517141
-0.486807
-0.457188
-0.428985
-0.402563
-0.378049
-0.355423
-0.334583
-0.315393
-0.297702
-0.281366
-0.266247
-0.252221
-0.239176
-0.227017
-0.215657
-0.20494
-0.194718
-0.185736
-0.635938
-0.623879
-0.609277
-0.589143
-0.563573
-0.534392
-0.503507
-0.472482
-0.442424
-0.413996
-0.387512
-0.363055
-0.340569
-0.319925
-0.300967
-0.283534
-0.267471
-0.252636
-0.238899
-0.226145
-0.21428
-0.203211
-0.192771
-0.182816
-0.174171
-0.624409
-0.612566
-0.597547
-0.57651
-0.549864
-0.51968
-0.488006
-0.456453
-0.42611
-0.397595
-0.371172
-0.346877
-0.324622
-0.304254
-0.2856
-0.268488
-0.252756
-0.238256
-0.224856
-0.212439
-0.200908
-0.190167
-0.18004
-0.170387
-0.162109
-0.610419
-0.598844
-0.583445
-0.56157
-0.533961
-0.502925
-0.47063
-0.438717
-0.408247
-0.379784
-0.353542
-0.329515
-0.307582
-0.28757
-0.269291
-0.252564
-0.237221
-0.223111
-0.210098
-0.198063
-0.186909
-0.176537
-0.16676
-0.157443
-0.149564
-0.593912
-0.582657
-0.566923
-0.544292
-0.515852
-0.484126
-0.451387
-0.419286
-0.388845
-0.360573
-0.334632
-0.310976
-0.289456
-0.26988
-0.252048
-0.235771
-0.220877
-0.207211
-0.194635
-0.18303
-0.172297
-0.162336
-0.152946
-0.144004
-0.136556
-0.574857
-0.563973
-0.547959
-0.524669
-0.495541
-0.4633
-0.430299
-0.398183
-0.367926
-0.339981
-0.314458
-0.291275
-0.270257
-0.251196
-0.233881
-0.218119
-0.203734
-0.190568
-0.178482
-0.167355
-0.15709
-0.147581
-0.138621
-0.130092
-0.123107
-0.553248
-0.542784
-0.526553
-0.502715
-0.473056
-0.440482
-0.407402
-0.375443
-0.345523
-0.318037
-0.293046
-0.270434
-0.250005
-0.231536
-0.21481
-0.199627
-0.18581
-0.173199
-0.161656
-0.151057
-0.141307
-0.132297
-0.123809
-0.115735
-0.109244
-0.529104
-0.519109
-0.502732
-0.478467
-0.448443
-0.415721
-0.382748
-0.351114
-0.321679
-0.294778
-0.270428
-0.248483
-0.228726
-0.210924
-0.194855
-0.180315
-0.167125
-0.155127
-0.144178
-0.134159
-0.124973
-0.116507
-0.108538
-0.100962
-0.0949987
-0.502469
-0.49299
-0.476545
-0.451984
-0.421767
-0.389086
-0.356399
-0.325254
-0.296446
-0.270251
-0.246646
-0.225457
-0.206452
-0.18939
-0.174043
-0.160208
-0.147704
-0.136373
-0.126073
-0.116685
-0.108112
-0.100241
-0.0928397
-0.0858091
-0.0804048
-0.473409
-0.464493
-0.448064
-0.423346
-0.393113
-0.360658
-0.328435
-0.297935
-0.269887
-0.244512
-0.22175
-0.201402
-0.183224
-0.166968
-0.152407
-0.139335
-0.127573
-0.116962
-0.107364
-0.0986598
-0.0907528
-0.0835281
-0.0767473
-0.0703133
-0.0655032
-0.442017
-0.433708
-0.417384
-0.392653
-0.36258
-0.330534
-0.298945
-0.269238
-0.242076
-0.217628
-0.195797
-0.176368
-0.159085
-0.143699
-0.12998
-0.117725
-0.106757
-0.0969196
-0.0880753
-0.0801066
-0.0729192
-0.0663963
-0.0602952
-0.0545173
-0.0503444
-0.408407
-0.400748
-0.38462
-0.360023
-0.330286
-0.298826
-0.268031
-0.239256
-0.213096
-0.189672
-0.168855
-0.150414
-0.134088
-0.119626
-0.1068
-0.0954112
-0.0852846
-0.0762677
-0.0682262
-0.0610453
-0.054632
-0.0488698
-0.0435149
-0.0384649
-0.0349825
-0.372714
-0.365745
-0.349909
-0.325592
-0.296362
-0.265658
-0.235809
-0.208095
-0.183043
-0.160729
-0.140999
-0.123608
-0.108291
-0.0947991
-0.0829092
-0.072426
-0.0631807
-0.0550257
-0.0478314
-0.0414869
-0.0359021
-0.0309628
-0.0264307
-0.0221945
-0.0194532
-0.335092
-0.328854
-0.313403
-0.289512
-0.260956
-0.231167
-0.202405
-0.175868
-0.152021
-0.130895
-0.112314
-0.0960243
-0.0817599
-0.0692752
-0.0583527
-0.0488046
-0.0404691
-0.0332062
-0.0268937
-0.0214271
-0.0167211
-0.0126686
-0.00904351
-0.0057132
-0.00374456
-0.295717
-0.290243
-0.275273
-0.25195
-0.224226
-0.195502
-0.167955
-0.142703
-0.120144
-0.100274
-0.0828964
-0.06775
-0.054571
-0.0431188
-0.0331834
-0.0245857
-0.0171736
-0.0108172
-0.00540474
-0.000842007
0.00294746
0.00605797
0.00869601
0.0110274
0.0121684
-0.254776
-0.250101
-0.235703
-0.213086
-0.186342
-0.158822
-0.132608
-0.108734
-0.0875394
-0.0689829
-0.0528522
-0.038882
-0.0268112
-0.0164055
-0.00746373
0.000182892
0.00667492
0.0121291
0.016642
0.020292
0.0231433
0.0252733
0.0268465
0.0280216
0.0280937
-0.212474
-0.208626
-0.19489
-0.173108
-0.147484
-0.121294
-0.096519
-0.0741075
-0.0543416
-0.0371476
-0.0222997
-0.00952988
0.0014197
0.0107765
0.0187324
0.0254451
0.0310416
0.0356213
0.0392572
0.0420022
0.0439029
0.0450047
0.0453459
0.0449347
0.0433743
-0.169026
-0.166031
-0.153041
-0.132217
-0.107841
-0.0830957
-0.0598528
-0.0389772
-0.0206957
-0.0049058
0.0086305
0.020183
0.0300063
0.0383223
0.0453157
0.0511355
0.055897
0.0596813
0.0625326
0.0644703
0.065513
0.0656177
0.0644934
0.0617858
0.058039
-0.124658
-0.122537
-0.110372
-0.0906192
-0.0676076
-0.0444081
-0.0227799
-0.00350369
0.0132452
0.0275958
0.039796
0.0501172
0.0588118
0.0660985
0.0721594
0.0771425
0.0811628
0.0842991
0.0865907
0.0880593
0.0887356
0.0884709
0.0864755
0.0819926
0.0772637
-0.0796031
-0.0783735
-0.067105
-0.0485263
-0.026982
-0.00541764
0.0145251
0.0321476
0.0473229
0.0602034
0.0710453
0.0801204
0.087679
0.0939379
0.0990798
0.103257
0.106595
0.109191
0.111124
0.112491
0.113453
0.113939
0.112947
0.109929
0.112746
-0.0340935
-0.0337692
-0.0234639
-0.00615173
0.0138345
0.0336875
0.0518853
0.0678091
0.0813767
0.092761
0.102224
0.110037
0.116446
0.121666
0.125877
0.129234
0.131864
0.133877
0.135369
0.136469
0.13735
0.137969
0.137763
0.137219
0.142396
0.011629
0.0110385
0.0203227
0.0362881
0.0546396
0.0727185
0.0891239
0.103314
0.115247
0.125114
0.13318
0.139714
0.144959
0.149123
0.152386
0.154899
0.156793
0.158179
0.159162
0.159871
0.160451
0.160859
0.160699
0.160532
0.165137
0.057323
0.0558131
0.0640271
0.0785781
0.0952323
0.111488
0.126066
0.138496
0.148777
0.157111
0.163767
0.169009
0.173072
0.176162
0.17845
0.180084
0.181191
0.181881
0.182258
0.182442
0.182562
0.182583
0.182176
0.181793
0.185336
0.102748
0.100319
0.107423
0.120505
0.135414
0.149813
0.16254
0.173197
0.181814
0.188609
0.193847
0.197786
0.200657
0.202654
0.203944
0.204667
0.204943
0.204878
0.204564
0.20411
0.203625
0.203066
0.202136
0.201254
0.203795
0.147667
0.144323
0.150287
0.16186
0.174992
0.187512
0.198379
0.207259
0.214214
0.219469
0.223289
0.225924
0.227595
0.228489
0.228764
0.228552
0.227966
0.2271
0.226041
0.224884
0.223716
0.222487
0.220923
0.219437
0.221013
0.191846
0.187597
0.1924
0.202437
0.213774
0.224412
0.233421
0.240533
0.245837
0.249563
0.251972
0.253308
0.253782
0.253571
0.252823
0.251663
0.250195
0.248503
0.246666
0.244765
0.242873
0.240929
0.23869
0.236571
0.237226
0.235057
0.229917
0.233548
0.242038
0.251578
0.260342
0.267511
0.272876
0.276549
0.278766
0.279782
0.279834
0.279121
0.277812
0.276046
0.273937
0.271581
0.269055
0.266427
0.263768
0.261139
0.258474
0.255558
0.252806
0.252581
0.277077
0.271065
0.273527
0.28047
0.288227
0.295141
0.3005
0.304149
0.306223
0.306961
0.306613
0.305403
0.303525
0.301135
0.298363
0.295315
0.292079
0.288723
0.285308
0.281896
0.278536
0.275161
0.271585
0.268215
0.26715
0.317694
0.310833
0.312135
0.317547
0.32355
0.328651
0.332244
0.334222
0.33474
0.334038
0.332361
0.329924
0.326908
0.323463
0.319709
0.315743
0.311644
0.307475
0.303289
0.29914
0.295067
0.291007
0.286797
0.282832
0.280964
0.3567
0.349019
0.349182
0.353094
0.357385
0.360725
0.362605
0.362968
0.361983
0.359891
0.35693
0.353307
0.349192
0.344727
0.340021
0.335166
0.330232
0.325276
0.320344
0.315483
0.310725
0.306009
0.301197
0.296662
0.294027
0.3939
0.385431
0.384486
0.38694
0.389575
0.39122
0.391456
0.390268
0.387842
0.384419
0.380228
0.375468
0.370301
0.364856
0.359239
0.353531
0.347796
0.342085
0.336439
0.330898
0.325488
0.320152
0.314773
0.309696
0.306332
0.429106
0.419887
0.417874
0.418926
0.419976
0.420001
0.418671
0.416009
0.412215
0.407527
0.402168
0.396328
0.39016
0.383786
0.377302
0.370783
0.364288
0.357861
0.351539
0.345355
0.33933
0.333411
0.327501
0.321913
0.317857
0.462143
0.452215
0.449184
0.448902
0.448448
0.446943
0.444135
0.440085
0.435002
0.429123
0.422665
0.415809
0.4087
0.40145
0.394151
0.38687
0.379661
0.372562
0.365604
0.358817
0.352218
0.345757
0.339354
0.333287
0.328579
0.492845
0.482254
0.478264
0.476726
0.474862
0.471926
0.467739
0.462395
0.456111
0.449123
0.441642
0.433839
0.425853
0.417789
0.409731
0.401741
0.393866
0.386142
0.378595
0.371249
0.364117
0.357156
0.350299
0.343786
0.338469
0.52106
0.509856
0.504973
0.502269
0.4991
0.494841
0.489383
0.482846
0.475456
0.467448
0.459024
0.45035
0.441557
0.432743
0.423987
0.415344
0.406858
0.398559
0.390471
0.382612
0.374992
0.367575
0.360303
0.35338
0.3475
0.546647
0.534882
0.529181
0.52541
0.521049
0.515587
0.508972
0.501351
0.492957
0.484022
0.474743
0.465278
0.455752
0.446258
0.436867
0.427632
0.418592
0.409772
0.401193
0.39287
0.384809
0.376979
0.369334
0.362037
0.355642
0.569477
0.557209
0.550771
0.54604
0.540611
0.534072
0.526422
0.517833
0.508542
0.498779
0.488736
0.478565
0.468384
0.458282
0.448325
0.438561
0.429025
0.419741
0.410724
0.401987
0.393533
0.385336
0.37736
0.369729
0.36287
0.589437
0.576725
0.569637
0.564063
0.557696
0.550212
0.541658
0.532221
0.522146
0.511658
0.500946
0.490157
0.479403
0.468769
0.458316
0.44809
0.438121
0.42843
0.41903
0.409931
0.401134
0.392617
0.384352
0.376426
0.369159
0.606424
0.593332
0.585687
0.579392
0.572225
0.563936
0.554611
0.544453
0.533709
0.522604
0.511323
0.500007
0.488766
0.477678
0.466803
0.456182
0.445844
0.435806
0.42608
0.416672
0.407583
0.398795
0.390283
0.382105
0.374486
0.620353
0.606945
0.598841
0.591953
0.58413
0.575181
0.565224
0.554474
0.543182
0.531572
0.519823
0.508075
0.496433
0.484973
0.473751
0.462806
0.452164
0.441841
0.431847
0.422186
0.412856
0.403844
0.39513
0.386744
0.378833
0.63115
0.617493
0.609033
0.601685
0.593354
0.583895
0.573448
0.562241
0.550524
0.538521
0.52641
0.514326
0.502373
0.490623
0.479131
0.467934
0.457055
0.446511
0.436308
0.426448
0.416931
0.407745
0.398873
0.390324
0.382183
0.638758
0.624921
0.616209
0.608539
0.599852
0.590035
0.579245
0.567716
0.555701
0.543422
0.531054
0.518734
0.506559
0.494605
0.482921
0.471545
0.460498
0.449796
0.439444
0.429443
0.419792
0.410482
0.401498
0.392831
0.384523
0.643134
0.629187
0.620329
0.612478
0.60359
0.59357
0.582586
0.570873
0.558687
0.546249
0.533734
0.521276
0.508974
0.4969
0.485104
0.473623
0.462477
0.451682
0.441242
0.431158
0.421427
0.412043
0.402992
0.394254
0.385845
0.64425
0.630263
0.621369
0.613478
0.604546
0.594481
0.583452
0.571696
0.559468
0.546989
0.534436
0.521941
0.509604
0.497496
0.485669
0.474157
0.462983
0.452159
0.441693
0.431583
0.421828
0.412421
0.403348
0.394586
0.386141
0.642093
0.628137
0.619317
0.611529
0.602711
0.592759
0.581835
0.570175
0.558034
0.545635
0.533153
0.520722
0.508444
0.496389
0.484611
0.473144
0.46201
0.451225
0.440793
0.430716
0.42099
0.411611
0.402563
0.393824
0.385411
0.636665
0.622812
0.614175
0.606633
0.598086
0.588404
0.577736
0.566313
0.554389
0.542188
0.529886
0.517622
0.505495
0.493581
0.481931
0.470584
0.459562
0.448879
0.438544
0.428557
0.418916
0.409616
0.400638
0.39197
0.383654
0.627986
0.614305
0.605959
0.598804
0.590686
0.581431
0.571169
0.560122
0.548543
0.536658
0.524646
0.512648
0.500766
0.489078
0.477638
0.466484
0.455643
0.445129
0.434951
0.425113
0.415612
0.40644
0.397579
0.389029
0.380876
0.616086
0.602648
0.5947
0.588071
0.580536
0.571863
0.562154
0.551621
0.540515
0.529063
0.517449
0.505816
0.494272
0.482895
0.471744
0.460859
0.450267
0.439987
0.430027
0.420394
0.411087
0.402095
0.393395
0.38501
0.377084
0.601016
0.587887
0.580441
0.574475
0.567673
0.559734
0.550724
0.54084
0.530333
0.51943
0.50832
0.497152
0.486035
0.475054
0.46427
0.453726
0.443452
0.433469
0.423788
0.414417
0.405357
0.396593
0.3881
0.379925
0.372289
0.582837
0.570085
0.56324
0.558069
0.552147
0.54509
0.536921
0.52782
0.518033
0.507793
0.497292
0.486683
0.476083
0.465581
0.45524
0.445109
0.43522
0.425597
0.416253
0.4072
0.39844
0.389955
0.381713
0.373792
0.366508
0.561628
0.549316
0.543168
0.538918
0.534019
0.527988
0.520797
0.512608
0.503662
0.494194
0.484403
0.474448
0.464452
0.454508
0.444687
0.435038
0.4256
0.416397
0.407449
0.398768
0.390361
0.382202
0.374255
0.366632
0.359757
0.53748
0.52567
0.520311
0.517102
0.51336
0.508493
0.502414
0.495261
0.487271
0.478682
0.4697
0.46049
0.451182
0.441875
0.432645
0.423547
0.414623
0.405901
0.397404
0.389149
0.381145
0.373361
0.365751
0.358467
0.352059
0.5105
0.499249
0.494764
0.492709
0.490254
0.486682
0.481842
0.475845
0.468922
0.461315
0.453236
0.444859
0.43632
0.427725
0.419156
0.410675
0.402326
0.394143
0.386152
0.378375
0.370822
0.363459
0.35623
0.349325
0.343436
0.480808
0.470172
0.466638
0.465842
0.464793
0.46264
0.45916
0.454433
0.448684
0.442156
0.435071
0.427609
0.419917
0.412107
0.404266
0.396464
0.38875
0.381162
0.373729
0.366479
0.359426
0.35253
0.345723
0.339234
0.333915
0.448536
0.438567
0.436056
0.436613
0.437083
0.436464
0.434456
0.431107
0.426631
0.421276
0.415269
0.408803
0.40203
0.395072
0.388025
0.380961
0.373937
0.366997
0.360173
0.353499
0.346992
0.340607
0.334262
0.328227
0.323524
0.413831
0.404577
0.403151
0.405148
0.407236
0.408258
0.407828
0.405956
0.402846
0.398749
0.393902
0.388505
0.382721
0.376679
0.370484
0.364215
0.357935
0.351692
0.345525
0.339472
0.333556
0.327725
0.321882
0.316335
0.312293
0.376852
0.368356
0.36807
0.371581
0.375377
0.378136
0.379379
0.379076
0.377419
0.37466
0.371046
0.366786
0.362053
0.356987
0.351699
0.346276
0.340789
0.33529
0.329825
0.324437
0.319153
0.313919
0.308617
0.303591
0.30025
0.337769
0.33007
0.330969
0.336057
0.341638
0.346219
0.349222
0.350571
0.350443
0.349095
0.346781
0.34372
0.340097
0.336059
0.331728
0.327199
0.322549
0.317837
0.313114
0.30843
0.30382
0.299221
0.294499
0.290024
0.287424
0.296763
0.289897
0.292017
0.298731
0.306163
0.312639
0.317476
0.320549
0.32202
0.322148
0.321193
0.319386
0.316923
0.313961
0.310631
0.307037
0.303263
0.299376
0.295432
0.291488
0.287587
0.283663
0.279556
0.275663
0.27384
0.254029
0.248025
0.251392
0.259769
0.269103
0.277533
0.284267
0.289127
0.292258
0.293916
0.294371
0.293866
0.292605
0.29076
0.288468
0.285843
0.282978
0.279947
0.276813
0.273641
0.270481
0.267266
0.26381
0.260527
0.259517
0.209767
0.204653
0.20928
0.219344
0.230616
0.241048
0.24973
0.256429
0.261267
0.264502
0.26641
0.267245
0.267223
0.266524
0.2653
0.263671
0.26174
0.259589
0.257289
0.254913
0.252521
0.250045
0.247271
0.244624
0.244462
0.164192
0.159987
0.16588
0.177639
0.190871
0.203336
0.214005
0.222582
0.229167
0.234015
0.237409
0.239613
0.240855
0.241328
0.24119
0.240575
0.239594
0.238337
0.236884
0.235319
0.233713
0.232
0.229934
0.227944
0.228668
0.117524
0.114244
0.121397
0.134845
0.150043
0.164559
0.177239
0.187722
0.196082
0.202568
0.207471
0.211065
0.213588
0.215245
0.216204
0.21661
0.216582
0.216221
0.215616
0.214863
0.214047
0.213107
0.211767
0.210449
0.212097
0.0699914
0.0676483
0.0760445
0.0911606
0.108315
0.124885
0.139586
0.151991
0.162142
0.170283
0.176708
0.181701
0.185513
0.188356
0.190411
0.191833
0.192749
0.193271
0.193499
0.193539
0.193497
0.193321
0.192703
0.192059
0.194673
0.0218313
0.0204315
0.0300427
0.0467914
0.0658765
0.0844867
0.101207
0.115536
0.127484
0.137285
0.145236
0.151629
0.156726
0.160749
0.163889
0.166307
0.168143
0.169517
0.170537
0.171326
0.17201
0.172548
0.172608
0.172606
0.176235
-0.0267147
-0.0271695
-0.0163815
0.00194926
0.0229232
0.0435459
0.0622693
0.0785137
0.0922527
0.103708
0.11318
0.120967
0.127337
0.132524
0.136725
0.140111
0.142828
0.145002
0.146753
0.148218
0.149543
0.1507
0.151319
0.151852
0.156534
-0.0754006
-0.0749132
-0.0629968
-0.0431487
-0.0203435
0.00224857
0.0229447
0.0410836
0.0565984
0.0696961
0.0806753