/*--------------------------------*- C++ -*----------------------------------*\
  =========                 |
  \\      /  F ield         | OpenFOAM: The Open Source CFD Toolbox
   \\    /   O peration     | Website:  https://openfoam.org
    \\  /    A nd           | Version:  6.0
     \\/     M anipulation  |
\*---------------------------------------------------------------------------*/
FoamFile
{
    version     2.0;
    format      ascii;
    class       volVectorField;
    location    "68";
    object      U;
}
// * * * * * * * * * * * * * * * * * * * * * * * * * * * * * * * * * * * * * //

dimensions      [0 1 -1 0 0 0 0];

internalField   nonuniform List<vector> 
12500
(
(0.000754777 -0.0435171 -1.44692e-21)
(0.00184956 -0.116306 2.00999e-20)
(0.00206387 -0.176927 -2.9229e-20)
(0.00123889 -0.226642 1.34541e-20)
(-0.000538594 -0.266783 8.13404e-22)
(-0.00303782 -0.298798 -1.69982e-21)
(-0.00594415 -0.324124 -2.47035e-20)
(-0.00891587 -0.344076 1.36167e-20)
(-0.0116292 -0.359771 9.00293e-21)
(-0.013809 -0.372085 9.19472e-21)
(-0.0152459 -0.381657 -1.562e-20)
(-0.015803 -0.388912 9.12539e-21)
(-0.015414 -0.394106 -4.31692e-21)
(-0.0140753 -0.39737 7.33546e-21)
(-0.0118355 -0.398761 -1.88386e-20)
(-0.00878268 -0.398294 2.74445e-20)
(-0.00503124 -0.395978 -5.25419e-21)
(-0.000709584 -0.391832 -1.95259e-20)
(0.0040516 -0.385897 9.99664e-21)
(0.00912907 -0.378235 -9.62256e-21)
(0.0144129 -0.368929 8.68173e-21)
(0.0198111 -0.358072 1.1664e-20)
(0.0252789 -0.345756 1.21294e-21)
(0.0308585 -0.332036 -3.34774e-20)
(0.0363918 -0.316908 1.8479e-20)
(0.00189206 -0.0432899 2.53479e-20)
(0.00428788 -0.115304 -6.81105e-20)
(0.00465042 -0.175016 2.02599e-20)
(0.00328571 -0.223835 1.35238e-20)
(0.000543058 -0.263228 -1.08654e-20)
(-0.00317645 -0.294746 -6.16325e-20)
(-0.00742567 -0.319889 1.84214e-20)
(-0.0117668 -0.339997 -3.47693e-20)
(-0.0158118 -0.356172 4.18078e-20)
(-0.0192453 -0.369253 -5.60116e-20)
(-0.0218369 -0.379821 3.0085e-20)
(-0.0234419 -0.388235 9.68364e-21)
(-0.023996 -0.394681 -2.46783e-20)
(-0.0235049 -0.399224 -1.10723e-20)
(-0.0220312 -0.401859 8.04425e-20)
(-0.0196805 -0.402553 -7.14899e-20)
(-0.0165868 -0.401278 1.7024e-20)
(-0.012899 -0.398028 2.9757e-20)
(-0.00876836 -0.392834 -7.13177e-21)
(-0.00433707 -0.385764 4.88436e-20)
(0.000266618 -0.376915 8.95904e-21)
(0.00493462 -0.366408 -2.71504e-21)
(0.00962592 -0.354371 -6.20766e-20)
(0.014415 -0.340896 5.79011e-20)
(0.0190347 -0.326044 -1.1519e-19)
(0.00295913 -0.0425135 8.0664e-20)
(0.00650653 -0.113025 2.80101e-20)
(0.00687009 -0.171386 -3.66219e-20)
(0.00485031 -0.21907 1.56949e-20)
(0.00106855 -0.257621 1.50059e-20)
(-0.00390465 -0.288651 5.67814e-20)
(-0.00949527 -0.313691 -7.22752e-20)
(-0.0151774 -0.334076 -1.16213e-20)
(-0.0205067 -0.350881 -4.86438e-20)
(-0.0251351 -0.364893 -4.08208e-20)
(-0.0288159 -0.376631 5.31507e-20)
(-0.0313998 -0.38638 -1.7794e-19)
(-0.0328261 -0.394253 -5.45688e-21)
(-0.0331093 -0.400245 -1.0753e-19)
(-0.0323249 -0.404286 -1.27856e-20)
(-0.0305942 -0.406291 1.54765e-20)
(-0.0280692 -0.406189 -8.43221e-20)
(-0.0249185 -0.403946 -5.29561e-20)
(-0.0213127 -0.399582 -6.31842e-20)
(-0.0174134 -0.393165 9.94722e-20)
(-0.0133681 -0.384809 3.69637e-20)
(-0.00930174 -0.374666 -1.61738e-19)
(-0.00525126 -0.362899 -7.86272e-20)
(-0.00111312 -0.349641 -8.78259e-20)
(0.00272362 -0.33503 2.50967e-19)
(0.00391017 -0.0411717 -2.93818e-21)
(0.0084177 -0.109452 -6.44201e-20)
(0.00863688 -0.16604 -3.0481e-20)
(0.00587151 -0.212372 1.89854e-20)
(0.00101251 -0.250004 1.20705e-19)
(-0.00520852 -0.280564 -5.48898e-20)
(-0.0121014 -0.305577 1.1701e-19)
(-0.0190632 -0.326354 1.11627e-19)
(-0.0256028 -0.343923 6.83204e-20)
(-0.0313472 -0.359015 -1.17622e-21)
(-0.0360382 -0.372077 1.38646e-19)
(-0.0395249 -0.383323 2.39893e-20)
(-0.04175 -0.392788 1.06468e-19)
(-0.0427359 -0.400397 2.45412e-19)
(-0.0425686 -0.406012 -2.85576e-19)
(-0.0413824 -0.40949 4.30528e-19)
(-0.0393447 -0.410712 9.42263e-20)
(-0.0366414 -0.409612 -2.07188e-19)
(-0.0334616 -0.40619 -2.99653e-20)
(-0.029986 -0.400512 7.6499e-20)
(-0.0263822 -0.392708 -3.78965e-20)
(-0.022793 -0.382959 -2.224e-20)
(-0.0192518 -0.371465 -2.20388e-20)
(-0.0156307 -0.358401 -8.97822e-20)
(-0.0124513 -0.343991 3.35924e-19)
(0.00470051 -0.039266 4.12828e-20)
(0.00994016 -0.104609 -2.00471e-19)
(0.00987912 -0.159024 2.44434e-19)
(0.0063095 -0.203807 -9.81339e-20)
(0.000376339 -0.240455 1.17567e-19)
(-0.00704348 -0.270563 9.60286e-20)
(-0.0151589 -0.295616 3.66106e-20)
(-0.0233034 -0.316879 1.32121e-21)
(-0.0309504 -0.335323 2.08143e-19)
(-0.037709 -0.351613 1.44341e-19)
(-0.0433151 -0.366128 -5.86626e-20)
(-0.0476175 -0.379007 -3.79011e-20)
(-0.0505626 -0.390215 1.58715e-19)
(-0.0521784 -0.3996 3.00481e-20)
(-0.0525581 -0.406958 8.11694e-20)
(-0.0518454 -0.412082 1.96005e-19)
(-0.0502196 -0.414798 -1.7082e-19)
(-0.0478811 -0.415001 1.38884e-19)
(-0.0450357 -0.412662 -2.973e-19)
(-0.0418828 -0.40784 2.50521e-19)
(-0.038611 -0.400675 1.43006e-21)
(-0.0353824 -0.391372 -1.99241e-19)
(-0.0322277 -0.380171 8.1819e-20)
(-0.0290013 -0.367284 1.84254e-19)
(-0.0263659 -0.353036 -2.89187e-19)
(0.00528925 -0.0368173 2.12e-19)
(0.0110047 -0.0985554 -2.34276e-19)
(0.0105446 -0.150429 -3.86639e-20)
(0.00614949 -0.193484 4.80149e-20)
(-0.000809915 -0.229089 -1.05147e-19)
(-0.00933383 -0.258753 -1.65079e-19)
(-0.0185495 -0.283895 -1.37582e-19)
(-0.0277422 -0.305708 -3.33912e-20)
(-0.0363612 -0.325102 -2.39357e-19)
(-0.0440062 -0.342672 1.90061e-19)
(-0.0504112 -0.358731 -2.97805e-19)
(-0.0554269 -0.37335 1.50507e-19)
(-0.0590025 -0.386422 -5.1039e-20)
(-0.061169 -0.397727 1.16877e-19)
(-0.0620233 -0.406991 -2.94464e-19)
(-0.0617141 -0.413938 1.41725e-19)
(-0.0604285 -0.418336 9.88537e-21)
(-0.0583777 -0.420027 6.36329e-20)
(-0.0557822 -0.418945 3.84421e-19)
(-0.052859 -0.415129 8.38132e-20)
(-0.049819 -0.408719 -8.90287e-21)
(-0.0468451 -0.399944 2.40583e-20)
(-0.0439674 -0.389072 1.61001e-19)
(-0.0410296 -0.376358 4.46551e-20)
(-0.0388439 -0.362234 1.59587e-19)
(0.00564196 -0.0338671 -1.32221e-19)
(0.0115583 -0.0913932 1.95252e-19)
(0.0106041 -0.140393 1.21628e-20)
(0.00540339 -0.181556 -2.41829e-19)
(-0.00248745 -0.216055 5.10118e-19)
(-0.0119739 -0.245271 -1.66217e-19)
(-0.0221237 -0.270519 2.43221e-19)
(-0.0321903 -0.292913 2.23978e-19)
(-0.0416109 -0.313286 -1.86204e-19)
(-0.0499836 -0.332173 -2.71984e-19)
(-0.057045 -0.34982 7.45844e-20)
(-0.0626494 -0.36624 -7.89031e-20)
(-0.0667484 -0.381262 -3.50464e-19)
(-0.0693733 -0.394603 4.25811e-19)
(-0.0706211 -0.405919 -2.04551e-19)
(-0.0706409 -0.414866 -1.41563e-19)
(-0.069623 -0.421141 3.16321e-22)
(-0.0677854 -0.424525 1.14303e-19)
(-0.0653601 -0.424902 4.77582e-20)
(-0.0625813 -0.422277 -1.87668e-19)
(-0.0596824 -0.416776 2.1074e-19)
(-0.0568693 -0.40864 -3.70891e-19)
(-0.0541745 -0.39816 2.24859e-19)
(-0.0514381 -0.385627 -1.73974e-19)
(-0.0496312 -0.371595 4.87907e-20)
(0.00573338 -0.0304779 1.89549e-19)
(0.0115682 -0.083263 -1.52079e-19)
(0.010054 -0.129095 -9.80437e-20)
(0.00411062 -0.168216 -1.7408e-19)
(-0.00457003 -0.201541 -3.20625e-19)
(-0.0148311 -0.23028 -2.38493e-19)
(-0.0257047 -0.25562 1.48979e-19)
(-0.03643 -0.278579 -2.27017e-19)
(-0.0464435 -0.299914 2.8961e-19)
(-0.0553494 -0.320097 -4.7327e-19)
(-0.0628919 -0.339322 2.10931e-19)
(-0.0689306 -0.35755 4.46945e-19)
(-0.0734193 -0.374561 -6.29263e-19)
(-0.0763884 -0.390011 8.98501e-20)
(-0.0779311 -0.403495 1.16801e-19)
(-0.0781932 -0.414598 1.13323e-19)
(-0.077363 -0.422944 -1.23262e-19)
(-0.075661 -0.42824 -3.15702e-20)
(-0.0733276 -0.430302 -8.87775e-20)
(-0.0706121 -0.429084 -7.53291e-20)
(-0.0677713 -0.424682 -4.05795e-19)
(-0.0650358 -0.417331 -2.63738e-20)
(-0.0624436 -0.407334 3.55345e-21)
(-0.0598396 -0.395011 -1.83853e-19)
(-0.0583642 -0.381046 2.01345e-19)
(0.00554972 -0.0267311 5.47955e-21)
(0.0110251 -0.0743416 6.28227e-20)
(0.00891762 -0.116756 6.53309e-20)
(0.00233694 -0.153697 3.85552e-20)
(-0.00694738 -0.18577 3.25299e-19)
(-0.0177512 -0.213977 3.0724e-19)
(-0.0290957 -0.239357 -2.51311e-19)
(-0.0402227 -0.262818 -7.66286e-20)
(-0.0505795 -0.285043 -6.85601e-20)
(-0.0597839 -0.306444 3.55345e-19)
(-0.0675921 -0.327174 1.27641e-19)
(-0.0738721 -0.347154 -1.87102e-19)
(-0.0785808 -0.366125 -1.58015e-19)
(-0.0817468 -0.3837 3.82054e-19)
(-0.0834578 -0.399419 -9.463e-20)
(-0.0838524 -0.412799 -1.14087e-19)
(-0.083113 -0.423389 -1.59032e-19)
(-0.081458 -0.43081 -1.23228e-19)
(-0.0791319 -0.434798 -1.55905e-19)
(-0.0763969 -0.43523 -1.01548e-19)
(-0.073533 -0.432152 4.22706e-19)
(-0.0707971 -0.425769 -2.06692e-19)
(-0.0682364 -0.416379 1.38856e-19)
(-0.0657077 -0.404316 -3.64973e-19)
(-0.0645349 -0.390409 1.61304e-19)
(0.00509042 -0.0227249 -1.69351e-19)
(0.00994471 -0.0648366 -4.62025e-20)
(0.00724487 -0.103632 -3.63075e-19)
(0.000171607 -0.138266 -1.75438e-19)
(-0.00949028 -0.168996 -3.49171e-19)
(-0.0205652 -0.19659 -3.6816e-20)
(-0.032088 -0.221919 1.89417e-19)
(-0.0433192 -0.245775 -1.15903e-19)
(-0.0537277 -0.268762 2.51138e-19)
(-0.0629515 -0.291242 -6.1272e-19)
(-0.0707643 -0.313335 -1.76418e-20)
(-0.0770456 -0.334938 1.09135e-19)
(-0.0817578 -0.355768 -1.38922e-19)
(-0.0849286 -0.37541 1.2568e-19)
(-0.08664 -0.39336 -9.6653e-20)
(-0.0870215 -0.409079 -2.05669e-19)
(-0.0862464 -0.42204 3.73665e-19)
(-0.0845265 -0.431775 2.29854e-19)
(-0.0821062 -0.437922 -4.85071e-20)
(-0.0792571 -0.440263 1.48695e-19)
(-0.076281 -0.438762 -2.94264e-19)
(-0.0734625 -0.433567 4.2047e-19)
(-0.0708607 -0.424942 -5.73567e-19)
(-0.0683501 -0.413221 1.19514e-19)
(-0.0674583 -0.399378 -2.37482e-19)
(0.00436899 -0.01857 9.36377e-21)
(0.00836805 -0.0549793 -1.56146e-19)
(0.00511044 -0.0900045 2.35008e-19)
(-0.00227691 -0.122217 4.85977e-19)
(-0.0120572 -0.151503 -7.99178e-21)
(-0.0230985 -0.178378 5.5863e-20)
(-0.0344724 -0.203531 -2.12541e-19)
(-0.045473 -0.227632 9.97977e-20)
(-0.0556001 -0.251204 6.928e-19)
(-0.0645189 -0.274567 -1.57741e-19)
(-0.0720249 -0.297814 -1.86673e-19)
(-0.0780135 -0.320834 7.07808e-19)
(-0.0824562 -0.343338 2.30692e-19)
(-0.085383 -0.364896 1.09198e-19)
(-0.086872 -0.384983 1.11986e-19)
(-0.0870439 -0.403017 3.05614e-19)
(-0.0860611 -0.418403 -1.15978e-19)
(-0.0841259 -0.430585 3.05667e-19)
(-0.0814778 -0.439093 4.10074e-19)
(-0.0783937 -0.443593 -3.48357e-19)
(-0.0751943 -0.443937 5.12117e-19)
(-0.0721921 -0.440183 1.76033e-19)
(-0.0694593 -0.432521 -6.76558e-19)
(-0.0668927 -0.421255 9.69066e-19)
(-0.0662478 -0.407509 -8.44728e-19)
(0.00341296 -0.0143843 -4.2854e-19)
(0.00636024 -0.0450152 2.44982e-19)
(0.00261018 -0.0761752 -1.6583e-19)
(-0.00488653 -0.105867 -1.58799e-19)
(-0.014502 -0.133603 -1.73112e-19)
(-0.0251802 -0.159633 -1.89321e-19)
(-0.0360508 -0.184457 5.19479e-20)
(-0.0464544 -0.208616 4.99406e-19)
(-0.0559299 -0.232557 -1.07315e-19)
(-0.064175 -0.256554 -2.81264e-19)
(-0.0710118 -0.280686 -1.72654e-19)
(-0.0763563 -0.304844 -7.05459e-20)
(-0.0801938 -0.328747 2.09236e-19)
(-0.0825613 -0.351974 -1.342e-19)
(-0.0835371 -0.373996 -4.34227e-19)
(-0.0832363 -0.394206 -4.75486e-19)
(-0.0818113 -0.411964 1.89464e-19)
(-0.0794534 -0.426635 -3.4842e-19)
(-0.0763936 -0.437638 2.95458e-19)
(-0.0729087 -0.444509 -8.3823e-19)
(-0.0693346 -0.44696 6.34028e-19)
(-0.0660094 -0.444918 -8.28285e-19)
(-0.0630185 -0.438454 -1.10156e-20)
(-0.0602815 -0.427796 -2.68303e-19)
(-0.0598127 -0.414211 8.55342e-19)
(0.00226262 -0.010287 6.58766e-19)
(0.00400731 -0.0351938 1.01443e-19)
(-0.000143551 -0.0624526 -6.71505e-20)
(-0.00752785 -0.0895451 -2.84482e-20)
(-0.0166814 -0.115623 5.36806e-19)
(-0.0266529 -0.14067 1.76635e-19)
(-0.0366482 -0.164994 1.6162e-19)
(-0.0460656 -0.189004 -1.29994e-19)
(-0.0544892 -0.213066 5.04717e-19)
(-0.061654 -0.237414 -2.47958e-19)
(-0.0674126 -0.262114 1.61244e-19)
(-0.0717058 -0.287068 4.11625e-19)
(-0.0745379 -0.312016 -2.32449e-19)
(-0.0759592 -0.336564 2.5241e-19)
(-0.0760544 -0.3602 2.37876e-19)
(-0.0749386 -0.382321 8.09671e-20)
(-0.0727583 -0.402262 -1.93626e-19)
(-0.0696947 -0.419331 5.40743e-19)
(-0.0659683 -0.432852 -4.89563e-20)
(-0.0618515 -0.442226 -5.11623e-20)
(-0.0576889 -0.447004 6.20698e-19)
(-0.0538415 -0.446941 -4.30114e-19)
(-0.0504055 -0.441935 7.16705e-19)
(-0.0473192 -0.432079 -5.81473e-19)
(-0.0468893 -0.418759 8.03653e-19)
(0.00096876 -0.00639201 -3.18788e-19)
(0.00141178 -0.0257565 7.52106e-20)
(-0.00302751 -0.0491406 -7.80127e-20)
(-0.0100705 -0.0735822 -3.72306e-19)
(-0.0184626 -0.0979014 2.13465e-20)
(-0.0273811 -0.121825 2.16668e-19)
(-0.036123 -0.145472 -8.84827e-19)
(-0.0441532 -0.169118 6.65285e-19)
(-0.051106 -0.193043 -6.50887e-19)
(-0.0567566 -0.217439 -4.11271e-19)
(-0.0609909 -0.242363 3.71844e-19)
(-0.0637781 -0.267727 -8.04154e-19)
(-0.0651467 -0.293305 6.78631e-19)
(-0.0651661 -0.31874 -2.16322e-19)
(-0.0639354 -0.343558 -6.10831e-19)
(-0.0615773 -0.367187 1.49467e-19)
(-0.058239 -0.388967 -1.40763e-19)
(-0.0540962 -0.408182 4.85539e-20)
(-0.0493599 -0.424086 -1.87698e-19)
(-0.0442942 -0.435961 -5.96137e-19)
(-0.0392473 -0.443194 1.35909e-19)
(-0.0345975 -0.445337 -1.47576e-21)
(-0.0304477 -0.442056 -5.68296e-19)
(-0.0267457 -0.433231 3.98294e-19)
(-0.0261224 -0.420325 -3.665e-19)
(-0.000410518 -0.00280146 1.29262e-19)
(-0.00131296 -0.0169257 2.49955e-19)
(-0.0059136 -0.0365267 3.53629e-19)
(-0.0123889 -0.0582991 1.84235e-19)
(-0.0197288 -0.0807757 -1.8173e-19)
(-0.0272571 -0.103447 4.37414e-19)
(-0.0343739 -0.126246 3.26833e-19)
(-0.0406173 -0.149317 -1.18029e-19)
(-0.0456755 -0.172853 4.29692e-19)
(-0.0493653 -0.196999 -4.43718e-19)
(-0.0516078 -0.221797 -1.29661e-19)
(-0.0524025 -0.247173 1.32877e-19)
(-0.0518058 -0.272932 2.65108e-19)
(-0.0499123 -0.298763 2.90839e-21)
(-0.0468422 -0.324245 1.65668e-19)
(-0.0427347 -0.348857 3.00582e-19)
(-0.0377467 -0.371978 -5.08576e-19)
(-0.0320558 -0.392906 6.25744e-19)
(-0.025868 -0.410867 2.01909e-19)
(-0.0194388 -0.425061 6.16723e-20)
(-0.0131145 -0.434726 -7.15757e-19)
(-0.00728585 -0.439204 1.02923e-19)
(-0.00205829 -0.437881 1.52479e-19)
(0.00262792 -0.430336 -3.19825e-20)
(0.00379459 -0.418039 1.79845e-19)
(-0.00181363 0.00039968 1.16872e-20)
(-0.00404891 -0.0088942 -6.45528e-19)
(-0.00867475 -0.0248696 -1.52151e-20)
(-0.0143669 -0.0439947 -1.65873e-19)
(-0.0203825 -0.0645712 -1.10408e-18)
(-0.0262036 -0.0858784 9.6222e-19)
(-0.0313419 -0.107679 -6.89987e-19)
(-0.0354139 -0.129986 -3.33753e-20)
(-0.0381637 -0.152905 -3.30892e-19)
(-0.0394508 -0.176526 5.75528e-19)
(-0.0392314 -0.200874 -6.21785e-19)
(-0.0375365 -0.225879 -2.91653e-19)
(-0.0344523 -0.251374 8.38624e-21)
(-0.0301019 -0.277094 -6.2753e-19)
(-0.0246331 -0.302677 8.54782e-19)
(-0.0182093 -0.327666 -9.79235e-19)
(-0.0110065 -0.351508 4.96325e-21)
(-0.00321439 -0.373548 1.49494e-19)
(0.0049585 -0.393038 -3.5588e-19)
(0.0132618 -0.409147 3.33824e-19)
(0.0213538 -0.421015 -4.77165e-19)
(0.0288351 -0.427794 -2.98457e-19)
(0.0356007 -0.428573 5.39572e-19)
(0.0417401 -0.422542 -5.7505e-19)
(0.0439258 -0.411078 -5.30101e-21)
(-0.00317962 0.00314799 -5.26717e-19)
(-0.0066799 -0.00181629 6.29221e-19)
(-0.0111902 -0.0143886 -1.95064e-19)
(-0.0159013 -0.0309341 3.81857e-19)
(-0.0203463 -0.049587 4.15475e-19)
(-0.024172 -0.0694491 -3.68787e-19)
(-0.0270071 -0.090128 -2.49472e-19)
(-0.0285497 -0.111515 -2.99107e-19)
(-0.0286015 -0.133624 2.74809e-19)
(-0.027065 -0.15649 -1.68252e-20)
(-0.023931 -0.180107 4.05092e-19)
(-0.0192619 -0.204405 4.00236e-19)
(-0.0131735 -0.229235 -4.76117e-19)
(-0.00581979 -0.254369 9.36127e-19)
(0.00262076 -0.2795 -6.16144e-19)
(0.0119542 -0.304241 -1.02366e-19)
(0.0219769 -0.328115 1.17518e-18)
(0.0324773 -0.350552 -5.43758e-19)
(0.0432338 -0.370868 3.30496e-19)
(0.0539942 -0.388268 6.30658e-19)
(0.0644206 -0.401865 -4.07246e-19)
(0.0741063 -0.410687 4.56107e-20)
(0.0829451 -0.413548 -2.38296e-20)
(0.0910836 -0.409196 -1.40684e-19)
(0.0948761 -0.398786 2.9752e-19)
(-0.00445207 0.00540422 1.20798e-19)
(-0.00909758 0.00419837 -4.03578e-19)
(-0.0133498 -0.00525442 2.22612e-19)
(-0.0169021 -0.0193377 -2.12204e-21)
(-0.0195606 -0.0360844 1.70438e-19)
(-0.0211369 -0.0544565 -2.9686e-19)
(-0.021379 -0.0739283 1.70876e-19)
(-0.0200691 -0.0942773 4.683e-19)
(-0.0170677 -0.115431 -1.37492e-20)
(-0.0123206 -0.137362 -2.43262e-19)
(-0.00585295 -0.160031 2.4658e-19)
(0.0022426 -0.183354 -5.94875e-21)
(0.0118206 -0.207189 -7.76719e-19)
(0.0226968 -0.231334 2.89776e-19)
(0.0346599 -0.255526 6.4926e-20)
(0.0474821 -0.279438 -1.0927e-19)
(0.0609258 -0.302673 -1.86736e-19)
(0.0747486 -0.324751 7.34437e-19)
(0.0887051 -0.345091 1.69712e-19)
(0.102531 -0.362989 -3.67853e-19)
(0.115889 -0.377609 -3.93567e-20)
(0.128363 -0.387953 4.64724e-19)
(0.139839 -0.392647 -2.19023e-19)
(0.150548 -0.389993 8.4123e-20)
(0.156605 -0.380798 5.97369e-20)
(-0.00558256 0.00715387 -2.4392e-19)
(-0.0112064 0.00908789 2.51151e-19)
(-0.0150567 0.00241648 -1.43809e-19)
(-0.0172928 -0.00937228 -4.65972e-19)
(-0.0179789 -0.0242749 -4.32713e-19)
(-0.0170865 -0.0411531 -1.96079e-19)
(-0.0144828 -0.0593721 -1.61831e-19)
(-0.010035 -0.078609 -4.83987e-19)
(-0.00366384 -0.0987084 -1.95851e-19)
(0.00464067 -0.119582 1.78453e-19)
(0.0148187 -0.14115 -2.57817e-19)
(0.0267477 -0.163305 -2.74776e-19)
(0.0402532 -0.185904 -2.56868e-19)
(0.0551205 -0.208756 4.60995e-19)
(0.0711052 -0.231626 -9.72518e-19)
(0.0879435 -0.254232 5.43642e-19)
(0.10536 -0.276242 -9.27667e-19)
(0.123074 -0.297265 -1.38883e-19)
(0.140806 -0.31683 -4.85155e-19)
(0.158271 -0.334356 -1.0646e-19)
(0.175123 -0.349131 -1.32898e-19)
(0.190933 -0.360238 -4.19594e-19)
(0.205567 -0.366249 -3.43865e-20)
(0.219366 -0.365094 2.33205e-19)
(0.228344 -0.357143 -6.22732e-19)
(-0.00653315 0.00840602 2.09917e-19)
(-0.0129274 0.012838 2.8603e-19)
(-0.0162293 0.00856472 1.01365e-18)
(-0.0170077 -0.00114549 -1.80418e-19)
(-0.0155611 -0.0143115 4.31478e-19)
(-0.0120115 -0.0297339 1.03915e-18)
(-0.00634196 -0.0466946 -2.85002e-19)
(0.0014946 -0.064786 3.89386e-19)
(0.0115158 -0.0837774 2.29505e-19)
(0.023686 -0.103521 4.17451e-19)
(0.0379094 -0.123894 -8.4865e-20)
(0.0540321 -0.144762 5.6779e-20)
(0.0718498 -0.165968 -1.44468e-19)
(0.0911166 -0.187323 7.97111e-19)
(0.111554 -0.208603 1.04314e-19)
(0.13286 -0.229556 7.25511e-19)
(0.154718 -0.249895 -1.80409e-19)
(0.176804 -0.269297 6.40693e-19)
(0.198796 -0.287391 8.20801e-20)
(0.220375 -0.303724 3.0517e-19)
(0.241177 -0.317741 -1.23726e-19)
(0.260759 -0.328696 -5.6952e-21)
(0.278948 -0.335263 6.60905e-19)
(0.296213 -0.335153 3.72161e-19)
(0.308664 -0.328269 -1.64081e-19)
(-0.0072778 0.00919022 -5.12435e-19)
(-0.0141999 0.0154784 -5.41342e-19)
(-0.0168002 0.0131872 -5.7142e-19)
(-0.0159882 0.00529694 2.10488e-19)
(-0.0122656 -0.00628255 -4.27991e-19)
(-0.0058918 -0.0203272 -6.44435e-20)
(0.00303925 -0.0360614 -1.71086e-19)
(0.0144898 -0.0530095 -7.16828e-19)
(0.0284145 -0.0708757 -1.1307e-19)
(0.0447294 -0.089457 1.86394e-19)
(0.0632997 -0.108587 -5.86912e-19)
(0.0839376 -0.128103 8.14763e-19)
(0.106406 -0.147828 -1.10588e-18)
(0.130424 -0.167565 2.64433e-19)
(0.155676 -0.187092 -6.72205e-19)
(0.181818 -0.206169 -5.36697e-19)
(0.208489 -0.224536 -2.75812e-20)
(0.235316 -0.241917 -7.40057e-20)
(0.261927 -0.25801 6.59558e-20)
(0.287957 -0.272474 -2.78582e-19)
(0.313016 -0.284908 -1.861e-19)
(0.336634 -0.294776 2.17202e-19)
(0.358585 -0.300988 -5.85526e-19)
(0.379461 -0.301232 1.84105e-19)
(0.395734 -0.294993 1.19127e-19)
(-0.00780252 0.00955229 -9.15655e-20)
(-0.0149816 0.017077 -1.58788e-19)
(-0.0167152 0.0163327 6.17235e-19)
(-0.0141783 0.00997018 2.3236e-19)
(-0.00804133 -0.000209731 3.10815e-19)
(0.0013149 -0.0129894 -4.18131e-19)
(0.0136924 -0.02756 -1.31501e-22)
(0.0289703 -0.0433951 -3.44988e-19)
(0.0470385 -0.0601449 6.4063e-19)
(0.0677616 -0.0775575 2.1038e-19)
(0.0909616 -0.0954268 2.36063e-19)
(0.116411 -0.113559 -9.44371e-19)
(0.143834 -0.131758 1.16212e-18)
(0.172909 -0.149811 -3.50695e-19)
(0.203276 -0.167493 -2.47069e-19)
(0.234546 -0.184566 7.33166e-19)
(0.266304 -0.200782 3.16982e-19)
(0.298123 -0.21589 -8.00494e-19)
(0.329573 -0.229633 -3.14891e-19)
(0.360236 -0.241746 9.55735e-19)
(0.389681 -0.251949 -6.99784e-19)
(0.417408 -0.259906 4.13649e-19)
(0.443109 -0.264842 2.09253e-19)
(0.467479 -0.264604 -2.68156e-19)
(0.487646 -0.258329 -2.4313e-19)
(-0.00810429 0.00954907 -3.37897e-19)
(-0.0152466 0.0177312 5.43961e-19)
(-0.0159296 0.0180951 2.33907e-19)
(-0.0115196 0.0129459 -3.40393e-19)
(-0.00282002 0.00395115 -5.45585e-20)
(0.00968358 -0.00770302 -3.63898e-19)
(0.0256974 -0.0211958 -1.4673e-19)
(0.0450198 -0.0359665 1.65753e-19)
(0.0674742 -0.0516231 -4.11152e-20)
(0.0928691 -0.0678728 3.17204e-19)
(0.120976 -0.084474 -2.76013e-19)
(0.151521 -0.101206 7.65664e-19)
(0.184179 -0.117849 -9.46785e-19)
(0.21858 -0.13418 5.92229e-19)
(0.254311 -0.149965 7.25621e-19)
(0.290925 -0.164963 -1.03861e-18)
(0.327947 -0.178931 -3.06663e-19)
(0.364891 -0.191627 5.14943e-19)
(0.401261 -0.202817 -3.10348e-19)
(0.436573 -0.212275 2.83765e-19)
(0.470344 -0.219792 -6.79121e-19)
(0.502027 -0.225185 1.1818e-19)
(0.531218 -0.227983 4.02378e-19)
(0.55867 -0.226288 -6.16384e-19)
(0.582475 -0.218928 1.76622e-19)
(-0.00818891 0.00924312 -3.13567e-19)
(-0.0149819 0.0175588 1.01876e-18)
(-0.0144042 0.0186038 1.97313e-19)
(-0.00794587 0.0143453 -5.37676e-19)
(0.00348976 0.00630554 3.88201e-19)
(0.0193291 -0.00437874 1.99158e-19)
(0.0391909 -0.0168922 3.21458e-19)
(0.0627949 -0.0306547 -2.04053e-20)
(0.0898951 -0.0452438 -3.3367e-20)
(0.120237 -0.0603346 -7.13119e-20)
(0.153534 -0.0756566 -3.12483e-19)
(0.189451 -0.0909653 -9.00344e-21)
(0.227605 -0.106025 7.31603e-19)
(0.267561 -0.1206 -1.18913e-18)
(0.308842 -0.134452 8.46901e-19)
(0.350934 -0.147338 1.71939e-19)
(0.393298 -0.159016 2.98916e-19)
(0.435382 -0.169248 -1.39318e-19)
(0.476628 -0.177801 1.27999e-18)
(0.516486 -0.184454 -7.74371e-19)
(0.554399 -0.189011 5.96032e-19)
(0.58974 -0.191338 1.28183e-19)
(0.621949 -0.191127 -3.99507e-19)
(0.651691 -0.186606 3.28287e-19)
(0.678149 -0.176464 4.77763e-19)
(-0.00806806 0.00869751 -9.15967e-20)
(-0.0141823 0.0166879 -3.59176e-19)
(-0.0120993 0.0180136 -6.18819e-19)
(-0.00337815 0.0143298 -3.56105e-19)
(0.0110071 0.00701285 -4.99554e-20)
(0.0304095 -0.00286054 -1.42802e-19)
(0.0543679 -0.0144939 -6.69327e-19)
(0.0825234 -0.0273006 1.11244e-19)
(0.114556 -0.0408391 -7.62884e-19)
(0.150139 -0.0547617 -5.96022e-20)
(0.188911 -0.0687768 -7.37146e-19)
(0.230465 -0.0826238 -2.61753e-19)
(0.274338 -0.0960571 1.49549e-19)
(0.320016 -0.108837 -7.12305e-19)
(0.366943 -0.120728 7.55641e-21)
(0.414529 -0.131494 -6.00609e-19)
(0.46217 -0.140901 2.27049e-19)
(0.509262 -0.148718 -8.09437e-19)
(0.555213 -0.154714 -1.30228e-19)
(0.599457 -0.158652 -1.34097e-20)
(0.641434 -0.160298 -1.24814e-19)
(0.68051 -0.159434 -1.28085e-19)
(0.716015 -0.155591 -6.86358e-20)
(0.748033 -0.146872 -2.35456e-19)
(0.77534 -0.132665 -4.68162e-19)
(-0.00775582 0.00797146 1.66461e-19)
(-0.0128445 0.015248 4.5606e-19)
(-0.00897032 0.0164936 5.52593e-19)
(0.00227912 0.0130901 -4.44922e-19)
(0.0198809 0.00627689 8.33318e-19)
(0.0431258 -0.00293426 -4.55688e-19)
(0.0714769 -0.0137749 2.49414e-19)
(0.104495 -0.0256627 3.92748e-19)
(0.141776 -0.0381475 3.59465e-19)
(0.182907 -0.0508688 1.75836e-19)
(0.227436 -0.0635238 2.84588e-19)
(0.274856 -0.0758455 1.6678e-19)
(0.324606 -0.0875886 1.11489e-18)
(0.376069 -0.098522 -8.0557e-19)
(0.428591 -0.108425 9.14007e-19)
(0.481498 -0.117087 -3.72503e-19)
(0.534115 -0.124303 7.93478e-19)
(0.585798 -0.129877 -4.4452e-20)
(0.635959 -0.13361 -1.60846e-19)
(0.684091 -0.135296 -2.27507e-20)
(0.72979 -0.1347 5.56879e-19)
(0.772783 -0.131501 -5.13971e-19)
(0.813127 -0.124915 3.63343e-19)
(0.851298 -0.113377 3.6139e-19)
(0.883652 -0.100173 6.29743e-20)
(-0.00726502 0.00711683 1.15311e-19)
(-0.0109615 0.0133625 -6.51896e-19)
(-0.00496197 0.0142175 -2.38546e-19)
(0.00914062 0.010836 2.20575e-19)
(0.0302882 0.00433488 -6.82019e-19)
(0.0577152 -0.00433829 -1.3562e-19)
(0.0908088 -0.014449 9.49126e-20)
(0.129042 -0.025428 3.78705e-19)
(0.171912 -0.0368268 -9.61353e-19)
(0.218899 -0.0482827 7.35627e-20)
(0.269434 -0.0594931 -2.83853e-19)
(0.322886 -0.0701962 -8.59566e-19)
(0.378563 -0.0801606 5.84676e-19)
(0.435723 -0.0891781 2.58871e-20)
(0.493593 -0.0970611 -1.76997e-20)
(0.551394 -0.103641 5.7088e-19)
(0.608376 -0.108768 -9.952e-19)
(0.663846 -0.112311 7.72e-19)
(0.717203 -0.114156 -1.49326e-19)
(0.767972 -0.114206 4.08074e-19)
(0.815824 -0.112381 -6.822e-19)
(0.860618 -0.108602 3.63176e-19)
(0.902545 -0.102629 -6.28429e-19)
(0.942095 -0.094141 6.05043e-19)
(0.975464 -0.086761 -2.07823e-19)
(-0.00660389 0.00617601 7.73553e-19)
(-0.00851692 0.0111425 -1.30342e-19)
(-4.76498e-06 0.0113551 9.70719e-19)
(0.0173405 0.00778538 4.53373e-19)
(0.0424301 0.00144579 3.75756e-20)
(0.0744411 -0.00677635 2.00871e-19)
(0.112678 -0.0161839 4.89824e-20)
(0.156511 -0.0262284 8.30731e-19)
(0.205319 -0.0364728 2.69523e-19)
(0.258447 -0.0465642 -3.60275e-20)
(0.315175 -0.0562128 7.42783e-20)
(0.374719 -0.0651767 2.82341e-19)
(0.436226 -0.0732526 2.33219e-19)
(0.498803 -0.0802707 4.91266e-19)
(0.561541 -0.0860915 -5.63978e-19)
(0.62355 -0.0906043 1.64617e-19)
(0.683999 -0.0937262 5.51679e-20)
(0.74215 -0.0954018 2.38136e-19)
(0.797391 -0.0956035 6.12735e-19)
(0.84926 -0.094333 -4.11742e-19)
(0.897464 -0.091627 2.02611e-20)
(0.941884 -0.0875589 -5.15985e-19)
(0.982635 -0.0821642 4.61657e-19)
(1.01999 -0.0754332 -4.22744e-19)
(1.05082 -0.0698806 5.96007e-20)
(-0.00577346 0.00518116 -6.44592e-19)
(-0.00548091 0.00868388 5.11423e-19)
(0.00598716 0.00806551 -8.38162e-19)
(0.0270306 0.00415509 7.25689e-20)
(0.056524 -0.00212143 5.99577e-19)
(0.093578 -0.00993155 -1.00555e-18)
(0.137399 -0.0186177 8.04156e-19)
(0.187233 -0.0276595 -1.28325e-18)
(0.24231 -0.0366423 2.56599e-19)
(0.301804 -0.0452361 5.5059e-20)
(0.364814 -0.0531786 4.33459e-19)
(0.430363 -0.0602634 -1.44641e-18)
(0.497414 -0.0663317 2.51731e-19)
(0.564907 -0.0712672 2.62244e-19)
(0.63179 -0.0749915 -1.54526e-19)
(0.697069 -0.0774613 -9.40223e-19)
(0.75985 -0.0786657 4.4829e-19)
(0.819372 -0.0786237 7.99014e-19)
(0.87504 -0.0773831 -8.2053e-19)
(0.926435 -0.0750208 5.81023e-19)
(0.973321 -0.0716463 -7.18803e-19)
(1.01564 -0.0674052 5.12196e-19)
(1.05349 -0.0624249 -1.27821e-19)
(1.08713 -0.0567213 7.20842e-19)
(1.11425 -0.0519626 -8.02357e-19)
(-0.00476576 0.00415457 9.16227e-20)
(-0.00180804 0.00606622 7.52513e-20)
(0.0131159 0.00449369 1.84386e-19)
(0.0383753 0.00015403 6.67158e-19)
(0.0727923 -0.00609809 -2.16414e-20)
(0.115393 -0.0134799 1.50659e-19)
(0.16526 -0.0213761 6.78985e-19)
(0.221484 -0.0293024 2.75657e-19)
(0.283109 -0.036879 -9.15807e-20)
(0.3491 -0.0438138 7.79291e-19)
(0.418335 -0.049889 -8.8737e-19)
(0.489618 -0.0549509 1.36205e-18)
(0.561712 -0.0589015 -5.3887e-19)
(0.633382 -0.0616915 9.66956e-19)
(0.70345 -0.0633136 -3.26965e-19)
(0.770846 -0.0637965 1.17432e-19)
(0.83465 -0.0631987 1.40939e-19)
(0.894127 -0.0616034 -2.55409e-19)
(0.948747 -0.0591147 2.18264e-19)
(0.998185 -0.0558547 1.36174e-19)
(1.04232 -0.0519636 1.78737e-19)
(1.08118 -0.0476 3.55685e-19)
(1.11499 -0.0428969 -4.12812e-20)
(1.14404 -0.0378535 -1.58421e-19)
(1.16686 -0.0335595 4.26444e-19)
(-0.00356315 0.00311015 -5.35629e-19)
(0.00256317 0.00335378 5.87253e-20)
(0.0214974 0.000768865 -1.06414e-18)
(0.0515449 -0.00402161 -2.55582e-19)
(0.0914499 -0.010224 -4.83782e-19)
(0.140124 -0.0171023 -1.03862e-19)
(0.196494 -0.024088 -5.25177e-19)
(0.259452 -0.0307435 -3.16423e-19)
(0.327814 -0.0367381 4.1922e-19)
(0.400294 -0.0418351 -7.03284e-19)
(0.475518 -0.04588 -1.95983e-19)
(0.552052 -0.0487896 6.2959e-21)
(0.628454 -0.0505419 -1.30979e-18)
(0.703336 -0.0511659 5.53754e-19)
(0.775428 -0.0507306 -7.97978e-19)
(0.843631 -0.0493351 -2.23393e-20)
(0.907061 -0.0470992 1.46709e-19)
(0.965071 -0.044155 -2.48124e-19)
(1.01726 -0.0406409 -2.12012e-19)
(1.06345 -0.0366972 9.5459e-20)
(1.10369 -0.0324642 1.02386e-19)
(1.13817 -0.0280803 -6.70057e-19)
(1.16724 -0.0236493 3.77836e-19)
(1.19133 -0.0191482 1.71749e-19)
(1.20963 -0.0153007 3.04157e-20)
(-0.00213881 0.00205573 5.45949e-19)
(0.00770847 0.000598682 -6.03332e-19)
(0.0312569 -0.00299417 8.54451e-19)
(0.0667072 -0.0081901 1.35772e-19)
(0.11269 -0.0142526 -4.15263e-20)
(0.167964 -0.0204938 -2.92515e-19)
(0.231254 -0.0263996 4.45803e-20)
(0.301209 -0.0315924 4.5203e-19)
(0.376366 -0.0358084 -6.26662e-19)
(0.455155 -0.0388858 6.60308e-19)
(0.535925 -0.040753 -6.99234e-20)
(0.617 -0.0414146 3.52115e-20)
(0.696755 -0.0409374 8.52217e-19)
(0.773689 -0.0394349 1.12569e-18)
(0.846496 -0.0370521 -4.43009e-19)
(0.914121 -0.033951 7.59063e-19)
(0.975785 -0.0302985 3.68599e-19)
(1.031 -0.0262564 -2.33431e-19)
(1.07955 -0.0219749 6.96698e-19)
(1.12148 -0.0175887 -4.02638e-20)
(1.15701 -0.0132158 -6.38968e-19)
(1.18654 -0.00895728 6.50467e-19)
(1.21059 -0.00487372 7.90717e-20)
(1.2297 -0.000921509 -3.75167e-19)
(1.24355 0.00240724 1.20437e-19)
(-0.000458154 0.000995757 -7.5629e-19)
(0.0137145 -0.00215472 8.21649e-19)
(0.042523 -0.00669183 -5.24599e-19)
(0.0840174 -0.0121833 -1.63521e-19)
(0.136671 -0.0179539 -3.7283e-19)
(0.19904 -0.0233697 6.6437e-19)
(0.269596 -0.0279835 -3.87037e-19)
(0.346689 -0.0314954 -1.78313e-19)
(0.428539 -0.0337287 -5.11322e-19)
(0.513257 -0.0346181 1.42176e-20)
(0.59891 -0.0341938 -2.01928e-19)
(0.683601 -0.032563 9.53103e-20)
(0.765563 -0.0298892 -1.01891e-18)
(0.843249 -0.026371 2.91571e-19)
(0.915395 -0.0222216 -3.42895e-19)
(0.981068 -0.017652 -2.68562e-19)
(1.03967 -0.0128569 8.13898e-20)
(1.09095 -0.00800612 -3.7798e-19)
(1.13492 -0.00323969 -1.494e-19)
(1.17186 0.00133331 4.52411e-19)
(1.20222 0.00563283 1.78106e-19)
(1.22659 0.00960494 -7.63355e-19)
(1.24563 0.013237 5.43085e-19)
(1.26 0.0165925 -1.00263e-19)
(1.26974 0.0193181 -2.00272e-19)
(0.00151904 -6.58963e-05 -2.73083e-19)
(0.0206739 -0.00486496 -1.51569e-19)
(0.0554206 -0.0102271 -2.96354e-20)
(0.103609 -0.0158439 2.28093e-19)
(0.163505 -0.0211133 2.4863e-19)
(0.233404 -0.025468 2.16925e-19)
(0.311464 -0.0285453 2.72961e-19)
(0.395687 -0.0301443 4.17878e-19)
(0.483935 -0.0301989 6.41715e-19)
(0.57399 -0.0287617 6.34344e-19)
(0.663652 -0.0259819 3.34328e-19)
(0.750847 -0.0220792 -9.11367e-20)
(0.833737 -0.0173148 2.27087e-20)
(0.910809 -0.0119649 -2.33433e-20)
(0.980934 -0.0062965 2.61847e-19)