/*--------------------------------*- C++ -*----------------------------------*\
  =========                 |
  \\      /  F ield         | OpenFOAM: The Open Source CFD Toolbox
   \\    /   O peration     | Website:  https://openfoam.org
    \\  /    A nd           | Version:  6.0
     \\/     M anipulation  |
\*---------------------------------------------------------------------------*/
FoamFile
{
    version     2.0;
    format      ascii;
    class       volScalarField;
    location    "73";
    object      p;
}
// * * * * * * * * * * * * * * * * * * * * * * * * * * * * * * * * * * * * * //

dimensions      [0 2 -2 0 0 0 0];

internalField   nonuniform List<scalar> 
4000
(
-0.39336
-0.39523
-0.396226
-0.39678
-0.397158
-0.397415
-0.397578
-0.397662
-0.397669
-0.397594
-0.397431
-0.397179
-0.396839
-0.396418
-0.395929
-0.395392
-0.394824
-0.394235
-0.393675
-0.393299
-0.387151
-0.388864
-0.389733
-0.390149
-0.390357
-0.390407
-0.39033
-0.390146
-0.389862
-0.389482
-0.389009
-0.388446
-0.387803
-0.387092
-0.386331
-0.385546
-0.384758
-0.383952
-0.383159
-0.382825
-0.381321
-0.38286
-0.383596
-0.383876
-0.383918
-0.383771
-0.383465
-0.383023
-0.38246
-0.381785
-0.381008
-0.380141
-0.379197
-0.378195
-0.377158
-0.376118
-0.375102
-0.374072
-0.373037
-0.372711
-0.375847
-0.37721
-0.377815
-0.377962
-0.377846
-0.377509
-0.376982
-0.376292
-0.375457
-0.374495
-0.37342
-0.372251
-0.371008
-0.369714
-0.368397
-0.367098
-0.365847
-0.36459
-0.363311
-0.362962
-0.370708
-0.371907
-0.372385
-0.372406
-0.372137
-0.371618
-0.370877
-0.369945
-0.368844
-0.367597
-0.366226
-0.364756
-0.363212
-0.361622
-0.360022
-0.358457
-0.356965
-0.355481
-0.353961
-0.35356
-0.365885
-0.366941
-0.367305
-0.367205
-0.366791
-0.366094
-0.365144
-0.363973
-0.362609
-0.361078
-0.35941
-0.357635
-0.355785
-0.353894
-0.352002
-0.350163
-0.348422
-0.346707
-0.344947
-0.34447
-0.361364
-0.362308
-0.362572
-0.362362
-0.361807
-0.360937
-0.359781
-0.358373
-0.356745
-0.354929
-0.35296
-0.350874
-0.348709
-0.346506
-0.344311
-0.342184
-0.340181
-0.338227
-0.336224
-0.335647
-0.357143
-0.35801
-0.358193
-0.357879
-0.357189
-0.35615
-0.35479
-0.353146
-0.351253
-0.349149
-0.346874
-0.344469
-0.341979
-0.339449
-0.336933
-0.334499
-0.332213
-0.330002
-0.327746
-0.327043
-0.35323
-0.35406
-0.354179
-0.353769
-0.35295
-0.351744
-0.350182
-0.348303
-0.346145
-0.343751
-0.341166
-0.338434
-0.335605
-0.332732
-0.329872
-0.327103
-0.324503
-0.322004
-0.319471
-0.318616
-0.349648
-0.350476
-0.350547
-0.35005
-0.349105
-0.347736
-0.345976
-0.343864
-0.341445
-0.338764
-0.335866
-0.332802
-0.329625
-0.326389
-0.323159
-0.32002
-0.317063
-0.314228
-0.311374
-0.310328
-0.346431
-0.347288
-0.347325
-0.346746
-0.345679
-0.344152
-0.342199
-0.339864
-0.337191
-0.33423
-0.331027
-0.327633
-0.324102
-0.32049
-0.316862
-0.313311
-0.30994
-0.306697
-0.303447
-0.30215
-0.343625
-0.344534
-0.344546
-0.343889
-0.342705
-0.341026
-0.338889
-0.336342
-0.333432
-0.330208
-0.326717
-0.323008
-0.31913
-0.315136
-0.311089
-0.307083
-0.303227
-0.29948
-0.295714
-0.294062
-0.341289
-0.342258
-0.342247
-0.341513
-0.340216
-0.338394
-0.336088
-0.333349
-0.330226
-0.326768
-0.323018
-0.319021
-0.314819
-0.310456
-0.305983
-0.301485
-0.29707
-0.292695
-0.288238
-0.286056
-0.339484
-0.340508
-0.34047
-0.339658
-0.338253
-0.336298
-0.333841
-0.330935
-0.327631
-0.323976
-0.32001
-0.31577
-0.311286
-0.306586
-0.3017
-0.296691
-0.29165
-0.28651
-0.281132
-0.278154
-0.338275
-0.339333
-0.339255
-0.338361
-0.336851
-0.334775
-0.332188
-0.329144
-0.325697
-0.321889
-0.317758
-0.31333
-0.30862
-0.303634
-0.298372
-0.292858
-0.287146
-0.281119
-0.274562
-0.270421
-0.337723
-0.338776
-0.338638
-0.337655
-0.336041
-0.333856
-0.331158
-0.328006
-0.324452
-0.320538
-0.316293
-0.311734
-0.306859
-0.301648
-0.296065
-0.290082
-0.283693
-0.276704
-0.268747
-0.263009
-0.33788
-0.338873
-0.338648
-0.337562
-0.335842
-0.333556
-0.330765
-0.32753
-0.323902
-0.319919
-0.315604
-0.310963
-0.305977
-0.3006
-0.294757
-0.288361
-0.281337
-0.273405
-0.263961
-0.2562
-0.338781
-0.33965
-0.3393
-0.338093
-0.336259
-0.333874
-0.331
-0.3277
-0.324019
-0.319994
-0.31564
-0.310952
-0.305895
-0.3004
-0.294352
-0.287609
-0.280018
-0.271217
-0.260326
-0.250158
-0.340447
-0.341118
-0.340599
-0.339245
-0.337282
-0.334791
-0.331836
-0.328476
-0.324754
-0.320701
-0.316327
-0.311618
-0.306529
-0.300976
-0.294819
-0.287864
-0.279866
-0.270331
-0.258001
-0.245003
-0.342881
-0.343274
-0.342538
-0.341003
-0.338888
-0.336274
-0.333228
-0.329804
-0.326041
-0.321965
-0.317582
-0.31288
-0.307819
-0.302328
-0.296296
-0.289563
-0.281901
-0.272752
-0.260572
-0.246638
-0.346071
-0.346109
-0.3451
-0.343343
-0.341042
-0.338282
-0.335125
-0.331622
-0.327807
-0.323702
-0.319315
-0.31464
-0.309659
-0.304347
-0.298682
-0.29267
-0.286389
-0.279989
-0.274214
-0.274671
-0.35
-0.349605
-0.348266
-0.346242
-0.343715
-0.340773
-0.337478
-0.333873
-0.329988
-0.325841
-0.321439
-0.316786
-0.311886
-0.30675
-0.301417
-0.29598
-0.290626
-0.285676
-0.281824
-0.282354
-0.354647
-0.353747
-0.35202
-0.349678
-0.34688
-0.34372
-0.340254
-0.33652
-0.332539
-0.328325
-0.323885
-0.319228
-0.314373
-0.309355
-0.304243
-0.299157
-0.294286
-0.289899
-0.286385
-0.285177
-0.359997
-0.358528
-0.356354
-0.353645
-0.350532
-0.347112
-0.343441
-0.339544
-0.335435
-0.331119
-0.326598
-0.321884
-0.316999
-0.311987
-0.306924
-0.301919
-0.297116
-0.292683
-0.288825
-0.285997
-0.366047
-0.363947
-0.361275
-0.358151
-0.35468
-0.350964
-0.34705
-0.342953
-0.338673
-0.334202
-0.329535
-0.324677
-0.319652
-0.314503
-0.309299
-0.304128
-0.299094
-0.294292
-0.289838
-0.285706
-0.372804
-0.370018
-0.3668
-0.363221
-0.359355
-0.355305
-0.35111
-0.346768
-0.342257
-0.337556
-0.332647
-0.327531
-0.322229
-0.316782
-0.311256
-0.305725
-0.300269
-0.294952
-0.289857
-0.284804
-0.380287
-0.376762
-0.372959
-0.368892
-0.364599
-0.36018
-0.355659
-0.351009
-0.346187
-0.341153
-0.335881
-0.330366
-0.324632
-0.318728
-0.31272
-0.306683
-0.30069
-0.294803
-0.28909
-0.283364
-0.388519
-0.384205
-0.379785
-0.375206
-0.370457
-0.365631
-0.360725
-0.355686
-0.350445
-0.344947
-0.33916
-0.333088
-0.326765
-0.320255
-0.313635
-0.306991
-0.3004
-0.293931
-0.287643
-0.281406
-0.397519
-0.392371
-0.387309
-0.382199
-0.376967
-0.371683
-0.366317
-0.360779
-0.354981
-0.348859
-0.342392
-0.335598
-0.328537
-0.321293
-0.313964
-0.306646
-0.299427
-0.292379
-0.285554
-0.278878
-0.407295
-0.401272
-0.395552
-0.389895
-0.384145
-0.378338
-0.372407
-0.366232
-0.35971
-0.352787
-0.345463
-0.337791
-0.32986
-0.321785
-0.313681
-0.305655
-0.297798
-0.290181
-0.282845
-0.275756
-0.417835
-0.410903
-0.404514
-0.398294
-0.391978
-0.385559
-0.37893
-0.371947
-0.364514
-0.356601
-0.348252
-0.339562
-0.330661
-0.321688
-0.312772
-0.304026
-0.295534
-0.287362
-0.279536
-0.272037
-0.429096
-0.421232
-0.41417
-0.407362
-0.400414
-0.393264
-0.385771
-0.377787
-0.36924
-0.360155
-0.35063
-0.340814
-0.330873
-0.320966
-0.311229
-0.301768
-0.292658
-0.283949
-0.275647
-0.267741
-0.441002
-0.432196
-0.424457
-0.417027
-0.409355
-0.401325
-0.392774
-0.383576
-0.373717
-0.363293
-0.352472
-0.341455
-0.330438
-0.31959
-0.309044
-0.298889
-0.289185
-0.27996
-0.271199
-0.262893
-0.453437
-0.443695
-0.435277
-0.427173
-0.418657
-0.409564
-0.39974
-0.389113
-0.377757
-0.365858
-0.353658
-0.341402
-0.329305
-0.317534
-0.306205
-0.295389
-0.28512
-0.275407
-0.266208
-0.257519
-0.466244
-0.455587
-0.446485
-0.437633
-0.428123
-0.417761
-0.406438
-0.394177
-0.381168
-0.367696
-0.354073
-0.340575
-0.327421
-0.314764
-0.302695
-0.291257
-0.28046
-0.27029
-0.260679
-0.251636
-0.47922
-0.467688
-0.457891
-0.448194
-0.437512
-0.425657
-0.412613
-0.398539
-0.38376
-0.368662
-0.353611
-0.3389
-0.324735
-0.311243
-0.298484
-0.286471
-0.275188
-0.264598
-0.254608
-0.245246
-0.492122
-0.479768
-0.469256
-0.458594
-0.446541
-0.432965
-0.417997
-0.40197
-0.385351
-0.368617
-0.352171
-0.336302
-0.321191
-0.306927
-0.293536
-0.281
-0.269278
-0.258311
-0.247979
-0.238344
-0.504663
-0.491557
-0.480299
-0.46853
-0.454897
-0.439385
-0.422328
-0.404256
-0.385776
-0.36744
-0.349664
-0.332714
-0.316733
-0.30177
-0.287811
-0.274809
-0.2627
-0.251403
-0.240771
-0.230913
-0.516522
-0.502744
-0.490699
-0.477667
-0.462245
-0.444609
-0.425344
-0.405188
-0.384878
-0.365012
-0.345997
-0.328061
-0.3113
-0.295717
-0.281261
-0.267856
-0.255416
-0.24384
-0.232956
-0.222929
-0.527348
-0.512985
-0.500101
-0.48564
-0.468234
-0.448327
-0.426788
-0.404564
-0.382499
-0.361208
-0.341068
-0.322256
-0.304813
-0.288696
-0.27382
-0.26008
-0.247372
-0.235573
-0.224491
-0.214355
-0.719973
-0.704595
-0.689449
-0.67081
-0.647471
-0.620491
-0.591405
-0.561671
-0.532442
-0.50447
-0.47816
-0.45366
-0.430962
-0.409969
-0.390547
-0.372552
-0.355847
-0.340274
-0.325614
-0.312118
-0.711449
-0.696602
-0.682529
-0.665763
-0.644891
-0.620564
-0.593967
-0.566354
-0.538812
-0.512119
-0.486747
-0.46292
-0.440695
-0.420027
-0.400822
-0.382961
-0.366327
-0.350784
-0.336136
-0.322552
-0.701368
-0.687132
-0.674059
-0.659007
-0.640459
-0.618732
-0.59467
-0.569298
-0.543599
-0.518348
-0.494064
-0.47104
-0.449396
-0.429144
-0.410229
-0.392566
-0.376058
-0.360593
-0.345999
-0.332376
-0.690095
-0.676547
-0.664405
-0.650893
-0.634488
-0.615245
-0.5937
-0.570637
-0.546903
-0.523237
-0.500183
-0.478086
-0.45713
-0.43738
-0.418829
-0.401423
-0.38509
-0.369745
-0.355243
-0.341628
-0.677981
-0.665188
-0.653918
-0.641773
-0.627303
-0.610381
-0.591278
-0.57054
-0.548856
-0.526894
-0.505197
-0.484147
-0.463982
-0.444821
-0.426701
-0.409607
-0.393496
-0.378306
-0.363927
-0.350356
-0.665345
-0.653369
-0.642921
-0.631981
-0.619231
-0.604432
-0.587648
-0.569201
-0.549608
-0.529441
-0.509212
-0.489321
-0.470046
-0.451555
-0.433932
-0.417202
-0.401352
-0.386348
-0.372113
-0.358616
-0.652477
-0.641365
-0.6317
-0.621819
-0.610576
-0.597682
-0.58305
-0.56681
-0.549308
-0.530994
-0.512325
-0.493694
-0.475404
-0.457664
-0.440602
-0.424284
-0.40873
-0.393937
-0.37986
-0.366457
-0.639629
-0.629414
-0.620499
-0.611551
-0.601612
-0.590397
-0.577722
-0.563565
-0.548108
-0.531671
-0.514629
-0.497347
-0.480133
-0.463224
-0.446787
-0.430927
-0.415702
-0.401137
-0.387225
-0.373926
-0.627012
-0.617713
-0.60952
-0.6014
-0.592584
-0.582826
-0.571897
-0.559663
-0.546165
-0.531592
-0.51622
-0.50036
-0.484304
-0.468305
-0.452558
-0.437204
-0.422337
-0.408014
-0.394265
-0.381069
-0.6148
-0.606418
-0.598924
-0.591544
-0.583694
-0.575188
-0.56579
-0.555299
-0.543642
-0.530883
-0.517194
-0.502809
-0.487988
-0.472975
-0.457983
-0.443184
-0.428703
-0.414633
-0.401038
-0.387928
-0.603133
-0.595651
-0.588831
-0.582119
-0.575104
-0.567668
-0.559596
-0.550658
-0.540699
-0.529675
-0.51765
-0.504773
-0.491247
-0.477293
-0.463125
-0.448931
-0.434868
-0.42106
-0.407604
-0.394552
-0.592115
-0.5855
-0.579324
-0.573223
-0.566934
-0.560412
-0.553482
-0.54591
-0.537492
-0.528097
-0.51769
-0.506329
-0.494145
-0.481315
-0.468037
-0.454505
-0.440896
-0.42736
-0.414027
-0.400992
-0.581825
-0.576024
-0.570458
-0.564919
-0.55927
-0.553534
-0.547584
-0.541205
-0.534167
-0.526278
-0.517418
-0.507556
-0.49674
-0.485091
-0.47277
-0.459961
-0.446848
-0.433603
-0.42038
-0.407322
-0.572316
-0.567262
-0.562265
-0.557243
-0.552167
-0.547115
-0.542012
-0.536671
-0.530859
-0.524344
-0.516942
-0.508536
-0.499095
-0.488667
-0.477365
-0.465344
-0.45278
-0.439856
-0.426744
-0.413627
-0.56362
-0.559229
-0.554756
-0.550212
-0.545656
-0.54121
-0.536847
-0.532414
-0.527687
-0.522415
-0.516365
-0.509352
-0.501269
-0.492087
-0.481856
-0.470689
-0.45874
-0.446186
-0.433211
-0.420048
-0.555745
-0.551924
-0.547925
-0.543828
-0.539752
-0.535856
-0.532152
-0.52852
-0.524754
-0.520598
-0.515789
-0.51009
-0.503324
-0.49539
-0.486268
-0.476015
-0.464751
-0.452635
-0.43985
-0.426694
-0.548675
-0.545324
-0.54175
-0.538072
-0.534451
-0.531069
-0.527967
-0.525054
-0.522145
-0.51899
-0.515309
-0.51083
-0.505319
-0.49861
-0.490613
-0.481322
-0.470811
-0.459214
-0.446717
-0.433781
-0.542365
-0.539383
-0.536188
-0.532913
-0.529733
-0.526845
-0.524308
-0.522055
-0.519921
-0.517664
-0.515003
-0.511643
-0.50731
-0.501778
-0.494894
-0.486584
-0.476868
-0.465846
-0.453713
-0.44122
-0.536733
-0.534029
-0.531176
-0.528292
-0.525553
-0.523154
-0.521166
-0.519535
-0.518111
-0.516668
-0.514928
-0.512584
-0.509338
-0.504917
-0.499106
-0.491765
-0.482844
-0.472387
-0.46063
-0.449063
-0.531669
-0.529164
-0.526624
-0.52413
-0.521838
-0.519935
-0.518492
-0.517462
-0.516705
-0.516008
-0.515101
-0.513678
-0.511423
-0.508034
-0.503243
-0.496836
-0.488675
-0.478663
-0.466872
-0.45594
-0.52703
-0.524668
-0.52242
-0.520318
-0.518486
-0.517093
-0.5162
-0.51576
-0.51564
-0.515636
-0.515488
-0.514898
-0.513546
-0.51111
-0.50728
-0.501777
-0.494359
-0.484741
-0.472291
-0.458384
-0.52265
-0.520401
-0.518436
-0.516731
-0.515369
-0.514498
-0.514161
-0.514306
-0.514799
-0.515445
-0.515994
-0.516161
-0.515632
-0.514084
-0.511194
-0.50666
-0.500227
-0.491662
-0.480458
-0.467533
-0.518353
-0.516213
-0.51453
-0.513225
-0.51234
-0.511995
-0.512213
-0.512931
-0.514013
-0.515267
-0.516457
-0.517309
-0.517525
-0.516792
-0.514795
-0.511236
-0.505859
-0.49843
-0.488486
-0.477059
-0.513965
-0.511957
-0.510561
-0.509655
-0.509241
-0.509412
-0.51017
-0.511437
-0.513072
-0.514888
-0.516656
-0.518119
-0.518992
-0.518981
-0.517782
-0.515105
-0.510696
-0.504288
-0.495455
-0.485515
-0.509325
-0.507492
-0.506393
-0.505876
-0.505916
-0.506576
-0.507838
-0.509609
-0.511746
-0.514062
-0.516337
-0.518326
-0.519763
-0.520367
-0.519854
-0.517948
-0.514405
-0.508956
-0.501264
-0.492773
-0.504298
-0.502698
-0.501905
-0.501759
-0.502218
-0.503321
-0.50503
-0.507241
-0.509807
-0.512543
-0.515237
-0.517658
-0.519554
-0.520664
-0.520721
-0.519472
-0.516691
-0.512133
-0.505588
-0.498412
-0.498787
-0.497482
-0.497
-0.497196
-0.498025
-0.499505
-0.501584
-0.504149
-0.507051
-0.510108
-0.51312
-0.515863
-0.518106
-0.519603
-0.520111
-0.5194
-0.517268
-0.513513
-0.508062
-0.502014
-0.492732
-0.49178
-0.491609
-0.492108
-0.493245
-0.495023
-0.497378
-0.500195
-0.503324
-0.50659
-0.509801
-0.51275
-0.515218
-0.516982
-0.517821
-0.517532
-0.515939
-0.512899
-0.508461
-0.503355
-0.486118
-0.485566
-0.485695
-0.486451
-0.487826
-0.489812
-0.492341
-0.495298
-0.498537
-0.501893
-0.505182
-0.508214
-0.510787
-0.5127
-0.513758
-0.513785
-0.512635
-0.510232
-0.506717
-0.502394
-0.478971
-0.47885
-0.479259
-0.480219
-0.481756
-0.483859
-0.486459
-0.489445
-0.49268
-0.496006
-0.499257
-0.502256
-0.504823
-0.506779
-0.507958
-0.508211
-0.507423
-0.505588
-0.502901
-0.499233
-0.471357
-0.471674
-0.472335
-0.473445
-0.47507
-0.477202
-0.479777
-0.482689
-0.485813
-0.489005
-0.492113
-0.494979
-0.497444
-0.499356
-0.500575
-0.500981
-0.50049
-0.499155
-0.497196
-0.494085
-0.46337
-0.464111
-0.464989
-0.466194
-0.46784
-0.469924
-0.472388
-0.47514
-0.478065
-0.481036
-0.483917
-0.486569
-0.488858
-0.490657
-0.491853
-0.492353
-0.492101
-0.491197
-0.489857
-0.487229
-0.455128
-0.456258
-0.457311
-0.458561
-0.460169
-0.46214
-0.464426
-0.466949
-0.469609
-0.472292
-0.474884
-0.477265
-0.479324
-0.48096
-0.482086
-0.482629
-0.48256
-0.482009
-0.481174
-0.478969
-0.446757
-0.448224
-0.449408
-0.450658
-0.45218
-0.453989
-0.456048
-0.458293
-0.46064
-0.462994
-0.465255
-0.467328
-0.469121
-0.470558
-0.471574
-0.472116
-0.472171
-0.471888
-0.471437
-0.469606
-0.438385
-0.440123
-0.441392
-0.442605
-0.444005
-0.445616
-0.447415
-0.449353
-0.45136
-0.453358
-0.455268
-0.45701
-0.458516
-0.459728
-0.4606
-0.461097
-0.461217
-0.46111
-0.460923
-0.459424
-0.43013
-0.432064
-0.433375
-0.434521
-0.435772
-0.437163
-0.438684
-0.4403
-0.441956
-0.443589
-0.445138
-0.44654
-0.447746
-0.448713
-0.449412
-0.449821
-0.449944
-0.449924
-0.449883
-0.448677
-0.422093
-0.424147
-0.425459
-0.426512
-0.427598
-0.428759
-0.429995
-0.431286
-0.43259
-0.43386
-0.435048
-0.436109
-0.437006
-0.437713
-0.438213
-0.438493
-0.438562
-0.438545
-0.438546
-0.437591
-0.414354
-0.416453
-0.417727
-0.418671
-0.419582
-0.420509
-0.421463
-0.422434
-0.423394
-0.424309
-0.425143
-0.425866
-0.426452
-0.426887
-0.427164
-0.427278
-0.427242
-0.427154
-0.427106
-0.42636
-0.406966
-0.409043
-0.410248
-0.411069
-0.411801
-0.412498
-0.413177
-0.413839
-0.414467
-0.415038
-0.415529
-0.41592
-0.416195
-0.416349
-0.416383
-0.416302
-0.416118
-0.415901
-0.415731
-0.415151
-0.399964
-0.40196
-0.40307
-0.40376
-0.404314
-0.404786
-0.405201
-0.405568
-0.405878
-0.406119
-0.406278
-0.406343
-0.406309
-0.406177
-0.405955
-0.405654
-0.40529
-0.404901
-0.404554
-0.404097
-0.390253
-0.367441
-0.43199
-0.258479
-0.123313
-0.0955671
-0.162917
-0.112997
-0.0649226
-0.115806
-0.144876
-0.120602
-0.0644892
-0.0787489
-0.105007
-0.0946182
-0.0478452
-0.0429762
-0.0257686
-0.0208417
-0.38803
-0.373836
-0.438711
-0.258265
-0.12186
-0.0891079
-0.163458
-0.113244
-0.0626969
-0.112907
-0.141988
-0.119091
-0.0652588
-0.0803186
-0.107232
-0.096013
-0.0482379
-0.0429515
-0.0253207
-0.0205321
-0.385686
-0.379712
-0.443723
-0.257904
-0.120188
-0.0831277
-0.163881
-0.113327
-0.060414
-0.10986
-0.139012
-0.117461
-0.065912
-0.0817585
-0.10933
-0.0973222
-0.0485914
-0.0428673
-0.0248515
-0.0202109
-0.383112
-0.385108
-0.447294
-0.25743
-0.118314
-0.0777801
-0.164114
-0.113248
-0.0581103
-0.106702
-0.135971
-0.115724
-0.0664395
-0.0830558
-0.111281
-0.098535
-0.048905
-0.0427258
-0.0243671
-0.0198815
-0.380213
-0.390061
-0.449673
-0.256851
-0.116245
-0.0731452
-0.164063
-0.113017
-0.055818
-0.103471
-0.132886
-0.113892
-0.0668339
-0.0841981
-0.113066
-0.0996413
-0.049179
-0.0425291
-0.0238739
-0.0195474
-0.376905
-0.394598
-0.451081
-0.256164
-0.113973
-0.0692179
-0.163614
-0.112641
-0.0535664
-0.100202
-0.129774
-0.111973
-0.0670896
-0.0851744
-0.114668
-0.100631
-0.0494136
-0.0422786
-0.0233781
-0.019212
-0.37311
-0.398735
-0.451707
-0.255366
-0.11149
-0.0659128
-0.162642
-0.112123
-0.0513842
-0.0969289
-0.126653
-0.109979
-0.067203
-0.0859751
-0.116071
-0.101495
-0.0496089
-0.041977
-0.0228865
-0.0188786
-0.368763
-0.40247
-0.451698
-0.254463
-0.10879
-0.0630837
-0.161028
-0.111466
-0.0492973
-0.0936821
-0.123536
-0.10792
-0.0671723
-0.0865922
-0.117259
-0.102224
-0.0497656
-0.0416262
-0.0224055
-0.0185502
-0.363804
-0.405786
-0.451165
-0.253478
-0.105883
-0.0605508
-0.158666
-0.110667
-0.0473292
-0.0904902
-0.120436
-0.105803
-0.0669979
-0.0870197
-0.11822
-0.102808
-0.0498843
-0.0412285
-0.0219417
-0.0182301
-0.358187
-0.408647
-0.450177
-0.252447
-0.102791
-0.0581284
-0.155482
-0.109722
-0.0455013
-0.087379
-0.117366
-0.10364
-0.0666821
-0.0872532
-0.118942
-0.10324
-0.0499662
-0.0407857
-0.0215014
-0.0179209
-0.35189
-0.41101
-0.448775
-0.25141
-0.099556
-0.0556495
-0.151439
-0.108616
-0.0438326
-0.0843716
-0.114335
-0.101441
-0.0662295
-0.0872909
-0.11942
-0.103514
-0.0500122
-0.0403
-0.0210908
-0.0176256
-0.344928
-0.412822
-0.446993
-0.250433
-0.0962537
-0.0529843
-0.146543
-0.10733
-0.0423394
-0.0814877
-0.111351
-0.0992166
-0.0656466
-0.0871326
-0.119646
-0.103622
-0.0500236
-0.039773
-0.0207159
-0.0173466
-0.33737
-0.414031
-0.444876
-0.249621
-0.0930168
-0.0500501
-0.140848
-0.105838
-0.0410355
-0.078744
-0.108421
-0.0969731
-0.0649391
-0.0867794
-0.11962
-0.103561
-0.0500017
-0.0392068
-0.0203824
-0.0170864
-0.329353
-0.41458
-0.442435
-0.249073
-0.0899974
-0.0468031
-0.134451
-0.104108
-0.0399312
-0.0761531
-0.10555
-0.0947043
-0.0641092
-0.0862338
-0.119341
-0.103327
-0.0499478
-0.0386029
-0.0200957
-0.0168474
-0.321087
-0.4144
-0.439542
-0.248665
-0.0871781
-0.0432261
-0.127478
-0.102103
-0.0390333
-0.0737272
-0.102742
-0.0924019
-0.0631603
-0.0855052
-0.118813
-0.102918
-0.0498635
-0.0379631
-0.0198611
-0.0166321
-0.312829
-0.413449
-0.436016
-0.247963
-0.0842123
-0.0393495
-0.120068
-0.0997826
-0.0383433
-0.0714796
-0.100003
-0.0901152
-0.0621233
-0.0846163
-0.118041
-0.102334
-0.0497502
-0.0372889
-0.0196831
-0.0164422
-0.304841
-0.411813
-0.432311
-0.247149
-0.0810188
-0.0352933
-0.112378
-0.0971075
-0.0378571
-0.0694018
-0.0973441
-0.0880132
-0.0610784
-0.0835808
-0.117038
-0.101576
-0.0496094
-0.0365819
-0.0195661
-0.0162765
-0.297205
-0.409503
-0.429994
-0.248743
-0.0793691
-0.0311679
-0.104644
-0.094041
-0.0375624
-0.0673968
-0.0947447
-0.0861988
-0.0600569
-0.0823318
-0.115818
-0.100651
-0.0494429
-0.0358439
-0.0195151
-0.0161317
-0.289515
-0.40542
-0.428974
-0.255277
-0.082416
-0.0268235
-0.0968454
-0.090549
-0.0374377
-0.0654234
-0.092122
-0.0840367
-0.0587424
-0.080728
-0.114366
-0.0995713
-0.0492556
-0.0350784
-0.0195386
-0.0160235
-0.281735
-0.397753
-0.421736
-0.257977
-0.0867894
-0.0221307
-0.0874506
-0.086716
-0.037703
-0.0644408
-0.0894894
-0.0798709
-0.0564331
-0.0789785
-0.1126
-0.0983086
-0.0490308
-0.0342784
-0.019648
-0.0160202
-0.239291
-0.341529
-0.350666
-0.227963
-0.0903659
0.00187885
-0.0160859
-0.051501
-0.049027
-0.0701637
-0.075553
-0.0493779
-0.0391073
-0.0690576
-0.100591
-0.089222
-0.0470428
-0.0285423
-0.0207248
-0.0167361
-0.197966
-0.259221
-0.243067
-0.142718
-0.022563
0.0312717
0.0119905
-0.0174104
-0.0389316
-0.0586703
-0.0596898
-0.0273317
-0.00333113
-0.0303005
-0.0638525
-0.0668185
-0.0359016
-0.0226383
-0.0252196
-0.0190382
-0.156024
-0.175415
-0.156035
-0.103777
-0.00964356
0.0458145
0.0291123
0.00986329
-0.0156798
-0.0283317
-0.0310095
-0.0148912
0.0100856
-0.000442576
-0.0188624
-0.0364385
-0.0252599
-0.0177068
-0.0273164
-0.0184526
-0.109437
-0.123089
-0.11454
-0.0751826
-0.0043532
0.0433944
0.0381843
0.0205027
-0.00488521
-0.00923175
-0.00474389
0.00908443
0.0290413
0.0207082
0.0124229
-0.0124513
-0.0192734
-0.0126589
-0.0234624
-0.0140228
-0.0782082
-0.0904409
-0.083672
-0.0532894
0.000953335
0.039547
0.029866
0.0131479
0.00709028
0.0136549
0.010659
0.0143201
0.0361755
0.0379878
0.0321228
0.00552435
-0.0122107
-0.00701073
-0.0155764
-0.00871792
-0.055858
-0.0658725
-0.0578063
-0.0338883
0.000113913
0.0246581
0.0214835
0.0171689
0.0163966
0.0184082
0.0175854
0.0214563
0.0373943
0.0423742
0.037083
0.0157458
-0.00434368
-0.00355283
-0.00819015
-0.00371223
-0.0387346
-0.0451345
-0.0389233
-0.0253598
-0.00434494
0.0174337
0.0226173
0.0187244
0.0164116
0.0199909
0.0222927
0.0247409
0.0355033
0.0410919
0.0350059
0.0194285
0.00323548
0.000763759
-0.00198542
-0.000801956
-0.0252516
-0.0304536
-0.0279728
-0.0187868
-0.00251663
0.0154867
0.0203425
0.0158504
0.0153636
0.020886
0.0250998
0.0267454
0.0322318
0.0360956
0.0309376
0.0209982
0.00936601
0.00418902
0.00133204
0.000484273
-0.0155015
-0.0202181
-0.0188231
-0.0114001
0.000110113
0.0119846
0.016002
0.0142516
0.0163631
0.0222791
0.0257244
0.0255123
0.0276453
0.031245
0.0282384
0.0209592
0.0118112
0.00621975
0.0033803
0.00105128
-0.00811555
-0.0119473
-0.0110226
-0.00585792
0.00134402
0.00903727
0.0139652
0.0153002
0.0176008
0.0212165
0.0233275
0.0233915
0.0248532
0.0280458
0.0256911
0.0194479
0.0123822
0.00738371
0.00436135
0.00130605
-0.00225448
-0.00536697
-0.00509931
-0.00205772
0.00259754
0.00858854
0.0139474
0.0156896
0.0165208
0.0188709
0.0215811
0.0227105
0.0232568
0.0248372
0.0227167
0.0176971
0.0120602
0.00765485
0.00487143
0.00165384
0.00240844
-0.000267715
-0.000634881
0.00111308
0.00468867
0.00935912
0.0133496
0.0145552
0.0154107
0.0180618
0.0209848
0.0218286
0.0211597
0.0215405
0.0200475
0.016248
0.0116001
0.00782288
0.00520006
0.00179257
0.00616073
0.00372542
0.00303622
0.0041429
0.00670909
0.00969697
0.0124016
0.0139798
0.0155139
0.0178189
0.0197797
0.0200613
0.0191068
0.0191581
0.0182321
0.0152873
0.0112535
0.00771577
0.00505306
0.00175006
0.00926658
0.00702169
0.00617119
0.00662719
0.00809457
0.0100046
0.0122541
0.0141217
0.0155575
0.0169689
0.018151
0.018521
0.0179334
0.0177903
0.0168657
0.0142737
0.0106206
0.00729855
0.00481655
0.00178315
0.0119673
0.00979354
0.00867935
0.00851807
0.00928732
0.0106966
0.0125322
0.0140796
0.0151029
0.0160467
0.0170686
0.0176821
0.0172385
0.0166173
0.0154141
0.0131578
0.0100564
0.00709387
0.00469839
0.00174907
0.014369
0.0120862
0.0106615
0.0100908
0.0104366
0.0114108
0.0126983
0.0138271
0.014692
0.0155941
0.0165263
0.0170015
0.0163875
0.0154365
0.0142356
0.0124234
0.0098062
0.00698311
0.00445928
0.00160923
0.0165674
0.0139863
0.0122595
0.0113921
0.0113783
0.0119358
0.012801
0.0137113
0.0145684
0.0153885
0.0160128
0.0162051
0.0155866
0.0146858
0.0135758
0.0119417
0.00952351
0.0067399
0.00419489
0.00152643
0.0185425
0.0155171
0.0134813
0.0123688
0.0120701
0.0123358
0.0129694
0.0137634
0.0145257
0.0151318
0.0154846
0.0155944
0.0151512
0.014322
0.0131126
0.011444
0.00916874
0.00655261
0.00407934
0.0014912
0.0201857
0.0166234
0.0143084
0.013025
0.0125576
0.012666
0.0131582
0.013811
0.0144258
0.0149105
0.0151965
0.0153076
0.0149076
0.0140188
0.0127194
0.0110879
0.00898405
0.00649686
0.00401004
0.00143634
0.0212274
0.0172188
0.0147323
0.013367
0.0128335
0.0128755
0.013272
0.0138035
0.0143412
0.0148357
0.0151421
0.0152058
0.0147259
0.0137824
0.0125133
0.0109765
0.00896862
0.00647443
0.00392824
0.00139243
-0.1547
-0.163025
-0.171251
-0.179437
-0.187652
-0.195967
-0.204462
-0.213222
-0.222332
-0.231878
-0.241921
-0.252495
-0.263525
-0.27485
-0.28598
-0.296344
-0.304653
-0.31036
-0.311735
-0.312068
-0.0917466
-0.0951889
-0.0984106
-0.101406
-0.10417
-0.106693
-0.108961
-0.110962
-0.112681
-0.114108
-0.115234
-0.116066
-0.116629
-0.117002
-0.117301
-0.117794
-0.118771
-0.120855
-0.124608
-0.131559
-0.0548396
-0.0583662
-0.0619081
-0.0654737
-0.0690735
-0.0727172
-0.0764154
-0.0801793
-0.0840201
-0.0879491
-0.0919757
-0.0961068
-0.100342
-0.104671
-0.109062
-0.113462
-0.117783
-0.121902
-0.125742
-0.129234
-0.0365408
-0.0388638
-0.0411503
-0.0434018
-0.045621
-0.0478091
-0.0499677
-0.0520981
-0.0542018
-0.0562803
-0.0583352
-0.0603689
-0.0623857
-0.0643916
-0.0664009
-0.0684308
-0.0705305
-0.07275
-0.0752883
-0.0783771
-0.0218137
-0.0235816
-0.025351
-0.0271244
-0.0289042
-0.0306926
-0.0324918
-0.034304
-0.0361315
-0.0379763
-0.0398406
-0.0417259
-0.0436339
-0.0455646
-0.0475195
-0.0494929
-0.0514919
-0.0534965
-0.0555723
-0.0577075
-0.0128085
-0.0141573
-0.0155044
-0.0168503
-0.018196
-0.0195422
-0.0208899
-0.0222398
-0.0235931
-0.0249509
-0.0263142
-0.0276841
-0.0290624
-0.0304497
-0.0318496
-0.0332615
-0.0346976
-0.0361526
-0.0376933
-0.0393212
-0.0054875
-0.00651902
-0.00755141
-0.00858529
-0.00962149
-0.0106607
-0.0117037
-0.0127513
-0.0138043
-0.0148636
-0.0159301
-0.0170046
-0.0180881
-0.0191813
-0.0202859
-0.021401
-0.0225335
-0.0236769
-0.0248747
-0.0261165
-0.000119863
-0.000929763
-0.0017391
-0.00254807
-0.00335696
-0.00416599
-0.00497542
-0.00578555
-0.0065967
-0.00740922
-0.00822347
-0.0090398
-0.00985872
-0.0106805
-0.0115061
-0.0123351
-0.0131723
-0.0140128
-0.0148903
-0.0157929
0.00412195
0.00347856
0.00283578
0.00219342
0.00155129
0.000909183
0.000266886
-0.000375844
-0.00101925
-0.00166354
-0.00230898
-0.00295574
-0.0036041
-0.0042541
-0.00490636
-0.00556019
-0.00621874
-0.00687789
-0.00756068
-0.00825472
0.0074076
0.00689135
0.00637587
0.005861
0.00534664
0.00483263
0.00431882
0.00380505
0.00329116
0.002777
0.00226242
0.00174729
0.00123142
0.000714776
0.000196929
-0.000321665
-0.000843201
-0.00136477
-0.00190288
-0.00244808
0.0100439
0.0096316
0.0092199
0.00880861
0.00839766
0.00798692
0.00757628
0.00716563
0.00675487
0.00634391
0.00593267
0.00552109
0.00510906
0.0046966
0.00428345
0.00386998
0.00345472
0.00303972
0.00261335
0.00218184
0.0121825
0.0118552
0.0115279
0.0112005
0.0108728
0.010545
0.0102168
0.00988817
0.00955917
0.00922974
0.00889986
0.00856955
0.00823879
0.00790765
0.00757603
0.00724422
0.00691133
0.00657872
0.00623839
0.0058939
0.014023
0.0137672
0.0135103
0.0132523
0.0129931
0.0127327
0.0124711
0.0122082
0.0119441
0.0116788
0.0114124
0.011145
0.0108765
0.0106072
0.010337
0.0100662
0.0097943
0.00952223
0.00924444
0.00896271
0.0156775
0.015481
0.0152818
0.0150801
0.0148759
0.0146691
0.0144598
0.0142481
0.0140342
0.0138181
0.0136
0.01338
0.0131583
0.0129351
0.0127105
0.0124848
0.0122578
0.01203
0.0117979
0.0115615
0.0174099
0.0172632
0.0171114
0.0169547
0.0167933
0.0166273
0.0164569
0.0162824
0.016104
0.015922
0.0157366
0.0155481
0.0153569
0.0151631
0.0149671
0.0147691
0.0145693
0.0143681
0.0141631
0.0139532
0.0192614
0.0191494
0.0190292
0.018901
0.0187655
0.0186231
0.0184743
0.0183196
0.0181594
0.0179944
0.0178248
0.0176514
0.0174744
0.0172944
0.0171117
0.0169269
0.0167402
0.0165519
0.0163607
0.0161649
0.0218921
0.0217752
0.0216461
0.021506
0.0213559
0.0211968
0.0210296
0.0208552
0.0206745
0.0204882
0.0202972
0.020102
0.0199034
0.0197019
0.0194983
0.0192929
0.0190861
0.0188785
0.0186693
0.0184562
0.0252084
0.0250199
0.0248195
0.0246089
0.0243893
0.0241622
0.0239287
0.0236899
0.0234467
0.0232002
0.0229511
0.0227001
0.022448
0.0221953
0.0219426
0.0216904
0.021439
0.0211888
0.0209397
0.0206892
0.0301678
0.029716
0.0292706
0.0288318
0.0284001
0.0279756
0.0275586
0.0271491
0.0267474
0.0263535
0.0259674
0.0255892
0.0252189
0.0248565
0.0245018
0.024155
0.0238158
0.0234841
0.0231599
0.0228406
0.0355557
0.0347492
0.0339767
0.0332365
0.0325267
0.0318457
0.0311918
0.0305635
0.0299595
0.0293785
0.0288191
0.0282803
0.0277609
0.0272601
0.0267767
0.02631
0.0258591
0.025423
0.0250014
0.0245916
0.0237846
0.0230324
0.0223147
0.0216299
0.0209757
0.0203507
0.0197531
0.0191816
0.0186346
0.0181108
0.0176091
0.0171282
0.0166671
0.0162246
0.0157999
0.0153921
0.0150003
0.0146234
0.0142617
0.0139108
0.01834
0.0179447
0.0175561
0.0171745
0.0168003
0.0164336
0.0160747
0.0157237
0.0153806
0.0150456
0.0147186
0.0143998
0.014089
0.0137863
0.0134915
0.0132046
0.0129257
0.0126541
0.0123906
0.0121308
0.013285
0.0131554
0.0130143
0.0128633
0.0127037
0.0125368
0.0123637
0.0121855
0.0120033
0.0118179
0.01163
0.0114405
0.0112499
0.0110589
0.010868
0.0106776
0.0104882
0.0102998
0.0101131
0.00992342
0.00983141
0.00977636
0.00970958
0.00963216
0.00954497
0.00944901
0.00934522
0.00923447
0.00911757
0.00899529
0.00886836
0.00873744
0.00860319
0.00846617
0.00832695
0.00818598
0.00804379
0.00790034
0.007756
0.00760562
0.00701403
0.00696795
0.00691399
0.0068526
0.00678406
0.00670889
0.00662755
0.00654051
0.00644825
0.00635122
0.00624987
0.00614464
0.00603599
0.00592431
0.00581003
0.00569348
0.00557506
0.00545468
0.00533216