/*--------------------------------*- C++ -*----------------------------------*\
  =========                 |
  \\      /  F ield         | OpenFOAM: The Open Source CFD Toolbox
   \\    /   O peration     | Website:  https://openfoam.org
    \\  /    A nd           | Version:  6.0
     \\/     M anipulation  |
\*---------------------------------------------------------------------------*/
FoamFile
{
    version     2.0;
    format      ascii;
    class       volVectorField;
    location    "13.6";
    object      U;
}
// * * * * * * * * * * * * * * * * * * * * * * * * * * * * * * * * * * * * * //

dimensions      [0 1 -1 0 0 0 0];

internalField   nonuniform List<vector> 
8000
(
(-0.000591349 0.000636909 -3.8013e-21)
(-0.0031863 0.00157566 2.03197e-20)
(-0.00794848 0.00224082 -2.47187e-20)
(-0.0137868 0.00270291 1.88245e-20)
(-0.0201504 0.00301256 9.16917e-21)
(-0.0267401 0.00320957 -2.75347e-20)
(-0.0333473 0.00332712 -2.43471e-21)
(-0.0398416 0.00339274 -8.65671e-22)
(-0.0461556 0.00342923 -1.43043e-20)
(-0.0522674 0.00345552 -7.75372e-21)
(-0.0581867 0.00348713 5.77849e-21)
(-0.0639463 0.00353663 2.19931e-20)
(-0.0695937 0.00361383 -1.63948e-21)
(-0.0751846 0.00372595 2.36464e-21)
(-0.0807798 0.00387777 -2.21835e-20)
(-0.0864495 0.0040715 1.36762e-20)
(-0.0922611 0.00430709 -1.96196e-20)
(-0.0981826 0.00458412 2.96973e-20)
(-0.104075 0.00490279 -3.30772e-23)
(-0.110591 0.00524849 6.46187e-21)
(-0.000688752 0.00196987 1.26233e-20)
(-0.00340975 0.00485768 -6.45183e-20)
(-0.00823163 0.00689036 -4.45708e-20)
(-0.0140824 0.00828826 -3.0273e-20)
(-0.0204212 0.00921056 -3.8951e-20)
(-0.0269549 0.00978239 8.5671e-21)
(-0.0334789 0.0101074 -4.49761e-20)
(-0.0398658 0.0102711 -1.01091e-20)
(-0.04605 0.0103441 3.18382e-21)
(-0.0520106 0.0103844 3.36313e-20)
(-0.0577583 0.0104397 -3.67057e-20)
(-0.0633264 0.0105485 5.10745e-20)
(-0.0687633 0.0107408 -3.82642e-20)
(-0.0741261 0.011039 -4.5405e-20)
(-0.079477 0.0114578 -6.26313e-20)
(-0.0848883 0.0120045 3.99684e-20)
(-0.0904302 0.0126794 -1.29721e-20)
(-0.0960732 0.0134814 -4.72118e-20)
(-0.101675 0.0144117 4.46483e-20)
(-0.107896 0.015426 -3.33281e-20)
(-0.000882767 0.00327064 1.23413e-19)
(-0.00385595 0.00806461 6.3928e-20)
(-0.008799 0.0114353 7.1899e-20)
(-0.0146771 0.0137463 5.98436e-21)
(-0.0209692 0.0152619 3.97435e-20)
(-0.027394 0.0161901 4.96107e-20)
(-0.0337555 0.0167035 -9.01653e-20)
(-0.039932 0.0169445 -4.77641e-20)
(-0.0458615 0.0170304 -6.22306e-20)
(-0.0515252 0.0170583 6.64315e-20)
(-0.0569353 0.0171082 -5.07559e-20)
(-0.0621266 0.017245 -6.5338e-20)
(-0.0671491 0.0175199 -2.3796e-20)
(-0.0720621 0.0179717 2.26119e-20)
(-0.0769308 0.0186269 -6.32404e-21)
(-0.0818318 0.0194992 9.05188e-21)
(-0.0868413 0.0205906 1.05193e-19)
(-0.0919342 0.021901 -1.47197e-20)
(-0.0969644 0.0234335 -1.07108e-19)
(-0.102601 0.0251137 1.41891e-19)
(-0.00116935 0.00452012 4.29595e-20)
(-0.00451779 0.011151 -6.06576e-20)
(-0.00964482 0.0158115 -1.52224e-20)
(-0.0155685 0.0189985 2.84594e-20)
(-0.0217967 0.0210757 8.08122e-20)
(-0.0280659 0.0223305 1.76951e-19)
(-0.0341928 0.0230014 1.72932e-19)
(-0.040064 0.0232855 1.43784e-20)
(-0.045623 0.0233461 1.0609e-19)
(-0.0508543 0.0233184 1.62422e-19)
(-0.0557722 0.0233148 -1.29846e-19)
(-0.0604131 0.0234274 1.92155e-19)
(-0.0648293 0.0237303 -4.35807e-20)
(-0.0690831 0.0242809 1.09579e-20)
(-0.0732443 0.0251199 4.55468e-20)
(-0.0773956 0.0262705 6.05914e-20)
(-0.081622 0.027739 -9.52675e-20)
(-0.0859066 0.0295283 -7.96039e-20)
(-0.0900986 0.0316469 -1.41065e-19)
(-0.0948819 0.0339888 2.06168e-19)
(-0.00154295 0.00570244 -2.244e-20)
(-0.0053852 0.0140778 -2.29749e-19)
(-0.0107603 0.0199628 -6.79636e-20)
(-0.0167521 0.0239752 -1.65623e-19)
(-0.0229055 0.026571 6.26068e-20)
(-0.02898 0.0281119 -9.87538e-20)
(-0.0348094 0.0288988 3.39716e-20)
(-0.0402916 0.0291807 -2.09222e-19)
(-0.0453772 0.0291644 1.10389e-19)
(-0.050055 0.0290224 -1.31669e-19)
(-0.0543416 0.0288991 -1.17133e-19)
(-0.0582755 0.0289149 -1.31206e-19)
(-0.061911 0.0291687 1.19143e-19)
(-0.0653141 0.0297394 -1.07024e-19)
(-0.0685601 0.0306858 1.49065e-19)
(-0.07174 0.0320447 4.31428e-20)
(-0.0749507 0.0338312 1.06858e-19)
(-0.0781873 0.0360553 4.69765e-20)
(-0.0812956 0.0387353 -1.85924e-19)
(-0.0849793 0.0417333 3.03998e-19)
(-0.00199705 0.00680574 9.89818e-20)
(-0.00644569 0.0168139 7.59798e-21)
(-0.0121336 0.023843 4.07706e-20)
(-0.0182198 0.0286179 1.42252e-19)
(-0.0242933 0.0316793 -2.17724e-20)
(-0.0301424 0.0334573 2.31027e-19)
(-0.0356216 0.0343102 1.02559e-19)
(-0.0406436 0.0345352 8.61866e-21)
(-0.0451677 0.0343798 2.63792e-19)
(-0.0491878 0.0340517 8.64705e-20)
(-0.0527233 0.0337266 4.10251e-20)
(-0.055814 0.0335537 1.30223e-19)
(-0.0585164 0.0336588 1.19416e-19)
(-0.0608999 0.0341458 2.18128e-19)
(-0.0630457 0.0350967 -1.94975e-19)
(-0.0650545 0.0365679 2.75925e-19)
(-0.0670387 0.0385895 3.76943e-21)
(-0.0690097 0.0411855 -3.53061e-19)
(-0.0708145 0.0443905 4.58031e-19)
(-0.0731823 0.0480367 1.90781e-19)
(-0.0025247 0.0078223 -5.83313e-20)
(-0.00768486 0.0193368 -1.05904e-19)
(-0.0137489 0.0274164 -2.20332e-19)
(-0.019958 0.0328809 -6.52868e-21)
(-0.0259512 0.0363467 3.76063e-20)
(-0.0315508 0.0383062 -2.81356e-19)
(-0.0366366 0.0391697 -2.08754e-19)
(-0.0411388 0.0392776 -2.98559e-20)
(-0.0450279 0.038914 -2.64122e-19)
(-0.0483036 0.0383189 -1.82914e-19)
(-0.0509882 0.0376976 -5.33138e-20)
(-0.0531225 0.0372278 -1.71713e-19)
(-0.0547638 0.0370637 -2.77108e-21)
(-0.055984 0.0373381 -2.2817e-19)
(-0.0568703 0.0381619 9.60897e-20)
(-0.0575339 0.039619 -1.09609e-19)
(-0.0581051 0.0417636 8.41181e-20)
(-0.0586179 0.0446435 -1.06873e-19)
(-0.0589265 0.0483209 -3.05935e-19)
(-0.0597953 0.0526024 -9.31038e-20)
(-0.00311894 0.00874828 -2.1492e-20)
(-0.00908662 0.0216317 -2.33295e-20)
(-0.0155864 0.0306582 1.84745e-19)
(-0.0219456 0.0367306 -3.00646e-19)
(-0.0278592 0.040534 4.4107e-20)
(-0.0331884 0.0426162 -1.73665e-19)
(-0.0378432 0.0434331 8.20708e-20)
(-0.0417746 0.0433628 3.68923e-19)
(-0.0449666 0.0427209 -2.3647e-20)
(-0.0474262 0.0417751 -2.75282e-19)
(-0.0491785 0.0407572 5.00379e-20)
(-0.0502644 0.0398716 9.67996e-21)
(-0.0507407 0.0393013 -5.65862e-20)
(-0.0506801 0.0392111 5.66758e-21)
(-0.0501742 0.0397469 4.97229e-19)
(-0.0493447 0.0410296 -7.07877e-20)
(-0.0483421 0.0431497 -1.38223e-19)
(-0.0472283 0.046193 -2.48234e-19)
(-0.0458757 0.0502658 2.53209e-19)
(-0.0450973 0.0551598 1.09424e-19)
(-0.00377303 0.00958288 1.08433e-19)
(-0.0106332 0.0236907 -1.41881e-19)
(-0.0176203 0.033552 2.00572e-19)
(-0.0241511 0.0401451 2.0188e-19)
(-0.0299814 0.0442163 1.86088e-19)
(-0.035017 0.0463624 3.77338e-19)
(-0.0392024 0.0470787 2.44019e-19)
(-0.0425139 0.0467743 -5.24372e-19)
(-0.0449515 0.0457901 2.6819e-19)
(-0.0465314 0.0444158 2.1047e-19)
(-0.0472819 0.0429042 -2.95992e-21)
(-0.0472434 0.0414828 2.35656e-19)
(-0.0464703 0.0403617 1.83795e-19)
(-0.0450336 0.0397386 -9.99744e-20)
(-0.0430268 0.0397998 3.38016e-19)
(-0.0405807 0.0407131 -4.1907e-19)
(-0.0378666 0.0426203 1.67822e-19)
(-0.03498 0.0456653 2.16003e-19)
(-0.0318251 0.0500228 -5.05001e-20)
(-0.0292849 0.0554884 4.34549e-19)
(-0.00448042 0.0103272 2.17996e-19)
(-0.0123046 0.0255098 1.12871e-20)
(-0.0198181 0.0360885 -7.8218e-20)
(-0.02653 0.0431109 -8.25984e-20)
(-0.0322618 0.0473797 -3.82469e-19)
(-0.0369696 0.049535 5.41556e-20)
(-0.0406376 0.0501047 1.53448e-19)
(-0.0432714 0.0495225 -7.37899e-20)
(-0.0448908 0.0481474 6.08676e-20)
(-0.0455237 0.0462837 -1.61551e-20)
(-0.0452028 0.0441982 -7.95362e-20)
(-0.043968 0.0421346 7.54643e-20)
(-0.0418696 0.0403252 -3.28416e-19)
(-0.0389742 0.0389986 3.14765e-19)
(-0.0353736 0.0383837 -2.7278e-19)
(-0.0312044 0.0387039 8.4275e-20)
(-0.0266582 0.0401688 1.91835e-19)
(-0.0218684 0.0430057 -3.9952e-20)
(-0.016787 0.0474918 -1.32918e-19)
(-0.0124 0.0534599 -9.02858e-20)
(-0.00523447 0.0109829 -2.71548e-19)
(-0.0140778 0.0270875 -1.78173e-20)
(-0.0221389 0.0382613 5.71712e-20)
(-0.029022 0.0456197 1.46925e-19)
(-0.03462 0.050018 -2.07438e-19)
(-0.0389445 0.0521347 -1.80994e-19)
(-0.0420249 0.052525 4.22439e-19)
(-0.0439007 0.0516405 -2.33422e-19)
(-0.0446159 0.0498509 -1.50566e-19)
(-0.0442131 0.0474669 -2.16031e-19)
(-0.0427323 0.0447603 1.43014e-19)
(-0.0402137 0.0419819 -3.89675e-21)
(-0.0367034 0.0393767 -2.67079e-19)
(-0.0322611 0.0371974 -4.36959e-19)
(-0.0269731 0.0357123 3.32881e-19)
(-0.0209778 0.0352045 -2.69778e-19)
(-0.014484 0.0359662 3.82607e-19)
(-0.00766521 0.0383371 -1.07206e-19)
(-0.000537921 0.0427428 2.25981e-19)
(0.00576162 0.0491039 -7.6403e-19)
(-0.00602803 0.0115512 -5.49972e-19)
(-0.015926 0.0284212 3.60519e-19)
(-0.0245316 0.0400642 4.90303e-20)
(-0.031549 0.0476641 9.47843e-21)
(-0.0369477 0.0521271 -2.22154e-19)
(-0.0408003 0.0541669 3.2667e-19)
(-0.0431862 0.0543617 3.5669e-20)
(-0.044184 0.0531751 -6.69896e-20)
(-0.0438662 0.0509813 -2.14917e-19)
(-0.0422946 0.0480891 2.32338e-19)
(-0.0395204 0.0447658 5.8898e-19)
(-0.0355872 0.0412575 -1.30149e-19)
(-0.0305385 0.0378094 2.93933e-19)
(-0.024427 0.0346846 -3.47247e-19)
(-0.017331 0.03218 -3.32905e-19)
(-0.00938639 0.0306336 2.00276e-19)
(-0.000814968 0.0304273 3.31073e-19)
(0.00817069 0.0320411 -1.07255e-18)
(0.0174765 0.0361053 1.25877e-19)
(0.0257523 0.0427012 1.70635e-19)
(-0.00685286 0.0120315 4.07255e-19)
(-0.0178174 0.0295057 1.33888e-19)
(-0.0269341 0.041488 6.97376e-19)
(-0.0340136 0.0492338 3.58566e-20)
(-0.0391071 0.0537001 -7.75363e-20)
(-0.0423531 0.0556347 -3.69146e-19)
(-0.0438854 0.0556356 3.13944e-19)
(-0.043826 0.0541753 5.63087e-19)
(-0.0422806 0.0516273 3.75149e-19)
(-0.0393353 0.0482924 2.70721e-19)
(-0.0350573 0.0444245 2.33307e-19)
(-0.0294996 0.0402535 -4.19173e-19)
(-0.0227081 0.0360093 -1.31353e-19)
(-0.0147319 0.0319468 -9.65902e-20)
(-0.00564267 0.0283712 1.03579e-18)
(0.00442854 0.0256572 -3.62664e-21)
(0.0152506 0.0242688 -2.58118e-19)
(0.0265762 0.024842 -8.14765e-20)
(0.0382303 0.0282723 7.40817e-19)
(0.0485715 0.0348979 9.58837e-20)
(-0.00769918 0.0124214 -2.01231e-20)
(-0.0197142 0.0303319 -3.85084e-19)
(-0.0292724 0.0425186 -5.72712e-19)
(-0.0362985 0.0503122 -1.59297e-19)
(-0.0409305 0.0547225 8.795e-20)
(-0.0433766 0.0565316 1.89563e-20)
(-0.0438285 0.0563568 5.02177e-19)
(-0.0424548 0.0546781 -6.22825e-19)
(-0.0393979 0.0518663 -2.36887e-19)
(-0.0347732 0.0482115 -4.77316e-19)
(-0.0286705 0.0439486 -4.0651e-19)
(-0.02116 0.0392826 -3.59797e-19)
(-0.0122988 0.034414 8.99421e-20)
(-0.00214215 0.0295686 -1.1671e-19)
(0.00923793 0.0250317 5.00098e-19)
(0.0217108 0.0211815 -2.74307e-19)
(0.0350358 0.0185328 -8.59172e-19)
(0.0489375 0.0178674 -1.73299e-19)
(0.0631738 0.0203956 4.23879e-19)
(0.0757344 0.0268227 -3.6828e-19)
(-0.00855538 0.0127166 -6.49742e-20)
(-0.0215724 0.0308864 4.70816e-19)
(-0.0314604 0.0431359 -6.00356e-19)
(-0.0382668 0.0508754 1.38792e-19)
(-0.0422212 0.0551701 -2.85712e-19)
(-0.0436044 0.0568383 6.36322e-19)
(-0.0426675 0.0565177 -4.54744e-19)
(-0.0396274 0.0546971 5.20224e-19)
(-0.0346655 0.0517464 -4.9315e-19)
(-0.0279303 0.0479462 2.104e-19)
(-0.0195408 0.0435132 -1.02128e-19)
(-0.00959362 0.0386247 -2.56242e-19)
(0.00182936 0.0334441 -3.16492e-19)
(0.0146512 0.0281515 3.15391e-19)
(0.0287827 0.0229829 -2.64029e-19)
(0.0440791 0.0182762 -5.77008e-19)
(0.0602808 0.0145389 6.00711e-19)
(0.0770862 0.0126461 -7.65795e-19)
(0.0942262 0.014135 3.44816e-19)
(0.109274 0.0201763 1.00187e-20)
(-0.00940782 0.0129113 -5.88709e-19)
(-0.023341 0.0311527 -6.35453e-19)
(-0.0333991 0.0433155 7.32464e-20)
(-0.0397617 0.0508931 -6.12512e-19)
(-0.0427549 0.0550098 -5.4429e-20)
(-0.042733 0.0565223 -4.50474e-19)
(-0.0400071 0.0560913 -1.03319e-19)
(-0.0348413 0.0542177 -3.01907e-19)
(-0.0274569 0.0512754 2.75383e-21)
(-0.0180375 0.0475415 -1.32047e-19)
(-0.00673696 0.0432212 9.368e-21)
(0.00631153 0.038471 -3.80465e-19)
(0.0209859 0.0334202 4.19256e-19)
(0.0371659 0.0281993 -5.94652e-19)
(0.0547181 0.0229769 2.10593e-19)
(0.0734558 0.018009 7.8881e-21)
(0.0930734 0.0137215 -3.34878e-19)
(0.11323 0.0109789 8.30334e-19)
(0.133693 0.0115842 -1.97886e-19)
(0.151661 0.0172128 -1.28361e-19)
(-0.0102409 0.0129992 6.60684e-19)
(-0.0249617 0.0311128 3.56673e-19)
(-0.034976 0.0430307 3.31711e-19)
(-0.0406064 0.0503329 4.95178e-20)
(-0.0422796 0.0542051 4.48429e-19)
(-0.0404243 0.0555449 6.46258e-19)
(-0.0354095 0.0550391 5.29002e-19)
(-0.0275451 0.0532048 4.7368e-20)
(-0.0170905 0.050426 3.87346e-19)
(-0.0042654 0.0469856 5.98423e-19)
(0.0107376 0.0430898 -1.55169e-19)
(0.0277397 0.0388891 2.60477e-19)
(0.0465627 0.0344955 2.10343e-19)
(0.0670184 0.0300041 2.14006e-19)
(0.0888956 0.0255216 1.26429e-18)
(0.111925 0.0212051 -4.73824e-19)
(0.135708 0.0173347 -2.87709e-20)
(0.159819 0.014623 5.48182e-19)
(0.184121 0.0149789 -3.10606e-19)
(0.205654 0.0205223 1.53469e-19)
(-0.0110368 0.0129741 -5.34126e-19)
(-0.0263677 0.0307493 3.41399e-20)
(-0.0360632 0.0422573 -4.2731e-19)
(-0.0406014 0.0491664 -5.55959e-20)
(-0.0405141 0.052725 3.12736e-19)
(-0.0363042 0.053874 -9.31033e-19)
(-0.0283969 0.0533276 -6.93244e-22)
(-0.0171452 0.0516227 4.33243e-19)
(-0.00284503 0.0491596 4.06965e-19)
(0.014248 0.0462362 -1.79216e-19)
(0.0338994 0.0430739 5.90635e-20)
(0.0558768 0.0398365 1.36996e-19)
(0.0799316 0.0366456 -6.49257e-20)
(0.105784 0.0335946 -7.27126e-19)
(0.133107 0.0307659 1.84108e-19)
(0.161496 0.0282493 5.05859e-19)
(0.190393 0.0261718 -7.20455e-19)
(0.219191 0.024982 3.51091e-19)
(0.24786 0.026492 9.39694e-20)
(0.273755 0.0331099 4.74569e-19)
(-0.0117752 0.0128308 -7.8758e-20)
(-0.0274821 0.0300475 -3.74062e-19)
(-0.0365145 0.0409776 1.72142e-19)
(-0.0395208 0.0473767 8.20371e-22)
(-0.0371429 0.0505566 -7.49958e-19)
(-0.029959 0.051501 1.17055e-19)
(-0.0184493 0.050952 -2.22192e-20)
(-0.0030086 0.0494674 1.51363e-19)
(0.0160312 0.0474671 -6.92826e-19)
(0.0383767 0.0452701 -4.85415e-20)
(0.0637478 0.0431227 -1.62707e-19)
(0.0918527 0.0412197 1.44789e-19)
(0.122364 0.0397201 4.88537e-19)
(0.154894 0.0387605 -7.55619e-20)
(0.188973 0.0384687 2.92642e-20)
(0.224004 0.0389669 1.91912e-19)
(0.259164 0.0403531 -4.75346e-20)
(0.293469 0.0429231 3.8582e-19)
(0.326749 0.0484616 -2.24961e-19)
(0.35719 0.059426 -3.51976e-19)
(-0.0124323 0.0125647 7.31195e-20)
(-0.0282152 0.0289974 1.7891e-20)
(-0.0361613 0.0391848 1.49961e-19)
(-0.0371066 0.0449671 3.6725e-19)
(-0.031811 0.047717 2.06076e-19)
(-0.0209302 0.0484594 2.14919e-20)
(-0.00500132 0.047962 -2.45966e-19)
(0.0155362 0.0468014 6.30581e-20)
(0.0403091 0.0454149 3.31605e-19)
(0.0689792 0.0441408 -5.61903e-19)
(0.101213 0.0432496 4.23976e-19)
(0.136656 0.0429687 -3.19429e-19)
(0.174906 0.0435032 2.70974e-19)
(0.215492 0.0450576 -5.84295e-19)
(0.257847 0.0478607 6.42448e-19)
(0.301255 0.0521832 -6.86918e-19)
(0.344714 0.0583383 -1.78294e-19)
(0.386844 0.0669633 5.58376e-19)
(0.426541 0.0804945 -1.89229e-19)
(0.460517 0.100984 8.31518e-20)
(-0.0129792 0.0121722 -5.52959e-20)
(-0.0284614 0.0275945 5.21894e-19)
(-0.0348076 0.0368867 -2.18584e-21)
(-0.0330641 0.0419667 -3.23987e-19)
(-0.0241187 0.0442637 -2.17854e-19)
(-0.00871135 0.0448399 3.99147e-19)
(0.0125563 0.0444835 -1.58096e-19)
(0.0391879 0.0437836 -1.99154e-20)
(0.0707519 0.043186 3.29495e-19)
(0.106843 0.0430361 -4.09353e-19)
(0.147051 0.0436103 4.48562e-20)
(0.190937 0.0451421 -5.32068e-19)
(0.238017 0.0478457 2.80055e-19)
(0.287763 0.0519433 -8.0103e-19)
(0.339608 0.0577004 1.27504e-18)
(0.392966 0.0654727 -2.33821e-19)
(0.447259 0.0758102 2.42269e-19)
(0.50218 0.0899824 -6.29547e-19)
(0.558095 0.111082 5.57472e-21)
(0.606723 0.136155 7.03296e-19)
(-0.0133801 0.0116495 -1.67446e-19)
(-0.0280951 0.0258401 1.44626e-19)
(-0.0322267 0.0341076 -5.32883e-19)
(-0.0270586 0.0384356 7.88212e-19)
(-0.0136213 0.0403019 -5.69085e-19)
(0.00724811 0.0408001 2.93843e-20)
(0.0348649 0.0407316 -6.13775e-19)
(0.0686495 0.0406873 4.38855e-19)
(0.108075 0.0411075 -6.27071e-20)
(0.152623 0.0423231 -3.8733e-19)
(0.201749 0.0445856 -2.25975e-19)
(0.254865 0.0480895 2.38832e-19)
(0.311339 0.0529905 1.57799e-19)
(0.370504 0.0594229 -6.97827e-19)
(0.431692 0.0675155 2.52113e-19)
(0.494283 0.0774044 -3.70886e-19)
(0.557767 0.0892498 4.48289e-20)
(0.621949 0.103412 -3.13087e-19)
(0.687484 0.121032 1.25511e-19)
(0.747419 0.139054 -4.65128e-19)
(-0.0135904 0.0109928 4.76719e-19)
(-0.0269686 0.0237424 -2.88801e-19)
(-0.0281594 0.0308906 2.37961e-19)
(-0.018717 0.0344668 -3.00423e-19)
(0.000164626 0.0359864 5.03513e-19)
(0.0275275 0.0365662 -8.79112e-21)
(0.0625711 0.0370094 -6.13247e-20)
(0.104586 0.0378953 -4.54836e-20)
(0.152889 0.0396391 2.7988e-19)
(0.206773 0.0425318 4.75901e-19)
(0.265478 0.0467669 -2.81104e-19)
(0.328174 0.0524596 2.73228e-19)
(0.393982 0.0596611 4.98671e-19)
(0.461992 0.06837 -3.49693e-19)
(0.531309 0.0785392 -7.08376e-19)
(0.601109 0.0900757 1.29378e-18)
(0.670683 0.102827 -2.31219e-19)
(0.73952 0.116612 -7.46672e-20)
(0.807665 0.131691 7.97214e-19)
(0.870466 0.147743 -1.70779e-19)
(-0.0135547 0.0101989 -7.75854e-19)
(-0.0249098 0.0213176 -5.16458e-19)
(-0.0223151 0.0272985 -1.98257e-19)
(-0.00763415 0.030187 3.82561e-19)
(0.017745 0.0315203 -8.63819e-19)
(0.052706 0.0324258 4.47459e-19)
(0.0962788 0.0336938 5.67212e-20)
(0.147553 0.0358714 5.73756e-20)
(0.205604 0.0393232 -5.86317e-19)
(0.269439 0.0442683 -2.07048e-19)
(0.337977 0.0508062 -3.6488e-19)
(0.410056 0.058935 3.52292e-19)
(0.484461 0.0685681 9.97065e-20)
(0.559977 0.0795472 1.92183e-20)
(0.635437 0.0916528 4.56821e-19)
(0.709786 0.104609 -4.63354e-19)
(0.782116 0.118079 -1.89975e-20)
(0.851709 0.131681 1.26728e-20)
(0.918169 0.145209 6.41627e-20)
(0.979163 0.160475 3.52204e-19)
(-0.0132067 0.00926587 2.46987e-19)
(-0.0217241 0.0185922 6.36063e-19)
(-0.014378 0.0234157 5.10418e-19)
(0.00661268 0.0257568 -1.75989e-19)
(0.0396226 0.0271512 6.12299e-19)
(0.0833192 0.0287188 -5.15853e-20)
(0.136485 0.0312141 -7.26922e-20)
(0.197911 0.0351229 4.32763e-20)
(0.266318 0.0407236 5.92262e-19)
(0.340318 0.0481232 3.48015e-19)
(0.418408 0.0572853 1.01654e-19)
(0.499016 0.0680545 6.36133e-21)
(0.580559 0.0801807 -6.72867e-19)
(0.661512 0.0933423 5.84653e-19)
(0.740488 0.107168 9.97763e-20)
(0.816291 0.121252 -1.64887e-19)
(0.887955 0.135171 -7.1032e-19)
(0.954768 0.148508 -5.88702e-20)
(1.01623 0.160803 2.78603e-19)
(1.07196 0.175172 -5.58556e-20)
(-0.0124687 0.0081951 -6.26389e-19)
(-0.017197 0.0156066 2.6208e-19)
(-0.00401629 0.0193519 -1.27984e-18)
(0.024445 0.0213713 5.24355e-19)
(0.0662632 0.0231673 -4.1824e-19)
(0.119807 0.0258249 3.08394e-19)
(0.183504 0.0300286 -4.7927e-19)
(0.255723 0.0361614 4.39939e-20)
(0.334705 0.0443676 -2.47217e-20)
(0.418554 0.0545926 1.28934e-19)
(0.505272 0.0666195 1.86051e-19)
(0.592852 0.0801067 -3.51568e-19)
(0.679368 0.0946271 1.8628e-19)
(0.763084 0.109706 1.7071e-19)
(0.842525 0.124856 7.34674e-19)
(0.916535 0.139605 -3.19748e-19)
(0.984296 0.153517 -2.10768e-19)
(1.04533 0.166234 3.53631e-19)
(1.09934 0.177251 1.86409e-19)
(1.14719 0.190183 -3.54014e-19)
(-0.0112539 0.00699382 5.48431e-19)
(-0.0111002 0.0124197 5.28773e-19)
(0.00910444 0.0152459 1.5267e-19)
(0.0462586 0.0172621 6.42993e-19)
(0.0980571 0.019894 3.16049e-19)
(0.162458 0.0241514 -5.69831e-19)
(0.237398 0.0306 8.63292e-19)
(0.320682 0.0394635 -4.24876e-19)
(0.409946 0.0506921 4.24185e-19)
(0.502703 0.0640149 5.48716e-19)
(0.596441 0.0789935 -3.13559e-19)
(0.688767 0.0950809 5.96113e-20)
(0.777539 0.11168 3.31493e-19)
(0.860979 0.128196 2.33161e-19)
(0.93774 0.144083 5.35428e-19)
(1.00693 0.158871 -2.15058e-19)
(1.06809 0.172186 -2.71922e-20)
(1.12115 0.18378 3.34599e-19)
(1.16627 0.193266 -7.23496e-20)
(1.20496 0.204193 5.41529e-23)
(-0.00946773 0.00567772 -2.83054e-19)
(-0.00320004 0.00911404 -1.04033e-18)
(0.0253048 0.01127 2.45061e-19)
(0.072396 0.0136979 -1.8659e-19)
(0.135277 0.0176879 -4.30953e-19)
(0.211354 0.0241182 -3.07922e-19)
(0.297915 0.0333691 -1.90253e-19)
(0.392056 0.045433 4.61963e-19)
(0.490712 0.0599992 -2.74362e-19)
(0.590779 0.0765285 -2.81092e-19)
(0.689297 0.094336 -3.55092e-19)
(0.783637 0.112675 -5.86079e-20)
(0.871649 0.130815 -4.00697e-20)
(0.951758 0.148105 -8.18299e-19)
(1.02298 0.164013 3.95316e-19)
(1.08491 0.178148 -5.20138e-19)
(1.1376 0.190263 1.61993e-19)
(1.18151 0.20026 -1.23379e-18)
(1.21729 0.207966 3.72242e-19)
(1.24676 0.216527 4.67302e-19)
(-0.00701183 0.00427342 -7.11163e-20)
(0.00673258 0.00580008 5.072e-19)
(0.0448728 0.00763355 3.2541e-20)
(0.103117 0.010984 7.82941e-20)
(0.17804 0.0169294 -1.59207e-19)
(0.266327 0.0261398 -2.66917e-21)
(0.364452 0.0387257 -4.12191e-21)
(0.468682 0.0543654 -9.61747e-20)
(0.575213 0.0724217 3.41172e-19)
(0.680395 0.0920533 1.31799e-19)
(0.780986 0.112332 5.98053e-19)
(0.874361 0.132354 -1.62949e-19)
(0.958636 0.151325 1.13554e-19)
(1.0327 0.168621 -1.44922e-20)
(1.09616 0.18381 3.1383e-19)
(1.14921 0.196651 1.91357e-19)
(1.19254 0.207073 4.59321e-19)
(1.2271 0.215145 -7.40767e-19)
(1.254 0.220925 9.29836e-19)
(1.27513 0.227036 -2.94216e-19)
(-0.00378736 0.00282055 -6.60642e-19)
(0.0189105 0.00261953 -2.06424e-19)
(0.0680429 0.00458362 1.61203e-19)
(0.138568 0.00945754 1.01673e-19)
(0.226268 0.0180093 1.04389e-19)
(0.326923 0.0306027 1.05745e-19)
(0.436044 0.0469786 -2.64851e-19)
(0.549007 0.0664175 -1.09418e-19)
(0.661325 0.0879072 3.40036e-20)
(0.768979 0.110302 -3.24225e-19)
(0.868714 0.132475 -1.46454e-19)
(0.958215 0.153443 8.84631e-19)
(1.03615 0.172448 -2.28327e-19)
(1.1021 0.188987 -3.13753e-19)
(1.15639 0.202803 -1.48174e-19)
(1.1999 0.213857 1.03007e-19)
(1.23386 0.222274 1.24665e-19)
(1.25967 0.228284 -5.97013e-19)
(1.27873 0.23214 8.62054e-19)
(1.29291 0.235955 -7.46299e-19)
(0.000300635 0.001373 -7.45883e-20)
(0.0335176 -0.000253619 2.13392e-20)
(0.0949754 0.00240301 -2.73748e-20)
(0.178756 0.00947882 3.99259e-19)
(0.279663 0.0213109 2.21161e-20)
(0.392394 0.0378388 1.46725e-19)
(0.511398 0.0583276 -3.05027e-19)
(0.631185 0.0815902 -1.1101e-20)
(0.746761 0.106224 4.23621e-19)
(0.854027 0.130821 5.8949e-20)
(0.950051 0.154145 -3.68613e-19)
(1.03315 0.175244 -3.23997e-20)
(1.10277 0.193499 -3.01823e-19)
(1.15934 0.208616 3.00863e-19)
(1.20393 0.220569 4.16458e-19)
(1.23804 0.229538 -4.58577e-20)
(1.26334 0.235831 -5.5559e-20)
(1.28149 0.239815 1.69459e-19)
(1.29406 0.241878 -5.42959e-19)
(1.30278 0.243697 4.78722e-19)
(0.00533865 -5.90497e-07 7.51203e-20)
(0.0506952 -0.00261449 -4.84013e-19)
(0.125735 0.00140342 1.29484e-19)
(0.223521 0.0114164 -4.02228e-19)
(0.337691 0.0271868 1.38369e-19)
(0.461714 0.0480989 -5.13906e-19)
(0.588956 0.0728433 2.07345e-19)
(0.713216 0.0997273 -6.60701e-20)
(0.829283 0.126991 -2.71171e-21)
(0.933348 0.153058 6.74597e-20)
(1.02315 0.176703 -2.45512e-19)
(1.09791 0.197128 -3.5012e-19)
(1.15802 0.213953 -7.15726e-20)
(1.20475 0.227149 -3.21236e-20)
(1.23986 0.236941 -8.14317e-20)
(1.26532 0.243715 -2.6461e-20)
(1.28307 0.247932 -7.91706e-20)
(1.29489 0.250047 -6.85433e-20)
(1.30235 0.250528 -2.03203e-19)
(1.30701 0.250702 3.21877e-19)
(0.0113998 -0.00121728 1.80247e-19)
(0.0705285 -0.00423142 -2.00239e-19)
(0.160271 0.00191489 4.31115e-19)
(0.272526 0.0156288 -1.86241e-19)
(0.399587 0.0359351 4.97827e-19)
(0.533618 0.0615305 7.23219e-21)
(0.667004 0.0904592 2.50099e-19)
(0.793109 0.120535 -6.71324e-20)
(0.9069 0.14973 2.79396e-19)
(1.00525 0.176433 2.00527e-20)
(1.08689 0.19957 6.64017e-19)
(1.15209 0.218611 -4.58047e-19)
(1.20223 0.233481 6.1849e-20)
(1.23935 0.244442 1.17761e-19)
(1.26574 0.251957 6.14058e-19)
(1.28366 0.256581 -2.20542e-19)
(1.29515 0.258877 -4.3605e-20)
(1.30197 0.259345 -2.30242e-19)
(1.30557 0.258483 -2.40031e-20)
(1.30731 0.257349 1.14997e-19)
(0.0185385 -0.00218118 -8.6328e-20)
(0.0930347 -0.00485271 2.49669e-19)
(0.198408 0.00427161 -2.56027e-19)
(0.325247 0.0224426 1.00964e-19)
(0.464378 0.0477758 -1.21067e-19)
(0.606681 0.0781641 4.4401e-19)
(0.743795 0.11098 -6.19905e-20)
(0.869047 0.143619 1.5218e-19)
(0.978017 0.173924 -8.97545e-20)
(1.06862 0.200408 -2.44501e-21)
(1.14079 0.222285 1.02149e-19)
(1.19593 0.239375 -7.91132e-20)
(1.23629 0.251943 2.05054e-19)
(1.26454 0.260528 -1.02263e-19)
(1.28328 0.265792 -4.48868e-19)
(1.29491 0.268409 4.45907e-19)
(1.30142 0.268994 -2.00479e-19)
(1.30443 0.268052 1.6004e-19)
(1.30521 0.266078 2.76858e-19)
(1.30492 0.263923 1.13683e-19)
(0.0267859 -0.00278566 2.14907e-19)
(0.118152 -0.00421568 -4.42963e-19)
(0.239831 0.00879529 8.47032e-20)
(0.380988 0.0321319 -6.15346e-20)
(0.530927 0.0628337 -2.48543e-19)
(0.679402 0.0979115 -1.95065e-19)
(0.817675 0.134106 -3.84041e-20)
(0.939507 0.168527 -3.47621e-19)
(1.04152 0.199071 -2.12124e-20)
(1.12295 0.224534 -6.4559e-20)
(1.18502 0.244524 -1.75072e-19)
(1.23017 0.25926 -3.89324e-20)
(1.26143 0.269342 -1.33795e-19)
(1.28182 0.275548 -2.22887e-19)
(1.29414 0.278683 2.27964e-19)
(1.30071 0.279489 3.12099e-20)
(1.30338 0.278586 6.21849e-20)
(1.30356 0.276452 -2.61823e-19)
(1.30234 0.273565 -6.65722e-21)
(1.30067 0.27061 -4.02975e-19)
(0.0361447 -0.00291655 2.35249e-19)
(0.145732 -0.00205764 1.57017e-19)
(0.284093 0.0157775 -2.53501e-19)
(0.438899 0.0448988 3.95847e-19)
(0.597995 0.0811286 -4.27688e-20)
(0.750306 0.120577 1.47953e-19)
(0.887194 0.159462 5.12409e-20)
(1.00335 0.1948 1.81416e-19)
(1.09678 0.224727 -1.42068e-19)
(1.16822 0.248469 4.7311e-20)
(1.22013 0.266096 -4.53798e-20)
(1.25586 0.278234 -1.98772e-20)
(1.27896 0.28578 3.79021e-20)
(1.29267 0.289697 -6.97397e-20)
(1.29975 0.290877 -2.13692e-20)
(1.30236 0.290078 -6.54378e-20)
(1.30215 0.287893 -1.06245e-19)
(1.30031 0.284754 6.86317e-20)
(1.2977 0.281113 -9.39085e-20)
(1.29511 0.277516 4.05936e-19)
(0.0465857 -0.0024561 -1.17348e-19)
(0.175537 0.00187198 -3.32793e-19)
(0.330617 0.0254625 -4.43246e-20)
(0.498016 0.0608597 -1.21645e-20)
(0.664311 0.102576 -1.49266e-19)
(0.818031 0.145875 -2.45163e-19)
(0.951179 0.186637 8.02201e-20)
(1.05982 0.222001 -1.10236e-19)
(1.14362 0.250531 -1.23432e-19)
(1.20479 0.271981 6.87413e-20)
(1.24694 0.286919 -5.19209e-20)
(1.27412 0.296347 -1.04973e-19)
(1.29017 0.301406 -3.46824e-21)
(1.29835 0.30318 7.10941e-20)
(1.30128 0.302594 -7.24147e-20)
(1.30088 0.300384 1.00485e-19)
(1.29857 0.297092 2.70736e-20)
(1.29529 0.293093 6.80314e-20)
(1.29175 0.288817 1.32366e-19)
(1.28855 0.284683 -1.13354e-19)
(0.058045 -0.0012876 1.1203e-19)
(0.20724 0.00779885 -9.76514e-21)
(0.37872 0.038032 5.0423e-20)
(0.557306 0.0800371 -6.83409e-20)
(0.728641 0.126993 5.6975e-21)
(0.881398 0.17346 2.3733e-19)
(1.00877 0.215213 -1.55847e-19)
(1.10855 0.249745 6.6038e-20)
(1.18219 0.276201 5.82349e-20)
(1.23329 0.294931 -1.63488e-19)
(1.26642 0.306987 1.53607e-19)
(1.28607 0.313697 1.3758e-21)
(1.29619 0.316379 -1.08144e-19)
(1.29992 0.316178 1.30324e-19)
(1.29963 0.31401 -5.17039e-20)
(1.29701 0.310557 3.95187e-20)
(1.29318 0.306295 -4.42027e-20)
(1.28892 0.301545 -1.77182e-20)
(1.28477 0.296716 -1.54463e-19)
(1.28119 0.292105 4.73452e-20)
(0.0704229 0.000699532 -3.76846e-20)
(0.240434 0.0159115 1.01335e-19)
(0.427637 0.0535934 1.58343e-20)
(0.615714 0.102358 6.63388e-20)
(0.789848 0.154118 3.16915e-20)
(0.939454 0.202947 1.48606e-20)
(1.0594 0.244786 8.41672e-20)
(1.14948 0.277703 -1.0197e-20)
(1.21288 0.301535 3.71128e-20)
(1.25448 0.317248 5.96055e-20)
(1.27951 0.326338 2.87572e-20)
(1.29271 0.330394 2.06448e-20)
(1.29797 0.330842 8.37006e-20)
(1.29821 0.328838 -8.10274e-20)
(1.2955 0.325248 1.73848e-20)
(1.29125 0.320688 -1.6288e-20)
(1.28637 0.315561 2.51783e-20)
(1.28146 0.310133 2.10959e-20)
(1.27692 0.304805 4.40276e-20)
(1.27311 0.299747 1.82204e-21)
(0.083585 0.00360445 2.23468e-20)
(0.27464 0.0263502 2.04132e-20)
(0.476548 0.0721721 -2.82824e-20)
(0.672214 0.127659 1.76766e-20)
(0.846939 0.183622 9.99412e-21)
(0.991487 0.233934 -3.10997e-20)
(1.1028 0.274987 1.02602e-20)
(1.18279 0.305604 1.86257e-21)
(1.23627 0.326388 1.76946e-20)
(1.26915 0.338905 -4.74663e-20)
(1.2871 0.34503 -1.48379e-22)
(1.29492 0.34654 1.31562e-20)
(1.2963 0.344911 -1.04857e-20)
(1.29385 0.34126 1.06064e-20)
(1.28935 0.336385 2.76854e-20)
(1.28395 0.33082 -1.57581e-20)
(1.27837 0.3249 4.38552e-21)
(1.27305 0.318846 1.72655e-20)
(1.26829 0.313048 -2.8448e-20)
(1.26435 0.307552 1.36635e-20)
(0.0973644 0.00750983 6.21525e-20)
(0.309325 0.039198 -3.38456e-20)
(0.524616 0.0937082 3.98864e-20)
(0.725849 0.155696 -2.96882e-20)
(0.899094 0.215132 -1.33235e-20)
(1.03702 0.266022 4.03442e-21)
(1.13893 0.30548 -1.30805e-20)
(1.20882 0.333229 4.70446e-20)
(1.25298 0.350662 -3.91886e-20)
(1.27806 0.359897 9.20076e-21)
(1.28998 0.363119 -6.85411e-21)
(1.29342 0.362217 -4.46901e-20)
(1.29176 0.35866 4.33621e-20)
(1.2873 0.353501 1.65216e-20)
(1.28152 0.347447 -1.64301e-20)
(1.27534 0.340956 3.85924e-20)
(1.26932 0.334291 -5.63847e-22)
(1.26377 0.32764 -3.74534e-20)
(1.25891 0.321387 2.77416e-20)
(1.25494 0.315448 8.76352e-21)
(0.111565 0.0124774 -2.17841e-20)
(0.343918 0.0544746 6.31484e-20)
(0.571017 0.118059 7.30288e-20)
(0.775767 0.186154 -3.44863e-20)
(0.945672 0.248245 5.99888e-20)
(1.07578 0.298823 9.49922e-20)
(1.16791 0.335966 -5.24691e-21)
(1.22803 0.360395 -1.63413e-20)
(1.26364 0.374281 8.06516e-20)
(1.28193 0.380227 3.93482e-20)
(1.28883 0.380644 -7.15363e-21)
(1.28877 0.377472 5.87213e-20)
(1.2848 0.372129 -6.30212e-20)
(1.27888 0.365575 9.81733e-20)
(1.27223 0.358428 -1.63778e-20)
(1.26556 0.351062 4.6994e-20)
(1.25929 0.343685 8.49349e-21)
(1.25366 0.336453 3.36473e-20)
(1.24879 0.32975 -3.20164e-20)
(1.24485 0.323356 7.75195e-21)
(0.125968 0.0185436 -3.39068e-20)
(0.377831 0.072132 8.0232e-20)
(0.614968 0.145 5.96645e-20)
(0.821237 0.218665 -9.05687e-21)
(0.986214 0.282541 9.31358e-20)
(1.10768 0.331965 -6.97063e-20)
(1.18999 0.366177 -5.49324e-21)
(1.24091 0.386947 6.15076e-20)
(1.26888 0.39718 1.95291e-20)
(1.28137 0.399886 2.73856e-20)
(1.28418 0.397622 -4.04652e-20)
(1.28141 0.392322 1.05653e-19)
(1.27575 0.385317 1.97673e-20)
(1.26883 0.377463 -9.36693e-20)
(1.26163 0.369284 1.37073e-19)
(1.25469 0.361082 -1.61798e-19)
(1.24833 0.35301 -7.43814e-20)
(1.24272 0.345208 1.23275e-20)
(1.23792 0.338053 7.22393e-20)
(1.23408 0.331189 -1.36448e-19)
(0.140337 0.0257167 -7.6073e-20)
(0.410478 0.0920546 -1.79605e-19)
(0.655754 0.17424 -1.55469e-19)
(0.861667 0.252815 -2.1171e-19)
(1.02043 0.317596 -1.20259e-19)
(1.13278 0.365095 -2.4944e-19)
(1.20553 0.395869 3.1701e-20)
(1.24798 0.412745 -1.32708e-19)
(1.26926 0.419298 -1.46005e-20)