/*--------------------------------*- C++ -*----------------------------------*\
  =========                 |
  \\      /  F ield         | OpenFOAM: The Open Source CFD Toolbox
   \\    /   O peration     | Website:  https://openfoam.org
    \\  /    A nd           | Version:  6.0
     \\/     M anipulation  |
\*---------------------------------------------------------------------------*/
FoamFile
{
    version     2.0;
    format      ascii;
    class       volScalarField;
    location    "0.7";
    object      p;
}
// * * * * * * * * * * * * * * * * * * * * * * * * * * * * * * * * * * * * * //

dimensions      [0 2 -2 0 0 0 0];

internalField   nonuniform List<scalar> 
8000
(
-0.128119
-0.133305
-0.132796
-0.128118
-0.119877
-0.108072
-0.0930437
-0.0754831
-0.0562962
-0.0364643
-0.0169183
0.00155316
0.018354
0.0330927
0.0455673
0.0557326
0.0636561
0.0695062
0.0736413
0.0758867
-0.131852
-0.136899
-0.136364
-0.131736
-0.123591
-0.111903
-0.0969883
-0.0795169
-0.0603808
-0.0405552
-0.0209714
-0.00242246
0.0144887
0.0293632
0.0419925
0.052326
0.0604274
0.0664622
0.0707861
0.0732236
-0.139223
-0.143996
-0.143408
-0.138876
-0.130916
-0.119457
-0.104764
-0.0874677
-0.068431
-0.0486174
-0.0289588
-0.0102572
0.00687077
0.022012
0.0349448
0.0456081
0.0540578
0.0604534
0.065145
0.0679557
-0.150052
-0.154422
-0.153753
-0.149357
-0.141662
-0.130531
-0.116159
-0.0991133
-0.0802177
-0.0604177
-0.0406463
-0.0217193
-0.00427311
0.0112579
0.0246329
0.035775
0.0447288
0.0516453
0.0568657
0.0602109
-0.164083
-0.167936
-0.167155
-0.162923
-0.155559
-0.144841
-0.130872
-0.114139
-0.0954163
-0.0756256
-0.0557021
-0.0364799
-0.0186214
-0.00258868
0.0113525
0.023105
0.0326986
0.0402735
0.0461592
0.0501731
-0.181004
-0.184239
-0.183313
-0.179263
-0.172278
-0.162038
-0.148534
-0.132161
-0.113629
-0.0938358
-0.0737191
-0.0541357
-0.03578
-0.0191474
-0.00453381
0.00793958
0.018285
0.0266297
0.0332886
0.0380746
-0.200461
-0.202996
-0.201893
-0.198029
-0.191453
-0.181733
-0.168736
-0.152748
-0.134411
-0.114594
-0.0942404
-0.0742336
-0.0553056
-0.0379903
-0.0226175
-0.00933562
0.00184793
0.011046
0.0185567
0.0241866
-0.222088
-0.223858
-0.222545
-0.21886
-0.212704
-0.203523
-0.191049
-0.175451
-0.157296
-0.137423
-0.116784
-0.0962957
-0.0767304
-0.0586651
-0.0424663
-0.0283116
-0.0162293
-0.00612158
0.00229109
0.00880729
-0.245518
-0.246479
-0.244924
-0.241399
-0.235655
-0.22701
-0.215051
-0.199823
-0.181816
-0.161844
-0.140868
-0.119841
-0.0995835
-0.0807161
-0.0636441
-0.0485747
-0.0355572
-0.0245089
-0.0151694
-0.00774983
-0.270405
-0.270531
-0.268704
-0.265314
-0.259957
-0.25182
-0.240341
-0.225438
-0.207527
-0.187396
-0.166024
-0.144406
-0.12341
-0.103703
-0.0857289
-0.0697236
-0.0557564
-0.0437587
-0.0334891
-0.0251691
-0.296439
-0.29572
-0.293595
-0.290307
-0.285296
-0.277617
-0.266557
-0.251909
-0.234018
-0.213654
-0.191822
-0.169559
-0.147786
-0.127215
-0.108327
-0.0913837
-0.0764714
-0.0635341
-0.0523484
-0.0431459
-0.32335
-0.321791
-0.319347
-0.316124
-0.311405
-0.304112
-0.293382
-0.278892
-0.260922
-0.240236
-0.21787
-0.194911
-0.172331
-0.150886
-0.131087
-0.113218
-0.0973818
-0.0835301
-0.0714557
-0.0613988
-0.350919
-0.348536
-0.345758
-0.342557
-0.338063
-0.331063
-0.32055
-0.306093
-0.287923
-0.266811
-0.243832
-0.220127
-0.196717
-0.174396
-0.153702
-0.134937
-0.118211
-0.103482
-0.0905559
-0.0796804
-0.378974
-0.375792
-0.372667
-0.369445
-0.365097
-0.358276
-0.34784
-0.333267
-0.314757
-0.293101
-0.269426
-0.244926
-0.22067
-0.197483
-0.175924
-0.1563
-0.138728
-0.123167
-0.109434
-0.0977816
-0.40739
-0.403438
-0.399958
-0.396668
-0.392376
-0.3856
-0.375079
-0.360216
-0.341206
-0.31888
-0.294422
-0.269084
-0.243973
-0.219941
-0.197553
-0.177119
-0.158752
-0.142411
-0.127919
-0.115533
-0.436079
-0.431388
-0.427549
-0.424141
-0.419803
-0.412921
-0.402127
-0.386782
-0.3671
-0.34397
-0.318644
-0.292428
-0.266463
-0.241613
-0.218441
-0.197252
-0.178149
-0.161085
-0.145887
-0.132811
-0.464985
-0.459588
-0.455386
-0.451807
-0.447308
-0.440148
-0.428877
-0.412842
-0.392306
-0.368237
-0.341961
-0.314835
-0.288022
-0.262385
-0.238478
-0.21659
-0.196811
-0.179087
-0.163243
-0.149518
-0.494075
-0.488003
-0.483432
-0.479622
-0.474836
-0.46721
-0.45524
-0.438296
-0.416722
-0.391582
-0.364282
-0.336221
-0.308573
-0.282187
-0.257593
-0.235054
-0.214645
-0.1963
-0.179837
-0.165503
-0.523328
-0.516608
-0.511663
-0.507555
-0.502339
-0.494043
-0.48114
-0.463062
-0.440267
-0.413933
-0.385545
-0.356536
-0.328076
-0.300987
-0.275762
-0.252629
-0.231629
-0.212654
-0.195493
-0.180565
-0.552729
-0.545385
-0.540054
-0.53557
-0.529769
-0.520585
-0.506505
-0.487069
-0.462878
-0.435238
-0.405709
-0.375748
-0.346506
-0.318769
-0.292988
-0.269353
-0.247866
-0.228343
-0.210538
-0.195165
-0.582257
-0.57431
-0.568576
-0.563628
-0.55707
-0.546765
-0.531261
-0.510247
-0.484498
-0.455453
-0.424742
-0.393828
-0.363833
-0.335493
-0.309217
-0.285167
-0.263326
-0.243545
-0.225871
-0.211199
-0.611881
-0.603347
-0.597187
-0.591669
-0.584167
-0.572501
-0.555327
-0.532528
-0.505074
-0.474543
-0.442619
-0.410756
-0.380028
-0.351112
-0.324364
-0.299904
-0.277694
-0.257606
-0.239755
-0.224586
-0.641555
-0.632447
-0.625826
-0.619621
-0.610972
-0.597698
-0.578614
-0.55384
-0.524558
-0.492477
-0.459323
-0.426519
-0.395076
-0.365603
-0.338392
-0.313517
-0.290907
-0.270416
-0.252094
-0.236078
-0.671212
-0.66154
-0.654413
-0.647386
-0.637376
-0.622244
-0.601025
-0.574107
-0.542898
-0.509228
-0.47484
-0.441111
-0.408973
-0.378959
-0.351293
-0.326001
-0.302976
-0.282048
-0.263225
-0.246513
-0.700761
-0.690533
-0.682845
-0.674844
-0.663247
-0.646015
-0.622451
-0.59325
-0.560046
-0.524769
-0.48916
-0.454531
-0.421725
-0.391189
-0.363084
-0.337384
-0.31395
-0.292592
-0.273289
-0.25595
-0.730087
-0.719309
-0.710992
-0.701851
-0.688437
-0.668869
-0.642779
-0.611188
-0.575949
-0.539072
-0.502273
-0.466779
-0.433336
-0.402307
-0.373784
-0.347698
-0.32388
-0.302126
-0.282393
-0.264526
-0.759049
-0.747725
-0.7387
-0.728242
-0.712778
-0.690658
-0.661889
-0.627837
-0.590555
-0.55211
-0.514166
-0.477851
-0.443811
-0.41232
-0.383409
-0.356964
-0.332794
-0.310683
-0.290566
-0.272238
-0.787482
-0.775615
-0.765794
-0.753831
-0.736089
-0.711222
-0.679659
-0.643109
-0.603809
-0.563849
-0.524819
-0.487739
-0.453146
-0.42123
-0.391963
-0.365194
-0.340707
-0.318281
-0.297825
-0.279103
-0.815195
-0.80279
-0.792073
-0.778411
-0.758177
-0.730397
-0.695961
-0.656918
-0.615653
-0.574251
-0.534207
-0.496422
-0.461326
-0.429027
-0.39944
-0.372381
-0.347616
-0.324916
-0.304163
-0.285104
-0.841976
-0.829038
-0.81732
-0.801766
-0.778839
-0.748018
-0.710671
-0.669172
-0.626023
-0.583269
-0.542293
-0.503871
-0.468325
-0.435687
-0.40582
-0.378509
-0.353506
-0.330571
-0.309562
-0.290225
-0.867594
-0.854127
-0.841298
-0.823663
-0.797871
-0.763916
-0.723663
-0.679782
-0.634851
-0.59085
-0.549032
-0.510045
-0.474108
-0.441177
-0.411072
-0.383549
-0.358347
-0.33522
-0.313995
-0.294435
-0.891798
-0.877811
-0.863758
-0.843865
-0.815064
-0.777925
-0.734812
-0.688653
-0.642065
-0.596931
-0.554369
-0.514894
-0.478625
-0.445452
-0.415154
-0.387463
-0.362106
-0.338828
-0.317429
-0.297703
-0.914328
-0.89983
-0.884443
-0.862129
-0.830212
-0.789884
-0.743994
-0.695689
-0.647584
-0.601444
-0.558239
-0.518355
-0.481819
-0.44846
-0.418017
-0.390204
-0.364737
-0.341354
-0.319824
-0.299989
-0.934911
-0.919913
-0.903086
-0.878215
-0.843113
-0.799634
-0.751088
-0.700793
-0.651325
-0.604312
-0.560569
-0.520362
-0.483628
-0.45014
-0.419606
-0.391721
-0.366194
-0.342752
-0.321138
-0.301253
-0.95327
-0.937787
-0.919424
-0.891883
-0.853572
-0.807024
-0.755976
-0.703869
-0.653203
-0.605454
-0.561285
-0.520842
-0.483981
-0.450428
-0.419861
-0.391959
-0.366425
-0.342975
-0.321327
-0.301454
-0.969127
-0.953178
-0.933193
-0.902905
-0.861403
-0.811911
-0.758545
-0.70482
-0.653132
-0.604789
-0.560308
-0.519721
-0.482812
-0.449261
-0.418723
-0.390863
-0.36538
-0.341976
-0.320348
-0.300552
-0.982208
-0.965814
-0.944139
-0.911062
-0.866436
-0.814163
-0.758689
-0.703557
-0.651027
-0.60224
-0.557564
-0.516928
-0.480053
-0.446578
-0.416136
-0.388383
-0.363011
-0.339711
-0.318161
-0.29851
-0.992249
-0.975435
-0.952022
-0.916153
-0.868512
-0.813659
-0.756313
-0.699996
-0.646813
-0.597733
-0.552984
-0.512402
-0.475646
-0.442324
-0.412051
-0.384473
-0.359278
-0.336142
-0.314732
-0.295296
-0.999
-0.981794
-0.956617
-0.917995
-0.867494
-0.810297
-0.751334
-0.694064
-0.640425
-0.591208
-0.546513
-0.506089
-0.469545
-0.436459
-0.40643
-0.379099
-0.354149
-0.331241
-0.310037
-0.290885
-1.00223
-0.984664
-0.957723
-0.916427
-0.863265
-0.803988
-0.743682
-0.685705
-0.631808
-0.582617
-0.538107
-0.497952
-0.461715
-0.428952
-0.399248
-0.372239
-0.347603
-0.324989
-0.304057
-0.28526
-1.00172
-0.983842
-0.955161
-0.911316
-0.855729
-0.794668
-0.733308
-0.674874
-0.620926
-0.571926
-0.527738
-0.487967
-0.452139
-0.41979
-0.390494
-0.363884
-0.339634
-0.317381
-0.296789
-0.278414
-0.997304
-0.979147
-0.948781
-0.902552
-0.844816
-0.782288
-0.720177
-0.661546
-0.607759
-0.559121
-0.515396
-0.476129
-0.440815
-0.408974
-0.380172
-0.354041
-0.330251
-0.308424
-0.288239
-0.270352
-0.988812
-0.970434
-0.938468
-0.89006
-0.830482
-0.766826
-0.704277
-0.645713
-0.592301
-0.544201
-0.501084
-0.462446
-0.427755
-0.396519
-0.368301
-0.342729
-0.319471
-0.298138
-0.278425
-0.261087
-0.976131
-0.957589
-0.924137
-0.873793
-0.812709
-0.748277
-0.68561
-0.627381
-0.574563
-0.527179
-0.48482
-0.446938
-0.412984
-0.382454
-0.354908
-0.329977
-0.307324
-0.286551
-0.267375
-0.250644
-0.959173
-0.940535
-0.90574
-0.853736
-0.791504
-0.726662
-0.6642
-0.606574
-0.554569
-0.508081
-0.466632
-0.429638
-0.396534
-0.366811
-0.34003
-0.315822
-0.293847
-0.2737
-0.255122
-0.239053
-0.937892
-0.919233
-0.883264
-0.829905
-0.766902
-0.702019
-0.640085
-0.583328
-0.532353
-0.486942
-0.446554
-0.41058
-0.378443
-0.349631
-0.323707
-0.300304
-0.279081
-0.259625
-0.241706
-0.226353
-0.912277
-0.893682
-0.856736
-0.80235
-0.738962
-0.674408
-0.613319
-0.557692
-0.50796
-0.463803
-0.424629
-0.389807
-0.358753
-0.330956
-0.305982
-0.283467
-0.263069
-0.24437
-0.227171
-0.212588
-0.882358
-0.863921
-0.826215
-0.771147
-0.707767
-0.643908
-0.583971
-0.529726
-0.481443
-0.438713
-0.400902
-0.367363
-0.337508
-0.310829
-0.286897
-0.265355
-0.245858
-0.227984
-0.211566
-0.197809
-0.848206
-0.830029
-0.791799
-0.736408
-0.673425
-0.610614
-0.552126
-0.499502
-0.452866
-0.411729
-0.375425
-0.343295
-0.314754
-0.289296
-0.2665
-0.246015
-0.227496
-0.210519
-0.194949
-0.182074
-0.809933
-0.792126
-0.753623
-0.698272
-0.636069
-0.574646
-0.517885
-0.467107
-0.422302
-0.382916
-0.348255
-0.317658
-0.29054
-0.266405
-0.244838
-0.225497
-0.208037
-0.192031
-0.177382
-0.165449
-0.767691
-0.750371
-0.711855
-0.656908
-0.595854
-0.53614
-0.481365
-0.432641
-0.389838
-0.352347
-0.319458
-0.290508
-0.264921
-0.242208
-0.221964
-0.203854
-0.187536
-0.172584
-0.158935
-0.148007
-0.721673
-0.704959
-0.666698
-0.612511
-0.55296
-0.495252
-0.442701
-0.396221
-0.355574
-0.32011
-0.28911
-0.261915
-0.237958
-0.216762
-0.197933
-0.181144
-0.166055
-0.152246
-0.139686
-0.129832
-0.67211
-0.656125
-0.618387
-0.565308
-0.507591
-0.452162
-0.402049
-0.357979
-0.319625
-0.286306
-0.257299
-0.231955
-0.209721
-0.190131
-0.172806
-0.157426
-0.143659
-0.13109
-0.11972
-0.111011
-0.619273
-0.604141
-0.567191
-0.515549
-0.459972
-0.40707
-0.359582
-0.318069
-0.282126
-0.251049
-0.224124
-0.200714
-0.180282
-0.16238
-0.146641
-0.132759
-0.120406
-0.109185
-0.099116
-0.091623
-0.563467
-0.549308
-0.513404
-0.463513
-0.410354
-0.360196
-0.315498
-0.276663
-0.243227
-0.214474
-0.189699
-0.168286
-0.149719
-0.133569
-0.119487
-0.107179
-0.0963321
-0.0865677
-0.0779156
-0.0717018
-0.50503
-0.491961
-0.457351
-0.409498
-0.359009
-0.311784
-0.270012
-0.233958
-0.203104
-0.176734
-0.154158
-0.134786
-0.118124
-0.103768
-0.0913909
-0.0807147
-0.0714432
-0.0632338
-0.0561175
-0.051272
-0.444331
-0.432462
-0.399379
-0.353829
-0.30623
-0.262099
-0.223365
-0.190167
-0.16195
-0.138
-0.117652
-0.100341
-0.0856041
-0.0730665
-0.0624262
-0.0534234
-0.045787
-0.0392399
-0.0338449
-0.0305735
-0.381762
-0.371197
-0.339857
-0.296846
-0.252328
-0.211425
-0.175816
-0.145529
-0.119981
-0.0984665
-0.0803463
-0.0650875
-0.0522627
-0.0415369
-0.0326443
-0.02535
-0.0194346
-0.0147694
-0.0115137
-0.010215
-0.317741
-0.308571
-0.27917
-0.238907
-0.197632
-0.160064
-0.127645
-0.100306
-0.0774388
-0.0583519
-0.0424295
-0.0291683
-0.0181769
-0.00916374
-0.00190542
0.00379379
0.0080336
0.010614
0.0111838
0.0101198
-0.252698
-0.245004
-0.217718
-0.180383
-0.142483
-0.108333
-0.0791527
-0.0547839
-0.0346017
-0.0179251
-0.00415696
0.00718748
0.0164824
0.0240047
0.0299793
0.03461
0.0378606
0.0390559
0.0376753
0.0354836
-0.18708
-0.180928
-0.155908
-0.12165
-0.0872303
-0.0565604
-0.0306503
-0.00926628
0.00822811
0.0225011
0.0341332
0.0435974
0.0512675
0.0574431
0.0624184
0.066508
0.0696914
0.0709838
0.0701773
0.0754111
-0.121328
-0.116775
-0.094148
-0.0630882
-0.0322245
-0.00507348
0.0175499
0.035944
0.0507499
0.0626182
0.0721073
0.0796706
0.085669
0.0904035
0.0941756
0.0972738
0.0996644
0.100807
0.101611
0.108482
-0.0558949
-0.0529816
-0.0328486
-0.00507419
0.0221859
0.0458028
0.0651408
0.0805526
0.092678
0.102147
0.109493
0.11515
0.119463
0.122724
0.125213
0.127169
0.128543
0.128977
0.129445
0.135022
0.00877143
0.0100189
0.0275858
0.0520201
0.0756599
0.0957522
0.111826
0.124277
0.133739
0.140817
0.146017
0.149748
0.152335
0.154051
0.155153
0.155849
0.156104
0.155643
0.155312
0.15924
0.0722305
0.071802
0.0867593
0.107833
0.127867
0.14447
0.157322
0.166854
0.173687
0.178399
0.181468
0.183274
0.184118
0.18425
0.183898
0.183239
0.182227
0.180628
0.179244
0.181632
0.134052
0.131954
0.144287
0.162013
0.178487
0.191665
0.201361
0.208035
0.212291
0.21468
0.215649
0.21555
0.214661
0.213205
0.211387
0.209353
0.207046
0.204263
0.201775
0.202676
0.193821
0.190073
0.199799
0.214225
0.227217
0.237059
0.243689
0.247588
0.249341
0.249469
0.24839
0.246428
0.243834
0.240813
0.237541
0.23414
0.230546
0.22659
0.223011
0.222497
0.251136
0.245777
0.252941
0.264147
0.273766
0.28039
0.284068
0.285295
0.284638
0.282587
0.279531
0.275768
0.271526
0.266986
0.262303
0.257578
0.252742
0.247658
0.243025
0.241162
0.305618
0.298701
0.303375
0.311475
0.31786
0.321409
0.322271
0.320952
0.317997
0.313868
0.308925
0.303441
0.297623
0.29163
0.285598
0.279609
0.273596
0.267447
0.261808
0.258663
0.356905
0.348498
0.350785
0.355924
0.359241
0.359883
0.358087
0.354366
0.349243
0.343154
0.33643
0.329322
0.322015
0.314652
0.307348
0.30017
0.293054
0.285912
0.279323
0.274969
0.40466
0.394847
0.394875
0.397226
0.397668
0.395594
0.391318
0.385357
0.378214
0.370296
0.361912
0.35329
0.344596
0.335955
0.327467
0.319185
0.31105
0.302991
0.295516
0.290027
0.448571
0.437449
0.43537
0.435132
0.432917
0.42834
0.421781
0.413758
0.404755
0.395156
0.385245
0.37523
0.365261
0.355446
0.345871
0.336577
0.327512
0.318616
0.310322
0.303782
0.488351
0.476031
0.472019
0.469418
0.464785
0.457935
0.449305
0.439414
0.428726
0.417603
0.406309
0.395033
0.383909
0.373032
0.362474
0.352267
0.342365
0.332717
0.323676
0.316176
0.523742
0.510346
0.504596
0.499879
0.493087
0.484211
0.473738
0.462184
0.449998
0.43752
0.424995
0.412598
0.400448
0.388628
0.377197
0.36618
0.355537
0.345223
0.335515
0.327153
0.554514
0.540174
0.532901
0.526333
0.517659
0.507019
0.494942
0.481944
0.468455
0.454799
0.441205
0.427834
0.414793
0.402153
0.389965
0.378246
0.366962
0.356071
0.345779
0.336661
0.580468
0.565327
0.55676
0.548623
0.538358
0.526229
0.5128
0.498583
0.483995
0.469346
0.454852
0.44066
0.426868
0.413538
0.400712
0.388402
0.376579
0.365203
0.354416
0.344657
0.601435
0.585644
0.576025
0.566617
0.555064
0.541732
0.52721
0.512008
0.496533
0.481082
0.465861
0.451006
0.436608
0.422721
0.40938
0.396594
0.384337
0.37257
0.361381
0.3511
0.617281
0.600995
0.590578
0.580207
0.56768
0.553438
0.53809
0.522144
0.505999
0.489943
0.474172
0.458817
0.443961
0.429654
0.415924
0.402778
0.390194
0.378131
0.366637
0.355959
0.627903
0.611285
0.600331
0.589313
0.576132
0.56128
0.545378
0.528934
0.51234
0.495878
0.479739
0.464048
0.448886
0.434297
0.420307
0.40692
0.394117
0.381857
0.370157
0.359212
0.633232
0.616447
0.605224
0.593881
0.580372
0.565213
0.549034
0.53234
0.515521
0.498855
0.482531
0.466672
0.451356
0.436626
0.422505
0.408998
0.396085
0.383725
0.371922
0.360843
0.633234
0.61645
0.605226
0.593883
0.580374
0.565215
0.549036
0.532342
0.515523
0.498857
0.482533
0.466674
0.451358
0.436628
0.422507
0.409
0.396087
0.383727
0.371923
0.360845
0.627909
0.611292
0.600338
0.58932
0.576138
0.561286
0.545384
0.52894
0.512346
0.495884
0.479744
0.464054
0.448891
0.434303
0.420312
0.406925
0.394122
0.381861
0.370161
0.359217
0.617292
0.601007
0.59059
0.580218
0.56769
0.553448
0.5381
0.522154
0.506009
0.489953
0.474181
0.458826
0.44397
0.429663
0.415932
0.402786
0.390202
0.378139
0.366645
0.355967
0.601452
0.58566
0.576041
0.566632
0.555079
0.541747
0.527224
0.512022
0.496547
0.481096
0.465874
0.451019
0.436621
0.422734
0.409392
0.396606
0.384349
0.372581
0.361392
0.35111
0.580489
0.565348
0.55678
0.548643
0.538378
0.526249
0.512819
0.498601
0.484013
0.469364
0.454869
0.440677
0.426884
0.413554
0.400727
0.388417
0.376594
0.365217
0.35443
0.34467
0.554541
0.540201
0.532927
0.526358
0.517683
0.507043
0.494966
0.481967
0.468477
0.454821
0.441227
0.427855
0.414813
0.402173
0.389984
0.378265
0.36698
0.356088
0.345796
0.336678
0.523774
0.510377
0.504627
0.499909
0.493116
0.48424
0.473766
0.462212
0.450025
0.437546
0.425021
0.412623
0.400472
0.388652
0.37722
0.366203
0.355559
0.345244
0.335535
0.327172
0.488389
0.476068
0.472055
0.469453
0.464819
0.457968
0.449337
0.439446
0.428758
0.417634
0.406339
0.395062
0.383937
0.37306
0.362501
0.352293
0.34239
0.332741
0.323699
0.316198
0.448614
0.437492
0.435411
0.435173
0.432956
0.428378
0.421818
0.413794
0.404791
0.395191
0.385279
0.375263
0.365293
0.355477
0.345901
0.336607
0.32754
0.318644
0.310348
0.303808
0.404709
0.394895
0.394922
0.397271
0.397712
0.395638
0.391361
0.385398
0.378254
0.370335
0.361951
0.353327
0.344632
0.33599
0.327501
0.319218
0.311082
0.303022
0.295546
0.290056
0.356959
0.348552
0.350838
0.355975
0.35929
0.359932
0.358134
0.354412
0.349288
0.343197
0.336473
0.329364
0.322055
0.31469
0.307385
0.300206
0.293089
0.285946
0.279356
0.275001
0.305678
0.298761
0.303433
0.311532
0.317915
0.321463
0.322323
0.321002
0.318046
0.313916
0.308972
0.303487
0.297667
0.291672
0.28564
0.279649
0.273634
0.267484
0.261844
0.258699
0.251203
0.245843
0.253005
0.264209
0.273826
0.280449
0.284125
0.28535
0.284692
0.28264
0.279582
0.275818
0.271574
0.267032
0.262348
0.257622
0.252785
0.247699
0.243065
0.2412
0.193894
0.190145
0.199869
0.214292
0.227283
0.237123
0.243751
0.247648
0.2494
0.249526
0.248445
0.246481
0.243886
0.240863
0.237589
0.234187
0.230592
0.226634
0.223054
0.222539
0.134132
0.132031
0.144363
0.162086
0.178558
0.191734
0.201428
0.2081
0.212355
0.214742
0.215709
0.215608
0.214716
0.213259
0.211439
0.209404
0.207095
0.204311
0.201822
0.20272
0.0723157
0.0718856
0.0868405
0.107911
0.127943
0.144544
0.157394
0.166924
0.173755
0.178465
0.181532
0.183335
0.184178
0.184308
0.183955
0.183293
0.18228
0.180679
0.179294
0.18168
0.00886291
0.0101086
0.0276728
0.0521045
0.075742
0.0958319
0.111903
0.124352
0.133812
0.140887
0.146085
0.149814
0.152399
0.154113
0.155213
0.155908
0.156161
0.155698
0.155365
0.159291
-0.055797
-0.0528859
-0.0327557
-0.00498416
0.0222735
0.0458879
0.0652235
0.0806328
0.0927557
0.102222
0.109566
0.11522
0.119531
0.12279
0.125277
0.127231
0.128603
0.129035
0.129503
0.135077
-0.121224
-0.116673
-0.0940491
-0.0629924
-0.0321314
-0.00498293
0.0176378
0.0360293
0.0508326
0.0626984
0.0721848
0.0797456
0.0857416
0.0904737
0.0942437
0.0973397
0.0997284
0.10087
0.101672
0.10854
-0.186969
-0.180819
-0.155803
-0.121549
-0.0871315
-0.0564643
-0.030557
-0.00917573
0.00831589
0.0225862
0.0342155
0.043677
0.0513444
0.0575176
0.0624906
0.0665779
0.0697592
0.0710499
0.0702424
0.0754743
-0.25258
-0.244889
-0.217607
-0.180275
-0.142378
-0.108232
-0.0790539
-0.054688
-0.0345087
-0.0178351
-0.00406983
0.00727175
0.0165639
0.0240835
0.0300557
0.0346842
0.0379328
0.0391264
0.0377447
0.0355525
-0.317616
-0.308449
-0.279052
-0.238793
-0.197521
-0.159956
-0.12754
-0.100204
-0.0773407
-0.0582569
-0.0423374
-0.0290793
-0.0180908
-0.00908045
-0.00182466
0.0038723
0.00811016
0.0106889
0.0112576
0.0101931
-0.38163
-0.371068
-0.339732
-0.296725
-0.252211
-0.211311
-0.175706
-0.145422
-0.119877
-0.0983663
-0.0802494
-0.0649938
-0.0521721
-0.0414493
-0.0325593
-0.0252674
-0.0193541
-0.0146907
-0.0114364
-0.0101384
-0.444191
-0.432326
-0.399247
-0.353701
-0.306106
-0.26198
-0.223249
-0.190055
-0.161841
-0.137895
-0.11755
-0.100243
-0.085509
-0.0729746
-0.0623371
-0.0533368
-0.0457028
-0.0391577
-0.0337643
-0.0304939
-0.504883
-0.491817
-0.457212
-0.409364
-0.358879
-0.311659
-0.269891
-0.23384
-0.202991
-0.176624
-0.154052
-0.134683
-0.118024
-0.103672
-0.0912978
-0.0806244
-0.0713554
-0.0631482
-0.0560338
-0.0511895
-0.563312
-0.549157
-0.513258
-0.463371
-0.410218
-0.360065
-0.315371
-0.276541
-0.243109
-0.21436
-0.189588
-0.168179
-0.149616
-0.133469
-0.11939
-0.107085
-0.0962407
-0.0864788
-0.0778287
-0.0716164
-0.619111
-0.603982
-0.567037
-0.515401
-0.459829
-0.406932
-0.35945
-0.317941
-0.282002
-0.25093
-0.224008
-0.200602
-0.180174
-0.162276
-0.14654
-0.132661
-0.120312
-0.109093
-0.0990261
-0.0915347
-0.671941
-0.65596
-0.618227
-0.565153
-0.507441
-0.452019
-0.401911
-0.357846
-0.319497
-0.286182
-0.257179
-0.23184
-0.209609
-0.190024
-0.172702
-0.157326
-0.143561
-0.130995
-0.119627
-0.11092
-0.721496
-0.704786
-0.66653
-0.612349
-0.552804
-0.495103
-0.442559
-0.396083
-0.355442
-0.319983
-0.288987
-0.261796
-0.237843
-0.216651
-0.197825
-0.181039
-0.165954
-0.152148
-0.139591
-0.129738
-0.767507
-0.750191
-0.71168
-0.656738
-0.595692
-0.535985
-0.481217
-0.432499
-0.389702
-0.352215
-0.319331
-0.290386
-0.264802
-0.242093
-0.221853
-0.203747
-0.187432
-0.172483
-0.158837
-0.147911
-0.809742
-0.791939
-0.753441
-0.698096
-0.6359
-0.574485
-0.517732
-0.466961
-0.422161
-0.38278
-0.348125
-0.317531
-0.290418
-0.266287
-0.244725
-0.225387
-0.20793
-0.191928
-0.177281
-0.16535
-0.848007
-0.829835
-0.791609
-0.736224
-0.673249
-0.610447
-0.551967
-0.499351
-0.452721
-0.41159
-0.375291
-0.343166
-0.314629
-0.289176
-0.266384
-0.245902
-0.227387
-0.210413
-0.194846
-0.181973
-0.882152
-0.863719
-0.826017
-0.770955
-0.707583
-0.643733
-0.583806
-0.529569
-0.481294
-0.43857
-0.400765
-0.367231
-0.337381
-0.310707
-0.286779
-0.26524
-0.245747
-0.227876
-0.211461
-0.197706
-0.912063
-0.893472
-0.85653
-0.802149
-0.73877
-0.674228
-0.613149
-0.557531
-0.507807
-0.463657
-0.424489
-0.389672
-0.358623
-0.330831
-0.305861
-0.28335
-0.262956
-0.244261
-0.227063
-0.212484
-0.93767
-0.919015
-0.88305
-0.829697
-0.766703
-0.701832
-0.639909
-0.583163
-0.532196
-0.486793
-0.446412
-0.410443
-0.378311
-0.349504
-0.323585
-0.300186
-0.278967
-0.259514
-0.241597
-0.226247
-0.958944
-0.940308
-0.905516
-0.853519
-0.791297
-0.726467
-0.664019
-0.606404
-0.554409
-0.507929
-0.466487
-0.429499
-0.3964
-0.366683
-0.339907
-0.315703
-0.293731
-0.273588
-0.255013
-0.238946
-0.975893
-0.957354
-0.923904
-0.873567
-0.812493
-0.748075
-0.685422
-0.627206
-0.5744
-0.527025
-0.484673
-0.446798
-0.412849
-0.382324
-0.354784
-0.329857
-0.307207
-0.286438
-0.267265
-0.250536
-0.988565
-0.97019
-0.938226
-0.889824
-0.830257
-0.766615
-0.704082
-0.645533
-0.592134
-0.544044
-0.500936
-0.462304
-0.42762
-0.396389
-0.368175
-0.342608
-0.319353
-0.298024
-0.278315
-0.260979
-0.997048
-0.978894
-0.94853
-0.902307
-0.844582
-0.78207
-0.719976
-0.661362
-0.607589
-0.558962
-0.515246
-0.475986
-0.440679
-0.408843
-0.380046
-0.35392
-0.330133
-0.30831
-0.288128
-0.270243
-1.00146
-0.98358
-0.9549
-0.91106
-0.855485
-0.794441
-0.7331
-0.674685
-0.620753
-0.571765
-0.527587
-0.487824
-0.452003
-0.419659
-0.390368
-0.363763
-0.339517
-0.317267
-0.296679
-0.278307
-1.00195
-0.984393
-0.957452
-0.916161
-0.86301
-0.803752
-0.743467
-0.68551
-0.631631
-0.582454
-0.537955
-0.497808
-0.461579
-0.428822
-0.399123
-0.372118
-0.347487
-0.324876
-0.303948
-0.285153
-0.998717
-0.981513
-0.956337
-0.917718
-0.867229
-0.810051
-0.751111
-0.693865
-0.640245
-0.591044
-0.546361
-0.505946
-0.469409
-0.43633
-0.406306
-0.37898
-0.354034
-0.33113
-0.309929
-0.29078
-0.991958
-0.975144
-0.951732
-0.915865
-0.868236
-0.813403
-0.756083
-0.69979
-0.64663
-0.597567
-0.552832
-0.51226
-0.475512
-0.442197
-0.411929
-0.384356
-0.359165
-0.336033
-0.314626
-0.295193
-0.981909
-0.965515
-0.943839
-0.910764
-0.866149
-0.813897
-0.758451
-0.703346
-0.650841
-0.602073
-0.557412
-0.516788
-0.479921
-0.446453
-0.416017
-0.388268
-0.362901
-0.339604
-0.318057
-0.298409
-0.96882
-0.952871
-0.932884
-0.902597
-0.861106
-0.811636
-0.758299
-0.704605
-0.652943
-0.604623
-0.560158
-0.519583
-0.482684
-0.44914
-0.418607
-0.390752
-0.365273
-0.341872
-0.320246
-0.300453
-0.952957
-0.937475
-0.919107
-0.891566
-0.853265
-0.80674
-0.755723
-0.703648
-0.653013
-0.605287
-0.561137
-0.520708
-0.483858
-0.450312
-0.41975
-0.391852
-0.366322
-0.342874
-0.321228
-0.301357
-0.934593
-0.919595
-0.902764
-0.87789
-0.842798
-0.799341
-0.750828
-0.700569
-0.651133
-0.604146
-0.560425
-0.520233
-0.483509
-0.450029
-0.4195
-0.391619
-0.366095
-0.342655
-0.321043
-0.301159
-0.914006
-0.899507
-0.884115
-0.861799
-0.829889
-0.789584
-0.743727
-0.69546
-0.647391
-0.60128
-0.558098
-0.518231
-0.481707
-0.448355
-0.417918
-0.390108
-0.364643
-0.341261
-0.319733
-0.299898
-0.891474
-0.877486
-0.863428
-0.843529
-0.814735
-0.777618
-0.734539
-0.68842
-0.641871
-0.59677
-0.554233
-0.514776
-0.478519
-0.445354
-0.415061
-0.387373
-0.362017
-0.33874
-0.317342
-0.297616
-0.867267
-0.8538
-0.840965
-0.823324
-0.797537
-0.763603
-0.723385
-0.679546
-0.634657
-0.590691
-0.548901
-0.509934
-0.474009
-0.441086
-0.410986
-0.383466
-0.358265
-0.335138
-0.313913
-0.294353
-0.84165
-0.828711
-0.816987
-0.801426
-0.778502
-0.7477
-0.710389
-0.668934
-0.625829
-0.583113
-0.542167
-0.503767
-0.468235
-0.435604
-0.405742
-0.378433
-0.353429
-0.330494
-0.309484
-0.290146
-0.814869
-0.802464
-0.791741
-0.778071
-0.757837
-0.730076
-0.695675
-0.656677
-0.615459
-0.574098
-0.534087
-0.496325
-0.461244
-0.428953
-0.39937
-0.372312
-0.347547
-0.324845
-0.30409
-0.285029
-0.787158
-0.775291
-0.765463
-0.753491
-0.735749
-0.710898
-0.679369
-0.642867
-0.603616
-0.563701
-0.524705
-0.48765
-0.453073
-0.421166
-0.391902
-0.365133
-0.340645
-0.318216
-0.297757
-0.279032
-0.758728
-0.747404
-0.738373
-0.727906
-0.71244
-0.690334
-0.661599
-0.627593
-0.590363
-0.551965
-0.514058
-0.477771
-0.443747
-0.412265
-0.383357
-0.356912
-0.332739
-0.310624
-0.290503
-0.272171
-0.72977
-0.718991
-0.710668
-0.701519
-0.688101
-0.668547
-0.642488
-0.610945
-0.575758
-0.538931
-0.502172
-0.466706
-0.433281
-0.402261
-0.373741
-0.347654
-0.323832
-0.302073
-0.282335
-0.264463
-0.700449
-0.690221
-0.682527
-0.674517
-0.662916
-0.645695
-0.622162
-0.593007
-0.559857
-0.524631
-0.489065
-0.454466
-0.421679
-0.391153
-0.36305
-0.337348
-0.31391
-0.292545
-0.273235
-0.255891
-0.670906
-0.661234
-0.654102
-0.647066
-0.637052
-0.621929
-0.600738
-0.573866
-0.542711
-0.509094
-0.47475
-0.441054
-0.408937
-0.378932
-0.351269
-0.325974
-0.302943
-0.282008
-0.263177
-0.246457
-0.641257
-0.632149
-0.625523
-0.61931
-0.610656
-0.59739
-0.578332
-0.553601
-0.524373
-0.492347
-0.459239
-0.426469
-0.395048
-0.365585
-0.338377
-0.313498
-0.290882
-0.270383
-0.252051
-0.236026
-0.611592
-0.603057
-0.596893
-0.591368
-0.583861
-0.572201
-0.555051
-0.532294
-0.504893
-0.474416
-0.442539
-0.410713
-0.380007
-0.351103
-0.324357
-0.299893
-0.277676
-0.257578
-0.239718
-0.224538
-0.581977
-0.574029
-0.568293
-0.563338
-0.556775
-0.546475
-0.530993
-0.510019
-0.48432
-0.455329
-0.424666
-0.39379
-0.363818
-0.33549
-0.309217
-0.285163
-0.263315
-0.243524
-0.225839
-0.211157
-0.552461
-0.545116
-0.539782
-0.535293
-0.529487
-0.520307
-0.506247
-0.486847
-0.462705
-0.435117
-0.405636
-0.375713
-0.346496
-0.318772
-0.292993
-0.269355
-0.24786
-0.228328
-0.210513
-0.195133
-0.523073
-0.516351
-0.511403
-0.507291
-0.502071
-0.493779
-0.480893
-0.462848
-0.440099
-0.413816
-0.385475
-0.356505
-0.32807
-0.300994
-0.275772
-0.252635
-0.231626
-0.212641
-0.19547
-0.180533
-0.493833
-0.487759
-0.483186
-0.479373
-0.474583
-0.46696
-0.455005
-0.438092
-0.41656
-0.391468
-0.364214
-0.336191
-0.308568
-0.282196
-0.257605
-0.235061
-0.214643
-0.196287
-0.179811
-0.165466
-0.464758
-0.459359
-0.455155
-0.451573
-0.447071
-0.439914
-0.428657
-0.412649
-0.392152
-0.368128
-0.341895
-0.314806
-0.288018
-0.262394
-0.238491
-0.216597
-0.196809
-0.179072
-0.163214
-0.149476
-0.435867
-0.431175
-0.427334
-0.423924
-0.419584
-0.412704
-0.401922
-0.386602
-0.366955
-0.343866
-0.318581
-0.2924
-0.266459
-0.241622
-0.218453
-0.197259
-0.178146
-0.161068
-0.145856
-0.132765
-0.407195
-0.403241
-0.39976
-0.396468
-0.392174
-0.385402
-0.374891
-0.360049
-0.341071
-0.318783
-0.294362
-0.269056
-0.243969
-0.219949
-0.197563
-0.177125
-0.158747
-0.142393
-0.127886
-0.115485
-0.378797
-0.375612
-0.372486
-0.369262
-0.364914
-0.358095
-0.34767
-0.333115
-0.314633
-0.293011
-0.26937
-0.244901
-0.220666
-0.197491
-0.175934
-0.156305
-0.138723
-0.123149
-0.109401
-0.0977333
-0.350759
-0.348374
-0.345594
-0.342392
-0.337898
-0.330901
-0.320397
-0.305957
-0.287812
-0.26673
-0.243782
-0.220104
-0.196713
-0.174403
-0.153712
-0.134943
-0.118207
-0.103465
-0.0905251
-0.0796347
-0.323207
-0.321646
-0.319201
-0.315977
-0.311258
-0.303968
-0.293247
-0.278772
-0.260824
-0.240165
-0.217827
-0.194892
-0.17233
-0.150895
-0.131098
-0.113226
-0.0973804
-0.0835171
-0.0714293
-0.0613585
-0.296314
-0.295593
-0.293466
-0.290178
-0.285167
-0.277492
-0.266439
-0.251805
-0.233934
-0.213594
-0.191786
-0.169545
-0.147788
-0.127227
-0.108341
-0.0913941
-0.076474
-0.0635263
-0.0523286
-0.0431136
-0.270298
-0.270422
-0.268593
-0.265203
-0.259845
-0.251712
-0.24024
-0.22535