/*--------------------------------*- C++ -*----------------------------------*\
  =========                 |
  \\      /  F ield         | OpenFOAM: The Open Source CFD Toolbox
   \\    /   O peration     | Website:  https://openfoam.org
    \\  /    A nd           | Version:  6.0
     \\/     M anipulation  |
\*---------------------------------------------------------------------------*/
FoamFile
{
    version     2.0;
    format      ascii;
    class       volVectorField;
    location    "19.1";
    object      U;
}
// * * * * * * * * * * * * * * * * * * * * * * * * * * * * * * * * * * * * * //

dimensions      [0 1 -1 0 0 0 0];

internalField   nonuniform List<vector> 
8000
(
(-0.000516237 0.000647303 -3.58993e-21)
(-0.00280227 0.00160851 1.91894e-20)
(-0.0070108 0.00228993 -2.33401e-20)
(-0.0121689 0.00275702 1.77733e-20)
(-0.0177741 0.00305947 8.65522e-21)
(-0.023546 0.00323758 -2.59912e-20)
(-0.0292853 0.00332536 -2.29734e-21)
(-0.0348648 0.00335123 -8.15395e-22)
(-0.0402151 0.0033388 -1.34927e-20)
(-0.0453088 0.00330757 -7.31043e-21)
(-0.0501491 0.00327359 5.45137e-21)
(-0.0547608 0.00324982 2.07272e-20)
(-0.0591837 0.00324653 -1.55125e-21)
(-0.0634668 0.00327153 2.22185e-21)
(-0.0676643 0.00333029 -2.0881e-20)
(-0.0718354 0.00342611 1.2867e-20)
(-0.0760387 0.00356023 -1.84387e-20)
(-0.0802957 0.00373263 2.79045e-20)
(-0.0845784 0.00394295 -3.12886e-23)
(-0.0891446 0.00418483 6.03119e-21)
(-0.000607928 0.00181621 1.1922e-20)
(-0.00302141 0.00450561 -6.09296e-20)
(-0.00730468 0.00639956 -4.20845e-20)
(-0.0124974 0.00768541 -2.85799e-20)
(-0.018105 0.0085049 -3.67676e-20)
(-0.0238521 0.00897252 8.08996e-21)
(-0.0295436 0.0091848 -4.24446e-20)
(-0.0350551 0.00922237 -9.53402e-21)
(-0.0403193 0.00915222 3.01138e-21)
(-0.0453102 0.00902993 3.17244e-20)
(-0.050032 0.00890131 -3.46091e-20)
(-0.0545105 0.00880371 4.81443e-20)
(-0.0587863 0.00876689 -3.6055e-20)
(-0.0629095 0.00881369 -4.27597e-20)
(-0.0669356 0.0089604 -5.89323e-20)
(-0.0709253 0.00921699 3.76331e-20)
(-0.0749394 0.00958747 -1.21779e-20)
(-0.0790009 0.0100723 -4.43407e-20)
(-0.0830814 0.010671 4.19242e-20)
(-0.087443 0.0113647 -3.11759e-20)
(-0.000788134 0.00296537 1.16554e-19)
(-0.00345315 0.00735438 6.03622e-20)
(-0.0078854 0.0104396 6.78848e-20)
(-0.0131486 0.0125272 5.64904e-21)
(-0.0187629 0.013849 3.75204e-20)
(-0.0244632 0.0145923 4.68266e-20)
(-0.0300624 0.014915 -8.51037e-20)
(-0.0354417 0.0149492 -4.50673e-20)
(-0.0405377 0.0148045 -5.86983e-20)
(-0.0453274 0.0145722 6.26574e-20)
(-0.0498169 0.014328 -4.78599e-20)
(-0.0540336 0.0141338 -6.1583e-20)
(-0.05802 0.0140397 -2.24259e-20)
(-0.0618279 0.0140843 2.13037e-20)
(-0.0655156 0.0142958 -5.92658e-21)
(-0.0691471 0.014692 8.53856e-21)
(-0.0727872 0.0152809 9.88808e-20)
(-0.0764621 0.0160642 -1.38754e-20)
(-0.0801434 0.0170422 -1.00541e-19)
(-0.0841018 0.0181833 1.32598e-19)
(-0.0010546 0.0040833 4.05589e-20)
(-0.00409281 0.0101261 -5.72815e-20)
(-0.00874777 0.0143682 -1.43693e-20)
(-0.0141176 0.0172297 2.68689e-20)
(-0.0197442 0.0190298 7.62875e-20)
(-0.0253777 0.0200264 1.67022e-19)
(-0.0308427 0.020437 1.63206e-19)
(-0.0360291 0.0204432 1.35613e-20)
(-0.0408793 0.0201966 1.00086e-19)
(-0.0453743 0.0198235 1.53198e-19)
(-0.0495232 0.0194292 -1.22417e-19)
(-0.0533557 0.0191008 1.81172e-19)
(-0.0569164 0.0189095 -4.10339e-20)
(-0.0602603 0.0189113 1.03465e-20)
(-0.0634491 0.0191483 4.28541e-20)
(-0.0665518 0.019648 5.69559e-20)
(-0.0696395 0.0204241 -8.96255e-20)
(-0.0727439 0.0214818 -7.48179e-20)
(-0.0758371 0.0228238 -1.32431e-19)
(-0.0792035 0.0244049 1.92823e-19)
(-0.00140422 0.00516004 -2.11896e-20)
(-0.00493365 0.012795 -2.16909e-19)
(-0.00988375 0.0181471 -6.41585e-20)
(-0.0153963 0.0217448 -1.56346e-19)
(-0.0210418 0.0239908 5.91013e-20)
(-0.0265906 0.0252107 -9.32067e-20)
(-0.0318829 0.0256789 3.20586e-20)
(-0.0368199 0.0256248 -1.97417e-19)
(-0.0413522 0.0252399 1.04151e-19)
(-0.0454659 0.0246845 -1.24202e-19)
(-0.0491737 0.0240932 -1.10458e-19)
(-0.0525079 0.0235787 -1.23687e-19)
(-0.055516 0.0232345 1.12276e-19)
(-0.0582561 0.0231361 -1.00816e-19)
(-0.0607947 0.0233419 1.40384e-19)
(-0.0632071 0.0238925 4.05793e-20)
(-0.0655731 0.0248102 1.00455e-19)
(-0.0679324 0.0261066 4.41021e-20)
(-0.0702596 0.0277901 -1.74596e-19)
(-0.0728586 0.0298013 2.84147e-19)
(-0.00183319 0.00618739 9.34266e-20)
(-0.0059669 0.0153387 7.18189e-21)
(-0.011282 0.0217426 3.8485e-20)
(-0.0169725 0.0260296 1.3428e-19)
(-0.0226435 0.0286819 -2.05519e-20)
(-0.0280908 0.0300891 2.18055e-19)
(-0.0331746 0.0305794 9.67865e-20)
(-0.0378103 0.0304268 8.13695e-21)
(-0.0419584 0.0298604 2.48875e-19)
(-0.0456117 0.0290729 8.15511e-20)
(-0.0487867 0.0282272 3.86886e-20)
(-0.0515186 0.0274618 1.22785e-19)
(-0.0538576 0.0268937 1.12553e-19)
(-0.0558654 0.0266203 2.05489e-19)
(-0.0576135 0.02672 -1.83671e-19)
(-0.0591851 0.0272503 2.59662e-19)
(-0.0606708 0.0282471 3.43094e-21)
(-0.0621215 0.0297332 -3.31953e-19)
(-0.0635175 0.031727 4.30378e-19)
(-0.0651904 0.0341555 1.78281e-19)
(-0.00233725 0.00715888 -5.50582e-20)
(-0.00718171 0.0177385 -9.99477e-20)
(-0.0129274 0.0251257 -2.07969e-19)
(-0.0188276 0.0300473 -6.16293e-21)
(-0.0245288 0.0330606 3.54907e-20)
(-0.0298575 0.0346151 -2.65553e-19)
(-0.0346978 0.0350887 -1.97011e-19)
(-0.0389829 0.0347966 -2.81808e-20)
(-0.0426854 0.0340022 -2.49203e-19)
(-0.0458055 0.0329279 -1.72545e-19)
(-0.0483646 0.0317634 -5.02859e-20)
(-0.0504004 0.0306722 -1.61924e-19)
(-0.0519653 0.0297959 -2.6368e-21)
(-0.0531241 0.0292563 -2.1505e-19)
(-0.0539536 0.0291556 9.04709e-20)
(-0.0545455 0.0295742 -1.03217e-19)
(-0.0550035 0.0305678 7.90921e-20)
(-0.0553934 0.0321774 -1.00612e-19)
(-0.0557059 0.0344392 -2.87651e-19)
(-0.0563112 0.0372685 -8.74069e-20)
(-0.00291169 0.00806947 -2.02716e-20)
(-0.00856499 0.0199786 -2.20122e-20)
(-0.0147996 0.0282716 1.74372e-19)
(-0.0209354 0.0337667 -2.83761e-19)
(-0.0266664 0.0370917 4.16289e-20)
(-0.0318553 0.038752 -1.63913e-19)
(-0.0364148 0.0391704 7.74555e-20)
(-0.0402993 0.038699 3.4815e-19)
(-0.0434958 0.0376313 -2.23324e-20)
(-0.0460139 0.0362157 -2.59729e-19)
(-0.0478797 0.0346658 4.71909e-20)
(-0.0491336 0.0331687 9.149e-21)
(-0.0498291 0.0318906 -5.33342e-20)
(-0.0500332 0.0309794 5.38733e-21)
(-0.0498271 0.0305657 4.68558e-19)
(-0.0493115 0.030759 -6.67147e-20)
(-0.0486048 0.0316441 -1.30164e-19)
(-0.0477915 0.0332902 -2.33584e-19)
(-0.0468798 0.0357625 2.38287e-19)
(-0.0462929 0.0389702 1.02704e-19)
(-0.00355131 0.00891508 1.0233e-19)
(-0.0101009 0.0220453 -1.33887e-19)
(-0.0168726 0.0311586 1.89284e-19)
(-0.0232596 0.0371608 1.90541e-19)
(-0.0290103 0.0407464 1.75643e-19)
(-0.0340293 0.0424719 3.56158e-19)
(-0.0382628 0.0428007 2.30313e-19)
(-0.0416903 0.0421161 -4.94907e-19)
(-0.0443162 0.040737 2.53108e-19)
(-0.0461608 0.0389328 1.98617e-19)
(-0.0472563 0.0369367 -2.8213e-21)
(-0.047645 0.0349562 2.2234e-19)
(-0.0473811 0.0331802 1.73346e-19)
(-0.0465317 0.0317838 -9.42934e-20)
(-0.0451811 0.0309295 3.18645e-19)
(-0.0434382 0.0307631 -3.95004e-19)
(-0.0414373 0.0314088 1.58115e-19)
(-0.039285 0.0329787 2.03364e-19)
(-0.0370152 0.035584 -4.73965e-20)
(-0.0351254 0.0391377 4.08267e-19)
(-0.0042503 0.00969188 2.05666e-19)
(-0.0117704 0.0239254 1.0662e-20)
(-0.0191125 0.0337664 -7.38096e-20)
(-0.0257515 0.0402056 -7.79567e-20)
(-0.0314965 0.0440004 -3.61011e-19)
(-0.0363001 0.0457545 5.11252e-20)
(-0.0401471 0.0459668 1.4484e-19)
(-0.0430465 0.0450466 -6.96682e-20)
(-0.0450233 0.043332 5.74679e-20)
(-0.0461112 0.0411078 -1.52366e-20)
(-0.0463496 0.0386208 -7.50665e-20)
(-0.0457833 0.0360934 7.12697e-20)
(-0.0444658 0.0337333 -3.09868e-19)
(-0.0424631 0.0317409 2.97055e-19)
(-0.03986 0.0303122 -2.57312e-19)
(-0.0367718 0.0296358 7.94842e-20)
(-0.0333487 0.0298868 1.80877e-19)
(-0.0297219 0.031239 -3.76207e-20)
(-0.0259611 0.0338733 -1.25189e-19)
(-0.0226659 0.0377254 -8.50484e-20)
(-0.00500184 0.0103956 -2.56196e-19)
(-0.0135501 0.0256055 -1.68457e-20)
(-0.0214774 0.0360747 5.39509e-20)
(-0.0283483 0.0428772 1.38696e-19)
(-0.03404 0.0468311 -1.95809e-19)
(-0.0385591 0.0485832 -1.70865e-19)
(-0.0419343 0.0486633 3.9881e-19)
(-0.0442086 0.0475016 -2.20372e-19)
(-0.0454317 0.0454493 -1.42155e-19)
(-0.0456539 0.0427996 -2.03973e-19)
(-0.0449238 0.0398058 1.3503e-19)
(-0.0432904 0.0366976 -3.6521e-21)
(-0.0408065 0.0336946 -2.52163e-19)
(-0.0375354 0.0310165 -4.12504e-19)
(-0.0335601 0.0288908 3.14265e-19)
(-0.0289994 0.0275517 -2.54632e-19)
(-0.0240179 0.0272364 3.61028e-19)
(-0.0187728 0.0282011 -1.01126e-19)
(-0.0133781 0.0307301 2.12663e-19)
(-0.0085742 0.0348115 -7.21303e-19)
(-0.00579782 0.0110212 -5.18891e-19)
(-0.0154119 0.0270702 3.40214e-19)
(-0.0239152 0.038061 4.62676e-20)
(-0.0309713 0.0451501 8.94936e-21)
(-0.0365324 0.0492142 -2.09743e-19)
(-0.0406649 0.050941 3.08433e-19)
(-0.0434469 0.050887 3.36664e-20)
(-0.0449599 0.0494986 -6.32456e-20)
(-0.0452825 0.0471347 -2.03e-19)
(-0.0444857 0.0440901 2.19434e-19)
(-0.0426313 0.0406168 5.56336e-19)
(-0.0397747 0.0369425 -1.22906e-19)
(-0.0359702 0.0332882 2.77722e-19)
(-0.0312786 0.0298831 -3.28056e-19)
(-0.0257794 0.0269774 -3.14553e-19)
(-0.0195925 0.0248476 1.89137e-19)
(-0.0128937 0.0237983 3.12504e-19)
(-0.00586504 0.0241893 -1.01265e-18)
(0.00132996 0.0264494 1.18897e-19)
(0.00776052 0.0306636 1.61632e-19)
(-0.0066285 0.0115622 3.84244e-19)
(-0.0173223 0.0283017 1.26388e-19)
(-0.0263637 0.0396993 6.58334e-19)
(-0.033525 0.0469942 3.38728e-20)
(-0.0388404 0.0511208 -7.32117e-20)
(-0.0424414 0.0528057 -3.48621e-19)
(-0.0444601 0.0526299 2.96472e-19)
(-0.0450208 0.0510524 5.31897e-19)
(-0.0442358 0.0484358 3.54374e-19)
(-0.0422008 0.0450713 2.55841e-19)
(-0.0389959 0.041202 2.20557e-19)
(-0.0346881 0.0370443 -3.96063e-19)
(-0.0293374 0.0328082 -1.24064e-19)
(-0.0230057 0.0287176 -9.13674e-20)
(-0.0157704 0.0250298 9.79112e-19)
(-0.00775078 0.0220499 -3.36525e-21)
(0.000868077 0.0201439 -2.44006e-19)
(0.00988421 0.0197879 -7.69785e-20)
(0.0190866 0.021601 7.00306e-19)
(0.0272962 0.0258248 9.19078e-20)
(-0.00748237 0.0120112 -1.89508e-20)
(-0.0192419 0.0292795 -3.6346e-19)
(-0.0287495 0.0409601 -5.40683e-19)
(-0.0358966 0.0483743 -1.50439e-19)
(-0.0408054 0.0525145 8.30701e-20)
(-0.0436771 0.0541458 1.78889e-20)
(-0.0447012 0.0538726 4.7438e-19)
(-0.0440486 0.0521653 -5.88339e-19)
(-0.0418687 0.0493881 -2.23791e-19)
(-0.038287 0.045826 -4.51007e-19)
(-0.0334073 0.041709 -3.8414e-19)
(-0.0273153 0.0372343 -3.40141e-19)
(-0.020085 0.0325895 8.5045e-20)
(-0.0117873 0.0279762 -1.10423e-19)
(-0.00250407 0.0236365 4.73116e-19)
(0.00764198 0.019878 -2.59334e-19)
(0.0184563 0.0171043 -8.12841e-19)
(0.0297228 0.0159001 -1.64004e-19)
(0.0411993 0.0171139 4.01151e-19)
(0.0514009 0.0212128 -3.49274e-19)
(-0.00834613 0.0123602 -6.13048e-20)
(-0.0211253 0.0299816 4.44517e-19)
(-0.0309885 0.0418102 -5.66899e-19)
(-0.0379562 0.0492498 1.31036e-19)
(-0.042244 0.0533512 -2.69885e-19)
(-0.044126 0.0549186 6.01153e-19)
(-0.0438515 0.0545804 -4.2965e-19)
(-0.0416399 0.052819 4.91561e-19)
(-0.0376801 0.0500017 -4.66073e-19)
(-0.0321312 0.046408 1.98868e-19)
(-0.0251268 0.0422548 -9.65113e-20)
(-0.01678 0.0377185 -2.4232e-19)
(-0.00719013 0.0329572 -2.99412e-19)
(0.00354906 0.0281364 2.98346e-19)
(0.0153367 0.0234589 -2.49853e-19)
(0.0280337 0.0191993 -5.46263e-19)
(0.0414268 0.0157524 5.68693e-19)
(0.0552885 0.0137713 -7.25436e-19)
(0.0693813 0.014343 3.26323e-19)
(0.0818788 0.0182187 8.16635e-21)
(-0.0092049 0.0126013 -5.55798e-19)
(-0.0229211 0.0303852 -6.00067e-19)
(-0.0329854 0.0422153 6.91529e-20)
(-0.0395564 0.0495773 -5.78631e-19)
(-0.042948 0.0535813 -5.14886e-20)
(-0.0435091 0.0550723 -4.2563e-19)
(-0.0415494 0.0547038 -9.7644e-20)
(-0.0373367 0.0529731 -2.85376e-19)
(-0.0311 0.050254 2.53778e-21)
(-0.0230346 0.0468262 -1.2487e-19)
(-0.0133085 0.0428992 8.86598e-21)
(-0.0020711 0.0386339 -3.59844e-19)
(0.0105389 0.034162 3.96614e-19)
(0.024386 0.0296089 -5.6274e-19)
(0.0393264 0.0251232 1.99372e-19)
(0.0551792 0.0209115 7.55635e-21)
(0.0716869 0.0172988 -3.1748e-19)
(0.0885974 0.0149226 7.87217e-19)
(0.105731 0.0150577 -1.8798e-19)
(0.12095 0.0187458 -1.21773e-19)
(-0.0100425 0.0127276 6.23876e-19)
(-0.0245721 0.0304694 3.3685e-19)
(-0.034633 0.0421427 3.13328e-19)
(-0.0405314 0.0493145 4.67746e-20)
(-0.0426838 0.0531556 4.23665e-19)
(-0.0415143 0.0545526 6.10662e-19)
(-0.0373921 0.0541863 4.99986e-19)
(-0.0306317 0.0525719 4.4754e-20)
(-0.0215012 0.0500955 3.66178e-19)
(-0.0102317 0.0470447 5.65817e-19)
(0.00297073 0.0436328 -1.46782e-19)
(0.0179131 0.0400184 2.46346e-19)
(0.034404 0.0363214 1.98924e-19)
(0.0522442 0.0326405 2.02381e-19)
(0.0712169 0.0290743 1.19727e-18)
(0.0910609 0.025748 -4.48758e-19)
(0.111428 0.0228622 -2.73951e-20)
(0.131993 0.0209198 5.20506e-19)
(0.152679 0.0212477 -2.95141e-19)
(0.1712 0.0250922 1.45802e-19)
(-0.0108412 0.0127336 -5.0449e-19)
(-0.0260137 0.0302163 3.2305e-20)
(-0.0358101 0.041565 -4.03792e-19)
(-0.0406943 0.0484273 -5.25573e-20)
(-0.0411889 0.0520347 2.95583e-19)
(-0.0377937 0.0533163 -8.79963e-19)
(-0.0309352 0.0529811 -6.57803e-22)
(-0.020972 0.0515651 4.09534e-19)
(-0.00820845 0.0494719 3.84794e-19)
(0.00708931 0.0470055 -1.69415e-19)
(0.0246761 0.0443959 5.58713e-20)
(0.0443099 0.0418178 1.29586e-19)
(0.0657356 0.039404 -6.13595e-20)
(0.08867 0.0372577 -6.88347e-19)
(0.112789 0.0354636 1.74274e-19)
(0.137702 0.034096 4.79709e-19)
(0.162898 0.0332277 -6.83556e-19)
(0.187877 0.0331337 3.33372e-19)
(0.212656 0.0350229 8.95139e-20)
(0.235166 0.0401611 4.53018e-19)
(-0.011582 0.0126157 -7.44654e-20)
(-0.0271732 0.0296133 -3.53444e-19)
(-0.0363788 0.0404645 1.62645e-19)
(-0.0398322 0.0468964 7.58924e-22)
(-0.0381668 0.0502001 -7.08817e-19)
(-0.0319581 0.0513468 1.10615e-19)
(-0.0216883 0.0510732 -2.10089e-20)
(-0.00775744 0.0499368 1.43104e-19)
(0.00949558 0.0483613 -6.55065e-19)
(0.0297707 0.0466728 -4.59353e-20)
(0.0527832 0.0451277 -1.53927e-19)
(0.0782406 0.0439332 1.36919e-19)
(0.105819 0.043263 4.62298e-19)
(0.135142 0.0432692 -7.14741e-20)
(0.165751 0.0440919 2.77003e-20)
(0.197072 0.045856 1.8205e-19)
(0.228321 0.0486377 -4.49742e-20)
(0.258602 0.0526188 3.67544e-19)
(0.287766 0.0590159 -2.13174e-19)
(0.314347 0.0688265 -3.3708e-19)
(-0.0122428 0.0123717 6.90867e-20)
(-0.0279661 0.0286537 1.68659e-20)
(-0.0361797 0.0388367 1.41722e-19)
(-0.037701 0.0447248 3.47107e-19)
(-0.0332805 0.0476664 1.94784e-19)
(-0.0235709 0.0486724 2.03242e-20)
(-0.00911026 0.0485046 -2.32536e-19)
(0.00965877 0.0477393 5.96082e-20)
(0.032361 0.0468179 3.13539e-19)
(0.0586594 0.0460867 -5.31326e-19)
(0.0882281 0.0458277 4.00961e-19)
(0.120726 0.0462828 -3.02141e-19)
(0.155775 0.0476759 2.56452e-19)
(0.192932 0.0502339 -5.5321e-19)
(0.231667 0.0542121 6.08774e-19)
(0.271296 0.0599096 -6.51196e-19)
(0.310852 0.0676685 -1.69395e-19)
(0.349001 0.078125 5.32135e-19)
(0.384569 0.0933324 -1.79614e-19)
(0.414248 0.113707 7.97633e-20)
(-0.0127975 0.0120004 -5.22756e-20)
(-0.0282933 0.0273371 4.93347e-19)
(-0.0350269 0.036693 -2.06646e-21)
(-0.0340194 0.0419436 -3.06267e-19)
(-0.0261465 0.0444907 -2.05969e-19)
(-0.0121434 0.0453808 3.77349e-19)
(0.0073904 0.0453954 -1.49462e-19)
(0.0319614 0.0451229 -1.88285e-20)
(0.0611453 0.0450137 3.11534e-19)
(0.0945524 0.0454213 -3.87022e-19)
(0.131798 0.0466345 4.24499e-20)
(0.172482 0.0489033 -5.03261e-19)
(0.216171 0.0524637 2.65075e-19)
(0.262402 0.0575658 -7.58612e-19)
(0.310683 0.0645114 1.20884e-18)
(0.360512 0.0737047 -2.21479e-19)
(0.411407 0.0857668 2.31323e-19)
(0.463195 0.102079 -6.0057e-19)
(0.51633 0.125678 3.76323e-21)
(0.562741 0.152648 6.82407e-19)
(-0.0132135 0.0115006 -1.5835e-19)
(-0.0280366 0.0256691 1.368e-19)
(-0.0327039 0.0340617 -5.03871e-19)
(-0.0284649 0.0386156 7.45275e-19)
(-0.0163335 0.0407792 -5.38071e-19)
(0.0028622 0.0416285 2.77763e-20)
(0.0284462 0.0419572 -5.80265e-19)
(0.0598523 0.0423556 4.14892e-19)
(0.0965763 0.0432683 -5.92693e-20)
(0.138135 0.0450346 -3.66199e-19)
(0.184037 0.047919 -2.13737e-19)
(0.233762 0.0521325 2.25843e-19)
(0.286762 0.0578517 1.49399e-19)
(0.342469 0.0652361 -6.61285e-19)
(0.400327 0.0744438 2.38707e-19)
(0.459839 0.0856443 -3.52298e-19)
(0.520628 0.0990375 4.26904e-20)
(0.582657 0.115049 -2.99543e-19)
(0.64673 0.134844 1.22859e-19)
(0.705641 0.154642 -4.49522e-19)
(-0.0134493 0.0108704 4.50806e-19)
(-0.0270554 0.0236614 -2.73052e-19)
(-0.0289608 0.0309894 2.24992e-19)
(-0.0206745 0.0348369 -2.8405e-19)
(-0.00336722 0.0366883 4.76112e-19)
(0.0220199 0.0376418 -8.32063e-21)
(0.0547064 0.0384926 -5.797e-20)
(0.0940125 0.0398192 -4.29862e-20)
(0.139301 0.0420416 2.6458e-19)
(0.189927 0.0454605 4.49938e-19)
(0.245213 0.050283 -2.6578e-19)
(0.304433 0.0566416 2.58436e-19)
(0.366819 0.0646072 4.72154e-19)
(0.431591 0.0741995 -3.31058e-19)
(0.497985 0.085392 -6.72695e-19)
(0.565306 0.0981086 1.23031e-18)
(0.632972 0.112207 -2.19673e-19)
(0.700596 0.127517 -7.1395e-20)
(0.768351 0.144353 7.69373e-19)
(0.831137 0.161932 -1.62825e-19)
(-0.0134529 0.0101078 -7.33858e-19)
(-0.0251848 0.0213326 -4.88526e-19)
(-0.0235155 0.0275415 -1.87535e-19)
(-0.0102508 0.030736 3.61825e-19)
(0.0132544 0.0324224 -8.16893e-19)
(0.0459128 0.0337092 4.23077e-19)
(0.0867919 0.0353791 5.36236e-20)
(0.135036 0.0379797 5.42379e-20)
(0.189794 0.0418823 -5.54242e-19)
(0.25017 0.0473182 -1.95733e-19)
(0.315202 0.054403 -3.45077e-19)
(0.38386 0.0631544 3.33303e-19)
(0.45507 0.0735057 9.46289e-20)
(0.527756 0.085317 1.85178e-20)
(0.600883 0.098383 4.34626e-19)
(0.673508 0.112434 -4.40221e-19)
(0.744815 0.127129 -1.82786e-20)
(0.814153 0.142066 1.12213e-20)
(0.881183 0.157083 6.03159e-20)
(0.943121 0.173779 3.4143e-19)
(-0.0131608 0.00921144 2.33648e-19)
(-0.0222359 0.0187098 6.01763e-19)
(-0.0160583 0.023803 4.82906e-19)
(0.00322548 0.0264737 -1.66468e-19)
(0.0340368 0.028229 5.79032e-19)
(0.0750905 0.0301707 -4.87873e-20)
(0.125232 0.0330476 -6.87258e-20)
(0.183338 0.0373492 4.09153e-20)
(0.248242 0.0433646 5.59861e-19)
(0.318689 0.0512178 3.28995e-19)
(0.39333 0.060893 9.6084e-20)
(0.470749 0.0722574 5.91269e-21)
(0.549514 0.0850814 -6.37589e-19)
(0.628235 0.0990594 5.54013e-19)
(0.705632 0.113827 9.50374e-20)
(0.780581 0.128978 -1.56496e-19)
(0.852152 0.144067 -6.78802e-19)
(0.919634 0.15865 -5.7353e-20)
(0.982498 0.172262 2.68058e-19)
(1.04003 0.188035 -5.45902e-20)
(-0.0124979 0.00818232 -5.92819e-19)
(-0.0179988 0.0158323 2.48036e-19)
(-0.00626091 0.019882 -1.21105e-18)
(0.0201766 0.0222433 4.96038e-19)
(0.0594558 0.0243943 -3.95605e-19)
(0.110018 0.0274047 2.91666e-19)
(0.170388 0.0319576 -4.53155e-19)
(0.239061 0.0384452 4.15971e-20)
(0.314431 0.0470293 -2.3368e-20)
(0.394773 0.0576789 1.21916e-19)
(0.47827 0.0702034 1.76079e-19)
(0.563079 0.0842864 -3.32779e-19)
(0.647418 0.0995203 1.76246e-19)
(0.729653 0.115441 1.61874e-19)
(0.808369 0.131561 6.993e-19)
(0.882424 0.147392 -3.03746e-19)
(0.950967 0.16247 -2.01823e-19)
(1.01345 0.176398 3.39394e-19)
(1.06949 0.188626 1.81002e-19)
(1.11971 0.202952 -3.4072e-19)
(-0.0113791 0.0070265 5.19225e-19)
(-0.0122483 0.012756 5.0065e-19)
(0.00621017 0.015913 1.44464e-19)
(0.0410039 0.0182715 6.08455e-19)
(0.0899189 0.0212388 2.98944e-19)
(0.15102 0.0258154 -5.38935e-19)
(0.222384 0.0325725 8.16332e-19)
(0.301988 0.0417515 -4.01744e-19)
(0.387663 0.0533291 4.01088e-19)
(0.477123 0.0670658 5.19019e-19)
(0.568045 0.0825541 -2.96625e-19)
(0.65819 0.099272 5.63492e-20)
(0.745524 0.116637 3.1422e-19)
(0.828317 0.134056 2.21397e-19)
(0.905215 0.150969 5.09955e-19)
(0.975269 0.166877 -2.04058e-19)
(1.03792 0.181367 -2.51724e-20)
(1.093 0.194148 3.21686e-19)
(1.14048 0.204762 -6.91915e-20)
(1.18179 0.217038 2.80286e-22)
(-0.00971106 0.00575787 -2.6802e-19)
(-0.0047519 0.00955886 -9.85114e-19)
(0.0216781 0.0120622 2.31999e-19)
(0.0660609 0.0148199 -1.76623e-19)
(0.125725 0.0191132 -4.07762e-19)
(0.198225 0.0258192 -2.91184e-19)
(0.281041 0.0353347 -1.79899e-19)
(0.371487 0.0476808 4.3689e-19)
(0.466727 0.0625838 -2.59473e-19)
(0.563875 0.0795427 -2.65758e-19)
(0.660144 0.0979042 -3.36148e-19)
(0.753019 0.116942 -5.54862e-20)
(0.840398 0.135929 -3.76151e-20)
(0.920681 0.1542 -7.7742e-19)
(0.992811 0.171195 3.76865e-19)
(1.05625 0.186481 -4.95624e-19)
(1.11092 0.199766 1.55628e-19)
(1.15713 0.210904 -1.18482e-18)
(1.19537 0.219647 3.5715e-19)
(1.22739 0.229451 4.5158e-19)
(-0.00739611 0.00440082 -6.73092e-20)
(0.00472025 0.00634566 4.80534e-19)
(0.0404368 0.00853108 3.0812e-20)
(0.0956239 0.0121855 7.41413e-20)
(0.167023 0.0183906 -1.50742e-19)
(0.25152 0.0278276 -2.49063e-21)
(0.345833 0.0406372 -3.88193e-21)
(0.446491 0.0565401 -9.0995e-20)
(0.549937 0.0749455 3.22742e-19)
(0.652727 0.0950527 1.24777e-19)
(0.751751 0.115961 5.66557e-19)
(0.844433 0.136773 -1.54465e-19)
(0.928859 0.156683 1.07863e-19)
(1.00382 0.175036 -1.40082e-20)
(1.06878 0.191355 2.98742e-19)
(1.12377 0.205349 1.82785e-19)
(1.16931 0.216899 4.40422e-19)
(1.20621 0.226028 -7.11286e-19)
(1.23543 0.232734 8.94966e-19)
(1.25885 0.239932 -2.8353e-19)
(-0.00433544 0.00299246 -6.26281e-19)
(0.0163838 0.00325167 -1.95544e-19)
(0.0627311 0.00555826 1.52808e-19)
(0.129862 0.0106969 9.63475e-20)
(0.213776 0.0194557 9.8765e-20)
(0.310512 0.0322262 1.00115e-19)
(0.415877 0.0487957 -2.50602e-19)
(0.525533 0.0685006 -1.03628e-19)
(0.635239 0.0903805 3.2146e-20)
(0.741139 0.113326 -3.07043e-19)
(0.840041 0.136226 -1.38904e-19)
(0.929597 0.158086 8.39395e-19)
(1.00837 0.178114 -2.16554e-19)
(1.07576 0.195759 -2.98529e-19)
(1.13194 0.210713 -1.41672e-19)
(1.17758 0.222881 9.81224e-20)
(1.21376 0.232343 1.19651e-19)
(1.24176 0.239294 -5.73457e-19)
(1.26289 0.243949 8.29846e-19)
(1.27899 0.248669 -7.19193e-19)
(-0.000433545 0.00158403 -7.085e-20)
(0.0304277 0.000444266 2.0292e-20)
(0.0887348 0.00341815 -2.59037e-20)
(0.16881 0.0107068 3.78359e-19)
(0.265733 0.0226882 2.08649e-20)
(0.374518 0.0393496 1.38974e-19)
(0.489948 0.06002 -2.88771e-19)
(0.606829 0.0835783 -1.05312e-20)
(0.720374 0.108672 4.01209e-19)
(0.826577 0.133919 5.59279e-20)
(0.922484 0.158075 -3.4958e-19)
(1.00629 0.180156 -3.07164e-20)
(1.07727 0.199493 -2.87232e-19)
(1.13564 0.21573 2.8601e-19)
(1.18228 0.228785 3.9723e-19)
(1.21852 0.238788 -4.37879e-20)
(1.24589 0.246014 -5.3362e-20)
(1.26598 0.250804 1.62687e-19)
(1.28029 0.253533 -5.22919e-19)
(1.29059 0.256075 4.60622e-19)
(0.0043973 0.000241494 7.11828e-20)
(0.0470005 -0.001878 -4.5913e-19)
(0.11853 0.00241518 1.22868e-19)
(0.212341 0.0125787 -3.81226e-19)
(0.322407 0.0284407 1.31097e-19)
(0.442568 0.0494554 -4.86895e-19)
(0.566545 0.0743934 1.96417e-19)
(0.688407 0.101631 -6.25429e-20)
(0.803086 0.129449 -2.54447e-21)
(0.906771 0.156274 6.40081e-20)
(0.997093 0.180849 -2.33125e-19)
(1.07307 0.202323 -3.32859e-19)
(1.13488 0.220251 -6.82556e-20)
(1.18357 0.234538 -3.06419e-20)
(1.22072 0.245359 -7.77456e-20)
(1.24816 0.253061 -2.53271e-20)
(1.26775 0.258081 -7.58144e-20)
(1.28122 0.260866 -6.57315e-20)
(1.29011 0.261885 -1.95541e-19)
(1.29602 0.26262 3.10236e-19)
(0.0102322 -0.000954768 1.71146e-19)
(0.0661973 -0.00348914 -1.90084e-19)
(0.15209 0.0028738 4.09118e-19)
(0.260154 0.0166687 -1.76619e-19)
(0.383083 0.0370147 4.72063e-19)
(0.513449 0.0627011 6.74977e-21)
(0.643987 0.0918623 2.37121e-19)
(0.768272 0.122375 -6.35422e-20)
(0.881322 0.152232 2.65067e-19)
(0.97991 0.179797 1.91554e-20)
(1.06257 0.203942 6.31097e-19)
(1.12933 0.224064 -4.35621e-19)
(1.18134 0.24002 5.87072e-20)
(1.22043 0.252009 1.1202e-19)
(1.24873 0.260453 5.86559e-19)
(1.26841 0.265883 -2.10742e-19)
(1.28148 0.268851 -4.17721e-20)
(1.28965 0.269863 -2.21247e-19)
(1.29441 0.269428 -2.32876e-20)
(1.29714 0.268722 1.10694e-19)
(0.0171286 -0.00191123 -8.21249e-20)
(0.0880472 -0.00414204 2.37272e-19)
(0.189261 0.00512488 -2.42994e-19)
(0.311761 0.0233046 9.59505e-20)
(0.446827 0.0486377 -1.14776e-19)
(0.585768 0.0791287 4.21241e-19)
(0.720529 0.112243 -5.87013e-20)
(0.844564 0.145419 1.44555e-19)
(0.953397 0.176495 -8.51444e-20)
(1.04476 0.20393 -2.25361e-21)
(1.11831 0.226862 9.72424e-20)
(1.17519 0.24503 -7.53548e-20)
(1.21744 0.258632 1.95455e-19)
(1.24755 0.268157 -9.74442e-20)
(1.26801 0.274238 -4.29017e-19)
(1.28116 0.277539 4.26527e-19)
(1.28898 0.278677 -1.9216e-19)
(1.2931 0.278169 1.53447e-19)
(1.2948 0.276531 2.66034e-19)
(1.29531 0.2747 1.09294e-19)
(0.0251212 -0.00252336 2.0437e-19)
(0.112502 -0.00357731 -4.2117e-19)
(0.229754 0.00948932 8.05768e-20)
(0.3665 0.0327649 -5.84713e-20)
(0.512539 0.0634439 -2.35915e-19)
(0.658039 0.0986615 -1.85167e-19)
(0.794499 0.13524 -3.64093e-20)
(0.915696 0.170309 -3.30159e-19)
(1.01809 0.201722 -2.01245e-20)
(1.10066 0.2282 -6.13576e-20)
(1.16433 0.24926 -1.66561e-19)
(1.21129 0.26504 -3.70113e-20)
(1.24435 0.27608 -1.27486e-19)
(1.26644 0.283124 -2.12766e-19)
(1.28025 0.286963 2.17881e-19)
(1.2881 0.288339 3.00204e-20)
(1.29185 0.287887 5.98259e-20)
(1.29294 0.2861 -2.5098e-19)
(1.29247 0.283477 -6.28339e-21)
(1.29146 0.280771 -3.87196e-19)
(0.0342173 -0.00267865 2.24003e-19)
(0.139429 -0.00153394 1.49426e-19)
(0.273147 0.0162605 -2.40988e-19)
(0.423551 0.0452587 3.76324e-19)
(0.578999 0.081464 -4.0588e-20)
(0.728783 0.121113 1.40604e-19)
(0.864402 0.160484 4.86886e-20)
(0.980447 0.196575 1.72503e-19)
(1.07469 0.227454 -1.3508e-19)
(1.14752 0.252245 4.50277e-20)
(1.20112 0.270926 -4.32175e-20)
(1.23862 0.284049 -1.90095e-20)
(1.26338 0.292465 3.61576e-20)
(1.27858 0.297116 -6.6623e-20)
(1.28693 0.298894 -2.04725e-20)
(1.29062 0.298568 -6.26491e-20)
(1.2913 0.296749 -1.0183e-19)
(1.29019 0.293889 6.5747e-20)
(1.28821 0.290461 -9.02055e-20)
(1.28617 0.28706 3.89807e-19)
(0.0443929 -0.00226048 -1.11841e-19)
(0.168605 0.00223859 -3.16896e-19)
(0.318887 0.0256868 -4.2192e-20)
(0.481974 0.0609114 -1.15019e-20)
(0.644943 0.102624 -1.42003e-19)
(0.796614 0.146204 -2.33188e-19)
(0.929009 0.187558 7.63372e-20)
(1.03799 0.223773 -1.049e-19)
(1.1229 0.25331 -1.17553e-19)
(1.18561 0.275817 6.54977e-20)
(1.22946 0.29177 -4.94999e-20)
(1.25829 0.302109 -1.00176e-19)
(1.27582 0.307944 -3.38524e-21)
(1.28529 0.310354 6.78564e-20)
(1.2893 0.310274 -6.92391e-20)
(1.28979 0.308456 9.60799e-20)
(1.28821 0.305465 2.58484e-20)
(1.28555 0.301695 6.51378e-20)
(1.28254 0.297594 1.2697e-19)
(1.27983 0.293621 -1.08769e-19)
(0.0555899 -0.00115269 1.06822e-19)
(0.199721 0.00796773 -9.41805e-21)
(0.366313 0.0379564 4.79601e-20)
(0.540748 0.0797555 -6.50759e-20)
(0.70913 0.12675 5.36391e-21)
(0.860318 0.173592 2.25888e-19)
(0.987397 0.216041 -1.48389e-19)
(1.08788 0.251502 6.28764e-20)
(1.16282 0.278999 5.5454e-20)
(1.21552 0.298769 -1.55855e-19)
(1.25027 0.311783 1.46488e-19)
(1.27142 0.319322 1.30144e-21)
(1.28285 0.32269 -1.03265e-19)
(1.28768 0.323038 1.24479e-19)
(1.2883 0.321297 -4.94159e-20)
(1.28642 0.318174 3.77904e-20)
(1.28322 0.314165 -4.22629e-20)
(1.27948 0.309608 -1.69083e-20)
(1.27579 0.30493 -1.48023e-19)
(1.27264 0.300457 4.53468e-20)
(0.0677144 0.000755443 -3.60039e-20)
(0.232382 0.0158454 9.66574e-20)
(0.414672 0.0531845 1.50763e-20)
(0.598825 0.101728 6.32304e-20)
(0.770408 0.153587 3.01807e-20)
(0.918901 0.202891 1.41484e-20)
(1.03895 0.245522 8.02111e-20)
(1.12999 0.279427 -9.73058e-21)
(1.19481 0.304309 3.53826e-20)
(1.23797 0.321027 5.68582e-20)
(1.26451 0.331009 2.74458e-20)
(1.27906 0.335812 1.97088e-20)
(1.28546 0.336864 7.99316e-20)
(1.28663 0.335333 -7.73788e-20)
(1.28469 0.332109 1.66114e-20)
(1.28107 0.32783 -1.55644e-20)
(1.27672 0.32292 2.40735e-20)
(1.27227 0.317663 2.0174e-20)
(1.26814 0.312469 4.21428e-20)
(1.26471 0.307537 1.76729e-21)
(0.0806376 0.00356391 2.13449e-20)
(0.266122 0.026017 1.94978e-20)
(0.463158 0.0714055 -2.69966e-20)
(0.655173 0.126675 1.68705e-20)
(0.827756 0.182812 9.53453e-21)
(0.971604 0.233699 -2.96619e-20)
(1.08335 0.275626 9.7903e-21)
(1.16446 0.307269 1.76731e-21)
(1.21939 0.329093 1.68906e-20)
(1.25376 0.342566 -4.53e-20)
(1.27309 0.349513 -1.42159e-22)
(1.2821 0.351694 1.25621e-20)
(1.28445 0.350595 -1.00108e-20)
(1.2828 0.347356 1.01285e-20)
(1.27896 0.342797 2.64438e-20)
(1.2741 0.337479 -1.50509e-20)
(1.26898 0.331753 4.18749e-21)
(1.26408 0.325853 1.64978e-20)
(1.25969 0.320181 -2.71998e-20)
(1.25611 0.314805 1.30567e-20)
(0.0941981 0.00735691 5.94769e-20)
(0.300419 0.0385715 -3.23559e-20)
(0.510936 0.0925688 3.81078e-20)
(0.708826 0.15436 -2.83579e-20)
(0.880324 0.214054 -1.27228e-20)
(1.01791 0.265614 3.84674e-21)
(1.12049 0.306011 -1.24912e-20)
(1.19161 0.334804 4.4931e-20)
(1.23719 0.353252 -3.74236e-20)
(1.26367 0.363389 8.78312e-21)
(1.27682 0.367362 -6.54509e-21)
(1.28129 0.367061 -4.26643e-20)
(1.28047 0.363973 4.13926e-20)
(1.2767 0.359176 1.57675e-20)
(1.27149 0.353404 -1.56855e-20)
(1.26578 0.347134 3.68346e-20)
(1.26017 0.340648 -5.38233e-22)
(1.255 0.334142 -3.57512e-20)
(1.25048 0.328011 2.64887e-20)
(1.24684 0.322191 8.35796e-21)
(0.108205 0.0121982 -2.08421e-20)
(0.334708 0.0535357 6.04429e-20)
(0.557183 0.11654 6.9854e-20)
(0.758916 0.184476 -3.29644e-20)
(0.927444 0.246912 5.7357e-20)
(1.05751 0.298245 9.07949e-20)
(1.15048 0.336375 -5.0023e-21)
(1.21187 0.36185 -1.56009e-20)
(1.24885 0.376714 7.70561e-20)
(1.2684 0.383503 3.75821e-20)
(1.27639 0.384606 -6.82581e-21)
(1.27723 0.381975 5.60554e-20)
(1.27399 0.37705 -6.01394e-20)
(1.26867 0.370821 9.36582e-20)
(1.26251 0.363928 -1.56267e-20)
(1.25626 0.356768 4.47945e-20)
(1.25037 0.34956 8.08359e-21)
(1.24507 0.342469 3.20724e-20)
(1.24053 0.335887 -3.05265e-20)
(1.23691 0.329613 7.35844e-21)
(0.122442 0.0181269 -3.24396e-20)
(0.368405 0.0708691 7.69489e-20)
(0.60111 0.143106 5.71799e-20)
(0.80469 0.216658 -8.66899e-21)
(0.968623 0.280966 8.91452e-20)
(1.09029 0.331218 -6.66081e-20)
(1.17355 0.366449 -5.23605e-21)
(1.22572 0.388253 5.88235e-20)
(1.25498 0.399422 1.86888e-20)
(1.26861 0.402911 2.61619e-20)
(1.27238 0.401275 -3.86412e-20)
(1.27039 0.396463 1.00805e-19)
(1.26535 0.389835 1.88371e-20)
(1.25896 0.382278 -8.93282e-20)
(1.25219 0.374336 1.30584e-19)
(1.24564 0.366328 -1.54108e-19)
(1.23962 0.358421 -7.07874e-20)
(1.23433 0.350759 1.17262e-20)
(1.22983 0.343725 6.87614e-20)
(1.22629 0.336984 -1.29685e-19)
(0.136678 0.0251542 -7.29762e-20)
(0.400926 0.0904636 -1.72181e-19)
(0.641994 0.17198 -1.4891e-19)
(0.845536 0.250499 -2.02797e-19)
(1.00354 0.315794 -1.15103e-19)
(1.11627 0.36418 -2.38724e-19)
(1.19002 0.39599 3.03323e-20)
(1.23369 0.413878 -1.26875e-19)