/*--------------------------------*- C++ -*----------------------------------*\
  =========                 |
  \\      /  F ield         | OpenFOAM: The Open Source CFD Toolbox
   \\    /   O peration     | Website:  https://openfoam.org
    \\  /    A nd           | Version:  6.0
     \\/     M anipulation  |
\*---------------------------------------------------------------------------*/
FoamFile
{
    version     2.0;
    format      ascii;
    class       volVectorField;
    location    "28";
    object      U;
}
// * * * * * * * * * * * * * * * * * * * * * * * * * * * * * * * * * * * * * //

dimensions      [0 1 -1 0 0 0 0];

internalField   nonuniform List<vector> 
12500
(
(-0.000264386 0.000445913 -7.86529e-22)
(-0.00154573 0.00120494 1.12605e-20)
(-0.00402123 0.00183749 -1.64263e-20)
(-0.00718575 0.00235946 7.58256e-21)
(-0.0107639 0.00278441 4.56931e-22)
(-0.0145828 0.00312531 -9.43877e-22)
(-0.0185048 0.00339498 -1.39889e-20)
(-0.0224273 0.00360573 7.70956e-21)
(-0.0262795 0.00376902 5.11448e-21)
(-0.0300149 0.00389545 5.21054e-21)
(-0.0336066 0.00399463 -8.8431e-21)
(-0.0370434 0.00407517 5.15721e-21)
(-0.0403261 0.00414467 -2.43391e-21)
(-0.0434648 0.00420975 4.13531e-21)
(-0.0464769 0.00427606 -1.05666e-20)
(-0.0493846 0.00434838 1.52938e-20)
(-0.052214 0.00443058 -2.92063e-21)
(-0.0549928 0.00452574 -1.08454e-20)
(-0.0577496 0.00463616 5.56098e-21)
(-0.0605128 0.00476344 -5.31221e-21)
(-0.063314 0.00490847 4.75829e-21)
(-0.0661847 0.00507151 6.29358e-21)
(-0.0691087 0.00525298 6.38796e-22)
(-0.0720057 0.00545387 -1.80362e-20)
(-0.0751988 0.00566911 1.01091e-20)
(-0.000307621 0.00108029 1.43546e-20)
(-0.00165669 0.00285072 -3.84445e-20)
(-0.00418057 0.00425709 1.14043e-20)
(-0.00737738 0.00535637 7.66149e-21)
(-0.0109739 0.0061954 -6.13826e-21)
(-0.014799 0.00681607 -3.50307e-20)
(-0.0187163 0.00725752 1.04584e-20)
(-0.0226249 0.00755549 -1.98209e-20)
(-0.0264546 0.00774222 2.3794e-20)
(-0.03016 0.00784658 -3.1861e-20)
(-0.0337149 0.0078942 1.7056e-20)
(-0.0371086 0.00790771 5.52453e-21)
(-0.0403422 0.00790686 -1.39497e-20)
(-0.0434263 0.00790876 -6.17537e-21)
(-0.0463787 0.00792794 4.52831e-20)
(-0.049222 0.00797651 -4.01242e-20)
(-0.0519827 0.00806428 9.61115e-21)
(-0.0546891 0.00819883 1.66447e-20)
(-0.0573702 0.00838566 -3.80473e-21)
(-0.060055 0.00862823 2.68746e-20)
(-0.0627758 0.00892794 4.89247e-21)
(-0.065565 0.00928433 -1.75556e-21)
(-0.0684067 0.00969742 -3.40006e-20)
(-0.0712204 0.0101692 3.13057e-20)
(-0.0743298 0.0106831 -6.34156e-20)
(-0.000390745 0.00170905 4.6035e-20)
(-0.00187122 0.00448138 1.58715e-20)
(-0.00449187 0.00665344 -2.09321e-20)
(-0.00775568 0.00832282 9.03985e-21)
(-0.011393 0.0095694 8.50739e-21)
(-0.0152356 0.0104638 3.24321e-20)
(-0.0191499 0.0110712 -4.1365e-20)
(-0.0230371 0.0114506 -6.74919e-21)
(-0.0268291 0.0116548 -2.78933e-20)
(-0.0304819 0.0117308 -2.33586e-20)
(-0.0339706 0.0117202 3.02478e-20)
(-0.0372854 0.0116594 -1.01488e-19)
(-0.0404285 0.0115805 -3.17458e-21)
(-0.0434111 0.011511 -6.11593e-20)
(-0.0462518 0.0114745 -7.21028e-21)
(-0.048974 0.0114906 8.71816e-21)
(-0.0516051 0.0115753 -4.77019e-20)
(-0.0541744 0.011741 -2.98797e-20)
(-0.056712 0.0119966 -3.54184e-20)
(-0.0592483 0.0123478 5.55568e-20)
(-0.061817 0.0127966 2.03248e-20)
(-0.0644519 0.0133421 -9.04356e-20)
(-0.0671386 0.0139841 -4.35869e-20)
(-0.0697955 0.0147258 -4.87537e-20)
(-0.0727487 0.0155392 1.39633e-19)
(-0.000513408 0.00233014 -1.44066e-21)
(-0.00218843 0.00609098 -3.67028e-20)
(-0.00495387 0.00901677 -1.77193e-20)
(-0.00831913 0.0112454 1.10548e-20)
(-0.0120195 0.0128894 6.92015e-20)
(-0.015891 0.014048 -3.13619e-20)
(-0.0198039 0.014812 6.71488e-20)
(-0.0236626 0.0152635 6.4194e-20)
(-0.027402 0.0154754 3.92141e-20)
(-0.0309801 0.0155127 -5.93056e-22)
(-0.034374 0.0154326 7.9525e-20)
(-0.0375753 0.0152855 1.38008e-20)
(-0.0405873 0.0151155 6.09761e-20)
(-0.0434225 0.0149609 1.40453e-19)
(-0.0461005 0.0148544 -1.63253e-19)
(-0.0486459 0.0148234 2.45882e-19)
(-0.0510874 0.0148906 5.35617e-20)
(-0.0534558 0.0150736 -1.18361e-19)
(-0.055783 0.0153852 -1.68129e-20)
(-0.0581013 0.0158337 4.31452e-20)
(-0.0604466 0.0164224 -2.164e-20)
(-0.0628552 0.0171503 -1.29544e-20)
(-0.0653148 0.018017 -1.26436e-20)
(-0.0677424 0.0190276 -5.09813e-20)
(-0.070468 0.0201421 1.89731e-19)
(-0.000675204 0.00294171 2.39741e-20)
(-0.00260721 0.00767392 -1.15573e-19)
(-0.00556489 0.0113378 1.41082e-19)
(-0.00906552 0.0141112 -5.6496e-20)
(-0.0128507 0.0161393 6.79955e-20)
(-0.0167622 0.0175492 5.57477e-20)
(-0.0206752 0.0184573 2.12588e-20)
(-0.0244986 0.0189681 1.03867e-21)
(-0.0281708 0.0191746 1.20604e-19)
(-0.0316529 0.019159 8.37499e-20)
(-0.0349243 0.0189942 -3.36874e-20)
(-0.0379785 0.0187442 -2.17459e-20)
(-0.0408203 0.0184653 9.19797e-20)
(-0.0434636 0.0182064 1.73665e-20)
(-0.0459294 0.0180097 4.72048e-20)
(-0.0482437 0.0179112 1.13261e-19)
(-0.0504369 0.0179403 -9.80244e-20)
(-0.0525419 0.0181207 7.92633e-20)
(-0.0545927 0.0184698 -1.71091e-19)
(-0.0566244 0.0189995 1.43969e-19)
(-0.0586759 0.0197148 9.27637e-22)
(-0.060787 0.0206151 -1.15048e-19)
(-0.0629482 0.0217007 4.63743e-20)
(-0.0650753 0.0229788 1.05394e-19)
(-0.0675036 0.0243975 -1.6469e-19)
(-0.000875688 0.00354213 1.23989e-19)
(-0.00312617 0.00922506 -1.36638e-19)
(-0.00632265 0.013608 -2.21403e-20)
(-0.0099917 0.0169084 2.80818e-20)
(-0.0138828 0.0193039 -6.10062e-20)
(-0.0178446 0.0209493 -9.56188e-20)
(-0.0217589 0.0219861 -7.98773e-20)
(-0.02554 0.0225408 -1.93414e-20)
(-0.0291308 0.0227257 -1.38651e-19)
(-0.0324962 0.02264 1.10822e-19)
(-0.0356183 0.0223717 -1.72732e-19)
(-0.0384931 0.0219982 8.75885e-20)
(-0.0411271 0.0215878 -2.91587e-20)
(-0.0435358 0.0212004 6.77136e-20)
(-0.0457416 0.0208879 -1.70686e-19)
(-0.0477724 0.020695 8.28931e-20)
(-0.0496603 0.0206592 6.18524e-21)
(-0.0514407 0.0208107 3.69302e-20)
(-0.0531506 0.0211729 2.2344e-19)
(-0.054828 0.0217618 4.95623e-20)
(-0.0565161 0.0225856 -4.53676e-21)
(-0.0582593 0.0236448 1.41948e-20)
(-0.0600517 0.0249411 9.36807e-20)
(-0.0618081 0.0264848 2.67174e-20)
(-0.063872 0.0282116 9.30498e-20)
(-0.00111438 0.00412993 -7.72567e-20)
(-0.00374364 0.0107396 1.13847e-19)
(-0.00722415 0.0158191 7.18192e-21)
(-0.0110933 0.0196257 -1.40824e-19)
(-0.0151099 0.0223692 2.97823e-19)
(-0.0191314 0.024232 -9.68149e-20)
(-0.0230472 0.0253798 1.42021e-19)
(-0.0267785 0.0259607 1.30546e-19)
(-0.0302736 0.0261055 -1.08487e-19)
(-0.0335018 0.0259301 -1.58516e-19)
(-0.0364488 0.0255366 4.35496e-20)
(-0.039113 0.0250157 -4.60751e-20)
(-0.0415031 0.0244475 -2.04438e-19)
(-0.0436362 0.0239026 2.49066e-19)
(-0.0455363 0.0234432 -1.19766e-19)
(-0.0472331 0.0231233 -8.27875e-20)
(-0.0487607 0.0229891 7.58022e-22)
(-0.0501571 0.0230788 6.792e-20)
(-0.0514627 0.0234226 2.80588e-20)
(-0.0527195 0.0240424 -1.10132e-19)
(-0.0539754 0.0249508 1.25917e-19)
(-0.0552807 0.0261506 -2.19148e-19)
(-0.0566348 0.0276462 1.34025e-19)
(-0.0579519 0.0294527 -1.0277e-19)
(-0.0595862 0.0314927 2.85332e-20)
(-0.00139075 0.0047038 1.12388e-19)
(-0.00445755 0.012213 -8.97212e-20)
(-0.0082654 0.0179633 -5.74827e-20)
(-0.0123642 0.0222525 -1.0214e-19)
(-0.016524 0.0253222 -1.87869e-19)
(-0.0206125 0.0273821 -1.39588e-19)
(-0.0245285 0.0286218 8.744e-20)
(-0.0282011 0.0292098 -1.3307e-19)
(-0.0315854 0.029295 1.69649e-19)
(-0.0346559 0.0290086 -2.77245e-19)
(-0.037402 0.0284666 1.23619e-19)
(-0.0398253 0.0277722 2.62009e-19)
(-0.0419367 0.0270167 -3.69343e-19)
(-0.0437549 0.0262816 5.28959e-20)
(-0.0453056 0.0256395 6.90094e-20)
(-0.0466198 0.0251543 6.69016e-20)
(-0.0477341 0.0248817 -7.20844e-20)
(-0.0486889 0.0248692 -1.7771e-20)
(-0.0495283 0.0251556 -5.31348e-20)
(-0.0502991 0.0257705 -4.44106e-20)
(-0.0510547 0.0267325 -2.44099e-19)
(-0.051853 0.028049 -1.65003e-20)
(-0.0526995 0.0297286 2.66772e-21)
(-0.0535096 0.0317929 -1.10901e-19)
(-0.0546516 0.0341519 1.20961e-19)
(-0.00170421 0.00526242 3.2427e-21)
(-0.00526528 0.0136406 3.66954e-20)
(-0.00944112 0.0200332 3.84762e-20)
(-0.0137961 0.0247785 2.24825e-20)
(-0.0181137 0.0281508 1.91194e-19)
(-0.0222736 0.0303862 1.80569e-19)
(-0.0261858 0.0316977 -1.47543e-19)
(-0.0297888 0.0322734 -4.5113e-20)
(-0.0330453 0.0322791 -4.02455e-20)
(-0.0359361 0.0318605 2.0852e-19)
(-0.0384552 0.0311464 7.51277e-20)
(-0.0406073 0.0302514 -1.09795e-19)
(-0.0424057 0.0292778 -9.32185e-20)
(-0.043871 0.0283174 2.2532e-19)
(-0.0450298 0.0274531 -5.57236e-20)
(-0.0459149 0.0267592 -6.77227e-20)
(-0.0465645 0.0263021 -9.47374e-20)
(-0.0470219 0.0261398 -7.3909e-20)
(-0.0473346 0.0263215 -9.45317e-20)
(-0.0475548 0.0268869 -6.19324e-20)
(-0.0477426 0.0278633 2.57857e-19)
(-0.0479643 0.0292649 -1.27195e-19)
(-0.0482341 0.0311075 8.57887e-20)
(-0.0484699 0.0334219 -2.28474e-19)
(-0.0490589 0.0361054 9.75891e-20)
(-0.002054 0.00580435 -1.0091e-19)
(-0.00616344 0.0150178 -2.72802e-20)
(-0.0107444 0.0220208 -2.14641e-19)
(-0.0153781 0.0271936 -1.03514e-19)
(-0.0198637 0.0308431 -2.05585e-19)
(-0.0240953 0.033232 -2.15555e-20)
(-0.0279956 0.0345952 1.11377e-19)
(-0.0315142 0.03514 -6.81669e-20)
(-0.0346229 0.0350476 1.4757e-19)
(-0.0373094 0.0344769 -3.60059e-19)
(-0.0395731 0.0335684 -1.04612e-20)
(-0.0414224 0.032447 6.42909e-20)
(-0.0428731 0.0312248 -8.1835e-20)
(-0.0439472 0.0300033 7.46794e-20)
(-0.0446726 0.0288754 -5.72684e-20)
(-0.0450829 0.0279261 -1.23021e-19)
(-0.0452178 0.027233 2.24963e-19)
(-0.045123 0.0268662 1.39833e-19)
(-0.0448496 0.0268876 -2.90587e-20)
(-0.044455 0.0273494 9.26486e-20)
(-0.0440071 0.028291 -1.83178e-19)
(-0.0435824 0.0297371 2.64452e-19)
(-0.0432053 0.0317139 -3.61817e-19)
(-0.0427992 0.0342659 7.462e-20)
(-0.0427761 0.0372787 -1.49802e-19)
(-0.00243915 0.00632788 5.47392e-21)
(-0.00714764 0.0163389 -9.31794e-20)
(-0.0121661 0.0239175 1.39022e-19)
(-0.0170958 0.0294872 2.86918e-19)
(-0.0217542 0.0333876 -4.74441e-21)
(-0.0260518 0.0359075 3.2873e-20)
(-0.0299264 0.0373036 -1.24848e-19)
(-0.0333404 0.0378007 5.87538e-20)
(-0.0362759 0.0375942 4.06709e-19)
(-0.0387289 0.036855 -9.26788e-20)
(-0.0407048 0.0357334 -1.09853e-19)
(-0.0422162 0.0343631 4.16705e-19)
(-0.0432817 0.0328648 1.36507e-19)
(-0.0439247 0.0313485 6.51751e-20)
(-0.0441739 0.0299164 6.69073e-20)
(-0.0440635 0.0286638 1.82827e-19)
(-0.0436338 0.0276801 -7.04307e-20)
(-0.0429323 0.0270487 1.86621e-19)
(-0.0420133 0.026846 2.53088e-19)
(-0.0409396 0.0271403 -2.16319e-19)
(-0.0397873 0.0279868 3.22022e-19)
(-0.0386445 0.0294252 1.15067e-19)
(-0.0375484 0.0314976 -4.37499e-19)
(-0.0364311 0.0342678 6.33724e-19)
(-0.0357374 0.0376119 -5.42999e-19)
(-0.00285832 0.00683081 -2.56871e-19)
(-0.00821218 0.0175976 1.45348e-19)
(-0.0136946 0.0257138 -9.82216e-20)
(-0.0189308 0.0316477 -9.39165e-20)
(-0.0237593 0.0357719 -1.01971e-19)
(-0.0281098 0.0384012 -1.11258e-19)
(-0.0319372 0.0398131 3.07049e-20)
(-0.0352185 0.0402487 2.9304e-19)
(-0.0379479 0.0399165 -6.30749e-20)
(-0.0401306 0.0389974 -1.6491e-19)
(-0.0417793 0.0376499 -1.01091e-19)
(-0.0429114 0.0360149 -4.15115e-20)
(-0.0435486 0.0342193 1.23167e-19)
(-0.0437158 0.0323804 -7.89401e-20)
(-0.0434424 0.030608 -2.58338e-19)
(-0.0427624 0.029007 -2.8581e-19)
(-0.0417162 0.0276781 1.14256e-19)
(-0.040352 0.0267189 -2.13155e-19)
(-0.0387267 0.0262225 1.85472e-19)
(-0.0369079 0.0262759 -5.24976e-19)
(-0.0349802 0.0269551 4.04113e-19)
(-0.033045 0.0283207 -5.35392e-19)
(-0.0311544 0.0304375 -9.99392e-21)
(-0.0292531 0.0333967 -1.80812e-19)
(-0.0278298 0.0370692 5.61403e-19)
(-0.00330965 0.00731039 3.94128e-19)
(-0.00934969 0.0187862 5.99617e-20)
(-0.0153153 0.0273987 -3.96772e-20)
(-0.0208602 0.0336619 -1.68562e-20)
(-0.025847 0.0379823 3.15478e-19)
(-0.0302276 0.0407003 1.03182e-19)
(-0.0339761 0.0421136 9.40466e-20)
(-0.0370862 0.0424784 -7.59867e-20)
(-0.0395657 0.0420146 2.94353e-19)
(-0.0414307 0.0409115 -1.45343e-19)
(-0.042702 0.039334 9.41769e-20)
(-0.0434031 0.0374276 2.40366e-19)
(-0.0435591 0.0353241 -1.36777e-19)
(-0.0431972 0.0331449 1.48568e-19)
(-0.0423468 0.0310058 1.40721e-19)
(-0.0410418 0.0290191 4.82974e-20)
(-0.0393216 0.0272962 -1.19258e-19)
(-0.0372344 0.0259482 3.30683e-19)
(-0.0348382 0.0250861 -3.08419e-20)
(-0.0322046 0.0248189 -3.55795e-20)
(-0.0294268 0.0252478 3.98455e-19)
(-0.02662 0.0264611 -2.83932e-19)
(-0.023854 0.028556 4.79128e-19)
(-0.0210908 0.0316622 -3.97925e-19)
(-0.0188764 0.0356519 5.40781e-19)
(-0.00379066 0.00776316 -1.90362e-19)
(-0.0105509 0.0198956 4.37937e-20)
(-0.0170103 0.028959 -4.59714e-20)
(-0.0228559 0.0355147 -2.19079e-19)
(-0.0279784 0.0400033 1.27922e-20)
(-0.0323542 0.0427906 1.26189e-19)
(-0.0359794 0.0441938 -5.16019e-19)
(-0.0388661 0.0444833 3.87066e-19)
(-0.0410377 0.043889 -3.78536e-19)
(-0.0425226 0.042607 -2.39742e-19)
(-0.0433512 0.0408064 2.15841e-19)
(-0.043554 0.0386355 -4.68755e-19)
(-0.043161 0.0362276 3.96173e-19)
(-0.0422016 0.0337064 -1.26398e-19)
(-0.0407065 0.0311901 -3.62001e-19)
(-0.0387087 0.028796 8.96703e-20)
(-0.0362465 0.0266433 -8.44184e-20)
(-0.0333667 0.0248553 3.18674e-20)
(-0.0301274 0.0235605 -1.14304e-19)
(-0.0266027 0.0228917 -3.79935e-19)
(-0.0228933 0.0229799 8.5299e-20)
(-0.0191291 0.0239487 -1.46269e-22)
(-0.0153993 0.0259386 -3.9373e-19)
(-0.0116879 0.0291335 2.77096e-19)
(-0.00861606 0.0334177 -2.52967e-19)
(-0.00429808 0.00818499 7.7052e-20)
(-0.0118042 0.0209152 1.47275e-19)
(-0.0187576 0.0303799 2.07552e-19)
(-0.0248844 0.0371886 1.07458e-19)
(-0.0301071 0.0418165 -1.06024e-19)
(-0.0344291 0.044655 2.54378e-19)
(-0.0378708 0.0460399 1.89231e-19)
(-0.040465 0.0462551 -6.92354e-20)
(-0.0422522 0.0455393 2.48339e-19)
(-0.043275 0.0440939 -2.56548e-19)
(-0.0435748 0.0420904 -7.55325e-20)
(-0.0431907 0.0396777 7.6948e-20)
(-0.0421585 0.0369883 1.52954e-19)
(-0.0405118 0.0341445 1.84032e-21)
(-0.0382828 0.031264 9.73776e-20)
(-0.0355046 0.0284648 1.80232e-19)
(-0.0322143 0.02587 -3.0767e-19)
(-0.0284566 0.0236117 3.83375e-19)
(-0.0242884 0.0218335 1.29602e-19)
(-0.0197848 0.0206914 4.57725e-20)
(-0.0150522 0.0203493 -4.67955e-19)
(-0.0102348 0.0209728 6.63691e-20)
(-0.00544237 0.0227589 1.03089e-19)
(-0.000684996 0.0259656 -2.47605e-20)
(0.00331883 0.0305056 1.24216e-19)
(-0.00482777 0.00857106 6.03524e-21)
(-0.0130957 0.0218327 -3.79368e-19)
(-0.0205317 0.0316442 -9.52231e-21)
(-0.0269068 0.0386635 -9.69849e-20)
(-0.0321789 0.0434008 -6.41256e-19)
(-0.0363814 0.0462728 5.56822e-19)
(-0.039561 0.0476341 -3.98303e-19)
(-0.0417731 0.0477812 -2.01438e-20)
(-0.043077 0.0469608 -1.89931e-19)
(-0.0435309 0.0453785 3.29784e-19)
(-0.0431891 0.043207 -3.56359e-19)
(-0.0421007 0.0405939 -1.67449e-19)
(-0.0403095 0.0376685 3.54524e-21)
(-0.0378546 0.0345488 -3.64611e-19)
(-0.0347717 0.0313478 4.98962e-19)
(-0.0310956 0.02818 -5.7962e-19)
(-0.0268629 0.0251668 1.16142e-21)
(-0.0221168 0.0224433 8.92637e-20)
(-0.0169121 0.0201628 -2.23803e-19)
(-0.0113231 0.0185011 2.17526e-19)
(-0.00546033 0.0176539 -3.09275e-19)
(0.000519772 0.0178338 -2.04678e-19)
(0.00648703 0.0193071 3.82058e-19)
(0.0124033 0.0224307 -4.17506e-19)
(0.0174267 0.0271684 -8.45534e-21)
(-0.00537466 0.0089161 -3.09329e-19)
(-0.0144091 0.0226348 3.68378e-19)
(-0.0223029 0.032733 -1.14492e-19)
(-0.0288784 0.0399168 2.21849e-19)
(-0.0341323 0.0447314 2.40697e-19)
(-0.0381305 0.0476195 -2.13224e-19)
(-0.040948 0.0489538 -1.421e-19)
(-0.0426643 0.0490434 -1.70959e-19)
(-0.0433591 0.0481427 1.57235e-19)
(-0.0431077 0.0464608 -1.05357e-20)
(-0.0419785 0.0441709 2.31062e-19)
(-0.0400326 0.0414181 2.28568e-19)
(-0.0373238 0.0383271 -2.73929e-19)
(-0.0338991 0.0350092 5.39639e-19)
(-0.0298004 0.0315692 -3.58889e-19)
(-0.0250665 0.028113 -6.17046e-20)
(-0.0197364 0.0247543 7.0276e-19)
(-0.0138536 0.0216232 -3.26228e-19)
(-0.00747139 0.0188743 2.08282e-19)
(-0.000662689 0.0166946 4.07668e-19)
(0.00646037 0.0153057 -2.65067e-19)
(0.0137312 0.0149662 2.80007e-20)
(0.0210022 0.0160212 -1.82829e-20)
(0.0282094 0.0189542 -1.09193e-19)
(0.0343591 0.0238108 2.16732e-19)
(-0.00593281 0.00921459 7.06887e-20)
(-0.0157253 0.0233075 -2.33484e-19)
(-0.0240377 0.033626 1.28533e-19)
(-0.0307491 0.0409237 -1.59145e-21)
(-0.0358984 0.045781 9.79939e-20)
(-0.0395862 0.0486665 -1.69573e-19)
(-0.0419175 0.0499713 9.75305e-20)
(-0.0429972 0.0500171 2.66882e-19)
(-0.0429263 0.0490658 -8.14004e-21)
(-0.0417982 0.0473306 -1.37499e-19)
(-0.039697 0.0449851 1.38779e-19)
(-0.0366974 0.042172 -3.23471e-21)
(-0.0328651 0.0390108 -4.42601e-19)
(-0.0282578 0.0356047 1.64658e-19)
(-0.0229271 0.0320485 3.64933e-20)
(-0.0169201 0.0284353 -6.43634e-20)
(-0.0102821 0.0248651 -1.15067e-19)
(-0.00306099 0.0214543 4.42249e-19)
(0.00468799 0.0183471 1.0806e-19)
(0.012892 0.0157283 -2.32086e-19)
(0.0214381 0.0138317 -2.79303e-20)
(0.0301526 0.0129513 3.2074e-19)
(0.038876 0.0135122 -1.50073e-19)
(0.0475283 0.0161505 6.45479e-20)
(0.0549375 0.0210305 4.58558e-20)
(-0.00649548 0.00946104 -1.41562e-19)
(-0.0170233 0.0238363 1.46067e-19)
(-0.0256986 0.0343022 -8.29165e-20)
(-0.0324631 0.0416581 -2.67937e-19)
(-0.0374008 0.0465198 -2.48173e-19)
(-0.0406489 0.0493818 -1.10475e-19)
(-0.0423433 0.050654 -9.19585e-20)
(-0.0426154 0.0506707 -2.73346e-19)
(-0.0415881 0.0497023 -1.10908e-19)
(-0.0393734 0.0479664 1.01513e-19)
(-0.0360719 0.0456382 -1.45526e-19)
(-0.0317729 0.0428592 -1.54219e-19)
(-0.0265561 0.0397446 -1.45174e-19)
(-0.0204932 0.0363907 2.64417e-19)
(-0.013649 0.0328815 -5.57073e-19)
(-0.00608389 0.0292961 3.18912e-19)
(0.00214398 0.0257165 -5.46896e-19)
(0.0109756 0.0222376 -8.4471e-20)
(0.0203469 0.0189811 -3.01689e-19)
(0.0301798 0.016112 -7.05921e-20)
(0.0403583 0.0138538 -8.63001e-20)
(0.0507026 0.0125123 -2.88748e-19)
(0.0610493 0.0125766 -3.1658e-20)
(0.0713237 0.0148516 1.77323e-19)
(0.0801603 0.0196581 -4.8497e-19)
(-0.00705526 0.00965035 1.21435e-19)
(-0.0182796 0.0242077 1.64882e-19)
(-0.0272447 0.0347411 5.81647e-19)
(-0.0339596 0.0420941 -1.028e-19)
(-0.0385563 0.0469174 2.46141e-19)
(-0.0412098 0.049732 5.89666e-19)
(-0.0420882 0.0509664 -1.61548e-19)
(-0.0413493 0.0509682 2.19704e-19)
(-0.0391379 0.0500168 1.28731e-19)
(-0.0355849 0.0483358 2.3425e-19)
(-0.0308071 0.0461036 -4.70993e-20)
(-0.0249096 0.0434627 3.19426e-20)
(-0.0179875 0.0405268 -8.28845e-20)
(-0.0101283 0.0373881 4.49938e-19)
(-0.00141439 0.0341228 5.77597e-20)
(0.00807481 0.0307976 4.19551e-19)
(0.0182608 0.0274765 -1.0754e-19)
(0.0290637 0.0242295 3.85509e-19)
(0.0403994 0.0211462 5.41779e-20)
(0.0521734 0.018354 1.96725e-19)
(0.0642579 0.0160385 -8.50492e-20)
(0.0764632 0.0144777 -1.51122e-20)
(0.0886279 0.0141839 4.70198e-19)
(0.10072 0.0161215 2.89608e-19)
(0.111194 0.0207925 -1.26802e-19)
(-0.00760421 0.00977807 -2.94328e-19)
(-0.0194689 0.0244092 -3.09708e-19)
(-0.0286312 0.0349235 -3.26031e-19)
(-0.0351721 0.0422071 1.20256e-19)
(-0.039274 0.0469449 -2.42996e-19)
(-0.0411508 0.0496843 -3.64083e-20)
(-0.0410033 0.0508729 -9.64899e-20)
(-0.0390156 0.0508719 -4.02064e-19)
(-0.035354 0.0499704 -6.30276e-20)
(-0.0301674 0.0483994 1.04001e-19)
(-0.0235887 0.0463427 -3.27486e-19)
(-0.0157382 0.0439468 4.55569e-19)
(-0.00672707 0.0413281 -6.2055e-19)
(0.0033394 0.0385792 1.49827e-19)
(0.0143583 0.0357744 -3.82092e-19)
(0.026226 0.0329743 -3.10792e-19)
(0.0388357 0.0302305 -1.77117e-20)
(0.052075 0.027592 -4.71505e-20)
(0.0658249 0.0251151 3.73304e-20)
(0.0799564 0.0228793 -1.789e-19)
(0.0943114 0.0210061 -1.24047e-19)
(0.108674 0.0196974 1.5272e-19)
(0.122883 0.0194166 -4.23148e-19)
(0.136999 0.0212302 1.3779e-19)
(0.149364 0.025805 1.02684e-19)
(-0.00813401 0.00984064 -5.2223e-20)
(-0.0205637 0.0244301 -8.99638e-20)
(-0.0298094 0.034833 3.51971e-19)
(-0.036028 0.0419756 1.31767e-19)
(-0.0394546 0.0465769 1.75444e-19)
(-0.0403435 0.0492105 -2.35652e-19)
(-0.0389278 0.0503426 4.06058e-22)
(-0.0354176 0.0503481 -1.92556e-19)
(-0.0299999 0.0495268 3.57533e-19)
(-0.0228405 0.048118 1.17162e-19)
(-0.0140873 0.0463133 1.31883e-19)
(-0.00387534 0.044266 -5.26491e-19)
(0.00766882 0.0420995 6.51405e-19)
(0.0204217 0.039913 -1.96299e-19)
(0.0342581 0.0377865 -1.40843e-19)
(0.049047 0.0357843 4.22829e-19)
(0.0646467 0.0339579 1.89096e-19)
(0.0809021 0.0323482 -4.79802e-19)
(0.097643 0.0309906 -2.0069e-19)
(0.114683 0.0299227 6.06997e-19)
(0.131804 0.0291934 -4.64689e-19)
(0.148733 0.0288854 2.79961e-19)
(0.165274 0.0293131 1.56753e-19)
(0.181633 0.0315184 -2.01977e-19)
(0.196204 0.036245 -2.03635e-19)
(-0.00863593 0.00983547 -1.92111e-19)
(-0.0215343 0.0242621 3.09857e-19)
(-0.0307258 0.0344567 1.32913e-19)
(-0.0364475 0.0413834 -1.9322e-19)
(-0.0389898 0.0457947 -3.11186e-20)
(-0.0386475 0.0482901 -2.04994e-19)
(-0.035687 0.0493538 -8.2097e-20)
(-0.0303434 0.049374 9.25683e-20)
(-0.0228236 0.0486611 -2.32418e-20)
(-0.0133091 0.0474637 1.76204e-19)
(-0.00196168 0.0459822 -1.53632e-19)
(0.0110702 0.0443793 4.26657e-19)
(0.0256454 0.0427888 -5.30617e-19)
(0.041623 0.0413219 3.31978e-19)
(0.0588562 0.0400723 4.13641e-19)
(0.0771857 0.0391196 -5.99534e-19)
(0.096433 0.0385311 -1.82938e-19)
(0.116394 0.0383619 3.09022e-19)
(0.136835 0.0386549 -1.91231e-19)
(0.157487 0.0394391 1.85035e-19)
(0.178036 0.0407191 -4.49473e-19)
(0.19809 0.0424563 7.50083e-20)
(0.217347 0.0447307 2.94121e-19)
(0.23616 0.0483937 -4.74068e-19)
(0.253295 0.0540817 1.3357e-19)
(-0.00910078 0.00976092 -1.77714e-19)
(-0.0223485 0.0238997 5.78153e-19)
(-0.0313218 0.0337862 1.11776e-19)
(-0.0363428 0.0404211 -3.04008e-19)
(-0.0377594 0.0445893 2.19077e-19)
(-0.0359088 0.0469151 1.11842e-19)
(-0.0310902 0.0479001 1.79557e-19)
(-0.0235639 0.0479449 -1.18148e-20)
(-0.0135559 0.0473696 -1.88425e-20)
(-0.0012627 0.0464318 -3.96424e-20)
(0.0131405 0.0453409 -1.73915e-19)
(0.0294926 0.0442696 -5.89438e-21)
(0.0476388 0.0433634 4.09297e-19)
(0.0674224 0.0427484 -6.73374e-19)
(0.0886775 0.0425371 4.80588e-19)
(0.11122 0.0428336 9.75329e-20)
(0.13484 0.0437368 1.72927e-19)
(0.159288 0.0453428 -8.93589e-20)
(0.184267 0.0477454 7.94851e-19)
(0.209415 0.0510329 -4.93596e-19)
(0.234273 0.0552643 3.95648e-19)
(0.258235 0.0604029 9.34037e-20)
(0.280699 0.0664156 -2.91149e-19)
(0.301964 0.0740282 2.47158e-19)
(0.321552 0.0833364 3.97827e-19)
(-0.00951855 0.00961613 -5.16813e-20)
(-0.0229704 0.0233398 -2.03879e-19)
(-0.0315317 0.0328186 -3.50883e-19)
(-0.0356156 0.0390876 -2.01267e-19)
(-0.0356304 0.0429632 -2.8322e-20)
(-0.0319571 0.0450936 -8.03939e-20)
(-0.0249286 0.0459958 -3.74411e-19)
(-0.014831 0.0460814 6.23291e-20)
(-0.0019093 0.045679 -4.24537e-19)
(0.0136237 0.0450535 -3.30629e-20)
(0.0315788 0.0444214 -4.10393e-19)
(0.0517811 0.0439635 -1.46695e-19)
(0.0740617 0.0438352 8.44691e-20)
(0.0982487 0.0441751 -4.03409e-19)
(0.124161 0.0451127 3.66889e-21)
(0.151598 0.0467765 -3.49565e-19)
(0.180335 0.0493014 1.35329e-19)
(0.210109 0.0528377 -4.90811e-19)
(0.240608 0.0575637 -8.43565e-20)
(0.271442 0.0636985 -1.18225e-20)
(0.302094 0.0714991 -8.36798e-20)
(0.331805 0.0812281 -8.6069e-20)
(0.359589 0.0933263 -4.32891e-20)
(0.38487 0.109081 -1.73477e-19)
(0.406278 0.127153 -3.8445e-19)
(-0.00987816 0.00940082 9.42821e-20)
(-0.0233599 0.022582 2.58487e-19)
(-0.0312822 0.0315563 3.12859e-19)
(-0.0341561 0.0373912 -2.51644e-19)
(-0.0324545 0.0409331 4.69648e-19)
(-0.0266044 0.0428522 -2.56409e-19)
(-0.016974 0.0436795 1.39948e-19)
(-0.00387646 0.0438352 2.19184e-19)
(0.0124211 0.0436539 2.00315e-19)
(0.0316871 0.0434051 9.78013e-20)
(0.053714 0.0433089 1.58678e-19)
(0.0783084 0.0435494 9.25981e-20)
(0.105282 0.0442853 6.27916e-19)
(0.134443 0.045659 -4.57809e-19)
(0.165593 0.0478051 5.24325e-19)
(0.198521 0.0508594 -2.18555e-19)
(0.233002 0.0549696 4.73083e-19)
(0.268799 0.0603093 -2.2525e-20)
(0.305664 0.0670996 -9.84797e-20)
(0.343352 0.0756403 -1.82628e-20)
(0.381625 0.0863509 3.76383e-19)
(0.420305 0.0998763 -3.7033e-19)
(0.459598 0.117518 2.59799e-19)
(0.500207 0.141101 2.90297e-19)
(0.538787 0.164454 6.19709e-20)
(-0.0101667 0.00911487 6.52483e-20)
(-0.0234712 0.0216278 -3.69895e-19)
(-0.0304904 0.0300073 -1.35229e-19)
(-0.0318417 0.0353501 1.24243e-19)
(-0.0280677 0.0385303 -3.85131e-19)
(-0.0196443 0.0402386 -7.64104e-20)
(-0.0069785 0.0410171 5.32371e-20)
(0.00958562 0.0412922 2.11263e-19)
(0.0297542 0.0414013 -5.3732e-19)
(0.0532697 0.0416143 4.101e-20)
(0.0798976 0.04215 -1.58347e-19)
(0.109415 0.0431889 -4.82856e-19)
(0.141601 0.0448833 3.30123e-19)
(0.176231 0.0473661 1.41561e-20)
(0.213073 0.0507581 -9.93684e-21)
(0.251886 0.0551751 3.35794e-19)
(0.292428 0.0607353 -5.95531e-19)
(0.334459 0.0675681 4.72861e-19)
(0.377765 0.0758246 -8.76168e-20)
(0.422175 0.0856881 2.77846e-19)
(0.467595 0.09738 -4.5836e-19)
(0.514079 0.11119 2.64181e-19)
(0.562096 0.127684 -4.76127e-19)
(0.612557 0.147382 4.94767e-19)
(0.660564 0.164002 -1.56737e-19)
(-0.0103687 0.00875807 4.39149e-19)
(-0.023252 0.0204808 -7.43557e-20)
(-0.0290627 0.0281853 5.51136e-19)
(-0.0285358 0.0329927 2.56697e-19)
(-0.0222893 0.0358019 2.06718e-20)
(-0.0108533 0.0373216 1.13327e-19)
(0.00532168 0.0381022 2.74797e-20)
(0.025854 0.0385727 4.66123e-19)
(0.0504141 0.0390698 1.50757e-19)
(0.0787067 0.0398588 -2.02985e-20)
(0.110456 0.0411508 4.08534e-20)
(0.145391 0.0431143 1.57765e-19)
(0.183238 0.0458853 1.32079e-19)
(0.223715 0.0495737 2.83423e-19)
(0.266528 0.0542696 -3.23937e-19)
(0.311377 0.0600478 9.81194e-20)
(0.35796 0.0669716 2.98261e-20)
(0.405985 0.0750955 1.46067e-19)
(0.455189 0.0844664 3.97238e-19)
(0.50536 0.0951209 -2.59533e-19)
(0.556357 0.107072 2.24388e-20)
(0.608133 0.120298 -3.70943e-19)
(0.660867 0.13486 3.52718e-19)
(0.714996 0.150971 -3.44261e-19)
(0.76561 0.164602 3.26033e-20)
(-0.010466 0.00833022 -3.66375e-19)
(-0.0226423 0.0191466 2.90651e-19)
(-0.0268947 0.0261097 -4.7634e-19)
(-0.0240884 0.0303576 4.13607e-20)
(-0.0149247 0.03281 3.39226e-19)
(5.75872e-06 0.0341905 -5.68147e-19)
(0.0202006 0.0350543 4.52863e-19)
(0.0452303 0.035829 -7.21788e-19)
(0.0747156 0.0368452 1.44474e-19)
(0.108307 0.0383582 3.09859e-20)
(0.145664 0.0405635 2.45384e-19)
(0.186446 0.0436092 -8.18361e-19)
(0.230297 0.0476035 1.41803e-19)
(0.276848 0.0526215 1.5065e-19)
(0.32571 0.0587091 -9.06118e-20)
(0.376487 0.0658869 -5.63659e-19)
(0.42878 0.0741513 2.66115e-19)
(0.482202 0.0834756 4.99665e-19)
(0.536393 0.0938077 -5.29039e-19)
(0.591037 0.105064 3.85001e-19)
(0.64587 0.117119 -5.01552e-19)
(0.700689 0.129783 3.65633e-19)
(0.755384 0.142893 -1.02684e-19)
(0.810022 0.156642 5.88508e-19)
(0.860449 0.168921 -6.85737e-19)
(-0.0104366 0.00783105 5.24781e-20)
(-0.0215741 0.017633 4.29257e-20)
(-0.0238711 0.0238055 1.05909e-19)
(-0.0183375 0.0274934 3.80162e-19)
(-0.0057676 0.0296315 -1.19477e-20)
(0.0131777 0.0309542 8.59234e-20)
(0.0379327 0.0320167 3.84189e-19)
(0.0680044 0.03324 1.55724e-19)
(0.102945 0.0349425 -5.15023e-20)
(0.142325 0.0373617 4.40354e-19)
(0.185716 0.0406689 -5.03264e-19)
(0.232672 0.0449809 7.74942e-19)
(0.282726 0.0503673 -3.08513e-19)
(0.335385 0.056856 5.61714e-19)
(0.390138 0.0644382 -1.90249e-19)
(0.446462 0.073071 6.95996e-20)
(0.503834 0.0826802 8.45819e-20)
(0.56175 0.0931612 -1.64155e-19)
(0.619736 0.104378 1.37709e-19)
(0.677364 0.116163 8.8845e-20)
(0.734257 0.128306 1.23249e-19)
(0.790089 0.140549 2.63211e-19)
(0.844585 0.152639 -2.1733e-20)
(0.897628 0.164749 -1.21108e-19)
(0.946145 0.176245 3.74816e-19)
(-0.0102552 0.00726052 -3.06837e-19)
(-0.0199713 0.0159504 3.36631e-20)
(-0.0198665 0.0213041 -6.09265e-19)
(-0.0111117 0.024459 -1.46444e-19)
(0.00539403 0.0263574 -2.7566e-19)
(0.0289065 0.0277387 -5.94667e-20)
(0.0587799 0.0291524 -2.9826e-19)
(0.0944367 0.0310054 -1.79009e-19)
(0.135334 0.033596 2.38082e-19)
(0.180934 0.0371339 -3.99003e-19)
(0.230683 0.0417553 -1.1125e-19)
(0.283999 0.0475334 4.37914e-21)
(0.340267 0.0544864 -7.57171e-19)
(0.398843 0.0625835 3.22967e-19)
(0.459065 0.0717512 -4.73076e-19)
(0.520267 0.0818776 -1.48368e-20)
(0.581794 0.0928174 9.41069e-20)
(0.643027 0.104396 -1.52919e-19)
(0.703393 0.116413 -1.34526e-19)
(0.762381 0.128643 6.77962e-20)
(0.81955 0.140838 7.63337e-20)
(0.874523 0.152725 -4.95186e-19)
(0.926976 0.164034 2.83216e-19)
(0.976742 0.174904 1.44789e-19)
(1.02182 0.185738 4.18518e-20)
(-0.00989242 0.00661932 3.14063e-19)
(-0.0177504 0.0141129 -3.47777e-19)
(-0.0147478 0.0186439 4.9099e-19)
(-0.0022341 0.0213239 7.67558e-20)
(0.0187716 0.023092 -2.36961e-20)
(0.0474245 0.0246858 -1.67922e-19)
(0.0829764 0.0266402 2.53868e-20)
(0.124737 0.029339 2.57672e-19)
(0.172037 0.0330491 -3.57004e-19)
(0.224191 0.0379401 3.76407e-19)
(0.280484 0.0440991 -3.98858e-20)
(0.340162 0.0515414 1.76429e-20)
(0.402431 0.06022 4.94959e-19)
(0.466473 0.0700339 6.65671e-19)
(0.531462 0.0808364 -2.61234e-19)
(0.596588 0.0924437 4.66113e-19)
(0.661082 0.104643 2.38093e-19)
(0.724233 0.1172 -1.45704e-19)
(0.785414 0.129867 4.64887e-19)
(0.844086 0.14239 -1.69801e-20)
(0.899812 0.154512 -4.50903e-19)
(0.952246 0.165976 4.78706e-19)
(1.00112 0.176539 7.03621e-20)
(1.04631 0.186308 -3.00461e-19)
(1.08674 0.196357 9.51463e-20)
(-0.00931552 0.00590949 -4.3724e-19)
(-0.0148214 0.0121395 4.74158e-19)
(-0.00837648 0.0158719 -3.03003e-19)
(0.00847246 0.0181686 -9.52455e-20)
(0.0345679 0.0199533 -2.1415e-19)
(0.0689414 0.021951 3.80705e-19)
(0.110713 0.0246712 -2.22099e-19)
(0.159046 0.028462 -1.02215e-19)
(0.213101 0.0335445 -2.93896e-19)
(0.27201 0.0400324 7.64127e-21)
(0.334856 0.0479469 -1.1587e-19)
(0.400678 0.0572294 5.66348e-20)
(0.468482 0.0677536 -5.98154e-19)
(0.537265 0.0793377 1.70978e-19)
(0.606045 0.0917566 -2.07271e-19)
(0.673891 0.104755 -1.67881e-19)
(0.739952 0.118061 5.19613e-20)
(0.803483 0.131394 -2.4714e-19)
(0.86386 0.144483 -1.0731e-19)
(0.920592 0.157064 3.08409e-19)
(0.97332 0.168899 1.3217e-19)
(1.02181 0.179771 -5.62209e-19)
(1.06592 0.189489 4.16086e-19)
(1.10566 0.198151 -7.90869e-20)
(1.14064 0.207187 -1.66349e-19)
(-0.00848875 0.00513518 -1.59569e-19)
(-0.0110901 0.0100554 -8.85817e-20)
(-0.000612518 0.0130445 -1.78696e-20)
(0.0211797 0.0150863 1.31113e-19)
(0.0529679 0.0170723 1.43487e-19)
(0.0936308 0.019702 1.2563e-19)
(0.142121 0.0234448 1.56955e-19)
(0.197411 0.0285965 2.40683e-19)
(0.258453 0.0353143 3.6936e-19)
(0.324146 0.0436367 3.66865e-19)
(0.393341 0.0535002 1.94414e-19)
(0.464844 0.0647555 -5.2374e-20)
(0.537452 0.077184 1.318e-20)
(0.60999 0.0905157 -1.81367e-20)
(0.681345 0.104447 1.56092e-19)
(0.750511 0.118657 -4.22191e-20)
(0.816619 0.132829 4.67548e-19)