/*--------------------------------*- C++ -*----------------------------------*\
  =========                 |
  \\      /  F ield         | OpenFOAM: The Open Source CFD Toolbox
   \\    /   O peration     | Website:  https://openfoam.org
    \\  /    A nd           | Version:  6.0
     \\/     M anipulation  |
\*---------------------------------------------------------------------------*/
FoamFile
{
    version     2.0;
    format      ascii;
    class       surfaceScalarField;
    location    "27";
    object      phi;
}
// * * * * * * * * * * * * * * * * * * * * * * * * * * * * * * * * * * * * * //

dimensions      [0 3 -1 0 0 0 0];

internalField   nonuniform List<scalar> 
7840
(
-2.69104e-06
2.89113e-06
-2.00094e-07
-9.53761e-06
7.35631e-06
-5.09736e-07
-1.95468e-05
1.07608e-05
-7.51557e-07
-3.18982e-05
1.32911e-05
-9.39775e-07
-4.59277e-05
1.51154e-05
-1.08588e-06
-6.11114e-05
1.63835e-05
-1.19971e-06
-7.70496e-05
1.72277e-05
-1.2896e-06
-9.34505e-05
1.77634e-05
-1.36247e-06
-0.000110117
1.80906e-05
-1.42398e-06
-0.000126934
1.82954e-05
-1.47863e-06
-0.000143856
1.84519e-05
-1.5299e-06
-0.000160898
1.86226e-05
-1.58036e-06
-0.000178126
1.88594e-05
-1.63178e-06
-0.000195645
1.92044e-05
-1.68529e-06
-0.000213593
1.969e-05
-1.74145e-06
-0.000232132
2.03393e-05
-1.80033e-06
-0.000251437
2.1166e-05
-1.86161e-06
-0.000271688
2.21753e-05
-1.92461e-06
-0.000293065
2.33654e-05
-1.98834e-06
2.47349e-05
-2.05171e-06
-0.000315748
-2.67995e-06
5.57109e-06
-9.49609e-06
1.41724e-05
-1.94554e-05
2.072e-05
-3.17359e-05
2.55717e-05
-4.56714e-05
2.90508e-05
-6.07348e-05
3.14469e-05
-7.6522e-05
3.30149e-05
-9.27365e-05
3.39779e-05
-0.000109175
3.45295e-05
-0.000125717
3.48373e-05
-0.000142311
3.50456e-05
-0.000158966
3.52773e-05
-0.000175742
3.56355e-05
-0.000192742
3.62046e-05
-0.000210102
3.70502e-05
-0.000227984
3.82205e-05
-0.000246563
3.97454e-05
-0.000266025
4.16373e-05
-0.000286555
4.38953e-05
4.65182e-05
-0.000308338
-2.66161e-06
8.2327e-06
-9.42547e-06
2.09363e-05
-1.92968e-05
3.05913e-05
-3.145e-05
3.7725e-05
-4.52139e-05
4.28148e-05
-6.00551e-05
4.6288e-05
-7.55611e-05
4.8521e-05
-9.14258e-05
4.98426e-05
-0.000107435
5.05387e-05
-0.000123455
5.08574e-05
-0.000139422
5.1013e-05
-0.000155335
5.11896e-05
-0.000171242
5.15431e-05
-0.00018724
5.22024e-05
-0.00020346
5.32704e-05
-0.000220063
5.48235e-05
-0.00023723
5.69123e-05
-0.000255153
5.956e-05
-0.000274027
6.27697e-05
6.65421e-05
-0.000294051
-2.63744e-06
1.08701e-05
-9.32991e-06
2.76288e-05
-1.90788e-05
4.03402e-05
-3.10532e-05
4.96993e-05
-4.45747e-05
5.63363e-05
-5.91008e-05
6.08141e-05
-7.42078e-05
6.3628e-05
-8.95751e-05
6.521e-05
-0.000104972
6.5936e-05
-0.000120248
6.61329e-05
-0.00013532
6.60846e-05
-0.000150167
6.60367e-05
-0.000164824
6.62001e-05
-0.000179373
6.67521e-05
-0.00019394
6.78374e-05
-0.000208684
6.95672e-05
-0.000223791
7.20187e-05
-0.000239463
7.52329e-05
-0.000255916
7.9222e-05
8.39921e-05
-0.000273366
-2.60918e-06
1.34793e-05
-9.21421e-06
3.42338e-05
-1.88105e-05
4.99365e-05
-3.056e-05
6.14489e-05
-4.37762e-05
6.95525e-05
-5.79057e-05
7.49436e-05
-7.25109e-05
7.82332e-05
-8.72542e-05
7.99532e-05
-0.000101884
8.0566e-05
-0.000116226
8.04745e-05
-0.000130172
8.00304e-05
-0.000143676
7.95413e-05
-0.000156751
7.9275e-05
-0.000169461
7.94617e-05
-0.000181918
8.02943e-05
-0.000194277
8.19272e-05
-0.000206732
8.44737e-05
-0.000219502
8.80023e-05
-0.000232824
9.25439e-05
9.8116e-05
-0.000246947
-2.57838e-06
1.60577e-05
-9.08247e-06
4.07379e-05
-1.8499e-05
5.9353e-05
-2.99823e-05
7.29321e-05
-4.28368e-05
8.2407e-05
-5.64983e-05
8.86052e-05
-7.05146e-05
9.22495e-05
-8.45285e-05
9.39671e-05
-9.82649e-05
9.43025e-05
-0.000111521
9.37301e-05
-0.000124157
9.26668e-05
-0.000136096
9.14808e-05
-0.00014732
9.04982e-05
-0.000157865
9.00066e-05
-0.000167825
9.02546e-05
-0.000177348
9.14505e-05
-0.000186631
9.37568e-05
-0.000195913
9.72842e-05
-0.000205466
0.000102096
0.000108234
-0.000215584
-2.54596e-06
1.86037e-05
-8.93645e-06
4.71284e-05
-1.81469e-05
6.85635e-05
-2.93234e-05
8.41086e-05
-4.17626e-05
9.48463e-05
-5.48905e-05
0.000101733
-6.82409e-05
0.0001056
-8.14374e-05
0.000107164
-9.41797e-05
0.000107045
-0.000106233
0.000105784
-0.000117423
0.000103857
-0.000127633
0.00010169
-0.000136802
9.96678e-05
-0.000144933
9.81377e-05
-0.000152091
9.74126e-05
-0.000158408
9.77669e-05
-0.00016408
9.94293e-05
-0.000169369
0.000102573
-0.000174589
0.000107316
0.000113743
-0.000180098
-2.5117e-06
2.11154e-05
-8.7741e-06
5.33908e-05
-1.77485e-05
7.75379e-05
-2.8573e-05
9.49331e-05
-4.05386e-05
0.000106812
-5.30639e-05
0.000114258
-6.56716e-05
0.000118208
-7.79686e-05
0.000119461
-8.96304e-05
0.000118706
-0.00010039
0.000116543
-0.000110034
0.000113501
-0.000118399
0.000110055
-0.000125377
0.000106646
-0.000130921
0.000103682
-0.000135055
0.000101547
-0.000137882
0.000100594
-0.000139591
0.000101139
-0.000140462
0.000103444
-0.000140861
0.000107715
0.000114112
-0.00014123
-2.47395e-06
2.35893e-05
-8.58835e-06
5.95052e-05
-1.72875e-05
8.62371e-05
-2.77023e-05
0.000105348
-3.91203e-05
0.00011823
-5.09572e-05
0.000126095
-6.27293e-05
0.00012998
-7.40313e-05
0.000130763
-8.45188e-05
0.000129194
-9.38955e-05
0.00012592
-0.000101908
0.000121513
-0.000108344
0.000116491
-0.000113039
0.000111341
-0.000115886
0.000106529
-0.000116851
0.000102511
-0.000115989
9.9732e-05
-0.000113467
9.86166e-05
-0.000109573
9.95503e-05
-0.00010473
0.000102872
0.00010887
-9.94876e-05
-2.42945e-06
2.60188e-05
-8.36658e-06
6.54423e-05
-1.67356e-05
9.46062e-05
-2.66605e-05
0.000115273
-3.74285e-05
0.000128998
-4.84565e-05
0.000137123
-5.92609e-05
0.000140784
-6.94312e-05
0.000140933
-7.86101e-05
0.000138373
-8.64791e-05
0.000133789
-9.27499e-05
0.000127784
-9.71627e-05
0.000120904
-9.94922e-05
0.00011367
-9.95605e-05
0.000106597
-9.72584e-05
0.000100209
-9.25735e-05
9.50471e-05
-8.56227e-05
9.16657e-05
-7.66849e-05
9.06125e-05
-6.6232e-05
9.24191e-05
9.75815e-05
-5.49438e-05
-2.37349e-06
2.83923e-05
-8.09096e-06
7.11598e-05
-1.60528e-05
0.000102568
-2.53754e-05
0.000124595
-3.53471e-05
0.00013897
-4.53904e-05
0.000147167
-5.50278e-05
0.000150421
-6.38521e-05
0.000149757
-7.15034e-05
0.000146024
-7.76516e-05
0.000139937
-8.19843e-05
0.000132117
-8.4203e-05
0.000123123
-8.40256e-05
0.000113493
-8.12e-05
0.000103772
-7.55286e-05
9.45374e-05
-6.69056e-05
8.64242e-05
-5.53666e-05
8.01267e-05
-4.11461e-05
7.6392e-05
-2.47446e-05
7.60176e-05
7.98229e-05
-6.98599e-06
-2.3004e-06
3.06927e-05
-7.73979e-06
7.65992e-05
-1.51895e-05
0.000110018
-2.37553e-05
0.000133161
-3.27261e-05
0.00014794
-4.15319e-05
0.000155972
-4.97055e-05
0.000158595
-5.68508e-05
0.000156903
-6.26161e-05
0.00015179
-6.66739e-05
0.000143995
-6.87047e-05
0.000134147
-6.83885e-05
0.000122807
-6.54021e-05
0.000110507
-5.94287e-05
9.77981e-05
-5.01803e-05
8.52889e-05
-3.74397e-05
7.36836e-05
-2.11251e-05
6.38121e-05
-1.37796e-06
5.66449e-05
2.13184e-05
5.33212e-05
5.51386e-05
4.60027e-05
-2.20431e-06
3.2897e-05
-7.28971e-06
8.16846e-05
-1.40909e-05
0.000116819
-2.16963e-05
0.000140766
-2.9391e-05
0.000155635
-3.66097e-05
0.000163191
-4.2896e-05
0.000164881
-4.78684e-05
0.000161875
-5.11924e-05
0.000155113
-5.25568e-05
0.00014536
-5.16557e-05
0.000133246
-4.81731e-05
0.000119324
-4.17748e-05
0.000104108
-3.21077e-05
8.81309e-05
-1.88136e-05
7.19948e-05
-1.56657e-06
5.64366e-05
1.98573e-05
4.23882e-05
4.54657e-05
3.10364e-05
7.4869e-05
2.3918e-05
2.29923e-05
0.000107015
-2.08001e-06
3.4977e-05
-6.71843e-06
8.6323e-05
-1.27019e-05
0.000122802
-1.90908e-05
0.000147155
-2.51557e-05
0.0001617
-3.03275e-05
0.000168363
-3.41536e-05
0.000168707
-3.6264e-05
0.000163985
-3.63423e-05
0.000155192
-3.4103e-05
0.00014312
-2.92715e-05
0.000128415
-2.15662e-05
0.000111619
-1.06828e-05
9.3225e-05
3.71697e-06
7.37312e-05
2.20077e-05
5.37041e-05
4.4582e-05
3.38623e-05
7.17937e-05
1.51766e-05
0.000103839
-1.00895e-06
0.000140522
-1.27649e-05
-1.73022e-05
0.000180816
-1.92379e-06
3.69008e-05
-6.00714e-06
9.04064e-05
-1.09727e-05
0.000127768
-1.58364e-05
0.000152019
-1.98382e-05
0.000165702
-2.2388e-05
0.000170913
-2.30215e-05
0.000169341
-2.13654e-05
0.000162329
-1.71118e-05
0.000150938
-9.9971e-06
0.000136006
2.14139e-07
0.000118204
1.3746e-05
9.80868e-05
3.08285e-05
7.61425e-05
5.17173e-05
5.28424e-05
7.6714e-05
2.87073e-05
0.000106178
4.39871e-06
0.000140506
-1.91521e-05
0.000180059
-4.05615e-05
0.000224921
-5.76273e-05
-6.66736e-05
0.000274293
-1.73384e-06
3.86346e-05
-5.14188e-06
9.38144e-05
-8.86176e-06
0.000131488
-1.18432e-05
0.000155
-1.32728e-05
0.000167131
-1.25153e-05
0.000170155
-9.06836e-06
0.000165894
-2.52924e-06
0.00015579
7.42759e-06
0.000140981
2.10647e-05
0.000122369
3.85909e-05
0.000100677
6.01696e-05
7.65081e-05
8.59285e-05
5.03837e-05
0.000115977
2.27943e-05
0.000150432
-5.74835e-06
0.000189461
-3.46305e-05
0.000233316
-6.30063e-05
0.000282346
-8.9592e-05
0.000336901
-0.000112182
-0.000126399
0.000396626
-1.50987e-06
4.01445e-05
-4.11273e-06
9.64172e-05
-6.33498e-06
0.00013371
-7.03418e-06
0.0001557
-5.31534e-06
0.000165413
-4.67408e-07
0.000165307
8.08434e-06
0.000157342
2.081e-05
0.000143065
3.80926e-05
0.000123699
6.02349e-05
0.000100226
8.74577e-05
7.34546e-05
0.000119893
4.40729e-05
0.000157576
1.27004e-05
0.000200444
-2.00736e-05
0.000248345
-5.36492e-05
0.000301075
-8.73607e-05
0.000358448
-0.00012038
0.000420412
-0.000151555
0.000487212
-0.000178982
-0.000198286
0.000559099
-1.25204e-06
4.13965e-05
-2.91065e-06
9.80759e-05
-3.3605e-06
0.00013416
-1.33786e-06
0.000153677
4.16468e-06
0.00015991
1.39686e-05
0.000155503
2.87597e-05
0.000142551
4.9119e-05
0.000122705
7.55364e-05
9.72812e-05
0.00010841
6.73528e-05
0.000148033
3.38319e-05
0.00019457
-2.46461e-06
0.000248029
-4.07584e-05
0.000308219
-8.02636e-05
0.000374717
-0.000120147
0.000446846
-0.00015949
0.000523698
-0.000197231
0.000604232
-0.000232089
0.000687645
-0.000262396
-0.000285559
0.000774918
-9.59059e-07
4.23556e-05
-1.52209e-06
9.86389e-05
1.01228e-07
0.000132537
5.32606e-06
0.000148452
1.53036e-05
0.000149932
3.09997e-05
0.000139807
5.32485e-05
0.000120302
8.27834e-05
9.31703e-05
0.000120248
5.98168e-05
0.00016619
2.14102e-05
0.000221047
-2.10245e-05
0.000285107
-6.65253e-05
0.000358471
-0.000114122
0.000440976
-0.000162768
0.000532103
-0.000211275
0.000630845
-0.000258232
0.000735536
-0.000301922
0.000843651
-0.000340205
0.000951908
-0.000370652
-0.000394758
0.00106111
-6.25992e-07
4.29816e-05
7.74053e-08
9.79355e-05
4.10927e-06
0.000128505
1.30654e-05
0.000139496
2.82696e-05
0.000134728
5.08608e-05
0.000117216
8.18494e-05
8.93137e-05
0.000122148
5.2872e-05
0.00017258
9.38498e-06
0.000233876
-3.98859e-05
0.00030666
-9.38091e-05
0.000391432
-0.000151297
0.000488539
-0.000211229
0.000598146
-0.000272376
0.000720179
-0.000333308
0.000854198
-0.00039225
0.000999102
-0.000446826
0.00115217
-0.000493276
0.00130582
-0.000524298
-0.000525548
0.00143661
-2.43077e-07
4.32246e-05
1.92748e-06
9.57649e-05
8.75118e-06
0.000121681
2.20305e-05
0.000126217
4.32846e-05
0.000113474
7.38437e-05
8.6657e-05
0.000114904
4.82534e-05
0.000167554
2.22406e-07
0.000232778
-5.5839e-05
0.000311452
-0.000118561
0.000404339
-0.000186696
0.000512089
-0.000259047
0.000635273
-0.000334412
0.000774452
-0.000411556
0.000930344
-0.000489199
0.00110412
-0.000566029
0.00129798
-0.000640685
0.00151643
-0.000711722
0.00177017
-0.000778044
-0.000837478
0.0020821
2.07934e-07
4.30167e-05
4.08996e-06
9.18829e-05
1.41524e-05
0.000111619
3.2425e-05
0.000107944
6.06368e-05
8.52623e-05
0.000100311
4.69826e-05
0.000152813
-4.24885e-06
0.000219364
-6.63277e-05
0.000301027
-0.000137503
0.000398697
-0.000216231
0.000513082
-0.00030108
0.000644703
-0.000390668
0.000793931
-0.00048364
0.000961056
-0.00057868
0.00114641
-0.000674555
0.00135059
-0.000770204
0.00157474
-0.000864841
0.0018211
-0.000958082
0.00209304
-0.00104998
-0.00113329
0.00238885
7.49442e-07
4.22673e-05
6.64059e-06
8.59918e-05
2.04646e-05
9.77946e-05
4.44905e-05
8.39183e-05
8.06581e-05
4.90947e-05
0.000130665
-3.02472e-06
0.000195998
-6.95814e-05
0.000277918
-0.000148248
0.000377435
-0.000237019
0.000495263
-0.000334059
0.000631794
-0.000437612
0.000787093
-0.000545967
0.000960911
-0.000657458
0.00115274
-0.000770507
0.00136188
-0.000883693
0.00158752
-0.000995846
0.00182882
-0.00110614
0.00208492
-0.00121418
0.00235468
-0.00131974
-0.00141428
0.00263568
1.40885e-06
4.08584e-05
9.66717e-06
7.77335e-05
2.78566e-05
7.96052e-05
5.84844e-05
5.32905e-05
0.000103683
3.89573e-06
0.000165279
-6.46199e-05
0.000244787
-0.00014909
0.000343375
-0.000246837
0.000461801
-0.000355445
0.000600354
-0.000472612
0.000758825
-0.000596083
0.0009365
-0.000723642
0.00113219
-0.000853152
0.00134431
-0.000982623
0.00157092
-0.0011103
0.00180982
-0.00123475
0.00205858
-0.00135491
0.00231452
-0.00147012
0.00257477
-0.00157999
-0.00167707
0.00283756
2.21487e-06
3.86435e-05
1.32585e-05
6.66899e-05
3.64918e-05
5.63719e-05
7.46406e-05
1.51416e-05
0.000129985
-5.14488e-05
0.000204391
-0.000139026
0.000299269
-0.000243967
0.000415493
-0.000363061
0.000553324
-0.000493276
0.000712347
-0.000631634
0.000891457
-0.000775193
0.0010889
-0.000921084
0.00130235
-0.0010666
0.00152903
-0.00120931
0.00176586
-0.00134713
0.00200955
-0.00147844
0.00225671
-0.00160206
0.00250387
-0.00171729
0.0027477
-0.00182382
-0.00191619
0.00298682
3.19433e-06
3.54492e-05
1.74933e-05
5.23908e-05
4.65046e-05
2.73606e-05
9.31263e-05
-3.14801e-05
0.000159703
-0.000118026
0.000248007
-0.000227329
0.000359143
-0.000355103
0.000493445
-0.000497364
0.000650388
-0.000650219
0.00082856
-0.000809806
0.00102571
-0.000972343
0.00123887
-0.00113424
0.00146454
-0.00129227
0.00169887
-0.00144364
0.00193793
-0.00158618
0.00217781
-0.00171832
0.00241483
-0.00183909
0.00264562
-0.00194808
0.00286722
-0.00204542
-0.00212776
0.00307878
4.36927e-06
3.108e-05
2.24306e-05
3.43295e-05
5.79788e-05
-8.18763e-06
0.000114003
-8.75047e-05
0.000192785
-0.000196807
0.000295806
-0.000330351
0.000423617
-0.000482915
0.000575713
-0.000649459
0.000750482
-0.000824987
0.000945261
-0.00100459
0.0011565
-0.00118358
0.00138
-0.00135774
0.00161122
-0.00152349
0.00184559
-0.00167801
0.00207876
-0.00181935
0.00230682
-0.00194638
0.00252643
-0.0020587
0.00273493
-0.00215658
0.00293033
-0.00224081
-0.00230991
0.00311248
5.75497e-06
2.5325e-05
2.81015e-05
1.1983e-05
7.09306e-05
-5.10167e-05
0.0001372
-0.000153774
0.000228941
-0.000288548
0.0003471
-0.00044851
0.000491367
-0.000627181
0.000660083
-0.000818176
0.000850288
-0.00101519
0.00105791
-0.00121221
0.00127809
-0.00140376
0.00150559
-0.00158524
0.00173519
-0.00175309
0.00196205
-0.00190488
0.00218202
-0.00203932
0.00239173
-0.00215609
0.00258874
-0.00225572
0.0027715
-0.00233933
0.00293922
-0.00240853
-0.00246336
0.00309267
7.35887e-06
1.79661e-05
3.45054e-05
-1.51636e-05
8.52984e-05
-0.00010181
0.000162491
-0.000230967
0.000267629
-0.000393685
0.000400816
-0.000581697
0.000560557
-0.000786922
0.000743756
-0.00100138
0.000945927
-0.00121736
0.00116159
-0.00142787
0.00138478
-0.00162695
0.00160959
-0.00181005
0.00183064
-0.00197414
0.00204342
-0.00211766
0.00224448
-0.00224037
0.00243149
-0.00234311
0.00260322
-0.00242745
0.00275935
-0.00249546
0.00290028
-0.00254947
-0.00259068
0.0030276
9.18016e-06
8.78595e-06
4.16067e-05
-4.75901e-05
0.000100937
-0.00016114
0.000189497
-0.000319527
0.000308051
-0.000512239
0.000455529
-0.000729175
0.00062894
-0.000960333
0.000823547
-0.00119598
0.00103332
-0.00142713
0.00125156
-0.00164611
0.00147161
-0.00184699
0.00168741
-0.00202586
0.00189401
-0.00218074
0.00208775
-0.0023114
0.00226632
-0.00241895
0.00242869
-0.00250547
0.00257485
-0.00257361
0.00270562
-0.00262623
0.00282236
-0.00266621
-0.0026955
0.00292718
1.12096e-05
-2.42363e-06
4.93345e-05
-8.5715e-05
0.000117618
-0.000229423
0.000217683
-0.000419593
0.000349181
-0.000643737
0.000509535
-0.000889529
0.000694011
-0.00114481
0.000896171
-0.00139814
0.00110861
-0.00163957
0.00132381
-0.00186131
0.00153495
-0.00205813
0.00173644
-0.00222735
0.00192426
-0.00236856
0.002096
-0.00248313
0.00225068
-0.00257364
0.00238856
-0.00264335
0.00251072
-0.00269577
0.00261883
-0.00273433
0.0027148
-0.00276218
-0.00278171
0.00280101
1.34293e-05
-1.58529e-05
5.75823e-05
-0.000129868
0.000135029
-0.00030687
0.000246375
-0.000530938
0.000389808
-0.00078717
0.00056095
-0.00106067
0.000753204
-0.00133706
0.000958546
-0.00160348
0.00116857
-0.00184959
0.00137548
-0.00206823
0.00157289
-0.00225554
0.0017562
-0.00241066
0.00192271
-0.00253507
0.00207141
-0.00263183
0.00220265
-0.00270488
0.00231774
-0.00275844
0.00241858
-0.0027966
0.0025073
-0.00282305
0.00258608
-0.00284096
-0.00285285
0.00265722
1.58125e-05
-3.16654e-05
6.62083e-05
-0.000180264
0.000152786
-0.000393448
0.000274785
-0.000652937
0.0004286
-0.000940984
0.000607852
-0.00123992
0.000804117
-0.00153333
0.0010081
-0.00180747
0.00121091
-0.0020524
0.0014051
-0.00226241
0.00158523
-0.00243568
0.0017481
-0.00257353
0.00189247
-0.00267943
0.00201868
-0.00275804
0.00212818
-0.00281438
0.00222306
-0.00285332
0.00230566
-0.0028792
0.00237828
-0.00289568
0.00244308
-0.00290576
-0.00291187
0.0025021
1.83233e-05
-4.99887e-05
7.50376e-05
-0.000236978
0.000170439
-0.00048885
0.000302048
-0.000784547
0.000464191
-0.00110313
0.000648425
-0.00142416
0.000844719
-0.00172962
0.00104299
-0.00200574
0.00123446
-0.00224388
0.00141259
-0.00244053
0.00157332
-0.00259641
0.00171496
-0.00271517
0.0018377
-0.00280218
0.00194304
-0.00286338
0.00203322
-0.00290456
0.00211074
-0.00293085
0.0021781
-0.00294656
0.00223753
-0.00295512
0.00229098
-0.0029592
-0.00296105
0.00234015
2.09166e-05
-7.09054e-05
8.38661e-05
-0.000299927
0.000187492
-0.000592475
0.000327268
-0.000924322
0.000495275
-0.00127113
0.000681105
-0.00160999
0.00087352
-0.00192204
0.00106222
-0.00219444
0.00123915
-0.00242081
0.00139908
-0.00260047
0.00153955
-0.00273688
0.00166038
-0.00283599
0.00176296
-0.00290476
0.00184963
-0.00295005
0.00192308
-0.00297801
0.00198599
-0.00299375
0.00204073
-0.0030013
0.00208934
-0.00300372
0.00213345
-0.00300332
-0.00300203
0.00217444
2.35388e-05
-9.44442e-05
9.24666e-05
-0.000368855
0.000203425
-0.000703434
0.000349571
-0.00107047
0.000520697
-0.00144226
0.000704699
-0.00179399
0.000889657
-0.002107
0.00106566
-0.00237044
0.00122585
-0.002581
0.00136659
-0.00274121
0.00148701
-0.0028573
0.00158824
-0.00293723
0.00167262
-0.00298914
0.00174299
-0.00302042
0.00180221
-0.00303723
0.00185287
-0.00304441
0.00189713
-0.00304556
0.00193672
-0.00304332
0.00197299
-0.00303958
-0.003036
0.00200695
2.61292e-05
-0.000120573
0.000100598
-0.000443324
0.000217724
-0.000820559
0.000368165
-0.00122091
0.000539536
-0.00161363
0.000718457
-0.00197291
0.000892912
-0.00228145
0.00105392
-0.00253145
0.00119616
-0.00272324
0.00131764
-0.00286269
0.00141896
-0.00295862
0.00150231
-0.00302057
0.00157061
-0.00305744
0.00162693
-0.00307675
0.0016741
-0.00308439
0.00171445
-0.00308476
0.00174987
-0.00308098
0.00178177
-0.00307522
0.00181121
-0.00306902
-0.00306373
0.00183894
2.86217e-05
-0.000149195
0.000108018
-0.00052272
0.000229907
-0.000942449
0.00038239
-0.00137339
0.000551161
-0.0017824
0.000722091
-0.00214384
0.000883644
-0.002443
0.00102819
-0.002676
0.00115209
-0.00284714
0.00125496
-0.00296556
0.0013386
-0.00304225
0.00140592
-0.00308789
0.0014602
-0.00311171
0.00150448
-0.00312103
0.00154137
-0.00312129
0.00157293
-0.00311632
0.00160072
-0.00310876
0.00162586
-0.00310036
0.00164916
-0.00309232
-0.00308573
0.00167116
3.09482e-05
-0.000180143
0.000114491
-0.000606263
0.000239556
-0.00106751
0.000391753
-0.00152559
0.000555254
-0.0019459
0.000715746
-0.00230433
0.000862677
-0.00258994
0.000990035
-0.00280336
0.00109588
-0.00295299
0.00118123
-0.00305091
0.0012488
-0.00310982
0.00130196
-0.00314105
0.00134405
-0.0031538
0.00137795
-0.00315493
0.00140598
-0.00314931
0.00142986
-0.00314021
0.00145087
-0.00312977
0.00146988
-0.00311937
0.00148749
-0.00310994
-0.00310233
0.0015041
3.3041e-05
0.000119806
0.000246334
0.000395953
0.000551799
0.00069993
0.000831163
0.000941224
0.00102976
0.00109892
0.00115206
0.00119275
0.00122421
0.00124907
0.00126929
0.00128632
0.00130114
0.00131443
0.00132664
0.00133804
3.30385e-05
0.00018018
0.000119794
0.000606326
0.000246306
0.00106757
0.000395903
0.00152562
0.000551725
0.00194589
0.000699831
0.00230427
0.00083104
0.00258983
0.00094108
0.00280322
0.0010296
0.00295282
0.00109875
0.00305073
0.00115188
0.00310962
0.00119256
0.00314085
0.00122401
0.00315359
0.00124886
0.00315472
0.00126908
0.00314909
0.0012861
0.00313999
0.00130091
0.00312955
0.0013142
0.00311915
0.00132641
0.00310971
0.00310211
0.0013378
3.09462e-05
0.000149234
0.000114481
0.000522791
0.000239531
0.000942519
0.000391707
0.00137344
0.000555184
0.00178241
0.00071565
0.0021438
0.000862555
0.00244293
0.00098989
0.00267589
0.00109572
0.00284699
0.00118105
0.0029654
0.0012486
0.00304207
0.00130176
0.0030877
0.00134383
0.00311151
0.00137773
0.00312082
0.00140575
0.00312107
0.00142963
0.00311611
0.00145063
0.00310855
0.00146963
0.00310014
0.00148725
0.0030921
0.00308551
0.00150384
2.86203e-05
0.000120613
0.00010801
0.000443402
0.000229886
0.000820643
0.000382349
0.00122098
0.000551096
0.00161366
0.000721999
0.0019729
0.000883525
0.0022814
0.00102805
0.00253137
0.00115192
0.00272312
0.00125478
0.00286254
0.0013384
0.00295845
0.00140571
0.00302038
0.00145997
0.00305725
0.00150425
0.00307655
0.00154113
0.00308419
0.00157268
0.00308456
0.00160046
0.00308077
0.0016256
0.00307501
0.00164889
0.00306881
0.00306351
0.00167089
2.61282e-05
9.44852e-05
0.000100592
0.000368938
0.000217706
0.000703528
0.00036813
0.00107055
0.000539477
0.00144232
0.000718371
0.00179401
0.000892798
0.00210697
0.00105378
0.00237038
0.00119599
0.00258091
0.00131745
0.00274108
0.00141876
0.00285715
0.00150208
0.00293706
0.00157037
0.00298896
0.00162669
0.00302023
0.00167384
0.00303704
0.00171419
0.00304421
0.0017496
0.00304536
0.00178149
0.00304311
0.00181093
0.00303938
0.00303579
0.00183865
2.35384e-05
7.09468e-05
9.24621e-05
0.000300014
0.000203411
0.000592579
0.000349541
0.000924422
0.000520645
0.00127121
0.000704621
0.00161003
0.000889551
0.00192204
0.00106553
0.00219441
0.00122569
0.00242074
0.00136641
0.00260036
0.0014868
0.00273675
0.00158802
0.00283585
0.00167238
0.0029046
0.00174273
0.00294988
0.00180194
0.00297783
0.00185259
0.00299356
0.00189684
0.00300111
0.00193643
0.00300353
0.00197269
0.00300312
0.00300183
0.00200664
2.09166e-05
5.00302e-05
8.38632e-05
0.000237068
0.000187481
0.000488961
0.000327244
0.000784659
0.000495232
0.00110322
0.000681036
0.00142423
0.000873423
0.00172966
0.00106209
0.00200573
0.001239
0.00224384
0.0013989
0.00244046
0.00153934
0.00259631
0.00166014
0.00271505
0.00176271
0.00280203
0.00184936
0.00286322
0.0019228
0.00290439
0.00198569
0.00293067
0.00204042
0.00294637
0.00208902
0.00295493
0.00213313
0.00295901
0.00296085
0.00217411
1.83236e-05
3.17066e-05
7.50364e-05
0.000180355
0.000170432
0.000393565
0.000302031
0.000653061
0.000464157
0.000941099
0.000648367
0.00124002
0.000844634
0.00153339
0.00104287
0.00180749
0.00123432
0.0020524
0.00141241
0.00226237
0.00157311
0.00243561
0.00171473
0.00257343
0.00183745
0.00267931
0.00194277
0.0027579
0.00203293
0.00281423
0.00211044
0.00285316
0.00217778
0.00287903
0.0022372
0.0028955
0.00229064
0.00290557
0.00291169
0.0023398
1.58132e-05
1.58934e-05
6.62086e-05
0.00012996
0.000152783
0.000306991
0.000274774
0.00053107
0.000428574
0.000787298
0.000607807
0.00106078
0.000804046
0.00133715
0.001008
0.00160354
0.00121078
0.00184962
0.00140493
0.00206822
0.00158504
0.0022555
0.00174788
0.00241059
0.00189221
0.00253498
0.0020184
0.00263171
0.00212788
0.00270475
0.00222275
0.0027583
0.00230533
0.00279645
0.00237794
0.00282289
0.00244272
0.00284079
0.00285268
0.00250173
1.34303e-05
2.46308e-06
5.75842e-05
8.58057e-05
0.00013503
0.000229545
0.00024637
0.00041973
0.000389792
0.000643876
0.000560917
0.000889659
0.000753148
0.00114492
0.000958462
0.00139823
0.00116845
0.00163963
0.00137533
0.00186134
0.0015727
0.00205812
0.00175598
0.00222731
0.00192246
0.0023685
0.00207113
0.00248304
0.00220235
0.00257353
0.00231742
0.00264323
0.00241823
0.00269564
0.00250694
0.00273419
0.0025857
0.00276203
0.00278155
0.00265683
1.12111e-05
-8.74797e-06
4.93382e-05
4.76786e-05
0.000117622
0.000161261
0.000217685
0.000319667
0.000349175
0.000512386
0.000509515
0.000729319
0.000693972
0.000960465
0.000896105
0.00119609
0.00110851
0.00142722
0.00132368
0.00164617
0.00153479
0.00184702
0.00173624
0.00202586
0.00192403
0.00218071
0.00209573
0.00231134
0.00225039
0.00241887
0.00238824
0.00250538
0.00251037
0.0025735
0.00261846
0.00262611
0.00271441
0.00266607
0.00269536
0.0028006
9.1822e-06
-1.79302e-05
4.16124e-05
1.52484e-05
0.000100946
0.000101928
0.000189506
0.000231107
0.000308056
0.000393837
0.000455524
0.00058185
0.000628919
0.00078707
0.000823503
0.00100151
0.00103325
0.00121748
0.00125146
0.00142796
0.00147146
0.00162701
0.00168723
0.00181009
0.0018938
0.00197415
0.0020875
0.00211764
0.00226604
0.00224033
0.00242837
0.00234304
0.0025745
0.00242736
0.00270525
0.00249536
0.00282196
0.00254936
0.00259056
0.00292676
7.36165e-06
-2.52918e-05
3.45136e-05
-1.19036e-05
8.5312e-05
5.11295e-05
0.000162508
0.00015391
0.000267645
0.0002887
0.000400825
0.00044867
0.000560554
0.000627341
0.000743734
0.000818329
0.000945879
0.00101533
0.00116151
0.00121233
0.00138466
0.00140386
0.00160944
0.00158532
0.00183045
0.00175314
0.00204319
0.0019049
0.0022442
0.00203931
0.00243119
0.00215606
0.00260288
0.00225567
0.00275897
0.00233927
0.00289988
0.00240846
0.00246327
0.00302717
5.75867e-06
-3.10505e-05
2.81127e-05
-3.42576e-05
7.09498e-05
8.29233e-06
0.000137225
8.76351e-05
0.000228969
0.000196957
0.000347125
0.000330513
0.000491383
0.000483083
0.000660085
0.000649628
0.000850267
0.000825149
0.00105786
0.00100474
0.00127801
0.00118371
0.00150547
0.00135786
0.00173503
0.00152358
0.00196185
0.00167808
0.00218177
0.00181939
0.00239144
0.00194639
0.00258842
0.0020587
0.00277114
0.00215655
0.00293883
0.00224076
0.00230985
0.00309224
4.37406e-06
-3.54245e-05
2.24449e-05
-5.23285e-05
5.80039e-05
-2.72666e-05
0.000114038
3.16013e-05
0.000192825
0.00011817
0.000295847
0.000227491
0.000423653
0.000355277
0.000575738
0.000497543
0.000750488
0.000650399
0.000945243
0.00080998
0.00115645
0.000972506
0.00137991
0.00113439
0.0016111
0.00129239
0.00184543
0.00144375
0.00207855
0.00158627
0.00230656
0.00171838
0.00252614
0.00183912
0.00273459
0.00194809
0.00292995
0.00204541
0.00212773
0.00311206
3.20026e-06
-3.86248e-05
1.75109e-05
-6.66391e-05
4.65352e-05
-5.62909e-05
9.31686e-05
-1.50321e-05
0.000159754
5.15843e-05
0.000248061
0.000139184
0.000359196
0.000244142
0.00049349
0.000363249
0.000650419
0.00049347
0.000828571
0.000631829
0.00102569
0.000775383
0.00123882
0.000921263
0.00146445
0.00106676
0.00169875
0.00120945
0.00193776
0.00134726
0.0021776
0.00147854
0.00241458
0.00160214
0.00264531
0.00171735
0.00286687
0.00182386
0.00191622
0.00307838
2.22183e-06
-4.08466e-05
1.32786e-05
-7.76958e-05
3.65266e-05
-7.95389e-05
7.46888e-05
-5.31944e-05
0.000130044
-3.77047e-06
0.000204455
6.47718e-05
0.000299334
0.000149264
0.000415553
0.000247029
0.000553374
0.000355649
0.000712381
0.000472822
0.000891469
0.000596294
0.00108888
0.000723849
0.0013023
0.000853348
0.00152895
0.000982806
0.00176574
0.00111047
0.00200939
0.00123489
0.0022565
0.00135503
0.00250362
0.00147023
0.0027474
0.00158008
0.00167715
0.00298647
1.41647e-06
-4.22631e-05
9.6886e-06
-8.59679e-05
2.7893e-05
-9.77433e-05
5.85342e-05
-8.38356e-05
0.000103743
-4.89797e-05
0.000165345
3.17032e-06
0.000244855
6.9754e-05
0.000343441
0.000148443
0.000461858
0.000237231
0.000600399
0.000334282
0.000758853
0.00043784
0.000936506
0.000546195
0.00113217
0.000657681
0.00134426
0.00077072
0.00157083
0.000883893
0.0018097
0.00099603
0.00205842
0.00110631
0.00231432
0.00121433
0.00257452
0.00131988
0.00141441
0.00283726
7.5714e-07
-4.30202e-05
6.66134e-06
-9.18721e-05
2.04987e-05
-0.000111581
4.45357e-05
-0.000107873
8.07111e-05
-8.51551e-05
0.000130723
-4.68411e-05
0.000196055
4.42119e-06
0.000277973
6.65262e-05
0.000377482
0.000137722
0.000495299
0.000216465
0.000631817
0.000301323
0.000787099
0.000390914
0.000960897
0.000483883
0.0011527
0.000578916
0.00136181
0.00067478
0.00158743
0.000770415
0.0018287
0.000865038
0.00208477
0.000958266
0.00235449
0.00105015
0.00113345
0.00263545
2.14886e-07
-4.32351e-05
4.10739e-06
-9.57646e-05
1.41791e-05
-0.000121652
3.24577e-05
-0.000126151
6.06718e-05
-0.000113369
0.000100345
-8.65141e-05
0.000152843
-4.80766e-05
0.000219386
-1.67871e-08
0.00030104
5.60674e-05
0.000398699
0.000118806
0.00051307
0.000186951
0.000644678
0.000259306
0.000793892
0.000334669
0.000961001
0.000411806
0.00114634
0.000489439
0.0013505
0.000566255
0.00157464
0.000640898
0.00182099
0.000711922
0.0020929
0.000778238
0.000837679
0.00238867
-2.37836e-07
-4.29973e-05
1.93854e-06
-9.7941e-05
8.76457e-06
-0.000128478
2.20414e-05
-0.000139428
4.32886e-05
-0.000134616
7.3837e-05
-0.000117062
0.000114884
-8.91233e-05
0.000167518
-5.26511e-05
0.000232726
-9.14039e-06
0.000311384
4.01472e-05
0.000404255
9.408e-05
0.000511991
0.00015157
0.000635162
0.000211499
0.000774332
0.000272637
0.000930218
0.000333553
0.001104
0.000392478
0.00129786
0.000447034
0.00151631
0.000493468
0.00177006
0.000524488
0.000525779
0.00208196
-6.23485e-07
-4.23738e-05
7.89383e-08
-9.86434e-05
4.10339e-06
-0.000132503
1.30454e-05
-0.00014837
2.82296e-05
-0.000149801
5.07964e-05
-0.000139629
8.17579e-05
-0.000120085
0.000122028
-9.29211e-05
0.000172432
-5.9544e-05
0.000233701
-2.11219e-05
0.00030646
2.13201e-05
0.00039121
6.68204e-05
0.0004883
0.000114409
0.000597897
0.00016304
0.000719926
0.000211524
0.000853949
0.000258454
0.000998868
0.000302115
0.00115196
0.000340373
0.00130563
0.000370819
0.000394999
0.00143641
-9.60248e-07
-4.14136e-05
-1.53302e-06
-9.80707e-05
7.05487e-08
-0.000134106
5.2664e-06
-0.000153566
1.52075e-05
-0.000159742
3.08618e-05
-0.000155284
5.30656e-05
-0.000142289
8.25541e-05
-0.00012241
0.000119972
-9.69623e-05
0.000165871
-6.70203e-05
0.000220686
-3.3495e-05
0.00028471
2.79684e-06
0.000358041
4.10772e-05
0.000440521
8.05603e-05
0.000531631
0.000120414
0.000630364
0.000159721
0.000735055
0.000197424