/*--------------------------------*- C++ -*----------------------------------*\
  =========                 |
  \\      /  F ield         | OpenFOAM: The Open Source CFD Toolbox
   \\    /   O peration     | Website:  https://openfoam.org
    \\  /    A nd           | Version:  6.0
     \\/     M anipulation  |
\*---------------------------------------------------------------------------*/
FoamFile
{
    version     2.0;
    format      ascii;
    class       volVectorField;
    location    "2.4";
    object      U;
}
// * * * * * * * * * * * * * * * * * * * * * * * * * * * * * * * * * * * * * //

dimensions      [0 1 -1 0 0 0 0];

internalField   nonuniform List<vector> 
8000
(
(-0.00556218 0.00587296 -4.61393e-21)
(-0.0263565 0.0127544 2.47431e-20)
(-0.0608034 0.0164286 -3.05131e-20)
(-0.0992961 0.0180802 2.34327e-20)
(-0.137651 0.0184215 1.17086e-20)
(-0.174037 0.0178951 -3.52358e-20)
(-0.2073 0.0167698 -3.21588e-21)
(-0.23674 0.0152013 -1.25377e-21)
(-0.261946 0.0132825 -1.93061e-20)
(-0.282675 0.011079 -1.06103e-20)
(-0.298804 0.00865153 7.79157e-21)
(-0.31032 0.00606777 2.99651e-20)
(-0.317326 0.00340655 -2.25608e-21)
(-0.320046 0.000757298 3.15413e-21)
(-0.318808 -0.00178448 -2.99308e-20)
(-0.31401 -0.00412515 1.82941e-20)
(-0.306198 -0.00618507 -2.55664e-20)
(-0.296381 -0.00791266 3.85272e-20)
(-0.2856 -0.00928458 -4.81002e-23)
(-0.271544 -0.0102694 8.03866e-21)
(-0.00617453 0.0171584 1.53218e-20)
(-0.0271289 0.0373387 -7.9086e-20)
(-0.0608622 0.0481713 -5.55275e-20)
(-0.0983471 0.0530779 -3.83121e-20)
(-0.135622 0.0541258 -5.02109e-20)
(-0.170937 0.0526087 1.03167e-20)
(-0.203179 0.0493176 -5.93626e-20)
(-0.231668 0.0447144 -1.39529e-20)
(-0.256006 0.0390747 3.72137e-21)
(-0.275958 0.032592 4.5159e-20)
(-0.291402 0.0254425 -5.0221e-20)
(-0.302321 0.0178203 7.02184e-20)
(-0.308804 0.0099519 -5.27398e-20)
(-0.311048 0.00209627 -6.22702e-20)
(-0.309353 -0.00546628 -8.44393e-20)
(-0.304083 -0.0124555 5.46538e-20)
(-0.295755 -0.0186259 -1.67179e-20)
(-0.285349 -0.0238095 -6.06896e-20)
(-0.273939 -0.0279196 5.70255e-20)
(-0.259317 -0.0308476 -4.28219e-20)
(-0.00733398 0.0275841 1.51364e-19)
(-0.0285924 0.0603685 7.98747e-20)
(-0.0609445 0.0782429 9.04777e-20)
(-0.0964655 0.0865431 7.77986e-21)
(-0.131622 0.088537 5.07771e-20)
(-0.164821 0.0863017 6.40162e-20)
(-0.195029 0.0811271 -1.18649e-19)
(-0.22161 0.0737761 -6.40233e-20)
(-0.244189 0.0647066 -8.59876e-20)
(-0.262547 0.0542346 9.02039e-20)
(-0.276569 0.042639 -6.97118e-20)
(-0.286231 0.0302211 -9.16233e-20)
(-0.291599 0.0173317 -3.41458e-20)
(-0.292829 0.0043773 3.17962e-20)
(-0.290167 -0.00819145 -7.82209e-21)
(-0.283922 -0.0199076 1.26546e-20)
(-0.274544 -0.0303401 1.39545e-19)
(-0.262961 -0.0391645 -2.17334e-20)
(-0.250295 -0.0461816 -1.37341e-19)
(-0.23456 -0.0511592 1.80475e-19)
(-0.00892188 0.0366516 5.47619e-20)
(-0.0306014 0.080909 -7.48486e-20)
(-0.0609942 0.105603 -1.96896e-20)
(-0.093697 0.117488 3.67505e-20)
(-0.125778 0.120788 1.05053e-19)
(-0.155873 0.118255 2.33229e-19)
(-0.183065 0.111636 2.31724e-19)
(-0.206781 0.101986 2.08952e-20)
(-0.226681 0.0899443 1.46345e-19)
(-0.242571 0.0759439 2.26328e-19)
(-0.25435 0.060351 -1.81406e-19)
(-0.261994 0.0435469 2.69932e-19)
(-0.265545 0.0259722 -6.29555e-20)
(-0.265118 0.00814427 1.52293e-20)
(-0.260894 -0.00934519 6.26867e-20)
(-0.253111 -0.0258536 8.22551e-20)
(-0.242133 -0.0407453 -1.32545e-19)
(-0.228797 -0.0534853 -1.08164e-19)
(-0.214279 -0.063682 -1.8415e-19)
(-0.196934 -0.0708968 2.67534e-19)
(-0.0107788 0.0439676 -2.79969e-20)
(-0.0329592 0.0981718 -2.94028e-19)
(-0.0609424 0.129322 -8.85954e-20)
(-0.0901245 0.144979 -2.17035e-19)
(-0.118304 0.150015 8.23007e-20)
(-0.144404 0.147707 -1.3258e-19)
(-0.167663 0.140197 4.78924e-20)
(-0.187587 0.128817 -2.88871e-19)
(-0.203886 0.114386 1.54764e-19)
(-0.216398 0.0974544 -1.85287e-19)
(-0.225046 0.0784611 -1.66108e-19)
(-0.229816 0.0578411 -1.89543e-19)
(-0.230741 0.0360858 1.71084e-19)
(-0.227903 0.013776 -1.55652e-19)
(-0.221431 -0.00840257 2.14182e-19)
(-0.211492 -0.0296646 6.02976e-20)
(-0.198353 -0.0491704 1.48048e-19)
(-0.18273 -0.0661253 6.07548e-20)
(-0.165833 -0.0798484 -2.50127e-19)
(-0.146485 -0.0895716 3.95428e-19)
(-0.0127234 0.0492732 1.29781e-19)
(-0.0354396 0.111567 7.78342e-21)
(-0.060722 0.14863 5.38713e-20)
(-0.0858779 0.168178 1.88072e-19)
(-0.109509 0.175381 -2.80092e-20)
(-0.130874 0.173862 3.13052e-19)
(-0.149399 0.166074 1.43409e-19)
(-0.164692 0.153601 1.23187e-20)
(-0.176522 0.137441 3.76337e-19)
(-0.18477 0.118261 1.26738e-19)
(-0.189393 0.0965687 6.12063e-20)
(-0.190399 0.0728351 1.90918e-19)
(-0.187834 0.0475675 1.76178e-19)
(-0.181769 0.0213618 3.21611e-19)
(-0.172302 -0.00506198 -2.87505e-19)
(-0.159549 -0.0308355 3.99585e-19)
(-0.143694 -0.0549521 2.02631e-21)
(-0.125307 -0.0763412 -4.96858e-19)
(-0.105597 -0.0939432 6.34688e-19)
(-0.0839754 -0.106509 2.49131e-19)
(-0.0145745 0.0524622 -7.57869e-20)
(-0.0378125 0.120744 -1.42517e-19)
(-0.0602786 0.162969 -2.95736e-19)
(-0.0811352 0.186387 -9.41471e-21)
(-0.0997993 0.196116 5.36837e-20)
(-0.115893 0.195921 -3.86154e-19)
(-0.129061 0.188471 -2.91326e-19)
(-0.139037 0.175555 -4.08431e-20)
(-0.145664 0.158344 -3.78516e-19)
(-0.148875 0.137627 -2.6752e-19)
(-0.14867 0.113982 -7.84122e-20)
(-0.145095 0.0879115 -2.55091e-19)
(-0.138221 0.0599186 -4.20679e-21)
(-0.128136 0.0305758 -3.42608e-19)
(-0.114934 0.0005789 1.41231e-19)
(-0.0987113 -0.0291972 -1.61887e-19)
(-0.0795945 -0.0576563 1.2059e-19)
(-0.0580143 -0.0834919 -1.59637e-19)
(-0.0351276 -0.105222 -4.35516e-19)
(-0.0110363 -0.120966 -1.27078e-19)
(-0.0161721 0.0535838 -3.10615e-20)
(-0.0398686 0.125616 -3.34182e-20)
(-0.0595803 0.172032 2.50291e-19)
(-0.0761144 0.199103 -4.1256e-19)
(-0.0896528 0.211568 5.98811e-20)
(-0.100191 0.213141 -2.44452e-19)
(-0.107615 0.206582 1.14705e-19)
(-0.111809 0.193832 5.31609e-19)
(-0.11271 0.176216 -3.12568e-20)
(-0.110316 0.154643 -4.07886e-19)
(-0.104677 0.129773 7.1719e-20)
(-0.0958838 0.102142 1.40569e-20)
(-0.0840467 0.0722467 -8.85898e-20)
(-0.0692821 0.0406196 7.20089e-21)
(-0.0517034 0.00789019 7.58399e-19)
(-0.0314141 -0.0251317 -1.07385e-19)
(-0.0085202 -0.0573601 -2.09067e-19)
(0.0166637 -0.08735 -3.65898e-19)
(0.0430776 -0.113227 3.72856e-19)
(0.06986 -0.132385 1.51518e-19)
(-0.0173959 0.0528301 1.47001e-19)
(-0.0414429 0.126367 -1.95707e-19)
(-0.0586221 0.175802 2.75623e-19)
(-0.0710548 0.206068 2.7939e-19)
(-0.0795823 0.221274 2.57444e-19)
(-0.084559 0.224896 5.28662e-19)
(-0.0861265 0.219664 3.48375e-19)
(-0.084344 0.2076 -7.58908e-19)
(-0.0792628 0.190146 3.94123e-19)
(-0.07096 0.168326 3.15785e-19)
(-0.0595463 0.142883 -4.9477e-21)
(-0.0451595 0.114398 3.62618e-19)
(-0.0279498 0.0833726 2.85914e-19)
(-0.00806569 0.0502981 -1.53809e-19)
(0.0143555 0.015725 5.23134e-19)
(0.0391907 -0.0196462 -6.46886e-19)
(0.0663257 -0.0548291 2.56705e-19)
(0.0955227 -0.0883667 3.23448e-19)
(0.125856 -0.118097 -7.12258e-20)
(0.155686 -0.140688 6.07834e-19)
(-0.0181779 0.0505088 3.04941e-19)
(-0.0424329 0.123427 1.66726e-20)
(-0.057427 0.174555 -1.08473e-19)
(-0.0661914 0.207312 -1.13481e-19)
(-0.0700784 0.225017 -5.3718e-19)
(-0.0697631 0.230758 7.56921e-20)
(-0.0656439 0.227121 2.20945e-19)
(-0.0579713 0.216126 -1.07336e-19)
(-0.0469315 0.19929 8.97914e-20)
(-0.0326963 0.177726 -2.17955e-20)
(-0.0154429 0.152257 -1.19978e-19)
(0.00464422 0.123513 1.15445e-19)
(0.027382 0.0920119 -5.10861e-19)
(0.0525995 0.058219 4.90243e-19)
(0.0801445 0.0226149 -4.25883e-19)
(0.109879 -0.0142168 1.31828e-19)
(0.141666 -0.0514385 2.95996e-19)
(0.175301 -0.0876937 -6.30076e-20)
(0.210018 -0.120673 -1.99872e-19)
(0.243452 -0.146407 -1.28668e-19)
(-0.0185086 0.0470051 -3.84275e-19)
(-0.0428095 0.117427 -2.40896e-20)
(-0.0560437 0.168844 8.0904e-20)
(-0.0617264 0.203171 2.07386e-19)
(-0.0615487 0.222875 -2.92202e-19)
(-0.0564471 0.230564 -2.57583e-19)
(-0.0470604 0.228582 6.10402e-19)
(-0.0338354 0.218873 -3.35784e-19)
(-0.0171056 0.202969 -2.20895e-19)
(0.00285294 0.18204 -3.24193e-19)
(0.0257938 0.156968 2.17026e-19)
(0.0514916 0.128432 -2.72627e-21)
(0.0797433 0.0969693 -4.11133e-19)
(0.110372 0.0630359 -6.82473e-19)
(0.143224 0.0270645 5.20461e-19)
(0.178156 -0.0104559 -4.20519e-19)
(0.215005 -0.0488383 5.94661e-19)
(0.253551 -0.0868912 -1.6841e-19)
(0.293189 -0.122282 3.28849e-19)
(0.330976 -0.150537 -1.09515e-18)
(-0.0184346 0.0427394 -7.87694e-19)
(-0.0426194 0.109134 5.12812e-19)
(-0.0545414 0.159451 6.91075e-20)
(-0.0578027 0.194271 1.35496e-20)
(-0.0542589 0.215246 -3.15165e-19)
(-0.0450344 0.224469 4.64327e-19)
(-0.0309737 0.223981 5.258e-20)
(-0.012708 0.215583 -9.73692e-20)
(0.00928395 0.200765 -3.16024e-19)
(0.0346234 0.180709 3.44111e-19)
(0.0630008 0.156331 8.8879e-19)
(0.0941614 0.128343 -1.965e-19)
(0.127897 0.0972995 4.51055e-19)
(0.164037 0.0636589 -5.39195e-19)
(0.202436 0.0278312 -5.18073e-19)
(0.242944 -0.00975224 3.13085e-19)
(0.28535 -0.0485195 5.10793e-19)
(0.329361 -0.0874543 -1.64269e-18)
(0.374494 -0.124284 2.0117e-19)
(0.417486 -0.154128 2.47546e-19)
(-0.0180503 0.0381246 5.84954e-19)
(-0.0419751 0.0993702 1.92998e-19)
(-0.0529978 0.147312 9.88659e-19)
(-0.0544795 0.18148 5.06231e-20)
(-0.0482838 0.202833 -1.10323e-19)
(-0.0356449 0.212972 -5.26156e-19)
(-0.0175622 0.213608 4.46421e-19)
(0.0051798 0.206354 8.0937e-19)
(0.0319774 0.192607 5.49588e-19)
(0.0623657 0.173518 3.98388e-19)
(0.0959883 0.150005 3.47372e-19)
(0.132576 0.122789 -6.33281e-19)
(0.171924 0.0924379 -2.04926e-19)
(0.21387 0.0594167 -1.47393e-19)
(0.25826 0.0241361 1.60117e-18)
(0.304901 -0.0129888 -7.48269e-21)
(0.353491 -0.0514478 -3.9516e-19)
(0.403578 -0.0903714 -1.14555e-19)
(0.454713 -0.127586 1.12345e-18)
(0.503676 -0.157835 1.46376e-19)
(-0.0174823 0.0335296 -2.86208e-20)
(-0.0410338 0.088933 -5.48855e-19)
(-0.0514795 0.133419 -8.11884e-19)
(-0.0517084 0.165826 -2.24746e-19)
(-0.0434706 0.18659 1.23976e-19)
(-0.0280343 0.196889 2.59526e-20)
(-0.00649308 0.198118 7.15009e-19)
(0.0202631 0.191677 -8.89435e-19)
(0.0515435 0.178836 -3.39837e-19)
(0.0868267 0.160678 -6.95933e-19)
(0.12573 0.138089 -6.02336e-19)
(0.167979 0.111779 -5.37343e-19)
(0.213366 0.0823199 1.33924e-19)
(0.261706 0.0501892 -1.74877e-19)
(0.312779 0.0158178 7.61798e-19)
(0.366278 -0.020359 -4.23214e-19)
(0.421721 -0.0578383 -1.30856e-18)
(0.478401 -0.095853 -2.53174e-19)
(0.535763 -0.132359 6.3146e-19)
(0.59109 -0.161654 -5.11367e-19)
(-0.0168695 0.0292513 -9.30184e-20)
(-0.0399634 0.0785242 6.71603e-19)
(-0.050012 0.118733 -8.51729e-19)
(-0.0493102 0.148399 1.97111e-19)
(-0.0394146 0.167635 -4.02593e-19)
(-0.0215638 0.177294 8.9559e-19)
(0.00311901 0.178499 -6.42339e-19)
(0.0336964 0.172437 7.40237e-19)
(0.0694369 0.160233 -7.01591e-19)
(0.109795 0.142874 3.06173e-19)
(0.154374 0.121191 -1.46753e-19)
(0.202881 0.0958681 -3.74145e-19)
(0.255061 0.0674736 -4.68449e-19)
(0.310631 0.036503 4.72824e-19)
(0.369211 0.00342281 -3.9727e-19)
(0.43026 -0.0312857 -8.70426e-19)
(0.493015 -0.0670882 9.05944e-19)
(0.556425 -0.103279 -1.14006e-18)
(0.619679 -0.137992 5.05936e-19)
(0.681061 -0.164942 1.38844e-21)
(-0.0163402 0.0254965 -8.45992e-19)
(-0.0389029 0.0686949 -9.05382e-19)
(-0.0485457 0.104091 1.04378e-19)
(-0.0469538 0.130245 -8.61613e-19)
(-0.0354554 0.147138 -7.43396e-20)
(-0.0152117 0.155418 -6.31642e-19)
(0.0126827 0.155987 -1.44629e-19)
(0.0472981 0.149847 -4.23929e-19)
(0.0879022 0.137973 6.73627e-21)
(0.13394 0.121247 -1.8569e-19)
(0.184985 0.10043 1.76223e-20)
(0.240668 0.076171 -5.49493e-19)
(0.300597 0.0490344 6.19536e-19)
(0.364275 0.0195363 -8.72527e-19)
(0.431023 -0.0118152 3.15089e-19)
(0.499949 -0.0444855 1.18642e-20)
(0.569915 -0.0778946 -4.91472e-19)
(0.639497 -0.111377 1.22351e-18)
(0.707523 -0.143325 -2.88677e-19)
(0.7737 -0.166698 -1.71318e-19)
(-0.0159899 0.0223739 9.4677e-19)
(-0.037922 0.0598125 5.07997e-19)
(-0.0469244 0.0901477 4.68922e-19)
(-0.0441493 0.112271 6.95068e-20)
(-0.030703 0.126213 6.29505e-19)
(-0.00764231 0.132517 9.039e-19)
(0.0240075 0.131938 7.37163e-19)
(0.0633583 0.125323 6.88611e-20)
(0.109689 0.113513 5.45297e-19)
(0.16241 0.0972852 8.4547e-19)
(0.220999 0.0773306 -2.18649e-19)
(0.284906 0.0542606 3.72012e-19)
(0.353466 0.0286321 3.00918e-19)
(0.425818 0.000979071 3.12288e-19)
(0.500866 -0.0281569 1.84817e-18)
(0.577272 -0.058204 -6.94531e-19)
(0.653501 -0.088554 -3.85057e-20)
(0.727812 -0.118586 7.92629e-19)
(0.798682 -0.147045 -4.43982e-19)
(0.867454 -0.165982 2.07068e-19)
(-0.0158621 0.0198954 -7.63366e-19)
(-0.0369924 0.0520498 4.78832e-20)
(-0.044871 0.0773309 -6.00686e-19)
(-0.0402666 0.0951792 -7.61632e-20)
(-0.0241053 0.105804 4.35786e-19)
(0.00266002 0.109744 -1.29533e-18)
(0.0390824 0.107672 -2.06844e-21)
(0.0843103 0.100318 6.03016e-19)
(0.137595 0.0884132 5.67149e-19)
(0.198237 0.0726418 -2.50654e-19)
(0.265493 0.0536291 8.45108e-20)
(0.338486 0.0319495 1.9321e-19)
(0.416125 0.00814711 -9.2944e-20)
(0.49706 -0.017241 -1.04334e-18)
(0.579691 -0.0436659 2.63435e-19)
(0.662236 -0.0705566 7.28789e-19)
(0.742827 -0.0973245 -1.03876e-18)
(0.819553 -0.123433 5.02035e-19)
(0.890749 -0.148008 1.32779e-19)
(0.959216 -0.162195 6.26299e-19)
(-0.0159386 0.0179884 -1.10861e-19)
(-0.0359754 0.0453974 -5.29953e-19)
(-0.0419974 0.0658368 2.42134e-19)
(-0.0345852 0.0794162 -1.72262e-22)
(-0.014558 0.086614 -1.04648e-18)
(0.0172016 0.0880375 1.63727e-19)
(0.0597892 0.0843292 -3.0671e-20)
(0.11233 0.0761473 2.09925e-19)
(0.173953 0.0641362 -9.62894e-19)
(0.243711 0.0489036 -7.0039e-20)
(0.320487 0.0310164 -2.31017e-19)
(0.40292 0.0110097 2.01478e-19)
(0.489365 -0.0105978 6.93327e-19)
(0.577911 -0.0332905 -1.07101e-19)
(0.666467 -0.0565489 4.3786e-20)
(0.752881 -0.0798517 2.6903e-19)
(0.835097 -0.102693 -7.05835e-20)
(0.911232 -0.124674 5.41121e-19)
(0.979891 -0.145151 -3.22588e-19)
(1.04455 -0.155053 -4.71015e-19)
(-0.0161395 0.0165169 1.04095e-19)
(-0.0346328 0.0396966 2.57966e-20)
(-0.0378393 0.0556478 2.12e-19)
(-0.0263686 0.0651733 5.15396e-19)
(-0.00103401 0.0690635 2.87165e-19)
(0.0372792 0.0680422 2.93574e-20)
(0.0876218 0.0627649 -3.40741e-19)
(0.148979 0.0538495 8.71569e-20)
(0.220209 0.0418782 4.60384e-19)
(0.29995 0.0273958 -7.81922e-19)
(0.386553 0.0109134 5.92165e-19)
(0.478048 -0.00708187 -4.48082e-19)
(0.572181 -0.0261168 3.81277e-19)
(0.666513 -0.0457266 -8.24088e-19)
(0.758564 -0.0654562 9.06439e-19)
(0.845985 -0.084871 -9.68083e-19)
(0.926709 -0.103586 -2.49255e-19)
(0.999048 -0.121327 7.65274e-19)
(1.06222 -0.137338 -2.63343e-19)
(1.11855 -0.14515 1.01711e-19)
(-0.0163352 0.0153099 -7.86268e-20)
(-0.0326542 0.0346891 7.38189e-19)
(-0.0319044 0.0465799 -4.85002e-21)
(-0.0149409 0.0524178 -4.54899e-19)
(0.0173035 0.0533046 -3.03313e-19)
(0.0638276 0.0501045 5.55729e-19)
(0.1235 0.0435125 -2.19819e-19)
(0.195004 0.0341279 -2.77704e-20)
(0.276744 0.0224869 4.57511e-19)
(0.366781 0.0090761 -5.69345e-19)
(0.462807 -0.00565581 6.32239e-20)
(0.562193 -0.0212883 -7.43767e-19)
(0.662121 -0.0374216 3.91489e-19)
(0.759754 -0.0536735 -1.11711e-18)
(0.852438 -0.069682 1.76913e-18)
(0.937885 -0.0851126 -3.28998e-19)
(1.0143 -0.099672 3.21952e-19)
(1.08048 -0.113094 -8.37509e-19)
(1.13618 -0.124648 1.74627e-20)
(1.17876 -0.136494 8.13914e-19)
(-0.0163652 0.0141924 -2.38447e-19)
(-0.0296935 0.0300749 2.05002e-19)
(-0.0237196 0.038351 -7.51548e-19)
(0.000256705 0.0409612 1.10827e-18)
(0.0410382 0.039284 -7.97619e-19)
(0.0973585 0.0343254 4.04363e-20)
(0.167729 0.0268284 -8.5556e-19)
(0.250336 0.0173829 6.10878e-19)
(0.342956 0.00648054 -8.79862e-20)
(0.442932 -0.00545794 -5.41227e-19)
(0.547238 -0.0180659 -3.15962e-19)
(0.652631 -0.0310179 3.34143e-19)
(0.755864 -0.0440209 2.19379e-19)
(0.853928 -0.056808 -9.61447e-19)
(0.944265 -0.0691363 3.49546e-19)
(1.02493 -0.0807862 -5.02649e-19)
(1.09466 -0.0915593 6.31294e-20)
(1.15291 -0.101259 -3.97986e-19)
(1.1999 -0.109555 1.29619e-19)
(1.23547 -0.117836 -5.49654e-19)
(-0.0160598 0.0130127 6.78548e-19)
(-0.0254032 0.0255716 -4.08801e-19)
(-0.0128625 0.0306583 3.35747e-19)
(0.0196455 0.0305506 -4.21942e-19)
(0.0705003 0.0268424 7.07849e-19)
(0.137993 0.020663 -1.42806e-20)
(0.220079 0.012795 -8.65251e-20)
(0.314252 0.00380957 -6.46514e-20)
(0.417504 -0.00586095 3.91228e-19)
(0.526381 -0.0158859 6.64847e-19)
(0.637166 -0.0260117 -3.9334e-19)
(0.746135 -0.0360419 3.81286e-19)
(0.849843 -0.04582 6.89757e-19)
(0.945385 -0.0552156 -4.83246e-19)
(1.03058 -0.0641143 -9.51148e-19)
(1.10406 -0.0724118 1.71819e-18)
(1.16526 -0.0800122 -3.0724e-19)
(1.21434 -0.086829 -9.2116e-20)
(1.25209 -0.0927078 9.319e-19)
(1.27927 -0.0987691 -2.23694e-19)
(-0.0152579 0.0116615 -1.10694e-18)
(-0.0194602 0.0209611 -7.3519e-19)
(0.001025 0.0232505 -2.81484e-19)
(0.0435191 0.02096 5.41707e-19)
(0.10581 0.0158211 -1.2193e-18)
(0.185551 0.00904955 6.28838e-19)
(0.279934 0.0014392 7.93919e-20)
(0.385582 -0.00648669 7.85461e-20)
(0.498591 -0.0143895 -8.24542e-19)
(0.614711 -0.0220675 -2.91541e-19)
(0.729656 -0.0294181 -5.10176e-19)
(0.839445 -0.0364035 4.89922e-19)
(0.940727 -0.0430196 1.33743e-19)
(1.031 -0.0492718 2.26806e-20)
(1.10872 -0.0551573 5.98336e-19)
(1.17327 -0.0606574 -6.16271e-19)
(1.22486 -0.065737 -2.23954e-20)
(1.26433 -0.0703457 2.60538e-20)
(1.29301 -0.0743741 8.98186e-20)
(1.31217 -0.0787895 3.93059e-19)
(-0.0138184 0.0100805 3.53158e-19)
(-0.011579 0.0161199 9.07425e-19)
(0.0182375 0.0159811 7.27232e-19)
(0.0720677 0.0120647 -2.49801e-19)
(0.146932 0.00615038 8.65963e-19)
(0.239642 -0.000514394 -7.15421e-20)
(0.346422 -0.00717429 -1.03237e-19)
(0.462883 -0.0134054 6.00233e-20)
(0.584185 -0.0190153 8.35394e-19)
(0.705379 -0.0239787 4.89177e-19)
(0.821822 -0.0283781 1.42896e-19)
(0.929583 -0.0323491 1.0852e-20)
(1.02572 -0.0360334 -9.17597e-19)
(1.10842 -0.0395463 7.97582e-19)
(1.17696 -0.0429586 1.28335e-19)
(1.23158 -0.0462927 -2.20265e-19)
(1.27323 -0.0495306 -8.86004e-19)
(1.30335 -0.0526193 -6.15795e-20)
(1.32367 -0.0554674 3.2618e-19)
(1.33575 -0.0589024 -5.83057e-20)
(-0.011623 0.00825993 -8.98648e-19)
(-0.00151636 0.0110279 3.75439e-19)
(0.0390109 0.00883542 -1.82797e-18)
(0.105398 0.0038825 7.46815e-19)
(0.193713 -0.00210137 -5.9555e-19)
(0.299717 -0.00791073 4.40707e-19)
(0.418492 -0.0129014 -6.81789e-19)
(0.544546 -0.0168204 6.2207e-20)
(0.672162 -0.0196852 -3.44567e-20)
(0.795885 -0.0216909 1.8081e-19)
(0.911029 -0.0231232 2.58016e-19)
(1.01405 -0.0242804 -4.86796e-19)
(1.10274 -0.0254166 2.58909e-19)
(1.17616 -0.0267091 2.30778e-19)
(1.23455 -0.0282492 9.5009e-19)
(1.27894 -0.0300513 -4.22199e-19)
(1.31096 -0.0320714 -2.55856e-19)
(1.3325 -0.0342198 4.21408e-19)
(1.34553 -0.0363932 1.98587e-19)
(1.35165 -0.0393204 -4.18293e-19)
(-0.00857422 0.00623066 7.89364e-19)
(0.0109296 0.00576213 7.60318e-19)
(0.0635242 0.00193125 2.17746e-19)
(0.143534 -0.00342088 9.20736e-19)
(0.245886 -0.00872287 4.52949e-19)
(0.365086 -0.0129058 -8.13551e-19)
(0.494938 -0.0155305 1.23345e-18)
(0.628852 -0.0165996 -6.06626e-19)
(0.760393 -0.0164011 6.02212e-19)
(0.88391 -0.0153774 7.72201e-19)
(0.995038 -0.0140069 -4.39421e-19)
(1.09097 -0.012711 8.42661e-20)
(1.17045 -0.0117991 4.50599e-19)
(1.23359 -0.01145 3.09733e-19)
(1.28151 -0.0117213 6.86632e-19)
(1.31602 -0.012576 -2.86714e-19)
(1.33921 -0.0139156 -4.43941e-20)
(1.35326 -0.0155978 3.89208e-19)
(1.36019 -0.0175039 -8.86411e-20)
(1.36157 -0.0202489 -2.293e-21)
(-0.00459088 0.00405346 -4.08071e-19)
(0.0259199 0.000478747 -1.49742e-18)
(0.0918923 -0.00450089 3.52359e-19)
(0.186409 -0.00955473 -2.67923e-19)
(0.303053 -0.0133905 -6.19234e-19)
(0.434901 -0.0151906 -4.4076e-19)
(0.574415 -0.0148293 -2.72184e-19)
(0.714017 -0.0126489 6.61023e-19)
(0.846842 -0.0092502 -3.91562e-19)
(0.967425 -0.00531821 -3.9917e-19)
(1.0721 -0.00148052 -4.94983e-19)
(1.15909 0.00178371 -8.17134e-20)
(1.22827 0.00417969 -6.16031e-20)
(1.28077 0.00558864 -1.08131e-18)
(1.31854 0.00603262 5.01459e-19)
(1.34394 0.00562861 -6.6301e-19)
(1.35939 0.00454514 1.88778e-19)
(1.36716 0.00297952 -1.4485e-18)
(1.36922 0.00106673 4.40375e-19)
(1.36699 -0.00169204 5.21847e-19)
(0.000395893 0.0018094 -1.02377e-19)
(0.0435725 -0.00460773 7.32393e-19)
(0.124153 -0.0101477 4.67353e-20)
(0.233833 -0.0141435 1.13122e-19)
(0.364659 -0.0157188 -2.30459e-19)
(0.508145 -0.0144385 -3.19564e-21)
(0.655454 -0.0106015 -5.08317e-21)
(0.79826 -0.00495569 -1.36335e-19)
(0.929657 0.00157677 4.86347e-19)
(1.04479 0.00811127 1.8609e-19)
(1.14103 0.0139442 8.26849e-19)
(1.21784 0.0186192 -2.24662e-19)
(1.27625 0.0219265 1.50984e-19)
(1.31833 0.0238581 -1.51993e-20)
(1.34669 0.0245458 4.04962e-19)
(1.36405 0.0241992 2.37362e-19)
(1.37297 0.0230572 5.46268e-19)
(1.37567 0.0213633 -8.68264e-19)
(1.37397 0.0192631 1.06181e-18)
(1.3691 0.0163814 -3.36139e-19)
(0.00644371 -0.000406974 -9.56495e-19)
(0.0639571 -0.00924393 -2.98073e-19)
(0.160251 -0.0146456 2.33139e-19)
(0.285478 -0.0167717 1.47193e-19)
(0.429975 -0.0153151 1.50279e-19)
(0.583647 -0.010362 1.52887e-19)
(0.736522 -0.0027331 -3.81871e-19)
(0.879893 0.00638667 -1.54489e-19)
(1.00727 0.0157893 5.03481e-20)
(1.1148 0.0244693 -4.53878e-19)
(1.20119 0.0317396 -1.98552e-19)
(1.26719 0.0372492 1.19871e-18)
(1.31492 0.040932 -3.10352e-19)
(1.34725 0.0429245 -4.09075e-19)
(1.36722 0.0434807 -1.82029e-19)
(1.37773 0.0429006 1.32129e-19)
(1.38132 0.0414829 1.46513e-19)
(1.38007 0.0395025 -6.95868e-19)
(1.37556 0.0371106 9.79817e-19)
(1.36883 0.034052 -8.47674e-19)
(0.0135973 -0.00249167 -1.08173e-19)
(0.0870862 -0.0131533 3.0915e-20)
(0.200023 -0.0176099 -3.95649e-20)
(0.340862 -0.0170247 5.79321e-19)
(0.498108 -0.0118262 3.17201e-20)
(0.66012 -0.00275473 2.12078e-19)
(0.816096 0.00878187 -4.39944e-19)
(0.957412 0.0211785 -1.49298e-20)
(1.07846 0.0330203 6.00007e-19)
(1.17675 0.043286 8.00876e-20)
(1.25244 0.0514032 -5.07469e-19)
(1.30755 0.0571976 -4.35427e-20)
(1.34514 0.0607879 -3.93385e-19)
(1.36865 0.0624693 3.98084e-19)
(1.38139 0.0626137 5.27619e-19)
(1.38625 0.061598 -5.74231e-20)
(1.38562 0.059764 -6.46554e-20)
(1.38136 0.0574003 1.98315e-19)
(1.37482 0.0546603 -6.12425e-19)
(1.36683 0.051399 5.50518e-19)
(0.0218849 -0.00433348 1.09026e-19)
(0.112908 -0.0160485 -7.01556e-19)
(0.243189 -0.0186586 1.87545e-19)
(0.399352 -0.0145225 -5.83871e-19)
(0.568029 -0.00497325 2.0084e-19)
(0.73623 0.00848428 -7.434e-19)
(0.892752 0.0238379 2.9822e-19)
(1.02958 0.0391313 -9.48595e-20)
(1.1424 0.0528583 -3.82769e-21)
(1.23034 0.0640993 9.21688e-20)
(1.29502 0.0724862 -3.35059e-19)
(1.33961 0.0780747 -4.66362e-19)
(1.36791 0.0811876 -9.07133e-20)
(1.38372 0.082275 -4.05017e-20)
(1.39039 0.0818107 -1.02203e-19)
(1.3907 0.0802283 -3.21663e-20)
(1.38682 0.0778926 -9.55389e-20)
(1.38033 0.0750906 -8.13273e-20)
(1.37236 0.0719762 -2.31105e-19)
(1.36357 0.0684972 3.61701e-19)
(0.0313135 -0.00581556 2.60996e-19)
(0.141297 -0.0176408 -2.9e-19)
(0.28935 -0.0174322 6.25349e-19)
(0.460182 -0.00894351 -2.70308e-19)
(0.638619 0.00542809 7.2218e-19)
(0.810663 0.0233446 1.11439e-20)
(0.96524 0.0422303 3.5896e-19)
(1.09545 0.0598955 -9.60108e-20)
(1.19865 0.0748807 3.90266e-19)
(1.27564 0.0864825 2.47524e-20)
(1.32947 0.0946096 8.95312e-19)
(1.36424 0.0995776 -6.12058e-19)
(1.38428 0.101913 8.49989e-20)
(1.39352 0.102204 1.56257e-19)
(1.39523 0.101001 7.67672e-19)
(1.39197 0.0987725 -2.7432e-19)
(1.38564 0.0958864 -5.24801e-20)
(1.37756 0.0926151 -2.65605e-19)
(1.36862 0.0891146 -2.40114e-20)
(1.35933 0.0854035 1.30663e-19)
(0.0418648 -0.00681736 -1.24249e-19)
(0.172052 -0.0176499 3.60653e-19)
(0.337996 -0.0136094 -3.71389e-19)
(0.52248 -4.26678e-05 1.45955e-19)
(0.708728 0.0194586 -1.75258e-19)
(0.882203 0.0417111 6.40038e-19)
(1.03253 0.0636773 -8.94777e-20)
(1.15441 0.0830891 2.12692e-19)
(1.24707 0.0986791 -1.26443e-19)
(1.313 0.11006 -3.20659e-21)
(1.35649 0.117466 1.36555e-19)
(1.38237 0.121481 -1.03522e-19)
(1.39524 0.122819 2.66204e-19)
(1.39901 0.122176 -1.32503e-19)
(1.39675 0.120155 -5.5761e-19)
(1.39076 0.117235 5.47524e-19)
(1.38262 0.113771 -2.39097e-19)
(1.37342 0.110012 1.89885e-19)
(1.36385 0.10612 3.18705e-19)
(1.3543 0.102157 1.30168e-19)
(0.0534914 -0.0072173 3.09732e-19)
(0.204896 -0.015813 -6.38803e-19)
(0.388518 -0.00692081 1.21934e-19)
(0.585307 0.0123385 -8.90489e-20)
(0.777229 0.0370959 -3.59144e-19)
(0.949777 0.0633787 -2.79307e-19)
(1.09386 0.087844 -5.53395e-20)
(1.20613 0.108323 -4.87949e-19)
(1.2878 0.123877 -2.85138e-20)
(1.34294 0.134514 -8.82983e-20)
(1.37686 0.140816 -2.35555e-19)
(1.39487 0.143624 -5.29661e-20)
(1.40166 0.143809 -1.752e-19)
(1.40098 0.142146 -2.82939e-19)
(1.39562 0.139262 2.83665e-19)
(1.38756 0.135625 3.50507e-20)
(1.37812 0.131568 6.95644e-20)
(1.36817 0.127309 -3.11213e-19)
(1.35823 0.123018 -9.91781e-21)
(1.34856 0.118779 -4.63265e-19)
(0.0661155 -0.00689626 3.36953e-19)
(0.239476 -0.0118945 2.25492e-19)
(0.440229 0.00283954 -3.65619e-19)
(0.647697 0.0282662 5.70073e-19)
(0.843067 0.0582222 -6.21821e-20)
(1.0125 0.0880714 2.10782e-19)
(1.1487 0.114365 7.24198e-20)
(1.25052 0.135217 2.51678e-19)
(1.32116 0.150138 -1.96856e-19)
(1.36608 0.15958 6.34973e-20)
(1.39135 0.164474 -6.07273e-20)
(1.40256 0.165889 -2.51194e-20)
(1.4043 0.164821 4.87964e-20)
(1.40006 0.16209 -8.77671e-20)
(1.39232 0.158318 -2.54263e-20)
(1.38274 0.153952 -7.90267e-20)
(1.37241 0.149288 -1.26027e-19)
(1.36198 0.144517 8.21527e-20)
(1.35184 0.139819 -1.07133e-19)
(1.34216 0.135272 4.67319e-19)
(0.079628 -0.0057417 -1.67158e-19)
(0.275375 -0.00569607 -4.7633e-19)
(0.492385 0.0158056 -6.32964e-20)
(0.708694 0.0477146 -1.81159e-20)
(0.9053 0.0826355 -2.12995e-19)
(1.06966 0.115462 -3.4739e-19)
(1.19674 0.142865 1.11797e-19)
(1.2877 0.163416 -1.53231e-19)
(1.34761 0.177168 -1.68343e-19)
(1.38308 0.18504 9.21171e-20)
(1.4007 0.188295 -6.88858e-20)
(1.40614 0.188193 -1.35918e-19)
(1.40376 0.185812 -2.33953e-21)
(1.39674 0.181986 9.12384e-20)
(1.38721 0.177316 -8.93566e-20)
(1.37656 0.172211 1.24034e-19)
(1.36562 0.16693 3.42767e-20)
(1.35491 0.161633 8.17687e-20)
(1.3447 0.156517 1.53485e-19)
(1.33509 0.151626 -1.31077e-19)
(0.09389 -0.00365202 1.59114e-19)
(0.312121 0.00293502 -1.28665e-20)
(0.544216 0.0320333 7.25472e-20)
(0.767388 0.0705694 -9.74124e-20)
(0.96312 0.110064 9.03707e-21)
(1.12078 0.145187 3.33989e-19)
(1.23787 0.172968 -2.17832e-19)
(1.31793 0.19259 9.0554e-20)
(1.36764 0.20471 7.87641e-20)
(1.39457 0.210717 -2.18466e-19)
(1.40557 0.212167 2.02494e-19)
(1.4062 0.210467 1.62867e-21)
(1.40053 0.206741 -1.37687e-19)
(1.39138 0.201811 1.64711e-19)
(1.38054 0.196238 -6.41474e-20)
(1.36915 0.190386 4.8466e-20)
(1.35785 0.184474 -5.45017e-20)
(1.34702 0.178638 -2.2398e-20)
(1.33684 0.173089 -1.80406e-19)
(1.32735 0.167818 5.55073e-20)
(0.108735 -0.000540842 -5.27586e-20)
(0.349201 0.0140981 1.43482e-19)
(0.594948 0.0514982 2.27124e-20)
(0.822946 0.0966354 9.37389e-20)
(1.01587 0.140179 4.45723e-20)
(1.16552 0.176864 2.09246e-20)
(1.27215 0.204311 1.16265e-19)
(1.34153 0.222436 -1.41249e-20)
(1.3818 0.232541 4.98635e-20)
(1.40114 0.236457 7.91012e-20)
(1.40651 0.23599 3.73728e-20)
(1.40322 0.23265 2.64286e-20)
(1.39498 0.227569 1.06226e-19)
(1.38424 0.221532 -1.02737e-19)
(1.37249 0.215053 2.16868e-20)
(1.36062 0.208446 -1.98201e-20)
(1.34914 0.201889 3.08639e-20)
(1.3383 0.195498 2.55842e-20)
(1.32822 0.189502 5.18794e-20)
(1.3189 0.183811 1.86227e-21)
(0.123974 0.00365908 3.13597e-20)
(0.386075 0.0278337 2.85876e-20)
(0.643828 0.0740962 -3.96893e-20)
(0.874631 0.125646 2.47784e-20)
(1.06304 0.172612 1.38127e-20)
(1.20372 0.210104 -4.31611e-20)
(1.29973 0.236544 1.39655e-20)
(1.35892 0.252681 2.66403e-21)
(1.39059 0.260462 2.35905e-20)
(1.40333 0.262125 -6.28166e-20)
(1.404 0.259675 -3.98272e-23)
(1.39758 0.254678 1.68716e-20)
(1.38738 0.248244 -1.34679e-20)
(1.37549 0.241105 1.35061e-20)
(1.36314 0.233716 3.44599e-20)
(1.35101 0.226345 -1.93588e-20)
(1.33949 0.219129 5.55601e-21)
(1.32873 0.212168 2.06947e-20)
(1.31882 0.205707 -3.36114e-20)
(1.30972 0.199561 1.63414e-20)
(0.139398 0.00899256 8.58475e-20)
(0.422195 0.0441211 -4.70617e-20)
(0.690149 0.0996479 5.55516e-20)
(0.921811 0.157275 -4.12817e-20)
(1.10426 0.206964 -1.82951e-20)
(1.23532 0.244515 5.6948e-21)
(1.32084 0.269335 -1.76887e-20)
(1.37051 0.283068 6.30621e-20)
(1.3945 0.288292 -5.20347e-20)
(1.4016 0.287597 1.2177e-20)
(1.39843 0.283133 -9.05972e-21)
(1.38956 0.276481 -5.74952e-20)
(1.37793 0.268704 5.53758e-20)
(1.36527 0.260469 2.07285e-20)
(1.35257 0.252169 -2.04764e-20)
(1.34035 0.244024 4.75749e-20)
(1.3289 0.236135 -8.93803e-22)
(1.31832 0.228592 -4.50912e-20)
(1.30862 0.221651 3.29699e-20)
(1.29977 0.215016 1.02345e-20)
(0.154786 0.0154796 -3.01707e-20)
(0.457019 0.0628775 8.68643e-20)
(0.733267 0.127905 1.00638e-19)
(0.963973 0.191147 -4.74989e-20)
(1.1393 0.242817 8.21999e-20)
(1.26041 0.27971 1.28943e-19)
(1.33579 0.302369 -7.23605e-21)
(1.37671 0.313363 -2.16563e-20)
(1.39397 0.31586 1.06713e-19)
(1.39634 0.312748 5.16276e-20)
(1.3901 0.306268 -9.06583e-21)
(1.3794 0.297979 7.57832e-20)
(1.36677 0.288875 -7.98352e-20)
(1.35364 0.279551 1.24406e-19)
(1.3408 0.27034 -2.05043e-20)
(1.32864 0.261412 5.80791e-20)
(1.31736 0.252838 1.01346e-20)
(1.30702 0.244702 4.041e-20)
(1.29758 0.237267 -3.83943e-20)
(1.28903 0.230116 9.51697e-21)
(0.169908 0.0231133 -4.68516e-20)
(0.490024 0.0839586 1.0847e-19)
(0.772608 0.158557 8.09331e-20)
(1.00071 0.226849 -1.22307e-20)
(1.16803 0.279744 1.25498e-19)
(1.27911 0.315311 -9.45201e-20)
(1.34489 0.335346 -6.57042e-21)
(1.37792 0.343341 8.16597e-20)
(1.38939 0.343003 2.57784e-20)
(1.38788 0.337455 3.57994e-20)
(1.37927 0.328978 -5.24805e-20)
(1.36726 0.319078 1.36132e-19)
(1.354 0.308669 2.48472e-20)
(1.34067 0.298266 -1.18548e-19)
(1.32786 0.288142 1.7194e-19)
(1.31588 0.278426 -2.01063e-19)
(1.30486 0.26916 -9.08905e-20)
(1.29482 0.260424 1.5842e-20)
(1.2857 0.252485 8.68942e-20)
(1.27749 0.244796 -1.64616e-19)
(0.184531 0.0318591 -1.02717e-19)
(0.520721 0.107163 -2.43614e-19)
(0.807685 0.191243 -2.12161e-19)
(1.03174 0.263941 -2.85967e-19)
(1.19043 0.317314 -1.62131e-19)
(1.29164 0.350951 -3.33817e-19)
(1.34848 0.367979 4.25133e-20)
(1.37453 0.372787 -1.74953e-19)
(1.38111 0.369559 -1.91739e-20)
(1.37651 0.361588 2.85912e-20)
(1.36614 0.351151 -6.22271e-20)
(1.35327 0.339676 7.75735e-20)
(1.3397 0.327985 1.36755e-19)
(1.32638 0.316515 -1.92174e-19)
(1.31377 0.305483 3.08136e-20)
(1.30207 0.294976 8.7525e-20)