/*--------------------------------*- C++ -*----------------------------------*\
  =========                 |
  \\      /  F ield         | OpenFOAM: The Open Source CFD Toolbox
   \\    /   O peration     | Website:  https://openfoam.org
    \\  /    A nd           | Version:  6.0
     \\/     M anipulation  |
\*---------------------------------------------------------------------------*/
FoamFile
{
    version     2.0;
    format      ascii;
    class       surfaceScalarField;
    location    "86";
    object      phi;
}
// * * * * * * * * * * * * * * * * * * * * * * * * * * * * * * * * * * * * * //

dimensions      [0 3 -1 0 0 0 0];

internalField   nonuniform List<scalar> 
7840
(
3.66421e-05
-0.000293175
0.000127835
-0.000899528
0.000253755
-0.00149131
0.000393727
-0.00202308
0.000529908
-0.00246213
0.000650156
-0.00279602
0.000748601
-0.00303013
0.000824436
-0.00318066
0.000880051
-0.00326758
0.000919283
-0.00330984
0.000946176
-0.00332298
0.000964279
-0.00331849
0.000976371
-0.00330423
0.000984467
-0.00328525
0.00098995
-0.00326461
0.000993734
-0.00324412
0.000996419
-0.00322477
0.00099839
-0.00320715
0.000999887
-0.00319153
-0.0031781
0.00100103
3.77408e-05
-0.000330916
0.00012895
-0.000990737
0.000251251
-0.00161362
0.000382898
-0.00215473
0.000506599
-0.00258584
0.00061179
-0.00290121
0.000694393
-0.00311273
0.00075505
-0.00324132
0.000797026
-0.00330956
0.000824495
-0.00333731
0.000841445
-0.00333993
0.00085115
-0.00332819
0.000856044
-0.00330913
0.000857807
-0.00328702
0.000857549
-0.00326436
0.000855984
-0.00324255
0.000853571
-0.00322236
0.000850606
-0.00320419
0.000847266
-0.00318819
-0.00317448
0.000843641
3.84072e-05
-0.000369323
0.000128464
-0.00108079
0.000245593
-0.00173074
0.000367493
-0.00227663
0.000477859
-0.0026962
0.000567868
-0.00299122
0.00063515
-0.00318002
0.00068157
-0.00328774
0.000711022
-0.00333901
0.000727816
-0.00335411
0.000735758
-0.00334787
0.000737799
-0.00333024
0.000736022
-0.00330735
0.000731806
-0.0032828
0.000726029
-0.00325858
0.000719241
-0.00323576
0.000711795
-0.00321491
0.000703919
-0.00319631
0.000695749
-0.00318002
-0.00316608
0.000687354
3.86146e-05
-0.000407938
0.000126375
-0.00116855
0.000236929
-0.0018413
0.000347944
-0.00238765
0.000444446
-0.0027927
0.000519418
-0.00306619
0.00057205
-0.00323265
0.000605196
-0.00332089
0.000623155
-0.00335697
0.000630213
-0.00336116
0.000629911
-0.00334757
0.000624854
-0.00332518
0.000616795
-0.00329929
0.000606849
-0.00327285
0.000595698
-0.00324743
0.000583763
-0.00322383
0.000571317
-0.00320247
0.000558538
-0.00318353
0.000545533
-0.00316701
-0.0031529
0.000532356
3.83481e-05
-0.000446286
0.000122717
-0.00125292
0.000225472
-0.00194405
0.000324737
-0.00248691
0.000407117
-0.00287508
0.000467387
-0.00312646
0.000506116
-0.00327138
0.000526915
-0.00334169
0.000534296
-0.00336435
0.000532401
-0.00335927
0.000524459
-0.00333963
0.00051273
-0.00331345
0.000498668
-0.00328523
0.000483158
-0.00325734
0.000466724
-0.00323099
0.000449685
-0.00320679
0.000432252
-0.00318504
0.000414566
-0.00316585
0.000396718
-0.00314916
-0.00313494
0.000378753
3.76043e-05
-0.00048389
0.000117563
-0.00133288
0.000211483
-0.00203797
0.000298379
-0.00257381
0.000366604
-0.00294331
0.000412645
-0.0031725
0.000438243
-0.00329698
0.000447557
-0.003351
0.000445157
-0.00336195
0.000434955
-0.00334906
0.000419845
-0.00332452
0.000401762
-0.00329536
0.000381893
-0.00326536
0.000360932
-0.00323638
0.000339272
-0.00320933
0.000317154
-0.00318467
0.000294737
-0.00316262
0.00027214
-0.00314325
0.000249442
-0.00312647
-0.00311218
0.000226685
3.63904e-05
-0.000520281
0.000111012
-0.0014075
0.000195252
-0.00212221
0.000269382
-0.00264794
0.000323594
-0.00299752
0.00035596
-0.00320486
0.000369189
-0.0033102
0.000367802
-0.00334961
0.000356299
-0.00335045
0.000338311
-0.00333108
0.000316397
-0.00330261
0.00029219
-0.00327116
0.000266651
-0.00323982
0.000240312
-0.00321004
0.000213462
-0.00318249
0.000186275
-0.00315748
0.000158876
-0.00313522
0.000131361
-0.00311573
0.000103808
-0.00309891
-0.00308463
7.62594e-05
3.47231e-05
-0.000555004
0.000103186
-0.00147597
0.000177082
-0.00219611
0.000238242
-0.0027091
0.000278715
-0.00303799
0.000298004
-0.00322415
0.000299593
-0.00331179
0.000288199
-0.00333822
0.000268165
-0.00333042
0.000242809
-0.00330572
0.000214365
-0.00327416
0.000184201
-0.00324099
0.000153082
-0.0032087
0.000121412
-0.00317837
8.93935e-05
-0.00315047
5.71462e-05
-0.00312524
2.47618e-05
-0.00310283
-7.67408e-06
-0.0030833
-4.00847e-05
-0.0030665
-0.0030523
-7.24195e-05
3.26274e-05
-0.000587631
9.42236e-05
-0.00153756
0.000157283
-0.00225917
0.000205428
-0.00275724
0.00023253
-0.0030651
0.00023936
-0.00323098
0.000229987
-0.00330242
0.000209197
-0.00331743
0.000181106
-0.00330233
0.00014871
-0.00327332
0.000113941
-0.00323939
7.79331e-05
-0.00320499
4.12944e-05
-0.00317207
4.3206e-06
-0.0031414
-3.28538e-05
-0.00311329
-7.01574e-05
-0.00308793
-0.000107527
-0.00306547
-0.000144886
-0.00304594
-0.000182152
-0.00302924
-0.00301519
-0.000219263
3.01351e-05
-0.000617766
8.42708e-05
-0.0015917
0.000136158
-0.00231106
0.000171374
-0.00279246
0.000185542
-0.00307927
0.000180522
-0.00322596
0.000160813
-0.00328271
0.000131156
-0.00328777
9.54008e-05
-0.00326657
5.62206e-05
-0.00323414
1.52748e-05
-0.00319845
-2.65006e-05
-0.00316321
-6.86273e-05
-0.00312994
-0.000110892
-0.00309913
-0.000153218
-0.00307097
-0.000195576
-0.00304557
-0.00023793
-0.00302311
-0.000280214
-0.00300366
-0.000322332
-0.00298712
-0.00297332
-0.000364204
2.72835e-05
-0.00064505
7.34793e-05
-0.00163789
0.000113999
-0.00235158
0.000136478
-0.00281494
0.000138189
-0.00308098
0.000121916
-0.00320969
9.24384e-05
-0.00325323
5.43745e-05
-0.00324971
1.12775e-05
-0.00322347
-3.44873e-05
-0.00318838
-8.15056e-05
-0.00315143
-0.000129006
-0.00311571
-0.000176612
-0.00308233
-0.000224172
-0.00305157
-0.000271655
-0.00302348
-0.000319071
-0.00299816
-0.000366416
-0.00297577
-0.000413632
-0.00295644
-0.000460607
-0.00294014
-0.00292669
-0.000507233
2.41139e-05
-0.000669164
6.20012e-05
-0.00167578
9.10808e-05
-0.00238065
0.0001011
-0.00282496
9.0859e-05
-0.00307073
6.39052e-05
-0.00318274
2.51751e-05
-0.0032145
-2.08979e-05
-0.00320364
-7.1069e-05
-0.0031733
-0.000123264
-0.00313618
-0.000176285
-0.00309841
-0.000229496
-0.0030625
-0.000282595
-0.00302923
-0.000335473
-0.0029987
-0.000388134
-0.00297082
-0.000440628
-0.00294566
-0.000492984
-0.00292341
-0.00054516
-0.00290426
-0.000597023
-0.00288828
-0.00287529
-0.000648426
2.06706e-05
-0.000689834
4.99866e-05
-0.0017051
6.76622e-05
-0.00239833
6.55656e-05
-0.00282286
4.38906e-05
-0.00304906
6.80135e-06
-0.00314565
-4.07103e-05
-0.00316699
-9.44431e-05
-0.0031499
-0.000151463
-0.00311628
-0.000209966
-0.00307768
-0.000268945
-0.00303943
-0.000327874
-0.00300357
-0.000386503
-0.00297061
-0.000444748
-0.00294045
-0.000502633
-0.00291294
-0.000560241
-0.00288806
-0.000617649
-0.002866
-0.000674842
-0.00284707
-0.00073167
-0.00283145
-0.00281904
-0.00078792
1.70001e-05
-0.000706834
3.7581e-05
-0.00172568
4.39822e-05
-0.00240473
3.01651e-05
-0.00280904
-2.41807e-06
-0.00301648
-4.91217e-05
-0.00309894
-0.000104982
-0.00311113
-0.000166061
-0.00308882
-0.000229732
-0.00305261
-0.000294442
-0.00301297
-0.000359351
-0.00297452
-0.000424024
-0.0029389
-0.000488245
-0.00290638
-0.000551934
-0.00287676
-0.000615119
-0.00284975
-0.000677907
-0.00282527
-0.000740427
-0.00280348
-0.000802714
-0.00278478
-0.000864608
-0.00276956
-0.00275785
-0.000925792
1.31496e-05
-0.000719984
2.4924e-05
-0.00173745
2.02612e-05
-0.00240007
-4.83956e-06
-0.00278394
-4.78032e-05
-0.00297351
-0.000103621
-0.00304313
-0.000167425
-0.00304733
-0.00023556
-0.00302069
-0.000305697
-0.00298248
-0.000376517
-0.00294215
-0.000447332
-0.0029037
-0.000517786
-0.00286844
-0.000587686
-0.00283648
-0.000656938
-0.00280751
-0.000725547
-0.00278114
-0.000793623
-0.00275719
-0.000861341
-0.00273576
-0.000928805
-0.00271732
-0.000995861
-0.0027025
-0.00269167
-0.00106204
9.16667e-06
-0.000729151
1.21479e-05
-0.00174043
-3.29932e-06
-0.00238462
-3.92145e-05
-0.00274803
-9.20305e-05
-0.0029207
-0.000156479
-0.00297868
-0.000227838
-0.00297597
-0.000302748
-0.00294578
-0.000379163
-0.00290606
-0.000455985
-0.00286533
-0.000532668
-0.00282702
-0.000608934
-0.00279218
-0.000684615
-0.0027608
-0.000759595
-0.00273253
-0.00083383
-0.00270691
-0.000907391
-0.00268363
-0.000980475
-0.00266268
-0.00105327
-0.00264452
-0.00112566
-0.00263012
-0.00262028
-0.00119704
5.09805e-06
-0.000734249
-6.23435e-07
-0.00173471
-2.65168e-05
-0.00235873
-7.27516e-05
-0.00270179
-0.000134892
-0.00285856
-0.000207497
-0.00290607
-0.00028603
-0.00289743
-0.000367427
-0.00286438
-0.000449915
-0.00282357
-0.0005326
-0.00278264
-0.000615076
-0.00274455
-0.000697153
-0.0027101
-0.000778705
-0.00267925
-0.000859608
-0.00265163
-0.000939759
-0.00262676
-0.00101916
-0.00260423
-0.00109799
-0.00258385
-0.00117655
-0.00256596
-0.0012548
-0.00255187
-0.00254274
-0.00133234
9.88978e-07
-0.000735238
-1.32761e-05
-0.00172045
-4.92279e-05
-0.00232278
-0.000105268
-0.00264575
-0.000176204
-0.00278762
-0.000256496
-0.00282578
-0.000341819
-0.00281211
-0.000429397
-0.0027768
-0.000517717
-0.00273525
-0.000606076
-0.00269428
-0.000694209
-0.00265641
-0.000782034
-0.00262227
-0.000869499
-0.00259179
-0.000956517
-0.00256461
-0.00104296
-0.00254032
-0.00112874
-0.00251845
-0.00121402
-0.00249857
-0.00129922
-0.00248076
-0.00138457
-0.00246653
-0.00245671
-0.0014706
-3.11799e-06
-0.00073212
-2.57074e-05
-0.00169786
-7.12906e-05
-0.00227719
-0.000136607
-0.00258043
-0.000215812
-0.00270842
-0.00030332
-0.00273827
-0.000395034
-0.0027204
-0.000488457
-0.00268338
-0.000582312
-0.0026414
-0.000676076
-0.00260052
-0.000769626
-0.00256286
-0.000863011
-0.00252889
-0.000956316
-0.00249848
-0.00104958
-0.00247134
-0.00114276
-0.00244714
-0.00123576
-0.00242544
-0.00132865
-0.00240569
-0.00142183
-0.00238757
-0.00151596
-0.0023724
-0.00235901
-0.00161366
-7.1839e-06
-0.000724936
-3.78276e-05
-0.00166721
-9.25847e-05
-0.00222244
-0.000166642
-0.00250638
-0.000253589
-0.00262147
-0.000347843
-0.00264402
-0.000445535
-0.00262271
-0.000544425
-0.00258449
-0.000643443
-0.00254238
-0.000742221
-0.00250174
-0.000840757
-0.00246433
-0.000939235
-0.00243041
-0.00103792
-0.00239979
-0.00113712
-0.00237215
-0.0012371
-0.00234716
-0.00133806
-0.00232448
-0.00144014
-0.00230361
-0.00154394
-0.00228377
-0.00165185
-0.00226449
-0.00225719
-0.00175367
-1.1162e-05
-0.000713774
-4.95414e-05
-0.00162883
-0.000112991
-0.00215899
-0.000195252
-0.00242412
-0.000289426
-0.00252729
-0.000389962
-0.00254348
-0.000493214
-0.00251945
-0.000597171
-0.00248053
-0.000700932
-0.00243862
-0.00080423
-0.00239844
-0.000907124
-0.00236143
-0.00100984
-0.00232769
-0.00111273
-0.0022969
-0.00121626
-0.00226862
-0.00132105
-0.00224236
-0.00142794
-0.0022176
-0.00153773
-0.00219382
-0.00165082
-0.00217068
-0.0017682
-0.00214711
-0.00211608
-0.00190932
-1.50445e-05
-0.000698729
-6.08249e-05
-0.00158305
-0.000132482
-0.00208733
-0.000222418
-0.00233418
-0.000323317
-0.0024264
-0.000429687
-0.00243711
-0.000538092
-0.00241105
-0.000646726
-0.0023719
-0.000754824
-0.00233052
-0.000862182
-0.00229109
-0.000968858
-0.00225476
-0.00107501
-0.00222154
-0.00118085
-0.00219106
-0.00128661
-0.00216286
-0.00139254
-0.00213643
-0.00149885
-0.00211129
-0.0016056
-0.00208706
-0.00171303
-0.00206325
-0.00182178
-0.00203836
-0.00200889
-0.00192896
-1.87952e-05
-0.000679934
-7.16115e-05
-0.00153024
-0.000150985
-0.00200796
-0.000248078
-0.00223709
-0.000355223
-0.00231925
-0.000466999
-0.00232534
-0.000580174
-0.00229787
-0.000693126
-0.00225895
-0.000805209
-0.00221844
-0.000916275
-0.00218002
-0.0010264
-0.00214463
-0.00113572
-0.00211222
-0.0012444
-0.00208238
-0.00135258
-0.00205468
-0.00146036
-0.00202866
-0.00156775
-0.00200391
-0.00167474
-0.00198007
-0.00178129
-0.0019567
-0.00188668
-0.00193297
-0.00190806
-0.00198751
-2.23946e-05
-0.000657539
-8.18667e-05
-0.00147077
-0.000168466
-0.00192136
-0.000272218
-0.00213334
-0.000385152
-0.00220632
-0.000501934
-0.00220856
-0.000619524
-0.00218028
-0.000736462
-0.00214201
-0.000852199
-0.0021027
-0.000966629
-0.00206559
-0.00107982
-0.00203144
-0.00119189
-0.00200015
-0.00130294
-0.00197133
-0.00141306
-0.00194457
-0.00152224
-0.00191948
-0.00163042
-0.00189573
-0.00173746
-0.00187303
-0.0018431
-0.00185107
-0.00194667
-0.0018294
-0.00180762
-0.00204711
-2.58275e-05
-0.000631712
-9.15663e-05
-0.00140503
-0.00018491
-0.00182801
-0.000294841
-0.0020234
-0.000413134
-0.00208802
-0.000534551
-0.00208714
-0.000656232
-0.0020586
-0.000776869
-0.00202137
-0.000896001
-0.00198357
-0.00101356
-0.00194803
-0.00112961
-0.00191539
-0.00124427
-0.00188549
-0.00135761
-0.00185798
-0.00146968
-0.0018325
-0.00158045
-0.0018087
-0.00168988
-0.0017863
-0.00179781
-0.00176509
-0.00190402
-0.00174486
-0.00200809
-0.00172532
-0.00170625
-0.00210947
-2.9082e-05
-0.00060263
-0.000100694
-0.00133341
-0.000200311
-0.0017284
-0.000315963
-0.00190775
-0.000439209
-0.00196478
-0.000564914
-0.00196143
-0.000690391
-0.00193313
-0.000814467
-0.0018973
-0.000936762
-0.00186128
-0.00105724
-0.00182755
-0.001176
-0.00179663
-0.00129312
-0.00176836
-0.0014087
-0.00174241
-0.00152277
-0.00171843
-0.00163532
-0.00169615
-0.0017463
-0.00167532
-0.00185563
-0.00165577
-0.00196314
-0.00163734
-0.00206866
-0.0016198
-0.001603
-0.00217191
-3.21492e-05
-0.000570481
-0.000109241
-0.00125632
-0.000214671
-0.00162297
-0.000335604
-0.00178682
-0.000463422
-0.00183696
-0.000593092
-0.00183176
-0.000722092
-0.00180413
-0.000849374
-0.00177001
-0.000974631
-0.00173602
-0.00109787
-0.00170432
-0.00121919
-0.00167531
-0.0013387
-0.00164885
-0.0014565
-0.00162461
-0.00157263
-0.00160231
-0.0016871
-0.00158167
-0.00179992
-0.00156251
-0.00191103
-0.00154466
-0.00202037
-0.001528
-0.00212787
-0.0015123
-0.00149749
-0.00223338
-3.50223e-05
-0.000535458
-0.000117201
-0.00117414
-0.000227997
-0.00151217
-0.000353791
-0.00166102
-0.000485816
-0.00170494
-0.000619148
-0.00169843
-0.000751416
-0.00167186
-0.000881686
-0.00163974
-0.00100972
-0.00160798
-0.00113557
-0.00157847
-0.00125934
-0.00155154
-0.00138117
-0.00152702
-0.00150116
-0.00150462
-0.00161938
-0.00148408
-0.00173588
-0.00146517
-0.00185068
-0.00144771
-0.00196379
-0.00143156
-0.0020752
-0.00141658
-0.00218491
-0.00140259
-0.00138955
-0.00229285
-3.76962e-05
-0.000497762
-0.000124571
-0.00108727
-0.000240297
-0.00139644
-0.000370548
-0.00153077
-0.000506433
-0.00156905
-0.000643137
-0.00156173
-0.000778427
-0.00153657
-0.000911479
-0.00150669
-0.00104212
-0.00147735
-0.00117042
-0.00145017
-0.00129653
-0.00142543
-0.0014206
-0.00140295
-0.00154274
-0.00138248
-0.00166305
-0.00136377
-0.0017816
-0.00134662
-0.00189845
-0.00133086
-0.00201364
-0.00131636
-0.00212722
-0.00130301
-0.00223921
-0.0012906
-0.00127915
-0.0023496
-4.01667e-05
-0.000457596
-0.000131351
-0.000996086
-0.000251581
-0.00127621
-0.000385896
-0.00139646
-0.000525308
-0.00142964
-0.000665102
-0.00142193
-0.000803179
-0.00139849
-0.000938808
-0.00137106
-0.00107187
-0.00134428
-0.00120248
-0.00131956
-0.00133081
-0.0012971
-0.00145701
-0.00127675
-0.00158123
-0.00125826
-0.00170358
-0.00124142
-0.00182416
-0.00122604
-0.00194306
-0.00121196
-0.00206033
-0.00119909
-0.00217606
-0.00118728
-0.0022903
-0.00117636
-0.00116638
-0.00240307
-4.24301e-05
-0.000415165
-0.000137538
-0.000900978
-0.000261855
-0.0011519
-0.000399855
-0.00125846
-0.000542467
-0.00128703
-0.000685079
-0.00127932
-0.000825708
-0.00125786
-0.00096371
-0.00123306
-0.00109902
-0.00120897
-0.00123179
-0.00118679
-0.00136219
-0.0011667
-0.00149041
-0.00114853
-0.0016166
-0.00113207
-0.00174091
-0.00111711
-0.00186345
-0.0011035
-0.00198432
-0.0010911
-0.00210361
-0.00107979
-0.00222142
-0.00106947
-0.0023378
-0.00105997
-0.00105136
-0.00245283
-4.44835e-05
-0.000370682
-0.000143131
-0.00080233
-0.000271126
-0.0010239
-0.000412439
-0.00111715
-0.000557935
-0.00114153
-0.000703093
-0.00113416
-0.00084604
-0.00111491
-0.000986208
-0.00109289
-0.00112358
-0.0010716
-0.00125833
-0.00105205
-0.00139065
-0.00103438
-0.00152075
-0.00101843
-0.0016488
-0.00100402
-0.00177495
-0.000990963
-0.00189933
-0.000979118
-0.00202206
-0.000968364
-0.00214325
-0.000958602
-0.00226301
-0.000949717
-0.00238141
-0.000941572
-0.000934246
-0.00249852
-4.63237e-05
-0.000324358
-0.00014813
-0.000700524
-0.000279398
-0.000892634
-0.000423658
-0.000972886
-0.000571725
-0.000993464
-0.000719162
-0.000986726
-0.000864191
-0.000969886
-0.00100631
-0.000950771
-0.00114555
-0.000932356
-0.0012821
-0.000915501
-0.00141618
-0.000900295
-0.001548
-0.000886607
-0.00167776
-0.000874266
-0.0018056
-0.000863119
-0.00193168
-0.000853036
-0.00205614
-0.000843912
-0.00217908
-0.000835659
-0.00230062
-0.000828173
-0.00242086
-0.000821336
-0.000815232
-0.00253987
-4.79481e-05
-0.00027641
-0.000152533
-0.000595939
-0.000286674
-0.000758492
-0.000433522
-0.000826039
-0.000583849
-0.000843136
-0.000733296
-0.000837279
-0.000880169
-0.000823013
-0.00102403
-0.000806912
-0.00116493
-0.000791453
-0.00130309
-0.00077734
-0.00143875
-0.00076464
-0.00157212
-0.000753235
-0.0017034
-0.000742981
-0.00183278
-0.000733745
-0.0019604
-0.000725417
-0.0020864
-0.000717908
-0.00221092
-0.000711139
-0.00233407
-0.000705021
-0.00245595
-0.000699454
-0.000694524
-0.00257666
-4.93541e-05
-0.000227056
-0.000156337
-0.000488957
-0.000292955
-0.000621874
-0.000442034
-0.00067696
-0.000594314
-0.000690856
-0.000745503
-0.00068609
-0.000893978
-0.000674537
-0.00103935
-0.000661539
-0.00118171
-0.000649095
-0.00132128
-0.000637768
-0.00145832
-0.000627603
-0.00159305
-0.000618503
-0.00172568
-0.000610347
-0.0018564
-0.000603025
-0.00198537
-0.000596447
-0.00211274
-0.000590539
-0.00223865
-0.000585236
-0.00236321
-0.000580461
-0.00248653
-0.000576136
-0.00057234
-0.00260871
-5.05392e-05
-0.000176517
-0.000159539
-0.000379956
-0.000298241
-0.000483172
-0.000449197
-0.000526004
-0.000603124
-0.000536929
-0.000755785
-0.000533429
-0.000905618
-0.000524703
-0.00105228
-0.00051488
-0.00119587
-0.000505501
-0.00133665
-0.000496993
-0.00147486
-0.000489389
-0.00161075
-0.000482609
-0.00174454
-0.00047656
-0.00187641
-0.000471155
-0.00200653
-0.000466323
-0.00213507
-0.000462007
-0.00226215
-0.000458154
-0.0023879
-0.000454705
-0.00251244
-0.0004516
-0.000448908
-0.00263587
-5.15013e-05
-0.000125015
-0.000162139
-0.000269319
-0.000302532
-0.000342779
-0.000455014
-0.000373522
-0.000610281
-0.000381662
-0.000764143
-0.000379567
-0.000915087
-0.000373759
-0.0010628
-0.00036717
-0.00120741
-0.000360893
-0.00134917
-0.000355232
-0.00148835
-0.000350208
-0.00162519
-0.000345763
-0.00175993
-0.000341828
-0.00189274
-0.000338343
-0.00202381
-0.000335255
-0.00215329
-0.000332524
-0.00228133
-0.000330111
-0.00240806
-0.000327975
-0.00253359
-0.000326074
-0.000324463
-0.00265803
-5.22387e-05
-7.27768e-05
-0.000164133
-0.000157424
-0.000305827
-0.000201086
-0.000459485
-0.000219864
-0.000615787
-0.000225359
-0.000770578
-0.000224776
-0.000922382
-0.000221956
-0.00107091
-0.000218644
-0.0012163
-0.000215499
-0.00135883
-0.000212707
-0.00149876
-0.000210278
-0.00163634
-0.000208178
-0.0017718
-0.000206366
-0.00190534
-0.000204803
-0.00203714
-0.000203459
-0.00216735
-0.000202309
-0.00229613
-0.000201331
-0.00242361
-0.000200499
-0.00254989
-0.000199792
-0.000199246
-0.00267511
-5.275e-05
-2.00268e-05
-0.000165521
-4.46533e-05
-0.000308125
-5.84811e-05
-0.00046261
-6.53792e-05
-0.000619643
-6.83264e-05
-0.00077509
-6.93286e-05
-0.000927502
-6.95443e-05
-0.0010766
-6.95419e-05
-0.00122255
-6.95517e-05
-0.00136562
-6.96429e-05
-0.00150607
-6.98221e-05
-0.00164417
-7.00772e-05
-0.00178014
-7.03933e-05
-0.00191419
-7.07572e-05
-0.00204649
-7.11588e-05
-0.00217721
-7.15899e-05
-0.0023065
-7.20436e-05
-0.00243449
-7.25124e-05
-0.00256128
-7.2993e-05
-7.35037e-05
-0.00268703
-5.30341e-05
3.30073e-05
-0.000166301
6.86133e-05
-0.000309427
8.46453e-05
-0.000464391
8.95844e-05
-0.000621849
8.91317e-05
-0.00077768
8.65022e-05
-0.000930445
8.32216e-05
-0.00107988
7.98951e-05
-0.00122615
7.67168e-05
-0.00136952
7.37303e-05
-0.00151028
7.09341e-05
-0.00164867
6.8317e-05
-0.00178493
6.58664e-05
-0.00191926
6.35711e-05
-0.00205184
6.14205e-05
-0.00218284
5.94059e-05
-0.0023124
5.75189e-05
-0.00244066
5.57486e-05
-0.00256773
5.40799e-05
5.25155e-05
-0.00269375
-5.30912e-05
8.60986e-05
-0.000166473
0.000181995
-0.000309734
0.000227906
-0.000464829
0.000244679
-0.000622408
0.000246711
-0.000778349
0.000242443
-0.000931215
0.000236088
-0.00108074
0.000229425
-0.0012271
0.000223071
-0.00137055
0.000217183
-0.00151138
0.000211764
-0.00164984
0.000206779
-0.00178617
0.000202188
-0.00192055
0.000197956
-0.00205318
0.000194051
-0.00218422
0.000190447
-0.00231382
0.000187121
-0.00244212
0.000184044
-0.00256922
0.000181181
0.000178557
-0.00269526
-5.29208e-05
0.000139019
-0.000166038
0.000295113
-0.000309045
0.000370913
-0.000463924
0.000399559
-0.000621321
0.000404107
-0.000777099
0.000398221
-0.000929813
0.000388802
-0.00107919
0.000378806
-0.0012254
0.000369278
-0.0013687
0.000360486
-0.00150938
0.000352441
-0.00164769
0.000345084
-0.00178385
0.000338348
-0.00191806
0.000332171
-0.00205051
0.000326504
-0.00218137
0.000321302
-0.00231078
0.000316528
-0.00243887
0.000312134
-0.00256575
0.000308067
0.000304368
-0.00269156
-5.25235e-05
0.000191543
-0.000164996
0.000407586
-0.000307362
0.000513278
-0.00046168
0.000553876
-0.00061859
0.000561018
-0.000773934
0.000553565
-0.000926244
0.000541111
-0.00107524
0.000527798
-0.00122106
0.000515103
-0.00136399
0.000503413
-0.00150429
0.000492742
-0.00164221
0.000483009
-0.00177799
0.000474122
-0.00191181
0.000465995
-0.00204386
0.000458556
-0.00217431
0.000451745
-0.00230329
0.000445509
-0.00243093
0.000439782
-0.00255736
0.000434493
0.000429701
-0.00268269
-5.19003e-05
0.000243443
-0.00016335
0.000519035
-0.000304688
0.000654616
-0.000458097
0.000707285
-0.000614219
0.00071714
-0.000768859
0.000708204
-0.000920513
0.000692766
-0.00106888
0.000676165
-0.0012141
0.000660319
-0.00135642
0.000645737
-0.00149612
0.000632444
-0.00163345
0.000620337
-0.00176862
0.000609294
-0.00190183
0.000599208
-0.00203326
0.000589985
-0.00216307
0.00058155
-0.00229139
0.000573835
-0.00241837
0.000566757
-0.0025441
0.000560225
0.00055431
-0.00266871
-5.10526e-05
0.000294496
-0.000161101
0.000629083
-0.000301024
0.000794539
-0.000453179
0.000859441
-0.000608211
0.000872172
-0.000761877
0.00086187
-0.00091263
0.000843519
-0.00106014
0.000823671
-0.00120452
0.000804699
-0.00134602
0.000787241
-0.00148491
0.000771334
-0.00162143
0.000756853
-0.00175578
0.000743651
-0.00188817
0.000731597
-0.00201877
0.000720578
-0.00214772
0.0007105
-0.00227517
0.000701285
-0.00240124
0.000692832
-0.00252605
0.00068503
0.000677958
-0.00264969
-4.99822e-05
0.000344478
-0.000158251
0.000737352
-0.000296371
0.00093266
-0.000446926
0.00101
-0.000600568
0.00102581
-0.000752994
0.0010143
-0.000902601
0.000993126
-0.00104902
0.000970087
-0.00119234
0.000948024
-0.00133281
0.000927712
-0.00147068
0.000909203
-0.00160618
0.000892353
-0.00173952
0.000876991
-0.00187088
0.00086296
-0.00200043
0.000850128
-0.00212832
0.000838388
-0.00225468
0.000827646
-0.00237964
0.000817788
-0.00250329
0.000808685
0.000800414
-0.00262575
-4.8691e-05
0.000393169
-0.000154803
0.000843464
-0.000290733
0.00106859
-0.00043934
0.0011586
-0.000591291
0.00117776
-0.000742213
0.00116522
-0.000890434
0.00114135
-0.00103554
0.00111519
-0.00117759
0.00109008
-0.00131683
0.00106694
-0.00145348
0.00104585
-0.00158776
0.00102664
-0.00171989
0.00100912
-0.00185004
0.000993103
-0.00197835
0.000978443
-0.00210498
0.000965015
-0.00223005
0.000952716
-0.00235368
0.000941419
-0.00247597
0.000930972
0.000921451
-0.002597
-4.71812e-05
0.00044035
-0.00015076
0.000947043
-0.000284108
0.00120194
-0.000430419
0.00130491
-0.000580378
0.00132772
-0.000729534
0.00131437
-0.000876133
0.00128795
-0.0010197
0.00125876
-0.00116029
0.00123067
-0.00129809
0.00120474
-0.00143333
0.00118109
-0.00156622
0.00115954
-0.00169696
0.00113986
-0.00182571
0.00112185
-0.00195261
0.00110534
-0.00207779
0.0010902
-0.00220139
0.00107631
-0.0023235
0.00106353
-0.00244421
0.00105169
0.00104086
-0.00256362
-4.54549e-05
0.000485805
-0.000146122
0.00104771
-0.000276497
0.00133231
-0.00042016
0.00144858
-0.000567826
0.00147539
-0.000714954
0.0014615
-0.0008597
0.00143269
-0.00100153
0.00140059
-0.00114044
0.00136958
-0.00127662
0.00134092
-0.00141028
0.00131475
-0.00154162
0.00129087
-0.0016708
0.00126904
-0.00179799
0.00124904
-0.00192332
0.00123067
-0.0020469
0.00121378
-0.00216885
0.00119825
-0.00228926
0.00118394
-0.00240822
0.00117065
0.00115843
-0.00252579
-4.35143e-05
0.000529319
-0.000140892
0.00114509
-0.000267896
0.00145932
-0.000408556
0.00158924
-0.000553624
0.00162046
-0.000698465
0.00160634
-0.000841128
0.00157535
-0.000981008
0.00154047
-0.00111806
0.00150664
-0.00125245
0.00147531
-0.00138437
0.00144667
-0.00151399
0.0014205
-0.00164149
0.00139654
-0.00176699
0.00137454
-0.0018906
0.00135429
-0.00201244
0.00133562
-0.0021326
0.00131841
-0.00225116
0.0013025
-0.0023682
0.00128769
0.00127399
-0.00248376
-4.13616e-05
0.000570681
-0.000135069
0.0012388
-0.000258301
0.00158255
-0.000395595
0.00172653
-0.000537759
0.00176262
-0.000680051
0.00174864
-0.000820406
0.00171571
-0.000958137
0.0016782
-0.00109316
0.00164166
-0.00122559
0.00160775
-0.00135562
0.0015767
-0.00148341
0.00154828
-0.00160909
0.00152222
-0.00173279
0.00149824
-0.0018546
0.0014761
-0.0019746
0.00145562
-0.00209286
0.00143667
-0.00220945
0.00141909
-0.00232443
0.00140267
0.00138737
-0.00243781
-3.8999e-05
0.00060968
-0.000128653
0.00132845
-0.000247702
0.0017016
-0.000381262
0.00186009
-0.000520208
0.00190157
-0.000659688
0.00188812
-0.000797509
0.00185353
-0.000932895
0.00181358
-0.00106571
0.00177447
-0.00119604
0.00173808
-0.00132405
0.00170471
-0.00144989
0.00167412
-0.00157368
0.00164601
-0.0016955
0.00162006
-0.00181544
0.00159604
-0.00193354
0.00157372
-0.00204985
0.00155298
-0.00216441
0.00153365
-0.00227724
0.0015155
0.00149845
-0.00238833
-3.64288e-05
0.000646109
-0.000121642
0.00141366
-0.000236091
0.00181605
-0.000365537
0.00198953
-0.000500943
0.00203698
-0.000637341
0.00202451
-0.000772401
0.00198859
-0.000905246
0.00194643
-0.00103568
0.0019049
-0.00116377
0.00186618
-0.00128966
0.00183059
-0.00141346
0.00179792
-0.00153529
0.00176783
-0.00165521
0.00173998
-0.00177327
0.00171409
-0.00188948
0.00168994
-0.00200385
0.00166735
-0.00211638
0.00164618
-0.00222704
0.00162616
0.00160718
-0.00233577
-3.36538e-05
0.000679763
-0.000114035
0.00149404
-0.000223456
0.00192547
-0.000348395
0.00211447
-0.000479927
0.00216851
-0.000612964
0.00215755
-0.000745027
0.00212065
-0.000875134
0.00207654
-0.00100303
0.0020328
-0.00112874
0.00199189
-0.00125239
0.00195424
-0.00137408
0.00191962
-0.00149392
0.00188767
-0.00161195
0.00185801
-0.00172818
0.00183033
-0.0018426
0.00180435
-0.00195514
0.0017799
-0.00206575
0.00175679
-0.00217434
0.00173475
0.00171358
-0.00228074
-3.06775e-05
0.00071044
-0.000105833
0.0015692
-0.000209784
0.00202942
-0.000329807
0.0022345
-0.000457116
0.00229582
-0.0005865
0.00228693
-0.000715322
0.00224948
-0.00084248
0.0022037
-0.000967654
0.00215797
-0.00109084
0.00211508
-0.00121215
0.00207555
-0.00133169
0.00203916
-0.00144954
0.00200552
-0.00156573
0.0019742
-0.00168025
0.00194485
-0.00179304
0.00191714
-0.001904
0.00189086
-0.00201297
0.00186576
-0.00211973
0.00184151
0.00181783
-0.00222398
-2.75048e-05
0.000737945
-9.70345e-05
0.00163873
-0.000195063
0.00212745
-0.000309745
0.00234918
-0.000432462
0.00241853
-0.000557883
0.00241236
-0.0006832
0.00237479
-0.000807185
0.00232768
-0.000929446
0.00228023
-0.00104995
0.00223558
-0.00116881
0.0021944
-0.00128611
0.00215647
-0.00140197
0.00212137
-0.0015164
0.00208863
-0.00162939
0.00205784
-0.00174088
0.00202863
-0.0018507
0.00200068
-0.00195859
0.00197366
-0.00206413
0.00194704
0.00192036
-0.00216665
-2.41426e-05
0.000762088
-8.76465e-05
0.00170223
-0.000179285
0.00221909
-0.00028818
0.00245807
-0.000405914
0.00253627
-0.000527038
0.00253348
-0.000648563
0.00249632
-0.000769122
0.00244824
-0.000888242
0.00239935
-0.00100587
0.00235321
-0.0011221
0.00231063
-0.00123706
0.00227143
-0.00135088
0.00223518
-0.00146362
0.00220137
-0.00157529
0.00216951
-0.0016858
0.00213914
-0.00179502
0.00210989
-0.00190264
0.00208128
-0.00200793
0.00205234
0.00202217
-0.00210975
-2.06003e-05
0.000782688
-7.7679e-05
0.00175931
-0.000162448
0.00230386
-0.000265088
0.00256071
-0.000377425
0.0026486
-0.000493896
0.00264995
-0.000611316
0.00261374
-0.000728167
0.00256509
-0.000843892
0.00251508
-0.000958409
0.00246773
-0.00107183
0.00242405
-0.00118432
0.00238392
-0.00129605
0.00234692
-0.00140717
0.0023125
-0.00151779
0.00228012
-0.0016279
0.00224925
-0.00173749
0.00221948
-0.00184651
0.0021903
-0.00195419
0.00216001
0.00212458
-0.00205659
-1.68911e-05
0.000799579
-6.71503e-05
0.00180957
-0.000144561
0.00238127
-0.00024046
0.00265661
-0.00034696
0.0027551
-0.000458391
0.00276138
-0.000571359
0.00272671
-0.000684171
0.0026779
-0.000796168
0.00262707
-0.000907219
0.00257878
-0.00101743
0.00253425
-0.00112698
0.00249347
-0.00123609
0.00245603
-0.001345
0.00242141
-0.00145397
0.00238909
-0.0015632
0.00235848
-0.00167274
0.00232902
-0.00178286
0.00230042
-0.00189438
0.00227154
0.00223419
-0.002004
-1.30316e-05
0.000812611
-5.60885e-05
0.00185263
-0.000125647
0.00245082
-0.000214299
0.00274527
-0.000314499
0.0028553
-0.000420479
0.00286736
-0.000528621
0.00283485
-0.000637039
0.00278632
-0.00074495
0.00273499
-0.000852176
0.002686
-0.000958832
0.00264091
-0.00106519
0.00259983
-0.00117163
0.00256247
-0.00127867
0.00252845
-0.00138702
0.00249745
-0.0014976
0.00246906
-0.00161132
0.00244275
-0.00172849
0.00241758
-0.00185003
0.00239308
0.00238302
-0.00199885
-9.05687e-06
0.000821667
-4.4555e-05
0.00188813
-0.000105771
0.00251204
-0.00018666
0.00282615
-0.000280077
0.00294872
-0.000380173
0.00296746
-0.000483093
0.00293777
-0.000586729
0.00288996
-0.000690145
0.0028384
-0.000793076
0.00278893
-0.000895592
0.00274342
-0.000997931
0.00270217
-0.00110041
0.00266495
-0.00120338
0.00263142
-0.00130716
0.00260123