/*--------------------------------*- C++ -*----------------------------------*\
  =========                 |
  \\      /  F ield         | OpenFOAM: The Open Source CFD Toolbox
   \\    /   O peration     | Website:  https://openfoam.org
    \\  /    A nd           | Version:  6.0
     \\/     M anipulation  |
\*---------------------------------------------------------------------------*/
FoamFile
{
    version     2.0;
    format      ascii;
    class       volVectorField;
    location    "86";
    object      U;
}
// * * * * * * * * * * * * * * * * * * * * * * * * * * * * * * * * * * * * * //

dimensions      [0 1 -1 0 0 0 0];

internalField   nonuniform List<vector> 
4000
(
(0.109755 0.00790634 6.55414e-20)
(0.340927 0.0404747 -3.57398e-20)
(0.570051 0.0952579 4.20903e-20)
(0.779288 0.156106 -3.12792e-20)
(0.955016 0.212868 -1.39221e-20)
(1.09112 0.259931 4.28465e-21)
(1.18852 0.295009 -1.35285e-20)
(1.25271 0.318392 4.83494e-20)
(1.29108 0.331875 -3.99718e-20)
(1.31092 0.337781 9.36468e-21)
(1.31842 0.33834 -6.96649e-21)
(1.31825 0.335389 -4.43051e-20)
(1.3137 0.330296 4.26761e-20)
(1.30692 0.324004 1.59632e-20)
(1.29924 0.317124 -1.58073e-20)
(1.29147 0.310035 3.66654e-20)
(1.28405 0.302944 -6.96459e-22)
(1.27726 0.296002 -3.4738e-20)
(1.27121 0.289547 2.542e-20)
(1.26602 0.283409 7.78778e-21)
(0.12424 0.0133318 -2.30199e-20)
(0.375566 0.0567549 6.63252e-20)
(0.615579 0.120695 7.66646e-20)
(0.827073 0.187431 -3.61495e-20)
(0.998291 0.246536 6.26876e-20)
(1.1258 0.293056 9.85986e-20)
(1.21315 0.32575 -5.49467e-21)
(1.26775 0.345904 -1.66374e-20)
(1.29803 0.356041 8.20197e-20)
(1.31166 0.358907 3.97005e-20)
(1.31473 0.356911 -6.97617e-21)
(1.31161 0.351906 5.8273e-20)
(1.30521 0.345193 -6.14137e-20)
(1.29733 0.337624 9.54909e-20)
(1.28906 0.329725 -1.57662e-20)
(1.28101 0.321803 4.43965e-20)
(1.27353 0.314015 7.67024e-21)
(1.26678 0.306491 3.08688e-20)
(1.26084 0.299568 -2.93728e-20)
(1.25578 0.292948 7.07943e-21)
(0.138804 0.0198639 -3.56987e-20)
(0.409207 0.0753834 8.3685e-20)
(0.658248 0.14863 6.21903e-20)
(0.870057 0.220682 -9.38376e-21)
(1.03535 0.281279 9.63634e-20)
(1.15368 0.326464 -7.22749e-20)
(1.23114 0.356211 -5.14161e-21)
(1.27682 0.372833 6.27768e-20)
(1.29996 0.379531 1.97907e-20)
(1.30837 0.379397 2.75198e-20)
(1.3079 0.374943 -4.03769e-20)
(1.30254 0.36799 1.04176e-19)
(1.29482 0.359749 1.89482e-20)
(1.28623 0.350968 -9.07631e-20)
(1.27763 0.34209 1.30907e-19)
(1.26949 0.333356 -1.52983e-19)
(1.26206 0.324881 -6.88336e-20)
(1.25545 0.316778 1.19801e-20)
(1.24967 0.309383 6.58392e-20)
(1.24481 0.302267 -1.23223e-19)
(0.153209 0.0274992 -7.93832e-20)
(0.441278 0.0962188 -1.87466e-19)
(0.697394 0.178746 -1.62567e-19)
(0.90773 0.255441 -2.19707e-19)
(1.066 0.316677 -1.24443e-19)
(1.17485 0.359808 -2.5661e-19)
(1.24283 0.386151 3.2674e-20)
(1.28042 0.399036 -1.34471e-19)
(1.2974 0.402271 -1.47607e-20)
(1.30151 0.399212 2.19599e-20)
(1.29829 0.39241 -4.76787e-20)
(1.2913 0.383614 5.87941e-20)
(1.28271 0.373924 1.03743e-19)
(1.27373 0.363987 -1.46047e-19)
(1.26502 0.354161 2.28962e-20)
(1.25694 0.34463 6.58594e-20)
(1.24967 0.335473 1.09138e-19)
(1.24328 0.326794 -9.41573e-20)
(1.23773 0.318922 -4.30001e-21)
(1.23311 0.311297 1.07855e-19)
(0.167208 0.0362041 -1.48893e-19)
(0.471236 0.119057 4.09195e-19)
(0.732445 0.210674 -7.1825e-20)
(0.939716 0.29126 9.52943e-20)
(1.09015 0.352311 -9.24574e-20)
(1.18954 0.392759 2.84442e-19)
(1.24863 0.415339 -4.49252e-20)
(1.27902 0.424365 2.68617e-20)
(1.29079 0.424165 -1.29527e-20)
(1.29147 0.418281 4.31644e-20)
(1.28619 0.409246 2.77365e-20)
(1.2781 0.398705 3.44383e-20)
(1.26901 0.387638 -9.78836e-20)
(1.2599 0.376587 1.4195e-19)
(1.25127 0.365838 -1.07401e-19)
(1.24337 0.355524 1.98045e-20)
(1.23635 0.345689 -6.77732e-20)
(1.23025 0.336437 1.38531e-20)
(1.22498 0.328084 1.53814e-20)
(1.22067 0.319942 -1.46499e-19)
(0.180557 0.0459147 1.01072e-20)
(0.498586 0.143636 -2.04841e-19)
(0.762928 0.243997 1.13777e-19)
(0.965765 0.32768 -3.93642e-19)
(1.10784 0.387771 1.90766e-19)
(1.19801 0.424999 -3.2449e-19)
(1.24893 0.443557 -2.51819e-19)
(1.27306 0.448674 -9.51628e-21)
(1.28053 0.445113 -8.47111e-20)
(1.27857 0.436521 -2.61946e-19)
(1.27184 0.42537 -3.23404e-20)
(1.2631 0.413176 -2.47748e-19)
(1.25383 0.400796 4.50867e-20)
(1.2448 0.388674 -3.5168e-20)
(1.2364 0.377025 2.05314e-20)
(1.2288 0.365938 -1.60537e-19)
(1.22212 0.355432 9.51654e-21)
(1.21637 0.345613 3.2513e-20)
(1.21145 0.336778 -7.20005e-20)
(1.20749 0.32812 6.29901e-20)
(0.19302 0.056538 -8.41096e-20)
(0.522888 0.169645 3.73316e-19)
(0.788476 0.278268 3.27356e-21)
(0.985743 0.364234 -3.2132e-19)
(1.1192 0.422657 2.42645e-19)
(1.20057 0.456229 1.01243e-19)
(1.24414 0.470594 2.10549e-20)
(1.26293 0.471815 -1.68732e-19)
(1.26696 0.464999 2.74377e-19)
(1.26306 0.453831 -1.59197e-19)
(1.25542 0.440679 5.81056e-20)
(1.24641 0.426922 2.66592e-19)
(1.23724 0.413289 -2.38134e-19)
(1.22849 0.400133 2.59495e-19)
(1.22044 0.387607 -1.68399e-19)
(1.21325 0.37576 -3.29936e-20)
(1.20699 0.364595 3.8843e-20)
(1.20165 0.354216 4.824e-20)
(1.19713 0.344903 6.61058e-20)
(1.1936 0.335737 3.9729e-20)
(0.204376 0.0679532 3.26536e-20)
(0.54377 0.196733 -3.3343e-19)
(0.808825 0.313016 5.98245e-20)
(0.999622 0.400458 7.72633e-19)
(1.12442 0.456584 -7.14236e-20)
(1.19757 0.486161 2.11764e-19)
(1.23465 0.496243 1.32197e-19)
(1.249 0.493636 2.23441e-20)
(1.25039 0.483698 -1.51576e-19)
(1.24517 0.470093 2.48143e-19)
(1.23709 0.455058 -2.80238e-20)
(1.22814 0.439822 3.71486e-19)
(1.21929 0.424995 1.41276e-19)
(1.21099 0.410842 8.73026e-20)
(1.20343 0.397464 -1.82197e-19)
(1.19674 0.384877 3.8802e-20)
(1.19097 0.373066 1.39045e-19)
(1.18612 0.362141 3.47123e-20)
(1.18205 0.352355 -1.65416e-19)
(1.179 0.342698 -4.07959e-20)
(0.214425 0.0800148 -1.85354e-19)
(0.560934 0.224515 5.95708e-19)
(0.823813 0.347762 -3.24047e-19)
(1.00746 0.435897 -2.96951e-19)
(1.12376 0.489182 -2.58479e-19)
(1.18935 0.514519 -2.16805e-19)
(1.22082 0.520304 -2.65821e-19)
(1.2316 0.51398 3.31885e-19)
(1.23107 0.501074 -2.35267e-19)
(1.22509 0.485178 -1.8725e-20)
(1.21697 0.468374 -2.07834e-21)
(1.20838 0.451743 -4.45643e-20)
(1.20007 0.43578 -1.13391e-19)
(1.19236 0.420673 -1.24913e-19)
(1.18541 0.406473 -6.63273e-21)
(1.17929 0.393166 -2.73909e-20)
(1.1741 0.380729 -6.61703e-20)
(1.16979 0.369274 -1.98215e-20)
(1.16623 0.35903 2.24353e-20)
(1.16374 0.34891 -1.3643e-19)
(0.222993 0.0925561 3.2003e-19)
(0.574154 0.252586 3.32846e-19)
(0.833371 0.382021 -2.05891e-19)
(1.0094 0.47011 1.27649e-19)
(1.11751 0.520101 2.17606e-19)
(1.17628 0.541043 -4.39943e-20)
(1.20302 0.54258 5.3703e-20)
(1.21102 0.532688 5.93363e-20)
(1.20923 0.516984 9.84556e-20)
(1.20299 0.498946 -1.14642e-19)
(1.19519 0.480489 5.61665e-20)
(1.1872 0.462548 -3.78122e-20)
(1.17961 0.445509 1.68605e-19)
(1.17265 0.429492 7.14981e-20)
(1.16641 0.414504 -1.65185e-19)
(1.16097 0.400506 8.94964e-20)
(1.15641 0.387467 4.40642e-20)
(1.15271 0.375503 -7.8676e-20)
(1.14973 0.364818 2.11408e-19)
(1.14785 0.354276 -1.55113e-19)
(0.229933 0.105393 -2.34737e-19)
(0.583283 0.280527 -3.04467e-19)
(0.837519 0.415321 2.13093e-19)
(1.00565 0.502676 -1.96452e-19)
(1.10599 0.549013 -1.91906e-20)
(1.15874 0.565487 -2.12393e-19)
(1.18158 0.562882 1.77355e-19)
(1.18756 0.549601 3.22018e-19)
(1.18509 0.531281 -4.47793e-19)
(1.17902 0.511251 2.30399e-20)
(1.17184 0.491257 1.70047e-20)
(1.16469 0.47209 -8.72783e-20)
(1.158 0.45404 6.14432e-20)
(1.15192 0.437162 -2.49023e-20)
(1.1465 0.421425 1.62744e-19)
(1.14182 0.406769 -1.74909e-19)
(1.13797 0.393156 -5.79947e-20)
(1.13493 0.380707 1.52298e-19)
(1.13261 0.369605 -2.20642e-19)
(1.1314 0.35869 1.3896e-19)
(0.235132 0.118327 4.85991e-19)
(0.588249 0.307919 4.29549e-19)
(0.836357 0.4472 -7.25081e-20)
(0.996477 0.533199 -8.95284e-21)
(1.08958 0.57561 -2.17184e-19)
(1.13708 0.587619 9.26514e-20)
(1.15684 0.581026 4.4702e-19)
(1.16147 0.564559 -3.91867e-19)
(1.15885 0.543814 2.4446e-19)
(1.15332 0.521949 -2.10159e-20)
(1.14704 0.500533 1.46934e-19)
(1.14093 0.480226 -3.78456e-20)
(1.13529 0.46123 8.66417e-20)
(1.13022 0.443544 1.08819e-19)
(1.12573 0.427102 -6.22992e-20)
(1.1219 0.411825 7.18029e-20)
(1.11883 0.397669 -9.63714e-20)
(1.11653 0.384758 2.46355e-19)
(1.11492 0.373261 -1.48415e-19)
(1.11446 0.362029 1.05529e-19)
(0.23851 0.131153 -2.33933e-19)
(0.589052 0.334343 -4.37905e-19)
(0.830054 0.477222 -3.02474e-19)
(0.982182 0.561311 -2.0609e-20)
(1.06863 0.599609 7.14144e-20)
(1.11169 0.607223 -3.87532e-20)
(1.12911 0.596838 -2.53408e-19)
(1.13301 0.57741 -1.0918e-19)
(1.13068 0.554437 -1.97121e-19)
(1.12603 0.530892 -9.24006e-20)
(1.12088 0.508171 4.67948e-20)
(1.11599 0.486812 -2.21481e-19)
(1.11156 0.466937 -4.87024e-20)
(1.10763 0.4485 -4.63995e-20)
(1.10418 0.431401 -1.49301e-19)
(1.10129 0.415542 6.61194e-20)
(1.09907 0.400875 4.31483e-21)
(1.09756 0.387521 5.58746e-20)
(1.09673 0.375642 -2.41924e-20)
(1.0971 0.364146 -7.33497e-20)
(0.240023 0.14366 5.39901e-19)
(0.585758 0.359398 4.71925e-19)
(0.818843 0.504978 5.78029e-19)
(0.963119 0.586674 -6.02761e-20)
(1.04354 0.620754 -2.04319e-19)
(1.08291 0.624105 6.1126e-19)
(1.09869 0.610159 -2.98624e-19)
(1.10241 0.588008 3.27916e-19)
(1.10078 0.563012 -5.88345e-20)
(1.09728 0.537943 1.96594e-19)
(1.09347 0.514033 2.24268e-20)
(1.08995 0.491708 8.70954e-20)
(1.08687 0.471025 -1.90692e-20)
(1.08421 0.451893 8.26574e-20)
(1.08192 0.434187 -5.91951e-20)
(1.08007 0.417789 8.4329e-21)
(1.07877 0.402641 3.02871e-20)
(1.07811 0.388858 4.30274e-20)
(1.07814 0.376604 -2.61721e-21)
(1.07936 0.364904 1.46482e-20)
(0.239659 0.155641 -1.64516e-19)
(0.578498 0.382701 -4.59023e-19)
(0.803011 0.530091 -2.79213e-19)
(0.939669 0.608986 -4.84486e-19)
(1.01471 0.638818 5.14792e-19)
(1.05112 0.638088 -3.54337e-19)
(1.06589 0.620842 2.2206e-19)
(1.06991 0.59622 -7.95024e-20)
(1.06932 0.569409 -8.99512e-20)
(1.0672 0.542975 -6.25647e-20)
(1.0649 0.517992 3.30868e-20)
(1.0629 0.494788 3.52684e-20)
(1.06129 0.473362 2.08783e-20)
(1.06001 0.453591 -3.68927e-20)
(1.05901 0.435326 -1.48941e-20)
(1.0583 0.418431 5.09687e-20)
(1.05801 0.402832 -1.72753e-20)
(1.05827 0.388631 -2.08709e-22)
(1.05919 0.376015 8.05667e-21)
(1.06129 0.364196 1.57877e-20)
(0.237443 0.166891 7.14133e-19)
(0.567458 0.403896 3.33972e-19)
(0.782892 0.552221 3.13168e-19)
(0.912239 0.627978 -1.8258e-19)
(0.982544 0.6536 2.0428e-20)
(1.01667 0.64902 2.55174e-19)
(1.03101 0.628758 3.0745e-20)
(1.03574 0.601929 5.86583e-20)
(1.03648 0.573515 6.14558e-20)
(1.03594 0.545876 -2.49954e-21)
(1.03528 0.519937 2.12395e-20)
(1.03491 0.495939 -1.11871e-20)
(1.03487 0.473832 -1.88367e-20)
(1.0351 0.453469 -1.54999e-20)
(1.0355 0.434684 1.055e-20)
(1.03606 0.417325 4.67817e-21)
(1.03688 0.4013 -7.82283e-21)
(1.03812 0.386684 -9.64603e-23)
(1.03998 0.373718 3.41568e-20)
(1.04301 0.361888 -3.14099e-20)
(0.233429 0.177217 -5.03148e-19)
(0.552875 0.422659 -4.34364e-19)
(0.758857 0.57107 2.03042e-19)
(0.881256 0.643421 -2.45612e-19)
(0.947457 0.664932 -1.96478e-20)
(0.979931 0.656771 2.4351e-20)
(0.994333 0.633799 -3.58276e-20)
(1.00015 0.605035 -3.41954e-20)
(1.00244 0.575236 -5.08834e-20)
(1.00363 0.546556 -3.38568e-20)
(1.00472 0.519782 -2.50459e-20)
(1.00604 0.495073 1.55805e-20)
(1.00765 0.472344 1.62388e-21)
(1.00947 0.451427 3.25805e-21)
(1.01141 0.432146 6.20031e-21)
(1.01339 0.414342 -5.09661e-20)
(1.01545 0.397897 -4.64179e-20)
(1.01778 0.382835 -5.10217e-20)
(1.02071 0.36944 -8.9914e-22)
(1.02492 0.357615 8.03224e-20)
(0.227705 0.186436 4.55032e-19)
(0.535031 0.4387 2.12023e-20)
(0.731313 0.586379 -4.72814e-20)
(0.847162 0.655122 5.42662e-20)
(0.909867 0.672675 1.54574e-19)
(0.941259 0.661236 -1.18833e-19)
(0.956165 0.635877 2.81122e-20)
(0.963349 0.605461 -4.92449e-20)
(0.967391 0.5745 -9.37086e-21)
(0.970423 0.544949 -4.70639e-21)
(0.973317 0.517462 -4.40218e-20)
(0.976375 0.492128 -3.78806e-20)
(0.979662 0.468827 4.07149e-20)
(0.983138 0.44738 -1.61265e-20)
(0.986715 0.427607 -1.70008e-19)
(0.99028 0.409357 1.66064e-19)
(0.993775 0.39249 -1.00801e-19)
(0.997404 0.376894 -6.45408e-20)
(1.00178 0.36279 8.0609e-20)
(1.00766 0.350728 -1.00021e-19)
(0.220384 0.194386 -9.68981e-20)
(0.514244 0.451769 1.0494e-19)
(0.700688 0.597934 5.53411e-20)
(0.810412 0.662926 -8.27146e-20)
(0.870195 0.676722 3.03546e-20)
(0.901017 0.662336 -5.53487e-20)
(0.916803 0.634929 -1.55464e-20)
(0.9256 0.603153 1.49485e-20)
(0.93153 0.571266 -2.87475e-21)
(0.93647 0.541023 -1.03043e-19)
(0.941189 0.512956 2.40521e-20)
(0.945965 0.487082 4.91159e-21)
(0.950891 0.463243 1.22722e-19)
(0.955987 0.441242 -3.16396e-19)
(0.961216 0.420906 2.94574e-19)
(0.966458 0.40211 1.57223e-19)
(0.971593 0.384703 -3.26692e-20)
(0.976913 0.368354 2.54203e-20)
(0.983341 0.353068 2.82214e-19)
(0.991135 0.340397 -1.17929e-19)
(0.211603 0.20092 -2.71951e-20)
(0.490863 0.461657 6.45968e-20)
(0.667432 0.605563 -6.10414e-20)
(0.771467 0.666716 8.00962e-20)
(0.828864 0.676996 -3.26523e-20)
(0.859571 0.660018 2.46407e-20)
(0.876555 0.630916 2.44574e-20)
(0.88716 0.598086 -6.98196e-20)
(0.895076 0.565523 6.94509e-20)
(0.90196 0.534794 4.91461e-20)
(0.908482 0.50631 2.57065e-20)
(0.914901 0.480016 3.37618e-21)
(0.921331 0.455699 1.02176e-19)
(0.927848 0.433116 -1.03471e-19)
(0.934487 0.412054 1.22791e-19)
(0.941172 0.392377 -2.56654e-19)
(0.947825 0.373878 2.87242e-19)
(0.954913 0.35592 -2.46853e-19)
(0.963427 0.338246 -1.66029e-19)
(0.972219 0.324285 2.85651e-19)
(0.201524 0.205916 2.06931e-20)
(0.465261 0.468196 -1.84102e-20)
(0.632007 0.609136 -8.26424e-21)
(0.730793 0.666408 -4.42274e-20)
(0.786298 0.673446 1.0012e-20)
(0.817289 0.65425 5.61881e-21)
(0.835737 0.623816 -1.61775e-19)
(0.848305 0.590249 1.07468e-19)
(0.858282 0.557282 1.07285e-19)
(0.867125 0.526307 -1.50849e-19)
(0.875421 0.497631 1.77493e-19)
(0.883395 0.471138 -6.75813e-20)
(0.891155 0.446564 1.33531e-19)
(0.898781 0.423607 -2.12905e-19)
(0.906326 0.401974 4.42884e-19)
(0.91375 0.38141 -9.99425e-20)
(0.921083 0.3615 -2.75414e-20)
(0.928978 0.341002 2.91229e-19)
(0.938142 0.318044 -1.41732e-19)
(0.943659 0.295105 6.31603e-20)
(0.19032 0.209274 -6.29226e-20)
(0.437826 0.471258 7.51192e-20)
(0.594884 0.608565 -3.38463e-20)
(0.688858 0.661956 4.60505e-20)
(0.742922 0.66605 -2.36178e-20)
(0.774541 0.645019 -1.64338e-19)
(0.794674 0.613621 2.51129e-19)
(0.809326 0.579638 1.71429e-20)
(0.821423 0.546547 -2.66482e-20)
(0.832247 0.51558 5.49955e-21)
(0.842313 0.486966 8.22855e-20)
(0.851821 0.460555 1.41304e-19)
(0.860854 0.43608 8.43876e-20)
(0.869454 0.413255 -2.00743e-19)
(0.877615 0.391827 -5.76605e-20)
(0.885285 0.3716 -9.82261e-21)
(0.892581 0.352308 3.76639e-20)
(0.900076 0.333275 5.09793e-21)
(0.907662 0.313828 4.28833e-19)
(0.910781 0.296025 -3.00071e-19)
(0.178178 0.210911 1.66111e-19)
(0.408958 0.470753 -2.46208e-20)
(0.556532 0.603799 -1.16598e-19)
(0.646123 0.653341 3.77335e-19)
(0.699152 0.654807 7.3527e-20)
(0.731693 0.63233 -2.2574e-19)
(0.753689 0.600336 2.11892e-19)
(0.770518 0.566256 -4.77569e-20)
(0.784776 0.533316 1.86447e-19)
(0.7976 0.502603 8.51107e-20)
(0.809453 0.474277 -4.09306e-19)
(0.820529 0.44816 -4.72697e-20)
(0.830914 0.423981 5.68153e-19)
(0.84065 0.401464 -6.94767e-19)
(0.849722 0.380364 6.41984e-19)
(0.85807 0.360482 2.22021e-19)
(0.86577 0.341536 -7.894e-19)
(0.873213 0.322968 3.81299e-19)
(0.880187 0.304512 -7.83059e-20)
(0.88331 0.288486 9.16358e-20)
(0.165296 0.21077 -3.05384e-19)
(0.379059 0.466632 -3.13658e-19)
(0.517421 0.594824 2.13556e-19)
(0.603042 0.640579 -2.68324e-19)
(0.655399 0.639743 -7.30122e-19)
(0.689106 0.616209 -2.37483e-20)
(0.713103 0.583981 -2.14907e-19)
(0.732174 0.550119 1.02777e-20)
(0.748617 0.517604 -4.20444e-19)
(0.763445 0.487393 -4.26633e-19)
(0.777083 0.459589 -2.89457e-19)
(0.789722 0.434 -1.17209e-20)
(0.801459 0.410362 -7.13749e-19)
(0.812352 0.388417 -5.17147e-21)
(0.822409 0.367953 3.4718e-19)
(0.831609 0.348802 -3.45246e-19)
(0.840035 0.330746 -2.65615e-19)
(0.848001 0.313363 2.55445e-19)
(0.855293 0.296496 -1.83289e-19)
(0.859174 0.281963 3.52633e-20)
(0.151876 0.208818 2.44457e-19)
(0.348535 0.458883 1.89313e-19)
(0.47801 0.581666 -7.03943e-21)
(0.56006 0.623715 -1.53464e-19)
(0.612061 0.620909 3.75271e-19)
(0.647132 0.596701 5.9969e-19)
(0.67323 0.56459 -6.19026e-20)
(0.694582 0.531249 1.15078e-20)
(0.713221 0.49942 1.16425e-19)
(0.730056 0.469941 2.63419e-19)
(0.745489 0.442869 3.80546e-19)
(0.759716 0.418004 -3.07546e-19)
(0.772852 0.395086 3.03177e-19)
(0.784969 0.373872 -1.04035e-19)
(0.796101 0.354162 3.52138e-19)
(0.806256 0.335801 -1.37083e-19)
(0.815545 0.318596 -3.39201e-19)
(0.824284 0.302218 2.04201e-19)
(0.832292 0.286622 -2.90836e-19)
(0.837204 0.273322 -3.31189e-19)
(0.138121 0.205041 1.08017e-19)
(0.317782 0.44753 1.9648e-19)
(0.438749 0.564384 -2.06417e-19)
(0.517607 0.602824 9.95488e-21)
(0.569523 0.59838 3.57531e-20)
(0.606112 0.573869 2.84008e-19)
(0.634373 0.542216 -4.18761e-19)
(0.658016 0.509686 3.96894e-19)
(0.67884 0.47879 -3.83686e-20)
(0.697668 0.45026 1.07899e-19)
(0.714889 0.424116 1.73315e-19)
(0.73071 0.40015 -3.30531e-19)
(0.745269 0.378113 1.58489e-19)
(0.758664 0.357776 1.50119e-19)
(0.770952 0.338953 5.51812e-20)
(0.782173 0.321497 -2.82515e-19)
(0.792465 0.30523 9.51552e-19)
(0.802135 0.289872 -5.31696e-19)
(0.811007 0.275408 9.65684e-19)
(0.817001 0.26308 -6.30779e-20)
(0.124236 0.199448 7.77089e-20)
(0.28719 0.43263 4.62826e-19)
(0.400071 0.543071 1.63897e-19)
(0.476094 0.57801 3.42044e-19)
(0.528155 0.572253 8.87518e-20)
(0.566369 0.547801 -5.4169e-19)
(0.59682 0.516929 8.37762e-19)
(0.62274 0.485484 4.31601e-19)
(0.645717 0.455755 1.74475e-20)
(0.666508 0.428377 5.5732e-19)
(0.685494 0.403337 8.94821e-20)
(0.702899 0.380427 5.83729e-20)
(0.718884 0.359406 3.31656e-19)
(0.73357 0.340056 -1.23575e-19)
(0.747043 0.322201 -1.30207e-19)
(0.759372 0.305698 7.68485e-19)
(0.770718 0.290382 -6.41636e-19)
(0.781379 0.276009 2.54437e-20)
(0.791174 0.262579 8.10094e-19)
(0.798272 0.251102 -8.54706e-22)
(0.110419 0.192065 -9.93472e-19)
(0.257135 0.414276 -1.68283e-19)
(0.362393 0.517851 -2.26779e-19)
(0.435915 0.549407 -1.72842e-19)
(0.488307 0.542654 -4.3558e-19)
(0.528214 0.518604 1.49529e-19)
(0.560848 0.488819 -2.06528e-19)
(0.589002 0.458718 5.96256e-20)
(0.61408 0.430376 -2.98845e-19)
(0.636785 0.404337 -2.82765e-19)
(0.657496 0.380565 5.74804e-20)
(0.676456 0.358853 -4.54682e-19)
(0.69385 0.338969 3.61966e-19)
(0.709823 0.320707 -1.30184e-19)
(0.724485 0.303897 4.08545e-19)
(0.73793 0.288403 -8.81268e-19)
(0.750337 0.274066 -1.67076e-19)
(0.761988 0.260672 -3.15222e-19)
(0.772707 0.248221 -8.45554e-19)
(0.780893 0.237526 -1.35893e-19)
(0.0968663 0.182942 1.62414e-19)
(0.227975 0.392588 -1.95046e-20)
(0.326108 0.488882 -2.48578e-19)
(0.397442 0.517174 8.74736e-20)
(0.450311 0.509731 -1.76123e-19)
(0.491939 0.486408 -2.01874e-21)
(0.526717 0.457999 2.38975e-19)
(0.557035 0.429485 -3.55877e-19)
(0.584142 0.402733 1.38999e-19)
(0.608691 0.378207 -7.97077e-20)
(0.631068 0.355854 2.11006e-20)
(0.651535 0.335468 -3.94782e-19)
(0.670299 0.31683 -4.79041e-19)
(0.687528 0.299743 -1.78308e-20)
(0.703353 0.284048 5.31977e-19)
(0.717892 0.26961 2.49643e-20)
(0.731335 0.256282 6.70661e-19)
(0.743947 0.243875 -9.76214e-19)
(0.755561 0.232381 5.19724e-19)
(0.764804 0.222444 8.9446e-19)
(0.0837628 0.172143 -1.40611e-19)
(0.200053 0.367719 7.58805e-20)
(0.291587 0.456347 4.90155e-19)
(0.361023 0.481498 1.20182e-19)
(0.414477 0.473654 -1.62876e-19)
(0.457817 0.451366 1.27766e-19)
(0.494668 0.424601 5.01202e-19)
(0.527059 0.3979 -4.06747e-19)
(0.556098 0.372926 3.74061e-20)
(0.582405 0.350076 -1.47257e-19)
(0.606371 0.329279 5.32141e-19)
(0.628278 0.310338 3.78662e-19)
(0.648355 0.293046 -5.54952e-20)
(0.666788 0.277218 -5.73843e-19)
(0.683731 0.262702 3.10633e-20)
(0.69932 0.249371 -6.98127e-20)
(0.713751 0.237088 3.3624e-19)
(0.727272 0.225685 5.45541e-19)
(0.739739 0.215146 4.75589e-19)
(0.749993 0.205969 -7.96401e-19)
(0.071286 0.159752 -8.77695e-20)
(0.173689 0.339846 3.73869e-19)
(0.259179 0.42046 -3.64804e-19)
(0.326984 0.442589 5.0498e-19)
(0.381095 0.434618 -2.74445e-19)
(0.426102 0.413649 1.96397e-19)
(0.464928 0.388779 4.96936e-19)
(0.499276 0.364097 -5.95952e-19)
(0.530134 0.341077 2.70809e-19)
(0.558094 0.32005 3.41759e-19)
(0.583554 0.300937 -4.6448e-19)
(0.606818 0.283551 -3.31394e-20)
(0.628131 0.267697 -3.70934e-19)
(0.647701 0.253206 5.94423e-19)
(0.665698 0.239933 -3.21649e-19)
(0.682276 0.227759 3.4546e-19)
(0.697632 0.216558 -6.2458e-20)
(0.712001 0.206185 2.12459e-19)
(0.725265 0.196613 4.80033e-20)
(0.736474 0.188216 -1.24124e-19)
(0.059602 0.145866 -2.6798e-19)
(0.149181 0.309173 -6.16748e-19)
(0.229204 0.381458 1.62694e-19)
(0.295622 0.400682 -5.18845e-19)
(0.350429 0.392839 -4.89743e-19)
(0.397028 0.373452 -3.50875e-19)
(0.437704 0.350703 2.73414e-19)
(0.473873 0.328232 2.09702e-19)
(0.506417 0.307325 -1.49973e-21)
(0.535908 0.288257 -1.82543e-19)
(0.562754 0.270945 -3.27669e-19)
(0.587275 0.255214 2.94592e-19)
(0.609736 0.240885 -1.02167e-19)
(0.630361 0.227802 -5.0157e-19)
(0.649335 0.215832 3.25373e-19)
(0.666826 0.204866 -2.44847e-19)
(0.683034 0.194788 -9.95504e-20)
(0.698179 0.185473 -2.77826e-19)
(0.712178 0.176886 -2.51647e-19)
(0.724275 0.1693 6.52176e-20)
(0.0488644 0.130601 2.34329e-19)
(0.126801 0.275929 1.21515e-19)
(0.201954 0.339604 1.85019e-19)
(0.267212 0.356034 -6.29338e-19)
(0.322721 0.348553 6.73318e-19)
(0.370809 0.330985 3.65721e-21)
(0.413188 0.310565 5.77918e-21)
(0.45102 0.290476 -4.07416e-19)
(0.485101 0.271827 3.79375e-19)
(0.515987 0.254841 -2.63647e-19)
(0.544096 0.239437 7.97305e-20)
(0.569763 0.225452 -3.51859e-19)
(0.593269 0.212727 -1.66544e-19)
(0.614854 0.201119 -7.89708e-20)
(0.634718 0.19051 6.00071e-19)
(0.653038 0.180798 -2.94697e-19)
(0.670016 0.171885 -2.64838e-19)
(0.685859 0.163659 2.72591e-19)
(0.700525 0.156081 -2.23354e-19)
(0.713434 0.149341 1.74093e-19)
(0.0392136 0.114083 4.95096e-19)
(0.106797 0.240363 -2.98521e-19)
(0.177694 0.295181 4.50945e-20)
(0.241998 0.308921 5.22235e-19)
(0.298189 0.302011 2.06092e-19)
(0.347636 0.286477 2.55611e-19)
(0.391549 0.26857 2.54144e-19)
(0.430871 0.251018 5.37809e-19)
(0.466326 0.234755 -1.23484e-19)
(0.498457 0.219963 2.93348e-19)
(0.527693 0.206561 4.25328e-19)
(0.554383 0.194405 1.56193e-19)
(0.578822 0.183355 2.82667e-19)
(0.601264 0.173284 1.02171e-19)
(0.621919 0.164088 6.02984e-20)
(0.640977 0.155677 -4.39671e-20)
(0.658636 0.147965 3.48515e-19)
(0.675095 0.140859 2.14219e-19)
(0.690354 0.134315 -1.9527e-19)
(0.70399 0.128461 1.83661e-19)
(0.030775 0.0964527 -3.28244e-19)
(0.0893898 0.202743 3.75208e-20)
(0.156658 0.248492 -9.45848e-20)
(0.220197 0.259636 -2.86491e-19)
(0.277026 0.253485 -1.51953e-19)
(0.32768 0.240173 -2.74854e-19)
(0.372938 0.224941 1.26956e-19)
(0.413562 0.210059 -4.92436e-19)
(0.450214 0.196297 2.89711e-19)
(0.483431 0.183794 -4.0105e-19)
(0.513647 0.172478 -2.48592e-19)
(0.541227 0.162225 -3.2799e-19)
(0.566478 0.152913 7.49394e-20)
(0.589664 0.144434 -7.42353e-20)
(0.611007 0.136699 8.80476e-20)
(0.630703 0.12963 4.69777e-20)
(0.648951 0.123155 9.33089e-20)
(0.665941 0.117198 -7.86122e-19)
(0.681712 0.111713 3.90509e-19)
(0.695983 0.106782 -2.34685e-19)
(0.0236583 0.0778619 1.07889e-19)
(0.0747696 0.163355 2.17754e-19)
(0.139048 0.199857 -1.41752e-19)
(0.201997 0.208489 3.50401e-19)
(0.259397 0.203258 -5.61295e-20)
(0.311087 0.192329 4.03995e-19)
(0.357488 0.179911 7.73949e-20)
(0.399212 0.167815 -8.1522e-20)
(0.436874 0.15665 2.96482e-19)
(0.471005 0.14652 2.26206e-19)
(0.502047 0.137363 8.35808e-20)
(0.530376 0.129076 1.10246e-19)
(0.55631 0.121557 5.52174e-20)
(0.58012 0.114718 -2.33191e-19)
(0.60204 0.108485 -3.2313e-20)
(0.622272 0.102794 2.4302e-19)
(0.641011 0.0975882 -1.66087e-19)
(0.658444 0.092805 -7.66452e-21)
(0.674646 0.0884025 -3.46287e-19)
(0.68945 0.0844296 6.97946e-19)
(0.0179569 0.0584712 2.88058e-19)
(0.0630987 0.122501 -3.46649e-19)
(0.125036 0.149611 1.62165e-19)
(0.187556 0.155802 -2.29333e-19)
(0.245444 0.151626 2.01662e-19)
(0.297981 0.143215 -3.498e-19)
(0.345308 0.133725 -2.55884e-19)
(0.38792 0.124511 1.87331e-20)
(0.426396 0.116023 -3.47411e-19)
(0.461262 0.108336 -2.16472e-19)
(0.492968 0.101398 -3.7416e-19)
(0.521898 0.0951284 -1.19887e-20)
(0.54838 0.0894483 -1.44164e-19)
(0.572691 0.0842896 3.66057e-19)
(0.595072 0.0795943 2.51679e-19)
(0.615731 0.0753136 -8.46261e-20)
(0.634862 0.0714029 -7.61297e-20)
(0.652646 0.0678156 -3.21271e-21)
(0.669193 0.0645164 9.488e-21)
(0.684423 0.0615323 1.37426e-19)
(0.0137465 0.0384496 -7.22073e-20)
(0.0545082 0.0804919 -2.45835e-19)
(0.11476 0.0980991 -1.53214e-19)
(0.177003 0.101909 -9.5786e-20)
(0.235279 0.0988962 -1.98058e-19)
(0.288463 0.0931095 3.39335e-19)
(0.336489 0.0866382 -3.60868e-20)
(0.379768 0.0803809 -8.15061e-20)
(0.418854 0.0746345 3.55606e-21)
(0.454269 0.0694447 2.38449e-19)
(0.486471 0.0647732 -2.25975e-19)
(0.51585 0.0605628 2.20834e-19)
(0.542739 0.0567584 1.03661e-19)
(0.567422 0.0533119 -1.88168e-19)
(0.590146 0.0501827 4.10676e-20)
(0.611121 0.0473366 1.20619e-19)
(0.630539 0.0447427 4.19123e-20)
(0.648584 0.042369 -2.91254e-20)
(0.665386 0.0401901 -2.52773e-19)
(0.68093 0.0382198 2.01455e-19)
(0.0110851 0.0179724 6.45511e-20)
(0.0490983 0.0376517 7.84461e-20)
(0.108326 0.0456791 2.21653e-20)
(0.170433 0.0471532 -1.64714e-20)
(0.228989 0.0453829 4.73278e-20)
(0.282609 0.042298 7.22115e-20)
(0.331099 0.0389119 2.74194e-20)
(0.374818 0.0356665 3.32857e-20)
(0.414303 0.0327076 -7.03218e-20)
(0.450078 0.0300547 1.31983e-19)
(0.482604 0.0276845 -3.1072e-20)
(0.512274 0.0255641 -2.54297e-21)
(0.539426 0.0236622 3.15228e-20)
(0.56435 0.0219515 3.55099e-20)
(0.587293 0.0204092 -9.49304e-20)
(0.608471 0.0190159 6.25357e-20)
(0.628074 0.0177547 4.10414e-20)
(0.646284 0.0166079 3.49657e-20)
(0.663249 0.015562 7.47325e-20)
(0.678991 0.0146235 3.09643e-20)
(0.0100121 -0.00278039 -1.31505e-20)
(0.0469371 -0.00569033 2.72852e-20)
(0.105806 -0.00728616 -3.81594e-20)
(0.167914 -0.00811711 2.39642e-20)
(0.226633 -0.00859386 1.4035e-20)
(0.280471 -0.00892766 6.34817e-21)
(0.329184 -0.00918709 1.48182e-20)
(0.373111 -0.00938632 -4.24733e-20)
(0.412783 -0.00952885 2.71275e-20)
(0.448724 -0.00961995 9.49031e-21)
(0.481397 -0.00966719 -5.39417e-22)
(0.511198 -0.00967857 5.78151e-20)
(0.538469 -0.00966127 -1.75732e-20)
(0.563498 -0.00962135 -1.68021e-20)
(0.586538 -0.00956372 -1.6063e-20)
(0.607802 -0.00949243 2.47696e-21)
(0.627484 -0.00941104 -2.14064e-20)
(0.645765 -0.00932244 4.06167e-21)
(0.6628 -0.00922723 8.0415e-22)
(0.67862 -0.00912323 -2.72852e-21)
(0.0105484 -0.0236261 8.30771e-21)
(0.0480605 -0.0492002 -4.41491e-20)
(0.107237 -0.0604292 5.26029e-20)
(0.169482 -0.0635491 -3.95086e-20)
(0.228241 -0.0627101 -1.84073e-20)
(0.282076 -0.0602726 5.50462e-20)
(0.33077 -0.0573887 4.58372e-21)
(0.374669 -0.0545283 1.27804e-21)
(0.414313 -0.0518432 2.55473e-20)
(0.450225 -0.0493628 1.31773e-20)
(0.482868 -0.0470787 -1.04516e-20)
(0.51264 -0.0449735 -3.65735e-20)
(0.53988 -0.0430304 3.53076e-21)
(0.564881 -0.041234 -3.12459e-21)
(0.587891 -0.0395712 3.39196e-20)
(0.609126 -0.0380308 -2.03783e-20)
(0.628779 -0.0366026 2.79056e-20)
(0.647036 -0.035275 -4.17743e-20)
(0.664047 -0.034035 4.79987e-23)
(0.679823 -0.0328852 -8.77567e-21)
(0.0126957 -0.0443809 -2.74597e-20)
(0.0524724 -0.0925427 1.3797e-19)
(0.112624 -0.113381 9.28817e-20)
(0.175139 -0.118789 6.15262e-20)
(0.233818 -0.116641 7.65789e-20)
(0.287428 -0.111441 -1.89565e-20)
(0.335857 -0.105422 8.47297e-20)
(0.379496 -0.099509 1.72562e-20)
(0.418895 -0.0940027 -7.71242e-21)
(0.454582 -0.0889565 -6.05654e-20)
(0.487018 -0.0843457 6.24779e-20)
(0.516599 -0.0801283 -8.46964e-20)
(0.543663 -0.076263 6.13993e-20)
(0.568498 -0.0727132 7.02056e-20)
(0.591354 -0.0694479 9.27157e-20)
(0.612443 -0.0664406 -6.10096e-20)
(0.631961 -0.0636675 1.70163e-20)
(0.650097 -0.0611018 6.40444e-20)
(0.666989 -0.058718 -6.06232e-20)
(0.6826 -0.0565258 4.56626e-20)
(0.0164369 -0.0648617 -2.62853e-19)
(0.0601439 -0.135383 -1.32083e-19)
(0.121937 -0.165774 -1.46798e-19)
(0.184858 -0.173483 -1.14813e-20)
(0.243337 -0.170062 -7.91203e-20)
(0.296505 -0.162137 -9.76455e-20)
(0.344428 -0.153016 1.70713e-19)
(0.387573 -0.144079 8.71841e-20)
(0.426513 -0.135775 1.06576e-19)
(0.461781 -0.128184 -1.16651e-19)
(0.493834 -0.121265 8.61273e-20)
(0.523063 -0.114951 1.04348e-19)
(0.549804 -0.109177 3.64112e-20)
(0.57434 -0.103886 -3.49009e-20)
(0.596916 -0.0990287 7.43545e-21)
(0.617744 -0.0945638 -1.52529e-20)
(0.63702 -0.0904534 -1.47125e-19)
(0.65494 -0.0866555 2.27582e-20)
(0.67162 -0.0831333 1.42524e-19)
(0.686947 -0.0799096 -1.91637e-19)
(0.0217362 -0.0848879 -8.50859e-20)
(0.0710141 -0.177391 1.28539e-19)
(0.135112 -0.217243 2.97033e-20)
(0.19858 -0.227281 -5.41629e-20)
(0.256749 -0.222652 -1.54994e-19)
(0.30926 -0.212068 -3.32799e-19)
(0.35644 -0.199903 -3.16215e-19)
(0.398862 -0.187991 -2.2173e-20)
(0.437133 -0.176931 -1.83452e-19)
(0.47179 -0.166831 -2.73942e-19)
(0.503286 -0.157634 2.12697e-19)
(0.532007 -0.149251 -3.1309e-19)
(0.558279 -0.141593 6.11864e-20)
(0.582383 -0.134581 -2.01478e-20)
(0.604557 -0.12815 -6.51729e-20)
(0.625008 -0.122244 -8.19826e-20)
(0.643938 -0.11681 1.32999e-19)
(0.661547 -0.11179 1.05899e-19)
(0.677922 -0.10714 1.82195e-19)
(0.692849 -0.102903 -2.73093e-19)
(0.0285391 -0.104283 4.64214e-20)
(0.0849901 -0.218242 4.48545e-19)
(0.152052 -0.267432 1.28342e-19)
(0.216216 -0.279841 3.10586e-19)
(0.273972 -0.274095 -1.15218e-19)
(0.325623 -0.260948 1.78559e-19)
(0.37183 -0.245821 -5.47961e-20)
(0.413306 -0.231002 3.61096e-19)
(0.450702 -0.217246 -1.84875e-19)
(0.484561 -0.204687 2.18698e-19)
(0.515331 -0.193257 1.89814e-19)
(0.543388 -0.182843 2.01749e-19)
(0.569051 -0.173334 -1.80792e-19)
(0.592593 -0.164632 1.54026e-19)
(0.614245 -0.156653 -2.14769e-19)
(0.634208 -0.149328 -5.89108e-20)
(0.652687 -0.142589 -1.40597e-19)
(0.669891 -0.136363 -5.99675e-20)
(0.685871 -0.130599 2.36298e-19)
(0.700287 -0.125373 -3.92158e-19)
(0.0367733 -0.122877 -1.8253e-19)
(0.101948 -0.257622 -2.31657e-20)
(0.172625 -0.315991 -7.27141e-20)
(0.237646 -0.330826 -2.57486e-19)
(0.2949 -0.324084 4.55379e-20)
(0.345499 -0.308495 -4.02635e-19)
(0.390513 -0.290513 -1.6776e-19)
(0.430828 -0.272877 -1.26359e-20)
(0.46715 -0.2565 -4.23816e-19)