/*--------------------------------*- C++ -*----------------------------------*\
  =========                 |
  \\      /  F ield         | OpenFOAM: The Open Source CFD Toolbox
   \\    /   O peration     | Website:  https://openfoam.org
    \\  /    A nd           | Version:  6.0
     \\/     M anipulation  |
\*---------------------------------------------------------------------------*/
FoamFile
{
    version     2.0;
    format      ascii;
    class       volScalarField;
    location    "7.3";
    object      p;
}
// * * * * * * * * * * * * * * * * * * * * * * * * * * * * * * * * * * * * * //

dimensions      [0 2 -2 0 0 0 0];

internalField   nonuniform List<scalar> 
8000
(
-0.322886
-0.325413
-0.327003
-0.328195
-0.329313
-0.330426
-0.331576
-0.33279
-0.334081
-0.33545
-0.336893
-0.338406
-0.339983
-0.341619
-0.343317
-0.345096
-0.346923
-0.348577
-0.350095
-0.353507
-0.323338
-0.325795
-0.327347
-0.328516
-0.329616
-0.330714
-0.331851
-0.333053
-0.334333
-0.335691
-0.337124
-0.338626
-0.340193
-0.341817
-0.343504
-0.345272
-0.347091
-0.348738
-0.350242
-0.353645
-0.324227
-0.326549
-0.328027
-0.329149
-0.330212
-0.331279
-0.332389
-0.333568
-0.334825
-0.336161
-0.337572
-0.339052
-0.340596
-0.342199
-0.343862
-0.345608
-0.34741
-0.349044
-0.350519
-0.353901
-0.325512
-0.327639
-0.329008
-0.330061
-0.331069
-0.332089
-0.333157
-0.334298
-0.33552
-0.33682
-0.338196
-0.339641
-0.341149
-0.342715
-0.344342
-0.346052
-0.347823
-0.349434
-0.350865
-0.354211
-0.327132
-0.329016
-0.330248
-0.331211
-0.332144
-0.333099
-0.33411
-0.335196
-0.336366
-0.337615
-0.33894
-0.340333
-0.341789
-0.343302
-0.344874
-0.346531
-0.348256
-0.349829
-0.351198
-0.354486
-0.329017
-0.330622
-0.331693
-0.332547
-0.333386
-0.334258
-0.335192
-0.336206
-0.337304
-0.338483
-0.339738
-0.34106
-0.342443
-0.343882
-0.34538
-0.346962
-0.348621
-0.350139
-0.351426
-0.354629
-0.331089
-0.332396
-0.333289
-0.334015
-0.334742
-0.335511
-0.336348
-0.337267
-0.338272
-0.339359
-0.34052
-0.341748
-0.343036
-0.344378
-0.345777
-0.34726
-0.348828
-0.350272
-0.351455
-0.354545
-0.333274
-0.334277
-0.33498
-0.335565
-0.336162
-0.336807
-0.337524
-0.338325
-0.339213
-0.340183
-0.341225
-0.342333
-0.343499
-0.344718
-0.345992
-0.347349
-0.348799
-0.350143
-0.351202
-0.354151
-0.3355
-0.33621
-0.33672
-0.337152
-0.337601
-0.338101
-0.338675
-0.339334
-0.340078
-0.340903
-0.341801
-0.342762
-0.343778
-0.344845
-0.345966
-0.347168
-0.348471
-0.349688
-0.350602
-0.353386
-0.337711
-0.33815
-0.33847
-0.338739
-0.339025
-0.339361
-0.339769
-0.340259
-0.340834
-0.341489
-0.342214
-0.343
-0.34384
-0.344727
-0.345665
-0.346682
-0.347806
-0.348865
-0.349614
-0.352211
-0.339865
-0.340067
-0.340204
-0.340304
-0.340414
-0.340567
-0.340787
-0.341085
-0.341466
-0.341925
-0.342452
-0.34304
-0.343677
-0.344359
-0.345086
-0.345887
-0.346799
-0.347666
-0.348219
-0.35061
-0.341938
-0.341944
-0.341911
-0.341838
-0.34176
-0.341714
-0.341725
-0.341812
-0.341977
-0.34222
-0.34253
-0.342899
-0.343314
-0.343768
-0.34426
-0.344816
-0.345479
-0.34611
-0.346425
-0.348581
-0.34393
-0.343782
-0.343591
-0.343343
-0.343068
-0.342808
-0.342597
-0.342455
-0.34239
-0.342402
-0.342482
-0.34262
-0.342801
-0.343013
-0.343251
-0.343535
-0.34391
-0.34425
-0.344258
-0.346119
-0.345858
-0.345597
-0.345261
-0.344836
-0.344356
-0.343873
-0.343427
-0.343045
-0.34274
-0.342514
-0.34236
-0.342264
-0.342209
-0.342175
-0.342148
-0.342139
-0.342186
-0.342167
-0.341763
-0.343212
-0.34776
-0.347421
-0.34695
-0.346345
-0.345655
-0.34494
-0.344251
-0.343623
-0.343076
-0.342612
-0.342227
-0.341904
-0.341619
-0.341345
-0.341053
-0.340735
-0.340414
-0.339956
-0.338992
-0.339832
-0.349695
-0.349299
-0.348698
-0.34791
-0.347002
-0.34605
-0.345115
-0.34424
-0.343451
-0.342756
-0.342149
-0.34161
-0.34111
-0.340609
-0.34006
-0.339428
-0.338704
-0.337726
-0.336033
-0.335972
-0.351732
-0.35129
-0.350555
-0.349577
-0.348445
-0.347252
-0.346069
-0.344949
-0.343924
-0.343006
-0.342188
-0.341449
-0.340751
-0.340041
-0.339248
-0.338303
-0.337156
-0.3356
-0.333034
-0.331717
-0.353955
-0.353459
-0.352579
-0.351401
-0.350039
-0.3486
-0.34717
-0.345808
-0.344553
-0.34342
-0.342404
-0.341479
-0.340599
-0.339695
-0.338674
-0.337421
-0.33583
-0.33364
-0.330062
-0.327052
-0.356454
-0.355878
-0.354833
-0.353441
-0.351839
-0.350152
-0.348474
-0.346875
-0.345397
-0.344058
-0.342855
-0.34176
-0.340721
-0.339659
-0.338456
-0.336956
-0.334964
-0.33209
-0.327227
-0.321866
-0.359316
-0.358618
-0.357382
-0.355757
-0.353905
-0.351964
-0.350039
-0.348205
-0.34651
-0.344975
-0.343598
-0.342355
-0.3412
-0.340064
-0.338849
-0.337417
-0.335577
-0.332844
-0.327799
-0.321371
-0.362629
-0.361752
-0.360287
-0.358408
-0.356292
-0.35409
-0.351917
-0.349851
-0.347944
-0.346218
-0.344676
-0.343301
-0.342064
-0.340932
-0.339875
-0.338892
-0.338046
-0.337468
-0.337818
-0.344432
-0.366469
-0.365344
-0.363608
-0.361448
-0.359052
-0.356581
-0.354156
-0.351858
-0.349739
-0.347822
-0.346112
-0.344599
-0.343268
-0.342111
-0.341137
-0.340404
-0.340052
-0.340326
-0.341786
-0.347617
-0.370903
-0.369452
-0.367398
-0.364928
-0.362231
-0.359479
-0.356796
-0.354263
-0.351927
-0.349811
-0.347919
-0.346243
-0.344776
-0.343519
-0.342498
-0.341779
-0.341483
-0.341795
-0.342996
-0.346493
-0.375986
-0.374128
-0.371704
-0.368891
-0.365872
-0.362826
-0.359875
-0.357096
-0.354531
-0.352196
-0.35009
-0.348202
-0.346523
-0.345053
-0.343813
-0.342847
-0.342228
-0.342042
-0.342417
-0.343757
-0.381764
-0.379415
-0.37657
-0.37338
-0.370015
-0.366657
-0.363424
-0.360382
-0.357563
-0.354971
-0.352595
-0.350417
-0.348421
-0.346599
-0.344956
-0.343514
-0.342301
-0.341338
-0.340682
-0.340221
-0.388272
-0.38535
-0.382033
-0.378434
-0.374699
-0.371008
-0.36747
-0.364137
-0.361021
-0.358113
-0.355386
-0.352814
-0.350371
-0.348043
-0.345828
-0.343729
-0.341755
-0.339901
-0.338204
-0.336379
-0.395539
-0.391966
-0.388128
-0.384091
-0.37996
-0.375912
-0.372038
-0.368368
-0.364891
-0.361579
-0.358393
-0.355296
-0.352263
-0.349278
-0.346341
-0.343455
-0.340628
-0.337859
-0.335177
-0.332298
-0.403582
-0.399287
-0.394888
-0.390385
-0.385833
-0.381395
-0.37714
-0.373064
-0.369135
-0.365303
-0.361522
-0.357755
-0.353982
-0.350201
-0.346421
-0.342661
-0.33894
-0.335274
-0.331689
-0.327973
-0.412412
-0.40733
-0.402337
-0.397344
-0.392343
-0.387472
-0.382767
-0.378192
-0.373687
-0.369192
-0.36466
-0.360068
-0.355413
-0.350715
-0.346005
-0.341321
-0.336698
-0.332166
-0.327752
-0.323319
-0.422024
-0.416102
-0.410486
-0.404983
-0.399497
-0.394132
-0.388885
-0.383684
-0.378451
-0.373126
-0.367678
-0.362108
-0.356446
-0.350739
-0.345044
-0.339416
-0.333902
-0.328544
-0.32336
-0.318274
-0.432394
-0.425588
-0.419333
-0.413296
-0.407278
-0.401335
-0.395422
-0.389437
-0.383299
-0.376964
-0.370435
-0.363752
-0.356984
-0.350207
-0.343501
-0.336932
-0.330555
-0.32441
-0.318506
-0.312802
-0.443472
-0.435753
-0.428846
-0.42225
-0.415634
-0.409001
-0.402265
-0.395311
-0.388073
-0.380548
-0.372788
-0.364883
-0.356941
-0.349065
-0.341349
-0.333864
-0.32666
-0.31977
-0.313189
-0.306891
-0.45518
-0.446534
-0.438967
-0.431775
-0.424472
-0.417005
-0.409259
-0.40113
-0.392595
-0.383713
-0.374599
-0.365396
-0.356246
-0.347272
-0.33857
-0.330206
-0.322219
-0.314629
-0.307411
-0.30055
-0.467401
-0.45783
-0.449599
-0.441758
-0.433653
-0.425176
-0.41621
-0.406693
-0.396674
-0.386294
-0.375738
-0.365198
-0.354839
-0.344792
-0.335146
-0.325951
-0.317232
-0.308989
-0.301175
-0.293786
-0.47998
-0.469503
-0.460602
-0.452042
-0.442989
-0.4333
-0.422891
-0.411779
-0.400114
-0.388132
-0.376085
-0.364203
-0.352664
-0.34159
-0.331054
-0.321086
-0.311688
-0.302843
-0.294478
-0.286605
-0.492721
-0.481375
-0.471793
-0.46242
-0.452245
-0.441125
-0.42905
-0.416158
-0.402723
-0.389077
-0.375532
-0.362337
-0.349668
-0.33763
-0.326268
-0.315588
-0.30557
-0.296177
-0.287309
-0.279002
-0.505386
-0.493223
-0.48294
-0.472638
-0.461148
-0.448369
-0.434424
-0.419603
-0.404318
-0.388991
-0.373976
-0.359526
-0.345798
-0.332868
-0.320751
-0.309426
-0.298851
-0.288966
-0.279646
-0.270964
-0.517695
-0.504782
-0.49377
-0.482401
-0.469389
-0.454734
-0.438744
-0.421892
-0.404727
-0.387746
-0.371324
-0.355699
-0.340998
-0.327258
-0.314464
-0.302564
-0.291495
-0.281178
-0.271461
-0.262465
-0.529333
-0.515748
-0.503968
-0.491379
-0.476636
-0.459914
-0.441749
-0.422816
-0.403792
-0.385225
-0.367486
-0.350786
-0.335206
-0.320747
-0.307356
-0.294955
-0.283462
-0.272775
-0.262721
-0.253476
-0.539957
-0.525786
-0.513188
-0.499216
-0.482549
-0.463605
-0.443191
-0.422186
-0.40137
-0.381317
-0.362378
-0.344715
-0.328363
-0.31328
-0.299377
-0.286554
-0.274708
-0.263717
-0.253387
-0.243962
-0.549201
-0.534535
-0.52106
-0.505546
-0.48679
-0.465521
-0.442844
-0.419827
-0.39733
-0.375925
-0.355917
-0.337417
-0.320406
-0.304798
-0.290475
-0.277311
-0.265188
-0.253962
-0.243422
-0.233886
-0.556681
-0.541616
-0.527203
-0.510002
-0.489031
-0.465394
-0.440502
-0.415588
-0.391557
-0.368955
-0.348029
-0.328825
-0.311273
-0.295247
-0.280598
-0.267179
-0.254858
-0.243468
-0.232787
-0.223214
-0.562018
-0.546649
-0.531239
-0.512228
-0.488971
-0.462988
-0.435987
-0.409335
-0.383951
-0.360327
-0.338641
-0.318876
-0.300909
-0.284575
-0.269698
-0.256114
-0.243677
-0.2322
-0.221449
-0.211914
-0.564839
-0.54926
-0.5328
-0.511896
-0.48634
-0.458098
-0.42915
-0.400959
-0.374424
-0.349968
-0.327692
-0.307513
-0.28926
-0.272732
-0.257732
-0.244078
-0.231611
-0.220125
-0.209381
-0.199959
-0.564788
-0.549092
-0.531548
-0.508711
-0.480907
-0.450554
-0.419868
-0.390369
-0.362905
-0.337818
-0.315127
-0.294687
-0.276282
-0.259681
-0.244664
-0.231038
-0.218632
-0.20722
-0.196562
-0.187331
-0.561545
-0.545821
-0.527178
-0.502421
-0.472483
-0.440223
-0.40805
-0.377497
-0.349341
-0.32383
-0.300905
-0.280361
-0.261941
-0.245389
-0.230468
-0.216972
-0.20472
-0.193467
-0.182977
-0.174016
-0.554825
-0.539163
-0.519434
-0.492824
-0.460926
-0.427012
-0.393633
-0.362298
-0.333693
-0.30797
-0.284994
-0.264505
-0.246212
-0.229836
-0.215124
-0.201863
-0.189862
-0.178857
-0.168621
-0.16001
-0.544393
-0.528882
-0.508112
-0.479769
-0.44614
-0.410864
-0.376582
-0.344748
-0.315942
-0.290221
-0.267377
-0.247104
-0.22908
-0.213008
-0.198624
-0.185706
-0.174055
-0.163391
-0.153498
-0.145316
-0.53007
-0.514799
-0.493065
-0.463162
-0.428077
-0.391761
-0.356894
-0.324847
-0.296088
-0.27058
-0.248052
-0.228155
-0.210544
-0.194906
-0.180968
-0.168505
-0.157307
-0.147079
-0.137622
-0.129946
-0.511737
-0.496797
-0.47421
-0.442965
-0.406736
-0.36972
-0.334593
-0.302618
-0.274149
-0.249063
-0.227029
-0.207667
-0.190612
-0.175539
-0.162169
-0.150273
-0.139633
-0.129942
-0.121017
-0.113929
-0.489337
-0.47482
-0.451524
-0.419196
-0.382161
-0.344798
-0.309733
-0.278108
-0.250166
-0.225701
-0.204335
-0.185662
-0.169303
-0.154923
-0.142242
-0.131027
-0.121054
-0.112006
-0.103718
-0.0973063
-0.46288
-0.448882
-0.425048
-0.391927
-0.35444
-0.317084
-0.282396
-0.251388
-0.224196
-0.200543
-0.180012
-0.162175
-0.146645
-0.133085
-0.121212
-0.110792
-0.101596
-0.0933016
-0.0857631
-0.0801239
-0.432441
-0.419059
-0.394882
-0.361282
-0.323705
-0.286701
-0.252692
-0.222554
-0.196321
-0.173657
-0.154113
-0.137251
-0.122677
-0.110055
-0.0991032
-0.0895887
-0.0812792
-0.0738545
-0.0671858
-0.0624046
-0.398158
-0.385491
-0.361187
-0.327431
-0.290125
-0.253809
-0.220762
-0.191726
-0.166644
-0.145128
-0.12671
-0.110945
-0.0974413
-0.085866
-0.0759417
-0.0674386
-0.0601257
-0.0536908
-0.0480092
-0.0441361
-0.360231
-0.348378
-0.324174
-0.290595
-0.253909
-0.218595
-0.186772
-0.15905
-0.135288
-0.115062
-0.0978894
-0.0833261
-0.0709877
-0.0605508
-0.0517468
-0.0443531
-0.0381464
-0.0328251
-0.0282426
-0.0253172
-0.318915
-0.307975
-0.284106
-0.25103
-0.215301
-0.181282
-0.150919
-0.124697
-0.102405
-0.0835868
-0.0677571
-0.0544778
-0.0433773
-0.0341475
-0.0265359
-0.0203332
-0.015329
-0.0112394
-0.00789447
-0.00608853
-0.274518
-0.264585
-0.241289
-0.209034
-0.174576
-0.142117
-0.113426
-0.0888675
-0.0681688
-0.0508547
-0.0364408
-0.0245019
-0.0146856
-0.00670699
-0.000337927
0.00461423
0.00834238
0.0110721
0.0129057
0.0131263
-0.227392
-0.218558
-0.196065
-0.164936
-0.132038
-0.101379
-0.0745451
-0.0517874
-0.0327828
-0.0170418
-0.00408657
0.00649038
0.0150159
0.0217401
0.0268557
0.0305334
0.0329233
0.0340664
0.0338262
0.0318737
-0.177929
-0.170278
-0.148812
-0.119092
-0.0880163
-0.0593707
-0.0345539
-0.0137141
0.00351715
0.0176402
0.0291266
0.0383687
0.0456685
0.0512401
0.055238
0.0578008
0.0589586
0.0583384
0.0554414
0.0512898
-0.12655
-0.120159
-0.0999298
-0.0718779
-0.0428611
-0.016415
0.00624438
0.0250647
0.0404538
0.0529224
0.0629413
0.0708996
0.0770955
0.0817414
0.0850047
0.0870421
0.0877509
0.0862467
0.0818047
0.0773268
-0.0737033
-0.0686373
-0.0498374
-0.023687
0.0030652
0.0271504
0.0475306
0.0642399
0.0777186
0.0884842
0.0970071
0.10368
0.108814
0.112661
0.115476
0.117543
0.11883
0.118312
0.115731
0.119646
-0.0198425
-0.0161603
0.00103728
0.025082
0.0493938
0.0709829
0.0889815
0.1035
0.115002
0.124006
0.130975
0.136292
0.140269
0.143169
0.145262
0.146818
0.147819
0.147774
0.147616
0.15373
0.034561
0.0368134
0.0522597
0.074027
0.0957556
0.114741
0.130277
0.142541
0.152011
0.159201
0.164562
0.168468
0.171223
0.173088
0.17432
0.175146
0.175542
0.175204
0.175075
0.180029
0.0890353
0.0898252
0.103397
0.12275
0.141787
0.158092
0.171108
0.181069
0.188464
0.193792
0.197489
0.199913
0.201352
0.202056
0.202259
0.202164
0.201763
0.200823
0.20012
0.203516
0.143112
0.14242
0.154023
0.170861
0.187134
0.200712
0.211179
0.218814
0.224108
0.227548
0.229546
0.23044
0.2305
0.229953
0.22901
0.227842
0.226428
0.224567
0.222968
0.224918
0.196331
0.194153
0.203722
0.217981
0.231455
0.242292
0.250207
0.255517
0.25871
0.260254
0.260538
0.259878
0.258524
0.25668
0.254536
0.252232
0.249735
0.246864
0.244293
0.244859
0.248244
0.24459
0.252091
0.263747
0.274422
0.282538
0.287928
0.29094
0.292054
0.291718
0.290298
0.288086
0.285311
0.282156
0.278788
0.275325
0.271721
0.267823
0.264278
0.263538
0.298421
0.293316
0.298746
0.307809
0.315723
0.32117
0.32409
0.324856
0.323939
0.321763
0.318673
0.314936
0.31076
0.306312
0.301735
0.297127
0.292438
0.287542
0.28305
0.281069
0.346449
0.339934
0.343318
0.349838
0.355063
0.357923
0.358456
0.357054
0.354175
0.350222
0.345516
0.340302
0.33477
0.329067
0.323319
0.317605
0.311876
0.306031
0.300632
0.297477
0.391937
0.384067
0.385463
0.389522
0.392163
0.392549
0.390803
0.387333
0.382585
0.376937
0.370689
0.364067
0.35724
0.35034
0.343477
0.336714
0.330005
0.323269
0.317012
0.31275
0.43452
0.425366
0.424856
0.42657
0.426764
0.424814
0.420922
0.415507
0.408999
0.401757
0.39406
0.386112
0.378069
0.370045
0.362135
0.354392
0.346771
0.339209
0.33215
0.326851
0.473858
0.463503
0.4612
0.460715
0.458624
0.454503
0.448619
0.441399
0.43326
0.424542
0.4155
0.406325
0.397155
0.388092
0.379215
0.370569
0.362112
0.353796
0.345993
0.339733
0.509639
0.498181
0.494219
0.491708
0.487524
0.481416
0.473714
0.464848
0.455222
0.445157
0.434891
0.424598
0.414402
0.404393
0.394638
0.385173
0.375962
0.366963
0.358484
0.351345
0.541583
0.52913
0.523666
0.519329
0.513262
0.505374
0.496044
0.485706
0.47475
0.463481
0.45212
0.440829
0.429717
0.418864
0.408326
0.398132
0.388251
0.378649
0.369563
0.361635
0.569438
0.556112
0.549323
0.543378
0.535662
0.526216
0.515464
0.50384
0.491723
0.479403
0.467088
0.454925
0.443015
0.431426
0.420207
0.409379
0.398918
0.388792
0.379174
0.370554
0.592987
0.578919
0.570999
0.563686
0.554569
0.543803
0.531846
0.519134
0.506035
0.492826
0.479703
0.466804
0.454219
0.442009
0.430214
0.418852
0.407902
0.397335
0.387266
0.378058
0.612049
0.597375
0.588534
0.580107
0.569853
0.558017
0.545083
0.53149
0.517595
0.503667
0.489891
0.476395
0.463264
0.450552
0.438292
0.426497
0.415153
0.40423
0.393795
0.384108
0.626475
0.611341
0.601798
0.592526
0.581408
0.568761
0.555088
0.540827
0.526331
0.511857
0.497586
0.48364
0.470096
0.457004
0.444392
0.432271
0.420629
0.409437
0.398724
0.388673
0.636153
0.62071
0.610694
0.600853
0.589155
0.575963
0.561794
0.547085
0.532185
0.517346
0.502743
0.488494
0.474673
0.461326
0.448478
0.436139
0.424297
0.412925
0.402025
0.391729
0.641009
0.625411
0.615157
0.60503
0.593041
0.579575
0.565157
0.550224
0.53512
0.520098
0.505329
0.490928
0.476968
0.463493
0.450527
0.438078
0.426136
0.414673
0.403679
0.39326
0.641005
0.625408
0.615154
0.605026
0.593038
0.579573
0.565155
0.550221
0.535118
0.520096
0.505327
0.490926
0.476966
0.463491
0.450525
0.438076
0.426135
0.414672
0.403678
0.393259
0.636142
0.6207
0.610684
0.600843
0.589146
0.575955
0.561787
0.547078
0.532179
0.51734
0.502738
0.488489
0.474668
0.461321
0.448473
0.436134
0.424293
0.412921
0.402021
0.391725
0.626457
0.611324
0.601781
0.59251
0.581394
0.568748
0.555076
0.540816
0.52632
0.511847
0.497577
0.483631
0.470087
0.456996
0.444384
0.432263
0.420622
0.40943
0.398717
0.388667
0.612024
0.597351
0.588511
0.580086
0.569833
0.557998
0.545066
0.531474
0.517581
0.503653
0.489877
0.476382
0.463252
0.45054
0.438281
0.426487
0.415143
0.40422
0.393786
0.384099
0.592956
0.578888
0.57097
0.563659
0.554543
0.54378
0.531824
0.519113
0.506016
0.492808
0.479686
0.466788
0.454204
0.441995
0.430201
0.418839
0.407889
0.397322
0.387255
0.378047
0.569399
0.556074
0.549287
0.543345
0.535631
0.526188
0.515437
0.503815
0.4917
0.479381
0.467067
0.454905
0.442996
0.431408
0.42019
0.409363
0.398902
0.388777
0.37916
0.370541
0.541537
0.529086
0.523624
0.519289
0.513226
0.50534
0.496013
0.485677
0.474723
0.463455
0.452096
0.440806
0.429695
0.418843
0.408307
0.398113
0.388233
0.378632
0.369546
0.361619
0.509588
0.49813
0.494171
0.491663
0.487482
0.481377
0.473678
0.464815
0.455191
0.445127
0.434863
0.424572
0.414377
0.404369
0.394615
0.385151
0.375941
0.366944
0.358465
0.351327
0.4738
0.463446
0.461146
0.460664
0.458578
0.454459
0.448579
0.441361
0.433225
0.424508
0.415469
0.406296
0.397127
0.388065
0.37919
0.370544
0.362089
0.353773
0.345972
0.339712
0.434456
0.425303
0.424797
0.426514
0.426712
0.424766
0.420878
0.415465
0.40896
0.401721
0.394025
0.386079
0.378037
0.370015
0.362107
0.354365
0.346745
0.339184
0.332126
0.326828
0.391867
0.383999
0.385397
0.38946
0.392106
0.392496
0.390754
0.387287
0.382542
0.376897
0.370651
0.364031
0.357206
0.350308
0.343446
0.336685
0.329976
0.323241
0.316985
0.312725
0.346373
0.339859
0.343247
0.349771
0.355001
0.357866
0.358403
0.357004
0.354129
0.350178
0.345474
0.340263
0.334733
0.329031
0.323285
0.317573
0.311845
0.306001
0.300603
0.29745
0.298339
0.293236
0.29867
0.307738
0.315657
0.321108
0.324033
0.324802
0.323889
0.321716
0.318628
0.314893
0.31072
0.306273
0.301698
0.297092
0.292404
0.28751
0.283019
0.28104
0.248157
0.244505
0.25201
0.263671
0.274351
0.282472
0.287867
0.290883
0.292001
0.291668
0.290251
0.288041
0.285268
0.282116
0.278749
0.275288
0.271685
0.267789
0.264246
0.263507
0.196239
0.194063
0.203636
0.217901
0.23138
0.242222
0.250142
0.255457
0.258654
0.2602
0.260487
0.25983
0.258478
0.256637
0.254494
0.252193
0.249698
0.246828
0.244258
0.244826
0.143015
0.142326
0.153933
0.170776
0.187055
0.200638
0.21111
0.21875
0.224048
0.227491
0.229492
0.230389
0.230451
0.229907
0.228966
0.2278
0.226388
0.224528
0.222931
0.224883
0.0889344
0.0897266
0.103303
0.122661
0.141705
0.158015
0.171037
0.181002
0.188401
0.193733
0.197433
0.199859
0.201302
0.202007
0.202213
0.20212
0.201721
0.200783
0.200081
0.203478
0.0344562
0.0367109
0.0521616
0.0739348
0.0956695
0.114661
0.130202
0.14247
0.151945
0.159139
0.164503
0.168412
0.17117
0.173037
0.174272
0.1751
0.175498
0.175161
0.175034
0.17999
-0.0199508
-0.0162664
0.000935719
0.0249864
0.0493045
0.0708995
0.0889035
0.103427
0.114934
0.123941
0.130913
0.136234
0.140214
0.143116
0.145211
0.146769
0.147772
0.147729
0.147573
0.153688
-0.0738148
-0.0687464
-0.0499421
-0.0237857
0.00297285
0.0270642
0.0474499
0.0641642
0.0776474
0.0884168
0.0969433
0.103619
0.108756
0.112606
0.115423
0.117492
0.118781
0.118265
0.115686
0.119603
-0.126664
-0.12027
-0.100037
-0.0719794
-0.0429561
-0.0165039
0.00616118
0.0249865
0.0403802
0.0528528
0.0628753
0.0708367
0.0770355
0.0816839
0.0849495
0.086989
0.0876997
0.0861972
0.0817563
0.0772793
-0.178045
-0.170392
-0.148922
-0.119196
-0.0881137
-0.0594619
-0.0346393
-0.0137944
0.00344139
0.0175685
0.0290585
0.0383038
0.0456065
0.0511807
0.0551808
0.0577457
0.0589052
0.0582866
0.0553907
0.0512397
-0.22751
-0.218674
-0.196177
-0.165042
-0.132137
-0.101473
-0.0746326
-0.0518697
-0.0328605
-0.0171154
-0.00415651
0.00642366
0.014952
0.0216788
0.0267967
0.0304764
0.0328681
0.0340129
0.0337739
0.0318222
-0.274638
-0.264703
-0.241402
-0.209142
-0.174677
-0.142212
-0.113516
-0.0889515
-0.0682482
-0.0509299
-0.0365123
-0.0245703
-0.014751
-0.00676981
-0.00039842
0.00455582
0.00828582
0.0110172
0.0128522
0.0130739
-0.319036
-0.308093
-0.284221
-0.251139
-0.215404
-0.181378
-0.15101
-0.124783
-0.102485
-0.0836634
-0.0678301
-0.0545475
-0.0434441
-0.0342116
-0.0265976
-0.0203928
-0.0153868
-0.0112955
-0.007949
-0.00614182
-0.360352
-0.348498
-0.32429
-0.290705
-0.254013
-0.218693
-0.186864
-0.159136
-0.13537
-0.11514
-0.0979636
-0.083397
-0.0710557
-0.060616
-0.0518096
-0.0444139
-0.0382052
-0.0328821
-0.0282981
-0.0253713
-0.39828
-0.385611
-0.361303
-0.327542
-0.290229
-0.253907
-0.220855
-0.191814
-0.166727
-0.145207
-0.126785
-0.111017
-0.0975101
-0.0859322
-0.0760055
-0.0675002
-0.0601854
-0.0537487
-0.0480655
-0.044191
-0.432562
-0.419179
-0.394998
-0.361392
-0.323809
-0.2868
-0.252786
-0.222643
-0.196405
-0.173736
-0.154189
-0.137323
-0.122747
-0.110122
-0.0991678
-0.0896511
-0.0813396
-0.0739131
-0.0672427
-0.0624601
-0.463001
-0.449001
-0.425163
-0.392038
-0.354545
-0.317183
-0.282489
-0.251477
-0.22428
-0.200623
-0.180088
-0.162248
-0.146716
-0.133153
-0.121277
-0.110855
-0.101657
-0.0933607
-0.0858206
-0.0801799
-0.489456
-0.474938
-0.451638
-0.419306
-0.382265
-0.344897
-0.309827
-0.278197
-0.25025
-0.225781
-0.204412
-0.185736
-0.169373
-0.154991
-0.142308
-0.131091
-0.121116
-0.112066
-0.103776
-0.0973628
-0.511855
-0.496913
-0.474323
-0.443074
-0.40684
-0.369819
-0.334687
-0.302706
-0.274234
-0.249143
-0.227106
-0.207741
-0.190683
-0.175607
-0.162235
-0.150337
-0.139694
-0.130002
-0.121075
-0.113986
-0.530186
-0.514914
-0.493177
-0.463269
-0.42818
-0.391859
-0.356987
-0.324935
-0.296172
-0.270661
-0.248129
-0.228228
-0.210615
-0.194975
-0.181035
-0.168569
-0.157369
-0.147139
-0.137681
-0.130003
-0.544506
-0.528994
-0.508221
-0.479875
-0.446242
-0.410961
-0.376675
-0.344835
-0.316026
-0.290301
-0.267454
-0.247177
-0.229151
-0.213077
-0.19869
-0.185771
-0.174118
-0.163451
-0.153557
-0.145373
-0.554935
-0.539273
-0.519541
-0.492928
-0.461026
-0.427108
-0.393724
-0.362385
-0.333776
-0.30805
-0.28507
-0.264578
-0.246283
-0.229904
-0.21519
-0.201927
-0.189924
-0.178918
-0.16868
-0.160067
-0.561653
-0.545928
-0.527283
-0.502523
-0.472581
-0.440317
-0.40814
-0.377583
-0.349423
-0.323909
-0.300981
-0.280433
-0.262012
-0.245458
-0.230534
-0.217036
-0.204782
-0.193527
-0.183036
-0.174073
-0.564893
-0.549195
-0.531649
-0.508811
-0.481003
-0.450646
-0.419957
-0.390454
-0.362986
-0.337896
-0.315202
-0.29476
-0.276352
-0.259749
-0.24473
-0.231102
-0.218695
-0.207281
-0.196621
-0.187389
-0.56494
-0.54936
-0.532899
-0.511993
-0.486433
-0.458188
-0.429236
-0.401042
-0.374503
-0.350044
-0.327766
-0.307584
-0.289329
-0.2728
-0.257797
-0.244142
-0.231673
-0.220186
-0.209441
-0.200017
-0.562116
-0.546746
-0.531334
-0.512321
-0.489061
-0.463076
-0.436072
-0.409417
-0.384029
-0.360402
-0.338714
-0.318946
-0.300977
-0.284641
-0.269763
-0.256178
-0.243739
-0.232261
-0.221509
-0.211972
-0.556775
-0.541709
-0.527295
-0.510092
-0.489118
-0.465479
-0.440584
-0.415667
-0.391634
-0.369029
-0.348101
-0.328895
-0.311341
-0.295314
-0.280663
-0.267242
-0.254919
-0.243529
-0.232846
-0.223273
-0.549291
-0.534624
-0.521148
-0.505633
-0.486874
-0.465603
-0.442924
-0.419905
-0.397405
-0.375997
-0.355988
-0.337486
-0.320473
-0.304864
-0.29054
-0.277374
-0.26525
-0.254022
-0.243481
-0.233945
-0.540044
-0.525871
-0.513272
-0.499299
-0.482631
-0.463684
-0.443269
-0.422261
-0.401443
-0.381389
-0.362447
-0.344782
-0.328429
-0.313344
-0.299441
-0.286617
-0.27477
-0.263777
-0.253447
-0.244021
-0.529415
-0.515829
-0.504048
-0.491458
-0.476714
-0.45999
-0.441823
-0.422889
-0.403863
-0.385294
-0.367554
-0.350852
-0.335272
-0.320811
-0.307419
-0.295018
-0.283524
-0.272835
-0.262781
-0.253535
-0.517773
-0.504859
-0.493846
-0.482476
-0.469463
-0.454808
-0.438815
-0.421962
-0.404796
-0.387814
-0.37139
-0.355764
-0.341062
-0.327321
-0.314526
-0.302625
-0.291556
-0.281238
-0.271521
-0.262524
-0.50546
-0.493296
-0.483013
-0.47271
-0.461219
-0.448439
-0.434493
-0.419671
-0.404385
-0.389057
-0.37404
-0.35959
-0.345861
-0.33293
-0.320813
-0.309488
-0.298912
-0.289026
-0.279706
-0.271023
-0.492792
-0.481445
-0.471861
-0.462488
-0.452313
-0.441191
-0.429116
-0.416223
-0.402787
-0.38914
-0.375594
-0.362399
-0.34973
-0.337691
-0.326329
-0.315648
-0.305631
-0.296237
-0.287369
-0.279062
-0.480047
-0.469569
-0.460667
-0.452106
-0.443052
-0.433363
-0.422954
-0.411841
-0.400175
-0.388193
-0.376146
-0.364264
-0.352724
-0.34165
-0.331114
-0.321146
-0.311748
-0.302904
-0.294539
-0.286665
-0.467464
-0.457892
-0.449661
-0.441819
-0.433713
-0.425235
-0.41627
-0.406752
-0.396733
-0.386352
-0.375797
-0.365256
-0.354898
-0.344851
-0.335205
-0.326011
-0.317292
-0.309049
-0.301236
-0.293847
-0.455239
-0.446593
-0.439026
-0.431832
-0.424529
-0.417061
-0.409315
-0.401186
-0.392651
-0.383769
-0.374655
-0.365453
-0.356303
-0.34733
-0.338629
-0.330265
-0.322279
-0.31469
-0.307472
-0.300611
-0.443529
-0.435809
-0.428901
-0.422305
-0.415688
-0.409054
-0.402318
-0.395364
-0.388126
-0.380601
-0.372842
-0.364938
-0.356996
-0.349122
-0.341406
-0.333922
-0.326719
-0.319831
-0.31325
-0.306954
-0.432447
-0.425641
-0.419385
-0.413348
-0.407329
-0.401386
-0.395472
-0.389487
-0.383349
-0.377015
-0.370486
-0.363804
-0.357037
-0.350262
-0.343557
-0.33699
-0.330614
-0.324471
-0.318569
-0.312865
-0.422075
-0.416152
-0.410536
-0.405032
-0.399545
-0.39418
-0.388932
-0.383731
-0.378498
-0.373174
-0.367726
-0.362158
-0.356497
-0.350792
-0.345099
-0.339473
-0.333961
-0.328605
-0.323424
-0.318339
-0.41246
-0.407378
-0.402384
-0.39739
-0.392388
-0.387517
-0.382811
-0.378235
-0.373731
-0.369236
-0.364705
-0.360114
-0.355461
-0.350766
-0.346059
-0.341378
-0.336757
-0.332228
-0.327816
-0.323385
-0.403628
-0.399332
-0.394933
-0.390429
-0.385876
-0.381437
-0.377181
-0.373105
-0.369175
-0.365344
-0.361564
-0.357798
-0.354028
-0.350249
-0.346473
-0.342716
-0.338999
-0.335335
-0.331754
-0.328041
-0.395582
-0.392009
-0.388172
-0.384133
-0.380001
-0.375951
-0.372077
-0.368405
-0.364928
-0.361616
-0.358431
-0.355337
-0.352306
-0.349325
-0.346391
-0.343509
-0.340686
-0.337921
-0.335244
-0.332369
-0.388314
-0.385392
-0.382074
-0.378475
-0.374737
-0.371045
-0.367506
-0.364171
-0.361055
-0.358147
-0.355421
-0.352851
-0.350411
-0.348087
-0.345876
-0.343782
-0.341813
-0.339965
-0.338272
-0.336451
-0.381805
-0.379456
-0.37661
-0.373419
-0.370052
-0.366692
-0.363456
-0.360413
-0.357593
-0.355001
-0.352627
-0.350451
-0.348458
-0.34664
-0.345004
-0.343567
-0.34236
-0.341403
-0.340753
-0.340297
-0.376026
-0.374169
-0.371744
-0.368929
-0.365908
-0.362859
-0.359906
-0.357125
-0.354559
-0.352224
-0.350118
-0.348233
-0.346557
-0.345093
-0.343859
-0.3429
-0.342288
-0.34211
-0.342491
-0.343837
-0.370943
-0.369493
-0.367438
-0.364965
-0.362266
-0.359511
-0.356825
-0.35429
-0.351952
-0.349836
-0.347945
-0.346272
-0.344809
-0.343558
-0.342544
-0.341832
-0.341544
-0.341865
-0.343075
-0.346578
-0.36651
-0.365386
-0.363649
-0.361486
-0.359086
-0.356612
-0.354184
-0.351883
-0.349762
-0.347845
-0.346136
-0.344626
-0.3433
-0.342148
-0.341182
-0.340459
-0.340116
-0.340401
-0.341872
-0.34771
-0.362673
-0.361796
-0.360329
-0.358447
-0.356328
-0.354122
-0.351945
-0.349876
-0.347967
-0.34624
-0.344699
-0.343327
-0.342095
-0.340969
-0.339921
-0.338948
-0.338114
-0.337549
-0.337912
-0.344537
-0.359364
-0.358665
-0.357426
-0.355798
-0.353943
-0.351997
-0.350068
-0.348231
-0.346534
-0.344998
-0.343622
-0.342381
-0.341231
-0.340103
-0.338897
-0.337477
-0.335651
-0.332934
-0.327907
-0.321498
-0.356506
-0.355928
-0.354881
-0.353485
-0.35188
-0.350188
-0.348505
-0.346903
-0.345423
-0.344083
-0.342881
-0.341789
-0.340755
-0.3397
-0.338508
-0.33702
-0.335043
-0.332186
-0.327343
-0.322002
-0.354013
-0.353514
-0.352631
-0.351448
-0.350082
-0.348639
-0.347205
-0.34584
-0.344583
-0.343449
-0.342434
-0.341512
-0.340637
-0.339742
-0.33873
-0.33749
-0.335914
-0.333742
-0.330184
-0.327194
-0.351796
-0.35135
-0.350611
-0.349629
-0.348493
-0.347295
-0.346108
-0.344986
-0.343959
-0.34304
-0.342224
-0.341488
-0.340796
-0.340093
-0.339311
-0.338379
-0.337247
-0.33571
-0.333164
-0.331866
-0.349765
-0.349365
-0.348758
-0.347966
-0.347054
-0.346098
-0.345159
-0.344282
-0.343491
-0.342797
-0.342191
-0.341657
-0.341163
-0.34067
-0.340132
-0.339513
-0.338804
-0.337844
-0.336171
-0.336129
-0.347837
-0.347491
-0.347016
-0.346407
-0.345711
-0.344993
-0.344301
-0.343671
-0.343122
-0.34266
-0.342277
-0.341958
-0.34168
-0.341415
-0.341134
-0.34083
-0.340524
-0.340083
-0.339139
-0.339996
-0.345941
-0.345672
-0.345332
-0.344902
-0.344418
-0.343931
-0.343482
-0.343098
-0.342793
-0.342569
-0.342418
-0.342327
-0.342279
-0.342254
-0.342239
-0.342243
-0.342305
-0.342303
-0.341918
-0.343383
-0.344018
-0.343862
-0.343665
-0.343413
-0.343134
-0.342871
-0.342657
-0.342514
-0.342449
-0.342463
-0.342548
-0.342691
-0.34288
-0.343101
-0.343351
-0.343648
-0.344038
-0.344395
-0.344421
-0.346297
-0.342031
-0.342027
-0.341988
-0.341911
-0.341829
-0.34178
-0.34179
-0.341876
-0.342043
-0.342287
-0.342602
-0.342977
-0.3434
-0.343864
-0.344367
-0.344936
-0.345614
-0.346261
-0.346593
-0.348764
-0.339959
-0.340152
-0.340284
-0.340379
-0.340486
-0.340637
-0.340855
-0.341153
-0.341536
-0.341997
-0.34253
-0.343123
-0.343769
-0.344461
-0.345199
-0.346013
-0.346939
-0.347822
-0.348391
-0.350797
-0.337806
-0.338236
-0.33855
-0.338815
-0.339098
-0.339432
-0.339839
-0.34033
-0.340907
-0.341564
-0.342294
-0.343087
-0.343935
-0.344833
-0.345782
-0.346811
-0.347949
-0.349023
-0.349787
-0.352398
-0.335594