/*--------------------------------*- C++ -*----------------------------------*\
  =========                 |
  \\      /  F ield         | OpenFOAM: The Open Source CFD Toolbox
   \\    /   O peration     | Website:  https://openfoam.org
    \\  /    A nd           | Version:  6.0
     \\/     M anipulation  |
\*---------------------------------------------------------------------------*/
FoamFile
{
    version     2.0;
    format      ascii;
    class       surfaceScalarField;
    location    "7.3";
    object      phi;
}
// * * * * * * * * * * * * * * * * * * * * * * * * * * * * * * * * * * * * * //

dimensions      [0 3 -1 0 0 0 0];

internalField   nonuniform List<scalar> 
15760
(
-7.57344e-06
7.4049e-06
1.68547e-07
-2.59227e-05
1.79304e-05
4.18812e-07
-5.21612e-05
2.56339e-05
6.04625e-07
-8.42261e-05
3.13239e-05
7.41037e-07
-0.000120606
3.55401e-05
8.40039e-07
-0.000160197
3.86794e-05
9.11355e-07
-0.000202196
4.10369e-05
9.62574e-07
-0.00024603
4.28343e-05
9.99334e-07
-0.000291296
4.42402e-05
1.02559e-06
-0.000337724
4.53841e-05
1.04391e-06
-0.000385147
4.6367e-05
1.05588e-06
-0.000433477
4.72682e-05
1.06236e-06
-0.000482693
4.81515e-05
1.06381e-06
-0.000532821
4.9068e-05
1.06043e-06
-0.000583933
5.00589e-05
1.05242e-06
-0.00063613
5.11571e-05
1.03998e-06
-0.000689539
5.23864e-05
1.02339e-06
-0.000744299
5.37564e-05
1.00292e-06
-0.000800547
5.52695e-05
9.78915e-07
5.69664e-05
9.51996e-07
-0.000858466
-7.33397e-06
1.47389e-05
-2.51537e-05
3.57502e-05
-5.06755e-05
5.11556e-05
-8.18939e-05
6.25423e-05
-0.000117329
7.09751e-05
-0.00015589
7.72402e-05
-0.000196778
8.19249e-05
-0.000239415
8.54712e-05
-0.00028339
8.82159e-05
-0.000328424
9.0418e-05
-0.000374337
9.22795e-05
-0.000421028
9.39595e-05
-0.000468462
9.5586e-05
-0.000516657
9.72622e-05
-0.00056567
9.9072e-05
-0.000615596
0.000101083
-0.000666557
0.000103347
-0.000718687
0.000105886
-0.000772125
0.000108708
0.000111893
-0.000827052
-6.86797e-06
2.16068e-05
-2.36537e-05
5.2536e-05
-4.77721e-05
7.5274e-05
-7.73299e-05
9.21001e-05
-0.000110908
0.000104553
-0.000147443
0.000113776
-0.000186144
0.000120626
-0.000226426
0.000125753
-0.000267864
0.000129654
-0.000310157
0.000132711
-0.000353102
0.000135224
-0.000396575
0.000137432
-0.000440515
0.000139527
-0.000484917
0.000141664
-0.00052982
0.000143975
-0.000575301
0.000146565
-0.000621472
0.000149518
-0.000668464
0.000152878
-0.000716417
0.000156662
0.00016099
-0.000765514
-6.20574e-06
2.78126e-05
-2.15133e-05
6.78435e-05
-4.36163e-05
9.73771e-05
-7.07801e-05
0.000119264
-0.000101673
0.000135446
-0.000135274
0.000147376
-0.000170802
0.000156155
-0.000207666
0.000162618
-0.000245422
0.000167409
-0.000283739
0.000171028
-0.000322384
0.000173869
-0.000361198
0.000176246
-0.000400086
0.000178415
-0.000439009
0.000180588
-0.000477979
0.000182944
-0.000517051
0.000185637
-0.000556322
0.000188789
-0.000595922
0.000192478
-0.000636
0.00019674
0.000201737
-0.000676747
-5.38977e-06
3.32023e-05
-1.88604e-05
8.13142e-05
-3.84426e-05
0.000116959
-6.25955e-05
0.000143417
-9.00967e-05
0.000162947
-0.000119979
0.000177259
-0.000151481
0.000187656
-0.000184004
0.00019514
-0.000217081
0.000200486
-0.000250352
0.0002043
-0.000283544
0.000207061
-0.000316456
0.000209158
-0.000348952
0.00021091
-0.000380952
0.000212588
-0.000412432
0.000214424
-0.000443421
0.000216625
-0.000474
0.000219369
-0.000504301
0.000222779
-0.000534491
0.000226931
0.000232034
-0.000564788
-4.47147e-06
3.76738e-05
-1.58515e-05
9.26942e-05
-3.25396e-05
0.000133647
-5.32107e-05
0.000164088
-7.67676e-05
0.000186504
-0.000102308
0.000202799
-0.000129095
0.000214443
-0.000156528
0.000222573
-0.000184121
0.000228079
-0.000211481
0.000231659
-0.000238292
0.000233873
-0.000264308
0.000235175
-0.000289344
0.000235947
-0.000313274
0.000236518
-0.000336031
0.000237181
-0.000357612
0.000238205
-0.000378082
0.000239838
-0.000397578
0.000242276
-0.000416302
0.000245655
0.000250253
-0.000434522
-3.50713e-06
4.11809e-05
-1.26598e-05
0.000101847
-2.62301e-05
0.000147218
-4.3116e-05
0.000180974
-6.23534e-05
0.000205741
-8.31139e-05
0.00022356
-0.000104693
0.000236022
-0.000126495
0.000244375
-0.000148017
0.000249601
-0.000168837
0.000252479
-0.0001886
0.000253635
-0.00020701
0.000253585
-0.000223831
0.000252767
-0.000238881
0.000251568
-0.000252045
0.000250345
-0.000263281
0.000249441
-0.000272633
0.00024919
-0.000280248
0.00024989
-0.000286375
0.000251781
0.000255247
-0.000291368
-2.55376e-06
4.37347e-05
-9.46306e-06
0.000108756
-1.98494e-05
0.000157604
-3.28248e-05
0.000193949
-4.75591e-05
0.000220476
-6.33027e-05
0.000239303
-7.93917e-05
0.000252111
-9.52434e-05
0.000260227
-0.000110348
0.000264706
-0.00012426
0.00026639
-0.000136586
0.000265962
-0.000146986
0.000263985
-0.000155167
0.000260948
-0.000160889
0.000257291
-0.000163978
0.000253434
-0.00016434
0.000249803
-0.000161988
0.000246838
-0.000157074
0.000244976
-0.000149908
0.000244616
0.000246313
-0.000140974
-1.6649e-06
4.53996e-05
-6.43112e-06
0.000113522
-1.37209e-05
0.000164894
-2.28376e-05
0.000203066
-3.30771e-05
0.000230715
-4.37706e-05
0.000249997
-5.43015e-05
0.000262642
-6.41099e-05
0.000270036
-7.26892e-05
0.000273285
-7.95794e-05
0.000273281
-8.43609e-05
0.000270743
-8.66504e-05
0.000266275
-8.61008e-05
0.000260398
-8.24081e-05
0.000253598
-7.5326e-05
0.000246352
-6.4692e-05
0.000239169
-5.04671e-05
0.000232613
-3.27913e-05
0.0002273
-1.20407e-05
0.000223865
0.000223144
1.11279e-05
-8.8684e-07
4.62864e-05
-3.71308e-06
0.000116349
-8.13266e-06
0.000169313
-1.36045e-05
0.000208538
-1.95353e-05
0.000236646
-2.53339e-05
0.000255795
-3.04362e-05
0.000267744
-3.43149e-05
0.000273914
-3.64782e-05
0.000275449
-3.64656e-05
0.000273268
-3.38412e-05
0.000268119
-2.81891e-05
0.000260623
-1.91126e-05
0.000251322
-6.2399e-06
0.000240725
1.07583e-05
0.000229354
3.21362e-05
0.000217791
5.80173e-05
0.000206732
8.83073e-05
0.00019701
0.000122582
0.000189591
0.000185757
0.000159969
-2.554e-07
4.65418e-05
-1.42642e-06
0.00011752
-3.31451e-06
0.000171202
-5.48857e-06
0.000210712
-7.44314e-06
0.0002386
-8.65674e-06
0.000257009
-8.61966e-06
0.000267707
-6.84449e-06
0.000272139
-2.86637e-06
0.000271471
3.76209e-06
0.00026664
1.34782e-05
0.000258403
2.67166e-05
0.000247384
4.39136e-05
0.000234125
6.55047e-05
0.000219134
9.191e-05
0.000202949
0.000123498
0.000186203
0.000160516
0.000169714
0.00020297
0.000154557
0.00025043
0.00014213
0.000134398
0.000301789
2.06585e-07
4.63352e-05
3.52227e-07
0.000117374
5.81223e-07
0.000170973
1.26762e-06
0.000210025
2.85833e-06
0.00023701
5.81889e-06
0.000254048
1.06085e-05
0.000262918
1.76713e-05
0.000265076
2.74373e-05
0.000261705
4.03284e-05
0.000253748
5.67687e-05
0.000241962
7.71945e-05
0.000226958
0.000102065
0.000209255
0.000131865
0.000189334
0.0001671
0.000167713
0.000208266
0.000145038
0.000255769
0.000122211
0.000309777
0.000100549
0.000369934
8.19728e-05
6.9419e-05
0.000434913
4.90962e-07
4.58443e-05
1.59385e-06
0.000116271
3.495e-06
0.000169071
6.56856e-06
0.000206952
1.12379e-05
0.00023234
1.79332e-05
0.000247353
2.70746e-05
0.000253776
3.90676e-05
0.000253083
5.43067e-05
0.000246466
7.31832e-05
0.000234872
9.6097e-05
0.000219049
0.00012347
0.000199585
0.000155761
0.000176963
0.00019348
0.000151615
0.000237193
0.000124001
0.000287503
9.47271e-05
0.000344989
6.47255e-05
0.000410028
3.55097e-05
0.000482437
9.56346e-06
-8.8853e-06
0.000560741
6.05145e-07
4.52391e-05
2.32095e-06
0.000114555
5.46936e-06
0.000165923
1.04834e-05
0.000201938
1.78027e-05
0.000225021
2.78508e-05
0.000237305
4.10296e-05
0.000240597
5.77221e-05
0.000236391
7.82988e-05
0.000225889
0.000103127
0.000210044
0.000132582
0.000189594
0.000167062
0.000165106
0.000207003
0.000137023
0.000252901
0.000105716
0.00030533
7.1571e-05
0.000364947
3.511e-05
0.000432451
-2.77819e-06
0.000508431
-4.04705e-05
0.000592957
-7.49627e-05
-0.000100481
0.000684553
5.72094e-07
4.4667e-05
2.60795e-06
0.000112519
6.65104e-06
0.00016188
1.3251e-05
0.000195338
2.29083e-05
0.000215364
3.6076e-05
0.000224137
5.31704e-05
0.000223503
7.45816e-05
0.000214979
0.000100683
0.000199787
0.00013184
0.000178886
0.000168419
0.000153015
0.000210796
0.00012273
0.000259368
8.84507e-05
0.000314575
5.05088e-05
0.000376925
9.2213e-06
0.000447016
-3.49811e-05
0.000525543
-8.13051e-05
0.000613202
-0.00012813
0.000710326
-0.000172086
-0.000205787
0.000815631
4.29213e-07
4.42378e-05
2.57773e-06
0.000110371
7.28458e-06
0.000157173
1.5271e-05
0.000187351
2.71456e-05
0.000203489
4.34354e-05
0.000207847
6.46144e-05
0.000202324
9.11223e-05
0.000188472
0.000123377
0.000167532
0.000161781
0.000140482
0.000206721
0.000108075
0.000258567
7.08835e-05
0.000317675
2.93429e-05
0.000384389
-1.62049e-05
0.00045906
-6.54498e-05
0.000542082
-0.000118003
0.000633935
-0.000173158
0.000735183
-0.000229378
0.000846262
-0.000283165
-0.000325765
0.000966239
2.25996e-07
4.40118e-05
2.39364e-06
0.000108203
7.69643e-06
0.00015187
1.70776e-05
0.00017797
3.13026e-05
0.000189264
5.10224e-05
0.000188128
7.68194e-05
0.000176527
0.000109235
0.000156056
0.000148781
0.000127986
0.000195944
9.33201e-05
0.000251168
5.28504e-05
0.000314846
7.20542e-06
0.000387293
-4.31038e-05
0.000468728
-9.76398e-05
0.000559267
-0.000155989
0.000658944
-0.00021768
0.000767771
-0.000281986
0.000885817
-0.000347424
0.0010132
-0.000410547
-0.000461832
0.00114927
2.02571e-08
4.39916e-05
2.24686e-06
0.000105977
8.26953e-06
0.000145848
1.92973e-05
0.000166942
3.63004e-05
0.000172261
6.01044e-05
0.000164323
9.14525e-05
0.000145179
0.000131038
0.00011647
0.000179517
7.95073e-05
0.000237496
3.53414e-05
0.000305511
-1.51654e-05
0.000383994
-7.12774e-05
0.000473221
-0.000132331
0.000573264
-0.000197683
0.000683945
-0.000266669
0.000804809
-0.000338545
0.000935177
-0.000412353
0.00107425
-0.000486501
0.00122123
-0.000557525
-0.00061594
0.00137534
-1.26923e-07
4.41185e-05
2.33979e-06
0.00010351
9.40974e-06
0.000138778
2.25932e-05
0.000153759
4.31078e-05
0.000151747
7.19998e-05
0.000135432
0.000110217
0.000106962
0.000158643
6.80444e-05
0.000218102
2.00479e-05
0.000289341
-3.58978e-05
0.000372991
-9.88147e-05
0.000469513
-0.0001678
0.000579142
-0.000241959
0.000701802
-0.000320343
0.000837027
-0.000401894
0.00098386
-0.000485379
0.0011408
-0.000569294
0.00130584
-0.00065154
0.00147661
-0.00072829
-0.00079084
0.00165151
-1.57048e-07
4.42755e-05
2.86709e-06
0.000100486
1.15077e-05
0.000130137
2.76012e-05
0.000137665
5.26452e-05
0.000126703
8.79383e-05
0.000100138
0.000134657
6.02436e-05
0.000193883
8.81835e-06
0.000266598
-5.26677e-05
0.000353653
-0.000122953
0.000455718
-0.00020088
0.000573233
-0.000285315
0.000706353
-0.000375079
0.000854896
-0.000468887
0.0010183
-0.000565293
0.00119553
-0.000662613
0.001385
-0.000758761
0.00158405
-0.00085059
0.00178695
-0.000931195
-0.000980262
0.00197637
-2.06632e-08
4.42962e-05
3.99629e-06
9.64689e-05
1.49012e-05
0.000119232
3.48676e-05
0.000117699
6.56899e-05
9.58804e-05
0.000108928
5.69e-05
0.000165978
3.19428e-06
0.00023808
-6.32843e-05
0.000326301
-0.000140888
0.000431479
-0.00022813
0.000554174
-0.000323575
0.000694624
-0.000425766
0.000852723
-0.000533177
0.00102804
-0.000644204
0.00121991
-0.000757166
0.00142764
-0.000870345
0.0016509
-0.000982016
0.0018907
-0.00109039
0.00215292
-0.00119341
-0.00128125
0.0024539
3.20985e-07
4.39752e-05
5.85803e-06
9.09319e-05
1.98507e-05
0.000105239
4.48056e-05
9.27443e-05
8.28082e-05
5.78778e-05
0.000135658
4.05031e-06
0.000204914
-6.60622e-05
0.000291884
-0.000150254
0.000397566
-0.000246571
0.000522589
-0.000353153
0.000667147
-0.000468133
0.000830962
-0.000589581
0.00101329
-0.000715505
0.00121297
-0.00084388
0.00142852
-0.000972717
0.00165833
-0.00110016
0.0019009
-0.00122458
0.00215526
-0.00134476
0.00242168
-0.00145983
-0.00156071
0.00270114
8.89948e-07
4.30853e-05
8.53249e-06
8.32893e-05
2.6518e-05
8.7254e-05
5.76624e-05
6.15998e-05
0.000104309
1.12309e-05
0.000168436
-6.00761e-05
0.000251661
-0.000149288
0.000355198
-0.00025379
0.000479766
-0.000371139
0.000625517
-0.000498904
0.000791973
-0.000634589
0.000978017
-0.000775625
0.00118193
-0.000919419
0.00140149
-0.00106344
0.00163409
-0.00120532
0.00187693
-0.001343
0.00212713
-0.00147478
0.00238186
-0.00159949
0.00263845
-0.00171641
-0.0018181
0.00289584
1.69519e-06
4.13901e-05
1.20552e-05
7.29293e-05
3.49709e-05
6.43384e-05
7.35223e-05
2.30484e-05
0.000130245
-4.54918e-05
0.000207186
-0.000137017
0.000305865
-0.000247966
0.000427178
-0.000375104
0.0005713
-0.000515261
0.000737601
-0.000665205
0.000924627
-0.000821615
0.00113015
-0.000981146
0.00135127
-0.00114054
0.0015846
-0.00129677
0.00182646
-0.00144718
0.00207306
-0.0015896
0.00232068
-0.0017224
0.00256576
-0.00184457
0.00280501
-0.00195567
-0.00205068
0.00303759
2.7351e-06
3.8655e-05
1.64243e-05
5.92401e-05
4.51958e-05
3.55668e-05
9.23238e-05
-2.40796e-05
0.00016043
-0.000113598
0.000251475
-0.000228062
0.000366657
-0.000363148
0.000506286
-0.000514733
0.000669679
-0.000678654
0.000855126
-0.000850651
0.00105994
-0.00102643
0.00128062
-0.00120183
0.00151307
-0.00137299
0.00175288
-0.00153657
0.00199557
-0.00168988
0.0022369
-0.00183092
0.00247299
-0.00195849
0.00270046
-0.00207204
0.0029165
-0.00217171
-0.00225481
0.00312063
4.00203e-06
3.4653e-05
2.16119e-05
4.16303e-05
5.71177e-05
6.09826e-08
0.000113887
-8.08484e-05
0.000194478
-0.000194189
0.000300551
-0.000334135
0.000432711
-0.000495308
0.000590366
-0.000672387
0.000771664
-0.000859953
0.000973557
-0.00105254
0.00119199
-0.00124486
0.00142219
-0.00143203
0.00165905
-0.00160985
0.00189749
-0.00177501
0.00213278
-0.00192516
0.00236079
-0.00205893
0.00257816
-0.00217587
0.00278237
-0.00227625
0.00297172
-0.00236106
-0.00242952
0.00314643
5.48653e-06
2.91664e-05
2.75758e-05
1.9541e-05
7.06176e-05
-4.29809e-05
0.000137936
-0.000148166
0.000231828
-0.000288081
0.000353386
-0.000455693
0.000502301
-0.000644223
0.000676752
-0.000846839
0.000873451
-0.00105665
0.00108786
-0.00126695
0.00131458
-0.00147157
0.00154779
-0.00166524
0.00178177
-0.00184383
0.0020113
-0.00200454
0.00223197
-0.00214584
0.00244039
-0.00226735
0.00263423
-0.0023697
0.00281218
-0.0024542
0.00297382
-0.00252271
-0.00257591
0.00312021
7.17988e-06
2.19865e-05
3.42651e-05
-7.54422e-06
8.5542e-05
-9.42578e-05
0.000164112
-0.000226736
0.000271759
-0.000395729
0.000408693
-0.000592627
0.00057335
-0.00080888
0.000762386
-0.00103588
0.000970905
-0.00126517
0.0011929
-0.00148895
0.00142185
-0.00170053
0.00165134
-0.00189472
0.00187556
-0.00206806
0.00208976
-0.00221874
0.00229041
-0.00234649
0.00247529
-0.00245223
0.00264336
-0.00253777
0.00279462
-0.00260546
0.00292986
-0.00265794
-0.00269691
0.00305086
9.07423e-06
1.29123e-05
4.16208e-05
-4.00908e-05
0.000101701
-0.000154338
0.000191969
-0.000317004
0.000313393
-0.000517154
0.000464951
-0.000744185
0.000643505
-0.000987433
0.000843979
-0.00123635
0.00105986
-0.00148105
0.0012839
-0.00171299
0.0015089
-0.00192552
0.00172838
-0.0021142
0.00193709
-0.00227677
0.00213128
-0.00241293
0.00230869
-0.0025239
0.00246848
-0.00261201
0.0026109
-0.0026802
0.00273711
-0.00273166
0.00284874
-0.00276957
-0.00279628
0.00294811
1.11608e-05
1.75156e-06
4.95694e-05
-7.84994e-05
0.00011886
-0.000223629
0.000220961
-0.000419105
0.000355687
-0.00065188
0.000520436
-0.000908934
0.000710238
-0.00117724
0.00091823
-0.00144434
0.00113647
-0.00169929
0.0013569
-0.00193342
0.00157221
-0.00214084
0.00177651
-0.00231849
0.00196561
-0.00246587
0.00213711
-0.00258444
0.00229023
-0.00267701
0.00242541
-0.0027472
0.00254404
-0.00279883
0.00264805
-0.00283567
0.00273961
-0.00286114
-0.00287788
0.00282121
1.34265e-05
-1.16749e-05
5.80154e-05
-0.000123088
0.000136724
-0.000302337
0.000250436
-0.000532817
0.000397452
-0.000798896
0.000573284
-0.00108477
0.000771002
-0.00137495
0.000982084
-0.00165543
0.00119756
-0.00191477
0.00140913
-0.00214499
0.00161001
-0.00234172
0.00179541
-0.0025039
0.0019626
-0.00263305
0.00211067
-0.0027325
0.00224018
-0.00280653
0.00235269
-0.00285971
0.00245035
-0.00289649
0.00253553
-0.00292085
0.00261057
-0.00293618
-0.00294516
0.00267786
1.58513e-05
-2.75262e-05
6.68337e-05
-0.000174071
0.000154933
-0.000390437
0.000279638
-0.000657522
0.000437387
-0.000956644
0.000621597
-0.00126898
0.000823417
-0.00157677
0.001033
-0.00186501
0.00124089
-0.00212267
0.0014392
-0.0023433
0.00162222
-0.00252474
0.00178664
-0.00266831
0.00193128
-0.0027777
0.00205667
-0.00285789
0.00216447
-0.00291433
0.00225702
-0.00295225
0.00233685
-0.00297633
0.00240646
-0.00299046
0.00246813
-0.00299785
-0.00300098
0.00252395
1.84053e-05
-4.59316e-05
7.58655e-05
-0.000231531
0.000173063
-0.000487634
0.000307728
-0.000792188
0.000474149
-0.00112307
0.000663576
-0.0014584
0.000865468
-0.00177866
0.00106915
-0.00206869
0.00126534
-0.00231885
0.00144711
-0.00252506
0.00161024
-0.00268787
0.00175304
-0.00281111
0.00187583
-0.00290049
0.0019803
-0.00296236
0.00206891
-0.00300294
0.0021444
-0.00302774
0.0022094
-0.00304133
0.00226632
-0.00304738
0.00231717
-0.0030487
-0.00304751
0.0023637
2.10484e-05
-6.698e-05
8.49193e-05
-0.000295402
0.000190635
-0.00059335
0.000333827
-0.000935379
0.000506443
-0.00129568
0.000697662
-0.00164962
0.000895668
-0.00197667
0.00108958
-0.0022626
0.00127086
-0.00250014
0.00143402
-0.00268822
0.00157651
-0.00283037
0.00169823
-0.00293283
0.00180074
-0.003003
0.00188659
-0.00304821
0.00195868
-0.00307503
0.00201985
-0.0030889
0.00207263
-0.00309412
0.00211916
-0.00309391
0.00216114
-0.00309068
-0.00308633
0.00219997
2.37302e-05
-9.07102e-05
9.37762e-05
-0.000365448
0.000207141
-0.000706714
0.000357067
-0.00108531
0.000533109
-0.00147172
0.000722651
-0.00183916
0.00091315
-0.00216717
0.00109413
-0.00244358
0.00125834
-0.00266435
0.00140195
-0.00283184
0.00152411
-0.00295252
0.00162606
-0.00303479
0.00171034
-0.00308728
0.00177999
-0.00311786
0.00183806
-0.0031331
0.00188729
-0.00313812
0.00192995
-0.00313678
0.00196785
-0.00313182
0.00200239
-0.00312522
-0.00311856
0.00203461
2.63921e-05
-0.000117102
0.0001022
-0.000441255
0.000222067
-0.000826581
0.000376652
-0.00123989
0.000553214
-0.00164829
0.000737778
-0.00202373
0.000917681
-0.00234707
0.00108342
-0.00260932
0.00122936
-0.00281029
0.00135343
-0.00295591
0.00145628
-0.00305537
0.00154024
-0.00311875
0.00160847
-0.00315551
0.00166421
-0.00317361
0.00171044
-0.00317933
0.00174965
-0.00317734
0.0017838
-0.00317092
0.00181437
-0.00316239
0.00184245
-0.0031533
-0.00314492
0.00186881
2.89691e-05
-0.000146071
0.000109947
-0.000522234
0.000234928
-0.000951562
0.000391906
-0.00139687
0.000566106
-0.00182248
0.000742731
-0.00220035
0.000909604
-0.00251395
0.00105864
-0.00275835
0.00118596
-0.00293761
0.00129117
-0.00306112
0.00137618
-0.00314037
0.00144408
-0.00318666
0.00149834
-0.00320977
0.00154219
-0.00321746
0.00157838
-0.00321552
0.00160907
-0.00320802
0.00163589
-0.00319774
0.00166002
-0.00318652
0.0016823
-0.00317557
-0.00316591
0.00170328
3.13935e-05
-0.000177465
0.000116783
-0.000607623
0.000245297
-0.00108008
0.000402319
-0.00155389
0.00057144
-0.00199161
0.000737633
-0.00236655
0.000889729
-0.00266604
0.00102133
-0.00288995
0.00113035
-0.00304663
0.00121784
-0.00314861
0.00128667
-0.0032092
0.00134041
-0.00324039
0.00138257
-0.00325192
0.0014162
-0.00325109
0.00144375
-0.00324306
0.00146702
-0.0032313
0.00148735
-0.00321807
0.00150565
-0.00320482
0.00152256
-0.00319247
-0.00318181
0.00153846
3.35972e-05
-0.000211062
0.000122491
-0.000696517
0.000252825
-0.00121041
0.00040757
-0.00170864
0.000569179
-0.00215321
0.000722971
-0.00252034
0.000859193
-0.00280226
0.00097326
-0.00300402
0.00106475
-0.00313812
0.0011359
-0.00321976
0.00119024
-0.00326354
0.00123152
-0.00328168
0.00126317
-0.00328357
0.00128792
-0.00327585
0.00130789
-0.00326302
0.00132455
-0.00324797
0.00133896
-0.00323248
0.00135183
-0.00321769
0.00136362
-0.00320427
-0.00319282
0.00137462
3.55158e-05
-0.000246578
0.000126887
-0.000787888
0.000257265
-0.00134079
0.000407531
-0.0018589
0.000559554
-0.00230524
0.000699511
-0.00266029
0.00081933
-0.00292208
0.000916231
-0.00310092
0.000991238
-0.00321313
0.0010475
-0.00327603
0.00108893
-0.00330496
0.00111926
-0.00331202
0.00114168
-0.00330598
0.00115859
-0.00329276
0.00117175
-0.00327618
0.00118235
-0.00325858
0.00119123
-0.00324136
0.00119891
-0.00322537
0.00120575
-0.00321111
-0.00319901
0.00121194
3.70946e-05
-0.000283673
0.00012983
-0.000880624
0.000258484
-0.00146944
0.000402271
-0.00200269
0.000543034
-0.002446
0.00066822
-0.00278548
0.000771571
-0.00302543
0.000851995
-0.00318134
0.000911715
-0.00327285
0.000954506
-0.00331882
0.000984423
-0.00333488
0.00100506
-0.00333266
0.00101926
-0.00332018
0.0010291
-0.0033026
0.00103601
-0.00328309
0.00104093
-0.0032635
0.00104451
-0.00324493
0.00104715
-0.00322801
0.00104912
-0.00321308
-0.00320045
0.00105056
3.82766e-05
-0.000321949
0.000131206
-0.000973553
0.000256425
-0.00159466
0.000391979
-0.00213824
0.000520203
-0.00257422
0.000630113
-0.00289539
0.000717279
-0.0031126
0.000782112
-0.00324618
0.000827764
-0.0033185
0.000858388
-0.00334944
0.000878008
-0.0033545
0.000889958
-0.00334461
0.00089673
-0.00332695
0.000900062
-0.00330593
0.000901102
-0.00328413
0.000900596
-0.003263
0.00089903
-0.00324337
0.000896721
-0.0032257
0.000893867
-0.00321022
-0.00319716
0.00089057
3.90255e-05
-0.000360975
0.000130966
-0.00106549
0.000251157
-0.00171485
0.000377007
-0.00226409
0.000491792
-0.00268901
0.00058628
-0.00298988
0.000657792
-0.00318411
0.000708014
-0.0032964
0.000740773
-0.00335126
0.000760388
-0.00336906
0.000770718
-0.00336483
0.000774777
-0.00334867
0.000774708
-0.00332688
0.000771937
-0.00330316
0.000767374
-0.00327956
0.000761596
-0.00325722
0.000754975
-0.00323675
0.000747759
-0.00321848
0.000740099
-0.00320256
-0.00318913
0.00073207
3.93129e-05
-0.000400288
0.0001291
-0.00115528
0.000242825
-0.00182858
0.000357788
-0.00237906
0.00045857
-0.00278979
0.000537769
-0.00306908
0.000594312
-0.00324066
0.000630923
-0.00333301
0.000651869
-0.0033722
0.00066147
-0.00337866
0.00066333
-0.00336669
0.000660116
-0.00334546
0.000653637
-0.00332041
0.000645047
-0.00329457
0.000635056
-0.00326957
0.000624105
-0.00324627
0.000612482
-0.00322512
0.00060038
-0.00320638
0.000587919
-0.0031901
-0.00317637
0.000575157
3.91223e-05
-0.00043941
0.000125642
-0.0012418
0.00023164
-0.00193458
0.000334811
-0.00248223
0.000421311
-0.00287629
0.000485558
-0.00313332
0.000527903
-0.003283
0.000551869
-0.00335697
0.000561968
-0.0033823
0.000562391
-0.00337908
0.000556432
-0.00336073
0.000546414
-0.00333544
0.000533839
-0.00330783
0.000519625
-0.00328036
0.00050432
-0.00325427
0.000488258
-0.00323021
0.00047166
-0.00320853
0.00045468
-0.0031894
0.000437418
-0.00317284
-0.00315887
0.000419922
3.84488e-05
-0.000477859
0.000120659
-0.00132401
0.000217863
-0.00203178
0.000308595
-0.00257296
0.000380766
-0.00294846
0.000430539
-0.0031831
0.000459485
-0.00331195
0.000471708
-0.0033692
0.000471801
-0.0033824
0.000463732
-0.00337101
0.000450466
-0.00334746
0.000433992
-0.00331896
0.000415543
-0.00328938
0.00039584
-0.00326065
0.000375295
-0.00323372
0.000354158
-0.00320907
0.0003326
-0.00318697
0.000310744
-0.00316755
0.000288678
-0.00315077
-0.00313664
0.000266448
3.72988e-05
-0.000515158
0.000114252
-0.00140096
0.000201786
-0.00211931
0.000279661
-0.00265084
0.000337638
-0.00300644
0.000373506
-0.00321897
0.000389843
-0.00332828
0.000391141
-0.0033705
0.000381942
-0.0033732
0.000365941
-0.00335501
0.00034576
-0.00332728
0.000323087
-0.00329629
0.000298919
-0.00326521
0.000273815
-0.00323555
0.000248078
-0.00320798
0.000221889
-0.00318288
0.000195377
-0.00316046
0.000168645
-0.00314081
0.000141775
-0.0031239
-0.00310968
0.000114813
3.56882e-05
-0.000550846
0.000106543
-0.00147182
0.000183719
-0.00219649
0.000248516
-0.00271563
0.000292574
-0.0030505
0.000315152
-0.00324154
0.000319633
-0.00333276
0.000310734
-0.0033616
0.000292848
-0.00335531
0.000269358
-0.00333152
0.000242561
-0.00330048
0.000213872
-0.0032676
0.000184092
-0.00323544
0.000153645
-0.0032051
0.000122745
-0.00317709
9.15173e-05
-0.00315165
6.00555e-05
-0.00312899
2.84476e-05
-0.00310921
-3.22658e-06
-0.00309223
-0.00307799
-3.49152e-05
3.36417e-05
-0.000584487
9.76697e-05
-0.00153585
0.000163975
-0.00226279
0.000215639
-0.0027673
0.000246152
-0.00308101
0.000256072
-0.00325146
0.000249403
-0.00332609
0.000230945
-0.00334314
0.000204873
-0.00332924
0.000174245
-0.00330089
0.000141055
-0.00326729
0.000106478
-0.00323302
7.11543e-05
-0.00320011
3.53978e-05
-0.00316935
-6.46583e-07
-0.00314104
-3.69046e-05
-0.00311539
-7.33129e-05
-0.00309259
-0.000109797
-0.00307272
-0.000146273
-0.00305575
-0.00304158
-0.000182677
3.11909e-05
-0.000615678
8.77811e-05
-0.00159244
0.000142864
-0.00231788
0.000181477
-0.00280591
0.000198886
-0.00309842
0.000196779
-0.00324936
0.000179607
-0.00330892
0.000152145
-0.00331568
0.0001183
-0.00329539
8.08097e-05
-0.0032634
4.13867e-05
-0.00322787
1.00677e-06
-0.00319264
-3.98237e-05
-0.00315928
-8.08735e-05
-0.0031283
-0.000122056
-0.00309986
-0.000163341
-0.00307411
-0.000204695
-0.00305123
-0.000246055
-0.00303136
-0.000287328
-0.00301448
-0.00300048
-0.000328435
2.83731e-05
-0.000644052
7.70307e-05
-0.0016411
0.000120684
-0.00236153
0.000146435
-0.00283166
0.00015123
-0.00310321
0.000137708
-0.00323583
0.000110623
-0.00328184
7.46354e-05
-0.00327969
3.33587e-05
-0.00325412
-1.07817e-05
-0.00321926
-5.63232e-05
-0.00318233
-0.000102459
-0.00314651
-0.000148784
-0.00311296
-0.000195131
-0.00308195
-0.000241458
-0.00305353
-0.000287775
-0.00302779
-0.000334081
-0.00300493
-0.000380325
-0.00298512
-0.000426401
-0.0029684
-0.00295467
-0.000472204
2.52301e-05
-0.000669282
6.55733e-05
-0.00168144
9.77162e-05
-0.00239367
0.000110885
-0.00284483
0.00010358
-0.00309591
7.92318e-05
-0.00321149
4.27688e-05
-0.00324537
-1.32903e-06
-0.00323559
-4.97558e-05
-0.00320569
-0.000100382
-0.00316864
-0.000151965
-0.00313075
-0.000203838
-0.00309464
-0.000255673
-0.00306112
-0.000307344
-0.00303028
-0.000358841
-0.00300203
-0.000410212
-0.00297642
-0.000461492
-0.00295365
-0.00051265
-0.00293396
-0.000563563
-0.00291749
-0.00290415
-0.000614085
2.18065e-05
-0.000691088
5.35615e-05
-0.00171319
7.42245e-05
-0.00241434
7.51571e-05
-0.00284576
5.62829e-05
-0.00307704
2.167e-05
-0.00317687
-2.36844e-05
-0.00320002
-7.55282e-05
-0.00318375
-0.000130868
-0.00315035
-0.00018785
-0.00311166
-0.000245427
-0.00307317
-0.000303044
-0.00303702
-0.000360429
-0.00300374
-0.000417476
-0.00297323
-0.000474196
-0.00294531
-0.000530666
-0.00291995
-0.000586967
-0.00289735
-0.000643099
-0.00287783
-0.000698927
-0.00286166
-0.00284884
-0.000754242
1.81494e-05
-0.000709238
4.11439e-05
-0.00173619
5.04536e-05
-0.00242365
3.95513e-05
-0.00283486
9.64464e-06
-0.00304713
-3.46976e-05
-0.00313253
-8.84962e-05
-0.00314622
-0.000147761
-0.00312448
-0.000209806
-0.0030883
-0.000273036
-0.00304843
-0.000336576
-0.00300963
-0.000399964
-0.00297363
-0.000462964
-0.00294074
-0.000525474
-0.00291072
-0.000587503
-0.00288328
-0.000649149
-0.00285831
-0.000710542
-0.00283595
-0.000771733
-0.00281664
-0.000832582
-0.00280081
-0.00278864
-0.000892783
1.43067e-05
-0.000723544
2.84627e-05
-0.00175034
2.66289e-05
-0.00242181
4.33524e-06
-0.00281257
-3.60648e-05
-0.00300673
-8.96229e-05
-0.00307897
-0.000151448
-0.0030844
-0.000217832
-0.0030581
-0.000286392
-0.00301974
-0.000355769
-0.00297905
-0.000425245
-0.00294015
-0.000494442
-0.00290443
-0.000563149
-0.00287203
-0.00063125
-0.00284262
-0.000698727
-0.00281581
-0.000765672
-0.00279136
-0.000832258
-0.00276937
-0.000898605
-0.00275029
-0.000964582
-0.00273484
-0.00272348
-0.00102974
1.03268e-05
-0.000733871
1.56531e-05
-0.00175567
2.95676e-06
-0.00240912
-3.02516e-05
-0.00277936
-8.06054e-05
-0.00295637
-0.000142883
-0.0030167
-0.000212336
-0.00301494
-0.00028555
-0.00298488
-0.00036043
-0.00294486
-0.000435842
-0.00290364
-0.000511214
-0.00286478
-0.000586251
-0.0028294
-0.00066077
-0.00279751
-0.000734635
-0.00276876
-0.000807776
-0.00274267
-0.000880241
-0.0027189
-0.000952213
-0.00269739
-0.00102389
-0.00267861
-0.00109518
-0.00266355
-0.00265314
-0.00116551
6.25712e-06
-0.000740128
2.84145e-06
-0.00175225
-2.03761e-05
-0.0023859
-6.39961e-05
-0.00273574
-0.000123765
-0.00289661
-0.000194277
-0.00294618
-0.000270966
-0.00293825
-0.000350714
-0.00290514
-0.000431704
-0.00286387
-0.000513008
-0.00282233
-0.0005942
-0.00278359
-0.000675075
-0.00274852
-0.000755497
-0.00271709
-0.000835325
-0.00268893
-0.000914435
-0.00266356
-0.000992794
-0.00264054
-0.00107056
-0.00261963
-0.00114803
-0.00260114
-0.00122518
-0.0025864
-0.00257667
-0.00130166
2.14387e-06
-0.000742272
-9.85568e-06
-0.00174026
-4.32026e-05
-0.00235255
-9.67111e-05
-0.00268223
-0.000165355
-0.00282796
-0.000243622
-0.00286792
-0.000327153
-0.00285472
-0.000413124
-0.00281917
-0.000499977
-0.00277702
-0.000586982
-0.00273533
-0.000673855
-0.00269672
-0.000760502
-0.00266187
-0.000846868
-0.00263072
-0.000932854
-0.00260294
-0.00101831
-0.0025781
-0.00110314
-0.00255571
-0.00118744
-0.00253532
-0.00127163
-0.00251695
-0.00135592
-0.00250211
-0.00249166
-0.00144093
-1.96959e-06
-0.000740302
-2.23333e-05
-0.00171989
-6.5377e-05
-0.00230951
-0.000128236
-0.00261937
-0.000205218
-0.00275098
-0.000290758
-0.00278238
-0.000380725
-0.00276476
-0.000472574
-0.00272732
-0.000564988
-0.00268461
-0.00065742
-0.0026429
-0.000749731
-0.00260441
-0.000841961
-0.00256964
-0.000934194
-0.00253849
-0.00102647
-0.00251067
-0.00111873
-0.00248583
-0.00121088
-0.00246357
-0.00130292
-0.00244328
-0.00139523
-0.00242464
-0.00148841
-0.00240893
-0.00239486
-0.00158521
-6.04347e-06
-0.000734259
-3.44996e-05
-0.00169144
-8.67762e-05
-0.00225723
-0.000158441
-0.00254771
-0.000243224
-0.0026662
-0.000335557
-0.00269004
-0.000431537
-0.00266878
-0.000528879
-0.00262997
-0.000626478
-0.00258701
-0.00072394
-0.00254543
-0.000821251
-0.0025071
-0.000918587
-0.00247231
-0.00101622
-0.00244086
-0.00111444
-0.00241244
-0.00121355
-0.00238672
-0.00131375
-0.00236337
-0.00141516
-0.00234188
-0.00151837
-0.00232143
-0.00162574
-0.00230157
-0.00229418
-0.00172642
-1.003e-05
-0.000724229
-4.62569e-05
-0.00165521
-0.000107278
-0.00219621
-0.000187201
-0.00246778
-0.00027926
-0.00257414
-0.000377914
-0.00259139
-0.000479482
-0.00256721
-0.00058191
-0.00252755
-0.000684266
-0.00248465
-0.000786259