/*--------------------------------*- C++ -*----------------------------------*\
  =========                 |
  \\      /  F ield         | OpenFOAM: The Open Source CFD Toolbox
   \\    /   O peration     | Website:  https://openfoam.org
    \\  /    A nd           | Version:  6.0
     \\/     M anipulation  |
\*---------------------------------------------------------------------------*/
FoamFile
{
    version     2.0;
    format      ascii;
    class       volVectorField;
    location    "7.3";
    object      U;
}
// * * * * * * * * * * * * * * * * * * * * * * * * * * * * * * * * * * * * * //

dimensions      [0 1 -1 0 0 0 0];

internalField   nonuniform List<vector> 
8000
(
(-0.00135574 0.00143132 -4.27676e-21)
(-0.00699907 0.00338998 2.28722e-20)
(-0.0171002 0.00470388 -2.78888e-20)
(-0.0293092 0.00558021 2.12668e-20)
(-0.0425077 0.00614803 1.03968e-20)
(-0.0561252 0.00649694 -3.12293e-20)
(-0.0697666 0.0066928 -2.77611e-21)
(-0.083179 0.00678415 -1.00829e-21)
(-0.0962172 0.00680698 -1.63873e-20)
(-0.108808 0.00678828 -8.92902e-21)
(-0.120924 0.00674847 6.6111e-21)
(-0.132574 0.00670318 2.54079e-20)
(-0.143783 0.0066645 -1.82821e-21)
(-0.15459 0.00664182 2.79969e-21)
(-0.165049 0.00664222 -2.58815e-20)
(-0.175244 0.00667044 1.60066e-20)
(-0.185238 0.00672988 -2.30968e-20)
(-0.194809 0.00682657 3.50012e-20)
(-0.203659 0.00696665 -3.82687e-23)
(-0.213854 0.00711556 7.83236e-21)
(-0.00154249 0.00437656 1.4199e-20)
(-0.00734177 0.010395 -7.26685e-20)
(-0.0173903 0.0144577 -5.03408e-20)
(-0.0294364 0.0171841 -3.42763e-20)
(-0.042407 0.0189636 -4.42105e-20)
(-0.0557535 0.0200685 9.64171e-21)
(-0.0690943 0.0206998 -5.12383e-20)
(-0.0821838 0.021006 -1.16175e-20)
(-0.0948808 0.0210973 3.52144e-21)
(-0.107113 0.0210562 3.85049e-20)
(-0.118855 0.0209451 -4.22578e-20)
(-0.130113 0.0208116 5.89671e-20)
(-0.140913 0.0206924 -4.43415e-20)
(-0.151293 0.0206161 -5.28537e-20)
(-0.161304 0.0206043 -7.33149e-20)
(-0.171034 0.0206721 4.66001e-20)
(-0.180545 0.02083 -1.53946e-20)
(-0.189619 0.0210972 -5.58377e-20)
(-0.19794 0.0214936 5.28289e-20)
(-0.207579 0.0219157 -4.01873e-20)
(-0.00190611 0.00716659 1.38929e-19)
(-0.00801205 0.0170718 7.22114e-20)
(-0.0179608 0.0237992 8.13074e-20)
(-0.0296906 0.0283395 6.7973e-21)
(-0.0422157 0.0313205 4.50392e-20)
(-0.0550305 0.033184 5.6342e-20)
(-0.0677796 0.0342584 -1.02584e-19)
(-0.080233 0.0347872 -5.45709e-20)
(-0.092257 0.0349522 -7.14668e-20)
(-0.103783 0.03489 7.62181e-20)
(-0.114785 0.0347042 -5.84274e-20)
(-0.12527 0.0344741 -7.56494e-20)
(-0.135261 0.0342615 -2.76446e-20)
(-0.144797 0.0341149 2.62877e-20)
(-0.153929 0.0340717 -7.5998e-21)
(-0.162741 0.0341581 1.0415e-20)
(-0.171304 0.0343935 1.23942e-19)
(-0.1794 0.0348118 -1.71164e-20)
(-0.186686 0.0354509 -1.27031e-19)
(-0.195234 0.0361386 1.71517e-19)
(-0.00242353 0.00970891 4.86136e-20)
(-0.00897308 0.0232213 -6.8384e-20)
(-0.018786 0.0324744 -1.72947e-20)
(-0.0300664 0.0387661 3.22637e-20)
(-0.0419521 0.0429278 9.17518e-20)
(-0.0539986 0.045551 2.01313e-19)
(-0.0658893 0.0470783 1.97213e-19)
(-0.0774165 0.0478409 1.65934e-20)
(-0.0884585 0.0480871 1.21639e-19)
(-0.0989518 0.0480051 1.86731e-19)
(-0.108873 0.0477385 -1.49921e-19)
(-0.118227 0.0473983 2.21852e-19)
(-0.127039 0.0470716 -5.10935e-20)
(-0.135342 0.0468279 1.24608e-20)
(-0.143189 0.0467219 5.34666e-20)
(-0.150666 0.0467933 7.15884e-20)
(-0.157849 0.0470724 -1.12067e-19)
(-0.164528 0.047611 -9.41758e-20)
(-0.170318 0.0484721 -1.67651e-19)
(-0.177289 0.0494157 2.49072e-19)
(-0.00306315 0.0119276 -2.53065e-20)
(-0.0101738 0.028675 -2.60172e-19)
(-0.0198301 0.0402622 -7.71799e-20)
(-0.0305569 0.0482135 -1.88212e-19)
(-0.0416428 0.0535203 7.11508e-20)
(-0.0527193 0.0568978 -1.12579e-19)
(-0.0635189 0.0588862 3.89371e-20)
(-0.0738636 0.0598935 -2.39564e-19)
(-0.083648 0.0602285 1.26657e-19)
(-0.0928168 0.0601271 -1.51397e-19)
(-0.10135 0.059771 -1.35129e-19)
(-0.109252 0.059302 -1.52125e-19)
(-0.116547 0.0588331 1.38514e-19)
(-0.12327 0.0584559 -1.25071e-19)
(-0.129471 0.0582448 1.74366e-19)
(-0.135237 0.0582558 5.08592e-20)
(-0.140657 0.0585333 1.26468e-19)
(-0.145531 0.0591515 5.58776e-20)
(-0.149424 0.0602087 -2.21127e-19)
(-0.154398 0.0614015 3.68135e-19)
(-0.00378793 0.013768 1.12414e-19)
(-0.011554 0.0333044 8.37956e-21)
(-0.0210507 0.0469851 4.63626e-20)
(-0.0311543 0.0564721 1.61795e-19)
(-0.0413207 0.0628683 -2.47045e-20)
(-0.0512684 0.0669822 2.63554e-19)
(-0.0607874 0.0694325 1.17453e-19)
(-0.0697359 0.0706912 9.86437e-21)
(-0.0780294 0.0711196 3.03326e-19)
(-0.0856239 0.0709963 1.00019e-19)
(-0.0925045 0.0705382 4.75907e-20)
(-0.0986782 0.0699168 1.50987e-19)
(-0.104168 0.0692705 1.39057e-19)
(-0.10901 0.0687146 2.5527e-19)
(-0.113253 0.0683454 -2.28286e-19)
(-0.116987 0.068239 3.25475e-19)
(-0.120315 0.0684585 5.49221e-21)
(-0.123056 0.0691063 -4.1851e-19)
(-0.124721 0.0703299 5.44902e-19)
(-0.127349 0.0717715 2.31751e-19)
(-0.00455909 0.0151995 -6.61636e-20)
(-0.0130493 0.0370269 -1.20711e-19)
(-0.0224024 0.0525173 -2.51048e-19)
(-0.0318506 0.063382 -7.50426e-21)
(-0.0410231 0.0707855 4.31561e-20)
(-0.0497312 0.0755993 -3.21415e-19)
(-0.0578289 0.0784989 -2.38996e-19)
(-0.0652164 0.0800066 -3.40747e-20)
(-0.0718346 0.0805266 -3.03707e-19)
(-0.0776547 0.080374 -2.1119e-19)
(-0.0826695 0.0797967 -6.16623e-20)
(-0.0868894 0.0789934 -1.99239e-19)
(-0.090339 0.0781276 -2.95662e-21)
(-0.0930536 0.0773384 -2.66571e-19)
(-0.0950836 0.0767467 1.13034e-19)
(-0.0965224 0.0764534 -1.28815e-19)
(-0.0974891 0.0765456 9.9982e-20)
(-0.0978297 0.0771623 -1.26061e-19)
(-0.0970033 0.0785174 -3.638e-19)
(-0.0970109 0.0802159 -1.11787e-19)
(-0.00533998 0.0162162 -2.47641e-20)
(-0.0145977 0.039809 -2.68202e-20)
(-0.0238408 0.0567896 2.10735e-19)
(-0.0326383 0.0688387 -3.43449e-19)
(-0.0407879 0.0771371 5.03296e-20)
(-0.0481953 0.0825892 -1.98938e-19)
(-0.0547824 0.0859065 9.3962e-20)
(-0.0604959 0.0876467 4.24045e-19)
(-0.0653072 0.0882464 -2.67668e-20)
(-0.0692061 0.0880496 -3.17986e-19)
(-0.0721962 0.0873298 5.76167e-20)
(-0.0742935 0.0863093 1.09892e-20)
(-0.0755245 0.0851744 -6.67138e-20)
(-0.0759256 0.0840878 5.68373e-21)
(-0.0755478 0.0831968 5.84298e-19)
(-0.0744874 0.0826315 -8.27023e-20)
(-0.0728817 0.0825104 -1.63633e-19)
(-0.0706117 0.0830189 -2.95536e-19)
(-0.067094 0.0844608 3.01126e-19)
(-0.0642755 0.0864307 1.31588e-19)
(-0.00609953 0.0168361 1.23717e-19)
(-0.0161449 0.0416652 -1.62272e-19)
(-0.0253264 0.0597903 2.29259e-19)
(-0.0335104 0.0727972 2.30877e-19)
(-0.0406496 0.0818449 2.12773e-19)
(-0.0467416 0.0878442 4.32005e-19)
(-0.0517778 0.0915237 2.80005e-19)
(-0.0557552 0.0934616 -6.02784e-19)
(-0.0586795 0.0941159 3.09011e-19)
(-0.0605632 0.0938507 2.4342e-19)
(-0.0614242 0.0929587 -3.33388e-21)
(-0.0612857 0.0916802 2.74384e-19)
(-0.0601776 0.0902202 2.15368e-19)
(-0.0581371 0.0887631 -1.16529e-19)
(-0.0552149 0.0874825 3.98022e-19)
(-0.0515091 0.0865417 -4.93749e-19)
(-0.0471742 0.0860986 1.98841e-19)
(-0.0421335 0.0863978 2.56846e-19)
(-0.035776 0.0878611 -6.03953e-20)
(-0.0299867 0.0901159 5.21943e-19)
(-0.00681511 0.0170975 2.4994e-19)
(-0.0176484 0.0426542 1.2986e-20)
(-0.0268266 0.0615629 -8.95282e-20)
(-0.0344591 0.0752715 -9.43892e-20)
(-0.0406333 0.0848895 -4.38017e-19)
(-0.0454333 0.091314 6.19748e-20)
(-0.0489196 0.0952734 1.76236e-19)
(-0.0511416 0.0973534 -8.48168e-20)
(-0.0521434 0.0980223 7.0103e-20)
(-0.051964 0.0976554 -1.83562e-20)
(-0.0506384 0.0965561 -9.20438e-20)
(-0.0481997 0.0949759 8.74572e-20)
(-0.0446818 0.0931324 -3.83902e-19)
(-0.040122 0.0912264 3.67842e-19)
(-0.0345695 0.0894555 -3.20902e-19)
(-0.0281206 0.0880174 9.89147e-20)
(-0.0209444 0.0871165 2.2745e-19)
(-0.01301 0.0870717 -4.69655e-20)
(-0.00369912 0.0884577 -1.58093e-19)
(0.00515922 0.090995 -1.07785e-19)
(-0.00747439 0.017055 -3.11807e-19)
(-0.019081 0.0428709 -2.0201e-20)
(-0.028317 0.0621993 6.55988e-20)
(-0.0354728 0.0763308 1.68332e-19)
(-0.0407473 0.0863105 -2.37642e-19)
(-0.0443028 0.0930076 -2.07515e-19)
(-0.046267 0.0971382 4.852e-19)
(-0.0467431 0.0992841 -2.67916e-19)
(-0.0458162 0.0999142 -1.73271e-19)
(-0.0435553 0.0994051 -2.49566e-19)
(-0.0400157 0.0980627 1.65622e-19)
(-0.0352426 0.0961409 -3.81775e-21)
(-0.0292748 0.0938614 -3.10412e-19)
(-0.0221494 0.0914334 -5.11542e-19)
(-0.0139109 0.0890714 3.90051e-19)
(-0.00465019 0.0870044 -3.18512e-19)
(0.00545501 0.0854866 4.52341e-19)
(0.0163894 0.0849257 -1.26618e-19)
(0.0287574 0.0860899 2.7092e-19)
(0.0407595 0.0888752 -9.07489e-19)
(-0.00807588 0.0167736 -6.32508e-19)
(-0.0204307 0.0424364 4.13931e-19)
(-0.0297799 0.0618301 5.62365e-20)
(-0.0365322 0.0760925 1.087e-20)
(-0.0409736 0.086202 -2.54562e-19)
(-0.0433364 0.0929938 3.74356e-19)
(-0.0438118 0.0971641 4.11068e-20)
(-0.0425571 0.0992826 -7.70077e-20)
(-0.0397 0.0998101 -2.47231e-19)
(-0.035342 0.099117 2.67647e-19)
(-0.0295615 0.0975027 6.81024e-19)
(-0.022418 0.0952145 -1.50471e-19)
(-0.0139565 0.0924681 3.41551e-19)
(-0.00421348 0.0894695 -4.05679e-19)
(0.00677293 0.0864383 -3.9085e-19)
(0.0189218 0.0836245 2.35129e-19)
(0.0320538 0.0813279 3.92393e-19)
(0.0461114 0.0800538 -1.27177e-18)
(0.0616656 0.0808062 1.48441e-19)
(0.0768976 0.0837595 2.00892e-19)
(-0.00862815 0.0163225 4.6853e-19)
(-0.0216992 0.0414866 1.53783e-19)
(-0.0312002 0.0606118 7.99322e-19)
(-0.0376026 0.0747106 4.09757e-20)
(-0.0412571 0.0847047 -8.88604e-20)
(-0.0424578 0.0913965 -4.22855e-19)
(-0.0414557 0.0954593 3.59562e-19)
(-0.03846 0.0974464 6.45368e-19)
(-0.0336413 0.0978051 4.31233e-19)
(-0.0271347 0.096893 3.11264e-19)
(-0.0190437 0.0949962 2.68926e-19)
(-0.00944391 0.0923474 -4.84906e-19)
(0.00161105 0.0891458 -1.53341e-19)
(0.0140841 0.0855812 -1.12523e-19)
(0.0279435 0.0818621 1.21195e-18)
(0.0431203 0.0782408 -2.89395e-21)
(0.0594388 0.0750466 -3.04775e-19)
(0.0768045 0.0728772 -9.83455e-20)
(0.0957436 0.0730079 8.7805e-19)
(0.114352 0.0760101 1.09366e-19)
(-0.00914762 0.0157691 -2.33064e-20)
(-0.0228967 0.0401588 -4.41953e-19)
(-0.0325593 0.0587128 -6.56269e-19)
(-0.0386253 0.0723635 -1.82206e-19)
(-0.0414936 0.0819958 1.00524e-19)
(-0.0415127 0.0883869 2.16333e-20)
(-0.0389881 0.0921901 5.74678e-19)
(-0.0341778 0.093941 -7.13033e-19)
(-0.0272934 0.094071 -2.713e-19)
(-0.0185027 0.0929222 -5.4792e-19)
(-0.00793443 0.0907633 -4.6812e-19)
(0.00431738 0.0878069 -4.15128e-19)
(0.0181876 0.0842284 1.0374e-19)
(0.033634 0.0801894 -1.35105e-19)
(0.0506262 0.0758694 5.83384e-19)
(0.0691034 0.0714983 -3.19703e-19)
(0.0888923 0.067404 -1.01055e-18)
(0.109863 0.0642488 -2.06784e-19)
(0.132496 0.063594 5.01704e-19)
(0.15474 0.066528 -4.33078e-19)
(-0.00965506 0.0151727 -7.47373e-20)
(-0.0240353 0.0385804 5.3962e-19)
(-0.0338257 0.0562991 -6.8729e-19)
(-0.0395079 0.069239 1.59046e-19)
(-0.041518 0.0782754 -3.26454e-19)
(-0.0402536 0.0841734 7.26511e-19)
(-0.0360689 0.0875722 -5.1936e-19)
(-0.0292655 0.0889928 5.94702e-19)
(-0.0200912 0.0888521 -5.63298e-19)
(-0.00874391 0.0874766 2.41339e-19)
(0.00462361 0.0851182 -1.16801e-19)
(0.0198973 0.0819688 -2.94044e-19)
(0.0369951 0.0781776 -3.64688e-19)
(0.0558604 0.0738719 3.64922e-19)
(0.0764514 0.069188 -3.06568e-19)
(0.0987007 0.0643082 -6.74731e-19)
(0.122423 0.0595176 7.04508e-19)
(0.147442 0.0554874 -9.01999e-19)
(0.174208 0.0540402 4.08661e-19)
(0.2005 0.0568803 1.67613e-20)
(-0.0101711 0.01458 -6.75331e-19)
(-0.0251196 0.0368577 -7.27449e-19)
(-0.0349449 0.0535207 8.39632e-20)
(-0.0401131 0.0655205 -6.99053e-19)
(-0.0410941 0.0737532 -6.1486e-20)
(-0.0383304 0.0789882 -5.13658e-19)
(-0.0322191 0.0818597 -1.17657e-19)
(-0.0230981 0.0828797 -3.43725e-19)
(-0.0112453 0.0824545 3.96145e-21)
(0.00311635 0.0808994 -1.50087e-19)
(0.0198115 0.0784537 1.15564e-20)
(0.0387032 0.075294 -4.35308e-19)
(0.0596842 0.0715477 4.82908e-19)
(0.0826673 0.0673106 -6.84188e-19)
(0.107576 0.0626726 2.44665e-19)
(0.134307 0.0577521 1.03105e-20)
(0.16263 0.0527508 -3.90816e-19)
(0.192291 0.0482693 9.76988e-19)
(0.223719 0.0463131 -2.32285e-19)
(0.254623 0.0492586 -1.51727e-19)
(-0.0107112 0.014021 7.56755e-19)
(-0.0261376 0.0350683 4.07986e-19)
(-0.0358296 0.0505011 3.78901e-19)
(-0.0402508 0.061374 5.65314e-20)
(-0.0399082 0.0686349 5.11323e-19)
(-0.0352878 0.0730741 7.36187e-19)
(-0.026823 0.0753315 6.01499e-19)
(-0.0148807 0.0759175 5.45137e-20)
(0.000237998 0.0752335 4.40924e-19)
(0.0182894 0.0735901 6.81186e-19)
(0.0390755 0.0712213 -1.76275e-19)
(0.0624305 0.0682979 2.97062e-19)
(0.0882072 0.0649375 2.39649e-19)
(0.116265 0.0612169 2.45008e-19)
(0.146456 0.0571905 1.45832e-18)
(0.178597 0.0529147 -5.47443e-19)
(0.212366 0.0484855 -3.32621e-20)
(0.247364 0.0443466 6.43521e-19)
(0.283989 0.0425528 -3.66365e-19)
(0.320146 0.0461835 1.80106e-19)
(-0.0112808 0.0135076 -6.10675e-19)
(-0.0270514 0.0332558 3.84947e-20)
(-0.0363512 0.0473296 -4.86552e-19)
(-0.0396723 0.0569387 -6.30283e-20)
(-0.0375693 0.0631101 3.55326e-19)
(-0.0305719 0.0666713 -1.0579e-18)
(-0.0191453 0.0682777 -1.10685e-21)
(-0.00367933 0.0684454 4.92114e-19)
(0.0155059 0.0675775 4.61524e-19)
(0.0381461 0.065986 -2.03778e-19)
(0.064015 0.0639086 6.72591e-20)
(0.0929047 0.0615208 1.55605e-19)
(0.124606 0.0589459 -7.37724e-20)
(0.158889 0.0562627 -8.32295e-19)
(0.195489 0.0535161 2.10408e-19)
(0.234082 0.0507291 5.85941e-19)
(0.274182 0.0479057 -8.37685e-19)
(0.315167 0.0452795 4.08572e-19)
(0.357332 0.044815 1.10616e-19)
(0.399226 0.050386 5.58294e-19)
(-0.0118707 0.0130334 -8.93046e-20)
(-0.0277904 0.0314294 -4.26359e-19)
(-0.0363345 0.0440576 1.96195e-19)
(-0.03807 0.0523205 9.99188e-22)
(-0.0336156 0.0573442 -8.52148e-19)
(-0.023548 0.0600063 1.33269e-19)
(-0.00836328 0.0609864 -2.51523e-20)
(0.0115264 0.0608118 1.71477e-19)
(0.0357793 0.0598919 -7.84935e-19)
(0.0641022 0.0585445 -5.53884e-20)
(0.0962252 0.0570159 -1.85089e-19)
(0.131875 0.0554949 1.63765e-19)
(0.17075 0.054124 5.56424e-19)
(0.212495 0.0530074 -8.58564e-20)
(0.256678 0.0522207 3.38942e-20)
(0.302759 0.0518138 2.20615e-19)
(0.349992 0.0517826 -5.50119e-20)
(0.397389 0.0522368 4.53656e-19)
(0.444906 0.0551157 -2.59808e-19)
(0.491982 0.0652596 -4.09582e-19)
(-0.0124549 0.0125759 8.33711e-20)
(-0.0282474 0.0295666 2.073e-20)
(-0.0355571 0.0407008 1.70696e-19)
(-0.0350832 0.0475905 4.17476e-19)
(-0.0275298 0.051473 2.3398e-19)
(-0.013529 0.0532844 2.42025e-20)
(0.00638594 0.0537336 -2.78431e-19)
(0.0317715 0.0533614 7.15141e-20)
(0.062249 0.0525838 3.75309e-19)
(0.0974732 0.0517232 -6.35922e-19)
(0.1371 0.0510313 4.80055e-19)
(0.180759 0.0507065 -3.62158e-19)
(0.228023 0.0509089 3.08073e-19)
(0.27839 0.0517749 -6.66032e-19)
(0.331259 0.0534354 7.35674e-19)
(0.385903 0.0560287 -7.88091e-19)
(0.441351 0.0596844 -2.06479e-19)
(0.496266 0.0647132 6.50857e-19)
(0.549751 0.0734777 -2.18618e-19)
(0.599607 0.0912471 1.00896e-19)
(-0.0129894 0.0121007 -6.28081e-20)
(-0.0282785 0.027621 5.93029e-19)
(-0.0337534 0.0372448 -2.64883e-21)
(-0.0303082 0.0427894 -3.67853e-19)
(-0.0187594 0.0456046 -2.4665e-19)
(0.00018986 0.0466881 4.52176e-19)
(0.0259511 0.0467784 -1.79002e-19)
(0.0580248 0.0464279 -2.25089e-20)
(0.0959602 0.0460537 3.72595e-19)
(0.139315 0.0459723 -4.62771e-19)
(0.187617 0.0464247 5.09157e-20)
(0.240342 0.0475952 -6.02538e-19)
(0.29689 0.0496288 3.17965e-19)
(0.356589 0.0526504 -9.10969e-19)
(0.418699 0.0567907 1.45437e-18)
(0.482435 0.0622201 -2.67152e-19)
(0.546994 0.0692107 2.79073e-19)
(0.611725 0.0785142 -7.23058e-19)
(0.676707 0.0928146 6.54907e-21)
(0.733044 0.111809 7.92443e-19)
(-0.0134132 0.0115671 -1.89863e-19)
(-0.0277061 0.0255317 1.63821e-19)
(-0.0306212 0.0336564 -6.04341e-19)
(-0.0233121 0.037937 8.93589e-19)
(-0.00674014 0.0398269 -6.44752e-19)
(0.0182936 0.0403824 3.3297e-20)
(0.0511117 0.0403669 -6.94291e-19)
(0.0911118 0.0403366 4.96308e-19)
(0.137711 0.0406975 -7.09166e-20)
(0.190294 0.0417417 -4.38003e-19)
(0.248182 0.0436728 -2.55888e-19)
(0.310605 0.0466234 2.70242e-19)
(0.376708 0.050671 1.79091e-19)
(0.445566 0.0558524 -7.92789e-19)
(0.516219 0.0621793 2.86032e-19)
(0.587723 0.0696514 -4.22815e-19)
(0.659213 0.0782676 5.23287e-20)
(0.730045 0.0881318 -3.56205e-19)
(0.800375 0.100113 1.38022e-19)
(0.864182 0.113507 -5.22257e-19)
(-0.0136513 0.010934 5.40765e-19)
(-0.0263248 0.0232365 -3.27809e-19)
(-0.0258319 0.0298984 2.69973e-19)
(-0.0136481 0.033048 -3.40573e-19)
(0.00908052 0.034223 5.7042e-19)
(0.0414134 0.0345285 -9.89669e-21)
(0.0825292 0.0347422 -6.9342e-20)
(0.131651 0.0354098 -5.1457e-20)
(0.187975 0.0369072 3.16475e-19)
(0.250615 0.0394766 5.38185e-19)
(0.318575 0.0432523 -3.18057e-19)
(0.390747 0.0482782 3.0935e-19)
(0.465929 0.0545236 5.65435e-19)
(0.54287 0.0618981 -3.96303e-19)
(0.620328 0.0702642 -8.04149e-19)
(0.697129 0.0794461 1.46957e-18)
(0.772235 0.0892292 -2.62192e-19)
(0.844813 0.0993794 -8.3833e-20)
(0.914512 0.109954 8.95605e-19)
(0.978091 0.122294 -1.94303e-19)
(-0.0136179 0.0101661 -8.79361e-19)
(-0.023909 0.0206842 -5.85321e-19)
(-0.0190403 0.0259465 -2.2457e-19)
(-0.000869543 0.0281506 4.33317e-19)
(0.0292224 0.0288902 -9.78331e-19)
(0.0700961 0.0293021 5.06531e-19)
(0.120706 0.0301592 6.41694e-20)
(0.180001 0.0319747 6.47555e-20)
(0.246843 0.0350656 -6.63413e-19)
(0.319957 0.0395909 -2.34407e-19)
(0.397924 0.0455779 -4.13162e-19)
(0.479207 0.0529447 3.98957e-19)
(0.562204 0.0615209 1.13079e-19)
(0.645327 0.0710691 2.21123e-20)
(0.727074 0.0813041 5.17505e-19)
(0.806106 0.0919084 -5.2523e-19)
(0.881302 0.10254 -2.12949e-20)
(0.951804 0.112859 1.53787e-20)
(1.01706 0.122541 7.37823e-20)
(1.07602 0.134315 3.9021e-19)
(-0.0132206 0.00923875 2.79848e-19)
(-0.0202203 0.0178469 7.2057e-19)
(-0.00989534 0.0218061 5.78106e-19)
(0.0154551 0.0233073 -1.99332e-19)
(0.0541525 0.0239622 6.93368e-19)
(0.104775 0.0249133 -5.83814e-20)
(0.165947 0.0269004 -8.23191e-20)
(0.236217 0.0303696 4.88808e-20)
(0.313979 0.0355396 6.70359e-19)
(0.39745 0.0424424 3.9387e-19)
(0.484697 0.0509561 1.15029e-19)
(0.573709 0.0608372 7.19122e-21)
(0.662501 0.0717539 -7.61931e-19)
(0.749213 0.0833196 6.62276e-19)
(0.832208 0.0951236 1.12635e-19)
(0.910143 0.106757 -1.86741e-19)
(0.982005 0.117829 -8.00066e-19)
(1.04714 0.128014 -6.53085e-20)
(1.10514 0.136848 3.11495e-19)
(1.15657 0.147715 -6.14426e-20)
(-0.012363 0.00814132 -7.09122e-19)
(-0.0150146 0.0147294 2.96679e-19)
(0.00194981 0.0175268 -1.44917e-18)
(0.0357283 0.018632 5.93808e-19)
(0.0842636 0.0196273 -4.73636e-19)
(0.145743 0.0216234 3.49312e-19)
(0.218323 0.0252853 -5.4281e-19)
(0.300007 0.0309433 4.97604e-20)
(0.388585 0.0386653 -2.79716e-20)
(0.481665 0.0483044 1.45996e-19)
(0.576758 0.0595462 2.10689e-19)
(0.671409 0.0719585 -3.9807e-19)
(0.763345 0.0850424 2.11068e-19)
(0.8506 0.0982813 1.93209e-19)
(0.931604 0.111182 8.28923e-19)
(1.00524 0.123305 -3.61456e-19)
(1.07082 0.134286 -2.36116e-19)
(1.12811 0.143875 3.95744e-19)
(1.17711 0.151669 2.0565e-19)
(1.21924 0.161078 -3.95136e-19)
(-0.0109473 0.00687884 6.20537e-19)
(-0.00804869 0.0113753 5.98249e-19)
(0.0168267 0.0132131 1.72873e-19)
(0.0603057 0.0143031 7.27979e-19)
(0.119849 0.0161393 3.57982e-19)
(0.193114 0.0197498 -6.45392e-19)
(0.277631 0.0256659 9.78012e-19)
(0.370702 0.0340382 -4.81392e-19)
(0.469397 0.0447196 4.806e-19)
(0.570665 0.0573301 6.2156e-19)
(0.671494 0.0713281 -3.55146e-19)
(0.769112 0.0860842 6.75518e-20)
(0.861154 0.100953 3.74889e-19)
(0.945784 0.115332 2.63258e-19)
(1.02175 0.12871 6.02843e-19)
(1.08839 0.140689 -2.43193e-19)
(1.14554 0.150997 -3.1591e-20)
(1.19351 0.159501 3.7281e-19)
(1.23283 0.165972 -8.12354e-20)
(1.26533 0.173485 -2.03601e-22)
(-0.00887577 0.00547254 -3.20198e-19)
(0.000913161 0.00786994 -1.17682e-18)
(0.0350385 0.00902849 2.77311e-19)
(0.0894748 0.0105663 -2.11177e-19)
(0.161071 0.0138169 -4.88019e-19)
(0.246787 0.0196565 -3.48884e-19)
(0.343356 0.0284062 -2.15615e-19)
(0.447236 0.0399581 5.23464e-19)
(0.554711 0.0538815 -3.10879e-19)
(0.662103 0.0695181 -3.1855e-19)
(0.76602 0.0860859 -4.01958e-19)
(0.863592 0.10278 -6.62896e-20)
(0.952637 0.118861 -4.57646e-20)
(1.03172 0.133713 -9.22957e-19)
(1.10017 0.146884 4.44277e-19)
(1.15792 0.158087 -5.84657e-19)
(1.20547 0.167197 1.80217e-19)
(1.24367 0.174229 -1.37487e-18)
(1.27357 0.179164 4.1513e-19)
(1.29713 0.184583 5.16529e-19)
(-0.00605161 0.00395946 -8.05083e-20)
(0.0120914 0.0043404 5.73306e-19)
(0.0568437 0.00519459 3.68106e-20)
(0.123429 0.00773021 8.85754e-20)
(0.207924 0.0130304 -1.80174e-19)
(0.30641 0.0217307 -3.0465e-21)
(0.414649 0.0338468 -4.70753e-21)
(0.528162 0.0489264 -1.08937e-19)
(0.642467 0.0661943 3.86519e-19)
(0.753401 0.0846924 1.49178e-19)
(0.85744 0.10342 6.76342e-19)
(0.951924 0.121457 -1.84054e-19)
(1.03515 0.138051 1.27964e-19)
(1.10636 0.152661 -1.59622e-20)
(1.16559 0.164972 3.53093e-19)
(1.21352 0.174867 2.14254e-19)
(1.25124 0.182398 5.11671e-19)
(1.28011 0.187731 -8.241e-19)
(1.30154 0.191042 1.03113e-18)
(1.31748 0.194407 -3.26087e-19)
(-0.00238125 0.00239171 -7.46068e-19)
(0.0256819 0.000952871 -2.3339e-19)
(0.0824372 0.0019844 1.8207e-19)
(0.162237 0.00615202 1.14901e-19)
(0.260205 0.0141782 1.18237e-19)
(0.371347 0.0263471 1.19714e-19)
(0.490325 0.0422629 -3.00018e-19)
(0.611712 0.0610468 -1.23796e-19)
(0.73039 0.0815429 3.85916e-20)
(0.841976 0.102511 -3.66803e-19)
(0.943146 0.122796 -1.65349e-19)
(1.03178 0.141455 9.9803e-19)
(1.10695 0.157824 -2.57817e-19)
(1.16873 0.171525 -3.52631e-19)
(1.21795 0.18244 -1.65411e-19)
(1.25599 0.190657 1.15586e-19)
(1.28444 0.196403 1.38419e-19)
(1.30501 0.19998 -6.6306e-19)
(1.31931 0.20171 9.54215e-19)
(1.32916 0.203229 -8.25886e-19)
(0.00222312 0.000835786 -8.39579e-20)
(0.0418453 -0.00209151 2.39729e-20)
(0.11193 -0.000288217 -3.10101e-20)
(0.205818 0.00621799 4.51245e-19)
(0.317482 0.0176557 2.51665e-20)
(0.44068 0.0338301 1.65988e-19)
(0.568916 0.0538261 -3.45303e-19)
(0.695914 0.076279 -1.25209e-20)
(0.816183 0.0996576 4.79179e-19)
(0.925481 0.122504 6.64961e-20)
(1.02106 0.143614 -4.16048e-19)
(1.10165 0.162136 -3.66487e-20)
(1.16726 0.177593 -3.38989e-19)
(1.21889 0.189839 3.38367e-19)
(1.25813 0.19899 4.6616e-19)
(1.28689 0.205333 -5.11973e-20)
(1.30715 0.209251 -6.17109e-20)
(1.32074 0.211149 1.87859e-19)
(1.32933 0.211433 -5.99941e-19)
(1.33459 0.211395 5.30117e-19)
(0.00783967 -0.000628202 8.49079e-20)
(0.0606937 -0.00456213 -5.46063e-19)
(0.145328 -0.00128198 1.45993e-19)
(0.253917 0.00831982 -4.5451e-19)
(0.379088 0.0238234 1.56449e-19)
(0.513232 0.0444185 -5.81084e-19)
(0.648744 0.0685795 2.34497e-19)
(0.778738 0.0944376 -7.4818e-20)
(0.897724 0.120145 -3.11087e-21)
(1.00201 0.144137 7.60686e-20)
(1.08977 0.16529 -2.76433e-19)
(1.16081 0.18296 -3.93509e-19)
(1.21617 0.196937 -8.00816e-20)
(1.25769 0.207344 -3.59546e-20)
(1.28759 0.21453 -9.09457e-20)
(1.30814 0.218959 -2.94267e-20)
(1.32149 0.22113 -8.80922e-20)
(1.3295 0.221503 -7.61411e-20)
(1.33373 0.220529 -2.24568e-19)
(1.33564 0.219233 3.55008e-19)
(0.014532 -0.00190748 2.03006e-19)
(0.0822785 -0.00620556 -2.25618e-19)
(0.182516 -0.00064368 4.86082e-19)
(0.306095 0.01283 -2.10248e-19)
(0.444132 0.0329768 5.62102e-19)
(0.587626 0.0582408 8.39421e-21)
(0.728045 0.0864312 2.82421e-19)
(0.858264 0.115214 -7.60365e-20)
(0.97324 0.142537 3.15057e-19)
(1.07023 0.166875 2.23091e-20)
(1.1486 0.18732 7.46352e-19)
(1.20933 0.203531 -5.14252e-19)
(1.25443 0.21561 6.96202e-20)
(1.28645 0.223958 1.32123e-19)
(1.30804 0.229126 6.84743e-19)
(1.32165 0.231713 -2.45731e-19)
(1.32944 0.232287 -4.84522e-20)
(1.33313 0.231327 -2.54481e-19)
(1.33413 0.229291 -2.61118e-20)
(1.33369 0.227004 1.26949e-19)
(0.0223439 -0.00289807 -9.68824e-20)
(0.106578 -0.00675368 2.80739e-19)
(0.223245 0.00197514 -2.88615e-19)
(0.361728 0.0200778 1.1354e-19)
(0.511534 0.0453227 -1.36754e-19)
(0.662368 0.075304 5.00856e-19)
(0.805098 0.107167 -7.01702e-20)
(0.932826 0.138214 1.71187e-19)
(1.04142 0.166347 -1.01238e-19)
(1.12941 0.19024 -2.9309e-21)
(1.1975 0.209315 1.14407e-19)
(1.24781 0.223599 -8.85776e-20)
(1.28318 0.233521 2.29223e-19)
(1.30669 0.239727 -1.14464e-19)
(1.32119 0.242931 -4.9975e-19)
(1.32915 0.243816 4.95858e-19)
(1.33259 0.242974 -2.22293e-19)
(1.33306 0.240871 1.77315e-19)
(1.33175 0.237951 3.05765e-19)
(1.3297 0.234888 1.25539e-19)
(0.0312939 -0.00348708 2.4135e-19)
(0.133488 -0.00593325 -4.97634e-19)
(0.26713 0.00690088 9.50689e-20)
(0.420027 0.0303287 -6.92158e-20)
(0.580082 0.0609645 -2.80127e-19)
(0.735945 0.0954966 -2.19779e-19)
(0.87834 0.130477 -4.33759e-20)
(1.00111 0.163005 -3.91135e-19)
(1.10144 0.191118 -2.39196e-20)
(1.17936 0.213839 -7.25311e-20)
(1.23691 0.23101 -1.96313e-19)
(1.27721 0.243048 -4.37063e-20)
(1.30377 0.250686 -1.49609e-19)
(1.31992 0.254775 -2.48485e-19)
(1.32858 0.256135 2.53648e-19)
(1.33208 0.255485 3.43549e-20)
(1.33222 0.253406 6.84363e-20)
(1.33034 0.250328 -2.89983e-19)
(1.32741 0.246674 -7.59629e-21)
(1.32427 0.242993 -4.45109e-19)
(0.0413706 -0.00355581 2.63521e-19)
(0.162815 -0.00347685 1.76083e-19)
(0.313651 0.0144207 -2.84893e-19)
(0.48007 0.0437674 4.44823e-19)
(0.648498 0.0798972 -4.82298e-20)
(0.806922 0.118604 1.66323e-19)
(0.946463 0.155989 5.7611e-20)
(1.06221 0.189152 2.03619e-19)
(1.15296 0.216453 -1.59472e-19)
(1.22032 0.237382 5.3003e-20)
(1.26757 0.252251 -5.0768e-20)
(1.29866 0.261856 -2.2036e-20)
(1.31749 0.267193 4.22891e-20)
(1.3275 0.269256 -7.7596e-20)
(1.33147 0.268922 -2.36714e-20)
(1.33154 0.266906 -7.25354e-20)
(1.32925 0.263749 -1.17612e-19)
(1.32569 0.259831 7.60393e-20)
(1.32166 0.255558 -1.03548e-19)
(1.3178 0.251364 4.48413e-19)
(0.0525294 -0.0029838 -1.312e-19)
(0.194278 0.000865056 -3.72755e-19)
(0.362171 0.0247668 -4.96797e-20)
(0.540839 0.0604867 -1.38213e-20)
(0.715508 0.102011 -1.6747e-19)
(0.874018 0.144331 -2.75109e-19)
(1.00846 0.183304 8.99027e-20)
(1.11559 0.216252 -1.23536e-19)
(1.196 0.242026 -1.3806e-19)
(1.25284 0.260668 7.68098e-20)
(1.29043 0.272968 -5.79389e-20)
(1.31332 0.280065 -1.16923e-19)
(1.32558 0.283156 -3.70521e-21)
(1.33058 0.283322 7.9195e-20)
(1.33089 0.281449 -8.03952e-20)
(1.32837 0.278218 1.11599e-19)
(1.32432 0.274112 3.01436e-20)
(1.3196 0.269459 7.53831e-20)
(1.31483 0.264648 1.46211e-19)
(1.31051 0.260005 -1.25288e-19)
(0.0646901 -0.00165357 1.25136e-19)
(0.227508 0.00731184 -1.0645e-20)
(0.411955 0.0381027 5.66089e-20)
(0.601274 0.0804831 -7.65401e-20)
(0.779913 0.127103 6.54139e-21)
(0.936166 0.172327 2.65931e-19)
(1.06364 0.212018 -1.74466e-19)
(1.16107 0.243947 7.39059e-20)
(1.23089 0.267587 6.51528e-20)
(1.27763 0.283574 -1.82457e-19)
(1.30646 0.293153 1.71313e-19)
(1.32224 0.297746 1.57896e-21)
(1.32906 0.29869 -1.20315e-19)
(1.33008 0.2971 1.44938e-19)
(1.32759 0.293834 -5.74174e-20)
(1.32318 0.289513 4.38525e-20)
(1.31787 0.284558 -4.90817e-20)
(1.31237 0.279243 -1.9725e-20)
(1.30712 0.273946 -1.70796e-19)
(1.30251 0.268886 5.24374e-20)
(0.0777366 0.000544261 -4.19134e-20)
(0.262057 0.016041 1.13103e-19)
(0.4622 0.0545133 1.77412e-20)
(0.660319 0.103658 7.41405e-20)
(0.840637 0.154895 3.54702e-20)
(0.992537 0.202209 1.66414e-20)
(1.11161 0.241749 9.4028e-20)
(1.19874 0.271931 -1.13594e-20)
(1.25814 0.292947 4.14085e-20)
(1.29551 0.306029 6.64212e-20)
(1.31658 0.312823 3.2011e-20)
(1.32636 0.314974 2.297e-20)
(1.32877 0.313894 9.30778e-20)
(1.3267 0.310685 -9.00882e-20)
(1.32212 0.30615 1.93142e-20)
(1.31634 0.300839 -1.8081e-20)
(1.31018 0.295104 2.79445e-20)
(1.30417 0.289175 2.34045e-20)
(1.29864 0.283424 4.87546e-20)
(1.29386 0.277955 1.98009e-21)
(0.0915187 0.00370572 2.48682e-20)
(0.297418 0.0271776 2.27152e-20)
(0.512066 0.073999 -3.1513e-20)
(0.716968 0.129824 1.97006e-20)
(0.896766 0.185047 1.11411e-20)
(1.04254 0.233583 -3.46916e-20)
(1.15223 0.27214 1.14288e-20)
(1.22889 0.29995 2.10096e-21)
(1.27836 0.317968 1.96869e-20)
(1.30725 0.327992 -5.2833e-20)
(1.32164 0.33201 -1.63844e-22)
(1.32646 0.331814 1.46244e-20)
(1.32539 0.328837 -1.16577e-20)
(1.32097 0.324134 1.17929e-20)
(1.31487 0.31843 3.07646e-20)
(1.30814 0.312202 -1.7508e-20)
(1.30142 0.305735 4.87684e-21)
(1.2951 0.299221 1.91666e-20)
(1.28942 0.293031 -3.1548e-20)
(1.28458 0.287146 1.51861e-20)
(0.105855 0.00790857 6.88767e-20)
(0.333031 0.0407869 -3.75896e-20)
(0.560711 0.0964747 4.43521e-20)
(0.770305 0.158715 -3.30241e-20)
(0.947566 0.21718 -1.48217e-20)
(1.08582 0.266055 4.50598e-21)
(1.18554 0.302869 -1.45438e-20)
(1.25193 0.327788 5.22817e-20)
(1.2922 0.342541 -4.3555e-20)
(1.31361 0.34944 1.02356e-20)
(1.32236 0.350737 -7.6174e-21)
(1.32319 0.348307 -4.96863e-20)
(1.31942 0.343557 4.82176e-20)
(1.31326 0.337464 1.83786e-20)
(1.30609 0.330671 -1.82678e-20)
(1.29874 0.323577 4.29237e-20)
(1.29168 0.316408 -6.28127e-22)
(1.28521 0.309324 -4.1644e-20)
(1.27948 0.302699 3.08269e-20)
(1.27465 0.296382 9.76278e-21)
(0.120539 0.0132081 -2.4153e-20)
(0.368313 0.0568684 6.99385e-20)
(0.607321 0.121773 8.09885e-20)
(0.819529 0.190002 -3.82943e-20)
(0.992487 0.250887 6.65627e-20)
(1.12219 0.299243 1.05433e-19)
(1.21176 0.333642 -5.85806e-21)
(1.26834 0.355261 -1.81708e-20)
(1.30029 0.366578 8.95295e-20)
(1.31525 0.370349 4.37021e-20)
(1.31935 0.369013 -7.95913e-21)
(1.31702 0.364468 6.52807e-20)
(1.31123 0.358056 -7.01095e-20)
(1.30384 0.350662 1.09259e-19)
(1.29596 0.34284 -1.82244e-20)
(1.28822 0.334915 5.23763e-20)
(1.281 0.327059 9.48902e-21)
(1.2745 0.319413 3.74963e-20)
(1.26881 0.312348 -3.56604e-20)
(1.26405 0.30558 8.70739e-21)
(0.13534 0.0196331 -3.75927e-20)
(0.402668 0.0753535 8.84518e-20)
(0.651134 0.149647 6.58804e-20)
(0.863968 0.223301 -1.00216e-20)
(1.03115 0.285748 1.03056e-19)
(1.15164 0.33278 -7.74106e-20)
(1.23118 0.364192 -6.10652e-21)
(1.27865 0.382205 6.81351e-20)
(1.30322 0.389997 2.15926e-20)
(1.31273 0.390685 3.03975e-20)
(1.31309 0.386824 -4.49546e-20)
(1.30835 0.380281 1.17533e-19)
(1.3011 0.372306 2.20394e-20)
(1.29288 0.363683 -1.04305e-19)
(1.28457 0.354875 1.52915e-19)
(1.27666 0.346142 -1.80562e-19)
(1.26941 0.337609 -8.31221e-20)
(1.26298 0.329402 1.37926e-20)
(1.2574 0.321891 8.06869e-20)
(1.25277 0.314653 -1.52926e-19)
(0.150016 0.0271834 -8.38263e-20)
(0.435512 0.0961061 -1.98195e-19)
(0.691467 0.179786 -1.719e-19)
(0.90309 0.258191 -2.33929e-19)
(1.06333 0.321338 -1.33077e-19)
(1.1743 0.366314 -2.75998e-19)
(1.24418 0.394271 3.50945e-20)
(1.28334 0.408469 -1.47075e-19)
(1.30153 0.412715 -1.62386e-20)
(1.30654 0.410402 2.42579e-20)
(1.30397 0.404133 -5.35121e-20)
(1.29746 0.395703 6.72938e-20)
(1.28922 0.386253 1.20049e-19)