/*--------------------------------*- C++ -*----------------------------------*\
  =========                 |
  \\      /  F ield         | OpenFOAM: The Open Source CFD Toolbox
   \\    /   O peration     | Website:  https://openfoam.org
    \\  /    A nd           | Version:  6.0
     \\/     M anipulation  |
\*---------------------------------------------------------------------------*/
FoamFile
{
    version     2.0;
    format      ascii;
    class       surfaceScalarField;
    location    "38";
    object      phi;
}
// * * * * * * * * * * * * * * * * * * * * * * * * * * * * * * * * * * * * * //

dimensions      [0 3 -1 0 0 0 0];

internalField   nonuniform List<scalar> 
15760
(
-2.47755e-06
2.05198e-06
4.25576e-07
-8.80984e-06
5.37948e-06
9.52798e-07
-1.80831e-05
8.0215e-06
1.25178e-06
-2.95304e-05
1.00573e-05
1.39001e-06
-4.25251e-05
1.15758e-05
1.41879e-06
-5.65693e-05
1.26675e-05
1.37678e-06
-7.12821e-05
1.34202e-05
1.29254e-06
-8.63854e-05
1.39166e-05
1.18671e-06
-0.000101692
1.42332e-05
1.07379e-06
-0.000117095
1.44394e-05
9.63689e-07
-0.000132556
1.45976e-05
8.62795e-07
-0.000148093
1.47627e-05
7.74942e-07
-0.000163777
1.4982e-05
7.02053e-07
-0.000179717
1.52949e-05
6.44614e-07
-0.000196052
1.57329e-05
6.02e-07
-0.000212944
1.63195e-05
5.72674e-07
-0.000230569
1.70703e-05
5.54274e-07
-0.000249105
1.79929e-05
5.43736e-07
-0.000268732
1.9089e-05
5.37755e-07
2.03607e-05
5.32959e-07
-0.000289626
-2.47838e-06
4.53035e-06
-8.80723e-06
1.17083e-05
-1.80673e-05
1.72815e-05
-2.94868e-05
2.14768e-05
-4.24347e-05
2.45237e-05
-5.64091e-05
2.66419e-05
-7.1024e-05
2.80352e-05
-8.59966e-05
2.88892e-05
-0.000101134
2.9371e-05
-0.000116324
2.96292e-05
-0.000131522
2.9795e-05
-0.000146741
2.99825e-05
-0.000162049
3.02891e-05
-0.000177549
3.07953e-05
-0.000193381
3.15652e-05
-0.000209707
3.26459e-05
-0.000226705
3.4068e-05
-0.000244557
3.58453e-05
-0.000263447
3.7979e-05
4.04707e-05
-0.000283557
-2.47901e-06
7.00936e-06
-8.79898e-06
1.80283e-05
-1.80306e-05
2.65132e-05
-2.93935e-05
3.28397e-05
-4.22484e-05
3.73786e-05
-5.60852e-05
4.04787e-05
-7.05093e-05
4.24592e-05
-8.52276e-05
4.36075e-05
-0.000100037
4.41803e-05
-0.000114813
4.4405e-05
-0.000129499
4.44815e-05
-0.000144101
4.45841e-05
-0.000158674
4.48619e-05
-0.000173318
4.54394e-05
-0.000188169
4.64163e-05
-0.00020339
4.78673e-05
-0.000219164
4.98418e-05
-0.000235682
5.23633e-05
-0.000253139
5.54356e-05
5.9061e-05
-0.000271729
-2.48024e-06
9.4896e-06
-8.78713e-06
2.43352e-05
-1.79769e-05
3.57029e-05
-2.92568e-05
4.41196e-05
-4.19767e-05
5.00985e-05
-5.56149e-05
5.4117e-05
-6.97642e-05
5.66085e-05
-8.41175e-05
5.79608e-05
-9.84556e-05
5.85184e-05
-0.000112637
5.85863e-05
-0.000126588
5.8433e-05
-0.000140298
5.8294e-05
-0.000153809
5.83725e-05
-0.00016721
5.88405e-05
-0.000180632
5.98387e-05
-0.00019424
6.14751e-05
-0.000208223
6.38244e-05
-0.000222785
6.69259e-05
-0.000238141
7.0791e-05
7.54261e-05
-0.000254506
-2.48282e-06
1.19724e-05
-8.77342e-06
3.06258e-05
-1.79091e-05
4.48386e-05
-2.90822e-05
5.52927e-05
-4.16292e-05
6.26454e-05
-5.50149e-05
6.75027e-05
-6.88169e-05
7.04105e-05
-8.27103e-05
7.18542e-05
-9.64557e-05
7.22639e-05
-0.000109889
7.20198e-05
-0.000122914
7.14583e-05
-0.000135497
7.08763e-05
-0.000147658
7.05339e-05
-0.000159473
7.06554e-05
-0.000171063
7.14288e-05
-0.000182592
7.3004e-05
-0.000194258
7.54901e-05
-0.000206284
7.89518e-05
-0.000218909
8.34169e-05
8.89015e-05
-0.000232385
-2.48713e-06
1.44595e-05
-8.75805e-06
3.68967e-05
-1.78271e-05
5.39076e-05
-2.88697e-05
6.63353e-05
-4.1208e-05
7.49837e-05
-5.42926e-05
8.05873e-05
-6.76844e-05
8.38023e-05
-8.1039e-05
8.52087e-05
-9.40932e-05
8.53181e-05
-0.000106656
8.45826e-05
-0.000118602
8.34039e-05
-0.000129865
8.21401e-05
-0.000140442
8.11101e-05
-0.000150381
8.05952e-05
-0.000159792
8.08388e-05
-0.000168831
8.20434e-05
-0.000177706
8.43653e-05
-0.000186663
8.79087e-05
-0.000195977
9.27313e-05
9.88699e-05
-0.000205946
-2.49264e-06
1.69522e-05
-8.73818e-06
4.31422e-05
-1.77244e-05
6.28938e-05
-2.86089e-05
7.72198e-05
-4.07e-05
8.70748e-05
-5.34348e-05
9.33221e-05
-6.63582e-05
9.67257e-05
-7.91055e-05
9.7956e-05
-9.13884e-05
9.76009e-05
-0.000102985
9.61794e-05
-0.000113736
9.41542e-05
-0.000123537
9.19419e-05
-0.000132348
8.99206e-05
-0.000140185
8.84328e-05
-0.000147132
8.77857e-05
-0.000153336
8.8247e-05
-0.000159008
9.00373e-05
-0.000164419
9.33195e-05
-0.00016989
9.82026e-05
0.000104762
-0.000175783
-2.49758e-06
1.94498e-05
-8.70663e-06
4.93513e-05
-1.75854e-05
7.17726e-05
-2.82741e-05
8.79085e-05
-4.00688e-05
9.88695e-05
-5.23955e-05
0.000105649
-6.47859e-05
0.000109116
-7.68568e-05
0.000110027
-8.82953e-05
0.000109039
-9.8848e-05
0.000106732
-0.000108316
0.000103622
-0.000116552
0.000100179
-0.000123469
9.68373e-05
-0.00012904
9.40032e-05
-0.000133308
9.20545e-05
-0.000136399
9.1338e-05
-0.000138521
9.21589e-05
-0.000139967
9.47659e-05
-0.000141114
9.93492e-05
0.000106055
-0.000142407
-2.49858e-06
2.19483e-05
-8.65087e-06
5.55035e-05
-1.73835e-05
8.05052e-05
-2.782e-05
9.8345e-05
-3.92475e-05
0.000110297
-5.10847e-05
0.000117486
-6.28545e-05
0.000120886
-7.41599e-05
0.000121332
-8.46668e-05
0.000119546
-9.40919e-05
0.000116157
-0.000102197
0.000111727
-0.000108787
0.000106769
-0.000113719
0.000101769
-0.000116908
9.71925e-05
-0.000118346
9.34924e-05
-0.000118115
9.11071e-05
-0.000116406
9.04493e-05
-0.000113527
9.18867e-05
-0.000109912
9.5735e-05
0.00010226
-0.000106117
-2.49065e-06
2.4439e-05
-8.55264e-06
6.15655e-05
-1.70794e-05
8.90319e-05
-2.71795e-05
0.000108445
-3.81338e-05
0.000121251
-4.93591e-05
0.000128711
-6.03752e-05
0.000131902
-7.07783e-05
0.000131735
-8.02202e-05
0.000128988
-8.83936e-05
0.000124331
-9.50246e-05
0.000118358
-9.9871e-05
0.000111616
-0.000102729
0.000104627
-0.000103445
9.7909e-05
-0.00010194
9.1987e-05
-9.82312e-05
8.73984e-05
-9.24668e-05
8.46849e-05
-8.49521e-05
8.43721e-05
-7.61765e-05
8.69594e-05
9.29072e-05
-6.68239e-05
-2.46735e-06
2.69063e-05
-8.3886e-06
6.74868e-05
-1.66226e-05
9.7266e-05
-2.62635e-05
0.000118086
-3.65889e-05
0.000131577
-4.7018e-05
0.00013914
-5.70744e-05
0.000141958
-6.63556e-05
0.000141017
-7.45089e-05
0.000137142
-8.1214e-05
0.000131036
-8.61713e-05
0.000123315
-8.90981e-05
0.000114542
-8.9733e-05
0.000105262
-8.78491e-05
9.60252e-05
-8.32794e-05
8.74173e-05
-7.5953e-05
8.0072e-05
-6.59419e-05
7.46738e-05
-5.35151e-05
7.19452e-05
-3.91969e-05
7.26412e-05
7.75264e-05
-2.38161e-05
-2.42138e-06
2.93277e-05
-8.13186e-06
7.31973e-05
-1.59536e-05
0.000105088
-2.49652e-05
0.000127098
-3.44417e-05
0.000141053
-4.38073e-05
0.000148506
-5.25944e-05
0.000150745
-6.04099e-05
0.000148832
-6.6908e-05
0.00014364
-7.1769e-05
0.000135897
-7.46843e-05
0.00012623
-7.53472e-05
0.000115205
-7.34529e-05
0.000103368
-6.87079e-05
9.12802e-05
-6.08541e-05
7.95635e-05
-4.97109e-05
6.89287e-05
-3.52379e-05
6.02008e-05
-1.76184e-05
5.43257e-05
2.63203e-06
5.23908e-05
5.56144e-05
2.4544e-05
-2.34547e-06
3.16732e-05
-7.75467e-06
7.86065e-05
-1.50089e-05
0.000112342
-2.31672e-05
0.000135256
-3.14987e-05
0.000149385
-3.94313e-05
0.000156439
-4.65073e-05
0.000157821
-5.23478e-05
0.000154673
-5.66229e-05
0.000147915
-5.90285e-05
0.000138302
-5.92673e-05
0.000126469
-5.70348e-05
0.000112973
-5.20112e-05
9.8344e-05
-4.38632e-05
8.31322e-05
-3.22591e-05
6.79593e-05
-1.69073e-05
5.3577e-05
2.37337e-06
4.09202e-05
2.55433e-05
3.11558e-05
5.21711e-05
2.5763e-05
2.65945e-05
8.11909e-05
-2.2334e-06
3.39066e-05
-7.23144e-06
8.36045e-05
-1.37273e-05
0.000118838
-2.07516e-05
0.00014228
-2.75593e-05
0.000156192
-3.35741e-05
0.000162454
-3.83429e-05
0.00016259
-4.14983e-05
0.000157828
-4.27293e-05
0.000149146
-4.17575e-05
0.000137331
-3.83164e-05
0.000123028
-3.21341e-05
0.000106791
-2.29181e-05
8.91281e-05
-1.03451e-05
7.05592e-05
5.93917e-06
5.1675e-05
2.62993e-05
3.32168e-05
5.10512e-05
1.61683e-05
8.03441e-05
1.86286e-06
0.000113934
-7.82657e-06
-1.02434e-05
0.000150772
-2.08096e-06
3.59875e-05
-6.54175e-06
8.80653e-05
-1.20554e-05
0.000124351
-1.76105e-05
0.000147835
-2.24325e-05
0.000161015
-2.59261e-05
0.000165947
-2.76274e-05
0.000164292
-2.71678e-05
0.000157368
-2.42464e-05
0.000146224
-1.86085e-05
0.000131693
-1.00285e-05
0.000114448
1.70747e-06
9.50546e-05
1.68187e-05
7.40169e-05
3.55494e-05
5.18285e-05
5.81874e-05
2.9037e-05
8.50735e-05
6.3308e-06
0.00011658
-1.5338e-05
0.000153028
-3.45858e-05
0.000194461
-4.92589e-05
-5.58305e-05
0.000240048
-1.88647e-06
3.7874e-05
-5.67208e-06
9.18509e-05
-9.95241e-06
0.000128632
-1.36542e-05
0.000151537
-1.59526e-05
0.000163313
-1.62094e-05
0.000166204
-1.39252e-05
0.000162007
-8.70442e-06
0.000152148
-2.31757e-07
0.000137752
1.17431e-05
0.000119718
2.74159e-05
9.8775e-05
4.69366e-05
7.5534e-05
7.04199e-05
5.05335e-05
9.79637e-05
2.42848e-05
0.000129676
-2.67547e-06
0.000165714
-2.97071e-05
0.000206319
-5.59425e-05
0.000251826
-8.00936e-05
0.000302563
-9.99957e-05
-0.000111424
0.000358157
-1.65059e-06
3.95246e-05
-4.61539e-06
9.48157e-05
-7.38937e-06
0.000131406
-8.81325e-06
0.000152961
-7.98482e-06
0.000162484
-4.19313e-06
0.000162412
3.13071e-06
0.000154684
1.44465e-05
0.000140832
3.01238e-05
0.000122074
5.04494e-05
9.93922e-05
7.56266e-05
7.35978e-05
0.00010577
4.53908e-05
0.000140898
1.54056e-05
0.000180932
-1.57492e-05
0.000225708
-4.74522e-05
0.000275018
-7.90163e-05
0.000328673
-0.000109598
0.000386629
-0.00013805
0.000449155
-0.000162522
-0.000178804
0.000516535
-1.37523e-06
4.08998e-05
-3.36798e-06
9.68084e-05
-4.34443e-06
0.000132382
-3.03153e-06
0.000151648
1.58044e-06
0.000157873
1.03092e-05
0.000153683
2.38318e-05
0.000141161
4.27164e-05
0.000121947
6.74365e-05
9.73542e-05
9.83717e-05
6.84571e-05
0.000135796
3.61739e-05
0.000179854
1.33273e-06
0.000230533
-3.52737e-05
0.000287625
-7.28416e-05
0.000350692
-0.000110519
0.000419043
-0.000147368
0.000491763
-0.000182318
0.00056782
-0.000214106
0.000646462
-0.000241164
-0.000261196
0.000728854
-1.0615e-06
4.19613e-05
-1.92379e-06
9.76707e-05
-7.9229e-07
0.000131251
3.7491e-06
0.000147106
1.28484e-05
0.000148773
2.74639e-05
0.000139068
4.84182e-05
0.000120207
7.64298e-05
9.39356e-05
0.000112125
6.16587e-05
0.000156036
2.45468e-05
0.000208579
-1.6369e-05
0.000270028
-6.01171e-05
0.000340469
-0.000105714
0.000419727
-0.000152099
0.00050727
-0.000198062
0.000602075
-0.000242173
0.000702457
-0.0002827
0.000805861
-0.00031751
0.000909003
-0.000344306
-0.00036527
0.00101308
-7.07342e-07
4.26686e-05
-2.67245e-07
9.72306e-05
3.3091e-06
0.000127674
1.16096e-05
0.000138806
2.5949e-05
0.000134434
4.74547e-05
0.000117562
7.71234e-05
9.0538e-05
0.000115852
5.52069e-05
0.000164449
1.30613e-05
0.000223634
-3.46373e-05
0.00029402
-8.67551e-05
0.000376103
-0.000142201
0.000470238
-0.000199849
0.000576601
-0.000258462
0.000695135
-0.000316596
0.000825417
-0.000372455
0.000966348
-0.000423631
0.00111516
-0.000466326
0.00126415
-0.000493291
-0.000490984
0.00138986
-3.05891e-07
4.29745e-05
1.6322e-06
9.52925e-05
8.02974e-06
0.000121277
2.06725e-05
0.000126163
4.10645e-05
0.000114042
7.05206e-05
8.81062e-05
0.000110222
5.0837e-05
0.000161242
4.18682e-06
0.000224556
-5.0253e-05
0.000301037
-0.000111119
0.000391454
-0.000177172
0.000496478
-0.000247225
0.000616717
-0.000320088
0.000752795
-0.00039454
0.000905516
-0.000469317
0.00107618
-0.000543119
0.00126715
-0.000614598
0.00148315
-0.000682333
0.00173524
-0.000745376
-0.000802566
0.00204682
1.5854e-07
4.2816e-05
3.82836e-06
9.16227e-05
1.34796e-05
0.000111626
3.1117e-05
0.000108526
5.84486e-05
8.67102e-05
9.69791e-05
4.95757e-05
0.000148058
-2.42109e-07
0.000212895
-6.06505e-05
0.000292555
-0.000129912
0.000387939
-0.000206503
0.000499783
-0.000289016
0.000628655
-0.000376097
0.000774994
-0.000466427
0.000939186
-0.000558732
0.00112169
-0.000651825
0.00132327
-0.000744695
0.00154528
-0.000836612
0.00179021
-0.000927256
0.00206161
-0.00101678
-0.00109839
0.00235744
7.06564e-07
4.21094e-05
6.3913e-06
8.5938e-05
1.97995e-05
9.82174e-05
4.31677e-05
8.51576e-05
7.841e-05
5.14678e-05
0.000127204
7.81585e-07
0.000191022
-6.40601e-05
0.000271124
-0.000140752
0.000368527
-0.000227316
0.000483976
-0.000321953
0.000617914
-0.000422953
0.000770476
-0.000528659
0.000941511
-0.000637463
0.00113063
-0.000747851
0.00133728
-0.00085847
0.0015608
-0.00096822
0.00180054
-0.00107635
0.0020558
-0.00118252
0.00232559
-0.00128657
-0.00138007
0.00260727
1.36478e-06
4.07447e-05
9.40615e-06
7.78966e-05
2.71531e-05
8.04704e-05
5.70752e-05
5.52355e-05
0.000101277
7.2663e-06
0.000161563
-5.95051e-05
0.000239445
-0.000141942
0.000336098
-0.000237405
0.000452308
-0.000343526
0.000588419
-0.000458063
0.000744298
-0.000578833
0.000919332
-0.000703693
0.00111246
-0.000830588
0.00132221
-0.000957606
0.00154681
-0.00108307
0.00178419
-0.0012056
0.00203205
-0.00132421
0.00228783
-0.0014383
0.00254872
-0.00154746
-0.00164419
0.00281284
2.16212e-06
3.85825e-05
1.29623e-05
6.70964e-05
3.57055e-05
5.77273e-05
7.30772e-05
1.78637e-05
0.00012733
-4.69861e-05
0.000200315
-0.00013249
0.000293447
-0.000235074
0.000407632
-0.000351589
0.000543181
-0.000479075
0.000699763
-0.000614646
0.000876381
-0.00075545
0.0010714
-0.000898716
0.00128264
-0.00104183
0.00150747
-0.00118243
0.00174293
-0.00131852
0.00198583
-0.0014485
0.00223286
-0.00157125
0.00248062
-0.00168605
0.00272575
-0.00179259
-0.00188525
0.00296681
3.12648e-06
3.54561e-05
1.71419e-05
5.3081e-05
4.5598e-05
2.92712e-05
9.13537e-05
-2.7892e-05
0.000156731
-0.000112363
0.000243498
-0.000219257
0.000352786
-0.000344362
0.000484982
-0.000483784
0.000639645
-0.000633739
0.000815477
-0.000790478
0.00101036
-0.000950334
0.00122147
-0.00110983
0.00144545
-0.0012658
0.00167858
-0.00141556
0.001917
-0.00155694
0.00215689
-0.00168839
0.00239459
-0.00180894
0.00262668
-0.00191814
0.00285015
-0.00201607
-0.00209919
0.00306409
4.28149e-06
3.11746e-05
2.20088e-05
3.53537e-05
5.69249e-05
-5.64497e-06
0.000111985
-8.29524e-05
0.000189458
-0.000189836
0.000290842
-0.000320642
0.000416737
-0.000470257
0.000566723
-0.00063377
0.000739307
-0.000806322
0.000931966
-0.000983137
0.0011413
-0.00115967
0.00136326
-0.00133179
0.00159343
-0.00149597
0.00182732
-0.00164945
0.00206063
-0.00179026
0.00228946
-0.00191722
0.00251044
-0.00202992
0.0027208
-0.0021285
0.00291845
-0.00221372
-0.00228391
0.00310318
5.64418e-06
2.55304e-05
2.76001e-05
1.33977e-05
6.97147e-05
-4.77595e-05
0.000134922
-0.000148159
0.000225257
-0.000280172
0.000341708
-0.000437093
0.000484046
-0.000612595
0.000650732
-0.000800456
0.000838952
-0.000994541
0.00104479
-0.00118898
0.00126355
-0.00137843
0.00149012
-0.00155835
0.00171935
-0.00172521
0.00194647
-0.00187657
0.00216728
-0.00201107
0.00237838
-0.00212833
0.00257724
-0.00222878
0.00276218
-0.00231344
0.00293231
-0.00238385
-0.00243987
0.00308827
7.22359e-06
1.83068e-05
3.39207e-05
-1.32994e-05
8.39175e-05
-9.77563e-05
0.00015996
-0.000224201
0.000263619
-0.000383831
0.000395072
-0.000568546
0.00055294
-0.000770463
0.000734279
-0.000981795
0.000934769
-0.00119503
0.00114909
-0.0014033
0.00137142
-0.00160076
0.00159594
-0.00178287
0.00181729
-0.00194656
0.00203095
-0.00209023
0.0022334
-0.00221352
0.00242222
-0.00231715
0.00259605
-0.0024026
0.00275444
-0.00247184
0.0028977
-0.0025271
-0.00256947
0.0030273
9.02018e-06
9.28662e-06
4.09398e-05
-4.5219e-05
9.93992e-05
-0.000156216
0.000186738
-0.00031154
0.000303775
-0.000500868
0.00044955
-0.000714321
0.00062122
-0.000942134
0.000814226
-0.0011748
0.00102271
-0.00140351
0.00124012
-0.00162071
0.00145988
-0.00182052
0.00167599
-0.00199898
0.00188346
-0.00215403
0.00207856
-0.00228532
0.00225887
-0.00239383
0.00242323
-0.00248151
0.00257152
-0.0025509
0.00270446
-0.00260477
0.00282329
-0.00264593
-0.00267627
0.00293008
1.10257e-05
-1.73905e-06
4.85906e-05
-8.2784e-05
0.00011594
-0.000223565
0.000214737
-0.000410337
0.000344724
-0.000630855
0.000503466
-0.000873063
0.000686408
-0.00112508
0.000887299
-0.00137569
0.00109889
-0.00161511
0.00131379
-0.00183561
0.00152519
-0.00203192
0.00172749
-0.00220128
0.0019166
-0.00234314
0.00208998
-0.0024587
0.00224655
-0.0025504
0.00238643
-0.00262139
0.0025106
-0.00267507
0.00262063
-0.00271481
0.00271841
-0.00274371
-0.00276412
0.00280626
1.32229e-05
-1.4962e-05
5.67697e-05
-0.000126331
0.000133237
-0.000300032
0.000243299
-0.0005204
0.000385273
-0.000772828
0.000554956
-0.00104275
0.000745947
-0.00131607
0.000950403
-0.00158015
0.00116004
-0.00182475
0.00136713
-0.0020427
0.00156526
-0.00223005
0.00174976
-0.00238578
0.00191781
-0.00251119
0.00206827
-0.00260916
0.00220138
-0.00268351
0.00231834
-0.00273835
0.00242097
-0.00277769
0.00251135
-0.00280519
0.00259163
-0.00282399
-0.00283662
0.00266412
1.55858e-05
-3.05478e-05
6.53382e-05
-0.000176083
0.00015091
-0.000385604
0.000271645
-0.000641134
0.000424101
-0.000925284
0.000602102
-0.00122075
0.000797421
-0.00151139
0.00100092
-0.00178364
0.00120378
-0.00202761
0.00139856
-0.00223748
0.00157977
-0.00241125
0.00174405
-0.00255007
0.00189006
-0.00265719
0.00201802
-0.00273712
0.00212926
-0.00279476
0.00222581
-0.0028349
0.00230994
-0.00286183
0.00238396
-0.0028792
0.00244999
-0.00289002
-0.00289674
0.00251012
1.8079e-05
-4.86268e-05
7.41236e-05
-0.000232128
0.000168515
-0.000479995
0.000298916
-0.000771535
0.000459847
-0.00108622
0.000643079
-0.00140398
0.000838768
-0.00170708
0.00103694
-0.00198182
0.00122885
-0.00221952
0.00140789
-0.00241651
0.0015699
-0.00257326
0.00171306
-0.00269323
0.00183744
-0.00278157
0.00194441
-0.00284409
0.00203615
-0.00288649
0.00211511
-0.00291386
0.00218376
-0.00293048
0.00224435
-0.00293979
0.00229882
-0.00294449
-0.00294684
0.00234892
2.06579e-05
-6.92847e-05
8.29239e-05
-0.000294394
0.00018556
-0.000582632
0.000324218
-0.000910193
0.000491198
-0.0012532
0.000676303
-0.00158908
0.000868451
-0.00189922
0.0010574
-0.00217077
0.00123507
-0.0023972
0.00139614
-0.00257757
0.001538
-0.00271513
0.00166034
-0.00281557
0.00176446
-0.00288569
0.0018526
-0.00293224
0.00192742
-0.0029613
0.00199154
-0.00297798
0.00204737
-0.00298631
0.00209694
-0.00298936
0.00214192
-0.00298947
-0.00298861
0.00218369
2.32696e-05
-9.25543e-05
9.15139e-05
-0.000362638
0.000201528
-0.000692646
0.000346678
-0.00105534
0.000516989
-0.00142351
0.000700551
-0.00177265
0.000885556
-0.00208423
0.0010621
-0.00234732
0.00122325
-0.00255835
0.00136524
-0.00271957
0.00148707
-0.00283695
0.00158975
-0.00291825
0.00167553
-0.00297147
0.00174719
-0.0030039
0.00180758
-0.00302169
0.00185927
-0.00302967
0.00190445
-0.00303148
0.00194486
-0.00302977
0.00198186
-0.00302647
-0.00302326
0.0020165
2.58537e-05
-0.000118408
9.96536e-05
-0.000436438
0.000215904
-0.000808897
0.000365498
-0.00120494
0.00053628
-0.00159429
0.000715036
-0.0019514
0.000889811
-0.002259
0.00105158
-0.00250909
0.00119491
-0.00270167
0.00131769
-0.00284235
0.00142038
-0.00293964
0.00150505
-0.00300293
0.0015746
-0.00304101
0.00163205
-0.00306135
0.00168021
-0.00306985
0.00172144
-0.00307091
0.00175765
-0.00306768
0.00179025
-0.00306238
0.00182034
-0.00305656
-0.0030516
0.00184868
2.8345e-05
-0.000146753
0.0001071
-0.000515193
0.000228204
-0.000930001
0.000380005
-0.00135674
0.000548417
-0.0017627
0.000719433
-0.00212242
0.000881528
-0.0024211
0.00102699
-0.00265455
0.00115205
-0.00282674
0.0012562
-0.00294649
0.00134111
-0.00302455
0.00140964
-0.00307146
0.00146501
-0.00309638
0.00151026
-0.00310661
0.00154801
-0.0031076
0.00158033
-0.00310323
0.0016088
-0.00309615
0.00163457
-0.00308814
0.00165845
-0.00308045
-0.00307416
0.00168102
3.06752e-05
-0.000177428
0.000113619
-0.000598137
0.000238005
-0.00105439
0.000389696
-0.00150843
0.000553057
-0.00192606
0.000713852
-0.00228321
0.000861494
-0.00256874
0.000989861
-0.00278292
0.00109688
-0.00293376
0.00118345
-0.00303306
0.00125218
-0.00309329
0.00130642
-0.00312569
0.00134946
-0.00313942
0.00138421
-0.00314135
0.00141298
-0.00313637
0.00143753
-0.00312779
0.00145915
-0.00311777
0.00147873
-0.00310772
0.00149689
-0.0030986
-0.00309129
0.00151402
3.27768e-05
-0.000210205
0.000118997
-0.000684357
0.000244965
-0.00118035
0.000394255
-0.00165772
0.000550161
-0.00208196
0.000698773
-0.00243183
0.000830834
-0.0027008
0.000941947
-0.00289403
0.00103163
-0.00302344
0.00110193
-0.00310336
0.00115612
-0.00314748
0.00119776
-0.00316733
0.00123006
-0.00317172
0.00125565
-0.00316694
0.00127654
-0.00315726
0.00129416
-0.00314541
0.00130954
-0.00313314
0.00132336
-0.00312154
0.00133608
-0.00311133
-0.00310319
0.00134798
3.45893e-05
-0.000244794
0.000123058
-0.000772826
0.000248852
-0.00130615
0.000393574
-0.00180244
0.000539978
-0.00222837
0.000674971
-0.00256682
0.000790893
-0.00281672
0.000885067
-0.0029882
0.000958406
-0.00309678
0.00101384
-0.00315879
0.00105505
-0.00318869
0.00108558
-0.00319786
0.00110843
-0.00319457
0.00112591
-0.00318443
0.00113971
-0.00317106
0.00115099
-0.00315669
0.00116053
-0.00314268
0.00116886
-0.00312987
0.00117633
-0.0031188
-0.00310998
0.00118312
3.60489e-05
-0.000280843
0.000125649
-0.000862427
0.000249514
-0.00143001
0.000387692
-0.00194062
0.000522935
-0.00236361
0.000643365
-0.00268725
0.00074305
-0.00291641
0.00082093
-0.00306608
0.000879074
-0.00315492
0.000921032
-0.00320075
0.000950635
-0.00321829
0.000971297
-0.00321852
0.000985723
-0.003209
0.000995896
-0.00319461
0.00100319
-0.00317835
0.00100851
-0.00316201
0.00101248
-0.00314665
0.0010155
-0.00313289
0.00101783
-0.00312112
-0.00311173
0.00101958
3.71097e-05
-0.000317953
0.000126679
-0.000951996
0.000246929
-0.00155026
0.000376842
-0.00207053
0.000499662
-0.00248643
0.000605016
-0.0027926
0.000688721
-0.00300011
0.000751155
-0.00312852
0.000795289
-0.00319906
0.000825047
-0.00323051
0.000844245
-0.00323749
0.000856051
-0.00323033
0.000862844
-0.00321579
0.000866281
-0.00319804
0.000867465
-0.00317953
0.00086711
-0.00316166
0.000865684
-0.00314522
0.000863495
-0.00313071
0.000860734
-0.00311836
-0.00310848
0.000857487
3.77333e-05
-0.000355686
0.000126096
-0.00104036
0.000241166
-0.00166533
0.000361368
-0.00219074
0.000470878
-0.00259594
0.000561002
-0.00288273
0.00062923
-0.00306834
0.000677167
-0.00317646
0.000708436
-0.00323033
0.000727133
-0.00324921
0.000736923
-0.00324728
0.000740673
-0.00323408
0.000740428
-0.00321554
0.000737548
-0.00319516
0.000732903
-0.00317489
0.000727043
-0.0031558
0.000720326
-0.00313851
0.000712989
-0.00312337
0.000705179
-0.00311055
-0.00310026
0.000696958
3.7893e-05
-0.000393579
0.000123898
-0.00112636
0.000232375
-0.00177381
0.00034171
-0.00230007
0.000437354
-0.00269159
0.000512368
-0.00295774
0.000565782
-0.00312176
0.000600195
-0.00321087
0.000619659
-0.00324979
0.000628275
-0.00325782
0.000629469
-0.00324847
0.000625783
-0.00323039
0.00061894
-0.0032087
0.000610038
-0.00318626
0.000599753
-0.0031646
0.000588503
-0.00314455
0.000576562
-0.00312657
0.000564114
-0.00311092
0.000551277
-0.00309771
-0.00308708
0.000538097
3.75743e-05
-0.000431153
0.000120121
-0.00120891
0.000220775
-0.00187446
0.000318362
-0.00239766
0.000399867
-0.00277309
0.000460098
-0.00301797
0.000499447
-0.00316111
0.000521279
-0.0032327
0.000529883
-0.00325839
0.000529242
-0.00325718
0.00052249
-0.00324172
0.000511838
-0.00321974
0.000498717
-0.00319558
0.000483999
-0.00317154
0.000468202
-0.0031488
0.000451637
-0.00312798
0.000434513
-0.00310944
0.000416977
-0.00309338
0.000399127
-0.00307986
-0.00306895
0.000381003
3.67745e-05
-0.000467928
0.000114842
-0.00128698
0.000206632
-0.00196625
0.000291845
-0.00248287
0.000359169
-0.00284041
0.000405085
-0.00306389
0.000431149
-0.00318717
0.000441282
-0.00324283
0.000439851
-0.00325696
0.000430632
-0.00324796
0.000416442
-0.00322753
0.000399175
-0.00320247
0.000380005
-0.00317641
0.000359614
-0.00315115
0.000338389
-0.00312758
0.000316559
-0.00310615
0.00029428
-0.00308716
0.000271671
-0.00307078
0.00024882
-0.00305701
-0.0030459
0.000225766
3.55018e-05
-0.00050343
0.000108163
-0.00135964
0.000190243
-0.00204833
0.000262685
-0.00255531
0.000315966
-0.00289369
0.000348125
-0.00309605
0.000361676
-0.00320072
0.000360912
-0.00324207
0.000350151
-0.0032462
0.000332904
-0.00323071
0.000311666
-0.00320629
0.000288043
-0.00317885
0.000262985
-0.00315135
0.000237019
-0.00312519
0.000210424
-0.00310098
0.000183362
-0.00307909
0.000155947
-0.00305975
0.000128278
-0.00304311
0.000100437
-0.00302917
-0.00301793
7.24696e-05
3.37746e-05
-0.000537204
0.000100212
-0.00142608
0.000171924
-0.00212004
0.00023139
-0.00261478
0.000270906
-0.00293321
0.000289913
-0.00311505
0.000291693
-0.0032025
0.000280745
-0.00323112
0.000261247
-0.0032267
0.000236411
-0.00320588
0.000208422
-0.00317831
0.000178628
-0.00314905
0.000147793
-0.00312052
0.000116314
-0.00309371
8.43878e-05
-0.00306906
5.21181e-05
-0.00304682
1.95832e-05
-0.00302721
-1.31357e-05
-0.00301039
-4.59544e-05
-0.00299635
-0.00298507
-7.88155e-05
3.16197e-05
-0.000568824
9.11324e-05
-0.00148559
0.000151991
-0.0021809
0.000198445
-0.00266123
0.000224571
-0.00295934
0.000231052
-0.00312153
0.000221752
-0.0031932
0.000201249
-0.00321062
0.000173507
-0.00319896
0.00014143
-0.0031738
0.000106912
-0.00314379
7.10751e-05
-0.00311322
3.45306e-05
-0.00308397
-2.42302e-06
-0.00305675
-3.96578e-05
-0.00303182
-7.71193e-05
-0.00300936
-0.000114763
-0.00298957
-0.000152522
-0.00297263
-0.000190305
-0.00295857
-0.00294734
-0.000228037
2.90711e-05
-0.000597895
8.10759e-05
-0.0015376
0.000130759
-0.00223059
0.000164297
-0.00269477
0.000177479
-0.00297252
0.000172057
-0.00311611
0.000152317
-0.00317346
0.000122806
-0.00318111
8.72295e-05
-0.00316339
4.81838e-05
-0.00313476
7.29567e-06
-0.0031029
-3.45016e-05
-0.00307142
-7.6719e-05
-0.00304176
-0.000119134
-0.00301434
-0.000161671
-0.00298929
-0.000204318
-0.00296671
-0.000247066
-0.00294682
-0.000289863
-0.00292983
-0.000332606
-0.00291583
-0.00290475
-0.000375193
2.61683e-05
-0.000624063
7.02006e-05
-0.00158163
0.000108529
-0.00226891
0.000129358
-0.0027156
0.000130087
-0.00297325
0.000113371
-0.0030994
8.37761e-05
-0.00314387
4.57316e-05
-0.00314306
2.66064e-06
-0.00312032
-4.31414e-05
-0.00308895
-9.02859e-05
-0.00305575
-0.000137999
-0.00302371
-0.000185884
-0.00299387
-0.000233771
-0.00296645
-0.000281624
-0.00294143
-0.000329469
-0.00291887
-0.000377334
-0.00289896
-0.000425186
-0.00288198
-0.00047291
-0.0028681
-0.0028573
-0.000520364
2.29553e-05
-0.000647019
5.86649e-05
-0.00161734
8.55866e-05
-0.00229584
9.40006e-05
-0.00272401
8.27966e-05
-0.00296204
5.53751e-05
-0.00307198
1.64582e-05
-0.00310495
-2.97028e-05
-0.0030969
-7.99837e-05
-0.00307003
-0.000132374
-0.00303656
-0.000185697
-0.00300243
-0.000239311
-0.00297009
-0.000292887
-0.00294029
-0.000346287
-0.00291305
-0.000399496
-0.00288822
-0.000452574
-0.00286579
-0.000505592
-0.00284594
-0.000558548
-0.00282902
-0.000611316
-0.00281534
-0.00280492
-0.000663696
1.9479e-05
-0.000666498
4.66248e-05
-0.00164448
6.21983e-05
-0.00231141
5.85608e-05
-0.00272038
3.59612e-05
-0.00293944
-1.60168e-06
-0.00303441
-4.93499e-05
-0.0030572
-0.000103257
-0.00304299
-0.000160502
-0.00301279
-0.000219343
-0.00297772
-0.000278791
-0.00294298
-0.000338314
-0.00291057
-0.000397633
-0.00288098
-0.000456619
-0.00285407
-0.000515261
-0.00282958
-0.000573639
-0.00280741
-0.00063187
-0.00278771
-0.000690003
-0.00277089
-0.000747909
-0.00275743
-0.00274753
-0.000805296
1.57883e-05
-0.000682286
3.42315e-05
-0.00166293
3.86116e-05
-0.00231579
2.33408e-05
-0.00270511
-1.01084e-05
-0.00290599
-5.72698e-05
-0.00298725
-0.000113393
-0.00300108
-0.000174708
-0.00298168
-0.000238695
-0.0029488
-0.000303861
-0.00291256
-0.00036939
-0.00287745
-0.000434847
-0.00284511
-0.000499986
-0.00281584
-0.000564674
-0.00278938
-0.000628876
-0.00276538
-0.000692668
-0.00274362
-0.000756206
-0.00272417
-0.000819605
-0.00270749
-0.000882748
-0.00269429
-0.00268507
-0.000945207
1.19327e-05
-0.000694219
2.16292e-05
-0.00167262
1.50534e-05
-0.00230921
-1.13897e-05
-0.00267866
-5.51375e-05
-0.00286225
-0.000111373
-0.00293102
-0.000175438
-0.00293701
-0.000243839
-0.00291328
-0.000314349
-0.00287829
-0.000385711
-0.0028412
-0.000457269
-0.00280589
-0.000528679
-0.0027737
-0.000599733
-0.00274478
-0.000670282
-0.00271883
-0.000740248
-0.00269541
-0.000809662
-0.00267421
-0.00087869
-0.00265514
-0.000947521
-0.00263866
-0.00101607
-0.00262574
-0.00261734
-0.0010838
7.96166e-06
-0.00070218
8.95368e-06
-0.00167361
-8.27014e-06
-0.00229199
-4.5391e-05
-0.00264154
-9.88842e-05
-0.00280875
-0.000163681
-0.00286622
-0.000235268
-0.00286543
-0.000310436
-0.00283811
-0.00038724
-0.00280149
-0.000464643
-0.00276379
-0.000542144
-0.00272839
-0.000619497
-0.00269635
-0.000696546
-0.00266773
-0.000773143
-0.00264223
-0.000849159
-0.0026194
-0.000924551
-0.00259881
-0.00099946
-0.00258024
-0.00107416
-0.00256396
-0.00114865
-0.00255125
-0.00254343
-0.00122256
3.92321e-06
-0.000706103
-3.66941e-06
-0.00166602
-3.11748e-05
-0.00226448
-7.84529e-05
-0.00259426
-0.000141137
-0.00274607
-0.000213992
-0.00279336
-0.000292681
-0.00278674
-0.000374283
-0.00275651
-0.000457121
-0.00271865
-0.000540366
-0.00268055
-0.000623667
-0.00264509
-0.000706894
-0.00261312
-0.000789973
-0.00258466
-0.0008728
-0.0025594
-0.000955227
-0.00253697
-0.00103714
-0.0025169
-0.00111863
-0.00249874
-0.00120008
-0.00248251
-0.00128171
-0.00246962
-0.00246105
-0.00136409
-1.37009e-07
-0.000705966
-1.61264e-05
-0.00165003
-5.3499e-05
-0.00222711
-0.000110395
-0.00253737
-0.000181716
-0.00267475
-0.000262126
-0.00271295
-0.00034749
-0.00270137
-0.000435168
-0.00266883
-0.000523729
-0.00263009
-0.000612538
-0.00259174
-0.000701397
-0.00255623
-0.00079031
-0.00252421
-0.000879343
-0.00249562
-0.000968523
-0.00247022
-0.0010578
-0.0024477
-0.00114705
-0.00242764
-0.00123629
-0.00240951
-0.00132586
-0.00239294
-0.00141631
-0.00237916
-0.002367
-0.00151037
-4.17691e-06
-0.00070179
-2.83173e-05
-0.00162589
-7.51059e-05
-0.00218032
-0.00014107
-0.0024714
-0.000220476
-0.00259534
-0.00030794
-0.00262549
-0.000399542
-0.00260977
-0.000492898
-0.00257547
-0.000586802
-0.00253619
-0.00068078
-0.00249776
-0.000774766
-0.00246225
-0.000868903
-0.00243007
-0.000963436
-0.00240109
-0.00105865
-0.00237501
-0.00115482
-0.00235153
-0.00125215
-0.00233032
-0.00135075
-0.00231091
-0.00145117
-0.00229251
-0.00155564
-0.00227469
-0.00226868
-0.00165397
-8.14687e-06
-0.000693643
-4.01375e-05
-0.0015939
-9.58617e-05
-0.0021246
-0.00017034
-0.00239692