/*--------------------------------*- C++ -*----------------------------------*\
  =========                 |
  \\      /  F ield         | OpenFOAM: The Open Source CFD Toolbox
   \\    /   O peration     | Website:  https://openfoam.org
    \\  /    A nd           | Version:  6.0
     \\/     M anipulation  |
\*---------------------------------------------------------------------------*/
FoamFile
{
    version     2.0;
    format      ascii;
    class       surfaceScalarField;
    location    "38";
    object      phi;
}
// * * * * * * * * * * * * * * * * * * * * * * * * * * * * * * * * * * * * * //

dimensions      [0 3 -1 0 0 0 0];

internalField   nonuniform List<scalar> 
7840
(
3.45895e-05
-0.000244807
0.000123058
-0.000772857
0.00024885
-0.00130619
0.000393569
-0.00180249
0.000539968
-0.00222841
0.000674955
-0.00256686
0.000790871
-0.00281675
0.00088504
-0.00298823
0.000958373
-0.00309679
0.00101381
-0.0031588
0.00105501
-0.00318869
0.00108553
-0.00319786
0.00110838
-0.00319457
0.00112586
-0.00318443
0.00113966
-0.00317105
0.00115093
-0.00315668
0.00116047
-0.00314267
0.0011688
-0.00312986
0.00117627
-0.00311879
-0.00310996
0.00118306
3.60489e-05
-0.000280856
0.000125649
-0.000862457
0.000249511
-0.00143005
0.000387686
-0.00194066
0.000522924
-0.00236365
0.000643348
-0.00268728
0.000743027
-0.00291643
0.000820902
-0.0030661
0.000879041
-0.00315493
0.000920995
-0.00320076
0.000950595
-0.00321829
0.000971253
-0.00321852
0.000985677
-0.00320899
0.000995848
-0.0031946
0.00100314
-0.00317834
0.00100846
-0.003162
0.00101243
-0.00314664
0.00101545
-0.00313288
0.00101777
-0.00312111
-0.00311171
0.00101952
3.71096e-05
-0.000317966
0.000126677
-0.000952025
0.000246925
-0.0015503
0.000376834
-0.00207057
0.000499649
-0.00248646
0.000604998
-0.00279263
0.000688698
-0.00300013
0.000751127
-0.00312853
0.000795256
-0.00319906
0.000825011
-0.00323051
0.000844206
-0.00323749
0.000856009
-0.00323032
0.0008628
-0.00321578
0.000866236
-0.00319803
0.000867418
-0.00317952
0.000867062
-0.00316165
0.000865634
-0.00314521
0.000863444
-0.00313069
0.000860682
-0.00311835
-0.00310846
0.000857433
3.7733e-05
-0.000355699
0.000126094
-0.00104039
0.000241161
-0.00166537
0.00036136
-0.00219077
0.000470865
-0.00259597
0.000560983
-0.00288275
0.000629206
-0.00306836
0.000677139
-0.00317646
0.000708405
-0.00323033
0.000727098
-0.0032492
0.000736885
-0.00324728
0.000740634
-0.00323407
0.000740386
-0.00321554
0.000737505
-0.00319515
0.000732859
-0.00317488
0.000726997
-0.00315578
0.000720279
-0.00313849
0.000712941
-0.00312335
0.00070513
-0.00311054
-0.00310024
0.000696907
3.78926e-05
-0.000393592
0.000123896
-0.00112639
0.00023237
-0.00177384
0.000341701
-0.0023001
0.00043734
-0.00269161
0.000512349
-0.00295776
0.000565759
-0.00312177
0.000600167
-0.00321087
0.000619628
-0.00324979
0.000628241
-0.00325782
0.000629434
-0.00324847
0.000625746
-0.00323038
0.000618901
-0.00320869
0.000609997
-0.00318625
0.000599711
-0.00316459
0.00058846
-0.00314453
0.000576517
-0.00312655
0.000564069
-0.0031109
0.000551231
-0.0030977
-0.00308706
0.00053805
3.75738e-05
-0.000431165
0.000120119
-0.00120893
0.000220769
-0.00187449
0.000318352
-0.00239768
0.000399852
-0.00277311
0.000460079
-0.00301798
0.000499424
-0.00316111
0.000521252
-0.0032327
0.000529854
-0.00325839
0.000529211
-0.00325717
0.000522457
-0.00324171
0.000511802
-0.00321973
0.00049868
-0.00319557
0.000483961
-0.00317153
0.000468162
-0.00314879
0.000451596
-0.00312797
0.000434471
-0.00310943
0.000416935
-0.00309337
0.000399084
-0.00307985
-0.00306894
0.000380959
3.67738e-05
-0.000467939
0.000114839
-0.001287
0.000206625
-0.00196628
0.000291835
-0.00248289
0.000359154
-0.00284043
0.000405066
-0.0030639
0.000431126
-0.00318717
0.000441256
-0.00324283
0.000439824
-0.00325696
0.000430602
-0.00324795
0.00041641
-0.00322752
0.000399141
-0.00320246
0.00037997
-0.0031764
0.000359579
-0.00315114
0.000338353
-0.00312756
0.000316521
-0.00310614
0.000294241
-0.00308715
0.000271632
-0.00307076
0.00024878
-0.00305699
-0.00304588
0.000225725
3.5501e-05
-0.00050344
0.00010816
-0.00135966
0.000190237
-0.00204835
0.000262674
-0.00255533
0.000315952
-0.0028937
0.000348107
-0.00309605
0.000361655
-0.00320072
0.000360888
-0.00324206
0.000350125
-0.00324619
0.000332875
-0.0032307
0.000311636
-0.00320628
0.000288011
-0.00317884
0.000262953
-0.00315134
0.000236985
-0.00312517
0.00021039
-0.00310097
0.000183327
-0.00307907
0.000155911
-0.00305973
0.000128241
-0.00304309
0.000100399
-0.00302915
-0.00301791
7.24314e-05
3.37737e-05
-0.000537214
0.000100209
-0.00142609
0.000171917
-0.00212006
0.00023138
-0.00261479
0.000270892
-0.00293322
0.000289895
-0.00311505
0.000291672
-0.0032025
0.000280722
-0.00323111
0.000261222
-0.00322669
0.000236384
-0.00320587
0.000208394
-0.00317829
0.000178599
-0.00314904
0.000147762
-0.0031205
0.000116282
-0.00309369
8.43555e-05
-0.00306904
5.2085e-05
-0.0030468
1.95493e-05
-0.0030272
-1.31702e-05
-0.00301037
-4.59895e-05
-0.00299633
-0.00298505
-7.88512e-05
3.16188e-05
-0.000568833
9.11291e-05
-0.0014856
0.000151985
-0.00218092
0.000198434
-0.00266124
0.000224557
-0.00295934
0.000231035
-0.00312153
0.000221733
-0.00319319
0.000201227
-0.00321061
0.000173484
-0.00319895
0.000141405
-0.00317379
0.000106885
-0.00314377
7.10476e-05
-0.0031132
3.45021e-05
-0.00308396
-2.45238e-06
-0.00305674
-3.9688e-05
-0.00303181
-7.71502e-05
-0.00300934
-0.000114794
-0.00298955
-0.000152554
-0.00297261
-0.000190337
-0.00295855
-0.00294732
-0.00022807
2.90701e-05
-0.000597903
8.10725e-05
-0.00153761
0.000130753
-0.0022306
0.000164287
-0.00269478
0.000177465
-0.00297252
0.000172041
-0.00311611
0.000152299
-0.00317345
0.000122785
-0.00318109
8.72073e-05
-0.00316337
4.81603e-05
-0.00313474
7.27099e-06
-0.00310288
-3.45273e-05
-0.0030714
-7.67456e-05
-0.00304174
-0.000119161
-0.00301432
-0.000161699
-0.00298927
-0.000204347
-0.00296669
-0.000247096
-0.0029468
-0.000289893
-0.00292981
-0.000332636
-0.00291581
-0.00290473
-0.000375224
2.61673e-05
-0.00062407
7.01972e-05
-0.00158164
0.000108523
-0.00226892
0.000129348
-0.0027156
0.000130074
-0.00297324
0.000113356
-0.00309939
8.37585e-05
-0.00314385
4.57122e-05
-0.00314305
2.63987e-06
-0.0031203
-4.31634e-05
-0.00308894
-9.03089e-05
-0.00305574
-0.000138023
-0.00302369
-0.000185908
-0.00299385
-0.000233796
-0.00296643
-0.00028165
-0.00294141
-0.000329496
-0.00291885
-0.000377361
-0.00289894
-0.000425214
-0.00288196
-0.000472938
-0.00286808
-0.00285728
-0.000520393
2.29543e-05
-0.000647024
5.86615e-05
-0.00161734
8.55802e-05
-0.00229584
9.39911e-05
-0.00272401
8.27843e-05
-0.00296204
5.53605e-05
-0.00307196
1.64417e-05
-0.00310494
-2.97209e-05
-0.00309688
-8.00031e-05
-0.00307002
-0.000132394
-0.00303655
-0.000185719
-0.00300241
-0.000239333
-0.00297008
-0.00029291
-0.00294028
-0.000346311
-0.00291303
-0.000399521
-0.0028882
-0.000452599
-0.00286577
-0.000505617
-0.00284592
-0.000558574
-0.002829
-0.000611342
-0.00281532
-0.00280489
-0.000663723
1.9478e-05
-0.000666502
4.66214e-05
-0.00164449
6.2192e-05
-0.00231141
5.85517e-05
-0.00272037
3.59495e-05
-0.00293943
-1.61543e-06
-0.0030344
-4.93654e-05
-0.00305719
-0.000103274
-0.00304298
-0.00016052
-0.00301277
-0.000219362
-0.00297771
-0.000278811
-0.00294296
-0.000338335
-0.00291055
-0.000397654
-0.00288096
-0.000456642
-0.00285405
-0.000515284
-0.00282956
-0.000573662
-0.00280739
-0.000631893
-0.00278769
-0.000690027
-0.00277087
-0.000747934
-0.00275741
-0.00274751
-0.000805321
1.57872e-05
-0.00068229
3.42282e-05
-0.00166293
3.86056e-05
-0.00231579
2.33321e-05
-0.0027051
-1.01194e-05
-0.00290598
-5.72827e-05
-0.00298724
-0.000113407
-0.00300106
-0.000174724
-0.00298166
-0.000238712
-0.00294878
-0.000303878
-0.00291254
-0.000369409
-0.00287743
-0.000434866
-0.00284509
-0.000500006
-0.00281582
-0.000564695
-0.00278936
-0.000628898
-0.00276536
-0.00069269
-0.0027436
-0.000756228
-0.00272415
-0.000819627
-0.00270747
-0.00088277
-0.00269427
-0.00268505
-0.00094523
1.19317e-05
-0.000694221
2.1626e-05
-0.00167262
1.50477e-05
-0.00230921
-1.13979e-05
-0.00267865
-5.51478e-05
-0.00286223
-0.000111385
-0.002931
-0.000175451
-0.00293699
-0.000243854
-0.00291326
-0.000314365
-0.00287827
-0.000385728
-0.00284118
-0.000457287
-0.00280587
-0.000528698
-0.00277368
-0.000599752
-0.00274476
-0.000670302
-0.00271881
-0.000740268
-0.00269539
-0.000809682
-0.00267418
-0.00087871
-0.00265512
-0.000947542
-0.00263864
-0.00101609
-0.00262571
-0.00261732
-0.00108382
7.96064e-06
-0.000702182
8.9506e-06
-0.00167361
-8.2756e-06
-0.00229198
-4.53987e-05
-0.00264153
-9.88938e-05
-0.00280874
-0.000163693
-0.0028662
-0.000235281
-0.00286541
-0.00031045
-0.00283809
-0.000387254
-0.00280147
-0.000464658
-0.00276377
-0.00054216
-0.00272837
-0.000619514
-0.00269633
-0.000696563
-0.00266771
-0.000773161
-0.00264221
-0.000849178
-0.00261938
-0.00092457
-0.00259879
-0.000999479
-0.00258021
-0.00107418
-0.00256393
-0.00114867
-0.00255123
-0.00254341
-0.00122258
3.92223e-06
-0.000706104
-3.67235e-06
-0.00166602
-3.11799e-05
-0.00226448
-7.84601e-05
-0.00259425
-0.000141146
-0.00274605
-0.000214002
-0.00279334
-0.000292692
-0.00278672
-0.000374296
-0.00275648
-0.000457135
-0.00271863
-0.00054038
-0.00268053
-0.000623682
-0.00264507
-0.00070691
-0.0026131
-0.000789989
-0.00258463
-0.000872817
-0.00255938
-0.000955244
-0.00253695
-0.00103716
-0.00251688
-0.00111865
-0.00249872
-0.0012001
-0.00248248
-0.00128173
-0.0024696
-0.00246103
-0.00136411
-1.37958e-07
-0.000705966
-1.61292e-05
-0.00165003
-5.35039e-05
-0.0022271
-0.000110402
-0.00253735
-0.000181724
-0.00267473
-0.000262135
-0.00271293
-0.000347501
-0.00270135
-0.00043518
-0.00266881
-0.000523742
-0.00263007
-0.000612552
-0.00259172
-0.000701411
-0.00255621
-0.000790325
-0.00252419
-0.000879357
-0.0024956
-0.000968539
-0.0024702
-0.00105781
-0.00244767
-0.00114707
-0.00242762
-0.00123631
-0.00240948
-0.00132587
-0.00239292
-0.00141633
-0.00237914
-0.00236698
-0.00151038
-4.17782e-06
-0.000701788
-2.832e-05
-0.00162589
-7.51105e-05
-0.00218031
-0.000141077
-0.00247139
-0.000220483
-0.00259532
-0.000307949
-0.00262547
-0.000399552
-0.00260975
-0.000492909
-0.00257545
-0.000586813
-0.00253616
-0.000680792
-0.00249774
-0.000774779
-0.00246222
-0.000868917
-0.00243005
-0.00096345
-0.00240107
-0.00105866
-0.00237499
-0.00115484
-0.0023515
-0.00125216
-0.00233029
-0.00135076
-0.00231088
-0.00145119
-0.00229249
-0.00155566
-0.00227467
-0.00226865
-0.00165399
-8.14774e-06
-0.000693641
-4.01399e-05
-0.00159389
-9.58659e-05
-0.00212459
-0.000170346
-0.00239691
-0.000257296
-0.00250837
-0.000351326
-0.00253144
-0.000448725
-0.00251235
-0.000547346
-0.00247683
-0.000646161
-0.00243735
-0.000744814
-0.00239909
-0.000843306
-0.00236373
-0.000941828
-0.00233153
-0.0010407
-0.00230219
-0.00114037
-0.00227531
-0.00124147
-0.00225041
-0.0013448
-0.00222696
-0.00145124
-0.00220444
-0.0015612
-0.00218254
-0.00167561
-0.00216025
-0.00213063
-0.00181364
-1.20363e-05
-0.000681604
-5.15558e-05
-0.00155437
-0.000115728
-0.00206041
-0.000198176
-0.00231446
-0.000292142
-0.00241441
-0.000392262
-0.00243132
-0.000495029
-0.00240958
-0.000598508
-0.00237335
-0.000701819
-0.00233404
-0.000804681
-0.00229622
-0.000907103
-0.00226131
-0.00100922
-0.00222941
-0.00111121
-0.0022002
-0.0012133
-0.00217323
-0.00131572
-0.00214799
-0.00141866
-0.00212401
-0.00152221
-0.0021009
-0.00162658
-0.00207817
-0.00173246
-0.00205437
-0.00202604
-0.00183704
-1.58047e-05
-0.0006658
-6.24934e-05
-0.00150768
-0.000134612
-0.00198829
-0.000224492
-0.00222458
-0.000324969
-0.00231393
-0.000430729
-0.00232556
-0.000538461
-0.00230185
-0.000646424
-0.00226539
-0.000753866
-0.00222659
-0.000860573
-0.00218952
-0.000966574
-0.00215531
-0.00107199
-0.00212399
-0.00117697
-0.00209522
-0.00128163
-0.00206856
-0.00138607
-0.00204355
-0.0014903
-0.00201979
-0.00159429
-0.00199691
-0.00169799
-0.00197447
-0.0018007
-0.00195165
-0.00192762
-0.00189913
-1.94307e-05
-0.000646369
-7.29112e-05
-0.0014542
-0.000152477
-0.00190873
-0.000249267
-0.00212779
-0.000355775
-0.00220742
-0.000466751
-0.00221458
-0.000579076
-0.00218952
-0.000691175
-0.00215329
-0.000802408
-0.00211536
-0.000912607
-0.00207932
-0.0010218
-0.00204611
-0.0011301
-0.0020157
-0.00123758
-0.00198774
-0.0013443
-0.00196183
-0.00145028
-0.00193757
-0.00155544
-0.00191463
-0.00165963
-0.00189271
-0.00176259
-0.00187152
-0.00186364
-0.00185059
-0.00182952
-0.00196175
-2.28964e-05
-0.000623472
-8.27784e-05
-0.00139432
-0.000169296
-0.00182221
-0.000272497
-0.00202459
-0.000384582
-0.00209534
-0.000500381
-0.00209878
-0.000616956
-0.00207295
-0.000732891
-0.00203735
-0.000847641
-0.00200061
-0.000961084
-0.00196588
-0.00107326
-0.00193393
-0.00118426
-0.00190471
-0.00129414
-0.00187786
-0.00140294
-0.00185303
-0.00151064
-0.00182987
-0.00161717
-0.00180811
-0.00172237
-0.00178751
-0.00182602
-0.00176788
-0.0019277
-0.00174891
-0.00173038
-0.00202684
-2.61876e-05
-0.000597285
-9.20736e-05
-0.00132844
-0.000185056
-0.00172923
-0.000294187
-0.00191546
-0.000411421
-0.0019781
-0.000531676
-0.00197853
-0.000652188
-0.00195244
-0.000771684
-0.00191786
-0.000889708
-0.00188259
-0.00100618
-0.0018494
-0.00112116
-0.00181895
-0.00123473
-0.00179114
-0.00134695
-0.00176564
-0.00145786
-0.00174212
-0.00156744
-0.0017203
-0.00167563
-0.00169992
-0.00178232
-0.00168081
-0.00188738
-0.00166282
-0.00199059
-0.00164569
-0.00162928
-0.00209169
-2.92932e-05
-0.000567992
-0.000100782
-0.00125695
-0.000199753
-0.00163026
-0.000314354
-0.00180086
-0.000436331
-0.00185613
-0.0005607
-0.00185416
-0.000684859
-0.00182828
-0.000807668
-0.00179505
-0.000928753
-0.0017615
-0.00104808
-0.00173008
-0.00116571
-0.00170132
-0.00128176
-0.00167509
-0.00139629
-0.00165111
-0.00150935
-0.00162906
-0.00162094
-0.0016087
-0.00173105
-0.00158982
-0.00183961
-0.00157225
-0.00194657
-0.00155586
-0.00205184
-0.00154042
-0.00152585
-0.00215527
-3.22047e-05
-0.000535787
-0.000108895
-0.00118026
-0.000213389
-0.00152576
-0.000333016
-0.00168123
-0.000459352
-0.00172979
-0.00058751
-0.001726
-0.000715044
-0.00170075
-0.000840935
-0.00166916
-0.000964885
-0.00163755
-0.00108689
-0.00160807
-0.00120707
-0.00158115
-0.00132551
-0.00155665
-0.00144231
-0.0015343
-0.00155754
-0.00151384
-0.00167123
-0.00149502
-0.00178339
-0.00147765
-0.00189402
-0.00146161
-0.00200312
-0.00144676
-0.00211066
-0.00143288
-0.00141994
-0.00221657
-3.49151e-05
-0.000500872
-0.000116404
-0.00109877
-0.000225968
-0.0014162
-0.000350194
-0.001557
-0.000480519
-0.00159947
-0.000612158
-0.00159436
-0.000742806
-0.0015701
-0.000871558
-0.0015404
-0.000998182
-0.00151093
-0.00112272
-0.00148353
-0.0012453
-0.00145857
-0.00136604
-0.0014359
-0.00148506
-0.00141528
-0.00160244
-0.00139645
-0.00171825
-0.00137921
-0.00183252
-0.00136338
-0.0019453
-0.00134884
-0.00205662
-0.00133544
-0.00216649
-0.00132301
-0.00131153
-0.0022749
-3.74189e-05
-0.000463453
-0.000123307
-0.00101288
-0.000237493
-0.00130201
-0.000365905
-0.00142859
-0.000499864
-0.00146551
-0.000634684
-0.00145954
-0.000768194
-0.00143659
-0.000899589
-0.00140901
-0.0010287
-0.00138182
-0.00115561
-0.00135663
-0.00128045
-0.00133372
-0.00140339
-0.00131297
-0.00152454
-0.00129413
-0.00164402
-0.00127698
-0.0017619
-0.00126132
-0.00187827
-0.00124701
-0.00199318
-0.00123392
-0.0021067
-0.00122193
-0.00221887
-0.00121084
-0.00120069
-0.0023297
-3.97111e-05
-0.000423742
-0.000129598
-0.000922994
-0.000247969
-0.00118364
-0.000380165
-0.0012964
-0.000517413
-0.00132826
-0.000655122
-0.00132183
-0.000791243
-0.00130047
-0.000925062
-0.00127519
-0.00105647
-0.00125041
-0.00118557
-0.00122752
-0.00131254
-0.00120676
-0.00143754
-0.00118797
-0.00156071
-0.00117095
-0.00168219
-0.0011555
-0.00180208
-0.00114144
-0.00192046
-0.00112863
-0.00203743
-0.00111695
-0.00215306
-0.00110629
-0.00226742
-0.00109648
-0.00108757
-0.00238055
-4.17876e-05
-0.000381954
-0.000135275
-0.000829507
-0.0002574
-0.00106152
-0.000392985
-0.00116081
-0.000533183
-0.00118806
-0.000673493
-0.00118152
-0.000811976
-0.00116198
-0.000948
-0.00113917
-0.0010815
-0.00111691
-0.00121262
-0.00109641
-0.00134154
-0.00107783
-0.00146846
-0.00106106
-0.00159352
-0.00104589
-0.00171687
-0.00103215
-0.00183863
-0.00101967
-0.00195892
-0.00100834
-0.00207782
-0.000998049
-0.00219544
-0.000988678
-0.00231184
-0.000980081
-0.000972321
-0.00242709
-4.36445e-05
-0.00033831
-0.000140333
-0.000732818
-0.000265788
-0.000936062
-0.000404375
-0.00102222
-0.00054719
-0.00104525
-0.000689814
-0.0010389
-0.000830408
-0.00102139
-0.00096841
-0.00100116
-0.0011038
-0.00098152
-0.00123674
-0.000963462
-0.00136745
-0.000947129
-0.0014961
-0.0009324
-0.00162289
-0.000919102
-0.00174796
-0.000907075
-0.00187146
-0.000896182
-0.00199349
-0.00088631
-0.00211417
-0.000877368
-0.0022336
-0.000869245
-0.00235187
-0.000861813
-0.000855144
-0.00246905
-4.52781e-05
-0.000293032
-0.000144771
-0.000633325
-0.000273132
-0.000807701
-0.000414339
-0.000881016
-0.000559441
-0.000900144
-0.000704094
-0.000894244
-0.000846545
-0.000878938
-0.000986293
-0.000861415
-0.00112336
-0.000844457
-0.00125792
-0.000828896
-0.00139021
-0.00081484
-0.00152043
-0.00080218
-0.00164877
-0.000790766
-0.00177538
-0.000780458
-0.00190043
-0.000771138
-0.00202403
-0.000762709
-0.00214631
-0.00075509
-0.00226737
-0.000748183
-0.0023873
-0.000741878
-0.000736249
-0.0025062
-4.66852e-05
-0.000246346
-0.000148583
-0.000531428
-0.000279432
-0.000676851
-0.000422881
-0.000737568
-0.000569941
-0.000753084
-0.000716337
-0.000747848
-0.000860387
-0.000734887
-0.00100165
-0.000720157
-0.00114016
-0.000705943
-0.00127613
-0.000692921
-0.0014098
-0.000681171
-0.00154139
-0.000670598
-0.00167108
-0.000661076
-0.00179905
-0.000652488
-0.00192545
-0.000644735
-0.00205042
-0.000637734
-0.0021741
-0.000631417
-0.00229658
-0.000625699
-0.00241797
-0.00062049
-0.000615861
-0.00253836
-4.78629e-05
-0.000198484
-0.000151767
-0.000427524
-0.000284687
-0.00054393
-0.000430001
-0.000592255
-0.000578693
-0.000604391
-0.000726544
-0.000599997
-0.000871934
-0.000589497
-0.00101446
-0.000577632
-0.00115419
-0.000566209
-0.00129136
-0.000555757
-0.00142619
-0.000546335
-0.00155893
-0.000537863
-0.00168976
-0.000530241
-0.00181888
-0.000523373
-0.00194643
-0.000517179
-0.00207257
-0.000511595
-0.00219743
-0.000506562
-0.00232112
-0.000502013
-0.00244373
-0.000497875
-0.000494213
-0.00256538
-4.88084e-05
-0.000149675
-0.000154318
-0.000322014
-0.000288895
-0.000409354
-0.000435699
-0.000445451
-0.000585697
-0.000454394
-0.000734714
-0.00045098
-0.00088118
-0.00044303
-0.00102473
-0.000434086
-0.00116544
-0.000425491
-0.00130357
-0.000417634
-0.00143935
-0.000410556
-0.00157301
-0.000404196
-0.00170478
-0.000398477
-0.00183482
-0.000393328
-0.00196331
-0.00038869
-0.00209039
-0.000384511
-0.00221621
-0.00038075
-0.00234087
-0.000377354
-0.00246447
-0.000374268
-0.000371546
-0.00258714
-4.95196e-05
-0.000100155
-0.000156235
-0.000215299
-0.000292054
-0.000273535
-0.000439975
-0.000297529
-0.000590952
-0.000303417
-0.000740845
-0.000301087
-0.000888122
-0.000295754
-0.00103244
-0.000289772
-0.0011739
-0.000284031
-0.00131274
-0.000278786
-0.00144924
-0.000274063
-0.00158361
-0.000269822
-0.00171608
-0.00026601
-0.00184683
-0.000262581
-0.00197602
-0.000259493
-0.00210382
-0.000256713
-0.00223036
-0.000254213
-0.00235575
-0.000251957
-0.00248011
-0.00024991
-0.000248109
-0.00260355
-4.99949e-05
-5.01606e-05
-0.000157515
-0.000107779
-0.000294161
-0.000136889
-0.000442827
-0.000148863
-0.000594458
-0.000151786
-0.000744936
-0.000150609
-0.000892754
-0.000147936
-0.00103758
-0.000144943
-0.00117954
-0.000142073
-0.00131887
-0.000139452
-0.00145585
-0.000137093
-0.00159069
-0.000134975
-0.00172363
-0.000133072
-0.00185485
-0.000131361
-0.00198452
-0.00012982
-0.0021128
-0.000128435
-0.00223983
-0.000127189
-0.00236572
-0.000126066
-0.00249058
-0.000125048
-0.000124153
-0.00261453
-5.02329e-05
7.23178e-08
-0.000158155
1.4388e-07
-0.000295216
1.71678e-07
-0.000444255
1.76536e-07
-0.000596213
1.71286e-07
-0.000746984
1.62509e-07
-0.000895073
1.52985e-07
-0.00104016
1.43657e-07
-0.00118237
1.3476e-07
-0.00132195
1.26321e-07
-0.00145916
1.18327e-07
-0.00159424
1.10762e-07
-0.00172742
1.03613e-07
-0.00185887
9.68652e-08
-0.00198879
9.05053e-08
-0.00211731
8.45214e-08
-0.00224457
7.89011e-08
-0.00237071
7.36201e-08
-0.00249583
6.86359e-08
6.39599e-08
-0.00262005
-5.02334e-05
5.03057e-05
-0.000158157
0.000108067
-0.000295218
0.000137233
-0.000444258
0.000149217
-0.000596217
0.00015213
-0.000746989
0.000150935
-0.000895078
0.000148243
-0.00104017
0.000145231
-0.00118237
0.000142343
-0.00132195
0.000139705
-0.00145916
0.00013733
-0.00159425
0.000135197
-0.00172743
0.00013328
-0.00185888
0.000131555
-0.0019888
0.000130002
-0.00211731
0.000128604
-0.00224458
0.000127348
-0.00237072
0.000126214
-0.00249584
0.000125185
0.000124281
-0.00262006
-4.99963e-05
0.000100302
-0.000157519
0.00021559
-0.000294168
0.000273882
-0.000442837
0.000297886
-0.00059447
0.000303762
-0.00074495
0.000301415
-0.00089277
0.000296062
-0.0010376
0.000290062
-0.00117956
0.000284302
-0.0013189
0.000279041
-0.00145587
0.000274302
-0.00159072
0.000270045
-0.00172366
0.000266219
-0.00185488
0.000262776
-0.00198455
0.000259675
-0.00211283
0.000256884
-0.00223986
0.000254372
-0.00236575
0.000252106
-0.00249061
0.000250049
0.000248238
-0.00261457
-4.95219e-05
0.000149824
-0.000156242
0.000322309
-0.000292065
0.000409705
-0.000439991
0.000445812
-0.000590972
0.000454744
-0.000740869
0.000451312
-0.000888148
0.000443342
-0.00103247
0.000434379
-0.00117393
0.000425766
-0.00131278
0.000417892
-0.00144927
0.000410797
-0.00158365
0.000404422
-0.00171612
0.000398688
-0.00184687
0.000393526
-0.00197607
0.000388874
-0.00210387
0.000384684
-0.00223041
0.000380911
-0.00235581
0.000377504
-0.00248016
0.000374408
0.000371677
-0.0026036
-4.88116e-05
0.000198635
-0.000154327
0.000427825
-0.000288911
0.000544289
-0.000435721
0.000592622
-0.000585725
0.000604747
-0.000734747
0.000600334
-0.000881218
0.000589813
-0.00102477
0.000577929
-0.00116549
0.000566488
-0.00130362
0.000556019
-0.0014394
0.00054658
-0.00157307
0.000538092
-0.00170484
0.000530455
-0.00183488
0.000523573
-0.00196338
0.000517366
-0.00209046
0.00051177
-0.00221628
0.000506725
-0.00234094
0.000502165
-0.00246455
0.000498017
0.000494345
-0.00258722
-4.7867e-05
0.000246502
-0.000151778
0.000531737
-0.000284708
0.000677218
-0.000430029
0.000737943
-0.000578728
0.000753446
-0.000726586
0.000748191
-0.000871982
0.00073521
-0.00101451
0.00072046
-0.00115425
0.000706227
-0.00129142
0.000693187
-0.00142626
0.00068142
-0.001559
0.000670831
-0.00168984
0.000661295
-0.00181896
0.000652693
-0.00194652
0.000644925
-0.00207266
0.000637912
-0.00219752
0.000631583
-0.00232121
0.000625854
-0.00244383
0.000620634
0.000615996
-0.00256548
-4.66902e-05
0.000293193
-0.000148597
0.000633644
-0.000279457
0.000808078
-0.000422915
0.000881402
-0.000569985
0.000900516
-0.000716388
0.000894595
-0.000860447
0.000879268
-0.00100171
0.000861725
-0.00114023
0.000844747
-0.00127621
0.000829168
-0.00140989
0.000815095
-0.00154148
0.000802419
-0.00167117
0.000790989
-0.00179914
0.000780667
-0.00192555
0.000771333
-0.00205053
0.000762892
-0.00217421
0.00075526
-0.0022967
0.000748341
-0.00241809
0.000742025
0.000736387
-0.00253848
-4.5284e-05
0.000338477
-0.000144788
0.000733147
-0.000273161
0.000936452
-0.00041438
0.00102262
-0.000559492
0.00104563
-0.000704155
0.00103926
-0.000846615
0.00102173
-0.000986372
0.00100148
-0.00112344
0.000981818
-0.00125802
0.000963741
-0.00139031
0.00094739
-0.00152054
0.000932645
-0.00164888
0.000919332
-0.0017755
0.00090729
-0.00190055
0.000896382
-0.00202416
0.000886497
-0.00214644
0.000877542
-0.0022675
0.000869407
-0.00238744
0.000861964
0.000855285
-0.00250634
-4.36513e-05
0.000382128
-0.000140353
0.000829849
-0.000265822
0.00106192
-0.000404423
0.00116122
-0.00054725
0.00118845
-0.000689885
0.00118189
-0.000830489
0.00116233
-0.000968501
0.00113949
-0.0011039
0.00111722
-0.00123685
0.00109669
-0.00136756
0.0010781
-0.00149623
0.00106131
-0.00162302
0.00104613
-0.0017481
0.00103237
-0.0018716
0.00101988
-0.00199363
0.00100853
-0.00211432
0.000998229
-0.00223376
0.000988846
-0.00235203
0.000980237
0.000972466
-0.00246921
-4.17953e-05
0.000423923
-0.000135297
0.000923351
-0.000257439
0.00118406
-0.00039304
0.00129682
-0.000533252
0.00132867
-0.000673574
0.00132222
-0.000812069
0.00130083
-0.000948103
0.00127553
-0.00108161
0.00125073
-0.00121274
0.00122782
-0.00134168
0.00120703
-0.0014686
0.00118823
-0.00159367
0.0011712
-0.00171703
0.00115573
-0.0018388
0.00114165
-0.00195909
0.00112882
-0.002078
0.00111714
-0.00219562
0.00110647
-0.00231203
0.00109664
0.00108772
-0.00242728
-3.97197e-05
0.000463643
-0.000129623
0.00101325
-0.000248013
0.00130245
-0.000380226
0.00142903
-0.00051749
0.00146593
-0.000655213
0.00145994
-0.000791347
0.00143696
-0.000925179
0.00140936
-0.0010566
0.00138214
-0.00118571
0.00135693
-0.00131269
0.00133401
-0.00143769
0.00131324
-0.00156088
0.00129438
-0.00168237
0.00127721
-0.00180226
0.00126154
-0.00192065
0.00124722
-0.00203763
0.00123412
-0.00215327
0.00122211
-0.00226763
0.00121101
0.00120085
-0.00238076
-3.74282e-05
0.000501071
-0.000123334
0.00109916
-0.000237541
0.00141666
-0.000365973
0.00155747
-0.00049995
0.00159991
-0.000634786
0.00159477
-0.00076831
0.00157048
-0.000899718
0.00154077
-0.00102884
0.00151127
-0.00115576
0.00148385
-0.00128062
0.00145887
-0.00140356
0.00143619
-0.00152473
0.00141555
-0.00164421
0.0013967
-0.00176211
0.00137944
-0.00187849
0.00136359
-0.00199341
0.00134904
-0.00210693
0.00133563
-0.0022191
0.00132318
0.00131169
-0.00232994
-3.49253e-05
0.000535996
-0.000116434
0.00118067
-0.00022602
0.00152625
-0.000350268
0.00168171
-0.000480613
0.00173025
-0.00061227
0.00172643
-0.000742934
0.00170115
-0.000871701
0.00166953
-0.000998339
0.00163791
-0.00112289
0.0016084
-0.00124548
0.00158146
-0.00136624
0.00155694
-0.00148527
0.00153458
-0.00160266
0.00151409
-0.00171847
0.00149526
-0.00183276
0.00147788
-0.00194554
0.00146182
-0.00205687
0.00144695
-0.00216675
0.00143306
0.00142011
-0.00227517
-3.22156e-05
0.000568212
-0.000108927
0.00125738
-0.000213447
0.00163076
-0.000333098
0.00180137
-0.000459455
0.00185661
-0.000587633
0.00185461
-0.000715184
0.0018287
-0.000841092
0.00179544
-0.000965057
0.00176187
-0.00108708
0.00173043
-0.00120727
0.00170164
-0.00132572
0.0016754
-0.00144254
0.00165139
-0.00155778
0.00162933
-0.00167148
0.00160895
-0.00178365
0.00159005
-0.00189429
0.00157247
-0.0020034
0.00155606
-0.00211094
0.00154061
0.00152603
-0.00221687
-2.93049e-05
0.000597517
-0.000100817
0.00132889
-0.000199816
0.00172976
-0.000314442
0.00191599
-0.000436443
0.00197861
-0.000560834
0.001979
-0.000685012
0.00195288
-0.000807839
0.00191827
-0.000928941
0.00188297
-0.00104828
0.00184977
-0.00116593
0.0018193
-0.00128199
0.00179146
-0.00139654
0.00176594
-0.00150961
0.0017424
-0.00162121
0.00172056
-0.00173133
0.00170017
-0.00183991
0.00168104
-0.00194688
0.00166303
-0.00205216
0.00164589
0.00162946
-0.00215559
-2.61999e-05
0.000623717
-9.2111e-05
0.0013948
-0.000185123
0.00182277
-0.000294282
0.00202515
-0.000411542
0.00209587
-0.000531821
0.00209928
-0.000652354
0.00207341
-0.000771869
0.00203778
-0.000889912
0.00200102
-0.0010064
0.00196626
-0.0011214
0.00193429
-0.00123498
0.00190504
-0.00134722
0.00187818
-0.00145814
0.00185333
-0.00156773
0.00183015
-0.00167593
0.00180837
-0.00178264
0.00178775
-0.00188771
0.0017681
-0.00199093
0.00174912
0.00173057
-0.00209204
-2.29093e-05
0.000646626
-8.28181e-05
0.00145471
-0.000169367
0.00190932
-0.000272599
0.00212838
-0.000384712
0.00220798
-0.000500537
0.0022151
-0.000617135
0.00219001
-0.00073309
0.00215374
-0.00084786
0.00211579
-0.000961322
0.00207972
-0.00107352
0.00204649
-0.00118453
0.00201605
-0.00129443
0.00198808
-0.00140325
0.00196214
-0.00151096
0.00193787
-0.0016175
0.0019149
-0.00172272
0.00189297
-0.00182638
0.00187176
-0.00192807
0.00185081
0.00182972
-0.00202722
-1.94442e-05
0.00066607
-7.2953e-05
0.00150822
-0.000152552
0.00198892
-0.000249376
0.00222521
-0.000355915
0.00231452
-0.000466918
0.00232611
-0.000579267
0.00230236
-0.000691389
0.00226586
-0.000802643
0.00222704
-0.000912862
0.00218994
-0.00102208
0.0021557
-0.00113039
0.00212436
-0.00123789
0.00209557
-0.00134463
0.00206889
-0.00145063
0.00204386
-0.0015558
0.00202008
-0.00166001
0.00199718
-0.00176297
0.00197472
-0.00186405
0.00195188
0.00192783
-0.00196216
-1.58186e-05
0.000681889
-6.25371e-05
0.00155494
-0.000134692
0.00206108
-0.000224607
0.00231512
-0.000325117
0.00241503
-0.000430907
0.0024319
-0.000538666
0.00241012
-0.000646652
0.00237385
-0.000754117
0.0023345
-0.000860845
0.00229666
-0.000966867
0.00226172
-0.00107231
0.0022298
-0.0011773
0.00220057
-0.00128199
0.00217357
-0.00138644
0.00214832
-0.00149069
0.00212432
-0.00159469
0.00210118
-0.00169841
0.00207844
-0.00180114
0.00205461
0.00202627
-0.00189958
-1.20505e-05
0.000693939
-5.16012e-05
0.00159449
-0.000115812
0.00212529
-0.000198298
0.00239761
-0.000292299
0.00250904
-0.000392451
0.00253205
-0.000495247
0.00251291
-0.000598751
0.00247735
-0.000702086
0.00243784
-0.000804971
0.00239955
-0.000907415
0.00236417
-0.00100955
0.00233194
-0.00111157
0.00230258
-0.00121367
0.00227568
-0.00131611
0.00225076
-0.00141908
0.00222729
-0.00152264
0.00220475
-0.00162703
0.00218282
-0.00173293
0.00216052
0.00213087
-0.00183753
-8.1621e-06
0.000702102
-4.01868e-05
0.00162652
-9.59531e-05
0.00218105
-0.000170474
0.00247213
-0.000257462
0.00259602
-0.000351527
0.00262611
-0.000448956
0.00261034
-0.000547604
0.002576
-0.000646444
0.00253668
-0.000745121
0.00249823
-0.000843637
0.00246268
-0.000942182
0.00243048
-0.00104108
0.00240148
-0.00114077
0.00237537
-0.00124189
0.00235187
-0.00134524
0.00233064
-0.00145171
0.00231121
-0.00156169
0.0022928
-0.00167613
0.00227496
0.00226893
-0.00181419
-4.19222e-06
0.000706294
-2.8368e-05
0.00165069
-7.5201e-05
0.00222789
-0.000141211
0.00253814
-0.000220658
0.00267547
-0.000308161
0.00271361
-0.000399795
0.00270198
-0.000493182
0.00266939
-0.000587113
0.00263061
-0.000681117
0.00259223
-0.000775129
0.0025567
-0.00086929
0.00252465
-0.000963847
0.00249604
-0.00105908
0.00247061
-0.00115528