/*--------------------------------*- C++ -*----------------------------------*\
  =========                 |
  \\      /  F ield         | OpenFOAM: The Open Source CFD Toolbox
   \\    /   O peration     | Website:  https://openfoam.org
    \\  /    A nd           | Version:  6.0
     \\/     M anipulation  |
\*---------------------------------------------------------------------------*/
FoamFile
{
    version     2.0;
    format      ascii;
    class       volVectorField;
    location    "38";
    object      U;
}
// * * * * * * * * * * * * * * * * * * * * * * * * * * * * * * * * * * * * * //

dimensions      [0 1 -1 0 0 0 0];

internalField   nonuniform List<vector> 
4000
(
(0.0907911 0.0071825 5.53938e-20)
(0.290726 0.0378363 -3.00783e-20)
(0.495911 0.0911791 3.53761e-20)
(0.689957 0.152632 -2.63042e-20)
(0.859327 0.212481 -1.17732e-20)
(0.996336 0.264665 3.55951e-21)
(1.09948 0.306012 -1.1534e-20)
(1.17183 0.335904 4.14443e-20)
(1.21891 0.355448 -3.44548e-20)
(1.24687 0.366576 8.07576e-21)
(1.26136 0.37139 -6.02063e-21)
(1.26694 0.371772 -3.90276e-20)
(1.26703 0.369223 3.78023e-20)
(1.264 0.364849 1.43411e-20)
(1.25939 0.35941 -1.42666e-20)
(1.25419 0.353407 3.34045e-20)
(1.249 0.347142 -5.15589e-22)
(1.24421 0.340821 -3.22865e-20)
(1.24004 0.334847 2.38857e-20)
(1.23675 0.329182 7.47733e-21)
(0.104564 0.0118853 -1.94084e-20)
(0.324621 0.0524522 5.62917e-20)
(0.541897 0.114722 6.49586e-20)
(0.740126 0.182355 -3.05965e-20)
(0.906936 0.245047 5.32373e-20)
(1.03678 0.29711 8.40843e-20)
(1.13052 0.336258 -4.61339e-21)
(1.19322 0.362848 -1.4348e-20)
(1.23165 0.37878 7.0981e-20)
(1.25258 0.386503 3.45373e-20)
(1.26175 0.388379 -6.21617e-21)
(1.26356 0.386363 5.1279e-20)
(1.2611 0.381921 -5.47768e-20)
(1.25642 0.376071 8.5222e-20)
(1.25079 0.369481 -1.41955e-20)
(1.24499 0.362568 4.04541e-20)
(1.23948 0.355568 7.21366e-21)
(1.23454 0.348656 2.88083e-20)
(1.23032 0.342228 -2.7438e-20)
(1.22702 0.33611 6.54133e-21)
(0.118597 0.0176614 -3.01949e-20)
(0.358019 0.0694208 7.18884e-20)
(0.585708 0.140858 5.33317e-20)
(0.786137 0.21416 -8.05337e-21)
(0.948728 0.278826 8.27762e-20)
(1.07045 0.3299 -6.16297e-20)
(1.15464 0.366198 -4.71413e-21)
(1.20813 0.389117 5.43554e-20)
(1.23876 0.401314 1.72717e-20)
(1.25364 0.40568 2.40352e-20)
(1.25846 0.404752 -3.54145e-20)
(1.25731 0.400499 9.19939e-20)
(1.25296 0.394309 1.7048e-20)
(1.24712 0.387098 -8.11528e-20)
(1.24082 0.379436 1.18019e-19)
(1.23466 0.371664 -1.38951e-19)
(1.229 0.363958 -6.34438e-20)
(1.22403 0.356471 1.05956e-20)
(1.21985 0.349591 6.14808e-20)
(1.21661 0.343009 -1.15396e-19)
(0.132661 0.0245253 -6.82065e-20)
(0.390338 0.0886423 -1.60733e-19)
(0.626613 0.169311 -1.3879e-19)
(0.827355 0.247642 -1.88778e-19)
(0.98435 0.313395 -1.06876e-19)
(1.09737 0.362681 -2.21333e-19)
(1.17213 0.39559 2.81183e-20)
(1.21709 0.414579 -1.16973e-19)
(1.24083 0.423003 -1.27931e-20)
(1.25063 0.424104 1.91823e-20)
(1.25196 0.420523 -4.19838e-20)
(1.24858 0.414183 5.21812e-20)
(1.24287 0.406372 9.26862e-20)
(1.23627 0.397893 -1.30362e-19)
(1.22959 0.389221 2.07262e-20)
(1.22328 0.380623 5.99925e-20)
(1.2176 0.37223 1.00171e-19)
(1.21271 0.364178 -8.6406e-20)
(1.20863 0.356845 -4.12145e-21)
(1.20552 0.349789 1.00827e-19)
(0.146516 0.032462 -1.28699e-19)
(0.421014 0.109951 3.5249e-19)
(0.663962 0.199742 -6.21804e-20)
(0.863281 0.282369 8.21965e-20)
(1.01361 0.348332 -8.04275e-20)
(1.11764 0.39512 2.46583e-19)
(1.18337 0.424212 -3.9036e-20)
(1.22059 0.439111 2.32746e-20)
(1.23839 0.44379 -1.15742e-20)
(1.24402 0.441752 3.78837e-20)
(1.24265 0.435671 2.44222e-20)
(1.23765 0.427387 3.05884e-20)
(1.23105 0.418064 -8.70859e-20)
(1.22402 0.408392 1.26967e-19)
(1.21718 0.398756 -9.63572e-20)
(1.21087 0.38936 1.80322e-20)
(1.2053 0.380293 -6.14203e-20)
(1.20057 0.37168 1.29608e-20)
(1.19666 0.363892 1.45457e-20)
(1.19374 0.356354 -1.36432e-19)
(0.159916 0.0414263 9.39957e-21)
(0.449512 0.133121 -1.77562e-19)
(0.697195 0.23176 9.79328e-20)
(0.893554 0.317886 -3.41508e-19)
(1.03643 0.383223 1.65206e-19)
(1.13148 0.426902 -2.82869e-19)
(1.18876 0.45186 -2.20329e-19)
(1.2191 0.462595 -8.38814e-21)
(1.2319 0.463608 -7.44211e-20)
(1.23422 0.458577 -2.30674e-19)
(1.23085 0.450151 -2.86342e-20)
(1.22475 0.440051 -2.19595e-19)
(1.21764 0.429312 3.98621e-20)
(1.21044 0.418509 -3.13704e-20)
(1.20363 0.407947 1.83433e-20)
(1.19747 0.397772 -1.45178e-19)
(1.19211 0.388042 7.98516e-21)
(1.18761 0.378877 2.92109e-20)
(1.18394 0.370631 -6.65686e-20)
(1.18127 0.362608 5.81774e-20)
(0.17262 0.0513427 -7.30384e-20)
(0.475352 0.157871 3.24883e-19)
(0.72586 0.264935 2.28305e-21)
(0.917942 0.35373 -2.80905e-19)
(1.05288 0.417668 2.11666e-19)
(1.13918 0.457732 8.86941e-20)
(1.1887 0.478338 1.804e-20)
(1.21309 0.484909 -1.48685e-19)
(1.22178 0.482375 2.41384e-19)
(1.22155 0.474511 -1.40518e-19)
(1.21678 0.463888 5.11897e-20)
(1.21004 0.452092 2.36118e-19)
(1.20275 0.44002 -2.11294e-19)
(1.19561 0.428141 2.31508e-19)
(1.189 0.416685 -1.49967e-19)
(1.1831 0.40575 -2.94554e-20)
(1.17803 0.395368 3.53525e-20)
(1.17385 0.385657 4.41056e-20)
(1.17046 0.376955 6.04522e-20)
(1.16812 0.368452 3.65104e-20)
(0.184398 0.0621067 2.92e-20)
(0.498108 0.183871 -2.92366e-19)
(0.74961 0.298809 5.18854e-20)
(0.936328 0.389436 6.77313e-19)
(1.06308 0.451281 -6.25376e-20)
(1.14105 0.487328 1.86839e-19)
(1.18362 0.503458 1.16262e-19)
(1.20294 0.505926 1.94494e-20)
(1.20837 0.499994 -1.33668e-19)
(1.2063 0.489463 2.18842e-19)
(1.20066 0.476789 -2.49546e-20)
(1.19366 0.463405 3.2824e-19)
(1.18646 0.450076 1.25351e-19)
(1.17959 0.43717 7.78544e-20)
(1.17331 0.424852 -1.62132e-19)
(1.16778 0.413177 3.41477e-20)
(1.16309 0.402156 1.24835e-19)
(1.15928 0.391911 3.15531e-20)
(1.15626 0.382755 -1.49807e-19)
(1.15429 0.373784 -3.71692e-20)
(0.195034 0.0735873 -1.62683e-19)
(0.517429 0.210758 5.23983e-19)
(0.768202 0.332907 -2.85116e-19)
(0.948701 0.424548 -2.61929e-19)
(1.06725 0.483692 -2.27559e-19)
(1.13745 0.515425 -1.91215e-19)
(1.1739 0.527036 -2.34644e-19)
(1.18904 0.525513 2.92847e-19)
(1.19199 0.516354 -2.0755e-19)
(1.18868 0.503327 -1.65282e-20)
(1.18264 0.48874 -1.9603e-21)
(1.17572 0.473871 -3.92376e-20)
(1.16885 0.459355 -9.98774e-20)
(1.16241 0.44547 -1.10148e-19)
(1.1566 0.432321 -5.88046e-21)
(1.15154 0.419929 -2.43442e-20)
(1.14732 0.408287 -5.87221e-20)
(1.14395 0.397521 -1.75435e-20)
(1.14135 0.387921 2.06028e-20)
(1.13982 0.378505 -1.22779e-19)
(0.204336 0.0856296 2.84781e-19)
(0.533035 0.238137 2.94061e-19)
(0.781498 0.366749 -1.82349e-19)
(0.955144 0.458621 1.12347e-19)
(1.06565 0.514552 1.93047e-19)
(1.12874 0.541769 -3.91649e-20)
(1.15993 0.548892 4.74956e-20)
(1.17173 0.543531 5.23346e-20)
(1.1729 0.531332 8.67126e-20)
(1.16891 0.515978 -1.0083e-19)
(1.16286 0.499613 4.94649e-20)
(1.15632 0.483357 -3.28233e-20)
(1.14998 0.467723 1.4802e-19)
(1.14414 0.452907 6.24967e-20)
(1.13893 0.438963 -1.44655e-19)
(1.13443 0.425879 7.82052e-20)
(1.13074 0.413638 3.91038e-20)
(1.12789 0.402369 -6.86473e-20)
(1.12576 0.392339 1.87126e-19)
(1.12475 0.38251 -1.36282e-19)
(0.21214 0.0980591 -2.09372e-19)
(0.544725 0.265597 -2.71331e-19)
(0.789454 0.399857 1.89091e-19)
(0.955815 0.49123 -1.7457e-19)
(1.05859 0.543531 -1.65587e-20)
(1.1153 0.566122 -1.88429e-19)
(1.14208 0.568851 1.57133e-19)
(1.15132 0.559836 2.83806e-19)
(1.15134 0.544797 -3.94293e-19)
(1.14715 0.527287 2.03485e-20)
(1.14145 0.509274 1.49257e-20)
(1.13553 0.491724 -7.61112e-20)
(1.12993 0.475039 5.40758e-20)
(1.12483 0.459343 -2.16659e-20)
(1.12033 0.444642 1.39901e-19)
(1.11649 0.430897 -1.50649e-19)
(1.11342 0.418083 -4.92839e-20)
(1.11114 0.40633 1.31779e-19)
(1.10956 0.395888 -1.88979e-19)
(1.10913 0.385692 1.19447e-19)
(0.218312 0.110685 4.33965e-19)
(0.552375 0.29272 3.82644e-19)
(0.792114 0.431767 -6.44562e-20)
(0.950939 0.521972 -8.05667e-21)
(1.04642 0.570323 -1.93015e-19)
(1.09751 0.58826 8.22813e-20)
(1.12069 0.586741 3.9507e-19)
(1.12808 0.574284 -3.45731e-19)
(1.12753 0.556611 2.13708e-19)
(1.12356 0.537114 -1.80024e-20)
(1.11851 0.51758 1.26972e-19)
(1.11344 0.498828 -3.38791e-20)
(1.10875 0.481161 7.4313e-20)
(1.10454 0.464637 9.18425e-20)
(1.10087 0.44922 -5.41983e-20)
(1.09778 0.434849 6.00925e-20)
(1.0954 0.421489 -7.8734e-20)
(1.09376 0.409274 2.03475e-19)
(1.0928 0.398438 -1.2084e-19)
(1.09302 0.387922 8.6231e-20)
(0.22275 0.123307 -2.10097e-19)
(0.555937 0.319086 -3.91777e-19)
(0.7896 0.462033 -2.70254e-19)
(0.940798 0.550473 -1.83566e-20)
(1.0295 0.594643 6.3494e-20)
(1.07573 0.607974 -3.49209e-20)
(1.09609 0.602398 -2.24622e-19)
(1.1023 0.586733 -9.58222e-20)
(1.10168 0.566637 -1.71017e-19)
(1.09829 0.545321 -7.74019e-20)
(1.09416 0.524389 3.95132e-20)
(1.09013 0.504526 -1.86743e-19)
(1.08651 0.485944 -3.93018e-20)
(1.08333 0.468645 -3.65539e-20)
(1.0806 0.452558 -1.19837e-19)
(1.07837 0.437597 5.25243e-20)
(1.07676 0.423721 5.2595e-21)
(1.07582 0.41106 4.33313e-20)
(1.07556 0.399839 -1.83987e-20)
(1.0765 0.389052 -5.21796e-20)
(0.225388 0.135718 4.85489e-19)
(0.555437 0.34429 4.22588e-19)
(0.782105 0.490236 5.17699e-19)
(0.925719 0.576388 -5.39572e-20)
(1.00821 0.616235 -1.80867e-19)
(1.05035 0.625071 5.41952e-19)
(1.06862 0.61567 -2.61752e-19)
(1.07423 0.597043 2.85108e-19)
(1.07397 0.57474 -5.01476e-20)
(1.07148 0.551771 1.67494e-19)
(1.06848 0.529563 1.94203e-20)
(1.06568 0.508677 6.9668e-20)
(1.06328 0.489247 -1.48834e-20)
(1.06126 0.471227 6.33015e-20)
(1.0596 0.454515 -4.01854e-20)
(1.05833 0.439004 8.80132e-21)
(1.05756 0.42464 2.11222e-20)
(1.0574 0.411544 2.7396e-20)
(1.0579 0.399943 9.32196e-22)
(1.0596 0.388938 4.05056e-21)
(0.226196 0.147708 -1.48284e-19)
(0.550966 0.367939 -4.12305e-19)
(0.769885 0.515988 -2.50041e-19)
(0.906066 0.599405 -4.32692e-19)
(0.982961 0.634868 4.57413e-19)
(1.02174 0.639379 -3.10802e-19)
(1.03857 0.626413 1.92647e-19)
(1.04411 0.605087 -7.00082e-20)
(1.04459 0.580794 -7.49647e-20)
(1.04326 0.556337 -5.13976e-20)
(1.04159 0.532973 2.74657e-20)
(1.04016 0.511149 2.42083e-20)
(1.0391 0.490934 8.71339e-21)
(1.03838 0.472245 -2.42043e-20)
(1.03791 0.454951 -1.72847e-21)
(1.03771 0.438928 9.29347e-21)
(1.03789 0.424103 -1.65896e-20)
(1.03857 0.410582 2.15883e-20)
(1.03989 0.398607 8.90438e-21)
(1.04238 0.38746 2.35489e-20)
(0.225177 0.159073 6.43371e-19)
(0.542676 0.389669 2.99373e-19)
(0.753244 0.538938 2.8034e-19)
(0.882235 0.61925 -1.62548e-19)
(0.954154 0.650339 1.7884e-20)
(0.990268 0.650745 2.24386e-19)
(1.00626 0.634502 2.54602e-20)
(1.01219 0.610748 4.47601e-20)
(1.01373 0.584686 4.4359e-20)
(1.01377 0.558907 -7.15553e-21)
(1.01358 0.534505 7.24731e-21)
(1.01364 0.511827 -1.15771e-20)
(1.01404 0.490886 -1.49861e-20)
(1.01472 0.471568 1.11308e-20)
(1.01558 0.453727 5.82281e-21)
(1.01658 0.437219 4.58378e-21)
(1.01781 0.421953 -8.51963e-21)
(1.01942 0.408007 -1.55499e-21)
(1.02161 0.395663 4.45574e-20)
(1.02495 0.384468 -4.30836e-20)
(0.22237 0.169616 -4.52689e-19)
(0.530777 0.409143 -3.89097e-19)
(0.732535 0.558774 1.80424e-19)
(0.854642 0.635682 -2.16103e-19)
(0.922205 0.662475 -1.77897e-20)
(0.956298 0.659039 1.67602e-20)
(0.971996 0.639828 -2.9636e-20)
(0.978688 0.613927 -3.04609e-20)
(0.981554 0.586321 -3.41169e-20)
(0.983143 0.559386 -2.39305e-20)
(0.984557 0.534066 -2.95762e-20)
(0.986193 0.510616 3.73944e-20)
(0.988129 0.489004 -3.48822e-21)
(0.990305 0.469092 1.03557e-20)
(0.992616 0.450721 4.40054e-21)
(0.99498 0.433742 -6.54375e-20)
(0.997405 0.418039 -5.59191e-20)
(1.00005 0.403634 -6.00098e-20)
(1.00324 0.39084 -1.32314e-21)
(1.00768 0.379607 9.23162e-20)
(0.217845 0.179152 4.07498e-19)
(0.515525 0.426059 2.01338e-20)
(0.708146 0.575225 -4.31269e-20)
(0.823725 0.648501 4.89976e-20)
(0.887534 0.671135 1.2875e-19)
(0.920197 0.664155 -1.01507e-19)
(0.936068 0.642304 1.26471e-20)
(0.943859 0.614544 -3.15989e-20)
(0.948262 0.585623 -2.21769e-20)
(0.951528 0.557704 2.68155e-21)
(0.954617 0.531588 -5.3401e-20)
(0.957875 0.507448 -4.44107e-20)
(0.961387 0.485211 4.92348e-20)
(0.965121 0.464723 -1.77623e-20)
(0.96899 0.445822 -1.92038e-19)
(0.972873 0.428366 1.88969e-19)
(0.976692 0.412219 -1.12104e-19)
(0.980607 0.397275 -7.08106e-20)
(0.985183 0.383766 9.0322e-20)
(0.99119 0.372262 -1.11264e-19)
(0.211699 0.18751 -8.70902e-20)
(0.497219 0.440155 9.465e-20)
(0.680492 0.588063 4.46984e-20)
(0.789935 0.657542 -6.55969e-20)
(0.850566 0.676205 1.95201e-20)
(0.882333 0.666011 -3.52776e-20)
(0.898783 0.641863 -1.53887e-20)
(0.907945 0.612543 1.96114e-20)
(0.914046 0.582544 2.90507e-22)
(0.919076 0.553822 -1.14325e-19)
(0.923871 0.527041 3.0364e-20)
(0.928746 0.502293 9.78701e-21)
(0.933803 0.479461 1.36065e-19)
(0.939066 0.458372 -3.44705e-19)
(0.944503 0.438863 3.21046e-19)
(0.949995 0.420823 1.70252e-19)
(0.955408 0.404109 -3.3649e-20)
(0.960982 0.388411 2.80065e-20)
(0.967569 0.373741 3.05713e-19)
(0.975452 0.361621 -1.27611e-19)
(0.20406 0.194539 -2.38165e-20)
(0.476191 0.451207 5.53614e-20)
(0.650014 0.597104 -4.73398e-20)
(0.75373 0.662679 6.11132e-20)
(0.811725 0.677601 -3.80978e-20)
(0.843076 0.664548 3.72774e-20)
(0.860451 0.638461 2.90525e-20)
(0.871203 0.607891 -7.83877e-20)
(0.879125 0.577069 7.83736e-20)
(0.885967 0.547748 5.43934e-20)
(0.89246 0.520463 2.69184e-20)
(0.898886 0.495225 4.63178e-21)
(0.905365 0.471856 1.08661e-19)
(0.91197 0.450132 -1.09211e-19)
(0.918738 0.429852 1.30392e-19)
(0.925601 0.410886 -2.73469e-19)
(0.932473 0.393047 3.0531e-19)
(0.939782 0.375725 -2.62143e-19)
(0.948476 0.358674 -1.77769e-19)
(0.957465 0.34527 3.02695e-19)
(0.195074 0.200111 1.3062e-20)
(0.4528 0.459033 -2.22898e-20)
(0.617167 0.602206 -1.39955e-20)
(0.715578 0.66382 -5.10118e-20)
(0.77144 0.675269 1.60288e-20)
(0.802795 0.659731 4.69894e-21)
(0.821389 0.632073 -1.73604e-19)
(0.833909 0.600575 1.15746e-19)
(0.843743 0.569201 1.14703e-19)
(0.852429 0.53952 -1.597e-19)
(0.8606 0.511952 1.86258e-19)
(0.868501 0.486437 -7.14645e-20)
(0.876238 0.462746 1.39613e-19)
(0.883889 0.440592 -2.23249e-19)
(0.891499 0.419692 4.64331e-19)
(0.899033 0.399799 -1.05339e-19)
(0.906514 0.380517 -2.91199e-20)
(0.914596 0.360631 3.04747e-19)
(0.924055 0.338252 -1.48495e-19)
(0.930062 0.315815 6.49251e-20)
(0.184909 0.204116 -6.87711e-20)
(0.427427 0.463495 9.2351e-20)
(0.582418 0.603269 -3.35466e-20)
(0.675945 0.66091 5.29607e-20)
(0.730135 0.669178 -2.58234e-20)
(0.761863 0.65154 -1.701e-19)
(0.781921 0.622684 2.61255e-19)
(0.796352 0.590582 1.76944e-20)
(0.808171 0.558937 -2.78149e-20)
(0.818732 0.529149 4.89343e-21)
(0.828587 0.501546 8.45495e-20)
(0.837947 0.476029 1.45552e-19)
(0.846895 0.452358 8.76432e-20)
(0.855466 0.430264 -2.08089e-19)
(0.863647 0.409499 -5.92531e-20)
(0.871376 0.389874 -1.10147e-20)
(0.878748 0.371133 3.86641e-20)
(0.88634 0.352604 5.00876e-21)
(0.894115 0.333593 4.44678e-19)
(0.897537 0.316172 -3.10574e-19)
(0.173743 0.206467 1.73954e-19)
(0.40046 0.46449 -3.02668e-20)
(0.546232 0.60023 -1.17611e-19)
(0.635294 0.653922 3.89016e-19)
(0.688232 0.659322 7.28916e-20)
(0.720648 0.639977 -2.3008e-19)
(0.742371 0.610295 2.14728e-19)
(0.758824 0.577912 -4.80198e-20)
(0.772685 0.546273 1.90078e-19)
(0.785149 0.516621 8.63982e-20)
(0.79671 0.489205 -4.19928e-19)
(0.807566 0.463894 -4.89965e-20)
(0.817803 0.440441 5.84005e-19)
(0.827455 0.418581 -7.14748e-19)
(0.836501 0.398077 6.6118e-19)
(0.844874 0.378737 2.28823e-19)
(0.852631 0.36029 -8.14783e-19)
(0.860164 0.342177 3.93231e-19)
(0.867307 0.324094 -8.11423e-20)
(0.870646 0.308367 9.44816e-20)
(0.161766 0.207099 -3.0843e-19)
(0.372299 0.461956 -3.1747e-19)
(0.509078 0.593067 2.17094e-19)
(0.594081 0.642863 -2.70899e-19)
(0.646141 0.645722 -7.3761e-19)
(0.679512 0.625061 -2.341e-20)
(0.703058 0.594919 -2.18493e-19)
(0.721615 0.562572 1.1703e-20)
(0.737554 0.531213 -4.26901e-19)
(0.751936 0.501943 -4.34421e-19)
(0.765207 0.474947 -2.94665e-19)
(0.777561 0.450073 -1.2113e-20)
(0.789089 0.427076 -7.30966e-19)
(0.799841 0.40571 -5.11332e-21)
(0.809819 0.385765 3.56263e-19)
(0.818991 0.367084 -3.54562e-19)
(0.827427 0.349455 -2.72962e-19)
(0.835448 0.332454 2.62744e-19)
(0.842879 0.3159 -1.88667e-19)
(0.846924 0.301639 3.63776e-20)
(0.149176 0.205972 2.44396e-19)
(0.343344 0.45587 1.8994e-19)
(0.471415 0.581794 -6.59552e-21)
(0.552752 0.627771 -1.52865e-19)
(0.604265 0.62842 3.7679e-19)
(0.638808 0.60683 6.02574e-19)
(0.664296 0.576584 -6.21987e-20)
(0.685011 0.544578 1.19479e-20)
(0.703051 0.51376 1.18458e-19)
(0.719362 0.485101 2.67671e-19)
(0.73436 0.458733 3.87431e-19)
(0.748242 0.434488 -3.12909e-19)
(0.761113 0.412125 3.10002e-19)
(0.77304 0.39141 -1.05848e-19)
(0.784046 0.372148 3.60836e-19)
(0.794128 0.354188 -1.40322e-19)
(0.803387 0.337345 -3.47954e-19)
(0.812144 0.321284 2.09938e-19)
(0.820254 0.305938 -2.98843e-19)
(0.825274 0.29286 -3.40105e-19)
(0.136174 0.203067 1.0629e-19)
(0.313991 0.446248 1.94743e-19)
(0.433695 0.566462 -2.05185e-19)
(0.51174 0.608713 9.99137e-21)
(0.562991 0.607484 3.52468e-20)
(0.598877 0.585342 2.83782e-19)
(0.626387 0.555335 -4.20304e-19)
(0.649285 0.523963 3.99786e-19)
(0.669424 0.493934 -3.8099e-20)
(0.687658 0.466103 1.0952e-19)
(0.704382 0.440554 1.76125e-19)
(0.719802 0.417113 -3.3571e-19)
(0.734045 0.395542 1.61385e-19)
(0.747201 0.375622 1.5317e-19)
(0.759318 0.35717 5.6459e-20)
(0.770424 0.340044 -2.89677e-19)
(0.780646 0.324072 9.75887e-19)
(0.7903 0.308968 -5.45882e-19)
(0.799237 0.294699 9.92847e-19)
(0.805291 0.28255 -6.43685e-20)
(0.122959 0.198384 7.63446e-20)
(0.284627 0.433137 4.57798e-19)
(0.396351 0.547154 1.61992e-19)
(0.471459 0.585788 3.39649e-19)
(0.52269 0.583008 8.81342e-20)
(0.560046 0.560677 -5.41711e-19)
(0.58962 0.531238 8.39746e-19)
(0.614699 0.500776 4.34682e-19)
(0.636916 0.47177 1.81651e-20)
(0.657049 0.444967 5.63488e-19)
(0.675483 0.420415 9.06813e-20)
(0.692436 0.39793 5.9107e-20)
(0.708058 0.377286 3.37319e-19)
(0.722462 0.358269 -1.25959e-19)
(0.735722 0.340707 -1.3332e-19)
(0.747897 0.324464 7.86578e-19)
(0.759136 0.309376 -6.57793e-19)
(0.769747 0.295196 2.55173e-20)
(0.779573 0.281906 8.32635e-19)
(0.786688 0.270563 -7.85178e-22)
(0.10973 0.191948 -9.80318e-19)
(0.255629 0.416622 -1.66847e-19)
(0.359802 0.52399 -2.24771e-19)
(0.432305 0.55912 -1.71376e-19)
(0.483714 0.555109 -4.33832e-19)
(0.522623 0.532936 1.48559e-19)
(0.554271 0.504375 -2.07688e-19)
(0.581499 0.475085 5.95364e-20)
(0.605751 0.447321 -3.00602e-19)
(0.627742 0.421733 -2.85179e-19)
(0.647851 0.398339 5.87331e-20)
(0.666314 0.376952 -4.61221e-19)
(0.683304 0.357352 3.67968e-19)
(0.698955 0.339338 -1.32937e-19)
(0.713366 0.322744 4.17691e-19)
(0.726622 0.307437 -9.01218e-19)
(0.73889 0.293262 -1.70998e-19)
(0.750462 0.279999 -3.2352e-19)
(0.761179 0.267636 -8.6981e-19)
(0.769343 0.257028 -1.40155e-19)
(0.0966799 0.183801 1.6008e-19)
(0.227355 0.396815 -1.92673e-20)
(0.324442 0.497117 -2.46038e-19)
(0.394652 0.528865 8.68349e-20)
(0.446398 0.523929 -1.75595e-19)
(0.486902 0.502245 -2.34312e-21)
(0.520597 0.474851 2.39488e-19)
(0.549918 0.446977 -3.5728e-19)
(0.576139 0.420659 1.39674e-19)
(0.599926 0.39646 -8.07253e-20)
(0.621658 0.374372 2.17432e-20)
(0.641588 0.35421 -4.00184e-19)
(0.659911 0.335763 -4.87292e-19)
(0.676783 0.318839 -1.84359e-20)
(0.692325 0.30328 5.43349e-19)
(0.706644 0.288957 2.55501e-20)
(0.71992 0.275723 6.88383e-19)
(0.732427 0.263385 -1.00326e-18)
(0.744011 0.251926 5.34184e-19)
(0.753198 0.24203 9.20388e-19)
(0.0839941 0.174004 -1.38981e-19)
(0.20015 0.373863 7.4673e-20)
(0.290648 0.466716 4.85682e-19)
(0.358851 0.495201 1.19843e-19)
(0.411053 0.489633 -1.6181e-19)
(0.453158 0.468747 1.27626e-19)
(0.488841 0.442794 5.02685e-19)
(0.520172 0.416561 -4.07785e-19)
(0.548277 0.391879 3.79292e-20)
(0.57378 0.369229 -1.48971e-19)
(0.597063 0.348585 5.39067e-19)
(0.618399 0.329765 3.85314e-19)
(0.638002 0.312569 -5.5845e-20)
(0.656049 0.296817 -5.85754e-19)
(0.672681 0.282358 3.09082e-20)
(0.688023 0.269068 -7.24096e-20)
(0.702263 0.25681 3.44761e-19)
(0.715659 0.245414 5.61362e-19)
(0.728071 0.234857 4.90801e-19)
(0.738242 0.225671 -8.1985e-19)
(0.0718493 0.162635 -8.68142e-20)
(0.174333 0.347938 3.70627e-19)
(0.258767 0.432992 -3.61625e-19)
(0.32523 0.458336 5.02569e-19)
(0.377969 0.452411 -2.73587e-19)
(0.421643 0.43261 1.9598e-19)
(0.459229 0.408349 4.98395e-19)
(0.492464 0.383967 -5.99348e-19)
(0.522346 0.361094 2.7315e-19)
(0.549466 0.340141 3.46099e-19)
(0.574213 0.321066 -4.70754e-19)
(0.596877 0.303696 -3.36583e-20)
(0.617691 0.287844 -3.78438e-19)
(0.63685 0.273339 6.06808e-19)
(0.654513 0.260042 -3.29481e-19)
(0.670822 0.247834 3.54015e-19)
(0.685968 0.23659 -6.42453e-20)
(0.700193 0.226161 2.19003e-19)
(0.713383 0.216515 4.99147e-20)
(0.724486 0.208058 -1.28012e-19)
(0.0604115 0.14979 -2.65773e-19)
(0.150204 0.319239 -6.12161e-19)
(0.229122 0.396178 1.61142e-19)
(0.294088 0.418498 -5.16898e-19)
(0.347413 0.412472 -4.8964e-19)
(0.392593 0.394021 -3.52069e-19)
(0.431969 0.37168 2.74519e-19)
(0.466979 0.349341 2.11245e-19)
(0.498513 0.328436 -1.53347e-21)
(0.527135 0.309315 -1.8445e-19)
(0.553243 0.291926 -3.32738e-19)
(0.577141 0.276105 3.00348e-19)
(0.599082 0.26168 -1.03413e-19)
(0.619276 0.248495 -5.12492e-19)
(0.637898 0.236418 3.3403e-19)
(0.655105 0.225341 -2.50959e-19)
(0.671088 0.215151 -1.02385e-19)
(0.686075 0.205717 -2.86616e-19)
(0.699983 0.197 -2.5993e-19)
(0.711959 0.1893 6.72132e-20)
(0.0498345 0.13558 2.32199e-19)
(0.128038 0.287989 1.20427e-19)
(0.202008 0.356533 1.84222e-19)
(0.265701 0.375938 -6.28223e-19)
(0.319627 0.370045 6.73116e-19)
(0.366222 0.353184 3.22777e-21)
(0.407248 0.332973 5.51852e-21)
(0.443886 0.312848 -4.10939e-19)
(0.47693 0.294056 3.83909e-19)
(0.506926 0.276889 -2.67101e-19)
(0.534277 0.26129 8.08297e-20)
(0.559304 0.247109 -3.58917e-19)
(0.582274 0.234189 -1.70933e-19)
(0.603414 0.222388 -8.17749e-20)
(0.622913 0.211589 6.16112e-19)
(0.640937 0.20169 -3.02585e-19)
(0.657681 0.192592 -2.73263e-19)
(0.673356 0.184183 2.81491e-19)
(0.687918 0.176418 -2.31224e-19)
(0.700696 0.169509 1.80241e-19)
(0.0402587 0.120131 4.92757e-19)
(0.108083 0.254434 -2.9758e-19)
(0.17769 0.314336 4.46225e-20)
(0.240314 0.330928 5.21906e-19)
(0.29483 0.32538 2.07156e-19)
(0.342719 0.310323 2.57217e-19)
(0.385238 0.292427 2.56176e-19)
(0.423339 0.274669 5.43782e-19)
(0.457737 0.258118 -1.24756e-19)
(0.488962 0.243014 2.97939e-19)
(0.517427 0.2293 4.33384e-19)
(0.543465 0.21684 1.59796e-19)
(0.567358 0.205495 2.89671e-19)
(0.589345 0.195139 1.05217e-19)
(0.609628 0.185668 6.20384e-20)
(0.628383 0.176991 -4.49192e-20)
(0.645803 0.169024 3.60565e-19)
(0.662089 0.161669 2.22568e-19)
(0.677234 0.154878 -2.0225e-19)
(0.690737 0.148798 1.90808e-19)
(0.0318094 0.10358 -3.27069e-19)
(0.0905586 0.218841 3.69817e-20)
(0.156402 0.269885 -9.45779e-20)
(0.218144 0.283758 -2.87305e-19)
(0.273213 0.27874 -1.52449e-19)
(0.322256 0.265676 -2.77032e-19)
(0.366088 0.250256 1.287e-19)
(0.405471 0.235 -4.98701e-19)
(0.441054 0.220803 2.94624e-19)
(0.473354 0.207858 -4.07857e-19)
(0.502792 0.196111 -2.53533e-19)
(0.529714 0.185444 -3.35846e-19)
(0.554414 0.175735 7.69662e-20)
(0.577142 0.166878 -7.60002e-20)
(0.598109 0.158781 9.10941e-20)
(0.617501 0.151368 4.90904e-20)
(0.635509 0.144564 9.75938e-20)
(0.652325 0.13829 -8.1621e-19)
(0.667979 0.132499 4.06396e-19)
(0.68212 0.127282 -2.43672e-19)
(0.0245964 0.0860768 1.0801e-19)
(0.0756575 0.181491 2.18227e-19)
(0.138348 0.223498 -1.42468e-19)
(0.19938 0.234732 3.51873e-19)
(0.254943 0.230404 -5.66442e-20)
(0.304977 0.219494 4.079e-19)
(0.349929 0.206688 7.88381e-20)
(0.3904 0.194049 -8.29805e-20)
(0.426987 0.182301 3.01986e-19)
(0.460199 0.171597 2.31184e-19)
(0.490461 0.161888 8.58178e-20)
(0.518132 0.153075 1.12966e-19)
(0.543515 0.145057 5.67197e-20)
(0.566869 0.137746 -2.4087e-19)
(0.588415 0.131064 -3.36296e-20)
(0.608346 0.124948 2.52002e-19)
(0.626849 0.119338 -1.72269e-19)
(0.64411 0.114171 -7.90398e-21)
(0.660195 0.1094 -3.61495e-19)
(0.674881 0.105082 7.28487e-19)
(0.0187125 0.0677806 2.89493e-19)
(0.0635408 0.142683 -3.47907e-19)
(0.123699 0.175505 1.63174e-19)
(0.184179 0.184169 -2.31131e-19)
(0.24016 0.180664 2.03869e-19)
(0.291006 0.17204 -3.54352e-19)
(0.336869 0.161962 -2.59749e-19)
(0.378225 0.152034 1.94728e-20)
(0.415626 0.142815 -3.54648e-19)
(0.449576 0.134419 -2.21563e-19)
(0.480507 0.126807 -3.84113e-19)
(0.508785 0.119899 -1.30048e-20)
(0.534721 0.113617 -1.49469e-19)
(0.558583 0.107889 3.78387e-19)
(0.580598 0.102657 2.61152e-19)
(0.600964 0.0978685 -8.76368e-20)
(0.619867 0.0934788 -7.92802e-20)
(0.637488 0.089438 -3.51709e-21)
(0.653921 0.085707 9.78176e-21)
(0.66905 0.0823163 1.43814e-19)
(0.0142331 0.0488589 -7.24008e-20)
(0.0543388 0.102728 -2.47922e-19)
(0.112592 0.12625 -1.54688e-19)
(0.172667 0.132399 -9.68624e-20)
(0.228974 0.129821 -2.00905e-19)
(0.280442 0.123587 3.44622e-19)
(0.326999 0.116326 -3.68268e-20)
(0.369024 0.109183 -8.30641e-20)
(0.407042 0.102554 3.39304e-21)
(0.441552 0.0965197 2.44647e-19)
(0.472989 0.09105 -2.32621e-19)
(0.501727 0.0860878 2.27769e-19)
(0.528082 0.0815759 1.07071e-19)
(0.552329 0.0774633 -1.95322e-19)
(0.574699 0.0737069 4.27233e-20)
(0.595394 0.0702703 1.25901e-19)
(0.614599 0.0671208 4.39625e-20)
(0.63249 0.0642232 -3.03698e-20)
(0.649189 0.0615475 -2.65462e-19)
(0.664656 0.0591086 2.11452e-19)
(0.0112153 0.0294857 6.52876e-20)
(0.04815 0.0619463 7.9311e-20)
(0.10513 0.076088 2.23143e-20)
(0.16494 0.0797602 -1.6833e-20)
(0.221472 0.0781841 4.79102e-20)
(0.273359 0.0744156 7.33707e-20)
(0.320382 0.0700345 2.78296e-20)
(0.362858 0.0657288 3.39767e-20)
(0.401291 0.0617352 -7.2509e-20)
(0.436176 0.0581007 1.3586e-19)
(0.467954 0.0548068 -3.21404e-20)
(0.497 0.0518191 -2.61835e-21)
(0.523637 0.0491028 3.27077e-20)
(0.548141 0.0466274 3.6901e-20)
(0.570749 0.0443667 -9.93588e-20)
(0.591665 0.0422988 6.5302e-20)
(0.611073 0.0404041 4.28957e-20)
(0.629146 0.0386617 3.66591e-20)
(0.646022 0.0370525 7.87489e-20)
(0.661716 0.035583 3.26379e-20)
(0.00969739 0.00983969 -1.33691e-20)
(0.0450403 0.020666 2.77905e-20)
(0.101384 0.0253779 -3.89106e-20)
(0.161063 0.026598 2.44617e-20)
(0.217708 0.026069 1.43863e-20)
(0.269807 0.0248101 6.4594e-21)
(0.317065 0.0233481 1.52399e-20)
(0.359768 0.0219117 -4.37222e-20)
(0.398408 0.0205799 2.79001e-20)
(0.433482 0.0193681 9.74845e-21)
(0.46543 0.0182701 -5.93971e-22)
(0.494631 0.0172742 6.01664e-20)
(0.521409 0.016369 -1.82448e-20)
(0.546043 0.0155442 -1.75053e-20)
(0.568771 0.014791 -1.68595e-20)
(0.589798 0.0141021 2.61152e-21)
(0.609307 0.0134711 -2.25972e-20)
(0.627471 0.0128909 4.30365e-21)
(0.644437 0.0123551 8.51024e-22)
(0.660246 0.0118654 -2.87222e-21)
(0.00969863 -0.00989756 8.49227e-21)
(0.045043 -0.0207811 -4.5203e-20)
(0.101387 -0.0255153 5.39182e-20)
(0.161067 -0.0267392 -4.054e-20)
(0.217712 -0.026206 -1.89503e-20)
(0.269812 -0.0249401 5.67457e-20)
(0.317069 -0.0234704 4.73892e-21)
(0.359772 -0.0220267 1.33326e-21)
(0.398413 -0.0206877 2.66175e-20)
(0.433487 -0.0194692 1.3784e-20)
(0.465435 -0.0183647 -1.08664e-20)
(0.494635 -0.0173628 -3.82317e-20)
(0.521414 -0.0164519 3.60649e-21)
(0.546047 -0.0156217 -3.3603e-21)
(0.568775 -0.0148634 3.57565e-20)
(0.589802 -0.0141697 -2.15373e-20)
(0.609311 -0.0135342 2.95869e-20)
(0.627475 -0.0129498 -4.43652e-20)
(0.64444 -0.01241 5.18758e-23)
(0.660249 -0.0119165 -9.35656e-21)
(0.0112191 -0.0295438 -2.8211e-20)
(0.0481579 -0.0620619 1.4236e-19)
(0.10514 -0.0762258 9.59963e-20)
(0.164952 -0.0799018 6.35762e-20)
(0.221484 -0.0783213 7.94536e-20)
(0.273372 -0.0745457 -1.92464e-20)
(0.320395 -0.070157 8.81874e-20)
(0.362871 -0.0658437 1.81075e-20)
(0.401304 -0.0618429 -7.839e-21)
(0.436189 -0.0582016 -6.30563e-20)
(0.467967 -0.0549014 6.55138e-20)
(0.497012 -0.0519075 -8.9051e-20)
(0.523649 -0.0491856 6.47782e-20)
(0.548153 -0.0467047 7.42975e-20)
(0.570761 -0.0444389 9.84224e-20)
(0.591678 -0.0423662 -6.46133e-20)
(0.611085 -0.040467 1.83336e-20)
(0.629157 -0.0387203 6.84938e-20)
(0.646034 -0.0371071 -6.47765e-20)
(0.661728 -0.0356338 4.888e-20)
(0.0142394 -0.0489175 -2.72776e-19)
(0.0543522 -0.102844 -1.37091e-19)
(0.112609 -0.126389 -1.52512e-19)
(0.172687 -0.132541 -1.20365e-20)
(0.228995 -0.129958 -8.23337e-20)
(0.280464 -0.123718 -1.01007e-19)
(0.32702 -0.116448 1.78636e-19)
(0.369046 -0.109297 9.11416e-20)
(0.407064 -0.102662 1.12472e-19)
(0.441574 -0.0966204 -1.22151e-19)
(0.473011 -0.0911443 9.06092e-20)
(0.501748 -0.086176 1.10745e-19)
(0.528103 -0.0816582 3.90715e-20)
(0.552349 -0.0775402 -3.71376e-20)
(0.574719 -0.0737786 8.05366e-21)
(0.595414 -0.0703372 -1.59982e-20)
(0.614619 -0.0671831 -1.57428e-19)
(0.63251 -0.0642813 2.43329e-20)
(0.649208 -0.0616015 1.53194e-19)
(0.664674 -0.0591588 -2.05835e-19)
(0.0187215 -0.06784 -8.983e-20)
(0.0635598 -0.142801 1.33041e-19)
(0.123724 -0.175645 3.08312e-20)
(0.184207 -0.184312 -5.75851e-20)
(0.240189 -0.180802 -1.62931e-19)
(0.291036 -0.172171 -3.49363e-19)
(0.3369 -0.162084 -3.3279e-19)
(0.378255 -0.152149 -2.40385e-20)
(0.415656 -0.142922 -1.9391e-19)
(0.449607 -0.134519 -2.90226e-19)
(0.480537 -0.1269 2.25319e-19)
(0.508815 -0.119987 -3.32342e-19)
(0.534751 -0.113698 6.63371e-20)
(0.558612 -0.107965 -2.11002e-20)
(0.580627 -0.102728 -6.99184e-20)
(0.600993 -0.0979346 -8.85057e-20)
(0.619895 -0.0935403 1.43467e-19)
(0.637515 -0.0894952 1.14798e-19)
(0.653949 -0.0857601 1.97487e-19)
(0.669077 -0.0823656 -2.95547e-19)
(0.0246081 -0.0861372 4.87132e-20)
(0.0756824 -0.18161 4.73561e-19)
(0.138381 -0.223639 1.35693e-19)
(0.199417 -0.234876 3.28188e-19)
(0.254982 -0.230543 -1.22689e-19)
(0.305016 -0.219625 1.88976e-19)
(0.349968 -0.20681 -5.95487e-20)
(0.39044 -0.194164 3.83761e-19)
(0.427026 -0.182408 -1.97592e-19)
(0.460238 -0.171697 2.3299e-19)
(0.4905 -0.161981 2.02415e-19)
(0.518171 -0.153162 2.16766e-19)
(0.543553 -0.145138 -1.94043e-19)
(0.566907 -0.137821 1.66752e-19)
(0.588453 -0.131134 -2.31828e-19)
(0.608383 -0.125013 -6.38431e-20)
(0.626885 -0.119399 -1.53063e-19)
(0.644146 -0.114227 -6.5054e-20)
(0.66023 -0.109452 2.57994e-19)
(0.674914 -0.10513 -4.27257e-19)
(0.0318241 -0.103642 -1.9612e-19)
(0.0905896 -0.218962 -2.27322e-20)
(0.156442 -0.270028 -7.82025e-20)
(0.21819 -0.283903 -2.74929e-19)
(0.273261 -0.278879 4.67027e-20)
(0.322304 -0.265808 -4.30938e-19)
(0.366137 -0.250378 -1.8138e-19)
(0.40552 -0.235115 -1.40592e-20)
(0.441102 -0.22091 -4.56611e-19)
(0.473403 -0.207957 -1.41969e-19)
(0.50284 -0.196203 -6.49711e-20)