/*--------------------------------*- C++ -*----------------------------------*\
  =========                 |
  \\      /  F ield         | OpenFOAM: The Open Source CFD Toolbox
   \\    /   O peration     | Website:  https://openfoam.org
    \\  /    A nd           | Version:  6.0
     \\/     M anipulation  |
\*---------------------------------------------------------------------------*/
FoamFile
{
    version     2.0;
    format      ascii;
    class       volVectorField;
    location    "38";
    object      U;
}
// * * * * * * * * * * * * * * * * * * * * * * * * * * * * * * * * * * * * * //

dimensions      [0 1 -1 0 0 0 0];

internalField   nonuniform List<vector> 
8000
(
(-0.000419538 0.000317119 -3.25156e-21)
(-0.00232453 0.000840149 1.73794e-20)
(-0.0058642 0.00123989 -2.11359e-20)
(-0.0102174 0.00153478 1.60937e-20)
(-0.0149499 0.00174081 7.83639e-21)
(-0.0198124 0.00187325 -2.3531e-20)
(-0.0246261 0.00194746 -2.07976e-21)
(-0.029275 0.00197816 -7.3806e-22)
(-0.033695 0.001979 -1.22111e-20)
(-0.0378602 0.00196244 -6.61492e-21)
(-0.0417725 0.00193962 4.934e-21)
(-0.0454542 0.0019203 1.87552e-20)
(-0.0489416 0.0019128 -1.40604e-21)
(-0.0522794 0.00192397 2.00755e-21)
(-0.0555179 0.00195919 -1.88851e-20)
(-0.0587168 0.00202221 1.16351e-20)
(-0.0619366 0.00211536 -1.66681e-20)
(-0.0651581 0.0022411 2.52206e-20)
(-0.0682612 0.00240272 -2.81494e-23)
(-0.0718071 0.00259024 5.43957e-21)
(-0.000490591 0.00129014 1.07967e-20)
(-0.00250529 0.00327719 -5.51666e-20)
(-0.00612382 0.00471141 -3.80979e-20)
(-0.010528 0.00570232 -2.5872e-20)
(-0.0152866 0.00633906 -3.32791e-20)
(-0.0201532 0.00669835 7.32905e-21)
(-0.0249516 0.00684904 -3.84134e-20)
(-0.0295681 0.00685167 -8.6261e-21)
(-0.0339403 0.00675873 2.72903e-21)
(-0.0380436 0.00661543 2.87116e-20)
(-0.0418814 0.00646032 -3.13118e-20)
(-0.0454769 0.00632582 4.35513e-20)
(-0.0488675 0.00623856 -3.2609e-20)
(-0.0520992 0.00621968 -3.86652e-20)
(-0.0552236 0.00628503 -5.32765e-20)
(-0.0583018 0.00644492 3.40277e-20)
(-0.0613964 0.00670468 -1.09961e-20)
(-0.0644898 0.00706939 -4.0047e-20)
(-0.0674615 0.00754657 3.78689e-20)
(-0.0708739 0.0081034 -2.80776e-20)
(-0.000638979 0.00225674 1.05511e-19)
(-0.00288002 0.00569493 5.46357e-20)
(-0.00665915 0.00815079 6.1441e-20)
(-0.0111658 0.00982511 5.1109e-21)
(-0.0159758 0.0108802 3.39561e-20)
(-0.0208493 0.011454 4.23889e-20)
(-0.0256157 0.0116685 -7.70026e-20)
(-0.0301661 0.0116297 -4.07791e-20)
(-0.0344418 0.0114285 -5.30918e-20)
(-0.0384213 0.0111427 5.66914e-20)
(-0.0421103 0.0108383 -4.32929e-20)
(-0.0455342 0.0105706 -5.56819e-20)
(-0.0487326 0.0103851 -2.02654e-20)
(-0.0517539 0.0103179 1.92591e-20)
(-0.0546525 0.0103961 -5.35042e-21)
(-0.0574927 0.0106374 7.72722e-21)
(-0.0603408 0.0110509 8.93337e-20)
(-0.0631829 0.0116451 -1.2557e-20)
(-0.0658979 0.0124325 -9.07884e-20)
(-0.0690516 0.0133575 1.19553e-19)
(-0.000864451 0.00321241 3.66868e-20)
(-0.0034476 0.00807994 -5.18556e-20)
(-0.007468 0.0115361 -1.30043e-20)
(-0.0121274 0.0138733 2.42986e-20)
(-0.0170131 0.015327 6.90146e-20)
(-0.0218957 0.0160957 1.51106e-19)
(-0.0266134 0.0163539 1.47638e-19)
(-0.0310646 0.0162523 1.22543e-20)
(-0.0351964 0.0159197 9.05199e-20)
(-0.0389915 0.015466 1.38539e-19)
(-0.0424592 0.0149847 -1.10697e-19)
(-0.0456283 0.0145544 1.63814e-19)
(-0.0485413 0.0142401 -3.70603e-20)
(-0.0512501 0.014094 9.36482e-21)
(-0.0538131 0.014156 3.87168e-20)
(-0.0562994 0.0144528 5.14349e-20)
(-0.0587813 0.0149987 -8.09503e-20)
(-0.0612505 0.0158068 -6.75357e-20)
(-0.0635853 0.0168965 -1.195e-19)
(-0.0663584 0.0181892 1.73817e-19)
(-0.00116659 0.00415292 -1.91718e-20)
(-0.00420603 0.0104194 -1.96209e-19)
(-0.00854631 0.0148463 -5.80314e-20)
(-0.0134066 0.0178185 -1.41417e-19)
(-0.0183905 0.0196441 5.34452e-20)
(-0.0232828 0.0205819 -8.43002e-20)
(-0.0279344 0.0208576 2.89701e-20)
(-0.0322534 0.0206653 -1.78516e-19)
(-0.0361946 0.0201708 9.41578e-20)
(-0.0397466 0.0195155 -1.12294e-19)
(-0.0429231 0.01882 -9.98581e-20)
(-0.0457568 0.0181866 -1.11775e-19)
(-0.048294 0.0177008 1.0146e-19)
(-0.0505909 0.0174327 -9.10612e-20)
(-0.0527109 0.017437 1.26812e-19)
(-0.0547295 0.0177517 3.66404e-20)
(-0.0567272 0.0183986 9.06736e-20)
(-0.0587035 0.019398 3.97773e-20)
(-0.0605373 0.0207784 -1.57517e-19)
(-0.062812 0.0224388 2.56414e-19)
(-0.00154481 0.00507434 8.44508e-20)
(-0.00515216 0.0127007 6.51893e-21)
(-0.00988746 0.0180613 3.47932e-20)
(-0.014993 0.0216337 1.21422e-19)
(-0.0200938 0.0237993 -1.86057e-20)
(-0.0249938 0.0248754 1.97153e-19)
(-0.0295597 0.0251379 8.74792e-20)
(-0.0337126 0.0248224 7.35093e-21)
(-0.0374169 0.0241302 2.24935e-19)
(-0.0406683 0.0232329 7.36844e-20)
(-0.0434859 0.0222778 3.4945e-20)
(-0.0459065 0.0213909 1.10936e-19)
(-0.0479807 0.0206797 1.01666e-19)
(-0.0497692 0.0202336 1.85567e-19)
(-0.0513414 0.0201251 -1.65859e-19)
(-0.0527805 0.0204069 2.34382e-19)
(-0.0541776 0.0211118 3.02251e-21)
(-0.0555425 0.0222707 -2.99475e-19)
(-0.0567564 0.0239256 3.88119e-19)
(-0.0584194 0.0259537 1.60967e-19)
(-0.00199819 0.00597277 -4.97716e-20)
(-0.00628117 0.0149117 -9.03118e-20)
(-0.0114812 0.021161 -1.87984e-19)
(-0.0168704 0.0252934 -5.57171e-21)
(-0.0221011 0.0277625 3.20576e-20)
(-0.0270013 0.0289436 -2.40041e-19)
(-0.031458 0.02916 -1.78069e-19)
(-0.0354079 0.0286871 -2.54783e-20)
(-0.0388273 0.0277589 -2.25204e-19)
(-0.0417205 0.0265758 -1.55895e-19)
(-0.0441123 0.0253103 -4.54314e-20)
(-0.0460442 0.0241121 -1.46263e-19)
(-0.0475706 0.023111 -2.38888e-21)
(-0.048757 0.0224186 -1.94178e-19)
(-0.0496789 0.022128 8.16728e-20)
(-0.0504284 0.0223109 -9.31808e-20)
(-0.0511091 0.0230166 7.13311e-20)
(-0.0517443 0.0242916 -9.0846e-20)
(-0.0522206 0.0261979 -2.59349e-19)
(-0.0531623 0.0285927 -7.87986e-20)
(-0.00252539 0.006844 -1.82878e-20)
(-0.00758595 0.017039 -1.98676e-20)
(-0.0133124 0.0241253 1.57587e-19)
(-0.0190147 0.0287724 -2.56411e-19)
(-0.0243793 0.0315064 3.76196e-20)
(-0.0292638 0.0327583 -1.48093e-19)
(-0.0335799 0.0328968 7.00017e-20)
(-0.0372837 0.0322338 3.14544e-19)
(-0.0403655 0.0310332 -2.01903e-20)
(-0.0428396 0.0295211 -2.34593e-19)
(-0.0447374 0.0278933 4.26527e-20)
(-0.0461046 0.026322 8.26833e-21)
(-0.0469992 0.0249597 -4.81144e-20)
(-0.0474908 0.0239417 4.90792e-21)
(-0.0476608 0.0233856 4.22858e-19)
(-0.0476107 0.0233877 -6.02397e-20)
(-0.0474585 0.0240199 -1.17406e-19)
(-0.0472442 0.0253528 -2.10532e-19)
(-0.0468636 0.0274772 2.14781e-19)
(-0.0469768 0.0302349 9.27217e-20)
(-0.00312423 0.00768303 9.24492e-20)
(-0.00905619 0.0190682 -1.20926e-19)
(-0.0153595 0.0269327 1.70982e-19)
(-0.0213917 0.0320455 1.72129e-19)
(-0.0268811 0.0350047 1.58688e-19)
(-0.0317211 0.0362955 3.21787e-19)
(-0.035853 0.0363286 2.08066e-19)
(-0.0392561 0.0354488 -4.47055e-19)
(-0.0419377 0.0339462 2.28604e-19)
(-0.0439235 0.0320685 1.79348e-19)
(-0.0452523 0.0300318 -2.53334e-21)
(-0.045974 0.0280281 2.00691e-19)
(-0.0461497 0.0262318 1.56423e-19)
(-0.0458516 0.0248025 -8.51198e-20)
(-0.0451663 0.0238859 2.87475e-19)
(-0.0442042 0.0236087 -3.56362e-19)
(-0.0430989 0.0240741 1.42592e-19)
(-0.0419104 0.0253878 1.83332e-19)
(-0.040549 0.0276829 -4.27421e-20)
(-0.0397257 0.0307936 3.68794e-19)
(-0.00379134 0.0084836 1.85657e-19)
(-0.0106773 0.0209818 9.63124e-21)
(-0.0175929 0.0295589 -6.66574e-20)
(-0.0239549 0.0350853 -7.04329e-20)
(-0.0295419 0.038231 -3.26116e-19)
(-0.0342899 0.0395331 4.61721e-20)
(-0.0381753 0.0394412 1.30826e-19)
(-0.0412047 0.0383289 -6.29091e-20)
(-0.0434056 0.0365077 5.18883e-20)
(-0.0448175 0.0342423 -1.3781e-20)
(-0.0454879 0.031764 -6.77735e-20)
(-0.0454711 0.0292806 6.43193e-20)
(-0.0448303 0.0269852 -2.7962e-19)
(-0.0436393 0.0250611 2.68037e-19)
(-0.0419877 0.023684 -2.3211e-19)
(-0.0399939 0.0230164 7.17143e-20)
(-0.0378076 0.0232025 1.6307e-19)
(-0.0355108 0.0243975 -3.39849e-20)
(-0.0330341 0.0267969 -1.12808e-19)
(-0.031161 0.0302402 -7.68102e-20)
(-0.00452167 0.00923779 -2.3123e-19)
(-0.0124295 0.0227595 -1.52523e-20)
(-0.0199736 0.0319758 4.87057e-20)
(-0.0266433 0.037861 1.25271e-19)
(-0.0322768 0.0411563 -1.76855e-19)
(-0.0368598 0.0424489 -1.54328e-19)
(-0.0404093 0.0422238 3.60178e-19)
(-0.0429642 0.0408791 -1.9903e-19)
(-0.0445759 0.0387427 -1.28366e-19)
(-0.0453007 0.0360906 -1.84139e-19)
(-0.0451964 0.033163 1.21882e-19)
(-0.0443234 0.0301777 -3.33714e-21)
(-0.0427465 0.0273407 -2.27565e-19)
(-0.04054 0.0248552 -3.72127e-19)
(-0.0377946 0.0229253 2.83485e-19)
(-0.0346344 0.0217533 -2.296e-19)
(-0.0312241 0.0215335 3.25516e-19)
(-0.027669 0.022488 -9.12455e-20)
(-0.0239253 0.0249013 1.91521e-19)
(-0.0208764 0.0286407 -6.51374e-19)
(-0.00530802 0.00993575 -4.68215e-19)
(-0.0142867 0.0243766 3.071e-19)
(-0.0224515 0.0341505 4.17717e-20)
(-0.0293796 0.0403366 8.08068e-21)
(-0.0349782 0.043747 -1.89435e-19)
(-0.0392896 0.0450169 2.78571e-19)
(-0.0423775 0.0446641 3.03984e-20)
(-0.0443178 0.0431072 -5.71127e-20)
(-0.04519 0.0406853 -1.83281e-19)
(-0.045071 0.0376801 1.98106e-19)
(-0.0440326 0.0343339 5.02122e-19)
(-0.0421428 0.0308662 -1.1094e-19)
(-0.0394704 0.0274877 2.50559e-19)
(-0.0360898 0.0244131 -2.95903e-19)
(-0.0320912 0.0218694 -2.83638e-19)
(-0.027602 0.0200966 1.70577e-19)
(-0.0227996 0.0193452 2.81682e-19)
(-0.017811 0.0199216 -9.12536e-19)
(-0.0126209 0.022234 1.07238e-19)
(-0.00824779 0.0262107 1.45824e-19)
(-0.0061407 0.0105659 3.46698e-19)
(-0.0162157 0.0258047 1.14093e-19)
(-0.0249652 0.0360446 5.94503e-19)
(-0.0320694 0.0424696 3.06079e-20)
(-0.0375144 0.0459618 -6.6119e-20)
(-0.0414054 0.0472037 -3.14878e-19)
(-0.0438585 0.0467433 2.67781e-19)
(-0.0449914 0.0450165 4.80359e-19)
(-0.0449162 0.0423703 3.19959e-19)
(-0.0437347 0.0390866 2.30949e-19)
(-0.041537 0.0354032 1.99033e-19)
(-0.0384039 0.0315328 -3.57413e-19)
(-0.0344112 0.02768 -1.1192e-19)
(-0.0296366 0.0240587 -8.23843e-20)
(-0.0241703 0.0209062 8.8291e-19)
(-0.0181417 0.01849 -3.1016e-21)
(-0.0117379 0.0171136 -2.19913e-19)
(-0.00510405 0.0171799 -6.91313e-20)
(0.00175137 0.0192602 6.30755e-19)
(0.00763416 0.0233906 8.23841e-20)
(-0.00700734 0.0111151 -1.70688e-20)
(-0.0181762 0.0270119 -3.28129e-19)
(-0.027441 0.0376148 -4.88286e-19)
(-0.0346007 0.0442105 -1.35908e-19)
(-0.0397289 0.047751 7.50528e-20)
(-0.0429999 0.048965 1.61708e-20)
(-0.0445867 0.04843 4.28481e-19)
(-0.0446525 0.0465978 -5.31397e-19)
(-0.0433465 0.0438208 -2.02116e-19)
(-0.0408001 0.0403786 -4.07208e-19)
(-0.0371272 0.0364999 -3.46736e-19)
(-0.0324278 0.032383 -3.06919e-19)
(-0.0267923 0.028216 7.6734e-20)
(-0.0203082 0.0241966 -9.95818e-20)
(-0.0130717 0.020553 4.26555e-19)
(-0.005216 0.0175591 -2.33872e-19)
(0.00306199 0.0155528 -7.32611e-19)
(0.0116053 0.0150299 -1.47568e-19)
(0.0203973 0.0167594 3.61334e-19)
(0.0280307 0.0209434 -3.15534e-19)
(-0.00789307 0.0115701 -5.53168e-20)
(-0.0201208 0.0279646 4.01451e-19)
(-0.0297937 0.0388136 -5.12089e-19)
(-0.0368443 0.0455036 1.18343e-19)
(-0.0414415 0.0490554 -2.43842e-19)
(-0.0438333 0.0502443 5.43187e-19)
(-0.0442527 0.0496769 -3.88167e-19)
(-0.0429116 0.0478212 4.44012e-19)
(-0.0399989 0.0450362 -4.20981e-19)
(-0.0356798 0.0415991 1.79535e-19)
(-0.0300981 0.037729 -8.71623e-20)
(-0.0233811 0.0336073 -2.18691e-19)
(-0.0156446 0.0293978 -2.70078e-19)
(-0.00699854 0.0252686 2.69081e-19)
(0.00244238 0.0214169 -2.2527e-19)
(0.0125299 0.0180912 -4.92345e-19)
(0.0230507 0.0156246 5.12518e-19)
(0.0338391 0.0145726 -6.53535e-19)
(0.0449025 0.0159139 2.93915e-19)
(0.0546049 0.0200695 8.23931e-21)
(-0.00878085 0.0119176 -5.01872e-19)
(-0.0219949 0.0286292 -5.42112e-19)
(-0.0319262 0.0395926 6.24494e-20)
(-0.0386536 0.0462899 -5.22996e-19)
(-0.0424481 0.0498098 -4.66028e-20)
(-0.0436342 0.0509744 -3.84673e-19)
(-0.0425066 0.0504203 -8.82492e-20)
(-0.0393268 0.0486339 -2.57871e-19)
(-0.0343245 0.0459836 2.2544e-21)
(-0.0277012 0.0427489 -1.12802e-19)
(-0.019636 0.0391442 7.94082e-21)
(-0.010292 0.0353378 -3.24791e-19)
(0.000176949 0.0314709 3.57776e-19)
(0.01162 0.0276769 -5.0754e-19)
(0.0238822 0.0241055 1.79722e-19)
(0.0367765 0.0209471 6.77077e-21)
(0.0500506 0.0184737 -2.86071e-19)
(0.0635182 0.0172261 7.09174e-19)
(0.077258 0.0183489 -1.6937e-19)
(0.0894478 0.0224944 -1.10433e-19)
(-0.00965194 0.0121463 5.63572e-19)
(-0.0237378 0.0289745 3.04398e-19)
(-0.0337298 0.0399056 2.83188e-19)
(-0.0398646 0.0465116 4.22801e-20)
(-0.0425205 0.0499481 3.83028e-19)
(-0.0421004 0.051084 5.5204e-19)
(-0.0389602 0.050587 4.52018e-19)
(-0.0334096 0.0489646 4.03633e-20)
(-0.0257184 0.0465998 3.30842e-19)
(-0.0161248 0.0437819 5.11114e-19)
(-0.00484549 0.0407303 -1.32552e-19)
(0.00791353 0.0376128 2.22418e-19)
(0.0219473 0.0345605 1.79596e-19)
(0.0370442 0.031683 1.82645e-19)
(0.0529794 0.0290852 1.07937e-18)
(0.0694903 0.0268832 -4.04517e-19)
(0.0862395 0.025234 -2.46927e-20)
(0.102972 0.0245489 4.68982e-19)
(0.119877 0.0260068 -2.65943e-19)
(0.135103 0.0304195 1.32118e-19)
(-0.0104864 0.0122473 -4.55973e-19)
(-0.0252824 0.0289744 2.93391e-20)
(-0.0350831 0.0397128 -3.65294e-19)
(-0.0402939 0.0461189 -4.75456e-20)
(-0.0414049 0.0494129 2.6742e-19)
(-0.0388974 0.0505098 -7.95874e-19)
(-0.033187 0.0501091 -4.61097e-22)
(-0.024629 0.0487416 3.70247e-19)
(-0.0135302 0.0468097 3.47811e-19)
(-0.000163596 0.0446209 -1.53118e-19)
(0.0152163 0.0424122 5.04321e-20)
(0.0323571 0.0403687 1.17024e-19)
(0.0509937 0.038636 -5.54338e-20)
(0.0708352 0.0373298 -6.20898e-19)
(0.0915546 0.0365444 1.57207e-19)
(0.112764 0.03635 4.32392e-19)
(0.133968 0.0367814 -6.16106e-19)
(0.154735 0.038021 3.00538e-19)
(0.175339 0.0411036 8.07092e-20)
(0.194254 0.0468105 4.10792e-19)
(-0.011263 0.0122145 -6.749e-20)
(-0.0265538 0.0286096 -3.19771e-19)
(-0.0358496 0.0389857 1.47082e-19)
(-0.0397354 0.0450777 5.86754e-22)
(-0.0388167 0.048167 -6.4138e-19)
(-0.0336536 0.0492132 1.00068e-19)
(-0.0247195 0.0489461 -1.89764e-20)
(-0.0124119 0.04792 1.29414e-19)
(0.00292852 0.0465596 -5.92262e-19)
(0.0209971 0.045196 -4.13969e-20)
(0.041504 0.0440944 -1.3894e-19)
(0.0641523 0.0434743 1.2375e-19)
(0.0886159 0.0435244 4.17252e-19)
(0.114517 0.0444138 -6.4522e-20)
(0.141404 0.0462985 2.49436e-20)
(0.168707 0.0493091 1.64253e-19)
(0.195653 0.0534967 -4.04838e-20)
(0.221399 0.058959 3.31493e-19)
(0.246014 0.0667011 -1.92143e-19)
(0.268663 0.077092 -3.04984e-19)
(-0.0119587 0.0120449 6.25022e-20)
(-0.027468 0.0278693 1.5151e-20)
(-0.0358743 0.0377113 1.28286e-19)
(-0.0379543 0.0433774 3.1421e-19)
(-0.0344345 0.0462063 1.76279e-19)
(-0.0259544 0.0471983 1.83906e-20)
(-0.0130444 0.0471101 -2.1044e-19)
(0.00385677 0.0465166 5.39598e-20)
(0.024375 0.045862 2.8352e-19)
(0.0481751 0.0454993 -4.80372e-19)
(0.074935 0.0457213 3.62375e-19)
(0.104322 0.0467856 -2.72945e-19)
(0.13597 0.0489363 2.31545e-19)
(0.169454 0.0524258 -4.99309e-19)
(0.204262 0.0575401 5.49251e-19)
(0.239727 0.0646101 -5.87516e-19)
(0.274882 0.0740021 -1.52849e-19)
(0.308403 0.0863549 4.80747e-19)
(0.339185 0.103556 -1.62014e-19)
(0.364535 0.125094 7.36354e-20)
(-0.0125475 0.0117376 -4.73845e-20)
(-0.0279282 0.0267514 4.46966e-19)
(-0.0349783 0.0358946 -1.91176e-21)
(-0.0346823 0.0410378 -2.77402e-19)
(-0.0278942 0.0435706 -1.86592e-19)
(-0.0153367 0.0445292 3.41753e-19)
(0.00239947 0.0446909 -1.35362e-19)
(0.0248281 0.0446438 -1.70615e-20)
(0.0515337 0.0448423 2.81796e-19)
(0.0821399 0.0456481 -3.50125e-19)
(0.116283 0.0473631 3.83194e-20)
(0.15359 0.0502556 -4.54828e-19)
(0.193672 0.0545864 2.39457e-19)
(0.236115 0.060639 -6.85276e-19)
(0.280489 0.0687597 1.09212e-18)
(0.326362 0.0794111 -1.99844e-19)
(0.373337 0.0932988 2.09894e-19)
(0.421367 0.111934 -5.44835e-19)
(0.470998 0.138282 1.94775e-21)
(0.514762 0.16728 6.31252e-19)
(-0.0129982 0.0112927 -1.43706e-19)
(-0.0278212 0.0252621 1.24216e-19)
(-0.032955 0.0335609 -4.56894e-19)
(-0.0296122 0.0381131 6.75658e-19)
(-0.0187851 0.0403517 -4.87725e-19)
(-0.00128797 0.0413418 2.5118e-20)
(0.0222159 0.0418727 -5.2558e-19)
(0.0511755 0.0425352 3.75686e-19)
(0.0851082 0.0437785 -5.37249e-20)
(0.123562 0.0459515 -3.31315e-19)
(0.16609 0.0493323 -1.93205e-19)
(0.21223 0.0541511 2.04131e-19)
(0.261507 0.0606094 1.35014e-19)
(0.313445 0.0688973 -5.97925e-19)
(0.367591 0.0792105 2.15756e-19)
(0.423565 0.0917627 -3.18861e-19)
(0.481123 0.106809 3.85211e-20)
(0.540406 0.124862 -2.72992e-19)
(0.602376 0.147082 1.15193e-19)
(0.659765 0.168765 -4.14433e-19)
(-0.0132721 0.010711 4.09047e-19)
(-0.0270136 0.0234154 -2.47542e-19)
(-0.0295659 0.0307561 2.03976e-19)
(-0.0223967 0.0346943 -2.57483e-19)
(-0.00665225 0.036696 4.31758e-19)
(0.0167448 0.0378467 -7.65558e-21)
(0.0470349 0.0389375 -5.25257e-20)
(0.0835671 0.0405475 -3.89296e-20)
(0.125744 0.0431029 2.39536e-19)
(0.17298 0.0469148 4.07077e-19)
(0.224669 0.0522057 -2.40502e-19)
(0.280177 0.0591279 2.33685e-19)
(0.338846 0.0677761 4.26967e-19)
(0.400013 0.0781963 -2.99435e-19)
(0.463047 0.090389 -6.09471e-19)
(0.527389 0.104303 1.11569e-18)
(0.592592 0.119817 -1.99121e-19)
(0.658418 0.136787 -6.52068e-20)
(0.725189 0.155575 7.08662e-19)
(0.787411 0.17474 -1.47733e-19)
(-0.0133209 0.00999297 -6.66489e-19)
(-0.0253488 0.0212335 -4.43686e-19)
(-0.0245409 0.0275469 -1.70321e-19)
(-0.0126528 0.0309081 3.28462e-19)
(0.00899176 0.032802 -7.41209e-19)
(0.0393329 0.0343235 3.83611e-19)
(0.0774739 0.0362509 4.85852e-20)
(0.122608 0.0391342 4.90229e-20)
(0.173953 0.0433529 -5.01973e-19)
(0.230702 0.0491521 -1.77247e-19)
(0.292002 0.0566657 -3.12317e-19)
(0.356948 0.0659336 3.01564e-19)
(0.424603 0.0769133 8.57163e-20)
(0.494032 0.0894887 1.67988e-20)
(0.564337 0.103475 3.94591e-19)
(0.634702 0.118614 -3.99192e-19)
(0.704423 0.134566 -1.67949e-20)
(0.772937 0.150921 9.33699e-21)
(0.840003 0.16757 5.39174e-20)
(0.902362 0.185725 3.16493e-19)
(-0.0130856 0.00913982 2.12311e-19)
(-0.0226469 0.018747 5.4687e-19)
(-0.0175813 0.024021 4.3888e-19)
(2.81776e-05 0.0269157 -1.51184e-19)
(0.0286454 0.0289154 5.25456e-19)
(0.0670282 0.0311082 -4.4232e-20)
(0.11408 0.03424 -6.23362e-20)
(0.168757 0.0388058 3.70807e-20)
(0.229996 0.0451074 5.07205e-19)
(0.296669 0.0532876 2.97857e-19)
(0.367573 0.0633546 8.69213e-20)
(0.441448 0.0752016 5.29096e-21)
(0.517014 0.088625 -5.77568e-19)
(0.593026 0.10334 5.0173e-19)
(0.668324 0.118998 8.64621e-20)
(0.741879 0.135193 -1.41863e-19)
(0.812823 0.151469 -6.19338e-19)
(0.880466 0.167351 -5.33446e-20)
(0.944297 0.182396 2.46352e-19)
(1.00319 0.1996 -5.11116e-20)
(-0.0124954 0.0081545 -5.39468e-19)
(-0.0187065 0.0159982 2.25699e-19)
(-0.00836765 0.0202886 -1.10127e-18)
(0.0160629 0.0229115 4.50716e-19)
(0.052787 0.0253229 -3.5935e-19)
(0.100313 0.0285802 2.64901e-19)
(0.157255 0.0333674 -4.11162e-19)
(0.222226 0.0400879 3.77595e-20)
(0.293767 0.0489234 -2.11287e-20)
(0.37032 0.0598696 1.10385e-19)
(0.450245 0.0727663 1.59502e-19)
(0.53187 0.0873275 -3.0153e-19)
(0.613567 0.103172 1.5952e-19)
(0.693821 0.119853 1.46745e-19)
(0.771301 0.136887 6.35974e-19)
(0.8449 0.153778 -2.75729e-19)
(0.913763 0.170038 -1.84663e-19)
(0.977296 0.185228 3.11161e-19)
(1.03504 0.198772 1.68013e-19)
(1.08735 0.214543 -3.13246e-19)
(-0.0114689 0.00704404 4.73041e-19)
(-0.0133092 0.0130444 4.56156e-19)
(0.0034284 0.0164858 1.31357e-19)
(0.0358538 0.0191233 5.53466e-19)
(0.0818376 0.0223464 2.71651e-19)
(0.139545 0.0271471 -4.89486e-19)
(0.207183 0.0341042 7.41048e-19)
(0.282895 0.0434792 -3.64597e-19)
(0.364702 0.055279 3.63728e-19)
(0.450521 0.0692997 4.70543e-19)
(0.538223 0.0851705 -2.68845e-19)
(0.625738 0.102402 5.10374e-20)
(0.711154 0.120433 2.85051e-19)
(0.792817 0.13868 2.01083e-19)
(0.86939 0.156574 4.64298e-19)
(0.939892 0.173596 -1.85115e-19)
(1.00369 0.189292 -2.22753e-20)
(1.0605 0.203326 2.9548e-19)
(1.11018 0.215177 -6.32028e-20)
(1.15396 0.228886 4.67863e-22)
(-0.00991623 0.00582223 -2.44306e-19)
(-0.00622704 0.00996267 -8.9789e-19)
(0.0181288 0.0127775 2.11315e-19)
(0.0597623 0.0158122 -1.60811e-19)
(0.11612 0.0203373 -3.70891e-19)
(0.1849 0.0272293 -2.64401e-19)
(0.263764 0.036903 -1.63283e-19)
(0.350241 0.0494119 3.967e-19)
(0.441729 0.0645239 -2.3554e-19)
(0.535562 0.0817823 -2.40933e-19)
(0.629145 0.100574 -3.05016e-19)
(0.720098 0.1202 -5.03794e-20)
(0.806388 0.139947 -3.39135e-20)
(0.88642 0.159144 -7.06671e-19)
(0.959081 0.177206 3.43504e-19)
(1.02373 0.193662 -4.51599e-19)
(1.08016 0.20817 1.42868e-19)
(1.12852 0.220535 -1.08717e-18)
(1.16915 0.230435 3.27425e-19)
(1.20371 0.241597 4.17169e-19)
(-0.00774161 0.00451234 -6.12776e-20)
(0.00276777 0.00685514 4.38652e-19)
(0.0360312 0.00936216 2.80765e-20)
(0.0880799 0.0132725 6.75961e-20)
(0.155817 0.0196686 -1.37403e-19)
(0.236324 0.0292434 -2.16641e-21)
(0.326559 0.0421695 -3.43524e-21)
(0.423313 0.0582148 -8.26258e-20)
(0.523289 0.0768416 2.93108e-19)
(0.623261 0.0972986 1.13417e-19)
(0.720277 0.118721 5.1452e-19)
(0.811835 0.14023 -1.4047e-19)
(0.896015 0.161016 9.81205e-20)
(0.971533 0.180396 -1.29213e-20)
(1.03772 0.197856 2.72027e-19)
(1.09447 0.213051 1.6694e-19)
(1.14212 0.225807 4.03604e-19)
(1.18132 0.2361 -6.52633e-19)
(1.21289 0.24386 8.22916e-19)
(1.23866 0.252278 -2.61097e-19)
(-0.00484741 0.00314946 -5.72653e-19)
(0.0138918 0.00385243 -1.78429e-19)
(0.0573883 0.006473 1.39677e-19)
(0.120998 0.0118286 8.80049e-20)
(0.200934 0.0207246 8.98315e-20)
(0.293492 0.0335803 9.12178e-20)
(0.394775 0.0502335 -2.2797e-19)
(0.500746 0.0700825 -9.42777e-20)
(0.607423 0.0922281 2.92611e-20)
(0.711139 0.115609 -2.7902e-19)
(0.808794 0.139137 -1.26219e-19)
(0.898033 0.161819 7.63452e-19)
(0.977324 0.182835 -1.96837e-19)
(1.04593 0.201592 -2.7198e-19)
(1.10383 0.217724 -1.29554e-19)
(1.15152 0.23108 8.94653e-20)
(1.18992 0.241687 1.0974e-19)
(1.22015 0.249698 -5.26296e-19)
(1.24341 0.25528 7.62954e-19)
(1.26154 0.261041 -6.61978e-19)
(-0.00113816 0.00178225 -6.51041e-20)
(0.0273375 0.00111601 1.86927e-20)
(0.0823872 0.00437776 -2.35737e-20)
(0.158579 0.0118284 3.45659e-19)
(0.251268 0.0238844 1.88384e-20)
(0.355791 0.0405823 1.26756e-19)
(0.467274 0.061321 -2.63028e-19)
(0.580837 0.0850539 -9.57449e-21)
(0.691927 0.110491 3.65138e-19)
(0.796663 0.136286 5.08786e-20)
(0.892092 0.161201 -3.18167e-19)
(0.97631 0.184225 -2.78526e-20)
(1.04844 0.204641 -2.61803e-19)
(1.10847 0.222034 2.60549e-19)
(1.1571 0.236259 3.62654e-19)
(1.19547 0.247391 -4.00155e-20)
(1.22497 0.255659 -4.89608e-20)
(1.24707 0.261377 1.49198e-19)
(1.26322 0.264893 -4.80818e-19)
(1.27518 0.268288 4.2316e-19)
(0.00347483 0.000473765 6.50268e-20)
(0.0432605 -0.0011621 -4.2046e-19)
(0.111128 0.00337387 1.12605e-19)
(0.200732 0.0136309 -3.48406e-19)
(0.306389 0.0295025 1.19704e-19)
(0.422321 0.0505167 -4.44433e-19)
(0.542623 0.0755323 1.79123e-19)
(0.661664 0.103007 -5.69255e-20)
(0.774547 0.131275 -2.26617e-21)
(0.877497 0.158778 5.82759e-20)
(0.968049 0.184238 -2.12583e-19)
(1.04504 0.206754 -3.03503e-19)
(1.10842 0.225814 -6.23018e-20)
(1.15903 0.241256 -2.79636e-20)
(1.19824 0.253194 -7.10419e-20)
(1.22772 0.261926 -2.31779e-20)
(1.24923 0.267862 -6.94028e-20)
(1.26443 0.271432 -6.02408e-20)
(1.27484 0.273101 -1.79631e-19)
(1.28208 0.274512 2.8529e-19)
(0.00906855 -0.000698649 1.57099e-19)
(0.0617653 -0.00276232 -1.74367e-19)
(0.143606 0.00377961 3.75022e-19)
(0.247192 0.01759 -1.61639e-19)
(0.365631 0.0378849 4.31898e-19)
(0.491925 0.0635528 5.97252e-21)
(0.619186 0.0928304 2.1665e-19)
(0.741239 0.123672 -5.78013e-20)
(0.853183 0.154105 2.41858e-19)
(0.95172 0.182479 1.75283e-20)
(1.0352 0.207617 5.75894e-19)
(1.10341 0.228844 -3.97664e-19)
(1.15724 0.245941 5.35594e-20)
(1.19831 0.259041 1.02242e-19)
(1.22859 0.268512 5.36249e-19)
(1.25013 0.274853 -1.92689e-19)
(1.26485 0.278603 -3.82568e-20)
(1.27447 0.280262 -2.02875e-19)
(1.28045 0.280351 -2.14362e-20)
(1.28424 0.280172 1.01608e-19)
(0.0157033 -0.00164436 -7.56899e-20)
(0.0828932 -0.00344324 2.18197e-19)
(0.179692 0.00592139 -2.22807e-19)
(0.297513 0.0240341 8.82365e-20)
(0.428113 0.0492666 -1.04932e-19)
(0.563257 0.0797463 3.85639e-19)
(0.695238 0.113045 -5.35029e-20)
(0.817674 0.146666 1.32302e-19)
(0.926064 0.178449 -7.77465e-20)
(1.01796 0.206811 -1.89946e-21)
(1.09278 0.230813 8.8969e-20)
(1.15137 0.250109 -6.88453e-20)
(1.19553 0.264821 1.78674e-19)
(1.22756 0.275378 -8.90148e-20)
(1.24983 0.282377 -3.92335e-19)
(1.26459 0.286463 3.90155e-19)
(1.2738 0.288253 -1.75922e-19)
(1.2791 0.288271 1.40464e-19)
(1.28179 0.287052 2.43777e-19)
(1.28314 0.285629 1.00074e-19)
(0.0234178 -0.00226143 1.88211e-19)
(0.106611 -0.0029499 -3.87706e-19)
(0.219126 0.0101181 7.42503e-20)
(0.351072 0.0332452 -5.3757e-20)
(0.492773 0.0637921 -2.16288e-19)
(0.634854 0.0990335 -1.69641e-19)
(0.769092 0.135893 -3.32784e-20)
(0.889323 0.171533 -3.02218e-19)
(0.991869 0.203779 -1.828e-20)
(1.07544 0.231275 -5.60881e-20)
(1.14066 0.253445 -1.52304e-19)
(1.18944 0.270339 -3.38402e-20)
(1.22438 0.282426 -1.16579e-19)
(1.24824 0.290404 -1.94553e-19)
(1.26363 0.295044 1.99243e-19)
(1.27285 0.297085 2.74679e-20)
(1.27776 0.297169 5.47235e-20)
(1.2798 0.295808 -2.29602e-19)
(1.28013 0.293523 -5.76612e-21)
(1.2798 0.291135 -3.54139e-19)
(0.0322239 -0.00243953 2.06826e-19)
(0.132801 -0.00102412 1.37801e-19)
(0.261513 0.0166638 -2.21735e-19)
(0.407083 0.0454393 3.46241e-19)
(0.558421 0.0815036 -3.72172e-20)
(0.70524 0.121239 1.29107e-19)
(0.839219 0.161005 4.46511e-20)
(0.954884 0.197797 1.58134e-19)
(1.04976 0.229616 -1.23796e-19)
(1.12392 0.255486 4.11946e-20)
(1.17923 0.275283 -3.95812e-20)
(1.21855 0.289473 -1.74353e-20)
(1.24506 0.298852 3.30743e-20)
(1.26184 0.304332 -6.09301e-20)
(1.27156 0.306799 -1.86994e-20)
(1.27639 0.30703 -5.72299e-20)
(1.27802 0.305654 -9.30505e-20)
(1.27769 0.30314 6.00894e-20)
(1.27637 0.299986 -8.23809e-20)
(1.27489 0.29684 3.559e-19)
(0.0421032 -0.00206366 -1.03446e-19)
(0.16126 0.00258372 -2.9258e-19)
(0.306328 0.0258105 -3.89079e-20)
(0.464634 0.0607509 -1.04753e-20)
(0.623808 0.102338 -1.30759e-19)
(0.773014 0.146092 -2.14456e-19)
(0.904335 0.187966 7.01494e-20)
(1.01345 0.225001 -9.63642e-20)
(1.09936 0.255562 -1.07939e-19)
(1.16361 0.279177 6.0065e-20)
(1.2092 0.29622 -4.53912e-20)
(1.23976 0.30756 -9.17448e-20)
(1.25889 0.314264 -3.04176e-21)
(1.26974 0.317399 6.20993e-20)
(1.27489 0.317907 -6.32292e-20)
(1.27635 0.316556 8.77752e-20)
(1.27555 0.313932 2.36243e-20)
(1.27354 0.31045 5.94599e-20)
(1.27107 0.306578 1.1578e-19)
(1.26885 0.302816 -9.91487e-20)
(0.0530037 -0.00101857 9.88837e-20)
(0.191693 0.00810212 -8.90365e-21)
(0.352934 0.0377523 4.41768e-20)
(0.522726 0.079223 -6.00542e-20)
(0.68769 0.126134 4.87088e-21)
(0.836929 0.173254 2.07922e-19)
(0.963454 0.216347 -1.36606e-19)
(1.06448 0.252733 5.77391e-20)
(1.14069 0.281308 5.08453e-20)
(1.19502 0.302187 -1.43042e-19)
(1.23147 0.316244 1.34295e-19)
(1.25422 0.324705 1.16102e-21)
(1.26705 0.328848 -9.44509e-20)
(1.27307 0.329826 1.13813e-19)
(1.27467 0.328587 -4.50976e-20)
(1.27358 0.325858 3.44772e-20)
(1.27103 0.322159 -3.85878e-20)
(1.26785 0.317847 -1.54172e-20)
(1.26463 0.313366 -1.34713e-19)
(1.26191 0.309078 4.11894e-20)
(0.064838 0.000806251 -3.34441e-20)
(0.223723 0.015726 8.95198e-20)
(0.400597 0.0526125 1.39187e-20)
(0.580317 0.100804 5.8438e-20)
(0.748903 0.152643 2.7818e-20)
(0.895947 0.20234 1.30347e-20)
(1.0159 0.245734 7.3897e-20)
(1.1078 0.280644 -8.99857e-21)
(1.17404 0.306632 3.25051e-20)
(1.21884 0.324436 5.2207e-20)
(1.24699 0.3354 2.51493e-20)
(1.26298 0.341042 1.80282e-20)
(1.2706 0.34278 7.30694e-20)
(1.27278 0.341797 -7.07099e-20)
(1.27166 0.339004 1.51637e-20)
(1.26871 0.335063 -1.41363e-20)
(1.26492 0.330422 2.19488e-20)
(1.26095 0.32538 1.83657e-20)
(1.25724 0.320364 3.82645e-20)
(1.25421 0.315599 1.63443e-21)
(0.0774838 0.00351138 1.98209e-20)
(0.256901 0.0256055 1.80995e-20)
(0.448526 0.0704349 -2.50242e-20)
(0.63638 0.12535 1.56296e-20)
(0.806402 0.181549 8.80888e-21)
(0.949266 0.232947 -2.74002e-20)
(1.06128 0.27574 9.03017e-21)
(1.14349 0.308447 1.61977e-21)
(1.19992 0.331383 1.55449e-20)
(1.23587 0.345901 -4.16212e-20)
(1.25667 0.353761 -1.14483e-22)
(1.26696 0.3567 1.14925e-20)
(1.27037 0.356208 -9.15662e-21)
(1.26958 0.353448 9.26208e-21)
(1.26644 0.349265 2.40907e-20)
(1.26216 0.344244 -1.36741e-20)
(1.25752 0.338758 3.82475e-21)
(1.25303 0.333054 1.49392e-20)
(1.24903 0.327546 -2.46134e-20)
(1.24581 0.322329 1.18148e-20)
(0.0907858 0.00718234 5.53919e-20)
(0.290714 0.037836 -3.00772e-20)
(0.495894 0.0911791 3.53748e-20)
(0.689939 0.152633 -2.63033e-20)
(0.859309 0.212484 -1.17728e-20)
(0.99632 0.26467 3.55936e-21)
(1.09947 0.306019 -1.15336e-20)
(1.17182 0.335913 4.1443e-20)
(1.2189 0.355459 -3.44538e-20)
(1.24687 0.366589 8.0755e-21)
(1.26135 0.371403 -6.02046e-21)
(1.26694 0.371786 -3.90266e-20)
(1.26703 0.369238 3.78013e-20)
(1.264 0.364864 1.43408e-20)
(1.25939 0.359425 -1.42663e-20)
(1.25419 0.353423 3.34039e-20)
(1.24901 0.347158 -5.15552e-22)
(1.24421 0.340836 -3.22861e-20)
(1.24005 0.334863 2.38854e-20)
(1.23675 0.329198 7.47727e-21)
(0.104559 0.011885 -1.94078e-20)
(0.324609 0.0524516 5.62899e-20)
(0.541881 0.114721 6.49565e-20)
(0.740109 0.182356 -3.05955e-20)
(0.90692 0.24505 5.32356e-20)
(1.03676 0.297114 8.40817e-20)
(1.13051 0.336265 -4.6132e-21)
(1.19321 0.362857 -1.43476e-20)
(1.23164 0.37879 7.0979e-20)
(1.25257 0.386515 3.45364e-20)
(1.26175 0.388392 -6.21603e-21)
(1.26356 0.386377 5.12777e-20)
(1.26111 0.381935 -5.47756e-20)
(1.25642 0.376086 8.52202e-20)
(1.25079 0.369496 -1.41953e-20)
(1.24499 0.362583 4.04534e-20)
(1.23948 0.355583 7.21359e-21)
(1.23454 0.348671 2.88079e-20)
(1.23032 0.342243 -2.74376e-20)
(1.22702 0.336125 6.54125e-21)
(0.118592 0.0176609 -3.01939e-20)
(0.358007 0.0694198 7.18865e-20)
(0.585693 0.140857 5.33303e-20)
(0.786121 0.21416 -8.05315e-21)
(0.948713 0.278829 8.27739e-20)
(1.07044 0.329905 -6.16277e-20)
(1.15463 0.366205 -4.71407e-21)
(1.20813 0.389126 5.4354e-20)
(1.23875 0.401325 1.72713e-20)
(1.25364 0.405691 2.40346e-20)
(1.25846 0.404765 -3.54137e-20)
(1.25731 0.400512 9.19919e-20)
(1.25296 0.394322 1.70477e-20)
(1.24712 0.387111 -8.11511e-20)
(1.24082 0.37945 1.18017e-19)
(1.23467 0.371678 -1.38949e-19)
(1.229 0.363972 -6.3443e-20)
(1.22404 0.356485 1.05954e-20)
(1.21985 0.349606 6.14802e-20)
(1.21662 0.343023 -1.15395e-19)
(0.132656 0.0245246 -6.82047e-20)
(0.390327 0.088641 -1.60728e-19)
(0.626599 0.16931 -1.38786e-19)
(0.827341 0.247643 -1.88773e-19)
(0.984338 0.313398 -1.06873e-19)
(1.09736 0.362686 -2.21327e-19)
(1.17212 0.395597 2.81175e-20)
(1.21709 0.414588 -1.1697e-19)