/*--------------------------------*- C++ -*----------------------------------*\
  =========                 |
  \\      /  F ield         | OpenFOAM: The Open Source CFD Toolbox
   \\    /   O peration     | Website:  https://openfoam.org
    \\  /    A nd           | Version:  6.0
     \\/     M anipulation  |
\*---------------------------------------------------------------------------*/
FoamFile
{
    version     2.0;
    format      ascii;
    class       surfaceScalarField;
    location    "6.4";
    object      phi;
}
// * * * * * * * * * * * * * * * * * * * * * * * * * * * * * * * * * * * * * //

dimensions      [0 3 -1 0 0 0 0];

internalField   nonuniform List<scalar> 
15760
(
-9.28932e-06
9.10521e-06
1.84103e-07
-3.15283e-05
2.18028e-05
4.36142e-07
-6.30716e-05
3.09384e-05
6.04939e-07
-0.000101367
3.75823e-05
7.13382e-07
-0.000144581
4.24342e-05
7.7905e-07
-0.000191392
4.59963e-05
8.15374e-07
-0.000240855
4.86309e-05
8.32179e-07
-0.000292291
5.05991e-05
8.36256e-07
-0.000345213
5.209e-05
8.31964e-07
-0.000399275
5.32407e-05
8.21829e-07
-0.000454234
5.41514e-05
8.07103e-07
-0.000509919
5.48967e-05
7.88225e-07
-0.000566217
5.55333e-05
7.65175e-07
-0.000623061
5.61065e-05
7.37734e-07
-0.000680421
5.66536e-05
7.05665e-07
-0.000738296
5.72067e-05
6.68835e-07
-0.000796716
5.77929e-05
6.27301e-07
-0.000855727
5.84293e-05
5.81164e-07
-0.000915388
5.91303e-05
5.30598e-07
5.99549e-05
4.76105e-07
-0.000975819
-8.96548e-06
1.80707e-05
-3.0501e-05
4.33383e-05
-6.11065e-05
6.1544e-05
-9.83104e-05
7.47862e-05
-0.00014032
8.44441e-05
-0.000185836
9.15123e-05
-0.000233916
9.67107e-05
-0.000283877
0.00010056
-0.000335225
0.000103438
-0.000387604
0.00010562
-0.000440757
0.000107305
-0.000494505
0.000108644
-0.000548722
0.00010975
-0.00060333
0.000110715
-0.000658288
0.000111612
-0.000713589
0.000112508
-0.000769253
0.000113457
-0.00082532
0.000114496
-0.000881844
0.000115654
0.000117047
-0.000938936
-8.33697e-06
2.64077e-05
-2.85019e-05
6.35033e-05
-5.72749e-05
9.03169e-05
-9.234e-05
0.000109851
-0.000131989
0.000124093
-0.000174959
0.000134483
-0.000220319
0.000142071
-0.00026738
0.000147621
-0.000315634
0.000151692
-0.000364704
0.00015469
-0.000414313
0.000156914
-0.000464258
0.000158589
-0.000514393
0.000159885
-0.00056462
0.000160942
-0.000614879
0.000161871
-0.000665146
0.000162775
-0.000715428
0.000163739
-0.000765754
0.000164822
-0.000816172
0.000166072
0.000167652
-0.000866777
-7.4457e-06
3.38534e-05
-2.56542e-05
8.17118e-05
-5.17976e-05
0.00011646
-8.37809e-05
0.000141835
-0.000120016
0.000160328
-0.000159297
0.000173764
-0.000200711
0.000183485
-0.000243563
0.000190473
-0.000287325
0.000195454
-0.000331594
0.000198959
-0.000376065
0.000201384
-0.000420502
0.000203026
-0.000464733
0.000204116
-0.00050863
0.000204839
-0.00055211
0.000205351
-0.000595126
0.00020579
-0.000637667
0.000206281
-0.000679755
0.00020691
-0.000721431
0.000207747
0.000208999
-0.000762778
-6.35027e-06
4.02036e-05
-2.21315e-05
9.7493e-05
-4.49886e-05
0.000139317
-7.30971e-05
0.000169943
-0.000105019
0.00019225
-0.000139625
0.00020837
-0.000176027
0.000219886
-0.000213528
0.000227974
-0.000251579
0.000233505
-0.000289749
0.000237129
-0.000327697
0.000239332
-0.000365154
0.000240484
-0.000401911
0.000240873
-0.000437808
0.000240735
-0.000472731
0.000240274
-0.00050661
0.00023967
-0.000539419
0.00023909
-0.000571172
0.000238663
-0.000601912
0.000238487
0.000238814
-0.000631727
-5.12129e-06
4.53249e-05
-1.81454e-05
0.000110517
-3.72343e-05
0.000158406
-6.08641e-05
0.000193573
-8.77708e-05
0.000219157
-0.000116914
0.000237513
-0.000147444
0.000250416
-0.000178666
0.000259196
-0.000210017
0.000264855
-0.000241035
0.000268147
-0.000271343
0.000269641
-0.000300636
0.000269776
-0.000328663
0.0002689
-0.000355229
0.000267302
-0.000380188
0.000265233
-0.000403444
0.000262926
-0.000424956
0.000260601
-0.000444738
0.000258445
-0.000462853
0.000256602
0.000255372
-0.00047941
-3.83566e-06
4.91606e-05
-1.39303e-05
0.000120612
-2.8967e-05
0.000173443
-4.77327e-05
0.000212339
-6.91491e-05
0.000240573
-9.22789e-05
0.000260643
-0.00011632
0.000274457
-0.000140592
0.000283468
-0.00016452
0.000288784
-0.00018762
0.000291247
-0.000209482
0.000291503
-0.00022976
0.000290054
-0.000248165
0.000287305
-0.00026446
0.000283597
-0.000278463
0.000279236
-0.000290049
0.000274512
-0.000299162
0.000269714
-0.000305824
0.000265106
-0.000310133
0.000260911
0.000257498
-0.000312259
-2.57071e-06
5.17313e-05
-9.72577e-06
0.000127767
-2.06357e-05
0.000184353
-3.43868e-05
0.00022609
-5.00876e-05
0.000256274
-6.69118e-05
0.000277467
-8.41169e-05
0.000291662
-0.000101047
0.000300398
-0.000117129
0.000304865
-0.000131861
0.000305979
-0.000144806
0.000304449
-0.000155585
0.000300832
-0.000163865
0.000295585
-0.000169367
0.000289099
-0.000171865
0.000281734
-0.000171197
0.000273845
-0.000167286
0.000265803
-0.00016016
0.00025798
-0.000149972
0.000250723
0.000244524
-0.000136998
-1.39845e-06
5.31297e-05
-5.75984e-06
0.000132128
-1.26742e-05
0.000191267
-2.14958e-05
0.000234911
-3.151e-05
0.000266288
-4.20042e-05
0.000287962
-5.23044e-05
0.000301962
-6.17919e-05
0.000309886
-6.99066e-05
0.00031298
-7.61441e-05
0.000312217
-8.00495e-05
0.000308354
-8.12124e-05
0.000301995
-7.92627e-05
0.000293635
-7.38721e-05
0.000283708
-6.47616e-05
0.000272623
-5.17183e-05
0.000260801
-3.46248e-05
0.000248709
-1.3505e-05
0.00023686
1.14279e-05
0.00022579
0.000216209
3.97424e-05
-3.80499e-07
5.35102e-05
-2.23217e-06
0.00013398
-5.46943e-06
0.000194504
-9.66593e-06
0.000239108
-1.42627e-05
0.000270885
-1.86568e-05
0.000292356
-2.22492e-05
0.000305555
-2.44696e-05
0.000312106
-2.47856e-05
0.000313296
-2.27027e-05
0.000310134
-1.77614e-05
0.000303413
-9.53098e-06
0.000293765
2.39346e-06
0.000281711
1.83907e-05
0.000267711
3.88043e-05
0.00025221
6.39202e-05
0.000235685
9.39251e-05
0.000218704
0.000128833
0.000201953
0.000168383
0.00018624
0.000172653
0.00021194
4.36064e-07
5.30742e-05
7.0039e-07
0.000133716
6.68258e-07
0.000194537
6.08601e-07
0.000239168
9.55411e-07
0.000270538
2.21329e-06
0.000291098
4.90503e-06
0.000302863
9.54405e-06
0.000307467
1.6623e-05
0.000306217
2.66118e-05
0.000300145
3.99613e-05
0.000290063
5.71095e-05
0.000276616
7.84879e-05
0.000260332
0.000104524
0.000241675
0.000135634
0.0002211
0.0001722
0.000199119
0.000214517
0.000176388
0.000262687
0.000153782
0.000316449
0.000132478
0.000114172
0.000374929
1.02173e-06
5.20524e-05
2.93549e-06
0.000131802
5.53051e-06
0.000191942
8.98888e-06
0.000235709
1.36587e-05
0.000265868
1.99648e-05
0.000284792
2.83597e-05
0.000294468
3.92977e-05
0.000296529
5.32242e-05
0.000292291
7.05743e-05
0.000282795
9.17775e-05
0.00026886
0.000117266
0.000251128
0.000147487
0.000230112
0.000182905
0.000206256
0.000224011
0.000179994
0.000271294
0.000151837
0.000325191
0.000122491
0.000385955
9.30174e-05
0.000453394
6.50394e-05
4.11599e-05
0.000526407
1.3665e-06
5.06859e-05
4.43364e-06
0.000128735
9.03043e-06
0.000187345
1.53268e-05
0.000229413
2.36303e-05
0.000257565
3.43131e-05
0.000274109
4.77722e-05
0.000281009
6.441e-05
0.000279891
8.46267e-05
0.000272074
0.000108821
0.000258601
0.000137395
0.000240286
0.000170766
0.000217756
0.000209381
0.000191497
0.000253728
0.000161909
0.000304351
0.000129372
0.000361836
9.43514e-05
0.00042677
5.75568e-05
0.000499595
2.01918e-05
0.000580272
-1.56377e-05
-4.60966e-05
0.000667529
1.48067e-06
4.92053e-05
5.22265e-06
0.000124993
1.12143e-05
0.000181353
1.96881e-05
0.000220939
3.09617e-05
0.000246291
4.53894e-05
0.000259681
6.3339e-05
0.000263059
8.5181e-05
0.000258049
0.000111286
0.000245969
0.000142028
0.000227859
0.000177789
0.000204525
0.00021897
0.000176575
0.000266007
0.000144461
0.000319386
0.00010853
0.000379662
6.90957e-05
0.00044747
2.65433e-05
0.000523496
-1.84689e-05
0.000608352
-6.46646e-05
0.000702202
-0.000109488
-0.000147605
0.000803711
1.39463e-06
4.78107e-05
5.39779e-06
0.00012099
1.22642e-05
0.000174487
2.23601e-05
0.000210843
3.60672e-05
0.000232584
5.37661e-05
0.000241982
7.58333e-05
0.000240992
0.000102642
0.00023124
0.000134567
0.000214044
0.000171983
0.000190442
0.000215276
0.000161233
0.000264841
0.00012701
0.000321097
8.82042e-05
0.000384498
4.51293e-05
0.00045555
-1.95643e-06
0.000534835
-5.27415e-05
0.000623012
-0.000106646
0.000720741
-0.000162394
0.000828348
-0.000217095
-0.000263822
0.000944565
1.15721e-06
4.66534e-05
5.1167e-06
0.00011703
1.24886e-05
0.000167115
2.38389e-05
0.000199493
3.96691e-05
0.000216754
6.04378e-05
0.000221214
8.65798e-05
0.00021485
0.00011852
0.0001993
0.000156682
0.000175882
0.000201488
0.000145637
0.000253358
0.000109363
0.000312705
6.76625e-05
0.000379931
2.09785e-05
0.000455421
-3.0361e-05
0.000539554
-8.6089e-05
0.000632718
-0.000145906
0.000735343
-0.000209271
0.000847892
-0.000274942
0.000970654
-0.000339857
-0.000395657
0.00110249
8.32521e-07
4.58209e-05
4.58846e-06
0.000113274
1.23014e-05
0.000159402
2.47948e-05
0.000187
4.27466e-05
0.000198802
6.67498e-05
0.00019721
9.7355e-05
0.000184245
0.000135096
0.000161559
0.000180497
0.00013048
0.000234076
9.20577e-05
0.000296325
4.71138e-05
0.000367694
-3.70595e-06
0.00044856
-5.98872e-05
0.000539202
-0.000121003
0.00063978
-0.000186667
0.000750336
-0.000256461
0.000870829
-0.000329764
0.00100119
-0.000405299
0.00114125
-0.000479926
-0.00054426
0.00128986
4.94773e-07
4.53261e-05
4.05629e-06
0.000109713
1.21862e-05
0.000151272
2.60141e-05
0.000173172
4.6448e-05
0.000178368
7.42724e-05
0.000169386
0.000110211
0.000148306
0.000154959
0.000116811
0.000209194
7.62461e-05
0.000273559
2.7693e-05
0.000348639
-2.79665e-05
0.000434919
-8.99858e-05
0.000532729
-0.000157698
0.000642189
-0.000230463
0.000763146
-0.000307625
0.000895147
-0.000388462
0.00103745
-0.00047207
0.00118914
-0.000556987
0.00134913
-0.000639914
-0.000710908
0.00151578
2.2141e-07
4.51047e-05
3.77472e-06
0.000106159
1.26505e-05
0.000142396
2.8322e-05
0.0001575
5.19737e-05
0.000154716
8.46315e-05
0.000136728
0.000127239
0.000105699
0.00018069
6.33591e-05
0.000245834
1.11023e-05
0.000323446
-4.99185e-05
0.000414184
-0.000118704
0.000518531
-0.000194333
0.000636724
-0.00027589
0.000768668
-0.000362408
0.000913855
-0.000452811
0.00107126
-0.000545866
0.00123929
-0.0006401
0.00141584
-0.000733535
0.00159843
-0.000822511
-0.000897019
0.00178455
8.51091e-08
4.50196e-05
3.98381e-06
0.000102261
1.41737e-05
0.000132206
3.24953e-05
0.000139179
6.04435e-05
0.000126768
9.93182e-05
9.78535e-05
0.000150304
5.4713e-05
0.000214498
-8.35092e-07
0.000292895
-6.72947e-05
0.000386347
-0.00014337
0.000495504
-0.000227861
0.000620753
-0.000319582
0.000762151
-0.000417289
0.000919372
-0.000519628
0.00109165
-0.000625087
0.00127771
-0.000731932
0.0014757
-0.000838083
0.00168272
-0.00094056
0.00189322
-0.00103301
-0.00109514
0.00209134
1.45356e-07
4.48743e-05
4.88355e-06
9.75224e-05
1.71569e-05
0.000119933
3.91801e-05
0.000117155
7.27723e-05
9.31759e-05
0.000119513
5.11127e-05
0.000180813
-6.58651e-06
0.000257919
-7.79413e-05
0.000351882
-0.000161258
0.000463494
-0.000254982
0.00059322
-0.000357588
0.000741146
-0.000467508
0.00090694
-0.000583082
0.00108987
-0.000702556
0.00128887
-0.000824088
0.00150273
-0.000945797
0.00173045
-0.0010658
0.00197209
-0.00118219
0.00223191
-0.00129283
-0.0013873
0.00252407
4.45569e-07
4.44287e-05
6.62035e-06
9.13476e-05
2.18914e-05
0.000104662
4.88355e-05
9.02113e-05
8.9584e-05
5.24273e-05
0.000145965
-5.26859e-06
0.000219549
-8.01698e-05
0.000311621
-0.000170014
0.000423122
-0.000272758
0.000554563
-0.000386423
0.000705956
-0.000508981
0.000876769
-0.000638321
0.00106593
-0.000772239
0.00127186
-0.000908487
0.00149261
-0.00104485
0.00172604
-0.00117922
0.00197002
-0.00130978
0.00222288
-0.00143505
0.00248406
-0.00155401
-0.00165789
0.00275464
1.0069e-06
4.34218e-05
9.27299e-06
8.30815e-05
2.85359e-05
8.53991e-05
6.17007e-05
5.70465e-05
0.000111167
2.96097e-06
0.000178937
-7.30387e-05
0.000266618
-0.000167851
0.00037536
-0.000278755
0.000505758
-0.000403156
0.000657765
-0.00053843
0.00083063
-0.000681847
0.00102289
-0.000830582
0.00123243
-0.000981775
0.00145657
-0.00113263
0.00169227
-0.00128054
0.00193626
-0.00142321
0.00218526
-0.00155879
0.00243611
-0.0016859
0.00268586
-0.00180376
-0.00190563
0.00293361
1.83296e-06
4.15889e-05
1.28616e-05
7.20529e-05
3.71285e-05
6.11321e-05
7.7809e-05
1.63661e-05
0.000137491
-5.67208e-05
0.000218227
-0.000153775
0.000321483
-0.000271107
0.000448034
-0.000405306
0.000597848
-0.00055297
0.000770011
-0.000710593
0.000962714
-0.00087455
0.00117332
-0.00104119
0.0013985
-0.00120696
0.00163446
-0.00136859
0.00187714
-0.00152322
0.00212246
-0.00166853
0.00236652
-0.00180285
0.00260571
-0.0019251
0.00283684
-0.00203489
-0.002128
0.00305921
2.91416e-06
3.86747e-05
1.73604e-05
5.76066e-05
4.76094e-05
3.08831e-05
9.70222e-05
-3.30468e-05
0.000168254
-0.000127953
0.000263233
-0.000248754
0.000383047
-0.000390921
0.000527806
-0.000550065
0.00069654
-0.000721704
0.000887171
-0.000901224
0.0010966
-0.00108398
0.00132091
-0.00126549
0.00155559
-0.00144164
0.0017959
-0.0016089
0.00203716
-0.00176447
0.002275
-0.00190637
0.00250558
-0.00203343
0.00272569
-0.00214521
0.00293284
-0.00224204
-0.0023219
0.00312674
4.23435e-06
3.44403e-05
2.27154e-05
3.91256e-05
5.98522e-05
-6.25369e-06
0.000119077
-9.22713e-05
0.000202946
-0.000211822
0.000313034
-0.000358841
0.000449761
-0.000527649
0.000612253
-0.000712557
0.000798291
-0.000907742
0.0010044
-0.00110734
0.0012261
-0.00130568
0.00145824
-0.00149762
0.00169538
-0.00167879
0.00193227
-0.00184579
0.00216411
-0.00199631
0.00238686
-0.00212913
0.00259739
-0.00224395
0.00279348
-0.0023413
0.00297382
-0.00242237
-0.00248697
0.00313888
5.7767e-06
2.86636e-05
2.88607e-05
1.60416e-05
7.36913e-05
-5.10842e-05
0.000143621
-0.000162201
0.000240895
-0.000309096
0.00036645
-0.000484396
0.000519712
-0.000680911
0.000698498
-0.000891343
0.000899092
-0.00110834
0.00111652
-0.00132476
0.00134497
-0.00153414
0.00157835
-0.001731
0.00181075
-0.00191119
0.00203693
-0.00207197
0.00225261
-0.002212
0.00245463
-0.00233115
0.00264099
-0.00243031
0.00281075
-0.00251106
0.00296389
-0.00257551
-0.00262479
0.0031017
7.52707e-06
2.11366e-05
3.57272e-05
-1.21586e-05
8.89356e-05
-0.000104293
0.000170235
-0.0002435
0.000281292
-0.000420153
0.000422081
-0.000625185
0.000590693
-0.000849522
0.000783356
-0.00108401
0.000994722
-0.0013197
0.00121838
-0.00154842
0.00144749
-0.00176325
0.00167547
-0.00195898
0.00189653
-0.00213224
0.00210603
-0.00228148
0.00230073
-0.00240669
0.00247872
-0.00250914
0.00263934
-0.00259092
0.00278293
-0.00265465
0.00291059
-0.00270317
-0.00273851
0.00302432
9.47425e-06
1.16623e-05
4.32428e-05
-4.59271e-05
0.000105368
-0.000166418
0.000198426
-0.000336558
0.000323192
-0.00054492
0.000478327
-0.00078032
0.000660273
-0.00103147
0.000863494
-0.00128723
0.00108104
-0.00153725
0.00130535
-0.00177272
0.00152903
-0.00198693
0.0017456
-0.00217556
0.00194999
-0.00233662
0.00213867
-0.00247017
0.00230976
-0.00257778
0.00246275
-0.00266213
0.00259824
-0.00272642
0.00271765
-0.00277406
0.00282285
-0.00280837
-0.0028319
0.00291623
1.16076e-05
5.4763e-08
5.13258e-05
-8.56453e-05
0.000122735
-0.000237827
0.000227616
-0.000441439
0.00036551
-0.000682813
0.000533418
-0.000948228
0.000725903
-0.00122395
0.000935646
-0.00149697
0.00115434
-0.00175595
0.00137373
-0.0019921
0.00158648
-0.00219968
0.00178684
-0.00237592
0.0019709
-0.00252069
0.00213662
-0.00263588
0.00228353
-0.00272469
0.00241242
-0.00279102
0.00252493
-0.00283892
0.00262317
-0.0028723
0.00270944
-0.00289464
-0.00290868
0.00278622
1.3913e-05
-1.38582e-05
5.98752e-05
-0.000131608
0.000140728
-0.00031868
0.000257132
-0.000557843
0.000407032
-0.000832713
0.000585481
-0.00112668
0.000785067
-0.00142354
0.000996862
-0.00170877
0.00121164
-0.00197073
0.00142106
-0.00220152
0.00161845
-0.00239707
0.0017993
-0.00255676
0.0019612
-0.00268259
0.0021036
-0.00277829
0.00222738
-0.00284847
0.00233434
-0.00289797
0.00242679
-0.00293137
0.0025072
-0.00295271
0.00257796
-0.0029654
-0.00297213
0.0026414
1.63696e-05
-3.02278e-05
6.87617e-05
-0.000184
0.000158978
-0.000408897
0.000286206
-0.000685071
0.000446452
-0.000992959
0.000632641
-0.00131287
0.000835464
-0.00162636
0.00104476
-0.00191806
0.00125096
-0.00217693
0.00144626
-0.00239682
0.00162522
-0.00257603
0.00178484
-0.00271638
0.0019243
-0.00282205
0.00204443
-0.00289842
0.00214716
-0.0029512
0.00223496
-0.00298577
0.00231046
-0.00300688
0.0023762
-0.00301845
0.00243443
-0.00302362
-0.00302487
0.00248717
1.89467e-05
-4.91745e-05
7.78231e-05
-0.000242876
0.000177056
-0.000508129
0.000313995
-0.00082201
0.000482444
-0.00116141
0.000673153
-0.00150358
0.000875191
-0.0018284
0.0010777
-0.00212056
0.00127141
-0.00237064
0.00144961
-0.00257503
0.00160842
-0.00273483
0.00174649
-0.00285445
0.00186445
-0.00294001
0.00196424
-0.00299822
0.00204848
-0.00303544
0.00212
-0.00305729
0.00218146
-0.00306834
0.00223524
-0.00307222
0.00228331
-0.00307169
-0.00306891
0.00232734
2.16032e-05
-7.07776e-05
8.68651e-05
-0.000308138
0.000194479
-0.000615743
0.000339627
-0.000967158
0.000513739
-0.00133552
0.000705531
-0.00169537
0.000902895
-0.00202577
0.00109489
-0.00231256
0.00127315
-0.0025489
0.00143246
-0.00273434
0.00157064
-0.00287302
0.0016879
-0.00297171
0.00178608
-0.00303819
0.00186787
-0.00308001
0.00193627
-0.00310385
0.00199415
-0.00311517
0.00204404
-0.00311823
0.00208801
-0.0031162
0.00212772
-0.0031114
-0.00310567
0.00216448
2.4288e-05
-9.50656e-05
9.56676e-05
-0.000379518
0.000210742
-0.000730817
0.000362251
-0.00111867
0.000539229
-0.0015125
0.000728664
-0.0018848
0.000917843
-0.00221494
0.00109636
-0.00249108
0.00125722
-0.00270976
0.00139694
-0.00287406
0.00151499
-0.00299106
0.00161289
-0.00306961
0.00169337
-0.00311866
0.00175956
-0.0031462
0.00181455
-0.00315884
0.00186107
-0.00316168
0.00190134
-0.0031585
0.00193714
-0.00315199
0.00196978
-0.00314404
-0.00313616
0.00200026
2.69416e-05
-0.000122007
0.000103994
-0.000456571
0.000225338
-0.000852161
0.000381096
-0.00127442
0.000558036
-0.00168944
0.000741881
-0.00206865
0.000919926
-0.00239299
0.00108285
-0.002654
0.00122532
-0.00285223
0.00134562
-0.00299435
0.00144467
-0.00309011
0.00152504
-0.00314998
0.00158999
-0.00318361
0.00164281
-0.00319903
0.00168648
-0.00320251
0.00172344
-0.00319864
0.00175561
-0.00319066
0.0017844
-0.00318078
0.00181086
-0.0031705
-0.00316102
0.00183573
2.94992e-05
-0.000151506
0.000111605
-0.000538676
0.000237795
-0.000978351
0.000395519
-0.00143215
0.00056957
-0.00186349
0.000744961
-0.00224404
0.000909585
-0.00255761
0.00105561
-0.00280002
0.00117951
-0.00297613
0.00128118
-0.00309602
0.00136277
-0.00317171
0.00142754
-0.00321475
0.001479
-0.00323507
0.00152039
-0.00324042
0.00155443
-0.00323655
0.00158323
-0.00322745
0.00160837
-0.0032158
0.00163098
-0.00320339
0.00165185
-0.00319138
-0.00318069
0.00167152
3.1893e-05
-0.000183399
0.000118268
-0.000625051
0.0002477
-0.00110778
0.000405047
-0.0015895
0.000573549
-0.00203199
0.0007381
-0.00240859
0.000887697
-0.00270721
0.00101624
-0.00292857
0.00112198
-0.00308187
0.00120623
-0.00318028
0.00127204
-0.00323752
0.00132307
-0.00326578
0.00136285
-0.00327485
0.00139441
-0.00327198
0.00142013
-0.00326228
0.0014418
-0.00324911
0.00146068
-0.00323468
0.00147765
-0.00322036
0.00149331
-0.00320704
-0.00319543
0.00150804
3.40561e-05
-0.000217455
0.000123773
-0.000714768
0.000254725
-0.00123874
0.000409397
-0.00174417
0.000569987
-0.00219258
0.00072184
-0.00256044
0.000855437
-0.00284081
0.000966512
-0.00303965
0.00105494
-0.00317029
0.00112317
-0.00324851
0.00117486
-0.00328921
0.00121382
-0.00330474
0.00124343
-0.00330446
0.00126642
-0.00329497
0.00128482
-0.00328068
0.00130009
-0.00326438
0.00131323
-0.00324782
0.00132491
-0.00323204
0.00133559
-0.00321772
-0.00320537
0.00134553
3.59249e-05
-0.00025338
0.000127943
-0.000806786
0.000258641
-0.00136943
0.000408475
-0.001894
0.000559158
-0.00234326
0.000696982
-0.00269827
0.000814151
-0.00295798
0.000908196
-0.00313369
0.000980396
-0.00324249
0.00103406
-0.00330218
0.00107318
-0.00332832
0.00110151
-0.00333307
0.00112218
-0.00332513
0.00113757
-0.00331036
0.00114937
-0.00329248
0.00115875
-0.00327376
0.00116649
-0.00325555
0.0011731
-0.00323866
0.00117893
-0.00322355
-0.0032106
0.00118417
3.74468e-05
-0.000290827
0.000130647
-0.000899986
0.000259336
-0.00149812
0.00040238
-0.00203705
0.000541562
-0.00248245
0.000664511
-0.00282122
0.000765264
-0.00305873
0.000843013
-0.00321144
0.000900191
-0.00329967
0.00094069
-0.00334268
0.000968599
-0.00335623
0.0009875
-0.00335197
0.00100019
-0.00333782
0.0010087
-0.00331887
0.00101441
-0.00329819
0.00101824
-0.00327759
0.00102079
-0.00325811
0.00102246
-0.00324034
0.00102351
-0.00322459
-0.00321116
0.00102407
3.85665e-05
-0.000329394
0.000131778
-0.000993198
0.00025677
-0.00162311
0.000391323
-0.0021716
0.000517799
-0.00260892
0.000625443
-0.00292886
0.000710115
-0.0031434
0.000772479
-0.0032738
0.000815849
-0.00334304
0.000844453
-0.00337128
0.000862322
-0.0033741
0.000872758
-0.0033624
0.000878208
-0.00334327
0.000880361
-0.00332102
0.00088033
-0.00329816
0.000878831
-0.00327609
0.000876332
-0.00325561
0.000873136
-0.00323714
0.000869435
-0.00322089
-0.00320705
0.000865327
3.92497e-05
-0.000368643
0.000131295
-0.00108524
0.000251026
-0.00174285
0.000375672
-0.00229625
0.000488609
-0.00272186
0.000580857
-0.00302111
0.000650014
-0.00321256
0.000697979
-0.00332177
0.000728698
-0.00337376
0.000746533
-0.00338912
0.000755327
-0.0033829
0.000758056
-0.00336513
0.000756814
-0.00334203
0.000752987
-0.00331719
0.000747455
-0.00329262
0.000740771
-0.00326941
0.000733295
-0.00324813
0.000725263
-0.00322911
0.000716822
-0.00321245
-0.00319828
0.000708048
3.94702e-05
-0.000408114
0.000129195
-0.00117497
0.00024226
-0.00185591
0.000355869
-0.00240985
0.000454756
-0.00282074
0.000531783
-0.00309813
0.00058613
-0.00326691
0.00062069
-0.00335633
0.000639817
-0.00339289
0.000647844
-0.00339715
0.000648348
-0.0033834
0.000643952
-0.00336073
0.000636423
-0.0033345
0.000626877
-0.00330765
0.000616
-0.00328175
0.000604218
-0.00325762
0.000591806
-0.00323572
0.000578951
-0.00321625
0.00056577
-0.00319927
-0.00318483
0.000552323
3.92132e-05
-0.000447327
0.000125518
-0.00126127
0.000230691
-0.00196108
0.000332405
-0.00251157
0.000417009
-0.00290535
0.00047918
-0.00316031
0.000519492
-0.00330722
0.000541603
-0.00337844
0.000550079
-0.00340136
0.000549103
-0.00339617
0.000541937
-0.00337623
0.000530858
-0.00334966
0.000517331
-0.00332097
0.000502245
-0.00329256
0.000486126
-0.00326563
0.000469296
-0.00324079
0.000451968
-0.00321839
0.000434292
-0.00319858
0.000416366
-0.00318134
-0.00316671
0.00039824
3.84758e-05
-0.000485803
0.000120336
-0.00134313
0.000216583
-0.00205733
0.000305797
-0.00260078
0.000376104
-0.00297565
0.000423915
-0.00320812
0.000450991
-0.00333429
0.000461538
-0.00338899
0.000460176
-0.0034
0.000450858
-0.00338685
0.000436507
-0.00336188
0.000419073
-0.00333222
0.000399755
-0.00330165
0.000379248
-0.00327205
0.000357951
-0.00324433
0.000336103
-0.00321894
0.000313868
-0.00319616
0.000291369
-0.00317608
0.000268691
-0.00315867
-0.0031439
0.000245882
3.72656e-05
-0.000523068
0.000113752
-0.00141962
0.00020023
-0.00214381
0.00027656
-0.00267711
0.000332731
-0.00303183
0.000366759
-0.00324215
0.00038138
-0.00334891
0.000381163
-0.00338877
0.000370658
-0.0033895
0.000353531
-0.00336973
0.000332369
-0.00334072
0.000308818
-0.00330867
0.000283851
-0.00327669
0.000258004
-0.00324621
0.000231568
-0.00321789
0.000204718
-0.0031921
0.000177579
-0.00316902
0.000150252
-0.00314875
0.000122818
-0.00313123
-0.0031164
9.53233e-05
3.55997e-05
-0.000558668
0.00010589
-0.00148991
0.000181941
-0.00221986
0.000245194
-0.00274036
0.000287519
-0.00307415
0.000308381
-0.00326301
0.000311293
-0.00335183
0.000301021
-0.0033785
0.000281955
-0.00337043
0.000257445
-0.00334522
0.000229752
-0.00331303
0.000200256
-0.00327918
0.000169736
-0.00324617
0.000138597
-0.00321507
0.000107048
-0.00318635
7.52055e-05
-0.00316025
4.31614e-05
-0.00313697
1.10024e-05
-0.00311659
-2.11921e-05
-0.00309904
-0.00308422
-5.33687e-05
3.35036e-05
-0.000592172
9.68878e-05
-0.00155329
0.000162025
-0.002285
0.000212168
-0.00279051
0.000241032
-0.00310301
0.000249359
-0.00327134
0.000241254
-0.00334372
0.000221549
-0.00335879
0.000194405
-0.00334328
0.000162847
-0.00331366
0.000128832
-0.00327901
9.35082e-05
-0.00324385
5.74951e-05
-0.00321015
2.10948e-05
-0.00317867
-1.55557e-05
-0.00314969
-5.23863e-05
-0.00312342
-8.93357e-05
-0.00310002
-0.00012633
-0.0030796
-0.000163285
-0.00306208
-0.00304737
-0.000200137
3.10093e-05
-0.000623181
8.68947e-05
-0.00160918
0.000140789
-0.00233889
0.000177919
-0.00282764
0.00019377
-0.00311886
0.000190187
-0.00326775
0.0001717
-0.00332523
0.000143101
-0.00333019
0.000108277
-0.00330846
6.99312e-05
-0.00327531
2.97449e-05
-0.00323883
-1.13303e-05
-0.00320278
-5.28043e-05
-0.00316868
-9.44559e-05
-0.00313702
-0.000136205
-0.00310795
-0.000178023
-0.0030816
-0.000219881
-0.00305817
-0.000261714
-0.00303777
-0.00030343
-0.00302037
-0.00300586
-0.000344947
2.81543e-05
-0.000651335
7.60626e-05
-0.00165709
0.000118524
-0.00238135
0.000142844
-0.00285196
0.000146173
-0.00312219
0.000131284
-0.00325286
0.000102994
-0.00329694
6.59655e-05
-0.00329316
2.37891e-05
-0.00326628
-2.11423e-05
-0.00323038
-6.73943e-05
-0.00319257
-0.00011418
-0.00315599
-0.000161108
-0.00312175
-0.000208019
-0.00309011
-0.000254876
-0.00306109
-0.000301692
-0.00303479
-0.000348466
-0.00301139
-0.00039515
-0.00299108
-0.000441635
-0.00297388
-0.00295968
-0.000487815
2.49803e-05
-0.000676315
6.45445e-05
-0.00169665
9.5507e-05
-0.00241232
0.000107304
-0.00286376
9.86234e-05
-0.00311351
7.30114e-05
-0.00322725
3.54405e-05
-0.00325937
-9.61369e-06
-0.00324811
-5.88714e-05
-0.00321703
-0.000110233
-0.00317902
-0.000162481
-0.00314033
-0.000214964
-0.00310351
-0.000267366
-0.00306935
-0.000319566
-0.00303791
-0.00037156
-0.00300909
-0.000423397
-0.00298295
-0.000475115
-0.00295967
-0.000526682
-0.00293951
-0.000577973
-0.00292259
-0.00290881
-0.000628843
2.15319e-05
-0.000697847
5.2491e-05
-0.00172761
7.19966e-05
-0.00243182
7.16213e-05
-0.00286338
5.14601e-05
-0.00309335
1.56778e-05
-0.00319147
-3.06975e-05
-0.003213
-8.3424e-05
-0.00319538
-0.000139535
-0.00316092
-0.000197204
-0.00312135
-0.000255405
-0.00308212
-0.000313598
-0.00304532
-0.000371516
-0.00301143
-0.000429062
-0.00298036
-0.000486248
-0.00295191
-0.000543156
-0.00292604
-0.000599866
-0.00290296
-0.00065638
-0.002883
-0.000712559
-0.00286641
-0.00285317
-0.000768197
1.78556e-05
-0.000715703
4.00482e-05
-0.0017498
4.82323e-05
-0.00244001
3.60886e-05
-0.00285124
4.97961e-06
-0.00306224
-4.04455e-05
-0.00314604
-9.51874e-05
-0.00315826
-0.00015527
-0.0031353
-0.000218035
-0.00309815
-0.00028191
-0.00305748
-0.000346037
-0.003018
-0.000409969
-0.00298138
-0.000473474
-0.00294793
-0.000536454
-0.00291738
-0.000598923
-0.00288944
-0.000660979
-0.00286399
-0.000722756
-0.00284119
-0.000784305
-0.00282145
-0.000845483
-0.00280523
-0.00279267
-0.000905983
1.3999e-05
-0.000729702
2.73562e-05
-0.00176316
2.4435e-05
-0.00243708
9.66974e-07
-0.00282777
-4.05553e-05
-0.00302072
-9.51175e-05
-0.00309148
-0.000157817
-0.00309556
-0.000224962
-0.00306816
-0.000294195
-0.00302892
-0.000364179
-0.00298749
-0.000434211
-0.00294796
-0.000503923
-0.00291167
-0.000573108
-0.00287874
-0.000641654
-0.00284883
-0.000709546
-0.00282155
-0.000776878
-0.00279665
-0.000843826
-0.00277424
-0.00091051
-0.00275477
-0.000976796
-0.00273895
-0.00272723
-0.00104223
1.00098e-05
-0.000739712
1.45479e-05
-0.0017677
8.06735e-07
-0.00242334
-3.35097e-05
-0.00279345
-8.49106e-05
-0.00296932
-0.000148121
-0.00302827
-0.000218386
-0.00302529
-0.00029231
-0.00299423
-0.000367822
-0.0029534
-0.000443807
-0.00291151
-0.000519706
-0.00287206
-0.000595233
-0.00283615
-0.000670206
-0.00280377
-0.000744493
-0.00277455
-0.000818027
-0.00274801
-0.000890858
-0.00272382
-0.000963172
-0.00270193
-0.00103517
-0.00268277
-0.00110674
-0.00266737
-0.00265663
-0.00117734
5.93512e-06
-0.000745647
1.74759e-06
-0.00176351
-2.24695e-05
-0.00239913
-6.7133e-05
-0.00274879
-0.000127879
-0.00290857
-0.000199258
-0.00295689
-0.000276704
-0.00294785
-0.000357117
-0.00291382
-0.000438702
-0.00287182
-0.000520548
-0.00282966
-0.00060224
-0.00279037
-0.000683581
-0.00275481
-0.000764435
-0.00272291
-0.000844666
-0.00269431
-0.000924149
-0.00266853
-0.00100286
-0.00264512
-0.00108095
-0.00262383
-0.00115872
-0.002605
-0.00123615
-0.00258994
-0.0025799
-0.00131288
1.82039e-06
-0.000747467
-1.093e-05
-0.00175076
-4.52297e-05
-0.00236483
-9.97196e-05
-0.0026943
-0.000169276
-0.00283902
-0.00024835
-0.00287782
-0.000332588
-0.00286361
-0.000419183
-0.00282722
-0.000506597
-0.00278441
-0.000594115
-0.00274214
-0.000681464
-0.00270302
-0.000768554
-0.00266772
-0.000855334
-0.00263613
-0.000941705
-0.00260794
-0.00102752
-0.00258271
-0.00111268
-0.00255996
-0.00119729
-0.00253922
-0.00128177
-0.00252052
-0.00136633
-0.00250538
-0.00249463
-0.00145159
-2.29148e-06
-0.000745176
-2.33817e-05
-0.00172967
-6.7331e-05
-0.00232088
-0.000131112
-0.00263052
-0.000208946
-0.00276118
-0.00029524
-0.00279152
-0.000385867
-0.00277298
-0.000478303
-0.00273479
-0.000571248
-0.00269146
-0.000664167
-0.00264922
-0.000756929
-0.00261026
-0.000849582
-0.00257506
-0.00094221
-0.0025435
-0.00103486
-0.0025153
-0.00112746
-0.0024901
-0.00121993
-0.0024675
-0.00131227
-0.00244688
-0.00140486
-0.00242793
-0.00149831
-0.00241193
-0.00239758
-0.00159536
-6.36124e-06
-0.000738815
-3.55172e-05
-0.00170051
-8.86527e-05
-0.00226774
-0.000161183
-0.00255799
-0.000246762
-0.0026756
-0.0003398
-0.00269849
-0.0004364
-0.00267638
-0.000534294
-0.00263689
-0.000632394
-0.00259336
-0.000730318
-0.0025513
-0.000828058
-0.00251252
-0.000925796
-0.00247733
-0.0010238
-0.0024455
-0.00112238
-0.00241672
-0.00122183
-0.00239066
-0.00132234
-0.00236699
-0.00142404
-0.00234518
-0.00152753
-0.00232444
-0.00163518
-0.00230428
-0.0022967
-0.00173606
-1.03416e-05
-0.000728473
-4.724e-05
-0.00166362
-0.000109075
-0.00220591
-0.000189811
-0.00247725
-0.000282614
-0.0025828
-0.000381928
-0.00259917
-0.000484078
-0.00257423
-0.000587027
-0.00253395
-0.000689856
-0.00249053
-0.000792286
-0.00244887
-0.000894369
-0.00241044