1.275 	2.15223e-18 	-2.76991e-20 	-0.141218 	0.00740928 	-2.57671e-22
1.825 	2.15223e-18 	-1.39322e-20 	-0.264179 	0.0101405 	3.47727e-21
2.375 	2.15223e-18 	-2.66896e-23 	-0.359574 	0.00387921 	-1.71044e-21
