/*--------------------------------*- C++ -*----------------------------------*\
  =========                 |
  \\      /  F ield         | OpenFOAM: The Open Source CFD Toolbox
   \\    /   O peration     | Website:  https://openfoam.org
    \\  /    A nd           | Version:  6.0
     \\/     M anipulation  |
\*---------------------------------------------------------------------------*/
FoamFile
{
    version     2.0;
    format      ascii;
    class       volScalarField;
    location    "26";
    object      p;
}
// * * * * * * * * * * * * * * * * * * * * * * * * * * * * * * * * * * * * * //

dimensions      [0 2 -2 0 0 0 0];

internalField   nonuniform List<scalar> 
4000
(
-0.45723
-0.443409
-0.431216
-0.417855
-0.402135
-0.384517
-0.365775
-0.346707
-0.327997
-0.310131
-0.293392
-0.277897
-0.263655
-0.250608
-0.238665
-0.227721
-0.217679
-0.208415
-0.199734
-0.191934
-0.465212
-0.450948
-0.437946
-0.423159
-0.405517
-0.38577
-0.364962
-0.344056
-0.323804
-0.304689
-0.286955
-0.270671
-0.255799
-0.242245
-0.229888
-0.218604
-0.208279
-0.198771
-0.189869
-0.181947
-0.471378
-0.456771
-0.442909
-0.426566
-0.406894
-0.384987
-0.36216
-0.339524
-0.31787
-0.297655
-0.279069
-0.262126
-0.246743
-0.232787
-0.220112
-0.208575
-0.198049
-0.188372
-0.179322
-0.171352
-0.47536
-0.460509
-0.445739
-0.427737
-0.405977
-0.381936
-0.357197
-0.332985
-0.3101
-0.288952
-0.269669
-0.252206
-0.236435
-0.222188
-0.209295
-0.197598
-0.186956
-0.177188
-0.168065
-0.160123
-0.476801
-0.461803
-0.446086
-0.426356
-0.402508
-0.376425
-0.34993
-0.324333
-0.300413
-0.278515
-0.258699
-0.240862
-0.224831
-0.210408
-0.197402
-0.18564
-0.174972
-0.165194
-0.156076
-0.14824
-0.475365
-0.460317
-0.443629
-0.422149
-0.396272
-0.368294
-0.340247
-0.313487
-0.288744
-0.26629
-0.246112
-0.228051
-0.211894
-0.197415
-0.184404
-0.172678
-0.162074
-0.152372
-0.143341
-0.135688
-0.470751
-0.455748
-0.438087
-0.41488
-0.387095
-0.357424
-0.328066
-0.300386
-0.275048
-0.252239
-0.231875
-0.213744
-0.197596
-0.183184
-0.170281
-0.158694
-0.14825
-0.138711
-0.129851
-0.122462
-0.462702
-0.447835
-0.429226
-0.404369
-0.374852
-0.343733
-0.313335
-0.284996
-0.259297
-0.236337
-0.215964
-0.197919
-0.181921
-0.167701
-0.155021
-0.143679
-0.133493
-0.124208
-0.115609
-0.108561
-0.451008
-0.436369
-0.416865
-0.390485
-0.359462
-0.327178
-0.296031
-0.267303
-0.241479
-0.218575
-0.198372
-0.18057
-0.164862
-0.150962
-0.138622
-0.127634
-0.117807
-0.108872
-0.100623
-0.0939956
-0.435518
-0.421198
-0.400884
-0.373158
-0.340897
-0.307756
-0.276162
-0.247317
-0.221606
-0.19896
-0.179103
-0.1617
-0.146422
-0.132971
-0.121091
-0.110568
-0.101206
-0.0927191
-0.084917
-0.07879
-0.416141
-0.402233
-0.381225
-0.35237
-0.319172
-0.285501
-0.253766
-0.225075
-0.199707
-0.177516
-0.158177
-0.141325
-0.126616
-0.113742
-0.102441
-0.0924975
-0.0837061
-0.0757733
-0.0685207
-0.0629825
-0.392852
-0.379448
-0.357892
-0.328161
-0.29435
-0.260481
-0.228911
-0.200634
-0.175832
-0.154285
-0.135628
-0.119475
-0.105468
-0.0932949
-0.0826916
-0.0734404
-0.0653301
-0.058061
-0.05147
-0.0466157
-0.36569
-0.352883
-0.330949
-0.300623
-0.266537
-0.232802
-0.201692
-0.17408
-0.150051
-0.129326
-0.111505
-0.0961879
-0.08301
-0.0716575
-0.0618659
-0.0534174
-0.0460977
-0.0396069
-0.0337963
-0.0297131
-0.334757
-0.322643
-0.300523
-0.269901
-0.23588
-0.202605
-0.172234
-0.14552
-0.122458
-0.102716
-0.0858726
-0.0715157
-0.0592817
-0.0488589
-0.039986
-0.0324469
-0.0260279
-0.0204354
-0.0155233
-0.012267
-0.300221
-0.288894
-0.266795
-0.236185
-0.202568
-0.170062
-0.140693
-0.115091
-0.0931691
-0.074555
-0.0588098
-0.0455207
-0.0343285
-0.024929
-0.0170689
-0.0105382
-0.00512976
-0.00055954
0.00333942
0.00572328
-0.262305
-0.251858
-0.229998
-0.199712
-0.166825
-0.13538
-0.107253
-0.0829534
-0.0623249
-0.0449617
-0.0304167
-0.0182814
-0.00820688
9.74412e-05
0.0068705
0.0123099
0.0166108
0.0200405
0.0227883
0.0241337
-0.221287
-0.211812
-0.190412
-0.160757
-0.128909
-0.0987934
-0.0721238
-0.0492965
-0.030092
-0.0140808
-0.000814485
0.0101055
0.0190114
0.0261726
0.0318056
0.036092
0.0392106
0.0413743
0.042709
0.0425769
-0.177494
-0.169077
-0.148358
-0.119628
-0.0891097
-0.0605674
-0.0355471
-0.0143371
0.00333605
0.0179189
0.0298568
0.0395332
0.0472573
0.0532664
0.0577432
0.060848
0.0627196
0.0633984
0.0627841
0.0606105
-0.131292
-0.124015
-0.104191
-0.0766667
-0.047743
-0.0209929
0.00220942
0.0216774
0.0377321
0.0508339
0.0614248
0.0698757
0.0764733
0.0814212
0.084865
0.0869339
0.0876537
0.0866739
0.0835406
0.0792608
-0.0830844
-0.0770194
-0.0582957
-0.0322354
-0.00514653
0.019617
0.0408527
0.0584689
0.0728284
0.084405
0.0936421
0.100909
0.10649
0.110588
0.11336
0.114952
0.11527
0.113474
0.10887
0.104221
-0.0332988
-0.0285109
-0.0110759
0.0132858
0.0383272
0.0609341
0.0800726
0.0957374
0.108326
0.118322
0.126171
0.132246
0.136845
0.14021
0.142581
0.144231
0.145137
0.144329
0.141546
0.144982
0.0176246
0.0210785
0.0370526
0.0595074
0.0823177
0.102623
0.119553
0.133179
0.143924
0.152275
0.158672
0.163483
0.167004
0.169489
0.171195
0.172382
0.17304
0.172703
0.172254
0.177829
0.0692267
0.0713013
0.0856645
0.106035
0.126462
0.144349
0.158981
0.170494
0.179334
0.185982
0.190869
0.194355
0.19673
0.198246
0.19915
0.19966
0.19976
0.199161
0.19876
0.203238
0.121045
0.121708
0.134334
0.152476
0.170402
0.185783
0.198049
0.207397
0.214279
0.219172
0.22249
0.224576
0.225711
0.226131
0.226065
0.225708
0.225057
0.22389
0.222947
0.225947
0.172619
0.17185
0.182641
0.198445
0.213787
0.226605
0.236467
0.243616
0.248511
0.251615
0.253323
0.253961
0.253788
0.253024
0.251872
0.250498
0.248887
0.246844
0.245049
0.246669
0.223494
0.221286
0.230172
0.243566
0.256276
0.266507
0.273953
0.278896
0.281796
0.283098
0.283177
0.282338
0.28082
0.278823
0.276528
0.274074
0.27143
0.268424
0.265702
0.265999
0.273224
0.269587
0.276527
0.287474
0.297544
0.305196
0.310242
0.312999
0.313919
0.313429
0.311884
0.309565
0.306691
0.303444
0.299982
0.296421
0.29272
0.288733
0.285079
0.284126
0.321382
0.316338
0.321321
0.329823
0.337277
0.342392
0.345084
0.345698
0.344678
0.342431
0.339289
0.335512
0.3313
0.326815
0.322197
0.317541
0.312802
0.307859
0.303298
0.301155
0.367555
0.361143
0.364188
0.370282
0.37518
0.377829
0.378241
0.37678
0.373882
0.369934
0.365245
0.360053
0.354542
0.348855
0.343114
0.337399
0.331663
0.325809
0.320378
0.317107
0.411353
0.403625
0.40478
0.408537
0.410973
0.411257
0.409488
0.406045
0.401354
0.39578
0.389611
0.383068
0.376314
0.369479
0.362667
0.355945
0.349267
0.342558
0.336303
0.331967
0.452409
0.443431
0.442772
0.444297
0.444395
0.442442
0.438614
0.433303
0.426921
0.419816
0.412254
0.404437
0.396514
0.388598
0.380781
0.373116
0.365562
0.358059
0.351032
0.345697
0.490382
0.480236
0.477863
0.47729
0.475202
0.471166
0.465423
0.458377
0.450427
0.441899
0.433044
0.424046
0.415038
0.406122
0.397375
0.38884
0.380482
0.372252
0.36451
0.358249
0.524957
0.513737
0.509778
0.507268
0.503172
0.497227
0.489735
0.481104
0.471721
0.461896
0.451862
0.441786
0.43179
0.421962
0.412368
0.403044
0.393959
0.385072
0.376678
0.369569
0.555853
0.543664
0.538266
0.534007
0.528104
0.520446
0.511385
0.501335
0.490669
0.479683
0.468593
0.457553
0.446674
0.436032
0.425683
0.415656
0.405925
0.396456
0.387477
0.379605
0.582816
0.569775
0.563106
0.557306
0.549817
0.540659
0.530226
0.518935
0.507149
0.495148
0.483136
0.471255
0.459604
0.448252
0.437246
0.426607
0.416315
0.40634
0.396849
0.388308
0.605627
0.591861
0.584107
0.576993
0.568156
0.557725
0.54613
0.533787
0.521052
0.508192
0.4954
0.482807
0.470505
0.458553
0.44699
0.435835
0.425071
0.41467
0.404743
0.395633
0.624102
0.609746
0.601105
0.592922
0.582989
0.571525
0.558987
0.545792
0.532288
0.518732
0.505308
0.492139
0.479309
0.466871
0.454858
0.443286
0.43214
0.421396
0.411115
0.401541
0.638092
0.623287
0.613971
0.604974
0.594209
0.581962
0.568709
0.554869
0.540782
0.5267
0.512796
0.499191
0.485961
0.473156
0.460803
0.448915
0.437482
0.426477
0.415927
0.406001
0.647483
0.632376
0.622605
0.61306
0.601736
0.588962
0.575229
0.560956
0.546478
0.532042
0.517817
0.503919
0.490421
0.477369
0.464788
0.452688
0.441062
0.429883
0.419152
0.408988
0.6522
0.636941
0.626941
0.61712
0.605515
0.592477
0.578503
0.564011
0.549337
0.534723
0.520338
0.506292
0.49266
0.479484
0.466788
0.454582
0.442859
0.431592
0.42077
0.410487
0.652206
0.636947
0.626946
0.617125
0.60552
0.592481
0.578507
0.564015
0.549341
0.534727
0.520341
0.506296
0.492663
0.479487
0.466791
0.454585
0.442862
0.431595
0.420773
0.41049
0.6475
0.632392
0.62262
0.613075
0.60175
0.588975
0.575242
0.560968
0.546489
0.532053
0.517828
0.503929
0.490431
0.477378
0.464797
0.452697
0.441071
0.429891
0.41916
0.408996
0.63812
0.623314
0.613997
0.604998
0.594232
0.581984
0.56873
0.554889
0.540801
0.526718
0.512814
0.499208
0.485978
0.473172
0.460819
0.44893
0.437496
0.426491
0.415941
0.406014
0.624141
0.609784
0.601142
0.592956
0.583022
0.571556
0.559016
0.54582
0.532315
0.518758
0.505333
0.492163
0.479332
0.466893
0.45488
0.443307
0.432161
0.421416
0.411135
0.40156
0.605677
0.59191
0.584154
0.577038
0.568198
0.557765
0.546168
0.533823
0.521087
0.508225
0.495432
0.482838
0.470535
0.458581
0.447018
0.435862
0.425097
0.414696
0.404769
0.395657
0.582877
0.569835
0.563164
0.557361
0.549869
0.540708
0.530273
0.518979
0.507191
0.495188
0.483174
0.471292
0.459641
0.448288
0.43728
0.42664
0.416347
0.406372
0.39688
0.388338
0.555925
0.543734
0.538334
0.534071
0.528165
0.520503
0.51144
0.501387
0.490719
0.479731
0.468639
0.457597
0.446716
0.436073
0.425723
0.415696
0.405963
0.396493
0.387513
0.37964
0.52504
0.513818
0.509856
0.507342
0.503242
0.497294
0.489798
0.481164
0.471779
0.461951
0.451914
0.441837
0.431839
0.422009
0.412415
0.40309
0.394003
0.385115
0.37672
0.369609
0.490476
0.480328
0.477952
0.477374
0.475281
0.471241
0.465494
0.458445
0.450492
0.441962
0.433104
0.424104
0.415094
0.406176
0.397427
0.388891
0.380531
0.3723
0.364558
0.358295
0.452514
0.443534
0.442871
0.44439
0.444483
0.442526
0.438693
0.433379
0.426994
0.419885
0.412321
0.404501
0.396576
0.388658
0.38084
0.373173
0.365617
0.358113
0.351085
0.345749
0.411469
0.403738
0.404889
0.40864
0.411071
0.41135
0.409575
0.406129
0.401434
0.395857
0.389685
0.383139
0.376383
0.369545
0.362732
0.356008
0.349329
0.342618
0.336362
0.332024
0.367682
0.361267
0.364307
0.370395
0.375287
0.37793
0.378337
0.376872
0.37397
0.370018
0.365326
0.360131
0.354617
0.348928
0.343185
0.337468
0.33173
0.325874
0.320442
0.317169
0.321519
0.316473
0.321451
0.329946
0.337393
0.342502
0.345189
0.345797
0.344773
0.342522
0.339377
0.335596
0.331382
0.326894
0.322274
0.317616
0.312875
0.30793
0.303367
0.301222
0.273372
0.269732
0.276667
0.287607
0.297669
0.305315
0.310355
0.313106
0.314021
0.313528
0.311979
0.309656
0.30678
0.30353
0.300065
0.296501
0.292798
0.28881
0.285154
0.284198
0.223651
0.221441
0.230321
0.243707
0.25641
0.266634
0.274073
0.279011
0.281906
0.283204
0.283279
0.282436
0.280915
0.278915
0.276617
0.27416
0.271514
0.268506
0.265782
0.266077
0.172787
0.172015
0.1828
0.198596
0.21393
0.22674
0.236595
0.243738
0.248629
0.251728
0.253432
0.254065
0.253889
0.253122
0.251967
0.250591
0.248977
0.246932
0.245135
0.246752
0.121223
0.121883
0.134503
0.152637
0.170554
0.185927
0.198186
0.207527
0.214404
0.219292
0.222605
0.224688
0.225819
0.226236
0.226167
0.225807
0.225153
0.223983
0.223039
0.226035
0.0694145
0.0714862
0.0858426
0.106204
0.126623
0.144501
0.159125
0.170632
0.179466
0.186109
0.190992
0.194473
0.196845
0.198357
0.199258
0.199764
0.199862
0.199261
0.198858
0.203332
0.0178219
0.0212727
0.03724
0.0596857
0.0824866
0.102783
0.119705
0.133324
0.144063
0.152409
0.158801
0.163607
0.167125
0.169606
0.171309
0.172493
0.173148
0.172809
0.172358
0.177929
-0.0330922
-0.0283075
-0.0108796
0.0134727
0.0385044
0.0611022
0.0802325
0.0958901
0.108473
0.118463
0.126307
0.132377
0.136973
0.140334
0.142701
0.144349
0.145251
0.144441
0.141656
0.145089
-0.082869
-0.0768071
-0.0580907
-0.03204
-0.00496121
0.0197929
0.0410201
0.0586289
0.0729818
0.0845526
0.0937845
0.101047
0.106624
0.110718
0.113486
0.115076
0.115391
0.113593
0.108988
0.104339
-0.131068
-0.123794
-0.103978
-0.0764632
-0.0475498
-0.0208094
0.00238417
0.0218445
0.0378923
0.0509881
0.0615738
0.0700199
0.0766134
0.0815576
0.0849982
0.0870642
0.0877815
0.0867997
0.0836651
0.0793847
-0.177262
-0.168848
-0.148136
-0.119417
-0.0889088
-0.0603765
-0.0353653
-0.0141632
0.00350292
0.0180796
0.030012
0.0396836
0.0474034
0.0534088
0.0578822
0.0609841
0.0628531
0.0635298
0.0629137
0.0607392
-0.221047
-0.211575
-0.190183
-0.160538
-0.128701
-0.0985954
-0.0719351
-0.049116
-0.0299187
-0.0139139
-0.000653173
0.0102618
0.0191633
0.0263207
0.0319501
0.0362334
0.0393493
0.0415106
0.0428432
0.0427097
-0.262058
-0.251615
-0.229762
-0.199486
-0.166609
-0.135175
-0.107057
-0.0827666
-0.0621455
-0.0447888
-0.0302496
-0.0181194
-0.00804941
0.000250853
0.0070203
0.0124565
0.0167544
0.0201816
0.022927
0.0242707
-0.299967
-0.288644
-0.266552
-0.235952
-0.202346
-0.169851
-0.140492
-0.114898
-0.0929838
-0.0743764
-0.0586371
-0.0453532
-0.0341657
-0.0247705
-0.0169141
-0.0103868
-0.00498136
-0.000413951
0.00348247
0.0058644
-0.334498
-0.322387
-0.300274
-0.269662
-0.235652
-0.202387
-0.172027
-0.145322
-0.122267
-0.102532
-0.0856946
-0.0713431
-0.0591139
-0.0486954
-0.0398264
-0.0322908
-0.025875
-0.0202854
-0.0153761
-0.0121218
-0.365425
-0.352621
-0.330694
-0.300378
-0.266303
-0.232579
-0.201478
-0.173876
-0.149855
-0.129136
-0.111322
-0.0960103
-0.0828374
-0.0714893
-0.0617017
-0.0532569
-0.0459405
-0.0394528
-0.033645
-0.029564
-0.392582
-0.379181
-0.357632
-0.327911
-0.294111
-0.260252
-0.228692
-0.200425
-0.17563
-0.15409
-0.13544
-0.119292
-0.105291
-0.0931223
-0.0825231
-0.0732756
-0.0651687
-0.0579028
-0.0513147
-0.0464628
-0.415867
-0.401962
-0.380961
-0.352115
-0.318928
-0.285267
-0.253543
-0.224861
-0.199501
-0.177317
-0.157984
-0.141139
-0.126434
-0.113565
-0.102268
-0.0923286
-0.0835407
-0.0756112
-0.0683616
-0.0628259
-0.43524
-0.420924
-0.400616
-0.372899
-0.340649
-0.307519
-0.275934
-0.247099
-0.221396
-0.198757
-0.178906
-0.161509
-0.146236
-0.13279
-0.120914
-0.110396
-0.101036
-0.0925532
-0.0847541
-0.0786297
-0.450728
-0.436092
-0.416594
-0.390223
-0.35921
-0.326936
-0.295799
-0.26708
-0.241265
-0.218368
-0.198171
-0.180375
-0.164672
-0.150777
-0.138442
-0.127458
-0.117635
-0.108703
-0.100457
-0.0938318
-0.46242
-0.447557
-0.428952
-0.404103
-0.374596
-0.343487
-0.3131
-0.28477
-0.259079
-0.236127
-0.21576
-0.197721
-0.181728
-0.167513
-0.154837
-0.143499
-0.133317
-0.124035
-0.115439
-0.108393
-0.470469
-0.455468
-0.437812
-0.414613
-0.386837
-0.357176
-0.327828
-0.300157
-0.274827
-0.252025
-0.231667
-0.213542
-0.1974
-0.182992
-0.170094
-0.15851
-0.14807
-0.138534
-0.129678
-0.122291
-0.475082
-0.460037
-0.443354
-0.42188
-0.396012
-0.368044
-0.340006
-0.313254
-0.28852
-0.266073
-0.245901
-0.227847
-0.211694
-0.19722
-0.184213
-0.172491
-0.161891
-0.152192
-0.143164
-0.135514
-0.476518
-0.461523
-0.44581
-0.426087
-0.402247
-0.376173
-0.349687
-0.324098
-0.300186
-0.278295
-0.258485
-0.240654
-0.224628
-0.21021
-0.197208
-0.18545
-0.174785
-0.165011
-0.155896
-0.148062
-0.475079
-0.46023
-0.445464
-0.427467
-0.405715
-0.381683
-0.356952
-0.332748
-0.309871
-0.28873
-0.269453
-0.251996
-0.236229
-0.221987
-0.209098
-0.197405
-0.186767
-0.177002
-0.167882
-0.159942
-0.471099
-0.456494
-0.442636
-0.426298
-0.406632
-0.384732
-0.361914
-0.339286
-0.317639
-0.29743
-0.27885
-0.261913
-0.246535
-0.232584
-0.219912
-0.208379
-0.197857
-0.188183
-0.179136
-0.171168
-0.464935
-0.450674
-0.437675
-0.422892
-0.405255
-0.385516
-0.364715
-0.343817
-0.323571
-0.304463
-0.286734
-0.270456
-0.255589
-0.242039
-0.229686
-0.218405
-0.208084
-0.198579
-0.18968
-0.18176
-0.456956
-0.443138
-0.430948
-0.41759
-0.401875
-0.384263
-0.365528
-0.346467
-0.327763
-0.309904
-0.29317
-0.27768
-0.263443
-0.2504
-0.23846
-0.22752
-0.217481
-0.20822
-0.199542
-0.191744
0.0856672
0.0578537
0.0373416
0.0275217
0.0187295
0.00688437
-0.00639591
-0.0192245
-0.0313105
-0.0430629
-0.0547197
-0.0662533
-0.0775722
-0.0886365
-0.0994554
-0.110054
-0.120458
-0.130697
-0.140807
-0.150834
0.0284565
0.0145237
0.00226194
-0.00513948
-0.0106346
-0.0170386
-0.0245121
-0.0320275
-0.0389969
-0.0454777
-0.0516958
-0.0577462
-0.0636025
-0.0692172
-0.0745698
-0.0796614
-0.0844965
-0.0890743
-0.0933889
-0.0974319
0.0137732
0.00759165
0.00197583
-0.00268372
-0.00683619
-0.0110943
-0.0156473
-0.0203109
-0.0248812
-0.029314
-0.0336685
-0.0380002
-0.0423233
-0.0466293
-0.0509116
-0.0551725
-0.0594197
-0.0636615
-0.0679052
-0.0721579
0.004922
0.00106533
-0.00277555
-0.00649324
-0.0100916
-0.013649
-0.0172194
-0.0207927
-0.0243292
-0.0278049
-0.0312209
-0.034588
-0.0379121
-0.0411924
-0.044426
-0.0476115
-0.0507495
-0.0538412
-0.0568879
-0.0598906
-0.00202302
-0.00514084
-0.00805246
-0.0107159
-0.0133008
-0.0158946
-0.0184923
-0.0210682
-0.0236109
-0.0261212
-0.028604
-0.0310637
-0.0335034
-0.0359254
-0.0383315
-0.0407237
-0.0431044
-0.045476
-0.0478412
-0.0502022
-0.00734233
-0.00985111
-0.0120398
-0.0139603
-0.015839
-0.0177698
-0.0197309
-0.0216843
-0.0236174
-0.0255349
-0.0274435
-0.0293459
-0.0312421
-0.0331316
-0.0350146
-0.0368917
-0.0387632
-0.0406298
-0.0424918
-0.0443496
-0.0107839
-0.0127391
-0.0143889
-0.015829
-0.0172552
-0.0187381
-0.0202544
-0.0217698
-0.023273
-0.0247679
-0.0262603
-0.0277522
-0.029243
-0.030732
-0.032219
-0.0337042
-0.035188
-0.0366707
-0.0381527
-0.0396342
-0.0129482
-0.0144587
-0.0157517
-0.0169006
-0.0180425
-0.0192277
-0.0204404
-0.0216558
-0.0228649
-0.0240699
-0.0252747
-0.0264806
-0.0276873
-0.028894
-0.0301003
-0.0313061
-0.0325116
-0.0337168
-0.0349217
-0.0361263
-0.014361
-0.0155099
-0.0165515
-0.0175106
-0.0184599
-0.019432
-0.020422
-0.021416
-0.0224076
-0.0233971
-0.0243864
-0.0253767
-0.0263675
-0.0273586
-0.0283495
-0.0293402
-0.0303306
-0.0313207
-0.0323107
-0.0333004
-0.015406
-0.0162589
-0.0171048
-0.017925
-0.0187338
-0.0195465
-0.0203664
-0.0211901
-0.0220139
-0.0228369
-0.0236595
-0.0244822
-0.0253051
-0.0261279
-0.0269504
-0.0277727
-0.0285946
-0.0294162
-0.0302375
-0.0310585
-0.0162795
-0.0169004
-0.0175832
-0.0182835
-0.0189748
-0.0196572
-0.0203384
-0.0210216
-0.0217064
-0.0223913
-0.0230757
-0.0237597
-0.0244435
-0.025127
-0.0258103
-0.0264934
-0.0271762
-0.0278588
-0.0285412
-0.0292235
-0.0170548
-0.0175024
-0.0180462
-0.0186336
-0.0192163
-0.0197846
-0.0203464
-0.020909
-0.0214736
-0.0220391
-0.0226045
-0.0231695
-0.0237343
-0.0242991
-0.0248641
-0.0254293
-0.0259947
-0.0265604
-0.0271264
-0.0276928
-0.0177155
-0.018026
-0.0184467
-0.0189262
-0.0194063
-0.0198702
-0.0203252
-0.0207799
-0.0212369
-0.0216956
-0.0221547
-0.022614
-0.0230736
-0.023534
-0.0239952
-0.0244574
-0.0249207
-0.0253851
-0.0258509
-0.026318
-0.0182463
-0.0184319
-0.0187383
-0.0191178
-0.0195031
-0.019871
-0.020228
-0.0205839
-0.0209426
-0.0213039
-0.0216665
-0.0220303
-0.0223955
-0.0227626
-0.0231319
-0.0235035
-0.0238778
-0.0242547
-0.0246344
-0.025017
-0.0186406
-0.01868
-0.0188583
-0.0191303
-0.0194151
-0.0196809
-0.0199334
-0.0201845
-0.0204401
-0.0207005
-0.0209647
-0.0212325
-0.0215042
-0.0217805
-0.0220617
-0.0223483
-0.0226404
-0.022938
-0.0232413
-0.0235503
-0.0190334
-0.0189401
-0.0189558
-0.0190638
-0.0191972
-0.0193235
-0.0194436
-0.0195676
-0.0197016
-0.019847
-0.020003
-0.0201693
-0.0203461
-0.0205336
-0.020732
-0.0209415
-0.0211617
-0.0213926
-0.0216339
-0.0218852
-0.0189158
-0.0187221
-0.0184765
-0.0182634
-0.0181085
-0.0180017
-0.0179292
-0.0178849
-0.0178683
-0.0178803
-0.0179206
-0.017988
-0.018081
-0.0181981
-0.0183379
-0.0184993
-0.0186809
-0.0188814
-0.0190995
-0.019334
-0.0163257
-0.0158454
-0.0153358
-0.0149288
-0.0146326
-0.0144185
-0.0142654
-0.0141649
-0.0141139
-0.0141104
-0.0141512
-0.0142326
-0.0143511
-0.0145034
-0.0146862
-0.014897
-0.0151329
-0.0153914
-0.0156703
-0.0159674
-0.00476148
-0.00106966
0.000223625
-0.000415696
-0.00149522
-0.00231693
-0.00288982
-0.00340225
-0.00395442
-0.00455033
-0.0051643
-0.00577978
-0.00639333
-0.00700648
-0.0076201
-0.0082335
-0.00884532
-0.00945436
-0.0100597
-0.0106608
0.00723619
0.0194916
0.0232426
0.0206327
0.0168107
0.0140453
0.0122435
0.010757
0.00924729
0.00769363
0.00617045
0.00472184
0.00335021
0.00204279
0.000789523
-0.000414051
-0.00156983
-0.00267966
-0.0037459
-0.00477112
0.122583
0.123113
0.124199
0.125832
0.128012
0.130751
0.134073
0.137997
0.142543
0.147709
0.153485
0.15981
0.166575
0.17354
0.180297
0.186041
0.189272
0.186966
0.172561
0.131135
0.113289
0.113678
0.114417
0.115525
0.116966
0.118759
0.120839
0.123235
0.12582
0.128618
0.131383
0.134111
0.136314
0.137903
0.137905
0.135962
0.130024
0.118805
0.0972267
0.0595953
0.102292
0.102503
0.102876
0.103424
0.104114
0.104939
0.105822
0.106738
0.107553
0.108206
0.10847
0.108216
0.107053
0.104721
0.100566
0.0940928
0.0843236
0.0706206
0.0522914
0.0296506
0.0902903
0.0903303
0.0903808
0.090443
0.0904942
0.0905064
0.0904162
0.0901598
0.0896316
0.0887273
0.0872864
0.0851442
0.0820698
0.0778272
0.0721443
0.0647815
0.0555929
0.0444912
0.0314227
0.0155664
0.0779872
0.0779
0.0777114
0.0774175
0.0770047
0.0764392
0.0756739
0.0746408
0.0732667
0.0714545
0.0691116
0.0661145
0.0623679
0.0577446
0.0521966
0.0456321
0.0380632
0.0293055
0.0191001
0.00654809
0.0659698
0.0658047
0.0654672
0.0649531
0.0642548
0.0633444
0.06219
0.0607389
0.058946
0.0567451
0.0540918
0.0509168
0.0471929
0.0428579
0.0379103
0.0322719
0.025909
0.018602
0.0100999
-0.000272245
0.0546465
0.0544434
0.0540327
0.0534109
0.0525743
0.0515044
0.0501822
0.0485735
0.046654
0.0443841
0.0417448
0.0386972
0.0352326
0.0313083
0.0269174
0.0219896
0.0164916
0.0102766
0.00320237
-0.00517251
0.0442505
0.0440366
0.0436059
0.0429552
0.0420831
0.0409785
0.0396317
0.0380226
0.0361386
0.0339562
0.0314659
0.028642
0.0254791
0.0219456
0.0180386
0.0137161
0.00897643
0.00374882
-0.00202451
-0.00862135
0.0348766
0.0346682
0.0342497
0.0336176
0.0327712
0.0317041
0.0304121
0.0288836
0.0271126
0.0250841
0.0227934
0.0202229
0.0173716
0.0142201
0.0107757
0.00702064
0.00297507
-0.00138516
-0.00605053
-0.0111234
0.0265268
0.0263325
0.0259427
0.0253535
0.0245643
0.0235709
0.0223724
0.0209622
0.0193387
0.017493
0.0154248
0.0131235
0.0105932
0.00782379
0.00482851
0.00160121
-0.00182821
-0.00545516
-0.00921298
-0.0130498
0.019149
0.0189723
0.0186181
0.0180822
0.0173636
0.0164595
0.0153709
0.0140948
0.0126329
0.010981
0.00914312
0.00711444
0.00490311
0.00250438
-6.63644e-05
-0.00281089
-0.005695
-0.00869683
-0.0117122
-0.0145941
0.0126655
0.0125069
0.0121894
0.0117087
0.0110638
0.0102528
0.00927834
0.00813968
0.00684109
0.00538145
0.00376762
0.00199885
8.68518e-05
-0.00196864
-0.00414948
-0.00645433
-0.00884762
-0.0113018
-0.0136998
-0.0158575
0.00699309
0.00685074
0.00656654
0.00613637
0.00555969
0.00483611
0.00396989
0.00296255
0.00182012
0.00054309
-0.000860914
-0.00239136
-0.00403494
-0.00578773
-0.00762615
-0.00954177
-0.0114953
-0.013459
-0.0153211
-0.0168953
0.00205729
0.00192707
0.00166803
0.00127654
0.000753134
9.93429e-05
-0.000677867
-0.0015737
-0.00257898
-0.00369068
-0.00490048
-0.0062091
-0.0076065
-0.00909131
-0.010639
-0.0122323
-0.0138172
-0.0153515
-0.0167236
-0.0177703
-0.00219637
-0.00232073
-0.00256709
-0.00293871
-0.00343389
-0.00404942
-0.00477509
-0.00560196
-0.00651452
-0.00750297
-0.00855133
-0.0096565
-0.0108093
-0.0120195
-0.0132785
-0.0145849
-0.0158796
-0.0170907
-0.0180515
-0.0185624
-0.00579506
-0.00592084
-0.00616911
-0.00654348
-0.00704156
-0.00766046
-0.00838808
-0.00921403
-0.0101159
-0.011076
-0.0120601
-0.0130468
-0.0140005
-0.0149221
-0.0158075
-0.0167086
-0.0176242
-0.0185346
-0.0192012
-0.0192831
-0.00873762
-0.00887049
-0.00913351
-0.00953091
-0.0100609
-0.010723
-0.0115075
-0.0124078
-0.0134032
-0.0144761
-0.0155821
-0.0166783
-0.0176788
-0.0185152
-0.019091
-0.019412
-0.0195225
-0.01962
-0.0196911
-0.0193174
-0.0109998
-0.011141
-0.0114261
-0.0118579
-0.0124377
-0.0131664
-0.0140433
-0.0150672
-0.0162342
-0.0175372
-0.0189573
-0.0204585
-0.0219641
-0.0233378
-0.0243503
-0.0246904
-0.0240384
-0.0222976
-0.0198667
-0.0176071
-0.012542
-0.0126904
-0.0129969
-0.0134619
-0.0140911
-0.0148853
-0.0158551
-0.0170039
-0.0183504
-0.0199011
-0.0216862
-0.023711
-0.0260039
-0.0285127
-0.0311296
-0.0334313
-0.034621
-0.0331427
-0.027151
-0.0153776
-0.0133225
-0.0134777
-0.0137972
-0.0142832
-0.0149413
-0.015777
-0.0168026
-0.0180311
-0.0194871
-0.0211978
-0.0232118
-0.0255872
-0.0284214
-0.0318325
-0.0359827
-0.0409723
-0.0466079
-0.0514816
-0.0505199
-0.0277426
0.133108
0.133687
0.134979
0.13689
0.139563
0.142898
0.147139
0.152141
0.158283
0.165356
0.173947
0.183737
0.195665
0.209223
0.225991
0.2451
0.269403
0.29726
0.334115
0.376469
0.133071
0.133649
0.134941
0.136851
0.139523
0.142857
0.147096
0.152095
0.158234
0.165301
0.173885
0.183664
0.195577
0.209113
0.225844
0.244901
0.269113
0.296834
0.333456
0.375417
0.132997
0.133575
0.134866
0.136775
0.139445
0.142776
0.14701
0.152004
0.158136
0.165192
0.173761
0.183521
0.195401
0.208895
0.225551
0.244506
0.268536
0.295986
0.332144
0.373323
0.132887
0.133465
0.134754
0.136661
0.139327
0.142654
0.146883
0.151869
0.157989
0.16503
0.173577
0.183307
0.195139
0.208569
0.225113
0.243918
0.267675
0.294722
0.330186
0.370197
0.13274
0.133318
0.134605
0.136509
0.139171
0.142493
0.146713
0.151688
0.157794
0.164815
0.173332
0.183022
0.194791
0.208137
0.224535
0.243138
0.266534
0.29305
0.32759
0.366056
0.132557
0.133135
0.13442
0.13632
0.138977
0.142292
0.146502
0.151464
0.157551
0.164548
0.173029
0.182669
0.19436
0.2076
0.223817
0.242172
0.26512
0.290979
0.324368
0.360921
0.132338
0.132916
0.134198
0.136095
0.138746
0.142052
0.146251
0.151197
0.157263
0.164229
0.172667
0.182248
0.193848
0.206961
0.222965
0.241024
0.26344
0.288523
0.320533
0.35482
0.132084
0.132661
0.133941
0.135833
0.138477
0.141774
0.145959
0.150887
0.156928
0.163859
0.172249
0.18176
0.193256
0.206223
0.221983
0.2397
0.261504
0.285695
0.316103
0.347785
0.131794
0.132371
0.133648
0.135536
0.138172
0.141458
0.145628
0.150536
0.156549
0.16344
0.171776
0.181208
0.192588
0.205387
0.220875
0.238206
0.259321
0.282511
0.311097
0.339853
0.13147
0.132047
0.133321
0.135204
0.137831
0.141105
0.145259
0.150144
0.156126
0.162974
0.171249
0.180593
0.191846
0.204458
0.219649
0.236548
0.256903
0.278989
0.305535
0.331068
0.131112
0.131689
0.13296
0.134837
0.137454
0.140717
0.144852
0.149713
0.15566
0.16246
0.17067
0.179918
0.191033
0.203439
0.218309
0.234734
0.254265
0.275147
0.299442
0.321478
0.130719
0.131298
0.132565
0.134437
0.137044
0.140293
0.144409
0.149243
0.155154
0.161902
0.170042
0.179184
0.190153
0.202333
0.216864
0.232771
0.251422
0.271002
0.292846
0.311133
0.130293
0.130874
0.132138
0.134004
0.136601
0.139836
0.143931
0.148736
0.154609
0.161301
0.169366
0.178395
0.189209
0.201145
0.215319
0.230667
0.24839
0.266574
0.285777
0.300089
0.129835
0.130418
0.131679
0.13354
0.136126
0.139346
0.143418
0.148194
0.154025
0.160658
0.168645
0.177552
0.188204
0.19988
0.213682
0.22843
0.245188
0.261881
0.278273
0.288399
0.129345
0.12993
0.131189
0.133044
0.135619
0.138824
0.142872
0.147616
0.153404
0.159975
0.167879
0.176659
0.187142
0.198541
0.21196
0.226069
0.241835
0.256941
0.270376
0.276111
0.128823
0.129412
0.130669
0.132519
0.135081
0.13827
0.142294
0.147004
0.152746
0.159252
0.167068
0.175713
0.186018
0.197126
0.210151
0.223586
0.238345
0.251769
0.262139
0.263265
0.12827
0.128864
0.13012
0.131965
0.134515
0.137687
0.141685
0.146362
0.152055
0.158492
0.166217
0.174721
0.184842
0.195645
0.208266
0.220993
0.234736
0.246379
0.253625
0.249892
0.127688
0.128289
0.129546
0.131388
0.133928
0.137087
0.141062
0.145708
0.151358
0.157731
0.16537
0.173736
0.183678
0.194171
0.206392
0.218378
0.231102
0.240828
0.244878
0.235894
0.127076
0.127686
0.128946
0.13079
0.133325
0.136475
0.140434
0.145058
0.150673
0.156993
0.164557
0.172797
0.182572
0.192761
0.204587
0.215808
0.227511
0.235158
0.235922
0.220611
0.12643
0.127042
0.128297
0.13013
0.132641
0.135764
0.139676
0.144247
0.149778
0.156001
0.163413
0.171469
0.180964
0.190785
0.20208
0.212521
0.223137
0.228889
0.226834
0.204328
0.126445
0.127057
0.128312
0.130145
0.132657
0.135781
0.139693
0.144266
0.149798
0.156023
0.163437
0.171496
0.180994
0.190819
0.202118
0.212565
0.223188
0.228948
0.226905
0.204415
0.12709
0.1277
0.128961
0.130804
0.13334
0.136491
0.140451
0.145076
0.150693
0.157014
0.16458
0.172823
0.1826
0.192792
0.204623
0.215849
0.227559
0.235215
0.23599
0.220693
0.127701
0.128303
0.129559
0.131402
0.133943
0.137102
0.141078
0.145725
0.151377
0.157751
0.165391
0.17376
0.183705
0.194201
0.206426
0.218417
0.231148
0.240882
0.244943
0.235973
0.128283
0.128877
0.130133
0.131978
0.134529
0.137701
0.1417
0.146378
0.152072
0.158511
0.166237
0.174744
0.184867
0.195673
0.208298
0.22103
0.234779
0.24643
0.253686
0.249967
0.128835
0.129424
0.130681
0.132531
0.135094
0.138283
0.142308
0.14702
0.152763
0.159269
0.167087
0.175734
0.186042
0.197153
0.210182
0.223621
0.238385
0.251817
0.262197
0.263335
0.129356
0.129941
0.1312
0.133056
0.135631
0.138836
0.142886
0.147631
0.15342
0.159992
0.167897
0.176679
0.187164
0.198566
0.211989
0.226102
0.241873
0.256986
0.270429
0.276177
0.129845
0.130428
0.13169
0.133551
0.136137
0.139358
0.143431
0.148207
0.154039
0.160674
0.168662
0.177571
0.188225
0.199904
0.213709
0.228461
0.245224
0.261923
0.278323
0.28846
0.130303
0.130884
0.132148
0.134014
0.136612
0.139847
0.143942
0.148748
0.154622
0.161315
0.169382
0.178412
0.189228
0.201167
0.215344
0.230695
0.248423
0.266613
0.285824
0.300146
0.130728
0.131307
0.132574
0.134446
0.137054
0.140304
0.14442
0.149254
0.155167
0.161915
0.170057
0.1792
0.190171
0.202353
0.216886
0.232797
0.251452
0.271038
0.292888
0.311185
0.13112
0.131698
0.132968
0.134846
0.137463
0.140726
0.144862
0.149723
0.155672
0.162473
0.170684
0.179932
0.191049
0.203457
0.21833
0.234758
0.254293
0.275179
0.299481
0.321526
0.131478
0.132055
0.133329
0.135211
0.137839
0.141114
0.145268
0.150154
0.156136
0.162985
0.171261
0.180607
0.191861
0.204475
0.219668
0.23657
0.256928
0.279019
0.30557
0.331112
0.131801
0.132378
0.133655
0.135543
0.138179