/*--------------------------------*- C++ -*----------------------------------*\
  =========                 |
  \\      /  F ield         | OpenFOAM: The Open Source CFD Toolbox
   \\    /   O peration     | Website:  https://openfoam.org
    \\  /    A nd           | Version:  6.0
     \\/     M anipulation  |
\*---------------------------------------------------------------------------*/
FoamFile
{
    version     2.0;
    format      ascii;
    class       surfaceScalarField;
    location    "18";
    object      phi;
}
// * * * * * * * * * * * * * * * * * * * * * * * * * * * * * * * * * * * * * //

dimensions      [0 3 -1 0 0 0 0];

internalField   nonuniform List<scalar> 
24700
(
-1.52875e-06
1.63662e-06
-1.07875e-07
-5.52911e-06
4.2728e-06
-2.72445e-07
-1.15249e-05
6.39298e-06
-3.97149e-07
-1.91146e-05
8.0796e-06
-4.89937e-07
-2.79615e-05
9.40429e-06
-5.57392e-07
-3.77872e-05
1.04308e-05
-6.05048e-07
-4.83653e-05
1.12156e-05
-6.37515e-07
-5.95153e-05
1.18086e-05
-6.58588e-07
-7.10979e-05
1.22539e-05
-6.71353e-07
-8.30101e-05
1.25906e-05
-6.78285e-07
-9.51816e-05
1.28528e-05
-6.81331e-07
-0.00010757
1.30709e-05
-6.81987e-07
-0.00012016
1.32712e-05
-6.81374e-07
-0.000132957
1.3477e-05
-6.80302e-07
-0.000145986
1.37081e-05
-6.79324e-07
-0.000159288
1.39815e-05
-6.78786e-07
-0.000172921
1.43113e-05
-6.78863e-07
-0.00018695
1.47089e-05
-6.79594e-07
-0.000201452
1.51828e-05
-6.80914e-07
-0.000216509
1.57391e-05
-6.82669e-07
-0.000232205
1.63812e-05
-6.84643e-07
-0.000248629
1.71104e-05
-6.8656e-07
-0.000265866
1.7925e-05
-6.88105e-07
-0.000283999
1.88224e-05
-6.88919e-07
1.98018e-05
-6.88648e-07
-0.000303113
-1.52036e-06
3.15698e-06
-5.49928e-06
8.25172e-06
-1.14623e-05
1.2356e-05
-1.90084e-05
1.56257e-05
-2.78011e-05
1.81969e-05
-3.75613e-05
2.0191e-05
-4.80616e-05
2.17159e-05
-5.91204e-05
2.28674e-05
-7.05968e-05
2.37303e-05
-8.23859e-05
2.43797e-05
-9.44154e-05
2.48823e-05
-0.000106641
2.52967e-05
-0.000119045
2.56749e-05
-0.00013163
2.60623e-05
-0.000144421
2.64983e-05
-0.000157456
2.70169e-05
-0.000170791
2.76463e-05
-0.000184491
2.84096e-05
-0.000198633
2.93245e-05
-0.000213298
3.04038e-05
-0.000228572
3.16551e-05
-0.000244543
3.30812e-05
-0.000261298
3.468e-05
-0.000278922
3.64464e-05
3.83794e-05
-0.000297499
-1.50462e-06
4.66161e-06
-5.44305e-06
1.21901e-05
-1.13438e-05
1.82567e-05
-1.88069e-05
2.30888e-05
-2.74955e-05
2.68856e-05
-3.71296e-05
2.98252e-05
-4.748e-05
3.20663e-05
-5.83623e-05
3.37497e-05
-6.96327e-05
3.50006e-05
-8.11826e-05
3.59297e-05
-9.29358e-05
3.66354e-05
-0.000104844
3.72049e-05
-0.000116884
3.77152e-05
-0.000129056
3.82343e-05
-0.000141379
3.88215e-05
-0.000153891
3.9528e-05
-0.000166642
4.03972e-05
-0.000179696
4.14644e-05
-0.00019313
4.27576e-05
-0.000207023
4.42971e-05
-0.000221463
4.60957e-05
-0.000236541
4.81588e-05
-0.000252345
5.04843e-05
-0.000268964
5.30653e-05
5.59005e-05
-0.000286485
-1.48231e-06
6.14392e-06
-5.36291e-06
1.60707e-05
-1.11742e-05
2.40681e-05
-1.85177e-05
3.04322e-05
-2.70561e-05
3.5424e-05
-3.65078e-05
3.92769e-05
-4.66409e-05
4.21993e-05
-5.72675e-05
4.43763e-05
-6.8239e-05
4.59721e-05
-7.94419e-05
4.71326e-05
-9.07937e-05
4.79873e-05
-0.00010224
4.86514e-05
-0.000113752
4.9227e-05
-0.000125322
4.98046e-05
-0.000136964
5.04638e-05
-0.00014871
5.12738e-05
-0.000160607
5.2294e-05
-0.000172716
5.35734e-05
-0.00018511
5.51515e-05
-0.000197871
5.70577e-05
-0.000211087
5.93116e-05
-0.00022485
6.19225e-05
-0.000239256
6.48897e-05
-0.000254396
6.82055e-05
7.18684e-05
-0.000270364
-1.4545e-06
7.59842e-06
-5.26228e-06
1.98785e-05
-1.09603e-05
2.97661e-05
-1.81515e-05
3.76235e-05
-2.64984e-05
4.37708e-05
-3.57172e-05
4.84957e-05
-4.55727e-05
5.20548e-05
-5.58724e-05
5.46761e-05
-6.64622e-05
5.65619e-05
-7.72216e-05
5.7892e-05
-8.80608e-05
5.88265e-05
-9.8917e-05
5.95076e-05
-0.000109752
6.00624e-05
-0.000120552
6.06039e-05
-0.00013132
6.12323e-05
-0.000142082
6.20358e-05
-0.000152879
6.30908e-05
-0.000163768
6.44618e-05
-0.000174818
6.62018e-05
-0.000186111
6.83514e-05
-0.000197739
7.0939e-05
-0.000209797
7.39804e-05
-0.000222385
7.7478e-05
-0.000235604
8.14249e-05
8.58201e-05
-0.000249556
-1.42247e-06
9.02089e-06
-5.1452e-06
2.36012e-05
-1.07099e-05
3.53309e-05
-1.77211e-05
4.46346e-05
-2.58407e-05
5.18904e-05
-3.47829e-05
5.7438e-05
-4.43087e-05
6.15806e-05
-5.42205e-05
6.45879e-05
-6.43574e-05
6.66987e-05
-7.45911e-05
6.81258e-05
-8.48227e-05
6.9058e-05
-9.49793e-05
6.96643e-05
-0.000105013
7.00957e-05
-0.000114896
7.04876e-05
-0.000124625
7.09613e-05
-0.000134214
7.16247e-05
-0.000143696
7.25728e-05
-0.000153122
7.38875e-05
-0.000162558
7.56377e-05
-0.000172085
7.78782e-05
-0.000181795
8.06495e-05
-0.000191792
8.39767e-05
-0.000202182
8.78684e-05
-0.000213078
9.23209e-05
9.73353e-05
-0.000224593
-1.38757e-06
1.04085e-05
-5.01593e-06
2.72296e-05
-1.04313e-05
4.07462e-05
-1.72395e-05
5.14428e-05
-2.51021e-05
5.9753e-05
-3.37311e-05
6.6067e-05
-4.28838e-05
7.07333e-05
-5.23569e-05
7.4061e-05
-6.19826e-05
7.63245e-05
-7.16239e-05
7.7767e-05
-8.11713e-05
7.86054e-05
-9.05407e-05
7.90337e-05
-9.96709e-05
7.92259e-05
-0.000108523
7.93395e-05
-0.000117078
7.95167e-05
-0.000125339
7.98858e-05
-0.000133329
8.05621e-05
-0.000141088
8.16473e-05
-0.00014868
8.32289e-05
-0.000156181
8.53798e-05
-0.000163688
8.81566e-05
-0.00017131
9.15981e-05
-0.000179165
9.57234e-05
-0.00018738
0.000100536
0.000106041
-0.000196086
-1.35107e-06
1.17595e-05
-4.87849e-06
3.0757e-05
-1.0132e-05
4.59997e-05
-1.67189e-05
5.80297e-05
-2.43002e-05
6.73343e-05
-3.25861e-05
7.43529e-05
-4.13302e-05
7.94774e-05
-5.0324e-05
8.30549e-05
-5.93926e-05
8.5393e-05
-6.83897e-05
8.67641e-05
-7.7195e-05
8.74108e-05
-8.57115e-05
8.75502e-05
-9.3864e-05
8.73784e-05
-0.000101598
8.70735e-05
-0.00010888
8.67984e-05
-0.000115696
8.67026e-05
-0.000122057
8.69225e-05
-0.000127991
8.75819e-05
-0.000133553
8.8791e-05
-0.000138818
9.06446e-05
-0.000143883
9.3221e-05
-0.000148863
9.65786e-05
-0.000153893
0.000100753
-0.000159118
0.000105761
0.000111617
-0.000164693
-1.31408e-06
1.30736e-05
-4.7362e-06
3.41791e-05
-9.81848e-06
5.1082e-05
-1.61691e-05
6.43803e-05
-2.34489e-05
7.46141e-05
-3.13667e-05
8.22707e-05
-3.9673e-05
8.77837e-05
-4.81549e-05
9.15368e-05
-5.66306e-05
9.38686e-05
-6.4945e-05
9.50785e-05
-7.29668e-05
9.54325e-05
-8.05856e-05
9.51689e-05
-8.77107e-05
9.45035e-05
-9.42707e-05
9.36335e-05
-0.000100214
9.27416e-05
-0.000105509
9.19978e-05
-0.000110148
9.1561e-05
-0.000114145
9.15792e-05
-0.000117543
9.21886e-05
-0.000120409
9.35116e-05
-0.000122843
9.56543e-05
-0.000124967
9.87024e-05
-0.00012693
0.000102717
-0.000128905
0.000107736
0.00011379
-0.000131078
-1.27737e-06
1.4351e-05
-4.59129e-06
3.74931e-05
-9.49462e-06
5.59853e-05
-1.55959e-05
7.04816e-05
-2.25562e-05
8.15744e-05
-3.00833e-05
8.97978e-05
-3.79261e-05
9.56264e-05
-4.58678e-05
9.94785e-05
-5.3721e-05
0.000101722
-6.13231e-05
0.000102681
-6.85319e-05
0.000102641
-7.52241e-05
0.000101861
-8.12931e-05
0.000100572
-8.66492e-05
9.89896e-05
-9.12204e-05
9.73128e-05
-9.49543e-05
9.57316e-05
-9.78208e-05
9.44275e-05
-9.98159e-05
9.35742e-05
-0.000100965
9.33373e-05
-0.000101325
9.38722e-05
-0.000100992
9.53206e-05
-0.000100094
9.78054e-05
-9.88014e-05
0.000101424
-9.73138e-05
0.000106248
0.000112338
-9.58616e-05
-1.24128e-06
1.55923e-05
-4.44455e-06
4.06963e-05
-9.16141e-06
6.07022e-05
-1.50002e-05
7.63204e-05
-2.16221e-05
8.81963e-05
-2.87352e-05
9.69109e-05
-3.60873e-05
0.000102979
-4.34599e-05
0.000106851
-5.06617e-05
0.000108924
-5.75237e-05
0.000109543
-6.38948e-05
0.000109013
-6.96396e-05
0.000107606
-7.46363e-05
0.000105569
-7.87765e-05
0.00010313
-8.19666e-05
0.000100503
-8.41303e-05
9.78954e-05
-8.52124e-05
9.55096e-05
-8.51836e-05
9.35455e-05
-8.40471e-05
9.22008e-05
-8.1844e-05
9.16691e-05
-7.86597e-05
9.21363e-05
-7.46284e-05
9.37741e-05
-6.99353e-05
9.67307e-05
-6.48174e-05
0.00010113
0.000107078
-5.9558e-05
-1.2057e-06
1.6798e-05
-4.29515e-06
4.37858e-05
-8.81638e-06
6.52234e-05
-1.43767e-05
8.18807e-05
-2.06375e-05
9.44571e-05
-2.73077e-05
0.000103581
-3.4136e-05
0.000109807
-4.09034e-05
0.000113619
-4.7417e-05
0.000115437
-5.35038e-05
0.000115629
-5.90064e-05
0.000114515
-6.37794e-05
0.000112379
-6.76874e-05
0.000109477
-7.06046e-05
0.000106047
-7.24156e-05
0.000102314
-7.30185e-05
9.84983e-05
-7.23295e-05
9.48206e-05
-7.02895e-05
9.15054e-05
-6.68722e-05
8.87834e-05
-6.20938e-05
8.68908e-05
-5.60233e-05
8.60658e-05
-4.87915e-05
8.65422e-05
-4.05989e-05
8.85382e-05
-3.17209e-05
9.22521e-05
9.7864e-05
-2.25066e-05
-1.17e-06
1.7968e-05
-4.14052e-06
4.67563e-05
-8.45345e-06
6.95364e-05
-1.37138e-05
8.7141e-05
-1.95831e-05
0.000100326
-2.57717e-05
0.00010977
-3.20302e-05
0.000116065
-3.81413e-05
0.00011973
-4.39128e-05
0.000121209
-4.91706e-05
0.000120887
-5.3754e-05
0.000119099
-5.75111e-05
0.000116136
-6.02963e-05
0.000112262
-6.19689e-05
0.00010772
-6.23935e-05
0.000102739
-6.14431e-05
9.75478e-05
-5.90034e-05
9.23808e-05
-5.49807e-05
8.74828e-05
-4.93128e-05
8.31155e-05
-4.19815e-05
7.95594e-05
-3.30281e-05
7.71125e-05
-2.257e-05
7.60841e-05
-1.08154e-05
7.67836e-05
1.92173e-06
7.95149e-05
8.45704e-05
1.52154e-05
-1.13315e-06
1.91011e-05
-3.97656e-06
4.95997e-05
-8.06315e-06
7.3623e-05
-1.2994e-05
9.20718e-05
-1.843e-05
0.000105763
-2.40832e-05
0.000115423
-2.97069e-05
0.000121689
-3.50871e-05
0.00012511
-4.00344e-05
0.000126156
-4.4377e-05
0.00012523
-4.79544e-05
0.000122676
-5.06125e-05
0.000118794
-5.22001e-05
0.00011385
-5.25665e-05
0.000108086
-5.15605e-05
0.000101733
-4.90328e-05
9.50201e-05
-4.48397e-05
8.81878e-05
-3.88514e-05
8.14945e-05
-3.09636e-05
7.52277e-05
-2.1114e-05
6.97098e-05
-9.30348e-06
6.53019e-05
4.37933e-06
6.24013e-05
1.97311e-05
6.14318e-05
3.6406e-05
6.284e-05
6.70844e-05
5.3892e-05
-1.09375e-06
2.01949e-05
-3.79789e-06
5.23039e-05
-7.63314e-06
7.74582e-05
-1.21944e-05
9.66331e-05
-1.71407e-05
0.000110709
-2.21848e-05
0.000120467
-2.70831e-05
0.000126587
-3.16257e-05
0.000129653
-3.56278e-05
0.000130158
-3.89223e-05
0.000128524
-4.13526e-05
0.000125106
-4.27674e-05
0.000120209
-4.30155e-05
0.000114098
-4.19427e-05
0.000107013
-3.93892e-05
9.91791e-05
-3.51899e-05
9.08208e-05
-2.9177e-05
8.21749e-05
-2.11868e-05
7.35043e-05
-1.1071e-05
6.5112e-05
1.28413e-06
5.73547e-05
1.5932e-05
5.06541e-05
3.28311e-05
4.55021e-05
5.18038e-05
4.24591e-05
7.24869e-05
4.21569e-05
4.52906e-05
9.42807e-05
-1.05022e-06
2.12451e-05
-3.59833e-06
5.4852e-05
-7.14911e-06
8.1009e-05
-1.12884e-05
0.000100772
-1.56709e-05
0.000115091
-2.00087e-05
0.000124805
-2.406e-05
0.000130639
-2.76185e-05
0.000133211
-3.05049e-05
0.000133045
-3.2558e-05
0.000130577
-3.36283e-05
0.000126177
-3.35714e-05
0.000120152
-3.22423e-05
0.000112769
-2.94911e-05
0.000104262
-2.51589e-05
9.48469e-05
-1.90755e-05
8.47374e-05
-1.10594e-05
7.41588e-05
-9.21735e-07
6.33666e-05
1.15244e-05
5.26658e-05
2.64459e-05
4.24331e-05
4.3961e-05
3.31391e-05
6.40953e-05
2.53678e-05
8.67245e-05
1.983e-05
0.000111495
1.73861e-05
1.90557e-05
0.00013773
-1.00095e-06
2.2246e-05
-3.37135e-06
5.72224e-05
-6.59577e-06
8.42334e-05
-1.02471e-05
0.000104424
-1.39724e-05
0.000118817
-1.748e-05
0.000128312
-2.05274e-05
0.000133686
-2.29102e-05
0.000135594
-2.44526e-05
0.000134587
-2.49997e-05
0.000131124
-2.44097e-05
0.000125587
-2.25479e-05
0.00011829
-1.9281e-05
0.000109502
-1.44711e-05
9.9452e-05
-7.97115e-06
8.83469e-05
3.80356e-07
7.63859e-05
1.07622e-05
6.3777e-05
2.33712e-05
5.07576e-05
3.84178e-05
3.76192e-05
5.61128e-05
2.47381e-05
7.66399e-05
1.2612e-05
0.000100108
1.89973e-06
0.000126477
-6.53936e-06
0.000155447
-1.15833e-05
-1.17891e-05
0.000186291
-9.44454e-07
2.31905e-05
-3.11063e-06
5.93885e-05
-5.95785e-06
8.70806e-05
-9.04126e-06
0.000107507
-1.19957e-05
0.000121771
-1.45214e-05
0.000130838
-1.63708e-05
0.000135535
-1.73373e-05
0.00013656
-1.72454e-05
0.000134495
-1.59431e-05
0.000129822
-1.32946e-05
0.000122938
-9.17543e-06
0.000114171
-3.466e-06
0.000103793
3.95317e-06
9.20328e-05
1.32073e-05
7.90928e-05
2.44337e-05
6.51595e-05
3.77876e-05
5.0423e-05
5.34484e-05
3.50968e-05
7.16222e-05
1.94454e-05
9.25376e-05
3.82274e-06
0.000116427
-1.12776e-05
0.000143484
-2.51576e-05
0.000173782
-3.68372e-05
0.000207127
-4.49278e-05
-4.7469e-05
0.000242807
-8.79474e-07
2.407e-05
-2.81038e-06
6.13194e-05
-5.22088e-06
8.94911e-05
-7.64263e-06
0.000109929
-9.69249e-06
0.000123821
-1.10568e-05
0.000132202
-1.1477e-05
0.000135956
-1.07379e-05
0.000135821
-8.65831e-06
0.000132416
-5.08303e-06
0.000126247
1.22504e-07
0.000117733
7.07708e-06
0.000107216
1.58878e-05
9.49819e-05
2.66541e-05
8.12665e-05
3.94727e-05
6.62742e-05
5.4443e-05
5.01892e-05
7.16754e-05
3.31906e-05
9.13005e-05
1.54716e-05
0.00011348
-2.73371e-06
0.000138413
-2.11108e-05
0.000166339
-3.92036e-05
0.000197508
-5.63264e-05
0.000232113
-7.14416e-05
0.000270125
-8.29403e-05
-8.82935e-05
0.00031095
-8.05021e-07
2.4875e-05
-2.46544e-06
6.29799e-05
-4.37146e-06
9.13971e-05
-6.0246e-06
0.000111582
-7.01701e-06
0.000124813
-7.01394e-06
0.000132199
-5.7384e-06
0.00013468
-2.95864e-06
0.000133042
1.52124e-06
0.000127936
7.86814e-06
0.0001199
1.62247e-05
0.000109376
2.6712e-05
9.67291e-05
3.94321e-05
8.22619e-05
5.44688e-05
6.62297e-05
7.18902e-05
4.88528e-05
9.17515e-05
3.03279e-05
0.000114101
1.08409e-05
0.000138991
-9.41794e-06
0.00016649
-3.02328e-05
0.000196706
-5.13271e-05
0.000229806
-7.23036e-05
0.000266023
-9.25438e-05
0.000305631
-0.000111049
0.000348805
-0.000126115
-0.000134696
0.000395207
-7.20291e-07
2.55953e-05
-2.07108e-06
6.43307e-05
-3.39698e-06
9.2723e-05
-4.16198e-06
0.000112347
-3.92599e-06
0.000124577
-2.32524e-06
0.000130599
9.44549e-07
0.00013141
6.14121e-06
0.000127845
1.34856e-05
0.000120591
2.31678e-05
0.000110218
3.53503e-05
9.71935e-05
5.01695e-05
8.19099e-05
6.77346e-05
6.46968e-05
8.81258e-05
4.58385e-05
0.000111392
2.55865e-05
0.000137549
4.17093e-06
0.000166579
-1.81892e-05
0.000198436
-4.1275e-05
0.000233057
-6.48538e-05
0.000270386
-8.86564e-05
0.000310413
-0.000112331
0.000353222
-0.000135353
0.000399039
-0.000156865
0.00044821
-0.000175286
-0.000187269
0.000500784
-6.24482e-07
2.62198e-05
-1.62249e-06
6.53287e-05
-2.28464e-06
9.33852e-05
-2.02958e-06
0.000112092
-3.77022e-07
0.000122925
3.07438e-06
0.000127147
8.66539e-06
0.000125819
1.66901e-05
0.00011982
2.74056e-05
0.000109876
4.10374e-05
9.65859e-05
5.77819e-05
8.04491e-05
7.78053e-05
6.18864e-05
0.000101241
4.12609e-05
0.000128184
1.88954e-05
0.000158684
-4.91298e-06
0.000192735
-2.98799e-05
0.000230269
-5.57235e-05
0.000271149
-8.21548e-05
0.000315165
-0.00010887
0.000362048
-0.00013554
0.000411504
-0.000161786
0.000463281
-0.000187131
0.000517304
-0.000210888
0.000573849
-0.000231831
-0.000246859
0.000633439
-5.1652e-07
2.67363e-05
-1.11393e-06
6.59261e-05
-1.01997e-06
9.32912e-05
4.00061e-07
0.000110672
3.67471e-06
0.00011965
9.25134e-06
0.000121571
1.75163e-05
0.000117554
2.88098e-05
0.000108527
4.34357e-05
9.525e-05
6.16667e-05
7.83549e-05
8.37457e-05
5.837e-05
0.000109884
3.57478e-05
0.000140257
1.08878e-05
0.000174996
-1.5843e-05
0.000214175
-4.40922e-05
0.000257802
-7.35066e-05
0.000305796
-0.000103717
0.000357968
-0.000134328
0.000413999
-0.000164901
0.000473414
-0.000194954
0.000535578
-0.000223949
0.00059973
-0.000251283
0.000665117
-0.000276275
0.000731366
-0.000298081
-0.000315181
0.000799688
-3.9474e-07
2.7131e-05
-5.37801e-07
6.60691e-05
4.14964e-07
9.23385e-05
3.1595e-06
0.000107927
8.28034e-06
0.000114529
1.62787e-05
0.000113572
2.75948e-05
0.000106238
4.26231e-05
9.34983e-05
6.17228e-05
7.61502e-05
8.52225e-05
5.48553e-05
0.000113421
3.01715e-05
0.000146585
2.58337e-06
0.000184946
-2.74724e-05
0.000228687
-5.95839e-05
0.000277937
-9.3343e-05
0.000332757
-0.000128326
0.000393112
-0.000164073
0.000458852
-0.000200067
0.000529658
-0.000235707
0.000604984
-0.000270281
0.000683965
-0.000302931
0.000765317
-0.000332634
0.000847258
-0.000358215
0.000927834
-0.000378657
-0.000396284
0.00100894
-2.56579e-07
2.73876e-05
1.16236e-07
6.56963e-05
2.04322e-06
9.04115e-05
6.28897e-06
0.000103682
1.3501e-05
0.000107317
2.42414e-05
0.000102832
3.90102e-05
9.14694e-05
5.82623e-05
7.42463e-05
8.24164e-05
5.19961e-05
0.00011186
2.54115e-05
0.00014695
-4.91859e-06
0.00018801
-3.84767e-05
0.000235327
-7.4789e-05
0.000289144
-0.000113401
0.000349659
-0.000153858
0.000417015
-0.000195682
0.000491296
-0.000238354
0.000572517
-0.000281288
0.000660605
-0.000323796
0.000755357
-0.000365033
0.000856339
-0.000403913
0.000962667
-0.000438962
0.00107233
-0.000467875
0.00118026
-0.000486586
-0.000489778
0.00127375
-9.88632e-08
2.74865e-05
8.61055e-07
6.47364e-05
3.8931e-06
8.73794e-05
9.83704e-06
9.77376e-05
1.94094e-05
9.77449e-05
3.3238e-05
8.90032e-05
5.18869e-05
7.28204e-05
7.58727e-05
5.02605e-05
0.000105673
2.2196e-05
0.000141729
-1.06445e-05
0.000184446
-4.76356e-05
0.00023419
-8.82206e-05
0.000291284
-0.000131883
0.000356009
-0.000178126
0.000428602
-0.000226451
0.000509269
-0.000276348
0.000598197
-0.000327282
0.000695599
-0.00037869
0.000801774
-0.00042997
0.000917226
-0.000480485
0.00104288
-0.000529565
0.00118042
-0.000576506
0.00133316
-0.000620612
0.00150848
-0.000661902
-0.000704223
0.00172292
8.40876e-08
2.74024e-05
1.71532e-06
6.31052e-05
6.00207e-06
8.30927e-05
1.38647e-05
8.98751e-05
2.6093e-05
8.55166e-05
4.33837e-05
7.17125e-05
6.63652e-05
4.98389e-05
9.56124e-05
2.10133e-05
0.000131653
-1.38446e-05
0.000174968
-5.39593e-05
0.000225988
-9.86552e-05
0.000285088
-0.000147321
0.000352585
-0.000199381
0.000428735
-0.000254276
0.000513738
-0.000311455
0.00060775
-0.00037036
0.000710905
-0.000430437
0.000823357
-0.000491142
0.00094534
-0.000551954
0.00107727
-0.000612412
0.00121987
-0.000672163
0.00137437
-0.000731008
0.00154275
-0.000788992
0.00172742
-0.000846572
-0.000902676
0.00192587
2.97669e-07
2.71047e-05
2.69841e-06
6.07044e-05
8.41015e-06
7.73809e-05
1.84373e-05
7.98479e-05
3.36455e-05
7.03084e-05
5.48e-05
5.0558e-05
8.25896e-05
2.20494e-05
0.000117638
-1.40351e-05
0.000160506
-5.67128e-05
0.000211688
-0.000105142
0.000271604
-0.000158571
0.000340591
-0.000216308
0.000418896
-0.000277685
0.000506673
-0.000342053
0.000603984
-0.000408766
0.000710811
-0.000477187
0.000827072
-0.000546699
0.000952649
-0.000616718
0.00108742
-0.000686726
0.00123131
-0.000756298
0.0013843
-0.000825154
0.00154648
-0.00089319
0.00171796
-0.000960472
0.00189838
-0.00102699
-0.00108923
0.00208494
5.48558e-07
2.65562e-05
3.83266e-06
5.74203e-05
1.11616e-05
7.0052e-05
2.36252e-05
6.73843e-05
4.21642e-05
5.17694e-05
6.76083e-05
2.51139e-05
0.000100697
-1.10391e-05
0.000142085
-5.54233e-05
0.000192341
-0.000106969
0.000251935
-0.000164736
0.000321227
-0.000227864
0.000400455
-0.000295535
0.000489722
-0.000366952
0.000588994
-0.000441325
0.000698101
-0.000517873
0.000816744
-0.00059583
0.000944512
-0.000674466
0.0010809
-0.000753104
0.00122532
-0.000831149
0.00137714
-0.00090812
0.00153566
-0.000983675
0.0017001
-0.00105762
0.00186951
-0.00112988
0.00204263
-0.00120011
-0.00126411
0.0022175
8.43787e-07
2.57124e-05
5.14101e-06
5.31231e-05
1.43009e-05
6.0892e-05
2.94969e-05
5.21884e-05
5.17401e-05
2.95262e-05
8.19152e-05
-5.06124e-06
0.000120795
-4.9919e-05
0.00016904
-0.000103669
0.000227189
-0.000165117
0.000295638
-0.000233185
0.000374627
-0.000306853
0.000464223
-0.000385131
0.000564307
-0.000467036
0.000674574
-0.000551592
0.000794536
-0.000637835
0.000923539
-0.000724833
0.00106078
-0.000811706
0.00120533
-0.000897651
0.00135615
-0.000981971
0.00151212
-0.0010641
0.00167205
-0.0011436
0.00183462
-0.0012202
0.00199843
-0.00129369
0.00216197
-0.00136365
-0.00142608
0.00232394
1.19027e-06
2.45221e-05
6.64544e-06
4.76679e-05
1.78694e-05
4.96681e-05
3.61128e-05
3.3945e-05
6.2448e-05
3.191e-06
9.77979e-05
-4.04112e-05
0.000142943
-9.50644e-05
0.000198513
-0.000159239
0.000264966
-0.00023157
0.000342565
-0.000310784
0.000431359
-0.000395647
0.000531166
-0.000484938
0.000641567
-0.000577437
0.000761912
-0.000671937
0.000891336
-0.000767259
0.00102878
-0.000862282
0.00117305
-0.000955972
0.00132281
-0.00104741
0.00147665
-0.00113581
0.00163311
-0.00122056
0.00179069
-0.00130119
0.00194789
-0.0013774
0.0021032
-0.00144899
0.00225517
-0.00151562
-0.00157396
0.00240305
1.59433e-06
2.29278e-05
8.36525e-06
4.0897e-05
2.19011e-05
3.61323e-05
4.35192e-05
1.23269e-05
7.43362e-05
-2.7626e-05
0.000115289
-8.13638e-05
0.00016713
-0.000146905
0.000230407
-0.000222516
0.000305439
-0.000306601
0.000392284
-0.000397629
0.000490723
-0.000494086
0.000600247
-0.000594462
0.000720066
-0.000697257
0.000849131
-0.000801002
0.000986166
-0.000904294
0.00112972
-0.00100584
0.00127821
-0.00110447
0.00143
-0.0011992
0.00158343
-0.00128923
0.00173685
-0.00137398
0.0018887
-0.00145304
0.00203749
-0.00152619
0.00218186
-0.00159336
0.00232064
-0.00165441
-0.00170683
0.00245351
2.06128e-06
2.08665e-05
1.03156e-05
3.26427e-05
2.64204e-05
2.00275e-05
5.17422e-05
-1.29949e-05
8.74181e-05
-6.3302e-05
0.000134364
-0.000128309
0.000193255
-0.000205797
0.000264501
-0.000293762
0.000348206
-0.000390306
0.000444145
-0.000493569
0.000551753
-0.000601694
0.000670125
-0.000712834
0.000798048
-0.00082518
0.000934044
-0.000936998
0.00107644
-0.00104669
0.00122341
-0.00115281
0.00137311
-0.00125417
0.00152369
-0.00134978
0.00167338
-0.00143893
0.00182056
-0.00152116
0.00196376
-0.00159624
0.00210171
-0.00166415
0.00223338
-0.00172502
0.00235796
-0.00177899
-0.00182442
0.00247555
2.59514e-06
1.82713e-05
1.25064e-05
2.27314e-05
3.14388e-05
1.09502e-06
6.07835e-05
-4.23396e-05
0.000101665
-0.000104183
0.000154931
-0.000181576
0.000221124
-0.000271989
0.000300438
-0.000373076
0.000392687
-0.000482555
0.000497283
-0.000598165
0.000613241
-0.000717651
0.000739209
-0.000838802
0.000873523
-0.000959494
0.00101429
-0.00107777
0.00115948
-0.00119187
0.001307
-0.00130034
0.00145485
-0.00140201
0.00160111
-0.00149604
0.00174408
-0.0015819
0.00188232
-0.00165939
0.00201462
-0.00172854
0.00214006
-0.00178959
0.00225801
-0.00184297
0.00236812
-0.0018891
-0.0019271
0.00247081
3.19841e-06
1.50729e-05
1.49413e-05
1.09885e-05
3.69533e-05
-2.0917e-05
7.06172e-05
-7.60035e-05
0.000117001
-0.000150567
0.000176828
-0.000241403
0.000250435
-0.000345597
0.000337724
-0.000460365
0.000438135
-0.000582966
0.000550641
-0.000710671
0.000673783
-0.000840794
0.000805734
-0.000970753
0.000944396
-0.00109816
0.00108751
-0.00122088
0.00123278
-0.00133714
0.00137798
-0.00144554
0.00152107
-0.0015451
0.00166026
-0.00163523
0.00179407
-0.00171571
0.00192135
-0.00178667
0.00204128
-0.00184846
0.00215335
-0.00190167
0.00225737
-0.00194699
0.0023534
-0.00198513
-0.00201586
0.00244216
3.87201e-06
1.12009e-05
1.76176e-05
-2.75702e-06
4.29452e-05
-4.62446e-05
8.11875e-05
-0.000114246
0.000133301
-0.000202681
0.000199819
-0.00030792
0.00028079
-0.000426568
0.00037574
-0.000555315
0.000483656
-0.000690882
0.000603015
-0.000830029
0.000731854
-0.000969632
0.000867881
-0.00110678
0.00100861
-0.00123889
0.00115153
-0.00136379
0.00129418
-0.0014798
0.00143437
-0.00158573
0.00157019
-0.00168092
0.00170011
-0.00176514
0.00182297
-0.00183858
0.00193805
-0.00190174
0.00204493
-0.00195535
0.00214355
-0.00200029
0.00223411
-0.00203755
0.00231703
-0.00206805
-0.00209207
0.00239324
4.61522e-06
6.58571e-06
2.05255e-05
-1.86673e-05
4.93797e-05
-7.50989e-05
9.24086e-05
-0.000157275
0.000150393
-0.000260665
0.000223595
-0.000381123
0.000311694
-0.000514667
0.000413757
-0.000657377
0.00052825
-0.000805376
0.000653119
-0.000954898
0.000785901
-0.00110241
0.000923893
-0.00124477
0.00106432
-0.00137932
0.00120453
-0.00150399
0.00134209
-0.00161736
0.00147495
-0.0017186
0.0016015
-0.00180747
0.00172058
-0.00188422
0.00183145
-0.00194946
0.00193382
-0.00200411
0.00202771
-0.00204924
0.00211343
-0.00208602
0.00219152
-0.00211563
0.00226265
-0.00213918
-0.00215729
0.00232786
5.4256e-06
1.16011e-06
2.36482e-05
-3.68899e-05
5.62053e-05
-0.000107656
0.000104164
-0.000205233
0.000168055
-0.000324557
0.000247785
-0.000460853
0.000342578
-0.000609459
0.000450965
-0.000765765
0.000570854
-0.000925265
0.000699651
-0.00108369
0.00083444
-0.0012372
0.000972199
-0.00138253
0.00111
-0.00151712
0.00124518
-0.00163918
0.00137552
-0.00174769
0.00149924
-0.00184232
0.00161514
-0.00192337
0.00172249
-0.00199156
0.00182101
-0.00204799
0.00191083
-0.00209392
0.00199234
-0.00213075
0.00206618
-0.00215985
0.00213308
-0.00218254
0.0021939
-0.0022
-0.0022131
0.00224971
6.29901e-06
-5.1389e-06
2.69619e-05
-5.75528e-05
6.33542e-05
-0.000144048
0.000116309
-0.000258188
0.000186024
-0.000394271
0.000271962
-0.000546791
0.00037281
-0.000710307
0.000486514
-0.000879469
0.000610401
-0.00104915
0.000741375
-0.00121467
0.000876155
-0.00137198
0.00101152
-0.0015179
0.00114455
-0.00165014
0.00127274
-0.00176737
0.00139418
-0.00186912
0.00150752
-0.00195566
0.00161199
-0.00202785
0.00170735
-0.00208692
0.00179375
-0.00213439
0.00187167
-0.00217184
0.00194182
-0.0022009
0.00200502
-0.00222305
0.00206216
-0.00223968
0.00211416
-0.002252
-0.00226097
0.00216203
7.2295e-06
-1.23684e-05
3.04355e-05
-8.07588e-05
7.07428e-05
-0.000184356
0.000128671
-0.000316117
0.000203997
-0.000469598
0.000295656
-0.00063845
0.00040173
-0.000816381
0.000519547
-0.000997286
0.000645877
-0.00117548
0.000777195
-0.00134599
0.000909975
-0.00150476
0.00104096
-0.00164888
0.00116736
-0.00177654
0.001287
-0.00188702
0.00139839
-0.00198051
0.00150066
-0.00205793
0.00159352
-0.0021207
0.00167715
-0.00217055
0.00175208
-0.00220932
0.00181909
-0.00223885
0.00187907
-0.00226088
0.00193297
-0.00227695
0.00198174
-0.00228845
0.00202628
-0.00229653
-0.0023022
0.0020675
8.20927e-06
-2.05777e-05
3.40309e-05
-0.00010658
7.82726e-05
-0.000228597
0.000141056
-0.0003789
0.000221647
-0.000550189
0.000318375
-0.000735177
0.000428672
-0.000926678
0.00054925
-0.00111786
0.000676378
-0.00130261
0.000806215
-0.00147582
0.000935133
-0.00163368
0.00105999
-0.00177374
0.00117829
-0.00189485
0.0012883
-0.00199703
0.001389
-0.00208121
0.00148002
-0.00214895
0.00156152
-0.0022022
0.00163406
-0.00224309
0.00169846
-0.00227373
0.0017557
-0.00229609
0.00180678
-0.00231195
0.00185269
-0.00232286
0.00189435
-0.00233011
0.0019326
-0.00233478
-0.00233784
0.00196824
9.2286e-06
-2.98063e-05
3.77033e-05
-0.000135055
8.58319e-05
-0.000276726
0.000153248
-0.000446316
0.000238624
-0.000635565
0.00033962
-0.000836173
0.000452997
-0.00104006
0.000574889
-0.00123976
0.000701158
-0.00142888
0.000827784
-0.00160245
0.000951196
-0.00175709
0.00106851
-0.00189105
0.00117767
-0.002004
0.00127741
-0.00209677
0.00136723
-0.00217103
0.00144722
-0.00222895
0.00151796
-0.00227294
0.0015803
-0.00230543
0.00163525
-0.00232868
0.0016839
-0.00234473
0.00172728
-0.00235534
0.00176637
-0.00236195
0.00180201
-0.00236575
0.00183494
-0.00236772
-0.00236873
0.00186584
1.02759e-05
-4.00822e-05
4.14018e-05
-0.000166181
9.32983e-05
-0.000328622
0.000165023
-0.000518041
0.000254577
-0.000725119
0.00035891
-0.000940505
0.000474125
-0.00115527
0.000595849
-0.00136148
0.000719663
-0.00155269
0.00084152
-0.0017243
0.000958059
-0.00187363
0.00106679
-0.00199979
0.00116614
-0.00210335
0.00125539
-0.00218602
0.00133452
-0.00225015
0.00140404
-0.00229847
0.00146483
-0.00233373
0.00151796
-0.00235856
0.00156456
-0.00237528
0.00160574
-0.00238591
0.00164251
-0.00239211
0.00167577
-0.0023952
0.00170628
-0.00239626
0.00173467
-0.00239611
-0.00239555
0.00176149
1.13379e-05
-5.14201e-05
4.50702e-05
-0.000199913
0.000100541
-0.000384093
0.000176148
-0.000593648
0.00026916
-0.000818131
0.0003758
-0.00104714
0.000491559
-0.00127103
0.000611661
-0.00148158
0.000731551
-0.00167258
0.000847309
-0.00184006
0.000955922
-0.00198225
0.00105538
-0.00209925
0.00114465
-0.00219262
0.00122352
-0.00226489
0.00129242
-0.00231905
0.0013522
-0.00235825
0.00140397
-0.0023855
0.00144892
-0.0024035
0.0014882
-0.00241457
0.00152292
-0.00242063
0.001554
-0.00242319
0.00158226
-0.00242346
0.00160835
-0.00242234
0.00163279
-0.00242056
-0.00241876
0.001656
1.23996e-05
-6.38197e-05
4.86482e-05
-0.000236162
0.000107427
-0.000442872
0.000186396
-0.000672617
0.000282051
-0.000913786
0.000389903
-0.001155
0.000504909
-0.00138604
0.000622019
-0.00159869
0.000736693
-0.00178726
0.000845285
-0.00194865
0.000945232
-0.00208219
0.00103507
-0.00218908
0.00111429
-0.00227184
0.00118316
-0.00233376
0.00124248
-0.00237837
0.00129336
-0.00240913
0.00133705
-0.00242918
0.00137477
-0.00244122
0.00140768
-0.00244748
0.00143679
-0.00244974
0.00146295
-0.00244935
0.00148686
-0.00244737
0.00150906
-0.00244455
0.00152999
-0.00244149
-0.00243874
0.00154997
1.34448e-05
-7.72645e-05
5.20736e-05
-0.000274791
0.000113821
-0.000504619
0.000195549
-0.000754345
0.000292961
-0.0010112
0.000400903
-0.00126294
0.000513902
-0.00149904
0.000626778
-0.00171157
0.000735159
-0.00189564
0.00083579
-0.00204929
0.000926632
-0.00217303
0.00100677
-0.00226922
0.00107622
-0.00234129
0.00113565
-0.00239319
0.00118615
-0.00242887
0.00122899
-0.00245198
0.00126549
-0.00246568
0.00129686
-0.0024726
0.0013242
-0.00247482
0.00134842
-0.00247396
0.00137027
-0.0024712
0.00139033
-0.00246742
0.00140905
-0.00246327
0.00142679
-0.00245922
-0.00245572
0.00144377
1.44565e-05
-9.1721e-05
5.52831e-05
-0.000315617
0.000119594
-0.00056893
0.000203408
-0.000838159
0.000301649
-0.00110944
0.000408568
-0.00136986
0.00051839
-0.00160886
0.000625957
-0.00181914
0.000727194
-0.00199688
0.000819333
-0.00214142
0.000900895
-0.0022546
0.000971509
-0.00233983
0.00103164
-0.00240142
0.00108229
-0.00244384
0.00112474
-0.00247133
0.00116038
-0.00248761
0.0011905
-0.00249581
0.00121629
-0.00249839
0.00123873
-0.00249726
0.00125863
-0.00249386
0.00127662
-0.00248919
0.00129321
-0.00248401
0.00130875
-0.00247882
0.00132352
-0.00247399
-0.00246988
0.00133768
1.54172e-05
-0.000107138
5.82153e-05
-0.000358415
0.000124627
-0.000635341
0.000209804
-0.000923337
0.000307927
-0.00120756
0.000412754
-0.00147468
0.000518346
-0.00171445
0.00061971
-0.0019205
0.000713182
-0.00209035
0.000796538
-0.00222478
0.000868864
-0.00232692
0.00093029
-0.00240126
0.000981658
-0.00245279
0.00102423
-0.00248641
0.00105941
-0.00250651
0.0010886
-0.00251681
0.00111307
-0.00252028
0.00113391
-0.00251922
0.00115199
-0.00251534
0.00116801
-0.00250988
0.00118252
-0.0025037
0.0011959
-0.0024974
0.00120847
-0.00249138
0.00122042
-0.00248594
-0.00248134