/*--------------------------------*- C++ -*----------------------------------*\
  =========                 |
  \\      /  F ield         | OpenFOAM: The Open Source CFD Toolbox
   \\    /   O peration     | Website:  https://openfoam.org
    \\  /    A nd           | Version:  6.0
     \\/     M anipulation  |
\*---------------------------------------------------------------------------*/
FoamFile
{
    version     2.0;
    format      ascii;
    class       volScalarField;
    location    "112";
    object      p;
}
// * * * * * * * * * * * * * * * * * * * * * * * * * * * * * * * * * * * * * //

dimensions      [0 2 -2 0 0 0 0];

internalField   nonuniform List<scalar> 
8000
(
-0.417834
-0.418773
-0.41905
-0.418958
-0.418779
-0.418657
-0.41868
-0.418896
-0.419322
-0.419956
-0.420795
-0.421834
-0.423067
-0.424487
-0.426083
-0.427845
-0.429754
-0.431727
-0.433667
-0.436121
-0.416399
-0.418053
-0.418733
-0.418909
-0.418946
-0.418989
-0.419121
-0.419381
-0.419777
-0.420304
-0.420954
-0.421721
-0.422603
-0.423595
-0.424697
-0.425907
-0.427215
-0.428528
-0.429758
-0.431626
-0.415286
-0.417643
-0.418725
-0.41917
-0.419426
-0.419633
-0.419867
-0.420156
-0.420499
-0.420882
-0.421293
-0.421725
-0.422179
-0.422658
-0.423169
-0.423726
-0.424329
-0.424879
-0.425302
-0.426514
-0.41471
-0.417729
-0.419196
-0.419909
-0.420387
-0.420763
-0.421098
-0.421408
-0.421679
-0.421888
-0.422014
-0.42205
-0.421998
-0.421868
-0.42168
-0.421468
-0.421247
-0.420911
-0.42041
-0.420877
-0.414883
-0.418488
-0.420311
-0.421288
-0.421993
-0.422545
-0.422987
-0.423319
-0.423511
-0.423524
-0.423328
-0.422911
-0.422273
-0.421435
-0.420431
-0.419318
-0.418129
-0.416759
-0.415192
-0.414806
-0.415992
-0.420076
-0.422216
-0.42345
-0.424387
-0.425127
-0.42569
-0.426055
-0.426171
-0.425981
-0.425438
-0.424519
-0.423224
-0.421577
-0.419631
-0.417469
-0.41515
-0.412569
-0.409761
-0.40839
-0.418182
-0.422612
-0.425017
-0.426497
-0.427671
-0.428614
-0.429319
-0.42974
-0.429799
-0.429414
-0.428516
-0.427066
-0.425055
-0.422508
-0.419493
-0.416125
-0.412492
-0.408496
-0.404235
-0.401718
-0.421539
-0.42616
-0.428767
-0.430475
-0.43189
-0.433052
-0.433926
-0.434435
-0.434469
-0.433916
-0.432679
-0.430692
-0.427929
-0.424411
-0.420215
-0.415486
-0.410344
-0.404705
-0.398742
-0.394891
-0.426072
-0.430716
-0.433455
-0.435368
-0.43702
-0.438415
-0.439485
-0.440117
-0.44017
-0.439493
-0.437955
-0.435454
-0.431938
-0.42741
-0.42195
-0.415724
-0.408887
-0.401369
-0.393433
-0.388026
-0.431715
-0.436212
-0.439003
-0.441086
-0.442961
-0.444594
-0.445879
-0.446669
-0.446784
-0.446037
-0.444253
-0.44129
-0.437057
-0.431528
-0.424769
-0.416956
-0.408273
-0.398659
-0.388475
-0.381268
-0.438327
-0.442513
-0.445269
-0.447476
-0.449545
-0.451402
-0.452905
-0.453872
-0.454085
-0.453317
-0.45135
-0.447996
-0.443117
-0.436643
-0.428611
-0.419191
-0.408579
-0.39672
-0.384052
-0.374787
-0.445704
-0.449432
-0.452067
-0.454333
-0.456546
-0.458592
-0.460292
-0.461429
-0.461751
-0.460994
-0.458895
-0.455221
-0.449784
-0.442464
-0.43325
-0.422285
-0.409763
-0.395618
-0.380324
-0.368758
-0.453603
-0.456755
-0.459177
-0.461427
-0.463712
-0.465882
-0.467726
-0.468994
-0.469403
-0.468652
-0.466445
-0.462503
-0.456591
-0.448539
-0.438281
-0.425914
-0.411611
-0.395285
-0.377374
-0.363318
-0.461766
-0.464256
-0.466381
-0.468524
-0.47079
-0.472995
-0.474898
-0.476222
-0.476655
-0.475869
-0.473533
-0.469337
-0.463005
-0.454323
-0.443172
-0.429596
-0.413734
-0.395476
-0.375141
-0.358504
-0.469949
-0.47173
-0.473479
-0.47542
-0.477557
-0.479686
-0.481539
-0.482814
-0.483176
-0.482272
-0.47975
-0.47527
-0.468531
-0.459283
-0.447371
-0.432786
-0.415635
-0.395796
-0.373404
-0.354231
-0.477944
-0.479005
-0.480315
-0.481955
-0.48385
-0.485779
-0.487457
-0.488559
-0.488732
-0.487606
-0.484808
-0.479983
-0.47281
-0.463024
-0.450445
-0.435028
-0.416857
-0.395828
-0.371869
-0.350354
-0.485602
-0.485964
-0.486785
-0.488033
-0.489574
-0.491179
-0.492552
-0.493354
-0.493216
-0.491754
-0.488582
-0.483335
-0.475683
-0.465358
-0.452174
-0.436067
-0.417117
-0.395272
-0.370289
-0.346751
-0.492841
-0.492548
-0.492846
-0.493623
-0.494708
-0.495874
-0.496824
-0.497206
-0.496642
-0.494738
-0.491101
-0.48536
-0.477189
-0.466323
-0.452581
-0.435898
-0.41635
-0.393956
-0.368363
-0.343141
-0.499646
-0.498757
-0.498513
-0.498758
-0.499302
-0.499933
-0.500355
-0.500215
-0.499127
-0.496692
-0.492517
-0.486237
-0.477536
-0.466168
-0.451971
-0.43488
-0.414947
-0.392162
-0.366023
-0.339304
-0.50607
-0.504644
-0.503851
-0.503519
-0.50346
-0.50348
-0.503293
-0.502548
-0.500856
-0.49782
-0.493055
-0.486213
-0.477012
-0.465251
-0.450826
-0.433732
-0.414042
-0.391666
-0.365928
-0.339168
-0.512219
-0.510305
-0.508964
-0.508029
-0.507323
-0.506679
-0.505824
-0.504409
-0.502049
-0.498353
-0.492952
-0.485531
-0.475856
-0.463801
-0.449366
-0.432686
-0.414034
-0.393759
-0.372694
-0.355101
-0.518234
-0.515864
-0.51398
-0.512429
-0.511053
-0.509713
-0.508145
-0.506009
-0.502925
-0.498512
-0.492426
-0.484389
-0.474227
-0.461886
-0.447452
-0.431154
-0.413357
-0.394568
-0.375661
-0.359187
-0.52428
-0.521463
-0.519038
-0.516868
-0.514815
-0.512757
-0.510446
-0.507544
-0.50368
-0.498489
-0.491655
-0.482948
-0.472252
-0.45958
-0.445085
-0.429045
-0.411846
-0.393966
-0.375992
-0.359245
-0.53052
-0.527242
-0.524274
-0.52149
-0.518757
-0.515969
-0.512885
-0.509172
-0.504467
-0.498425
-0.490769
-0.481317
-0.470014
-0.456934
-0.442272
-0.426327
-0.409465
-0.392085
-0.37459
-0.35777
-0.537107
-0.533328
-0.529812
-0.526418
-0.523004
-0.519473
-0.515583
-0.511005
-0.505386
-0.498411
-0.489844
-0.479564
-0.467573
-0.454001
-0.439077
-0.423105
-0.406423
-0.389365
-0.372235
-0.355535
-0.544163
-0.53983
-0.535751
-0.531747
-0.527649
-0.523353
-0.518614
-0.513102
-0.506484
-0.498481
-0.488911
-0.477715
-0.464962
-0.450827
-0.435569
-0.419491
-0.402907
-0.386105
-0.369336
-0.352961
-0.55178
-0.546828
-0.542167
-0.537548
-0.532749
-0.527654
-0.522005
-0.515477
-0.507761
-0.498627
-0.48796
-0.475771
-0.462192
-0.447445
-0.431809
-0.415583
-0.399054
-0.382476
-0.366062
-0.350078
-0.560011
-0.554371
-0.549103
-0.543855
-0.538329
-0.532382
-0.525744
-0.518098
-0.509173
-0.498804
-0.486951
-0.473704
-0.459256
-0.443869
-0.427833
-0.411436
-0.39494
-0.378563
-0.362483
-0.346901
-0.568869
-0.562478
-0.556577
-0.550677
-0.54438
-0.537508
-0.529779
-0.520896
-0.510644
-0.498936
-0.485822
-0.47147
-0.45613
-0.440092
-0.42365
-0.407074
-0.390592
-0.374386
-0.358603
-0.343378
-0.578332
-0.571136
-0.564576
-0.557991
-0.55086
-0.542966
-0.534023
-0.523771
-0.512069
-0.498928
-0.484493
-0.469009
-0.452773
-0.436092
-0.41925
-0.40249
-0.386005
-0.369937
-0.354399
-0.339472
-0.588345
-0.580302
-0.573058
-0.565743
-0.557694
-0.548657
-0.538356
-0.526592
-0.513322
-0.498668
-0.482873
-0.466251
-0.449133
-0.431828
-0.4146
-0.397657
-0.38115
-0.365186
-0.349842
-0.33515
-0.598813
-0.5899
-0.581949
-0.573846
-0.564773
-0.554447
-0.542628
-0.529207
-0.514262
-0.498035
-0.480865
-0.46312
-0.44515
-0.427251
-0.409655
-0.39253
-0.375987
-0.360096
-0.344897
-0.330384
-0.609612
-0.599822
-0.59114
-0.582176
-0.571949
-0.560168
-0.546663
-0.531445
-0.514736
-0.496903
-0.478367
-0.459534
-0.440754
-0.422297
-0.404356
-0.387055
-0.370465
-0.354621
-0.339526
-0.325152
-0.620577
-0.609921
-0.600484
-0.590568
-0.579037
-0.565619
-0.550259
-0.533122
-0.514588
-0.495143
-0.475274
-0.455406
-0.435869
-0.416897
-0.398637
-0.38117
-0.364528
-0.348712
-0.333691
-0.319428
-0.63151
-0.620016
-0.609794
-0.598817
-0.585812
-0.570572
-0.5532
-0.534049
-0.513661
-0.492628
-0.471482
-0.450645
-0.430414
-0.410974
-0.392427
-0.374807
-0.358113
-0.342316
-0.327349
-0.313185
-0.642174
-0.629885
-0.618844
-0.606681
-0.592019
-0.574777
-0.555259
-0.534033
-0.511798
-0.489231
-0.466886
-0.445159
-0.424302
-0.404448
-0.385647
-0.367895
-0.351157
-0.335377
-0.320456
-0.306389
-0.652298
-0.639269
-0.627367
-0.613879
-0.597379
-0.577969
-0.556209
-0.532887
-0.508849
-0.484831
-0.461382
-0.438855
-0.417446
-0.397233
-0.378219
-0.360361
-0.343595
-0.32784
-0.312965
-0.299007
-0.661581
-0.647879
-0.635066
-0.620104
-0.601591
-0.57988
-0.555823
-0.530431
-0.504671
-0.479309
-0.454865
-0.431636
-0.409756
-0.389246
-0.370064
-0.352131
-0.335361
-0.319647
-0.30483
-0.291
-0.669695
-0.655394
-0.641614
-0.62503
-0.60435
-0.580247
-0.553888
-0.526495
-0.499127
-0.472551
-0.447235
-0.42341
-0.401143
-0.380403
-0.361103
-0.343136
-0.326392
-0.310743
-0.296005
-0.282331
-0.676294
-0.661473
-0.646666
-0.628323
-0.605354
-0.578817
-0.550202
-0.520922
-0.492091
-0.464448
-0.438393
-0.414084
-0.391522
-0.370623
-0.351263
-0.333309
-0.316631
-0.301078
-0.286446
-0.272965
-0.681022
-0.665764
-0.649872
-0.629647
-0.604313
-0.575354
-0.544584
-0.51357
-0.483447
-0.454899
-0.428249
-0.403573
-0.38081
-0.359831
-0.340476
-0.322588
-0.306021
-0.290604
-0.276114
-0.262868
-0.68352
-0.667909
-0.650879
-0.628682
-0.600956
-0.569648
-0.536872
-0.504312
-0.47309
-0.443813
-0.416715
-0.391796
-0.368936
-0.347959
-0.328679
-0.310918
-0.294516
-0.27928
-0.264975
-0.252011
-0.683439
-0.667561
-0.649351
-0.625129
-0.595042
-0.561513
-0.526928
-0.49304
-0.460928
-0.431107
-0.403717
-0.378684
-0.355832
-0.334948
-0.31582
-0.298254
-0.282076
-0.267072
-0.253002
-0.240372
-0.680448
-0.66439
-0.644977
-0.618721
-0.586362
-0.550796
-0.514635
-0.479663
-0.446883
-0.416709
-0.389188
-0.364174
-0.341442
-0.320748
-0.301856
-0.284558
-0.268669
-0.253956
-0.240176
-0.227937
-0.674247
-0.658093
-0.637477
-0.609228
-0.574745
-0.537375
-0.499905
-0.464108
-0.430893
-0.400563
-0.373074
-0.348218
-0.325724
-0.30532
-0.286752
-0.269802
-0.254275
-0.239916
-0.226488
-0.214699
-0.66457
-0.648406
-0.626615
-0.596466
-0.560061
-0.521161
-0.482674
-0.446326
-0.412912
-0.382625
-0.355337
-0.330778
-0.308644
-0.288636
-0.270487
-0.253971
-0.23888
-0.224945
-0.211935
-0.20066
-0.651195
-0.63511
-0.612202
-0.580298
-0.542222
-0.502098
-0.462905
-0.426285
-0.392912
-0.362869
-0.335949
-0.311833
-0.290182
-0.270681
-0.25305
-0.237056
-0.222484
-0.209045
-0.196525
-0.18583
-0.633952
-0.618035
-0.594102
-0.560635
-0.521182
-0.480167
-0.440587
-0.403978
-0.370884
-0.341285
-0.314902
-0.291372
-0.270332
-0.251451
-0.234441
-0.219063
-0.205094
-0.192231
-0.180276
-0.170226
-0.612727
-0.59707
-0.572237
-0.537443
-0.496937
-0.45538
-0.415737
-0.379419
-0.346839
-0.317879
-0.292199
-0.269401
-0.2491
-0.230955
-0.214671
-0.200005
-0.186728
-0.174524
-0.163216
-0.153876
-0.587462
-0.572164
-0.546583
-0.510736
-0.469526
-0.427784
-0.3884
-0.352646
-0.320805
-0.292675
-0.267862
-0.245938
-0.226504
-0.20921
-0.193759
-0.179907
-0.167415
-0.155959
-0.145382
-0.136822
-0.558164
-0.543323
-0.517179
-0.48058
-0.439029
-0.397458
-0.358647
-0.323717
-0.292834
-0.265716
-0.241925
-0.221014
-0.202572
-0.186245
-0.171735
-0.158797
-0.147189
-0.136575
-0.126823
-0.11912
-0.524898
-0.510619
-0.484117
-0.447089
-0.405566
-0.364514
-0.326576
-0.292718
-0.262996
-0.237059
-0.21444
-0.194672
-0.177342
-0.162095
-0.148632
-0.136711
-0.126084
-0.116415
-0.107592
-0.10083
-0.487793
-0.474181
-0.447545
-0.410422
-0.369293
-0.329096
-0.292311
-0.259755
-0.23138
-0.206783
-0.185469
-0.166967
-0.150861
-0.136798
-0.124485
-0.11368
-0.104136
-0.0955182
-0.0877364
-0.0819929
-0.447034
-0.434196
-0.407664
-0.370784
-0.330404
-0.291378
-0.256007
-0.22496
-0.198101
-0.174982
-0.155093
-0.137963
-0.123179
-0.110396
-0.0993278
-0.0897352
-0.0813742
-0.0739214
-0.0672915
-0.0626094
-0.402863
-0.390905
-0.36472
-0.328419
-0.289127
-0.251565
-0.217841
-0.188488
-0.163291
-0.141769
-0.123407
-0.107735
-0.0943538
-0.0829297
-0.0731862
-0.0648938
-0.0578169
-0.0516459
-0.0462735
-0.0426826
-0.355573
-0.344599
-0.319006
-0.283608
-0.245721
-0.209888
-0.178021
-0.150522
-0.127111
-0.107283
-0.0905229
-0.076374
-0.0644524
-0.0544415
-0.0460828
-0.039161
-0.0334556
-0.0286771
-0.0246921
-0.0223472
-0.305503
-0.295613
-0.270851
-0.236667
-0.200476
-0.16661
-0.136781
-0.111271
-0.0897439
-0.0716826
-0.0565779
-0.04399
-0.0335574
-0.0249892
-0.0180528
-0.0125502
-0.00828137
-0.00501879
-0.00269062
-0.00204482
-0.253033
-0.24432
-0.220621
-0.187937
-0.153706
-0.122015
-0.094379
-0.0709684
-0.0514013
-0.0351526
-0.0217252
-0.0107009
-0.00174707
0.0053894
0.0109039
0.014971
0.0177432
0.019255
0.0193478
0.0176863
-0.198573
-0.191123
-0.168704
-0.137785
-0.105749
-0.0764156
-0.0511024
-0.0298798
-0.0123264
0.00208804
0.01385
0.0233589
0.0309186
0.0367425
0.0409851
0.0437857
0.0451658
0.0447284
0.0419622
0.0379245
-0.142564
-0.136451
-0.115514
-0.0865976
-0.056962
-0.0301402
-0.00726054
0.0116996
0.0271953
0.0397624
0.0498831
0.0579508
0.0642634
0.0690301
0.0724167
0.0745768
0.0753838
0.0739001
0.0694041
0.0649406
-0.0854628
-0.0807525
-0.061476
-0.0347704
-0.0077103
0.0164692
0.0368225
0.0534544
0.0668472
0.0775394
0.0860104
0.0926554
0.097786
0.101652
0.104509
0.106643
0.107995
0.107472
0.104833
0.10904
-0.0277324
-0.0244788
-0.00702148
0.0172951
0.0416351
0.0630676
0.0808198
0.0950682
0.106314
0.115091
0.121871
0.127037
0.130901
0.133723
0.135776
0.13733
0.138348
0.138308
0.138204
0.144676
0.0301522
0.0319082
0.0474142
0.0691976
0.0907057
0.109314
0.124411
0.136235
0.145298
0.152127
0.157178
0.160824
0.163368
0.16507
0.166186
0.166939
0.167291
0.166917
0.166826
0.172086
0.0877185
0.0879503
0.101401
0.120542
0.13914
0.154875
0.167285
0.17666
0.183517
0.188367
0.191648
0.193715
0.194858
0.19532
0.195338
0.19511
0.194613
0.193601
0.192899
0.196505
0.144501
0.143196
0.154516
0.170943
0.186589
0.199433
0.209151
0.216075
0.22072
0.223579
0.225069
0.225523
0.22521
0.224352
0.223159
0.221798
0.220235
0.21826
0.216621
0.218704
0.200044
0.197206
0.206351
0.220028
0.232717
0.242683
0.24973
0.254224
0.256674
0.257552
0.25725
0.256079
0.254285
0.25207
0.249619
0.247068
0.244373
0.241343
0.23869
0.239318
0.253907
0.249554
0.256511
0.267442
0.277202
0.284336
0.288762
0.290874
0.291168
0.290097
0.288026
0.285244
0.281973
0.278395
0.274671
0.270913
0.267066
0.262971
0.259301
0.258561
0.305669
0.299835
0.304621
0.312845
0.319741
0.32412
0.326002
0.325803
0.324006
0.321041
0.317248
0.312892
0.308177
0.303262
0.298288
0.293346
0.288376
0.283248
0.278594
0.276559
0.354927
0.347661
0.350325
0.355917
0.360049
0.361778
0.361221
0.358806
0.355004
0.350221
0.344775
0.338906
0.332799
0.326596
0.320418
0.314338
0.308297
0.302191
0.296599
0.293344
0.401302
0.392669
0.393287
0.396357
0.397855
0.39707
0.394202
0.389689
0.38399
0.377486
0.370472
0.36317
0.355743
0.348319
0.341001
0.333849
0.326804
0.319785
0.313309
0.308908
0.444441
0.43452
0.433198
0.433885
0.43291
0.429772
0.424744
0.418273
0.410802
0.402691
0.394213
0.385572
0.376914
0.36835
0.35997
0.35182
0.343848
0.335987
0.328689
0.323221
0.484018
0.472901
0.469769
0.468245
0.464983
0.459676
0.45266
0.444389
0.435289
0.4257
0.415877
0.406004
0.396214
0.386604
0.37725
0.368187
0.35937
0.350744
0.34269
0.336238
0.519733
0.507527
0.502739
0.4992
0.493863
0.486593
0.477781
0.467882
0.45731
0.446386
0.435348
0.424363
0.413551
0.402997
0.392764
0.382881
0.373306
0.363995
0.355257
0.347912
0.55132
0.538141
0.531874
0.52654
0.519361
0.510353
0.49995
0.488612
0.476739
0.464634
0.45252
0.440552
0.428838
0.41745
0.406441
0.395834
0.385594
0.375681
0.366333
0.358192
0.578541
0.564519
0.556966
0.550078
0.54131
0.530803
0.519031
0.506454
0.49346
0.480339
0.4673
0.454485
0.441993
0.429887
0.418211
0.406982
0.396171
0.385742
0.375867
0.367033
0.601193
0.586466
0.577837
0.569655
0.559564
0.547812
0.534904
0.521299
0.507374
0.49341
0.479602
0.466084
0.452946
0.440244
0.428013
0.416268
0.404984
0.394126
0.38381
0.374394
0.619106
0.603819
0.59434
0.585135
0.574004
0.561273
0.54747
0.533055
0.518398
0.503769
0.489355
0.475283
0.461635
0.448463
0.435795
0.423641
0.411984
0.400789
0.390121
0.380239
0.632145
0.61645
0.606356
0.596414
0.584533
0.571096
0.556649
0.541651
0.526465
0.511355
0.496503
0.482029
0.468012
0.454498
0.441512
0.429062
0.417133
0.405692
0.394765
0.38454
0.640212
0.624265
0.613798
0.603413
0.59108
0.577219
0.562382
0.547031
0.531524
0.516122
0.501002
0.486283
0.472039
0.458315
0.445132
0.4325
0.420403
0.408809
0.397719
0.387274
0.643243
0.627204
0.616613
0.606083
0.593602
0.579599
0.564633
0.549161
0.533545
0.518041
0.502827
0.48802
0.473694
0.459892
0.446637
0.433935
0.421774
0.410122
0.398968
0.388431
0.641213
0.625243
0.614777
0.604402
0.592079
0.578222
0.563386
0.548029
0.532514
0.5171
0.501965
0.487229
0.472967
0.459221
0.446017
0.433361
0.421241
0.409624
0.398504
0.388003
0.634133
0.618391
0.6083
0.598381
0.586519
0.573093
0.558647
0.543639
0.528437
0.513304
0.498423
0.483916
0.469862
0.456306
0.443276
0.43078
0.418805
0.407319
0.396331
0.385995
0.62205
0.606694
0.597223
0.588056
0.576957
0.564244
0.550445
0.536019
0.521338
0.506676
0.49222
0.4781
0.464397
0.451164
0.43843
0.426208
0.414482
0.403221
0.392462
0.382417
0.605049
0.590233
0.581622
0.573494
0.563453
0.551731
0.538831
0.525214
0.511261
0.497255
0.483394
0.469814
0.456605
0.443824
0.431508
0.419672
0.408297
0.397352
0.386917
0.377287
0.583251
0.569124
0.5616
0.554792
0.546094
0.535631
0.523876
0.511291
0.498267
0.485099
0.471998
0.459109
0.446531
0.43433
0.42255
0.411209
0.400286
0.389748
0.379728
0.370631
0.556813
0.543516
0.537296
0.532071
0.52499
0.516046
0.505674
0.494334
0.482433
0.470279
0.458097
0.446045
0.434232
0.422735
0.411604
0.400865
0.390493
0.380451
0.370934
0.362483
0.525927
0.513591
0.508877
0.505483
0.500278
0.4931
0.484336
0.474448
0.463854
0.452882
0.441772
0.430697
0.419778
0.409102
0.398732
0.388699
0.378972
0.369513
0.360581
0.352884
0.490816
0.479565
0.476539
0.475206
0.472118
0.466937
0.459994
0.451751
0.44264
0.433009
0.423116
0.413151
0.403248
0.393507
0.384002
0.374774
0.365785
0.356992
0.348724
0.34188
0.45174
0.441683
0.440508
0.441443
0.440692
0.437722
0.432799
0.42638
0.418916
0.410774
0.402234
0.393502
0.384729
0.376029
0.36749
0.35916
0.350998
0.342951
0.335421
0.329522
0.408987
0.400222
0.401038
0.404421
0.406205
0.405639
0.402917
0.398488
0.392819
0.386302
0.379238
0.371854
0.364316
0.356755
0.349273
0.34193
0.334681
0.327456
0.320732
0.315864
0.362877
0.355489
0.358408
0.364392
0.368883
0.370892
0.37053
0.368238
0.364499
0.359729
0.354252
0.348317
0.342109
0.335774
0.329433
0.323159
0.3169
0.310573
0.304717
0.300959
0.313756
0.307814
0.312925
0.32163
0.328971
0.3337
0.335838
0.33581
0.334117
0.331198
0.327404
0.323005
0.318208
0.313176
0.308049
0.302914
0.29772
0.29236
0.287429
0.284854
0.262
0.257558
0.264918
0.276432
0.286733
0.294301
0.299052
0.301394
0.301842
0.300861
0.298828
0.296037
0.292716
0.289049
0.285193
0.281258
0.277192
0.272861
0.268908
0.267586
0.208008
0.205105
0.214739
0.229113
0.242452
0.252947
0.260399
0.265193
0.267856
0.268878
0.268663
0.267531
0.265732
0.263471
0.260928
0.258234
0.255344
0.252094
0.249163
0.249165
0.152199
0.150858
0.162764
0.180012
0.196429
0.209907
0.220121
0.227422
0.23235
0.235418
0.237057
0.237613
0.237358
0.236521
0.235306
0.233872
0.232183
0.230045
0.228166
0.229562
0.0950176
0.0952452
0.109385
0.129482
0.148983
0.165467
0.178472
0.188311
0.195528
0.200661
0.204165
0.206409
0.207693
0.208264
0.208355
0.208154
0.207641
0.206599
0.205773
0.208651
0.0369214
0.0387094
0.0550133
0.0778962
0.100446
0.119927
0.135723
0.148103
0.157611
0.164802
0.170155
0.174064
0.176848
0.17878
0.18012
0.181087
0.181678
0.181645
0.181795
0.186222
-0.0216162
-0.0182915
7.63585e-05
0.0256414
0.0511693
0.0736026
0.0921633
0.107061
0.118836
0.128058
0.135225
0.14075
0.144968
0.148168
0.150631
0.152606
0.154069
0.154696
0.15548
0.161587
-0.0801122
-0.0752889
-0.0549877
-0.026882
0.00151517
0.026825
0.0480946
0.065466
0.079465
0.0906691
0.0995914
0.106657
0.11221
0.11654
0.119947
0.122727
0.124862
0.125828
0.126619
0.134006
-0.138078
-0.131808
-0.109733
-0.0792643
-0.0481423
-0.0200625
0.00383686
0.0236184
0.0397861
0.0529202
0.0635443
0.0720931
0.078913
0.084284
0.0884899
0.0918491
0.0943282
0.0948238
0.0930491
0.0981272
-0.195024
-0.187373
-0.163708
-0.13109
-0.0974221
-0.0667074
-0.0402794
-0.0181662
0.000105535
0.0151118
0.0273786
0.0373394
0.0453265
0.0515784
0.0562873
0.059638
0.0615321
0.0610012
0.0572071
0.053325
-0.250476
-0.241516
-0.216468
-0.181945
-0.145942
-0.112754
-0.0839184
-0.0595632
-0.0392541
-0.0224229
-0.00854053
0.00283094
0.0120286
0.0192917
0.0247956
0.0287033
0.0310611
0.0314481
0.0292369
0.0255123
-0.303963
-0.293779
-0.267575
-0.23142
-0.193324
-0.157852
-0.126748
-0.10025
-0.0779693
-0.0593457
-0.0438411
-0.0309998
-0.0204573
-0.0119351
-0.00521888
-0.000113946
0.00355626
0.00582795
0.00647241
0.00507449
-0.355039
-0.343724
-0.316606
-0.279119
-0.239203
-0.201663
-0.16845
-0.139924
-0.115748
-0.0953715
-0.0782478
-0.0638997
-0.0519337
-0.0420329
-0.0339439
-0.0274502
-0.0223291
-0.0183365
-0.0154218
-0.0144018
-0.403284
-0.390937
-0.363161
-0.324666
-0.283233
-0.243868
-0.208732
-0.178314
-0.15234
-0.130277
-0.111572
-0.0957318
-0.0823418
-0.0710581
-0.0616003
-0.0537337
-0.0472179
-0.0417439
-0.0371752
-0.0343779
-0.448318
-0.435044
-0.406869
-0.36771
-0.325089
-0.284175
-0.247329
-0.215183
-0.187533
-0.163876
-0.14366
-0.126382
-0.111611
-0.0989864
-0.0882093
-0.0790301
-0.0711942
-0.0643747
-0.0584573
-0.0544248
-0.489802
-0.475707
-0.447396
-0.407932
-0.364479
-0.322318
-0.284005
-0.250319
-0.221143
-0.19601
-0.174379
-0.155743
-0.139663
-0.125765
-0.113741
-0.103332
-0.0942745
-0.0862301
-0.079107
-0.0740352
-0.527447
-0.512639
-0.484452
-0.445046
-0.401138
-0.358061
-0.31855
-0.283539
-0.253008
-0.226541
-0.203615
-0.183726
-0.166432
-0.151353
-0.138174
-0.126634
-0.116467
-0.107323
-0.0991024
-0.0930212
-0.561022
-0.545607
-0.51779
-0.478809
-0.434837
-0.391198
-0.350784
-0.314686
-0.282995
-0.255357
-0.231275
-0.210259
-0.191865
-0.175715
-0.161488
-0.148924
-0.137759
-0.127638
-0.118437
-0.111386
-0.590354
-0.574436
-0.547218
-0.509019
-0.465384
-0.421554
-0.380553
-0.343629
-0.310994
-0.282364
-0.257285
-0.235281
-0.215917
-0.198815
-0.183658
-0.170183
-0.158131
-0.147152
-0.137095
-0.12916
-0.615335
-0.599014
-0.572602
-0.535523
-0.492622
-0.448987
-0.407734
-0.370263
-0.336915
-0.30749
-0.281583
-0.258742
-0.238546
-0.220623
-0.204657
-0.190387
-0.177562
-0.165839
-0.155046
-0.146329
-0.635925
-0.619295
-0.593866
-0.558218
-0.516441
-0.473389
-0.432231
-0.394508
-0.360691
-0.33068
-0.304124
-0.280606
-0.259722
-0.241111
-0.22446
-0.209513
-0.196027
-0.183672
-0.172251
-0.162846
-0.652148
-0.635301
-0.610997
-0.577055
-0.536769
-0.494686
-0.453978
-0.416306
-0.382278
-0.351896
-0.324878
-0.300847
-0.279423
-0.260258
-0.243049
-0.227542
-0.213504
-0.200619
-0.188671
-0.178664
-0.664099
-0.647121
-0.624049
-0.592041
-0.553582
-0.512841
-0.472936
-0.435625
-0.401649
-0.371118
-0.343829
-0.319453
-0.297639
-0.278055
-0.260411
-0.244458
-0.229974
-0.216659
-0.20428
-0.19375
-0.671933
-0.654909
-0.633136
-0.603238
-0.5669
-0.527851
-0.489096
-0.452458
-0.418799
-0.388346
-0.360979
-0.336426
-0.314369
-0.294501
-0.276543
-0.260257
-0.245429
-0.231779
-0.21906
-0.208089
-0.67587
-0.658882
-0.638438
-0.610767
-0.576792
-0.539752
-0.502478
-0.466818
-0.433743
-0.403595
-0.376344
-0.351779
-0.329628
-0.309607
-0.291455
-0.274944
-0.259871
-0.245978
-0.233008
-0.221677
-0.676181
-0.659311
-0.640193
-0.614805
-0.583374
-0.548617
-0.51313
-0.478744
-0.446516
-0.416897
-0.389952
-0.365543
-0.343441
-0.323395
-0.305164
-0.288534
-0.273313
-0.259264
-0.246128
-0.234519
-0.673188
-0.656519
-0.638691
-0.615582
-0.586812
-0.554557
-0.521129
-0.488294
-0.457167
-0.428298
-0.40185
-0.377757
-0.355845
-0.335898
-0.317701
-0.301052
-0.285776
-0.271655
-0.258434
-0.246625
-0.667249
-0.650867
-0.634271
-0.613379
-0.587313
-0.557721
-0.526583
-0.495551
-0.465765
-0.43786
-0.412092
-0.388474
-0.366888
-0.347161
-0.329103
-0.312534
-0.29729
-0.283176
-0.269947
-0.258015
-0.658753
-0.642745
-0.627306
-0.60852
-0.585132
-0.558292
-0.529623
-0.500614
-0.472392
-0.445656
-0.420747
-0.397755
-0.376627
-0.357234
-0.339419
-0.323021
-0.307893
-0.293862
-0.280697
-0.268717
-0.648103
-0.632558
-0.618194
-0.601362
-0.58056
-0.556492
-0.530412
-0.503606
-0.477147
-0.45177
-0.427888
-0.405671
-0.385128
-0.366179
-0.348703
-0.332563
-0.31763
-0.303754
-0.29072
-0.278765
-0.635715
-0.620721
-0.607345
-0.592287
-0.57392
-0.552573
-0.529138
-0.504666
-0.480137
-0.456292
-0.433599
-0.412297
-0.392459
-0.37406
-0.357015
-0.341216
-0.326553
-0.312899
-0.300061
-0.288199
-0.621994
-0.607638
-0.595171
-0.581692
-0.56556
-0.546815
-0.526012
-0.503953
-0.481485
-0.459321
-0.437964
-0.41771
-0.398695
-0.380945
-0.364419
-0.349038
-0.334716
-0.321347
-0.308764
-0.297061
-0.607329
-0.593694
-0.582066
-0.569969
-0.555842
-0.539521
-0.521271
-0.501642
-0.481322
-0.460963
-0.441072
-0.421991
-0.403908
-0.386904
-0.370979
-0.356091
-0.342175
-0.32915
-0.316877
-0.305396
-0.592087
-0.579248
-0.568403
-0.557498
-0.545128
-0.531006
-0.515168
-0.497925
-0.479791
-0.461324
-0.443011
-0.425214
-0.408169
-0.392002
-0.376759
-0.362432
-0.348985
-0.33636
-0.324447
-0.313246
-0.5766
-0.56462
-0.554515
-0.544635
-0.533771
-0.521593
-0.507971
-0.493011
-0.477046
-0.460519
-0.443867
-0.427453
-0.411542
-0.396299
-0.381815
-0.368117
-0.355197
-0.343024
-0.331517
-0.320649
-0.56116
-0.550091
-0.540695
-0.531695
-0.522101
-0.511597
-0.499954
-0.487116
-0.47325
-0.458666
-0.443729
-0.428776
-0.414084
-0.39985
-0.386198
-0.373193
-0.360857
-0.349184
-0.338124
-0.327637
-0.546015
-0.535893
-0.527189
-0.518952
-0.510414
-0.501317
-0.491391
-0.48047
-0.468575
-0.455889
-0.442681
-0.429245
-0.415846
-0.402696
-0.389948
-0.377698
-0.366
-0.354873
-0.344297
-0.334233
-0.531369
-0.522214
-0.514192
-0.506627
-0.498964
-0.491023
-0.482544
-0.473299
-0.463202
-0.452317
-0.440813
-0.428918
-0.416865
-0.404867
-0.393091
-0.381659
-0.370651
-0.360113
-0.350056
-0.340446
-0.517379
-0.509196
-0.50185
-0.494892
-0.487955
-0.480947
-0.473651
-0.465824
-0.457315
-0.448087
-0.438216
-0.42785
-0.417176
-0.406383
-0.395641
-0.385087
-0.374822
-0.364917
-0.355409
-0.346277
-0.504158
-0.496938
-0.490264
-0.483867
-0.477539
-0.471275
-0.464919
-0.458253
-0.451094
-0.443342
-0.434988
-0.426101
-0.416806
-0.407255
-0.397601
-0.387982
-0.378513
-0.369283
-0.360353
-0.351715
-0.49178
-0.485502
-0.479491
-0.473623
-0.467818
-0.462144
-0.456516
-0.450764
-0.444712
-0.438225
-0.431233
-0.423733
-0.415784
-0.407487
-0.39896
-0.39033
-0.381711
-0.373202
-0.364882
-0.356746
-0.480285
-0.474918
-0.469559
-0.464194
-0.458845
-0.45364
-0.448563
-0.443505
-0.438322
-0.432876
-0.427061
-0.42082
-0.414148
-0.407086
-0.399709
-0.392112
-0.384396
-0.376657
-0.368988
-0.361365
-0.469691
-0.465194
-0.460465
-0.455578
-0.450634
-0.445804
-0.441136
-0.436584
-0.432054
-0.427427
-0.422589
-0.417448
-0.411947
-0.40607
-0.399839
-0.393306
-0.386542
-0.379628
-0.372661
-0.365578
-0.46
-0.456324
-0.452194
-0.447754
-0.44317
-0.438642
-0.434271
-0.430073
-0.426008
-0.421995
-0.417932
-0.413713
-0.409248
-0.404472
-0.399354
-0.393895
-0.388127
-0.382098
-0.375906
-0.369437
-0.451214
-0.4483
-0.444724
-0.440693
-0.436423
-0.432137
-0.427976
-0.424011
-0.420257
-0.416679
-0.413201
-0.409724
-0.406141
-0.402352
-0.39828
-0.393876
-0.389127
-0.384042
-0.378708
-0.372979
-0.443341
-0.441117
-0.438039
-0.43437
-0.430367
-0.426268
-0.422247
-0.418423
-0.414859
-0.411567
-0.408507
-0.405599
-0.402735
-0.399797
-0.396672
-0.393269
-0.38953
-0.38543
-0.381045
-0.376329
-0.436399
-0.43478
-0.432134
-0.428773
-0.424987
-0.421025
-0.417088
-0.413333
-0.409867
-0.406743
-0.403961
-0.401467
-0.399165
-0.396929
-0.394624
-0.392123
-0.38933
-0.386191
-0.382776
-0.37935
-0.430416
-0.429301
-0.427014
-0.423905
-0.420289
-0.416421
-0.412523
-0.408783
-0.405346
-0.402302
-0.399686
-0.397475
-0.39559
-0.393909
-0.392279
-0.390542
-0.388558
-0.386237
-0.383651
-0.381945
-0.425422
-0.424695
-0.422692
-0.419782
-0.416295
-0.412487
-0.408597
-0.404838
-0.401383
-0.398356
-0.395823
-0.393789
-0.392199
-0.390936
-0.389839
-0.38871
-0.387346
-0.385544
-0.383208
-0.382797
-0.421434
-0.42097
-0.419177
-0.416422
-0.413033
-0.409267
-0.405372
-0.401579
-0.398084
-0.395036
-0.392529
-0.390596
-0.389203
-0.388248
-0.387561
-0.3869
-0.38595
-0.384244
-0.380813
-0.375961
-0.418448
-0.418116
-0.416463
-0.413828
-0.410522
-0.406796
-0.402902
-0.399084
-0.395551
-0.392474
-0.389968
-0.388091
-0.386835
-0.386124
-0.385808
-0.385657
-0.38537
-0.384534
-0.382356
-0.379276
-0.416423
-0.416097
-0.414522
-0.411981
-0.408754
-0.405082
-0.401216
-0.397402
-0.393862
-0.390776
-0.388278
-0.386446
-0.385299
-0.384796
-0.384828
-0.385223
-0.38575
-0.386086
-0.385587
-0.385077
-0.415285
-0.414851
-0.413297
-0.410832
-0.40769
-0.404098
-0.400299
-0.39654
-0.393043
-0.389997
-0.387543
-0.385776
-0.384738
-0.384419
-0.384754
-0.38563
-0.386892
-0.388285
-0.389321
-0.391146
-0.414922
-0.414286
-0.412709
-0.410307
-0.407261
-0.403779
-0.400096
-0.396452
-0.393066
-0.390126
-0.387779
-0.386127
-0.385227
-0.385095
-0.385703
-0.38699
-0.38887
-0.391172
-0.393612
-0.397432
-0.415201
-0.414295
-0.412658
-0.410311
-0.407373
-0.404034
-0.400517
-0.397051
-0.39385
-0.391095
-0.388931
-0.387464
-0.386759
-0.386848
-0.387732
-0.389392
-0.391794
-0.394848
-0.398463
-0.403767
-0.415972
-0.414756
-0.413039
-0.410742
-0.407924
-0.404758
-0.401454
-0.398227
-0.39528
-0.392787
-0.390887
-0.389681
-0.389239
-0.3896
-0.390785
-0.392799
-0.395641
-0.39928
-0.403754
-0.409962
-0.417084
-0.41555
-0.413745
-0.411498
-0.408812
-0.405845
-0.402793
-0.399856
-0.397224
-0.39506
-0.393491
-0.392614
-0.392496
-0.393179
-0.394688
-0.397042
-0.400254
-0.40432
-0.409335
-0.415941
-0.418392
-0.416559
-0.414672
-0.412481
-0.40994
-0.407194
-0.404424
-0.401816
-0.399544
-0.397755
-0.396568
-0.396067
-0.396313
-0.397345
-0.399188
-0.40186
-0.405373
-0.409728
-0.415025
-0.421672
-0.419765
-0.417674
-0.415725
-0.413601
-0.411218
-0.408709
-0.406242
-0.403987
-0.4021
-0.400714
-0.399931
-0.399825
-0.400447
-0.40183
-0.403992
-0.406945
-0.41069
-0.415224
-0.420621
-0.427103
-0.421082
-0.418797
-0.416818
-0.414778
-0.412564
-0.410303
-0.408149
-0.406254
-0.404759
-0.403778
-0.403397
-0.403678
-0.404661
-0.406369
-0.408813
-0.411994
-0.415904
-0.420526
-0.425907
-0.432132
-0.422238