/*--------------------------------*- C++ -*----------------------------------*\
  =========                 |
  \\      /  F ield         | OpenFOAM: The Open Source CFD Toolbox
   \\    /   O peration     | Website:  https://openfoam.org
    \\  /    A nd           | Version:  6.0
     \\/     M anipulation  |
\*---------------------------------------------------------------------------*/
FoamFile
{
    version     2.0;
    format      ascii;
    class       volScalarField;
    location    "32";
    object      p;
}
// * * * * * * * * * * * * * * * * * * * * * * * * * * * * * * * * * * * * * //

dimensions      [0 2 -2 0 0 0 0];

internalField   nonuniform List<scalar> 
4000
(
-0.251589
-0.252526
-0.253143
-0.25359
-0.253963
-0.254276
-0.254541
-0.254771
-0.254975
-0.255159
-0.255328
-0.255487
-0.25564
-0.25579
-0.255942
-0.256107
-0.256284
-0.256421
-0.256492
-0.257055
-0.251692
-0.252628
-0.253243
-0.253687
-0.254056
-0.254363
-0.254623
-0.254847
-0.255045
-0.255222
-0.255384
-0.255535
-0.255681
-0.255823
-0.255968
-0.256125
-0.256296
-0.256426
-0.256489
-0.257048
-0.251901
-0.252835
-0.253444
-0.25388
-0.25424
-0.254537
-0.254785
-0.254996
-0.25518
-0.255344
-0.255491
-0.255627
-0.255757
-0.255884
-0.256013
-0.256155
-0.256312
-0.256429
-0.256476
-0.257026
-0.252218
-0.253146
-0.253746
-0.254171
-0.254516
-0.254796
-0.255026
-0.255218
-0.255381
-0.255522
-0.255647
-0.25576
-0.255865
-0.255967
-0.256072
-0.25619
-0.256325
-0.256421
-0.256446
-0.256983
-0.252642
-0.253563
-0.254151
-0.25456
-0.254885
-0.255142
-0.255347
-0.255512
-0.255646
-0.255757
-0.255849
-0.255929
-0.256
-0.256068
-0.256139
-0.256223
-0.256326
-0.256393
-0.256386
-0.256904
-0.253177
-0.254088
-0.254661
-0.255048
-0.255347
-0.255575
-0.255747
-0.255877
-0.255974
-0.256045
-0.256096
-0.256132
-0.256159
-0.25618
-0.256205
-0.256244
-0.256304
-0.256331
-0.256282
-0.256776
-0.253825
-0.254723
-0.255276
-0.255638
-0.255904
-0.256096
-0.256227
-0.256314
-0.256364
-0.256386
-0.256385
-0.256366
-0.256335
-0.256298
-0.256262
-0.256242
-0.256247
-0.25622
-0.256116
-0.25658
-0.25459
-0.255472
-0.256001
-0.25633
-0.256558
-0.256705
-0.256789
-0.256823
-0.256819
-0.256781
-0.256717
-0.256631
-0.256529
-0.256418
-0.256306
-0.25621
-0.256141
-0.256045
-0.255872
-0.256297
-0.255478
-0.256339
-0.256838
-0.257128
-0.25731
-0.257406
-0.257434
-0.257409
-0.257339
-0.257233
-0.257095
-0.256929
-0.256741
-0.256539
-0.256333
-0.256141
-0.255979
-0.255792
-0.255528
-0.255905
-0.256495
-0.257329
-0.257791
-0.258036
-0.258165
-0.258202
-0.258166
-0.258073
-0.257931
-0.257747
-0.257523
-0.257265
-0.256978
-0.256667
-0.256346
-0.256034
-0.255753
-0.255448
-0.255068
-0.25538
-0.257648
-0.258448
-0.258866
-0.259056
-0.259124
-0.259095
-0.258988
-0.25882
-0.258599
-0.258329
-0.258012
-0.257651
-0.257249
-0.256813
-0.256354
-0.255897
-0.255465
-0.255007
-0.254472
-0.254697
-0.258948
-0.259702
-0.260066
-0.260194
-0.260192
-0.260088
-0.259904
-0.259655
-0.259348
-0.258987
-0.25857
-0.258098
-0.257571
-0.256994
-0.256375
-0.255742
-0.255122
-0.254465
-0.253724
-0.253828
-0.260403
-0.261099
-0.261398
-0.261452
-0.26137
-0.261184
-0.260915
-0.26058
-0.260184
-0.259728
-0.259208
-0.25862
-0.25796
-0.257228
-0.256431
-0.255592
-0.254742
-0.253831
-0.252812
-0.252737
-0.262024
-0.262647
-0.262867
-0.262835
-0.262662
-0.262383
-0.262022
-0.261594
-0.261106
-0.260553
-0.25993
-0.259225
-0.25843
-0.257537
-0.256544
-0.255473
-0.254351
-0.25312
-0.251727
-0.251388
-0.26382
-0.264353
-0.264479
-0.264347
-0.264068
-0.263684
-0.263221
-0.262694
-0.262108
-0.261458
-0.260732
-0.259913
-0.258985
-0.25793
-0.256735
-0.25541
-0.253976
-0.252355
-0.25047
-0.249734
-0.265804
-0.266228
-0.266241
-0.265991
-0.26559
-0.265085
-0.264506
-0.263871
-0.263181
-0.26243
-0.261601
-0.260672
-0.259617
-0.258405
-0.257011
-0.255424
-0.253649
-0.251577
-0.249066
-0.247749
-0.267989
-0.268283
-0.268163
-0.267773
-0.267229
-0.266584
-0.265873
-0.265113
-0.264308
-0.263449
-0.262515
-0.261479
-0.260304
-0.25895
-0.25737
-0.255533
-0.253419
-0.250872
-0.247631
-0.245489
-0.270393
-0.270534
-0.270256
-0.269702
-0.26899
-0.268182
-0.267315
-0.266412
-0.265476
-0.264497
-0.263452
-0.262309
-0.261025
-0.259546
-0.257809
-0.255751
-0.25332
-0.250304
-0.246227
-0.242867
-0.273036
-0.272999
-0.272536
-0.271791
-0.270883
-0.269883
-0.268836
-0.267767
-0.26668
-0.265566
-0.264404
-0.26316
-0.261789
-0.260232
-0.258407
-0.256214
-0.253534
-0.250015
-0.244774
-0.239407
-0.275947
-0.275704
-0.275028
-0.274059
-0.272925
-0.271704
-0.270449
-0.269188
-0.26793
-0.26667
-0.265393
-0.264073
-0.262681
-0.26118
-0.259519
-0.257635
-0.255416
-0.252401
-0.247351
-0.241408
-0.279163
-0.278682
-0.277758
-0.276535
-0.275142
-0.27367
-0.27218
-0.270704
-0.269258
-0.267844
-0.266456
-0.265092
-0.263757
-0.262476
-0.261319
-0.260434
-0.260102
-0.260773
-0.264071
-0.277024
-0.282729
-0.281971
-0.280765
-0.279254
-0.277571
-0.27582
-0.27407
-0.272361
-0.270713
-0.269137
-0.267641
-0.266243
-0.264979
-0.263923
-0.263209
-0.263072
-0.263899
-0.266259
-0.271387
-0.284026
-0.286695
-0.285617
-0.284092
-0.282259
-0.280257
-0.278204
-0.276175
-0.274218
-0.27236
-0.27062
-0.269018
-0.267589
-0.266391
-0.265523
-0.265144
-0.265493
-0.266914
-0.269848
-0.274914
-0.284754
-0.29112
-0.28967
-0.287786
-0.285601
-0.283254
-0.280878
-0.278558
-0.276345
-0.274272
-0.272365
-0.270653
-0.26918
-0.268013
-0.267255
-0.267052
-0.267601
-0.269146
-0.271952
-0.276286
-0.283347
-0.296063
-0.294184
-0.2919
-0.289333
-0.28662
-0.283906
-0.281284
-0.278808
-0.276514
-0.274431
-0.27259
-0.271036
-0.26983
-0.269062
-0.268843
-0.269306
-0.270591
-0.272811
-0.276058
-0.280583
-0.301583
-0.299213
-0.296487
-0.293511
-0.290413
-0.287349
-0.284415
-0.281668
-0.279141
-0.276859
-0.274849
-0.273148
-0.271804
-0.27088
-0.270447
-0.270579
-0.271332
-0.272727
-0.274781
-0.277248
-0.307735
-0.304805
-0.301598
-0.29819
-0.29469
-0.291264
-0.288009
-0.284973
-0.282185
-0.279661
-0.277418
-0.275477
-0.273869
-0.27263
-0.271798
-0.271402
-0.271449
-0.271914
-0.272789
-0.273644
-0.314565
-0.311007
-0.30728
-0.303418
-0.299502
-0.295701
-0.292105
-0.288752
-0.285657
-0.282823
-0.280252
-0.277953
-0.275938
-0.274225
-0.272828
-0.271754
-0.270991
-0.270504
-0.270277
-0.269894
-0.322106
-0.317853
-0.313572
-0.309237
-0.304891
-0.300695
-0.296728
-0.293009
-0.289535
-0.286294
-0.283276
-0.280478
-0.277905
-0.275565
-0.273465
-0.271606
-0.269977
-0.268554
-0.267318
-0.265949
-0.330379
-0.325367
-0.320503
-0.31568
-0.310884
-0.306263
-0.301876
-0.297717
-0.293763
-0.289991
-0.286382
-0.282935
-0.279653
-0.276549
-0.273636
-0.270921
-0.268403
-0.266074
-0.263916
-0.261717
-0.339381
-0.333555
-0.328084
-0.322759
-0.317488
-0.312398
-0.307517
-0.302814
-0.29825
-0.293796
-0.289441
-0.285189
-0.281061
-0.277081
-0.273276
-0.269664
-0.266257
-0.263058
-0.26005
-0.257106
-0.349088
-0.342405
-0.336311
-0.330467
-0.324685
-0.319057
-0.31358
-0.308198
-0.302868
-0.297567
-0.292302
-0.287104
-0.282013
-0.277075
-0.27233
-0.267807
-0.263527
-0.259499
-0.255698
-0.25206
-0.35945
-0.351879
-0.345152
-0.338767
-0.332422
-0.326162
-0.319954
-0.313731
-0.307457
-0.301137
-0.294812
-0.288546
-0.282407
-0.276459
-0.270755
-0.265331
-0.260206
-0.255391
-0.250849
-0.246554
-0.370383
-0.36191
-0.354544
-0.34759
-0.340605
-0.333589
-0.326486
-0.319236
-0.311834
-0.304332
-0.296817
-0.289392
-0.282151
-0.275175
-0.26852
-0.262221
-0.256292
-0.250735
-0.245499
-0.240585
-0.381767
-0.372395
-0.364389
-0.356821
-0.349095
-0.341168
-0.332983
-0.32451
-0.315802
-0.306975
-0.298172
-0.28953
-0.281169
-0.273173
-0.265596
-0.258464
-0.251779
-0.245531
-0.23965
-0.234161
-0.393445
-0.383196
-0.374547
-0.366304
-0.357709
-0.34869
-0.339218
-0.329328
-0.319157
-0.308895
-0.298741
-0.288864
-0.279394
-0.270411
-0.261958
-0.254044
-0.246658
-0.239773
-0.233298
-0.227284
-0.40522
-0.394132
-0.384834
-0.375835
-0.366215
-0.355904
-0.34494
-0.333459
-0.321699
-0.309932
-0.298404
-0.287307
-0.276765
-0.266847
-0.257576
-0.248941
-0.240913
-0.233449
-0.226435
-0.219953
-0.416853
-0.404982
-0.395023
-0.385164
-0.374344
-0.362534
-0.349886
-0.336669
-0.323236
-0.309937
-0.297052
-0.284777
-0.273224
-0.262438
-0.252416
-0.243126
-0.234521
-0.226538
-0.219042
-0.212155
-0.428068
-0.415484
-0.404842
-0.394
-0.381791
-0.368284
-0.353789
-0.338735
-0.323593
-0.308775
-0.294584
-0.281201
-0.268714
-0.257137
-0.24644
-0.236567
-0.227452
-0.219014
-0.211096
-0.203869
-0.438554
-0.425338
-0.413983
-0.40202
-0.388235
-0.372852
-0.356388
-0.339446
-0.322606
-0.306326
-0.290908
-0.276508
-0.263177
-0.250896
-0.239605
-0.229223
-0.21967
-0.210844
-0.202567
-0.19507
-0.438427
-0.425212
-0.413858
-0.401899
-0.388121
-0.372747
-0.356293
-0.339361
-0.322531
-0.306261
-0.290852
-0.27646
-0.263138
-0.250865
-0.239581
-0.229207
-0.219662
-0.210842
-0.202572
-0.195082
-0.427933
-0.415349
-0.404709
-0.393871
-0.381669
-0.36817
-0.353684
-0.33864
-0.323508
-0.308701
-0.294519
-0.281146
-0.268667
-0.257099
-0.24641
-0.236545
-0.227438
-0.219008
-0.211097
-0.203878
-0.416711
-0.404841
-0.394883
-0.385027
-0.374213
-0.362411
-0.349772
-0.336565
-0.323142
-0.309853
-0.296978
-0.284713
-0.273169
-0.262392
-0.25238
-0.243098
-0.234502
-0.226527
-0.219039
-0.21216
-0.405072
-0.393985
-0.384688
-0.375692
-0.366077
-0.355773
-0.344817
-0.333345
-0.321595
-0.309838
-0.298321
-0.287234
-0.276702
-0.266794
-0.257532
-0.248906
-0.240888
-0.233433
-0.226428
-0.219954
-0.393292
-0.383044
-0.374396
-0.366156
-0.357565
-0.348552
-0.339087
-0.329206
-0.319044
-0.308793
-0.298649
-0.288783
-0.279322
-0.27035
-0.261907
-0.254002
-0.246626
-0.239751
-0.233286
-0.227281
-0.381609
-0.372239
-0.364234
-0.356668
-0.348946
-0.341024
-0.332845
-0.32438
-0.315681
-0.306864
-0.29807
-0.289439
-0.281088
-0.273103
-0.265537
-0.258414
-0.25174
-0.245502
-0.239632
-0.234153
-0.370221
-0.36175
-0.354385
-0.347433
-0.340451
-0.333439
-0.326342
-0.319099
-0.311705
-0.304212
-0.296707
-0.289291
-0.282061
-0.275095
-0.268452
-0.262163
-0.256246
-0.2507
-0.245475
-0.240572
-0.359285
-0.351717
-0.344991
-0.338608
-0.332265
-0.326008
-0.319805
-0.313587
-0.30732
-0.301008
-0.294693
-0.288436
-0.282307
-0.27637
-0.270677
-0.265264
-0.260151
-0.255347
-0.250817
-0.246534
-0.348921
-0.342241
-0.336148
-0.330305
-0.324525
-0.3189
-0.313426
-0.308049
-0.302724
-0.29743
-0.292173
-0.286984
-0.281903
-0.276976
-0.272241
-0.267731
-0.263462
-0.259446
-0.255658
-0.252033
-0.339212
-0.333389
-0.327919
-0.322595
-0.317326
-0.312237
-0.307359
-0.302659
-0.2981
-0.293652
-0.289303
-0.285059
-0.28094
-0.276971
-0.273176
-0.269576
-0.266181
-0.262996
-0.260001
-0.257071
-0.330209
-0.325199
-0.320336
-0.315515
-0.31072
-0.306101
-0.301715
-0.297558
-0.293608
-0.289839
-0.286236
-0.282795
-0.279522
-0.276427
-0.273525
-0.270821
-0.268316
-0.266001
-0.263857
-0.261672
-0.321935
-0.317684
-0.313405
-0.309071
-0.304725
-0.30053
-0.296564
-0.292846
-0.289374
-0.286136
-0.283122
-0.280329
-0.277763
-0.275431
-0.273341
-0.271494
-0.269877
-0.268468
-0.267247
-0.265893
-0.314392
-0.310837
-0.307113
-0.303251
-0.299336
-0.295534
-0.291938
-0.288586
-0.285491
-0.282658
-0.28009
-0.277794
-0.275785
-0.274079
-0.272692
-0.271629
-0.270878
-0.270405
-0.270193
-0.269827
-0.307562
-0.304635
-0.30143
-0.298022
-0.294523
-0.291096
-0.28784
-0.284803
-0.282015
-0.279491
-0.277248
-0.27531
-0.273706
-0.272473
-0.271649
-0.271262
-0.271321
-0.271801
-0.272691
-0.273564
-0.301409
-0.299042
-0.296318
-0.293343
-0.290245
-0.287179
-0.284244
-0.281495
-0.278965
-0.276682
-0.274672
-0.272972
-0.27163
-0.270711
-0.270284
-0.270425
-0.27119
-0.272598
-0.274668
-0.277154
-0.295889
-0.294014
-0.291731
-0.289165
-0.286451
-0.283735
-0.28111
-0.278631
-0.276334
-0.274249
-0.272406
-0.270851
-0.269647
-0.268881
-0.268667
-0.269138
-0.270433
-0.272666
-0.275929
-0.280474
-0.290947
-0.289501
-0.287618
-0.285432
-0.283084
-0.280706
-0.278382
-0.276164
-0.274087
-0.272177
-0.270462
-0.268987
-0.267819
-0.267063
-0.266864
-0.267419
-0.268972
-0.27179
-0.27614
-0.283223
-0.286524
-0.285449
-0.283925
-0.282091
-0.280087
-0.27803
-0.275997
-0.274035
-0.272171
-0.270426
-0.26882
-0.267388
-0.266189
-0.265321
-0.264944
-0.265297
-0.266725
-0.269669
-0.27475
-0.284612
-0.28256
-0.281806
-0.280601
-0.279088
-0.277401
-0.275646
-0.273891
-0.272175
-0.270521
-0.268938
-0.267438
-0.266035
-0.264769
-0.263711
-0.262998
-0.262863
-0.263695
-0.266064
-0.271206
-0.283868
-0.279
-0.278521
-0.277598
-0.276372
-0.274975
-0.273497
-0.272
-0.270517
-0.269064
-0.267642
-0.266248
-0.264879
-0.26354
-0.262257
-0.261098
-0.260214
-0.259884
-0.26056
-0.263869
-0.276842
-0.275791
-0.27555
-0.274873
-0.273901
-0.272761
-0.271534
-0.270271
-0.269001
-0.267735
-0.266467
-0.265182
-0.263856
-0.262459
-0.260953
-0.25929
-0.257405
-0.255183
-0.252167
-0.247119
-0.241171
-0.272888
-0.272853
-0.272389
-0.271639
-0.270725
-0.269717
-0.268662
-0.267582
-0.266486
-0.265363
-0.264192
-0.262941
-0.261564
-0.260002
-0.258172
-0.255976
-0.253293
-0.24977
-0.244529
-0.239154
-0.270256
-0.270397
-0.270117
-0.269558
-0.268839
-0.268022
-0.267146
-0.266233
-0.265286
-0.264297
-0.263242
-0.26209
-0.260799
-0.259315
-0.257572
-0.25551
-0.253074
-0.250055
-0.24598
-0.242612
-0.267866
-0.268159
-0.268034
-0.267638
-0.267087
-0.266433
-0.265711
-0.264941
-0.264125
-0.263254
-0.26231
-0.261264
-0.260082
-0.25872
-0.257135
-0.255293
-0.253174
-0.250624
-0.247388
-0.245238
-0.265696
-0.266117
-0.266124
-0.265868
-0.265459
-0.264944
-0.264355
-0.263708
-0.263006
-0.262244
-0.261404
-0.260465
-0.259401
-0.258182
-0.256781
-0.255189
-0.25341
-0.251336
-0.248832
-0.247508
-0.263728
-0.264256
-0.264375
-0.264236
-0.263949
-0.263555
-0.263081
-0.262543
-0.261945
-0.261283
-0.260546
-0.259718
-0.25878
-0.257717
-0.256516
-0.255186
-0.253747
-0.252126
-0.250249
-0.249507
-0.261949
-0.262564
-0.262777
-0.262738
-0.262556
-0.262267
-0.261895
-0.261456
-0.260956
-0.260392
-0.259758
-0.259043
-0.258239
-0.257338
-0.256339
-0.255262
-0.254137
-0.252906
-0.251521
-0.251176
-0.260345
-0.261031
-0.261322
-0.261369
-0.261278
-0.261081
-0.260802
-0.260456
-0.260049
-0.259582
-0.259052
-0.258454
-0.257786
-0.257046
-0.256242
-0.255399
-0.254546
-0.253635
-0.252623
-0.252544
-0.258906
-0.259649
-0.260004
-0.260124
-0.260113
-0.26
-0.259806
-0.259546
-0.259229
-0.258858
-0.258431
-0.25795
-0.257415
-0.25683
-0.256206
-0.255569
-0.254946
-0.25429
-0.253555
-0.253653
-0.257621
-0.258408
-0.258816
-0.258999
-0.259058
-0.25902
-0.258904
-0.258726
-0.258495
-0.258216
-0.25789
-0.257521
-0.257112
-0.256669
-0.256205
-0.255744
-0.255309
-0.254852
-0.254323
-0.254544
-0.256481
-0.257301
-0.257754
-0.25799
-0.258111
-0.25814
-0.258096
-0.257994
-0.257843
-0.25765
-0.257419
-0.257153
-0.256859
-0.256543
-0.256217
-0.255902
-0.255619
-0.255315
-0.25494
-0.255248
-0.255475
-0.256322
-0.256811
-0.257094
-0.257268
-0.257357
-0.257377
-0.257343
-0.257266
-0.257152
-0.257007
-0.256834
-0.256641
-0.256434
-0.256224
-0.256029
-0.255865
-0.25568
-0.255421
-0.255794
-0.254596
-0.255463
-0.255983
-0.256305
-0.256526
-0.256666
-0.256743
-0.25677
-0.256759
-0.256715
-0.256645
-0.256553
-0.256446
-0.25633
-0.256215
-0.256117
-0.256048
-0.255953
-0.255784
-0.256206
-0.253836
-0.254721
-0.255266
-0.25562
-0.255881
-0.256066
-0.256191
-0.256272
-0.256316
-0.256333
-0.256327
-0.256303
-0.256268
-0.256227
-0.256189
-0.256167
-0.256171
-0.256146
-0.256046
-0.256508
-0.253192
-0.25409
-0.254655
-0.255037
-0.255331
-0.255553
-0.25572
-0.255844
-0.255936
-0.256003
-0.25605
-0.256082
-0.256105
-0.256124
-0.256147
-0.256185
-0.256245
-0.256273
-0.256228
-0.25672
-0.252658
-0.253568
-0.25415
-0.254553
-0.254874
-0.255126
-0.255327
-0.255487
-0.255618
-0.255725
-0.255814
-0.255891
-0.25596
-0.256025
-0.256094
-0.256178
-0.256281
-0.256349
-0.256346
-0.256863
-0.252232
-0.253152
-0.253747
-0.254168
-0.254509
-0.254785
-0.255012
-0.255201
-0.255361
-0.255499
-0.255621
-0.255731
-0.255835
-0.255936
-0.25604
-0.256157
-0.256292
-0.25639
-0.256417
-0.256953
-0.251913
-0.25284
-0.253445
-0.253879
-0.254235
-0.25453
-0.254775
-0.254985
-0.255167
-0.255328
-0.255473
-0.255608
-0.255736
-0.255862
-0.255991
-0.256133
-0.256289
-0.256408
-0.256457
-0.257007
-0.251699
-0.252632
-0.253244
-0.253686
-0.254053
-0.254359
-0.254618
-0.254841
-0.255037
-0.255213
-0.255374
-0.255524
-0.255669
-0.255811
-0.255955
-0.256112
-0.256283
-0.256414
-0.256478
-0.257037
-0.251591
-0.252527
-0.253143
-0.25359
-0.253962
-0.254275
-0.254539
-0.254769
-0.254973
-0.255156
-0.255325
-0.255484
-0.255636
-0.255786
-0.255938
-0.256102
-0.25628
-0.256417
-0.256488
-0.257051
-0.276767
-0.261106
-0.315818
-0.299377
-0.230025
-0.164219
-0.101719
-0.0581164
-0.028675
-0.00618106
0.00331617
0.0108022
0.012412
0.013588
0.0126122
0.0116603
0.00958096
0.00787858
0.00474399
0.00278632
-0.276885
-0.260976
-0.31549
-0.299352
-0.230495
-0.164988
-0.102423
-0.0584933
-0.0287532
-0.00602504
0.00352534
0.01098
0.0125106
0.0135911
0.0125628
0.0115637
0.00949052
0.00780081
0.00469078
0.00277569
-0.2771
-0.260902
-0.315361
-0.299658
-0.231226
-0.165932
-0.103261
-0.0589595
-0.0289126
-0.00592889
0.00368749
0.0111222
0.0125829
0.0135752
0.0124991
0.0114575
0.0093928
0.00771765
0.00463416
0.00276113
-0.277395
-0.260873
-0.315401
-0.300266
-0.232199
-0.167035
-0.104221
-0.0595105
-0.0291512
-0.00589585
0.00379924
0.0112255
0.0126266
0.0135393
0.0124212
0.0113425
0.00928863
0.00762982
0.00457483
0.00274276
-0.277749
-0.260871
-0.315571
-0.301134
-0.233388
-0.168281
-0.105294
-0.0601425
-0.0294672
-0.00592922
0.00385751
0.0112864
0.0126398
0.0134824
0.0123288
0.011219
0.00917877
0.00753799
0.00451346
0.00272072
-0.278136
-0.260878
-0.315816
-0.302207
-0.234763
-0.169655
-0.106471
-0.060852
-0.0298585
-0.00603209
0.00385967
0.0113017
0.0126204
0.0134036
0.012222
0.0110878
0.00906392
0.00744273
0.00445065
0.00269511
-0.278528
-0.26087
-0.316079
-0.303428
-0.236292
-0.17114
-0.107743
-0.0616366
-0.0303232
-0.00620721
0.00380366
0.0112687
0.012567
0.0133022
0.0121009
0.010949
0.00894462
0.00734448
0.0043869
0.00266603
-0.278898
-0.260827
-0.3163
-0.304735
-0.237944
-0.172723
-0.109104
-0.0624939
-0.0308596
-0.00645671
0.00368808
0.0111851
0.0124786
0.0131777
0.0119653
0.010803
0.00882135
0.00724358
0.00432262
0.00263355
-0.27922
-0.260728
-0.316422
-0.306073
-0.239687
-0.174391
-0.110547
-0.0634219
-0.0314655
-0.00678199
0.00351222
0.0110495
0.0123546
0.0130295
0.0118156
0.0106502
0.00869446
0.00714027
0.00425809
0.00259771
-0.279472
-0.260557
-0.316396
-0.30739
-0.241494
-0.17613
-0.112068
-0.0644184
-0.0321387
-0.00718357
0.00327609
0.0108612
0.0121947
0.0128576
0.011652
0.0104906
0.00856421
0.00703471
0.00419355
0.00255857
-0.279635
-0.260303
-0.316178
-0.308645
-0.243344
-0.177933
-0.113662
-0.0654811
-0.0328767
-0.00766097
0.00298041
0.0106201
0.0119994
0.012662
0.0114747
0.0103245
0.0084308
0.00692697
0.0041291
0.00251615
-0.2797
-0.259958
-0.315737
-0.309803
-0.24522
-0.179789
-0.115325
-0.0666076
-0.0336763
-0.00821278
0.00262655
0.0103269
0.0117692
0.0124433
0.0112841
0.010152
0.00829435
0.00681709
0.00406479
0.0024705
-0.27966
-0.25952
-0.315049
-0.31084
-0.24711
-0.181694
-0.117054
-0.0677959
-0.034535
-0.00883695
0.0022163
0.00998276
0.0115053
0.0122019
0.0110808
0.00997336
0.00815496
0.00670507
0.00400062
0.00242167
-0.279512
-0.258991
-0.314093
-0.311734
-0.24901
-0.183646
-0.11885
-0.0690446
-0.0354495
-0.00953072
0.00175195
0.00958952
0.0112088
0.0119386
0.0108653
0.00978874
0.00801267
0.0065909
0.00393653
0.00236971
-0.27925
-0.258373
-0.312853
-0.312458
-0.25091
-0.185637
-0.120702
-0.0703459
-0.0364117
-0.0102882
0.00123734
0.00914965
0.0108814
0.0116542
0.010638
0.00959823
0.00786748
0.00647448
0.00387243
0.00231468
-0.278852
-0.257663
-0.311314
-0.312973
-0.252776
-0.187631
-0.122578
-0.0716769
-0.0374037
-0.0110979
0.000679111
0.00866722
0.0105251
0.0113498
0.0103995
0.00940191
0.00771934
0.00635567
0.00380814
0.00225661
-0.278346
-0.256893
-0.309497
-0.313304
-0.254617
-0.189629
-0.124479
-0.0730389
-0.0384305
-0.0119574
7.90345e-05
0.00814651
0.0101428
0.0110278
0.0101511
0.00920075
0.00756857
0.00623494
0.0037436
0.00219581
-0.277802
-0.256145
-0.307419
-0.313634
-0.256694
-0.19188
-0.126624
-0.0745797
-0.0396002
-0.0129187
-0.000587657
0.00758259
0.00973574
0.0106923
0.00989606
0.00899757
0.00741659
0.00611408
0.00367943
0.00213306
-0.276615
-0.255265
-0.30478
-0.313791
-0.259265
-0.194708
-0.129288
-0.0764755
-0.0409996
-0.0140402
-0.00134635
0.00695605
0.00929507
0.010337
0.00963215
0.00879083
0.00726361
0.00599236
0.00361651
0.00206783
-0.272431
-0.253353
-0.300917
-0.311915
-0.260721
-0.196726
-0.131254
-0.0778632
-0.0419235
-0.0149757
-0.00201686
0.00629796
0.00881099
0.00992685
0.00933407
0.00855532
0.00709795
0.00585261
0.00355045
0.0019926
-0.232711
-0.235082
-0.273631
-0.288226
-0.257518
-0.198522
-0.134079
-0.0797775
-0.0423059
-0.0178553
-0.00459915
0.00265394
0.00584918
0.00719565
0.00735393
0.00695705
0.00602977
0.00489599
0.00312406
0.00149091
-0.191659
-0.216948
-0.236869
-0.247375
-0.231936
-0.185907
-0.129321
-0.0791769
-0.0438985
-0.0225691
-0.0104859
-0.00393138
-0.000179038
0.00199441
0.00325329
0.00383313
0.00376919
0.00319617
0.00206316
0.00068392
-0.171594
-0.19294
-0.204286
-0.20757
-0.195272
-0.16255
-0.118856
-0.0774974
-0.0466972
-0.0274948
-0.0162549
-0.0096976
-0.00549902
-0.00262193
-0.000557626
0.000847397
0.0015339
0.00158072
0.00106941
0.000257526
-0.142677
-0.165197
-0.173005
-0.171669
-0.161008
-0.139044
-0.108248
-0.0762459
-0.0500777
-0.0322915
-0.0212531
-0.0143978
-0.00979884
-0.00646496
-0.00387943
-0.00188149
-0.000547856
0.000123914
0.000277408
0.00010897
-0.118506
-0.138887
-0.145676
-0.143466
-0.135135
-0.120507
-0.0992453
-0.0749318
-0.0529658
-0.0365179
-0.0254842
-0.0182123
-0.0131861
-0.00949737
-0.00657456
-0.00418238
-0.00235384
-0.00111951
-0.000381338
-0.000121895
-0.0984347
-0.116446
-0.123257
-0.12227
-0.116375
-0.106147
-0.0910148
-0.0725359
-0.0543477
-0.0393888
-0.0284474
-0.0208165
-0.0154609
-0.0115899
-0.00856304
-0.00601301
-0.00387528
-0.00219632
-0.000979985
-0.000286099
-0.0828623
-0.0983892
-0.10543
-0.105994
-0.102072
-0.0945517
-0.0833501
-0.0691651
-0.0541794
-0.0407942
-0.0302603
-0.0225935
-0.0171488
-0.0132577
-0.0102454
-0.00762785
-0.00526434
-0.00321905
-0.00159974
-0.000514222
-0.0708337
-0.0841971
-0.0912055
-0.0928912
-0.0904838
-0.084882
-0.0763107
-0.0651715
-0.0527977
-0.0410846
-0.0313653
-0.0240155
-0.0186512
-0.0147657
-0.0117272
-0.00901321
-0.00644607
-0.00411148
-0.00215149
-0.000670669
-0.0615315
-0.0730297
-0.0797003
-0.0820485
-0.0808057
-0.0766576
-0.0699163
-0.0609822
-0.0507954
-0.040792
-0.0321164
-0.0252541
-0.0200232
-0.0160937
-0.0129431
-0.0100848
-0.00734596
-0.00481743
-0.00259651
-0.000788972
-0.0542368
-0.064137
-0.0703081
-0.0730003
-0.0726048
-0.0695669
-0.0642127
-0.0570077
-0.048669
-0.040239
-0.0326015
-0.0262571
-0.0211743
-0.0171583
-0.0138427
-0.0108342
-0.00799298
-0.00536826
-0.00298112
-0.000929142
-0.0484114
-0.0569637
-0.0626007
-0.0654274
-0.065622
-0.0634708
-0.0592672
-0.0534734
-0.0466416
-0.039533
-0.0328139
-0.0269629
-0.02203
-0.0179242
-0.0144601
-0.0113635
-0.00849968
-0.00584321
-0.0033449
-0.00107588
-0.0436721
-0.0511087
-0.0562438
-0.0590933
-0.059721
-0.0583064
-0.0550664
-0.0504063
-0.0447631
-0.0387148
-0.0327697
-0.0273583
-0.0225803
-0.0184432
-0.014917
-0.0118145
-0.00895605
-0.00626482
-0.00365287
-0.00118092
-0.039733
-0.0462743
-0.0509845
-0.0538304
-0.0547997
-0.0539836
-0.0515228
-0.0477562
-0.0430361
-0.0378212
-0.0325124
-0.0274883
-0.0229017
-0.0188321
-0.015332
-0.0122451
-0.00935242
-0.00658559
-0.0038609
-0.00124413
-0.0363861
-0.0422446
-0.0466419
-0.0495007
-0.0507401
-0.0503916
-0.0485457
-0.0454736
-0.0414621
-0.0368988
-0.0321162
-0.0274542
-0.0231091
-0.0191792
-0.015724
-0.012608
-0.0096354
-0.00678357
-0.00399208
-0.00130225
-0.0334565
-0.0388651
-0.0430772
-0.0459734
-0.0474237
-0.0474329
-0.0460604
-0.0435204
-0.0400583
-0.0360144
-0.0316775
-0.0273605
-0.0232715
-0.0194835
-0.016033
-0.0128502
-0.00980627
-0.00690998
-0.00410237
-0.00136644
-0.0308398
-0.0360333
-0.0401872
-0.0431426
-0.0447572
-0.0450316
-0.0440132
-0.0418831
-0.0388592
-0.0352381
-0.0312798
-0.0272664
-0.023389
-0.0196956
-0.0162228
-0.012995
-0.00992951
-0.00702553
-0.00420501
-0.00141586
-0.0284403
-0.0336888
-0.037899
-0.0409275
-0.0426635
-0.043127
-0.0423744
-0.0405661
-0.0378902
-0.034609
-0.0309607
-0.0271803
-0.0234385
-0.0197994
-0.0163285
-0.0131082
-0.010053
-0.00713261
-0.00427265
-0.001437
-0.0262978
-0.0318299
-0.0361803
-0.0392787
-0.0410936
-0.041689
-0.0411392
-0.0395779
-0.0371635
-0.0341375
-0.0307169
-0.0270914
-0.0234316
-0.0198448
-0.0164099
-0.0132149
-0.0101603
-0.00720193
-0.00430133
-0.00144679
-0.0245324
-0.0305053
-0.0350197
-0.038166
-0.0400261
-0.0407111
-0.0403035
-0.0389136
-0.0366796
-0.03382
-0.0305333
-0.026999
-0.0234087
-0.0198871
-0.0164848
-0.0132874
-0.0102132
-0.00722802
-0.00431712
-0.00146031
-0.023422
-0.0297994
-0.0344242
-0.037591
-0.0394735
-0.0402066
-0.0398719
-0.0385717
-0.0364352
-0.0336561
-0.0304232
-0.0269316
-0.0233951
-0.0199244
-0.0165318
-0.0133127
-0.0102196
-0.0072315
-0.00433005
-0.0014704
-0.155355
-0.165382
-0.175539
-0.185918
-0.196623
-0.207771
-0.219487
-0.231905
-0.245153
-0.259344
-0.274532
-0.290683
-0.307546
-0.324645
-0.340987
-0.355408
-0.36593
-0.371778
-0.370831
-0.367758
-0.0959523
-0.0993461
-0.102425
-0.105172
-0.107564
-0.109578
-0.111188
-0.112367
-0.113091
-0.113343
-0.113121
-0.112456
-0.111418
-0.11018
-0.108971
-0.108251
-0.108419
-0.110364
-0.114402
-0.122599
-0.0721019
-0.0763844
-0.0807015
-0.0850636
-0.089482
-0.0939687
-0.0985361
-0.103197
-0.107962
-0.112844
-0.117846
-0.122967
-0.12819
-0.133477
-0.13875
-0.143901
-0.148741
-0.153084
-0.156613
-0.159114
-0.059061
-0.0619743
-0.0648447
-0.067673
-0.0704593
-0.0732036
-0.0759057
-0.0785649
-0.0811804
-0.0837514
-0.0862777
-0.0887605
-0.0912036
-0.0936164
-0.0960163
-0.0984336
-0.10092
-0.10355
-0.106475
-0.109914
-0.0493177
-0.0516884
-0.0540615
-0.0564395
-0.0588247
-0.0612194
-0.0636261
-0.0660472
-0.0684851
-0.070942
-0.0734201
-0.0759211
-0.0784462
-0.0809947
-0.0835651
-0.0861497
-0.0887442
-0.0913234
-0.0938986
-0.0964121
-0.0433839
-0.045251
-0.047115
-0.0489766
-0.0508361
-0.0526944
-0.0545519
-0.0564093
-0.0582674
-0.0601269
-0.0619886
-0.0638533
-0.0657225
-0.067597
-0.0694798
-0.0713716
-0.0732818
-0.0752088
-0.0771957
-0.0792365
-0.038657
-0.0401584
-0.0416604
-0.0431636
-0.0446684
-0.0461755
-0.0476852
-0.0491983
-0.0507151
-0.0522364
-0.0537626
-0.0552942
-0.0568318
-0.0583755
-0.0599265
-0.0614834
-0.0630503
-0.0646202
-0.0662188
-0.0678197
-0.0351662
-0.0363913
-0.0376164
-0.0388416
-0.0400672
-0.0412933
-0.0425201
-0.0437479
-0.0449769
-0.0462073
-0.0474395
-0.0486736
-0.0499101
-0.051149
-0.0523913
-0.0536361
-0.0548871
-0.0561394
-0.0574144
-0.0586908
-0.0323693
-0.0333794
-0.0343894
-0.0353995
-0.0364098
-0.0374203
-0.0384312
-0.0394426
-0.0404547
-0.0414675
-0.0424812
-0.043496
-0.0445119
-0.045529
-0.0465477
-0.0475673
-0.0485901
-0.0496122
-0.0506491
-0.0516828
-0.0301582
-0.0309988
-0.0318392
-0.0326794
-0.0335195
-0.0343596
-0.0351997
-0.0360398
-0.03688
-0.0377204
-0.038561
-0.0394018
-0.0402429
-0.0410843
-0.0419261
-0.0427679
-0.0436114
-0.0444534
-0.0453058
-0.0461547
-0.0283502
-0.0290518
-0.0297535
-0.0304552
-0.031157
-0.0318589
-0.0325609
-0.0332631
-0.0339654
-0.0346679
-0.0353706
-0.0360734
-0.0367763
-0.0374792
-0.0381824
-0.0388852
-0.0395889
-0.0402913
-0.0410009
-0.041708
-0.0268417
-0.0274279
-0.0280147
-0.0286021
-0.0291901
-0.0297787
-0.0303679
-0.0309576
-0.0315479
-0.0321387
-0.0327299
-0.0333215
-0.0339133
-0.0345053
-0.0350975
-0.0356894
-0.0362819
-0.0368733
-0.03747
-0.0380657
-0.0254829
-0.0259712
-0.026461
-0.0269524
-0.0274454
-0.02794
-0.028436
-0.0289334
-0.0294322
-0.0299322
-0.0304334
-0.0309355
-0.0314386
-0.0319423
-0.0324467
-0.0329513
-0.0334567
-0.0339616
-0.0344707
-0.0349804
-0.0241927
-0.0245989
-0.025008
-0.0254202
-0.0258353
-0.0262533
-0.0266739
-0.0270971
-0.0275227
-0.0279505
-0.0283804
-0.028812
-0.0292451
-0.0296796
-0.0301152
-0.0305516
-0.0309889
-0.0314264
-0.0318671
-0.0323099
-0.0227303
-0.0230674
-0.0234101
-0.0237581
-0.0241113
-0.0244694
-0.0248322
-0.0251993
-0.0255705
-0.0259454
-0.0263238
-0.0267051
-0.0270892
-0.0274757
-0.0278642
-0.0282543
-0.028646
-0.0290387
-0.0294343
-0.0298335
-0.0210704
-0.021357
-0.0216524
-0.0219562
-0.0222679
-0.022587
-0.0229128
-0.0232448
-0.0235825
-0.0239253
-0.0242727
-0.0246241
-0.024979
-0.0253368
-0.0256972
-0.0260595
-0.0264236
-0.0267888
-0.0271564
-0.027528
-0.0185497
-0.018829
-0.0191211
-0.0194249
-0.0197394
-0.0200634
-0.020396
-0.0207361
-0.021083
-0.0214356
-0.0217932
-0.0221551
-0.0225204
-0.0228886
-0.023259
-0.0236309
-0.024004
-0.0243778
-0.0247527
-0.0251312
-0.0152739
-0.0156168
-0.0159724
-0.016339
-0.0167152
-0.0170996
-0.0174909
-0.017888
-0.0182898
-0.0186952
-0.0191035
-0.0195138
-0.0199254
-0.0203376
-0.0207497
-0.0211613
-0.0215719
-0.0219812
-0.022389
-0.0227983
-0.0102596
-0.0108659
-0.0114665
-0.0120607
-0.0126484
-0.0132292
-0.0138027
-0.014369
-0.0149276
-0.0154786
-0.0160218
-0.0165572
-0.0170846
-0.0176042
-0.0181157
-0.0186194
-0.0191151
-0.0196033
-0.0200834
-0.0205589
-0.0047573
-0.00572394
-0.00665633
-0.00755637
-0.00842586
-0.00926649
-0.0100798
-0.0108674
-0.0116306
-0.0123707
-0.013089
-0.0137865
-0.0144645
-0.0151237
-0.0157653
-0.0163901
-0.0169988
-0.0175925
-0.0181713
-0.0187385
-0.00479298
-0.00575917
-0.00669111
-0.0075907
-0.00845973
-0.00929989
-0.0101128
-0.0108999
-0.0116626
-0.0124022
-0.01312
-0.0138171
-0.0144945
-0.0151532
-0.0157943
-0.0164185
-0.0170267
-0.0176198
-0.0181981
-0.0187648
-0.0102957
-0.0109016
-0.0115017
-0.0120955
-0.0126828
-0.0132631
-0.0138362
-0.0144019
-0.0149601
-0.0155106
-0.0160533
-0.0165882
-0.0171152
-0.0176342
-0.0181453
-0.0186484
-0.0191436
-0.0196312
-0.0201108
-0.0205857
-0.0153111
-0.0156536
-0.0160088
-0.016375
-0.0167508
-0.0171347
-0.0175256
-0.0179222
-0.0183235
-0.0187285
-0.0191363
-0.0195461
-0.0199572
-0.0203689
-0.0207805