/*--------------------------------*- C++ -*----------------------------------*\
  =========                 |
  \\      /  F ield         | OpenFOAM: The Open Source CFD Toolbox
   \\    /   O peration     | Website:  https://openfoam.org
    \\  /    A nd           | Version:  6.0
     \\/     M anipulation  |
\*---------------------------------------------------------------------------*/
FoamFile
{
    version     2.0;
    format      ascii;
    class       surfaceScalarField;
    location    "32";
    object      phi;
}
// * * * * * * * * * * * * * * * * * * * * * * * * * * * * * * * * * * * * * //

dimensions      [0 3 -1 0 0 0 0];

internalField   nonuniform List<scalar> 
7840
(
-2.57068e-06
2.3943e-06
1.76381e-07
-9.12789e-06
6.07475e-06
4.82461e-07
-1.87237e-05
8.84386e-06
7.51924e-07
-3.05679e-05
1.08552e-05
9.88998e-07
-4.40174e-05
1.22519e-05
1.19755e-06
-5.8563e-05
1.31637e-05
1.38191e-06
-7.38149e-05
1.37054e-05
1.54655e-06
-8.94888e-05
1.39782e-05
1.69578e-06
-0.000105393
1.40704e-05
1.83353e-06
-0.000121415
1.40589e-05
1.9632e-06
-0.000137513
1.40103e-05
2.08756e-06
-0.000153703
1.39818e-05
2.20872e-06
-0.000170053
1.40215e-05
2.32816e-06
-0.000186668
1.41688e-05
2.44677e-06
-0.000203688
1.44548e-05
2.56495e-06
-0.000221273
1.4902e-05
2.68269e-06
-0.000239597
1.55245e-05
2.79968e-06
-0.000258841
1.63283e-05
2.91537e-06
-0.000279183
1.73132e-05
3.02876e-06
1.848e-05
3.13876e-06
-0.000300801
-2.5709e-06
4.96519e-06
-9.12412e-06
1.2628e-05
-1.8707e-05
1.84267e-05
-3.05249e-05
2.26731e-05
-4.39308e-05
2.56578e-05
-5.84109e-05
2.76438e-05
-7.35709e-05
2.88654e-05
-8.91212e-05
2.95284e-05
-0.000104864
2.98133e-05
-0.000120682
2.98768e-05
-0.000136527
2.98552e-05
-0.00015241
2.98651e-05
-0.000168394
3.00054e-05
-0.000184583
3.03573e-05
-0.000201112
3.09846e-05
-0.000218145
3.19345e-05
-0.000235857
3.32368e-05
-0.000254433
3.49043e-05
-0.000274057
3.69373e-05
3.93367e-05
-0.000294914
-2.56764e-06
7.53284e-06
-9.10383e-06
1.91642e-05
-1.8648e-05
2.79709e-05
-3.03981e-05
3.44233e-05
-4.36998e-05
3.89594e-05
-5.80315e-05
4.19756e-05
-7.29901e-05
4.38239e-05
-8.8276e-05
4.48143e-05
-0.00010368
4.52177e-05
-0.000119074
4.52706e-05
-0.000134398
4.51786e-05
-0.000149651
4.51189e-05
-0.000164889
4.52427e-05
-0.000180207
4.56753e-05
-0.000195739
4.65173e-05
-0.000211649
4.78437e-05
-0.000228116
4.97043e-05
-0.000245334
5.21223e-05
-0.000263498
5.51015e-05
5.86445e-05
-0.000282806
-2.56176e-06
1.00946e-05
-9.06917e-06
2.56716e-05
-1.85506e-05
3.74523e-05
-3.01942e-05
4.60669e-05
-4.33354e-05
5.21007e-05
-5.74423e-05
5.60825e-05
-7.20994e-05
5.8481e-05
-8.69928e-05
5.97078e-05
-0.000101898
6.01229e-05
-0.000116668
6.00409e-05
-0.000131226
5.97365e-05
-0.000145556
5.94483e-05
-0.000159695
5.93821e-05
-0.000173731
5.97113e-05
-0.000187791
6.05776e-05
-0.000202038
6.20906e-05
-0.00021666
6.43258e-05
-0.000231861
6.73234e-05
-0.000247855
7.1096e-05
7.56514e-05
-0.000264862
-2.55417e-06
1.26488e-05
-9.02244e-06
3.21398e-05
-1.8419e-05
4.68489e-05
-2.992e-05
5.75678e-05
-4.28493e-05
6.503e-05
-5.66627e-05
6.98958e-05
-7.09298e-05
7.27481e-05
-8.53195e-05
7.40975e-05
-9.95867e-05
7.43901e-05
-0.000113562
7.40164e-05
-0.000127144
7.33187e-05
-0.000140294
7.25978e-05
-0.000153028
7.2116e-05
-0.000165416
7.20994e-05
-0.000177576
7.27378e-05
-0.000189668
7.4183e-05
-0.000201889
7.65461e-05
-0.000214459
7.98938e-05
-0.000227619
8.42562e-05
8.96525e-05
-0.00024162
-2.54555e-06
1.51943e-05
-8.96481e-06
3.85591e-05
-1.82548e-05
5.61389e-05
-2.95783e-05
6.88912e-05
-4.22474e-05
7.76992e-05
-5.57047e-05
8.33531e-05
-6.95044e-05
8.65478e-05
-8.32958e-05
8.78889e-05
-9.68103e-05
8.79046e-05
-0.000109851
8.70573e-05
-0.000122287
8.57548e-05
-0.000134048
8.43586e-05
-0.000145122
8.31899e-05
-0.000155554
8.25318e-05
-0.000165446
8.26297e-05
-0.000174952
8.36885e-05
-0.000184274
8.58678e-05
-0.000193655
8.92748e-05
-0.00020337
9.39713e-05
9.99988e-05
-0.000213716
-2.53581e-06
1.77301e-05
-8.89481e-06
4.49181e-05
-1.80541e-05
6.52982e-05
-2.91627e-05
7.99999e-05
-4.15219e-05
9.00583e-05
-5.45621e-05
9.63933e-05
-6.78226e-05
9.98083e-05
-8.09332e-05
0.000100999
-9.36001e-05
0.000100572
-0.000105596
9.90535e-05
-0.000116755
9.69136e-05
-0.000126968
9.45718e-05
-0.000136186
9.24076e-05
-0.000144419
9.07653e-05
-0.000151744
8.99539e-05
-0.000158299
9.0244e-05
-0.000164291
9.18601e-05
-0.000169987
9.497e-05
-0.000175704
9.96883e-05
0.000106098
-0.000181803
-2.52372e-06
2.02538e-05
-8.80707e-06
5.12014e-05
-1.78048e-05
7.42958e-05
-2.86529e-05
9.08481e-05
-4.06434e-05
0.000102049
-5.31975e-05
0.000108948
-6.58425e-05
0.000112453
-7.81905e-05
0.000113347
-8.99236e-05
0.000112305
-0.000100783
0.000109913
-0.000110563
0.000106694
-0.000119112
0.000103121
-0.000126333
9.96279e-05
-0.00013219
9.66222e-05
-0.000136719
9.4483e-05
-0.000140035
9.35602e-05
-0.000142338
9.41634e-05
-0.000143916
9.65477e-05
-0.000145139
0.000100912
0.000107412
-0.000146453
-2.5066e-06
2.27604e-05
-8.69121e-06
5.73861e-05
-1.74842e-05
8.30888e-05
-2.80098e-05
0.000101374
-3.95535e-05
0.000113592
-5.15317e-05
0.000120926
-6.34638e-05
0.000124385
-7.49491e-05
0.000124833
-8.56495e-05
0.000123005
-9.52765e-05
0.00011954
-0.000103586
0.000115004
-0.000110377
0.000109911
-0.000115497
0.000104748
-0.000118852
9.99777e-05
-0.000120424
9.60546e-05
-0.000120283
9.34191e-05
-0.000118608
9.24887e-05
-0.000115699
9.3639e-05
-0.000111984
9.71968e-05
0.000103443
-0.000108014
-2.48023e-06
2.52407e-05
-8.53151e-06
6.34373e-05
-1.70581e-05
9.16154e-05
-2.71734e-05
0.000111489
-3.81599e-05
0.000124579
-4.94336e-05
0.000132199
-6.05123e-05
0.000135464
-7.09894e-05
0.00013531
-8.05133e-05
0.000132529
-8.87727e-05
0.000127799
-9.54883e-05
0.000121719
-0.000100412
0.000114835
-0.00010333
0.000107667
-0.000104082
0.000100729
-0.000102574
9.45467e-05
-9.88121e-05
8.96569e-05
-9.29293e-05
8.66058e-05
-8.52184e-05
8.59281e-05
-7.61589e-05
8.81373e-05
9.37143e-05
-6.64307e-05
-2.43905e-06
2.76797e-05
-8.3074e-06
6.93057e-05
-1.64811e-05
9.97892e-05
-2.60631e-05
0.000121071
-3.6335e-05
0.000134851
-4.67168e-05
0.000142581
-5.67312e-05
0.000145478
-6.59738e-05
0.000144553
-7.40896e-05
0.000140645
-8.07545e-05
0.000134464
-8.5665e-05
0.00012663
-8.85327e-05
0.000117703
-8.90888e-05
0.000108223
-8.70968e-05
9.87374e-05
-8.23773e-05
8.98273e-05
-7.48447e-05
8.21242e-05
-6.45543e-05
7.63155e-05
-5.17584e-05
7.31322e-05
-3.69676e-05
7.33465e-05
7.77507e-05
-2.10039e-05
-2.37671e-06
3.00564e-05
-7.99499e-06
7.4924e-05
-1.56995e-05
0.000107494
-2.45807e-05
0.000129952
-3.39196e-05
0.00014419
-4.31424e-05
0.000151804
-5.17814e-05
0.000154117
-5.94423e-05
0.000152214
-6.57771e-05
0.000146979
-7.04635e-05
0.000139151
-7.31894e-05
0.000129355
-7.36439e-05
0.000118157
-7.1516e-05
0.000106095
-6.65037e-05
9.37251e-05
-5.83372e-05
8.16608e-05
-4.68207e-05
7.06077e-05
-3.18952e-05
6.139e-05
-1.37237e-05
5.49607e-05
7.19698e-06
5.24258e-05
5.50395e-05
2.99082e-05
-2.28687e-06
3.23433e-05
-7.56944e-06
8.02065e-05
-1.46554e-05
0.00011458
-2.26177e-05
0.000137915
-3.07328e-05
0.000152305
-3.84311e-05
0.000159502
-4.52552e-05
0.000160942
-5.08249e-05
0.000157783
-5.48083e-05
0.000150963
-5.68989e-05
0.000141241
-5.67964e-05
0.000129253
-5.41929e-05
0.000115554
-4.8764e-05
0.000100666
-4.01694e-05
8.51305e-05
-2.80678e-05
6.95591e-05
-1.21536e-05
5.46935e-05
7.77311e-06
4.14633e-05
3.16956e-05
3.10382e-05
5.92061e-05
2.49153e-05
2.49902e-05
8.92553e-05
-2.16414e-06
3.45074e-05
-7.00784e-06
8.50502e-05
-1.32926e-05
0.000120864
-2.00643e-05
0.000144686
-2.65854e-05
0.000158826
-3.22825e-05
0.000165199
-3.67022e-05
0.000165361
-3.94754e-05
0.000160556
-4.02884e-05
0.000151776
-3.88596e-05
0.000139812
-3.49194e-05
0.000125313
-2.81925e-05
0.000108827
-1.83827e-05
9.08561e-05
-5.16173e-06
7.19095e-05
1.1832e-05
5.25654e-05
3.29738e-05
3.35517e-05
5.85957e-05
1.58414e-05
8.88693e-05
7.64616e-07
0.000123577
-9.79267e-06
-1.31262e-05
0.000161694
-2.00494e-06
3.65124e-05
-6.29179e-06
8.93371e-05
-1.15621e-05
0.000126135
-1.68193e-05
0.000149944
-2.12966e-05
0.000163303
-2.44007e-05
0.000168303
-2.56668e-05
0.000166627
-2.47233e-05
0.000159613
-2.12652e-05
0.000148318
-1.50334e-05
0.000133581
-5.79745e-06
0.000116077
6.66106e-06
9.63681e-05
2.25657e-05
7.49514e-05
4.21649e-05
5.23103e-05
6.57514e-05
2.89789e-05
9.36726e-05
5.63056e-06
0.000126311
-1.67974e-05
0.000164006
-3.69304e-05
0.000206824
-5.26098e-05
-6.02628e-05
0.00025396
-1.80794e-06
3.83203e-05
-5.40889e-06
9.2938e-05
-9.42497e-06
0.000130151
-1.2797e-05
0.000153316
-1.47065e-05
0.000165213
-1.45167e-05
0.000168114
-1.1726e-05
0.000163837
-5.9344e-06
0.000153821
3.17932e-06
0.000139204
1.58723e-05
0.000120888
3.23475e-05
9.96017e-05
5.27618e-05
7.59538e-05
7.72367e-05
5.04765e-05
0.000105876
2.36715e-05
0.000138791
-3.93673e-06
0.000176144
-3.17225e-05
0.00021818
-5.88329e-05
0.00026524
-8.39911e-05
0.000317663
-0.000105033
-0.000117696
0.000375097
-1.57375e-06
3.98941e-05
-4.35193e-06
9.57162e-05
-6.85244e-06
0.000132651
-7.92799e-06
0.000154391
-6.68144e-06
0.000163966
-2.40199e-06
0.000163834
5.48262e-06
0.000155952
1.74382e-05
0.000141866
3.38419e-05
0.0001228
5.49897e-05
9.97398e-05
8.10947e-05
7.34967e-05
0.000112281
4.47673e-05
0.000148578
1.41797e-05
0.000189916
-1.7666e-05
0.000236138
-5.0159e-05
0.00028704
-8.26241e-05
0.000342435
-0.000114228
0.000402275
-0.000143831
0.000466817
-0.000169575
-0.000187213
0.000536333
-1.30371e-06
4.11978e-05
-3.11564e-06
9.75282e-05
-3.81974e-06
0.000133355
-2.15213e-06
0.000152724
2.8936e-06
0.00015892
1.21363e-05
0.000154591
2.62576e-05
0.000141831
4.58326e-05
0.000122291
7.13439e-05
9.72889e-05
0.000103181
6.79023e-05
0.00014163
3.50481e-05
0.000186847
-4.49759e-07
0.000238832
-3.78048e-05
0.000297387
-7.62218e-05
0.000362087
-0.000114858
0.000432251
-0.000152788
0.00050697
-0.000188948
0.000585211
-0.000222072
0.000666193
-0.000250557
-0.00027201
0.00075099
-9.97999e-07
4.21958e-05
-1.69101e-06
9.82212e-05
-2.96057e-07
0.00013196
4.59726e-06
0.00014783
1.41357e-05
0.000149382
2.928e-05
0.000139447
5.08583e-05
0.000120253
7.95965e-05
9.35525e-05
0.00011613
6.0755e-05
0.000161001
2.30319e-05
0.000214636
-1.85871e-05
0.00027732
-6.31341e-05
0.000349148
-0.000109632
0.000429955
-0.000157029
0.00051922
-0.000204124
0.000615934
-0.000249502
0.000718425
-0.00029144
0.00082416
-0.000327806
0.000929849
-0.000356246
-0.000378645
0.00103648
-6.5322e-07
4.2849e-05
-5.84763e-08
9.76264e-05
3.7683e-06
0.000128134
1.24132e-05
0.000139185
2.71919e-05
0.000134603
4.92358e-05
0.000117403
7.95475e-05
8.99408e-05
0.000119032
5.40685e-05
0.000168504
1.12821e-05
0.000228691
-3.71551e-05
0.000300214
-9.01094e-05
0.000383571
-0.000146491
0.000479116
-0.000205178
0.000587026
-0.000264938
0.000707238
-0.000324336
0.000839326
-0.00038159
0.000982196
-0.00043431
0.00113311
-0.00047872
0.0012844
-0.000507537
-0.000506856
0.00141261
-2.61052e-07
4.31101e-05
1.81707e-06
9.55483e-05
8.45202e-06
0.000121499
2.14317e-05
0.000126206
4.2264e-05
0.000113771
7.22689e-05
8.73984e-05
0.000112634
4.95762e-05
0.000164439
2.26344e-06
0.000228664
-5.29436e-05
0.000306186
-0.000114677
0.000397771
-0.000181694
0.000504082
-0.000252802
0.000625712
-0.000326808
0.00076326
-0.000402486
0.000917491
-0.000478566
0.00108965
-0.000553747
0.00128202
-0.000626678
0.00149923
-0.00069593
0.00175217
-0.000760485
-0.000818696
0.00206401
1.95617e-07
4.29144e-05
3.99383e-06
9.17501e-05
1.38735e-05
0.000111619
3.18456e-05
0.000108234
5.96245e-05
8.59921e-05
9.87215e-05
4.83013e-05
0.000150493
-2.19482e-06
0.000216152
-6.33957e-05
0.000296764
-0.000133556
0.000393228
-0.000211142
0.000506268
-0.000294734
0.000636432
-0.000382967
0.00078413
-0.000474506
0.000949703
-0.000568059
0.00113356
-0.000662421
0.00133637
-0.00075656
0.00155941
-0.000849723
0.00180505
-0.000941562
0.00207675
-0.00103218
-0.00111457
0.00237262
7.38538e-07
4.21759e-05
6.54542e-06
8.59432e-05
2.01802e-05
9.79841e-05
4.38897e-05
8.45241e-05
7.95965e-05
5.02852e-05
0.000128986
-1.08786e-06
0.000193534
-6.67435e-05
0.000274503
-0.000144365
0.000372906
-0.000231959
0.000489475
-0.00032771
0.000624629
-0.000429888
0.000778472
-0.00053681
0.00095081
-0.000646844
0.0011412
-0.000758448
0.00134902
-0.00087024
0.00157355
-0.000981088
0.00181404
-0.00109021
0.00206972
-0.00119724
0.00233953
-0.001302
-0.00139598
0.00262095
1.39501e-06
4.07809e-05
9.55918e-06
7.7779e-05
2.75402e-05
8.00031e-05
5.78208e-05
5.42435e-05
0.000102515
5.59067e-06
0.000163437
-6.20091e-05
0.000242097
-0.000145403
0.000339667
-0.000241935
0.000456919
-0.000349212
0.000594175
-0.000464965
0.000751266
-0.000586979
0.000927534
-0.000713078
0.00112186
-0.000841169
0.00133272
-0.000969309
0.00155826
-0.00109578
0.00179637
-0.00121919
0.00204467
-0.00133851
0.00230054
-0.00145312
0.00256116
-0.00156262
-0.00165951
0.0028247
2.19417e-06
3.85867e-05
1.31251e-05
6.68481e-05
3.61193e-05
5.7009e-05
7.38773e-05
1.64855e-05
0.000128661
-4.91935e-05
0.000202328
-0.000135676
0.00029629
-0.000239365
0.000411436
-0.000357081
0.000548056
-0.000485831
0.000705779
-0.000622688
0.000883559
-0.000764759
0.00107971
-0.000909228
0.00129198
-0.00105344
0.00151768
-0.001195
0.00175378
-0.00133188
0.00199706
-0.00146247
0.00224416
-0.00158562
0.00249166
-0.00170062
0.00273621
-0.00180716
-0.00189969
0.00297639
3.16363e-06
3.54231e-05
1.73246e-05
5.26871e-05
4.60571e-05
2.82764e-05
9.22354e-05
-2.96927e-05
0.000158189
-0.000115148
0.000245687
-0.000223174
0.000355848
-0.000349525
0.000489033
-0.000490266
0.000644763
-0.000641561
0.000821687
-0.000799612
0.00101763
-0.000960699
0.00122969
-0.00112129
0.00145446
-0.0012782
0.00168815
-0.0014287
0.00192687
-0.00157061
0.00216677
-0.00170237
0.00240416
-0.00182301
0.00263565
-0.00193211
0.00285827
-0.00202977
-0.00211254
0.00307111
4.32642e-06
3.10967e-05
2.22196e-05
3.4794e-05
5.74439e-05
-6.9479e-06
0.000112968
-8.5217e-05
0.000191064
-0.000193243
0.000293223
-0.000325333
0.000420019
-0.000476322
0.000570992
-0.00064124
0.000744596
-0.000815165
0.000938243
-0.000993259
0.00114846
-0.00117092
0.00137114
-0.00134397
0.0016018
-0.00150886
0.00183591
-0.00166281
0.00206916
-0.00180385
0.00229763
-0.00193084
0.00251798
-0.00204336
0.00272748
-0.00214161
0.00292408
-0.00222638
-0.00229607
0.00310761
5.6988e-06
2.53979e-05
2.78446e-05
1.26482e-05
7.03025e-05
-4.94058e-05
0.000136015
-0.00015093
0.000227016
-0.000284244
0.000344271
-0.000442588
0.000487513
-0.000619563
0.000655147
-0.000808874
0.000844291
-0.00100431
0.00105096
-0.00119993
0.00127038
-0.00139034
0.00149737
-0.00157096
0.00172677
-0.00173827
0.00195377
-0.00188981
0.00217418
-0.00202427
0.00238464
-0.00214129
0.00258263
-0.00224136
0.00276656
-0.00232553
0.00293556
-0.00239538
-0.00245085
0.00309034
7.289e-06
1.81089e-05
3.42016e-05
-1.42644e-05
8.45775e-05
-9.97817e-05
0.000161164
-0.000227517
0.000265519
-0.000388599
0.000397786
-0.000574854
0.000556529
-0.000778306
0.000738734
-0.000991079
0.000940004
-0.00120558
0.00115495
-0.00141487
0.00137767
-0.00161306
0.00160232
-0.00179561
0.00182352
-0.00195947
0.00203676
-0.00210305
0.00223855
-0.00222606
0.00242653
-0.00232927
0.00259937
-0.0024142
0.0027567
-0.00248286
0.00289887
-0.00253755
-0.00257938
0.0030274
9.09679e-06
9.01209e-06
4.12576e-05
-4.64252e-05
0.000100129
-0.000158653
0.000188043
-0.000315431
0.000305792
-0.000506348
0.000452363
-0.000721425
0.000624843
-0.000950787
0.000818591
-0.00118483
0.00102767
-0.00141466
0.00124546
-0.00163266
0.00146534
-0.00183294
0.0016813
-0.00201157
0.00188836
-0.00216652
0.00208281
-0.0022975
0.0022623
-0.00240555
0.00242572
-0.00249269
0.00257301
-0.00256149
0.00270492
-0.00261478
0.00282276
-0.00265539
-0.00268525
0.00292863
1.11133e-05
-2.10123e-06
4.89435e-05
-8.42554e-05
0.000116733
-0.000226443
0.000216126
-0.000414823
0.000346819
-0.000637041
0.000506311
-0.000880917
0.000689964
-0.00113444
0.000891439
-0.0013863
0.00110342
-0.00162663
0.00131844
-0.00184769
0.00152971
-0.00204421
0.00173162
-0.00221348
0.00192011
-0.00235502
0.00209271
-0.0024701
0.0022484
-0.00256124
0.00238733
-0.00263162
0.00251055
-0.00268471
0.00261967
-0.0027239
0.00271659
-0.00275231
-0.00277232
0.00280366
1.3321e-05
-1.54222e-05
5.7154e-05
-0.000128088
0.000134082
-0.00030337
0.000244744
-0.000525486
0.000387398
-0.000779694
0.000557757
-0.00105128
0.00074933
-0.00132601
0.000954188
-0.00159116
0.00116399
-0.00183644
0.00137098
-0.00205468
0.00156876
-0.00224199
0.00175269
-0.00239741
0.00192001
-0.00252233
0.00206963
-0.00261973
0.00220186
-0.00269346
0.00231793
-0.0027477
0.00241971
-0.00278649
0.0025093
-0.00281349
0.00258887
-0.00283188
-0.00284417
0.00266072
1.56934e-05
-3.11156e-05
6.57488e-05
-0.000178144
0.000151792
-0.000389414
0.000273116
-0.000646811
0.000426203
-0.000932781
0.00060478
-0.00122985
0.00080053
-0.00152176
0.00100424
-0.00179487
0.00120706
-0.00203926
0.00140155
-0.00224916
0.00158224
-0.00242268
0.00174585
-0.00256102
0.00189107
-0.00266756
0.0020182
-0.00274685
0.00212862
-0.00280388
0.00222437
-0.00284345
0.00230778
-0.00286989
0.00238113
-0.00288685
0.00244657
-0.00289732
-0.00290377
0.00250617
1.81947e-05
-4.93103e-05
7.4554e-05
-0.000234503
0.000169418
-0.000484277
0.00030038
-0.000777773
0.00046187
-0.00109427
0.000645559
-0.00141354
0.000841517
-0.00171772
0.00103972
-0.00199307
0.00123141
-0.00223095
0.00141
-0.00242775
0.00157139
-0.00258407
0.00171383
-0.00270345
0.00183743
-0.00279116
0.00194363
-0.00285305
0.00203462
-0.00289487
0.0021129
-0.00292173
0.00218093
-0.00293793
0.00224097
-0.00294688
0.00229495
-0.0029513
-0.00295342
0.0023446
2.07802e-05
-7.00904e-05
8.33666e-05
-0.00029709
0.000186464
-0.000587375
0.000325639
-0.000916948
0.000493089
-0.00126172
0.000678519
-0.00159897
0.000870775
-0.00190998
0.00105959
-0.00218189
0.0012369
-0.00240826
0.00139741
-0.00258827
0.00153861
-0.00272526
0.00166022
-0.00282507
0.00176361
-0.00289454
0.00185105
-0.00294049
0.00192522
-0.00296904
0.00198876
-0.00298527
0.00204407
-0.00299324
0.00209318
-0.00299599
0.00213774
-0.00299587
-0.00299481
0.00217914
2.33965e-05
-9.34869e-05
9.19603e-05
-0.000365653
0.000202413
-0.000697827
0.000348021
-0.00106256
0.0005187
-0.0014324
0.000702452
-0.00178272
0.000887417
-0.00209494
0.00106369
-0.00235816
0.00122437
-0.00256894
0.00136576
-0.00272966
0.00148691
-0.00284642
0.0015889
-0.00292706
0.00167401
-0.00297965
0.00174506
-0.00301154
0.00180489
-0.00302887
0.00185609
-0.00303647
0.00190082
-0.00303797
0.00194084
-0.00303601
0.00197749
-0.00303251
-0.00302913
0.00201181
2.59832e-05
-0.00011947
0.000100095
-0.000439765
0.00021675
-0.000814482
0.00036673
-0.00121254
0.000537773
-0.00160344
0.000716588
-0.00196154
0.000891194
-0.00226955
0.00105259
-0.00251956
0.00119539
-0.00271174
0.00131754
-0.00285181
0.00141958
-0.00294845
0.00150361
-0.0030111
0.00157256
-0.0030486
0.00162948
-0.00306846
0.00167716
-0.00307655
0.00171798
-0.00307729
0.0017538
-0.0030738
0.00178607
-0.00306828
0.00181585
-0.00306229
-0.00305717
0.00184389
2.84747e-05
-0.000147945
0.000107527
-0.000518818
0.000228992
-0.000935947
0.0003811
-0.00136464
0.000549664
-0.00177201
0.00072062
-0.0021325
0.000882441
-0.00243137
0.00102745
-0.00266457
0.00115196
-0.00283624
0.00125549
-0.00295535
0.00133979
-0.00303275
0.00140774
-0.00307905
0.00146259
-0.00310345
0.00150738
-0.00311325
0.00154472
-0.00311389
0.00157667
-0.00310924
0.00160481
-0.00310194
0.00163028
-0.00309375
0.00165388
-0.00308589
-0.00307947
0.00167618
3.08028e-05
-0.000178748
0.000114023
-0.000602038
0.000238718
-0.00106064
0.000390633
-0.00151656
0.000554041
-0.00193542
0.000714675
-0.00229313
0.000861963
-0.00257866
0.000989839
-0.00279245
0.00109629
-0.00294269
0.00118228
-0.00304133
0.00125045
-0.00310092
0.00130417
-0.00313277
0.00134676
-0.00314603
0.0013811
-0.00314759
0.00140952
-0.00314231
0.00143375
-0.00313348
0.00145507
-0.00312326
0.00147438
-0.00311305
0.00149227
-0.00310379
-0.00309634
0.00150915
3.28998e-05
0.00011937
0.00024559
0.000395019
0.000550878
0.000699244
0.000830898
0.0009415
0.00103063
0.00110038
0.00115407
0.00119526
0.00122716
0.00125239
0.00127296
0.0012903
0.00130541
0.00131897
0.00133145
0.00134311
3.28981e-05
0.000178625
0.000119371
0.000601744
0.000245605
0.00106024
0.000395062
0.00151611
0.000550964
0.00193496
0.000699383
0.00229272
0.000831094
0.00257831
0.000941754
0.00279217
0.00103094
0.00294248
0.00110074
0.00304118
0.00115447
0.00310083
0.0011957
0.00313272
0.00122763
0.00314602
0.00125289
0.0031476
0.00127349
0.00314234
0.00129085
0.00313353
0.00130597
0.00312333
0.00131955
0.00311313
0.00133205
0.00310388
0.00309645
0.00134372
3.07999e-05
0.000147825
0.00011402
0.000518524
0.000238724
0.000935535
0.000390662
0.00136417
0.000554108
0.00177152
0.000714792
0.00213203
0.00086214
0.00243096
0.000990077
0.00266423
0.00109659
0.00283597
0.00118263
0.00295515
0.00125085
0.00303261
0.00130462
0.00307896
0.00134724
0.0031034
0.00138162
0.00311323
0.00141006
0.0031139
0.00143432
0.00310927
0.00145567
0.00310198
0.00147499
0.00309381
0.00149291
0.00308597
0.00307955
0.0015098
2.84709e-05
0.000119354
0.00010752
0.000439475
0.000228989
0.000814066
0.000381114
0.00121204
0.00054971
0.00160292
0.000720714
0.00196103
0.000882592
0.00226908
0.00102767
0.00251915
0.00115223
0.0027114
0.00125583
0.00285155
0.00134019
0.00294825
0.00140819
0.00301095
0.00146308
0.00304851
0.00150791
0.0030684
0.00154528
0.00307653
0.00157727
0.00307728
0.00160543
0.00307382
0.00163092
0.00306832
0.00165455
0.00306234
0.00305724
0.00167686
2.59785e-05
9.33754e-05
0.000100084
0.000365369
0.000216738
0.000697413
0.000366729
0.00106205
0.000537797
0.00143185
0.000716654
0.00178217
0.000891315
0.00209442
0.00105277
0.00235769
0.00119564
0.00256854
0.00131787
0.00272933
0.00141996
0.00284615
0.00150406
0.00292686
0.00157306
0.00297951
0.00163002
0.00301144
0.00167774
0.0030288
0.00171859
0.00303643
0.00175445
0.00303796
0.00178675
0.00303602
0.00181655
0.00303254
0.00302917
0.00184462
2.33911e-05
6.99843e-05
9.19461e-05
0.000296814
0.000202393
0.000586966
0.000348005
0.000916442
0.000518702
0.00126116
0.000702488
0.00159839
0.000887503
0.0019094
0.00106384
0.00218136
0.00122459
0.00240779
0.00136605
0.00258787
0.00148727
0.00272493
0.00158933
0.0028248
0.0016745
0.00289434
0.0017456
0.00294034
0.00180548
0.00296892
0.00185672
0.00298519
0.00190149
0.00299319
0.00194155
0.00299597
0.00197822
0.00299586
0.00299483
0.00201257
2.07743e-05
4.92099e-05
8.33498e-05
0.000234239
0.000186437
0.000483878
0.000325609
0.00077727
0.000493069
0.0010937
0.000678525
0.00141293
0.000870823
0.00171711
0.0010597
0.00199248
0.00123707
0.00223041
0.00139766
0.00242728
0.00153893
0.00258366
0.00166062
0.00270311
0.00176408
0.00279088
0.00185159
0.00285283
0.00192581
0.0028947
0.0019894
0.0029216
0.00204476
0.00293783
0.00209391
0.00294682
0.00213851
0.00295126
0.0029534
0.00217993
1.81885e-05
3.10214e-05
7.45352e-05
0.000177892
0.000169385
0.000389029
0.000300338
0.000646317
0.000461829
0.000932205
0.000645534
0.00122923
0.000841524
0.00152112
0.00103977
0.00179423
0.00123153
0.00203866
0.0014102
0.00224861
0.00157167
0.00242219
0.00171419
0.0025606
0.00183787
0.0026672
0.00194414
0.00274656
0.0020352
0.00280364
0.00211354
0.00284326
0.00218163
0.00286974
0.00224172
0.00288673
0.00229574
0.00289724
0.00290371
0.00234543
1.56871e-05
1.53343e-05
6.57285e-05
0.000127851
0.000151755
0.000303003
0.000273064
0.000525008
0.000426143
0.000779127
0.000604725
0.00105064
0.000800497
0.00132534
0.00100425
0.00159048
0.00120713
0.00183578
0.00140168
0.00205406
0.00158245
0.00224142
0.00174615
0.0023969
0.00189146
0.00252189
0.00201867
0.00261935
0.00212917
0.00269314
0.002225
0.00274743
0.00230847
0.00278627
0.00238188
0.00281332
0.00244738
0.00283174
0.00284406
0.00250703
1.33147e-05
2.01966e-06
5.71327e-05
8.40328e-05
0.00013404
0.000226095
0.000244683
0.000414365
0.000387321
0.000636488
0.000557676
0.000880289
0.000749258
0.00113376
0.000954144
0.0013856
0.00116399
0.00162593
0.00137105
0.001847
0.0015689
0.00204356
0.00175292
0.00221288
0.00192033
0.00235448
0.00207005
0.00246963
0.00220236
0.00256083
0.00231853
0.00263127
0.00242038
0.00268441
0.00251005
0.00272365
0.00258968
0.00275211
0.00277215
0.00266159
1.1107e-05
-9.08734e-06
4.89214e-05
4.62184e-05
0.000116689
0.000158328
0.000216057
0.000314997
0.000346728
0.000505817
0.000506206
0.000720812
0.000689857
0.000950111
0.000891346
0.00118411
0.00110336
0.00141392
0.00131843
0.00163192
0.00152977
0.00183223
0.00173176
0.00201089
0.00192035
0.00216589
0.00209305
0.00229693
0.00224883
0.00240504
0.00238786
0.00249224
0.00251118
0.0025611
0.00262039
0.00261444
0.00271739
0.00265511
0.002685
0.00280454
9.09038e-06
-1.81777e-05
4.12346e-05
1.40742e-05
0.000100082
9.94799e-05
0.000187968
0.000227111
0.000305689
0.000388097
0.000452236
0.000574265
0.000624703
0.000777644
0.000818452
0.000990359
0.00102755
0.00120482
0.00124537
0.00141409
0.00146531
0.00161229
0.00168135
0.00179486
0.00188849
0.00195875
0.00208304
0.00210238
0.00226264
0.00222544
0.00242617
0.00232871
0.00257356
0.0024137
0.00270558
0.00248242
0.00282352
0.00253717
0.00257905
0.00292948
7.28231e-06
-2.546e-05
3.41772e-05
-1.28207e-05
8.45272e-05
4.913e-05
0.000161083
0.000150555
0.000265405
0.000283774
0.000397641
0.000442029
0.00055636
0.000618924
0.000738552
0.000808167
0.000939825
0.00100355
0.00115479
0.00119913
0.00137755
0.00138952
0.00160226
0.00157015
0.00182354
0.00173747
0.00203688
0.00188904
0.00223878
0.00202354
0.00242687
0.00214062
0.00259983
0.00224074
0.00275727
0.00232498
0.00289955
0.00239488
0.00245041
0.00302819
5.6915e-06
-3.11515e-05
2.7818e-05
-3.49472e-05
7.02478e-05
6.70021e-06
0.000135927
8.48762e-05
0.00022689
0.000192811
0.000344109
0.000324811
0.000487318
0.000475715
0.000654928
0.000640557
0.00084406
0.000814417
0.00105073
0.000992459
0.00127017
0.00117008
0.00149721
0.00134311
0.00172667
0.001508
0.00195375
0.00166197
0.00217426
0.00180303
0.00238483
0.00193005
0.00258295
0.00204262
0.002767
0.00214093
0.00293613
0.00222575
0.0022955
0.00309105
4.31813e-06
-3.54697e-05
2.21899e-05
-5.2819e-05
5.73834e-05
-2.84933e-05
0.000112871
2.93891e-05
0.000190926
0.000114756
0.000293043
0.000222694
0.0004198
0.000348958
0.00057074
0.000489616
0.00074432
0.000640837
0.000937955
0.000798824
0.00114818
0.000959858
0.00137088
0.00112041
0.00160158
0.0012773
0.00183576
0.00142779
0.00206909
0.0015697
0.00229767
0.00170148
0.00251813
0.00182215
0.00272776
0.0019313
0.00292451
0.00202901
0.00211183
0.00310818
3.15394e-06
-3.86236e-05
1.7291e-05
-6.69561e-05
4.59896e-05
-5.7192e-05
9.21275e-05
-1.67488e-05
0.000158037
4.88456e-05
0.00024549
0.000135241
0.000355606
0.000238842
0.000488751
0.000356472
0.000644447
0.000485141
0.000821347
0.000621924
0.00101728
0.000763929
0.00122935
0.000908343
0.00145413
0.00105251
0.00168787
0.00119405
0.00192666
0.00133091
0.00216664
0.0014615
0.00240414
0.00158466
0.00263576
0.00169968
0.00285851
0.00180626
0.00189883
0.0030715
2.1828e-06
-4.08064e-05
1.30869e-05
-7.78602e-05
3.6044e-05
-8.01491e-05
7.37586e-05
-5.44634e-05
0.000128496
-5.8916e-06
0.000202114
6.16223e-05
0.000296028
0.000144929
0.000411128
0.000241372
0.000547706
0.000348563
0.000705395
0.000464235
0.000883151
0.000586173
0.00107929
0.000712205
0.00129156
0.000840238
0.00151728
0.00096833
0.00175343
0.00109477
0.00199677
0.00121815
0.00224396
0.00133746
0.00249157
0.00145207
0.00273625
0.00156158
0.0016585
0.00297658
1.38188e-06
-4.21883e-05
9.5164e-06
-8.59947e-05
2.74576e-05
-9.80903e-05
5.76925e-05
-8.46983e-05
0.000102338
-5.05372e-05
0.000163209
7.51416e-07
0.000241819
6.6319e-05
0.00033934
0.000143851
0.000456546
0.000231356
0.00059376
0.000327021
0.000750815
0.000429118
0.000927057
0.000535963
0.00112137
0.000645928
0.00133223
0.000757469
0.00155779
0.000869207
0.00179593
0.00098001
0.0020443
0.0010891
0.00230026
0.00119611
0.002561
0.00130084
0.00139482
0.00282468
7.23893e-07
-4.29122e-05
6.49912e-06
-9.17699e-05
2.00926e-05
-0.000111684
4.37556e-05
-0.000108361
7.94133e-05
-8.6195e-05
0.000128752
-4.85876e-05
0.000193251
1.82072e-06
0.000274169
6.29318e-05
0.000372524
0.000133002
0.000489045
0.0002105
0.000624156
0.000294007
0.000777962
0.000382158
0.00095027
0.000473619
0.00114064
0.000567099
0.00134845
0.000661393
0.00157299
0.000755468
0.00181352
0.000848572
0.00206927
0.000940359
0.00233917
0.00103094
0.00111328
0.00262071
1.80046e-07
-4.30922e-05
3.9461e-06
-9.5536e-05
1.37851e-05
-0.000121523
3.17124e-05
-0.000126289
5.94449e-05
-0.000113927
9.84948e-05
-8.76375e-05
0.000150218
-4.99029e-05
0.00021583
-2.6796e-06
0.000296394
5.2438e-05
0.000392811
0.000114083
0.000505803
0.000181014
0.000635921
0.000252039
0.000783576
0.000325965
0.000949112
0.000401564
0.00113294
0.000477567
0.00133573
0.000552671
0.00155878
0.000625524
0.00180445
0.000694694
0.00207622
0.000759167
0.000817313
0.00237219
-2.76602e-07
-4.28156e-05
1.77101e-06
-9.75836e-05
8.36887e-06
-0.000128121
2.13091e-05
-0.000139229
4.21016e-05
-0.00013472
7.20666e-05
-0.000117602
0.000112391
-9.02274e-05
0.000164155
-5.44437e-05
0.000228339
-1.17452e-05
0.000305816
3.66059e-05
0.000397354
8.94768e-05
0.000503615
0.000145778
0.000625194
0.000204386
0.000762688
0.000264069
0.000916866
0.00032339
0.00108897
0.000380564
0.0012813
0.000433198
0.00149848
0.000477511
0.00175143
0.000506223
0.00050543
0.00206331
-6.67515e-07
-4.21481e-05
-9.89204e-08
-9.81522e-05
3.69803e-06
-0.000131918
1.23131e-05
-0.000147844
2.70634e-05
-0.00014947
4.908e-05
-0.000139619
7.93646e-05
-0.000120512
0.00011882
-9.38996e-05
0.000168263
-6.11875e-05
0.000228415
-2.35466e-05
0.000299898
1.7994e-05
0.000383209
6.24667e-05
0.000478701
0.000108894
0.000586547
0.000156223
0.000706685
0.000203252
0.000838685
0.000248564
0.000981449
0.000290433
0.00113223
0.000326727
0.00128336
0.000355094
0.00037744
0.00141135
-1.00963e-06
-4.11385e-05
-1.72144e-06
-9.74404e-05
-3.45035e-07
-0.000133294
4.5329e-06
-0.000152722
1.40596e-05
-0.000158997
2.91951e-05
-0.000154754
5.07656e-05
-0.000142083
7.94956e-05
-0.00012263
0.000116019
-9.77105e-05
0.000160873
-6.84014e-05
0.000214486
-3.56188e-05
0.000277139
-1.86452e-07
0.000348924
3.71092e-05
0.000429675
7.54728e-05
0.000518866
0.000114061
0.000615482
0.000151948
0.000717848