/*--------------------------------*- C++ -*----------------------------------*\
  =========                 |
  \\      /  F ield         | OpenFOAM: The Open Source CFD Toolbox
   \\    /   O peration     | Website:  https://openfoam.org
    \\  /    A nd           | Version:  6.0
     \\/     M anipulation  |
\*---------------------------------------------------------------------------*/
FoamFile
{
    version     2.0;
    format      ascii;
    class       volVectorField;
    location    "58";
    object      U;
}
// * * * * * * * * * * * * * * * * * * * * * * * * * * * * * * * * * * * * * //

dimensions      [0 1 -1 0 0 0 0];

internalField   nonuniform List<vector> 
12500
(
(-5.56001e-05 -0.0155333 -8.01276e-22)
(-0.00116085 -0.0391065 1.07721e-20)
(-0.00376174 -0.0568119 -1.55759e-20)
(-0.00723109 -0.0698122 7.13657e-21)
(-0.0111967 -0.0790926 4.34202e-22)
(-0.0154068 -0.0854886 -8.91763e-22)
(-0.019654 -0.089691 -1.2922e-20)
(-0.023777 -0.0922567 7.08826e-21)
(-0.0276582 -0.0936236 4.66205e-21)
(-0.0312155 -0.0941268 4.7403e-21)
(-0.0343969 -0.0940156 -7.99851e-21)
(-0.0371751 -0.0934702 4.65078e-21)
(-0.0395437 -0.0926176 -2.18443e-21)
(-0.0415133 -0.0915452 3.69329e-21)
(-0.0431084 -0.0903134 -9.41227e-21)
(-0.0443649 -0.0889653 1.36195e-20)
(-0.0453273 -0.0875346 -2.61581e-21)
(-0.0460468 -0.0860522 -9.57148e-21)
(-0.0465782 -0.0845503 4.86925e-21)
(-0.046979 -0.0830658 -4.64037e-21)
(-0.0473154 -0.0816414 4.16432e-21)
(-0.0476558 -0.080326 5.53783e-21)
(-0.0479821 -0.0791722 5.43066e-22)
(-0.0481481 -0.0782429 -1.57374e-20)
(-0.0487853 -0.0776274 8.27713e-21)
(0.000347016 -0.0147301 1.41159e-20)
(-0.000278669 -0.0370281 -3.65269e-20)
(-0.00272166 -0.053783 1.0798e-20)
(-0.00622812 -0.0661131 7.17731e-21)
(-0.0103515 -0.0749658 -5.72385e-21)
(-0.0147922 -0.0811417 -3.2372e-20)
(-0.0193067 -0.0852984 9.6278e-21)
(-0.0237084 -0.0879614 -1.80819e-20)
(-0.0278619 -0.0895398 2.16259e-20)
(-0.0316733 -0.0903421 -2.88416e-20)
(-0.0350832 -0.0905933 1.53967e-20)
(-0.0380601 -0.0904513 4.90882e-21)
(-0.0405957 -0.0900222 -1.24735e-20)
(-0.0427006 -0.0893747 -5.52631e-21)
(-0.044401 -0.0885516 4.02033e-20)
(-0.0457351 -0.0875802 -3.54677e-20)
(-0.0467509 -0.0864804 8.4441e-21)
(-0.0475034 -0.0852707 1.46178e-20)
(-0.0480514 -0.0839737 -3.41287e-21)
(-0.0484567 -0.0826185 2.35811e-20)
(-0.0487883 -0.0812433 4.20788e-21)
(-0.0491164 -0.0798948 -1.43741e-21)
(-0.0494298 -0.078624 -2.94726e-20)
(-0.049598 -0.0774905 2.71351e-20)
(-0.050204 -0.0766015 -5.14237e-20)
(0.000689293 -0.0138095 4.49958e-20)
(0.000447646 -0.0346816 1.5038e-20)
(-0.00190946 -0.0504009 -1.9544e-20)
(-0.00550338 -0.0620205 8.33525e-21)
(-0.00981595 -0.0704357 7.91764e-21)
(-0.0145023 -0.0764029 2.98245e-20)
(-0.0192859 -0.080539 -3.77595e-20)
(-0.0239565 -0.0833337 -6.02896e-21)
(-0.0283627 -0.0851639 -2.51464e-20)
(-0.0323998 -0.0863096 -2.09704e-20)
(-0.0360014 -0.0869697 2.71799e-20)
(-0.039132 -0.0872787 -9.04739e-20)
(-0.0417811 -0.0873213 -2.71179e-21)
(-0.0439592 -0.0871461 -5.39732e-20)
(-0.0456933 -0.0867776 -6.29823e-21)
(-0.0470237 -0.0862263 7.73044e-21)
(-0.0480016 -0.0854969 -4.1529e-20)
(-0.0486858 -0.0845949 -2.58929e-20)
(-0.0491398 -0.0835318 -3.0677e-20)
(-0.04943 -0.0823286 4.80914e-20)
(-0.0496297 -0.0810185 1.7564e-20)
(-0.0498125 -0.0796468 -7.73159e-20)
(-0.0499759 -0.0782642 -3.71731e-20)
(-0.050006 -0.07693 -4.12049e-20)
(-0.0504405 -0.0757704 1.11689e-19)
(0.000961178 -0.0127732 -1.58033e-21)
(0.000996576 -0.032074 -3.4611e-20)
(-0.00135124 -0.0466776 -1.63252e-20)
(-0.00508348 -0.0575503 1.00607e-20)
(-0.00961497 -0.0655212 6.36956e-20)
(-0.0145598 -0.0712926 -2.88252e-20)
(-0.0196115 -0.0754345 6.1116e-20)
(-0.0245391 -0.078396 5.79954e-20)
(-0.029177 -0.0805193 3.53152e-20)
(-0.0334111 -0.0820539 -5.83898e-22)
(-0.0371686 -0.0831722 7.08816e-20)
(-0.0404097 -0.0839842 1.21956e-20)
(-0.0431221 -0.0845527 5.38106e-20)
(-0.045315 -0.0849057 1.23148e-19)
(-0.0470158 -0.0850484 -1.42542e-19)
(-0.0482665 -0.0849732 2.13638e-19)
(-0.0491208 -0.0846683 4.62147e-20)
(-0.0496413 -0.0841242 -1.01707e-19)
(-0.0498963 -0.08334 -1.44429e-20)
(-0.0499576 -0.0823271 3.71019e-20)
(-0.049904 -0.0811125 -1.81954e-20)
(-0.0498142 -0.0797394 -1.05541e-20)
(-0.0496964 -0.078259 -1.0376e-20)
(-0.0494546 -0.0767325 -4.23164e-20)
(-0.0495858 -0.0753061 1.4936e-19)
(0.00115294 -0.0116247 2.31259e-20)
(0.00134813 -0.0292159 -1.07931e-19)
(-0.00106983 -0.0426296 1.30645e-19)
(-0.00499005 -0.0527229 -5.21115e-20)
(-0.00976689 -0.0602446 6.20567e-20)
(-0.0149786 -0.0658337 5.04043e-20)
(-0.0202934 -0.0700069 1.91049e-20)
(-0.0254627 -0.0731692 6.59765e-22)
(-0.0303089 -0.0756256 1.07455e-19)
(-0.03471 -0.0775945 7.40634e-20)
(-0.0385873 -0.0792207 -2.99344e-20)
(-0.0418976 -0.0805903 -1.9121e-20)
(-0.0446254 -0.0817436 8.0266e-20)
(-0.0467788 -0.0826876 1.51582e-20)
(-0.0483845 -0.0834076 4.05826e-20)
(-0.0494852 -0.0838767 9.72939e-20)
(-0.0501365 -0.0840645 -8.43371e-20)
(-0.0504044 -0.0839448 6.80499e-20)
(-0.0503619 -0.0835017 -1.45202e-19)
(-0.0500872 -0.0827342 1.21566e-19)
(-0.0496655 -0.0816613 6.24163e-22)
(-0.0491826 -0.0803222 -9.56752e-20)
(-0.0486591 -0.0787683 3.90557e-20)
(-0.048019 -0.0770638 8.73526e-20)
(-0.047725 -0.0753755 -1.28219e-19)
(0.00125549 -0.0103696 1.18967e-19)
(0.00148465 -0.0261229 -1.26394e-19)
(-0.00108371 -0.0382789 -2.0648e-20)
(-0.00523827 -0.0475639 2.5507e-20)
(-0.0102816 -0.0546327 -5.55045e-20)
(-0.0157627 -0.0600519 -8.66515e-20)
(-0.0213296 -0.0642795 -7.17781e-20)
(-0.0267198 -0.0676731 -1.73085e-20)
(-0.0317467 -0.0704993 -1.23548e-19)
(-0.0362818 -0.0729445 9.74631e-20)
(-0.0402419 -0.0751267 -1.52e-19)
(-0.0435797 -0.077108 7.6422e-20)
(-0.0462772 -0.0789069 -2.57532e-20)
(-0.0483398 -0.0805096 5.8663e-20)
(-0.0497931 -0.0818806 -1.47062e-19)
(-0.050679 -0.0829727 7.04608e-20)
(-0.0510543 -0.0837353 4.91395e-21)
(-0.0509876 -0.0841226 3.13768e-20)
(-0.0505565 -0.0841004 1.88055e-19)
(-0.0498458 -0.0836521 4.07389e-20)
(-0.0489484 -0.0827849 -4.38827e-21)
(-0.0479589 -0.081531 1.16183e-20)
(-0.0469126 -0.07994 7.71728e-20)
(-0.0457564 -0.0780792 2.14695e-20)
(-0.0449263 -0.0761359 7.07763e-20)
(0.00126084 -0.00901643 -7.41813e-20)
(0.00139173 -0.0228159 1.05335e-19)
(-0.00140576 -0.033654 6.50822e-21)
(-0.00583546 -0.0421052 -1.28462e-19)
(-0.0111588 -0.0487172 2.69189e-19)
(-0.0169036 -0.0539763 -8.72134e-20)
(-0.0227033 -0.058277 1.26806e-19)
(-0.0282864 -0.0619269 1.161e-19)
(-0.03346 -0.0651533 -9.6091e-20)
(-0.0380911 -0.0681109 -1.39434e-19)
(-0.042093 -0.0708917 3.80708e-20)
(-0.0454151 -0.0735352 -4.00347e-20)
(-0.0480361 -0.0760389 -1.76822e-19)
(-0.0499584 -0.0783689 2.137e-19)
(-0.0512049 -0.0804692 -1.0217e-19)
(-0.051816 -0.0822713 -7.03159e-20)
(-0.051848 -0.0837026 2.78898e-22)
(-0.0513712 -0.0846946 5.64914e-20)
(-0.0504672 -0.0851911 2.33383e-20)
(-0.0492276 -0.0851554 -9.16106e-20)
(-0.047754 -0.0845776 1.02772e-19)
(-0.0461517 -0.0834783 -1.79432e-19)
(-0.0444731 -0.0819012 1.08745e-19)
(-0.0426916 -0.0799154 -8.30795e-20)
(-0.0412266 -0.0777278 2.23416e-20)
(0.0011625 -0.00757644 1.06596e-19)
(0.00105924 -0.0193221 -8.21083e-20)
(-0.00204196 -0.0287907 -5.24089e-20)
(-0.0067796 -0.0363857 -9.23616e-20)
(-0.0123868 -0.0425361 -1.69042e-19)
(-0.0183789 -0.0476408 -1.2498e-19)
(-0.0243818 -0.0520268 7.74961e-20)
(-0.0301194 -0.0559498 -1.17387e-19)
(-0.0353962 -0.0595976 1.48977e-19)
(-0.0400773 -0.0630943 -2.42096e-19)
(-0.0440735 -0.0665074 1.07296e-19)
(-0.0473315 -0.0698554 2.26174e-19)
(-0.0498266 -0.073117 -3.16998e-19)
(-0.0515576 -0.0762396 4.5106e-20)
(-0.0525436 -0.0791474 5.82658e-20)
(-0.0528219 -0.0817504 5.62949e-20)
(-0.0524471 -0.0839525 -6.10969e-20)
(-0.0514896 -0.0856599 -1.55385e-20)
(-0.0500344 -0.0867899 -4.3872e-20)
(-0.0481792 -0.0872799 -3.68259e-20)
(-0.0460356 -0.0870965 -1.98435e-19)
(-0.0437211 -0.0862419 -1.29389e-20)
(-0.0413078 -0.0847478 1.84312e-21)
(-0.0388006 -0.0826805 -8.8702e-20)
(-0.0366144 -0.0802649 9.00593e-20)
(0.000956086 -0.00606435 2.93324e-21)
(0.000482343 -0.0156753 3.36863e-20)
(-0.00299022 -0.0237327 3.48348e-20)
(-0.00805817 -0.0304522 2.05273e-20)
(-0.0139408 -0.0361344 1.71326e-19)
(-0.0201509 -0.041085 1.60593e-19)
(-0.0263139 -0.0455602 -1.30675e-19)
(-0.0321547 -0.0497628 -3.94031e-20)
(-0.0374789 -0.0538414 -3.51655e-20)
(-0.042152 -0.057891 1.81395e-19)
(-0.0460842 -0.0619566 6.46378e-20)
(-0.0492203 -0.0660386 -9.46833e-20)
(-0.0515325 -0.0700995 -7.94533e-20)
(-0.0530153 -0.0740703 1.91406e-19)
(-0.0536833 -0.0778574 -4.72054e-20)
(-0.0535693 -0.0813501 -5.67548e-20)
(-0.0527244 -0.0844281 -7.88765e-20)
(-0.0512177 -0.0869698 -6.09965e-20)
(-0.0491361 -0.0888619 -7.70925e-20)
(-0.046583 -0.0900093 -5.00424e-20)
(-0.0436803 -0.0903472 2.07823e-19)
(-0.0405597 -0.0898501 -1.01636e-19)
(-0.0373154 -0.0885285 6.81563e-20)
(-0.0339895 -0.086439 -1.78921e-19)
(-0.0310082 -0.0838202 7.28767e-20)
(0.0006398 -0.00449827 -9.50685e-20)
(-0.000337489 -0.0119164 -2.46662e-20)
(-0.00423937 -0.0185319 -1.93736e-19)
(-0.00964725 -0.0243601 -9.26569e-20)
(-0.0157826 -0.0295654 -1.83323e-19)
(-0.0221659 -0.0343558 -1.91301e-20)
(-0.0284301 -0.0389144 9.81726e-20)
(-0.0343065 -0.0433907 -5.94792e-20)
(-0.0396058 -0.0478951 1.28504e-19)
(-0.0441966 -0.0524951 -3.11653e-19)
(-0.0479908 -0.057216 -8.76687e-21)
(-0.0509324 -0.0620435 5.50205e-20)
(-0.0529909 -0.0669271 -6.97098e-20)
(-0.054157 -0.071785 6.28896e-20)
(-0.0544396 -0.0765089 -4.80614e-20)
(-0.0538662 -0.0809696 -1.02184e-19)
(-0.052483 -0.0850232 1.85516e-19)
(-0.0503559 -0.0885191 1.14101e-19)
(-0.0475717 -0.0913093 -2.39449e-20)
(-0.0442391 -0.0932603 7.39486e-20)
(-0.04049 -0.0942665 -1.4599e-19)
(-0.036472 -0.0942631 2.08545e-19)
(-0.0323041 -0.0932269 -2.84073e-19)
(-0.0280717 -0.0911935 5.87246e-20)
(-0.0242319 -0.0884079 -1.07695e-19)
(0.000214953 -0.00289975 5.12853e-21)
(-0.00139167 -0.0080933 -8.37365e-20)
(-0.00576846 -0.0132491 1.25098e-19)
(-0.0115111 -0.018174 2.56406e-19)
(-0.01786 -0.0228915 -4.00605e-21)
(-0.0243544 -0.0275087 2.90089e-20)
(-0.0306423 -0.0321346 -1.09435e-19)
(-0.036467 -0.0368654 5.14966e-20)
(-0.0416486 -0.041774 3.52633e-19)
(-0.0460621 -0.0469031 -8.00346e-20)
(-0.0496228 -0.052261 -9.39175e-20)
(-0.0522759 -0.057822 3.55009e-19)
(-0.0539895 -0.0635271 1.15021e-19)
(-0.0547505 -0.0692864 5.44486e-20)
(-0.0545629 -0.0749809 5.55025e-20)
(-0.0534478 -0.0804667 1.51563e-19)
(-0.0514452 -0.085579 -5.77362e-20)
(-0.0486164 -0.0901388 1.5172e-19)
(-0.0450466 -0.0939614 2.03967e-19)
(-0.0408477 -0.0968686 -1.7323e-19)
(-0.0361618 -0.0987049 2.55201e-19)
(-0.0311534 -0.0993529 8.88852e-20)
(-0.0259688 -0.0987393 -3.39167e-19)
(-0.020743 -0.0968619 4.87053e-19)
(-0.0159886 -0.0939614 -3.90574e-19)
(-0.000313638 -0.00129342 -2.3946e-19)
(-0.0026639 -0.00426031 1.31406e-19)
(-0.00754643 -0.00795299 -8.80515e-20)
(-0.0136022 -0.0119674 -8.38954e-20)
(-0.0201079 -0.0161845 -9.01462e-20)
(-0.0266318 -0.0206094 -9.80149e-20)
(-0.032845 -0.0252762 2.70137e-20)
(-0.0385084 -0.0302283 2.5509e-19)
(-0.0434553 -0.0355029 -5.49412e-20)
(-0.0475703 -0.0411191 -1.4211e-19)
(-0.0507748 -0.0470715 -8.64453e-20)
(-0.0530171 -0.0533268 -3.53952e-20)
(-0.0542657 -0.0598219 1.0344e-19)
(-0.0545052 -0.0664636 -6.64931e-20)
(-0.0537351 -0.0731284 -2.15251e-19)
(-0.0519706 -0.079663 -2.35775e-19)
(-0.0492452 -0.0858867 9.37259e-20)
(-0.0456142 -0.0915952 -1.73092e-19)
(-0.0411596 -0.0965676 1.47914e-19)
(-0.0359951 -0.100578 -4.18364e-19)
(-0.0302716 -0.103411 3.18149e-19)
(-0.0241718 -0.104883 -4.17232e-19)
(-0.0178707 -0.104852 -6.50142e-21)
(-0.0115591 -0.103254 -1.3671e-19)
(-0.00583469 -0.100308 4.00509e-19)
(-0.000937411 0.000293624 3.67147e-19)
(-0.00412996 -0.000476961 5.38711e-20)
(-0.00953236 -0.00271925 -3.52945e-20)
(-0.0158622 -0.00582254 -1.50642e-20)
(-0.0224491 -0.00952642 2.7858e-19)
(-0.0289008 -0.0137344 9.05029e-20)
(-0.0349184 -0.0184067 8.19093e-20)
(-0.0402858 -0.0235345 -6.59349e-20)
(-0.0448533 -0.0291201 2.53889e-19)
(-0.0485183 -0.0351612 -1.24763e-19)
(-0.0512109 -0.0416407 8.06819e-20)
(-0.0528851 -0.048521 2.0378e-19)
(-0.0535117 -0.0557394 -1.15328e-19)
(-0.0530753 -0.063205 1.24186e-19)
(-0.0515729 -0.0707958 1.16881e-19)
(-0.049015 -0.0783567 3.99254e-20)
(-0.0454291 -0.0856982 -9.6656e-20)
(-0.0408647 -0.0925972 2.67906e-19)
(-0.0353992 -0.0988007 -2.45798e-20)
(-0.0291464 -0.104035 -2.69214e-20)
(-0.0222652 -0.10802 3.12774e-19)
(-0.0149561 -0.110494 -2.19214e-19)
(-0.00742382 -0.11122 3.6704e-19)
(8.14479e-05 -0.110045 -3.00224e-19)
(0.00683978 -0.107145 3.84582e-19)
(-0.00164405 0.00183271 -1.76731e-19)
(-0.00575792 0.00319358 3.92515e-20)
(-0.0116762 0.00237089 -4.0737e-20)
(-0.018223 0.000171346 -1.94378e-19)
(-0.0247968 -0.00300823 1.12033e-20)
(-0.0310537 -0.0069721 1.10437e-19)
(-0.0367314 -0.0116077 -4.49699e-19)
(-0.0416416 -0.0168552 3.35348e-19)
(-0.0456552 -0.0226829 -3.26357e-19)
(-0.048685 -0.0290679 -2.05527e-19)
(-0.0506726 -0.0359833 1.83912e-19)
(-0.05158 -0.0433896 -3.966e-19)
(-0.0513835 -0.051228 3.33303e-19)
(-0.0500704 -0.0594146 -1.06104e-19)
(-0.0476379 -0.0678359 -3.00266e-19)
(-0.0440947 -0.0763428 7.37643e-20)
(-0.0394645 -0.0847465 -6.93094e-20)
(-0.0337917 -0.0928149 2.5018e-20)
(-0.0271496 -0.100272 -9.24599e-20)
(-0.0196509 -0.106801 -3.00042e-19)
(-0.011461 -0.112059 6.76418e-20)
(-0.00279737 -0.115693 -2.12131e-22)
(0.00610631 -0.117354 -2.97742e-19)
(0.0149396 -0.116762 2.08936e-19)
(0.0228177 -0.11402 -1.78419e-19)
(-0.00241773 0.00329483 7.13932e-20)
(-0.00750888 0.00668674 1.31697e-19)
(-0.01392 0.00723307 1.84802e-19)
(-0.020609 0.00591949 9.49726e-20)
(-0.0270568 0.00327098 -9.32868e-20)
(-0.0329759 -0.000421487 2.2251e-19)
(-0.0381463 -0.00497499 1.64692e-19)
(-0.0424113 -0.0102797 -6.00606e-20)
(-0.0456656 -0.0162704 2.1373e-19)
(-0.0478396 -0.0229041 -2.19736e-19)
(-0.0488891 -0.0301446 -6.43032e-20)
(-0.0487865 -0.0379514 6.52814e-20)
(-0.0475166 -0.0462716 1.28717e-19)
(-0.0450728 -0.0550326 1.59894e-21)
(-0.0414564 -0.0641344 8.05895e-20)
(-0.0366783 -0.073442 1.47741e-19)
(-0.0307619 -0.0827777 -2.50452e-19)
(-0.0237501 -0.091913 3.09463e-19)
(-0.0157135 -0.100562 1.02287e-19)
(-0.00676351 -0.108378 3.40263e-20)
(0.00292902 -0.114963 -3.64926e-19)
(0.0131307 -0.119872 5.20574e-20)
(0.0235823 -0.122625 7.89021e-20)
(0.0339173 -0.122779 -1.77392e-20)
(0.0430386 -0.120323 8.73395e-20)
(-0.00323966 0.00465195 5.59306e-21)
(-0.00933811 0.00993918 -3.393e-19)
(-0.0161997 0.0117828 -8.63001e-21)
(-0.0229389 0.0113246 -8.56691e-20)
(-0.0291304 0.00920647 -5.63629e-19)
(-0.0345495 0.00580901 4.86732e-19)
(-0.0390231 0.00138227 -3.46344e-19)
(-0.0424292 -0.00391533 -1.74665e-20)
(-0.0446884 -0.00998541 -1.6342e-19)
(-0.0457514 -0.0167643 2.82251e-19)
(-0.0455894 -0.0242057 -3.03413e-19)
(-0.0441882 -0.0322679 -1.41706e-19)
(-0.0415437 -0.0409043 3.15418e-21)
(-0.0376593 -0.0500546 -3.04201e-19)
(-0.0325448 -0.0596359 4.14099e-19)
(-0.0262183 -0.0695339 -4.76743e-19)
(-0.0187088 -0.0795917 1.55754e-21)
(-0.0100621 -0.0895976 7.27509e-20)
(-0.00035025 -0.0992733 -1.78259e-19)
(0.0103145 -0.108262 1.70375e-19)
(0.0217565 -0.116126 -2.42294e-19)
(0.0337277 -0.122343 -1.56569e-19)
(0.0459489 -0.126294 2.88278e-19)
(0.0580088 -0.127332 -3.11452e-19)
(0.06855 -0.125298 -4.87247e-21)
(-0.00408887 0.00587857 -2.86562e-19)
(-0.0111967 0.0128916 3.29319e-19)
(-0.0184471 0.0159385 -1.0171e-19)
(-0.0251282 0.01629 1.96e-19)
(-0.0309171 0.0146912 2.11527e-19)
(-0.0356563 0.0116049 -1.86331e-19)
(-0.0392233 0.00734427 -1.23485e-19)
(-0.041533 0.00211457 -1.47868e-19)
(-0.0425339 -0.00395267 1.35326e-19)
(-0.042198 -0.0107722 -8.95995e-21)
(-0.040514 -0.0182858 1.96851e-19)
(-0.0374828 -0.0264487 1.93651e-19)
(-0.0331143 -0.0352184 -2.30293e-19)
(-0.0274253 -0.044546 4.51368e-19)
(-0.0204394 -0.0543664 -2.97913e-19)
(-0.0121873 -0.0645888 -5.02646e-20)
(-0.00271035 -0.0750838 5.73707e-19)
(0.00793536 -0.0856693 -2.6526e-19)
(0.0196704 -0.0960922 1.65879e-19)
(0.0323774 -0.10601 3.20847e-19)
(0.0458741 -0.114973 -2.07596e-19)
(0.0598989 -0.122407 2.23426e-20)
(0.0741594 -0.127566 -1.32878e-20)
(0.0882204 -0.129574 -7.99343e-20)
(0.100423 -0.128084 1.52738e-19)
(-0.00494325 0.00695303 6.53855e-20)
(-0.0130332 0.0154916 -2.08805e-19)
(-0.0205915 0.0196254 1.14067e-19)
(-0.0270909 0.020724 -1.40333e-21)
(-0.0323161 0.01962 8.60417e-20)
(-0.03618 0.0168501 -1.4815e-19)
(-0.0386124 0.0127855 8.4786e-20)
(-0.0395675 0.00767615 2.30839e-19)
(-0.0390224 0.00168641 -6.92406e-21)
(-0.0369717 -0.00507554 -1.17766e-19)
(-0.0334228 -0.0125373 1.1834e-19)
(-0.0283934 -0.0206474 -2.89093e-21)
(-0.0219096 -0.0293642 -3.72868e-19)
(-0.0140055 -0.0386463 1.3834e-19)
(-0.0047226 -0.0484435 3.06657e-20)
(0.00588907 -0.0586871 -5.29998e-20)
(0.0177688 -0.069278 -9.29277e-20)
(0.0308415 -0.0800708 3.593e-19)
(0.0450116 -0.0908531 8.5996e-20)
(0.0601492 -0.10132 -1.84503e-19)
(0.0760616 -0.111047 -2.11262e-20)
(0.0924724 -0.119448 2.45974e-19)
(0.109083 -0.125686 -1.15166e-19)
(0.125465 -0.12865 4.75087e-20)
(0.139638 -0.12778 3.22915e-20)
(-0.00578059 0.00785873 -1.31126e-19)
(-0.0147957 0.017696 1.30497e-19)
(-0.0225622 0.0227786 -7.36396e-20)
(-0.0287414 0.0245436 -2.36482e-19)
(-0.0332279 0.0238947 -2.17878e-19)
(-0.0360063 0.0214327 -9.65717e-20)
(-0.0370605 0.0175815 -7.99754e-20)
(-0.0363844 0.0126326 -2.36569e-19)
(-0.0339851 0.0067828 -9.54684e-20)
(-0.0298805 0.000164167 8.68823e-20)
(-0.0240977 -0.00713404 -1.24145e-19)
(-0.0166725 -0.01505 -1.31121e-19)
(-0.0076499 -0.0235378 -1.22609e-19)
(0.00291604 -0.0325578 2.21255e-19)
(0.0149612 -0.0420689 -4.64871e-19)
(0.0284104 -0.0520194 2.6305e-19)
(0.0431756 -0.0623365 -4.49136e-19)
(0.0591533 -0.0729124 -6.85039e-20)
(0.0762211 -0.0835835 -2.4204e-19)
(0.0942262 -0.0941024 -5.53765e-20)
(0.112958 -0.104102 -6.7962e-20)
(0.13212 -0.113039 -2.22208e-19)
(0.151412 -0.120043 -2.21989e-20)
(0.170454 -0.123799 1.31193e-19)
(0.186958 -0.123532 -3.36023e-19)
(-0.00657968 0.0085849 1.12432e-19)
(-0.0164335 0.0194734 1.47234e-19)
(-0.024289 0.0253465 5.16644e-19)
(-0.0299943 0.027679 -9.07681e-20)
(-0.0335534 0.0274289 2.16079e-19)
(-0.0350223 0.0252514 5.15287e-19)
(-0.0344395 0.0216167 -1.40426e-19)
(-0.0318396 0.0168543 1.9017e-19)
(-0.0272604 0.011192 1.10981e-19)
(-0.0207437 0.00478644 2.00981e-19)
(-0.0123375 -0.00225399 -4.03018e-20)
(-0.0020976 -0.00985339 2.71681e-20)
(0.00991027 -0.0179563 -6.95656e-20)
(0.0236088 -0.0265187 3.78725e-19)
(0.038907 -0.0355003 4.87822e-20)
(0.0556988 -0.0448577 3.48063e-19)
(0.0738611 -0.0545361 -8.80969e-20)
(0.0932524 -0.0644582 3.13908e-19)
(0.113711 -0.0745073 4.27138e-20)
(0.135048 -0.0845009 1.55884e-19)
(0.157022 -0.0941556 -6.58567e-20)
(0.179308 -0.10302 -8.63076e-21)
(0.201599 -0.110271 3.57804e-19)
(0.223613 -0.114456 2.1307e-19)
(0.242823 -0.114622 -8.84144e-20)
(-0.0073212 0.00912694 -2.72921e-19)
(-0.0178981 0.0208045 -2.77041e-19)
(-0.0257035 0.0272926 -2.89798e-19)
(-0.0307649 0.0300768 1.06121e-19)
(-0.0331925 0.0301536 -2.13465e-19)
(-0.0331129 0.0282227 -3.18458e-20)
(-0.0306191 0.0247936 -8.39202e-20)
(-0.025787 0.0202297 -3.48257e-19)
(-0.0186855 0.0147878 -5.43696e-20)
(-0.00938199 0.00864913 8.93087e-20)
(0.0020533 0.00194245 -2.79921e-19)
(0.0155426 -0.00523926 3.876e-19)
(0.0309969 -0.0128265 -5.25317e-19)
(0.0483121 -0.0207645 1.2599e-19)
(0.0673662 -0.0290058 -3.19968e-19)
(0.0880164 -0.0375052 -2.57934e-19)
(0.110097 -0.0462138 -1.41887e-20)
(0.13342 -0.0550721 -3.7785e-20)
(0.15777 -0.0639978 3.10133e-20)
(0.182907 -0.0728671 -1.42111e-19)
(0.208543 -0.0814862 -9.71296e-20)
(0.234307 -0.0895316 1.17127e-19)
(0.259868 -0.0963097 -3.20655e-19)
(0.285079 -0.100331 1.02961e-19)
(0.307329 -0.100545 6.82442e-20)
(-0.00798835 0.00948623 -4.84889e-20)
(-0.0191443 0.021683 -8.05734e-20)
(-0.0267386 0.0285974 3.127e-19)
(-0.030967 0.0317031 1.16427e-19)
(-0.0320412 0.0320213 1.54217e-19)
(-0.0301565 0.0302866 -2.06002e-19)
(-0.0254603 0.0270405 2.83639e-22)
(-0.0180698 0.0226761 -1.66921e-19)
(-0.00808656 0.0174763 3.08479e-19)
(0.00439505 0.0116459 1.00653e-19)
(0.0192801 0.00533422 1.12652e-19)
(0.0364661 -0.0013468 -4.48435e-19)
(0.0558372 -0.00831055 5.51773e-19)
(0.0772585 -0.0154864 -1.65834e-19)
(0.100572 -0.0228133 -1.17962e-19)
(0.125593 -0.0302348 3.51661e-19)
(0.152106 -0.0376953 1.55175e-19)
(0.179865 -0.0451367 -3.92138e-19)
(0.208593 -0.0524926 -1.60446e-19)
(0.237982 -0.0596771 4.84497e-19)
(0.267675 -0.0665705 -3.64606e-19)
(0.297235 -0.0729838 2.17751e-19)
(0.326269 -0.0784196 1.1739e-19)
(0.35478 -0.0814688 -1.50644e-19)
(0.380306 -0.0810626 -1.38418e-19)
(-0.00856703 0.00966944 -1.78411e-19)
(-0.02013 0.0221147 2.77127e-19)
(-0.0273279 0.0292586 1.18134e-19)
(-0.0305113 0.0325455 -1.70625e-19)
(-0.029988 0.0330098 -2.7267e-20)
(-0.02602 0.0314121 -1.79145e-19)
(-0.0188081 0.0283195 -7.14605e-20)
(-0.00851186 0.0241495 8.02361e-20)
(0.00473287 0.0192081 -1.99987e-20)
(0.0208021 0.0137212 1.51503e-19)
(0.0395729 0.00785832 -1.31463e-19)
(0.0609138 0.00175031 3.63512e-19)
(0.0846771 -0.00449776 -4.49657e-19)
(0.110692 -0.0107971 2.80336e-19)
(0.138758 -0.0170683 3.46433e-19)
(0.168643 -0.0232368 -4.9874e-19)
(0.200075 -0.0292299 -1.50263e-19)
(0.232744 -0.034975 2.52585e-19)
(0.266298 -0.0403978 -1.5462e-19)
(0.300343 -0.0454188 1.46452e-19)
(0.334435 -0.0499539 -3.53065e-19)
(0.368034 -0.0539161 5.97657e-20)
(0.400631 -0.0570212 2.22003e-19)
(0.432352 -0.0580068 -3.50433e-19)
(0.461211 -0.0558211 9.58143e-20)
(-0.0090456 0.00968739 -1.65111e-19)
(-0.0208153 0.0221163 5.1735e-19)
(-0.0274036 0.02929 9.93727e-20)
(-0.0293025 0.032613 -2.68566e-19)
(-0.0269102 0.0331236 1.92453e-19)
(-0.0205531 0.0316009 9.78515e-20)
(-0.0104852 0.0286313 1.56399e-19)
(0.00308997 0.0246515 -1.01321e-20)
(0.0199999 0.0199867 -1.62033e-20)
(0.0400869 0.0148814 -3.40669e-20)
(0.0631946 0.0095228 -1.48833e-19)
(0.0891564 0.00405919 -4.81544e-21)
(0.117786 -0.00138714 3.47181e-19)
(0.148868 -0.0067097 -5.67204e-19)
(0.182155 -0.0118104 4.03274e-19)
(0.21736 -0.0165942 8.15965e-20)
(0.254151 -0.0209646 1.43422e-19)
(0.292152 -0.0248215 -7.15224e-20)
(0.330932 -0.028058 6.40964e-19)
(0.370007 -0.0305585 -3.9353e-19)
(0.408815 -0.0322061 3.10303e-19)
(0.446657 -0.032917 7.06524e-20)
(0.48279 -0.0324872 -2.19768e-19)
(0.517281 -0.0296362 1.8401e-19)
(0.548856 -0.0233683 2.72541e-19)
(-0.00941424 0.00955375 -4.80326e-20)
(-0.0211614 0.0217126 -1.82394e-19)
(-0.026895 0.0287204 -3.11731e-19)
(-0.0272366 0.0319361 -1.77728e-19)
(-0.02267 0.0323954 -2.48301e-20)
(-0.0135845 0.0308896 -7.0205e-20)
(-0.00028795 0.0280185 -3.25943e-19)
(0.0169701 0.0242335 5.39656e-20)
(0.0379757 0.0198745 -3.66549e-19)
(0.0625312 0.0152006 -2.84491e-20)
(0.0904388 0.0104134 -3.51295e-19)
(0.121487 0.00567461 -1.24876e-19)
(0.155439 0.00111942 7.14695e-20)
(0.192028 -0.0031329 -3.39931e-19)
(0.230947 -0.00697113 3.2375e-21)
(0.27185 -0.0102851 -2.9025e-19)
(0.314348 -0.0129595 1.11185e-19)
(0.358009 -0.0148667 -3.99835e-19)
(0.402357 -0.015858 -6.70095e-20)
(0.446866 -0.0157511 -8.31548e-21)
(0.490928 -0.0143258 -6.52339e-20)
(0.533766 -0.0113375 -6.67624e-20)
(0.574411 -0.00629636 -3.42257e-20)
(0.612298 0.00257127 -1.29217e-19)
(0.645229 0.0157857 -2.64741e-19)
(-0.009664 0.00928359 8.76135e-20)
(-0.0211283 0.0209349 2.313e-19)
(-0.0257253 0.0275913 2.78009e-19)
(-0.0241978 0.0305647 -2.22128e-19)
(-0.017112 0.0308843 4.12507e-19)
(-0.00491966 0.0293488 -2.23983e-19)
(0.0120155 0.0265665 1.21707e-19)
(0.0333935 0.0229979 1.89976e-19)
(0.0589519 0.0189934 1.72896e-19)
(0.088443 0.014822 8.40878e-20)
(0.121615 0.0106942 1.35796e-19)
(0.158196 0.00677885 7.90214e-20)
(0.197886 0.00321661 5.31861e-19)
(0.240344 0.00012951 -3.85442e-19)
(0.285193 -0.0023708 4.38725e-19)
(0.332015 -0.00417599 -1.80995e-19)
(0.38036 -0.00517368 3.88559e-19)
(0.429753 -0.00523848 -1.95713e-20)
(0.479709 -0.00421862 -7.97256e-20)
(0.529753 -0.00191549 -1.31574e-20)
(0.579431 0.00194338 2.91881e-19)
(0.628346 0.00777935 -2.78303e-19)
(0.676367 0.0165702 1.96269e-19)
(0.72379 0.0303754 2.07258e-19)
(0.76566 0.0461011 3.92433e-20)
(-0.00978535 0.00889191 6.06435e-20)
(-0.0206728 0.0198179 -3.30738e-19)
(-0.02381 0.0259539 -1.20091e-19)
(-0.0200575 0.028566 1.09852e-19)
(-0.0100626 0.0286749 -3.37991e-19)
(0.00565829 0.0270827 -6.67007e-20)
(0.0266816 0.0244014 4.63013e-20)
(0.0526493 0.0210963 1.83154e-19)
(0.0832392 0.0175226 -4.63357e-19)
(0.118139 0.0139535 3.52484e-20)
(0.157024 0.0106015 -1.35497e-19)
(0.199542 0.00763458 -4.10854e-19)
(0.245301 0.0051881 2.79481e-19)
(0.293869 0.00337389 1.20521e-20)
(0.344768 0.00228723 -8.36879e-21)
(0.397489 0.0020127 2.7783e-19)
(0.451494 0.00262951 -4.88326e-19)
(0.506245 0.00421695 3.83466e-19)
(0.561216 0.00686034 -7.21736e-20)
(0.615929 0.0106568 2.14844e-19)
(0.669984 0.0157169 -3.55479e-19)
(0.723101 0.0221802 1.97494e-19)
(0.775297 0.0303966 -3.47732e-19)
(0.827 0.0410855 3.4738e-19)
(0.873237 0.0507609 -1.12085e-19)
(-0.00976685 0.00839258 4.07532e-19)
(-0.0197458 0.0183978 -6.63277e-20)
(-0.0210547 0.0238668 4.89062e-19)
(-0.0146728 0.0260219 2.26473e-19)
(-0.00133107 0.0258737 1.83184e-20)
(0.0183851 0.024225 9.88947e-20)
(0.0439843 0.021687 2.38891e-20)
(0.0750384 0.0187244 4.03346e-19)
(0.111149 0.0156915 1.29987e-19)
(0.151918 0.0128585 -1.74086e-20)
(0.196923 0.0104316 3.50833e-20)
(0.245701 0.00856738 1.34449e-19)
(0.297744 0.00738418 1.11718e-19)
(0.352491 0.0069696 2.37515e-19)
(0.40934 0.0073867 -2.71017e-19)
(0.467659 0.00867878 8.07936e-20)
(0.526802 0.0108732 2.54829e-20)
(0.586136 0.0139845 1.18316e-19)
(0.645063 0.018016 3.13844e-19)
(0.703052 0.0229587 -2.07225e-19)
(0.75966 0.0287848 1.43975e-20)
(0.814558 0.0354372 -2.77621e-19)
(0.8676 0.0429102 2.56042e-19)
(0.918911 0.0515138 -2.40752e-19)
(0.964349 0.0592373 2.78667e-20)
(-0.00959396 0.00779779 -3.39842e-19)
(-0.0182913 0.0167112 2.59705e-19)
(-0.017354 0.021394 -4.22516e-19)
(-0.00788748 0.0230261 3.64005e-20)
(0.0092876 0.0226064 2.97459e-19)
(0.0335083 0.0209353 -4.95536e-19)
(0.0642027 0.0186187 3.9334e-19)
(0.100855 0.0161148 -6.24099e-19)
(0.142968 0.0137696 1.24305e-19)
(0.190028 0.0118417 2.65733e-20)
(0.241484 0.0105203 2.09164e-19)
(0.296731 0.0099389 -6.94932e-19)
(0.355104 0.0101852 1.20165e-19)
(0.41589 0.0113083 1.26422e-19)
(0.478333 0.0133251 -7.52501e-20)
(0.541658 0.0162244 -4.62929e-19)
(0.605098 0.019972 2.18815e-19)
(0.667919 0.0245129 4.01269e-19)
(0.729447 0.0297731 -4.18251e-19)
(0.789096 0.035659 3.00026e-19)
(0.846385 0.0420516 -3.80627e-19)
(0.900945 0.0487962 2.74043e-19)
(0.952538 0.0557496 -7.22161e-20)
(1.00114 0.0631118 4.10265e-19)
(1.04369 0.0700417 -4.58034e-19)
(-0.00924801 0.00711771 4.85433e-20)
(-0.0162441 0.0147938 3.83137e-20)
(-0.0125916 0.0186034 9.3571e-20)
(0.000465586 0.0196819 3.34571e-19)
(0.0220065 0.0190139 -1.05756e-20)
(0.0512768 0.0173939 7.46744e-20)
(0.0876058 0.0154169 3.33136e-19)
(0.130365 0.0135273 1.3447e-19)
(0.178927 0.0120535 -4.43518e-20)
(0.23263 0.0112314 3.76958e-19)
(0.290754 0.0112205 -4.28668e-19)
(0.352514 0.0121169 6.56917e-19)
(0.417061 0.0139631 -2.6007e-19)
(0.483498 0.0167557 4.69553e-19)
(0.5509 0.0204528 -1.58455e-19)
(0.618349 0.0249804 5.74074e-20)
(0.68496 0.0302389 6.9227e-20)
(0.749919 0.036108 -1.30184e-19)
(0.812506 0.0424509 1.09833e-19)
(0.87212 0.0491164 6.9736e-20)
(0.92829 0.0559385 9.39958e-20)
(0.980675 0.062732 1.93334e-19)
(1.02906 0.0693215 -1.93177e-20)
(1.07341 0.0758566 -8.72427e-20)
(1.11178 0.0823094 2.46616e-19)
(-0.00870553 0.00636077 -2.83794e-19)
(-0.0135302 0.0126805 2.99672e-20)
(-0.00664162 0.0155659 -5.38873e-19)
(0.0105605 0.0161004 -1.28608e-19)
(0.037039 0.0152497 -2.41085e-19)
(0.0719286 0.0137974 -5.16058e-20)
(0.114433 0.0123202 -2.5829e-19)
(0.16378 0.0112389 -1.54513e-19)
(0.219172 0.0108529 2.04331e-19)
(0.279758 0.011361 -3.41086e-19)
(0.344611 0.0128778 -9.47149e-20)
(0.412729 0.0154458 3.49843e-21)
(0.483051 0.0190466 -6.36137e-19)
(0.554482 0.0236109 2.69556e-19)
(0.625934 0.0290284 -3.91162e-19)
(0.696356 0.0351579 -1.16987e-20)
(0.764783 0.0418365 7.48579e-20)
(0.830364 0.0488885 -1.23408e-19)
(0.892391 0.0561323 -1.06968e-19)
(0.950313 0.0633859 5.10063e-20)
(1.00374 0.0704701 5.58788e-20)
(1.05244 0.0772088 -3.63318e-19)
(1.0963 0.083445 2.05969e-19)
(1.13541 0.0893048 9.87338e-20)
(1.1687 0.0952454 2.24763e-20)
(-0.00793812 0.00553428 2.90014e-19)
(-0.0100672 0.0104068 -3.0906e-19)
(0.000629025 0.0123557 4.33655e-19)
(0.022573 0.0123995 6.77561e-20)
(0.0545898 0.0114771 -2.07085e-20)
(0.095676 0.0103536 -1.45649e-19)
(0.144876 0.0095775 2.19417e-20)
(0.201232 0.0095334 2.21843e-19)
(0.263734 0.0104761 -3.06037e-19)
(0.331295 0.0125507 3.21305e-19)
(0.402741 0.0158083 -3.3917e-20)
(0.476825 0.0202204 1.56647e-20)
(0.552262 0.0256924 4.15098e-19)
(0.627765 0.0320778 5.5263e-19)
(0.7021 0.0391924 -2.16455e-19)
(0.774134 0.0468283 3.78649e-19)
(0.842873 0.0547676 1.88625e-19)
(0.907499 0.0627939 -1.16868e-19)
(0.967388 0.0707016 3.60662e-19)
(1.02211 0.0783026 -1.69777e-20)
(1.07144 0.085431 -3.38853e-19)
(1.1153 0.0919438 3.51365e-19)
(1.15378 0.0977261 4.68778e-20)
(1.1871 0.102901 -2.10174e-19)
(1.21489 0.108175 6.60631e-20)
(-0.00691279 0.00464545 -4.02987e-19)
(-0.00576557 0.00800974 4.21197e-19)
(0.00935684 0.00905137 -2.67098e-19)
(0.0366735 0.00870383 -8.31299e-20)
(0.0748436 0.00786728 -1.8674e-19)
(0.122691 0.00727763 3.30384e-19)
(0.179058 0.0074415 -1.91677e-19)
(0.242753 0.00869068 -8.7854e-20)
(0.312504 0.0112166 -2.51226e-19)
(0.386945 0.01509 6.63373e-21)
(0.464622 0.0202788 -9.83013e-20)
(0.544031 0.0266655 4.72754e-20)
(0.623663 0.0340664 -4.99604e-19)
(0.702071 0.0422505 1.42408e-19)
(0.777928 0.0509596 -1.69978e-19)
(0.850077 0.0599273 -1.35252e-19)
(0.917578 0.0688947 4.12956e-20)
(0.979725 0.0776243 -1.93979e-19)
(1.03605 0.0859094 -8.03524e-20)
(1.08633 0.0935797 2.35948e-19)
(1.13054 0.100504 9.6598e-20)
(1.16882 0.106587 -4.11811e-19)
(1.20146 0.11177 2.97972e-19)
(1.22887 0.116191 -5.57729e-20)
(1.25113 0.120631 -1.12218e-19)
(-0.0055927 0.00370249 -1.4646e-19)
(-0.000531429 0.00553025 -7.82892e-20)
(0.0196771 0.00573736 -1.54926e-20)
(0.0530196 0.00514501 1.15008e-19)
(0.0979551 0.00459807 1.24911e-19)