/*--------------------------------*- C++ -*----------------------------------*\
  =========                 |
  \\      /  F ield         | OpenFOAM: The Open Source CFD Toolbox
   \\    /   O peration     | Website:  https://openfoam.org
    \\  /    A nd           | Version:  6.0
     \\/     M anipulation  |
\*---------------------------------------------------------------------------*/
FoamFile
{
    version     2.0;
    format      ascii;
    class       volScalarField;
    location    "107";
    object      p;
}
// * * * * * * * * * * * * * * * * * * * * * * * * * * * * * * * * * * * * * //

dimensions      [0 2 -2 0 0 0 0];

internalField   nonuniform List<scalar> 
12500
(
-0.451913
-0.452013
-0.451894
-0.451582
-0.451203
-0.450872
-0.450682
-0.450693
-0.450934
-0.451417
-0.452138
-0.453091
-0.454264
-0.455649
-0.457234
-0.45901
-0.460964
-0.463083
-0.46535
-0.467746
-0.47025
-0.472839
-0.475461
-0.478056
-0.480836
-0.448637
-0.449278
-0.449477
-0.449375
-0.449161
-0.448958
-0.448861
-0.448929
-0.44919
-0.44965
-0.450305
-0.451145
-0.452161
-0.453343
-0.454681
-0.456167
-0.457792
-0.459546
-0.461413
-0.46338
-0.465429
-0.46754
-0.469653
-0.471697
-0.474034
-0.445325
-0.446524
-0.447048
-0.447159
-0.447111
-0.447035
-0.447026
-0.447142
-0.447408
-0.447829
-0.448397
-0.4491
-0.449929
-0.450874
-0.451927
-0.453082
-0.454333
-0.455673
-0.457092
-0.458579
-0.460123
-0.461707
-0.463261
-0.464709
-0.466569
-0.442099
-0.44386
-0.444709
-0.445033
-0.445152
-0.445201
-0.445276
-0.445434
-0.445696
-0.446063
-0.446525
-0.447068
-0.447681
-0.448355
-0.449084
-0.449864
-0.450694
-0.451568
-0.452484
-0.453436
-0.454419
-0.455424
-0.456365
-0.457165
-0.458515
-0.439094
-0.441404
-0.442571
-0.443106
-0.443391
-0.443566
-0.443723
-0.443918
-0.444168
-0.44447
-0.44481
-0.445172
-0.445543
-0.445913
-0.446278
-0.446637
-0.446992
-0.447346
-0.447698
-0.448052
-0.448414
-0.448777
-0.449045
-0.449144
-0.449942
-0.436449
-0.439277
-0.440749
-0.44149
-0.441941
-0.442241
-0.44248
-0.442711
-0.442946
-0.443176
-0.443382
-0.443546
-0.44365
-0.443685
-0.443646
-0.443536
-0.443362
-0.443131
-0.442854
-0.44254
-0.442209
-0.441861
-0.441388
-0.440722
-0.440923
-0.4343
-0.437601
-0.439355
-0.440295
-0.44091
-0.441336
-0.441661
-0.44193
-0.442149
-0.442305
-0.442371
-0.442323
-0.442141
-0.441812
-0.441332
-0.440706
-0.439944
-0.439063
-0.438081
-0.437021
-0.435916
-0.434776
-0.433481
-0.431977
-0.431526
-0.432775
-0.436486
-0.438494
-0.439622
-0.440398
-0.440954
-0.441369
-0.441681
-0.441891
-0.441976
-0.441902
-0.441637
-0.441156
-0.440441
-0.439486
-0.438298
-0.436891
-0.43529
-0.433523
-0.431629
-0.429656
-0.427629
-0.425417
-0.422987
-0.421817
-0.431984
-0.436026
-0.438253
-0.439556
-0.440491
-0.441179
-0.441691
-0.442058
-0.442269
-0.442292
-0.442085
-0.441607
-0.440822
-0.439708
-0.438253
-0.436462
-0.434356
-0.431964
-0.429329
-0.426503
-0.423559
-0.420535
-0.417295
-0.413831
-0.411864
-0.432011
-0.436293
-0.438698
-0.440161
-0.44125
-0.442074
-0.442693
-0.443126
-0.443354
-0.443333
-0.443009
-0.442329
-0.441248
-0.43973
-0.437761
-0.435339
-0.432487
-0.42924
-0.425652
-0.421795
-0.417766
-0.41362
-0.409221
-0.404596
-0.401734
-0.43291
-0.437332
-0.439868
-0.441472
-0.442708
-0.44367
-0.444406
-0.444922
-0.445186
-0.445143
-0.444725
-0.443865
-0.442505
-0.440596
-0.438111
-0.435045
-0.431414
-0.427259
-0.422642
-0.417655
-0.412421
-0.40702
-0.401317
-0.39538
-0.391509
-0.434699
-0.439153
-0.44177
-0.443492
-0.444865
-0.445967
-0.446828
-0.447442
-0.447764
-0.447723
-0.44724
-0.44623
-0.444619
-0.442344
-0.439362
-0.435654
-0.431232
-0.426134
-0.420429
-0.414226
-0.407673
-0.400881
-0.393716
-0.3863
-0.381286
-0.437357
-0.441736
-0.44438
-0.446194
-0.447691
-0.448928
-0.449919
-0.450643
-0.45104
-0.451028
-0.450509
-0.449384
-0.44756
-0.444955
-0.441507
-0.437184
-0.431982
-0.425933
-0.419108
-0.411624
-0.403658
-0.395348
-0.38657
-0.377498
-0.371193
-0.440828
-0.445027
-0.447643
-0.449517
-0.451117
-0.45248
-0.453599
-0.454439
-0.454926
-0.454962
-0.454434
-0.453228
-0.45123
-0.448338
-0.444472
-0.439577
-0.433632
-0.426656
-0.418712
-0.409922
-0.400482
-0.390559
-0.380035
-0.369144
-0.361389
-0.445021
-0.448944
-0.451476
-0.453375
-0.455053
-0.456522
-0.45776
-0.458712
-0.459291
-0.459385
-0.458868
-0.457607
-0.45547
-0.452336
-0.448103
-0.442693
-0.436065
-0.428216
-0.419195
-0.40912
-0.398196
-0.386612
-0.374259
-0.361418
-0.352062
-0.449822
-0.453382
-0.455776
-0.45766
-0.459381
-0.46093
-0.462264
-0.463313
-0.463976
-0.464126
-0.463623
-0.46232
-0.460069
-0.456729
-0.452177
-0.446314
-0.439073
-0.430431
-0.420414
-0.409125
-0.396768
-0.383544
-0.36935
-0.354492
-0.343403
-0.455095
-0.458224
-0.460428
-0.462254
-0.463978
-0.465569
-0.466966
-0.468083
-0.468804
-0.468991
-0.468491
-0.467144
-0.464785
-0.46126
-0.456426
-0.450163
-0.442382
-0.433037
-0.422131
-0.409743
-0.396063
-0.381296
-0.365337
-0.348483
-0.335571
-0.460698
-0.463346
-0.465314
-0.467034
-0.468713
-0.4703
-0.471716
-0.472859
-0.4736
-0.473789
-0.473264
-0.47185
-0.469374
-0.465664
-0.460565
-0.45394
-0.445682
-0.435723
-0.424043
-0.410697
-0.395851
-0.379703
-0.362144
-0.343418
-0.32865
-0.466494
-0.468627
-0.470318
-0.471886
-0.473469
-0.474998
-0.476378
-0.477494
-0.478204
-0.478349
-0.477754
-0.476237
-0.473613
-0.469702
-0.464336
-0.457366
-0.448674
-0.438174
-0.425829
-0.41167
-0.395837
-0.378515
-0.35959
-0.339207
-0.322618
-0.472352
-0.473958
-0.475339
-0.476708
-0.47814
-0.479553
-0.480839
-0.481867
-0.482488
-0.48253
-0.481811
-0.480142
-0.477329
-0.473185
-0.467535
-0.460224
-0.451122
-0.440136
-0.427217
-0.412379
-0.395735
-0.377457
-0.357431
-0.33567
-0.31736
-0.478166
-0.479248
-0.480294
-0.481421
-0.482649
-0.483885
-0.485013
-0.48589
-0.486357
-0.486236
-0.485335
-0.48346
-0.480412
-0.475999
-0.470042
-0.462381
-0.452885
-0.441456
-0.428041
-0.412642
-0.39535
-0.376327
-0.355469
-0.332641
-0.312757
-0.483853
-0.484429
-0.485122
-0.485968
-0.486941
-0.487943
-0.48885
-0.489513
-0.489763
-0.489417
-0.488278
-0.486145
-0.482817
-0.478101
-0.471815
-0.463801
-0.453928
-0.4421
-0.428264
-0.412416
-0.394633
-0.375065
-0.353637
-0.330061
-0.308754
-0.489359
-0.489458
-0.489788
-0.49032
-0.490991
-0.491705
-0.492333
-0.492722
-0.492697
-0.49207
-0.49064
-0.488204
-0.484559
-0.479513
-0.472888
-0.46453
-0.454313
-0.442147
-0.427981
-0.411806
-0.393679
-0.373734
-0.351916
-0.327775
-0.305087
-0.494661
-0.494318
-0.494281
-0.494471
-0.494801
-0.49518
-0.495478
-0.49554
-0.495188
-0.49423
-0.492464
-0.489687
-0.485698
-0.480309
-0.473351
-0.464679
-0.454183
-0.441783
-0.427438
-0.411135
-0.392902
-0.372807
-0.350692
-0.325828
-0.301502
-0.499763
-0.499015
-0.498613
-0.498441
-0.498398
-0.498401
-0.498326
-0.498016
-0.497293
-0.495963
-0.493826
-0.490678
-0.486326
-0.48059
-0.473317
-0.464382
-0.453701
-0.441226
-0.426953
-0.410911
-0.393157
-0.373733
-0.352337
-0.327967
-0.303359
-0.504698
-0.503579
-0.502814
-0.502265
-0.501826
-0.501424
-0.500941
-0.500223
-0.499093
-0.497357
-0.494817
-0.491275
-0.486546
-0.480463
-0.472894
-0.463743
-0.452963
-0.440556
-0.426587
-0.411183
-0.39455
-0.376963
-0.358706
-0.340779
-0.32795
-0.509516
-0.508055
-0.506932
-0.505997
-0.505145
-0.504316
-0.503399
-0.502245
-0.500679
-0.49851
-0.495542
-0.491584
-0.486462
-0.480028
-0.472171
-0.462828
-0.451988
-0.439702
-0.426087
-0.411331
-0.395704
-0.379555
-0.363311
-0.348002
-0.336765
-0.514286
-0.512501
-0.511023
-0.509699
-0.508424
-0.507153
-0.505785
-0.504174
-0.502149
-0.499522
-0.496102
-0.491706
-0.486172
-0.479372
-0.47122
-0.461683
-0.450784
-0.438611
-0.425315
-0.411113
-0.396285
-0.38117
-0.366144
-0.35186
-0.340177
-0.519084
-0.516982
-0.515153
-0.513437
-0.511734
-0.510013
-0.508181
-0.506098
-0.503594
-0.500487
-0.496589
-0.491728
-0.485757
-0.478567
-0.470096
-0.460339
-0.449349
-0.437235
-0.424167
-0.410361
-0.396077
-0.381599
-0.367207
-0.353293
-0.341068
-0.523989
-0.521567
-0.519385
-0.517278
-0.515146
-0.51297
-0.510667
-0.508098
-0.505097
-0.501484
-0.49708
-0.491723
-0.48528
-0.477665
-0.468839
-0.458822
-0.447687
-0.435561
-0.422618
-0.409063
-0.395125
-0.381035
-0.366996
-0.353254
-0.340635
-0.529077
-0.526322
-0.523783
-0.521284
-0.518723
-0.516092
-0.51331
-0.510241
-0.506722
-0.502576
-0.497632
-0.49174
-0.484786
-0.476702
-0.467475
-0.457147
-0.445809
-0.4336
-0.42069
-0.407273
-0.393547
-0.379702
-0.365896
-0.3523
-0.339503
-0.534417
-0.531305
-0.528402
-0.525511
-0.522523
-0.519434
-0.516165
-0.51258
-0.508518
-0.503807
-0.498283
-0.491811
-0.484297
-0.475696
-0.466019
-0.455328
-0.443732
-0.431375
-0.418428
-0.405068
-0.391472
-0.377802
-0.364185
-0.350756
-0.337944
-0.540065
-0.536566
-0.533289
-0.530006
-0.526589
-0.523037
-0.51927
-0.51515
-0.510514
-0.505197
-0.499047
-0.491945
-0.483819
-0.47465
-0.464473
-0.453372
-0.441469
-0.428917
-0.41588
-0.402525
-0.389013
-0.375482
-0.362043
-0.348809
-0.336097
-0.546064
-0.542144
-0.538481
-0.534801
-0.530952
-0.52693
-0.522648
-0.517965
-0.512719
-0.506749
-0.49992
-0.492133
-0.483342
-0.473555
-0.462833
-0.45128
-0.439034
-0.426249
-0.413088
-0.399708
-0.386252
-0.372843
-0.359576
-0.346553
-0.334009
-0.552441
-0.548064
-0.544001
-0.53992
-0.535632
-0.531126
-0.526306
-0.521026
-0.515122
-0.508447
-0.50088
-0.492351
-0.482841
-0.47239
-0.461085
-0.449049
-0.436431
-0.423391
-0.410084
-0.396658
-0.383242
-0.369943
-0.356843
-0.344034
-0.331683
-0.559207
-0.554339
-0.549862
-0.545372
-0.540635
-0.535625
-0.530236
-0.524314
-0.517699
-0.510257
-0.501891
-0.492561
-0.482283
-0.471128
-0.459208
-0.446666
-0.433661
-0.420351
-0.406887
-0.393404
-0.380016
-0.366815
-0.35387
-0.341263
-0.329108
-0.566356
-0.560966
-0.556062
-0.551155
-0.545953
-0.540412
-0.534414
-0.527796
-0.520407
-0.512131
-0.502902
-0.492716
-0.481624
-0.469732
-0.457176
-0.444116
-0.430716
-0.417131
-0.403504
-0.389956
-0.376585
-0.363469
-0.350664
-0.338239
-0.326265
-0.573868
-0.56793
-0.562589
-0.557253
-0.551564
-0.545458
-0.538799
-0.531423
-0.52319
-0.514009
-0.503853
-0.492758
-0.480816
-0.468162
-0.454959
-0.441377
-0.427582
-0.413723
-0.399931
-0.386313
-0.37295
-0.359905
-0.347221
-0.334954
-0.323138
-0.581706
-0.575203
-0.569415
-0.563637
-0.557434
-0.550717
-0.543338
-0.535131
-0.525977
-0.51582
-0.504676
-0.492626
-0.479803
-0.466376
-0.452522
-0.438422
-0.424238
-0.410111
-0.396157
-0.382464
-0.369101
-0.356112
-0.343529
-0.331394
-0.319712
-0.589821
-0.58274
-0.576499
-0.570263
-0.563513
-0.556132
-0.54796
-0.538843
-0.528687
-0.517482
-0.505293
-0.492252
-0.478531
-0.464325
-0.449829
-0.435222
-0.420661
-0.406274
-0.39216
-0.378393
-0.36502
-0.352075
-0.339574
-0.327547
-0.315976
-0.598146
-0.590484
-0.583786
-0.577073
-0.569733
-0.561625
-0.552582
-0.542467
-0.531228
-0.518907
-0.505627
-0.491568
-0.476941
-0.461963
-0.446838
-0.431742
-0.41682
-0.402185
-0.387918
-0.374074
-0.360686
-0.347772
-0.335338
-0.323396
-0.311919
-0.6066
-0.598362
-0.591205
-0.583992
-0.576014
-0.567105
-0.557104
-0.545902
-0.5335
-0.520003
-0.505594
-0.490503
-0.474974
-0.45924
-0.443508
-0.427945
-0.412682
-0.397813
-0.3834
-0.369481
-0.356073
-0.343181
-0.3308
-0.318926
-0.30753
-0.615087
-0.606285
-0.598669
-0.590928
-0.582256
-0.572466
-0.561414
-0.549035
-0.535396
-0.520673
-0.505111
-0.488986
-0.47257
-0.456106
-0.439795
-0.423792
-0.40821
-0.393123
-0.378573
-0.364582
-0.351152
-0.338275
-0.325938
-0.31412
-0.302796
-0.623494
-0.61415
-0.606075
-0.597775
-0.588343
-0.577585
-0.565387
-0.551747
-0.536808
-0.520822
-0.504097
-0.486949
-0.469672
-0.45251
-0.435654
-0.419242
-0.403365
-0.388077
-0.373402
-0.359343
-0.345892
-0.333029
-0.32073
-0.308958
-0.297703
-0.631697
-0.621839
-0.613304
-0.604407
-0.594145
-0.582329
-0.568893
-0.553914
-0.537623
-0.520352
-0.502469
-0.484324
-0.466222
-0.448401
-0.431039
-0.41425
-0.398105
-0.382636
-0.367848
-0.353731
-0.340262
-0.327413
-0.315149
-0.303419
-0.292235
-0.639554
-0.629217
-0.620223
-0.610685
-0.599518
-0.586552
-0.571792
-0.555408
-0.53773
-0.51917
-0.500149
-0.481044
-0.462161
-0.443729
-0.425902
-0.408773
-0.392388
-0.37676
-0.361875
-0.34771
-0.33423
-0.321398
-0.309172
-0.297483
-0.286375
-0.646914
-0.636138
-0.626682
-0.616458
-0.604307
-0.590103
-0.573941
-0.556103
-0.53702
-0.517185
-0.497062
-0.477045
-0.457435
-0.438442
-0.420196
-0.402765
-0.386171
-0.370407
-0.355444
-0.341244
-0.327762
-0.314956
-0.302772
-0.291128
-0.280105
-0.653612
-0.642444
-0.632524
-0.621562
-0.60835
-0.592826
-0.575199
-0.555874
-0.53539
-0.51431
-0.493135
-0.472265
-0.451988
-0.43249
-0.413873
-0.396181
-0.379411
-0.363537
-0.348516
-0.334297
-0.320827
-0.308057
-0.295924
-0.284332
-0.273407
-0.659476
-0.647966
-0.637576
-0.625826
-0.611478
-0.594564
-0.575426
-0.554603
-0.53274
-0.510463
-0.488299
-0.466645
-0.445767
-0.425823
-0.406888
-0.388976
-0.372065
-0.35611
-0.341054
-0.326836
-0.313395
-0.300675
-0.288604
-0.277074
-0.266263
-0.664328
-0.652528
-0.641664
-0.629073
-0.613522
-0.595161
-0.574486
-0.552177
-0.528978
-0.505569
-0.482491
-0.460129
-0.438721
-0.418395
-0.399194
-0.381108
-0.364093
-0.348088
-0.333024
-0.318829
-0.305435
-0.292783
-0.280789
-0.269335
-0.258656
-0.667988
-0.655954
-0.644609
-0.631128
-0.614316
-0.59447
-0.572254
-0.54849
-0.524017
-0.499557
-0.475652
-0.452664
-0.430802
-0.410159
-0.390749
-0.372536
-0.355458
-0.339437
-0.324393
-0.310246
-0.296923
-0.284358
-0.272459
-0.261096
-0.25057
-0.67027
-0.658059
-0.646227
-0.631814
-0.613697
-0.592347
-0.568609
-0.543448
-0.517782
-0.492363
-0.467725
-0.444202
-0.421965
-0.401074
-0.381513
-0.363224
-0.346124
-0.330123
-0.315132
-0.301061
-0.287833
-0.275379
-0.263594
-0.252343
-0.241991
-0.670997
-0.658667
-0.646344
-0.630962
-0.611513
-0.588663
-0.563448
-0.536965
-0.510204
-0.483932
-0.458664
-0.434698
-0.412169
-0.391101
-0.371451
-0.353136
-0.336059
-0.320118
-0.305214
-0.291251
-0.278147
-0.265827
-0.25418
-0.243061
-0.23291
-0.669997
-0.657605
-0.64479
-0.628414
-0.607623
-0.583301
-0.556674
-0.528967
-0.501225
-0.474214
-0.448424
-0.424114
-0.401378
-0.380207
-0.360529
-0.342243
-0.325237
-0.309398
-0.294617
-0.280795
-0.267845
-0.25569
-0.244205
-0.233242
-0.223317
-0.667106
-0.65471
-0.641405
-0.624022
-0.601901
-0.576157
-0.548209
-0.519392
-0.490793
-0.463168
-0.43697
-0.412416
-0.38956
-0.36836
-0.34872
-0.33052
-0.313634
-0.29794
-0.283324
-0.269679
-0.256917
-0.244955
-0.233659
-0.22288
-0.213208
-0.662174
-0.649831
-0.636042
-0.617653
-0.594235
-0.567145
-0.537985
-0.50819
-0.478869
-0.45076
-0.424272
-0.399577
-0.37669
-0.355539
-0.336003
-0.317947
-0.301233
-0.285731
-0.271321
-0.257892
-0.245352
-0.233617
-0.22254
-0.211971
-0.202581
-0.655065
-0.64283
-0.628572
-0.609195
-0.584533
-0.556194
-0.525951
-0.495322
-0.465425
-0.436965
-0.410306
-0.385575
-0.362748
-0.341723
-0.32236
-0.304508
-0.28802
-0.272759
-0.258599
-0.245426
-0.233146
-0.221672
-0.210845
-0.200517
-0.191439
-0.645661
-0.63359
-0.618883
-0.598551
-0.572721
-0.54325
-0.51207
-0.480762
-0.450439
-0.421766
-0.395059
-0.370396
-0.34772
-0.326901
-0.30778
-0.290194
-0.273988
-0.259019
-0.245154
-0.23228
-0.2203
-0.209123
-0.198578
-0.188524
-0.179788
-0.633866
-0.622011
-0.606885
-0.585649
-0.558746
-0.52828
-0.496321
-0.464497
-0.433903
-0.405157
-0.378522
-0.354034
-0.3316
-0.311066
-0.292258
-0.275002
-0.259135
-0.244508
-0.230989
-0.218457
-0.206818
-0.195975
-0.185749
-0.176001
-0.167639
-0.619601
-0.608016
-0.592508
-0.570435
-0.542575
-0.511265
-0.478698
-0.446527
-0.415819
-0.387138
-0.360697
-0.336488
-0.314387
-0.294219
-0.275795
-0.258933
-0.243463
-0.229233
-0.216107
-0.203965
-0.192709
-0.18224
-0.172369
-0.162963
-0.155005
-0.602816
-0.59155
-0.575707
-0.552881
-0.524195
-0.492206
-0.459207
-0.426862
-0.396197
-0.36772
-0.341593
-0.317766
-0.296088
-0.276366
-0.258398
-0.241993
-0.22698
-0.213202
-0.20052
-0.188814
-0.177986
-0.167933
-0.158455
-0.149428
-0.141907
-0.583478
-0.572584
-0.556462
-0.532979
-0.503613
-0.471121
-0.437873
-0.405527
-0.37506
-0.346923
-0.321226
-0.297883
-0.276717
-0.257519
-0.240078
-0.224197
-0.209699
-0.196428
-0.184242
-0.173021
-0.162666
-0.153072
-0.144029
-0.13542
-0.128366
-0.561585
-0.551112
-0.534773
-0.510747
-0.480858
-0.448044
-0.414732
-0.382558
-0.352441
-0.324775
-0.299622
-0.276861
-0.256294
-0.237698
-0.220853
-0.205559
-0.191638
-0.178929
-0.167292
-0.156606
-0.146771
-0.137681
-0.129115
-0.120966
-0.114412
-0.537156
-0.527152
-0.510669
-0.486221
-0.455978
-0.423029
-0.389837
-0.358001
-0.328382
-0.301315
-0.276814
-0.25473
-0.234845
-0.216925
-0.200746
-0.186103
-0.172816
-0.160726
-0.149691
-0.13959
-0.130325
-0.121785
-0.113743
-0.106097
-0.100075
-0.510236
-0.500749
-0.4842
-0.459463
-0.429037
-0.396141
-0.36325
-0.331917
-0.302938
-0.276589
-0.252844
-0.231527
-0.212404
-0.195232
-0.179784
-0.165853
-0.153259
-0.141843
-0.131463
-0.121998
-0.113353
-0.105412
-0.0979424
-0.0908463
-0.0853886
-0.480893
-0.471969
-0.455439
-0.430553
-0.400121
-0.367465
-0.335052
-0.304377
-0.276171
-0.250655
-0.227763
-0.207297
-0.189009
-0.172653
-0.157998
-0.144837
-0.132992
-0.122304
-0.112631
-0.103856
-0.0958821
-0.0885928
-0.0817486
-0.0752538
-0.0703951
-0.449221
-0.440904
-0.424483
-0.399591
-0.369331
-0.337098
-0.305331
-0.275464
-0.248156
-0.223577
-0.201628
-0.18209
-0.164707
-0.149228
-0.135422
-0.123087
-0.112042
-0.102133
-0.0932203
-0.0851868
-0.0779376
-0.0713553
-0.0651957
-0.0593615
-0.0551446
-0.415334
-0.407668
-0.391448
-0.366698
-0.336785
-0.305151
-0.274192
-0.24527
-0.218976
-0.195431
-0.174506
-0.155965
-0.139547
-0.125
-0.112096
-0.100633
-0.0904364
-0.0813539
-0.0732501
-0.0660099
-0.0595402
-0.0537236
-0.0483151
-0.0432136
-0.0396917
-0.379369
-0.372395
-0.35647
-0.332009
-0.302616
-0.27175
-0.24175
-0.2139
-0.188727
-0.166303
-0.146473
-0.128991
-0.11359
-0.100021
-0.0880594
-0.077509
-0.0682004
-0.0599857
-0.0527348
-0.0463366
-0.0407007
-0.0357122
-0.0311313
-0.0268484
-0.0240724
-0.341482
-0.335239
-0.319704
-0.295678
-0.26697
-0.237032
-0.208131
-0.181471
-0.157512
-0.136286
-0.117615
-0.101242
-0.0869021
-0.0743472
-0.0633594
-0.0537503
-0.0453575
-0.0380408
-0.0316774
-0.0261625
-0.0214106
-0.017314
-0.0136453
-0.0102732
-0.00827449
-0.301847
-0.29637
-0.281321
-0.257871
-0.230006
-0.201146
-0.173473
-0.148107
-0.125448
-0.105487
-0.0880271
-0.0728059
-0.0595583
-0.0480426
-0.0380482
-0.0293955
-0.0219319
-0.0155271
-0.0100691
-0.00546332
-0.00163315
0.00151631
0.00419276
0.00656073
0.00772724
-0.260654
-0.255976
-0.241504
-0.218769
-0.191896
-0.164251
-0.137922
-0.113946
-0.0926597
-0.0740213
-0.0578165
-0.043779
-0.0316463
-0.0211833
-0.0121885
-0.00449241
0.00204579
0.00754319
0.0120966
0.0157846
0.0186716
0.0208355
0.0224419
0.0236479
0.0237405
-0.218107
-0.214257
-0.200452
-0.178562
-0.152819
-0.126515
-0.101636
-0.079132
-0.0592838
-0.0420161
-0.0271016
-0.0142711
-0.00326587
0.00614231
0.0141459
0.0209029
0.0265408
0.0311589
0.0348307
0.0376091
0.0395406
0.0406711
0.0410395
0.0406523
0.0391058
-0.174422
-0.171426
-0.158372
-0.137448
-0.112965
-0.0881155
-0.0647791
-0.0438202
-0.025465
-0.00960894
0.00398705
0.0155939
0.0254672
0.0338293
0.0408655
0.0467251
0.0515236
0.0553423
0.0582254
0.0601923
0.0612615
0.0613901
0.0602861
0.057593
0.0538509
-0.129824
-0.127705
-0.115481
-0.0956366
-0.0725266
-0.0492339
-0.0275217
-0.00817115
0.00864369
0.0230533
0.0353068
0.0456766
0.0544159
0.0617439
0.0678433
0.0728622
0.076916
0.0800835
0.0824041
0.0838993
0.0846
0.0843568
0.0823771
0.077901
0.0731728
-0.0845499
-0.0833219
-0.0719998
-0.0533379
-0.0317047
-0.0100567
0.00996109
0.0276498
0.0428837
0.0558167
0.066706
0.0758243
0.0834227
0.0897186
0.094895
0.0991045
0.102473
0.105098
0.107058
0.108451
0.109438
0.109948
0.108974
0.105965
0.108814
-0.038829
-0.0385073
-0.0281533
-0.0107657
0.00930034
0.029228
0.0474925
0.0634749
0.0770944
0.088525
0.0980299
0.105881
0.112325
0.117578
0.12182
0.125206
0.127864
0.129903
0.131421
0.132546
0.13345
0.134094
0.133908
0.13338
0.138599
0.00709602
0.00650196
0.0158301
0.0318634
0.0502861
0.0684314
0.0848956
0.0991369
0.111116
0.121023
0.129127
0.135694
0.14097
0.145164
0.148454
0.150993
0.152912
0.154322
0.155328
0.156061
0.156664
0.157095
0.156954
0.156805
0.161449
0.0529835
0.0514692
0.0597225
0.0743343
0.0910519
0.107366
0.121995
0.134471
0.144791
0.153161
0.159849
0.16512
0.169211
0.172326
0.174638
0.176296
0.177426
0.178138
0.178536
0.178741
0.178882
0.178925
0.178536
0.17817
0.181749
0.0985933
0.0961589
0.103298
0.116434
0.131399
0.145849
0.158621
0.169317
0.177969
0.184794
0.19006
0.194025
0.196919
0.198938
0.200249
0.200993
0.20129
0.201243
0.200949
0.200515
0.200049
0.19951
0.198597
0.197731
0.200304
0.143688
0.140338
0.146332
0.157953
0.171134
0.183699
0.194605
0.203518
0.210503
0.215785
0.219628
0.222285
0.223976
0.22489
0.225183
0.224989
0.22442
0.223572
0.22253
0.22139
0.22024
0.219028
0.217479
0.216008
0.217613
0.188034
0.183778
0.188608
0.198687
0.210067
0.220743
0.229786
0.236926
0.242255
0.246003
0.248432
0.249787
0.250278
0.250083
0.249352
0.248207
0.246754
0.245077
0.243255
0.241369
0.239493
0.237565
0.235339
0.233233
0.233915
0.231403
0.226256
0.229911
0.238437
0.248015
0.256811
0.264008
0.269397
0.27309
0.275326
0.276359
0.276426
0.275728
0.274433
0.27268
0.270584
0.268241
0.265728
0.263113
0.260468
0.257852
0.255201
0.252297
0.249556
0.249355
0.273575
0.267555
0.270036
0.27701
0.2848
0.291741
0.297123
0.300793
0.302884
0.303637
0.303302
0.302105
0.300238
0.29786
0.295099
0.292062
0.288837
0.285492
0.282088
0.278688
0.275339
0.271976
0.26841
0.26505
0.264008
0.314333
0.307465
0.308783
0.314223
0.320252
0.325376
0.328988
0.330982
0.331514
0.330824
0.329158
0.326731
0.323725
0.320289
0.316543
0.312587
0.308497
0.304337
0.300161
0.296021
0.291959
0.287908
0.283707
0.27975
0.277902
0.353475
0.345785
0.345962
0.349896
0.354209
0.357569
0.359465
0.35984
0.358865
0.356783
0.353831
0.350215
0.346108
0.341649
0.336951
0.332103
0.327177
0.322228
0.317304
0.312451
0.307702
0.302995
0.29819
0.293662
0.291046
0.390802
0.382324
0.38139
0.383864
0.386517
0.388177
0.388425
0.387247
0.384829
0.381413
0.377229
0.372474
0.367312
0.361873
0.356261
0.350558
0.34483
0.339125
0.333485
0.327951
0.322549
0.31722
0.311847
0.306776
0.303428
0.426128
0.4169
0.414897
0.415964
0.417029
0.417066
0.415745
0.413091
0.409302
0.404618
0.399264
0.393428
0.387264
0.380893
0.374413
0.367899
0.361409
0.354987
0.348669
0.342491
0.336472
0.330559
0.324654
0.319072
0.31503
0.459279
0.449342
0.446319
0.446049
0.445606
0.44411
0.441309
0.437264
0.432185
0.426309
0.419854
0.413
0.405893
0.398646
0.39135
0.384072
0.376866
0.36977
0.362816
0.356034
0.349439
0.342983
0.336584
0.330522
0.325827
0.490089
0.479489
0.475504
0.473976
0.472121
0.469191
0.465009
0.459668
0.453386
0.4464
0.438919
0.431118
0.423132
0.41507
0.407013
0.399025
0.391153
0.383431
0.375887
0.368545
0.361416
0.354459
0.347606
0.341096
0.335791
0.518405
0.507192
0.502313
0.499617
0.496454
0.4922
0.486744
0.480208
0.472819
0.464811
0.456387
0.447714
0.43892
0.430107
0.421351
0.412709
0.404224
0.395927
0.387841
0.379985
0.372368
0.364953
0.357685
0.350764
0.344894
0.544088
0.532315
0.526617
0.522851
0.518495
0.513035
0.506421
0.4988
0.490406
0.481469
0.472189
0.462724
0.453196
0.443702
0.434311
0.425076
0.416036
0.407217
0.398639
0.390318
0.38226
0.374432
0.366789
0.359495
0.353108
0.56701
0.554734
0.548297
0.54357
0.538144
0.531605
0.523956
0.515365
0.506073
0.496308
0.486262
0.47609
0.465907
0.455804
0.445846
0.436082
0.426546
0.417262
0.408245
0.39951
0.391057
0.382862
0.374887
0.367258
0.360406
0.587056
0.574337
0.56725
0.561678
0.555312
0.547828
0.539272
0.529834
0.519755
0.509265
0.498551
0.487759
0.477003
0.466367
0.455913
0.445686
0.435716
0.426025
0.416625
0.407526
0.39873
0.390215
0.38195
0.374026
0.366764
0.604126
0.591027
0.583382
0.577088
0.569921
0.561631
0.552303
0.542143
0.531396
0.520288
0.509003
0.497685
0.48644
0.475351
0.464474
0.453851
0.443512
0.433473
0.423747
0.41434
0.40525
0.396463
0.387951
0.379775
0.37216
0.618134
0.60472
0.596616
0.589727
0.581903
0.572952
0.562992
0.552239
0.540944
0.52933
0.517577
0.505826
0.494181
0.482718
0.471494
0.460547
0.449904
0.43958
0.429585
0.419923
0.410593
0.401582
0.392868
0.384482
0.376575
0.629008
0.615345
0.606883
0.599534
0.591202
0.581739
0.571289
0.560078
0.548358
0.536351
0.524236
0.512149
0.500192
0.48844
0.476945
0.465746
0.454866
0.44432
0.434116
0.424256
0.414738
0.405552
0.39668
0.388131
0.379992
0.636689
0.622847
0.614133
0.606461
0.597772
0.587951
0.577158
0.565625
0.553605
0.541322
0.528951
0.516627
0.504449
0.492491
0.480805
0.469427
0.458378
0.447674
0.437321
0.427319
0.417668
0.408357
0.399372
0.390705
0.382399
0.641136
0.627185
0.618325
0.610471
0.60158
0.591557
0.580568
0.568852
0.556661
0.544219
0.5317
0.519239
0.506933
0.494856
0.483057
0.471573
0.460426
0.449629
0.439187
0.429102
0.41937
0.409986
0.400934
0.392195
0.383787
0.642322
0.628331
0.619435
0.611541
0.602606
0.592537
0.581503
0.569743
0.55751
0.545028
0.53247
0.519972
0.507631
0.495521
0.48369
0.472176
0.461
0.450174
0.439706
0.429594
0.419838
0.41043
0.401356
0.392594
0.384149
0.640233
0.626274
0.617452
0.60966
0.600838
0.590882
0.579954
0.56829
0.556145
0.543741
0.531255
0.518821
0.506539
0.494481
0.4827
0.47123
0.460095
0.449307
0.438873
0.428794
0.419067
0.409687
0.400638
0.391898
0.383484
0.634873
0.621018
0.612377
0.604831
0.596281
0.586595
0.575922
0.564495
0.552567
0.540361
0.528056
0.515787
0.503657
0.49174
0.480088
0.468737
0.457713
0.447028
0.436691
0.426702
0.41706
0.407758
0.398779
0.39011
0.381792
0.626261
0.612578
0.604229
0.59707
0.588947
0.579688
0.569421
0.55837
0.546787
0.534898
0.522882
0.51088
0.498995
0.487304
0.475861
0.464705
0.453861
0.443345
0.433165
0.423324
0.413822
0.404648
0.395786
0.387235
0.379079
0.614429
0.600989
0.593038
0.586405
0.578864
0.570186
0.560473
0.549936
0.538825
0.52737
0.515752
0.504116
0.492568
0.481189
0.470034
0.459146
0.448552
0.438269
0.428308
0.418672
0.409363
0.400369
0.391668
0.383281
0.375352
0.599426
0.586297
0.578847
0.572876
0.566069
0.558125
0.54911
0.539222
0.52871
0.517804
0.506691
0.495518
0.484398
0.473414
0.462627
0.45208
0.441804
0.431818
0.422135
0.412761
0.403699
0.394934
0.386439
0.378263
0.370623
0.581316
0.568564
0.561715
0.556538
0.550611
0.543549
0.535375
0.52627
0.516478
0.506234
0.495729
0.485117
0.474514
0.464009
0.453665
0.443531
0.433639
0.424013
0.414667
0.405611
0.396849
0.388362
0.380118
0.372196
0.364906
0.560177
0.547866
0.541714
0.537458
0.532552
0.526516
0.51932
0.511126
0.502175
0.492703
0.482909
0.47295
0.462951
0.453004
0.443179
0.433528
0.424086
0.414881
0.40593
0.397247
0.388836
0.380676
0.372726
0.365101
0.358221
0.536102
0.524292
0.518928
0.515712
0.511964
0.507091
0.501006
0.493849
0.485854
0.477261
0.468275
0.459061
0.44975
0.44044
0.431206
0.422105
0.413178
0.404453
0.395953
0.387695
0.379687
0.371901
0.364289
0.357003
0.350588
0.509196
0.497947
0.493456
0.491393
0.48893
0.485351
0.480505
0.474504
0.467576
0.459964
0.451881
0.4435
0.434957
0.426359
0.417787
0.409302
0.40095
0.392764
0.38477
0.376989
0.369433
0.362067
0.354835
0.347927
0.342031
0.47958
0.468947
0.465407
0.464601
0.463544
0.461383
0.457896
0.453164
0.447409
0.440877
0.433787
0.426322
0.418625
0.410811
0.402967
0.395161
0.387443
0.379852
0.372416
0.365162
0.358105
0.351206
0.344396
0.337904
0.332577
0.447389
0.437422
0.434904
0.435451
0.43591
0.435283
0.433268
0.429913
0.425431
0.42007
0.414059
0.407588
0.400811
0.393849
0.386797
0.379729
0.372702
0.365757
0.358929
0.352251
0.34574
0.339351
0.333003
0.326965
0.322253
0.412767
0.403515
0.402081
0.404067
0.406143
0.407156
0.406718
0.404839
0.401722
0.397619
0.392767
0.387364
0.381575
0.375529
0.369329
0.363055
0.356771
0.350523
0.344352
0.338295
0.332374
0.326539
0.320692
0.315141
0.311089
0.375875
0.367381
0.367086
0.370584
0.374367
0.377115
0.378349
0.378038
0.376373
0.373608
0.369987
0.365721
0.360983
0.355912
0.350618
0.345191
0.339698
0.334194
0.328724
0.323331
0.318042
0.312802
0.307497
0.302466
0.299114
0.336883
0.329187
0.330076
0.335148
0.340715
0.345283
0.348275
0.349614
0.349478
0.348123
0.345801
0.342734
0.339104
0.335061
0.330724
0.326189
0.321533
0.316815
0.312086
0.307397
0.30278
0.298176
0.293449
0.28897
0.286357
0.295973
0.28911
0.291218
0.297915
0.30533
0.311791
0.316615
0.319677
0.321139
0.321257
0.320294
0.31848
0.316009
0.313041
0.309704
0.306103
0.302323
0.298429
0.294478
0.290529
0.28662
0.28269
0.278578
0.27468
0.272843
0.253339
0.247338
0.250691
0.259049
0.268363
0.276776
0.283495
0.288343
0.291462
0.29311
0.293556
0.293042
0.291773
0.28992
0.28762
0.284988
0.282115
0.279077
0.275936
0.272756
0.269589
0.266367
0.262904
0.259616
0.258591
0.209182
0.20407
0.208683
0.218724
0.229974
0.240386
0.249051
0.255735
0.260561
0.263784
0.265681
0.266506
0.266474
0.265767
0.264534
0.262897
0.260957
0.258798
0.256489
0.254105
0.251705
0.249221
0.24644
0.243786
0.243608
0.163717
0.159514
0.165391
0.177124
0.190331
0.202774
0.213423
0.221983
0.228553
0.233388
0.236769
0.238962
0.240193
0.240655
0.240508
0.239884
0.238893
0.237626
0.236164
0.234589
0.232974
0.231251
0.229178
0.227181
0.227887
0.117165
0.113887
0.121021
0.13444
0.14961
0.1641
0.176757
0.187221
0.195564
0.202035
0.206924
0.210504
0.213015
0.21466
0.215608
0.216003
0.215965
0.215593
0.214978
0.214214
0.213387
0.212437
0.211088
0.209762
0.211391
0.0697542
0.0674128
0.075787
0.0908707
0.107993
0.124533
0.139209
0.151591
0.161723
0.169846
0.176255
0.181233
0.185031
0.187861
0.189904
0.191313
0.192217
0.192728
0.192943
0.192972
0.192919
0.192731
0.192102
0.19145
0.194043
0.0217214
0.0203228
0.0299093
0.0466218
0.0656703
0.0842474
0.100939
0.115243
0.127168
0.136948
0.144881
0.151258
0.156339
0.160347
0.163472
0.165877
0.1677
0.16906
0.170067
0.170844
0.171515
0.17204
0.172089
0.172078
0.175684
-0.0266916
-0.0271457
-0.0163851
0.0019053
0.0228382
0.0434235
0.062114
0.0783296
0.0920431
0.103476
0.112927
0.120694
0.127047
0.132217
0.136402
0.139773
0.142475
0.144635
0.146372
0.147823
0.149134
0.150276
0.150884
0.151407
0.156063
-0.0752384
-0.0747509
-0.0628649
-0.0430616
-0.0203023
0.00224766
0.0229066
0.041013
0.0564989
0.0695707
0.0805263
0.0896696
0.0972764
0.103586
0.108802