/*--------------------------------*- C++ -*----------------------------------*\
  =========                 |
  \\      /  F ield         | OpenFOAM: The Open Source CFD Toolbox
   \\    /   O peration     | Website:  https://openfoam.org
    \\  /    A nd           | Version:  6.0
     \\/     M anipulation  |
\*---------------------------------------------------------------------------*/
FoamFile
{
    version     2.0;
    format      ascii;
    class       surfaceScalarField;
    location    "107";
    object      phi;
}
// * * * * * * * * * * * * * * * * * * * * * * * * * * * * * * * * * * * * * //

dimensions      [0 3 -1 0 0 0 0];

internalField   nonuniform List<scalar> 
24700
(
-6.17325e-08
-8.47524e-05
8.48142e-05
-1.11722e-06
-0.000227515
0.000228571
-3.69561e-06
-0.000347338
0.000349916
-7.98787e-06
-0.000446469
0.000450761
-1.3876e-05
-0.00052737
0.000533259
-2.09878e-05
-0.000592793
0.000599905
-2.87747e-05
-0.000645502
0.000653289
-3.65956e-05
-0.000688034
0.000695855
-4.37933e-05
-0.000722526
0.000729724
-4.97582e-05
-0.000750633
0.000756598
-5.39744e-05
-0.000773525
0.000777741
-5.60483e-05
-0.000791942
0.000794016
-5.57213e-05
-0.000806285
0.000805958
-5.28697e-05
-0.000816716
0.000813865
-4.74935e-05
-0.000823256
0.00081788
-3.96979e-05
-0.000825866
0.00081807
-2.96696e-05
-0.00082451
0.000814482
-1.76497e-05
-0.000819194
0.000807174
-3.90658e-06
-0.000809987
0.000796244
1.12918e-05
-0.00079702
0.000781822
2.77028e-05
-0.000780479
0.000764068
4.51331e-05
-0.000760581
0.000743151
6.34585e-05
-0.000737552
0.000719226
8.26403e-05
-0.000711553
0.000692371
-0.000682649
0.000662532
0.000102757
-1.10952e-06
-8.36429e-05
-4.68211e-06
-0.000223943
-1.08044e-05
-0.000341215
-1.93293e-05
-0.000437944
-2.98771e-05
-0.000516823
-4.18771e-05
-0.000580793
-5.46339e-05
-0.000632745
-6.74007e-05
-0.000675268
-7.94464e-05
-0.00071048
-9.01102e-05
-0.000739969
-9.88417e-05
-0.000764793
-0.000105225
-0.000785559
-0.000108987
-0.000802522
-0.000110002
-0.000815702
-0.000108272
-0.000824985
-0.00010392
-0.000830219
-9.71546e-05
-0.000831275
-8.82517e-05
-0.000828097
-7.75198e-05
-0.000820719
-6.5272e-05
-0.000809268
-5.17962e-05
-0.000793955
-3.73287e-05
-0.000775048
-2.20318e-05
-0.000752848
-5.97733e-06
-0.000727607
-0.000699509
1.08834e-05
-2.21126e-06
-8.14317e-05
-8.38425e-06
-0.00021777
-1.8118e-05
-0.000331482
-3.0908e-05
-0.000425154
-4.61109e-05
-0.00050162
-6.29665e-05
-0.000563937
-8.06474e-05
-0.000615065
-9.83165e-05
-0.000657598
-0.000115182
-0.000693615
-0.000130539
-0.000724612
-0.000143806
-0.000751526
-0.00015454
-0.000774825
-0.000162449
-0.000794614
-0.000167387
-0.000810764
-0.000169349
-0.000823023
-0.000168456
-0.000831112
-0.000164929
-0.000834802
-0.000159066
-0.00083396
-0.000151209
-0.000828575
-0.000141715
-0.000818762
-0.00013092
-0.00080475
-0.000119108
-0.00078686
-0.000106492
-0.000765464
-9.319e-05
-0.00074091
-0.000713502
-7.91972e-05
-3.33597e-06
-7.80957e-05
-1.21224e-05
-0.000208983
-2.54432e-05
-0.000318161
-4.24292e-05
-0.000408168
-6.21809e-05
-0.000481868
-8.37644e-05
-0.000542354
-0.000106239
-0.00059259
-0.000128695
-0.000635142
-0.000150295
-0.000672016
-0.0001703
-0.000704607
-0.000188097
-0.000733728
-0.000203216
-0.000759706
-0.000215331
-0.000782499
-0.000224267
-0.000801828
-0.000229991
-0.000817298
-0.000232606
-0.000828498
-0.000232326
-0.000835082
-0.000229458
-0.000836828
-0.00022437
-0.000833663
-0.000217455
-0.000825677
-0.000209101
-0.000813105
-0.000199649
-0.000796312
-0.00018937
-0.000775743
-0.000178445
-0.000751835
-0.000725018
-0.000166929
-4.44779e-06
-7.36479e-05
-1.57829e-05
-0.000197648
-3.25664e-05
-0.000301377
-5.35707e-05
-0.000387164
-7.76564e-05
-0.000457782
-0.000103737
-0.000516273
-0.00013078
-0.000565547
-0.000157826
-0.000608096
-0.000184004
-0.000645838
-0.000208553
-0.000680058
-0.000230835
-0.000711447
-0.000250343
-0.000740198
-0.000266713
-0.000766129
-0.000279723
-0.000788819
-0.000289295
-0.000807726
-0.000295492
-0.000822301
-0.000298503
-0.000832072
-0.000298624
-0.000836706
-0.000296235
-0.000836052
-0.000291763
-0.00083015
-0.000285641
-0.000819226
-0.000278278
-0.000803675
-0.000270017
-0.000784003
-0.000261114
-0.000760738
-0.000734426
-0.000251705
-5.50705e-06
-6.81408e-05
-1.9243e-05
-0.000183912
-3.92598e-05
-0.00028136
-6.3992e-05
-0.000362431
-9.20837e-05
-0.000429691
-0.000122321
-0.000486036
-0.000153606
-0.000534262
-0.000184947
-0.000576755
-0.00021546
-0.000615325
-0.000244371
-0.000651146
-0.000271022
-0.000684796
-0.000294872
-0.000716348
-0.000315508
-0.000745493
-0.00033265
-0.000771677
-0.000346155
-0.000794221
-0.000356023
-0.000812432
-0.000362396
-0.000825699
-0.000365539
-0.000833563
-0.000365825
-0.000835766
-0.000363701
-0.000832273
-0.00035965
-0.000823277
-0.000354148
-0.000809177
-0.000347623
-0.000790528
-0.000340425
-0.000767936
-0.000742063
-0.000332788
-6.47226e-06
-6.16686e-05
-2.23762e-05
-0.000168008
-4.52918e-05
-0.000258445
-7.33478e-05
-0.000334375
-0.000105002
-0.000398036
-0.000138942
-0.000452096
-0.000174028
-0.000499176
-0.000209259
-0.000541524
-0.000243755
-0.000580829
-0.000276744
-0.000618158
-0.000307553
-0.000653987
-0.000335613
-0.000688288
-0.000360458
-0.000720648
-0.000381737
-0.000750398
-0.00039923
-0.000776728
-0.000412853
-0.000798808
-0.000422673
-0.00081588
-0.000428899
-0.000827337
-0.000431877
-0.000832788
-0.000432059
-0.000832091
-0.000429967
-0.000825369
-0.000426148
-0.000812996
-0.000421126
-0.000795551
-0.00041536
-0.000773702
-0.00074822
-0.000409203
-7.30239e-06
-5.43662e-05
-2.50591e-05
-0.000150251
-5.04369e-05
-0.000233067
-8.13028e-05
-0.00030351
-0.000115964
-0.000363375
-0.000153036
-0.000415023
-0.000191363
-0.00046085
-0.000229955
-0.000502932
-0.000267954
-0.00054283
-0.000304604
-0.000581508
-0.000339233
-0.000619358
-0.000371247
-0.000656274
-0.000400132
-0.000691764
-0.000425465
-0.000725065
-0.000446932
-0.000755261
-0.000464351
-0.00078139
-0.000477687
-0.000802543
-0.00048707
-0.000817955
-0.000492787
-0.000827071
-0.000495273
-0.000829605
-0.000495077
-0.000825565
-0.00049281
-0.000815263
-0.000489099
-0.000799262
-0.000484529
-0.000778272
-0.000753156
-0.000479592
-7.95951e-06
-4.64067e-05
-2.71784e-05
-0.000131033
-5.44892e-05
-0.000205756
-8.75503e-05
-0.000270448
-0.000124555
-0.000326371
-0.000164077
-0.000375502
-0.000204962
-0.000419964
-0.000246253
-0.000461641
-0.000287131
-0.000501952
-0.00032687
-0.000541768
-0.000364817
-0.000581411
-0.000400365
-0.000620725
-0.000432964
-0.000659165
-0.000462121
-0.000695907
-0.00048743
-0.000729952
-0.000508594
-0.000760226
-0.000525459
-0.000785677
-0.000538044
-0.000805371
-0.000546548
-0.000818567
-0.000551358
-0.000824794
-0.000553022
-0.000823901
-0.000552207
-0.000816078
-0.000549638
-0.000801831
-0.00054604
-0.00078187
-0.000757131
-0.000542065
-8.41162e-06
-3.79951e-05
-2.86388e-05
-0.000110805
-5.72755e-05
-0.00017712
-9.18305e-05
-0.000235893
-0.000130422
-0.00028778
-0.000171604
-0.000334319
-0.000214248
-0.00037732
-0.000257441
-0.000418448
-0.000300417
-0.000458977
-0.0003425
-0.000499684
-0.000383069
-0.000540842
-0.000421529
-0.000582265
-0.000457308
-0.000623386
-0.000489861
-0.000663355
-0.000518693
-0.00070112
-0.000543395
-0.000735524
-0.000563681
-0.000765392
-0.000579429
-0.000789622
-0.00059072
-0.000807276
-0.000597851
-0.000817663
-0.000601335
-0.000820417
-0.000601866
-0.000815548
-0.000600259
-0.000803438
-0.00059738
-0.000784749
-0.000760455
-0.000594057
-8.63539e-06
-2.93597e-05
-2.93709e-05
-9.00699e-05
-5.86683e-05
-0.000147822
-9.39498e-05
-0.000200612
-0.000133295
-0.000248435
-0.000175263
-0.00029235
-0.00021876
-0.000333824
-0.000262928
-0.00037428
-0.000307067
-0.000414838
-0.000350566
-0.000456186
-0.000392853
-0.000498556
-0.000433366
-0.000541751
-0.000471539
-0.000585214
-0.000506798
-0.000628096
-0.000538584
-0.000669334
-0.000566383
-0.000707724
-0.000589777
-0.000741999
-0.000608489
-0.00077091
-0.000622444
-0.00079332
-0.00063181
-0.000808298
-0.000637012
-0.000815214
-0.00063873
-0.00081383
-0.00063784
-0.000804328
-0.00063534
-0.000787248
-0.00076355
-0.000632245
-8.61852e-06
-2.07412e-05
-2.93371e-05
-6.93513e-05
-5.8597e-05
-0.000118562
-9.37977e-05
-0.000165411
-0.000133015
-0.000209217
-0.00017483
-0.000250536
-0.00021819
-0.000290463
-0.0002623
-0.000330169
-0.00030653
-0.000370608
-0.00035034
-0.000412376
-0.000393229
-0.000455667
-0.00043469
-0.00050029
-0.000474189
-0.000545714
-0.00051116
-0.000591126
-0.000545009
-0.000635485
-0.00057515
-0.000677583
-0.000601044
-0.000716105
-0.000622259
-0.000749694
-0.000638543
-0.000777036
-0.000649885
-0.000796956
-0.000656571
-0.000808529
-0.000659198
-0.000811202
-0.000658657
-0.00080487
-0.000656047
-0.000789858
-0.000767027
-0.00065257
-8.36129e-06
-1.23799e-05
-2.85366e-05
-4.9176e-05
-5.70567e-05
-9.00423e-05
-9.13597e-05
-0.000131108
-0.000129549
-0.000171028
-0.000170239
-0.000209845
-0.000212425
-0.000248278
-0.000255369
-0.000287225
-0.00029851
-0.000327467
-0.000341386
-0.0003695
-0.000383573
-0.00041348
-0.00042464
-0.000459223
-0.000464116
-0.000506239
-0.000501475
-0.000553767
-0.000536135
-0.000600824
-0.000567478
-0.000646241
-0.00059488
-0.000688703
-0.000617775
-0.000726799
-0.000635726
-0.000759085
-0.000648514
-0.000784168
-0.000656219
-0.000800824
-0.000659288
-0.000808133
-0.000658542
-0.000805616
-0.00065513
-0.00079327
-0.000771735
-0.000650422
-7.8772e-06
-4.5027e-06
-2.70069e-05
-3.00463e-05
-5.41112e-05
-6.29379e-05
-8.67234e-05
-9.8496e-05
-0.000123002
-0.000134749
-0.000161604
-0.000171243
-0.000201568
-0.000208314
-0.000242209
-0.000246585
-0.000283026
-0.00028665
-0.00032363
-0.000328896
-0.000363677
-0.000373432
-0.000402822
-0.000420079
-0.000440677
-0.000468383
-0.000476795
-0.00051765
-0.000510647
-0.000566972
-0.000541634
-0.000615254
-0.000569106
-0.000661231
-0.000592404
-0.000703502
-0.000610931
-0.000740557
-0.00062425
-0.00077085
-0.000632189
-0.000792884
-0.00063496
-0.000805363
-0.00063322
-0.000807355
-0.000628077
-0.000798413
-0.000778789
-0.000621023
-7.19235e-06
2.68965e-06
-2.48228e-05
-1.24158e-05
-4.98922e-05
-3.78686e-05
-8.00779e-05
-6.83104e-05
-0.000113617
-0.00010121
-0.000149216
-0.000135645
-0.00018595
-0.00017158
-0.000223174
-0.000209361
-0.000260438
-0.000249386
-0.00029741
-0.000291923
-0.000333821
-0.000337021
-0.00036941
-0.00038449
-0.000403885
-0.000433907
-0.000436896
-0.000484639
-0.00046801
-0.000535858
-0.000496701
-0.000586563
-0.000522352
-0.00063558
-0.000544282
-0.000681572
-0.00056179
-0.000723049
-0.000574249
-0.000758391
-0.000581222
-0.000785911
-0.000582617
-0.000803968
-0.000578823
-0.000811149
-0.000570785
-0.000806451
-0.000789542
-0.000560033
-6.34366e-06
9.0333e-06
-2.20916e-05
3.33216e-06
-4.45909e-05
-1.53693e-05
-7.1703e-05
-4.11983e-05
-0.000101763
-7.11494e-05
-0.00013353
-0.000103878
-0.00016611
-0.000138999
-0.000198887
-0.000176584
-0.00023144
-0.000216833
-0.000263481
-0.000259882
-0.000294795
-0.000305707
-0.000325196
-0.000354089
-0.000354484
-0.000404619
-0.000382416
-0.000456708
-0.000408673
-0.0005096
-0.000432848
-0.000562388
-0.000454419
-0.000614008
-0.000472759
-0.000663233
-0.000487149
-0.000708658
-0.000496845
-0.000748695
-0.00050118
-0.000781576
-0.000499737
-0.000805411
-0.000492543
-0.000818343
-0.000480246
-0.000818748
-0.000805501
-0.000464287
-5.37601e-06
1.44093e-05
-1.89453e-05
1.69014e-05
-3.84454e-05
4.13089e-06
-6.1951e-05
-1.76928e-05
-8.79105e-05
-4.51898e-05
-0.000115138
-7.66509e-05
-0.000142767
-0.000111369
-0.000170194
-0.000149157
-0.000197013
-0.000190015
-0.000222955
-0.00023394
-0.000247843
-0.000280819
-0.000271542
-0.00033039
-0.000293929
-0.000382233
-0.000314856
-0.000435781
-0.000334127
-0.000490329
-0.000351469
-0.000545046
-0.000366505
-0.000598973
-0.00037873
-0.000651007
-0.000387508
-0.000699881
-0.000392083
-0.00074412
-0.000391654
-0.000782005
-0.00038552
-0.000811545
-0.000373314
-0.000830549
-0.000355264
-0.000836798
-0.000828211
-0.000332554
-4.33862e-06
1.87479e-05
-1.55306e-05
2.80934e-05
-3.17232e-05
2.03234e-05
-5.1221e-05
1.80508e-06
-7.25969e-05
-2.3814e-05
-9.47233e-05
-5.45245e-05
-0.000116757
-8.93361e-05
-0.000138096
-0.000127818
-0.000158332
-0.000169778
-0.000177202
-0.00021507
-0.000194538
-0.000263483
-0.000210236
-0.000314691
-0.000224223
-0.000368246
-0.000236429
-0.000423575
-0.000246761
-0.000479997
-0.00025508
-0.000536726
-0.000261171
-0.000592882
-0.000264703
-0.000647475
-0.000265201
-0.000699382
-0.000262023
-0.000747299
-0.000254369
-0.000789659
-0.000241379
-0.000824535
-0.000222337
-0.000849592
-0.000196991
-0.000862144
-0.000859111
-0.000166091
-3.28105e-06
2.2029e-05
-1.19977e-05
3.681e-05
-2.47004e-05
3.30262e-05
-3.99289e-05
1.70336e-05
-5.63857e-05
-7.3572e-06
-7.30051e-05
-3.79051e-05
-8.89631e-05
-7.33781e-05
-0.000103656
-0.000113125
-0.000116661
-0.000156772
-0.000127703
-0.000204029
-0.000136607
-0.000254578
-0.000143278
-0.000308021
-0.000147666
-0.000363858
-0.000149753
-0.000421489
-0.000149525
-0.000480224
-0.000146959
-0.000539292
-0.00014199
-0.000597852
-0.000134478
-0.000654988
-0.000124162
-0.000709698
-0.000110611
-0.00076085
-9.31789e-05
-0.000807091
-7.10199e-05
-0.000846694
-4.32174e-05
-0.000877394
-9.07952e-06
-0.000896282
-0.000899406
3.1215e-05
-2.24936e-06
2.42783e-05
-8.4885e-06
4.30492e-05
-1.76416e-05
4.21792e-05
-2.84755e-05
2.78675e-05
-3.98228e-05
3.99015e-06
-5.06813e-05
-2.70467e-05
-6.02468e-05
-6.38126e-05
-6.7909e-05
-0.000105463
-7.32272e-05
-0.000151454
-7.59005e-05
-0.000201356
-7.57381e-05
-0.000254741
-7.26337e-05
-0.000311125
-6.65462e-05
-0.000369945
-5.7483e-05
-0.000430552
-4.54868e-05
-0.00049222
-3.06209e-05
-0.000554158
-1.29499e-05
-0.000615523
7.4894e-06
-0.000675427
3.07301e-05
-0.000732939
5.6937e-05
-0.000787057
8.64831e-05
-0.000836637
0.000120014
-0.000880225
0.00015843
-0.00091581
0.000202702
-0.000940554
-0.000949956
0.000253252
-1.28265e-06
2.5561e-05
-5.1264e-06
4.68929e-05
-1.07795e-05
4.78323e-05
-1.72167e-05
3.43046e-05
-2.33949e-05
1.01684e-05
-2.83747e-05
-2.20668e-05
-3.13728e-05
-6.08145e-05
-3.17722e-05
-0.000105064
-2.91109e-05
-0.000154116
-2.3061e-05
-0.000207406
-1.34068e-05
-0.000264395
-2.54488e-08
-0.000324506
1.71276e-05
-0.000387098
3.80301e-05
-0.000451454
6.2601e-05
-0.000516791
9.07097e-05
-0.000582267
0.000122187
-0.000647
0.000156845
-0.000710085
0.000194508
-0.000770601
0.000235065
-0.000827614
0.000278556
-0.000880128
0.000325279
-0.000926948
0.000375883
-0.000966414
0.000431357
-0.000996028
-0.00101119
0.000492593
-4.10486e-07
2.59715e-05
-2.00772e-06
4.84902e-05
-4.29932e-06
5.01239e-05
-6.43842e-06
3.64437e-05
-7.49425e-06
1.12242e-05
-6.58716e-06
-2.29739e-05
-2.95457e-06
-6.4447e-05
4.02546e-06
-0.000112044
1.48349e-05
-0.000164925
2.98272e-05
-0.000222398
4.92419e-05
-0.00028381
7.32173e-05
-0.000348482
0.000101801
-0.000415682
0.000134957
-0.00048461
0.000172568
-0.000554403
0.000214445
-0.000624144
0.00026033
-0.000692885
0.000309905
-0.00075966
0.000362816
-0.000823512
0.000418705
-0.000883503
0.000477281
-0.000938703
0.000538426
-0.000988093
0.000602349
-0.00103034
0.000669719
-0.0010634
-0.00108313
0.000741654
3.48724e-07
2.56227e-05
8.04038e-07
4.80348e-05
1.67308e-06
4.92549e-05
3.66184e-06
3.4455e-05
7.60648e-06
7.27955e-06
1.43337e-05
-2.97011e-05
2.4586e-05
-7.46993e-05
3.89879e-05
-0.000126446
5.80367e-05
-0.000183974
8.2105e-05
-0.000246466
0.000111448
-0.000313152
0.000146209
-0.000383243
0.000186428
-0.000455901
0.000232042
-0.000530224
0.00028289
-0.000605251
0.000338718
-0.000679972
0.000399179
-0.000753346
0.000463843
-0.000824324
0.000532206
-0.000891875
0.000603704
-0.000955001
0.000677756
-0.00101275
0.000753847
-0.00106418
0.000831675
-0.00110816
0.000911311
-0.00114303
-0.00116574
0.000993928
9.88356e-07
2.46344e-05
3.28091e-06
4.57423e-05
7.07741e-06
4.54584e-05
1.29855e-05
2.8547e-05
2.1769e-05
-1.50397e-06
3.42116e-05
-4.21437e-05
5.10374e-05
-9.15252e-05
7.287e-05
-0.000148278
0.000100214
-0.000211318
0.000133448
-0.000279701
0.000172827
-0.000352531
0.00021848
-0.000428896
0.000270413
-0.000507834
0.000328514
-0.000588325
0.000392556
-0.000669293
0.000462204
-0.00074962
0.000537024
-0.000828166
0.00061649
-0.000903791
0.000699995
-0.000975379
0.000786845
-0.00104185
0.000876263
-0.00110217
0.000967398
-0.00115532
0.00105939
-0.00120015
0.00115154
-0.00123519
-0.00125938
0.00124517
1.51316e-06
2.31212e-05
5.43016e-06
4.18253e-05
1.19191e-05
3.89694e-05
2.15338e-05
1.89323e-05
3.49908e-05
-1.4961e-05
5.30423e-05
-6.01953e-05
7.63963e-05
-0.000114879
0.000105669
-0.000177551
0.000141359
-0.000247007
0.000183832
-0.000322174
0.000233313
-0.000402012
0.000289884
-0.000485466
0.00035348
-0.00057143
0.0004239
-0.000658745
0.000500813
-0.000746206
0.000583774
-0.000832582
0.000672255
-0.000916646
0.000765666
-0.000997202
0.000863391
-0.0010731
0.000964809
-0.00114327
0.0010693
-0.00120666
0.00117617
-0.00126219
0.00128434
-0.00130833
0.00139118
-0.00134203
-0.00135839
0.00149019
1.93768e-06
2.11835e-05
7.29062e-06
3.64723e-05
1.6264e-05
2.9996e-05
2.94005e-05
5.79587e-06
4.73948e-05
-3.29553e-05
7.09794e-05
-8.37798e-05
0.000100846
-0.000144745
0.000137592
-0.000214298
0.000181691
-0.000291106
0.000233464
-0.000373946
0.000293066
-0.000461615
0.000360483
-0.000552883
0.000435527
-0.000646473
0.000517843
-0.000741062
0.000606939
-0.000835301
0.000702204
-0.000927847
0.000802962
-0.0010174
0.000908526
-0.00110277
0.00101827
-0.00118285
0.00113175
-0.00125674
0.00124881
-0.00132373
0.00136989
-0.00138326
0.00149649
-0.00143493
0.00163301
-0.00147855
-0.00151469
0.00178931
2.28526e-06
1.88983e-05
8.92815e-06
2.98294e-05
2.02282e-05
1.86959e-05
3.67552e-05
-1.07311e-05
5.9205e-05
-5.54051e-05
8.82986e-05
-0.000112873
0.000124707
-0.000181154
0.000168994
-0.000258584
0.000221573
-0.000343686
0.000282681
-0.000435054
0.00035235
-0.000531285
0.000430407
-0.00063094
0.000516468
-0.000732535
0.000609962
-0.000834556
0.000710154
-0.000935493
0.000816195
-0.00103389
0.000927173
-0.00112838
0.00104218
-0.00121778
0.0011604
-0.00130106
0.00128114
-0.00137749
0.001404
-0.00144658
0.0015289
-0.00150816
0.00165633
-0.00156236
0.00178746
-0.00160968
-0.00164912
0.00192189
2.5839e-06
1.63144e-05
1.04258e-05
2.19875e-05
2.39624e-05
5.15933e-06
4.38209e-05
-3.05897e-05
7.07154e-05
-8.22995e-05
0.000105359
-0.000147517
0.00014839
-0.000224184
0.000200309
-0.000310504
0.000261433
-0.00040481
0.000331855
-0.000505475
0.000411422
-0.000610852
0.00049973
-0.000719248
0.000596131
-0.000828936
0.000699762
-0.000938187
0.000809593
-0.00104532
0.00092448
-0.00114877
0.00104324
-0.00124714
0.0011647
-0.00133924
0.0012878
-0.00142416
0.00141161
-0.0015013
0.0015354
-0.00157037
0.00165863
-0.00163139
0.00178093
-0.00168467
0.00190188
-0.00173063
-0.00176775
0.00202051
2.86443e-06
1.345e-05
1.18761e-05
1.29759e-05
2.76351e-05
-1.05997e-05
5.08463e-05
-5.38009e-05
8.22503e-05
-0.000113704
0.000122546
-0.000187813
0.000172318
-0.000273956
0.000231966
-0.000370152
0.000301653
-0.000474498
0.000381268
-0.00058509
0.000470398
-0.000699982
0.000568337
-0.000817187
0.000674107
-0.000934706
0.000786506
-0.00105059
0.000904171
-0.00116299
0.00102565
-0.00127026
0.0011495
-0.00137098
0.00127433
-0.00146406
0.00139888
-0.00154871
0.00152207
-0.0016245
0.00164301
-0.00169131
0.00176097
-0.00174936
0.00187537
-0.00179907
0.00198564
-0.0018409
-0.00187365
0.00209154
3.15727e-06
1.02927e-05
1.33711e-05
2.76207e-06
3.14144e-05
-2.8643e-05
5.80767e-05
-8.04633e-05
9.41227e-05
-0.00014975
0.00014022
-0.000233911
0.000196864
-0.000330599
0.000264303
-0.000437591
0.000342484
-0.000552679
0.000431016
-0.000673621
0.000529156
-0.000798122
0.000635833
-0.000923863
0.00074969
-0.00104856
0.000869162
-0.00117006
0.000992559
-0.00128639
0.00111816
-0.00139586
0.00124432
-0.00149714
0.0013695
-0.00158925
0.0014924
-0.00167161
0.00161192
-0.00174401
0.00172719
-0.00180659
0.00183757
-0.00185974
0.00194259
-0.00190408
0.0020419
-0.00194022
-0.00196745
0.0021357
3.48973e-06
6.80295e-06
1.49942e-05
-8.74238e-06
3.54507e-05
-4.90995e-05
6.57272e-05
-0.00011074
0.000106597
-0.000190619
0.000158664
-0.000285978
0.000222288
-0.000394223
0.000297504
-0.000512806
0.00038397
-0.000639145
0.000480941
-0.000770593
0.000587281
-0.000904462
0.000701505
-0.00103809
0.000821862
-0.00116892
0.000946432
-0.00129463
0.00107324
-0.0014132
0.00120039
-0.001523
0.0013261
-0.00162285
0.00144886
-0.00171201
0.00156742
-0.00179017
0.00168082
-0.00185741
0.00178839
-0.00191415
0.00188971
-0.00196107
0.0019846
-0.00199897
0.00207306
-0.00202868
-0.00205001
0.00215562
3.88392e-06
2.91902e-06
1.68125e-05
-2.16709e-05
3.98632e-05
-7.21502e-05
7.39613e-05
-0.000144838
0.000119857
-0.000236515
0.000178049
-0.00034417
0.000248698
-0.000464872
0.000331553
-0.000595662
0.000425911
-0.000733503
0.000530608
-0.00087529
0.000644061
-0.00101792
0.000764357
-0.00115838
0.000889359
-0.00129392
0.00101685
-0.00142212
0.00114466
-0.00154101
0.00127079
-0.00164913
0.00139351
-0.00174557
0.00151141
-0.00182991
0.00162344
-0.0019022
0.0017289
-0.00196287
0.00182742
-0.00201268
0.0019189
-0.00205254
0.00200347
-0.00208353
0.00208145
-0.00210666
-0.00212217
0.00215361
4.35551e-06
-1.43649e-06
1.88728e-05
-3.61882e-05
4.4731e-05
-9.80083e-05
8.28764e-05
-0.000182983
0.000133992
-0.00028763
0.00019841
-0.000408588
0.000276024
-0.000542486
0.000366222
-0.00068586
0.000467867
-0.000835147
0.000579321
-0.000986744
0.000698538
-0.00113713
0.000823183
-0.00128303
0.000950792
-0.00142153
0.00107893
-0.00155026
0.00120535
-0.00166743
0.00132809
-0.00177187
0.00144557
-0.00186305
0.00155663
-0.00194097
0.00166052
-0.00200609
0.00175687
-0.00205922
0.00184564
-0.00210145
0.00192706
-0.00213397
0.00200157
-0.00215804
0.00206977
-0.00217485
-0.00218497
0.00213257
4.91327e-06
-6.34976e-06
2.12001e-05
-5.2475e-05
5.00894e-05
-0.000126898
9.24994e-05
-0.000225393
0.000148987
-0.000344118
0.000219648
-0.000479249
0.000304029
-0.000626867
0.000401085
-0.000782915
0.000509184
-0.000943246
0.000626189
-0.00110375
0.000749593
-0.00126054
0.000876693
-0.00141013
0.00100478
-0.00154962
0.00113134
-0.00167681
0.00125414
-0.00179023
0.00137142
-0.00188915
0.00148186
-0.00197349
0.00158463
-0.00204374
0.00167934
-0.0021008
0.00176598
-0.00214587
0.00184486
-0.00218032
0.0019165
-0.00220561
0.00198158
-0.00222313
0.0020409
-0.00223417
-0.00223953
0.00209546
5.55953e-06
-1.19093e-05
2.37976e-05
-7.07131e-05
5.59313e-05
-0.000159031
0.000102789
-0.000272251
0.000164729
-0.000406058
0.000241533
-0.000556053
0.000332324
-0.000717658
0.000435553
-0.000886144
0.000549057
-0.00105675
0.000670198
-0.00122489
0.000796052
-0.00138639
0.000923635
-0.00153771
0.00105012
-0.0016761
0.001173
-0.0017997
0.00129027
-0.0019075
0.00140041
-0.0019993
0.00150249
-0.00207557
0.00159605
-0.0021373
0.0016811
-0.00218584
0.00175797
-0.00222274
0.00182726
-0.00224962
0.00188974
-0.00226809
0.00194626
-0.00227965
0.00199773
-0.00228564
-0.00228696
0.00204516
6.2911e-06
-1.82004e-05
2.66502e-05
-9.10722e-05
6.22122e-05
-0.000194593
0.000113642
-0.000323681
0.000181022
-0.000473438
0.000263734
-0.000638765
0.000360404
-0.000814328
0.000468928
-0.000994669
0.000586599
-0.00117442
0.000710309
-0.0013486
0.000836798
-0.00151288
0.000962914
-0.00166383
0.00108584
-0.00179903
0.00120324
-0.00191711
0.00131341
-0.00201766
0.00141521
-0.0021011
0.0015081
-0.00216847
0.00159206
-0.00222126
0.00166743
-0.00226121
0.00173487
-0.00229017
0.0017952
-0.00230995
0.00184936
-0.00232225
0.0018983
-0.00232859
0.00194296
-0.0023303
-0.00232831
0.00198431
7.1006e-06
-2.5301e-05
2.97279e-05
-0.0001137
6.88573e-05
-0.000233723
0.00012491
-0.000379734
0.000197605
-0.000546134
0.000285845
-0.000727005
0.000387691
-0.000916174
0.000500458
-0.00110744
0.000620911
-0.00129487
0.00074554
-0.00147323
0.000870858
-0.0016382
0.000993678
-0.00178665
0.00111133
-0.00191668
0.00122179
-0.00202756
0.00132371
-0.00211958
0.00141641
-0.0021938
0.00149978
-0.00225183
0.00157415
-0.00229563
0.00164021
-0.00232727
0.00169885
-0.0023488
0.00175104
-0.00236215
0.00179782
-0.00236903
0.00184017
-0.00237094
0.001879
-0.00236913
-0.00236451
0.00191521
7.97766e-06
-3.32787e-05
3.29894e-05
-0.000138711
7.57689e-05
-0.000276502
0.000136407
-0.000440372
0.000214172
-0.000623899
0.00030741
-0.000820242
0.000413572
-0.00102234
0.00052939
-0.00122325
0.000651151
-0.00141664
0.000775041
-0.00159712
0.000897476
-0.00176063
0.00101538
-0.00190455
0.00112635
-0.00202766
0.00122877
-0.00212998
0.00132173
-0.00221254
0.001405
-0.00227707
0.00147888
-0.00232571
0.00154405
-0.0023608
0.00160141
-0.00238464
0.00165204
-0.00239943
0.00169701
-0.00240711
0.00173735
-0.00240937
0.00177404
-0.00240762
0.00180791
-0.002403
-0.00239636
0.00183976
8.90999e-06
-4.21886e-05
3.63858e-05
-0.000166187
8.28336e-05
-0.00032295
0.000147924
-0.000505462
0.00023039
-0.000706365
0.000327956
-0.000917808
0.000437441
-0.00113182
0.000555021
-0.00134083
0.000676587
-0.0015382
0.000798144
-0.00171868
0.000916153
-0.00187864
0.00102778
-0.00201618
0.00113101
-0.00213089
0.00122468
-0.00222364
0.00130835
-0.00229622
0.00138224
-0.00235095
0.00144698
-0.00239045
0.00150352
-0.00241734
0.00155296
-0.00243409
0.00159645
-0.00244292
0.00163508
-0.00244575
0.00166987
-0.00244416
0.00170171
-0.00243946
0.00173136
-0.00243265
-0.00242449
0.00175949
9.88409e-06
-5.20727e-05
3.98632e-05
-0.000196166
8.99279e-05
-0.000373015
0.000159239
-0.000574774
0.000245916
-0.000793041
0.000347016
-0.00101891
0.000458729
-0.00124353
0.000576733
-0.00145884
0.000696635
-0.0016581
0.000814395
-0.00183644
0.00092666
-0.00199091
0.00103095
-0.00212047
0.00112572
-0.00222566
0.00121029
-0.00230821
0.00128468
-0.00237061
0.00134949
-0.00241576
0.00140566
-0.00244662
0.00145431
-0.00246599
0.00149665
-0.00247643
0.00153386
-0.00248012
0.00156699
-0.00247888
0.00159699
-0.00247416
0.00162467
-0.00246713
0.00165068
-0.00245867
-0.00244938
0.00167557
1.08857e-05
-6.29584e-05
4.33646e-05
-0.000228645
9.69228e-05
-0.000426573
0.000170126
-0.000647977
0.000260413
-0.000883329
0.000364151
-0.00112265
0.000476932
-0.00135632
0.000594026
-0.00157593
0.000710884
-0.00177496
0.000823566
-0.00194912
0.000929025
-0.00209637
0.00102523
-0.00221668
0.00111115
-0.00231157
0.00118657
-0.00238363
0.00125195
-0.002436
0.0013082
-0.00247201
0.00135647
-0.00249489
0.00139802
-0.00250754
0.00143408
-0.00251249
0.00146578
-0.00251183
0.00149415
-0.00250724
0.00152001
-0.00250003
0.00154408
-0.0024912
0.00156691
-0.00248149
-0.00247141
0.00158893
1.18998e-05
-7.48583e-05
4.68309e-05
-0.000263576
0.000103687
-0.000483429
0.00018036
-0.00072465
0.000273561
-0.000976529
0.000378967
-0.00122805
0.000491633
-0.00146898
0.000606536
-0.00169083
0.000719108
-0.00188753
0.000825642
-0.00205565
0.000923506
-0.00219423
0.00101118
-0.00230435
0.00108812
-0.00238851
0.0011546
-0.0024501
0.00121142
-0.00249282
0.00125975
-0.00252033
0.00130086
-0.002536
0.00133607
-0.00254275
0.0013666
-0.00254301
0.0013935
-0.00253874
0.00141771
-0.00253144
0.00143996
-0.00252228
0.00146084
-0.00251208
0.00148082
-0.00250147
-0.00249083
0.00150024
1.29112e-05
-8.77695e-05
5.02022e-05
-0.000300867
0.000110092
-0.000543319
0.00018973
-0.000804288
0.000285069
-0.00107187
0.000391129
-0.00133411
0.000502514
-0.00158037
0.000614038
-0.00180236
0.000721254
-0.00199475
0.000820804
-0.0021552
0.000910546
-0.00228397
0.000989488
-0.00238329
0.00105759
-0.00245661
0.0011155
-0.00250802
0.00116434
-0.00254166
0.00120542
-0.00256141
0.00124011
-0.00257069
0.0012697
-0.00257235
0.00129535
-0.00256867
0.00131805
-0.00256143
0.00133859
-0.00255199
0.00135762
-0.00254131
0.00137564
-0.0025301
0.00139301
-0.00251884
-0.00250783
0.00141
1.3904e-05
-0.000101673
5.34187e-05
-0.000340382
0.000116011
-0.000605911
0.000198036
-0.000886313
0.000294685
-0.00116852
0.000400372
-0.0014398
0.000509366
-0.00168936
0.000616451
-0.00190944
0.000717431
-0.00209573
0.000809393
-0.00224716
0.000890728
-0.00236531
0.000960968
-0.00245353
0.00102052
-0.00251617
0.00107038
-0.00255788
0.00111186
-0.00258314
0.00114638
-0.00259594
0.00117532
-0.00259964
0.00119994
-0.00259696
0.00122128
-0.00259001
0.00124024
-0.00258039
0.00125751
-0.00256926
0.00127363
-0.00255743
0.001289
-0.00254547
0.00130392
-0.00253376
-0.0025225
0.0013186
1.48621e-05
-0.000116536
5.64217e-05
-0.000381941
0.000121327
-0.000670816
0.000205103
-0.000970089
0.000302199
-0.00126561
0.000406508
-0.00154411
0.000512086
-0.00179494
0.000613823
-0.00201118
0.000707886
-0.00218979
0.000791874
-0.00233115
0.000864725
-0.00243816
0.000926464
-0.00251527
0.000977888
-0.00256759
0.00102025
-0.00260024
0.00105501
-0.0026179
0.00108363
-0.00262455
0.00110745
-0.00262345
0.00112762
-0.00261714
0.00114513
-0.00260752
0.00116073
-0.00259599
0.00117501
-0.00258354
0.00118843
-0.00257084
0.00120131
-0.00255835
0.00121389
-0.00254634
-0.00253493
0.00122632
1.57694e-05
-0.000132305
5.91552e-05
-0.000425327
0.000125932
-0.000737593
0.000210781
-0.00105494
0.000307456
-0.00136229
0.000409428
-0.00164608
0.000510673
-0.00189618
0.000606316
-0.00210682
0.000692975
-0.00227645
0.000768797
-0.00240697
0.000833256
-0.00250262
0.000886823
-0.00256883
0.000930614
-0.00261138
0.000966075
-0.00263571
0.000994733
-0.00264656
0.00101803
-0.00264785
0.00103725
-0.00264267
0.00105345
-0.00263334
0.00106748
-0.00262155
0.00108001
-0.00260851
0.00109152
-0.00259505
0.00110239
-0.00258171
0.00111288
-0.00256884
0.00112317
-0.00255663
-0.00254514
0.00113337
1.66102e-05
-0.000148915
6.15666e-05
-0.000470284
0.000129732
-0.000805758
0.00021495
-0.00114016
0.000310349
-0.00145769
0.000409096
-0.00174483
0.000505219
-0.00199231
0.000594187
-0.00219579
0.000673133
-0.0023554
0.000740763
-0.0024746
0.000797053
-0.00255891
0.000842859
-0.00261464
0.000879546
-0.00264807
0.000908678
-0.00266484
0.000931801
-0.00266968
0.000950309
-0.00266636
0.000965381
-0.00265774
0.000977969
-0.00264592
0.000988813
-0.0026324
0.000998473
-0.00261818
0.00100736
-0.00260394
0.00101578
-0.00259013
0.00102393
-0.00257699
0.00103196
-0.00256466
-0.00255313
0.00103995
1.73693e-05
-0.000166285
6.36084e-05
-0.000516523
0.000132647
-0.000874796
0.000217524
-0.00122503
0.000310828
-0.00155099
0.000405549