/*--------------------------------*- C++ -*----------------------------------*\
  =========                 |
  \\      /  F ield         | OpenFOAM: The Open Source CFD Toolbox
   \\    /   O peration     | Website:  https://openfoam.org
    \\  /    A nd           | Version:  6.0
     \\/     M anipulation  |
\*---------------------------------------------------------------------------*/
FoamFile
{
    version     2.0;
    format      ascii;
    class       surfaceScalarField;
    location    "6";
    object      phi;
}
// * * * * * * * * * * * * * * * * * * * * * * * * * * * * * * * * * * * * * //

dimensions      [0 3 -1 0 0 0 0];

internalField   nonuniform List<scalar> 
15760
(
-1.01264e-05
9.95643e-06
1.69993e-07
-3.42384e-05
2.37186e-05
3.93391e-07
-6.83108e-05
3.35382e-05
5.34187e-07
-0.00010955
4.06232e-05
6.16272e-07
-0.000155965
4.57572e-05
6.57767e-07
-0.000206135
4.94973e-05
6.72275e-07
-0.000259045
5.22401e-05
6.69574e-07
-0.000313967
5.42665e-05
6.56312e-07
-0.000370379
5.57753e-05
6.36687e-07
-0.000427899
5.69068e-05
6.13082e-07
-0.000486246
5.776e-05
5.86606e-07
-0.00054521
5.84061e-05
5.57564e-07
-0.000604633
5.88978e-05
5.25811e-07
-0.0006644
5.92761e-05
4.90984e-07
-0.000724428
5.95754e-05
4.52665e-07
-0.000784665
5.98263e-05
4.10535e-07
-0.000845086
6.00564e-05
3.64451e-07
-0.000905686
6.02859e-05
3.14304e-07
-0.000966481
6.05344e-05
2.60036e-07
6.08689e-05
2.01893e-07
-0.00102755
-9.75899e-06
1.97154e-05
-3.30791e-05
4.70387e-05
-6.61023e-05
6.65614e-05
-0.000106127
8.06477e-05
-0.000151209
9.08391e-05
-0.000199948
9.82365e-05
-0.000251335
0.000103627
-0.000304638
0.000107569
-0.000359324
0.000110462
-0.000415002
0.000112584
-0.000471378
0.000114137
-0.000528233
0.000115261
-0.000585398
0.000116063
-0.000642747
0.000116625
-0.000700188
0.000117017
-0.000757661
0.000117299
-0.000815132
0.000117527
-0.000872589
0.000117743
-0.00093004
0.000117985
0.000118383
-0.000987554
-9.04707e-06
2.87625e-05
-3.08265e-05
6.88182e-05
-6.18021e-05
9.7537e-05
-9.94495e-05
0.000118295
-0.000141918
0.000133308
-0.00018785
0.000144169
-0.000236246
0.000152023
-0.000286368
0.000157691
-0.000337666
0.00016176
-0.000389728
0.000164647
-0.00044224
0.000166649
-0.000494961
0.000167981
-0.000547702
0.000168804
-0.00060032
0.000169243
-0.000652706
0.000169402
-0.000704782
0.000169375
-0.000756501
0.000169247
-0.000807841
0.000169083
-0.000858796
0.00016894
0.000169001
-0.000909414
-8.03899e-06
3.68015e-05
-2.76217e-05
8.84008e-05
-5.56617e-05
0.000125577
-8.98862e-05
0.000152519
-0.00012858
0.000172002
-0.000170447
0.000186036
-0.000214507
0.000196082
-0.000260014
0.000203198
-0.000306399
0.000208145
-0.000353221
0.000211469
-0.000400139
0.000213567
-0.000446882
0.000214724
-0.000493235
0.000215157
-0.000539029
0.000215037
-0.000584133
0.000214506
-0.00062845
0.000213692
-0.000671917
0.000212714
-0.000714498
0.000211664
-0.000756178
0.00021062
0.000209807
-0.000796985
-6.80225e-06
4.36037e-05
-2.36629e-05
0.000105262
-4.80379e-05
0.000149952
-7.79619e-05
0.000182443
-0.00011189
0.000205929
-0.000148608
0.000222754
-0.000187165
0.00023464
-0.000226813
0.000242845
-0.00026696
0.000248291
-0.000307136
0.000251646
-0.000346966
0.000253397
-0.000386146
0.000253904
-0.000424429
0.00025344
-0.000461617
0.000252225
-0.000497553
0.000250442
-0.000532121
0.00024826
-0.00056524
0.000245834
-0.00059687
0.000243293
-0.000626992
0.000240742
0.000238441
-0.000655625
-5.41782e-06
4.90216e-05
-1.91917e-05
0.000119035
-3.9369e-05
0.000170129
-6.43271e-05
0.000207401
-9.27167e-05
0.000234319
-0.000123426
0.000253463
-0.000155543
0.000266757
-0.000188326
0.000275628
-0.000221165
0.00028113
-0.000253563
0.000284044
-0.000285109
0.000284943
-0.000315463
0.000284258
-0.000344345
0.000282322
-0.000371524
0.000279404
-0.000396818
0.000275735
-0.000420087
0.000271529
-0.000441242
0.000266989
-0.00046024
0.000262291
-0.00047708
0.000257582
0.000253155
-0.000491794
-3.97352e-06
5.29951e-05
-1.44742e-05
0.000129536
-3.01447e-05
0.0001858
-4.97165e-05
0.000226973
-7.2051e-05
0.000256654
-9.61521e-05
0.000277564
-0.000121164
0.000291769
-0.000146358
0.000300822
-0.000171119
0.000305891
-0.000194924
0.00030785
-0.000217334
0.000307352
-0.000237973
0.000304897
-0.000256524
0.000300873
-0.000272723
0.000295604
-0.000286357
0.00028937
-0.000297266
0.000282438
-0.000305349
0.000275072
-0.000310574
0.000267516
-0.000312974
0.000259982
0.000252813
-0.000312632
-2.55716e-06
5.55522e-05
-9.78179e-06
0.000136761
-2.08721e-05
0.00019689
-3.49008e-05
0.000241002
-5.09419e-05
0.000272695
-6.81258e-05
0.000294748
-8.56647e-05
0.000309308
-0.00010286
0.000318017
-0.000119099
0.00032213
-0.000133848
0.000322599
-0.000146643
0.000320147
-0.000157077
0.000315331
-0.000164798
0.000308595
-0.000169505
0.000300311
-0.000170949
0.000290813
-0.00016894
0.000280429
-0.000163363
0.000269495
-0.000154198
0.000258351
-0.000141531
0.000247315
0.00023683
-0.000125547
-1.24995e-06
5.68022e-05
-5.37147e-06
0.000140882
-1.20398e-05
0.000203559
-2.06332e-05
0.000249595
-3.04275e-05
0.000282489
-4.06834e-05
0.000305004
-5.06924e-05
0.000319317
-5.98001e-05
0.000327125
-6.74131e-05
0.000329743
-7.29983e-05
0.000328184
-7.60775e-05
0.000323226
-7.62216e-05
0.000315475
-7.30452e-05
0.000305418
-6.62059e-05
0.000293471
-5.54095e-05
0.000280017
-4.04228e-05
0.000265442
-2.10988e-05
0.000250171
2.58317e-06
0.000234669
3.04732e-05
0.000219425
0.000205073
6.22299e-05
-1.20713e-07
5.69229e-05
-1.46691e-06
0.000142228
-4.08193e-06
0.000206174
-7.59417e-06
0.000253108
-1.14583e-05
0.000286353
-1.50609e-05
0.000308607
-1.77805e-05
0.000322036
-1.90202e-05
0.000328364
-1.82213e-05
0.000328944
-1.48668e-05
0.00032483
-8.47945e-06
0.000316839
1.38378e-06
0.000305612
1.51365e-05
0.000291666
3.31639e-05
0.000275444
5.58171e-05
0.000257364
8.33948e-05
0.000237865
0.000116106
0.000217459
0.000154005
0.00019677
0.000196892
0.000176538
0.000157748
0.000244217
7.78603e-07
5.61443e-05
1.7575e-06
0.000141249
2.65492e-06
0.000205276
3.66222e-06
0.0002521
5.18086e-06
0.000284835
7.71036e-06
0.000306077
1.17836e-05
0.000317963
1.7931e-05
0.000322217
2.66632e-05
0.000320212
3.84658e-05
0.000313027
5.3801e-05
0.000301504
7.31133e-05
0.000286299
9.68365e-05
0.000267942
0.000125398
0.000246883
0.000159214
0.000223548
0.000198672
0.000198406
0.000244085
0.000172047
0.00029559
0.000145265
0.000352985
0.000119143
9.52566e-05
0.000415476
1.41613e-06
5.47282e-05
4.18933e-06
0.000138476
7.93935e-06
0.000201526
1.27567e-05
0.000247283
1.8943e-05
0.000278648
2.69048e-05
0.000298115
3.70933e-05
0.000307775
4.99699e-05
0.000309341
6.599e-05
0.000304192
8.55978e-05
0.000293419
0.000109229
0.000277872
0.000137318
0.000258211
0.000170307
0.000234953
0.00020866
0.00020853
0.00025286
0.000179348
0.000303396
0.00014787
0.000360717
0.000114726
0.000425106
8.08753e-05
0.000496428
4.78211e-05
1.80337e-05
0.000573651
1.78196e-06
5.29462e-05
5.78686e-06
0.000134471
1.16763e-05
0.000195637
1.95235e-05
0.000239436
2.9581e-05
0.000268591
4.21927e-05
0.000285504
5.77446e-05
0.000292223
7.66379e-05
0.000290447
9.92762e-05
0.000281554
0.000126062
0.000266633
0.000157401
0.000246534
0.000193711
0.000221901
0.000235434
0.000193229
0.000283054
0.000160909
0.000337107
0.000125296
0.000398174
8.68026e-05
0.000466845
4.60555e-05
0.000543584
4.13617e-06
0.000628399
-3.69946e-05
-7.36368e-05
0.00072007
1.88879e-06
5.10574e-05
6.5834e-06
0.000129777
1.39193e-05
0.000188301
2.40352e-05
0.00022932
3.71902e-05
0.000255436
5.37048e-05
0.000268989
7.39289e-05
0.000271999
9.8226e-05
0.00026615
0.000126966
0.000252814
0.000160525
0.000233075
0.000199287
0.000207771
0.000243659
0.00017753
0.000294075
0.000142813
0.00035102
0.000103964
0.000415045
6.12707e-05
0.000486776
1.50713e-05
0.000566892
-3.40605e-05
0.000656008
-8.49801e-05
0.000754311
-0.000135297
-0.000179806
0.000860481
1.77145e-06
4.9286e-05
6.6869e-06
0.000124861
1.48723e-05
0.000180115
2.66098e-05
0.000217582
4.22246e-05
0.000239821
6.20615e-05
0.000249152
8.64761e-05
0.000247584
0.000115832
0.000236794
0.000150502
0.000218144
0.000190866
0.000192711
0.000237315
0.000161322
0.000290255
0.000124589
0.000350116
8.29525e-05
0.000417357
3.67229e-05
0.000492487
-1.38587e-05
0.000576077
-6.85195e-05
0.000668769
-0.000126752
0.000771195
-0.000187406
0.000883656
-0.000247758
-0.000300982
0.00100483
1.48493e-06
4.7801e-05
6.27385e-06
0.000120072
1.4879e-05
0.00017151
2.77967e-05
0.000204665
4.54788e-05
0.000222139
6.83505e-05
0.000226281
9.68267e-05
0.000219108
0.000131324
0.000202297
0.000172265
0.000177202
0.000220082
0.000144894
0.000275209
0.000106195
0.000338078
6.17208e-05
0.000409108
1.19224e-05
0.000488702
-4.28718e-05
0.000577248
-0.000102404
0.000675125
-0.000166397
0.000782732
-0.000234359
0.000900468
-0.000305143
0.00102853
-0.000375824
-0.000438083
0.00116564
1.10076e-06
4.67003e-05
5.5767e-06
0.000115596
1.43976e-05
0.000162689
2.83358e-05
0.000190726
4.80301e-05
0.000202444
7.40463e-05
0.000200264
0.00010692
0.000186234
0.00014718
0.000162037
0.000195357
0.000129025
0.000251981
8.82702e-05
0.000317565
4.06112e-05
0.000392581
-1.32953e-05
0.000477431
-7.29276e-05
0.000572414
-0.000137854
0.000677697
-0.000207687
0.00079331
-0.00028201
0.000919171
-0.00036022
0.00105512
-0.000441094
0.00120086
-0.000521566
-0.00059216
0.00135494
7.01168e-07
4.59991e-05
4.86421e-06
0.000111433
1.39616e-05
0.000153592
2.90922e-05
0.000175596
5.11385e-05
0.000180398
8.08674e-05
0.000170536
0.000118995
0.000148107
0.000166218
0.000114813
0.000223223
7.20201e-05
0.00029067
2.08233e-05
0.000369163
-3.78818e-05
0.000459205
-0.000103337
0.00056114
-0.000174863
0.000675094
-0.000251808
0.000800907
-0.0003335
0.000938096
-0.000419199
0.00108587
-0.000507994
0.00124322
-0.000598442
0.00140892
-0.000687269
-0.00076418
0.00158094
3.71311e-07
4.56278e-05
4.4156e-06
0.000107389
1.41266e-05
0.000143881
3.09679e-05
0.000158755
5.61136e-05
0.000155252
9.05836e-05
0.000136066
0.000135322
0.000103369
0.00019123
5.8905e-05
0.000259167
4.08338e-06
0.000339918
-5.9928e-05
0.00043415
-0.000132113
0.000542341
-0.000211529
0.000664712
-0.000297235
0.000801138
-0.000388234
0.000951057
-0.000483419
0.00111338
-0.000581521
0.00128643
-0.000681049
0.00146804
-0.000780043
0.00165566
-0.000874895
-0.000954935
0.00184642
1.9026e-07
4.54376e-05
4.49148e-06
0.000103088
1.54124e-05
0.00013296
3.48035e-05
0.000139363
6.41648e-05
0.000125891
0.000104801
9.54289e-05
0.000157906
5.0264e-05
0.000224583
-7.77176e-06
0.00030583
-7.71642e-05
0.000402495
-0.000156593
0.000515206
-0.000244824
0.000644308
-0.00034063
0.000789787
-0.000442714
0.000951218
-0.000549665
0.0011277
-0.000659906
0.00131783
-0.000771647
0.00151956
-0.000882777
0.00172988
-0.000990361
0.00194327
-0.00108829
-0.00115642
0.00214476
2.21658e-07
4.52159e-05
5.30544e-06
9.80042e-05
1.82463e-05
0.000120019
4.12863e-05
0.000116323
7.62628e-05
9.09147e-05
0.000124769
4.69222e-05
0.000188226
-1.31925e-05
0.000267882
-8.74275e-05
0.000364774
-0.000174056
0.00047966
-0.000271479
0.000612945
-0.000378109
0.000764615
-0.0004923
0.000934205
-0.000612304
0.0011208
-0.000736263
0.00132313
-0.000862232
0.00153971
-0.000988223
0.00176919
-0.00111226
0.00201117
-0.00123234
0.00226917
-0.00134629
-0.00144365
0.0025564
5.10353e-07
4.47056e-05
7.00894e-06
9.15056e-05
2.29296e-05
0.000104099
5.08894e-05
8.83636e-05
9.30469e-05
4.87571e-05
0.000151248
-1.12786e-05
0.000227065
-8.901e-05
0.000321772
-0.000182134
0.000436267
-0.000288552
0.00057099
-0.000406202
0.000725842
-0.000532961
0.000900139
-0.000666597
0.00109262
-0.000804781
0.00130148
-0.000945128
0.00152453
-0.00108529
0.00175935
-0.00122304
0.00200351
-0.00135642
0.00225504
-0.00148386
0.00251299
-0.00160425
-0.00170914
0.00277849
1.07623e-06
4.36293e-05
9.67746e-06
8.29044e-05
2.96146e-05
8.41615e-05
6.38398e-05
5.41385e-05
0.000114783
-2.18596e-06
0.000184459
-8.09544e-05
0.000274464
-0.000179015
0.000385908
-0.000293578
0.000519309
-0.000421953
0.0006745
-0.000561394
0.000850573
-0.000709033
0.00104587
-0.000861892
0.00125804
-0.00101695
0.00148419
-0.00117128
0.00172102
-0.00132212
0.00196507
-0.00146709
0.00221287
-0.00160422
0.00246112
-0.00173211
0.0027068
-0.00184993
-0.00195138
0.00294904
1.91957e-06
4.17098e-05
1.33214e-05
7.15025e-05
3.83203e-05
5.91626e-05
8.01387e-05
1.23201e-05
0.00014139
-6.3437e-05
0.000224125
-0.00016369
0.000329776
-0.000284666
0.00045904
-0.000422842
0.000611765
-0.000574678
0.000786872
-0.0007365
0.000982349
-0.00090451
0.00119533
-0.00107488
0.00142228
-0.0012439
0.00165916
-0.00140815
0.00190174
-0.0015647
0.00214583
-0.00171117
0.00238745
-0.00184585
0.00262302
-0.00196768
0.00284942
-0.00207633
-0.00216801
0.00306605
3.02648e-06
3.86833e-05
1.79018e-05
5.66271e-05
4.89613e-05
2.81032e-05
9.96057e-05
-3.83243e-05
0.000172503
-0.000136334
0.000269556
-0.000260743
0.000391784
-0.000406895
0.00053918
-0.000570238
0.000710604
-0.000746102
0.000903776
-0.000929672
0.00111537
-0.0011161
0.00134123
-0.00130074
0.00157666
-0.00147932
0.00181675
-0.00164825
0.00205672
-0.00180468
0.00229219
-0.00194664
0.00251936
-0.00207302
0.00273515
-0.00218348
0.00293725
-0.00227843
-0.00235626
0.0031255
4.37648e-06
3.43068e-05
2.33514e-05
3.76522e-05
6.13848e-05
-9.93026e-06
0.000121934
-9.88738e-05
0.000207547
-0.000221947
0.000319742
-0.000372937
0.000458829
-0.000545982
0.00062377
-0.000735179
0.00081214
-0.000934472
0.00102024
-0.00113777
0.00124334
-0.00133921
0.0014761
-0.00153349
0.00171294
-0.00171617
0.00194852
-0.00188383
0.00217806
-0.00203421
0.00239758
-0.00216616
0.00260408
-0.00227952
0.00279555
-0.00237495
0.00297089
-0.00245377
-0.0025161
0.00313073
5.94924e-06
2.83576e-05
2.95927e-05
1.40087e-05
7.54025e-05
-5.574e-05
0.000146736
-0.000170207
0.000245799
-0.00032101
0.000373433
-0.000500571
0.00052891
-0.00070146
0.000709844
-0.000916113
0.000912282
-0.00113691
0.00113101
-0.0013565
0.00136003
-0.00156823
0.00159309
-0.00176655
0.00182422
-0.0019473
0.0020482
-0.00210781
0.00226083
-0.00224684
0.00245911
-0.00236444
0.00264122
-0.00246163
0.00280644
-0.00254017
0.00295495
-0.00260228
-0.00264933
0.00308818
7.72824e-06
2.06293e-05
3.65483e-05
-1.48113e-05
9.0806e-05
-0.000109998
0.000173561
-0.000252962
0.000286405
-0.000433854
0.000429175
-0.000643341
0.000599763
-0.000872048
0.000794165
-0.00111051
0.00100679
-0.00134953
0.00123101
-0.00158072
0.00145984
-0.00179707
0.00168664
-0.00199335
0.00190564
-0.00216629
0.00211231
-0.00231447
0.00230354
-0.00243808
0.00247764
-0.00253853
0.00263413
-0.00261812
0.00277355
-0.00267959
0.00289716
-0.00272588
-0.0027592
0.00300704
9.70098e-06
1.09284e-05
4.41406e-05
-4.92509e-05
0.000107367
-0.000173224
0.000201898
-0.000347493
0.000328395
-0.000560351
0.000485336
-0.000800282
0.000668932
-0.00105564
0.000873398
-0.00131498
0.00109156
-0.0015677
0.00131569
-0.00180485
0.00153833
-0.00201971
0.00175304
-0.00220805
0.00195481
-0.00236807
0.00214032
-0.00249998
0.00230784
-0.0026056
0.00245708
-0.00268777
0.00258881
-0.00274985
0.00270458
-0.00279536
0.00280638
-0.00282768
-0.00284946
0.00289664
1.18561e-05
-9.27764e-07
5.22849e-05
-8.96797e-05
0.000124822
-0.000245761
0.000231155
-0.000453827
0.000370665
-0.000699861
0.000540133
-0.00096975
0.000733869
-0.00124938
0.000944312
-0.00152542
0.00116298
-0.00178636
0.00138152
-0.00202338
0.00159261
-0.0022308
0.00179062
-0.00240606
0.00197178
-0.00254923
0.00213425
-0.00266245
0.00227775
-0.00274911
0.00240324
-0.00281326
0.00251248
-0.00285909
0.00260767
-0.00289055
0.00269117
-0.00291118
-0.00292375
0.00276546
1.41794e-05
-1.51072e-05
6.08779e-05
-0.000136378
0.000142859
-0.000327742
0.000260651
-0.000571619
0.000411996
-0.000851206
0.000591697
-0.00114945
0.000792087
-0.00144977
0.00100403
-0.00173737
0.00121819
-0.00200052
0.0014262
-0.0022314
0.00162151
-0.00242611
0.00179974
-0.00258429
0.00195869
-0.00270818
0.00209798
-0.00280175
0.00221867
-0.00286979
0.00232267
-0.00291725
0.00241237
-0.00294879
0.00249029
-0.00296848
0.00255883
-0.00297972
-0.00298522
0.00262031
1.66496e-05
-3.17567e-05
6.97887e-05
-0.000189517
0.000161107
-0.00041906
0.000289615
-0.000700127
0.000451084
-0.00101268
0.000638173
-0.00133654
0.000841335
-0.00165293
0.00105026
-0.00194629
0.00125534
-0.00220561
0.00144884
-0.0024249
0.00162547
-0.00260274
0.00178241
-0.00274123
0.00191904
-0.00284481
0.00203635
-0.00291906
0.00213637
-0.00296981
0.00222168
-0.00300256
0.00229493
-0.00302205
0.00235867
-0.00303221
0.00241513
-0.00303618
-0.0030364
0.0024663
1.92356e-05
-5.09924e-05
7.88539e-05
-0.000249136
0.000179131
-0.000519337
0.000317205
-0.0008382
0.000486613
-0.00118208
0.000677847
-0.00152777
0.000879779
-0.00185486
0.00108146
-0.00214797
0.00127368
-0.00239782
0.00144984
-0.00260106
0.00160624
-0.00275914
0.00174172
-0.00287671
0.00185709
-0.00296017
0.0019544
-0.00301637
0.00203636
-0.00305177
0.00210581
-0.00307201
0.00216545
-0.00308168
0.00221762
-0.00308439
0.00226428
-0.00308284
-0.00307917
0.00230705
2.18961e-05
-7.28885e-05
8.78784e-05
-0.000315118
0.000196453
-0.000627911
0.000342554
-0.000984302
0.000517338
-0.00135687
0.00070928
-0.00171971
0.000906137
-0.00205172
0.00109695
-0.00233879
0.00127347
-0.00257434
0.00143065
-0.00275824
0.00156648
-0.00289497
0.00168135
-0.00299158
0.00177722
-0.00305605
0.00185689
-0.00309604
0.00192338
-0.00311826
0.00197958
-0.00312821
0.00202799
-0.00313009
0.00207067
-0.00312706
0.00210924
-0.00312141
-0.00311491
0.00214497
2.45793e-05
-9.74678e-05
9.66414e-05
-0.00038718
0.000212566
-0.000743836
0.000364824
-0.00113656
0.000542175
-0.00153422
0.000731412
-0.00190895
0.000919749
-0.00224006
0.00109684
-0.00251588
0.00125583
-0.00273333
0.00139343
-0.00289583
0.00150927
-0.00301081
0.00160503
-0.00308735
0.00168352
-0.00313453
0.00174793
-0.00316044
0.00180134
-0.00317168
0.00184648
-0.00317335
0.00188556
-0.00316917
0.0019203
-0.0031618
0.001952
-0.00315311
-0.00314455
0.00198163
2.72258e-05
-0.000124694
0.000104907
-0.000464861
0.000226971
-0.0008659
0.000383256
-0.00129284
0.00056028
-0.00171124
0.00074362
-0.00209229
0.000920567
-0.00241701
0.00108191
-0.00267722
0.00122249
-0.00287391
0.00134076
-0.0030141
0.00143781
-0.00310786
0.00151631
-0.00316584
0.00157956
-0.00319779
0.00163089
-0.00321178
0.00167327
-0.00321405
0.0017091
-0.00320918
0.00174027
-0.00320034
0.00176819
-0.00318972
0.00179387
-0.00317879
-0.00316869
0.00181802
2.97705e-05
-0.000154464
0.000112437
-0.000547528
0.000239202
-0.000992665
0.000397229
-0.00145087
0.000571095
-0.00188511
0.000745729
-0.00226693
0.000909079
-0.00258035
0.00105346
-0.0028216
0.00117551
-0.00299596
0.00127531
-0.0031139
0.00135512
-0.00318767
0.00141827
-0.00322899
0.00146831
-0.00324782
0.00150846
-0.00325193
0.00154142
-0.00324702
0.00156929
-0.00323704
0.0015936
-0.00322466
0.00161547
-0.00321159
0.00163567
-0.00319899
-0.00318774
0.00165472
3.2146e-05
-0.00018661
0.000119003
-0.000634385
0.000248855
-0.00112252
0.000406287
-0.0016083
0.000574369
-0.00205319
0.000737971
-0.00243053
0.000886189
-0.00272857
0.00101309
-0.00294851
0.0011171
-0.00309997
0.00119966
-0.00319646
0.00126391
-0.00325192
0.00131355
-0.00327863
0.00135212
-0.00328639
0.00138264
-0.00328245
0.00140747
-0.00327184
0.00142835
-0.00325792
0.00144652
-0.00324283
0.00146286
-0.00322793
0.00147794
-0.00321407
-0.00320194
0.00149213
3.42857e-05
-0.000220896
0.000124397
-0.000724497
0.000255612
-0.00125373
0.000410167
-0.00176286
0.000570142
-0.00221317
0.000720912
-0.0025813
0.000853089
-0.00286075
0.000962577
-0.00305799
0.0010494
-0.00318679
0.00111613
-0.00326319
0.00116646
-0.00330226
0.00120424
-0.00331641
0.00123284
-0.00331499
0.00125495
-0.00330456
0.00127259
-0.00328948
0.00128718
-0.00327252
0.00129971
-0.00325536
0.00131084
-0.00323906
0.00132101
-0.00322423
-0.0032114
0.00133047
3.61271e-05
-0.000257023
0.000128447
-0.000816816
0.000259254
-0.00138454
0.000408792
-0.0019124
0.000558709
-0.00236308
0.000695369
-0.00271796
0.000811126
-0.00297651
0.000903672
-0.00315054
0.000974418
-0.00325753
0.00102676
-0.00331553
0.00106471
-0.00334021
0.00109203
-0.00334373
0.00111184
-0.0033348
0.00112648
-0.0033192
0.00113762
-0.00330063
0.00114641
-0.00328131
0.00115362
-0.00326257
0.00115974
-0.00324518
0.00116511
-0.0032296
-0.0032162
0.00116991
3.76182e-05
-0.000294641
0.000131025
-0.000910223
0.000259679
-0.00151319
0.000402275
-0.00205499
0.00054058
-0.00250139
0.000662329
-0.00283971
0.000761714
-0.00307589
0.000838074
-0.0032269
0.000893946
-0.00331341
0.00093328
-0.00335487
0.000960181
-0.00336711
0.000978217
-0.00336177
0.000990166
-0.00334674
0.000998026
-0.00332706
0.00100316
-0.00330576
0.00100647
-0.00328462
0.00100855
-0.00326464
0.00100978
-0.00324641
0.00101041
-0.00323023
-0.00321637
0.00101057
3.87048e-05
-0.000333346
0.000132029
-0.00100355
0.000256854
-0.00163802
0.000390837
-0.00218898
0.000516365
-0.00262692
0.000622808
-0.00294615
0.00070618
-0.00315926
0.000767271
-0.00328799
0.000809478
-0.00335561
0.000837063
-0.00338245
0.000854057
-0.0033841
0.000863744
-0.00337146
0.000868548
-0.00335155
0.000870133
-0.00332865
0.000869592
-0.00330522
0.000867628
-0.00328265
0.000864697
-0.00326171
0.000861098
-0.00324281
0.000857016
-0.00322615
-0.0032119
0.000852551
3.93538e-05
-0.0003727
0.000131421
-0.00109561
0.000250871
-0.00175747
0.000374853
-0.00231296
0.000486802
-0.00273886
0.000577876
-0.00303722
0.000645815
-0.0032272
0.000692624
-0.0033348
0.00072231
-0.0033853
0.000739251
-0.00339939
0.000747283
-0.00339214
0.000749357
-0.00337353
0.000747545
-0.00334974
0.000743212
-0.00332431
0.000737221
-0.00329923
0.000730114
-0.00327555
0.000722243
-0.00325384
0.000713841
-0.00323441
0.000705051
-0.00321736
-0.0032028
0.000695947
3.95398e-05
-0.00041224
0.000129204
-0.00118528
0.000241891
-0.00187015
0.000354767
-0.00242583
0.000452654
-0.00283675
0.000528552
-0.00311312
0.000581769
-0.00328042
0.000615286
-0.00336832
0.000633496
-0.00340351
0.000640736
-0.00340663
0.000640569
-0.00339197
0.000635594
-0.00336856
0.000627556
-0.0033417
0.000617553
-0.00331431
0.000606258
-0.00328793
0.000594087
-0.00326338
0.000581311
-0.00324107
0.000568114
-0.00322121
0.00055461
-0.00320386
-0.00318905
0.000540858
3.92492e-05
-0.000451489
0.000125417
-0.00127145
0.000230134
-0.00197487
0.000331072
-0.00252677
0.000414683
-0.00292036
0.000475783
-0.00317422
0.000515055
-0.00331969
0.000536226
-0.00338949
0.000543885
-0.00341117
0.000542213
-0.00340496
0.000534451
-0.00338421
0.000522854
-0.00335696
0.000508867
-0.00332771
0.000493363
-0.00329881
0.000476859
-0.00327143
0.000459669
-0.00324619
0.000442004
-0.0032234
0.00042401
-0.00320322
0.000405783
-0.00318563
-0.00317064
0.000387374
3.84796e-05
-0.000489968
0.000120137
-0.0013531
0.000215867
-0.0020706
0.00030428
-0.00261519
0.000373619
-0.0029897
0.000420423
-0.00322103
0.000446546
-0.00334581
0.000456245
-0.00339919
0.000454155
-0.00340908
0.000444215
-0.00339502
0.00042933
-0.00336932
0.000411426
-0.00333906
0.000391687
-0.00330797
0.000370796
-0.00327792
0.000349141
-0.00324978
0.000326958
-0.003224
0.000304409
-0.00320085
0.000281613
-0.00318042
0.000258654
-0.00316267
-0.00314756
0.000235581
3.72394e-05
-0.000527208
0.000113466
-0.00142933
0.000199383
-0.00215652
0.000274905
-0.00269071
0.000330143
-0.00304494
0.000363229
-0.00325411
0.00037698
-0.00335957
0.000375999
-0.00339821
0.000364839
-0.00339792
0.000347153
-0.00337733
0.000325506
-0.00334767
0.000301526
-0.00331508
0.00027617
-0.00328262
0.000249965
-0.00325171
0.000223196
-0.00322301
0.000196033
-0.00319684
0.000168599
-0.00317342
0.000140994
-0.00315282
0.000113297
-0.00313498
-0.00311982
8.55565e-05
3.55462e-05
-0.000562754
0.00010553
-0.00149931
0.000180989
-0.00223198
0.000243441
-0.00275316
0.000284875
-0.00308637
0.000304862
-0.0032741
0.000306978
-0.00336168
0.000296015
-0.00338724
0.000276358
-0.00337826
0.000251341
-0.00335232
0.000223203
-0.00331954
0.000193311
-0.00328518
0.000162429
-0.00325173
0.000130957
-0.00322024
9.90942e-05
-0.00319114
6.69576e-05
-0.0031647
3.46365e-05
-0.0031411
2.21642e-06
-0.0031204
-3.02238e-05
-0.00310254
-0.00308742
-6.26306e-05
3.34257e-05
-0.00059618
9.64669e-05
-0.00156236
0.000160995
-0.0022965
0.000210352
-0.00280252
0.000238371
-0.00311439
0.000245887
-0.00328162
0.000237055
-0.00335285
0.000216723
-0.00336691
0.000189041
-0.00335058
0.000157018
-0.00332029
0.000122594
-0.00328511
8.69013e-05
-0.00324949
5.05497e-05
-0.00321538
1.38348e-05
-0.00318352
-2.31104e-05
-0.0031542
-6.02181e-05
-0.0031276
-9.74284e-05
-0.00310389
-0.000134668
-0.00308316
-0.000171854
-0.00306535
-0.00305035
-0.000208921
3.09102e-05
-0.00062709
8.64244e-05
-0.00161787
0.000139702
-0.00234978
0.00017607
-0.00283889
0.000191124
-0.00312945
0.00018679
-0.00327728
0.000167639
-0.0033337
0.000138466
-0.00333774
0.00010315
-0.00331526
6.43765e-05
-0.00328152
2.38096e-05
-0.00324454
-1.76111e-05
-0.00320807
-5.94036e-05
-0.00317359
-0.000101352
-0.00314157
-0.000143379
-0.00311217
-0.00018546
-0.00308552
-0.000227563
-0.00306178
-0.000269627
-0.00304109
-0.000311559
-0.00302342
-0.00300863
-0.000353278
2.80373e-05
-0.000655127
7.55543e-05
-0.00166539
0.0001174
-0.00239163
0.000140987
-0.00286247
0.000143567
-0.00313203
0.000127984
-0.0032617
9.90837e-05
-0.0033048
6.15301e-05
-0.00330018
1.89006e-05
-0.00327263
-2.64282e-05
-0.00323619
-7.30364e-05
-0.00319794
-0.000120147
-0.00316096
-0.000167377
-0.00312636
-0.000214568
-0.00309438
-0.000261689
-0.00306505
-0.000308752
-0.00303845
-0.000355759
-0.00301478
-0.00040266
-0.00299419
-0.000449348
-0.00297673
-0.00296226
-0.000495716
2.48485e-05
-0.000679975
6.40084e-05
-0.00170455
9.43634e-05
-0.00242198
0.000105458
-0.00287357
9.6077e-05
-0.00312265
6.98231e-05
-0.00323545
3.16906e-05
-0.00326667
-1.38473e-05
-0.00325465
-6.35248e-05
-0.00322296
-0.000115257
-0.00318446
-0.000167841
-0.00314535
-0.000220631
-0.00310817
-0.000273318
-0.00307367
-0.000325784
-0.00304192
-0.000378029
-0.00301281
-0.0004301
-0.00298638
-0.000482038
-0.00296284
-0.00053381
-0.00294242
-0.000585291
-0.00292525
-0.00291122
-0.000636338
2.13883e-05
-0.000701364
5.19362e-05
-0.00173509
7.08479e-05
-0.00244089
6.98044e-05
-0.00287252
4.89877e-05
-0.00310183
1.26111e-05
-0.00319907
-3.42823e-05
-0.00321977
-8.74565e-05
-0.00320147
-0.000143958
-0.00316646
-0.000201976
-0.00312644
-0.000260494
-0.00308683
-0.000318977
-0.00304969
-0.000377167
-0.00301548
-0.000434966
-0.00298412
-0.000492389
-0.00295538
-0.000549519
-0.00292925
-0.000606438
-0.00290592
-0.000663146
-0.00288571
-0.000719504
-0.00286889
-0.00285541
-0.000775306
1.7703e-05
-0.000719067
3.94827e-05
-0.00175687
4.70905e-05
-0.0024485
3.43131e-05
-0.00285975
2.59164e-06
-0.00307011
-4.33844e-05
-0.00315309
-9.8606e-05
-0.00316455
-0.000159104
-0.00314097
-0.000222235
-0.00310332
-0.000286438
-0.00306224
-0.000350866
-0.00302241
-0.000415075
-0.00298548
-0.000478837
-0.00295172
-0.000542059
-0.0029209
-0.000604753
-0.00289269
-0.00066702
-0.00286698
-0.000728995
-0.00284394
-0.000790728
-0.00282398
-0.000852075
-0.00280754
-0.00279476
-0.000912729
1.38399e-05
-0.000732907
2.67869e-05
-0.00176982
2.33096e-05
-0.00244502
-7.57662e-07
-0.00283568
-4.28518e-05
-0.00302801
-9.79255e-05
-0.00309802
-0.00016107
-0.00310141
-0.000228604
-0.00307344
-0.00029818
-0.00303375
-0.000368474
-0.00299195
-0.000438791
-0.00295209
-0.000508767
-0.0029155
-0.000578198
-0.00288229
-0.000646974
-0.00285212
-0.00071508
-0.00282458
-0.000782614
-0.00279945
-0.000849749
-0.00277681
-0.000916607
-0.00275712
-0.000983054
-0.0027411
-0.00272918
-0.00104864
9.84649e-06
-0.000742753
1.39805e-05
-0.00177396
-2.94572e-07
-0.00243075
-3.51765e-05
-0.0028008
-8.71115e-05
-0.00297608
-0.000150797
-0.00303433
-0.000221477
-0.00303073
-0.000295764
-0.00299915
-0.0003716
-0.00295791
-0.000447879
-0.00291567
-0.000524049
-0.00287592
-0.000599828
-0.00283972
-0.000675036
-0.00280708
-0.000749543
-0.00277761
-0.000823281
-0.00275085
-0.000896303
-0.00272643
-0.000968795
-0.00270432
-0.00104096
-0.00268496
-0.00111269
-0.00266937
-0.00265845
-0.00118342
5.76957e-06
-0.000748523
1.18691e-06
-0.00176937
-2.35408e-05
-0.00240602
-6.87372e-05
-0.0027556
-0.000129982
-0.00291483
-0.000201804
-0.00296251
-0.000279637
-0.00295289
-0.000360391
-0.0029184
-0.000442282
-0.00287602
-0.000524407
-0.00283354
-0.000606357
-0.00279397
-0.000687938
-0.00275814
-0.000769018
-0.002726
-0.000849458
-0.00269717
-0.000929136
-0.00267117
-0.00100802
-0.00264754
-0.00108628
-0.00262605
-0.00116422
-0.00260703
-0.00124179
-0.00259179
-0.00258158
-0.00131866
1.65436e-06
-0.000750177
-1.14802e-05
-0.00175624
-4.62668e-05
-0.00237123
-0.000101258
-0.00270061
-0.000171281
-0.00284481
-0.000250769
-0.00288302
-0.000335369
-0.00286829
-0.000422284
-0.00283148
-0.000509988
-0.00278832
-0.000597771
-0.00274576
-0.000685366
-0.00270638
-0.000772686
-0.00267082
-0.00085968
-0.00263901
-0.000946252
-0.0026106
-0.00103226
-0.00258516
-0.00111758
-0.00256221
-0.00120235
-0.00254128
-0.00128698
-0.0025224
-0.00137168
-0.0025071
-0.00249618
-0.00145708
-2.45654e-06
-0.000747721
-2.39185e-05
-0.00173478
-6.83309e-05
-0.00232682
-0.000132584
-0.00263636
-0.000210853
-0.00276654
-0.000297534
-0.00279634
-0.000388502
-0.00277733
-0.00048124
-0.00273875
-0.000574458
-0.0026951
-0.000667629
-0.00265259
-0.000760626
-0.00261338
-0.000853497
-0.00257795
-0.000946331
-0.00254618
-0.00103917
-0.00251776
-0.00113196
-0.00249238
-0.00122459
-0.00246958
-0.00131708
-0.00244879
-0.00140982
-0.00242966
-0.0015034
-0.00241351
-0.002399
-0.00160058
-6.52413e-06
-0.000741196
-3.60383e-05
-0.00170526
-8.96134e-05
-0.00227325
-0.000162587
-0.00256338
-0.000248575
-0.00268055
-0.000341975
-0.00270294
-0.000438894
-0.00268041
-0.000537074
-0.00264057
-0.000635433
-0.00259674
-0.000733596
-0.00255442
-0.000831559
-0.00251542
-0.000929505
-0.00248
-0.00102771
-0.00244797
-0.00112647
-0.002419
-0.00122609
-0.00239276
-0.00132676
-0.00236891
-0.00142861
-0.00234694
-0.00153224
-0.00232603
-0.00164003
-0.00230572
-0.00229803
-0.00174101
-1.05013e-05
-0.000730695
-4.77437e-05
-0.00166802
-0.000109995
-0.002211
-0.000191148
-0.00248223
-0.000284335
-0.00258737
-0.000383989
-0.00260329
-0.000486439
-0.00257796
-0.000589657
-0.00253735
-0.000692732
-0.00249367
-0.000795389