1.275 	2.15223e-18 	-2.76991e-20 	-0.135157 	-0.00693049 	-2.51993e-22
1.825 	2.15223e-18 	-1.39322e-20 	-0.26697 	-0.0154394 	3.41474e-21
2.375 	2.15223e-18 	-2.66896e-23 	-0.302681 	0.0228613 	-1.54405e-21
