/*--------------------------------*- C++ -*----------------------------------*\
  =========                 |
  \\      /  F ield         | OpenFOAM: The Open Source CFD Toolbox
   \\    /   O peration     | Website:  https://openfoam.org
    \\  /    A nd           | Version:  6.0
     \\/     M anipulation  |
\*---------------------------------------------------------------------------*/
FoamFile
{
    version     2.0;
    format      ascii;
    class       volScalarField;
    location    "6.7";
    object      p;
}
// * * * * * * * * * * * * * * * * * * * * * * * * * * * * * * * * * * * * * //

dimensions      [0 2 -2 0 0 0 0];

internalField   nonuniform List<scalar> 
8000
(
-0.327305
-0.330169
-0.331955
-0.333294
-0.334567
-0.335851
-0.337193
-0.338621
-0.340143
-0.341757
-0.343452
-0.345218
-0.347044
-0.348917
-0.350836
-0.352811
-0.354805
-0.356613
-0.358285
-0.361652
-0.327846
-0.330626
-0.332367
-0.33368
-0.334933
-0.336201
-0.33753
-0.338947
-0.34046
-0.342065
-0.343751
-0.34551
-0.347327
-0.349193
-0.351104
-0.353071
-0.35506
-0.356863
-0.358523
-0.361882
-0.328911
-0.331528
-0.333181
-0.334442
-0.335654
-0.33689
-0.338192
-0.339587
-0.341079
-0.342665
-0.344335
-0.346076
-0.347877
-0.349727
-0.351621
-0.353574
-0.355551
-0.357346
-0.358981
-0.362319
-0.330445
-0.332827
-0.334354
-0.335537
-0.336688
-0.337874
-0.339135
-0.340493
-0.341952
-0.343508
-0.345148
-0.346862
-0.348635
-0.350457
-0.352325
-0.35425
-0.356206
-0.357986
-0.359583
-0.362887
-0.332373
-0.334463
-0.335829
-0.336909
-0.337979
-0.339096
-0.340298
-0.341603
-0.343014
-0.344523
-0.346119
-0.347789
-0.34952
-0.3513
-0.353125
-0.355009
-0.356931
-0.358684
-0.360228
-0.363477
-0.334605
-0.336361
-0.337537
-0.338494
-0.33946
-0.340489
-0.341611
-0.342843
-0.344185
-0.345628
-0.347161
-0.348768
-0.350438
-0.352157
-0.35392
-0.355744
-0.357614
-0.359325
-0.360799
-0.363971
-0.337043
-0.338441
-0.339409
-0.340222
-0.341064
-0.341981
-0.343001
-0.344136
-0.345386
-0.346739
-0.348184
-0.349706
-0.35129
-0.352925
-0.354604
-0.356345
-0.35814
-0.359792
-0.361179
-0.364248
-0.339592
-0.340627
-0.341374
-0.342026
-0.342723
-0.343506
-0.344398
-0.34541
-0.346539
-0.347776
-0.349106
-0.350514
-0.351986
-0.353509
-0.355078
-0.356709
-0.358404
-0.359975
-0.36126
-0.364204
-0.342165
-0.342849
-0.343371
-0.343849
-0.344382
-0.345006
-0.345743
-0.346603
-0.347583
-0.348673
-0.349857
-0.351121
-0.352451
-0.353833
-0.355262
-0.356755
-0.358322
-0.359787
-0.360953
-0.363754
-0.344688
-0.345052
-0.345353
-0.345647
-0.345997
-0.346439
-0.346994
-0.347673
-0.348472
-0.349383
-0.35039
-0.35148
-0.352637
-0.353848
-0.355107
-0.356432
-0.35784
-0.359172
-0.3602
-0.362846
-0.347109
-0.347194
-0.347286
-0.347388
-0.347541
-0.347779
-0.348127
-0.348595
-0.349185
-0.349887
-0.350689
-0.351574
-0.352529
-0.35354
-0.3546
-0.355726
-0.356942
-0.358108
-0.358974
-0.361453
-0.349399
-0.349256
-0.349154
-0.349062
-0.349004
-0.349019
-0.349136
-0.34937
-0.349724
-0.350192
-0.350763
-0.351421
-0.35215
-0.352936
-0.35377
-0.354667
-0.355657
-0.356615
-0.357281
-0.35957
-0.351554
-0.351236
-0.350957
-0.35067
-0.350392
-0.350169
-0.350036
-0.350015
-0.350114
-0.350331
-0.350654
-0.351068
-0.351556
-0.3521
-0.352687
-0.353328
-0.354054
-0.35475
-0.355149
-0.357196
-0.353592
-0.353153
-0.352715
-0.352232
-0.351727
-0.351254
-0.350859
-0.35057
-0.350402
-0.350356
-0.350424
-0.350589
-0.35083
-0.351124
-0.351452
-0.351813
-0.352234
-0.352602
-0.352629
-0.35432
-0.355559
-0.355042
-0.35446
-0.353782
-0.353044
-0.352314
-0.351649
-0.351086
-0.350647
-0.350337
-0.350151
-0.35007
-0.350069
-0.350117
-0.350181
-0.350245
-0.350318
-0.350275
-0.34978
-0.350914
-0.35752
-0.356956
-0.356239
-0.355365
-0.354391
-0.3534
-0.352462
-0.351624
-0.350917
-0.35035
-0.349918
-0.349603
-0.349372
-0.349184
-0.348989
-0.348743
-0.348428
-0.347887
-0.346691
-0.346967
-0.359557
-0.358961
-0.35811
-0.357036
-0.355822
-0.35457
-0.353361
-0.352253
-0.351285
-0.350471
-0.349807
-0.349272
-0.348827
-0.348417
-0.34797
-0.347408
-0.346671
-0.34556
-0.343504
-0.342553
-0.361765
-0.361133
-0.36014
-0.358859
-0.357402
-0.355888
-0.354412
-0.353043
-0.351824
-0.350775
-0.349894
-0.349154
-0.34851
-0.34789
-0.347196
-0.34631
-0.345113
-0.343352
-0.340276
-0.33765
-0.364245
-0.363553
-0.3624
-0.3609
-0.359196
-0.357421
-0.355684
-0.354062
-0.352604
-0.351334
-0.350249
-0.349321
-0.348497
-0.347694
-0.346791
-0.345622
-0.343987
-0.3415
-0.33711
-0.332152
-0.367098
-0.366301
-0.364961
-0.363228
-0.361269
-0.359234
-0.357241
-0.355375
-0.35369
-0.35221
-0.350935
-0.349839
-0.348871
-0.347957
-0.346986
-0.345812
-0.344229
-0.341758
-0.337031
-0.330889
-0.370419
-0.369456
-0.367893
-0.365906
-0.363683
-0.361386
-0.359141
-0.357038
-0.355132
-0.353451
-0.351994
-0.350741
-0.349655
-0.348688
-0.347791
-0.346938
-0.346152
-0.345513
-0.345552
-0.351225
-0.374291
-0.373089
-0.371259
-0.368995
-0.366493
-0.363928
-0.361432
-0.359095
-0.356972
-0.355088
-0.353445
-0.352025
-0.3508
-0.349742
-0.348839
-0.348114
-0.347663
-0.347675
-0.348617
-0.353394
-0.378783
-0.37726
-0.375115
-0.372544
-0.369746
-0.366905
-0.364154
-0.36158
-0.359234
-0.357138
-0.35529
-0.353671
-0.352257
-0.351029
-0.349987
-0.349164
-0.348643
-0.348565
-0.349164
-0.35168
-0.383953
-0.38202
-0.379508
-0.376598
-0.373484
-0.370353
-0.367337
-0.364516
-0.361934
-0.359602
-0.35751
-0.355636
-0.353951
-0.352437
-0.351088
-0.349922
-0.348984
-0.348335
-0.348079
-0.34855
-0.389842
-0.387413
-0.38448
-0.381198
-0.377742
-0.374304
-0.371008
-0.367922
-0.365074
-0.362463
-0.360066
-0.357853
-0.355789
-0.353848
-0.352017
-0.350298
-0.348702
-0.34724
-0.345964
-0.344751
-0.396482
-0.393473
-0.390067
-0.386379
-0.382558
-0.378791
-0.37519
-0.371805
-0.368644
-0.365688
-0.3629
-0.360238
-0.357664
-0.355148
-0.352675
-0.350239
-0.347843
-0.345481
-0.343193
-0.340717
-0.403898
-0.400229
-0.396301
-0.392177
-0.387964
-0.383842
-0.379901
-0.376167
-0.372622
-0.369227
-0.365933
-0.362691
-0.359463
-0.356228
-0.352975
-0.349709
-0.346438
-0.343167
-0.339931
-0.336479
-0.412104
-0.407704
-0.403213
-0.398624
-0.393992
-0.389478
-0.385147
-0.38099
-0.376962
-0.373007
-0.369067
-0.365097
-0.361071
-0.356984
-0.352846
-0.348678
-0.344504
-0.340348
-0.336245
-0.332015
-0.421105
-0.41591
-0.410822
-0.405745
-0.400663
-0.39571
-0.390915
-0.386233
-0.381594
-0.37693
-0.372186
-0.367335
-0.362375
-0.357327
-0.352227
-0.347118
-0.342042
-0.337038
-0.332139
-0.327234
-0.430894
-0.424851
-0.41914
-0.413551
-0.40798
-0.402522
-0.397164
-0.391824
-0.386416
-0.380871
-0.375158
-0.369279
-0.363268
-0.357177
-0.351071
-0.345011
-0.339052
-0.333241
-0.327603
-0.322077
-0.441442
-0.43451
-0.428157
-0.422034
-0.415923
-0.40987
-0.403818
-0.397655
-0.391294
-0.384688
-0.377844
-0.370809
-0.363656
-0.356473
-0.349344
-0.342345
-0.335533
-0.328956
-0.322624
-0.316507
-0.452696
-0.444847
-0.437842
-0.431155
-0.424433
-0.417667
-0.410756
-0.40358
-0.396069
-0.388224
-0.380105
-0.371812
-0.36346
-0.355164
-0.347023
-0.339113
-0.331489
-0.324186
-0.317202
-0.310515
-0.464572
-0.455795
-0.448129
-0.440838
-0.433413
-0.425781
-0.41782
-0.409421
-0.400563
-0.391315
-0.381805
-0.372186
-0.362612
-0.353212
-0.344088
-0.335309
-0.326918
-0.318935
-0.311335
-0.304106
-0.47695
-0.467249
-0.458917
-0.450968
-0.442716
-0.434038
-0.424811
-0.414973
-0.404584
-0.393799
-0.382818
-0.371844
-0.361053
-0.350581
-0.34052
-0.330924
-0.321816
-0.313199
-0.305025
-0.297288
-0.489671
-0.479066
-0.470061
-0.461378
-0.452148
-0.442217
-0.431498
-0.420016
-0.40794
-0.395521
-0.383029
-0.370703
-0.358729
-0.347236
-0.336296
-0.325941
-0.316172
-0.30697
-0.298264
-0.290062
-0.502531
-0.491062
-0.481372
-0.471856
-0.461472
-0.450063
-0.437629
-0.424323
-0.410441
-0.396334
-0.38233
-0.368688
-0.35559
-0.34314
-0.331387
-0.320335
-0.309962
-0.300229
-0.291037
-0.28242
-0.515289
-0.503009
-0.492612
-0.482144
-0.470405
-0.457291
-0.442939
-0.427666
-0.411906
-0.396103
-0.380624
-0.365729
-0.351579
-0.338249
-0.325755
-0.314072
-0.303158
-0.29295
-0.283323
-0.274347
-0.52766
-0.514637
-0.503503
-0.491941
-0.478638
-0.463602
-0.447163
-0.429827
-0.412168
-0.394703
-0.377817
-0.361754
-0.34664
-0.332514
-0.319356
-0.307114
-0.295722
-0.285097
-0.275089
-0.265815
-0.539327
-0.525639
-0.513726
-0.500913
-0.485837
-0.468689
-0.450041
-0.4306
-0.411071
-0.392017
-0.37382
-0.356692
-0.340713
-0.325881
-0.312141
-0.299413
-0.287611
-0.276632
-0.266301
-0.256794
-0.549941
-0.535675
-0.52293
-0.508702
-0.491661
-0.472253
-0.451327
-0.429799
-0.408473
-0.387939
-0.36855
-0.350471
-0.333734
-0.318293
-0.304057
-0.29092
-0.278781
-0.267512
-0.256919
-0.247246
-0.559135
-0.544381
-0.530744
-0.514941
-0.495772
-0.474007
-0.450799
-0.427251
-0.404247
-0.382369
-0.361925
-0.343023
-0.325642
-0.309691
-0.295049
-0.281587
-0.269183
-0.257693
-0.246904
-0.237135
-0.566524
-0.551378
-0.536787
-0.519263
-0.497846
-0.473689
-0.448254
-0.422809
-0.398279
-0.375217
-0.353869
-0.334279
-0.316373
-0.300019
-0.285066
-0.271363
-0.258775
-0.247136
-0.236218
-0.226426
-0.571729
-0.556284
-0.540678
-0.521316
-0.497585
-0.471066
-0.443517
-0.416341
-0.390469
-0.366401
-0.344311
-0.324176
-0.305871
-0.289224
-0.274058
-0.260205
-0.247516
-0.235802
-0.224828
-0.215085
-0.574376
-0.558725
-0.542054
-0.520772
-0.494722
-0.465935
-0.436443
-0.407739
-0.380733
-0.355851
-0.333188
-0.312657
-0.294082
-0.277259
-0.261984
-0.248075
-0.23537
-0.22366
-0.212704
-0.203088
-0.574114
-0.558349
-0.540577
-0.517342
-0.48903
-0.458131
-0.426911
-0.396915
-0.369
-0.343506
-0.320448
-0.299674
-0.280964
-0.264083
-0.248807
-0.23494
-0.222309
-0.210685
-0.199828
-0.190415
-0.570622
-0.554833
-0.535949
-0.510777
-0.480325
-0.447525
-0.414833
-0.383803
-0.355217
-0.32932
-0.306048
-0.285188
-0.266481
-0.249665
-0.234499
-0.220776
-0.208313
-0.196861
-0.186183
-0.177053
-0.563622
-0.547897
-0.527915
-0.500879
-0.468469
-0.434027
-0.400148
-0.368359
-0.339347
-0.313261
-0.289957
-0.269171
-0.250608
-0.233983
-0.219042
-0.205569
-0.193369
-0.182178
-0.171767
-0.162999
-0.552881
-0.537308
-0.516276
-0.487503
-0.45337
-0.417583
-0.382825
-0.350561
-0.321372
-0.29531
-0.272159
-0.251608
-0.233332
-0.217027
-0.202428
-0.189313
-0.177476
-0.166637
-0.156582
-0.148254
-0.538225
-0.522894
-0.500892
-0.47056
-0.434983
-0.398178
-0.362861
-0.33041
-0.301293
-0.275467
-0.252652
-0.232496
-0.21465
-0.198796
-0.184659
-0.172011
-0.16064
-0.15025
-0.140641
-0.132832
-0.519539
-0.504539
-0.481683
-0.450017
-0.413312
-0.375833
-0.340282
-0.30793
-0.279129
-0.253747
-0.231448
-0.211846
-0.194572
-0.179299
-0.165744
-0.153677
-0.142877
-0.133036
-0.123971
-0.116761
-0.496772
-0.482196
-0.458632
-0.425894
-0.388404
-0.350605
-0.315145
-0.283171
-0.254921
-0.230183
-0.208573
-0.189679
-0.173117
-0.158554
-0.145702
-0.13433
-0.12421
-0.115023
-0.106606
-0.100083
-0.469937
-0.455882
-0.431783
-0.398267
-0.360351
-0.322587
-0.287533
-0.256204
-0.228729
-0.204825
-0.184069
-0.16603
-0.150315
-0.136586
-0.124557
-0.113993
-0.104662
-0.0962406
-0.0885845
-0.0828452
-0.439113
-0.425676
-0.401243
-0.367265
-0.329285
-0.291904
-0.257559
-0.227126
-0.200635
-0.177741
-0.157993
-0.140945
-0.126203
-0.113427
-0.102334
-0.0926882
-0.0842562
-0.0767156
-0.0699402
-0.0650695
-0.404444
-0.391724
-0.367173
-0.333061
-0.29538
-0.258716
-0.225362
-0.196059
-0.170741
-0.149017
-0.130414
-0.114481
-0.100825
-0.0891107
-0.0790583
-0.0704368
-0.0630133
-0.0564737
-0.0506961
-0.0467438
-0.366132
-0.354229
-0.329791
-0.295877
-0.258846
-0.223214
-0.191112
-0.163147
-0.139174
-0.11876
-0.10142
-0.0867064
-0.0742312
-0.0636692
-0.0547504
-0.0472507
-0.0409448
-0.0355296
-0.0308616
-0.0278664
-0.324437
-0.313449
-0.28936
-0.255973
-0.219928
-0.18562
-0.155006
-0.128566
-0.106084
-0.087098
-0.0711188
-0.0577049
-0.0464824
-0.0371413
-0.0294276
-0.0231307
-0.0180385
-0.0138657
-0.0104451
-0.00857839
-0.279668
-0.269692
-0.246189
-0.213649
-0.178903
-0.146185
-0.117269
-0.0925153
-0.0716472
-0.0541839
-0.0396372
-0.0275791
-0.0176549
-0.00957806
-0.00311912
0.00191577
0.00572104
0.00852354
0.0104225
0.0106939
-0.232181
-0.223308
-0.200624
-0.169234
-0.136076
-0.105186
-0.0781515
-0.0552215
-0.0360672
-0.0201945
-0.00712228
0.00355952
0.0121796
0.0189897
0.0241835
0.027933
0.0303893
0.0315941
0.0314073
0.0294936
-0.18237
-0.174684
-0.153043
-0.123087
-0.0917789
-0.0629276
-0.0379341
-0.0169429
0.000419636
0.0146579
0.0262466
0.0355802
0.0429626
0.0486089
0.0526744
0.0552991
0.0565135
0.0559435
0.0530864
0.0489622
-0.130657
-0.124235
-0.103848
-0.0755838
-0.046361
-0.019734
0.00307981
0.022032
0.0375352
0.0501038
0.0602113
0.0682491
0.0745167
0.0792275
0.0825501
0.0846421
0.0854004
0.0839375
0.0795257
0.0750742
-0.0774918
-0.0724006
-0.0534581
-0.0271191
-0.0001858
0.024057
0.0445708
0.0613937
0.0749703
0.0858215
0.0944205
0.101161
0.106357
0.110261
0.113128
0.115245
0.116577
0.116097
0.113545
0.117509
-0.0233293
-0.0196269
-0.00230264
0.0219081
0.0463775
0.0681022
0.0862149
0.10083
0.112415
0.121491
0.128524
0.133899
0.137929
0.140876
0.143014
0.144613
0.145654
0.145645
0.145521
0.151688
0.0313584
0.0336262
0.0491835
0.0710954
0.0929594
0.11206
0.127692
0.140036
0.149575
0.156825
0.162239
0.166192
0.168991
0.170897
0.172167
0.173029
0.17346
0.173152
0.173054
0.178055
0.086099
0.0868995
0.100568
0.120045
0.139196
0.155597
0.168693
0.17872
0.18617
0.191547
0.195286
0.197748
0.199223
0.199959
0.200193
0.200129
0.199756
0.198843
0.198166
0.201601
0.140424
0.139738
0.151423
0.168366
0.184734
0.198391
0.208921
0.216609
0.221947
0.225423
0.227454
0.228378
0.228465
0.227943
0.227025
0.225881
0.22449
0.22265
0.221073
0.223056
0.193873
0.191696
0.201334
0.215681
0.229232
0.240132
0.248096
0.253446
0.256671
0.258241
0.25855
0.257911
0.256576
0.254751
0.252625
0.25034
0.24786
0.245005
0.242451
0.243044
0.245999
0.242342
0.249898
0.261625
0.272361
0.280525
0.285951
0.288991
0.290128
0.289809
0.288405
0.286207
0.283444
0.280301
0.276945
0.273494
0.269902
0.266016
0.262484
0.261765
0.29637
0.291258
0.296731
0.305851
0.313811
0.319292
0.322237
0.32302
0.322116
0.319949
0.316866
0.313136
0.308966
0.304524
0.299954
0.295353
0.290671
0.285783
0.281299
0.279335
0.344574
0.338048
0.341466
0.348028
0.353286
0.356169
0.356715
0.35532
0.352446
0.348495
0.343789
0.338576
0.333043
0.327341
0.321594
0.315883
0.310157
0.304314
0.29892
0.295777
0.390223
0.382338
0.383757
0.387846
0.390509
0.390905
0.389164
0.385693
0.38094
0.375288
0.369034
0.362406
0.355574
0.34867
0.341804
0.335039
0.328328
0.321591
0.315336
0.311081
0.432949
0.423777
0.423282
0.425015
0.425219
0.42327
0.419374
0.41395
0.407431
0.400178
0.392469
0.384511
0.376457
0.368425
0.360508
0.352759
0.345133
0.337567
0.330506
0.32521
0.472414
0.462039
0.459742
0.459266
0.457176
0.453047
0.447151
0.439916
0.43176
0.423025
0.413967
0.404777
0.395592
0.386517
0.377629
0.368973
0.360509
0.352185
0.344378
0.338118
0.508307
0.496826
0.492864
0.490353
0.486161
0.480038
0.472317
0.46343
0.453782
0.443695
0.433408
0.423096
0.412882
0.402857
0.393088
0.38361
0.374388
0.365381
0.356894
0.349752
0.540347
0.52787
0.522399
0.518054
0.511973
0.504064
0.494708
0.484344
0.473361
0.462066
0.450681
0.439367
0.428234
0.417362
0.406808
0.396598
0.386704
0.37709
0.367995
0.360062
0.568283
0.554931
0.548131
0.542173
0.534435
0.524963
0.51418
0.502526
0.490378
0.478029
0.465686
0.453497
0.441563
0.429953
0.418715
0.407869
0.397393
0.387253
0.377625
0.368998
0.591901
0.577804
0.569868
0.562537
0.553393
0.542597
0.530606
0.517859
0.504726
0.491485
0.478332
0.465404
0.452793
0.44056
0.428744
0.417363
0.406396
0.395813
0.385732
0.376515
0.611015
0.596312
0.587452
0.579003
0.568718
0.556847
0.543877
0.530246
0.516315
0.502352
0.488543
0.475018
0.461859
0.449122
0.436839
0.425024
0.413661
0.402722
0.392273
0.382575
0.625481
0.610317
0.600752
0.591454
0.580303
0.567619
0.553907
0.539606
0.525072
0.510562
0.496257
0.482279
0.468706
0.455587
0.442952
0.430809
0.419148
0.407939
0.397211
0.387148
0.635185
0.619712
0.609672
0.599803
0.58807
0.574839
0.560629
0.54588
0.53094
0.516064
0.501426
0.487144
0.473293
0.459919
0.447046
0.434685
0.422824
0.411433
0.400517
0.390209
0.640053
0.624424
0.614147
0.60399
0.591965
0.57846
0.564
0.549025
0.533882
0.518822
0.504017
0.489583
0.475593
0.46209
0.449099
0.436627
0.424666
0.413185
0.402174
0.391743
0.640049
0.62442
0.614142
0.603986
0.591961
0.578456
0.563997
0.549022
0.533879
0.518819
0.504014
0.48958
0.47559
0.462088
0.449097
0.436625
0.424664
0.413183
0.402172
0.391741
0.635172
0.619699
0.60966
0.599791
0.588059
0.574829
0.56062
0.545871
0.530931
0.516056
0.501418
0.487137
0.473286
0.459912
0.44704
0.434679
0.422818
0.411427
0.400512
0.390204
0.625459
0.610296
0.600732
0.591435
0.580285
0.567602
0.553891
0.539591
0.525058
0.510549
0.496244
0.482267
0.468694
0.455576
0.442941
0.430799
0.419138
0.407929
0.397201
0.387139
0.610985
0.596282
0.587423
0.578976
0.568693
0.556823
0.543855
0.530225
0.516296
0.502333
0.488525
0.475
0.461843
0.449106
0.436824
0.425009
0.413647
0.402708
0.39226
0.382563
0.591861
0.577765
0.569832
0.562502
0.553361
0.542566
0.530577
0.517832
0.504701
0.491461
0.478309
0.465382
0.452772
0.44054
0.428725
0.417344
0.406377
0.395796
0.385715
0.376498
0.568235
0.554884
0.548086
0.542131
0.534396
0.524926
0.514146
0.502493
0.490347
0.477999
0.465658
0.45347
0.441537
0.429929
0.418691
0.407847
0.397371
0.387232
0.377604
0.368978
0.54029
0.527814
0.522347
0.518005
0.511926
0.50402
0.494668
0.484305
0.473325
0.462031
0.450648
0.439335
0.428204
0.417333
0.40678
0.396571
0.386678
0.377065
0.36797
0.360039
0.508242
0.496763
0.492803
0.490296
0.486107
0.479988
0.47227
0.463386
0.45374
0.443655
0.43337
0.423059
0.412847
0.402823
0.393056
0.383579
0.374358
0.365352
0.356866
0.349725
0.472341
0.461967
0.459674
0.459202
0.457116
0.452991
0.447098
0.439866
0.431713
0.42298
0.413924
0.404736
0.395553
0.386479
0.377593
0.368938
0.360475
0.352152
0.344346
0.338087
0.432868
0.423697
0.423206
0.424944
0.425152
0.423207
0.419315
0.413894
0.407378
0.400128
0.392421
0.384465
0.376414
0.368383
0.360467
0.35272
0.345095
0.337531
0.33047
0.325176
0.390133
0.382251
0.383674
0.387767
0.390435
0.390836
0.389099
0.385631
0.380882
0.375232
0.368981
0.362356
0.355526
0.348624
0.341759
0.334996
0.328287
0.321551
0.315297
0.311044
0.344477
0.337953
0.341375
0.347942
0.353206
0.356093
0.356644
0.355253
0.352382
0.348434
0.343731
0.338521
0.332991
0.327291
0.321546
0.315836
0.310112
0.304271
0.298878
0.295736
0.296265
0.291155
0.296633
0.305758
0.313724
0.319211
0.32216
0.322948
0.322047
0.319884
0.316804
0.313077
0.308909
0.30447
0.299901
0.295302
0.290622
0.285735
0.281253
0.27929
0.245886
0.242231
0.249793
0.261525
0.272268
0.280438
0.285869
0.288913
0.290054
0.289739
0.288338
0.286143
0.283382
0.280243
0.276889
0.27344
0.26985
0.265965
0.262435
0.261718
0.193753
0.191579
0.201222
0.215575
0.229132
0.240038
0.248008
0.253362
0.256592
0.258166
0.258478
0.257843
0.256511
0.254688
0.252564
0.250281
0.247804
0.24495
0.242399
0.242993
0.140297
0.139614
0.151304
0.168253
0.184629
0.198291
0.208828
0.21652
0.221863
0.225344
0.227378
0.228305
0.228395
0.227876
0.22696
0.225819
0.22443
0.222592
0.221017
0.223002
0.0859655
0.0867685
0.100442
0.119926
0.139085
0.155492
0.168594
0.178627
0.186081
0.191462
0.195206
0.197671
0.199149
0.199888
0.200125
0.200063
0.199693
0.198781
0.198107
0.201544
0.0312184
0.0334888
0.0490515
0.0709706
0.092842
0.11195
0.127588
0.139938
0.149482
0.156736
0.162154
0.166111
0.168913
0.170822
0.172095
0.17296
0.173392
0.173087
0.172991
0.177995
-0.0234756
-0.0197705
-0.00244069
0.0217774
0.0462545
0.0679865
0.0861057
0.100727
0.112317
0.121398
0.128435
0.133813
0.137846
0.140797
0.142938
0.14454
0.145583
0.145576
0.145454
0.151624
-0.077644
-0.0725501
-0.053602
-0.0272554
-0.0003142
0.0239361
0.0444567
0.0612856
0.0748676
0.0857237
0.0943269
0.101072
0.106271
0.110178
0.113048
0.115168
0.116503
0.116025
0.113474
0.117441
-0.130815
-0.124391
-0.103997
-0.0757255
-0.0464946
-0.0198598
0.00296095
0.0219194
0.0374282
0.0500017
0.0601137
0.0681554
0.0744266
0.0791406
0.0824661
0.0845607
0.0853214
0.0838605
0.07945
0.0749994
-0.182533
-0.174844
-0.153198
-0.123233
-0.0919174
-0.0630582
-0.0380575
-0.0170598
0.000308421
0.0145518
0.026145
0.0354827
0.0428687
0.0485182
0.0525867
0.055214
0.0564306
0.0558625
0.0530068
0.0488833
-0.232349
-0.223474
-0.200784
-0.169386
-0.136219
-0.105321
-0.0782793
-0.0553426
-0.0361824
-0.0203045
-0.00722762
0.00345833
0.0120822
0.0188956
0.0240923
0.0278444
0.0303031
0.03151
0.0313248
0.0294122
-0.279841
-0.269862
-0.246353
-0.213805
-0.17905
-0.146324
-0.117401
-0.0926403
-0.0717662
-0.0542976
-0.0397461
-0.0276838
-0.0177557
-0.00967545
-0.00321344
0.00182421
0.00563195
0.00843667
0.0103375
0.0106103
-0.324613
-0.313624
-0.289528
-0.256134
-0.220079
-0.185764
-0.155142
-0.128695
-0.106206
-0.0872151
-0.071231
-0.0578128
-0.0465863
-0.0372417
-0.0295248
-0.023225
-0.0181303
-0.0139551
-0.0105323
-0.00866401
-0.366313
-0.354407
-0.329963
-0.296041
-0.259001
-0.223361
-0.191252
-0.16328
-0.1393
-0.11888
-0.101536
-0.0868172
-0.074338
-0.0637724
-0.0548503
-0.0473476
-0.041039
-0.0356213
-0.0309511
-0.027954
-0.404628
-0.391905
-0.367349
-0.333229
-0.295539
-0.258867
-0.225505
-0.196194
-0.17087
-0.149141
-0.130532
-0.114595
-0.100935
-0.0892165
-0.0791607
-0.0705361
-0.0631098
-0.0565675
-0.0507877
-0.0468334
-0.4393
-0.42586
-0.401422
-0.367436
-0.329447
-0.292058
-0.257704
-0.227265
-0.200767
-0.177867
-0.158114
-0.141061
-0.126315
-0.113536
-0.102438
-0.0927896
-0.0843547
-0.0768114
-0.0700336
-0.0651609
-0.470126
-0.456068
-0.431965
-0.398441
-0.360516
-0.322743
-0.287682
-0.256346
-0.228864
-0.204954
-0.184193
-0.166148
-0.15043
-0.136697
-0.124664
-0.114096
-0.104763
-0.0963384
-0.0886797
-0.0829382
-0.496962
-0.482385
-0.458815
-0.42607
-0.388572
-0.350764
-0.315296
-0.283315
-0.255058
-0.230314
-0.208698
-0.189799
-0.173234
-0.158666
-0.145811
-0.134435
-0.124312
-0.115122
-0.106703
-0.100178
-0.519731
-0.504729
-0.481868
-0.450195
-0.413482
-0.375994
-0.340435
-0.308076
-0.279268
-0.25388
-0.231575
-0.211968
-0.19469
-0.179413
-0.165855
-0.153784
-0.142981
-0.133137
-0.124069
-0.116857
-0.538418
-0.523085
-0.501079
-0.47074
-0.435155
-0.398341
-0.363016
-0.330557
-0.301434
-0.275602
-0.252781
-0.232621
-0.21477
-0.198912
-0.184771
-0.17212
-0.160746
-0.150353
-0.140741
-0.132929
-0.553075
-0.5375
-0.516464
-0.487684
-0.453543
-0.417748
-0.382981
-0.35071
-0.321515
-0.295446
-0.27229
-0.251734
-0.233453
-0.217145
-0.202542
-0.189423
-0.177583
-0.166741
-0.156683
-0.148352
-0.563815
-0.548089
-0.528103
-0.501061
-0.468643
-0.434193
-0.400306
-0.36851
-0.339491
-0.313398
-0.290089
-0.269299
-0.250731
-0.234102
-0.219157
-0.20568
-0.193478
-0.182283
-0.171869
-0.163098
-0.570815
-0.555025
-0.536136
-0.510959
-0.4805
-0.447692
-0.414992
-0.383955
-0.355362
-0.329459
-0.306181
-0.285317
-0.266605
-0.249785
-0.234615
-0.220889
-0.208422
-0.196967
-0.186287
-0.177154
-0.574306
-0.55854
-0.540764
-0.517524
-0.489205
-0.458298
-0.427071
-0.397068
-0.369146
-0.343646
-0.320583
-0.299804
-0.281089
-0.264204
-0.248924
-0.235054
-0.222419
-0.210793
-0.199932
-0.190517
-0.574567
-0.558914
-0.54224
-0.520954
-0.494896
-0.466102
-0.436603
-0.407892
-0.38088
-0.355991
-0.333324
-0.312788
-0.294209
-0.277381
-0.262102
-0.24819
-0.235481
-0.223768
-0.21281
-0.203192
-0.571918
-0.556471
-0.540862
-0.521496
-0.497759
-0.471233
-0.443678
-0.416494
-0.390617
-0.366542
-0.344447
-0.324307
-0.305997
-0.289347
-0.274178
-0.260321
-0.247628
-0.235911
-0.224934
-0.21519
-0.566711
-0.551563
-0.536969
-0.519442
-0.498019
-0.473856
-0.448414
-0.422962
-0.398426
-0.375358
-0.354006
-0.334411
-0.316501
-0.300143
-0.285186
-0.27148
-0.258889
-0.247246
-0.236326
-0.226531
-0.559319
-0.544563
-0.530924
-0.515118
-0.495943
-0.474173
-0.450958
-0.427405
-0.404394
-0.382511
-0.362062
-0.343155
-0.32577
-0.309815
-0.29517
-0.281704
-0.269298
-0.257804
-0.247012
-0.237241
-0.550122
-0.535854
-0.523107
-0.508876
-0.49183
-0.472417
-0.451486
-0.429951
-0.40862
-0.388081
-0.368688
-0.350604
-0.333863
-0.318417
-0.304178
-0.291038
-0.278895
-0.267624
-0.257028
-0.247353
-0.539504
-0.525815
-0.513899
-0.501084
-0.486004
-0.468852
-0.450198
-0.430753
-0.411218
-0.392159
-0.373958
-0.356824
-0.340842
-0.326006
-0.312263
-0.299532
-0.287727
-0.276745
-0.266411
-0.256901
-0.527834
-0.514809
-0.503673
-0.492109
-0.478802
-0.463762
-0.447319
-0.429978
-0.412314
-0.394844
-0.377954
-0.361887
-0.346769
-0.33264
-0.319479
-0.307233
-0.295838
-0.285211
-0.2752
-0.265924
-0.515459
-0.503177
-0.492779
-0.482309
-0.470567
-0.457449
-0.443094
-0.427816
-0.412052
-0.396244
-0.38076
-0.365862
-0.351708
-0.338375
-0.325878
-0.314192
-0.303275
-0.293064
-0.283434
-0.274456
-0.502697
-0.491226
-0.481534
-0.472017
-0.46163
-0.450218
-0.437781
-0.424471
-0.410585
-0.396474
-0.382466
-0.368821
-0.355719
-0.343266
-0.33151
-0.320455
-0.31008
-0.300345
-0.29115
-0.282531
-0.489832
-0.479226
-0.47022
-0.461535
-0.452303
-0.442369
-0.431647
-0.420163
-0.408083
-0.39566
-0.383164
-0.370835
-0.358859
-0.347362
-0.33642
-0.326062
-0.31629
-0.307086
-0.298377
-0.290173
-0.477108
-0.467405
-0.459072
-0.451121
-0.442867
-0.434187
-0.424958
-0.415117
-0.404725
-0.393937
-0.382953
-0.371976
-0.361182
-0.350707
-0.340644
-0.331046
-0.321936
-0.313316
-0.30514
-0.297401
-0.464725
-0.455947
-0.448279
-0.440987
-0.43356
-0.425927
-0.417964
-0.409562
-0.400702
-0.391451
-0.381939
-0.372318
-0.362741
-0.353338
-0.344212
-0.335432
-0.327038
-0.319053
-0.311451
-0.30422
-0.452845
-0.444995
-0.437988
-0.4313
-0.424577
-0.417809
-0.410897
-0.403719
-0.396206
-0.388359
-0.380238
-0.371942
-0.363589
-0.355291
-0.347148
-0.339236
-0.33161
-0.324305
-0.317319
-0.310631
-0.441587
-0.434654
-0.428299
-0.422175
-0.416062
-0.410009
-0.403955
-0.397791
-0.391428
-0.384821
-0.377976
-0.370939
-0.363784
-0.3566
-0.34947
-0.342469
-0.335656
-0.329076
-0.322744
-0.316624
-0.431035
-0.424991
-0.419278
-0.413689
-0.408116
-0.402657
-0.397298
-0.391957
-0.386547
-0.381002
-0.375288
-0.369408
-0.363396
-0.357304
-0.351197
-0.345136
-0.339175
-0.333363
-0.327724
-0.322197
-0.421243
-0.416047
-0.410957
-0.405879
-0.400795
-0.395841
-0.391045
-0.386362
-0.381723
-0.377058
-0.372313
-0.367462
-0.362502
-0.357454
-0.352354
-0.347244
-0.342167
-0.337163
-0.332263
-0.327356
-0.412238
-0.407837
-0.403345
-0.398755
-0.394121
-0.389606
-0.385274
-0.381115
-0.377088
-0.373133
-0.369192
-0.365223
-0.361198
-0.357111
-0.352973
-0.348805
-0.344631
-0.340475
-0.336371
-0.33214
-0.404029
-0.40036
-0.39643
-0.392305
-0.38809
-0.383966
-0.380024
-0.376289
-0.372744
-0.36935
-0.366056
-0.362815
-0.359589
-0.356354
-0.353103
-0.349838
-0.346568
-0.343297
-0.34006
-0.336608
-0.396611
-0.393601
-0.390193
-0.386504
-0.382681
-0.378912
-0.37531
-0.371924
-0.368763
-0.365807
-0.36302
-0.36036
-0.357788
-0.355275
-0.352804
-0.35037
-0.347975
-0.345615
-0.343326
-0.34085
-0.389968
-0.387539
-0.384604
-0.381321
-0.377863
-0.374423
-0.371125
-0.368038
-0.365189
-0.362579
-0.360184
-0.357973
-0.355912
-0.353975
-0.352147
-0.350431
-0.348838
-0.347378
-0.346103
-0.344889
-0.384078
-0.382145
-0.379631
-0.376719
-0.373602
-0.370469
-0.367451
-0.364629
-0.362047
-0.359716
-0.357626
-0.355754
-0.354074
-0.352564
-0.351219
-0.350058
-0.349125
-0.348478
-0.348224
-0.348694
-0.378908
-0.377383
-0.375237
-0.372663
-0.369863
-0.367019
-0.364266
-0.36169
-0.359345
-0.35725
-0.355404
-0.353788
-0.352379
-0.351157
-0.350121
-0.349303
-0.348788
-0.348715
-0.349317
-0.351832
-0.374416
-0.373213
-0.371381
-0.369114
-0.366609
-0.364041
-0.361543
-0.359204
-0.35708
-0.355198
-0.353557
-0.352141
-0.350922
-0.349871
-0.348975
-0.348258
-0.347815
-0.347834
-0.34878
-0.353556
-0.370545
-0.369581
-0.368015
-0.366026
-0.363799
-0.361498
-0.359251
-0.357146
-0.35524
-0.35356
-0.352106
-0.350858
-0.349778
-0.348819
-0.347931
-0.347087
-0.346311
-0.345682
-0.345729
-0.351403
-0.367226
-0.366427
-0.365084
-0.363348
-0.361385
-0.359347
-0.357352
-0.355484
-0.353798
-0.35232
-0.351048
-0.349957
-0.348996
-0.34809
-0.34713
-0.345967
-0.344397
-0.34194
-0.337228
-0.331102
-0.364376
-0.363681
-0.362525
-0.361022
-0.359314
-0.357536
-0.355796
-0.354172
-0.352715
-0.351446
-0.350364
-0.349441
-0.348625
-0.347831
-0.346939
-0.345783
-0.344162
-0.341691
-0.337318
-0.332377
-0.361899
-0.361264
-0.360268
-0.358982
-0.357522
-0.356005
-0.354526
-0.353155
-0.351937
-0.35089
-0.350012
-0.349279
-0.348642
-0.348032
-0.34735
-0.346477
-0.345295
-0.34355
-0.340493
-0.337884
-0.359695
-0.359095
-0.35824
-0.357162
-0.355945
-0.354689
-0.353477
-0.352369
-0.351401
-0.35059
-0.34993
-0.349401
-0.348965
-0.348565
-0.348129
-0.347582
-0.34686
-0.345766
-0.34373
-0.342795
-0.357662
-0.357093
-0.356371
-0.355493
-0.354515
-0.353522
-0.352582
-0.351744
-0.351037
-0.350473
-0.350046
-0.349738
-0.349516
-0.349338
-0.349155
-0.348924
-0.348625
-0.348101
-0.346925
-0.347218
-0.355705
-0.355181
-0.354594
-0.353913
-0.353171
-0.352439
-0.351772
-0.351209
-0.350771
-0.350466
-0.350284
-0.35021
-0.350219
-0.350278
-0.350355
-0.350433
-0.350522
-0.350497
-0.350022
-0.351172
-0.353741
-0.353294
-0.352851
-0.352364
-0.351855
-0.35138
-0.350984
-0.350696
-0.350531
-0.350489
-0.350562
-0.350735
-0.350986
-0.351291
-0.351632
-0.352008
-0.352445
-0.352831
-0.352877
-0.354584
-0.351704
-0.351378
-0.351094
-0.350803
-0.350521
-0.350296
-0.350164
-0.350144
-0.350246
-0.350467
-0.350797
-0.351219
-0.351717
-0.352273
-0.352873
-0.353528
-0.35427
-0.354984
-0.355402
-0.357464
-0.34955
-0.349398
-0.34929
-0.349194
-0.349133
-0.349147
-0.349264
-0.3495
-0.349857
-0.350331
-0.350909
-0.351575
-0.352315
-0.353113
-0.35396
-0.354871
-0.355878
-0.356852
-0.357536
-0.35984
-0.347259
-0.347334
-0.34742
-0.347519
-0.347669
-0.347907
-0.348255
-0.348726
-0.349319
-0.350027
-0.350836
-0.35173
-0.352695
-0.353718
-0.354791
-0.355931
-0.357164
-0.358345
-0.35923
-0.361722
-0.344834
-0.345188
-0.345484
-0.345774
-0.346123
-0.346564
-0.347121
-0.347802
-0.348605
-0.349522
-0.350536
-0.351635
-0.352802
-0.354024
-0.355297
-0.356636
-0.358059
-0.359407
-0.360452
-0.36311
-0.342305
-0.34298