1.275 	2.15223e-18 	-2.76991e-20 	-0.283486 	0.0102977 	-3.41013e-22
1.825 	2.15223e-18 	-1.39322e-20 	-0.543636 	0.00110936 	5.22095e-21
2.375 	2.15223e-18 	-2.66896e-23 	-0.346802 	-0.00599799 	-1.98928e-21
