1.275 	2.15223e-18 	-2.76991e-20 	-0.283481 	0.0102912 	-3.40966e-22
1.825 	2.15223e-18 	-1.39322e-20 	-0.543635 	0.00104152 	5.22045e-21
2.375 	2.15223e-18 	-2.66896e-23 	-0.346824 	-0.00606236 	-1.98908e-21
