/*--------------------------------*- C++ -*----------------------------------*\
  =========                 |
  \\      /  F ield         | OpenFOAM: The Open Source CFD Toolbox
   \\    /   O peration     | Website:  https://openfoam.org
    \\  /    A nd           | Version:  6.0
     \\/     M anipulation  |
\*---------------------------------------------------------------------------*/
FoamFile
{
    version     2.0;
    format      ascii;
    class       volVectorField;
    location    "7.7";
    object      U;
}
// * * * * * * * * * * * * * * * * * * * * * * * * * * * * * * * * * * * * * //

dimensions      [0 1 -1 0 0 0 0];

internalField   nonuniform List<vector> 
8000
(
(-0.00123148 0.00130963 -4.23705e-21)
(-0.00639257 0.00311501 2.26581e-20)
(-0.0156668 0.00433407 -2.76181e-20)
(-0.0269111 0.00515207 2.10564e-20)
(-0.0390987 0.0056855 1.02884e-20)
(-0.0517008 0.00601601 -3.09026e-20)
(-0.0643493 0.00620439 -2.74499e-21)
(-0.0768078 0.0062961 -9.94088e-22)
(-0.0889409 0.0063254 -1.61927e-20)
(-0.100681 0.00631846 -8.81685e-21)
(-0.112008 0.00629547 6.53369e-21)
(-0.122932 0.00627212 2.50796e-20)
(-0.133485 0.00626067 -1.81235e-21)
(-0.143709 0.00627062 2.75576e-21)
(-0.153662 0.00630903 -2.55185e-20)
(-0.163432 0.0063804 1.57772e-20)
(-0.173089 0.00648755 -2.27546e-20)
(-0.182406 0.00663596 3.44787e-20)
(-0.191053 0.00683144 -3.76691e-23)
(-0.201145 0.0070372 7.69846e-21)
(-0.00140417 0.00399705 1.40676e-20)
(-0.00671683 0.00953806 -7.19797e-20)
(-0.0159557 0.013307 -4.98427e-20)
(-0.0270633 0.0158557 -3.39255e-20)
(-0.0390525 0.0175338 -4.37417e-20)
(-0.0514142 0.0185879 9.55247e-21)
(-0.0637923 0.0192028 -5.0668e-20)
(-0.0759575 0.0195169 -1.1474e-20)
(-0.0877778 0.0196348 3.4968e-21)
(-0.0991877 0.0196363 3.80515e-20)
(-0.110166 0.019583 -4.17279e-20)
(-0.120724 0.0195228 5.82059e-20)
(-0.130892 0.019493 -4.37487e-20)
(-0.140713 0.0195227 -5.21204e-20)
(-0.150242 0.0196338 -7.22584e-20)
(-0.159571 0.0198404 4.59451e-20)
(-0.168768 0.0201517 -1.51531e-20)
(-0.177611 0.0205851 -5.49824e-20)
(-0.185755 0.0211596 5.2023e-20)
(-0.195316 0.0217652 -3.94897e-20)
(-0.0017408 0.0065485 1.3762e-19)
(-0.00735174 0.0156711 7.14931e-20)
(-0.0165244 0.0219128 8.04853e-20)
(-0.0273667 0.0261565 6.72379e-21)
(-0.0389682 0.028966 4.45697e-20)
(-0.0508582 0.0307421 5.57428e-20)
(-0.0627044 0.0317864 -1.01454e-19)
(-0.0742917 0.0323257 -5.39407e-20)
(-0.0854953 0.0325325 -7.05846e-20)
(-0.0962528 0.0325388 7.52963e-20)
(-0.106544 0.0324469 -5.76934e-20)
(-0.11638 0.0323367 -7.46355e-20)
(-0.125789 0.032271 -2.72576e-20)
(-0.134813 0.0322993 2.59217e-20)
(-0.143508 0.0324594 -7.47145e-21)
(-0.151966 0.0327768 1.02835e-20)
(-0.16026 0.0332684 1.22076e-19)
(-0.168172 0.0339655 -1.68745e-20)
(-0.175329 0.0349048 -1.25064e-19)
(-0.18385 0.0359031 1.68584e-19)
(-0.0022212 0.00888285 4.81127e-20)
(-0.00826469 0.0213382 -6.77263e-20)
(-0.0173497 0.029925 -1.71081e-20)
(-0.0278158 0.0358023 3.19191e-20)
(-0.0388613 0.0397186 9.07627e-20)
(-0.05007 0.0422113 1.99089e-19)
(-0.0611448 0.0436873 1.94963e-19)
(-0.071891 0.0444551 1.6372e-20)
(-0.0821954 0.0447504 1.20158e-19)
(-0.0920005 0.0447552 1.84387e-19)
(-0.101288 0.0446109 -1.47965e-19)
(-0.110068 0.0444292 2.18948e-19)
(-0.118368 0.0442989 -5.03186e-20)
(-0.12623 0.0442912 1.23231e-20)
(-0.133709 0.0444617 5.26689e-20)
(-0.140897 0.0448496 7.04724e-20)
(-0.147878 0.0454824 -1.10356e-19)
(-0.154439 0.0464088 -9.26873e-20)
(-0.160168 0.0476903 -1.64973e-19)
(-0.167184 0.0490724 2.44762e-19)
(-0.00281768 0.0109334 -2.50598e-20)
(-0.00941051 0.0263903 -2.57459e-19)
(-0.0183992 0.0371467 -7.63411e-20)
(-0.0284034 0.0445687 -1.86148e-19)
(-0.038754 0.0495522 7.03643e-20)
(-0.0491031 0.0527482 -1.11292e-19)
(-0.0591979 0.0546546 3.84506e-20)
(-0.0688711 0.0556518 -2.36669e-19)
(-0.0780245 0.0560331 1.25081e-19)
(-0.0866085 0.0560262 -1.49479e-19)
(-0.0946076 0.0558102 -1.3336e-19)
(-0.102032 0.0555276 -1.50019e-19)
(-0.10891 0.0552937 1.36559e-19)
(-0.115281 0.0552026 -1.23212e-19)
(-0.121201 0.0553307 1.71773e-19)
(-0.126763 0.055734 5.00671e-20)
(-0.132065 0.0564544 1.24443e-19)
(-0.136905 0.0575632 5.49732e-20)
(-0.140823 0.0591574 -2.17521e-19)
(-0.145932 0.060916 3.61807e-19)
(-0.00349781 0.0126519 1.11182e-19)
(-0.0107357 0.0307135 8.33325e-21)
(-0.0196344 0.0434198 4.58436e-20)
(-0.0291208 0.0522682 1.59985e-19)
(-0.0386737 0.0582597 -2.44475e-20)
(-0.0480229 0.0621335 2.60482e-19)
(-0.056968 0.0644608 1.16005e-19)
(-0.0653748 0.0656831 9.73976e-21)
(-0.0731647 0.0661432 2.99425e-19)
(-0.0802983 0.06611 9.86458e-20)
(-0.0867654 0.0657971 4.69121e-20)
(-0.0925773 0.0653767 1.48872e-19)
(-0.0977622 0.0649902 1.3703e-19)
(-0.10236 0.0647565 2.51394e-19)
(-0.106426 0.064775 -2.24805e-19)
(-0.110058 0.0651234 3.20262e-19)
(-0.113367 0.0658633 5.28983e-21)
(-0.116172 0.067095 -4.11635e-19)
(-0.117962 0.0689661 5.35776e-19)
(-0.120829 0.0710984 2.27721e-19)
(-0.00422761 0.0140111 -6.54545e-20)
(-0.0121833 0.034234 -1.19308e-19)
(-0.0210141 0.0486321 -2.48146e-19)
(-0.0299589 0.0587577 -7.4059e-21)
(-0.0386505 0.0656744 4.25991e-20)
(-0.0469019 0.0701828 -3.17572e-19)
(-0.0545712 0.0729092 -2.36058e-19)
(-0.0615625 0.0743429 -3.36731e-20)
(-0.0678208 0.0748678 -2.99777e-19)
(-0.0733207 0.0747878 -2.08328e-19)
(-0.0780589 0.0743469 -6.0812e-20)
(-0.0820497 0.0737444 -1.964e-19)
(-0.0853219 0.0731472 -2.94396e-21)
(-0.087916 0.0726995 -2.62525e-19)
(-0.089888 0.0725271 1.11247e-19)
(-0.0913389 0.0727342 -1.26789e-19)
(-0.0923977 0.0734087 9.82842e-20)
(-0.0929123 0.0746893 -1.24018e-19)
(-0.0923222 0.0767927 -3.57592e-19)
(-0.0926856 0.0793016 -1.09812e-19)
(-0.00497486 0.0150053 -2.44275e-20)
(-0.0136981 0.0369213 -2.64628e-20)
(-0.0224973 0.0527212 2.08252e-19)
(-0.0309082 0.0639438 -3.39302e-19)
(-0.0387137 0.0716761 4.97343e-20)
(-0.0458128 0.0767541 -1.96432e-19)
(-0.0521252 0.0798406 9.28024e-20)
(-0.057598 0.0814596 4.18509e-19)
(-0.0622042 0.0820261 -2.64785e-20)
(-0.0659355 0.0818718 -3.13589e-19)
(-0.0687983 0.0812656 5.68722e-20)
(-0.0708114 0.0804302 1.08601e-20)
(-0.0720052 0.0795558 -6.55908e-20)
(-0.0724205 0.0788116 5.73111e-21)
(-0.0721141 0.0783518 5.74871e-19)
(-0.0711905 0.0783127 -8.14467e-20)
(-0.069798 0.0788165 -1.60839e-19)
(-0.0678207 0.080052 -2.90296e-19)
(-0.0646595 0.0823292 2.95829e-19)
(-0.0623249 0.0852203 1.29275e-19)
(-0.00571219 0.0156493 1.22256e-19)
(-0.0152312 0.0387866 -1.6028e-19)
(-0.0240468 0.0556755 2.26462e-19)
(-0.0319584 0.0677859 2.28022e-19)
(-0.0388885 0.0761954 2.10152e-19)
(-0.04482 0.0817528 4.26596e-19)
(-0.0497367 0.0851402 2.76394e-19)
(-0.0536321 0.086903 -5.94824e-19)
(-0.0565108 0.0874772 3.04811e-19)
(-0.0583856 0.0872139 2.39964e-19)
(-0.0592753 0.0864001 -3.27834e-21)
(-0.059205 0.0852764 2.70204e-19)
(-0.0582073 0.0840522 2.119e-19)
(-0.0563231 0.0829195 -1.14754e-19)
(-0.0536088 0.0820615 3.91382e-19)
(-0.0501712 0.0816509 -4.85496e-19)
(-0.0461772 0.0818534 1.95371e-19)
(-0.0415547 0.0829221 2.52286e-19)
(-0.0356811 0.0852906 -5.93571e-20)
(-0.0305138 0.0885645 5.12711e-19)
(-0.00641951 0.0159758 2.46765e-19)
(-0.0167443 0.0398795 1.28015e-20)
(-0.0256309 0.0575313 -8.84144e-20)
(-0.0330974 0.0702951 -9.32415e-20)
(-0.0391893 0.0792154 -4.32473e-19)
(-0.0439693 0.0851358 6.11833e-20)
(-0.0474855 0.0887431 1.73919e-19)
(-0.0497804 0.0905921 -8.36691e-20)
(-0.050894 0.0911294 6.91323e-20)
(-0.0508635 0.0907167 -1.81594e-20)
(-0.0497231 0.0896511 -9.07188e-20)
(-0.0475063 0.0881836 8.61456e-20)
(-0.0442483 0.0865367 -3.77799e-19)
(-0.0399894 0.0849199 3.6197e-19)
(-0.0347839 0.0835429 -3.15503e-19)
(-0.0287377 0.0826167 9.72933e-20)
(-0.0220335 0.0823587 2.23373e-19)
(-0.0146476 0.0831032 -4.6227e-20)
(-0.00595392 0.0854442 -1.55242e-19)
(0.0021348 0.0890824 -1.05863e-19)
(-0.00708554 0.0160315 -3.07735e-19)
(-0.0182113 0.040281 -1.99647e-20)
(-0.0272243 0.058367 6.47434e-20)
(-0.0343085 0.0715306 1.66162e-19)
(-0.0396134 0.0807706 -2.34592e-19)
(-0.0432756 0.086913 -2.04815e-19)
(-0.0454065 0.0906385 4.78738e-19)
(-0.0460992 0.0925009 -2.64371e-19)
(-0.0454319 0.0929484 -1.70898e-19)
(-0.0434698 0.092344 -2.45984e-19)
(-0.0402655 0.0909862 1.6318e-19)
(-0.0358628 0.0891281 -3.88947e-21)
(-0.0303007 0.0869959 -3.05661e-19)
(-0.0236181 0.0848083 -5.03161e-19)
(-0.0158643 0.0827942 3.83598e-19)
(-0.00714012 0.0812002 -3.12893e-19)
(0.0023608 0.0802998 4.44307e-19)
(0.0126135 0.0805246 -1.24427e-19)
(0.0242251 0.0826721 2.65726e-19)
(0.0353002 0.0866212 -8.91217e-19)
(-0.00770833 0.0158721 -6.23995e-19)
(-0.0196192 0.0400945 4.08447e-19)
(-0.0288059 0.0582937 5.55088e-20)
(-0.0355657 0.0715928 1.07237e-20)
(-0.0401319 0.0809423 -2.51239e-19)
(-0.042709 0.0871458 3.69457e-19)
(-0.0434693 0.0908707 4.05455e-20)
(-0.042557 0.0926627 -7.59677e-20)
(-0.0400911 0.0929634 -2.43785e-19)
(-0.0361669 0.0921297 2.63875e-19)
(-0.0308586 0.090453 6.70987e-19)
(-0.0242228 0.0881787 -1.48276e-19)
(-0.0163036 0.0855263 3.36213e-19)
(-0.00713834 0.0827116 -3.99035e-19)
(0.00323051 0.0799704 -3.84133e-19)
(0.0147114 0.0775742 2.31136e-19)
(0.0271067 0.0758488 3.85214e-19)
(0.0403457 0.0753339 -1.24823e-18)
(0.0549974 0.0770758 1.45837e-19)
(0.069134 0.0812357 1.97269e-19)
(-0.00829444 0.0155568 4.62176e-19)
(-0.0209661 0.0394357 1.51671e-19)
(-0.0303557 0.0574449 7.88801e-19)
(-0.0368272 0.070613 4.04414e-20)
(-0.04068 0.0798517 -8.76908e-20)
(-0.04218 0.0859426 -4.17275e-19)
(-0.0415577 0.0895378 3.54838e-19)
(-0.0390075 0.0911704 6.36704e-19)
(-0.0346896 0.0912708 4.25253e-19)
(-0.0287316 0.0901835 3.06852e-19)
(-0.0212313 0.0881861 2.64967e-19)
(-0.0122608 0.085508 -4.77648e-19)
(-0.00187177 0.082351 -1.50867e-19)
(0.00989803 0.0789142 -1.10668e-19)
(0.0230126 0.0754226 1.19154e-18)
(0.0373917 0.0721532 -3.07403e-21)
(0.052839 0.0694678 -2.99215e-19)
(0.069243 0.0680101 -9.6168e-20)
(0.087123 0.0691138 8.61437e-19)
(0.104454 0.0733435 1.07276e-19)
(-0.00885701 0.0151431 -2.30031e-20)
(-0.0222564 0.0384212 -4.36062e-19)
(-0.0318487 0.055963 -6.47626e-19)
(-0.0380281 0.0687426 -1.79832e-19)
(-0.0411464 0.0776496 9.92103e-20)
(-0.0415255 0.0834511 2.13674e-20)
(-0.0394503 0.0867856 5.6707e-19)
(-0.0351634 0.0881735 -7.03564e-19)
(-0.0288648 0.0880314 -2.67667e-19)
(-0.0207142 0.086689 -5.40336e-19)
(-0.0108343 0.0844065 -4.614e-19)
(0.000684566 0.0813917 -4.08958e-19)
(0.0137789 0.0778208 1.02195e-19)
(0.0284054 0.0738628 -1.32985e-19)
(0.0445291 0.0697129 5.73633e-19)
(0.0620769 0.0656266 -3.14478e-19)
(0.0808531 0.061969 -9.92458e-19)
(0.100707 0.05946 -2.02563e-19)
(0.122111 0.0597382 4.92155e-19)
(0.142883 0.0638949 -4.25291e-19)
(-0.00941264 0.0146813 -7.37311e-20)
(-0.0234951 0.0371584 5.32398e-19)
(-0.0332467 0.053988 -6.78206e-19)
(-0.0390703 0.0661397 1.56941e-19)
(-0.0413621 0.0745056 -3.22204e-19)
(-0.0404959 0.079849 7.17069e-19)
(-0.0368063 0.0828008 -5.12567e-19)
(-0.0305796 0.0838711 5.86818e-19)
(-0.0220524 0.0834646 -5.55819e-19)
(-0.0114144 0.0818971 2.37978e-19)
(0.00118687 0.0794115 -1.15234e-19)
(0.0156401 0.0761944 -2.89843e-19)
(0.0318635 0.0723935 -3.59197e-19)
(0.0497979 0.0681407 3.59245e-19)
(0.0693957 0.0635854 -3.01605e-19)
(0.0905768 0.0589335 -6.63065e-19)
(0.113132 0.0545082 6.92041e-19)
(0.136865 0.0510464 -8.85309e-19)
(0.162215 0.0504677 4.00776e-19)
(0.186829 0.0544927 1.65237e-20)
(-0.00997747 0.0142108 -6.66133e-19)
(-0.0246796 0.0357364 -7.17749e-19)
(-0.0344895 0.0516451 8.28417e-20)
(-0.0398144 0.062958 -6.89981e-19)
(-0.0410927 0.0705958 -6.07392e-20)
(-0.0387471 0.0753327 -5.07036e-19)
(-0.033157 0.0778 -1.16145e-19)
(-0.0246464 0.078503 -3.39278e-19)
(-0.013483 0.0778385 3.85307e-21)
(0.000117255 0.0761129 -1.48131e-19)
(0.0159826 0.0735573 1.12833e-20)
(0.0339771 0.0703425 -4.29216e-19)
(0.0539912 0.0665931 4.7568e-19)
(0.0759334 0.0624067 -6.73911e-19)
(0.0997198 0.0578819 2.4065e-19)
(0.125234 0.0531558 9.96042e-21)
(0.152223 0.048464 -3.84021e-19)
(0.180414 0.0444737 9.58903e-19)
(0.210232 0.0433017 -2.28008e-19)
(0.239257 0.0473529 -1.49058e-19)
(-0.0105627 0.0137562 7.46531e-19)
(-0.0257915 0.0342186 4.0256e-19)
(-0.0354859 0.0490366 3.73935e-19)
(-0.0400712 0.0593358 5.58025e-20)
(-0.0400318 0.0660927 5.04727e-19)
(-0.0358382 0.070107 7.2675e-19)
(-0.0279091 0.0720201 5.9386e-19)
(-0.0165996 0.0723389 5.37479e-20)
(-0.00220244 0.0714587 4.35191e-19)
(0.0150437 0.0696831 6.7224e-19)
(0.0349425 0.0672398 -1.73943e-19)
(0.0573267 0.0642943 2.93033e-19)
(0.0820451 0.0609608 2.36417e-19)
(0.10895 0.0573162 2.41554e-19)
(0.137887 0.05342 1.43556e-18)
(0.168659 0.049341 -5.38759e-19)
(0.200924 0.0451996 -3.27026e-20)
(0.234271 0.0414973 6.31693e-19)
(0.269107 0.0404013 -3.59348e-19)
(0.30322 0.0450166 1.76997e-19)
(-0.0111704 0.0133266 -6.02504e-19)
(-0.0267882 0.0326397 3.80224e-20)
(-0.0361066 0.0462351 -4.80297e-19)
(-0.0395975 0.0553885 -6.22572e-20)
(-0.0378017 0.0611554 3.5084e-19)
(-0.0312376 0.0643752 -1.04455e-18)
(-0.0203596 0.065708 -1.04998e-21)
(-0.00554827 0.0656692 4.85887e-19)
(0.0128825 0.0646587 4.55678e-19)
(0.0346715 0.0629842 -2.01173e-19)
(0.0595925 0.060879 6.63424e-20)
(0.0874351 0.0585157 1.53547e-19)
(0.117985 0.0560155 -7.28246e-20)
(0.151007 0.0534573 -8.20192e-19)
(0.18623 0.05089 2.07394e-19)
(0.223317 0.0483444 5.76328e-19)
(0.261768 0.0458392 -8.23482e-19)
(0.300954 0.0436489 4.01593e-19)
(0.341198 0.0438354 1.08543e-19)
(0.380966 0.0502565 5.48131e-19)
(-0.0117896 0.012915 -8.81787e-20)
(-0.0275976 0.0310042 -4.20806e-19)
(-0.0361788 0.0432815 1.9366e-19)
(-0.0380949 0.0512041 9.93225e-22)
(-0.0339581 0.0559241 -8.41385e-19)
(-0.0243381 0.0583317 1.31567e-19)
(-0.00972372 0.0591127 -2.48404e-20)
(0.00947951 0.058796 1.6934e-19)
(0.0329342 0.0577903 -7.75095e-19)
(0.0603493 0.056412 -5.46034e-20)
(0.091455 0.0549059 -1.82586e-19)
(0.125978 0.0534606 1.61709e-19)
(0.163613 0.0522198 5.48757e-19)
(0.204004 0.0512913 -8.4708e-20)
(0.246717 0.0507571 3.3344e-20)
(0.291207 0.0506765 2.17237e-19)
(0.336716 0.0510577 -5.41108e-20)
(0.382245 0.0520412 4.45252e-19)
(0.427791 0.0556462 -2.55675e-19)
(0.472778 0.0666035 -4.02348e-19)
(-0.012394 0.0125008 8.2275e-20)
(-0.0281136 0.0292901 2.04303e-20)
(-0.0354858 0.0401867 1.68493e-19)
(-0.0352147 0.046843 4.12166e-19)
(-0.0280032 0.0505175 2.3104e-19)
(-0.0144804 0.0521577 2.39162e-20)
(0.00482493 0.0524792 -2.75e-19)
(0.029474 0.0520262 7.06302e-20)
(0.0590921 0.0512161 3.70634e-19)
(0.0933376 0.0503724 -6.27952e-19)
(0.131871 0.0497483 4.73943e-19)
(0.174325 0.0495455 -3.57448e-19)
(0.22028 0.0499295 3.0389e-19)
(0.269242 0.0510454 -6.56702e-19)
(0.320621 0.0530369 7.24844e-19)
(0.373696 0.0560601 -7.76261e-19)
(0.427496 0.0602678 -2.03113e-19)
(0.480673 0.0660172 6.39736e-19)
(0.532327 0.0757642 -2.1514e-19)
(0.580283 0.094582 9.9111e-20)
(-0.012941 0.0120531 -6.20024e-20)
(-0.0281959 0.0274553 5.85448e-19)
(-0.0337695 0.0369376 -2.5857e-21)
(-0.0305655 0.0423426 -3.63205e-19)
(-0.0194027 0.0450348 -2.4361e-19)
(-0.000983682 0.0460214 4.4658e-19)
(0.0241062 0.0460475 -1.76798e-19)
(0.0553718 0.0456695 -2.2234e-20)
(0.0923688 0.0453075 3.67986e-19)
(0.134663 0.0452813 -4.57054e-19)
(0.181795 0.0458359 5.02262e-20)
(0.233254 0.0471618 -5.9479e-19)
(0.288462 0.0494127 3.13715e-19)
(0.346771 0.0527259 -8.98536e-19)
(0.407471 0.0572492 1.43384e-18)
(0.46981 0.0631769 -2.63298e-19)
(0.533025 0.0708165 2.74769e-19)
(0.596515 0.0809917 -7.1221e-19)
(0.660408 0.096495 6.43147e-21)
(0.715831 0.116784 7.82866e-19)
(-0.0133723 0.0115355 -1.87453e-19)
(-0.0276727 0.0254459 1.61769e-19)
(-0.0307363 0.033507 -5.96739e-19)
(-0.023726 0.0377258 8.82406e-19)
(-0.00760628 0.0395641 -6.36739e-19)
(0.0168215 0.0400848 3.28853e-20)
(0.0488838 0.040057 -6.85765e-19)
(0.0879855 0.0400415 4.90218e-19)
(0.133555 0.0404486 -7.00502e-20)
(0.184996 0.0415753 -4.32539e-19)
(0.241649 0.043631 -2.52596e-19)
(0.302776 0.0467561 2.66811e-19)
(0.367558 0.0510377 1.7671e-19)
(0.435108 0.0565246 -7.82131e-19)
(0.504513 0.0632424 2.82243e-19)
(0.574878 0.071207 -4.16911e-19)
(0.645392 0.0804354 5.14046e-20)
(0.715475 0.0910593 -3.5141e-19)
(0.785364 0.103998 1.36884e-19)
(0.848888 0.11832 -5.16111e-19)
(-0.0136162 0.0109115 5.3389e-19)
(-0.0263451 0.023208 -3.23645e-19)
(-0.0260652 0.0298669 2.66566e-19)
(-0.0142572 0.0330158 -3.36316e-19)
(0.00793112 0.0341953 5.63323e-19)
(0.0395613 0.0345144 -9.76858e-21)
(0.0798193 0.0347555 -6.8484e-20)
(0.127942 0.0354692 -5.08114e-20)
(0.183146 0.0370367 3.1257e-19)
(0.244575 0.0397065 5.31472e-19)
(0.311269 0.0436204 -3.14063e-19)
(0.382163 0.0488311 3.05393e-19)
(0.456103 0.0553176 5.58037e-19)
(0.53189 0.0629996 -3.91162e-19)
(0.608331 0.0717492 -7.93507e-19)
(0.684305 0.0813986 1.45e-18)
(0.758818 0.0917371 -2.58773e-19)
(0.831081 0.102531 -8.28855e-20)
(0.900799 0.113858 8.85421e-19)
(0.964543 0.12693 -1.91583e-19)
(-0.0135907 0.01015 -8.6823e-19)
(-0.0239935 0.0206989 -5.77936e-19)
(-0.0194172 0.0260031 -2.21756e-19)
(-0.0017171 0.0282519 4.27904e-19)
(0.0277287 0.0290374 -9.66152e-19)
(0.0677878 0.0294979 5.00265e-19)
(0.11743 0.0304104 6.33793e-20)
(0.175627 0.0322934 6.39751e-20)
(0.241275 0.0354705 -6.55163e-19)
(0.313142 0.0401086 -2.31462e-19)
(0.389859 0.0462439 -4.07923e-19)
(0.469943 0.053804 3.93865e-19)
(0.55185 0.0626281 1.11601e-19)
(0.634043 0.0724866 2.17543e-20)
(0.715068 0.0830998 5.1087e-19)
(0.793622 0.0941518 -5.1843e-19)
(0.86861 0.105296 -2.10618e-20)
(0.939192 0.116183 1.50061e-20)
(1.00482 0.126487 7.26764e-20)
(1.06432 0.138906 3.86569e-19)
(-0.0132065 0.00922937 2.76308e-19)
(-0.0203847 0.0178974 7.11491e-19)
(-0.010445 0.0219306 5.70848e-19)
(0.0143257 0.023508 -1.96838e-19)
(0.0522589 0.0242369 6.84736e-19)
(0.101949 0.0252598 -5.76673e-20)
(0.162045 0.0273203 -8.12891e-20)
(0.231134 0.0308709 4.82957e-20)
(0.30766 0.0361383 6.61996e-19)
(0.389895 0.0431644 3.88935e-19)
(0.475969 0.0518376 1.13581e-19)
(0.563932 0.0619245 7.10117e-21)
(0.651854 0.0731017 -7.52241e-19)
(0.73792 0.0849878 6.53798e-19)
(0.820524 0.0971734 1.11267e-19)
(0.898338 0.109246 -1.84359e-19)
(0.970352 0.120805 -7.90649e-19)
(1.0359 0.131509 -6.47129e-20)
(1.09454 0.140878 3.08225e-19)
(1.14676 0.152339 -6.09428e-20)
(-0.0123695 0.00814072 -7.00191e-19)
(-0.0152781 0.0148133 2.92951e-19)
(0.00119674 0.0177069 -1.43098e-18)
(0.0342766 0.0189083 5.86371e-19)
(0.0819247 0.0199941 -4.67708e-19)
(0.142356 0.0220751 3.44921e-19)
(0.213769 0.0258204 -5.36007e-19)
(0.294219 0.0315686 4.91532e-20)
(0.381563 0.0393977 -2.76209e-20)
(0.473476 0.0491724 1.44154e-19)
(0.567537 0.0605897 2.08022e-19)
(0.661352 0.0732272 -3.93047e-19)
(0.752692 0.0865922 2.08366e-19)
(0.839616 0.10017 1.90774e-19)
(0.920565 0.113463 8.18924e-19)
(0.994404 0.126024 -3.56977e-19)
(1.06044 0.137475 -2.33563e-19)
(1.11838 0.147548 3.91535e-19)
(1.16818 0.155816 2.03966e-19)
(1.21122 0.165774 -3.91025e-19)
(-0.0109835 0.00688972 6.12731e-19)
(-0.00843221 0.0114925 5.90736e-19)
(0.0158403 0.0134411 1.70704e-19)
(0.0584971 0.0146377 7.18838e-19)
(0.117033 0.0165718 3.53474e-19)
(0.189148 0.0202722 -6.3729e-19)
(0.272432 0.0262763 9.65687e-19)
(0.364257 0.0347454 -4.75314e-19)
(0.461773 0.0455447 4.74524e-19)
(0.562003 0.0583076 6.13704e-19)
(0.662002 0.072504 -3.5066e-19)
(0.759044 0.087512 6.6691e-20)
(0.850789 0.102689 3.70233e-19)
(0.935403 0.11743 2.60055e-19)
(1.01162 0.131213 5.958e-19)
(1.07872 0.143629 -2.40169e-19)
(1.13653 0.154389 -3.10552e-20)
(1.18528 0.163343 3.69123e-19)
(1.22546 0.170234 -8.03248e-20)
(1.25887 0.178241 -1.56302e-22)
(-0.00895113 0.00549726 -3.16171e-19)
(0.000388268 0.00802081 -1.16205e-18)
(0.0337913 0.00929864 2.73827e-19)
(0.0872823 0.0109459 -2.08525e-19)
(0.157759 0.0142943 -4.81868e-19)
(0.242247 0.0202231 -3.44481e-19)
(0.337553 0.0290624 -2.1288e-19)
(0.440224 0.040718 5.16831e-19)
(0.546631 0.0547741 -3.0694e-19)
(0.653169 0.070586 -3.14508e-19)
(0.756499 0.0873815 -3.96917e-19)
(0.853778 0.10436 -6.5464e-20)
(0.94282 0.120778 -4.51243e-20)
(1.02217 0.136013 -9.11899e-19)
(1.09109 0.149597 4.39225e-19)
(1.1495 0.161228 -5.77985e-19)
(1.19781 0.170765 1.78476e-19)
(1.23683 0.178204 -1.36123e-18)
(1.26755 0.183507 4.1095e-19)
(1.29193 0.189353 5.12056e-19)
(-0.00617567 0.00399938 -7.94932e-20)
(0.0114049 0.00452393 5.66123e-19)
(0.0553123 0.00550064 3.63493e-20)
(0.120834 0.00814229 8.74601e-20)
(0.204117 0.0135346 -1.77896e-19)
(0.301323 0.0223197 -3.01327e-21)
(0.408312 0.0345269 -4.64473e-21)
(0.520704 0.0497203 -1.07558e-19)
(0.634103 0.0671411 3.81621e-19)
(0.744409 0.0858438 1.47304e-19)
(0.848126 0.104833 6.6795e-19)
(0.942592 0.123188 -1.81803e-19)
(1.02608 0.140144 1.26446e-19)
(1.09776 0.15515 -1.58338e-20)
(1.15763 0.167871 3.49009e-19)
(1.20629 0.178174 2.11943e-19)
(1.2448 0.186095 5.06595e-19)
(1.27445 0.191786 -8.16128e-19)
(1.29662 0.19541 1.02172e-18)
(1.31326 0.19913 -3.23127e-19)
(-0.00256293 0.00244689 -7.36748e-19)
(0.024816 0.00116569 -2.30462e-19)
(0.0806037 0.00231799 1.79796e-19)
(0.159233 0.00658303 1.1346e-19)
(0.255918 0.0146918 1.16744e-19)
(0.365766 0.0269403 1.18193e-19)
(0.483554 0.0429509 -2.96209e-19)
(0.603955 0.0618639 -1.22242e-19)
(0.721928 0.0825396 3.80903e-20)
(0.833131 0.103746 -3.62224e-19)
(0.934239 0.124328 -1.63341e-19)
(1.0231 0.143333 9.85996e-19)
(1.09873 0.160082 -2.54677e-19)
(1.16112 0.17418 -3.48592e-19)
(1.21106 0.185489 -1.63699e-19)
(1.24984 0.194081 1.14293e-19)
(1.27904 0.200171 1.37112e-19)
(1.3003 0.204054 -6.56807e-19)
(1.31523 0.206042 9.45755e-19)
(1.32566 0.207845 -8.18595e-19)
(0.00197584 0.000904905 -8.29267e-20)
(0.0407851 -0.00185549 2.36819e-20)
(0.109783 6.18025e-05 -3.06167e-20)
(0.202409 0.00665265 4.45571e-19)
(0.312747 0.0181616 2.4841e-20)
(0.434677 0.034412 1.63889e-19)
(0.561825 0.0545112 -3.40927e-19)
(0.688011 0.0771149 -1.237e-20)
(0.807801 0.100705 4.73177e-19)
(0.91696 0.123825 6.56947e-20)
(1.0127 0.145263 -4.10983e-19)
(1.09371 0.164152 -3.6198e-20)
(1.15991 0.179994 -3.35135e-19)
(1.21223 0.192625 3.3444e-19)
(1.25219 0.202141 4.61111e-19)
(1.28166 0.208817 -5.0662e-20)
(1.30257 0.21303 -6.11288e-20)
(1.31676 0.215179 1.86124e-19)
(1.32587 0.215673 -5.94777e-19)
(1.33159 0.215855 5.25363e-19)
(0.00751991 -0.000547742 8.38402e-20)
(0.0594282 -0.00431166 -5.39272e-19)
(0.142864 -0.000929318 1.44186e-19)
(0.250119 0.00874138 -4.48798e-19)
(0.373952 0.0243051 1.54477e-19)
(0.506895 0.0449765 -5.73756e-19)
(0.64146 0.0692555 2.31543e-19)
(0.770843 0.0952922 -7.38689e-20)
(0.889578 0.121245 -3.06817e-21)
(0.993948 0.145545 7.5153e-20)
(1.08206 0.16705 -2.73146e-19)
(1.15365 0.185096 -3.88958e-19)
(1.20967 0.199449 -7.92163e-20)
(1.25188 0.210216 -3.55659e-20)
(1.28246 0.21773 -8.99882e-20)
(1.30365 0.222447 -2.91367e-20)
(1.31756 0.224863 -8.72232e-20)
(1.32606 0.22544 -7.54128e-20)
(1.33071 0.224631 -2.22617e-19)
(1.33298 0.223503 3.52038e-19)
(0.0141342 -0.0018194 2.00507e-19)
(0.0808013 -0.00595163 -2.22834e-19)
(0.179739 -0.000304183 4.80052e-19)
(0.301936 0.013221 -2.07618e-19)
(0.438659 0.0334194 5.55063e-19)
(0.581054 0.0587657 8.26991e-21)
(0.720696 0.0870956 2.78898e-19)
(0.850513 0.116089 -7.50719e-20)
(0.965451 0.143692 3.1122e-19)
(1.06271 0.168365 2.20815e-20)
(1.14157 0.189176 7.37656e-19)
(1.20291 0.205758 -5.08349e-19)
(1.24868 0.218195 6.87879e-20)
(1.28137 0.226869 1.30618e-19)
(1.30357 0.232324 6.77664e-19)
(1.31773 0.235154 -2.4322e-19)
(1.32598 0.235928 -4.7983e-20)
(1.33008 0.23513 -2.52239e-19)
(1.33142 0.233222 -2.59528e-20)
(1.33127 0.231062 1.25865e-19)
(0.0218641 -0.00280699 -9.57194e-20)
(0.104888 -0.00650891 2.77321e-19)
(0.22017 0.0022846 -2.85037e-19)
(0.357248 0.0204216 1.12155e-19)
(0.505797 0.0457136 -1.35038e-19)
(0.655664 0.0757899 4.94635e-19)
(0.797803 0.10782 -6.92793e-20)
(0.925333 0.139111 1.69135e-19)
(1.03407 0.167554 -9.99964e-20)
(1.12247 0.1918 -2.88197e-21)
(1.19113 0.211243 1.13117e-19)
(1.24207 0.225885 -8.75973e-20)
(1.2781 0.236136 2.26732e-19)
(1.30221 0.242632 -1.13208e-19)
(1.31724 0.246081 -4.94686e-19)
(1.32567 0.247167 4.90938e-19)
(1.32949 0.246487 -2.20203e-19)
(1.33028 0.244511 1.7567e-19)
(1.32925 0.241691 3.031e-19)
(1.32743 0.238725 1.24456e-19)
(0.0307297 -0.00339831 2.38438e-19)
(0.131588 -0.00571119 -4.91614e-19)
(0.263778 0.00716344 9.39261e-20)
(0.415276 0.03061 -6.83699e-20)
(0.574161 0.0612942 -2.76661e-19)
(0.72921 0.0959405 -2.17078e-19)
(0.871203 0.131119 -4.28325e-20)
(0.99396 0.163924 -3.86427e-19)
(1.09458 0.192371 -2.36354e-20)
(1.173 0.215453 -7.16809e-20)
(1.23115 0.232984 -1.9407e-19)
(1.27208 0.245357 -4.31976e-20)
(1.29923 0.253293 -1.47969e-19)
(1.31592 0.257633 -2.45891e-19)
(1.32503 0.259199 2.51089e-19)
(1.32891 0.258715 3.4073e-20)
(1.32938 0.256765 6.78791e-20)
(1.32776 0.253787 -2.87298e-19)
(1.32506 0.250211 -7.48792e-21)
(1.32211 0.246605 -4.41245e-19)
(0.0407216 -0.00347509 2.60404e-19)
(0.160716 -0.00329129 1.73982e-19)
(0.310052 0.0146205 -2.81436e-19)
(0.475106 0.0439735 4.39432e-19)
(0.642474 0.0801593 -4.7629e-20)
(0.800248 0.119005 1.64314e-19)
(0.939567 0.156621 5.69179e-20)
(1.05545 0.190088 2.01226e-19)
(1.1466 0.217738 -1.57597e-19)
(1.21451 0.239028 5.24024e-20)
(1.26237 0.254241 -5.01998e-20)
(1.29405 0.264155 -2.18171e-20)
(1.31341 0.269755 4.18397e-20)
(1.32388 0.272033 -7.68058e-20)
(1.32823 0.271872 -2.34513e-20)
(1.32862 0.26999 -7.18482e-20)
(1.32659 0.266938 -1.16531e-19)
(1.32325 0.2631 7.53283e-20)
(1.31941 0.258889 -1.0267e-19)
(1.31572 0.254754 4.44514e-19)
(0.0517971 -0.00291708 -1.29673e-19)
(0.191994 0.00100079 -3.68349e-19)
(0.358362 0.0248898 -4.90901e-20)
(0.535723 0.0606081 -1.36388e-20)
(0.709461 0.102202 -1.65471e-19)
(0.867485 0.144689 -2.71835e-19)
(1.00187 0.183923 8.88533e-20)
(1.10925 0.217198 -1.22097e-19)
(1.19014 0.24333 -1.36494e-19)
(1.24754 0.262324 7.59565e-20)
(1.28571 0.274946 -5.73064e-20)
(1.30913 0.282321 -1.1569e-19)
(1.32186 0.285642 -3.69666e-21)
(1.32725 0.285991 7.83661e-20)
(1.32789 0.284263 -7.96062e-20)
(1.32563 0.281142 1.105e-19)
(1.3218 0.277122 2.98325e-20)
(1.31727 0.272535 7.46747e-20)
(1.31266 0.267774 1.44927e-19)
(1.30849 0.26318 -1.24188e-19)
(0.0638779 -0.00160674 1.23691e-19)
(0.225058 0.0073855 -1.05482e-20)
(0.407978 0.0381373 5.59272e-20)
(0.596069 0.0805134 -7.56377e-20)
(0.773914 0.127222 6.44645e-21)
(0.929838 0.172643 2.6281e-19)
(1.05739 0.212623 -1.7244e-19)
(1.15516 0.244894 7.30611e-20)
(1.22549 0.268891 6.44174e-20)
(1.27279 0.285215 -1.80452e-19)
(1.30215 0.295091 1.69461e-19)
(1.3184 0.299932 1.55991e-21)
(1.32563 0.301076 -1.19077e-19)
(1.32698 0.299643 1.43461e-19)
(1.32477 0.296497 -5.68497e-20)
(1.32058 0.292269 4.34266e-20)
(1.31546 0.287385 -4.85996e-20)
(1.31012 0.282125 -1.95219e-20)
(1.30502 0.276871 -1.6927e-19)
(1.30055 0.271853 5.19609e-20)
(0.0768501 0.000565575 -4.14478e-20)
(0.259465 0.0160419 1.11806e-19)
(0.458099 0.0544508 1.75307e-20)
(0.655085 0.103594 7.32832e-20)
(0.834749 0.154942 3.50572e-20)
(0.986461 0.202483 1.64468e-20)
(1.10572 0.242334 9.29602e-20)
(1.19325 0.272868 -1.12325e-20)
(1.25317 0.294233 4.09521e-20)
(1.29106 0.307632 6.5703e-20)
(1.31262 0.314698 3.16737e-20)
(1.32282 0.317069 2.27321e-20)
(1.32558 0.316163 9.21261e-20)
(1.32379 0.313088 -8.91691e-20)
(1.31944 0.308654 1.91215e-20)
(1.31385 0.303422 -1.79062e-20)
(1.30786 0.297748 2.76727e-20)
(1.30199 0.291867 2.31801e-20)
(1.29659 0.286155 4.83088e-20)
(1.29195 0.280723 1.96776e-21)
(0.090565 0.00369643 2.45905e-20)
(0.29471 0.0270973 2.24619e-20)
(0.507888 0.0738339 -3.11577e-20)
(0.711763 0.129664 1.94783e-20)
(0.891041 0.185024 1.10163e-20)
(1.03675 0.233814 -3.43002e-20)
(1.14669 0.2727 1.1303e-20)
(1.22379 0.300863 2.07489e-21)
(1.27377 0.319218 1.94755e-20)
(1.30316 0.329539 -5.22676e-20)
(1.31798 0.333802 -1.63459e-22)
(1.32316 0.333801 1.44737e-20)
(1.32239 0.330976 -1.15372e-20)
(1.31821 0.326387 1.1672e-20)
(1.31231 0.320772 3.04576e-20)
(1.30575 0.314612 -1.73358e-20)
(1.29917 0.3082 4.82698e-21)
(1.29298 0.301729 1.89841e-20)
(1.28742 0.295574 -3.1255e-20)
(1.2827 0.289724 1.50409e-20)
(0.104843 0.00786429 6.81382e-20)
(0.330237 0.040619 -3.71781e-20)
(0.556502 0.0962044 4.38618e-20)
(0.76518 0.158462 -3.26584e-20)
(0.942045 0.217089 -1.46589e-20)
(1.08033 0.266242 4.4541e-21)
(1.18036 0.303396 -1.43865e-20)
(1.2472 0.328664 5.17221e-20)
(1.28795 0.343739 -4.30922e-20)
(1.30982 0.350913 1.01265e-20)
(1.31895 0.352432 -7.53677e-21)
(1.32008 0.350174 -4.91718e-20)
(1.31657 0.345556 4.77213e-20)
(1.31062 0.339565 1.81921e-20)
(1.30363 0.33285 -1.80844e-20)
(1.29642 0.325818 4.24964e-20)
(1.28949 0.318698 -6.19961e-22)
(1.28314 0.311654 -4.12404e-20)
(1.27753 0.305062 3.05337e-20)
(1.27281 0.298779 9.6698e-21)
(0.119478 0.0131253 -2.38926e-20)
(0.365461 0.0566092 6.9194e-20)
(0.603123 0.121397 8.01166e-20)
(0.814526 0.189659 -3.78783e-20)
(0.987199 0.250731 6.58461e-20)
(1.11701 0.299385 1.04304e-19)
(1.20692 0.334129 -5.79194e-21)
(1.26396 0.356089 -1.79773e-20)
(1.29635 0.367711 8.85889e-20)
(1.31171 0.371734 4.32446e-20)
(1.31614 0.370599 -7.87737e-21)
(1.31409 0.366207 6.46029e-20)
(1.30852 0.359913 -6.93907e-20)
(1.30131 0.352609 1.08134e-19)
(1.29358 0.344857 -1.80394e-20)
(1.28598 0.336989 5.18447e-20)
(1.27888 0.32918 9.39424e-21)
(1.27249 0.321572 3.7127e-20)
(1.26691 0.31454 -3.53112e-20)
(1.26226 0.307806 8.61442e-21)
(0.134241 0.0195093 -3.71881e-20)
(0.399789 0.0750017 8.75541e-20)
(0.646987 0.14917 6.52018e-20)
(0.859123 0.222873 -9.91699e-21)
(1.02611 0.28553 1.01983e-19)
(1.14678 0.332874 -7.65787e-20)
(1.22667 0.364632 -6.04644e-21)
(1.27457 0.382975 6.74277e-20)
(1.29955 0.391054 2.13723e-20)
(1.30942 0.391974 3.00816e-20)
(1.31006 0.388293 -4.4488e-20)
(1.30556 0.381888 1.16308e-19)
(1.2985 0.374019 2.18112e-20)
(1.29044 0.365478 -1.03229e-19)
(1.28227 0.356735 1.51328e-19)
(1.27448 0.348056 -1.78701e-19)
(1.26735 0.339568 -8.22704e-20)
(1.26103 0.331399 1.36427e-20)
(1.25555 0.32392 7.98763e-20)
(1.25102 0.316716 -1.51347e-19)
(0.148891 0.0270171 -8.29797e-20)
(0.432634 0.0956627 -1.96163e-19)
(0.687405 0.179212 -1.70103e-19)
(0.89843 0.257684 -2.31514e-19)
(1.05856 0.321061 -1.31689e-19)
(1.16973 0.366358 -2.73139e-19)
(1.23998 0.394658 3.47289e-20)
(1.27954 0.409174 -1.45551e-19)
(1.2981 0.413687 -1.60669e-20)
(1.30342 0.411587 2.40057e-20)
(1.30111 0.405481 -5.29543e-20)
(1.2948 0.397177 6.65804e-20)
(1.28673 0.387823 1.18782e-19)