/*--------------------------------*- C++ -*----------------------------------*\
  =========                 |
  \\      /  F ield         | OpenFOAM: The Open Source CFD Toolbox
   \\    /   O peration     | Website:  https://openfoam.org
    \\  /    A nd           | Version:  6.0
     \\/     M anipulation  |
\*---------------------------------------------------------------------------*/
FoamFile
{
    version     2.0;
    format      ascii;
    class       volScalarField;
    location    "5.8";
    object      p;
}
// * * * * * * * * * * * * * * * * * * * * * * * * * * * * * * * * * * * * * //

dimensions      [0 2 -2 0 0 0 0];

internalField   nonuniform List<scalar> 
8000
(
-0.334881
-0.338297
-0.340396
-0.341971
-0.343495
-0.345062
-0.346721
-0.348499
-0.350396
-0.352396
-0.354477
-0.356618
-0.358792
-0.360976
-0.363154
-0.365319
-0.36743
-0.369339
-0.371099
-0.373927
-0.335586
-0.338893
-0.340936
-0.342481
-0.343983
-0.345534
-0.347182
-0.348953
-0.350844
-0.35284
-0.354921
-0.357061
-0.359236
-0.361422
-0.363603
-0.365771
-0.367886
-0.369801
-0.371557
-0.374382
-0.336967
-0.340063
-0.341998
-0.343482
-0.344939
-0.346458
-0.348082
-0.349836
-0.351715
-0.353703
-0.355779
-0.357918
-0.360094
-0.362283
-0.364467
-0.36664
-0.368763
-0.370687
-0.372436
-0.375254
-0.338949
-0.341743
-0.34352
-0.344913
-0.346303
-0.347771
-0.349357
-0.351081
-0.352937
-0.35491
-0.356974
-0.359105
-0.361276
-0.363464
-0.365648
-0.367823
-0.369953
-0.371886
-0.373625
-0.376429
-0.341426
-0.343844
-0.345422
-0.346695
-0.347993
-0.349389
-0.350918
-0.352595
-0.354413
-0.356355
-0.358394
-0.360505
-0.362661
-0.364837
-0.367012
-0.36918
-0.37131
-0.37325
-0.374971
-0.377751
-0.344272
-0.346262
-0.347605
-0.348732
-0.349914
-0.351213
-0.352662
-0.35427
-0.356029
-0.357918
-0.359912
-0.361984
-0.364106
-0.366253
-0.368403
-0.370549
-0.372666
-0.374602
-0.376298
-0.379044
-0.347354
-0.348886
-0.349971
-0.350927
-0.351966
-0.353143
-0.354483
-0.355994
-0.357664
-0.359474
-0.361396
-0.363402
-0.365465
-0.367558
-0.369659
-0.371763
-0.373847
-0.375765
-0.377426
-0.380126
-0.35054
-0.351611
-0.352423
-0.353187
-0.354058
-0.355082
-0.356282
-0.357662
-0.359211
-0.360906
-0.362722
-0.364629
-0.366601
-0.368609
-0.370633
-0.372666
-0.374693
-0.376573
-0.378187
-0.380834
-0.353713
-0.354342
-0.354877
-0.355433
-0.35611
-0.356951
-0.357976
-0.359189
-0.360577
-0.36212
-0.363791
-0.365561
-0.367404
-0.369293
-0.371205
-0.373136
-0.375076
-0.376894
-0.378447
-0.381036
-0.356775
-0.357003
-0.357268
-0.357603
-0.358064
-0.358692
-0.359507
-0.360514
-0.361701
-0.36305
-0.364535
-0.36613
-0.367805
-0.369536
-0.3713
-0.373094
-0.374913
-0.376639
-0.378114
-0.380643
-0.359658
-0.359542
-0.359552
-0.359658
-0.359885
-0.360271
-0.360843
-0.361606
-0.362553
-0.363669
-0.36493
-0.366309
-0.36778
-0.369316
-0.370896
-0.372516
-0.374178
-0.375777
-0.377145
-0.37961
-0.362323
-0.361931
-0.361709
-0.361584
-0.36156
-0.361681
-0.361979
-0.362466
-0.36314
-0.363988
-0.364991
-0.366122
-0.367356
-0.368665
-0.370027
-0.371438
-0.372903
-0.37433
-0.375546
-0.377925
-0.364763
-0.364168
-0.36374
-0.363385
-0.3631
-0.362939
-0.36294
-0.363125
-0.363498
-0.364054
-0.364774
-0.365634
-0.366608
-0.367665
-0.368782
-0.36995
-0.371175
-0.37237
-0.373356
-0.375588
-0.367006
-0.366278
-0.36567
-0.365089
-0.364537
-0.36408
-0.363769
-0.363636
-0.363694
-0.363942
-0.364367
-0.364945
-0.365646
-0.366439
-0.367292
-0.368185
-0.369121
-0.370007
-0.370642
-0.37259
-0.369106
-0.368305
-0.36754
-0.366737
-0.365917
-0.365159
-0.36453
-0.364072
-0.363809
-0.363747
-0.363876
-0.364172
-0.364603
-0.365128
-0.365704
-0.366296
-0.366889
-0.367369
-0.367478
-0.368907
-0.371145
-0.370315
-0.369409
-0.368388
-0.3673
-0.366242
-0.365296
-0.364517
-0.363939
-0.363575
-0.363417
-0.363442
-0.36361
-0.363872
-0.364166
-0.364431
-0.364622
-0.364589
-0.363966
-0.364532
-0.373224
-0.372387
-0.371348
-0.370111
-0.368758
-0.367405
-0.366149
-0.36506
-0.36418
-0.363529
-0.3631
-0.362869
-0.362788
-0.362793
-0.362799
-0.362711
-0.362443
-0.361796
-0.360254
-0.359546
-0.375458
-0.374614
-0.373437
-0.371982
-0.370367
-0.368728
-0.367176
-0.365792
-0.364629
-0.363708
-0.363027
-0.362554
-0.362235
-0.361986
-0.361694
-0.361222
-0.360426
-0.359051
-0.356401
-0.353957
-0.377967
-0.377091
-0.37576
-0.374082
-0.372208
-0.370291
-0.368457
-0.366798
-0.36537
-0.3642
-0.363284
-0.362585
-0.36204
-0.361549
-0.360975
-0.36013
-0.35879
-0.356576
-0.352509
-0.347694
-0.380869
-0.379913
-0.378402
-0.37649
-0.374355
-0.37217
-0.370069
-0.368151
-0.366477
-0.365074
-0.363936
-0.363026
-0.362278
-0.361593
-0.360838
-0.359835
-0.358349
-0.355903
-0.351205
-0.344981
-0.384272
-0.383167
-0.38144
-0.379277
-0.376879
-0.37443
-0.372074
-0.369911
-0.368003
-0.366376
-0.365021
-0.363903
-0.362959
-0.362112
-0.361271
-0.36036
-0.359335
-0.358189
-0.357252
-0.360848
-0.388266
-0.386931
-0.384944
-0.382508
-0.379836
-0.377124
-0.374518
-0.372116
-0.369979
-0.368125
-0.366544
-0.365195
-0.364023
-0.362962
-0.361951
-0.360959
-0.360007
-0.359199
-0.358866
-0.361464
-0.392926
-0.391269
-0.38897
-0.386234
-0.383274
-0.380293
-0.377434
-0.374793
-0.372419
-0.370323
-0.368486
-0.366865
-0.365402
-0.364038
-0.362727
-0.361449
-0.360229
-0.359146
-0.358366
-0.358887
-0.398304
-0.396231
-0.393566
-0.390497
-0.387229
-0.383965
-0.380845
-0.377952
-0.37532
-0.37295
-0.37081
-0.368848
-0.367003
-0.365218
-0.363448
-0.361672
-0.359896
-0.358148
-0.356508
-0.355223
-0.404438
-0.401858
-0.398769
-0.395334
-0.391733
-0.388168
-0.384768
-0.381596
-0.378672
-0.375974
-0.373457
-0.371061
-0.36872
-0.366378
-0.363994
-0.361543
-0.359023
-0.356435
-0.353829
-0.351096
-0.411355
-0.408178
-0.404613
-0.400776
-0.396816
-0.392925
-0.389215
-0.385725
-0.382449
-0.379346
-0.376355
-0.373407
-0.37044
-0.367403
-0.364265
-0.361012
-0.357644
-0.354169
-0.350633
-0.346836
-0.41907
-0.415217
-0.411126
-0.406855
-0.402506
-0.398257
-0.394194
-0.390326
-0.386616
-0.383003
-0.379414
-0.37578
-0.372049
-0.368186
-0.36418
-0.36004
-0.355782
-0.351432
-0.347036
-0.342419
-0.427592
-0.422991
-0.418333
-0.413598
-0.408829
-0.404181
-0.399705
-0.395373
-0.391118
-0.386862
-0.382529
-0.378063
-0.373431
-0.368628
-0.363673
-0.358598
-0.353444
-0.348254
-0.343077
-0.337797
-0.43692
-0.431509
-0.42625
-0.421026
-0.415801
-0.410698
-0.405725
-0.400813
-0.395873
-0.390816
-0.38558
-0.380133
-0.374479
-0.368648
-0.362689
-0.356662
-0.350626
-0.344638
-0.338742
-0.332875
-0.447039
-0.440769
-0.434883
-0.429145
-0.42342
-0.417786
-0.412203
-0.406566
-0.40077
-0.394738
-0.388435
-0.381873
-0.375096
-0.368174
-0.361187
-0.354214
-0.347325
-0.34058
-0.334014
-0.327597
-0.457914
-0.450747
-0.444218
-0.43794
-0.431656
-0.425389
-0.419052
-0.412514
-0.405672
-0.398483
-0.390961
-0.383167
-0.375196
-0.367153
-0.359139
-0.351244
-0.343538
-0.336076
-0.328879
-0.321929
-0.469486
-0.461399
-0.454216
-0.447363
-0.440442
-0.43341
-0.426144
-0.418503
-0.410417
-0.401897
-0.393022
-0.383913
-0.374708
-0.36554
-0.356522
-0.347742
-0.339263
-0.331124
-0.323329
-0.315863
-0.481664
-0.472648
-0.464803
-0.457331
-0.449668
-0.441709
-0.433309
-0.424351
-0.414825
-0.404821
-0.394492
-0.384018
-0.373572
-0.363301
-0.353319
-0.343701
-0.334494
-0.325721
-0.317361
-0.309401
-0.494318
-0.484381
-0.475867
-0.467714
-0.459176
-0.450098
-0.440342
-0.429852
-0.418709
-0.407099
-0.395253
-0.383399
-0.371732
-0.360401
-0.349507
-0.339105
-0.329222
-0.319858
-0.310969
-0.302545
-0.50728
-0.496448
-0.487255
-0.478338
-0.468764
-0.45835
-0.447009
-0.434785
-0.42188
-0.408583
-0.395195
-0.381979
-0.369138
-0.356805
-0.34506
-0.333934
-0.323427
-0.313521
-0.304141
-0.295293
-0.52034
-0.508653
-0.498766
-0.488979
-0.478182
-0.466203
-0.453055
-0.438926
-0.424155
-0.409133
-0.394217
-0.379688
-0.365736
-0.352473
-0.339945
-0.328156
-0.317084
-0.306684
-0.296857
-0.287632
-0.533245
-0.520759
-0.510154
-0.499368
-0.487142
-0.473369
-0.458218
-0.442053
-0.425359
-0.408618
-0.392224
-0.376453
-0.361472
-0.347356
-0.33412
-0.321735
-0.310155
-0.299316
-0.289089
-0.279541
-0.545705
-0.53249
-0.52113
-0.509197
-0.495328
-0.479547
-0.462234
-0.443952
-0.425329
-0.406917
-0.389125
-0.372205
-0.356286
-0.341405
-0.327536
-0.314625
-0.302601
-0.291378
-0.280803
-0.270991
-0.557395
-0.543528
-0.531368
-0.518126
-0.502405
-0.484434
-0.464848
-0.444424
-0.423915
-0.403919
-0.384833
-0.366872
-0.350117
-0.33456
-0.320141
-0.306776
-0.294375
-0.282828
-0.271961
-0.261946
-0.567962
-0.55353
-0.540513
-0.525795
-0.508033
-0.487733
-0.465823
-0.443287
-0.420981
-0.399518
-0.379263
-0.36038
-0.342898
-0.326763
-0.311879
-0.298137
-0.285428
-0.273622
-0.262522
-0.25237
-0.577033
-0.562128
-0.548189
-0.531835
-0.511876
-0.489164
-0.464939
-0.440376
-0.416401
-0.393616
-0.372335
-0.35266
-0.334565
-0.317952
-0.302694
-0.288656
-0.275713
-0.263714
-0.252444
-0.242225
-0.584226
-0.568939
-0.554015
-0.535881
-0.513615
-0.48847
-0.462002
-0.435546
-0.410066
-0.386125
-0.363971
-0.343642
-0.325055
-0.308071
-0.292532
-0.278283
-0.265184
-0.253062
-0.24169
-0.231474
-0.589159
-0.573582
-0.557612
-0.537585
-0.512958
-0.485425
-0.456842
-0.428672
-0.401877
-0.376963
-0.354102
-0.333262
-0.314309
-0.297064
-0.281343
-0.266973
-0.253799
-0.24163
-0.230226
-0.220085
-0.591462
-0.575687
-0.558619
-0.536628
-0.509647
-0.479835
-0.449318
-0.419647
-0.391752
-0.366062
-0.342665
-0.321464
-0.302275
-0.284885
-0.269084
-0.254686
-0.241524
-0.229384
-0.218023
-0.208033
-0.590787
-0.574903
-0.556707
-0.532724
-0.503461
-0.471539
-0.439318
-0.408388
-0.379623
-0.35336
-0.329606
-0.308199
-0.288908
-0.271491
-0.255719
-0.241391
-0.22833
-0.2163
-0.205061
-0.195299
-0.58682
-0.570916
-0.551581
-0.525635
-0.494225
-0.460418
-0.426756
-0.394832
-0.365438
-0.338814
-0.314884
-0.293427
-0.274173
-0.256853
-0.241221
-0.227065
-0.214196
-0.202362
-0.191327
-0.18187
-0.579287
-0.563449
-0.542997
-0.515171
-0.481808
-0.446385
-0.411575
-0.378937
-0.349162
-0.322391
-0.29847
-0.277123
-0.258046
-0.240949
-0.225571
-0.211691
-0.199112
-0.187563
-0.176816
-0.167744
-0.567966
-0.552282
-0.530765
-0.501196
-0.466126
-0.429393
-0.393749
-0.360684
-0.330779
-0.304075
-0.280347
-0.259271
-0.240515
-0.223769
-0.208761
-0.195266
-0.183076
-0.171902
-0.161533
-0.152924
-0.552688
-0.537246
-0.514752
-0.483629
-0.447141
-0.409431
-0.373278
-0.340076
-0.310291
-0.283867
-0.260514
-0.23987
-0.221577
-0.205312
-0.190795
-0.177794
-0.166094
-0.155392
-0.145492
-0.137424
-0.533348
-0.518239
-0.494887
-0.462443
-0.424863
-0.386527
-0.350192
-0.317141
-0.287719
-0.261782
-0.238984
-0.218929
-0.201242
-0.185588
-0.171682
-0.159289
-0.148183
-0.138053
-0.128719
-0.121271
-0.509902
-0.495219
-0.471162
-0.437669
-0.399344
-0.360741
-0.324551
-0.291929
-0.263106
-0.237856
-0.215786
-0.196474
-0.179532
-0.164617
-0.151442
-0.139769
-0.129368
-0.119914
-0.111249
-0.104511
-0.482373
-0.468212
-0.44363
-0.409388
-0.370683
-0.332168
-0.29644
-0.264515
-0.236512
-0.212139
-0.190961
-0.172539
-0.156475
-0.142425
-0.130099
-0.11926
-0.109671
-0.101005
-0.0931226
-0.0871881
-0.450847
-0.437307
-0.412404
-0.377733
-0.339015
-0.30094
-0.265974
-0.234996
-0.208023
-0.184701
-0.164567
-0.147171
-0.132111
-0.119043
-0.107679
-0.0977831
-0.0891162
-0.0813529
-0.0743724
-0.0693268
-0.415473
-0.402654
-0.377652
-0.342886
-0.304518
-0.267216
-0.233296
-0.203495
-0.177741
-0.155628
-0.136677
-0.120428
-0.106484
-0.0945051
-0.0842086
-0.0753607
-0.0677249
-0.060984
-0.0550221
-0.0509146
-0.376461
-0.364464
-0.339596
-0.305071
-0.267407
-0.231193
-0.198576
-0.170162
-0.145794
-0.12503
-0.107376
-0.0923784
-0.0796444
-0.068845
-0.0597072
-0.0520045
-0.0455083
-0.0399127
-0.0350804
-0.0319488
-0.334077
-0.323001
-0.298507
-0.264553
-0.227928
-0.193092
-0.162014
-0.135171
-0.112334
-0.093035
-0.076775
-0.0631075
-0.0516542
-0.0421016
-0.0341931
-0.0277158
-0.0224545
-0.0181215
-0.0145556
-0.0125697
-0.288635
-0.278578
-0.254696
-0.221634
-0.186361
-0.153167
-0.123836
-0.0987222
-0.077539
-0.059797
-0.0450012
-0.0327185
-0.0225901
-0.0143267
-0.0076963
-0.00250277
0.00145106
0.00439378
0.0064189
0.00679259
-0.240495
-0.231547
-0.208513
-0.176647
-0.143014
-0.111698
-0.0842944
-0.0610453
-0.0416125
-0.0254939
-0.0122024
-0.00132323
0.00747575
0.0144488
0.0197917
0.0236787
0.0262631
0.0275871
0.0275053
0.0256735
-0.190053
-0.182301
-0.160339
-0.129951
-0.0982186
-0.0689896
-0.0436706
-0.0223989
-0.00479229
0.00966107
0.0214413
0.030947
0.038485
0.0442725
0.0484668
0.0512096
0.0525326
0.0520601
0.049284
0.0452184
-0.137736
-0.131257
-0.110578
-0.0819268
-0.0523267
-0.0253674
-0.002269
0.0169273
0.0326423
0.0453973
0.0556706
0.0638573
0.0702596
0.0750928
0.0785272
0.0807223
0.0815748
0.0801917
0.0758414
0.0714413
-0.0839949
-0.0788549
-0.0596511
-0.0329675
-0.00570246
0.0188298
0.0395898
0.0566229
0.0703812
0.0813919
0.0901327
0.0970008
0.102312
0.106322
0.109287
0.111496
0.112913
0.112503
0.110006
0.114056
-0.0292868
-0.0255446
-0.00798817
0.0165263
0.0412843
0.0632584
0.0815815
0.0963749
0.108114
0.117324
0.124476
0.129958
0.134085
0.137122
0.139344
0.141022
0.142136
0.142191
0.142128
0.148386
0.0259153
0.0282138
0.043975
0.0661515
0.0882638
0.107577
0.123386
0.135878
0.145545
0.152905
0.158418
0.162459
0.165338
0.167318
0.168658
0.169586
0.170077
0.169824
0.169781
0.174862
0.0811383
0.0819606
0.0958053
0.11551
0.134872
0.15145
0.164692
0.17484
0.182393
0.187859
0.191677
0.194209
0.195748
0.196544
0.196834
0.196823
0.196501
0.195634
0.195003
0.198505
0.135913
0.135241
0.147076
0.164212
0.180756
0.194557
0.205205
0.212988
0.218407
0.221952
0.224043
0.22502
0.225156
0.22468
0.223805
0.222703
0.221352
0.219547
0.218007
0.220045
0.18978
0.187608
0.197372
0.211879
0.225573
0.236588
0.244644
0.250066
0.253351
0.254971
0.255323
0.254722
0.253422
0.25163
0.249534
0.247279
0.244828
0.242
0.239474
0.240111
0.242291
0.238631
0.246291
0.258148
0.268998
0.27725
0.282743
0.285833
0.28701
0.286725
0.285348
0.283173
0.280432
0.27731
0.273974
0.270542
0.266969
0.2631
0.259588
0.258903
0.293017
0.287894
0.293449
0.302671
0.310718
0.316262
0.319251
0.320066
0.319185
0.317035
0.313965
0.310245
0.306085
0.301652
0.297091
0.2925
0.287828
0.282949
0.278477
0.276537
0.341544
0.335
0.33848
0.34512
0.350439
0.353362
0.353933
0.352553
0.349685
0.345736
0.34103
0.335816
0.330282
0.324578
0.318832
0.313122
0.307397
0.301555
0.296166
0.29304
0.387485
0.379576
0.381039
0.385183
0.387884
0.388302
0.386567
0.383094
0.378334
0.37267
0.366405
0.359765
0.352921
0.346007
0.339132
0.33236
0.325643
0.318901
0.312643
0.308398
0.430474
0.421272
0.420805
0.422572
0.422795
0.420848
0.416943
0.411502
0.404963
0.397688
0.389956
0.381976
0.373902
0.365851
0.357918
0.350154
0.342516
0.334939
0.327869
0.322576
0.470173
0.459762
0.457479
0.457019
0.45493
0.450788
0.444868
0.437604
0.429416
0.420648
0.411558
0.402338
0.393125
0.384023
0.375112
0.366436
0.357953
0.349612
0.341792
0.335529
0.506272
0.49475
0.490788
0.488278
0.484071
0.477921
0.470164
0.461237
0.451547
0.441418
0.431091
0.420741
0.410492
0.400434
0.390636
0.381132
0.371886
0.362857
0.354353
0.347202
0.53849
0.525968
0.520487
0.516128
0.510019
0.50207
0.492668
0.482254
0.471221
0.459876
0.448444
0.437085
0.425911
0.415001
0.404412
0.394172
0.38425
0.37461
0.365493
0.357546
0.566578
0.553177
0.546356
0.540373
0.532596
0.523074
0.512236
0.500523
0.488318
0.475913
0.463517
0.451278
0.439297
0.427645
0.416368
0.405487
0.394979
0.38481
0.375156
0.366512
0.59032
0.576172
0.568208
0.560842
0.55165
0.540795
0.528741
0.515929
0.502733
0.48943
0.476219
0.463237
0.450575
0.438295
0.426437
0.415017
0.404015
0.393401
0.383292
0.374053
0.609535
0.594778
0.585883
0.577391
0.56705
0.555114
0.542075
0.528374
0.514375
0.500346
0.486475
0.472891
0.459679
0.446892
0.434564
0.422708
0.411308
0.400334
0.389855
0.380134
0.624074
0.608855
0.599251
0.589905
0.578692
0.565938
0.552152
0.537778
0.523171
0.508593
0.494222
0.480183
0.466554
0.453384
0.4407
0.428515
0.416815
0.405569
0.394809
0.384721
0.633828
0.618298
0.608216
0.598295
0.586497
0.573192
0.558906
0.54408
0.529066
0.514118
0.499413
0.485069
0.47116
0.457732
0.444811
0.432405
0.420503
0.409076
0.398127
0.387792
0.638721
0.623035
0.612713
0.602503
0.59041
0.57683
0.562293
0.54724
0.532021
0.516888
0.502015
0.487518
0.473469
0.459912
0.446871
0.434355
0.422352
0.410833
0.399789
0.38933
0.638717
0.623031
0.612709
0.602499
0.590407
0.576827
0.562289
0.547237
0.532018
0.516886
0.502013
0.487515
0.473466
0.45991
0.446869
0.434352
0.42235
0.410831
0.399787
0.389328
0.633815
0.618286
0.608204
0.598284
0.586486
0.573182
0.558897
0.544071
0.529057
0.51411
0.499405
0.485061
0.471152
0.457725
0.444804
0.432398
0.420497
0.409069
0.39812
0.387786
0.624054
0.608835
0.599231
0.589886
0.578675
0.565921
0.552136
0.537763
0.523157
0.508579
0.494209
0.48017
0.466542
0.453371
0.440689
0.428504
0.416804
0.405558
0.394799
0.384711
0.609506
0.594749
0.585855
0.577365
0.567026
0.555091
0.542053
0.528353
0.514355
0.500327
0.486456
0.472873
0.459661
0.446875
0.434547
0.422692
0.411292
0.400319
0.38984
0.38012
0.590283
0.576135
0.568173
0.560809
0.551618
0.540765
0.528712
0.515902
0.502707
0.489405
0.476195
0.463213
0.450553
0.438274
0.426416
0.414997
0.403995
0.393381
0.383273
0.374035
0.566532
0.553132
0.546313
0.540332
0.532558
0.523038
0.512201
0.50049
0.488287
0.475882
0.463487
0.451249
0.43927
0.427618
0.416342
0.405462
0.394955
0.384786
0.375133
0.366489
0.538436
0.525915
0.520436
0.51608
0.509973
0.502027
0.492627
0.482215
0.471183
0.45984
0.448409
0.437052
0.425879
0.41497
0.404382
0.394142
0.384221
0.374582
0.365466
0.35752
0.50621
0.494689
0.490729
0.488222
0.484018
0.477871
0.470116
0.461191
0.451503
0.441376
0.431051
0.420702
0.410455
0.400398
0.390601
0.381098
0.371853
0.362825
0.354321
0.347172
0.470103
0.459693
0.457412
0.456956
0.45487
0.450731
0.444814
0.437552
0.429367
0.420601
0.411513
0.402294
0.393083
0.383982
0.375073
0.366397
0.357915
0.349576
0.341756
0.335494
0.430395
0.421194
0.42073
0.422502
0.422728
0.420785
0.416883
0.411445
0.404908
0.397635
0.389906
0.381927
0.373855
0.365806
0.357874
0.350112
0.342474
0.334898
0.32783
0.322538
0.387398
0.379491
0.380957
0.385105
0.38781
0.388232
0.3865
0.38303
0.378273
0.372612
0.366349
0.359711
0.352869
0.345957
0.339083
0.332313
0.325597
0.318856
0.3126
0.308356
0.341449
0.334906
0.33839
0.345034
0.350358
0.353285
0.35386
0.352483
0.349618
0.345672
0.340969
0.335756
0.330225
0.324523
0.318778
0.31307
0.307346
0.301507
0.296118
0.292994
0.292913
0.287792
0.293351
0.302578
0.31063
0.316179
0.319172
0.319991
0.319112
0.316966
0.313898
0.310181
0.306023
0.301592
0.297033
0.292444
0.287774
0.282896
0.278425
0.276488
0.242179
0.238521
0.246185
0.258047
0.268902
0.277159
0.282657
0.285752
0.286932
0.28665
0.285275
0.283104
0.280365
0.277245
0.273911
0.270482
0.26691
0.263043
0.259532
0.258849
0.18966
0.18749
0.197258
0.211771
0.225471
0.236491
0.244551
0.249978
0.253267
0.254891
0.255245
0.254647
0.25335
0.25156
0.249467
0.247214
0.244765
0.241938
0.239415
0.240053
0.135785
0.135114
0.146954
0.164096
0.180646
0.194453
0.205106
0.212894
0.218317
0.221866
0.22396
0.224941
0.225079
0.224606
0.223733
0.222633
0.221284
0.219481
0.217943
0.219983
0.0810015
0.0818259
0.0956755
0.115387
0.134756
0.15134
0.164587
0.17474
0.182297
0.187767
0.191589
0.194124
0.195666
0.196464
0.196758
0.196749
0.196429
0.195564
0.194935
0.198439
0.0257704
0.028071
0.0438374
0.0660207
0.0881399
0.107459
0.123274
0.135772
0.145443
0.152808
0.158324
0.162369
0.165251
0.167234
0.168576
0.169507
0.170001
0.16975
0.169708
0.174792
-0.0294399
-0.0256954
-0.00813361
0.0163879
0.0411532
0.0631341
0.0814634
0.0962623
0.108006
0.117221
0.124377
0.129863
0.133993
0.137033
0.139257
0.140938
0.142055
0.142111
0.142051
0.148311
-0.084156
-0.0790137
-0.0598044
-0.0331133
-0.00584065
0.0186988
0.0394653
0.0565042
0.0702677
0.0812831
0.0900281
0.0969
0.102215
0.106228
0.109195
0.111407
0.112827
0.112419
0.109923
0.113976
-0.137905
-0.131423
-0.110739
-0.08208
-0.052472
-0.0255051
-0.00239988
0.0168025
0.0325231
0.0452829
0.0555606
0.0637512
0.0701571
0.0749935
0.0784308
0.0806286
0.0814833
0.0801022
0.0757532
0.0713539
-0.190229
-0.182475
-0.160508
-0.130112
-0.0983709
-0.069134
-0.0438078
-0.0225297
-0.00491734
0.00954113
0.0213259
0.0308358
0.0383774
0.0441682
0.0483655
0.051111
0.0524363
0.0519658
0.049191
0.0451262
-0.240679
-0.23173
-0.20869
-0.176815
-0.143173
-0.111849
-0.0844379
-0.061182
-0.0417432
-0.0256193
-0.012323
-0.00143953
0.00736331
0.0143398
0.0196859
0.0235756
0.0261624
0.0274886
0.0274086
0.025578
-0.288827
-0.278767
-0.25488
-0.221809
-0.186527
-0.153324
-0.123985
-0.0988648
-0.0776754
-0.0599277
-0.0451269
-0.0328397
-0.0227073
-0.0144402
-0.00780651
-0.00261004
0.00134645
0.0042916
0.00631886
0.00669411
-0.334277
-0.323199
-0.298698
-0.264735
-0.228101
-0.193256
-0.16217
-0.135319
-0.112476
-0.0931709
-0.0769057
-0.0632335
-0.0517759
-0.0422194
-0.0343075
-0.027827
-0.0225628
-0.0182271
-0.0146589
-0.0126712
-0.376668
-0.364669
-0.339794
-0.30526
-0.267586
-0.231363
-0.198738
-0.170316
-0.145941
-0.125171
-0.107512
-0.0925089
-0.0797705
-0.068967
-0.0598255
-0.0521195
-0.0456201
-0.0400218
-0.0351868
-0.0320532
-0.415687
-0.402866
-0.377857
-0.343082
-0.304704
-0.267393
-0.233463
-0.203655
-0.177893
-0.155774
-0.136817
-0.120563
-0.106614
-0.094631
-0.0843307
-0.0754792
-0.0678402
-0.0610962
-0.0551316
-0.0510219
-0.451067
-0.437525
-0.412615
-0.377936
-0.339207
-0.301122
-0.266147
-0.23516
-0.20818
-0.184851
-0.164712
-0.147311
-0.132246
-0.119173
-0.107805
-0.097905
-0.0892347
-0.0814682
-0.0744847
-0.0694368
-0.4826
-0.468437
-0.443848
-0.409596
-0.370881
-0.332356
-0.296618
-0.264684
-0.236675
-0.212294
-0.19111
-0.172683
-0.156614
-0.142559
-0.130228
-0.119385
-0.109792
-0.101123
-0.0932378
-0.0873006
-0.510135
-0.49545
-0.471386
-0.437883
-0.399549
-0.360934
-0.324735
-0.292104
-0.263272
-0.238015
-0.215939
-0.196622
-0.179674
-0.164754
-0.151575
-0.139898
-0.129492
-0.120035
-0.111367
-0.104626
-0.533586
-0.518475
-0.495117
-0.462663
-0.425072
-0.386726
-0.350381
-0.317321
-0.28789
-0.261946
-0.239141
-0.219081
-0.201388
-0.185729
-0.171818
-0.15942
-0.148311
-0.138177
-0.128839
-0.121389
-0.552931
-0.537488
-0.514987
-0.483855
-0.447356
-0.409635
-0.373471
-0.34026
-0.310466
-0.284035
-0.260675
-0.240024
-0.221726
-0.205455
-0.190934
-0.177929
-0.166224
-0.155518
-0.145615
-0.137543
-0.568213
-0.552528
-0.531005
-0.501427
-0.466346
-0.429601
-0.393947
-0.360872
-0.330959
-0.304247
-0.280511
-0.259429
-0.240667
-0.223915
-0.208903
-0.195403
-0.183208
-0.172031
-0.161658
-0.153046
-0.579539
-0.563699
-0.543242
-0.515407
-0.482032
-0.446598
-0.411777
-0.379129
-0.349346
-0.322567
-0.298638
-0.277284
-0.258202
-0.241099
-0.225715
-0.211831
-0.199248
-0.187694
-0.176944
-0.167868
-0.587075
-0.571169
-0.551829
-0.525875
-0.494454
-0.460635
-0.426962
-0.395029
-0.365626
-0.338993
-0.315056
-0.293592
-0.274331
-0.257006
-0.241368
-0.227207
-0.214334
-0.202496
-0.191456
-0.181996
-0.591045
-0.57516
-0.556958
-0.532967
-0.503694
-0.471761
-0.439528
-0.408589
-0.379814
-0.353543
-0.329781
-0.308366
-0.289069
-0.271646
-0.255869
-0.241536
-0.22847
-0.216436
-0.205192
-0.195426
-0.591722
-0.575945
-0.558873
-0.536874
-0.509883
-0.48006
-0.449532
-0.419851
-0.391946
-0.366247
-0.342842
-0.321634
-0.302438
-0.285042
-0.269236
-0.254833
-0.241666
-0.229521
-0.218156
-0.208162
-0.58942
-0.573842
-0.557867
-0.537834
-0.513197
-0.485653
-0.457059
-0.428878
-0.402074
-0.377152
-0.354282
-0.333435
-0.314475
-0.297224
-0.281497
-0.267122
-0.253943
-0.241769
-0.230361
-0.220216
-0.584488
-0.569199
-0.554271
-0.536131
-0.513856
-0.488701
-0.462221
-0.435756
-0.410266
-0.386316
-0.364154
-0.343817
-0.325223
-0.308233
-0.292688
-0.278434
-0.26533
-0.253203
-0.241827
-0.231606
-0.577295
-0.562388
-0.548446
-0.532085
-0.512118
-0.489396
-0.465161
-0.440588
-0.416603
-0.39381
-0.37252
-0.352837
-0.334735
-0.318116
-0.302852
-0.288809
-0.27586
-0.263856
-0.252582
-0.242359
-0.568222
-0.553789
-0.540769
-0.526045
-0.508276
-0.487967
-0.466047
-0.443501
-0.421185
-0.399713
-0.37945
-0.36056
-0.34307
-0.326929
-0.312039
-0.298292
-0.285577
-0.273766
-0.262661
-0.252505
-0.557654
-0.543786
-0.531623
-0.518376
-0.502649
-0.484669
-0.465074
-0.44464
-0.424122
-0.404117
-0.385022
-0.367053
-0.350291
-0.334728
-0.320303
-0.306932
-0.294525
-0.282974
-0.272102
-0.262082
-0.545962
-0.532745
-0.521383
-0.509446
-0.495571
-0.479782
-0.46246
-0.444169
-0.425537
-0.407117
-0.389316
-0.372389
-0.356463
-0.341574
-0.3277
-0.314782
-0.302753
-0.291525
-0.280945
-0.271128
-0.5335
-0.521012
-0.510404
-0.499615
-0.487384
-0.473604
-0.458445
-0.442271
-0.425568
-0.408819
-0.392417
-0.376639
-0.36165
-0.347528
-0.334285
-0.321894
-0.310309
-0.299464
-0.289232
-0.279679
-0.520591
-0.508902
-0.499013
-0.489223
-0.478422
-0.466437
-0.453282
-0.439145
-0.424366
-0.409335
-0.394412
-0.379875
-0.365916
-0.352646
-0.340112
-0.328317
-0.317238
-0.306833
-0.297001
-0.287771
-0.507528
-0.496694
-0.487499
-0.478579
-0.469002
-0.458583
-0.447235
-0.435004
-0.422092
-0.408787
-0.395391
-0.382168
-0.369319
-0.35698
-0.345228
-0.334096
-0.323584
-0.313671
-0.304286
-0.295433
-0.494562
-0.484623
-0.476107
-0.467952
-0.459411
-0.450329
-0.440567
-0.43007
-0.418921
-0.407304
-0.39545
-0.383589
-0.371915
-0.360578
-0.349677
-0.339269
-0.32938
-0.320011
-0.311115
-0.302686
-0.481904
-0.472886
-0.465038
-0.457565
-0.449899
-0.441937
-0.433532
-0.424569
-0.415037
-0.405026
-0.394691
-0.38421
-0.373757
-0.363479
-0.35349
-0.343867
-0.334654
-0.325875
-0.317509
-0.309543
-0.469722
-0.461633
-0.454447
-0.447593
-0.440669
-0.433635
-0.426365
-0.418719
-0.410628
-0.402103
-0.393221
-0.384106
-0.374895
-0.36572
-0.356696
-0.34791
-0.339424
-0.33128
-0.323479
-0.316007
-0.458145
-0.450976
-0.444446
-0.438165
-0.43188
-0.42561
-0.41927
-0.412728
-0.405883
-0.398689
-0.391161
-0.383361
-0.375384
-0.367335
-0.359315
-0.351414
-0.343702
-0.336234
-0.329031
-0.322075
-0.447266
-0.440994
-0.435106
-0.429366
-0.42364
-0.418003
-0.412418
-0.406779
-0.400979
-0.394943
-0.388636
-0.382068
-0.375286
-0.368359
-0.361366
-0.354387
-0.347492
-0.34074
-0.334169
-0.327745
-0.437143
-0.43173
-0.426469
-0.421243
-0.416017
-0.410912
-0.405937
-0.401023
-0.39608
-0.39102
-0.38578
-0.38033
-0.374671
-0.368835
-0.362871
-0.356838
-0.350796
-0.344802
-0.3389
-0.333026
-0.427811
-0.423208
-0.418548
-0.413811
-0.40904
-0.404391
-0.399913
-0.395579
-0.391323
-0.387065
-0.38273
-0.37826
-0.373625
-0.368819
-0.363859
-0.358778
-0.353618
-0.348422
-0.343238
-0.337951
-0.419285
-0.41543
-0.411338
-0.407065
-0.402713
-0.398463
-0.394399
-0.39053
-0.386819
-0.383205
-0.379614
-0.375979
-0.372245
-0.368379
-0.36437
-0.360224
-0.355961
-0.351604
-0.347202
-0.342577
-0.411566
-0.408388
-0.404821
-0.400982
-0.39702
-0.393128
-0.389416
-0.385926
-0.382649
-0.379546
-0.376555
-0.373607
-0.370638
-0.367599
-0.364458
-0.361201
-0.357829
-0.354347
-0.350803
-0.346999
-0.404647
-0.402065
-0.398974
-0.395536
-0.391934
-0.388368
-0.384966
-0.381794
-0.37887
-0.376172
-0.373657
-0.371261
-0.36892
-0.366578
-0.364191
-0.361738
-0.359214
-0.356619
-0.354006
-0.351264
-0.39851
-0.396436
-0.393768
-0.390697
-0.387427
-0.384162
-0.381041
-0.378147
-0.375516
-0.373148
-0.371009
-0.369048
-0.367205
-0.365421
-0.363651
-0.361873
-0.360094
-0.35834
-0.356693
-0.355398
-0.39313
-0.391471
-0.38917
-0.386431
-0.38347
-0.380487
-0.377627
-0.374986
-0.372613
-0.370519
-0.368685
-0.367067
-0.365606
-0.364245
-0.362935
-0.361657
-0.360435
-0.359347
-0.358561
-0.35907
-0.38847
-0.387132
-0.385142
-0.382704
-0.38003
-0.377317
-0.374709
-0.372308
-0.370172
-0.368321
-0.366743
-0.365398
-0.36423
-0.363172
-0.362165
-0.361174
-0.360222
-0.359412
-0.359073
-0.361659
-0.384474
-0.383367
-0.381638
-0.379472
-0.377072
-0.374621
-0.372264
-0.370102
-0.368196
-0.366572
-0.365221
-0.364107
-0.363169
-0.362326
-0.361491
-0.360583
-0.359561
-0.358415
-0.357474
-0.361058
-0.381071
-0.380112
-0.378599
-0.376683
-0.374547
-0.37236
-0.370259
-0.368342
-0.36667
-0.365271
-0.364137
-0.363233
-0.362491
-0.361812
-0.361063
-0.360066
-0.358586
-0.356144
-0.35145
-0.345229
-0.378169
-0.37729
-0.375956
-0.374275
-0.372399
-0.370481
-0.368647
-0.366989
-0.365564
-0.364398
-0.363486
-0.362794
-0.362256
-0.361773
-0.361206
-0.360369
-0.359036
-0.356828
-0.352768
-0.347957
-0.37566
-0.374812
-0.373632
-0.372175
-0.370558
-0.368918
-0.367365
-0.365983
-0.364823
-0.363908
-0.363232
-0.362766
-0.362454
-0.362213
-0.361931
-0.361467
-0.360679
-0.359312
-0.35667
-0.35423
-0.373426
-0.372585
-0.371542
-0.370303
-0.368948
-0.367595
-0.366339
-0.365252
-0.364376
-0.36373
-0.363307
-0.363083
-0.363011
-0.363025
-0.36304
-0.362962
-0.362703
-0.362065
-0.360531
-0.359828
-0.371347
-0.370511
-0.369602
-0.368579
-0.367489
-0.366431
-0.365485
-0.364709
-0.364136
-0.363777
-0.363626
-0.363658
-0.363836
-0.364108
-0.364411
-0.364686
-0.364887
-0.364864
-0.36425
-0.364822
-0.369306
-0.368499
-0.367731
-0.366926
-0.366104
-0.365347
-0.364719
-0.364264
-0.364006
-0.363951
-0.364086
-0.364391
-0.364831
-0.365366
-0.365952
-0.366555
-0.367158
-0.367649
-0.367767
-0.369203
-0.367204
-0.366469
-0.365858
-0.365275
-0.364722
-0.364266
-0.363957
-0.363827
-0.363891
-0.364145
-0.364577
-0.365164
-0.365875
-0.366679
-0.367542
-0.368446
-0.369393
-0.370289
-0.370934
-0.372891
-0.364958
-0.364356
-0.363925
-0.363568
-0.363282
-0.363122
-0.363125
-0.363314
-0.363694
-0.364256
-0.364984
-0.365853
-0.366836
-0.367904
-0.369032
-0.370211
-0.371447
-0.372652
-0.37365
-0.375889
-0.362513
-0.362114
-0.361889
-0.361762
-0.361738
-0.361861
-0.362161
-0.362652
-0.363332
-0.364188
-0.365198
-0.366339
-0.367582
-0.368901
-0.370275
-0.371696
-0.373173
-0.37461
-0.375837
-0.378225
-0.359842
-0.359719
-0.359726
-0.35983
-0.360057
-0.360445
-0.36102
-0.361787
-0.362741
-0.363864
-0.365133
-0.366521
-0.368002
-0.369548
-0.371139
-0.37277
-0.374443
-0.376053
-0.377432
-0.379904
-0.356951
-0.357172
-0.357434
-0.357767
-0.358229
-0.358859
-0.359677
-0.360689
-0.361882
-0.363239
-0.364732
-0.366335
-0.36802
-0.369761
-0.371536
-0.37334
-0.37517
-0.376907
-0.378393
-0.380929