1.22 	3.45254e-18 	-6.98323e-18 	0.0961011 	0.230193 	-1.45044e-21
1.66 	3.45254e-18 	-6.96118e-18 	-0.0994391 	0.68284 	-1.20555e-22
2.1 	3.45254e-18 	-6.93894e-18 	0.238104 	0.465472 	-1.98417e-21
2.54 	3.45254e-18 	-8.30431e-18 	0.685575 	-0.187901 	-3.50187e-23
2.98 	3.45254e-18 	-8.28171e-18 	0.859726 	-0.535248 	1.88109e-21
3.42 	3.45254e-18 	-6.87115e-18 	0.7822 	-0.660109 	1.16676e-21
3.86 	3.45254e-18 	-6.84819e-18 	0.765735 	-0.580906 	2.14226e-22
4.3 	3.45254e-18 	-6.82504e-18 	0.899983 	-0.17523 	1.24795e-21
4.74 	3.45254e-18 	-5.41391e-18 	1.00077 	0.21844 	-1.17912e-21
5.18 	3.45254e-18 	-2.61482e-18 	1.03255 	0.40637 	-6.22952e-22
5.62 	3.45254e-18 	-1.2033e-18 	0.942465 	0.597127 	2.56401e-22
6.06 	3.45254e-18 	-1.17937e-18 	0.95419 	0.504838 	5.19852e-22
6.5 	3.45254e-18 	-1.15524e-18 	0.9986 	0.233724 	-4.64688e-22
