/*--------------------------------*- C++ -*----------------------------------*\
  =========                 |
  \\      /  F ield         | OpenFOAM: The Open Source CFD Toolbox
   \\    /   O peration     | Website:  https://openfoam.org
    \\  /    A nd           | Version:  6.0
     \\/     M anipulation  |
\*---------------------------------------------------------------------------*/
FoamFile
{
    version     2.0;
    format      ascii;
    class       volScalarField;
    location    "46";
    object      p;
}
// * * * * * * * * * * * * * * * * * * * * * * * * * * * * * * * * * * * * * //

dimensions      [0 2 -2 0 0 0 0];

internalField   nonuniform List<scalar> 
4000
(
-0.435841
-0.422161
-0.410151
-0.397076
-0.381753
-0.364611
-0.346383
-0.327832
-0.309617
-0.292214
-0.2759
-0.260795
-0.246911
-0.234194
-0.222556
-0.211897
-0.20212
-0.193106
-0.184663
-0.177084
-0.443861
-0.429734
-0.416933
-0.40247
-0.385269
-0.36604
-0.345775
-0.325403
-0.305653
-0.287002
-0.26969
-0.253792
-0.239272
-0.226041
-0.213983
-0.202976
-0.192911
-0.183646
-0.174976
-0.167267
-0.450113
-0.435637
-0.421996
-0.406016
-0.386827
-0.36547
-0.343209
-0.321117
-0.299968
-0.280213
-0.262043
-0.245479
-0.23044
-0.2168
-0.204416
-0.193149
-0.182875
-0.173435
-0.164609
-0.156845
-0.45423
-0.439505
-0.424977
-0.407374
-0.386134
-0.362671
-0.33851
-0.314846
-0.292463
-0.271768
-0.252893
-0.235799
-0.220363
-0.206423
-0.193813
-0.182378
-0.17198
-0.162442
-0.153535
-0.14579
-0.455856
-0.440981
-0.425526
-0.40623
-0.382932
-0.357445
-0.331535
-0.306483
-0.283056
-0.261601
-0.242182
-0.224704
-0.208998
-0.194872
-0.18214
-0.170631
-0.160198
-0.150641
-0.141733
-0.134084
-0.454655
-0.439727
-0.423322
-0.402304
-0.377001
-0.349629
-0.322168
-0.295944
-0.271683
-0.249659
-0.229865
-0.212151
-0.196306
-0.182114
-0.169366
-0.157884
-0.147506
-0.138016
-0.129185
-0.121711
-0.450325
-0.435438
-0.41808
-0.39536
-0.368164
-0.339102
-0.310323
-0.283167
-0.258296
-0.235901
-0.215906
-0.198108
-0.182261
-0.168124
-0.155473
-0.144118
-0.13389
-0.124554
-0.115886
-0.108664
-0.442606
-0.427853
-0.409562
-0.385211
-0.356291
-0.325777
-0.295945
-0.268114
-0.242863
-0.220301
-0.200282
-0.182555
-0.166844
-0.152886
-0.140446
-0.129325
-0.119344
-0.110253
-0.101835
-0.0949444
-0.431285
-0.416758
-0.397586
-0.371725
-0.3413
-0.30961
-0.27901
-0.25077
-0.225376
-0.20285
-0.182983
-0.165483
-0.150047
-0.136396
-0.124283
-0.113505
-0.103872
-0.0951196
-0.0870424
-0.0805609
-0.416207
-0.401997
-0.382025
-0.354823
-0.323154
-0.290592
-0.259524
-0.231144
-0.205841
-0.183552
-0.164014
-0.146896
-0.131875
-0.118658
-0.106991
-0.0966657
-0.087485
-0.0791704
-0.0715289
-0.065537
-0.397278
-0.383477
-0.362817
-0.334486
-0.301868
-0.268753
-0.237521
-0.209269
-0.184286
-0.162432
-0.143392
-0.126808
-0.112339
-0.0996841
-0.0885829
-0.0788229
-0.0702013
-0.0624288
-0.0553255
-0.0499105
-0.374466
-0.361166
-0.33996
-0.310747
-0.277498
-0.244161
-0.213066
-0.185203
-0.160761
-0.139529
-0.121152
-0.105247
-0.0914647
-0.079495
-0.0690768
-0.0599951
-0.0520417
-0.0449206
-0.0384669
-0.0337234
-0.347805
-0.3351
-0.313515
-0.283694
-0.250147
-0.216917
-0.186252
-0.159027
-0.135334
-0.114901
-0.0973398
-0.0822528
-0.0692819
-0.0581165
-0.048495
-0.040202
-0.0330258
-0.0266704
-0.0209844
-0.0169997
-0.317393
-0.305377
-0.2836
-0.253467
-0.219959
-0.187158
-0.157203
-0.130848
-0.108096
-0.088625
-0.0720193
-0.057874
-0.0458296
-0.0355776
-0.0268595
-0.0194614
-0.0131724
-0.00770209
-0.00290192
0.000267661
-0.283392
-0.272158
-0.250393
-0.220252
-0.187119
-0.155056
-0.126072
-0.1008
-0.0791629
-0.0607966
-0.045269
-0.0321727
-0.0211525
-0.0119076
-0.00418683
0.00221745
0.00750994
0.0119714
0.0157712
0.0180792
-0.246019
-0.235661
-0.214123
-0.184282
-0.151847
-0.120812
-0.0930383
-0.0690416
-0.0486729
-0.0315351
-0.0171874
-0.00522631
0.00469339
0.0128594
0.0195084
0.0248362
0.0290354
0.0323703
0.0350322
0.0363146
-0.205549
-0.196156
-0.175063
-0.145826
-0.114399
-0.0846596
-0.0583128
-0.0357603
-0.016791
-0.0009833
0.0121055
0.0228693
0.0316372
0.038676
0.0442001
0.0483895
0.0514207
0.0535043
0.0547694
0.054593
-0.162303
-0.153961
-0.133532
-0.105193
-0.0750608
-0.0468613
-0.0221333
-0.001171
0.0162908
0.0306915
0.0424708
0.0520083
0.0596103
0.0655121
0.0698945
0.0729163
0.0747145
0.0753295
0.0746672
0.0724724
-0.116643
-0.109433
-0.0898804
-0.0627166
-0.0341458
-0.00770547
0.0152344
0.034481
0.0503473
0.0632872
0.0737376
0.0820656
0.0885555
0.0934092
0.096771
0.0987683
0.0994267
0.0984001
0.0952427
0.0909561
-0.0689669
-0.0629621
-0.0444892
-0.0187589
0.00801089
0.032497
0.0534992
0.0709194
0.0851128
0.0965468
0.10566
0.112819
0.118305
0.122319
0.125017
0.126545
0.126806
0.124972
0.120355
0.115689
-0.019701
-0.014965
0.00224055
0.0263031
0.0510588
0.0734197
0.0923528
0.107846
0.12029
0.130162
0.137904
0.143884
0.1484
0.151691
0.153994
0.155581
0.156429
0.15558
0.152772
0.156127
0.0307184
0.0341289
0.0498956
0.0720821
0.0946394
0.11473
0.131481
0.144959
0.15558
0.163825
0.170131
0.17486
0.178311
0.180731
0.182377
0.183508
0.184113
0.183733
0.18324
0.18872
0.081835
0.083875
0.0980528
0.118186
0.138392
0.156093
0.170572
0.18196
0.190695
0.197255
0.202066
0.205484
0.2078
0.209261
0.210114
0.210575
0.210629
0.209992
0.209548
0.213943
0.133189
0.133825
0.146289
0.164223
0.181958
0.197181
0.20932
0.218564
0.225361
0.230182
0.233439
0.235471
0.236557
0.236933
0.236826
0.236428
0.235738
0.234536
0.233557
0.236487
0.18432
0.183534
0.194184
0.209809
0.224989
0.237676
0.247434
0.2545
0.259329
0.262377
0.264038
0.264634
0.264425
0.263627
0.262443
0.261038
0.259396
0.257326
0.255502
0.257064
0.234776
0.23256
0.241326
0.254568
0.267145
0.277271
0.284634
0.289515
0.292365
0.293627
0.293673
0.292805
0.291261
0.289241
0.286923
0.284446
0.281781
0.278756
0.276011
0.276261
0.284114
0.280477
0.287317
0.298139
0.308101
0.315671
0.320657
0.323368
0.324255
0.32374
0.322175
0.319839
0.316951
0.31369
0.310215
0.306639
0.302925
0.298926
0.295257
0.294267
0.331905
0.326869
0.331772
0.340173
0.347544
0.352599
0.35525
0.355836
0.354798
0.352539
0.34939
0.345607
0.341391
0.336902
0.332279
0.327618
0.322873
0.317925
0.313355
0.311185
0.377738
0.371341
0.374324
0.38034
0.385178
0.387787
0.388176
0.386704
0.383803
0.379855
0.375169
0.369983
0.364477
0.358794
0.353058
0.347345
0.34161
0.335758
0.330325
0.327034
0.421223
0.413517
0.414627
0.418328
0.420724
0.420987
0.419211
0.415772
0.41109
0.405528
0.399374
0.392845
0.386106
0.379283
0.372483
0.36577
0.359101
0.352399
0.346148
0.341799
0.461993
0.453044
0.452355
0.453843
0.453921
0.451964
0.448144
0.44285
0.43649
0.429407
0.421869
0.414075
0.406174
0.398279
0.39048
0.382831
0.375291
0.367801
0.360783
0.355443
0.499708
0.489596
0.487208
0.486616
0.484524
0.480499
0.474779
0.467761
0.459842
0.451348
0.442526
0.433558
0.42458
0.415691
0.406968
0.398455
0.390116
0.381903
0.374175
0.367915
0.534052
0.522872
0.51891
0.516396
0.512312
0.506392
0.498934
0.490342
0.481
0.471217
0.461222
0.451184
0.441224
0.431429
0.421866
0.412568
0.403507
0.394642
0.386266
0.379163
0.564744
0.552599
0.54721
0.542961
0.537083
0.529462
0.520445
0.510443
0.499827
0.488889
0.477846
0.466851
0.456013
0.445409
0.435095
0.425099
0.415396
0.405953
0.396995
0.389135
0.59153
0.578538
0.571887
0.566109
0.558656
0.549545
0.539165
0.52793
0.5162
0.504254
0.492295
0.480464
0.468859
0.45755
0.446582
0.435979
0.425718
0.415772
0.406306
0.39778
0.614192
0.600477
0.592749
0.585667
0.576875
0.5665
0.554965
0.542685
0.530012
0.517213
0.504478
0.491939
0.479687
0.467781
0.456261
0.445144
0.434414
0.424045
0.414146
0.405054
0.632543
0.618241
0.609633
0.601489
0.591609
0.580207
0.567736
0.554609
0.541172
0.527681
0.514318
0.501206
0.488429
0.476041
0.464073
0.452541
0.441433
0.430722
0.420471
0.410919
0.646435
0.631686
0.622408
0.613456
0.60275
0.59057
0.577388
0.56362
0.549604
0.535589
0.52175
0.508205
0.495031
0.482277
0.469971
0.458126
0.446732
0.435762
0.425244
0.415341
0.655755
0.640705
0.630975
0.621479
0.610218
0.597515
0.583856
0.569657
0.555253
0.540886
0.526728
0.512892
0.499451
0.486452
0.473919
0.461864
0.450278
0.439135
0.428436
0.418298
0.660426
0.645225
0.635267
0.625499
0.613958
0.600992
0.587094
0.572679
0.558079
0.543536
0.529218
0.515235
0.501661
0.488539
0.475892
0.463731
0.452049
0.440819
0.43003
0.419774
0.660411
0.64521
0.635252
0.625484
0.613943
0.600978
0.587079
0.572664
0.558064
0.543521
0.529203
0.51522
0.501646
0.488524
0.475877
0.463716
0.452034
0.440804
0.430015
0.419759
0.65571
0.640659
0.630929
0.621434
0.610173
0.59747
0.583811
0.569613
0.555208
0.540841
0.526683
0.512847
0.499406
0.486407
0.473875
0.461819
0.450233
0.439091
0.428392
0.418255
0.646359
0.631609
0.622331
0.61338
0.602675
0.590495
0.577313
0.563545
0.549529
0.535514
0.521675
0.50813
0.494956
0.482202
0.469897
0.458052
0.446658
0.435688
0.42517
0.415269
0.632435
0.618131
0.609524
0.601381
0.591502
0.580101
0.567629
0.554503
0.541066
0.527575
0.514212
0.5011
0.488324
0.475935
0.463968
0.452437
0.441329
0.430618
0.420368
0.410818
0.61405
0.600333
0.592606
0.585526
0.576736
0.566361
0.554827
0.542547
0.529875
0.517075
0.504341
0.491802
0.47955
0.467645
0.456125
0.445009
0.43428
0.423911
0.414013
0.404924
0.591353
0.578358
0.571709
0.565933
0.558482
0.549372
0.538994
0.527759
0.51603
0.504084
0.492125
0.480295
0.468691
0.457382
0.446415
0.435812
0.425553
0.415608
0.406142
0.39762
0.564528
0.552381
0.546994
0.542749
0.536873
0.529254
0.520239
0.510238
0.499623
0.488686
0.477643
0.466649
0.455812
0.445209
0.434896
0.424901
0.415199
0.405757
0.396801
0.388944
0.533796
0.522612
0.518654
0.516145
0.512065
0.506148
0.498692
0.490101
0.480761
0.470978
0.460985
0.450948
0.440989
0.431196
0.421633
0.412338
0.403278
0.394415
0.38604
0.378942
0.499407
0.489293
0.48691
0.486323
0.484237
0.480215
0.474498
0.467483
0.459566
0.451073
0.442252
0.433287
0.42431
0.415423
0.406702
0.398191
0.389854
0.381643
0.373917
0.367662
0.461645
0.452693
0.45201
0.453506
0.45359
0.451638
0.447823
0.442532
0.436174
0.429094
0.421559
0.413767
0.405868
0.397975
0.390179
0.382532
0.374995
0.367507
0.360492
0.355158
0.420822
0.413114
0.414231
0.417942
0.420348
0.420617
0.418847
0.415412
0.410733
0.405176
0.399024
0.392499
0.385762
0.378943
0.372146
0.365436
0.35877
0.352071
0.345823
0.341482
0.377281
0.370882
0.373875
0.379903
0.384752
0.38737
0.387766
0.3863
0.383403
0.37946
0.374779
0.369596
0.364094
0.358415
0.352682
0.346973
0.341242
0.335394
0.329964
0.326682
0.331388
0.32635
0.331265
0.339681
0.347065
0.352131
0.354791
0.355384
0.354353
0.3521
0.348956
0.345178
0.340967
0.336483
0.331865
0.327208
0.322468
0.317525
0.312959
0.310798
0.283531
0.279893
0.286747
0.297587
0.307566
0.31515
0.320146
0.322867
0.323762
0.323255
0.321696
0.319366
0.316484
0.313229
0.309759
0.30619
0.302481
0.298487
0.294824
0.293844
0.234123
0.231907
0.24069
0.253953
0.26655
0.276692
0.284069
0.288961
0.291821
0.293092
0.293146
0.292285
0.290749
0.288736
0.286425
0.283955
0.281296
0.278277
0.275538
0.275801
0.183591
0.182805
0.193475
0.209126
0.22433
0.237036
0.24681
0.253891
0.258731
0.26179
0.263461
0.264067
0.263866
0.263076
0.2619
0.260503
0.258869
0.256806
0.254988
0.256564
0.132378
0.133017
0.145504
0.163467
0.18123
0.196477
0.208635
0.217895
0.224707
0.229541
0.232809
0.234852
0.235948
0.236334
0.236235
0.235847
0.235165
0.233972
0.233
0.235946
0.0809388
0.0829816
0.0971861
0.117353
0.137591
0.15532
0.169822
0.18123
0.189982
0.196557
0.201382
0.204812
0.207139
0.208611
0.209474
0.209945
0.210009
0.20938
0.208944
0.213357
0.0297312
0.0331455
0.0489424
0.0711683
0.0937627
0.113885
0.130663
0.144164
0.154805
0.163068
0.169388
0.174133
0.177596
0.180028
0.181685
0.182827
0.183443
0.183071
0.182586
0.188085
-0.0207842
-0.0160432
0.00119627
0.0253034
0.0501015
0.0724991
0.0914633
0.106983
0.11945
0.129342
0.137102
0.143098
0.147629
0.150933
0.153248
0.154847
0.155706
0.154864
0.15206
0.15543
-0.0701506
-0.0641398
-0.0456291
-0.0198487
0.00696915
0.0314971
0.0525349
0.0699856
0.0842053
0.0956623
0.104796
0.111973
0.117475
0.121504
0.124215
0.125754
0.126025
0.124198
0.119584
0.114918
-0.117931
-0.110714
-0.0911201
-0.0639006
-0.0352757
-0.00878789
0.0141925
0.0334738
0.0493701
0.0623362
0.0728097
0.0811583
0.0876667
0.0925366
0.0959128
0.0979227
0.0985919
0.0975739
0.0944219
0.0901364
-0.1637
-0.15535
-0.134875
-0.106475
-0.0762823
-0.0480294
-0.0232556
-0.00225398
0.0152418
0.0296722
0.0414778
0.0510387
0.0586616
0.064582
0.068981
0.0720176
0.0738291
0.0744562
0.0738038
0.0716142
-0.207058
-0.197655
-0.176514
-0.14721
-0.115715
-0.0859161
-0.0595179
-0.0369211
-0.0179135
-0.00207227
0.0110462
0.0218366
0.0306283
0.0376885
0.0432319
0.0474388
0.0504861
0.0525847
0.0538634
0.0536958
-0.247642
-0.237274
-0.215683
-0.185769
-0.153261
-0.122159
-0.0943283
-0.0702821
-0.0498705
-0.0326949
-0.0183138
-0.0063228
0.00362384
0.0118143
0.0184855
0.0238335
0.0280515
0.0314042
0.0340827
0.0353767
-0.28513
-0.273886
-0.252066
-0.221846
-0.188633
-0.156496
-0.127449
-0.102122
-0.0804367
-0.0620283
-0.0464633
-0.0333334
-0.022283
-0.0130105
-0.00526452
0.0011629
0.00647691
0.010959
0.0147779
0.0171
-0.319249
-0.307221
-0.285386
-0.255169
-0.221575
-0.188694
-0.158669
-0.132253
-0.109447
-0.0899293
-0.0732821
-0.0590995
-0.0470212
-0.0367384
-0.0279919
-0.0205678
-0.0142544
-0.00876089
-0.00393897
-0.000752892
-0.349776
-0.337059
-0.315414
-0.285506
-0.251865
-0.218548
-0.187807
-0.160515
-0.136763
-0.116279
-0.0986716
-0.0835433
-0.0705348
-0.0593352
-0.0496823
-0.0413602
-0.0341569
-0.0277756
-0.0220653
-0.0180616
-0.376552
-0.36324
-0.341973
-0.312668
-0.27932
-0.245889
-0.21471
-0.186775
-0.162268
-0.14098
-0.122552
-0.106603
-0.0927791
-0.0807717
-0.0703189
-0.0612052
-0.0532218
-0.0460723
-0.0395917
-0.0348267
-0.399477
-0.385663
-0.364942
-0.336516
-0.303793
-0.270578
-0.239256
-0.210925
-0.185873
-0.163957
-0.144862
-0.128229
-0.113715
-0.101019
-0.0898798
-0.0800848
-0.0714305
-0.0636269
-0.0564943
-0.0510552
-0.418515
-0.404292
-0.384258
-0.35696
-0.325182
-0.292514
-0.26135
-0.232884
-0.207506
-0.185151
-0.165553
-0.148381
-0.133312
-0.12005
-0.108343
-0.0979793
-0.0887631
-0.0804148
-0.0727417
-0.0667231
-0.433697
-0.419156
-0.399924
-0.373965
-0.343428
-0.311627
-0.280926
-0.252594
-0.227119
-0.204522
-0.184591
-0.167034
-0.151546
-0.137846
-0.125689
-0.11487
-0.105199
-0.0964103
-0.0882989
-0.0817883
-0.445116
-0.430349
-0.411999
-0.387552
-0.358518
-0.327889
-0.297949
-0.270021
-0.244685
-0.222046
-0.201959
-0.18417
-0.168403
-0.154393
-0.141906
-0.130741
-0.120719
-0.111589
-0.103135
-0.0962127
-0.452927
-0.438025
-0.42061
-0.397795
-0.370485
-0.341305
-0.312413
-0.285156
-0.260193
-0.237718
-0.217651
-0.199786
-0.18388
-0.169688
-0.156986
-0.145585
-0.135313
-0.125936
-0.117229
-0.109973
-0.457339
-0.442395
-0.425937
-0.404828
-0.379412
-0.35192
-0.324343
-0.298013
-0.273657
-0.251547
-0.231676
-0.213892
-0.197985
-0.183734
-0.170933
-0.1594
-0.148976
-0.139443
-0.130571
-0.123059
-0.458614
-0.443722
-0.428218
-0.408835
-0.385427
-0.359819
-0.333792
-0.30863
-0.285104
-0.263559
-0.244059
-0.226507
-0.210734
-0.196548
-0.183758
-0.172197
-0.161715
-0.152113
-0.14316
-0.135472
-0.457052
-0.44231
-0.427736
-0.410052
-0.388706
-0.365124
-0.340845
-0.317069
-0.294582
-0.273793
-0.254834
-0.237664
-0.222157
-0.208153
-0.195483
-0.183993
-0.173544
-0.163956
-0.155004
-0.147217
-0.452989
-0.438494
-0.424811
-0.408757
-0.389468
-0.367996
-0.345616
-0.323411
-0.302156
-0.282304
-0.264047
-0.247403
-0.23229
-0.218583
-0.206137
-0.194812
-0.184484
-0.174992
-0.166118
-0.158309
-0.44678
-0.432632
-0.419793
-0.405263
-0.38797
-0.368631
-0.348251
-0.327765
-0.307909
-0.289158
-0.271756
-0.255774
-0.241179
-0.227878
-0.215754
-0.204686
-0.194564
-0.185246
-0.176525
-0.168769
-0.438792
-0.42509
-0.413046
-0.399912
-0.384504
-0.367259
-0.348921
-0.330258
-0.311936
-0.294432
-0.278025
-0.262835
-0.248872
-0.236082
-0.224376
-0.213654
-0.203817
-0.194747
-0.18625
-0.178622
0.0968567
0.0694072
0.0491261
0.0393496
0.0305731
0.0187989
0.00562575
-0.00709561
-0.0190851
-0.0307451
-0.0423072
-0.0537429
-0.0649625
-0.0759276
-0.0866478
-0.0971485
-0.107456
-0.1176
-0.127617
-0.137555
0.0395126
0.0255779
0.013267
0.00589601
0.000467553
-0.00587371
-0.0132886
-0.0207417
-0.027644
-0.0340546
-0.0401994
-0.0461722
-0.0519455
-0.0574716
-0.0627296
-0.0677201
-0.0724467
-0.0769075
-0.0810959
-0.0850021
0.0241725
0.0179508
0.0121986
0.00750397
0.00339088
-0.000828449
-0.00536587
-0.0100236
-0.0145849
-0.0190038
-0.0233425
-0.0276582
-0.031965
-0.0362538
-0.0405177
-0.0447589
-0.0489852
-0.0532046
-0.0574243
-0.0616515
0.0145783
0.0106594
0.00665641
0.00287021
-0.000718949
-0.00426104
-0.00783878
-0.0114326
-0.0149889
-0.0184793
-0.0219072
-0.0252857
-0.0286212
-0.0319124
-0.0351558
-0.0383499
-0.041495
-0.0445923
-0.0476429
-0.0506477
0.00683096
0.00364601
0.000571816
-0.00217835
-0.00478054
-0.007382
-0.0100052
-0.0126194
-0.0152013
-0.0177473
-0.0202634
-0.0227559
-0.0252288
-0.0276839
-0.0301227
-0.0325471
-0.0349594
-0.0373619
-0.0397573
-0.0421477
0.000722641
-0.00185314
-0.00419058
-0.00620041
-0.00811137
-0.010064
-0.01206
-0.0140589
-0.0160389
-0.0180011
-0.0199524
-0.0218971
-0.0238356
-0.0257677
-0.0276932
-0.0296124
-0.0315257
-0.0334336
-0.0353366
-0.037235
-0.00345164
-0.00547074
-0.00725018
-0.0087749
-0.0102411
-0.0117547
-0.013311
-0.0148746
-0.0164277
-0.0179712
-0.0195107
-0.0210494
-0.0225872
-0.0241235
-0.0256578
-0.0271903
-0.0287212
-0.0302508
-0.0317795
-0.0333076
-0.0062699
-0.00784108
-0.00924459
-0.0104697
-0.0116541
-0.0128744
-0.0141287
-0.0153918
-0.0166502
-0.0179037
-0.019156
-0.0204094
-0.0216637
-0.0229183
-0.0241726
-0.0254265
-0.02668
-0.0279332
-0.029186
-0.0304386
-0.00825439
-0.00946109
-0.0105962
-0.0116221
-0.012613
-0.0136214
-0.0146524
-0.015692
-0.0167305
-0.0177665
-0.0188019
-0.0198381
-0.0208752
-0.0219127
-0.0229503
-0.0239878
-0.0250251
-0.0260623
-0.0270992
-0.028136
-0.00978586
-0.0106935
-0.0116186
-0.0124968
-0.0133451
-0.0141935
-0.0150529
-0.0159194
-0.0167872
-0.017654
-0.0185202
-0.0193867
-0.0202535
-0.0211206
-0.0219877
-0.0228547
-0.0237215
-0.0245881
-0.0254545
-0.0263206
-0.0110668
-0.0117378
-0.0124879
-0.0132395
-0.0139683
-0.0146857
-0.0154046
-0.0161282
-0.0168544
-0.0175806
-0.0183064
-0.0190319
-0.0197574
-0.0204831
-0.0212088
-0.0219345
-0.0226601
-0.0233857
-0.0241112
-0.0248367
-0.0121831
-0.0126752
-0.0132765
-0.0139099
-0.0145287
-0.0151311
-0.0157292
-0.01633
-0.0169337
-0.0175384
-0.018143
-0.0187474
-0.0193521
-0.019957
-0.0205624
-0.0211681
-0.0217743
-0.022381
-0.0229882
-0.0235959
-0.0131301
-0.0134803
-0.0139505
-0.0144716
-0.0149863
-0.0154834
-0.0159731
-0.016464
-0.0169579
-0.0174537
-0.01795
-0.0184468
-0.0189442
-0.0194427
-0.0199422
-0.0204431
-0.0209452
-0.0214488
-0.0219538
-0.0224604
-0.0139006
-0.0141218
-0.0144713
-0.0148886
-0.0153068
-0.0157068
-0.0160968
-0.0164869
-0.0168805
-0.0172768
-0.0176748
-0.0180741
-0.0184752
-0.0188785
-0.0192842
-0.0196926
-0.0201038
-0.0205179
-0.0209351
-0.0213554
-0.0144924
-0.0145643
-0.0147803
-0.0150867
-0.0154027
-0.0156993
-0.0159832
-0.0162667
-0.0165552
-0.0168487
-0.0171463
-0.0174478
-0.0177535
-0.0180641
-0.0183801
-0.0187016
-0.0190288
-0.0193619
-0.019701
-0.0200459
-0.0150456
-0.0149819
-0.0150308
-0.0151701
-0.0153331
-0.0154887
-0.0156386
-0.0157931
-0.0159581
-0.0161348
-0.0163224
-0.0165207
-0.0167297
-0.0169498
-0.0171812
-0.0174239
-0.0176777
-0.0179425
-0.0182179
-0.0185037
-0.0150527
-0.0148873
-0.0146713
-0.0144862
-0.0143581
-0.0142784
-0.0142338
-0.0142179
-0.0142303
-0.0142717
-0.0143417
-0.0144392
-0.0145628
-0.0147108
-0.014882
-0.0150752
-0.0152889
-0.0155218
-0.0157728
-0.0160405
-0.0125487
-0.0120946
-0.0116108
-0.0112286
-0.010957
-0.0107683
-0.0106414
-0.0105677
-0.0105442
-0.0105686
-0.0106378
-0.0107482
-0.0108961
-0.0110782
-0.0112914
-0.0115329
-0.0118
-0.0120902
-0.0124011
-0.0127305
-0.00100631
0.00267875
0.00395788
0.00329334
0.00218378
0.00133206
0.000730349
0.000189482
-0.000391514
-0.0010169
-0.00166089
-0.00230679
-0.0029511
-0.00359534
-0.0042404
-0.00488558
-0.00552952
-0.006171
-0.00680911
-0.00744317
0.0110047
0.023293
0.0270502
0.0244118
0.0205481
0.0177429
0.0159066
0.014388
0.0128462
0.0112595
0.0097028
0.00822049
0.00681514
0.00547396
0.00418683
0.00294925
0.00175932
0.000615196
-0.000485475
-0.00154527
0.130997
0.131536
0.13264
0.1343
0.136518
0.139304
0.142682
0.146672
0.151294
0.156547
0.162421
0.168853
0.17574
0.182839
0.189749
0.195666
0.19911
0.197067
0.183026
0.142078
0.121587
0.121984
0.122741
0.123875
0.125351
0.127188
0.129321
0.131779
0.134436
0.137317
0.140175
0.143007
0.145329
0.14705
0.147204
0.145434
0.139703
0.128728
0.107471
0.0703033
0.110433
0.110651
0.111039
0.111611
0.112331
0.113194
0.114124
0.115095
0.115972
0.116697
0.117041
0.116879
0.115817
0.1136
0.109572
0.103245
0.0936418
0.0801441
0.0620687
0.0397866
0.0982364
0.0982831
0.0983459
0.0984267
0.0985024
0.0985458
0.0984927
0.0982804
0.0978022
0.0969554
0.0955776
0.093507
0.0905099
0.0863543
0.0807641
0.0735074
0.0644349
0.0534767
0.0405899
0.0250153
0.0857084
0.0856264
0.0854469
0.0851666
0.0847717
0.084229
0.0834907
0.0824896
0.0811512
0.0793798
0.0770806
0.0741323
0.0704366
0.0658696
0.0603793
0.0538798
0.0463803
0.0377106
0.0276206
0.0152581
0.0734431
0.0732814
0.0729497
0.0724442
0.0717571
0.070861
0.0697234
0.0682919
0.0665203
0.0643431
0.0617144
0.0585658
0.0548679
0.0505603
0.0456386
0.0400282
0.0336932
0.0264236
0.0179752
0.00770875
0.061857
0.0616554
0.0612474
0.0606294
0.0597977
0.058734
0.0574187
0.055818
0.0539062
0.0516445
0.0490122
0.0459711
0.0425106
0.0385887
0.0341964
0.029265
0.0237596
0.017539
0.0104666
0.00212688
0.0511907
0.0509769
0.0505459
0.0498948
0.0490218
0.0479161
0.0465675
0.0449557
0.0430677
0.0408798
0.0383814
0.0355471
0.0323699
0.0288183
0.0248877
0.0205367
0.015762
0.0104959
0.00468383
-0.00193451
0.0415465
0.0413369
0.0409156
0.0402792
0.039427
0.0383524
0.0370511
0.035511
0.0337258
0.0316803
0.029369
0.0267742
0.0238935
0.0207078
0.0172228
0.0134209
0.00932082
0.00489969
0.000166521
-0.00497526
0.0329325
0.0327359
0.0323412
0.0317447
0.0309454
0.0299393
0.028725
0.0272959
0.0256499
0.0237778
0.0216787
0.0193419
0.0167704
0.0139541
0.0109052
0.00761738
0.00411919
0.000415265
-0.00343033
-0.0073663
0.0253019
0.0251221
0.0247613
0.0242154
0.0234833
0.0225622
0.0214528
0.0201517
0.0186606
0.0169749
0.015098
0.013025
0.0107632
0.00830778
0.00567315
0.0028574
-0.000106716
-0.0031976
-0.0063136
-0.00930834
0.0185816
0.0184191
0.0180937
0.017601
0.0169398
0.0161084
0.015109
0.0139408
0.0126076
0.0111083
0.00944912
0.00762921
0.00565963
0.00353992
0.0012874
-0.00109681
-0.00357829
-0.00612958
-0.00863515
-0.0109103
0.0126918
0.012545
0.0122519
0.0118081
0.011213
0.0104663
0.00957194
0.00853138
0.00735034
0.00602914
0.00457502
0.00298833
0.00128186
-0.000540661
-0.00245629
-0.00445674
-0.00650349
-0.00856876
-0.0105414
-0.0122342
0.00756085
0.0074258
0.00715695
0.00675059
0.00620717
0.00552816
0.00472039
0.00378855
0.00274161
0.00158241
0.000319004
-0.00104953
-0.00251354
-0.00407181
-0.00570024
-0.00738164
-0.00906249
-0.0107003
-0.0121838
-0.0133491
0.0031365
0.00300698
0.00275017
0.00236272
0.00184625
0.00120391
0.000445811
-0.000419194
-0.00137573
-0.00241412
-0.00351859
-0.00468619
-0.00590797
-0.00719397
-0.00853571
-0.0099321
-0.0113241
-0.0126395
-0.0137115
-0.0143395
-0.000606736
-0.000737927
-0.000997143
-0.00138808
-0.00190844
-0.0025554
-0.00331691
-0.00418266
-0.00513038
-0.0061423
-0.00718446
-0.00823541
-0.00925967
-0.0102583
-0.0112274
-0.0122189
-0.013232
-0.0142469
-0.0150242
-0.0152222
-0.00366637
-0.00380486
-0.0040792
-0.00449374
-0.00504678
-0.00573794
-0.00655741
-0.00749896
-0.00854163
-0.0096682
-0.010834
-0.0119964
-0.0130692
-0.0139838
-0.0146437
-0.0150547
-0.0152612
-0.0154616
-0.0156421
-0.0153812
-0.00601724
-0.00616421
-0.00646087
-0.00691018
-0.00751363
-0.00827211
-0.00918491
-0.0102511
-0.0114668
-0.0128248
-0.0143068
-0.0158764
-0.0174569
-0.0189117
-0.0200107
-0.0204417
-0.0198836
-0.0182397
-0.0159099
-0.0137583
-0.00761897
-0.00777314
-0.00809146
-0.00857433
-0.00922747
-0.0100519
-0.0110583
-0.0122501
-0.0136462
-0.0152532
-0.0171017
-0.019197
-0.0215678
-0.0241621
-0.0268716
-0.0292717
-0.0305621
-0.0291814
-0.0232787
-0.0115891
-0.00842923
-0.00859041
-0.00892177
-0.00942573
-0.0101081
-0.0109742
-0.0120367
-0.0133087
-0.0148147
-0.0165825
-0.0186606
-0.0211078
-0.0240216
-0.0275213
-0.0317694
-0.0368676
-0.0426216
-0.0476201
-0.0467692
-0.0240256
0.14161
0.142195
0.143503
0.145437
0.14814
0.151513
0.155799
0.160854
0.167056
0.174194
0.182858
0.192724
0.204734
0.218373
0.235222
0.254405
0.278771
0.306669
0.343526
0.385832
0.141574
0.14216
0.143467
0.1454
0.148102
0.151474
0.155759
0.160811
0.16701
0.174143
0.182799
0.192657
0.20465
0.21827
0.235082
0.254215
0.278491
0.306255
0.342882
0.384799
0.141501
0.142087
0.143393
0.145325
0.148025
0.151395
0.155675
0.160722
0.166914
0.174037
0.18268
0.192517
0.20448
0.218057
0.234796
0.253829
0.277925
0.305421
0.341589
0.382728
0.141391
0.141977
0.143282
0.145211
0.147909
0.151274
0.155549
0.160588
0.166769
0.173878
0.182499
0.192307
0.204223
0.217738
0.234367
0.25325
0.277076
0.304172
0.339651
0.37963
0.141245
0.14183
0.143133
0.14506
0.147753
0.151114
0.155381
0.16041
0.166576
0.173666
0.182258
0.192027
0.20388
0.217312
0.233796
0.252481
0.275949
0.302517
0.337079
0.375521
0.141062
0.141647
0.142947
0.144871
0.14756
0.150913
0.155171
0.160187
0.166336
0.173401
0.181957
0.191678
0.203455
0.216782
0.233088
0.251526
0.274549
0.300465
0.333883
0.370423
0.140842
0.141427
0.142725
0.144646
0.147328
0.150674
0.15492
0.159921
0.166049
0.173084
0.181599
0.19126
0.202948
0.21615
0.232244
0.250389
0.272885
0.298029
0.330078
0.364363
0.140587
0.141171
0.142467
0.144383
0.147058
0.150395
0.154628
0.159612
0.165715
0.172716
0.181183
0.190777
0.202361
0.215418
0.231272
0.249077
0.270965
0.295223
0.32568
0.357373
0.140295
0.14088
0.142173
0.144084
0.146752
0.150079
0.154297
0.159261
0.165337
0.172299
0.180713
0.190229
0.201698
0.21459
0.230174
0.247595
0.2688
0.292063
0.320708
0.349492
0.139969
0.140554
0.141844
0.14375
0.14641
0.149725
0.153927
0.158869
0.164915
0.171834
0.180189
0.189618
0.200962
0.213668
0.228958
0.245951
0.266402
0.288565
0.315185
0.340761
0.139608
0.140193
0.14148
0.143382
0.146032
0.149335
0.15352
0.158437
0.16445
0.171323
0.179613
0.188946
0.200155
0.212657
0.227629
0.24415
0.263784
0.284749
0.309133
0.33123
0.139212
0.139799
0.141083
0.142979
0.14562
0.14891
0.153075
0.157967
0.163944
0.170766
0.178987
0.188216
0.19928
0.211559
0.226194
0.242202
0.260961
0.280632
0.302581
0.320949
0.138783
0.139372
0.140652
0.142544
0.145174
0.148451
0.152596
0.157459
0.163399
0.170165
0.178313
0.187431
0.198342
0.210379
0.22466
0.240113
0.257952
0.276234
0.29556
0.309974
0.138321
0.138912
0.14019
0.142076
0.144696
0.147958
0.152081
0.156916
0.162815
0.169524
0.177594
0.186592
0.197343
0.209122
0.223035
0.237892
0.254773
0.271573
0.288107
0.298357
0.137826
0.13842
0.139696
0.141577
0.144185
0.147433
0.151533
0.156337
0.162194
0.168842
0.176831
0.185703
0.196286
0.207791
0.221325
0.235548
0.251444
0.266666
0.280264
0.286148
0.1373
0.137897
0.139171
0.141047
0.143644
0.146876
0.150952
0.155724
0.161535
0.168119
0.176021
0.184761
0.195168
0.206385
0.219528
0.233082
0.247979
0.26153
0.272085
0.273385
0.136742
0.137345
0.138617
0.140489
0.143074
0.14629
0.150341
0.155079
0.160843
0.16736
0.175172
0.183772
0.193998
0.204913
0.217656
0.230507
0.244396
0.256177
0.263631
0.2601
0.136154
0.136764
0.138038
0.139907
0.142483
0.145686
0.149715
0.154424
0.160146
0.166599
0.174327
0.182792
0.192841
0.203448
0.215795
0.227911
0.240789
0.250666
0.254948
0.246198
0.135536
0.136155
0.137433
0.139304
0.141875
0.14507
0.149084
0.153772
0.15946
0.165863
0.173518
0.181858
0.191743
0.202049
0.214005
0.225362
0.237228
0.245041
0.246062
0.231027
0.134883
0.135505
0.136777
0.138638
0.141186
0.144355
0.148322
0.152958
0.158563
0.16487
0.172375
0.180533
0.19014
0.200083
0.211512
0.222096
0.232884
0.238818
0.237041
0.21487
0.134828
0.135449
0.136719
0.138577
0.141121
0.144284
0.148245
0.152873
0.158468
0.164762
0.172253
0.180393
0.189979
0.199896
0.211293
0.221838
0.232578
0.238448
0.23659
0.214305
0.135483
0.136101
0.137378
0.139245
0.141813
0.145003
0.149011
0.15369
0.159369
0.16576
0.173401
0.181725
0.191589
0.201871
0.213797
0.225117
0.236938
0.244692
0.245638
0.230501
0.136104
0.136713
0.137985
0.139851
0.142424
0.145622
0.149645
0.154347
0.160059
0.166502
0.174217
0.182665
0.192696
0.20328
0.215598
0.227679
0.240516
0.250337
0.25455
0.245708
0.136694
0.137296
0.138567
0.140436
0.143018
0.14623
0.150275
0.155006
0.160761
0.167267
0.175067
0.183653
0.193861
0.204753
0.21747
0.230288
0.244137
0.255868
0.263258
0.259644
0.137255
0.137851
0.139124
0.140997
0.143591
0.146819
0.15089
0.155655
0.161458
0.168032
0.175923
0.184648
0.195039
0.206235
0.219354
0.232876
0.247736
0.26124
0.271737
0.27296
0.137784
0.138377
0.139651
0.14153
0.144136
0.147379
0.151475
0.156272
0.162121
0.16876
0.176738
0.185597
0.196165
0.20765
0.221161
0.235355
0.251218
0.266396
0.27994
0.285753
0.138281
0.138871
0.140148
0.142032
0.144649
0.147908
0.152026
0.156855
0.162747
0.169447
0.177508
0.186494
0.19723
0.20899
0.222883
0.237712
0.254562
0.271321
0.287806
0.297993
0.138746
0.139334
0.140614
0.142503
0.145131
0.148404
0.152544
0.157403
0.163336
0.170094
0.178233
0.187339
0.198237
0.210257
0.224519
0.239946
0.257756
0.276002
0.295283
0.309639
0.139178
0.139764
0.141047
0.142942
0.14558
0.148867
0.153028
0.157915
0.163886
0.1707
0.178913
0.188132
0.199183
0.211446
0.226064
0.242049
0.260782
0.280419
0.302327
0.320643
0.139577
0.140162
0.141447
0.143347
0.145995
0.149296
0.153477
0.158389
0.164397
0.171263
0.179545
0.188869
0.200066
0.212554
0.22751
0.24401
0.26362
0.284554
0.308902
0.330952
0.139941
0.140525
0.141814
0.143719
0.146376
0.149689
0.153888
0.158825
0.164866
0.17178
0.180127
0.189548
0.200882
0.213575
0.22885
0.245824
0.266253
0.288389
0.314976
0.340512
0.14027
0.140854
0.142146
0.144056
0.146722
0.150046