/*--------------------------------*- C++ -*----------------------------------*\
  =========                 |
  \\      /  F ield         | OpenFOAM: The Open Source CFD Toolbox
   \\    /   O peration     | Website:  https://openfoam.org
    \\  /    A nd           | Version:  6.0
     \\/     M anipulation  |
\*---------------------------------------------------------------------------*/
FoamFile
{
    version     2.0;
    format      ascii;
    class       volScalarField;
    location    "29";
    object      p;
}
// * * * * * * * * * * * * * * * * * * * * * * * * * * * * * * * * * * * * * //

dimensions      [0 2 -2 0 0 0 0];

internalField   nonuniform List<scalar> 
12500
(
-0.250718
-0.251487
-0.252017
-0.252421
-0.252765
-0.253058
-0.253308
-0.253525
-0.253716
-0.253886
-0.254039
-0.254179
-0.254309
-0.254431
-0.254548
-0.254662
-0.254776
-0.254892
-0.255012
-0.255139
-0.255279
-0.255432
-0.255561
-0.255644
-0.256069
-0.250734
-0.251502
-0.25203
-0.252432
-0.252774
-0.253063
-0.253309
-0.253522
-0.253708
-0.253873
-0.254021
-0.254155
-0.254279
-0.254395
-0.254505
-0.254613
-0.25472
-0.254829
-0.254942
-0.255062
-0.255195
-0.255341
-0.255463
-0.255538
-0.255958
-0.250817
-0.251583
-0.252108
-0.252506
-0.252843
-0.253126
-0.253366
-0.253571
-0.25375
-0.253906
-0.254045
-0.25417
-0.254284
-0.254389
-0.254489
-0.254586
-0.254682
-0.25478
-0.254882
-0.254991
-0.255113
-0.255249
-0.255361
-0.255426
-0.255839
-0.250966
-0.25173
-0.252251
-0.252643
-0.252973
-0.253248
-0.253478
-0.253673
-0.25384
-0.253984
-0.25411
-0.254222
-0.254322
-0.254413
-0.254498
-0.254579
-0.25466
-0.254742
-0.254828
-0.254922
-0.25503
-0.255153
-0.255252
-0.255303
-0.255707
-0.251183
-0.251943
-0.252459
-0.252844
-0.253165
-0.253429
-0.253647
-0.253828
-0.25398
-0.254108
-0.254217
-0.254311
-0.254392
-0.254464
-0.254529
-0.254591
-0.254651
-0.254713
-0.254779
-0.254854
-0.254943
-0.255048
-0.255131
-0.255164
-0.255559
-0.251467
-0.252224
-0.252734
-0.25311
-0.253419
-0.25367
-0.253872
-0.254035
-0.254169
-0.254277
-0.254365
-0.254437
-0.254495
-0.254543
-0.254583
-0.254619
-0.254653
-0.25469
-0.254731
-0.25478
-0.254846
-0.25493
-0.254992
-0.255003
-0.255388
-0.251822
-0.252574
-0.253077
-0.253442
-0.253737
-0.25397
-0.254153
-0.254296
-0.254407
-0.254491
-0.254553
-0.254598
-0.254628
-0.254646
-0.254656
-0.254661
-0.254664
-0.254668
-0.254677
-0.254696
-0.254732
-0.25479
-0.254828
-0.254812
-0.255185
-0.252247
-0.252995
-0.253489
-0.25384
-0.254119
-0.254333
-0.254493
-0.254611
-0.254695
-0.254751
-0.254783
-0.254795
-0.254792
-0.254775
-0.254748
-0.254715
-0.254679
-0.254644
-0.254615
-0.254596
-0.254597
-0.254622
-0.254629
-0.254582
-0.254942
-0.252746
-0.253489
-0.253972
-0.254308
-0.254567
-0.254757
-0.254892
-0.254981
-0.255034
-0.255057
-0.255054
-0.255029
-0.254986
-0.254928
-0.254858
-0.25478
-0.254698
-0.254616
-0.25454
-0.254475
-0.254432
-0.254417
-0.254387
-0.254302
-0.254647
-0.253322
-0.254058
-0.254528
-0.254846
-0.255082
-0.255247
-0.255351
-0.255408
-0.255426
-0.255411
-0.255368
-0.255301
-0.255213
-0.255107
-0.254986
-0.254856
-0.254719
-0.254581
-0.254449
-0.254328
-0.254232
-0.254167
-0.254092
-0.253963
-0.254291
-0.253979
-0.254706
-0.255161
-0.255458
-0.255668
-0.255802
-0.255874
-0.255894
-0.255873
-0.255816
-0.255728
-0.255613
-0.255474
-0.255314
-0.255136
-0.254945
-0.254744
-0.254541
-0.254341
-0.254153
-0.253992
-0.253867
-0.253735
-0.253552
-0.253859
-0.25472
-0.255436
-0.255873
-0.256146
-0.256326
-0.256426
-0.256461
-0.256441
-0.256376
-0.256274
-0.256137
-0.25597
-0.255775
-0.255554
-0.255312
-0.255051
-0.254777
-0.254497
-0.254218
-0.253949
-0.253709
-0.253509
-0.253307
-0.253057
-0.253339
-0.255551
-0.256252
-0.256667
-0.256912
-0.257059
-0.257121
-0.257115
-0.257051
-0.25694
-0.256788
-0.256599
-0.256375
-0.256119
-0.255834
-0.25552
-0.255182
-0.254826
-0.254457
-0.254084
-0.25372
-0.253383
-0.253091
-0.2528
-0.252466
-0.252716
-0.256478
-0.257158
-0.257547
-0.257759
-0.257869
-0.25789
-0.257838
-0.257727
-0.257567
-0.257362
-0.257118
-0.256835
-0.256515
-0.256159
-0.255769
-0.255347
-0.254899
-0.25443
-0.253949
-0.253472
-0.253019
-0.252612
-0.252208
-0.251767
-0.251972
-0.257505
-0.25816
-0.258517
-0.258692
-0.258759
-0.258734
-0.258633
-0.258472
-0.258259
-0.257999
-0.257697
-0.257353
-0.256967
-0.256539
-0.256069
-0.255557
-0.255009
-0.254428
-0.253826
-0.253216
-0.252624
-0.252075
-0.251528
-0.250946
-0.251088
-0.258639
-0.259261
-0.259581
-0.259712
-0.259731
-0.259655
-0.259502
-0.259286
-0.259018
-0.258702
-0.258341
-0.257935
-0.257482
-0.25698
-0.256427
-0.255823
-0.255169
-0.254468
-0.25373
-0.252968
-0.252212
-0.251489
-0.25076
-0.249993
-0.250041
-0.259885
-0.260466
-0.260741
-0.260823
-0.260788
-0.260655
-0.260444
-0.260171
-0.259844
-0.25947
-0.259049
-0.258581
-0.258061
-0.257487
-0.256853
-0.256155
-0.255392
-0.254565
-0.253679
-0.252747
-0.251798
-0.250865
-0.249906
-0.248893
-0.248802
-0.26125
-0.26178
-0.262003
-0.262028
-0.261931
-0.261735
-0.261461
-0.261125
-0.260736
-0.260301
-0.25982
-0.25929
-0.258706
-0.258061
-0.257347
-0.256558
-0.255687
-0.25473
-0.253688
-0.25257
-0.251403
-0.25022
-0.248975
-0.247639
-0.24734
-0.262739
-0.263209
-0.26337
-0.26333
-0.263163
-0.262896
-0.262552
-0.262147
-0.261692
-0.261193
-0.260649
-0.260057
-0.259409
-0.258696
-0.257908
-0.257031
-0.256055
-0.25497
-0.25377
-0.252455
-0.251047
-0.249576
-0.247983
-0.246226
-0.24562
-0.264359
-0.264757
-0.264847
-0.264732
-0.264486
-0.264139
-0.263715
-0.263234
-0.262707
-0.262139
-0.261529
-0.260873
-0.260162
-0.259383
-0.258523
-0.257565
-0.256491
-0.255284
-0.253928
-0.252413
-0.250748
-0.248955
-0.246952
-0.244659
-0.243608
-0.266117
-0.266432
-0.26644
-0.266238
-0.265902
-0.265463
-0.264951
-0.264384
-0.263776
-0.263131
-0.262451
-0.261727
-0.260951
-0.260107
-0.259179
-0.258145
-0.256982
-0.255664
-0.254164
-0.252456
-0.250533
-0.248398
-0.245932
-0.242982
-0.241305
-0.268021
-0.268242
-0.268155
-0.267855
-0.267415
-0.266873
-0.266258
-0.265595
-0.264895
-0.264165
-0.263405
-0.262608
-0.261763
-0.260854
-0.259861
-0.258759
-0.257519
-0.256108
-0.254487
-0.252613
-0.250455
-0.247993
-0.245058
-0.241364
-0.238834
-0.270081
-0.270194
-0.270001
-0.269588
-0.269031
-0.268371
-0.267641
-0.266867
-0.266063
-0.265237
-0.264387
-0.263509
-0.26259
-0.261614
-0.260559
-0.2594
-0.258103
-0.256629
-0.254928
-0.252938
-0.250602
-0.247864
-0.24449
-0.23996
-0.236189
-0.272309
-0.272303
-0.271988
-0.271448
-0.270758
-0.269964
-0.269104
-0.268205
-0.267284
-0.266348
-0.265399
-0.26443
-0.263433
-0.26239
-0.261283
-0.260085
-0.258767
-0.257287
-0.255588
-0.253594
-0.251206
-0.248297
-0.244466
-0.238728
-0.23285
-0.274722
-0.27458
-0.27413
-0.273446
-0.272607
-0.271664
-0.270658
-0.269619
-0.268565
-0.267508
-0.266448
-0.265382
-0.264303
-0.263199
-0.262054
-0.260855
-0.259581
-0.25821
-0.256713
-0.255043
-0.253133
-0.25084
-0.247597
-0.241999
-0.235373
-0.277337
-0.277045
-0.276441
-0.275598
-0.274593
-0.273483
-0.272315
-0.271122
-0.269924
-0.268733
-0.267553
-0.266385
-0.265224
-0.264064
-0.262902
-0.261738
-0.260578
-0.259445
-0.258382
-0.257476
-0.256892
-0.256904
-0.257916
-0.261661
-0.274599
-0.280177
-0.279716
-0.278942
-0.277922
-0.276733
-0.275441
-0.274097
-0.272735
-0.271381
-0.270047
-0.268741
-0.267466
-0.266223
-0.265013
-0.263845
-0.262735
-0.261712
-0.260834
-0.260191
-0.259937
-0.260318
-0.261706
-0.264608
-0.270479
-0.284041
-0.283269
-0.282617
-0.281653
-0.280439
-0.27905
-0.27756
-0.276025
-0.274485
-0.272964
-0.27148
-0.270043
-0.26866
-0.267336
-0.266081
-0.264912
-0.263859
-0.26297
-0.262321
-0.262025
-0.262252
-0.263243
-0.26533
-0.26889
-0.274713
-0.285989
-0.286638
-0.285772
-0.284599
-0.283172
-0.281566
-0.279865
-0.278129
-0.276399
-0.274705
-0.273067
-0.271496
-0.270003
-0.268598
-0.267297
-0.266124
-0.265117
-0.264333
-0.263853
-0.263791
-0.264299
-0.265574
-0.267855
-0.271372
-0.276473
-0.285319
-0.290316
-0.289208
-0.287804
-0.286147
-0.28431
-0.282385
-0.280436
-0.278511
-0.276639
-0.274841
-0.273134
-0.271529
-0.270039
-0.268685
-0.267492
-0.266502
-0.26577
-0.265373
-0.265405
-0.265986
-0.26725
-0.269344
-0.272374
-0.276422
-0.282902
-0.294333
-0.292953
-0.291296
-0.289391
-0.287308
-0.285148
-0.282979
-0.280852
-0.278797
-0.276838
-0.27499
-0.273267
-0.271683
-0.270257
-0.269016
-0.267997
-0.267249
-0.266831
-0.266817
-0.267284
-0.268311
-0.269968
-0.272281
-0.275195
-0.279579
-0.298719
-0.297034
-0.295101
-0.292931
-0.290589
-0.288184
-0.285789
-0.283454
-0.281212
-0.279086
-0.27709
-0.275237
-0.27354
-0.272014
-0.270684
-0.269577
-0.268731
-0.268188
-0.267995
-0.268195
-0.268824
-0.269898
-0.2714
-0.273215
-0.275839
-0.303502
-0.301477
-0.299244
-0.296793
-0.294181
-0.291522
-0.288894
-0.286347
-0.283912
-0.28161
-0.279453
-0.277451
-0.275612
-0.273947
-0.272473
-0.271209
-0.270179
-0.269409
-0.268923
-0.26874
-0.268864
-0.269286
-0.269968
-0.270781
-0.271987
-0.308708
-0.306306
-0.30375
-0.301004
-0.29811
-0.29519
-0.292322
-0.289556
-0.286918
-0.284427
-0.282088
-0.279907
-0.277886
-0.276031
-0.27435
-0.272852
-0.271552
-0.270461
-0.269588
-0.268936
-0.268496
-0.268246
-0.268145
-0.268073
-0.268168
-0.314356
-0.31154
-0.30864
-0.305584
-0.302399
-0.29921
-0.296096
-0.2931
-0.290246
-0.287543
-0.284993
-0.282593
-0.28034
-0.278232
-0.276272
-0.274461
-0.272806
-0.271311
-0.269977
-0.268799
-0.267765
-0.266852
-0.266029
-0.265188
-0.264414
-0.320462
-0.317196
-0.313931
-0.310554
-0.307069
-0.303603
-0.300233
-0.296993
-0.2939
-0.290955
-0.288153
-0.285482
-0.282935
-0.280504
-0.278187
-0.275984
-0.273896
-0.271927
-0.270074
-0.268335
-0.266699
-0.265149
-0.263665
-0.262156
-0.260694
-0.327036
-0.323285
-0.319636
-0.315928
-0.312134
-0.308382
-0.304741
-0.301237
-0.297875
-0.294647
-0.291538
-0.288534
-0.285621
-0.28279
-0.280038
-0.277365
-0.274776
-0.272275
-0.269864
-0.267544
-0.26531
-0.263155
-0.261066
-0.258971
-0.256943
-0.334077
-0.329809
-0.325761
-0.321713
-0.317602
-0.313552
-0.309621
-0.305823
-0.30215
-0.298585
-0.295107
-0.291695
-0.288336
-0.285025
-0.28176
-0.278549
-0.2754
-0.272324
-0.269328
-0.26642
-0.263602
-0.260873
-0.258228
-0.255608
-0.253093
-0.341577
-0.336765
-0.332305
-0.32791
-0.323473
-0.319108
-0.314861
-0.31073
-0.306693
-0.302725
-0.2988
-0.294898
-0.291011
-0.287139
-0.283291
-0.27948
-0.275725
-0.272043
-0.268449
-0.264956
-0.261571
-0.258298
-0.255137
-0.252037
-0.249085
-0.349518
-0.344138
-0.339259
-0.33451
-0.329735
-0.325034
-0.320435
-0.315918
-0.311451
-0.307002
-0.302545
-0.298068
-0.293569
-0.289061
-0.284564
-0.280105
-0.27571
-0.271405
-0.267211
-0.263142
-0.259211
-0.255424
-0.251781
-0.248236
-0.244878
-0.357868
-0.351904
-0.346599
-0.341493
-0.336365
-0.331298
-0.3263
-0.321334
-0.316359
-0.311341
-0.306261
-0.301118
-0.295927
-0.290716
-0.28552
-0.280376
-0.275322
-0.270387
-0.265598
-0.260971
-0.256517
-0.252242
-0.248146
-0.244183
-0.240443
-0.366584
-0.360025
-0.354294
-0.348823
-0.343323
-0.337851
-0.332396
-0.326905
-0.321332
-0.31565
-0.309853
-0.30396
-0.298004
-0.292034
-0.286099
-0.280249
-0.274527
-0.268968
-0.263598
-0.258432
-0.25348
-0.248745
-0.244222
-0.239865
-0.235763
-0.375606
-0.368451
-0.362296
-0.356453
-0.350553
-0.344628
-0.338645
-0.332541
-0.326273
-0.319828
-0.313223
-0.306501
-0.29972
-0.292949
-0.286251
-0.279685
-0.273299
-0.267128
-0.261197
-0.255517
-0.250093
-0.244924
-0.24
-0.235271
-0.230829
-0.384862
-0.377116
-0.370541
-0.364316
-0.357983
-0.351545
-0.344952
-0.338137
-0.331071
-0.323765
-0.316267
-0.30865
-0.300998
-0.293397
-0.285925
-0.278647
-0.27161
-0.264848
-0.25838
-0.252213
-0.246345
-0.24077
-0.235471
-0.230391
-0.225631
-0.39426
-0.385938
-0.37895
-0.372328
-0.365519
-0.358498
-0.351203
-0.343574
-0.335607
-0.327349
-0.318884
-0.310318
-0.301762
-0.29332
-0.285078
-0.277101
-0.269436
-0.262109
-0.255133
-0.248507
-0.242224
-0.23627
-0.230622
-0.225216
-0.220162
-0.403696
-0.394818
-0.387426
-0.380387
-0.373052
-0.365366
-0.357269
-0.348722
-0.339755
-0.330462
-0.32097
-0.31142
-0.301947
-0.292666
-0.283667
-0.275016
-0.26675
-0.25889
-0.251437
-0.244384
-0.237715
-0.23141
-0.225441
-0.219732
-0.214412
-0.413046
-0.403644
-0.395855
-0.388375
-0.380451
-0.372013
-0.363011
-0.353441
-0.343385
-0.332991
-0.32243
-0.311877
-0.301486
-0.291382
-0.281654
-0.272359
-0.263528
-0.255168
-0.247273
-0.239825
-0.232801
-0.226176
-0.219912
-0.213926
-0.208369
-0.422173
-0.412284
-0.404107
-0.396152
-0.387573
-0.378289
-0.368278
-0.35759
-0.34637
-0.334823
-0.323169
-0.311613
-0.300322
-0.289424
-0.279001
-0.2691
-0.259741
-0.250919
-0.242617
-0.234809
-0.227462
-0.220546
-0.214017
-0.207781
-0.202017
-0.430925
-0.420593
-0.412034
-0.403568
-0.394258
-0.384032
-0.372915
-0.361025
-0.348582
-0.335853
-0.323103
-0.310559
-0.298399
-0.286745
-0.27567
-0.265208
-0.255363
-0.246119
-0.237448
-0.229313
-0.221677
-0.214503
-0.207738
-0.201279
-0.19534
-0.439137
-0.428412
-0.419476
-0.410456
-0.400338
-0.389078
-0.376766
-0.363607
-0.349902
-0.335982
-0.322149
-0.308651
-0.295665
-0.283304
-0.271626
-0.260649
-0.250363
-0.24074
-0.231739
-0.223315
-0.215424
-0.208024
-0.201054
-0.194401
-0.18832
-0.446636
-0.435573
-0.426263
-0.416641
-0.405638
-0.393256
-0.379676
-0.3652
-0.350217
-0.335117
-0.320236
-0.305831
-0.292073
-0.279059
-0.266833
-0.255393
-0.244715
-0.234756
-0.225466
-0.216791
-0.208681
-0.201089
-0.193945
-0.187128
-0.180938
-0.453239
-0.441897
-0.432213
-0.421941
-0.409977
-0.396398
-0.381493
-0.365676
-0.349421
-0.333174
-0.317296
-0.302044
-0.287576
-0.273974
-0.261258
-0.24941
-0.238389
-0.22814
-0.218603
-0.209717
-0.201425
-0.193676
-0.186391
-0.179441
-0.173176
-0.458759
-0.4472
-0.437142
-0.42617
-0.413179
-0.398342
-0.382078
-0.364918
-0.347421
-0.330079
-0.313269
-0.297241
-0.282135
-0.268011
-0.254868
-0.242669
-0.231357
-0.220867
-0.211128
-0.202071
-0.193635
-0.185766
-0.178373
-0.171323
-0.165018
-0.463011
-0.451297
-0.440863
-0.429145
-0.41507
-0.398933
-0.3813
-0.362819
-0.344131
-0.325765
-0.308102
-0.291378
-0.275712
-0.261138
-0.247633
-0.235143
-0.223595
-0.212913
-0.203017
-0.193832
-0.185293
-0.17734
-0.169876
-0.162758
-0.156449
-0.465811
-0.454005
-0.443194
-0.43069
-0.415486
-0.39803
-0.37904
-0.359286
-0.339478
-0.320173
-0.301748
-0.284417
-0.268273
-0.253324
-0.239527
-0.226807
-0.21508
-0.204256
-0.194251
-0.184983
-0.176382
-0.168385
-0.160884
-0.153733
-0.147455
-0.466979
-0.455145
-0.443956
-0.430633
-0.414277
-0.395503
-0.375194
-0.354237
-0.3334
-0.313255
-0.294167
-0.276323
-0.259789
-0.244544
-0.230524
-0.217639
-0.20579
-0.194879
-0.184814
-0.175508
-0.166888
-0.158887
-0.151386
-0.144238
-0.138027
-0.466347
-0.454549
-0.442984
-0.428821
-0.411304
-0.39124
-0.369675
-0.347604
-0.325844
-0.304971
-0.285326
-0.26707
-0.250234
-0.234775
-0.220605
-0.20762
-0.195709
-0.184766
-0.174692
-0.165396
-0.1568
-0.148836
-0.141375
-0.134265
-0.128158
-0.463761
-0.452059
-0.440124
-0.425112
-0.406449
-0.385145
-0.36241
-0.339335
-0.316772
-0.295289
-0.275202
-0.256635
-0.239591
-0.224
-0.209755
-0.196736
-0.184825
-0.173906
-0.163875
-0.154637
-0.146113
-0.138228
-0.130845
-0.123813
-0.117845
-0.459081
-0.447534
-0.43524
-0.419386
-0.399613
-0.377143
-0.353344
-0.32939
-0.306154
-0.284189
-0.263775
-0.245003
-0.227845
-0.212206
-0.197961
-0.184979
-0.173129
-0.162292
-0.152359
-0.143229
-0.134822
-0.127062
-0.119798
-0.112881
-0.107091
-0.452186
-0.440852
-0.428217
-0.411542
-0.390715
-0.367175
-0.342437
-0.317742
-0.293974
-0.271656
-0.251036
-0.232166
-0.214989
-0.199386
-0.185218
-0.172341
-0.160618
-0.149922
-0.14014
-0.13117
-0.12293
-0.115338
-0.108236
-0.101476
-0.0958992
-0.442976
-0.431912
-0.418959
-0.401502
-0.379698
-0.355204
-0.329667
-0.304381
-0.280224
-0.257689
-0.236982
-0.218122
-0.20102
-0.18554
-0.171526
-0.158824
-0.147291
-0.136797
-0.127223
-0.118466
-0.110441
-0.103065
-0.0961685
-0.0896062
-0.0842804
-0.431375
-0.420633
-0.407396
-0.389211
-0.366528
-0.341213
-0.315028
-0.289307
-0.26491
-0.242293
-0.22162
-0.202875
-0.185944
-0.170671
-0.156887
-0.144432
-0.133155
-0.122923
-0.113614
-0.105123
-0.0973649
-0.0902525
-0.083607
-0.0772864
-0.0722488
-0.417331
-0.406963
-0.393482
-0.37464
-0.351191
-0.325201
-0.298531
-0.272535
-0.248048
-0.225484
-0.204964
-0.18644
-0.169772
-0.154789
-0.141313
-0.129174
-0.118219
-0.10831
-0.0993239
-0.0911542
-0.0837146
-0.0769153
-0.0705683
-0.0645347
-0.0598229
-0.400816
-0.390873
-0.377196
-0.357781
-0.333697
-0.30719
-0.280203
-0.254095
-0.229667
-0.207287
-0.187037
-0.168835
-0.152522
-0.137911
-0.124817
-0.113063
-0.102495
-0.0929704
-0.084366
-0.0765734
-0.0695059
-0.0630711
-0.0570724
-0.0513736
-0.047025
-0.381829
-0.372358
-0.358543
-0.338653
-0.314074
-0.287217
-0.260085
-0.234027
-0.209804
-0.187737
-0.167868
-0.150087
-0.134216
-0.120058
-0.107418
-0.0961183
-0.0859998
-0.0769212
-0.0687567
-0.0613977
-0.0547574
-0.0487403
-0.0431427
-0.0378293
-0.0338816
-0.360396
-0.351444
-0.337554
-0.317299
-0.292376
-0.26534
-0.238234
-0.212385
-0.188509
-0.166878
-0.147498
-0.130232
-0.114887
-0.101256
-0.0891398
-0.0783591
-0.068753
-0.0601797
-0.0525134
-0.0456453
-0.0394884
-0.0339453
-0.0288055
-0.0239323
-0.0204258
-0.336567
-0.328178
-0.314283
-0.293782
-0.268674
-0.241632
-0.214721
-0.189237
-0.165843
-0.144765
-0.125974
-0.109311
-0.0945697
-0.0815364
-0.07001
-0.0598095
-0.0507747
-0.0427644
-0.0356533
-0.0293333
-0.0237179
-0.0187078
-0.0140875
-0.00971697
-0.0066995
-0.310418
-0.302634
-0.28881
-0.26819
-0.243057
-0.216183
-0.189633
-0.164661
-0.141877
-0.121462
-0.103354
-0.0873746
-0.0733085
-0.0609376
-0.0500599
-0.0404956
-0.0320863
-0.0246927
-0.0181915
-0.012476
-0.00746069
-0.00304566
0.000986297
0.00478055
0.0072521
-0.28205
-0.27491
-0.261237
-0.240628
-0.215634
-0.189097
-0.163067
-0.138748
-0.116695
-0.0970429
-0.0797028
-0.0644812
-0.0511542
-0.0395021
-0.0293248
-0.0204451
-0.0127084
-0.00597923
-0.000137739
0.00491957
0.00927647
0.0130312
0.0163975
0.019529
0.0214002
-0.251584
-0.245126
-0.231688
-0.211224
-0.18653
-0.160495
-0.135136
-0.111601
-0.0903882
-0.0715925
-0.0550979
-0.0406983
-0.0281652
-0.0172796
-0.00784445
0.000312271
0.0073395
0.0133667
0.0185075
0.0228601
0.0265042
0.0295321
0.0321475
0.0345236
0.0357556
-0.219165
-0.213424
-0.200305
-0.18012
-0.155885
-0.130509
-0.105964
-0.0833346
-0.0630633
-0.0452065
-0.0296254
-0.0161036
-0.00441008
0.00567187
0.0143341
0.021742
0.0280368
0.0333392
0.0377538
0.0413695
0.0442579
0.0465005
0.0482838
0.0498088
0.0503357
-0.184954
-0.179962
-0.167247
-0.147475
-0.123852
-0.0992838
-0.0756855
-0.0540735
-0.0348355
-0.0179916
-0.00338328
0.00921393
0.0200318
0.0292833
0.0371541
0.0438013
0.0493562
0.0539284
0.0576088
0.0604716
0.062577
0.0639918
0.0648647
0.0653835
0.064967
-0.149133
-0.144919
-0.132692
-0.113462
-0.0905961
-0.0669763
-0.0444466
-0.0239536
-0.00583122
0.00993429
0.0235188
0.0351529
0.0450683
0.0534738
0.060548
0.066439
0.0712668
0.0751256
0.0780852
0.0801961
0.0815013
0.08204
0.081846
0.0809588
0.0790803
-0.111895
-0.108484
-0.0968279
-0.0782643
-0.0562938
-0.0337516
-0.0124022
0.00687994
0.0238132
0.0384424
0.0509588
0.0615982
0.070592
0.0781456
0.0844325
0.0895941
0.0937406
0.0969507
0.0992685
0.100713
0.101302
0.100996
0.099529
0.0965897
0.0927456
-0.0734481
-0.0708634
-0.0598555
-0.0420767
-0.0211292
0.000217027
0.0202854
0.0382744
0.0539528
0.067394
0.0788026
0.088419
0.0964746
0.103174
0.108689
0.113161
0.116702
0.119389
0.121263
0.122347
0.122669
0.122102
0.119933
0.115446
0.110705
-0.0340125
-0.0322703
-0.0219843
-0.00510021
0.0147072
0.0347509
0.0534482
0.0700713
0.0844363
0.0966428
0.106906
0.115471
0.122569
0.128402
0.133146
0.136947
0.139924
0.142176
0.143777
0.144822
0.145461
0.145648
0.144488
0.14145
0.143753
0.00619349
0.00707747
0.0165723
0.0324599
0.0510214
0.0696675
0.0869151
0.102108
0.115109
0.126039
0.135123
0.142607
0.148721
0.153667
0.157619
0.160724
0.163107
0.164874
0.166119
0.166965
0.167574
0.167923
0.167505
0.166742
0.171256
0.0469375
0.0469523
0.0555934
0.0703934
0.0876157
0.104783
0.120513
0.134223
0.145815
0.155432
0.163306
0.169681
0.174785
0.178817
0.181949
0.184327
0.186079
0.187313
0.188132
0.188658
0.189031
0.189225
0.188879
0.188487
0.192482
0.0879853
0.0871245
0.0948569
0.108489
0.124293
0.139912
0.154071
0.166254
0.176403
0.184677
0.191312
0.196552
0.200619
0.203709
0.205987
0.207597
0.208663
0.209292
0.209585
0.209658
0.209634
0.209495
0.208937
0.208359
0.211407
0.129102
0.127364
0.13414
0.146537
0.160855
0.174872
0.187417
0.198041
0.206721
0.21363
0.219007
0.223091
0.226099
0.228219
0.229612
0.230415
0.230747
0.230707
0.230391
0.229901
0.229342
0.228687
0.227657
0.226628
0.228771
0.170054
0.16744
0.173222
0.184328
0.19711
0.209485
0.220386
0.22943
0.236625
0.242156
0.246261
0.249175
0.251108
0.252239
0.252723
0.252689
0.252248
0.251493
0.250509
0.249388
0.248218
0.246958
0.245353
0.243774
0.245044
0.210609
0.207125
0.211884
0.221657
0.232867
0.243574
0.252816
0.260271
0.265975
0.270124
0.272953
0.274692
0.275541
0.275673
0.275233
0.274342
0.273103
0.271602
0.269914
0.26812
0.266294
0.264386
0.262165
0.260009
0.260444
0.250538
0.246196
0.249912
0.258323
0.26794
0.276968
0.284549
0.290418
0.294638
0.29741
0.298969
0.299535
0.299302
0.298433
0.297064
0.295308
0.29326
0.290999
0.28859
0.286107
0.283608
0.281041
0.2782
0.275465
0.2751
0.289619
0.284434
0.287096
0.294132
0.302148
0.309502
0.315434
0.319732
0.322484
0.323896
0.324199
0.323606
0.3223
0.320438
0.318145
0.315528
0.312672
0.309649
0.306518
0.303343
0.300175
0.296955
0.293507
0.290207
0.289074
0.327634
0.321626
0.323235
0.328894
0.33532
0.341016
0.345323
0.348078
0.349389
0.349468
0.348539
0.346808
0.34445
0.341611
0.338409
0.334943
0.331291
0.327516
0.323674
0.319819
0.315993
0.312141
0.308108
0.304259
0.302389
0.364375
0.357569
0.358134
0.362429
0.367286
0.371358
0.374077
0.375327
0.375237
0.374018
0.371891
0.369053
0.36567
0.361879
0.357792
0.353497
0.349068
0.344562
0.340027
0.335511
0.33105
0.32659
0.321998
0.317624
0.315047
0.399641
0.392065
0.391606
0.394562
0.397889
0.400382
0.401562
0.401358
0.399913
0.397442
0.394158
0.390252
0.38588
0.381171
0.376228
0.371135
0.365956
0.360744
0.355542
0.350391
0.345322
0.340284
0.335163
0.330286
0.327033
0.43324
0.424929
0.423474
0.425129
0.426976
0.427948
0.427651
0.426052
0.423311
0.419641
0.415251
0.410323
0.405004
0.399417
0.393656
0.387798
0.381904
0.376018
0.370179
0.364425
0.358779
0.353194
0.347577
0.342223
0.338325
0.464991
0.455981
0.453569
0.453974
0.454404
0.453926
0.452223
0.4493
0.445328
0.440521
0.435083
0.429185
0.42297
0.41655
0.410014
0.403433
0.39686
0.390337
0.383898
0.377575
0.371386
0.36529
0.359208
0.353405
0.348896
0.494723
0.485057
0.481733
0.480951
0.480039
0.478192
0.475165
0.470997
0.465869
0.459995
0.453571
0.446764
0.439707
0.432506
0.425244
0.417984
0.410776
0.403657
0.396656
0.389801
0.383106
0.376536
0.370023
0.363799
0.358716
0.522278
0.512002
0.507822
0.505923
0.503756
0.500632
0.496372
0.491045
0.484843
0.477977
0.47064
0.462988
0.45515
0.447225
0.439288
0.431399
0.423602
0.415931
0.408411
0.401064
0.393903
0.386895
0.379987
0.373374
0.367756
0.547508
0.536672
0.531698
0.528767
0.525441
0.52114
0.515746
0.509355
0.502167
0.494392
0.486216
0.477791
0.469237
0.460647
0.452092
0.443627
0.435292
0.427116
0.41912
0.411325
0.403738
0.396333
0.389065
0.382095
0.375984
0.570282
0.558937
0.553239
0.549366
0.544986
0.539618
0.533198
0.525845
0.517766
0.509169
0.500235
0.491111
0.48191
0.47272
0.463608
0.454623
0.445802
0.43717
0.428747
0.420547
0.412578
0.404816
0.397226
0.389933
0.383374
0.590477
0.57868
0.572334
0.56762
0.5623
0.555981
0.548647
0.54044
0.531569
0.522243
0.512637
0.502892
0.493117
0.483395
0.473789
0.464343
0.455091
0.446056
0.437254
0.428696
0.420388
0.412311
0.404437
0.396857
0.3899
0.607987
0.595798
0.588886
0.583436
0.577297
0.570151
0.562024
0.553074
0.543516
0.533557
0.523368
0.513085
0.502812
0.492629
0.482594
0.472748
0.463123
0.453739
0.444608
0.435741
0.42714
0.418791
0.410672
0.402843
0.395537
0.622721
0.610201
0.602809
0.596737
0.589906
0.582062
0.573266
0.56369
0.553554
0.543061
0.532381
0.521645
0.510954
0.500383
0.489986
0.479805
0.469866
0.460188
0.450781
0.441654
0.432807
0.42423
0.415905
0.407865
0.400266
0.634601
0.621813
0.614032
0.607456
0.600065
0.591658
0.582321
0.572241
0.561637
0.550715
0.539639
0.528537
0.517508
0.506624
0.495937
0.485484
0.475292
0.465377
0.455749
0.446412
0.437367
0.428606
0.420115
0.411906
0.404068
0.643565
0.630574
0.622499
0.615541
0.607726
0.598893
0.589148
0.578686
0.567731
0.556483
0.545108
0.533731
0.522447
0.511326
0.50042
0.489763
0.47938
0.469287
0.45949
0.449995
0.440801
0.431902
0.423286
0.414949
0.406931
0.649565
0.636439
0.628166
0.620952
0.612852
0.603733
0.593715
0.582998
0.571806
0.560341
0.548765
0.537203
0.525749
0.51447
0.503416
0.492623
0.482112
0.471899
0.461991
0.45239
0.443096
0.434105
0.425405
0.416982
0.408843
0.652571
0.639376
0.631003
0.623661
0.615419
0.606156
0.596001
0.585155
0.573845
0.562271
0.550595
0.53894
0.5274
0.516042
0.504914
0.494052
0.483478
0.473205
0.46324
0.453586
0.444242
0.435205
0.426463
0.417996
0.409797
0.652565
0.639371
0.630998
0.623655
0.615413
0.60615
0.595995
0.585149
0.573838
0.562264
0.550588
0.538933
0.527393
0.516035
0.504907
0.494045
0.48347
0.473197
0.463233
0.453579
0.444235
0.435197
0.426456
0.417989
0.409789
0.649549
0.636422
0.628149
0.620935
0.612835
0.603715
0.593697
0.582979
0.571786
0.560321
0.548745
0.537183
0.525728
0.514449
0.503395
0.492601
0.48209
0.471877
0.461969
0.452368
0.443074
0.434082
0.425383
0.416959
0.40882
0.643538
0.630547
0.622471
0.615513
0.607697
0.598863
0.589117
0.578655
0.567698
0.55645
0.545074
0.533696
0.522412
0.511291
0.500384
0.489727
0.479344
0.46925
0.459453
0.449958
0.440764
0.431865
0.423249
0.414911
0.406894
0.634563
0.621773
0.613992
0.607416
0.600023
0.591615
0.582278
0.572196
0.561592
0.550668
0.539591
0.528489
0.517459
0.506574
0.495886
0.485433
0.475241
0.465326
0.455697
0.44636
0.437315
0.428554
0.420062
0.411853
0.404016
0.622671
0.610149
0.602756
0.596683
0.589851
0.582006
0.573209
0.563632
0.553494
0.543001
0.532319
0.521582
0.51089
0.500318
0.489921
0.479739
0.469799
0.460121
0.450714
0.441586
0.432739
0.424162
0.415836
0.407797
0.400198
0.607925
0.595733
0.588819
0.583369
0.577229
0.570082
0.561953
0.553001
0.543442
0.533481
0.523291
0.513007
0.502733
0.492549
0.482513
0.472667
0.463041
0.453656
0.444525
0.435658
0.427057
0.418708
0.410588
0.402759
0.395454
0.5904
0.5786
0.572253
0.567538
0.562217
0.555897
0.548562
0.540352
0.53148
0.522152
0.512545
0.502799
0.493023
0.4833
0.473692
0.464246
0.454993
0.445958
0.437155
0.428597
0.420289
0.412212
0.404337
0.396758
0.389801
0.570189
0.558841
0.553142
0.549269
0.544888
0.539518
0.533096
0.525742
0.517661
0.509062
0.500127
0.491002
0.481799
0.472608
0.463495
0.45451
0.445688
0.437055
0.428632
0.420432
0.412462
0.4047
0.39711
0.389817
0.38326
0.547399
0.536558
0.531584
0.528652
0.525325
0.521023
0.515627
0.509235
0.502045
0.494269
0.486091
0.477665
0.469109
0.460518
0.451963
0.443497
0.435161
0.426984
0.418988
0.411193
0.403606
0.396201
0.388933
0.381963
0.375853
0.52215
0.511869
0.507688
0.50579
0.503623
0.500497
0.496235
0.490907
0.484703
0.477836
0.470497
0.462845
0.455005
0.447078
0.439141
0.431251
0.423454
0.415782
0.408261
0.400914
0.393753
0.386746
0.379837
0.373224
0.367608
0.494574
0.484904
0.48158
0.480797
0.479885
0.478038
0.475009
0.47084
0.46571
0.459835
0.45341
0.446602
0.439544
0.432342
0.425078
0.417818
0.410609
0.40349
0.396489
0.389634
0.382939
0.376369
0.369856
0.363633
0.358552
0.464819
0.455805
0.453392
0.453798
0.454229
0.453751
0.452047
0.449123
0.445149
0.440342
0.434902
0.429003
0.422787
0.416366
0.40983
0.403248
0.396675
0.390152
0.383713
0.377389
0.371201
0.365105
0.359023
0.35322
0.348714
0.433043
0.424727
0.423272
0.424929
0.426777
0.42775
0.427452
0.425853
0.423111
0.41944
0.415049
0.41012
0.404801
0.399213
0.393452
0.387594
0.381699
0.375813
0.369974
0.364221
0.358575
0.352991
0.347373
0.34202
0.338126
0.399417
0.391837
0.391378
0.394336
0.397665
0.400159
0.40134
0.401136
0.39969
0.397218
0.393934
0.390027
0.385655
0.380946
0.376003
0.370909
0.365731
0.360519
0.355317
0.350167
0.345099
0.340061
0.334941
0.330065
0.326815
0.364122
0.35731
0.357877
0.362175
0.367035
0.371109
0.373829
0.37508
0.37499
0.373771
0.371643
0.368805
0.365422
0.361632
0.357544
0.35325
0.348822
0.344316
0.339781
0.335266
0.330806
0.326347
0.321756
0.317383
0.31481
0.327348
0.321335
0.322946
0.328609
0.335039
0.340739
0.345047
0.347804
0.349116
0.349195
0.348267
0.346536
0.344179
0.34134
0.338139
0.334673
0.331021
0.327248
0.323407
0.319553
0.315728
0.311877
0.307845
0.303998
0.302133
0.289297
0.284107
0.286772
0.293814
0.301836
0.309193
0.315129
0.319429
0.322183
0.323596
0.3239
0.323308
0.322004
0.320142
0.31785
0.315234
0.31238
0.309358
0.306228
0.303055
0.299888
0.296671
0.293224
0.289925
0.288797
0.250179
0.245831
0.249551
0.25797
0.267593
0.276627
0.284213
0.290085
0.294307
0.297082
0.298642
0.29921
0.298979
0.298111
0.296744
0.29499
0.292944
0.290683
0.288277
0.285795
0.283299
0.280734
0.277895
0.275162
0.274802
0.210208
0.206719
0.211483
0.221265
0.232484
0.243198
0.252446
0.259905
0.265614
0.269765
0.272597
0.274338
0.27519
0.275324
0.274886
0.273997
0.272761
0.271262
0.269576
0.267785
0.265961
0.264056
0.261837
0.259683
0.260124
0.16961
0.16699
0.172779
0.183895
0.196688
0.209072
0.219981
0.22903
0.23623
0.241765
0.245874
0.248791
0.250727
0.251862
0.252349
0.252317
0.251879
0.251127
0.250146
0.249027
0.247861
0.246603
0.245001
0.243425
0.244701
0.128611
0.126868
0.133651
0.146061
0.160392
0.17442
0.186974
0.197605
0.206291
0.213206
0.218587
0.222676
0.225688
0.227812
0.229208
0.230015
0.230349
0.230314
0.23
0.229513
0.228959
0.228307
0.22728
0.226253
0.228404
0.0874444
0.086579
0.0943197
0.107966
0.123785
0.139417
0.153587
0.16578
0.175936
0.184217
0.190859
0.196104
0.200176
0.20327
0.205552
0.207166
0.208236
0.208869
0.209166
0.209243
0.209223
0.209088
0.208533
0.207959
0.211015
0.0463438
0.0463543
0.0550051
0.0698216
0.0870612
0.104244
0.119988
0.133709
0.145311
0.154936
0.162816
0.169198
0.174308
0.178345
0.181482
0.183866