/*--------------------------------*- C++ -*----------------------------------*\
  =========                 |
  \\      /  F ield         | OpenFOAM: The Open Source CFD Toolbox
   \\    /   O peration     | Website:  https://openfoam.org
    \\  /    A nd           | Version:  6.0
     \\/     M anipulation  |
\*---------------------------------------------------------------------------*/
FoamFile
{
    version     2.0;
    format      ascii;
    class       volScalarField;
    location    "54";
    object      p;
}
// * * * * * * * * * * * * * * * * * * * * * * * * * * * * * * * * * * * * * //

dimensions      [0 2 -2 0 0 0 0];

internalField   nonuniform List<scalar> 
4000
(
-0.247471
-0.248335
-0.248906
-0.249319
-0.249661
-0.249944
-0.250179
-0.250378
-0.250551
-0.250702
-0.250837
-0.250961
-0.251079
-0.251195
-0.251312
-0.25144
-0.251581
-0.251691
-0.251745
-0.252209
-0.247293
-0.248155
-0.24872
-0.249126
-0.249457
-0.249727
-0.249947
-0.250129
-0.250282
-0.250411
-0.250522
-0.250621
-0.250711
-0.250797
-0.250884
-0.25098
-0.251087
-0.251162
-0.251181
-0.251605
-0.24721
-0.248069
-0.248628
-0.249023
-0.249339
-0.249591
-0.24979
-0.249948
-0.250074
-0.250174
-0.250254
-0.250319
-0.250374
-0.250423
-0.250472
-0.250528
-0.250595
-0.25063
-0.250607
-0.250988
-0.247223
-0.24808
-0.248631
-0.249012
-0.24931
-0.249538
-0.24971
-0.249838
-0.24993
-0.249993
-0.250034
-0.250058
-0.25007
-0.250073
-0.250075
-0.250084
-0.250105
-0.250093
-0.250022
-0.250357
-0.247336
-0.248193
-0.248733
-0.249097
-0.249371
-0.249571
-0.24971
-0.2498
-0.249851
-0.24987
-0.249864
-0.249837
-0.249796
-0.249746
-0.249692
-0.249646
-0.249611
-0.249546
-0.249419
-0.249706
-0.247554
-0.24841
-0.248939
-0.249281
-0.249527
-0.249693
-0.249791
-0.249837
-0.249839
-0.249806
-0.249743
-0.249658
-0.249554
-0.249439
-0.24932
-0.249208
-0.249109
-0.248981
-0.248791
-0.249028
-0.247883
-0.248739
-0.249253
-0.24957
-0.249783
-0.249908
-0.24996
-0.249954
-0.249899
-0.249805
-0.249676
-0.249521
-0.249344
-0.249153
-0.248956
-0.248766
-0.248591
-0.24839
-0.248127
-0.248311
-0.248331
-0.249185
-0.249682
-0.249969
-0.250143
-0.250221
-0.250219
-0.250154
-0.250035
-0.24987
-0.249667
-0.24943
-0.249169
-0.248888
-0.248599
-0.248317
-0.248052
-0.247764
-0.247416
-0.247542
-0.248908
-0.249758
-0.250233
-0.250485
-0.250613
-0.250638
-0.250577
-0.250445
-0.250254
-0.250011
-0.249722
-0.249394
-0.249034
-0.24865
-0.248252
-0.24786
-0.247486
-0.247093
-0.246643
-0.246706
-0.249625
-0.250466
-0.250913
-0.251124
-0.251201
-0.251166
-0.251039
-0.250835
-0.250564
-0.250235
-0.249853
-0.249423
-0.248951
-0.248447
-0.247923
-0.247398
-0.246893
-0.246369
-0.245794
-0.245783
-0.250496
-0.25132
-0.251732
-0.251894
-0.251912
-0.251812
-0.251612
-0.251331
-0.250976
-0.250555
-0.250072
-0.249531
-0.248936
-0.248296
-0.247624
-0.246943
-0.246277
-0.245589
-0.244854
-0.244751
-0.251535
-0.25233
-0.252698
-0.252803
-0.252755
-0.252582
-0.252305
-0.251941
-0.251499
-0.250983
-0.250395
-0.249735
-0.249008
-0.248218
-0.247378
-0.246512
-0.245648
-0.244754
-0.243808
-0.24358
-0.252754
-0.253507
-0.253819
-0.253857
-0.253734
-0.253482
-0.253122
-0.252673
-0.252141
-0.251528
-0.250834
-0.250054
-0.249188
-0.248237
-0.247209
-0.246129
-0.245028
-0.24387
-0.242643
-0.242238
-0.254167
-0.254862
-0.255104
-0.255062
-0.254854
-0.254514
-0.254066
-0.253528
-0.252905
-0.252196
-0.251397
-0.250499
-0.249493
-0.248375
-0.247146
-0.245825
-0.244441
-0.242954
-0.241348
-0.240679
-0.255789
-0.256403
-0.256559
-0.256424
-0.256117
-0.255679
-0.255135
-0.254502
-0.253787
-0.252984
-0.252083
-0.25107
-0.24993
-0.248645
-0.247208
-0.245625
-0.243919
-0.242028
-0.239919
-0.238855
-0.25763
-0.258142
-0.258192
-0.257946
-0.257525
-0.256974
-0.256323
-0.255589
-0.254776
-0.253877
-0.252878
-0.251757
-0.250489
-0.249046
-0.247402
-0.245549
-0.243491
-0.241131
-0.238378
-0.236733
-0.259704
-0.260089
-0.260011
-0.259633
-0.259077
-0.258396
-0.257621
-0.256772
-0.255853
-0.254853
-0.253755
-0.25253
-0.251145
-0.249557
-0.247724
-0.245613
-0.243202
-0.240349
-0.23684
-0.234366
-0.262026
-0.262258
-0.262026
-0.26149
-0.260776
-0.25994
-0.259022
-0.25804
-0.257
-0.255889
-0.254687
-0.25336
-0.251868
-0.250156
-0.248161
-0.245821
-0.243083
-0.239742
-0.235368
-0.231668
-0.264613
-0.264663
-0.264249
-0.263528
-0.262626
-0.26161
-0.260522
-0.259385
-0.258203
-0.256968
-0.255656
-0.254235
-0.25266
-0.250869
-0.248783
-0.246301
-0.243304
-0.239441
-0.23387
-0.228153
-0.267489
-0.267326
-0.266699
-0.265761
-0.26464
-0.263413
-0.262127
-0.260809
-0.259468
-0.258095
-0.256676
-0.255186
-0.253593
-0.251862
-0.24994
-0.247766
-0.245225
-0.241857
-0.236454
-0.23016
-0.270684
-0.270273
-0.2694
-0.268211
-0.266838
-0.265369
-0.263857
-0.262335
-0.260814
-0.259296
-0.257774
-0.256247
-0.254718
-0.253215
-0.251807
-0.250648
-0.250023
-0.250391
-0.253419
-0.266151
-0.274235
-0.27354
-0.272383
-0.270909
-0.269252
-0.267511
-0.265747
-0.263999
-0.262284
-0.260611
-0.258989
-0.257435
-0.255985
-0.254716
-0.253764
-0.253371
-0.253931
-0.256025
-0.260924
-0.273406
-0.27819
-0.277166
-0.275687
-0.273894
-0.271922
-0.269882
-0.267846
-0.265856
-0.263937
-0.262107
-0.260385
-0.258807
-0.257432
-0.256363
-0.255762
-0.255876
-0.257057
-0.259755
-0.26461
-0.274306
-0.2826
-0.281197
-0.279357
-0.277212
-0.274897
-0.272538
-0.270214
-0.267972
-0.265843
-0.263851
-0.262025
-0.260411
-0.259077
-0.258132
-0.257725
-0.258061
-0.259392
-0.261991
-0.266135
-0.273068
-0.287522
-0.285684
-0.283442
-0.280914
-0.278234
-0.275537
-0.272913
-0.270411
-0.268064
-0.265901
-0.263954
-0.262266
-0.260906
-0.259965
-0.259561
-0.259834
-0.260929
-0.262968
-0.266045
-0.270448
-0.293012
-0.290678
-0.287993
-0.285055
-0.281988
-0.278941
-0.276006
-0.273234
-0.270657
-0.2683
-0.26619
-0.264366
-0.262881
-0.2618
-0.261203
-0.261166
-0.261753
-0.26299
-0.264894
-0.267243
-0.299123
-0.296229
-0.29306
-0.289688
-0.286217
-0.282808
-0.27955
-0.276492
-0.273657
-0.271063
-0.268727
-0.266675
-0.26494
-0.263563
-0.262586
-0.262043
-0.261947
-0.262274
-0.263018
-0.263761
-0.305902
-0.30238
-0.298691
-0.294862
-0.290974
-0.287187
-0.283589
-0.280214
-0.277076
-0.274178
-0.271525
-0.269127
-0.267001
-0.265168
-0.263648
-0.262449
-0.261563
-0.260958
-0.260617
-0.260131
-0.313385
-0.309169
-0.304924
-0.300622
-0.2963
-0.292118
-0.288148
-0.284409
-0.280897
-0.2776
-0.274511
-0.271629
-0.268961
-0.266521
-0.264317
-0.262354
-0.260623
-0.259101
-0.257768
-0.256309
-0.321591
-0.316619
-0.31179
-0.306998
-0.302226
-0.297618
-0.293229
-0.289053
-0.285068
-0.281249
-0.277582
-0.274065
-0.270707
-0.267522
-0.264525
-0.261726
-0.259125
-0.256715
-0.254478
-0.252201
-0.330522
-0.324739
-0.319304
-0.314008
-0.30876
-0.303682
-0.298801
-0.294087
-0.289499
-0.28501
-0.28061
-0.276306
-0.272119
-0.268077
-0.264207
-0.260529
-0.257057
-0.253794
-0.250722
-0.247717
-0.340154
-0.333517
-0.327459
-0.321643
-0.315884
-0.31027
-0.304797
-0.299412
-0.294067
-0.288744
-0.28345
-0.278215
-0.273083
-0.2681
-0.263308
-0.258736
-0.254406
-0.250329
-0.24648
-0.242795
-0.350439
-0.342917
-0.336226
-0.32987
-0.323548
-0.317306
-0.311109
-0.304891
-0.298614
-0.292286
-0.285948
-0.279661
-0.273497
-0.26752
-0.261785
-0.256326
-0.251167
-0.246315
-0.241738
-0.23741
-0.361295
-0.352872
-0.345544
-0.338619
-0.33166
-0.324667
-0.317584
-0.31035
-0.30296
-0.295464
-0.28795
-0.28052
-0.273269
-0.266278
-0.259605
-0.253285
-0.247333
-0.241753
-0.236494
-0.231558
-0.372605
-0.363285
-0.355316
-0.34778
-0.340085
-0.332188
-0.324033
-0.315589
-0.306907
-0.298101
-0.289313
-0.28068
-0.272322
-0.264323
-0.25674
-0.249598
-0.242901
-0.23664
-0.230747
-0.225245
-0.384213
-0.374016
-0.365405
-0.357197
-0.348639
-0.33966
-0.330231
-0.320385
-0.310253
-0.300026
-0.2899
-0.280044
-0.270588
-0.261613
-0.253164
-0.24525
-0.237862
-0.230973
-0.224494
-0.218476
-0.395923
-0.384887
-0.375628
-0.366668
-0.357094
-0.346836
-0.335929
-0.324505
-0.312799
-0.301079
-0.28959
-0.278524
-0.268006
-0.258106
-0.248847
-0.24022
-0.232198
-0.224737
-0.217727
-0.211247
-0.4075
-0.395679
-0.385761
-0.375947
-0.365183
-0.35344
-0.340864
-0.327718
-0.314352
-0.30111
-0.288274
-0.276039
-0.264518
-0.253756
-0.243754
-0.23448
-0.225887
-0.217915
-0.210428
-0.203549
-0.418667
-0.406133
-0.395534
-0.384745
-0.372605
-0.359178
-0.344769
-0.329799
-0.314734
-0.299984
-0.28585
-0.272514
-0.260065
-0.24852
-0.237848
-0.227996
-0.2189
-0.210477
-0.202574
-0.195359
-0.429118
-0.415951
-0.404642
-0.39274
-0.379037
-0.363749
-0.347385
-0.330538
-0.313785
-0.29758
-0.282225
-0.267878
-0.25459
-0.242346
-0.231085
-0.22073
-0.211199
-0.202393
-0.194135
-0.186654
-0.438107
-0.424872
-0.413469
-0.40141
-0.387476
-0.371902
-0.355218
-0.338043
-0.320966
-0.304455
-0.288812
-0.274196
-0.26066
-0.248184
-0.236706
-0.226146
-0.216423
-0.207433
-0.198999
-0.191353
-0.427707
-0.4151
-0.404416
-0.393489
-0.381148
-0.367463
-0.352759
-0.337476
-0.322096
-0.307042
-0.292618
-0.27901
-0.266306
-0.254522
-0.243626
-0.233562
-0.224264
-0.21565
-0.207563
-0.200175
-0.416562
-0.404665
-0.394667
-0.384736
-0.373799
-0.361829
-0.348985
-0.335548
-0.321881
-0.308341
-0.295218
-0.28271
-0.270929
-0.259924
-0.249691
-0.240197
-0.231395
-0.223223
-0.215544
-0.208482
-0.404983
-0.393865
-0.384533
-0.375472
-0.365752
-0.355299
-0.344155
-0.332466
-0.320478
-0.308473
-0.296704
-0.285366
-0.274587
-0.264439
-0.254943
-0.24609
-0.237851
-0.230183
-0.222972
-0.2163
-0.393248
-0.382965
-0.374284
-0.36599
-0.357309
-0.348167
-0.338534
-0.328453
-0.318065
-0.307571
-0.297176
-0.287054
-0.277338
-0.268113
-0.259422
-0.251276
-0.243664
-0.236559
-0.229872
-0.223652
-0.381595
-0.372187
-0.364151
-0.356539
-0.348743
-0.340711
-0.332386
-0.32374
-0.314831
-0.305782
-0.296741
-0.287853
-0.279241
-0.270993
-0.263166
-0.255786
-0.248859
-0.242374
-0.236263
-0.23055
-0.370224
-0.361713
-0.354318
-0.347327
-0.340283
-0.333181
-0.32596
-0.318559
-0.310975
-0.303264
-0.295521
-0.287851
-0.280356
-0.27312
-0.266203
-0.259642
-0.253454
-0.247641
-0.242155
-0.236999
-0.359295
-0.351684
-0.344928
-0.338511
-0.332118
-0.325789
-0.319483
-0.313131
-0.306696
-0.300187
-0.293646
-0.287143
-0.28075
-0.274538
-0.268561
-0.262861
-0.257459
-0.252368
-0.247554
-0.242996
-0.348928
-0.342203
-0.33608
-0.330207
-0.324387
-0.318704
-0.313148
-0.307661
-0.302194
-0.296725
-0.291262
-0.285838
-0.280499
-0.275295
-0.270269
-0.265457
-0.260882
-0.256557
-0.252461
-0.248536
-0.339208
-0.33334
-0.327839
-0.322487
-0.317186
-0.312053
-0.307111
-0.302325
-0.297649
-0.293052
-0.288519
-0.284059
-0.279692
-0.275449
-0.271358
-0.267446
-0.263726
-0.260209
-0.256879
-0.253622
-0.330189
-0.325133
-0.320239
-0.315391
-0.310569
-0.305917
-0.301485
-0.297264
-0.293222
-0.289331
-0.285571
-0.281935
-0.27843
-0.27507
-0.271871
-0.268846
-0.266
-0.263329
-0.26082
-0.258279
-0.321897
-0.317599
-0.313286
-0.308928
-0.304559
-0.30034
-0.296343
-0.292581
-0.289042
-0.285708
-0.282564
-0.279602
-0.276825
-0.274241
-0.27186
-0.269686
-0.267713
-0.265925
-0.264305
-0.262561
-0.314334
-0.310729
-0.30697
-0.303084
-0.29915
-0.295333
-0.291719
-0.28834
-0.285202
-0.2823
-0.27963
-0.277192
-0.274996
-0.273056
-0.271388
-0.269997
-0.268879
-0.268003
-0.267358
-0.266557
-0.307481
-0.304503
-0.301263
-0.297832
-0.294317
-0.290882
-0.287619
-0.284572
-0.28176
-0.279192
-0.276874
-0.274822
-0.273058
-0.271613
-0.270522
-0.269813
-0.269497
-0.269551
-0.269971
-0.270357
-0.301305
-0.298884
-0.296125
-0.293128
-0.290018
-0.286951
-0.28402
-0.281274
-0.27874
-0.276435
-0.274375
-0.272588
-0.271114
-0.270006
-0.269332
-0.26916
-0.269546
-0.270511
-0.272074
-0.274009
-0.295759
-0.293828
-0.29151
-0.288924
-0.286203
-0.283493
-0.280881
-0.278419
-0.276134
-0.274046
-0.272177
-0.270561
-0.269249
-0.268321
-0.267881
-0.268053
-0.268971
-0.270747
-0.27347
-0.277392
-0.290787
-0.289282
-0.287365
-0.285164
-0.282815
-0.280448
-0.278147
-0.275959
-0.273908
-0.272012
-0.270291
-0.268777
-0.267527
-0.266633
-0.266229
-0.266502
-0.267686
-0.27004
-0.273823
-0.280206
-0.286327
-0.285192
-0.283636
-0.281791
-0.279791
-0.277754
-0.275754
-0.273831
-0.272007
-0.270292
-0.268698
-0.267246
-0.265985
-0.265001
-0.264441
-0.264529
-0.265599
-0.268076
-0.272567
-0.281657
-0.282316
-0.281502
-0.280268
-0.278748
-0.277073
-0.275346
-0.273632
-0.271966
-0.270362
-0.268823
-0.267348
-0.265943
-0.264633
-0.263479
-0.2626
-0.262217
-0.262698
-0.264595
-0.26911
-0.280917
-0.278695
-0.278158
-0.27721
-0.275983
-0.274603
-0.273161
-0.271714
-0.27029
-0.268897
-0.26753
-0.266174
-0.264815
-0.263448
-0.262085
-0.260778
-0.259663
-0.258999
-0.259207
-0.26185
-0.273879
-0.275409
-0.275114
-0.274416
-0.273449
-0.272333
-0.271148
-0.269942
-0.268739
-0.267541
-0.266336
-0.265099
-0.263795
-0.262384
-0.260815
-0.259026
-0.256939
-0.254431
-0.251025
-0.245438
-0.238944
-0.272412
-0.272329
-0.271849
-0.271109
-0.270224
-0.269265
-0.268271
-0.267264
-0.266242
-0.265189
-0.264074
-0.262854
-0.261476
-0.259866
-0.257931
-0.255562
-0.252632
-0.248775
-0.243069
-0.237282
-0.269669
-0.269769
-0.269479
-0.268934
-0.268249
-0.267484
-0.266673
-0.265835
-0.264967
-0.264051
-0.263059
-0.261948
-0.260667
-0.259153
-0.257331
-0.255134
-0.252507
-0.249231
-0.244801
-0.241188
-0.26715
-0.267411
-0.267282
-0.266904
-0.26639
-0.265789
-0.265135
-0.264441
-0.263705
-0.262912
-0.262034
-0.261037
-0.259878
-0.258507
-0.256873
-0.254942
-0.252695
-0.249977
-0.246509
-0.244274
-0.264836
-0.265234
-0.265243
-0.265007
-0.264637
-0.264176
-0.263654
-0.263084
-0.262463
-0.261779
-0.26101
-0.260128
-0.2591
-0.257894
-0.256477
-0.254843
-0.253001
-0.250844
-0.248223
-0.246943
-0.262711
-0.263226
-0.263351
-0.263235
-0.262987
-0.262646
-0.262238
-0.261775
-0.261257
-0.260675
-0.260012
-0.259248
-0.258362
-0.257333
-0.256149
-0.254823
-0.253382
-0.251755
-0.24986
-0.249255
-0.260765
-0.261376
-0.261598
-0.261583
-0.261439
-0.261202
-0.260894
-0.260528
-0.260107
-0.259623
-0.259067
-0.258425
-0.257686
-0.25684
-0.255889
-0.254858
-0.253783
-0.25261
-0.251285
-0.251139
-0.258987
-0.259675
-0.259977
-0.260048
-0.259995
-0.259848
-0.25963
-0.259354
-0.259024
-0.258637
-0.258188
-0.257671
-0.25708
-0.256416
-0.255687
-0.254923
-0.254163
-0.253359
-0.252463
-0.252618
-0.257368
-0.258116
-0.258485
-0.258628
-0.258652
-0.258586
-0.25845
-0.258258
-0.258016
-0.257724
-0.257381
-0.256986
-0.256539
-0.256045
-0.255517
-0.254986
-0.254486
-0.253971
-0.25339
-0.253739
-0.2559
-0.256693
-0.257114
-0.257319
-0.257411
-0.257416
-0.257355
-0.257241
-0.257082
-0.256881
-0.25664
-0.25636
-0.256046
-0.255705
-0.255352
-0.255015
-0.254722
-0.254426
-0.254074
-0.254546
-0.254573
-0.255398
-0.255862
-0.256118
-0.256268
-0.256337
-0.256343
-0.2563
-0.256218
-0.256101
-0.255953
-0.255778
-0.255582
-0.255374
-0.255166
-0.254984
-0.254852
-0.254718
-0.25453
-0.255079
-0.253377
-0.254225
-0.254722
-0.255021
-0.255221
-0.255345
-0.25541
-0.255431
-0.255417
-0.255375
-0.255309
-0.255226
-0.25513
-0.255031
-0.25494
-0.254879
-0.254867
-0.254851
-0.254779
-0.255373
-0.252305
-0.253167
-0.25369
-0.254024
-0.254266
-0.254436
-0.254552
-0.254628
-0.254674
-0.254696
-0.2547
-0.254691
-0.254677
-0.254665
-0.254664
-0.254695
-0.254769
-0.254836
-0.254845
-0.255462
-0.251348
-0.252219
-0.252762
-0.253123
-0.253399
-0.253608
-0.253766
-0.253888
-0.253983
-0.254057
-0.254117
-0.254169
-0.254218
-0.254271
-0.254338
-0.254434
-0.254568
-0.25469
-0.254755
-0.25538
-0.2505
-0.251376
-0.251932
-0.252315
-0.252618
-0.252858
-0.25305
-0.253208
-0.253341
-0.253456
-0.253559
-0.253655
-0.253751
-0.253852
-0.253966
-0.254105
-0.254279
-0.254435
-0.254534
-0.255156
-0.249756
-0.250632
-0.251198
-0.251598
-0.251921
-0.252184
-0.252401
-0.252586
-0.252747
-0.252892
-0.253025
-0.253153
-0.25328
-0.253412
-0.253555
-0.253722
-0.253917
-0.254091
-0.254209
-0.254819
-0.24911
-0.249986
-0.250558
-0.250968
-0.251305
-0.251585
-0.25182
-0.252022
-0.252202
-0.252365
-0.252518
-0.252664
-0.25281
-0.252959
-0.253118
-0.253297
-0.2535
-0.253679
-0.253803
-0.254394
-0.24856
-0.249434
-0.250009
-0.250426
-0.250772
-0.251061
-0.251305
-0.251518
-0.251708
-0.25188
-0.252041
-0.252196
-0.252348
-0.252503
-0.252666
-0.252846
-0.253046
-0.253219
-0.253338
-0.253903
-0.248104
-0.248975
-0.249551
-0.24997
-0.250319
-0.250612
-0.25086
-0.251075
-0.251266
-0.251439
-0.2516
-0.251753
-0.251902
-0.252053
-0.252209
-0.252379
-0.252567
-0.252726
-0.252831
-0.253367
-0.247741
-0.248609
-0.249183
-0.249601
-0.249949
-0.250239
-0.250484
-0.250694
-0.250879
-0.251045
-0.251197
-0.25134
-0.251477
-0.251614
-0.251755
-0.251908
-0.252076
-0.252214
-0.252297
-0.252798
-0.268771
-0.261648
-0.284541
-0.304964
-0.279861
-0.198401
-0.134093
-0.107007
-0.0805834
-0.0441174
-0.0248616
-0.0179593
-0.0176088
-0.0148553
-0.012322
-0.00371364
0.0072807
0.000905624
0.000138116
-0.00233204
-0.267678
-0.260232
-0.288028
-0.314366
-0.288532
-0.199141
-0.128255
-0.0992342
-0.0750714
-0.0425895
-0.0259454
-0.0208045
-0.0210884
-0.0169456
-0.013521
-0.00363927
0.00801422
0.00210154
0.00176395
-0.00150578
-0.266698
-0.258865
-0.291353
-0.323318
-0.296807
-0.199808
-0.122408
-0.091138
-0.0691621
-0.0408833
-0.027008
-0.0235768
-0.0244164
-0.0188683
-0.0145731
-0.00349245
0.00872309
0.00331294
0.00343195
-0.00062951
-0.265822
-0.257531
-0.294444
-0.331704
-0.304579
-0.200394
-0.1166
-0.0828045
-0.0628938
-0.0390064
-0.0280496
-0.0262717
-0.0275846
-0.0206333
-0.0154881
-0.00328482
0.00940377
0.00453393
0.00513108
0.000289029
-0.265038
-0.256214
-0.297236
-0.339426
-0.311765
-0.200906
-0.110886
-0.0743373
-0.0563253
-0.0369748
-0.0290716
-0.0288851
-0.0305884
-0.0222526
-0.0162778
-0.00302914
0.0100529
0.00575768
0.00684838
0.00124042
-0.264328
-0.254895
-0.299671
-0.346405
-0.318309
-0.201358
-0.105334
-0.0658533
-0.0495353
-0.0348117
-0.0300752
-0.0314126
-0.0334258
-0.0237387
-0.0169557
-0.00273857
0.0106671
0.00697637
0.008569
0.00221374
-0.263674
-0.25356
-0.301701
-0.352588
-0.324181
-0.201777
-0.10002
-0.0574764
-0.0426195
-0.0325476
-0.0310616
-0.0338493
-0.0360963
-0.0251042
-0.0175356
-0.00242614
0.0112436
0.00818136
0.0102767
0.00319701
-0.263058
-0.252194
-0.303288
-0.357942
-0.329374
-0.202197
-0.095022
-0.0493321
-0.0356866
-0.0302181
-0.0320306
-0.036189
-0.0386009
-0.0263608
-0.0180314
-0.00210421
0.0117795
0.00936342
0.0119541
0.00417765
-0.262462
-0.250785
-0.304405
-0.362453
-0.333901
-0.202656
-0.0904227
-0.0415413
-0.0288513
-0.0278622
-0.0329807
-0.038425
-0.040941
-0.0275192
-0.0184564
-0.00178416
0.0122726
0.0105129
0.0135835
0.00514297
-0.261874
-0.249325
-0.305036
-0.366123
-0.337792
-0.203196
-0.086298
-0.0342152
-0.0222276
-0.0255204
-0.0339088
-0.0405502
-0.0431182
-0.0285891
-0.0188229
-0.00147613
0.0127208
0.0116203
0.0151475
0.00608066
-0.261282
-0.247813
-0.305176
-0.36897
-0.341084
-0.203858
-0.0827153
-0.0274509
-0.0159212
-0.0232318
-0.0348104
-0.0425575
-0.0451346
-0.0295785
-0.0191418
-0.00118884
0.0131223
0.0126762
0.0166291
0.00697926
-0.260681
-0.24625
-0.304829
-0.371022
-0.343823
-0.204682
-0.0797304
-0.0213276
-0.0100233
-0.0210325
-0.0356794
-0.0444401
-0.0469927
-0.0304947
-0.0194227
-0.000929512
0.0134758
0.0136718
0.0180129
0.00782858
-0.260069
-0.244644
-0.30401
-0.372316
-0.346058
-0.205711
-0.0773891
-0.0159053
-0.0046064
-0.0189536
-0.0365091
-0.0461919
-0.0486953
-0.0313438
-0.019674
-0.000704102
0.0137805
0.0145992
0.0192852
0.00862002
-0.259449
-0.243008
-0.302739
-0.37289
-0.347841
-0.206984
-0.0757234
-0.0112241
0.000278235
-0.0170195
-0.0372917
-0.0478078
-0.0502459
-0.0321317
-0.0199024
-0.000517597
0.0140356
0.0154514
0.0204345
0.0093468
-0.258816
-0.241354
-0.301043
-0.372785
-0.349193
-0.208486
-0.0747233
-0.0072988
0.0046006
-0.0152482
-0.0380196
-0.0492836
-0.0516474
-0.0328624
-0.0201121
-0.000373609
0.0142405
0.0162221
0.0214515
0.0100041
-0.258153
-0.239695
-0.298958
-0.372048
-0.350095
-0.210108
-0.0743067
-0.00411187
0.00834997
-0.0136522
-0.0386863
-0.0506166
-0.0529022
-0.0335368
-0.0203038
-0.000271514
0.0143958
0.0169067
0.0223295
0.0105888
-0.257487
-0.238081
-0.296538
-0.370748
-0.350636
-0.211896
-0.0744615
-0.00164471
0.0115323
-0.0122342
-0.0392824
-0.0518042
-0.0540178
-0.0341556
-0.0204851
-0.000205101
0.0145066
0.0175065
0.0230679
0.0110998
-0.256912
-0.236623
-0.29376
-0.368894
-0.351312
-0.214653
-0.0756593
7.52146e-06
0.0141711
-0.0109643
-0.0397766
-0.0528392
-0.0550215
-0.0347439
-0.0206901
-0.000181345
0.0145768
0.0180285
0.0236746
0.0115385
-0.255858
-0.235174
-0.290392
-0.36621
-0.352388
-0.219215
-0.0785395
0.000686303
0.0163056
-0.00980469
-0.0401413
-0.0537201
-0.0559381
-0.0353654
-0.0209421
-0.000263999
0.0145799
0.0184535
0.024141
0.0119103
-0.251827
-0.232702
-0.286756
-0.362481
-0.351134
-0.221726
-0.0808025
0.00108444
0.0179484
-0.00901922
-0.0406006
-0.0545133
-0.0566386
-0.0359728
-0.0210477
-0.000517601
0.0144462
0.018678
0.0243777
0.0122201
-0.212381
-0.210346
-0.266858
-0.338264
-0.327947
-0.213824
-0.0815909
0.0046626
0.0251293
-0.0072269
-0.0444401
-0.0585445
-0.0589717
-0.0389114
-0.0202841
-0.00267681
0.0128554
0.0185904
0.0242541
0.0136362
-0.17547
-0.200982
-0.240232
-0.28343
-0.268271
-0.18031
-0.0768176
-0.0113234
0.00204643
-0.0222895
-0.0472402
-0.0526015
-0.0495738
-0.034073
-0.0172749
-0.00308393
0.0100226
0.0150304
0.0172819
0.00903979
-0.160758
-0.184459
-0.206281
-0.221818
-0.207386
-0.152816
-0.0825734
-0.0340311
-0.020059
-0.0287027
-0.0396447
-0.0407321
-0.0374894
-0.0283377
-0.0156514
-0.0047119
0.00462224
0.00898333
0.0100795
0.00580271
-0.134772
-0.15879
-0.169295
-0.173385
-0.166322
-0.134647
-0.0848759
-0.0449286
-0.0286638
-0.029022
-0.0342601
-0.0345893
-0.031762
-0.0259666
-0.0163035
-0.00691433
0.000705109
0.00507182
0.00617953
0.00397683
-0.111564
-0.132318
-0.140055
-0.142529
-0.138606
-0.117521
-0.0809782
-0.0489049
-0.03487
-0.0339406
-0.0355114
-0.0329564
-0.0282979
-0.0231959
-0.0158306
-0.00810492
-0.00201215
0.00186022
0.00285888
0.00180812
-0.0919047
-0.110336
-0.118496
-0.120529
-0.116357
-0.101115
-0.0757823
-0.0527565
-0.0418322
-0.0388601
-0.0358812
-0.0305491
-0.025264
-0.0211496
-0.0158379
-0.00954736
-0.00435206
-0.0008794
0.000484333
0.000776154
-0.0768294
-0.092996
-0.101049
-0.102617
-0.0987429
-0.0885923
-0.0723786
-0.0558528
-0.045279
-0.0396541
-0.0347018
-0.0292003
-0.0242428
-0.0204339
-0.016054
-0.0106493
-0.00599846
-0.00269566
-0.00088014
0.000116012
-0.0651852
-0.0790412
-0.086463
-0.088303
-0.0859301
-0.0796631
-0.0687493
-0.0555187
-0.0451535
-0.0391593
-0.0344987
-0.0292395
-0.0240078
-0.0198831
-0.0159284
-0.0113029
-0.00712803
-0.00396216
-0.00195925
-0.000509593
-0.0560602
-0.0678363
-0.0746893
-0.0772298
-0.0763099
-0.0720227
-0.0637567
-0.0532148
-0.0445051
-0.0391385
-0.0345509
-0.02909
-0.0236463
-0.0194528
-0.0158932
-0.0119309
-0.0081093
-0.00502154
-0.00278006
-0.000848368
-0.0488576
-0.0589509
-0.0653332
-0.068343
-0.0681833
-0.0649206
-0.0587373
-0.0509653
-0.0439587
-0.0387461
-0.0339412
-0.0286406
-0.0235231
-0.0194784
-0.0161016
-0.0124692
-0.00882567
-0.00570818
-0.00324132
-0.00103433
-0.0431234
-0.0518688
-0.0577399
-0.0608334
-0.0611296
-0.0588938
-0.0545712
-0.04883
-0.0428697
-0.0377553
-0.0331405
-0.0283974
-0.0237025
-0.019676
-0.0162294
-0.0127403
-0.00925168
-0.00614909
-0.00357615
-0.00119731
-0.0384771
-0.0461076
-0.0514425
-0.0545044
-0.0552916
-0.0540301
-0.0509792
-0.0464822
-0.0413823
-0.0367391
-0.0325563
-0.028255
-0.0237913
-0.0197317
-0.016242
-0.0129075
-0.00958777
-0.00651649
-0.0038318
-0.00129035
-0.0346154
-0.0413399
-0.0462332
-0.0493117
-0.0505368
-0.0499582
-0.0477162
-0.0441615
-0.039966
-0.0358991
-0.0320114
-0.0279398
-0.0236872
-0.0197428
-0.0163109
-0.013082
-0.00985324
-0.00676851
-0.00397793
-0.00134027
-0.0313309
-0.0373706
-0.0419643
-0.0450799
-0.0465994
-0.0464864
-0.0448843
-0.0421429
-0.0387091
-0.0350681
-0.0313675
-0.0275242
-0.0235674
-0.019809
-0.0164088
-0.0131939
-0.0100034
-0.0069214
-0.00408131
-0.00138679
-0.0284557
-0.034051
-0.0384712
-0.0416219
-0.0433476
-0.0436119
-0.0425484
-0.0404223
-0.0375203
-0.034214
-0.0307457
-0.0271704
-0.0234781
-0.0198496
-0.0164496
-0.0132399
-0.0100982
-0.0070462
-0.00417099
-0.00141686
-0.0258851
-0.031268
-0.0356332
-0.0388377
-0.0407342
-0.0413034
-0.0406397
-0.0389381
-0.0364342
-0.0334572
-0.0302441
-0.02688
-0.0233584
-0.0198279
-0.0164618
-0.0132809
-0.0101811
-0.0071442
-0.00422952
-0.00142979
-0.0235201
-0.0289581
-0.0333834
-0.0366637
-0.0386951
-0.039481
-0.0390968
-0.0377125
-0.0355415
-0.0328534
-0.0298377
-0.026611
-0.0232182
-0.0197965
-0.0164854
-0.0133218
-0.0102345
-0.00720123
-0.00426491
-0.00143921
-0.021401
-0.0271235
-0.0316947
-0.0350506
-0.0371709
-0.0381015
-0.0379225
-0.0367864
-0.0348701
-0.0323877
-0.0295077
-0.0263872
-0.023108
-0.0197808
-0.0165069
-0.0133431
-0.0102583
-0.00723565
-0.00429314
-0.0014484
-0.0196498
-0.0258149
-0.030555
-0.0339633
-0.0361341
-0.0371613
-0.0371283
-0.0361613
-0.0344065
-0.0320561
-0.029277
-0.0262402
-0.0230367
-0.0197632
-0.0165106
-0.0133512
-0.0102741
-0.0072602
-0.00430973
-0.00145134
-0.018546
-0.025117
-0.0299704
-0.0334018
-0.0355961
-0.0366758
-0.0367207
-0.0358364
-0.0341588
-0.0318784
-0.0291606
-0.0261692
-0.0229964
-0.0197432
-0.0165049
-0.0133558
-0.0102861
-0.00727197
-0.00431242
-0.00144739
-0.147008
-0.156925
-0.166965
-0.177219
-0.18779
-0.198794
-0.210355
-0.222604
-0.235667
-0.249653
-0.264611
-0.2805
-0.29706
-0.313805
-0.329729
-0.34367
-0.353649
-0.358935
-0.357407
-0.353916
-0.0878134
-0.0911153
-0.0940968
-0.0967393
-0.0990208
-0.100917
-0.102401
-0.103446
-0.104028
-0.10413
-0.10375
-0.10292
-0.101711
-0.100299
-0.0989126
-0.0980167
-0.0979951
-0.0997467
-0.103522
-0.111434
-0.0645999
-0.0688467
-0.073127
-0.0774511
-0.0818302
-0.0862759
-0.0908005
-0.0954162
-0.100134
-0.104965
-0.109912
-0.114974
-0.12013
-0.125344
-0.130532
-0.135587
-0.140316
-0.144536
-0.147915
-0.150245
-0.0520148
-0.0549146
-0.0577713
-0.0605854
-0.0633571
-0.0660864
-0.0687728
-0.0714156
-0.0740141
-0.0765674
-0.0790752
-0.0815387
-0.0839619
-0.086354
-0.0887327
-0.0911284
-0.093592
-0.0961971
-0.0990912
-0.102479
-0.0426409
-0.0450081
-0.0473774
-0.0497514
-0.0521321
-0.0545222
-0.0569237
-0.0593393
-0.0617712
-0.0642218
-0.0666933
-0.0691872
-0.0717049
-0.0742454
-0.0768075
-0.0793832
-0.0819682
-0.0845366
-0.0870994
-0.0895914
-0.0370097
-0.0388793
-0.0407458
-0.0426094
-0.0444708
-0.0463304
-0.0481888
-0.0500467
-0.0519046
-0.0537632
-0.0556234
-0.0574858
-0.0593517
-0.0612221
-0.0630997
-0.0649852
-0.0668879
-0.0688054
-0.0707813
-0.0728032
-0.0325429
-0.0340516
-0.0355609
-0.0370713
-0.0385832
-0.0400973
-0.0416139
-0.0431337
-0.0446571
-0.0461847
-0.047717
-0.0492544
-0.0507974
-0.0523463
-0.0539018
-0.0554627
-0.057033
-0.0586049
-0.0602042
-0.0617989
-0.0292604
-0.030495
-0.0317297
-0.0329647
-0.0342
-0.035436
-0.0366727
-0.0379103
-0.0391493
-0.0403897
-0.0416319
-0.042876
-0.0441226
-0.0453716
-0.0466239
-0.0478788
-0.0491398
-0.0504016
-0.0516857
-0.0529672
-0.0266259
-0.0276458
-0.0286658
-0.0296858
-0.0307059
-0.0317264
-0.0327473
-0.0337686
-0.0347907
-0.0358135
-0.0368372
-0.0378619
-0.0388878
-0.0399149
-0.0409436
-0.0419732
-0.0430061
-0.044038
-0.0450847
-0.0461258
-0.0245449
-0.025395
-0.0262449
-0.0270947
-0.0279443
-0.0287939
-0.0296434
-0.030493
-0.0313426
-0.0321923
-0.0330421
-0.033892
-0.0347422
-0.0355925
-0.0364432
-0.0372938
-0.0381459
-0.0389963
-0.0398568
-0.0407123
-0.0228444
-0.0235553
-0.0242664
-0.0249774
-0.0256885
-0.0263997
-0.027111
-0.0278224
-0.0285339
-0.0292455
-0.0299572
-0.0306689
-0.0313806
-0.0320923
-0.032804
-0.0335153
-0.0342273
-0.0349377
-0.0356549
-0.0363686
-0.021426
-0.0220214
-0.0226175
-0.0232142
-0.0238115
-0.0244094
-0.0250079
-0.0256069
-0.0262064
-0.0268064
-0.0274068
-0.0280074
-0.0286083
-0.0292093
-0.0298103
-0.0304111
-0.0310122
-0.0316121
-0.0322169
-0.0328201
-0.0201423
-0.0206398
-0.0211388
-0.0216395
-0.0221417
-0.0226455
-0.0231508
-0.0236575
-0.0241655
-0.0246748
-0.0251852
-0.0256966
-0.0262088
-0.0267216
-0.027235
-0.0277487
-0.028263
-0.0287769
-0.0292944
-0.0298124
-0.0189147
-0.0193298
-0.0197481
-0.0201694
-0.0205937
-0.0210208
-0.0214507
-0.0218831
-0.022318
-0.0227551
-0.0231941
-0.023635
-0.0240774
-0.024521
-0.0249658
-0.0254114
-0.0258578
-0.0263043
-0.0267537
-0.0272053
-0.0175033
-0.0178494
-0.018201
-0.0185581
-0.0189204
-0.0192877
-0.0196596
-0.020036
-0.0204165
-0.0208007
-0.0211884
-0.0215791
-0.0219726
-0.0223684
-0.0227663
-0.0231658
-0.0235668
-0.0239689
-0.0243735
-0.024782
-0.015884
-0.0161793
-0.0164837
-0.0167965
-0.0171173
-0.0174455
-0.0177805
-0.0181218
-0.0184689
-0.0188211
-0.0191779
-0.0195388
-0.0199032
-0.0202707
-0.0206406
-0.0210126
-0.0213862
-0.0217612
-0.0221382
-0.0225197
-0.0133924
-0.0136804
-0.0139814
-0.0142942
-0.0146177
-0.0149509
-0.0152927
-0.0156422
-0.0159985
-0.0163606
-0.0167279
-0.0170994
-0.0174744
-0.0178524
-0.0182325
-0.0186144
-0.0189973
-0.0193812
-0.0197657
-0.0201547
-0.010135
-0.0104867
-0.0108512
-0.0112269
-0.0116122
-0.0120059
-0.0124065
-0.012813
-0.0132243
-0.0136394
-0.0140574
-0.0144775
-0.0148989
-0.015321
-0.0157432
-0.0161649
-0.0165856
-0.0170052
-0.017423
-0.0178431
-0.00512677
-0.00574231
-0.00635213
-0.00695579
-0.00755293
-0.00814326
-0.0087265
-0.00930246
-0.00987096
-0.0104319
-0.0109851
-0.0115305
-0.0120681
-0.0125979
-0.0131198
-0.0136338
-0.01414
-0.0146387
-0.0151292
-0.0156158
0.000379031
-0.00059739
-0.00153961
-0.00244955
-0.00332899
-0.00417963
-0.00500307
-0.00580079
-0.00657419
-0.00732459
-0.00805319
-0.00876116
-0.00944956
-0.0101194
-0.0107716
-0.0114071
-0.0120266
-0.0126312
-0.0132207
-0.0137995
0.000705968
-0.00026958
-0.00121096
-0.00212009
-0.00299878
-0.00384874
-0.00467155
-0.0054687
-0.00624159
-0.00699153
-0.00771976
-0.00842741
-0.00911557
-0.00978524
-0.0104373
-0.0110728
-0.0116923
-0.0122971
-0.0128868
-0.0134659
-0.00479943
-0.00541373
-0.00602234
-0.00662484
-0.0072209
-0.0078102
-0.00839248
-0.00896755
-0.00953522
-0.0100954
-0.0106479
-0.0111927
-0.0117298
-0.0122591
-0.0127806
-0.0132943
-0.0138003
-0.0142988
-0.0147892
-0.0152758
-0.00980199
-0.010152
-0.0105148
-0.0108888
-0.0112726
-0.0116647
-0.0120639
-0.0124691
-0.012879
-0.0132929