/*--------------------------------*- C++ -*----------------------------------*\
  =========                 |
  \\      /  F ield         | OpenFOAM: The Open Source CFD Toolbox
   \\    /   O peration     | Website:  https://openfoam.org
    \\  /    A nd           | Version:  6.0
     \\/     M anipulation  |
\*---------------------------------------------------------------------------*/
FoamFile
{
    version     2.0;
    format      ascii;
    class       volScalarField;
    location    "45";
    object      p;
}
// * * * * * * * * * * * * * * * * * * * * * * * * * * * * * * * * * * * * * //

dimensions      [0 2 -2 0 0 0 0];

internalField   nonuniform List<scalar> 
12500
(
-0.245846
-0.246593
-0.247109
-0.247502
-0.247838
-0.248124
-0.248368
-0.248579
-0.248764
-0.248929
-0.249076
-0.249211
-0.249335
-0.249451
-0.249562
-0.249669
-0.249775
-0.249883
-0.249994
-0.25011
-0.250237
-0.250376
-0.25049
-0.250555
-0.25096
-0.245662
-0.246409
-0.246924
-0.247314
-0.247646
-0.247926
-0.248163
-0.248366
-0.248542
-0.248696
-0.248831
-0.248953
-0.249063
-0.249163
-0.249257
-0.249347
-0.249435
-0.249523
-0.249613
-0.249708
-0.249813
-0.249929
-0.250018
-0.250058
-0.250438
-0.245542
-0.246289
-0.246802
-0.247188
-0.247514
-0.247786
-0.248013
-0.248205
-0.248368
-0.248508
-0.248628
-0.248733
-0.248825
-0.248906
-0.24898
-0.249048
-0.249114
-0.249179
-0.249245
-0.249315
-0.249395
-0.249485
-0.249548
-0.249559
-0.249914
-0.245488
-0.246234
-0.246744
-0.247124
-0.247442
-0.247704
-0.247919
-0.248097
-0.248244
-0.248366
-0.248468
-0.248552
-0.248622
-0.248681
-0.24873
-0.248773
-0.248813
-0.24885
-0.248889
-0.24893
-0.248982
-0.249043
-0.249077
-0.249057
-0.249386
-0.2455
-0.246246
-0.246752
-0.247125
-0.247433
-0.247682
-0.247882
-0.248042
-0.248171
-0.248272
-0.248351
-0.248411
-0.248455
-0.248487
-0.248508
-0.248522
-0.248531
-0.248537
-0.248544
-0.248553
-0.248573
-0.248603
-0.248605
-0.248552
-0.248854
-0.245581
-0.246326
-0.246827
-0.247192
-0.247487
-0.247721
-0.247904
-0.248044
-0.248149
-0.248226
-0.248279
-0.24831
-0.248325
-0.248325
-0.248314
-0.248293
-0.248267
-0.248238
-0.248208
-0.248182
-0.248165
-0.248161
-0.248129
-0.248039
-0.248314
-0.245732
-0.246477
-0.246972
-0.247326
-0.247608
-0.247824
-0.247985
-0.248102
-0.248181
-0.24823
-0.248252
-0.248252
-0.248232
-0.248196
-0.248147
-0.248087
-0.248021
-0.247951
-0.24788
-0.247813
-0.247756
-0.247713
-0.247644
-0.247514
-0.247762
-0.245957
-0.246702
-0.24719
-0.247532
-0.247796
-0.247992
-0.248129
-0.248219
-0.248269
-0.248285
-0.248273
-0.248235
-0.248177
-0.2481
-0.248008
-0.247904
-0.247792
-0.247675
-0.247557
-0.247443
-0.247341
-0.247255
-0.247144
-0.24697
-0.247191
-0.246259
-0.247003
-0.247482
-0.24781
-0.248055
-0.248227
-0.248337
-0.248397
-0.248413
-0.248393
-0.248342
-0.248264
-0.248161
-0.248038
-0.247897
-0.247743
-0.247579
-0.247409
-0.247238
-0.24707
-0.246916
-0.246781
-0.246623
-0.246402
-0.246595
-0.246642
-0.247384
-0.247853
-0.248164
-0.248387
-0.248533
-0.248613
-0.248638
-0.248617
-0.248558
-0.248463
-0.248339
-0.248188
-0.248013
-0.247818
-0.247607
-0.247383
-0.247152
-0.246919
-0.246691
-0.246477
-0.246286
-0.246073
-0.245799
-0.245964
-0.247112
-0.247849
-0.248307
-0.248598
-0.248796
-0.248912
-0.248958
-0.248945
-0.248884
-0.248781
-0.248639
-0.248465
-0.24826
-0.248028
-0.247772
-0.247497
-0.247207
-0.246907
-0.246603
-0.246304
-0.246021
-0.245764
-0.245489
-0.245154
-0.245288
-0.247672
-0.248404
-0.248846
-0.249115
-0.249284
-0.249367
-0.249375
-0.249322
-0.249217
-0.249066
-0.248874
-0.248645
-0.248382
-0.248088
-0.247766
-0.24742
-0.247055
-0.246677
-0.246292
-0.24591
-0.245546
-0.245211
-0.244862
-0.244455
-0.244557
-0.24833
-0.249052
-0.249475
-0.249718
-0.249855
-0.249901
-0.249869
-0.249772
-0.249619
-0.249418
-0.249172
-0.248886
-0.248561
-0.248201
-0.247807
-0.247383
-0.246935
-0.246468
-0.24599
-0.245512
-0.245052
-0.244624
-0.244185
-0.243692
-0.243755
-0.249091
-0.249798
-0.250199
-0.250412
-0.250513
-0.250518
-0.250441
-0.250297
-0.250094
-0.24984
-0.249539
-0.249192
-0.248803
-0.248372
-0.247902
-0.247395
-0.246855
-0.24629
-0.245707
-0.245118
-0.244545
-0.244004
-0.243454
-0.242854
-0.242868
-0.249963
-0.250649
-0.251022
-0.251199
-0.25126
-0.25122
-0.251095
-0.2509
-0.250645
-0.250336
-0.249977
-0.249569
-0.249113
-0.24861
-0.24806
-0.247465
-0.246828
-0.246155
-0.245453
-0.244737
-0.24403
-0.243353
-0.242665
-0.241928
-0.241877
-0.250951
-0.25161
-0.251948
-0.252085
-0.252099
-0.252009
-0.251833
-0.251585
-0.251275
-0.250909
-0.250491
-0.250021
-0.249498
-0.248922
-0.248291
-0.247605
-0.246866
-0.246076
-0.245245
-0.244384
-0.24352
-0.242678
-0.241816
-0.240902
-0.240759
-0.252063
-0.252685
-0.252982
-0.253071
-0.253033
-0.252889
-0.252656
-0.25235
-0.251983
-0.251559
-0.251081
-0.250549
-0.24996
-0.249313
-0.248601
-0.247824
-0.24698
-0.246069
-0.245096
-0.244075
-0.243029
-0.241989
-0.240911
-0.239763
-0.239487
-0.253305
-0.25388
-0.254127
-0.254162
-0.254065
-0.253859
-0.253564
-0.253197
-0.252769
-0.252284
-0.251746
-0.251152
-0.250499
-0.249782
-0.248993
-0.248126
-0.247177
-0.246142
-0.245023
-0.243825
-0.242575
-0.241301
-0.239955
-0.238503
-0.23803
-0.254683
-0.255201
-0.255389
-0.255361
-0.255197
-0.254922
-0.254558
-0.254124
-0.25363
-0.253082
-0.252482
-0.251826
-0.25111
-0.250325
-0.249461
-0.24851
-0.24746
-0.246303
-0.245032
-0.24365
-0.242174
-0.240632
-0.238961
-0.237115
-0.236355
-0.256204
-0.256653
-0.256772
-0.256671
-0.25643
-0.256077
-0.255636
-0.255127
-0.254562
-0.253946
-0.253281
-0.252562
-0.251782
-0.250932
-0.249998
-0.248966
-0.247821
-0.246547
-0.24513
-0.243559
-0.241845
-0.240003
-0.23795
-0.235604
-0.234428
-0.257874
-0.258243
-0.258281
-0.258096
-0.257766
-0.257325
-0.256797
-0.256205
-0.25556
-0.25487
-0.254134
-0.253348
-0.252503
-0.251588
-0.250587
-0.249481
-0.24825
-0.246869
-0.245315
-0.243564
-0.241609
-0.23945
-0.236968
-0.234009
-0.232248
-0.259702
-0.259977
-0.259923
-0.259641
-0.259211
-0.258668
-0.258042
-0.257355
-0.256621
-0.255846
-0.255032
-0.254174
-0.253261
-0.25228
-0.251214
-0.250041
-0.248735
-0.247266
-0.245598
-0.243692
-0.24152
-0.239059
-0.236144
-0.23249
-0.22993
-0.261696
-0.261864
-0.261704
-0.261312
-0.260767
-0.260109
-0.25937
-0.258576
-0.25774
-0.256872
-0.25597
-0.255031
-0.254045
-0.252998
-0.251872
-0.250642
-0.24928
-0.247751
-0.246008
-0.243996
-0.241661
-0.238949
-0.235633
-0.231194
-0.227453
-0.263869
-0.263915
-0.263635
-0.263118
-0.262442
-0.261654
-0.260788
-0.259872
-0.258922
-0.257946
-0.256947
-0.25592
-0.254856
-0.253744
-0.252565
-0.251298
-0.249916
-0.248382
-0.246647
-0.244636
-0.24226
-0.239396
-0.23565
-0.230047
-0.224254
-0.266233
-0.266143
-0.265727
-0.265068
-0.264246
-0.263311
-0.262303
-0.26125
-0.260171
-0.259077
-0.25797
-0.256848
-0.255705
-0.254532
-0.253317
-0.252049
-0.250713
-0.24929
-0.247757
-0.246074
-0.244179
-0.241936
-0.238788
-0.23334
-0.22685
-0.268807
-0.268564
-0.267994
-0.267178
-0.266192
-0.265094
-0.263927
-0.262723
-0.261503
-0.260279
-0.259055
-0.257832
-0.25661
-0.255384
-0.254154
-0.252923
-0.251703
-0.250521
-0.249425
-0.248509
-0.247948
-0.248022
-0.249152
-0.253106
-0.266295
-0.27161
-0.271195
-0.270454
-0.269462
-0.268296
-0.267018
-0.265678
-0.264309
-0.262936
-0.261572
-0.260225
-0.258899
-0.257597
-0.256324
-0.255091
-0.253916
-0.252837
-0.251912
-0.251238
-0.250976
-0.251378
-0.252824
-0.255828
-0.261867
-0.275634
-0.274666
-0.274058
-0.273127
-0.271942
-0.270577
-0.269104
-0.267576
-0.266032
-0.264496
-0.262985
-0.26151
-0.260078
-0.258699
-0.257384
-0.256154
-0.255041
-0.254098
-0.253406
-0.253084
-0.253304
-0.254317
-0.256456
-0.260106
-0.266068
-0.277529
-0.278001
-0.277176
-0.276035
-0.274638
-0.273058
-0.271376
-0.269649
-0.267918
-0.266212
-0.264549
-0.262943
-0.261405
-0.259949
-0.258592
-0.257362
-0.2563
-0.255467
-0.25495
-0.254866
-0.255372
-0.25667
-0.259003
-0.262605
-0.267831
-0.27685
-0.281643
-0.280574
-0.279202
-0.277574
-0.275765
-0.27386
-0.271923
-0.269998
-0.268116
-0.266297
-0.264558
-0.262912
-0.261375
-0.259968
-0.258724
-0.257685
-0.256911
-0.256483
-0.2565
-0.257083
-0.258374
-0.260521
-0.263632
-0.267793
-0.274429
-0.285621
-0.284279
-0.282653
-0.280778
-0.278723
-0.276584
-0.274429
-0.272304
-0.270241
-0.268263
-0.266386
-0.264625
-0.262998
-0.261526
-0.260239
-0.259178
-0.258395
-0.257955
-0.257931
-0.258407
-0.259464
-0.261174
-0.263564
-0.266578
-0.271097
-0.289965
-0.288317
-0.286413
-0.284274
-0.281961
-0.279577
-0.277196
-0.274865
-0.272617
-0.270474
-0.268452
-0.266566
-0.264831
-0.263265
-0.261896
-0.260755
-0.259882
-0.259325
-0.25913
-0.259345
-0.260007
-0.261133
-0.262706
-0.264609
-0.267344
-0.2947
-0.292712
-0.290509
-0.288089
-0.285505
-0.282868
-0.280254
-0.277712
-0.275272
-0.272956
-0.270777
-0.268746
-0.266874
-0.265176
-0.263671
-0.262382
-0.261335
-0.260558
-0.260078
-0.259915
-0.260075
-0.260548
-0.261294
-0.262182
-0.263477
-0.299853
-0.297489
-0.294963
-0.292247
-0.289381
-0.286483
-0.283631
-0.28087
-0.278229
-0.275726
-0.273369
-0.271164
-0.269118
-0.267238
-0.265534
-0.26402
-0.262712
-0.261623
-0.260763
-0.260137
-0.259734
-0.259532
-0.25949
-0.259483
-0.259646
-0.305443
-0.302668
-0.299796
-0.296771
-0.293614
-0.290447
-0.287348
-0.284359
-0.281503
-0.278792
-0.276228
-0.273811
-0.271539
-0.269415
-0.267442
-0.265625
-0.263972
-0.262487
-0.261173
-0.260025
-0.25903
-0.258164
-0.257393
-0.256607
-0.255887
-0.311488
-0.308264
-0.305028
-0.301681
-0.298224
-0.29478
-0.291424
-0.288192
-0.2851
-0.282151
-0.27934
-0.276659
-0.274102
-0.271665
-0.269346
-0.267146
-0.26507
-0.263119
-0.261293
-0.259587
-0.257991
-0.256486
-0.255049
-0.253589
-0.25217
-0.317995
-0.314288
-0.310669
-0.306991
-0.303225
-0.299495
-0.295869
-0.292374
-0.289016
-0.285788
-0.282678
-0.279672
-0.276759
-0.273931
-0.271187
-0.268529
-0.26596
-0.263485
-0.261106
-0.258823
-0.25663
-0.254519
-0.252474
-0.250422
-0.248431
-0.324966
-0.320746
-0.316728
-0.312709
-0.308626
-0.304598
-0.300684
-0.296897
-0.293233
-0.289674
-0.286201
-0.282796
-0.279448
-0.27615
-0.272904
-0.269717
-0.266597
-0.263553
-0.260595
-0.257727
-0.254951
-0.252265
-0.249663
-0.247082
-0.244601
-0.332394
-0.327632
-0.323203
-0.318837
-0.314428
-0.310085
-0.305857
-0.30174
-0.297717
-0.293762
-0.289851
-0.285967
-0.282101
-0.278253
-0.274434
-0.270656
-0.266937
-0.263295
-0.259743
-0.256293
-0.252951
-0.249721
-0.246602
-0.24354
-0.240621
-0.34026
-0.334934
-0.330084
-0.325366
-0.320619
-0.315942
-0.311364
-0.306867
-0.30242
-0.297992
-0.293559
-0.289109
-0.284641
-0.280168
-0.275711
-0.271293
-0.266942
-0.262682
-0.258532
-0.25451
-0.250623
-0.246879
-0.243277
-0.23977
-0.236445
-0.348534
-0.342627
-0.337353
-0.332276
-0.327177
-0.322136
-0.317163
-0.312223
-0.307275
-0.302288
-0.297242
-0.292138
-0.286989
-0.281823
-0.276674
-0.27158
-0.266575
-0.26169
-0.256949
-0.25237
-0.247962
-0.243731
-0.239676
-0.235751
-0.232045
-0.357174
-0.350675
-0.344975
-0.339535
-0.334064
-0.328621
-0.323196
-0.317737
-0.312201
-0.306559
-0.300808
-0.294964
-0.289062
-0.283146
-0.277267
-0.271472
-0.265805
-0.260299
-0.25498
-0.249864
-0.244959
-0.240268
-0.235787
-0.231468
-0.227402
-0.366122
-0.359029
-0.352904
-0.347093
-0.341225
-0.335333
-0.329386
-0.323323
-0.317101
-0.310707
-0.304159
-0.297497
-0.290779
-0.28407
-0.277435
-0.27093
-0.264603
-0.258489
-0.252611
-0.246982
-0.241607
-0.236483
-0.231602
-0.226912
-0.222506
-0.375306
-0.367623
-0.361078
-0.354886
-0.348588
-0.342188
-0.335639
-0.328875
-0.321865
-0.314623
-0.307192
-0.299645
-0.292064
-0.284533
-0.27713
-0.269917
-0.262943
-0.256241
-0.249828
-0.243713
-0.237895
-0.232365
-0.227109
-0.222071
-0.217347
-0.384635
-0.376377
-0.369419
-0.362831
-0.356062
-0.349085
-0.341842
-0.334274
-0.326376
-0.318192
-0.309804
-0.301318
-0.292842
-0.284476
-0.276307
-0.2684
-0.2608
-0.253535
-0.246616
-0.240044
-0.23381
-0.227903
-0.222299
-0.216935
-0.211918
-0.394006
-0.385194
-0.377831
-0.370829
-0.363537
-0.355904
-0.347869
-0.339393
-0.330506
-0.321299
-0.311895
-0.302433
-0.293045
-0.283846
-0.274925
-0.266346
-0.258148
-0.25035
-0.242956
-0.235958
-0.22934
-0.223083
-0.217157
-0.211492
-0.206209
-0.403298
-0.39396
-0.386201
-0.37876
-0.370886
-0.362509
-0.353579
-0.344092
-0.334128
-0.323829
-0.313365
-0.302908
-0.292609
-0.282591
-0.272943
-0.263723
-0.254961
-0.246665
-0.23883
-0.231437
-0.224465
-0.217888
-0.211669
-0.205727
-0.200207
-0.412372
-0.402547
-0.3944
-0.386488
-0.377965
-0.368751
-0.358825
-0.348231
-0.337114
-0.325672
-0.314123
-0.302668
-0.291474
-0.280665
-0.270325
-0.260501
-0.251212
-0.242456
-0.234214
-0.226461
-0.219167
-0.2123
-0.205816
-0.199624
-0.193898
-0.421079
-0.410811
-0.402282
-0.393863
-0.384618
-0.374472
-0.36345
-0.351667
-0.339336
-0.326721
-0.314082
-0.301645
-0.289584
-0.278022
-0.267032
-0.256647
-0.246874
-0.237696
-0.229086
-0.221008
-0.213424
-0.206299
-0.19958
-0.193166
-0.187264
-0.429256
-0.418594
-0.409689
-0.40072
-0.390675
-0.379505
-0.3673
-0.354258
-0.340675
-0.326876
-0.313161
-0.299773
-0.286888
-0.274621
-0.263029
-0.252131
-0.241917
-0.23236
-0.22342
-0.215053
-0.207215
-0.199864
-0.19294
-0.186333
-0.180289
-0.436729
-0.425728
-0.416449
-0.406885
-0.395963
-0.383682
-0.370219
-0.355871
-0.341017
-0.326045
-0.311286
-0.296993
-0.283338
-0.27042
-0.25828
-0.24692
-0.236314
-0.226421
-0.217192
-0.208574
-0.200517
-0.192974
-0.185876
-0.179106
-0.172952
-0.443317
-0.432035
-0.422384
-0.412175
-0.400302
-0.386834
-0.372057
-0.356376
-0.340258
-0.324143
-0.308389
-0.293252
-0.278889
-0.265382
-0.252752
-0.240983
-0.230035
-0.219852
-0.210376
-0.201547
-0.193307
-0.185607
-0.178369
-0.171467
-0.165237
-0.448833
-0.437332
-0.427309
-0.416406
-0.403515
-0.3888
-0.372674
-0.355657
-0.338302
-0.321096
-0.304412
-0.288499
-0.273499
-0.259469
-0.246412
-0.234292
-0.223053
-0.212628
-0.20295
-0.19395
-0.185566
-0.177745
-0.1704
-0.163397
-0.157125
-0.453093
-0.441436
-0.431039
-0.419397
-0.40543
-0.389425
-0.371937
-0.353606
-0.335063
-0.316835
-0.299299
-0.282691
-0.26713
-0.25265
-0.239231
-0.226819
-0.215343
-0.204726
-0.19489
-0.185762
-0.177274
-0.16937
-0.161951
-0.154881
-0.148603
-0.455912
-0.444163
-0.433389
-0.420968
-0.405882
-0.388566
-0.369728
-0.350128
-0.330469
-0.311303
-0.293005
-0.275789
-0.259749
-0.244894
-0.231181
-0.218538
-0.206881
-0.196123
-0.186177
-0.176965
-0.168415
-0.160465
-0.15301
-0.145907
-0.139658
-0.457113
-0.445334
-0.434185
-0.420952
-0.40472
-0.386094
-0.365943
-0.345143
-0.324456
-0.304451
-0.285488
-0.267759
-0.251326
-0.236174
-0.222237
-0.209428
-0.197648
-0.186801
-0.176795
-0.167543
-0.158973
-0.151019
-0.143563
-0.136463
-0.130279
-0.456527
-0.444781
-0.433258
-0.419192
-0.401807
-0.381896
-0.360494
-0.338582
-0.316973
-0.296237
-0.276717
-0.258572
-0.241837
-0.226468
-0.21238
-0.199469
-0.187626
-0.176746
-0.166729
-0.157486
-0.14894
-0.141021
-0.133604
-0.126542
-0.120459
-0.453997
-0.442346
-0.430457
-0.415547
-0.397022
-0.375877
-0.353306
-0.330391
-0.307978
-0.286631
-0.266665
-0.248208
-0.231262
-0.215759
-0.201594
-0.188648
-0.176803
-0.165945
-0.15597
-0.146784
-0.138307
-0.130467
-0.123128
-0.116143
-0.110197
-0.449386
-0.437889
-0.425643
-0.409896
-0.390266
-0.367958
-0.344324
-0.32053
-0.297442
-0.27561
-0.255315
-0.23665
-0.219587
-0.204034
-0.189867
-0.176955
-0.16517
-0.154392
-0.144513
-0.135433
-0.127073
-0.119355
-0.112135
-0.105265
-0.099493
-0.442571
-0.431286
-0.418701
-0.402138
-0.381458
-0.358082
-0.333509
-0.308972
-0.285348
-0.263161
-0.242656
-0.22389
-0.206805
-0.191286
-0.177193
-0.164384
-0.152723
-0.142085
-0.132355
-0.123434
-0.115238
-0.107688
-0.100627
-0.0939129
-0.088352
-0.433452
-0.422436
-0.409535
-0.392193
-0.37054
-0.34621
-0.320836
-0.295705
-0.271689
-0.249281
-0.228686
-0.209925
-0.192913
-0.177513
-0.163571
-0.150935
-0.139463
-0.129023
-0.1195
-0.110789
-0.102807
-0.0954705
-0.0886146
-0.0820972
-0.0767839
-0.421952
-0.411257
-0.398074
-0.380007
-0.357476
-0.332323
-0.3063
-0.28073
-0.25647
-0.233975
-0.21341
-0.194762
-0.177916
-0.16272
-0.149006
-0.136613
-0.125394
-0.115214
-0.105954
-0.0975073
-0.0897897
-0.0827148
-0.0761085
-0.0698316
-0.0648031
-0.408018
-0.397696
-0.384271
-0.365548
-0.342251
-0.316423
-0.289911
-0.264061
-0.239706
-0.217259
-0.196843
-0.178411
-0.161825
-0.146916
-0.133506
-0.121427
-0.110526
-0.100667
-0.0917272
-0.0835997
-0.0761986
-0.0694348
-0.0631253
-0.0571343
-0.0524279
-0.391621
-0.381723
-0.368103
-0.348808
-0.324875
-0.298527
-0.271694
-0.245727
-0.221426
-0.199158
-0.179006
-0.160892
-0.144657
-0.130117
-0.117085
-0.105389
-0.0948721
-0.085395
-0.0768339
-0.0690811
-0.0620498
-0.0556481
-0.0496852
-0.0440275
-0.0396806
-0.37276
-0.363334
-0.349576
-0.329806
-0.305376
-0.278674
-0.25169
-0.225768
-0.201666
-0.179706
-0.159931
-0.142233
-0.126436
-0.112344
-0.0997636
-0.0885178
-0.0784481
-0.0694138
-0.0612899
-0.0539681
-0.0473614
-0.0413752
-0.0358114
-0.0305374
-0.0265877
-0.351459
-0.34255
-0.328718
-0.308582
-0.283806
-0.25692
-0.229956
-0.204237
-0.180476
-0.158947
-0.139655
-0.122468
-0.107192
-0.0936235
-0.0815637
-0.0708335
-0.061273
-0.0527412
-0.0451127
-0.038279
-0.0321531
-0.0266383
-0.0215302
-0.0166945
-0.0131823
-0.327768
-0.319421
-0.305583
-0.2852
-0.260234
-0.233337
-0.206563
-0.181202
-0.157917
-0.136934
-0.118227
-0.101638
-0.086962
-0.0739872
-0.0625132
-0.0523597
-0.0433674
-0.0353954
-0.0283192
-0.0220308
-0.0164436
-0.0114592
-0.00686844
-0.00253324
0.000493735
-0.301761
-0.294017
-0.28025
-0.259745
-0.23475
-0.208015
-0.181595
-0.156739
-0.134058
-0.113733
-0.0957029
-0.0797932
-0.0657885
-0.053472
-0.042643
-0.0331223
-0.0247522
-0.0173939
-0.0109245
-0.00523781
-0.000247897
0.00414414
0.008149
0.0119104
0.0143954
-0.273538
-0.266437
-0.25282
-0.232323
-0.207462
-0.181057
-0.15515
-0.130941
-0.108983
-0.0894159
-0.0721493
-0.0569923
-0.0437222
-0.0321208
-0.0219885
-0.013149
-0.00544822
0.00124876
0.00706135
0.0120928
0.0164272
0.0201618
0.0235037
0.0266056
0.0284941
-0.243219
-0.2368
-0.223416
-0.20306
-0.178493
-0.152583
-0.127341
-0.103908
-0.0827854
-0.064068
-0.0476417
-0.0333021
-0.0208218
-0.00998291
-0.000589219
0.00753068
0.0145252
0.0205232
0.0256381
0.0299678
0.0335922
0.0366028
0.039197
0.0415475
0.0427996
-0.210949
-0.205245
-0.192178
-0.172097
-0.147983
-0.122725
-0.0982892
-0.075756
-0.0555684
-0.0377843
-0.0222665
-0.00880011
0.0028447
0.0128837
0.021508
0.0288823
0.0351474
0.0404236
0.044815
0.0484104
0.0512819
0.0535101
0.0552752
0.0567779
0.0573264
-0.176888
-0.171931
-0.159267
-0.139594
-0.116085
-0.091628
-0.068131
-0.0466084
-0.027448
-0.0106713
0.00387872
0.016425
0.0271981
0.0364104
0.0442466
0.0508633
0.0563914
0.06094
0.0645997
0.0674447
0.0695355
0.0709376
0.0717939
0.0722923
0.0719001
-0.141216
-0.137035
-0.124857
-0.105721
-0.0829624
-0.0594467
-0.0370112
-0.0166009
0.00145002
0.0171537
0.0306847
0.0422722
0.0521468
0.0605164
0.0675592
0.0734227
0.0782264
0.0820641
0.0850053
0.0871008
0.0883932
0.0889194
0.0887092
0.0878067
0.0859582
-0.104126
-0.100746
-0.0891365
-0.0706619
-0.0487919
-0.0263465
-0.00508416
0.0141219
0.0309896
0.0455622
0.0580297
0.0686267
0.0775833
0.0851045
0.091363
0.0964998
0.100625
0.103816
0.106118
0.10755
0.108127
0.107808
0.106329
0.103396
0.099594
-0.0658267
-0.0632697
-0.0523059
-0.0346106
-0.0137568
0.00749996
0.0274882
0.0454075
0.061026
0.0744158
0.08578
0.0953579
0.10338
0.11005
0.11554
0.11999
0.123511
0.126181
0.128041
0.129113
0.129423
0.128843
0.126675
0.122236
0.117556
-0.0265354
-0.0248185
-0.0145741
0.00223212
0.0219529
0.0419142
0.0605382
0.0770978
0.0914085
0.103568
0.113792
0.122322
0.12939
0.135197
0.139918
0.143698
0.146659
0.148895
0.150483
0.151517
0.152141
0.152314
0.151178
0.14822
0.150375
0.0135291
0.0143905
0.0238462
0.0396617
0.0581433
0.0767142
0.093895
0.109031
0.121982
0.132871
0.141919
0.149372
0.155459
0.160382
0.164314
0.167401
0.169768
0.171522
0.172755
0.17359
0.174185
0.174525
0.174128
0.173407
0.177775
0.0541349
0.0541301
0.0627347
0.0774682
0.0946174
0.111716
0.127386
0.141045
0.152593
0.162173
0.170014
0.176362
0.181442
0.185454
0.188569
0.190931
0.19267
0.193892
0.1947
0.195216
0.195577
0.195763
0.195433
0.195065
0.198936
0.0950485
0.094171
0.101869
0.115441
0.131178
0.146735
0.16084
0.172977
0.183087
0.191328
0.197936
0.203152
0.207199
0.210271
0.212533
0.21413
0.215184
0.215803
0.216087
0.21615
0.216117
0.215971
0.215423
0.214863
0.217807
0.136035
0.134283
0.141028
0.15337
0.167628
0.18159
0.194086
0.204669
0.213315
0.220196
0.225548
0.229612
0.232603
0.234708
0.236088
0.23688
0.237202
0.237154
0.23683
0.236332
0.235765
0.235103
0.234083
0.233067
0.23512
0.176862
0.174236
0.17999
0.191046
0.203775
0.2161
0.226959
0.235967
0.243132
0.248639
0.252723
0.25562
0.257538
0.258658
0.259131
0.259088
0.258639
0.257877
0.256887
0.25576
0.254583
0.253318
0.251721
0.250154
0.251345
0.217295
0.213804
0.218536
0.228265
0.239427
0.25009
0.259296
0.26672
0.272399
0.276527
0.279339
0.281064
0.281901
0.282024
0.281575
0.280677
0.279432
0.277926
0.276234
0.274435
0.272604
0.270692
0.26848
0.266334
0.266699
0.257109
0.252762
0.256454
0.264826
0.2744
0.28339
0.29094
0.296782
0.300981
0.303736
0.305281
0.305837
0.305595
0.304718
0.303343
0.301582
0.299531
0.297265
0.294854
0.292367
0.289865
0.287296
0.284463
0.281739
0.281312
0.296078
0.290892
0.293532
0.300533
0.308513
0.315834
0.321739
0.326015
0.32875
0.330149
0.330441
0.329839
0.328528
0.32666
0.324364
0.321743
0.318885
0.31586
0.312729
0.309552
0.306381
0.303161
0.299722
0.296431
0.295245
0.333988
0.327982
0.329571
0.3352
0.341594
0.347263
0.351547
0.354284
0.355582
0.35565
0.354714
0.352977
0.350616
0.347773
0.34457
0.341102
0.337449
0.333675
0.329833
0.325978
0.322151
0.3183
0.314275
0.310436
0.308521
0.370628
0.363827
0.364374
0.368643
0.373474
0.377523
0.380223
0.38146
0.381359
0.380133
0.378001
0.37516
0.371775
0.367984
0.363896
0.359603
0.355175
0.35067
0.346136
0.341622
0.337162
0.332704
0.328121
0.323756
0.32114
0.405798
0.39823
0.397755
0.400689
0.403994
0.406469
0.407634
0.40742
0.405968
0.403492
0.400207
0.396299
0.391928
0.38722
0.382279
0.377188
0.372012
0.366803
0.361604
0.356456
0.351389
0.346354
0.341242
0.336375
0.33309
0.439307
0.431006
0.429536
0.431174
0.433003
0.433961
0.433653
0.432047
0.429302
0.42563
0.42124
0.416313
0.410997
0.405413
0.399656
0.393802
0.387911
0.38203
0.376196
0.370446
0.364803
0.359223
0.353614
0.348271
0.344346
0.470972
0.461975
0.45955
0.459941
0.460357
0.459869
0.458158
0.455231
0.451258
0.446452
0.441016
0.435122
0.428911
0.422496
0.415965
0.409389
0.402822
0.396305
0.389871
0.383553
0.377368
0.371278
0.365205
0.359413
0.354883
0.500624
0.490973
0.487638
0.486844
0.485922
0.484068
0.481037
0.476867
0.47174
0.465869
0.45945
0.452649
0.445598
0.438403
0.431147
0.423894
0.416693
0.409581
0.402586
0.395737
0.389049
0.382484
0.375981
0.369769
0.36467
0.528103
0.517844
0.513654
0.511747
0.509574
0.506445
0.502183
0.496858
0.490659
0.483799
0.476468
0.468823
0.460993
0.453075
0.445146
0.437265
0.429476
0.421813
0.4143
0.406961
0.399806
0.392805
0.385907
0.379306
0.373677
0.553262
0.542445
0.537462
0.534525
0.531195
0.526893
0.5215
0.515114
0.507931
0.500163
0.491995
0.483579
0.475033
0.466452
0.457907
0.449451
0.441125
0.432957
0.424971
0.417183
0.409604
0.402206
0.394949
0.387992
0.381874
0.575969
0.564645
0.558939
0.555064
0.550683
0.545316
0.538899
0.531552
0.52348
0.514892
0.505968
0.496853
0.487662
0.478483
0.469381
0.460406
0.451595
0.442973
0.434559
0.426368
0.418407
0.410653
0.403074
0.395795
0.389233
0.596101
0.584327
0.577974
0.573259
0.567941
0.561625
0.554297
0.546097
0.537236
0.52792
0.518324
0.508591
0.498827
0.489117
0.479521
0.470087
0.460846
0.451821
0.443029
0.434481
0.426182
0.418114
0.410251
0.402685
0.395728
0.613553
0.601388
0.594469
0.589021
0.582886
0.575746
0.567626
0.558685
0.549138
0.53919
0.529013
0.518742
0.508482
0.498311
0.488288
0.478454
0.468841
0.459467
0.450348
0.441491
0.4329
0.424561
0.416452
0.408638
0.401336
0.628232
0.615737
0.60834
0.602271
0.595445
0.587609
0.578822
0.569257
0.559133
0.548653
0.537986
0.527263
0.516585
0.506026
0.495643
0.485474
0.475548
0.465881
0.456487
0.44737
0.438534
0.429967
0.421653
0.413628
0.406035
0.640061
0.627299
0.619513
0.612942
0.605558
0.59716
0.587834
0.577766
0.567175
0.556267
0.545204
0.534117
0.523102
0.512231
0.501558
0.491119
0.48094
0.471037
0.461421
0.452095
0.443061
0.434311
0.425832
0.417638
0.409809
0.648977
0.636013
0.627934
0.620982
0.613176
0.604352
0.59462
0.584171
0.57323
0.561997
0.550636
0.539274
0.528004
0.516898
0.506006
0.495363
0.484994
0.474913
0.46513
0.455647
0.446464
0.437576
0.428972
0.42065
0.412643
0.654933
0.641834
0.633557
0.62635
0.618261
0.609153
0.599148
0.588445
0.577268
0.565818
0.554258
0.542711
0.531272
0.520008
0.508969
0.49819
0.487693
0.477494
0.467598
0.45801
0.448728
0.439748
0.431061
0.422653
0.414526
0.657897
0.644729
0.636354
0.629019
0.620788
0.611538
0.601397
0.590566
0.579271
0.567713
0.556053
0.544414
0.53289
0.521547
0.510435
0.499587
0.489027
0.478768
0.468817
0.459176
0.449844
0.440818
0.432089
0.423639
0.415452
0.657853
0.644685
0.63631
0.628976
0.620746
0.611496
0.601355
0.590525
0.579231
0.567673
0.556013
0.544375
0.53285
0.521508
0.510396
0.499549
0.488989
0.47873
0.468779
0.459139
0.449807
0.440781
0.432053
0.423603
0.415417
0.654801
0.6417
0.633424
0.62622
0.618133
0.609027
0.599024
0.588322
0.577146
0.565698
0.554138
0.542593
0.531154
0.519891
0.508853
0.498075
0.487579
0.47738
0.467486
0.457899
0.448617
0.439638
0.430952
0.422545
0.41442
0.648756
0.635789
0.627712
0.620764
0.612961
0.604142
0.594412
0.583966
0.573026
0.561795
0.550436
0.539076
0.527808
0.516703
0.505812
0.495171
0.484803
0.474724
0.464942
0.45546
0.446279
0.437393
0.42879
0.42047
0.412466
0.639749
0.626983
0.619201
0.612635
0.605256
0.596863
0.587541
0.577476
0.566889
0.555983
0.544923
0.533838
0.522825
0.511957
0.501285
0.490848
0.480671
0.470771
0.461157
0.451834
0.442802
0.434054
0.425576
0.417385
0.40956
0.627827
0.615327
0.607934
0.601872
0.595054
0.587224
0.578443
0.568883
0.558763
0.548286
0.537623
0.526903
0.516228
0.505672
0.495292
0.485126
0.475202
0.465538
0.456146
0.447033
0.438199
0.429635
0.421323
0.413302
0.405714
0.613052
0.600881
0.593968
0.588528
0.582402
0.57527
0.567158
0.558224
0.548682
0.538739
0.528566
0.518299
0.508043
0.497875
0.487856
0.478026
0.468416
0.459046
0.44993
0.441077
0.432489
0.424153
0.416048
0.408237
0.400943
0.5955
0.58372
0.577373
0.572669
0.567362
0.561057
0.553739
0.545546
0.536692
0.527382
0.517792
0.508063
0.498304
0.488599
0.479007
0.469577
0.46034
0.45132
0.442532
0.433989
0.425695
0.417631
0.409772
0.40221
0.395262
0.575263
0.563933
0.558235
0.554373
0.550006
0.544652
0.538246
0.530908
0.522845
0.514264
0.505347
0.496239
0.487054
0.47788
0.468783
0.459814
0.451008
0.442391
0.433982
0.425797
0.417841
0.410093
0.402519
0.395244
0.388693
0.552448
0.541623
0.53665
0.533729
0.530416
0.526129
0.52075
0.514375
0.507203
0.499444
0.491284
0.482875
0.474337
0.465763
0.457224
0.448774
0.440455
0.432293
0.424313
0.416532
0.408959
0.401568
0.394316
0.387365
0.381259
0.527174
0.516908
0.512728
0.510841
0.508688
0.505577
0.501332
0.496021
0.489834
0.482985
0.475663
0.468028
0.460206
0.452296
0.444375
0.436502
0.428721
0.421065
0.413559
0.406227
0.39908
0.392087
0.385195
0.378601
0.372986
0.499575
0.489916
0.486594
0.485823
0.484925
0.483092
0.48008
0.475927
0.470815
0.464957
0.45855
0.451759
0.444718
0.437533
0.430286
0.423042
0.41585
0.408746
0.401761
0.394921
0.388241
0.381684
0.375189
0.368985
0.363902
0.469796
0.460792
0.458381
0.458798
0.459242
0.458779
0.457091
0.454184
0.450228
0.445437
0.440015
0.434134
0.427935
0.421531
0.415011
0.408446
0.401889
0.395382
0.388958
0.38265
0.376476
0.370395
0.364332
0.358548
0.354036
0.437997
0.429688
0.428236
0.429904
0.431765
0.432753
0.432471
0.430888
0.428163
0.424509
0.420136
0.415224
0.409922
0.404351
0.398607
0.392765
0.386887
0.381017
0.375194
0.369456
0.363825
0.358256
0.352657
0.347324
0.343419
0.404347
0.396771
0.396316
0.399285
0.402627
0.405136
0.406332
0.406144
0.404716
0.402261
0.398994
0.395105
0.39075
0.386057
0.381131
0.376054
0.370892
0.365697
0.360511
0.355377
0.350323
0.3453
0.340201
0.335345
0.332081
0.369028
0.362218
0.362789
0.367097
0.371971
0.376059
0.378795
0.380062
0.379988
0.378786
0.376677
0.373856
0.37049
0.366717
0.362646
0.358369
0.353957
0.349468
0.344949
0.34045
0.336005
0.331562
0.326992
0.32264
0.320048
0.33223
0.326215
0.327832
0.333506
0.339948
0.345662
0.349986
0.352758
0.354088
0.354184
0.353273
0.35156
0.34922
0.346398
0.343214
0.339765
0.33613
0.332373
0.328549
0.324711
0.320901
0.317066
0.313057
0.309232
0.307343
0.294154
0.288959
0.291631
0.298683
0.306718
0.314089
0.32004
0.324356
0.327127
0.328558
0.328879
0.328304
0.327017
0.325173
0.322898
0.320299
0.317462
0.314456
0.311344
0.308187
0.305035
0.301834
0.298411
0.295136
0.29398
0.255009
0.250655
0.254382
0.262811
0.272447
0.281494
0.289096
0.294984
0.299223
0.302015
0.303593
0.304178
0.303964
0.303114
0.301764
0.300027
0.297999
0.295756
0.293366
0.290901
0.28842
0.285872
0.283058
0.280351
0.279957
0.215011
0.211513
0.216285
0.226077
0.237308
0.248036
0.2573
0.264776
0.270501
0.27467
0.277519
0.279278
0.280147
0.280299
0.279878
0.279007
0.277788
0.276307
0.274638
0.272864
0.271056
0.269168
0.266976
0.26485
0.265251
0.174384
0.171752
0.17755
0.188677
0.201482
0.21388
0.224805
0.233871
0.241088
0.24664
0.250766
0.253702
0.255655
0.256808
0.257312
0.257299
0.256878
0.256144
0.255181
0.25408
0.252929
0.25169
0.250116
0.248571
0.2498
0.133355
0.131597
0.138391
0.150811
0.165154
0.179197
0.191767
0.202415
0.211118
0.21805
0.22345
0.227556
0.230586
0.232728
0.234143
0.234968
0.23532
0.235303
0.235008
0.234538
0.234
0.233367
0.232371
0.231379
0.233474
0.0921559
0.0912737
0.099026
0.112684
0.128515
0.144162
0.158348
0.170557
0.180731
0.18903
0.19569
0.200953
0.205044
0.208156
0.210457
0.212089
0.213178
0.213829
0.214145
0.21424
0.214237
0.214121
0.2136
0.213066
0.216054
0.0510211
0.0510126
0.0596761
0.0745041
0.0917567
0.108954
0.124715
0.138453
0.150073
0.159716
0.167615
0.174015
0.179144
0.183201
0.186356
0.188759
0.190534
0.191791
0.192633
0.193182