/*--------------------------------*- C++ -*----------------------------------*\
  =========                 |
  \\      /  F ield         | OpenFOAM: The Open Source CFD Toolbox
   \\    /   O peration     | Website:  https://openfoam.org
    \\  /    A nd           | Version:  6.0
     \\/     M anipulation  |
\*---------------------------------------------------------------------------*/
FoamFile
{
    version     2.0;
    format      ascii;
    class       surfaceScalarField;
    location    "45";
    object      phi;
}
// * * * * * * * * * * * * * * * * * * * * * * * * * * * * * * * * * * * * * //

dimensions      [0 3 -1 0 0 0 0];

internalField   nonuniform List<scalar> 
24700
(
-1.24885e-06
-7.71213e-07
2.02007e-06
-4.54512e-06
-1.38472e-06
4.68099e-06
-9.50077e-06
-1.3589e-06
6.31455e-06
-1.57753e-05
-9.06408e-07
7.1809e-06
-2.30751e-05
-1.87463e-07
7.48733e-06
-3.11521e-05
6.79358e-07
7.39762e-06
-3.98004e-05
1.60892e-06
7.03933e-06
-4.88532e-05
2.54272e-06
6.51017e-06
-5.81801e-05
3.44329e-06
5.88353e-06
-6.76827e-05
4.28942e-06
5.21321e-06
-7.72925e-05
5.0723e-06
4.53748e-06
-8.69672e-05
5.79228e-06
3.88242e-06
-9.66882e-05
6.45627e-06
3.26473e-06
-0.000106458
7.07561e-06
2.69389e-06
-0.000116296
7.66442e-06
2.17397e-06
-0.000126239
8.23833e-06
1.70491e-06
-0.000136336
8.81346e-06
1.28358e-06
-0.000146647
9.40577e-06
9.04475e-07
-0.000157237
1.00305e-05
5.60272e-07
-0.000168181
1.07017e-05
2.42235e-07
-0.000179554
1.14325e-05
-5.95152e-08
-0.000191433
1.22343e-05
-3.55783e-07
-0.000203892
1.31171e-05
-6.58118e-07
-0.000217004
1.40903e-05
-9.78687e-07
1.51643e-05
-1.32994e-06
-0.000230838
-1.25129e-06
4.80079e-07
-4.55031e-06
1.9143e-06
-9.5054e-06
3.59619e-06
-1.57732e-05
5.36144e-06
-2.30583e-05
7.09763e-06
-3.11108e-05
8.73184e-06
-3.97235e-05
1.02216e-05
-4.87286e-05
1.15478e-05
-5.79941e-05
1.27088e-05
-6.74206e-05
1.37159e-05
-7.6938e-05
1.45897e-05
-8.65026e-05
1.53568e-05
-9.6094e-05
1.60477e-05
-0.000105713
1.66944e-05
-0.000115378
1.73293e-05
-0.000125123
1.79836e-05
-0.000134996
1.86866e-05
-0.000145055
1.9465e-05
-0.000155367
2.0342e-05
-0.000166003
2.13376e-05
-0.000177038
2.2468e-05
-0.000188549
2.37457e-05
-0.000200612
2.51795e-05
-0.000213297
2.67759e-05
2.85435e-05
-0.000226676
-1.25392e-06
1.734e-06
-4.55489e-06
5.21528e-06
-9.50619e-06
8.54749e-06
-1.57604e-05
1.16157e-05
-2.30189e-05
1.43561e-05
-3.10289e-05
1.67418e-05
-3.95807e-05
1.87734e-05
-4.8504e-05
2.04711e-05
-5.76643e-05
2.1869e-05
-6.69593e-05
2.30109e-05
-7.63158e-05
2.39463e-05
-8.56871e-05
2.47281e-05
-9.50495e-05
2.54101e-05
-0.000104401
2.60454e-05
-0.000113756
2.66846e-05
-0.000123147
2.7375e-05
-0.00013262
2.81595e-05
-0.000142231
2.9076e-05
-0.000152046
3.01566e-05
-0.000162136
3.14279e-05
-0.000172578
3.29099e-05
-0.00018345
3.46171e-05
-0.000194827
3.65574e-05
-0.000206787
3.87351e-05
4.11568e-05
-0.0002194
-1.25708e-06
2.99107e-06
-4.55991e-06
8.51811e-06
-9.50521e-06
1.34928e-05
-1.57403e-05
1.78508e-05
-2.29619e-05
2.15777e-05
-3.09136e-05
2.46935e-05
-3.9382e-05
2.72419e-05
-4.81931e-05
2.92822e-05
-5.72085e-05
3.08844e-05
-6.63216e-05
3.2124e-05
-7.5455e-05
3.30796e-05
-8.45569e-05
3.383e-05
-9.3599e-05
3.44523e-05
-0.000102574
3.50205e-05
-0.000111493
3.5604e-05
-0.000120385
3.62668e-05
-0.000129292
3.70662e-05
-0.000138268
3.80524e-05
-0.00014738
3.92677e-05
-0.000156698
4.07461e-05
-0.000166301
4.25135e-05
-0.000176271
4.45867e-05
-0.000186688
4.69743e-05
-0.000197632
4.9679e-05
5.27057e-05
-0.000209181
-1.26113e-06
4.25221e-06
-4.56645e-06
1.18234e-05
-9.50453e-06
1.84309e-05
-1.57161e-05
2.40623e-05
-2.28925e-05
2.87541e-05
-3.07724e-05
3.25735e-05
-3.91381e-05
3.56075e-05
-4.78107e-05
3.79549e-05
-5.66467e-05
3.97205e-05
-6.55343e-05
4.10116e-05
-7.43899e-05
4.19352e-05
-8.31556e-05
4.25956e-05
-9.17966e-05
4.30933e-05
-0.000100299
4.35231e-05
-0.000108669
4.39739e-05
-0.000116929
4.45268e-05
-0.000125118
4.5255e-05
-0.000133288
4.62222e-05
-0.000141503
4.74826e-05
-0.000149836
4.90799e-05
-0.00015837
5.10471e-05
-0.000167189
5.34058e-05
-0.000176381
5.61665e-05
-0.000186034
5.93317e-05
6.29053e-05
-0.000196234
-1.26641e-06
5.51862e-06
-4.5754e-06
1.51324e-05
-9.50579e-06
2.33613e-05
-1.56906e-05
3.02471e-05
-2.28148e-05
3.58783e-05
-3.06118e-05
4.03705e-05
-3.88584e-05
4.38541e-05
-4.73704e-05
4.64669e-05
-5.59984e-05
4.83485e-05
-6.46239e-05
4.96371e-05
-7.31562e-05
5.04675e-05
-8.15295e-05
5.09689e-05
-8.9701e-05
5.12647e-05
-9.76489e-05
5.1471e-05
-0.000105371
5.16961e-05
-0.000112884
5.20394e-05
-0.00012022
5.25911e-05
-0.000127428
5.34306e-05
-0.000134572
5.46261e-05
-0.000141725
5.62333e-05
-0.000148973
5.82952e-05
-0.000156408
6.08409e-05
-0.000164127
6.3885e-05
-0.000172227
6.74319e-05
7.14856e-05
-0.000180807
-1.2731e-06
6.79172e-06
-4.58719e-06
1.84465e-05
-9.50965e-06
2.82837e-05
-1.56648e-05
3.64022e-05
-2.27307e-05
4.29443e-05
-3.04349e-05
4.80746e-05
-3.85484e-05
5.19677e-05
-4.68814e-05
5.47998e-05
-5.52779e-05
5.67449e-05
-6.36119e-05
5.79712e-05
-7.17844e-05
5.864e-05
-7.97205e-05
5.89051e-05
-8.73677e-05
5.89119e-05
-9.46941e-05
5.87974e-05
-0.000101688
5.86899e-05
-0.000108356
5.87079e-05
-0.000114725
5.896e-05
-0.000120838
5.95434e-05
-0.000126755
6.0543e-05
-0.000132552
6.203e-05
-0.000138317
6.40608e-05
-0.000144152
6.66755e-05
-0.000150163
6.98965e-05
-0.000156465
7.37332e-05
7.81918e-05
-0.000163171
-1.28118e-06
8.0729e-06
-4.60146e-06
2.17668e-05
-9.51517e-06
3.31974e-05
-1.56371e-05
4.25241e-05
-2.26381e-05
4.99453e-05
-3.02396e-05
5.56761e-05
-3.82071e-05
5.99352e-05
-4.63448e-05
6.29375e-05
-5.44899e-05
6.489e-05
-6.25087e-05
6.599e-05
-7.02931e-05
6.64244e-05
-7.7758e-05
6.63699e-05
-8.48394e-05
6.59933e-05
-9.14937e-05
6.54518e-05
-9.76971e-05
6.48933e-05
-0.000103445
6.44562e-05
-0.000108754
6.42691e-05
-0.00011366
6.4449e-05
-0.000118218
6.5101e-05
-0.000122503
6.63155e-05
-0.00012661
6.8167e-05
-0.000130646
7.07115e-05
-0.000134734
7.39844e-05
-0.000139005
7.80044e-05
8.27838e-05
-0.000143597
-1.29034e-06
9.36324e-06
-4.61682e-06
2.50933e-05
-9.51925e-06
3.80999e-05
-1.56023e-05
4.86071e-05
-2.25295e-05
5.68725e-05
-3.00164e-05
6.31631e-05
-3.78235e-05
6.77423e-05
-4.57491e-05
7.08631e-05
-5.36241e-05
7.2765e-05
-6.13071e-05
7.3673e-05
-6.86806e-05
7.37979e-05
-7.56483e-05
7.33377e-05
-8.2134e-05
7.24789e-05
-8.80802e-05
7.1398e-05
-9.34488e-05
7.02619e-05
-9.82215e-05
6.92289e-05
-0.000102401
6.84485e-05
-0.000106012
6.80602e-05
-0.000109103
6.81922e-05
-0.000111747
6.89591e-05
-0.000114039
7.04591e-05
-0.000116098
7.27708e-05
-0.000118063
7.5949e-05
-0.000120087
8.0029e-05
8.50348e-05
-0.000122338
-1.29989e-06
1.06631e-05
-4.63062e-06
2.8424e-05
-9.51616e-06
4.29854e-05
-1.55507e-05
5.46416e-05
-2.23906e-05
6.37125e-05
-2.97464e-05
7.05188e-05
-3.73737e-05
7.53696e-05
-4.50664e-05
7.85558e-05
-5.26496e-05
8.03483e-05
-5.99748e-05
8.09982e-05
-6.69153e-05
8.07384e-05
-7.3364e-05
7.97863e-05
-7.9231e-05
7.8346e-05
-8.44441e-05
7.6611e-05
-8.89484e-05
7.47662e-05
-9.27085e-05
7.2989e-05
-9.57103e-05
7.14503e-05
-9.79639e-05
7.03137e-05
-9.95058e-05
6.97341e-05
-0.000100402
6.98553e-05
-0.000100749
7.0806e-05
-0.000100674
7.26955e-05
-0.000100332
7.56077e-05
-9.99073e-05
7.9604e-05
8.47294e-05
-9.96019e-05
-1.30871e-06
1.19718e-05
-4.63875e-06
3.17541e-05
-9.49717e-06
4.78438e-05
-1.54675e-05
6.06119e-05
-2.21996e-05
7.04445e-05
-2.93992e-05
7.77184e-05
-3.68187e-05
8.27892e-05
-4.42486e-05
8.59856e-05
-5.15096e-05
8.76093e-05
-5.84472e-05
8.79358e-05
-6.49269e-05
8.72181e-05
-7.08309e-05
8.56903e-05
-7.60564e-05
8.35715e-05
-8.05151e-05
8.10697e-05
-8.4134e-05
7.83851e-05
-8.68578e-05
7.57128e-05
-8.86517e-05
7.32442e-05
-8.95059e-05
7.11679e-05
-8.94401e-05
6.96683e-05
-8.85083e-05
6.89234e-05
-8.68025e-05
6.91002e-05
-8.44557e-05
7.03487e-05
-8.16421e-05
7.27941e-05
-7.85759e-05
7.65378e-05
8.16597e-05
-7.55062e-05
-1.31528e-06
1.32871e-05
-4.63565e-06
3.50744e-05
-9.45045e-06
5.26586e-05
-1.53326e-05
6.64941e-05
-2.19257e-05
7.70376e-05
-2.89321e-05
8.47248e-05
-3.61021e-05
8.99592e-05
-4.32242e-05
9.31077e-05
-5.01166e-05
9.45017e-05
-5.66209e-05
9.44401e-05
-6.25964e-05
9.31935e-05
-6.79164e-05
9.10103e-05
-7.24662e-05
8.81213e-05
-7.61419e-05
8.47455e-05
-7.88519e-05
8.10951e-05
-8.05187e-05
7.73796e-05
-8.10834e-05
7.38089e-05
-8.05113e-05
7.05958e-05
-7.87986e-05
6.79556e-05
-7.598e-05
6.61048e-05
-7.21363e-05
6.52566e-05
-6.74009e-05
6.56133e-05
-6.19639e-05
6.7357e-05
-5.60739e-05
7.06479e-05
7.56215e-05
-5.00357e-05
-1.3177e-06
1.46048e-05
-4.61441e-06
3.83711e-05
-9.36124e-06
5.74055e-05
-1.51206e-05
7.22534e-05
-2.15302e-05
8.34472e-05
-2.829e-05
9.14846e-05
-3.51494e-05
9.68186e-05
-4.18968e-05
9.9855e-05
-4.83499e-05
0.000100955
-5.43487e-05
0.000100439
-5.9749e-05
9.85939e-05
-6.44181e-05
9.56794e-05
-6.82318e-05
9.19349e-05
-7.10726e-05
8.75863e-05
-7.2831e-05
8.28535e-05
-7.3407e-05
7.79556e-05
-7.27152e-05
7.31172e-05
-7.06914e-05
6.8572e-05
-6.73014e-05
6.45656e-05
-6.2552e-05
6.13554e-05
-5.65029e-05
5.92075e-05
-4.9279e-05
5.83894e-05
-4.108e-05
5.9158e-05
-3.21894e-05
6.17573e-05
6.64089e-05
-2.29768e-05
-1.31375e-06
1.59186e-05
-4.56707e-06
4.16245e-05
-9.21244e-06
6.20508e-05
-1.48016e-05
7.78425e-05
-2.09668e-05
8.96125e-05
-2.74061e-05
9.79239e-05
-3.38691e-05
0.000103282
-4.01453e-05
0.000106131
-4.60545e-05
0.000106864
-5.14375e-05
0.000105822
-5.615e-05
0.000103306
-6.00568e-05
9.95862e-05
-6.30279e-05
9.4906e-05
-6.49364e-05
8.94949e-05
-6.5658e-05
8.3575e-05
-6.50723e-05
7.73699e-05
-6.30673e-05
7.11122e-05
-5.95464e-05
6.50512e-05
-5.44392e-05
5.94584e-05
-4.7715e-05
5.46312e-05
-3.94006e-05
5.08931e-05
-2.95987e-05
4.85875e-05
-1.85079e-05
4.80672e-05
-6.44142e-06
4.96908e-05
5.38084e-05
6.15907e-06
-1.3011e-06
1.72197e-05
-4.48505e-06
4.48084e-05
-8.98537e-06
6.65512e-05
-1.43427e-05
8.31999e-05
-2.01837e-05
9.54535e-05
-2.62043e-05
0.000103944
-3.21547e-05
0.000109232
-3.78271e-05
0.000111804
-4.30442e-05
0.000112081
-4.76505e-05
0.000110428
-5.15048e-05
0.000107161
-5.44737e-05
0.000102555
-5.64267e-05
9.6859e-05
-5.72331e-05
9.03013e-05
-5.67597e-05
8.31016e-05
-5.4871e-05
7.54812e-05
-5.14323e-05
6.76734e-05
-4.63158e-05
5.99347e-05
-3.94115e-05
5.25541e-05
-3.06435e-05
4.58632e-05
-1.9992e-05
4.02416e-05
-7.52092e-06
3.61164e-05
6.59059e-06
3.39557e-05
2.20122e-05
3.42692e-05
3.75924e-05
3.82282e-05
-1.27744e-06
1.84971e-05
-4.35976e-06
4.78907e-05
-8.66096e-06
7.08524e-05
-1.37097e-05
8.82486e-05
-1.91258e-05
0.00010087
-2.46025e-05
0.000109421
-2.989e-05
0.00011452
-3.47827e-05
0.000116696
-3.91073e-05
0.000116406
-4.27135e-05
0.000114034
-4.54658e-05
0.000109913
-4.72369e-05
0.000104326
-4.79015e-05
9.75237e-05
-4.73323e-05
8.97321e-05
-4.53958e-05
8.11651e-05
-4.19507e-05
7.20361e-05
-3.68486e-05
6.25713e-05
-2.99373e-05
5.30234e-05
-2.10704e-05
4.36872e-05
-1.01234e-05
3.49162e-05
2.98116e-06
2.7137e-05
1.82379e-05
2.08597e-05
3.55121e-05
1.66815e-05
5.44802e-05
1.5301e-05
1.75115e-05
7.45611e-05
-1.24074e-06
1.97379e-05
-4.18322e-06
5.08332e-05
-8.22098e-06
7.48901e-05
-1.28689e-05
9.28966e-05
-1.77383e-05
0.000105739
-2.25171e-05
0.0001142
-2.6954e-05
0.000118957
-3.08441e-05
0.000120586
-3.40169e-05
0.000119579
-3.63272e-05
0.000116345
-3.76467e-05
0.000111232
-3.78568e-05
0.000104536
-3.6843e-05
9.65099e-05
-3.44888e-05
8.73778e-05
-3.06709e-05
7.73472e-05
-2.52554e-05
6.66206e-05
-1.80945e-05
5.54104e-05
-9.02685e-06
4.39557e-05
2.11784e-06
3.25425e-05
1.55064e-05
2.15276e-05
3.12776e-05
1.13658e-05
4.95014e-05
2.63591e-06
7.01183e-05
-3.93543e-06
9.28499e-05
-7.43054e-06
-6.71432e-06
0.000117076
-1.18937e-06
2.09272e-05
-3.94866e-06
5.35925e-05
-7.64924e-06
7.85907e-05
-1.17897e-05
9.7037e-05
-1.59692e-05
0.000109919
-1.98678e-05
0.000118099
-2.32287e-05
0.000122317
-2.58441e-05
0.000123202
-2.75434e-05
0.000121278
-2.8184e-05
0.000116985
-2.76434e-05
0.000110692
-2.58126e-05
0.000102705
-2.25904e-05
9.32876e-05
-1.78776e-05
8.2665e-05
-1.15717e-05
7.10413e-05
-3.56071e-06
5.86097e-05
6.28224e-06
4.55674e-05
1.81042e-05
3.21338e-05
3.20744e-05
1.85724e-05
4.83799e-05
5.22215e-06
6.72085e-05
-7.46285e-06
8.87111e-05
-1.88667e-05
0.000112933
-2.81572e-05
0.000139693
-3.41908e-05
-3.54081e-05
0.000168387
-1.12229e-06
2.20495e-05
-3.65097e-06
5.61212e-05
-6.93253e-06
8.18723e-05
-1.04455e-05
0.00010055
-1.3773e-05
0.000113246
-1.65819e-05
0.000120907
-1.86049e-05
0.00012434
-1.96257e-05
0.000124223
-1.94681e-05
0.00012112
-1.79869e-05
0.000115504
-1.50605e-05
0.000107765
-1.05863e-05
9.82312e-05
-4.47537e-06
8.71767e-05
3.35153e-06
7.48381e-05
1.29691e-05
6.14238e-05
2.44531e-05
4.71256e-05
3.78882e-05
3.21323e-05
5.33768e-05
1.66452e-05
7.10485e-05
9.00606e-07
9.10684e-05
-1.47978e-05
0.000113635
-3.00298e-05
0.00013896
-4.41913e-05
0.000167205
-5.64024e-05
0.000198348
-6.5334e-05
-6.89557e-05
0.000231896
-1.03908e-06
2.30886e-05
-3.28685e-06
5.8369e-05
-6.06103e-06
8.46465e-05
-8.81541e-06
0.000103304
-1.11116e-05
0.000115542
-1.25972e-05
0.000122393
-1.29875e-05
0.000124731
-1.20506e-05
0.000123286
-9.59645e-06
0.000118666
-5.46858e-06
0.000111376
4.61587e-07
0.000101835
8.29846e-06
9.03944e-05
1.81249e-05
7.73503e-05
3.00042e-05
6.29588e-05
4.39824e-05
4.74456e-05
6.00918e-05
3.10162e-05
7.83569e-05
1.38672e-05
9.88044e-05
-3.80231e-06
0.000121478
-2.17729e-05
0.000146458
-3.97773e-05
0.00017388
-5.74524e-05
0.00020395
-7.42612e-05
0.000236917
-8.93696e-05
0.000272964
-0.000101381
-0.000107838
0.000311846
-9.3987e-07
2.40285e-05
-2.85458e-06
6.02837e-05
-5.02795e-06
8.68198e-05
-6.8833e-06
0.00010516
-7.95439e-06
0.000116613
-7.86256e-06
0.000122301
-6.2977e-06
0.000123166
-3.00323e-06
0.000119991
2.23469e-06
0.000113428
9.59458e-06
0.000104016
1.9224e-05
9.22059e-05
3.12413e-05
7.8377e-05
4.57359e-05
6.28556e-05
6.27669e-05
4.59279e-05
8.23607e-05
2.78517e-05
0.00010451
8.86657e-06
0.000129175
-1.07978e-05
0.000156287
-3.09137e-05
0.000185759
-5.12453e-05
0.000217515
-7.15333e-05
0.000251524
-9.14611e-05
0.000287853
-0.00011059
0.000326724
-0.00012824
0.000368502
-0.00014316
-0.00015267
0.000413334
-8.25118e-07
2.48536e-05
-2.35344e-06
6.1812e-05
-3.82843e-06
8.82948e-05
-4.6365e-06
0.000105968
-4.27661e-06
0.000116253
-2.33616e-06
0.000120361
1.52898e-06
0.000119301
7.6098e-06
0.00011391
1.61549e-05
0.000104883
2.7377e-05
9.27942e-05
4.14565e-05
7.81264e-05
5.85415e-05
6.1292e-05
7.87452e-05
4.26519e-05
0.000102142
2.25316e-05
0.000128758
1.23502e-06
0.000158569
-2.0944e-05
0.000191484
-4.37132e-05
0.000227346
-6.6775e-05
0.000265923
-8.98227e-05
0.000306927
-0.000112537
0.000350043
-0.000134578
0.000395012
-0.000155559
0.000441763
-0.000174991
0.00049063
-0.000192027
-0.0002043
0.000542261
-6.95287e-07
2.55489e-05
-1.78267e-06
6.28994e-05
-2.45771e-06
8.89698e-05
-2.06289e-06
0.000105573
-5.51871e-08
0.000114246
4.01972e-06
0.000116286
1.05485e-05
0.000112772
1.98661e-05
0.000104593
3.22663e-05
9.2483e-05
4.80082e-05
7.70524e-05
6.73184e-05
5.88162e-05
9.03907e-05
3.82198e-05
0.000117381
1.56611e-05
0.000148403
-8.49012e-06
0.000183514
-3.38757e-05
0.000222704
-6.0134e-05
0.000265877
-8.68867e-05
0.000312831
-0.000113728
0.000363227
-0.000140219
0.00041657
-0.000165881
0.000472201
-0.000190209
0.000529331
-0.000212689
0.000587194
-0.000232854
0.000645483
-0.000250315
-0.00026448
0.000705662
-5.50439e-07
2.60993e-05
-1.14029e-06
6.34892e-05
-9.08794e-07
8.87384e-05
8.52708e-07
0.000103811
4.73633e-06
0.000110362
1.12455e-05
0.000109777
2.08171e-05
0.0001032
3.38382e-05
9.15718e-05
5.06562e-05
7.56649e-05
7.15859e-05
5.61227e-05
9.69106e-05
3.34914e-05
0.000126882
8.24846e-06
0.000161715
-1.91724e-05
0.000201584
-4.83588e-05
0.000246608
-7.88999e-05
0.000296841
-0.000110367
0.000352249
-0.000142295
0.000412679
-0.000174158
0.000477813
-0.000205352
0.000547091
-0.000235159
0.000619622
-0.000262739
0.000694064
-0.000287131
0.000768556
-0.000307346
0.000841115
-0.000322874
-0.000337449
0.000914084
-3.8982e-07
2.64891e-05
-4.21813e-07
6.35212e-05
8.29901e-07
8.74866e-05
4.13229e-06
0.000100509
1.01332e-05
0.000104361
1.93915e-05
0.000100518
3.24006e-05
9.0191e-05
4.9605e-05
7.43674e-05
7.14111e-05
5.38588e-05
9.81928e-05
2.9341e-05
0.000130294
1.39035e-06
0.000168027
-2.94848e-05
0.000211672
-6.28174e-05
0.000261472
-9.81587e-05
0.00031763
-0.000135057
0.000380303
-0.00017304
0.000449598
-0.00021159
0.000525563
-0.000250123
0.000608159
-0.000287948
0.000697214
-0.000324214
0.000792307
-0.000357833
0.000892517
-0.000387341
0.000995709
-0.000410538
0.00109664
-0.000423808
-0.000423299
0.00118249
-2.11986e-07
2.67011e-05
3.79992e-07
6.29292e-05
2.7756e-06
8.5091e-05
7.80678e-06
9.54779e-05
1.61829e-05
9.59851e-05
2.85233e-05
8.8178e-05
4.53815e-05
7.33329e-05
6.72616e-05
5.24873e-05
9.46283e-05
2.64921e-05
0.000127911
-3.94199e-06
0.000167507
-3.82052e-05
0.000213777
-7.57553e-05
0.000267051
-0.000116091
0.00032762
-0.000158728
0.00039575
-0.000203187
0.000471686
-0.000248976
0.000555676
-0.00029558
0.000648008
-0.000342456
0.000749084
-0.000389024
0.000859538
-0.000434668
0.000980448
-0.000478743
0.0011137
-0.000520589
0.00126279
-0.000559635
0.00143535
-0.000596361
-0.000636384
0.00164843
-1.28267e-08
2.67139e-05
1.27871e-06
6.16377e-05
4.95588e-06
8.14139e-05
1.19215e-05
8.85124e-05
2.2951e-05
8.49555e-05
3.87273e-05
7.24017e-05
5.98647e-05
5.21954e-05
8.69244e-05
2.54276e-05
0.000120422
-7.00542e-06
0.00016083
-4.43499e-05
0.000208576
-8.59518e-05
0.000264044
-0.000131223
0.000327567
-0.000179613
0.000399433
-0.000230595
0.000479891
-0.000283646
0.000569164
-0.000338249
0.000667475
-0.000393891
0.000775089
-0.00045007
0.000892383
-0.000506318
0.00101994
-0.000562226
0.0011587
-0.000617499
0.00131012
-0.000672016
0.00147643
-0.000725942
0.00166011
-0.000780042
-0.000834349
0.00185808
2.11861e-07
2.65021e-05
2.28981e-06
5.95598e-05
7.40304e-06
7.63006e-05
1.65297e-05
7.93857e-05
3.05143e-05
7.09709e-05
5.01035e-05
5.28124e-05
7.59695e-05
2.63295e-05
0.000108722
-7.32485e-06
0.000148913
-4.7196e-05
0.000197033
-9.24706e-05
0.000253511
-0.00014243
0.000318704
-0.000196415
0.000392892
-0.000253802
0.000476284
-0.000313986
0.000569013
-0.000376374
0.000671151
-0.000440387
0.00078273
-0.000505469
0.000903763
-0.000571103
0.00103428
-0.000636839
0.00117438
-0.000702325
0.00132424
-0.000767359
0.00148415
-0.000831918
0.00165437
-0.000896164
0.00183458
-0.000960256
-0.0010213
0.00202154
4.67969e-07
2.60341e-05
3.43301e-06
5.65947e-05
1.01563e-05
6.95773e-05
2.16939e-05
6.78481e-05
3.89598e-05
5.37051e-05
6.27614e-05
2.90108e-05
9.38203e-05
-4.72936e-06
0.00013278
-4.62844e-05
0.000180204
-9.46203e-05
0.000236571
-0.000148837
0.00030226
-0.00020812
0.000377548
-0.000271703
0.000462594
-0.000338848
0.000557438
-0.000408831
0.000662006
-0.000480942
0.000776113
-0.000554494
0.000899476
-0.000628833
0.00103174
-0.000703362
0.00117246
-0.000777566
0.00132118
-0.00085104
0.00147733
-0.000923516
0.00164029
-0.000994876
0.00180922
-0.0010651
0.00198288
-0.00113391
-0.00119742
0.00215899
7.62224e-07
2.52719e-05
4.73022e-06
5.26267e-05
1.32583e-05
6.10492e-05
2.74801e-05
5.36263e-05
4.8376e-05
3.28092e-05
7.68066e-05
5.80227e-07
0.000113528
-4.14509e-05
0.000159194
-9.19505e-05
0.000214348
-0.000149774
0.000279408
-0.000213897
0.000354652
-0.000283364
0.000440205
-0.000357256
0.000536029
-0.000434672
0.000641919
-0.000514721
0.000757506
-0.000596529
0.000882267
-0.000679255
0.00101554
-0.000762106
0.00115654
-0.000844365
0.00130439
-0.00092541
0.00145808
-0.00100474
0.00161655
-0.00108198
0.00177856
-0.00115689
0.00194277
-0.00122931
0.00210767
-0.0012988
-0.00136145
0.00227169
1.10169e-06
2.41702e-05
6.20388e-06
4.75245e-05
1.67512e-05
5.05019e-05
3.39511e-05
3.64264e-05
5.88427e-05
7.91759e-06
9.23256e-05
-3.29027e-05
0.000135168
-8.42937e-05
0.000188002
-0.000144784
0.000251303
-0.000213075
0.000325374
-0.000287968
0.000410326
-0.000368316
0.000506061
-0.00045299
0.000612263
-0.000540875
0.000728408
-0.000630866
0.000853769
-0.000721889
0.000987435
-0.000812922
0.00112835
-0.000903017
0.00127531
-0.000991331
0.00142705
-0.00107715
0.00158219
-0.00115988
0.00173932
-0.0012391
0.00189695
-0.00131452
0.00205357
-0.00138593
0.0022077
-0.00145293
-0.00151213
0.00235838
1.49325e-06
2.26769e-05
7.87505e-06
4.11427e-05
2.06731e-05
3.77038e-05
4.11599e-05
1.59396e-05
7.04197e-05
-2.13422e-05
0.000109369
-7.18525e-05
0.000158758
-0.000133682
0.000219148
-0.000205174
0.000290896
-0.000284823
0.000374121
-0.000371194
0.000468692
-0.000462886
0.00057421
-0.000558508
0.000690016
-0.000656681
0.000815205
-0.000756054
0.000948651
-0.000855335
0.00108905
-0.000953321
0.00123496
-0.00104893
0.00138486
-0.00114123
0.00153716
-0.00122945
0.0016903
-0.00131302
0.00184271
-0.00139152
0.00199289
-0.00146471
0.00213943
-0.00153247
0.00228106
-0.00159456
-0.00164836
0.00241729
1.94305e-06
2.07339e-05
9.7617e-06
3.33241e-05
2.5054e-05
2.24115e-05
4.9143e-05
-8.14935e-06
8.31369e-05
-5.53361e-05
0.000127939
-0.000116655
0.000184235
-0.000189978
0.000252466
-0.000273405
0.000332796
-0.000365153
0.00042509
-0.000463488
0.000528896
-0.000566692
0.000643446
-0.000673059
0.000767679
-0.000780914
0.000900273
-0.000888649
0.0010397
-0.000994765
0.0011843
-0.00109791
0.0013323
-0.00119694
0.00148196
-0.00129088
0.00163155
-0.00137904
0.00177944
-0.00146091
0.00192415
-0.00153622
0.00206434
-0.00160489
0.00219884
-0.00166697
0.00232677
-0.00172249
-0.00176963
0.00244804
2.45611e-06
1.82778e-05
1.18771e-05
2.39031e-05
2.99126e-05
4.37594e-06
5.79145e-05
-3.61513e-05
9.69855e-05
-9.44071e-05
0.000147974
-0.000167643
0.000211447
-0.000253451
0.000287655
-0.000349613
0.000376499
-0.000453997
0.000477507
-0.000564496
0.000589836
-0.000679021
0.000712291
-0.000795514
0.000843374
-0.000911997
0.00098135
-0.00102662
0.00112432
-0.00113774
0.00127033
-0.00124392
0.00141743
-0.00134403
0.00156374
-0.0014372
0.00170758
-0.00152287
0.00184743
-0.00160076
0.00198202
-0.00167081
0.00211032
-0.0017332
0.00223157
-0.00178822
0.00234527
-0.0018362
-0.00187609
0.00245172
3.03598e-06
1.52418e-05
1.42286e-05
1.27105e-05
3.52536e-05
-1.66491e-05
6.74621e-05
-6.83598e-05
0.000111911
-0.000138856
0.000169342
-0.000225073
0.000240137
-0.000324246
0.00032428
-0.000433757
0.000421328
-0.000551044
0.000530398
-0.000673566
0.000650196
-0.000798818
0.000779066
-0.000924384
0.000915076
-0.00104801
0.00105611
-0.00116766
0.00119999
-0.00128162
0.00134457
-0.0013885
0.00148784
-0.00148729
0.00162799
-0.00157735
0.00176349
-0.00165837
0.00189309
-0.00173036
0.00201587
-0.00179359
0.0021312
-0.00184852
0.00223872
-0.00189574
0.00233838
-0.00193586
-0.00196849
0.00243079
3.68456e-06
1.15572e-05
1.68169e-05
-4.2189e-07
4.10661e-05
-4.08982e-05
7.77437e-05
-0.000105037
0.000127811
-0.000188924
0.000191838
-0.0002891
0.000269947
-0.000402355
0.000361775
-0.000525585
0.000466453
-0.000655722
0.000582626
-0.00078974
0.000708513
-0.000924705
0.000841996
-0.00105787
0.000980747
-0.00118676
0.00112236
-0.00130927
0.00126447
-0.00142374
0.00140491
-0.00152894
0.00154174
-0.00162412
0.00167337
-0.00170898
0.00179856
-0.00178357
0.00191645
-0.00184825
0.00202651
-0.00190365
0.00212854
-0.00195054
0.00222259
-0.00198979
0.00230898
-0.00202225
-0.00204807
0.00238856
4.402e-06
7.15522e-06
1.96357e-05
-1.56556e-05
4.73225e-05
-6.8585e-05
8.86864e-05
-0.000146401
0.000144532
-0.00024477
0.000215184
-0.000359751
0.000300422
-0.000487593
0.000399455
-0.000624617
0.00051092
-0.000767188
0.000632949
-0.000911769
0.000763265
-0.00105502
0.000899328
-0.00119393
0.0010385
-0.00132593
0.00117818
-0.00144896
0.001316
-0.00156156
0.00144988
-0.00166282
0.00157814
-0.00175238
0.0016995
-0.00183035
0.00181313
-0.0018972
0.00191859
-0.00195371
0.00201576
-0.00200083
0.00210484
-0.00203962
0.00218624
-0.00207119
0.00226056
-0.00209657
-0.0021163
0.00232879
5.18662e-06
1.9686e-06
2.26711e-05
-3.31402e-05
5.3978e-05
-9.98918e-05
0.000100186
-0.000192609
0.000161872
-0.000306456
0.000239033
-0.000436912
0.000331023
-0.000579584
0.000436547
-0.000730141
0.0005537
-0.000884342
0.000680085
-0.00103815
0.000812963
-0.0011879
0.000949451
-0.00133042
0.00108671
-0.00146319
0.00122213
-0.00158437
0.00135343
-0.00169286
0.00147881
-0.0017882
0.00159693
-0.0018705
0.00170694
-0.00194036
0.00180844
-0.0019987
0.00190141
-0.00204667
0.00198613
-0.00208555
0.00206312
-0.00211661
0.00213306
-0.00214113
0.00219673
-0.00216024
-0.00217476
0.00225518
6.03488e-06
-4.06628e-06
2.59018e-05
-5.30071e-05
6.09707e-05
-0.000134961
0.000112107
-0.000243746
0.000179582
-0.000373931
0.000262979
-0.000520308
0.000361146
-0.000677751
0.000472222
-0.000841217
0.000593739
-0.00100586
0.000722791
-0.0011672
0.000856254
-0.00132136
0.000991016
-0.00146518
0.00112419
-0.00159636
0.00125326
-0.00171345
0.00137626
-0.00181585
0.00149172
-0.00190366
0.00159876
-0.00197754
0.00169697
-0.00203857
0.00178639
-0.00208812
0.00186738
-0.00212766
0.00194053
-0.0021587
0.0020066
-0.00218269
0.00206644
-0.00220097
0.00212092
-0.00221472
-0.00222491
0.00217107
6.94139e-06
-1.10077e-05
2.92991e-05
-7.53649e-05
6.82224e-05
-0.000173884
0.000124288
-0.000299811
0.000197376
-0.000447019
0.00028657
-0.000609502
0.000390143
-0.000781324
0.000505633
-0.000956707
0.000630015
-0.00113024
0.00075994
-0.00129713
0.000892006
-0.00145343
0.00102301
-0.00159619
0.00115017
-0.00172351
0.00127124
-0.00183453
0.00138463
-0.00192924
0.00148933
-0.00200836
0.00158491
-0.00207312
0.00167142
-0.00212509
0.00174928
-0.00216598
0.00181915
-0.00219753
0.00188187
-0.00222141
0.00193833
-0.00223915
0.00198945
-0.00225209
0.00203613
-0.0022614
-0.00226809
0.00207931
7.89885e-06
-1.89065e-05
3.2827e-05
-0.000100293
7.56394e-05
-0.000216696
0.000136542
-0.000360714
0.000214933
-0.000525411
0.000309323
-0.000703892
0.000417356
-0.000889356
0.00053596
-0.00107531
0.000661602
-0.00125588
0.000790586
-0.00142611
0.000919368
-0.00158221
0.00104481
-0.00172163
0.00116439
-0.00184309
0.00127624
-0.00194638
0.00137922
-0.00203222
0.00147283
-0.00210196
0.00155708
-0.00215737
0.00163241
-0.00220042
0.00169955
-0.00223312
0.0017594
-0.00225737
0.00181291
-0.00227493
0.00186106
-0.0022873
0.00190475
-0.00229579
0.00194485
-0.0023015
-0.00230541
0.00198217
8.89803e-06
-2.78046e-05
3.64426e-05
-0.000127838
8.31141e-05
-0.000263368
0.00014866
-0.000426259
0.000231915
-0.000608666
0.000330747
-0.000802724
0.000442143
-0.00100075
0.000562453
-0.00119562
0.000687713
-0.00138114
0.000814012
-0.00155241
0.000937815
-0.00170601
0.00105621
-0.00184002
0.00116702
-0.0019539
0.00126889
-0.00204824
0.00136115
-0.00212448
0.00144376
-0.00218458
0.00151717
-0.00223078
0.00158212
-0.00226538
0.00163958
-0.00229057
0.00169055
-0.00230835
0.00173607
-0.00232045
0.0017771
-0.00232832
0.0018145
-0.00233318
0.00184903
-0.00233603
-0.00233778
0.00188139
9.92784e-06
-3.77324e-05
4.00968e-05
-0.000158007
9.05273e-05
-0.000313798
0.000160421
-0.000496153
0.000247972
-0.000696217
0.000350357
-0.000905108
0.000463912
-0.00111431
0.000584467
-0.00131618
0.000707744
-0.00150442
0.000829763
-0.00167443
0.00094715
-0.0018234
0.00105734
-0.00195021
0.00115863
-0.0020552
0.00125016
-0.00213978
0.00133177
-0.00220609
0.00140384
-0.00225665
0.00146715
-0.00229408
0.00152268
-0.00232091
0.00157152
-0.00233941
0.00161475
-0.00235158
0.00165339
-0.00235908
0.00168834
-0.00236327
0.00172037
-0.00236522
0.00175017
-0.00236582
-0.00236589
0.00177827
1.09754e-05
-4.87078e-05
4.37348e-05
-0.000190766
9.77515e-05
-0.000367815
0.000171597
-0.000569998
0.000262759
-0.000787379
0.000367702
-0.00101005
0.000482147
-0.00122875
0.000601496
-0.00143552
0.000721296
-0.00162422
0.000837649
-0.00179078
0.000947483
-0.00193323
0.00104868
-0.00205141
0.00114006
-0.00214658
0.00122128
-0.00222099
0.00129261
-0.00227742
0.00135481
-0.00231885
0.00140889
-0.00234817
0.001456
-0.00236802
0.00149728
-0.00238069
0.00153379
-0.0023881
0.00156651
-0.0023918
0.00159624
-0.002393
0.00162367
-0.00239265
0.00164936
-0.0023915
-0.00239027
0.00167374
1.20262e-05
-6.0734e-05
4.72978e-05
-0.000226038
0.000104654
-0.000425171
0.000181959
-0.000647303
0.000275949
-0.000881369
0.000382382
-0.00111648
0.00049643
-0.0013428
0.00061319
-0.00155228
0.000728181
-0.00173921
0.000837733
-0.00190034
0.000939188
-0.00203469
0.00103095
-0.00214317
0.00111236
-0.00222799
0.00118355
-0.00229218
0.00124519
-0.00233906
0.00129832
-0.00237197
0.0013441
-0.00239395
0.00138376
-0.00240767
0.00141843
-0.00241536
0.00144913
-0.0024188
0.00147672
-0.0024194
0.00150193
-0.00241821
0.00152534
-0.00241606
0.00154739
-0.00241356
-0.00241131
0.00156844
1.30645e-05
-7.37985e-05
5.07244e-05
-0.000263697
0.000111102
-0.000485549
0.000191289
-0.000727491
0.000287247
-0.000977326
0.000394063
-0.0012233
0.000506458
-0.0014552
0.000619361
-0.00166519
0.000728413
-0.00184826
0.000830296
-0.00200222
0.00092285
-0.00212724
0.00100502
-0.00222533
0.00107666
-0.00229963
0.00113832
-0.00235384
0.001191
-0.00239174
0.00123589
-0.00241687
0.00127428
-0.00243234
0.00130738
-0.00244077
0.00133627
-0.00244425
0.00136189
-0.00244442
0.00138501
-0.00244252
0.00140624
-0.00243944
0.00142606
-0.00243588
0.00144483
-0.00243233
-0.00242929
0.00146281
1.40735e-05
-8.7872e-05
5.39518e-05
-0.000303576
0.000116965
-0.000548563
0.000199386
-0.000809911
0.0002964
-0.00107434
0.000402493
-0.00132939
0.000512051
-0.00156475
0.000619982
-0.00177312
0.000722187
-0.00195047
0.000815798
-0.00209583
0.000899199
-0.00221064
0.000971871
-0.00229801
0.00103414
-0.0023619
0.0010869
-0.0024066
0.00113136
-0.0024362
0.00116886
-0.00245436
0.00120068
-0.00246416
0.001228
-0.00246809
0.00125182
-0.00246807
0.00127297
-0.00246558
0.00129212
-0.00246166
0.00130977
-0.0024571
0.00132633
-0.00245243
0.00134206
-0.00244807
-0.0024444
0.00135717
1.50358e-05
-0.000102908
5.69186e-05
-0.000345459
0.000122123
-0.000613767
0.000206072
-0.00089386
0.000303208
-0.00117148
0.000407504
-0.00143369
0.000513148
-0.0016704
0.00061517
-0.00187514
0.000709845
-0.00204514
0.000794826
-0.00218081
0.000869054
-0.00228487
0.000932514
-0.00236146
0.000985929
-0.00241532
0.00103047
-0.00245114
0.00106749
-0.00247322
0.00109836
-0.00248524
0.00112435
-0.00249015
0.00114656
-0.00249029
0.00116588
-0.00248739
0.00118303
-0.00248273
0.00119859
-0.00247722
0.00121297
-0.00247147
0.00122648