/*--------------------------------*- C++ -*----------------------------------*\
  =========                 |
  \\      /  F ield         | OpenFOAM: The Open Source CFD Toolbox
   \\    /   O peration     | Website:  https://openfoam.org
    \\  /    A nd           | Version:  6.0
     \\/     M anipulation  |
\*---------------------------------------------------------------------------*/
FoamFile
{
    version     2.0;
    format      ascii;
    class       volVectorField;
    location    "45";
    object      U;
}
// * * * * * * * * * * * * * * * * * * * * * * * * * * * * * * * * * * * * * //

dimensions      [0 1 -1 0 0 0 0];

internalField   nonuniform List<vector> 
12500
(
(-0.000238459 -0.000701933 -5.4269e-22)
(-0.00145561 -0.00153994 7.45583e-21)
(-0.00384013 -0.00197915 -1.07954e-20)
(-0.00690145 -0.00213021 4.94961e-21)
(-0.0103695 -0.00208086 2.97313e-22)
(-0.0140746 -0.0018991 -6.10242e-22)
(-0.017881 -0.00163602 -8.97236e-21)
(-0.0216876 -0.0013291 4.92021e-21)
(-0.025424 -0.00100498 3.2467e-21)
(-0.0290439 -0.000681676 3.29447e-21)
(-0.0325201 -0.000370518 -5.56693e-21)
(-0.0358405 -7.77413e-05 3.23452e-21)
(-0.039005 0.000194224 -1.52073e-21)
(-0.0420227 0.000445709 2.5744e-21)
(-0.0449096 0.00067899 -6.55778e-21)
(-0.0476868 0.000897662 9.46706e-21)
(-0.050379 0.00110616 -1.80518e-21)
(-0.0530126 0.00130944 -6.67293e-21)
(-0.0556148 0.00151269 3.41022e-21)
(-0.058213 0.00172122 -3.24977e-21)
(-0.0608376 0.00194024 2.90601e-21)
(-0.0635187 0.00217486 3.83914e-21)
(-0.0662419 0.00243068 3.86788e-22)
(-0.0689322 0.00271424 -1.09512e-20)
(-0.0718954 0.00302666 5.77308e-21)
(-0.000246536 -8.46792e-05 9.8525e-21)
(-0.00148678 6.23505e-05 -2.54287e-20)
(-0.00389635 0.000376751 7.49325e-21)
(-0.0069806 0.000787395 4.99765e-21)
(-0.010467 0.00123879 -3.97977e-21)
(-0.0141842 0.00169102 -2.25716e-20)
(-0.0179957 0.00211854 6.70383e-21)
(-0.0218001 0.0025067 -1.26343e-20)
(-0.0255269 0.00284904 1.50977e-20)
(-0.0291297 0.00314529 -2.01287e-20)
(-0.0325816 0.00339967 1.07338e-20)
(-0.0358707 0.00361952 3.45685e-21)
(-0.0389971 0.00381416 -8.71075e-21)
(-0.0419702 0.00399404 -3.84586e-21)
(-0.0448063 0.00417 2.80888e-20)
(-0.0475267 0.00435274 -2.48091e-20)
(-0.0501563 0.00455242 5.9229e-21)
(-0.0527221 0.00477834 1.02337e-20)
(-0.0552515 0.00503883 -2.34133e-21)
(-0.0577723 0.00534103 1.64513e-20)
(-0.0603153 0.00569075 2.98001e-21)
(-0.0629113 0.00609249 -1.06179e-21)
(-0.0655462 0.00655157 -2.0662e-20)
(-0.0681441 0.00707552 1.89887e-20)
(-0.0710123 0.00765466 -3.61687e-20)
(-0.000293854 0.000531975 3.15689e-20)
(-0.00162018 0.00166061 1.04937e-20)
(-0.00410328 0.0027236 -1.37241e-20)
(-0.00724578 0.00368993 5.88212e-21)
(-0.0107739 0.00453683 5.51463e-21)
(-0.014516 0.00525272 2.08812e-20)
(-0.0183359 0.00583777 -2.64804e-20)
(-0.0221327 0.00630016 -4.28754e-21)
(-0.0258368 0.00665357 -1.76756e-20)
(-0.0294026 0.00691541 -1.4738e-20)
(-0.0328038 0.00710535 1.90215e-20)
(-0.0360293 0.00724425 -6.35351e-20)
(-0.03908 0.00735315 -1.96879e-21)
(-0.0419658 0.00745261 -3.80037e-20)
(-0.0447036 0.00756207 -4.46206e-21)
(-0.0473155 0.00769943 5.39265e-21)
(-0.0498271 0.00788069 -2.93574e-20)
(-0.0522663 0.00811972 -1.83354e-20)
(-0.0546616 0.00842811 -2.16859e-20)
(-0.0570417 0.00881508 3.39439e-20)
(-0.0594386 0.00928716 1.23901e-20)
(-0.0618846 0.00984844 -5.49514e-20)
(-0.0643664 0.010504 -2.64284e-20)
(-0.0668071 0.0112627 -2.9474e-20)
(-0.0695166 0.0121038 7.95038e-20)
(-0.000380505 0.00114633 -1.00572e-21)
(-0.00185593 0.00324974 -2.42501e-20)
(-0.00446101 0.00505283 -1.15949e-20)
(-0.00769701 0.00656542 7.17785e-21)
(-0.0112902 0.00779791 4.47786e-20)
(-0.0150699 0.00876736 -2.01908e-20)
(-0.0189015 0.00949967 4.29657e-20)
(-0.0226858 0.0100259 4.08534e-20)
(-0.0263546 0.0103796 2.48452e-20)
(-0.029864 0.0105959 -3.80638e-22)
(-0.033189 0.0107096 4.99444e-20)
(-0.0363196 0.0107551 8.62763e-21)
(-0.0392579 0.0107651 3.79968e-20)
(-0.0420147 0.0107703 8.71892e-20)
(-0.044608 0.0107989 -1.01007e-19)
(-0.0470609 0.0108762 1.51638e-19)
(-0.0494004 0.0110243 3.29233e-20)
(-0.0516555 0.011262 -7.25422e-20)
(-0.0538564 0.0116045 -1.0283e-20)
(-0.0560336 0.0120636 2.6336e-20)
(-0.0582209 0.0126468 -1.31444e-20)
(-0.0604529 0.0133581 -7.82269e-21)
(-0.062718 0.0142026 -7.62877e-21)
(-0.064938 0.0151908 -3.07525e-20)
(-0.0674267 0.0162908 1.07837e-19)
(-0.000506559 0.00175686 1.64086e-20)
(-0.00219396 0.00482494 -7.62482e-20)
(-0.00496923 0.00735635 9.23855e-20)
(-0.00833362 0.0094025 -3.67634e-20)
(-0.0120149 0.0110075 4.39394e-20)
(-0.0158447 0.0122173 3.57958e-20)
(-0.0196913 0.0130836 1.35756e-20)
(-0.023458 0.01366 6.29043e-22)
(-0.0270793 0.0140002 7.62803e-20)
(-0.0305135 0.0141562 5.27131e-20)
(-0.0337375 0.0141782 -2.11481e-20)
(-0.0367431 0.0141138 -1.35871e-20)
(-0.0395335 0.0140072 5.72132e-20)
(-0.0421211 0.0138995 1.07715e-20)
(-0.0445252 0.0138277 2.91371e-20)
(-0.0467701 0.0138249 6.97331e-20)
(-0.0488846 0.0139198 -6.02231e-20)
(-0.0508994 0.0141366 4.85749e-20)
(-0.0528469 0.0144948 -1.04459e-19)
(-0.0547599 0.0150091 8.76656e-20)
(-0.0566751 0.0156889 5.49609e-22)
(-0.0586301 0.0165383 -6.96581e-20)
(-0.0606158 0.0175632 2.80733e-20)
(-0.0625528 0.0187761 6.35691e-20)
(-0.0647606 0.0201334 -9.35048e-20)
(-0.000672075 0.00236218 8.47945e-20)
(-0.00263404 0.00638177 -9.00152e-20)
(-0.00562711 0.00962651 -1.45143e-20)
(-0.00915404 0.0121904 1.82288e-20)
(-0.0129456 0.014152 -3.94033e-20)
(-0.0168374 0.0155862 -6.14197e-20)
(-0.0207016 0.0165705 -5.10072e-20)
(-0.0244455 0.017181 -1.22905e-20)
(-0.0280072 0.0174908 -8.76974e-20)
(-0.0313478 0.0175689 6.96883e-20)
(-0.0344469 0.0174804 -1.0826e-19)
(-0.0372983 0.0172858 5.46439e-20)
(-0.0399068 0.017041 -1.81748e-20)
(-0.0422865 0.0167971 4.19574e-20)
(-0.044458 0.0166005 -1.05394e-19)
(-0.0464477 0.0164923 5.09557e-20)
(-0.0482858 0.0165084 3.75848e-21)
(-0.0500055 0.0166793 2.25957e-20)
(-0.0516417 0.0170294 1.36267e-19)
(-0.0532303 0.0175775 3.00777e-20)
(-0.0548116 0.0183355 -2.80541e-21)
(-0.0564273 0.0193085 8.57834e-21)
(-0.0580718 0.0205037 5.65565e-20)
(-0.0596648 0.0219364 1.6056e-20)
(-0.0615333 0.0235513 5.27089e-20)
(-0.000877102 0.00296105 -5.28408e-20)
(-0.00317564 0.00791596 7.50031e-20)
(-0.00643314 0.011856 4.68682e-21)
(-0.0101555 0.0149191 -9.14768e-20)
(-0.0140782 0.0172187 1.92156e-19)
(-0.0180424 0.0188589 -6.21281e-20)
(-0.0219259 0.0199431 9.05909e-20)
(-0.0256411 0.0205695 8.28693e-20)
(-0.0291306 0.0208301 -6.85476e-20)
(-0.0323594 0.0208106 -9.96839e-20)
(-0.0353101 0.0205903 2.72635e-20)
(-0.0379788 0.0202423 -2.87224e-20)
(-0.0403726 0.019834 -1.26992e-19)
(-0.0425071 0.0194266 1.5409e-19)
(-0.0444046 0.019076 -7.38402e-20)
(-0.0460932 0.018832 -5.08876e-20)
(-0.0476052 0.0187382 4.23152e-22)
(-0.0489763 0.0188322 4.14364e-20)
(-0.0502445 0.0191448 1.70882e-20)
(-0.0514493 0.0196998 -6.69265e-20)
(-0.0526355 0.0205129 7.61983e-20)
(-0.0538502 0.0215913 -1.32433e-19)
(-0.0550921 0.0229444 8.07641e-20)
(-0.0562809 0.0245918 -6.1805e-20)
(-0.0577536 0.026466 1.62132e-20)
(-0.00112166 0.00355226 7.6722e-20)
(-0.00381789 0.00942334 -5.90055e-20)
(-0.00738482 0.0140377 -3.75475e-20)
(-0.0113334 0.0175787 -6.62507e-20)
(-0.015406 0.0201954 -1.21121e-19)
(-0.019451 0.0220217 -8.9484e-20)
(-0.0233536 0.0231862 5.57044e-20)
(-0.0270327 0.023809 -8.43529e-20)
(-0.0304364 0.0240006 1.0704e-19)
(-0.0335344 0.0238623 -1.74125e-19)
(-0.0363129 0.0234873 7.73004e-20)
(-0.0387711 0.0229609 1.63183e-19)
(-0.0409181 0.0223611 -2.29138e-19)
(-0.0427712 0.0217598 3.26907e-20)
(-0.0443546 0.021222 4.24834e-20)
(-0.0456979 0.0208067 4.10744e-20)
(-0.0468355 0.0205663 -4.418e-20)
(-0.0478059 0.0205465 -1.09094e-20)
(-0.0486503 0.0207856 -3.23112e-20)
(-0.0494126 0.0213143 -2.69757e-20)
(-0.0501429 0.0221536 -1.47643e-19)
(-0.0508947 0.0233145 -9.92387e-21)
(-0.0516728 0.0248102 1.58045e-21)
(-0.0523975 0.0266662 -6.66121e-20)
(-0.0534195 0.0288026 6.84186e-20)
(-0.00140568 0.0041345 2.19202e-21)
(-0.00455937 0.0108995 2.4138e-20)
(-0.00847837 0.0161643 2.51012e-20)
(-0.0126811 0.0201595 1.46076e-20)
(-0.0169192 0.0230708 1.23177e-19)
(-0.0210504 0.0250618 1.15619e-19)
(-0.0249688 0.0262864 -9.39808e-20)
(-0.0286017 0.0268858 -2.85444e-20)
(-0.0319038 0.0269883 -2.53701e-20)
(-0.0348504 0.0267102 1.30874e-19)
(-0.0374321 0.0261574 4.69109e-20)
(-0.0396512 0.0254267 -6.83592e-20)
(-0.0415193 0.0246066 -5.77687e-20)
(-0.0430555 0.0237786 1.39167e-19)
(-0.0442855 0.0230173 -3.43034e-20)
(-0.0452403 0.0223912 -4.15287e-20)
(-0.0459565 0.0219622 -5.79241e-20)
(-0.0464749 0.0217853 -4.50366e-20)
(-0.0468405 0.0219082 -5.74074e-20)
(-0.0471018 0.0223703 -3.75056e-20)
(-0.0473151 0.0232 1.55796e-19)
(-0.0475418 0.0244145 -7.66341e-20)
(-0.047794 0.0260329 5.15669e-20)
(-0.0479947 0.0280895 -1.36909e-19)
(-0.0485121 0.0304916 5.52283e-20)
(-0.00172895 0.00470627 -6.88045e-20)
(-0.00539787 0.0123395 -1.78965e-20)
(-0.0097083 0.0182281 -1.39962e-19)
(-0.0141892 0.0226516 -6.70191e-20)
(-0.0186039 0.0258335 -1.32329e-19)
(-0.0228222 0.0279673 -1.37958e-20)
(-0.0267491 0.0292319 7.08822e-20)
(-0.0303216 0.029789 -4.31208e-20)
(-0.0335026 0.0297835 9.29658e-20)
(-0.0362742 0.0293459 -2.25769e-19)
(-0.0386317 0.0285937 -6.50736e-21)
(-0.0405813 0.0276341 3.9977e-20)
(-0.0421372 0.0265652 -5.06952e-20)
(-0.0433202 0.0254776 4.60709e-20)
(-0.0441573 0.0244551 -3.51976e-20)
(-0.0446808 0.0235759 -7.53424e-20)
(-0.0449288 0.022912 1.37352e-19)
(-0.0449445 0.022529 8.509e-20)
(-0.0447763 0.0224858 -1.76489e-20)
(-0.0444778 0.0228328 5.60141e-20)
(-0.0441122 0.023609 -1.1051e-19)
(-0.0437501 0.0248405 1.59098e-19)
(-0.0434126 0.026556 -2.17195e-19)
(-0.0430279 0.0288013 4.4733e-20)
(-0.0429874 0.0314726 -8.45313e-20)
(-0.002091 0.00526565 3.725e-21)
(-0.00633012 0.0137377 -6.1078e-20)
(-0.0110669 0.0202201 9.05976e-20)
(-0.0158447 0.0250442 1.85702e-19)
(-0.0204416 0.0284718 -3.02132e-21)
(-0.0247418 0.0307266 2.10156e-20)
(-0.0286637 0.0320122 -7.93643e-20)
(-0.0321558 0.0325098 3.71986e-20)
(-0.0351908 0.0323803 2.55978e-19)
(-0.0377583 0.0317666 -5.808e-20)
(-0.0398597 0.0307969 -6.85005e-20)
(-0.0415055 0.0295872 2.58864e-19)
(-0.0427125 0.0282441 8.44085e-20)
(-0.0435034 0.0268661 4.01515e-20)
(-0.0439064 0.0255458 4.10527e-20)
(-0.0439544 0.0243706 1.11913e-19)
(-0.0436866 0.023423 -4.2976e-20)
(-0.0431481 0.0227804 1.13446e-19)
(-0.0423903 0.0225147 1.53414e-19)
(-0.0414719 0.02269 -1.30803e-19)
(-0.0404634 0.0233594 1.9414e-19)
(-0.0394462 0.0245621 6.90773e-20)
(-0.0384527 0.0263404 -2.62265e-19)
(-0.0374185 0.0287576 3.78942e-19)
(-0.0367655 0.0316998 -3.06487e-19)
(-0.00249095 0.00581017 -1.748e-19)
(-0.00735146 0.0150871 9.53704e-20)
(-0.012544 0.0221304 -6.39618e-20)
(-0.0176306 0.0273252 -6.07841e-20)
(-0.0224077 0.030973 -6.55201e-20)
(-0.0267769 0.0333278 -7.11031e-20)
(-0.0306723 0.0346172 1.95333e-20)
(-0.0340559 0.0350414 1.85263e-19)
(-0.0369118 0.0347758 -3.97292e-20)
(-0.0392386 0.0339746 -1.03291e-19)
(-0.0410446 0.0327749 -6.30125e-20)
(-0.042345 0.0313001 -2.57904e-20)
(-0.0431603 0.0296634 7.60737e-20)
(-0.043515 0.0279701 -4.86521e-20)
(-0.0434379 0.0263199 -1.58601e-19)
(-0.0429625 0.0248087 -1.74821e-19)
(-0.0421283 0.0235293 6.96617e-20)
(-0.0409814 0.0225717 -1.29567e-19)
(-0.0395757 0.0220222 1.12278e-19)
(-0.0379744 0.0219617 -3.17149e-19)
(-0.0362561 0.0224613 2.43398e-19)
(-0.0345136 0.0235782 -3.21588e-19)
(-0.0327928 0.0253751 -5.91275e-21)
(-0.0310403 0.0279393 -1.07957e-19)
(-0.0297183 0.0311505 3.168e-19)
(-0.00292736 0.00633667 2.68139e-19)
(-0.00845545 0.0163793 3.9286e-20)
(-0.0141259 0.023947 -2.57928e-20)
(-0.0195249 0.0294809 -1.09122e-20)
(-0.0244713 0.0333229 2.0264e-19)
(-0.0288868 0.0357577 6.58672e-20)
(-0.0327238 0.0370365 5.9682e-20)
(-0.0359601 0.0373776 -4.79978e-20)
(-0.0385927 0.0369695 1.85002e-19)
(-0.0406309 0.0359763 -9.09711e-20)
(-0.042091 0.0345424 5.87121e-20)
(-0.0429941 0.0327967 1.49088e-19)
(-0.0433646 0.0308569 -8.45458e-20)
(-0.0432291 0.028833 9.14211e-20)
(-0.0426175 0.02683 8.62869e-20)
(-0.0415633 0.0249507 2.95359e-20)
(-0.0401055 0.0232973 -7.26313e-20)
(-0.0382904 0.0219717 2.00826e-19)
(-0.0361735 0.0210761 -1.86792e-20)
(-0.0338215 0.0207106 -2.14286e-20)
(-0.0313209 0.0209684 2.39832e-19)
(-0.028777 0.0219311 -1.7037e-19)
(-0.026251 0.0236897 2.86774e-19)
(-0.0237045 0.0263656 -2.37481e-19)
(-0.0216521 0.0298378 3.05177e-19)
(-0.00339808 0.0068412 -1.29402e-19)
(-0.0096335 0.017604 2.86605e-20)
(-0.0157955 0.0256558 -2.98553e-20)
(-0.0215006 0.031495 -1.41566e-19)
(-0.0265941 0.0355051 8.20728e-21)
(-0.0310211 0.0380013 8.05014e-20)
(-0.0347549 0.0392583 -3.27515e-19)
(-0.0377912 0.0395113 2.44368e-19)
(-0.040142 0.0389613 -2.37848e-19)
(-0.0418285 0.0377805 -1.49966e-19)
(-0.0428767 0.0361188 1.34373e-19)
(-0.0433147 0.0341088 -2.90596e-19)
(-0.0431717 0.0318703 2.44631e-19)
(-0.0424773 0.0295155 -7.78108e-20)
(-0.0412625 0.0271521 -2.21935e-19)
(-0.0395609 0.0248874 5.4799e-20)
(-0.0374108 0.0228303 -5.14628e-20)
(-0.0348578 0.0210937 1.93187e-20)
(-0.0319572 0.019795 -6.92472e-20)
(-0.0287788 0.0190553 -2.29185e-19)
(-0.0254153 0.018994 5.13695e-20)
(-0.0219855 0.0197235 -1.2559e-22)
(-0.0185674 0.0213729 -2.3535e-19)
(-0.015141 0.024112 1.65299e-19)
(-0.0122896 0.0278276 -1.42741e-19)
(-0.00390007 0.00731899 5.23492e-20)
(-0.0108746 0.0187495 9.63796e-20)
(-0.0175316 0.0272402 1.34912e-19)
(-0.0235249 0.0333486 6.93536e-20)
(-0.0287301 0.0375 -6.80299e-20)
(-0.0331194 0.0400405 1.62248e-19)
(-0.0366894 0.0412678 1.20034e-19)
(-0.039456 0.0414335 -4.37373e-20)
(-0.041448 0.0407497 1.55935e-19)
(-0.0427002 0.0393959 -1.6037e-19)
(-0.0432497 0.0375258 -4.70265e-20)
(-0.0431331 0.0352734 4.77091e-20)
(-0.0423857 0.0327588 9.43676e-20)
(-0.0410413 0.0300931 1.15118e-21)
(-0.0391331 0.0273839 5.96145e-20)
(-0.0366954 0.024739 1.10012e-19)
(-0.0337655 0.0222711 -1.87207e-19)
(-0.0303878 0.0201003 2.32535e-19)
(-0.0266167 0.0183574 7.82592e-20)
(-0.0225228 0.017184 2.747e-20)
(-0.0182045 0.016728 -2.8126e-19)
(-0.0137926 0.017139 3.98097e-20)
(-0.00938303 0.0185958 6.16592e-20)
(-0.00497748 0.0213339 -1.47232e-20)
(-0.00124708 0.0252623 7.0134e-20)
(-0.0044293 0.00776453 4.0724e-21)
(-0.0121652 0.019802 -2.48245e-19)
(-0.0193089 0.0286816 -6.23098e-21)
(-0.0255588 0.03502 -6.25903e-20)
(-0.0308256 0.039285 -4.11275e-19)
(-0.0351112 0.0418538 3.55016e-19)
(-0.0384383 0.0430465 -2.52553e-19)
(-0.0408448 0.043131 -1.27449e-20)
(-0.0423782 0.0423297 -1.19204e-19)
(-0.0430888 0.0408284 2.06003e-19)
(-0.0430261 0.0387833 -2.21633e-19)
(-0.0422369 0.0363284 -1.03698e-19)
(-0.0407644 0.0335817 2.15021e-21)
(-0.0386483 0.0306509 -2.23991e-19)
(-0.0359257 0.0276397 3.05482e-19)
(-0.0326326 0.0246525 -3.53618e-19)
(-0.028807 0.0218003 7.4954e-22)
(-0.024492 0.0192058 5.41226e-20)
(-0.0197407 0.0170081 -1.35214e-19)
(-0.0146229 0.0153657 1.31017e-19)
(-0.00924046 0.0144547 -1.8586e-19)
(-0.00373514 0.0144656 -1.22583e-19)
(0.00178045 0.0156384 2.28194e-19)
(0.00728185 0.0182965 -2.48762e-19)
(0.011987 0.0223906 -4.71427e-21)
(-0.0049807 0.00817172 -2.10011e-19)
(-0.0134886 0.0207465 2.40988e-19)
(-0.0210976 0.0299589 -7.43823e-20)
(-0.0275575 0.0364847 1.43144e-19)
(-0.0328186 0.040834 1.54351e-19)
(-0.0369154 0.0434152 -1.35932e-19)
(-0.0398988 0.0445711 -9.00276e-20)
(-0.041831 0.0445852 -1.07791e-19)
(-0.0427794 0.0436901 9.86701e-20)
(-0.0428112 0.0420772 -6.60989e-21)
(-0.04199 0.039905 1.43677e-19)
(-0.0403746 0.0373064 1.41528e-19)
(-0.0380179 0.0343958 -1.68909e-19)
(-0.0349679 0.0312754 3.3149e-19)
(-0.0312679 0.0280417 -2.19672e-19)
(-0.0269586 0.0247914 -3.75441e-20)
(-0.0220805 0.0216283 4.27174e-19)
(-0.0166778 0.0186703 -1.97764e-19)
(-0.0108025 0.0160568 1.25784e-19)
(-0.00452334 0.013956 2.45473e-19)
(0.0020565 0.012566 -1.59225e-19)
(0.00878687 0.0121174 1.68101e-20)
(0.0155415 0.0129197 -1.09095e-20)
(0.0222763 0.0154089 -6.49626e-20)
(0.0280736 0.019604 1.22512e-19)
(-0.00554813 0.00853411 4.79632e-20)
(-0.0148258 0.0215669 -1.52679e-19)
(-0.0228636 0.0310497 8.34257e-20)
(-0.0294701 0.0377157 -1.03622e-21)
(-0.0346393 0.0421176 6.28056e-20)
(-0.0384408 0.0446949 -1.08035e-19)
(-0.0409559 0.0458129 6.18025e-20)
(-0.0422722 0.0457709 1.68243e-19)
(-0.0424784 0.0448117 -5.10355e-21)
(-0.0416598 0.0431327 -8.58197e-20)
(-0.0398953 0.0408944 8.62168e-20)
(-0.0372571 0.0382289 -2.03242e-21)
(-0.0338102 0.0352467 -2.728e-19)
(-0.0296133 0.0320434 1.0113e-19)
(-0.0247194 0.0287063 2.23238e-20)
(-0.0191777 0.0253209 -3.91888e-20)
(-0.0130354 0.0219783 -6.98698e-20)
(-0.00634131 0.0187834 2.67907e-19)
(0.000849966 0.0158657 6.51873e-20)
(0.00846947 0.0133901 -1.39774e-19)
(0.0164136 0.0115642 -1.67579e-20)
(0.0245267 0.0106487 1.91998e-19)
(0.0326744 0.0110229 -8.96675e-20)
(0.0408037 0.013259 3.84235e-20)
(0.0478385 0.0174758 2.59407e-20)
(-0.0061245 0.00884522 -9.60507e-20)
(-0.0161546 0.022247 9.55113e-20)
(-0.0245684 0.0319305 -5.3826e-20)
(-0.0312399 0.0386848 -1.72763e-19)
(-0.0362102 0.0431043 -1.59034e-19)
(-0.0395866 0.0456595 -7.03418e-20)
(-0.0414821 0.0467386 -5.82609e-20)
(-0.0420109 0.0466566 -1.72244e-19)
(-0.0412837 0.0456672 -6.95528e-20)
(-0.0394043 0.0439741 6.33809e-20)
(-0.0364679 0.0417413 -9.04487e-20)
(-0.0325615 0.0391008 -9.543e-20)
(-0.027764 0.0361605 -8.94664e-20)
(-0.0221474 0.0330103 1.62279e-19)
(-0.0157783 0.0297282 -3.40789e-19)
(-0.00871903 0.0263869 1.94356e-19)
(-0.00102978 0.0230611 -3.32259e-19)
(0.00722924 0.019836 -5.11339e-20)
(0.0159944 0.0168195 -1.82115e-19)
(0.0251913 0.0141571 -4.24542e-20)
(0.0347134 0.012045 -5.18131e-20)
(0.0444007 0.0107513 -1.72833e-19)
(0.0541184 0.0107101 -1.88383e-20)
(0.0638264 0.0126432 1.05561e-19)
(0.0722782 0.0168016 -2.74558e-19)
(-0.00670186 0.00909887 8.23665e-20)
(-0.0174507 0.0227706 1.07753e-19)
(-0.0261697 0.0325781 3.77512e-19)
(-0.0328043 0.0393632 -6.62622e-20)
(-0.0374463 0.0437612 1.57694e-19)
(-0.0402424 0.0462737 3.75567e-19)
(-0.0413385 0.0473115 -1.02329e-19)
(-0.0408758 0.0472057 1.38444e-19)
(-0.0389871 0.0462213 8.07115e-20)
(-0.0357949 0.0445701 1.46195e-19)
(-0.031411 0.0424205 -2.92436e-20)
(-0.0259376 0.0399072 1.97856e-20)
(-0.0194688 0.0371378 -5.10027e-20)
(-0.0120926 0.0341993 2.76224e-19)
(-0.00389275 0.0311633 3.53675e-20)
(0.00504963 0.0280918 2.5568e-19)
(0.0146542 0.0250431 -6.52906e-20)
(0.0248398 0.0220794 2.334e-19)
(0.0355228 0.0192784 3.26607e-20)
(0.0466124 0.0167497 1.18366e-19)
(0.0579904 0.014652 -5.10059e-20)
(0.0694881 0.0132236 -8.95572e-21)
(0.0809767 0.0129142 2.8074e-19)
(0.0924649 0.014585 1.72382e-19)
(0.102551 0.0186389 -7.19405e-20)
(-0.00727158 0.00928954 -1.99662e-19)
(-0.0186871 0.0231231 -2.02446e-19)
(-0.0276208 0.0329706 -2.11602e-19)
(-0.0340949 0.0397233 7.75161e-20)
(-0.0382549 0.0440566 -1.55667e-19)
(-0.0402882 0.0465027 -2.31888e-20)
(-0.0403745 0.0474946 -6.1112e-20)
(-0.0386819 0.0473798 -2.53289e-19)
(-0.0353651 0.0464354 -3.94895e-20)
(-0.0305648 0.044882 6.48842e-20)
(-0.0244087 0.0428954 -2.03378e-19)
(-0.0170143 0.0406152 2.81793e-19)
(-0.00849135 0.0381527 -3.8228e-19)
(0.00105469 0.0355967 9.19277e-20)
(0.0115199 0.0330181 -2.33642e-19)
(0.0227994 0.0304741 -1.89345e-19)
(0.0347847 0.0280125 -1.07327e-20)
(0.0473629 0.0256763 -2.85039e-20)
(0.0604154 0.0235127 2.25632e-20)
(0.0738169 0.0215856 -1.07638e-19)
(0.0874192 0.0199919 -7.44296e-20)
(0.101029 0.018894 9.13819e-20)
(0.114519 0.0186877 -2.52612e-19)
(0.127996 0.0203176 8.20718e-20)
(0.139974 0.0243178 5.82976e-20)
(-0.0078245 0.00941258 -3.5432e-20)
(-0.0198348 0.0232914 -5.88124e-20)
(-0.0288709 0.0330883 2.28403e-19)
(-0.0350371 0.0397407 8.494e-20)
(-0.0385348 0.0439622 1.12381e-19)
(-0.0395938 0.0463154 -1.5006e-19)
(-0.0384277 0.0472546 2.63305e-22)
(-0.0352312 0.0471436 -1.21284e-19)
(-0.0301802 0.0462722 2.24125e-19)
(-0.0234325 0.0448711 7.3083e-20)
(-0.0151309 0.0431247 8.18579e-20)
(-0.00540717 0.0411811 -3.25641e-19)
(0.0056135 0.0391593 4.01235e-19)
(0.017808 0.0371556 -1.20492e-19)
(0.0310508 0.0352477 -8.6095e-20)
(0.0452099 0.0334978 2.57601e-19)
(0.060143 0.031955 1.14772e-19)
(0.0756949 0.0306564 -2.90414e-19)
(0.0916962 0.0296305 -1.21035e-19)
(0.107964 0.0289029 3.65249e-19)
(0.124292 0.0285006 -2.78836e-19)
(0.140425 0.0284692 1.67598e-19)
(0.156209 0.0290543 9.35683e-20)
(0.171895 0.0311588 -1.20327e-19)
(0.186069 0.0353582 -1.16051e-19)
(-0.00835095 0.00946442 -1.30336e-19)
(-0.0208623 0.0232651 2.02496e-19)
(-0.0298646 0.0329155 8.62486e-20)
(-0.0355491 0.0393956 -1.24547e-19)
(-0.0381757 0.043456 -1.99374e-20)
(-0.0380174 0.0456879 -1.30546e-19)
(-0.0353222 0.0465667 -5.19895e-20)
(-0.030311 0.0464717 5.83079e-20)
(-0.0231798 0.0457048 -1.45901e-20)
(-0.0141025 0.0445077 1.09904e-19)
(-0.00323588 0.0430747 -9.5399e-20)
(0.00927519 0.0415643 2.63881e-19)
(0.0232913 0.0401067 -3.26813e-19)
(0.0386726 0.038811 2.0376e-19)
(0.0552725 0.0377693 2.52866e-19)
(0.0729319 0.0370602 -3.6524e-19)
(0.0914724 0.0367498 -1.11034e-19)
(0.110691 0.0368916 1.8704e-19)
(0.130355 0.0375237 -1.15401e-19)
(0.1502 0.0386665 1.11308e-19)
(0.169921 0.0403068 -2.69745e-19)
(0.189146 0.0423728 4.49318e-20)
(0.207611 0.0448764 1.75646e-19)
(0.225716 0.0485164 -2.82466e-19)
(0.242426 0.0537236 7.64325e-20)
(-0.00884075 0.00944255 -1.20592e-19)
(-0.0217353 0.0230365 3.77899e-19)
(-0.0305412 0.032441 7.25494e-20)
(-0.0355411 0.0386752 -1.95979e-19)
(-0.0370563 0.0425247 1.4034e-19)
(-0.0354043 0.0446082 7.12113e-20)
(-0.0308674 0.0454204 1.137e-19)
(-0.0236927 0.0453551 -7.46924e-21)
(-0.0140958 0.0447256 -1.18279e-20)
(-0.00226607 0.0437836 -2.4738e-20)
(0.0116266 0.0427338 -1.07996e-19)
(0.027425 0.041745 -3.58778e-21)
(0.0449765 0.0409604 2.52142e-19)
(0.0641263 0.0405042 -4.13115e-19)
(0.0847098 0.0404883 2.93869e-19)
(0.106545 0.0410163 5.94498e-20)
(0.129422 0.0421873 1.05042e-19)
(0.153095 0.0440971 -5.40225e-20)
(0.177269 0.0468378 4.79644e-19)
(0.201585 0.0504927 -2.97056e-19)
(0.225595 0.0551086 2.37471e-19)
(0.248705 0.0606222 5.59062e-20)
(0.270347 0.0669379 -1.73905e-19)
(0.290863 0.0746204 1.47325e-19)
(0.309971 0.0835123 2.28487e-19)
(-0.009283 0.00934547 -3.50888e-20)
(-0.0224163 0.0226009 -1.33271e-19)
(-0.0308334 0.0316591 -2.27734e-19)
(-0.0349137 0.037575 -1.29766e-19)
(-0.035043 0.041167 -1.81514e-20)
(-0.0315843 0.0430795 -5.12115e-20)
(-0.0248555 0.0438248 -2.37118e-19)
(-0.01513 0.043809 3.92753e-20)
(-0.00264354 0.0433554 -2.66107e-19)
(0.0123985 0.0427241 -2.06127e-20)
(0.0298123 0.0421277 -2.54907e-19)
(0.0494271 0.0417441 -9.07093e-20)
(0.0710773 0.0417267 5.20122e-20)
(0.0945941 0.0422128 -2.47551e-19)
(0.119799 0.0433318 2.25819e-21)
(0.146495 0.0452125 -2.12962e-19)
(0.174461 0.0479908 8.21562e-20)
(0.203439 0.0518186 -2.97106e-19)
(0.233119 0.0568753 -5.08866e-20)
(0.26312 0.06338 -7.12843e-21)
(0.292927 0.0715861 -5.02543e-20)
(0.321793 0.0817434 -5.16067e-20)
(0.348751 0.0942522 -2.59641e-20)
(0.373249 0.110254 -1.03648e-19)
(0.394089 0.128093 -2.22359e-19)
(-0.00966582 0.00917249 6.39554e-20)
(-0.0228639 0.0219564 1.68999e-19)
(-0.0306666 0.03057 2.03093e-19)
(-0.0335567 0.0360999 -1.6227e-19)
(-0.0319878 0.0393951 3.00906e-19)
(-0.0263709 0.0411235 -1.63331e-19)
(-0.0170606 0.0418126 8.86494e-20)
(-0.00435857 0.0418785 1.38088e-19)
(0.0114773 0.0416516 1.25577e-19)
(0.0302225 0.0413975 6.10178e-20)
(0.0516754 0.0413334 9.85799e-20)
(0.0756475 0.0416409 5.72989e-20)
(0.101955 0.0424772 3.8681e-19)
(0.130411 0.043984 -2.80961e-19)
(0.160822 0.0462959 3.20604e-19)
(0.192983 0.0495497 -1.33173e-19)
(0.226675 0.0538946 2.87291e-19)
(0.261669 0.0595067 -1.37063e-20)
(0.297729 0.0666106 -5.94684e-20)
(0.334617 0.0755102 -1.10274e-20)
(0.372108 0.0866291 2.26139e-19)
(0.410043 0.100616 -2.22225e-19)
(0.448657 0.118762 1.55436e-19)
(0.488678 0.142789 1.73763e-19)
(0.526965 0.166309 3.63636e-20)
(-0.0099757 0.00892337 4.42667e-20)
(-0.0230315 0.021104 -2.41917e-19)
(-0.0299574 0.0291799 -8.77973e-20)
(-0.0313475 0.0342652 8.00935e-20)
(-0.0277277 0.0372363 -2.468e-19)
(-0.01956 0.0387825 -4.86872e-20)
(-0.00723873 0.0394433 3.37216e-20)
(0.00890276 0.0396418 1.3309e-19)
(0.0285794 0.0397125 -3.36929e-19)
(0.051541 0.0399221 2.55798e-20)
(0.0775597 0.0404871 -9.84082e-20)
(0.106418 0.0415859 -2.98702e-19)
(0.137903 0.04337 2.03435e-19)
(0.171795 0.0459717 8.67397e-21)
(0.207871 0.0495121 -6.055e-21)
(0.245898 0.0541079 2.04594e-19)
(0.285645 0.059879 -3.61762e-19)
(0.326884 0.066957 2.86356e-19)
(0.369414 0.0754957 -5.29366e-20)
(0.413078 0.0856818 1.67397e-19)
(0.457803 0.09774 -2.75549e-19)
(0.50366 0.111963 1.58573e-19)
(0.551152 0.128912 -2.85531e-19)
(0.60121 0.14904 2.96705e-19)
(0.649055 0.165895 -9.19942e-20)
(-0.010197 0.00859808 2.98197e-19)
(-0.0228663 0.0200471 -4.86703e-20)
(-0.0286124 0.0275015 3.57909e-19)
(-0.0281506 0.0320971 1.6556e-19)
(-0.0220845 0.0347342 1.32258e-20)
(-0.0109314 0.0361204 7.22073e-20)
(0.00486956 0.0368041 1.74087e-20)
(0.0249471 0.0372121 2.93762e-19)
(0.0489803 0.0376782 9.45319e-20)
(0.0766821 0.0384658 -1.26517e-20)
(0.107784 0.039784 2.54239e-20)
(0.142023 0.0418002 9.76839e-20)
(0.179134 0.0446494 8.1408e-20)
(0.218845 0.0484415 1.73919e-19)
(0.260872 0.0532672 -1.98174e-19)
(0.304927 0.0592021 5.97938e-20)
(0.350721 0.0663109 1.8131e-20)
(0.397979 0.0746498 8.84849e-20)
(0.446453 0.0842674 2.39967e-19)
(0.495949 0.0952017 -1.56384e-19)
(0.546343 0.107467 1.35133e-20)
(0.597609 0.121041 -2.22803e-19)
(0.64995 0.135983 2.11631e-19)
(0.703815 0.15247 -2.06569e-19)
(0.754345 0.16634 1.89854e-20)
(-0.0103113 0.00819682 -2.48822e-19)
(-0.0223085 0.0187917 1.90138e-19)
(-0.0265281 0.0255536 -3.09372e-19)
(-0.0238178 0.0296324 2.66876e-20)
(-0.0148659 0.031948 2.17437e-19)
(-0.000251722 0.0332224 -3.62028e-19)
(0.0195336 0.0340093 2.86938e-19)
(0.0440705 0.0347345 -4.54942e-19)
(0.0729891 0.0357266 9.06284e-20)
(0.105948 0.0372393 1.93246e-20)
(0.142619 0.0394671 1.52425e-19)
(0.182668 0.0425572 -5.06407e-19)
(0.225753 0.0466176 8.74331e-20)
(0.271514 0.0517238 9.2496e-20)
(0.319581 0.0579227 -5.54299e-20)
(0.36957 0.0652357 -3.4357e-19)
(0.421099 0.0736607 1.61768e-19)
(0.473799 0.0831723 3.02772e-19)
(0.527327 0.0937192 -3.19759e-19)
(0.581384 0.105219 2.32159e-19)
(0.635725 0.117543 -3.01906e-19)
(0.69016 0.130503 2.19666e-19)
(0.744596 0.143933 -6.17223e-20)
(0.799107 0.15801 3.5317e-19)
(0.849542 0.17052 -4.06316e-19)
(-0.0102973 0.00771999 3.56691e-20)
(-0.0212911 0.0173462 2.80903e-20)
(-0.0235906 0.0233614 6.88406e-20)
(-0.0181891 0.0269192 2.45314e-19)
(-0.00586888 0.0289526 -7.64659e-21)
(0.0127203 0.0301941 5.47844e-20)
(0.0370237 0.0311976 2.43492e-19)
(0.0665588 0.0323826 9.81658e-20)
(0.100888 0.0340662 -3.22899e-20)
(0.139593 0.0364849 2.74911e-19)
(0.182257 0.0398097 -3.12742e-19)
(0.228447 0.0441571 4.79594e-19)
(0.27771 0.0495974 -1.90161e-19)
(0.32957 0.0561596 3.44895e-19)
(0.383533 0.063836 -1.16423e-19)
(0.439094 0.0725855 4.24461e-20)
(0.49575 0.0823352 5.14302e-20)
(0.553012 0.0929816 -9.9496e-20)
(0.610426 0.10439 8.32608e-20)
(0.667578 0.11639 5.3574e-20)
(0.724106 0.128773 7.4189e-20)
(0.779695 0.141276 1.58265e-19)
(0.834076 0.153644 -1.29374e-20)
(0.887134 0.166045 -7.25706e-20)
(0.935772 0.177765 2.22667e-19)
(-0.01013 0.00716831 -2.08547e-19)
(-0.0197392 0.0157223 2.20368e-20)
(-0.0196765 0.0209573 -3.95947e-19)
(-0.0110957 0.0240163 -9.45353e-20)
(0.00511595 0.025838 -1.76774e-19)
(0.0282256 0.0271597 -3.79255e-20)
(0.057599 0.0285292 -1.89068e-19)
(0.0926701 0.0303526 -1.12847e-19)
(0.132908 0.0329273 1.49357e-19)
(0.177789 0.0364628 -2.49164e-19)
(0.226775 0.0410958 -6.91671e-20)
(0.279298 0.0469002 2.66615e-21)
(0.334763 0.0538958 -4.66747e-19)
(0.392547 0.0620537 1.98353e-19)
(0.452005 0.0713023 -2.89502e-19)
(0.512492 0.0815318 -9.03652e-21)
(0.573374 0.0925986 5.72039e-20)
(0.634048 0.104329 -9.27435e-20)
(0.693956 0.116523 -8.1357e-20)
(0.7526 0.128954 4.092e-20)
(0.809546 0.141371 4.60035e-20)
(0.864422 0.153497 -2.97784e-19)
(0.916904 0.16506 1.70009e-19)
(0.96682 0.176194 8.69462e-20)
(1.01213 0.187254 2.50877e-20)
(-0.00978094 0.00654328 2.13527e-19)
(-0.017571 0.0139356 -2.27777e-19)
(-0.0146547 0.018381 3.19165e-19)
(-0.00236292 0.020994 4.95051e-20)
(0.0182977 0.022709 -1.51991e-20)
(0.0464948 0.0242605 -1.07085e-19)
(0.0814928 0.0261819 1.61048e-20)
(0.122616 0.0288567 1.62483e-19)
(0.169207 0.0325515 -2.2401e-19)
(0.220601 0.0374368 2.35045e-19)
(0.276101 0.0436009 -2.47777e-20)
(0.334972 0.0510613 1.09719e-20)
(0.396443 0.0597735 3.05221e-19)
(0.459718 0.0696393 4.08823e-19)
(0.523994 0.0805146 -1.59927e-19)
(0.588481 0.0922181 2.84321e-19)
(0.652426 0.104539 1.44773e-19)
(0.715136 0.117243 -8.83862e-20)
(0.775991 0.130083 2.81245e-19)
(0.834462 0.142802 -1.02115e-20)
(0.890112 0.155139 -2.71616e-19)
(0.942592 0.166834 2.87878e-19)
(0.991624 0.177638 4.23321e-20)
(1.03708 0.187656 -1.80205e-19)
(1.07784 0.197937 5.65094e-20)
(-0.00921828 0.00584773 -2.97378e-19)
(-0.0146982 0.0120063 3.10578e-19)
(-0.0083888 0.0156807 -1.97035e-19)
(0.0081844 0.0179344 -6.15464e-20)
(0.0338778 0.0196844 -1.3739e-19)
(0.067737 0.0216525 2.42772e-19)
(0.108897 0.0243472 -1.40836e-19)
(0.156538 0.0281165 -6.4455e-20)
(0.20984 0.0331824 -1.8442e-19)
(0.267955 0.0396603 4.79298e-21)
(0.329989 0.047574 -7.205e-20)
(0.395007 0.0568685 3.50378e-20)
(0.462038 0.0674209 -3.68824e-19)
(0.530104 0.079053 1.05066e-19)
(0.598246 0.0915431 -1.26868e-19)
(0.665551 0.104639 -1.02426e-19)
(0.731183 0.118068 3.16242e-20)
(0.794406 0.131553 -1.49905e-19)
(0.854602 0.144817 -6.49271e-20)
(0.911278 0.157598 1.86188e-19)
(0.964069 0.16965 7.96569e-20)
(1.01273 0.180752 -3.38089e-19)
(1.05711 0.190704 2.49807e-19)
(1.0972 0.199605 -4.74236e-20)
(1.13258 0.208878 -9.88764e-20)
(-0.00840717 0.00508647 -1.08601e-19)
(-0.0110284 0.00996132 -5.80624e-20)
(-0.00074053 0.0129147 -1.16464e-20)
(0.0207167 0.0149319 8.46579e-20)
(0.0520407 0.0168967 9.20764e-20)
(0.0921273 0.0195052 8.01462e-20)
(0.139947 0.0232262 9.95377e-20)
(0.194494 0.0283562 1.51843e-19)
(0.254743 0.0350544 2.31839e-19)
(0.319619 0.0433626 2.29178e-19)
(0.387999 0.0532211 1.20881e-19)
(0.45872 0.0644854 -3.24326e-20)
(0.530604 0.0769415 8.16183e-21)
(0.602499 0.0903235 -1.10977e-20)
(0.673315 0.104331 9.56163e-20)
(0.74206 0.118646 -2.57467e-20)