/*--------------------------------*- C++ -*----------------------------------*\
  =========                 |
  \\      /  F ield         | OpenFOAM: The Open Source CFD Toolbox
   \\    /   O peration     | Website:  https://openfoam.org
    \\  /    A nd           | Version:  6.0
     \\/     M anipulation  |
\*---------------------------------------------------------------------------*/
FoamFile
{
    version     2.0;
    format      ascii;
    class       volScalarField;
    location    "27";
    object      p;
}
// * * * * * * * * * * * * * * * * * * * * * * * * * * * * * * * * * * * * * //

dimensions      [0 2 -2 0 0 0 0];

internalField   nonuniform List<scalar> 
12500
(
-0.253054
-0.253826
-0.254359
-0.254764
-0.25511
-0.255405
-0.255657
-0.255876
-0.256069
-0.256241
-0.256397
-0.25654
-0.256674
-0.2568
-0.256921
-0.257041
-0.25716
-0.257283
-0.25741
-0.257545
-0.257693
-0.257856
-0.257994
-0.258081
-0.25854
-0.253132
-0.253902
-0.254433
-0.254836
-0.25518
-0.255472
-0.255721
-0.255937
-0.256126
-0.256295
-0.256448
-0.256587
-0.256717
-0.256839
-0.256957
-0.257072
-0.257188
-0.257307
-0.257431
-0.257562
-0.257708
-0.257869
-0.258004
-0.258089
-0.258547
-0.253278
-0.254045
-0.254572
-0.254972
-0.255311
-0.255597
-0.25584
-0.25605
-0.256232
-0.256394
-0.256539
-0.256671
-0.256793
-0.256907
-0.257017
-0.257124
-0.257232
-0.257343
-0.257459
-0.257584
-0.257723
-0.257878
-0.258008
-0.258088
-0.258544
-0.253489
-0.254253
-0.254776
-0.25517
-0.255502
-0.255781
-0.256015
-0.256214
-0.256387
-0.256538
-0.256672
-0.256792
-0.256902
-0.257004
-0.257101
-0.257196
-0.257291
-0.257389
-0.257493
-0.257606
-0.257735
-0.257881
-0.258002
-0.258072
-0.258524
-0.253768
-0.254527
-0.255045
-0.255432
-0.255755
-0.256022
-0.256244
-0.256431
-0.25659
-0.256726
-0.256844
-0.256948
-0.257041
-0.257126
-0.257206
-0.257283
-0.257361
-0.257441
-0.257528
-0.257625
-0.257738
-0.257871
-0.25798
-0.258036
-0.258484
-0.254114
-0.254869
-0.25538
-0.255757
-0.256068
-0.256322
-0.256529
-0.256699
-0.25684
-0.256957
-0.257056
-0.257139
-0.257211
-0.257274
-0.25733
-0.257384
-0.257438
-0.257496
-0.25756
-0.257634
-0.257728
-0.257842
-0.257935
-0.257972
-0.258414
-0.254529
-0.255278
-0.255781
-0.256147
-0.256444
-0.256681
-0.25687
-0.257019
-0.257138
-0.257232
-0.257306
-0.257364
-0.257408
-0.257443
-0.257471
-0.257496
-0.25752
-0.257548
-0.257582
-0.257629
-0.257696
-0.257786
-0.257858
-0.257873
-0.258305
-0.255013
-0.255757
-0.25625
-0.256602
-0.256883
-0.2571
-0.257266
-0.257391
-0.257484
-0.25755
-0.257595
-0.257621
-0.257634
-0.257634
-0.257627
-0.257615
-0.257602
-0.257593
-0.257591
-0.257602
-0.257635
-0.257696
-0.257739
-0.257726
-0.258148
-0.25557
-0.256307
-0.256788
-0.257125
-0.257385
-0.25758
-0.25772
-0.257817
-0.257879
-0.257912
-0.257922
-0.257913
-0.257886
-0.257847
-0.257797
-0.257741
-0.257684
-0.257628
-0.257581
-0.257547
-0.257539
-0.257561
-0.25757
-0.257522
-0.257932
-0.256202
-0.25693
-0.257398
-0.257716
-0.257954
-0.258121
-0.258232
-0.258296
-0.258323
-0.25832
-0.25829
-0.258239
-0.258168
-0.258081
-0.257982
-0.257874
-0.257762
-0.257652
-0.257549
-0.257461
-0.2574
-0.257375
-0.25734
-0.25725
-0.257643
-0.256912
-0.25763
-0.258082
-0.258379
-0.258589
-0.258727
-0.258804
-0.258832
-0.25882
-0.258775
-0.258701
-0.258602
-0.258481
-0.25834
-0.258184
-0.258015
-0.25784
-0.257664
-0.257494
-0.257339
-0.257214
-0.257129
-0.257039
-0.256896
-0.25727
-0.257704
-0.25841
-0.258843
-0.259114
-0.259295
-0.259399
-0.259438
-0.259426
-0.259371
-0.25928
-0.259157
-0.259006
-0.258829
-0.258628
-0.258407
-0.25817
-0.257921
-0.257668
-0.257418
-0.257182
-0.256978
-0.256818
-0.256658
-0.256449
-0.256799
-0.258584
-0.259273
-0.259683
-0.259926
-0.260073
-0.260138
-0.260136
-0.26008
-0.259979
-0.259838
-0.259663
-0.259455
-0.259217
-0.258951
-0.258659
-0.258344
-0.258012
-0.257669
-0.257325
-0.256993
-0.256691
-0.256438
-0.256189
-0.255896
-0.256213
-0.259556
-0.260224
-0.260607
-0.260816
-0.260925
-0.260948
-0.260901
-0.260797
-0.260646
-0.260453
-0.260222
-0.259955
-0.259653
-0.259316
-0.258947
-0.258547
-0.258122
-0.257678
-0.257226
-0.256778
-0.256358
-0.255989
-0.255626
-0.255224
-0.255495
-0.260626
-0.261267
-0.261618
-0.261789
-0.261854
-0.261831
-0.261735
-0.26158
-0.261376
-0.261128
-0.260839
-0.260511
-0.260142
-0.259733
-0.259282
-0.258792
-0.258266
-0.257709
-0.257132
-0.25655
-0.255988
-0.255475
-0.254966
-0.254422
-0.254626
-0.261799
-0.262406
-0.262718
-0.262846
-0.262863
-0.262788
-0.262638
-0.262429
-0.262169
-0.261864
-0.261517
-0.261126
-0.26069
-0.260206
-0.259673
-0.259089
-0.258456
-0.257777
-0.257062
-0.256324
-0.255595
-0.254903
-0.254209
-0.253476
-0.253582
-0.263082
-0.263646
-0.263913
-0.26399
-0.263952
-0.26382
-0.263612
-0.263345
-0.263026
-0.262663
-0.262256
-0.261802
-0.2613
-0.260743
-0.260127
-0.259449
-0.258705
-0.257898
-0.257032
-0.256121
-0.255195
-0.254288
-0.253359
-0.252375
-0.252334
-0.26448
-0.264993
-0.265206
-0.265226
-0.265126
-0.26493
-0.264658
-0.264327
-0.263947
-0.263522
-0.263054
-0.262538
-0.26197
-0.261343
-0.260647
-0.259876
-0.259023
-0.258084
-0.257059
-0.255959
-0.254809
-0.253646
-0.252425
-0.25111
-0.250851
-0.265998
-0.26645
-0.266602
-0.266555
-0.266384
-0.266116
-0.265774
-0.265373
-0.264926
-0.264438
-0.263906
-0.263329
-0.262697
-0.262001
-0.26123
-0.260371
-0.259411
-0.258342
-0.257156
-0.255854
-0.254458
-0.253
-0.251422
-0.249676
-0.249098
-0.267645
-0.268025
-0.268104
-0.267981
-0.26773
-0.267382
-0.266959
-0.266482
-0.265962
-0.265404
-0.264806
-0.264165
-0.263469
-0.262707
-0.261864
-0.260923
-0.259864
-0.258671
-0.257326
-0.25582
-0.254162
-0.252373
-0.250374
-0.24808
-0.247039
-0.269426
-0.269723
-0.269719
-0.269509
-0.269167
-0.268726
-0.268214
-0.26765
-0.267048
-0.266413
-0.265744
-0.265035
-0.264274
-0.263447
-0.262536
-0.261518
-0.260369
-0.259063
-0.257572
-0.255868
-0.253945
-0.251806
-0.249333
-0.246368
-0.244678
-0.27135
-0.271552
-0.271454
-0.271145
-0.270699
-0.270153
-0.269538
-0.268876
-0.268182
-0.267461
-0.266712
-0.265928
-0.265098
-0.264206
-0.263229
-0.262142
-0.260916
-0.259516
-0.2579
-0.256027
-0.253863
-0.251388
-0.248434
-0.244708
-0.242139
-0.273427
-0.273523
-0.273318
-0.272895
-0.272331
-0.271666
-0.270934
-0.270162
-0.269362
-0.268543
-0.267705
-0.266839
-0.265934
-0.264974
-0.263935
-0.262791
-0.261507
-0.260041
-0.258344
-0.256351
-0.254002
-0.251242
-0.247838
-0.243258
-0.239418
-0.275671
-0.275648
-0.275321
-0.27477
-0.274072
-0.273272
-0.27241
-0.271511
-0.270593
-0.269663
-0.268724
-0.267767
-0.266783
-0.265756
-0.264663
-0.26348
-0.262173
-0.260701
-0.259004
-0.257003
-0.254598
-0.25166
-0.247787
-0.241983
-0.236002
-0.278098
-0.277941
-0.277477
-0.276783
-0.275934
-0.274984
-0.273974
-0.272933
-0.271883
-0.27083
-0.269779
-0.268725
-0.267658
-0.266568
-0.265438
-0.264251
-0.262987
-0.261623
-0.260126
-0.258447
-0.256517
-0.254192
-0.250903
-0.24523
-0.238487
-0.280726
-0.280419
-0.279802
-0.278948
-0.277932
-0.276814
-0.275641
-0.274445
-0.273248
-0.272062
-0.27089
-0.269731
-0.268581
-0.267435
-0.266286
-0.265133
-0.263983
-0.262854
-0.261788
-0.26087
-0.260261
-0.260232
-0.261183
-0.264825
-0.277605
-0.283579
-0.283104
-0.282316
-0.281284
-0.280084
-0.278783
-0.277432
-0.276068
-0.274713
-0.273382
-0.272082
-0.270816
-0.269583
-0.268386
-0.267229
-0.266128
-0.265113
-0.264237
-0.263589
-0.26332
-0.263674
-0.265018
-0.267856
-0.273622
-0.28702
-0.286683
-0.286019
-0.285041
-0.283814
-0.282413
-0.280914
-0.279372
-0.277826
-0.276304
-0.274823
-0.273391
-0.272014
-0.270699
-0.269454
-0.268295
-0.26725
-0.266366
-0.265717
-0.265414
-0.265624
-0.266586
-0.268628
-0.272126
-0.277856
-0.288983
-0.290067
-0.289189
-0.288001
-0.286561
-0.284943
-0.283231
-0.281486
-0.279751
-0.278055
-0.276417
-0.27485
-0.273363
-0.271966
-0.270673
-0.269508
-0.268506
-0.267724
-0.267242
-0.267169
-0.267657
-0.268901
-0.271137
-0.274593
-0.279609
-0.288323
-0.29376
-0.292641
-0.291222
-0.289551
-0.287701
-0.285764
-0.283807
-0.281875
-0.28
-0.278202
-0.276497
-0.274897
-0.273413
-0.272064
-0.270877
-0.26989
-0.269157
-0.268753
-0.268772
-0.26933
-0.270562
-0.27261
-0.275581
-0.279553
-0.285916
-0.297794
-0.296404
-0.294731
-0.292811
-0.290715
-0.288543
-0.286365
-0.28423
-0.282171
-0.280211
-0.278364
-0.276644
-0.275063
-0.273641
-0.272403
-0.271383
-0.270631
-0.270203
-0.270172
-0.270614
-0.271606
-0.273218
-0.275476
-0.278322
-0.282608
-0.302199
-0.300504
-0.298554
-0.296369
-0.294014
-0.291596
-0.289191
-0.286849
-0.284602
-0.282473
-0.280477
-0.278625
-0.276929
-0.275405
-0.274073
-0.272962
-0.272108
-0.271551
-0.271338
-0.271511
-0.272103
-0.273134
-0.274584
-0.27634
-0.278882
-0.307003
-0.304968
-0.302717
-0.300252
-0.297626
-0.294954
-0.292316
-0.28976
-0.287319
-0.285014
-0.282855
-0.280851
-0.27901
-0.277343
-0.275864
-0.274592
-0.273549
-0.272762
-0.272253
-0.272039
-0.272128
-0.272508
-0.273142
-0.273903
-0.275043
-0.312232
-0.309819
-0.307246
-0.304484
-0.301576
-0.298643
-0.295765
-0.292989
-0.290345
-0.287848
-0.285505
-0.28332
-0.281295
-0.279433
-0.277742
-0.276232
-0.274915
-0.273802
-0.272903
-0.272219
-0.271743
-0.271452
-0.271308
-0.271191
-0.27123
-0.317905
-0.315079
-0.312159
-0.309088
-0.305889
-0.302687
-0.299561
-0.296556
-0.293693
-0.290983
-0.288426
-0.286019
-0.283757
-0.281639
-0.279664
-0.277836
-0.27616
-0.274639
-0.273276
-0.272065
-0.270994
-0.270042
-0.269178
-0.268297
-0.267476
-0.324039
-0.320762
-0.317476
-0.314084
-0.310584
-0.307104
-0.303722
-0.300471
-0.297369
-0.294414
-0.291602
-0.28892
-0.28636
-0.283913
-0.281578
-0.279352
-0.277239
-0.27524
-0.273356
-0.271581
-0.269908
-0.26832
-0.266797
-0.265252
-0.263748
-0.330641
-0.326879
-0.323208
-0.319484
-0.315675
-0.311909
-0.308255
-0.304739
-0.301365
-0.298124
-0.295002
-0.291983
-0.289051
-0.2862
-0.283424
-0.280724
-0.278105
-0.275571
-0.273126
-0.270769
-0.268498
-0.266305
-0.264179
-0.262049
-0.259983
-0.337713
-0.333433
-0.329362
-0.325297
-0.321171
-0.317106
-0.313161
-0.309349
-0.305662
-0.302081
-0.298584
-0.295152
-0.291771
-0.288433
-0.285139
-0.281896
-0.278713
-0.275601
-0.272568
-0.269622
-0.266766
-0.264
-0.261318
-0.258664
-0.256113
-0.345245
-0.340419
-0.335936
-0.331524
-0.327071
-0.32269
-0.318427
-0.314279
-0.310224
-0.306236
-0.302288
-0.298361
-0.294446
-0.290542
-0.286659
-0.282812
-0.279019
-0.275298
-0.271666
-0.268133
-0.26471
-0.2614
-0.258203
-0.25507
-0.252082
-0.353217
-0.347823
-0.342919
-0.338154
-0.333362
-0.328644
-0.324027
-0.31949
-0.315001
-0.310527
-0.306043
-0.301533
-0.297
-0.292455
-0.28792
-0.28342
-0.278984
-0.274638
-0.270402
-0.266294
-0.262324
-0.258499
-0.25482
-0.251241
-0.247848
-0.361599
-0.355621
-0.350291
-0.345166
-0.340021
-0.334934
-0.329916
-0.324927
-0.319925
-0.314877
-0.309763
-0.304583
-0.299352
-0.294098
-0.288859
-0.283671
-0.278573
-0.273595
-0.268763
-0.264095
-0.259602
-0.255289
-0.251157
-0.24716
-0.243385
-0.370346
-0.363774
-0.358016
-0.352526
-0.347007
-0.341514
-0.336035
-0.330516
-0.324911
-0.319193
-0.313356
-0.307419
-0.301419
-0.295402
-0.28942
-0.283522
-0.277754
-0.27215
-0.266736
-0.261528
-0.256536
-0.251763
-0.247204
-0.242812
-0.238675
-0.379399
-0.37223
-0.366048
-0.360185
-0.354265
-0.348315
-0.342304
-0.336167
-0.329861
-0.323374
-0.316723
-0.309952
-0.303121
-0.296298
-0.289549
-0.282934
-0.2765
-0.270282
-0.264306
-0.258584
-0.25312
-0.247913
-0.242952
-0.238189
-0.23371
-0.388683
-0.380924
-0.374321
-0.368075
-0.36172
-0.355254
-0.348628
-0.341775
-0.334665
-0.32731
-0.31976
-0.312088
-0.304381
-0.296725
-0.2892
-0.281869
-0.274783
-0.267974
-0.261461
-0.255251
-0.249342
-0.243728
-0.238392
-0.233279
-0.228482
-0.398109
-0.389774
-0.382757
-0.376112
-0.369279
-0.362226
-0.354892
-0.347219
-0.339202
-0.330888
-0.322365
-0.31374
-0.305125
-0.296625
-0.288326
-0.280296
-0.27258
-0.265205
-0.258183
-0.251515
-0.24519
-0.239197
-0.233512
-0.228072
-0.222982
-0.407569
-0.39868
-0.391257
-0.384195
-0.376831
-0.369109
-0.360968
-0.352369
-0.343345
-0.333991
-0.324436
-0.314822
-0.305286
-0.295944
-0.286888
-0.278182
-0.269864
-0.261955
-0.254457
-0.24736
-0.24065
-0.234306
-0.2283
-0.222557
-0.2172
-0.416941
-0.407527
-0.399708
-0.392201
-0.384246
-0.375766
-0.366714
-0.357085
-0.346966
-0.336504
-0.325875
-0.315255
-0.304799
-0.294632
-0.284845
-0.275495
-0.26661
-0.258201
-0.25026
-0.242769
-0.235704
-0.229039
-0.222738
-0.216719
-0.211125
-0.426085
-0.416186
-0.407976
-0.399994
-0.391378
-0.382047
-0.371979
-0.361226
-0.349936
-0.338317
-0.326591
-0.314964
-0.303606
-0.292643
-0.28216
-0.272204
-0.262791
-0.25392
-0.245572
-0.23772
-0.230332
-0.223378
-0.216811
-0.210542
-0.204741
-0.434849
-0.424509
-0.415916
-0.40742
-0.398069
-0.38779
-0.37661
-0.364648
-0.352129
-0.339323
-0.326497
-0.31388
-0.301651
-0.289932
-0.278796
-0.268277
-0.258379
-0.249086
-0.240369
-0.232191
-0.224514
-0.217301
-0.210499
-0.204007
-0.198031
-0.443069
-0.432338
-0.423367
-0.414313
-0.404149
-0.392829
-0.380447
-0.367211
-0.353425
-0.339423
-0.325512
-0.311939
-0.298883
-0.286456
-0.274717
-0.263683
-0.253345
-0.243672
-0.234625
-0.226159
-0.218227
-0.210788
-0.203781
-0.197096
-0.190977
-0.450571
-0.439503
-0.430156
-0.420497
-0.409443
-0.396994
-0.383338
-0.368779
-0.35371
-0.338526
-0.323565
-0.309083
-0.295254
-0.282175
-0.269887
-0.258391
-0.24766
-0.237652
-0.228316
-0.219599
-0.211448
-0.203817
-0.196637
-0.189789
-0.183561
-0.45717
-0.445824
-0.436103
-0.425789
-0.413769
-0.400118
-0.385131
-0.369225
-0.352881
-0.336548
-0.320587
-0.305258
-0.290719
-0.27705
-0.264273
-0.25237
-0.241296
-0.230999
-0.221417
-0.212488
-0.204156
-0.196368
-0.189048
-0.182067
-0.175765
-0.46268
-0.451119
-0.441021
-0.430004
-0.416951
-0.402036
-0.385685
-0.368432
-0.350843
-0.333413
-0.31652
-0.300414
-0.285237
-0.271047
-0.257844
-0.245589
-0.234226
-0.223688
-0.213903
-0.204805
-0.196329
-0.188422
-0.180994
-0.173914
-0.167571
-0.466915
-0.455201
-0.444726
-0.432959
-0.418816
-0.402596
-0.38487
-0.366294
-0.347511
-0.329055
-0.311309
-0.294508
-0.278771
-0.264132
-0.250568
-0.238022
-0.226424
-0.215694
-0.205754
-0.196528
-0.187949
-0.179959
-0.17246
-0.165313
-0.158965
-0.469691
-0.457887
-0.447032
-0.434475
-0.4192
-0.401655
-0.382568
-0.362716
-0.342812
-0.323417
-0.304908
-0.287501
-0.271287
-0.256274
-0.242418
-0.229644
-0.217866
-0.206996
-0.196948
-0.187639
-0.178999
-0.170965
-0.163431
-0.156252
-0.149934
-0.470828
-0.458999
-0.447764
-0.434384
-0.417951
-0.399084
-0.378676
-0.357618
-0.336684
-0.31645
-0.297278
-0.279359
-0.262756
-0.247448
-0.233371
-0.220432
-0.208533
-0.197577
-0.187469
-0.178124
-0.169465
-0.161428
-0.153895
-0.146719
-0.140469
-0.470159
-0.458367
-0.446753
-0.43253
-0.414932
-0.394772
-0.373105
-0.350933
-0.329076
-0.308114
-0.288387
-0.270056
-0.253153
-0.237632
-0.223406
-0.210368
-0.198409
-0.187421
-0.177305
-0.16797
-0.159337
-0.151338
-0.143845
-0.13671
-0.130562
-0.467529
-0.455834
-0.443849
-0.428774
-0.410026
-0.388623
-0.365784
-0.342607
-0.319948
-0.298377
-0.278209
-0.25957
-0.24246
-0.226808
-0.212508
-0.199438
-0.18748
-0.176517
-0.166445
-0.157169
-0.148608
-0.14069
-0.133276
-0.126219
-0.120212
-0.462797
-0.45126
-0.438914
-0.422993
-0.403132
-0.380561
-0.356657
-0.332602
-0.309272
-0.28722
-0.266727
-0.247885
-0.230662
-0.214964
-0.200665
-0.187633
-0.175738
-0.164858
-0.154885
-0.145718
-0.137276
-0.129482
-0.122189
-0.115249
-0.109418
-0.455845
-0.444522
-0.431833
-0.415089
-0.394171
-0.370529
-0.345686
-0.320892
-0.29703
-0.274628
-0.253931
-0.234992
-0.217752
-0.202093
-0.187872
-0.174947
-0.163179
-0.152442
-0.142622
-0.133616
-0.125341
-0.117717
-0.110587
-0.103805
-0.0981874
-0.446572
-0.43552
-0.422512
-0.404983
-0.383088
-0.358491
-0.332849
-0.307465
-0.283217
-0.2606
-0.239819
-0.220891
-0.203729
-0.188194
-0.174129
-0.161381
-0.149805
-0.139271
-0.129659
-0.120867
-0.112809
-0.105402
-0.0984782
-0.0918964
-0.0865291
-0.434902
-0.424174
-0.41088
-0.392622
-0.369846
-0.344428
-0.318141
-0.292323
-0.267838
-0.245141
-0.224397
-0.205587
-0.188598
-0.173271
-0.159439
-0.146938
-0.13562
-0.125349
-0.116005
-0.10748
-0.09969
-0.0925472
-0.0858759
-0.0795373
-0.0744579
-0.420783
-0.410431
-0.396892
-0.377975
-0.354434
-0.328342
-0.301572
-0.275482
-0.250909
-0.228268
-0.20768
-0.189093
-0.172369
-0.157335
-0.143811
-0.131629
-0.120634
-0.110688
-0.101668
-0.0934663
-0.0859961
-0.0791675
-0.0727962
-0.0667462
-0.0619922
-0.404189
-0.394263
-0.380528
-0.361037
-0.33686
-0.310254
-0.283169
-0.25697
-0.23246
-0.210006
-0.189689
-0.171428
-0.155061
-0.140401
-0.127262
-0.115467
-0.10486
-0.0953009
-0.0866636
-0.0788403
-0.0717436
-0.0652807
-0.0592591
-0.0535456
-0.0491546
-0.38512
-0.375667
-0.361793
-0.341827
-0.317157
-0.290202
-0.262975
-0.236829
-0.212527
-0.19039
-0.170457
-0.152619
-0.136697
-0.122492
-0.109809
-0.0984702
-0.0883155
-0.0792032
-0.0710075
-0.0636193
-0.056951
-0.0509073
-0.0452883
-0.0399618
-0.0359716
-0.3636
-0.354667
-0.340718
-0.320388
-0.295376
-0.268245
-0.241046
-0.215114
-0.191162
-0.169464
-0.150023
-0.132703
-0.117309
-0.103633
-0.0914768
-0.0806588
-0.0710183
-0.0624132
-0.0547173
-0.0478215
-0.0416382
-0.0360697
-0.0309101
-0.0260255
-0.0224765
-0.339682
-0.331313
-0.31736
-0.296784
-0.271588
-0.244455
-0.217456
-0.191891
-0.168425
-0.147283
-0.128434
-0.11172
-0.0969325
-0.0838572
-0.0722925
-0.0620568
-0.0529896
-0.0449493
-0.0378103
-0.0314643
-0.0258239
-0.0207899
-0.0161516
-0.0117712
-0.00871133
-0.313442
-0.305678
-0.291797
-0.271103
-0.245885
-0.218922
-0.192288
-0.16724
-0.144388
-0.123912
-0.105749
-0.0897218
-0.075612
-0.0632014
-0.0522877
-0.0426903
-0.0342506
-0.026829
-0.0203017
-0.0145619
-0.00952324
-0.00508598
-0.00103767
0.00276482
0.00527864
-0.28498
-0.277861
-0.264133
-0.243452
-0.218375
-0.191753
-0.165643
-0.141252
-0.119133
-0.0994245
-0.0820335
-0.0667662
-0.0533981
-0.0417089
-0.0314978
-0.0225872
-0.0148222
-0.00806692
-0.0022013
0.00287853
0.00725707
0.0110324
0.0144132
0.0175519
0.0194649
-0.25442
-0.247983
-0.23449
-0.213957
-0.189184
-0.163067
-0.137633
-0.114029
-0.0927554
-0.0739059
-0.0573635
-0.0429212
-0.0303497
-0.0194294
-0.00996279
-0.00177738
0.00527611
0.0113274
0.0164904
0.0208637
0.0245275
0.0275742
0.0302027
0.0325852
0.0338577
-0.221905
-0.216186
-0.203014
-0.182762
-0.158451
-0.132997
-0.108381
-0.0856874
-0.0653592
-0.047452
-0.0318262
-0.0182646
-0.0065353
0.0035789
0.0122704
0.0197048
0.0260237
0.0313482
0.0357829
0.0394173
0.0423235
0.0445829
0.0463774
0.0479073
0.0484721
-0.187599
-0.182629
-0.169863
-0.150026
-0.12633
-0.10169
-0.0780239
-0.0563517
-0.0370606
-0.0201698
-0.0055198
0.0071145
0.0179656
0.027247
0.0351448
0.0418163
0.0473934
0.0519855
0.0556839
0.0585631
0.0606839
0.0621126
0.062993
0.0635131
0.0631317
-0.151682
-0.14749
-0.135214
-0.115922
-0.0929881
-0.0693
-0.0467072
-0.0261581
-0.00798621
0.00782292
0.021446
0.0331146
0.0430607
0.0514938
0.0585928
0.0645063
0.0693543
0.0732311
0.0762067
0.0783318
0.0796496
0.0801974
0.0800053
0.0791168
0.0772706
-0.11435
-0.110961
-0.099258
-0.0806357
-0.0586005
-0.0359943
-0.0145861
0.00474824
0.0217274
0.036397
0.048949
0.0596203
0.0686424
0.0762215
0.0825314
0.0877136
0.0918787
0.0951053
0.0974377
0.0988956
0.0994943
0.0991923
0.0977249
0.0947952
0.0909852
-0.0758099
-0.0732457
-0.0621943
-0.04436
-0.0233518
-0.00194588
0.018177
0.0362143
0.051935
0.0654134
0.0768549
0.0865005
0.0945823
0.101305
0.106841
0.111333
0.114891
0.117593
0.119482
0.120578
0.120909
0.120344
0.118184
0.113741
0.109052
-0.0362823
-0.03456
-0.0242334
-0.00729708
0.0125671
0.0326661
0.0514138
0.0680813
0.0824852
0.0947258
0.10502
0.113611
0.120733
0.126588
0.131352
0.13517
0.138163
0.14043
0.142045
0.143102
0.143749
0.143942
0.142818
0.13986
0.142045
0.00401387
0.00487883
0.0144112
0.0303477
0.0489618
0.0676591
0.0849529
0.100187
0.113223
0.124184
0.133296
0.140804
0.14694
0.151906
0.155876
0.158997
0.161395
0.163176
0.164435
0.165293
0.16591
0.166271
0.165889
0.165182
0.169591
0.044846
0.0448427
0.0535183
0.0683638
0.0856347
0.102848
0.118621
0.132368
0.143993
0.153638
0.161536
0.167933
0.173057
0.177107
0.180256
0.182649
0.184415
0.185662
0.186494
0.187031
0.187413
0.18762
0.187305
0.186952
0.190863
0.0859796
0.0851019
0.0928656
0.10654
0.122388
0.13805
0.152247
0.164464
0.174642
0.182941
0.189599
0.194859
0.198944
0.202049
0.204342
0.205965
0.207044
0.207685
0.20799
0.208074
0.20806
0.207932
0.2074
0.206855
0.209833
0.12718
0.125425
0.13223
0.144666
0.159025
0.173081
0.18566
0.196314
0.205019
0.211951
0.217348
0.221449
0.224473
0.226608
0.228014
0.228829
0.229172
0.229144
0.228838
0.228357
0.227808
0.227162
0.226156
0.225153
0.227237
0.168212
0.165583
0.171391
0.182532
0.195351
0.207761
0.218693
0.227764
0.234981
0.240532
0.244655
0.247584
0.249531
0.250675
0.25117
0.251147
0.250715
0.24997
0.248996
0.247883
0.246721
0.24547
0.243885
0.242329
0.243546
0.208845
0.205348
0.210129
0.219933
0.231177
0.241915
0.251185
0.258663
0.264387
0.268553
0.271398
0.273149
0.27401
0.274153
0.273723
0.272841
0.271611
0.270118
0.268438
0.266652
0.264832
0.262932
0.260728
0.258592
0.25898
0.248849
0.244495
0.248229
0.25667
0.266316
0.275371
0.282977
0.288866
0.293103
0.29589
0.297462
0.298039
0.297816
0.296956
0.295595
0.293847
0.291807
0.289552
0.28715
0.284673
0.28218
0.279619
0.276793
0.274075
0.273669
0.288001
0.282806
0.285484
0.292545
0.300588
0.307966
0.313918
0.318234
0.321
0.322425
0.322739
0.322155
0.320858
0.319002
0.316716
0.314105
0.311255
0.308237
0.305112
0.301943
0.298778
0.295565
0.292129
0.288843
0.287674
0.326085
0.320069
0.321691
0.327372
0.33382
0.339538
0.343862
0.346632
0.347955
0.348044
0.347124
0.3454
0.343049
0.340215
0.337019
0.333557
0.329909
0.326139
0.322301
0.31845
0.314627
0.31078
0.306757
0.302921
0.301019
0.362892
0.356079
0.356654
0.360968
0.365845
0.369935
0.372669
0.373931
0.37385
0.372639
0.370518
0.367686
0.364308
0.360521
0.356437
0.352146
0.347721
0.343218
0.338685
0.334173
0.329714
0.325257
0.320675
0.31631
0.313706
0.39822
0.390639
0.390187
0.393159
0.396503
0.399011
0.400203
0.400009
0.398571
0.396106
0.392827
0.388924
0.384556
0.379849
0.374909
0.369817
0.364641
0.359431
0.35423
0.349082
0.344014
0.338978
0.333865
0.328997
0.32572
0.431878
0.423563
0.422112
0.423782
0.425643
0.426627
0.426339
0.424748
0.422012
0.418346
0.413959
0.409033
0.403716
0.39813
0.39237
0.386513
0.380619
0.374735
0.368897
0.363144
0.357498
0.351915
0.346303
0.340957
0.337039
0.463685
0.454674
0.452262
0.452679
0.453121
0.452653
0.450956
0.448038
0.44407
0.439265
0.433828
0.427931
0.421716
0.415296
0.40876
0.402179
0.395606
0.389083
0.382644
0.37632
0.370131
0.364036
0.357958
0.352162
0.347636
0.49347
0.483804
0.480479
0.479706
0.478803
0.476964
0.473941
0.469775
0.464649
0.458775
0.452352
0.445544
0.438486
0.431284
0.42402
0.416759
0.40955
0.40243
0.395428
0.388572
0.381877
0.375306
0.368796
0.362578
0.357481
0.521075
0.5108
0.506617
0.504726
0.502565
0.499446
0.495188
0.489862
0.48366
0.476793
0.469454
0.461801
0.45396
0.446032
0.438093
0.430202
0.422403
0.41473
0.407208
0.39986
0.392697
0.385688
0.378782
0.372174
0.366544
0.546352
0.535518
0.530539
0.527613
0.524292
0.519993
0.5146
0.508209
0.501019
0.493241
0.485062
0.476634
0.468076
0.459483
0.450925
0.442457
0.434119
0.42594
0.417942
0.410145
0.402556
0.395149
0.387882
0.380916
0.374796
0.569169
0.557828
0.552123
0.548254
0.543877
0.538509
0.532087
0.524732
0.51665
0.508049
0.499112
0.489983
0.480778
0.471584
0.462467
0.453479
0.444654
0.436019
0.427592
0.41939
0.411417
0.403653
0.396063
0.388774
0.382208
0.589405
0.577614
0.571259
0.566546
0.561227
0.554907
0.547571
0.539359
0.530484
0.521153
0.511542
0.501791
0.492011
0.482284
0.472673
0.463223
0.453966
0.444927
0.436121
0.42756
0.419249
0.411169
0.403294
0.395718
0.388755
0.606954
0.594771
0.587848
0.582398
0.576259
0.56911
0.560979
0.552024
0.54246
0.532495
0.522299
0.51201
0.501731
0.491542
0.481501
0.471651
0.462021
0.452632
0.443497
0.434626
0.426021
0.417669
0.409548
0.401722
0.394412
0.621723
0.609209
0.601806
0.595733
0.588899
0.581052
0.57225
0.562668
0.552525
0.542025
0.531338
0.520595
0.509897
0.499319
0.488916
0.478729
0.468785
0.459101
0.44969
0.440559
0.431708
0.423127
0.414799
0.406762
0.39916
0.633636
0.620855
0.613061
0.606483
0.599088
0.590675
0.581332
0.571244
0.560633
0.549703
0.538619
0.527509
0.516473
0.505581
0.494888
0.484429
0.474231
0.46431
0.454677
0.445335
0.436286
0.427521
0.419027
0.41082
0.402981
0.642629
0.629646
0.621557
0.614596
0.606776
0.597936
0.588184
0.577714
0.56675
0.555494
0.54411
0.532724
0.521432
0.510304
0.49939
0.488727
0.478338
0.468238
0.458437
0.448937
0.439738
0.430834
0.422215
0.413879
0.40586
0.648656
0.635538
0.62725
0.620032
0.611927
0.6028
0.592774
0.582048
0.570847
0.559373
0.547788
0.536217
0.524754
0.513467
0.502406
0.491605
0.481088
0.470868
0.460954
0.451348
0.442049
0.433053
0.42435
0.415928
0.407788
0.651686
0.6385
0.630112
0.622765
0.614516
0.605245
0.595081
0.584225
0.572905
0.561322
0.549636
0.537972
0.526423
0.515056
0.503921
0.493051
0.48247
0.47219
0.462219
0.45256
0.443211
0.434168
0.425423
0.416957
0.408757
0.651703
0.638517
0.630128
0.62278
0.614531
0.605259
0.595094
0.584238
0.572917
0.561333
0.549646
0.537982
0.526432
0.515065
0.50393
0.49306
0.482478
0.472198
0.462227
0.452568
0.443218
0.434175
0.42543
0.416964
0.408764
0.648707
0.635588
0.627298
0.620078
0.611971
0.602841
0.592813
0.582084
0.570881
0.559406
0.547819
0.536247
0.524782
0.513494
0.502432
0.49163
0.481112
0.470892
0.460977
0.451371
0.442071
0.433074
0.424371
0.415948
0.407808
0.642712
0.629728
0.621636
0.614672
0.606848
0.598004
0.588249
0.577775
0.566808
0.555549
0.544162
0.532775
0.52148
0.51035
0.499435
0.488769
0.478379
0.468278
0.458475
0.448974
0.439774
0.430869
0.422249
0.413913
0.405893
0.633752
0.620969
0.613172
0.606588
0.599188
0.59077
0.581422
0.571329
0.560714
0.54978
0.538692
0.527579
0.51654
0.505646
0.494949
0.484489
0.474289
0.464366
0.454731
0.445387
0.436337
0.42757
0.419075
0.410867
0.403026
0.621872
0.609355
0.601947
0.595868
0.589027
0.581173
0.572365
0.562777
0.552628
0.542124
0.531432
0.520684
0.509982
0.499401
0.488996
0.478805
0.468858
0.459172
0.449759
0.440625
0.431773
0.42319
0.414861
0.406822
0.399218
0.607135
0.594948
0.588019
0.582562
0.576414
0.569258
0.561119
0.552156
0.542586
0.532614
0.522413
0.512119
0.501836
0.491642
0.481598
0.471744
0.46211
0.452718
0.443581
0.434707
0.4261
0.417746
0.409623
0.401795
0.394483
0.589617
0.577822
0.57146
0.566739
0.56141
0.55508
0.547735
0.539515
0.530632
0.521293
0.511675
0.501919
0.492134
0.482402
0.472786
0.463332
0.454072
0.445029
0.43622
0.427656
0.419342
0.411259
0.403382
0.395804
0.388838
0.569411
0.558066
0.552353
0.548474
0.544086
0.538707
0.532275
0.52491
0.516819
0.50821
0.499265
0.49013
0.480918
0.471718
0.462597
0.453603
0.444774
0.436135
0.427705
0.419499
0.411524
0.403756
0.396164
0.388872
0.382303
0.546624
0.535785
0.530797
0.52786
0.524526
0.520216
0.51481
0.508408
0.501209
0.493422
0.485235
0.476799
0.468234
0.459635
0.451071
0.442598
0.434255
0.426071
0.418069
0.410268
0.402675
0.395265
0.387996
0.381027
0.374903
0.521374
0.511094
0.506902
0.504999
0.502825
0.499692
0.495421
0.490083
0.48387
0.476993
0.469645
0.461983
0.454135
0.4462
0.438255
0.430358
0.422554
0.414876
0.407349
0.399996
0.39283
0.385817
0.378908
0.372297
0.366663
0.493797
0.484125
0.480791
0.480004
0.479087
0.477232
0.474196
0.470017
0.464879
0.458994
0.452561
0.445744
0.438678
0.431468
0.424197
0.416929
0.409714
0.402589
0.395582
0.388722
0.382022
0.375447
0.368934
0.362713
0.357611
0.464038
0.45502
0.452599
0.453002
0.453427
0.452943
0.451232
0.4483
0.444318
0.439502
0.434054
0.428147
0.421923
0.415495
0.408952
0.402363
0.395784
0.389255
0.382811
0.376482
0.370289
0.364189
0.358108
0.352308
0.347777
0.432255
0.423934
0.422472
0.424127
0.425971
0.426939
0.426635
0.425028
0.422278
0.4186
0.414201
0.409265
0.403938
0.398344
0.392576
0.386712
0.380811
0.37492
0.369077
0.363318
0.357668
0.35208
0.346464
0.341114
0.337191
0.39862
0.391033
0.390569
0.393526
0.396852
0.399342
0.400517
0.400307
0.398855
0.396376
0.393085
0.389172
0.384793
0.380077
0.375128
0.370029
0.364845
0.359629
0.354422
0.349268
0.344195
0.339154
0.334037
0.329165
0.325883
0.363314
0.356493
0.357056
0.361354
0.366213
0.370285
0.373
0.374246
0.37415
0.372925
0.370792
0.367947
0.364559
0.360763
0.35667
0.352371
0.347937
0.343427
0.338889
0.33437
0.329906
0.325444
0.320857
0.316488
0.313879
0.326527
0.320503
0.322112
0.327777
0.334207
0.339905
0.344211
0.346963
0.348271
0.348345
0.347411
0.345676
0.343313
0.340469
0.337263
0.333793
0.330137
0.32636
0.322515
0.318658
0.31483
0.310977
0.306949
0.303109
0.301202
0.288461
0.283258
0.285923
0.292968
0.300991
0.308349
0.314282
0.31858
0.32133
0.32274
0.323039
0.322443
0.321134
0.319268
0.316973
0.314352
0.311495
0.308469
0.305337
0.302161
0.298991
0.295771
0.292331
0.28904
0.287866
0.249325
0.244963
0.248685
0.257108
0.266734
0.275769
0.283355
0.289226
0.293446
0.296218
0.297775
0.29834
0.298105
0.297234
0.295863
0.294106
0.292057
0.289794
0.287385
0.284901
0.282402
0.279835
0.277004
0.274282
0.27387
0.209335
0.20583
0.210598
0.220385
0.231609
0.242326
0.251576
0.259035
0.264742
0.268892
0.271722
0.273461
0.27431
0.274441
0.274001
0.27311
0.271871
0.27037
0.268682
0.266889
0.265063
0.263157
0.260948
0.258807
0.25919
0.168715
0.166078
0.171872
0.182996
0.195795
0.208184
0.219096
0.228147
0.235347
0.240882
0.24499
0.247906
0.24984
0.250973
0.251458
0.251425
0.250985
0.250231
0.249249
0.24813
0.246961
0.245703
0.244113
0.242552
0.243764
0.127693
0.12593
0.132722
0.14514
0.15948
0.173514
0.186073
0.196708
0.205396
0.212311
0.217693
0.22178
0.224792
0.226915
0.228311
0.229116
0.22945
0.229413
0.2291
0.228612
0.228056
0.227404
0.226392
0.225384
0.227462
0.086501
0.0856144
0.0933658
0.107023
0.122851
0.138493
0.152669
0.164866
0.175026
0.183309
0.189952
0.195198
0.19927
0.202364
0.204646
0.20626
0.20733
0.207963
0.20826
0.208336
0.208316
0.208182
0.207644
0.207093
0.210066
0.0453734
0.0453614
0.0540249
0.0688539
0.0861053
0.103298
0.119051
0.132779
0.144385
0.154014
0.161897
0.16828
0.173391
0.17743
0.180568
0.182951
0.184708
0.185947
0.186771
0.187301
0.187677