/*--------------------------------*- C++ -*----------------------------------*\
  =========                 |
  \\      /  F ield         | OpenFOAM: The Open Source CFD Toolbox
   \\    /   O peration     | Website:  https://openfoam.org
    \\  /    A nd           | Version:  6.0
     \\/     M anipulation  |
\*---------------------------------------------------------------------------*/
FoamFile
{
    version     2.0;
    format      ascii;
    class       surfaceScalarField;
    location    "27";
    object      phi;
}
// * * * * * * * * * * * * * * * * * * * * * * * * * * * * * * * * * * * * * //

dimensions      [0 3 -1 0 0 0 0];

internalField   nonuniform List<scalar> 
24700
(
-1.29442e-06
1.53491e-06
-2.40492e-07
-4.70618e-06
4.04761e-06
-6.35857e-07
-9.83207e-06
6.08864e-06
-9.62748e-07
-1.632e-05
7.7201e-06
-1.23213e-06
-2.38679e-05
9.00119e-06
-1.45332e-06
-3.2221e-05
9.98766e-06
-1.63462e-06
-4.11687e-05
1.07311e-05
-1.78336e-06
-5.05416e-05
1.12788e-05
-1.9059e-06
-6.02074e-05
1.16735e-05
-2.00769e-06
-7.00676e-05
1.19536e-05
-2.09335e-06
-8.00545e-05
1.21536e-05
-2.16668e-06
-9.01278e-05
1.23041e-05
-2.2308e-06
-0.000100272
1.2432e-05
-2.28813e-06
-0.000110492
1.2561e-05
-2.3406e-06
-0.000120814
1.27114e-05
-2.38961e-06
-0.000131278
1.29003e-05
-2.43619e-06
-0.000141939
1.31421e-05
-2.48106e-06
-0.000152862
1.3448e-05
-2.52468e-06
-0.000164121
1.38263e-05
-2.56733e-06
-0.000175795
1.42827e-05
-2.60915e-06
-0.000187965
1.48203e-05
-2.65017e-06
-0.000200714
1.54395e-05
-2.69038e-06
-0.000214123
1.61384e-05
-2.72973e-06
-0.000228268
1.69135e-05
-2.76805e-06
1.77624e-05
-2.80516e-06
-0.000243226
-1.29145e-06
2.82636e-06
-4.6947e-06
7.45086e-06
-9.80626e-06
1.12002e-05
-1.62735e-05
1.41874e-05
-2.37936e-05
1.65213e-05
-3.21109e-05
1.83049e-05
-4.10139e-05
1.96341e-05
-5.03317e-05
2.05966e-05
-5.99305e-05
2.12723e-05
-6.97105e-05
2.17335e-05
-7.96019e-05
2.2045e-05
-8.95628e-05
2.22649e-05
-9.95755e-05
2.24447e-05
-0.000109644
2.26298e-05
-0.000119793
2.28596e-05
-0.00013006
2.31679e-05
-0.000140501
2.35827e-05
-0.000151179
2.41266e-05
-0.000162169
2.48165e-05
-0.000173551
2.5664e-05
-0.000185406
2.66758e-05
-0.00019782
2.78531e-05
-0.000210874
2.91925e-05
-0.000224648
3.06875e-05
3.23334e-05
-0.000239219
-1.28779e-06
4.11415e-06
-4.67951e-06
1.08426e-05
-9.77026e-06
1.62909e-05
-1.62058e-05
2.06229e-05
-2.36812e-05
2.39967e-05
-3.19389e-05
2.65627e-05
-4.07651e-05
2.84602e-05
-4.99862e-05
2.98176e-05
-5.94654e-05
3.07516e-05
-6.90996e-05
3.13677e-05
-7.88155e-05
3.1761e-05
-8.85676e-05
3.2017e-05
-9.83346e-05
3.22117e-05
-0.000108117
3.24125e-05
-0.000117936
3.26785e-05
-0.000127829
3.30604e-05
-0.000137847
3.36009e-05
-0.000148055
3.43346e-05
-0.000158527
3.52883e-05
-0.000169343
3.64804e-05
-0.000180589
3.79219e-05
-0.000192352
3.9616e-05
-0.000204718
4.15585e-05
-0.000217771
4.37402e-05
4.61545e-05
-0.000231592
-1.28373e-06
5.39788e-06
-4.66149e-06
1.42203e-05
-9.72573e-06
2.13552e-05
-1.61193e-05
2.70165e-05
-2.35347e-05
3.1412e-05
-3.17108e-05
3.47388e-05
-4.04306e-05
3.718e-05
-4.95165e-05
3.89035e-05
-5.88274e-05
4.00625e-05
-6.82552e-05
4.07954e-05
-7.77215e-05
4.12273e-05
-8.71752e-05
4.14707e-05
-9.65895e-05
4.16261e-05
-0.00010596
4.17832e-05
-0.000115303
4.20212e-05
-0.000124651
4.24088e-05
-0.000134055
4.30044e-05
-0.000143576
4.38561e-05
-0.00015329
4.50017e-05
-0.000163278
4.64683e-05
-0.000173629
4.82728e-05
-0.000184434
5.04218e-05
-0.000195787
5.29113e-05
-0.000207778
5.57306e-05
5.88713e-05
-0.000220494
-1.27962e-06
6.6775e-06
-4.64164e-06
1.75823e-05
-9.67457e-06
2.63881e-05
-1.60174e-05
3.33593e-05
-2.33587e-05
3.87533e-05
-3.14337e-05
4.28138e-05
-4.00206e-05
4.57669e-05
-4.8937e-05
4.782e-05
-5.80362e-05
4.91618e-05
-6.72038e-05
4.9963e-05
-7.63545e-05
5.03781e-05
-8.54299e-05
5.0546e-05
-9.43958e-05
5.0592e-05
-0.000103241
5.06283e-05
-0.000111974
5.07545e-05
-0.000120624
5.10584e-05
-0.000129235
5.16156e-05
-0.000137868
5.24895e-05
-0.000146597
5.37309e-05
-0.000155507
5.5378e-05
-0.00016469
5.7456e-05
-0.000174245
5.99766e-05
-0.000184272
6.29381e-05
-0.000194871
6.63298e-05
7.01421e-05
-0.000206142
-1.27582e-06
7.95331e-06
-4.62094e-06
2.09275e-05
-9.61854e-06
3.13857e-05
-1.59029e-05
3.96437e-05
-2.31579e-05
4.60084e-05
-3.11142e-05
5.07701e-05
-3.9545e-05
5.41977e-05
-4.82623e-05
5.65373e-05
-5.71127e-05
5.80121e-05
-6.59741e-05
5.88245e-05
-7.47531e-05
5.9157e-05
-8.3382e-05
5.91749e-05
-9.18175e-05
5.90275e-05
-0.000100039
5.88495e-05
-0.000108046
5.87619e-05
-0.00011586
5.88724e-05
-0.00012352
5.92756e-05
-0.000131083
6.00522e-05
-0.000138621
6.12691e-05
-0.000146221
6.29781e-05
-0.000153981
6.52159e-05
-0.000162007
6.80026e-05
-0.000170411
7.13417e-05
-0.000179305
7.52244e-05
7.96417e-05
-0.000188805
-1.27257e-06
9.22588e-06
-4.59997e-06
2.42549e-05
-9.55863e-06
3.63444e-05
-1.57772e-05
4.58622e-05
-2.29346e-05
5.31658e-05
-3.07566e-05
5.85921e-05
-3.90111e-05
6.24522e-05
-4.75039e-05
6.503e-05
-5.60742e-05
6.65825e-05
-6.45918e-05
6.7342e-05
-7.29534e-05
6.75186e-05
-8.10808e-05
6.73024e-05
-8.89194e-05
6.68661e-05
-9.64367e-05
6.63669e-05
-0.000103622
6.59472e-05
-0.000110486
6.5736e-05
-0.000117058
6.58484e-05
-0.000123391
6.63852e-05
-0.000129555
6.74323e-05
-0.000135636
6.90592e-05
-0.000141738
7.1318e-05
-0.000147977
7.42417e-05
-0.000154478
7.7843e-05
-0.000161372
8.21186e-05
8.70623e-05
-0.000168793
-1.26996e-06
1.04958e-05
-4.57867e-06
2.75636e-05
-9.49443e-06
4.12601e-05
-1.56397e-05
5.20074e-05
-2.26882e-05
6.02143e-05
-3.03608e-05
6.62647e-05
-3.84202e-05
7.05116e-05
-4.66659e-05
7.32758e-05
-5.493e-05
7.48466e-05
-6.30731e-05
7.54851e-05
-7.09814e-05
7.54269e-05
-7.8565e-05
7.4886e-05
-8.57561e-05
7.40571e-05
-9.25083e-05
7.31191e-05
-9.87971e-05
7.2236e-05
-0.00010462
7.15584e-05
-0.000109995
7.1224e-05
-0.000114966
7.13562e-05
-0.000119597
7.20636e-05
-0.000123976
7.34381e-05
-0.000128211
7.55526e-05
-0.000132428
7.84586e-05
-0.000136768
8.21836e-05
-0.000141385
8.67357e-05
9.21153e-05
-0.000146438
-1.26777e-06
1.17636e-05
-4.55602e-06
3.08518e-05
-9.42358e-06
4.61277e-05
-1.54862e-05
5.80701e-05
-2.24127e-05
6.71408e-05
-2.99194e-05
7.37714e-05
-3.77642e-05
7.83564e-05
-4.5741e-05
8.12526e-05
-5.36748e-05
8.27804e-05
-6.14173e-05
8.32276e-05
-6.88441e-05
8.28537e-05
-7.58523e-05
8.18942e-05
-8.23595e-05
8.05644e-05
-8.83036e-05
7.90632e-05
-9.36433e-05
7.75756e-05
-9.83591e-05
7.62743e-05
-0.000102455
7.53203e-05
-0.000105962
7.48625e-05
-0.000108935
7.50363e-05
-0.000111458
7.59611e-05
-0.000113642
7.77374e-05
-0.000115627
8.04427e-05
-0.000117571
8.41276e-05
-0.000119654
8.8819e-05
9.4531e-05
-0.00012207
-1.26544e-06
1.30291e-05
-4.52977e-06
3.41161e-05
-9.34117e-06
5.09391e-05
-1.53086e-05
6.40374e-05
-2.2096e-05
7.39282e-05
-2.9416e-05
8.10914e-05
-3.70229e-05
8.59632e-05
-4.47057e-05
8.89354e-05
-5.22833e-05
9.0358e-05
-5.95994e-05
9.05437e-05
-6.65191e-05
8.97734e-05
-7.29265e-05
8.83016e-05
-7.87239e-05
8.63617e-05
-8.38315e-05
8.41708e-05
-8.81887e-05
8.19328e-05
-9.17563e-05
7.98419e-05
-9.45189e-05
7.80829e-05
-9.64887e-05
7.68323e-05
-9.77084e-05
7.6256e-05
-9.82542e-05
7.6507e-05
-9.82379e-05
7.77211e-05
-9.78068e-05
8.00116e-05
-9.71418e-05
8.34627e-05
-9.64547e-05
8.81319e-05
9.40575e-05
-9.59811e-05
-1.26202e-06
1.42911e-05
-4.49635e-06
3.73505e-05
-9.23946e-06
5.56822e-05
-1.50934e-05
6.98914e-05
-2.1718e-05
8.05529e-05
-2.88232e-05
8.81966e-05
-3.61606e-05
9.33006e-05
-4.35162e-05
9.6291e-05
-5.07043e-05
9.75461e-05
-5.75618e-05
9.74012e-05
-6.39446e-05
9.61562e-05
-6.97247e-05
9.40817e-05
-7.4789e-05
9.1426e-05
-7.90393e-05
8.8421e-05
-8.23937e-05
8.52873e-05
-8.47898e-05
8.2238e-05
-8.61883e-05
7.94815e-05
-8.65783e-05
7.72223e-05
-8.59824e-05
7.56602e-05
-8.44631e-05
7.49876e-05
-8.21266e-05
7.53846e-05
-7.91268e-05
7.70118e-05
-7.56655e-05
8.00014e-05
-7.1991e-05
8.44574e-05
9.04588e-05
-6.83922e-05
-1.25615e-06
1.55472e-05
-4.45074e-06
4.0545e-05
-9.10772e-06
6.03392e-05
-1.48223e-05
7.56059e-05
-2.12508e-05
8.69814e-05
-2.81014e-05
9.50472e-05
-3.51247e-05
0.000100324
-4.21056e-05
0.000103272
-4.88556e-05
0.000104296
-5.52074e-05
0.000103753
-6.10096e-05
0.000101958
-6.61239e-05
9.9196e-05
-7.04232e-05
9.57253e-05
-7.37912e-05
9.17891e-05
-7.61243e-05
8.76203e-05
-7.73343e-05
8.3448e-05
-7.73538e-05
7.9501e-05
-7.61429e-05
7.60114e-05
-7.36969e-05
7.32142e-05
-7.00558e-05
7.13464e-05
-6.53125e-05
7.06414e-05
-5.96211e-05
7.13203e-05
-5.32014e-05
7.35816e-05
-4.63417e-05
7.75977e-05
8.35124e-05
-3.93954e-05
-1.2461e-06
1.67933e-05
-4.38669e-06
4.36856e-05
-8.93248e-06
6.4885e-05
-1.44718e-05
8.11452e-05
-2.06579e-05
9.31676e-05
-2.71985e-05
0.000101588
-3.38447e-05
0.00010697
-4.03818e-05
0.000109809
-4.66215e-05
0.000110536
-5.23946e-05
0.000109526
-5.75457e-05
0.00010711
-6.19293e-05
0.00010358
-6.54071e-05
9.9203e-05
-6.78469e-05
9.42289e-05
-6.91242e-05
8.88977e-05
-6.91248e-05
8.34486e-05
-6.77504e-05
7.81266e-05
-6.49268e-05
7.31877e-05
-6.06141e-05
6.89016e-05
-5.48197e-05
6.5552e-05
-4.76121e-05
6.34337e-05
-3.91351e-05
6.28433e-05
-2.96199e-05
6.40665e-05
-1.93951e-05
6.73729e-05
7.30067e-05
-8.88934e-06
-1.22991e-06
1.80232e-05
-4.297e-06
4.67527e-05
-8.69809e-06
6.9286e-05
-1.40143e-05
8.64614e-05
-1.98963e-05
9.90496e-05
-2.60516e-05
0.000107743
-3.2233e-05
0.000113152
-3.82286e-05
0.000115805
-4.3852e-05
0.000116159
-4.89355e-05
0.00011461
-5.33235e-05
0.000111497
-5.68671e-05
0.000107123
-5.94214e-05
0.000101757
-6.08429e-05
9.56504e-05
-6.09896e-05
8.90443e-05
-5.97234e-05
8.21824e-05
-5.69152e-05
7.53185e-05
-5.24534e-05
6.8726e-05
-4.62561e-05
6.27042e-05
-3.82873e-05
5.75832e-05
-2.85774e-05
5.37238e-05
-1.72449e-05
5.15109e-05
-4.51999e-06
5.13415e-05
9.23397e-06
5.36189e-05
5.87366e-05
2.3504e-05
-1.2055e-06
1.92287e-05
-4.17399e-06
4.97212e-05
-8.38757e-06
7.34996e-05
-1.34196e-05
9.14934e-05
-1.89173e-05
0.000104547
-2.45885e-05
0.000113414
-3.01882e-05
0.000118751
-3.55079e-05
0.000121124
-4.03657e-05
0.000121017
-4.4598e-05
0.000118842
-4.80524e-05
0.000114952
-5.05822e-05
0.000109653
-5.20414e-05
0.000103216
-5.22813e-05
9.58903e-05
-5.11495e-05
8.79125e-05
-4.849e-05
7.95229e-05
-4.41471e-05
7.09755e-05
-3.79727e-05
6.25516e-05
-2.98395e-05
5.4571e-05
-1.96592e-05
4.7403e-05
-7.40911e-06
4.14737e-05
6.8366e-06
3.72652e-05
2.28693e-05
3.53089e-05
4.03042e-05
3.6184e-05
4.04998e-05
5.8541e-05
-1.17088e-06
2.03996e-05
-4.01009e-06
5.25604e-05
-7.98382e-06
7.74733e-05
-1.26562e-05
9.61658e-05
-1.76701e-05
0.000109561
-2.27322e-05
0.000118476
-2.75992e-05
0.000123618
-3.20664e-05
0.000125591
-3.59568e-05
0.000124907
-3.9113e-05
0.000121998
-4.13893e-05
0.000117228
-4.26456e-05
0.000110909
-4.27413e-05
0.000103312
-4.1531e-05
9.468e-05
-3.8861e-05
8.52426e-05
-3.4568e-05
7.52298e-05
-2.84794e-05
6.48869e-05
-2.04187e-05
5.44909e-05
-1.02162e-05
4.43685e-05
2.27212e-06
3.49147e-05
1.7135e-05
2.66108e-05
3.4364e-05
2.00362e-05
5.37997e-05
1.58731e-05
7.50625e-05
1.49213e-05
1.809e-05
9.74723e-05
-1.12437e-06
2.1524e-05
-3.79847e-06
5.52345e-05
-7.47084e-06
8.11457e-05
-1.16941e-05
0.000100389
-1.61042e-05
0.000113971
-2.04046e-05
0.000122777
-2.43519e-05
0.000127566
-2.7743e-05
0.000128983
-3.04054e-05
0.00012757
-3.21881e-05
0.000123781
-3.29535e-05
0.000117994
-3.25716e-05
0.000110527
-3.09132e-05
0.000101654
-2.78447e-05
9.16115e-05
-2.32231e-05
8.0621e-05
-1.68916e-05
6.88983e-05
-8.67717e-06
5.66725e-05
1.60872e-06
4.4205e-05
1.41644e-05
3.18128e-05
2.91828e-05
1.98963e-05
4.68225e-05
8.97114e-06
6.71599e-05
-3.0129e-07
9.01187e-05
-7.08567e-06
0.000115365
-1.03254e-05
-8.7127e-06
0.000142168
-1.06473e-06
2.25887e-05
-3.53364e-06
5.77034e-05
-6.83487e-06
8.44469e-05
-1.05062e-05
0.00010406
-1.41731e-05
0.000117638
-1.75321e-05
0.000126136
-2.03355e-05
0.000130369
-2.2379e-05
0.000131026
-2.34911e-05
0.000128682
-2.35245e-05
0.000123814
-2.23493e-05
0.000116818
-1.9846e-05
0.000108024
-1.59005e-05
9.77083e-05
-1.03982e-05
8.61092e-05
-3.21797e-06
7.34408e-05
5.77358e-06
5.99068e-05
1.67283e-05
4.57178e-05
2.98212e-05
3.11121e-05
4.5252e-05
1.6382e-05
6.32388e-05
1.90951e-06
8.3997e-05
-1.17871e-05
0.000107694
-2.39984e-05
0.000134369
-3.37604e-05
0.000163792
-3.9748e-05
-4.01573e-05
0.000195236
-9.91323e-07
2.358e-05
-3.21178e-06
5.99239e-05
-6.06525e-06
8.73004e-05
-9.07012e-06
0.000107065
-1.18366e-05
0.000120405
-1.40489e-05
0.000128348
-1.54498e-05
0.00013177
-1.58277e-05
0.000131404
-1.50065e-05
0.000127861
-1.28374e-05
0.000121645
-9.19313e-06
0.000113174
-3.96211e-06
0.000102793
2.95545e-06
9.07907e-05
1.16523e-05
7.74123e-05
2.22192e-05
6.28739e-05
3.47511e-05
4.73749e-05
4.93551e-05
3.11137e-05
6.61602e-05
1.43071e-05
8.53262e-05
-2.78403e-06
0.000107051
-1.98155e-05
0.000131567
-3.63029e-05
0.00015911
-5.15417e-05
0.00018985
-6.44997e-05
0.000223724
-7.36226e-05
-7.65492e-05
0.000260116
-9.04117e-07
2.44841e-05
-2.83081e-06
6.18506e-05
-5.15454e-06
8.96242e-05
-7.36867e-06
0.000109279
-9.06202e-06
0.000122098
-9.90007e-06
0.000129186
-9.60878e-06
0.000131479
-7.9616e-06
0.000129757
-4.7695e-06
0.000124669
1.26195e-07
0.000116749
6.85885e-06
0.000106442
1.55399e-05
9.41121e-05
2.62612e-05
8.00694e-05
3.90971e-05
6.45764e-05
5.41068e-05
4.78642e-05
7.13382e-05
3.01434e-05
9.08349e-05
1.16171e-05
0.000112646
-7.50416e-06
0.000136843
-2.69806e-05
0.000163536
-4.65093e-05
0.000192899
-6.56656e-05
0.000225168
-8.38102e-05
0.00026061
-9.99418e-05
0.000299385
-0.000112397
-0.000118295
0.00034113
-8.03541e-07
2.52877e-05
-2.39003e-06
6.3437e-05
-4.09795e-06
9.13321e-05
-5.38904e-06
0.00011057
-5.82374e-06
0.000122533
-5.04117e-06
0.000128404
-2.74214e-06
0.00012918
1.32415e-06
0.00012569
7.36984e-06
0.000118623
1.55748e-05
0.000108545
2.60901e-05
9.59262e-05
3.90398e-05
8.11624e-05
5.45204e-05
6.45888e-05
7.25994e-05
4.64975e-05
9.33132e-05
2.71504e-05
0.000116667
6.7899e-06
0.000142634
-1.43499e-05
0.000171163
-3.60332e-05
0.00020219
-5.80083e-05
0.000235667
-7.99856e-05
0.000271594
-0.000101593
0.000310076
-0.000122292
0.000351361
-0.000141227
0.00039581
-0.000156847
-0.000165952
0.000443468
-6.90242e-07
2.59779e-05
-1.88933e-06
6.46361e-05
-2.89193e-06
9.23347e-05
-3.12075e-06
0.000110799
-2.10028e-06
0.000121512
5.64879e-07
0.000125738
5.20806e-06
0.000124536
1.21143e-05
0.000118784
2.15302e-05
0.000109207
3.3669e-05
9.64057e-05
4.87138e-05
8.08813e-05
6.6817e-05
6.30592e-05
8.80969e-05
4.33088e-05
0.000112633
2.19609e-05
0.000140461
-6.77362e-07
0.000171561
-2.43102e-05
0.000205854
-4.86423e-05
0.000243191
-7.33707e-05
0.000283359
-9.81766e-05
0.000326091
-0.000122717
0.0003711
-0.000146603
0.000418165
-0.000169357
0.000467252
-0.000190314
0.000518705
-0.0002083
-0.000220346
0.000573099
-5.64698e-07
2.65426e-05
-1.32803e-06
6.53995e-05
-1.53195e-06
9.25386e-05
-5.52296e-07
0.00010982
2.13024e-06
0.00011883
6.95376e-06
0.000120915
1.42947e-05
0.000117195
2.4482e-05
0.000108597
3.78073e-05
9.58819e-05
5.45296e-05
7.96834e-05
7.48776e-05
6.05333e-05
9.90478e-05
3.88891e-05
0.0001272
1.51567e-05
0.00015945
-1.0289e-05
0.000195859
-3.70865e-05
0.000236421
-6.48717e-05
0.000281042
-9.32641e-05
0.000329526
-0.000121854
0.000381541
-0.000150192
0.000436609
-0.000177784
0.000494094
-0.000204088
0.000553248
-0.00022851
0.000613357
-0.000250423
0.000674153
-0.000269097
-0.000283239
0.000737046
-4.26775e-07
2.69694e-05
-7.0355e-07
6.56762e-05
-1.00018e-08
9.1845e-05
2.33292e-06
0.000107477
6.89593e-06
0.000114267
1.41676e-05
0.000113643
2.45754e-05
0.000106788
3.85007e-05
9.46715e-05
5.62887e-05
7.80938e-05
7.82537e-05
5.77184e-05
0.00010468
3.4107e-05
0.000135821
7.74849e-06
0.000171892
-2.09149e-05
0.000213068
-5.1465e-05
0.000259468
-8.34863e-05
0.000311143
-0.000116547
0.000368056
-0.000150177
0.000430051
-0.000183849
0.000496809
-0.000216949
0.000567776
-0.000248752
0.000642079
-0.00027839
0.000718419
-0.000304851
0.000795013
-0.000327017
0.000869981
-0.000344064
-0.000358892
0.000945634
-2.7529e-07
2.72447e-05
-1.00964e-08
6.5411e-05
1.68794e-06
9.0147e-05
5.56053e-06
0.000103604
1.22369e-05
0.00010759
2.22628e-05
0.000103617
3.61232e-05
9.29273e-05
5.42576e-05
7.65371e-05
7.70698e-05
5.52816e-05
0.000104933
2.98551e-05
0.000138191
8.49229e-07
0.000177155
-3.12161e-05
0.000222105
-6.58644e-05
0.000273279
-0.000102639
0.000330875
-0.000141082
0.000395041
-0.000180713
0.000465874
-0.00022101
0.000543404
-0.000261379
0.000627579
-0.000301125
0.000718216
-0.000339389
0.000814894
-0.000375068
0.00091672
-0.000406677
0.00102164
-0.000431942
0.0011246
-0.000447017
-0.000447389
0.00121309
-1.08173e-07
2.73529e-05
7.61536e-07
6.45413e-05
3.58284e-06
8.73257e-05
9.16721e-06
9.80197e-05
1.82085e-05
9.85491e-05
3.13151e-05
9.05106e-05
4.90332e-05
7.52092e-05
7.18624e-05
5.37079e-05
0.000100265
2.6879e-05
0.000134669
-4.54887e-06
0.000175469
-3.99509e-05
0.000223025
-7.87719e-05
0.000277659
-0.000120499
0.000339657
-0.000164637
0.000409272
-0.000210696
0.000486731
-0.000258172
0.000572259
-0.000306538
0.000666117
-0.000355238
0.000768669
-0.000403676
0.000880503
-0.000451223
0.00100265
-0.000497215
0.00113693
-0.000540961
0.00128682
-0.000581831
0.00145992
-0.000620115
-0.000660799
0.00167333
7.95265e-08
2.72733e-05
1.62751e-06
6.29933e-05
5.70712e-06
8.32461e-05
1.32057e-05
9.05211e-05
2.48868e-05
8.6868e-05
4.14244e-05
7.3973e-05
6.34269e-05
5.32068e-05
9.14515e-05
2.56833e-05
0.000126011
-7.68059e-06
0.000167576
-4.61133e-05
0.00021657
-8.89449e-05
0.00027337
-0.000135572
0.000338301
-0.00018543
0.000411638
-0.000237975
0.000493612
-0.00029267
0.000584418
-0.000348979
0.000684251
-0.00040637
0.000793335
-0.000464322
0.000911998
-0.00052234
0.00104077
-0.000579993
0.00118051
-0.000636959
0.00133263
-0.00069308
0.00149928
-0.000748474
0.00168295
-0.000803788
-0.00085867
0.00188082
2.92899e-07
2.69804e-05
2.60611e-06
6.06801e-05
8.09847e-06
7.77537e-05
1.77379e-05
8.08817e-05
3.23603e-05
7.22456e-05
5.27059e-05
5.36274e-05
7.94421e-05
2.64706e-05
0.000113175
-8.0498e-06
0.000154454
-4.8959e-05
0.000203765
-9.54246e-05
0.00026153
-0.00014671
0.000328096
-0.000202138
0.00040373
-0.000261065
0.000488621
-0.000322865
0.000582876
-0.000386925
0.000686536
-0.000452639
0.000799593
-0.000519428
0.000922017
-0.000586745
0.00105379
-0.000654112
0.00119494
-0.000721148
0.0013456
-0.000787616
0.00150598
-0.000853463
0.00167632
-0.000918812
0.00185629
-0.000983762
-0.0010452
0.00204282
5.38737e-07
2.64417e-05
3.71986e-06
5.7499e-05
1.08015e-05
7.0672e-05
2.28345e-05
6.88487e-05
4.07275e-05
5.43526e-05
6.52838e-05
2.90711e-05
9.72214e-05
-5.46699e-06
0.00013718
-4.80084e-05
0.000185719
-9.74982e-05
0.00024331
-0.000153015
0.000310322
-0.000213722
0.000387016
-0.000278831
0.00047353
-0.000347579
0.00056988
-0.000419215
0.000675958
-0.000493002
0.000791539
-0.000568221
0.000916298
-0.000644187
0.00104982
-0.000720272
0.00119164
-0.000795929
0.00134122
-0.000870721
0.00149795
-0.000944352
0.00166116
-0.00101667
0.00182999
-0.00108764
0.00200319
-0.00115696
-0.00122061
0.0021786
8.24558e-07
2.56171e-05
4.99318e-06
5.33304e-05
1.38636e-05
6.18016e-05
2.85688e-05
5.41436e-05
5.0087e-05
3.28343e-05
7.92765e-05
-1.18393e-07
0.00011689
-4.3081e-05
0.000163578
-9.46962e-05
0.000219876
-0.000153796
0.00028619
-0.00021933
0.000362785
-0.000290317
0.000449763
-0.00036581
0.000547059
-0.000444874
0.000654431
-0.000526588
0.000771472
-0.000610043
0.000897614
-0.000694362
0.00103215
-0.000778719
0.00117424
-0.000862363
0.00132295
-0.000944642
0.00147726
-0.00102503
0.00163603
-0.00110312
0.00179802
-0.00117867
0.00196187
-0.00125149
0.00212606
-0.00132115
-0.0013837
0.00228914
1.15803e-06
2.44591e-05
6.45038e-06
4.8038e-05
1.73306e-05
5.09214e-05
3.50091e-05
3.64651e-05
6.05256e-05
7.31778e-06
9.47786e-05
-3.43714e-05
0.000138533
-8.68356e-05
0.000192414
-0.000148577
0.000256887
-0.000218269
0.000332239
-0.000294682
0.000418557
-0.000376635
0.000515714
-0.000462966
0.000623359
-0.00055252
0.000740924
-0.000644153
0.000867635
-0.000736754
0.00100253
-0.000829262
0.00114451
-0.000920695
0.00129233
-0.00101018
0.00144466
-0.00109697
0.00160011
-0.00118048
0.00175723
-0.00126024
0.00191454
-0.00133598
0.00207052
-0.00140747
0.00222371
-0.00147434
-0.00153322
0.00237323
1.54635e-06
2.29127e-05
8.11364e-06
4.14707e-05
2.12424e-05
3.77927e-05
4.22112e-05
1.54962e-05
7.21066e-05
-2.25776e-05
0.000111845
-7.41094e-05
0.000162169
-0.00013716
0.000223633
-0.000210041
0.000296576
-0.000291212
0.000381095
-0.000379201
0.000477027
-0.000472567
0.000583936
-0.000569875
0.000701118
-0.000669701
0.000827617
-0.000770653
0.000962258
-0.000871395
0.00110369
-0.000970689
0.00125041
-0.00106742
0.00140087
-0.00116064
0.00155346
-0.00124956
0.00170657
-0.00133359
0.00185866
-0.00141233
0.00200822
-0.00148554
0.00215386
-0.00155311
0.00229435
-0.00161483
-0.00166813
0.00242926
1.99576e-06
2.0917e-05
1.00011e-05
3.34654e-05
2.56295e-05
2.21643e-05
5.02118e-05
-9.08608e-06
8.48593e-05
-5.72251e-05
0.000130473
-0.000119723
0.000187731
-0.000194418
0.000257058
-0.000279368
0.000338597
-0.00037275
0.00043218
-0.000472784
0.000537315
-0.000577702
0.000653187
-0.000685748
0.000778684
-0.000795198
0.00091243
-0.000904399
0.00105285
-0.00101181
0.00119821
-0.00111606
0.00134675
-0.00121595
0.00149665
-0.00131054
0.00164619
-0.0013991
0.00179375
-0.00148115
0.00193783
-0.00155641
0.00207713
-0.00162484
0.00221053
-0.00168651
0.00233718
-0.00174148
-0.001788
0.00245705
2.51107e-06
1.84059e-05
1.21255e-05
2.3851e-05
3.05093e-05
3.78048e-06
5.90227e-05
-3.75995e-05
9.87705e-05
-9.69729e-05
0.000150596
-0.000171549
0.000215054
-0.000258876
0.000292374
-0.000356688
0.000382423
-0.0004628
0.00048469
-0.000575051
0.000598282
-0.000691294
0.000721951
-0.000809417
0.000854143
-0.000927389
0.000993065
-0.00104332
0.00113678
-0.00115552
0.00128328
-0.00126256
0.00143058
-0.00136326
0.00157682
-0.00145678
0.0017203
-0.00154258
0.00185952
-0.00162036
0.00199323
-0.00169013
0.00212046
-0.00175207
0.00224047
-0.00180652
0.00235284
-0.00185384
-0.00189305
0.00245789
3.09545e-06
1.53105e-05
1.44929e-05
1.24535e-05
3.58839e-05
-1.76105e-05
6.8627e-05
-7.03426e-05
0.000113779
-0.000142125
0.000172071
-0.000229841
0.000243868
-0.000330672
0.000329124
-0.000441943
0.000427352
-0.000561028
0.000537622
-0.000685321
0.000658582
-0.000812254
0.000788517
-0.000939353
0.000925438
-0.00106431
0.00106718
-0.00118506
0.00121152
-0.00129987
0.00135629
-0.00140733
0.00149947
-0.00150643
0.00163925
-0.00159656
0.00177411
-0.00167744
0.00190286
-0.00174911
0.00202459
-0.00181186
0.00213872
-0.0018662
0.00224496
-0.00191276
0.00234329
-0.00195218
-0.00198412
0.00243436
3.7503e-06
1.15602e-05
1.71025e-05
-8.98739e-07
4.17392e-05
-4.22472e-05
7.8977e-05
-0.00010758
0.000129773
-0.000192921
0.000194681
-0.000294749
0.000273798
-0.000409789
0.00036672
-0.000534865
0.000472529
-0.000666837
0.000589811
-0.000802604
0.000716723
-0.000939166
0.000851087
-0.00107372
0.000990521
-0.00120374
0.00113258
-0.00132712
0.00127487
-0.00144216
0.0014152
-0.00154766
0.00155166
-0.00164289
0.00168267
-0.00172757
0.00180702
-0.0018018
0.0019239
-0.00186598
0.00203281
-0.00192077
0.00213361
-0.001967
0.0022264
-0.00200555
0.00231154
-0.00203731
-0.00206248
0.0023899
4.4752e-06
7.08497e-06
1.9946e-05
-1.63695e-05
4.80436e-05
-7.03449e-05
8.99933e-05
-0.00014953
0.00014659
-0.000249518
0.000218134
-0.000366293
0.000304371
-0.000496026
0.000404459
-0.000634953
0.000516978
-0.000779356
0.000639993
-0.000925619
0.000771166
-0.00107034
0.000907899
-0.00121045
0.00104751
-0.00134335
0.00118737
-0.00146698
0.0013251
-0.00157988
0.00145862
-0.00168118
0.00158627
-0.00177055
0.00170682
-0.00184813
0.00181948
-0.00191445
0.00192383
-0.00197033
0.00201984
-0.00201678
0.00210772
-0.00205488
0.00218793
-0.00208576
0.00226111
-0.00211049
-0.00212964
0.00232827
5.26794e-06
1.81703e-06
2.30077e-05
-3.41092e-05
5.47488e-05
-0.000102086
0.000101566
-0.000196347
0.000164018
-0.00031197
0.000242071
-0.000444346
0.000335033
-0.000588988
0.00044155
-0.00074147
0.000559653
-0.000897459
0.000686875
-0.00105284
0.00082042
-0.00120388
0.000957353
-0.00134738
0.00109481
-0.0014808
0.00123014
-0.00160232
0.00136111
-0.00171085
0.00148592
-0.00180599
0.00160327
-0.00188789
0.00171234
-0.00195721
0.0018128
-0.00201491
0.00190466
-0.00206219
0.00198825
-0.00210037
0.00206412
-0.00213075
0.00213299
-0.00215463
0.00219565
-0.00217315
-0.00218716
0.00225316
6.12452e-06
-4.30749e-06
2.62647e-05
-5.42494e-05
6.17895e-05
-0.000137611
0.000113553
-0.000248111
0.000181801
-0.000380218
0.000266075
-0.00052862
0.000365168
-0.000688081
0.000477153
-0.000853455
0.000599491
-0.0010198
0.000729212
-0.00118256
0.000863138
-0.00133781
0.000998118
-0.00148236
0.00113125
-0.00161393
0.00126003
-0.0017311
0.00138249
-0.00183332
0.00149722
-0.00192072
0.00160337
-0.00199404
0.0017006
-0.00205443
0.00178896
-0.00210327
0.00186888
-0.00214211
0.00194097
-0.00217246
0.00200604
-0.00219582
0.00206493
-0.00221352
0.00211854
-0.00222676
-0.00223651
0.00216789
7.03915e-06
-1.13466e-05
2.96868e-05
-7.6897e-05
6.90845e-05
-0.000177009
0.000125789
-0.000304816
0.000199646
-0.000454075
0.000289687
-0.000618661
0.000394121
-0.000792515
0.000510414
-0.000969748
0.000635472
-0.00114485
0.000765884
-0.00131298
0.000898205
-0.00147013
0.00102921
-0.00161337
0.00115612
-0.00174084
0.00127672
-0.0018517
0.00138942
-0.00194602
0.00149329
-0.00202459
0.00158793
-0.00208869
0.00167345
-0.00213994
0.00175029
-0.00218012
0.00181917
-0.00221098
0.00188093
-0.00223423
0.0019365
-0.00225139
0.00198681
-0.00226382
0.00203274
-0.0022727
-0.00227902
0.00207525
8.00421e-06
-1.93509e-05
3.3237e-05
-0.00010213
7.65375e-05
-0.000220309
0.000138083
-0.000366361
0.000217227
-0.000533219
0.000312418
-0.000713852
0.000421228
-0.000901326
0.000540514
-0.00108903
0.000666672
-0.00127101
0.000795959
-0.00144226
0.000924799
-0.00159897
0.00105006
-0.00173863
0.00116921
-0.00185999
0.00128044
-0.00196293
0.00138264
-0.00204823
0.00147536
-0.0021173
0.00155867
-0.00217199
0.00163305
-0.00221432
0.00169924
-0.00224632
0.00175819
-0.00226993
0.00181086
-0.0022869
0.00185823
-0.00229876
0.00190123
-0.00230682
0.00194069
-0.00231216
-0.00231576
0.00197744
9.01025e-06
-2.83611e-05
3.68714e-05
-0.000129991
8.40391e-05
-0.000267477
0.000150222
-0.000432544
0.000234202
-0.000617198
0.000333773
-0.000813423
0.000445849
-0.0010134
0.000566705
-0.00120989
0.000692319
-0.00139663
0.000818741
-0.00156868
0.000942423
-0.00172265
0.00106046
-0.00185667
0.00117072
-0.00197025
0.00127187
-0.00206408
0.0013633
-0.00213966
0.00144503
-0.00219903
0.00151752
-0.00224449
0.00158158
-0.00227838
0.00163818
-0.00230291
0.00168835
-0.0023201
0.00173314
-0.00233169
0.0017735
-0.00233912
0.0018103
-0.00234361
0.00184429
-0.00234615
-0.00234763
0.00187616
1.0046e-05
-3.84071e-05
4.054e-05
-0.000160485
9.14688e-05
-0.000318406
0.000161985
-0.000503061
0.000250218
-0.000705432
0.000353268
-0.000916473
0.000467393
-0.00112753
0.000588353
-0.00133085
0.000711823
-0.0015201
0.000833798
-0.00169066
0.00095091
-0.00183976
0.00106061
-0.00196637
0.00116126
-0.00207089
0.00125202
-0.00215484
0.00133279
-0.00222043
0.00140399
-0.00227024
0.00146645
-0.00230694
0.00152116
-0.00233309
0.00156924
-0.00235099
0.00161177
-0.00236264
0.00164977
-0.00236969
0.00168415
-0.0023735
0.00171567
-0.00237513
0.00174499
-0.00237547
-0.00237531
0.00177267
1.10983e-05
-4.95054e-05
4.41877e-05
-0.000193574
9.8698e-05
-0.000372916
0.000173141
-0.000577504
0.000264933
-0.000797223
0.000370455
-0.001022
0.000485351
-0.00124242
0.000604964
-0.00145046
0.000724805
-0.00163994
0.000840968
-0.00180682
0.000950399
-0.00194919
0.00105102
-0.00206699
0.00114169
-0.00216157
0.00122212
-0.00223526
0.00129263
-0.00229094
0.00135401
-0.00233162
0.00140731
-0.00236024
0.00145369
-0.00237947
0.00149429
-0.0023916
0.0015302
-0.00239854
0.00156236
-0.00240185
0.0015916
-0.00240273
0.00161858
-0.00240212
0.00164386
-0.00240074
-0.00239931
0.00166785
1.21527e-05
-6.16581e-05
4.77553e-05
-0.000229177
0.000105593
-0.000430754
0.000183463
-0.000655373
0.000278018
-0.000891778
0.000384936
-0.00112891
0.000499314
-0.0013568
0.000616201
-0.00156735
0.000731096
-0.00175483
0.000840334
-0.00191606
0.000941289
-0.00205015
0.00103241
-0.0021581
0.00111308
-0.00224225
0.0011835
-0.00230568
0.00124436
-0.0023518
0.00129673
-0.00238399
0.00134181
-0.00240532
0.00138081
-0.00241847
0.00141489
-0.00242567
0.00144506
-0.00242871
0.00147217
-0.00242897
0.00149695
-0.00242751
0.00151996
-0.00242512
0.00154165
-0.00242243
-0.00242001
0.00156234
1.31932e-05
-7.48513e-05
5.11808e-05
-0.000267165
0.000112022
-0.000491595
0.000192731
-0.000736082
0.000289183
-0.00098823
0.000396384
-0.00123611
0.00050899
-0.00146941
0.000621893
-0.00168025
0.000730728
-0.00186367
0.000832199
-0.00201753
0.000924185
-0.00214214
0.00100568
-0.0022396
0.00107659
-0.00231316
0.0011375
-0.00236659
0.00118945
-0.00240375
0.00123365
-0.0024282
0.00127141
-0.00244307
0.00130393
-0.00245099
0.0013323
-0.00245405
0.00135746
-0.00245387
0.00138016
-0.00245167
0.001401
-0.00244835
0.00142046
-0.00244459
0.0014389
-0.00244086
-0.00243766
0.00145656
1.42029e-05
-8.90542e-05
5.44017e-05
-0.000307363
0.000117854
-0.000555047
0.000200746
-0.000818975
0.000298177
-0.00108566
0.000404553
-0.00134249
0.000514208
-0.00157906
0.000622025
-0.00178807
0.000723914
-0.00196556
0.000817038
-0.00211065
0.00089983
-0.00222493
0.000971817
-0.00231158
0.00103337
-0.00237471
0.00108543
-0.00241865
0.00112922
-0.00244754
0.0011661
-0.00246507
0.00119735
-0.00247433
0.00122416
-0.0024778
0.00124752
-0.00247741
0.00126826
-0.00247461
0.00128703
-0.00247044
0.00130434
-0.00246566
0.00132056
-0.00246081
0.00133599
-0.00245629
-0.00245247
0.0013508
1.51645e-05
-0.000104219
5.73563e-05
-0.000349555
0.000122968
-0.000620659
0.000207333
-0.000903339
0.000304805
-0.00118313
0.000409285
-0.00144697
0.00051492
-0.0016847
0.000616729
-0.00188988
0.000711009
-0.00205984
0.000795452
-0.0021951
0.00086905
-0.00229853
0.000931834
-0.00237437
0.000984568
-0.00242745
0.00102845
-0.00246253
0.00106486
-0.00248395
0.00109518
-0.00249539
0.00112066
-0.00249982
0.00114242
-0.00249955
0.00116133
-0.00249633
0.00117812
-0.00249139
0.00119333
-0.00248565
0.00120739
-0.00247972
0.0012206
-0.00247402
0.00123318