/*--------------------------------*- C++ -*----------------------------------*\
  =========                 |
  \\      /  F ield         | OpenFOAM: The Open Source CFD Toolbox
   \\    /   O peration     | Website:  https://openfoam.org
    \\  /    A nd           | Version:  6.0
     \\/     M anipulation  |
\*---------------------------------------------------------------------------*/
FoamFile
{
    version     2.0;
    format      ascii;
    class       volScalarField;
    location    "21.8";
    object      p;
}
// * * * * * * * * * * * * * * * * * * * * * * * * * * * * * * * * * * * * * //

dimensions      [0 2 -2 0 0 0 0];

internalField   nonuniform List<scalar> 
8000
(
-0.266356
-0.267394
-0.26807
-0.268557
-0.268962
-0.269303
-0.269595
-0.26985
-0.270079
-0.270288
-0.270482
-0.270666
-0.270845
-0.271022
-0.271203
-0.271396
-0.271603
-0.271795
-0.271958
-0.272424
-0.266471
-0.267504
-0.268175
-0.268656
-0.269056
-0.269391
-0.269675
-0.269924
-0.270145
-0.270346
-0.270532
-0.270708
-0.270877
-0.271045
-0.271217
-0.2714
-0.271599
-0.271782
-0.271936
-0.272396
-0.266712
-0.267734
-0.268395
-0.268867
-0.269255
-0.269577
-0.269848
-0.270083
-0.270289
-0.270474
-0.270644
-0.270802
-0.270954
-0.271104
-0.271258
-0.271424
-0.271605
-0.271773
-0.27191
-0.272359
-0.267077
-0.268084
-0.268731
-0.269187
-0.269557
-0.269861
-0.270112
-0.270324
-0.270508
-0.270669
-0.270814
-0.270946
-0.271071
-0.271194
-0.27132
-0.271459
-0.271614
-0.271757
-0.271869
-0.272303
-0.267566
-0.268553
-0.269181
-0.269616
-0.269963
-0.27024
-0.270463
-0.270647
-0.270799
-0.270928
-0.271038
-0.271134
-0.271222
-0.271307
-0.271394
-0.271495
-0.271615
-0.271723
-0.2718
-0.272214
-0.268177
-0.26914
-0.269744
-0.270153
-0.27047
-0.270714
-0.270902
-0.271047
-0.27116
-0.271246
-0.271311
-0.27136
-0.271399
-0.271433
-0.271469
-0.27152
-0.271592
-0.271655
-0.271686
-0.272075
-0.26891
-0.269845
-0.270421
-0.270798
-0.271078
-0.271281
-0.271425
-0.271524
-0.271587
-0.27162
-0.27163
-0.27162
-0.271597
-0.271566
-0.271537
-0.271522
-0.271531
-0.271535
-0.271508
-0.271866
-0.269766
-0.27067
-0.271212
-0.27155
-0.271786
-0.271941
-0.272033
-0.272076
-0.27208
-0.27205
-0.271992
-0.271911
-0.271811
-0.271701
-0.271589
-0.271491
-0.27142
-0.271348
-0.271247
-0.271566
-0.270745
-0.271614
-0.272117
-0.27241
-0.272595
-0.272694
-0.272726
-0.272704
-0.27264
-0.272537
-0.2724
-0.272234
-0.272043
-0.271836
-0.271622
-0.271421
-0.271249
-0.271077
-0.270884
-0.271155
-0.271853
-0.272681
-0.273138
-0.273379
-0.273505
-0.273541
-0.273504
-0.273411
-0.273269
-0.273084
-0.272858
-0.272595
-0.272299
-0.271977
-0.271641
-0.271312
-0.271011
-0.270714
-0.2704
-0.270609
-0.273094
-0.273874
-0.274279
-0.27446
-0.274519
-0.274482
-0.274371
-0.274198
-0.273973
-0.273698
-0.273375
-0.273005
-0.27259
-0.272136
-0.271656
-0.271173
-0.270712
-0.27025
-0.269778
-0.269903
-0.274474
-0.275198
-0.275542
-0.275653
-0.275637
-0.275521
-0.275328
-0.27507
-0.274756
-0.274387
-0.273961
-0.273477
-0.272933
-0.272333
-0.271687
-0.27102
-0.27036
-0.269688
-0.269003
-0.269008
-0.276002
-0.276659
-0.276931
-0.276964
-0.276862
-0.276659
-0.276376
-0.276029
-0.275623
-0.275157
-0.274626
-0.274024
-0.273346
-0.272589
-0.271759
-0.270879
-0.269979
-0.269037
-0.268062
-0.267888
-0.277687
-0.278265
-0.278452
-0.278394
-0.278196
-0.277895
-0.277515
-0.277073
-0.276572
-0.276008
-0.275374
-0.274656
-0.273843
-0.272924
-0.271897
-0.270778
-0.269593
-0.268312
-0.266944
-0.266496
-0.279539
-0.280023
-0.280111
-0.279947
-0.279639
-0.279228
-0.278742
-0.278198
-0.277598
-0.276937
-0.276201
-0.275371
-0.274428
-0.273349
-0.272119
-0.270741
-0.269231
-0.267536
-0.265642
-0.264777
-0.281572
-0.281944
-0.281916
-0.281629
-0.281193
-0.280657
-0.280052
-0.279395
-0.27869
-0.277928
-0.277092
-0.276155
-0.275088
-0.273857
-0.272427
-0.270783
-0.268918
-0.266742
-0.264176
-0.262691
-0.283801
-0.284042
-0.283877
-0.283446
-0.282862
-0.282181
-0.281439
-0.280655
-0.279833
-0.278964
-0.278024
-0.276982
-0.2758
-0.274428
-0.272814
-0.270913
-0.268692
-0.266006
-0.262648
-0.260282
-0.286245
-0.286333
-0.286008
-0.285408
-0.284651
-0.283802
-0.2829
-0.28197
-0.281015
-0.280024
-0.278974
-0.277827
-0.276537
-0.275042
-0.273267
-0.271135
-0.268576
-0.265377
-0.261107
-0.257451
-0.288928
-0.288839
-0.288327
-0.287531
-0.286573
-0.285527
-0.284441
-0.28334
-0.282232
-0.281105
-0.279936
-0.278689
-0.277312
-0.275735
-0.273867
-0.271591
-0.268763
-0.26502
-0.259515
-0.253781
-0.291883
-0.291589
-0.29086
-0.289837
-0.288648
-0.287376
-0.286077
-0.284782
-0.283499
-0.282223
-0.280936
-0.27961
-0.278206
-0.276679
-0.274965
-0.272984
-0.270603
-0.26735
-0.261991
-0.255602
-0.29515
-0.294617
-0.293639
-0.292357
-0.290905
-0.289378
-0.28784
-0.286326
-0.284851
-0.283417
-0.282015
-0.280637
-0.279279
-0.277955
-0.276716
-0.275689
-0.275123
-0.275424
-0.278093
-0.290024
-0.298776
-0.297965
-0.296702
-0.295128
-0.293382
-0.291573
-0.289772
-0.288021
-0.286341
-0.284741
-0.283224
-0.281802
-0.2805
-0.27938
-0.278555
-0.278239
-0.278784
-0.280721
-0.285198
-0.296808
-0.302815
-0.301681
-0.300095
-0.298196
-0.296129
-0.294014
-0.291932
-0.289931
-0.288036
-0.286266
-0.284634
-0.283167
-0.281913
-0.280955
-0.280434
-0.280567
-0.281669
-0.284149
-0.288583
-0.297463
-0.307326
-0.305817
-0.303867
-0.301613
-0.299198
-0.296759
-0.294383
-0.292122
-0.290008
-0.288063
-0.286309
-0.28478
-0.283533
-0.282655
-0.282275
-0.282569
-0.283759
-0.286088
-0.289803
-0.295995
-0.312371
-0.310426
-0.308072
-0.305433
-0.30265
-0.299871
-0.29719
-0.294663
-0.292322
-0.29019
-0.288291
-0.286658
-0.285344
-0.284421
-0.283987
-0.28416
-0.285063
-0.286797
-0.289449
-0.29321
-0.318008
-0.315563
-0.312763
-0.309712
-0.306541
-0.30341
-0.300416
-0.297611
-0.295027
-0.292681
-0.290592
-0.288786
-0.2873
-0.286185
-0.285501
-0.285312
-0.285666
-0.286579
-0.288074
-0.289886
-0.324291
-0.321277
-0.31799
-0.314504
-0.310929
-0.307434
-0.304113
-0.301013
-0.298154
-0.295547
-0.293198
-0.29112
-0.289334
-0.287867
-0.28675
-0.286007
-0.285647
-0.285644
-0.285998
-0.286294
-0.331264
-0.327612
-0.3238
-0.319856
-0.315863
-0.311988
-0.30832
-0.304891
-0.301707
-0.298765
-0.296057
-0.293584
-0.291353
-0.289376
-0.287664
-0.286226
-0.285052
-0.284116
-0.283407
-0.282538
-0.33896
-0.334603
-0.330231
-0.325812
-0.321384
-0.317108
-0.313058
-0.309246
-0.30566
-0.30228
-0.299089
-0.296079
-0.293251
-0.290612
-0.288173
-0.285937
-0.283899
-0.282045
-0.280363
-0.278561
-0.347396
-0.34227
-0.337309
-0.332398
-0.327516
-0.322807
-0.318322
-0.314047
-0.309952
-0.306004
-0.302183
-0.298483
-0.294909
-0.291477
-0.288205
-0.285105
-0.282184
-0.279443
-0.276869
-0.274272
-0.356568
-0.350618
-0.345046
-0.339628
-0.334265
-0.329073
-0.324073
-0.319226
-0.314485
-0.309815
-0.305205
-0.300662
-0.296208
-0.291876
-0.287697
-0.283698
-0.279896
-0.276302
-0.272903
-0.269587
-0.366448
-0.359633
-0.353433
-0.347491
-0.341606
-0.335859
-0.330237
-0.324676
-0.319127
-0.313567
-0.308007
-0.30248
-0.297036
-0.291727
-0.2866
-0.281691
-0.277025
-0.272618
-0.268447
-0.264456
-0.376983
-0.369273
-0.362436
-0.355947
-0.349484
-0.343081
-0.336695
-0.330252
-0.323715
-0.317092
-0.310433
-0.303807
-0.297292
-0.290961
-0.284872
-0.279066
-0.273567
-0.268387
-0.263492
-0.258861
-0.388084
-0.379467
-0.371988
-0.36492
-0.357798
-0.350609
-0.343289
-0.335774
-0.328063
-0.320217
-0.312332
-0.304521
-0.29689
-0.289523
-0.282484
-0.27581
-0.269518
-0.26361
-0.258038
-0.252801
-0.399628
-0.39011
-0.381985
-0.374291
-0.366404
-0.358268
-0.349821
-0.341035
-0.331974
-0.322764
-0.313562
-0.304516
-0.295754
-0.287366
-0.279408
-0.271909
-0.264873
-0.258287
-0.252084
-0.246286
-0.411453
-0.401056
-0.392283
-0.383898
-0.375111
-0.365842
-0.35606
-0.34581
-0.335243
-0.324566
-0.31399
-0.303697
-0.29382
-0.284446
-0.275619
-0.267348
-0.259622
-0.252412
-0.245628
-0.239318
-0.423355
-0.41212
-0.402692
-0.39353
-0.383683
-0.373076
-0.361753
-0.349866
-0.337673
-0.325463
-0.313498
-0.301976
-0.291028
-0.280724
-0.271086
-0.262104
-0.253748
-0.245971
-0.238659
-0.231894
-0.435092
-0.423076
-0.412977
-0.40293
-0.391843
-0.379689
-0.366634
-0.35297
-0.339073
-0.325311
-0.311979
-0.299277
-0.28732
-0.276154
-0.265775
-0.256148
-0.247226
-0.238941
-0.231159
-0.224
-0.44638
-0.433654
-0.422863
-0.411803
-0.399284
-0.385383
-0.370436
-0.354899
-0.339269
-0.323976
-0.309332
-0.295524
-0.282639
-0.27069
-0.259646
-0.249446
-0.240024
-0.231296
-0.223103
-0.215616
-0.456904
-0.443552
-0.432034
-0.41982
-0.405679
-0.389855
-0.372899
-0.355445
-0.3381
-0.321339
-0.305468
-0.290647
-0.276926
-0.264282
-0.252653
-0.241956
-0.232106
-0.223
-0.214459
-0.206713
-0.466324
-0.452435
-0.440148
-0.426632
-0.410693
-0.392809
-0.373779
-0.354418
-0.335423
-0.31729
-0.300301
-0.284576
-0.270122
-0.256878
-0.244751
-0.233636
-0.223433
-0.214018
-0.205194
-0.197261
-0.474274
-0.459946
-0.44684
-0.431878
-0.413994
-0.393963
-0.372853
-0.351647
-0.33111
-0.311731
-0.293753
-0.277246
-0.262169
-0.248425
-0.235892
-0.224443
-0.213965
-0.204313
-0.195275
-0.187226
-0.480385
-0.465716
-0.451739
-0.435202
-0.415268
-0.39306
-0.369923
-0.346986
-0.325049
-0.304575
-0.285752
-0.268594
-0.253013
-0.238875
-0.22603
-0.214337
-0.203665
-0.19385
-0.184671
-0.176581
-0.484286
-0.469375
-0.45448
-0.436265
-0.414226
-0.389873
-0.364818
-0.340307
-0.317145
-0.295745
-0.276233
-0.258563
-0.242602
-0.22818
-0.215126
-0.203279
-0.192498
-0.182599
-0.173353
-0.165298
-0.48562
-0.470565
-0.454712
-0.434754
-0.410612
-0.38421
-0.357399
-0.331507
-0.307316
-0.285175
-0.265139
-0.247104
-0.230891
-0.216302
-0.203142
-0.191238
-0.180437
-0.170535
-0.1613
-0.153357
-0.484053
-0.46895
-0.452116
-0.430392
-0.404213
-0.375913
-0.347554
-0.320504
-0.295501
-0.272814
-0.252426
-0.234175
-0.217844
-0.203207
-0.19005
-0.178189
-0.16746
-0.15764
-0.148498
-0.140746
-0.479285
-0.464228
-0.446412
-0.422951
-0.394857
-0.364864
-0.335201
-0.307242
-0.281654
-0.258622
-0.238057
-0.219746
-0.203434
-0.188872
-0.17583
-0.164116
-0.153553
-0.143903
-0.134939
-0.127457
-0.471059
-0.45614
-0.437367
-0.412248
-0.38242
-0.350984
-0.32029
-0.291683
-0.265745
-0.242574
-0.222012
-0.203796
-0.187643
-0.173282
-0.160471
-0.149009
-0.138712
-0.129323
-0.120625
-0.113491
-0.459168
-0.444477
-0.424804
-0.398158
-0.366826
-0.334233
-0.3028
-0.273817
-0.247768
-0.224663
-0.204282
-0.186319
-0.170465
-0.156433
-0.143971
-0.132871
-0.12294
-0.113907
-0.105567
-0.0988592
-0.443462
-0.429092
-0.408605
-0.380611
-0.348046
-0.314607
-0.282741
-0.253655
-0.227731
-0.204897
-0.184873
-0.167319
-0.151905
-0.138331
-0.126337
-0.11571
-0.10625
-0.0976724
-0.0897855
-0.0835855
-0.423855
-0.409897
-0.388714
-0.359592
-0.326099
-0.292143
-0.260151
-0.231233
-0.205666
-0.1833
-0.163805
-0.146813
-0.131978
-0.118988
-0.107582
-0.0975423
-0.0886612
-0.0806442
-0.0733135
-0.067709
-0.400322
-0.386869
-0.365137
-0.335145
-0.30105
-0.26691
-0.235099
-0.206611
-0.181623
-0.159914
-0.141113
-0.12483
-0.110707
-0.0984278
-0.0877277
-0.0783877
-0.0701951
-0.0628486
-0.0561863
-0.0512726
-0.372905
-0.360051
-0.337944
-0.307364
-0.273006
-0.239017
-0.207681
-0.179874
-0.155674
-0.134799
-0.116846
-0.10141
-0.0881251
-0.0766757
-0.0667958
-0.0582664
-0.0508719
-0.0443108
-0.0384357
-0.0342999
-0.34171
-0.329551
-0.307261
-0.276395
-0.242118
-0.208605
-0.178026
-0.151132
-0.127913
-0.108034
-0.0910688
-0.0766038
-0.0642727
-0.053762
-0.0448092
-0.0371972
-0.0307108
-0.0250551
-0.0200855
-0.0167828
-0.306907
-0.295537
-0.273273
-0.242431
-0.208574
-0.175848
-0.146288
-0.12052
-0.0984557
-0.079717
-0.0638619
-0.0504751
-0.0391953
-0.029717
-0.0217853
-0.0151896
-0.00972127
-0.00509502
-0.00114528
0.00127919
-0.268721
-0.258234
-0.236216
-0.205711
-0.1726
-0.140954
-0.112652
-0.0882026
-0.067445
-0.0499695
-0.0353257
-0.0231028
-0.0129501
-0.00457559
0.00226069
0.00775728
0.0121105
0.0155891
0.0183808
0.0197603
-0.227433
-0.217921
-0.196371
-0.166511
-0.134458
-0.104158
-0.0773305
-0.0543683
-0.0350479
-0.0189362
-0.00558176
0.005416
0.014391
0.021614
0.0273021
0.0316379
0.0348015
0.0370065
0.0383771
0.0382699
-0.183372
-0.174922
-0.154062
-0.125143
-0.0944366
-0.0657278
-0.0405655
-0.019235
-0.00145871
0.0132134
0.0252291
0.034974
0.0427587
0.0488215
0.0533457
0.0564927
0.058402
0.0591139
0.058525
0.0563653
-0.136907
-0.129599
-0.109646
-0.0819474
-0.0528536
-0.0259543
-0.00262565
0.016949
0.0330946
0.0462748
0.056934
0.0654448
0.0720952
0.0770895
0.0805743
0.0826791
0.0834303
0.0824752
0.0793559
0.075083
-0.0884419
-0.0823507
-0.0635074
-0.037289
-0.0100477
0.0148482
0.0361951
0.0539046
0.0683434
0.0799881
0.0892845
0.0966035
0.10223
0.106368
0.109177
0.110802
0.111147
0.10937
0.104775
0.100138
-0.0384065
-0.0335965
-0.0160529
0.00845085
0.0336275
0.0563505
0.0755856
0.091331
0.103988
0.114042
0.121942
0.128061
0.1327
0.1361
0.138504
0.140185
0.141118
0.14033
0.13756
0.141033
0.0127576
0.0162294
0.0323009
0.0548819
0.0778108
0.0982167
0.115229
0.128923
0.139726
0.148126
0.154566
0.159413
0.162968
0.165483
0.167217
0.168431
0.169114
0.168797
0.168369
0.173986
0.0645902
0.0666784
0.0811277
0.101609
0.122139
0.140111
0.154812
0.166382
0.175269
0.181957
0.186879
0.190395
0.192798
0.194339
0.195265
0.195798
0.195919
0.195339
0.194957
0.199472
0.116628
0.1173
0.130001
0.148239
0.166252
0.181704
0.194027
0.20342
0.21034
0.215264
0.218609
0.220719
0.221875
0.222315
0.222267
0.221928
0.221294
0.220143
0.219217
0.222247
0.168409
0.167644
0.1785
0.194385
0.2098
0.222675
0.232582
0.239766
0.24469
0.247817
0.249545
0.250199
0.250042
0.249292
0.248154
0.246794
0.245195
0.243164
0.241382
0.243027
0.219478
0.217271
0.226211
0.239672
0.252441
0.262717
0.270197
0.275166
0.278085
0.279402
0.279495
0.278665
0.277157
0.275169
0.272883
0.270438
0.267803
0.264805
0.262092
0.262409
0.26939
0.26575
0.272733
0.283735
0.29385
0.301536
0.306606
0.309378
0.31031
0.309828
0.308289
0.305975
0.303105
0.299862
0.296404
0.292847
0.289151
0.285168
0.281521
0.280582
0.317715
0.312665
0.317682
0.326226
0.333713
0.338851
0.341557
0.342178
0.341162
0.338917
0.335775
0.331997
0.327784
0.323298
0.31868
0.314025
0.309286
0.304344
0.299786
0.297654
0.364043
0.357619
0.36069
0.366815
0.371736
0.374397
0.374814
0.373353
0.370453
0.366499
0.361804
0.356606
0.351089
0.345397
0.339652
0.333934
0.328195
0.322339
0.316908
0.313644
0.407981
0.400238
0.40141
0.405188
0.407637
0.407924
0.406152
0.402702
0.398001
0.392417
0.386237
0.379683
0.372919
0.366075
0.359255
0.352526
0.345843
0.339128
0.33287
0.328538
0.449163
0.440168
0.439518
0.441054
0.441155
0.439198
0.435359
0.430035
0.423638
0.416517
0.408939
0.401107
0.39317
0.385241
0.377413
0.369738
0.362175
0.354664
0.347632
0.342297
0.487247
0.477081
0.474711
0.474141
0.472049
0.468
0.462241
0.455176
0.447205
0.438657
0.429783
0.420765
0.41174
0.402808
0.394046
0.385499
0.377129
0.368888
0.361139
0.354875
0.521921
0.510678
0.506715
0.504202
0.500094
0.494131
0.486616
0.477961
0.468553
0.458704
0.448645
0.438547
0.428531
0.418684
0.409073
0.399734
0.390635
0.381736
0.373332
0.366217
0.552901
0.540687
0.53528
0.531011
0.52509
0.517408
0.50832
0.498241
0.487547
0.476533
0.465415
0.454351
0.443448
0.432785
0.422417
0.412373
0.402626
0.393142
0.384152
0.376272
0.579934
0.566867
0.560185
0.554369
0.546857
0.53767
0.527206
0.515882
0.504064
0.492032
0.47999
0.468082
0.456406
0.445031
0.434003
0.423346
0.413036
0.403046
0.393541
0.384991
0.602802
0.589008
0.581237
0.574103
0.565238
0.554775
0.543145
0.530767
0.517997
0.505104
0.49228
0.479658
0.467329
0.455351
0.443766
0.432591
0.421808
0.41139
0.401449
0.392327
0.62132
0.606934
0.598274
0.590067
0.580103
0.568604
0.556029
0.542797
0.529256
0.515665
0.502207
0.489007
0.476148
0.463684
0.451648
0.440054
0.428889
0.418126
0.40783
0.398244
0.635339
0.620504
0.611166
0.602143
0.591345
0.579061
0.565769
0.55189
0.537765
0.523646
0.509708
0.496071
0.482811
0.469979
0.457601
0.44569
0.434237
0.423214
0.412648
0.402708
0.644746
0.629608
0.619814
0.610242
0.598883
0.586071
0.572298
0.557985
0.543468
0.528994
0.514735
0.500804
0.487276
0.474196
0.461589
0.449467
0.43782
0.426622
0.415874
0.405697
0.649466
0.634175
0.624152
0.614304
0.602664
0.589587
0.575572
0.56104
0.546327
0.531676
0.517255
0.503176
0.489513
0.476309
0.463588
0.451359
0.439615
0.428329
0.417491
0.407194
0.64946
0.63417
0.624147
0.614299
0.602659
0.589582
0.575568
0.561036
0.546323
0.531672
0.517251
0.503173
0.48951
0.476306
0.463585
0.451356
0.439612
0.428326
0.417488
0.407191
0.644729
0.629591
0.619798
0.610227
0.598869
0.586058
0.572285
0.557972
0.543456
0.528983
0.514724
0.500793
0.487266
0.474186
0.46158
0.449457
0.437811
0.426613
0.415865
0.405688
0.635311
0.620476
0.611139
0.602118
0.591321
0.579038
0.565747
0.551869
0.537745
0.523627
0.50969
0.496053
0.482794
0.469962
0.457585
0.445675
0.434222
0.423199
0.412633
0.402694
0.621281
0.606896
0.598237
0.590032
0.58007
0.568573
0.555999
0.542768
0.529228
0.515639
0.502182
0.488983
0.476125
0.463661
0.451625
0.440032
0.428867
0.418105
0.40781
0.398224
0.602751
0.588958
0.581189
0.574058
0.565195
0.554735
0.543106
0.53073
0.517962
0.505071
0.492248
0.479627
0.467298
0.455322
0.443737
0.432563
0.42178
0.411363
0.401423
0.392302
0.579872
0.566806
0.560127
0.554313
0.546804
0.53762
0.527159
0.515837
0.504021
0.491991
0.479951
0.468044
0.456369
0.444995
0.433968
0.423311
0.413003
0.403013
0.393509
0.38496
0.552828
0.540615
0.535212
0.530945
0.525028
0.517349
0.508264
0.498188
0.487496
0.476484
0.465368
0.454305
0.443404
0.432742
0.422376
0.412332
0.402586
0.393104
0.384114
0.376236
0.521837
0.510595
0.506636
0.504126
0.500023
0.494063
0.486552
0.4779
0.468494
0.458647
0.448591
0.438495
0.42848
0.418635
0.409026
0.399688
0.39059
0.381692
0.373289
0.366175
0.487152
0.476988
0.474621
0.474056
0.471968
0.467924
0.462168
0.455106
0.447139
0.438593
0.429721
0.420706
0.411683
0.402752
0.393992
0.385446
0.377078
0.368838
0.36109
0.354827
0.449056
0.440063
0.439417
0.440959
0.441065
0.439112
0.435278
0.429957
0.423564
0.416446
0.408871
0.401041
0.393106
0.385179
0.377353
0.369679
0.362118
0.354608
0.347577
0.342244
0.407863
0.400123
0.401299
0.405083
0.407537
0.40783
0.406062
0.402616
0.397919
0.392338
0.386161
0.37961
0.372848
0.366006
0.359189
0.352462
0.345779
0.339066
0.33281
0.328479
0.363914
0.357493
0.360568
0.3667
0.371627
0.374294
0.374716
0.37326
0.370363
0.366413
0.361721
0.356526
0.351012
0.345322
0.339579
0.333863
0.328126
0.322271
0.316841
0.31358
0.317576
0.312528
0.31755
0.326101
0.333595
0.338739
0.341451
0.342077
0.341065
0.338823
0.335685
0.33191
0.3277
0.323217
0.318601
0.313948
0.309211
0.304271
0.299714
0.297584
0.26924
0.265602
0.272591
0.2836
0.293722
0.301415
0.306491
0.309268
0.310205
0.309728
0.308192
0.305881
0.303014
0.299774
0.296318
0.292764
0.28907
0.285089
0.281443
0.280507
0.219318
0.217114
0.226059
0.239528
0.252305
0.262588
0.270073
0.275048
0.277972
0.279294
0.27939
0.278565
0.277059
0.275074
0.272791
0.270348
0.267716
0.26472
0.262009
0.262328
0.168238
0.167477
0.178338
0.194232
0.209654
0.222537
0.232451
0.239641
0.24457
0.247701
0.249434
0.250092
0.249938
0.249191
0.248056
0.246698
0.245102
0.243073
0.241294
0.242941
0.116447
0.117122
0.12983
0.148076
0.166097
0.181557
0.193887
0.203287
0.210212
0.215141
0.218491
0.220605
0.221764
0.222207
0.222163
0.221826
0.221195
0.220046
0.219123
0.222156
0.0643991
0.0664903
0.0809464
0.101436
0.121975
0.139956
0.154664
0.166241
0.175133
0.181827
0.186754
0.190273
0.19268
0.194224
0.195154
0.19569
0.195814
0.195236
0.194856
0.199375
0.0125567
0.0160316
0.0321101
0.0547002
0.0776384
0.098053
0.115073
0.128774
0.139583
0.147989
0.154433
0.159285
0.162844
0.165362
0.167099
0.168316
0.169002
0.168688
0.168262
0.173883
-0.0386169
-0.0338038
-0.016253
0.00826012
0.0334465
0.0561785
0.0754218
0.0911744
0.103838
0.113898
0.121802
0.127926
0.132569
0.135973
0.13838
0.140063
0.140999
0.140214
0.137446
0.140922
-0.0886616
-0.0825672
-0.0637166
-0.0374885
-0.0102372
0.0146681
0.0360234
0.0537405
0.0681858
0.0798363
0.0891379
0.0964614
0.102093
0.106234
0.109046
0.110674
0.111022
0.109247
0.104653
0.100017
-0.137136
-0.129825
-0.109864
-0.0821554
-0.0530513
-0.0261423
-0.00280488
0.0167775
0.0329298
0.046116
0.0567806
0.0652961
0.0719507
0.0769488
0.0804367
0.0825444
0.0832982
0.0823451
0.0792272
0.0749548
-0.183609
-0.175155
-0.154288
-0.125359
-0.0946422
-0.0659235
-0.0407522
-0.0194137
-0.00163037
0.0130479
0.0250691
0.0348188
0.0426078
0.0486744
0.053202
0.0563519
0.0582638
0.058978
0.0583909
0.0562321
-0.227678
-0.218163
-0.196606
-0.166735
-0.134671
-0.104361
-0.0775243
-0.0545539
-0.0352263
-0.0191082
-0.00574815
0.0052546
0.0142341
0.021461
0.0271526
0.0314915
0.0346579
0.0368654
0.0382381
0.0381324
-0.268973
-0.258484
-0.236458
-0.205943
-0.172821
-0.141164
-0.112852
-0.088395
-0.0676299
-0.0501478
-0.0354982
-0.0232702
-0.0131129
-0.00473431
0.00210562
0.00760548
0.0119617
0.0154429
0.018237
0.0196183
-0.307166
-0.295793
-0.273523
-0.24267
-0.208801
-0.176065
-0.146495
-0.120719
-0.0986469
-0.0799014
-0.0640404
-0.0506482
-0.0393638
-0.0298812
-0.0219458
-0.0153466
-0.00987518
-0.00524606
-0.00129372
0.00113271
-0.341977
-0.329814
-0.307517
-0.27664
-0.242352
-0.208829
-0.17824
-0.151336
-0.12811
-0.108224
-0.091253
-0.0767825
-0.0644465
-0.0539315
-0.0449748
-0.0373592
-0.0308696
-0.0252109
-0.0202385
-0.0169337
-0.373177
-0.36032
-0.338206
-0.307616
-0.273247
-0.239247
-0.207901
-0.180084
-0.155877
-0.134995
-0.117036
-0.101594
-0.0883042
-0.0768503
-0.0669663
-0.0584333
-0.0510354
-0.0444711
-0.0385932
-0.0344551
-0.400599
-0.387143
-0.365405
-0.335403
-0.301297
-0.267146
-0.235324
-0.206827
-0.181831
-0.160115
-0.141308
-0.125019
-0.110891
-0.0986073
-0.087903
-0.0785592
-0.0703631
-0.0630135
-0.0563481
-0.051432
-0.424137
-0.410176
-0.388986
-0.359855
-0.326351
-0.292383
-0.260382
-0.231454
-0.20588
-0.183506
-0.164005
-0.147008
-0.132167
-0.119173
-0.107762
-0.0977184
-0.0888338
-0.0808134
-0.0734796
-0.0678726
-0.443748
-0.429375
-0.408881
-0.380878
-0.348303
-0.314853
-0.282976
-0.253881
-0.22795
-0.205108
-0.185077
-0.167518
-0.152099
-0.138519
-0.126521
-0.11589
-0.106427
-0.0978459
-0.0899558
-0.0837532
-0.459456
-0.444763
-0.425084
-0.398429
-0.367086
-0.334483
-0.30304
-0.274048
-0.247991
-0.224879
-0.204491
-0.186523
-0.170663
-0.156626
-0.14416
-0.133056
-0.123121
-0.114085
-0.105741
-0.0990311
-0.47135
-0.456428
-0.43765
-0.412522
-0.382684
-0.351238
-0.320534
-0.291918
-0.265972
-0.242794
-0.222225
-0.204004
-0.187845
-0.173479
-0.160664
-0.149198
-0.138897
-0.129505
-0.120804
-0.113667
-0.479578
-0.464518
-0.446697
-0.423228
-0.395124
-0.365121
-0.335449
-0.307481
-0.281884
-0.258845
-0.238274
-0.219957
-0.20364
-0.189073
-0.176027
-0.164309
-0.153743
-0.144089
-0.135122
-0.127637
-0.484346
-0.469241
-0.452402
-0.430671
-0.404483
-0.376173
-0.347805
-0.320747
-0.295736
-0.273041
-0.252646
-0.23439
-0.218054
-0.203412
-0.190251
-0.178386
-0.167653
-0.15783
-0.148685
-0.14093
-0.485913
-0.470856
-0.454999
-0.435034
-0.410884
-0.384472
-0.357653
-0.331752
-0.307554
-0.285406
-0.265364
-0.247322
-0.231104
-0.216511
-0.203347
-0.191439
-0.180634
-0.170729
-0.161491
-0.153546
-0.484578
-0.469665
-0.454766
-0.436545
-0.414498
-0.390138
-0.365074
-0.340554
-0.317385
-0.295978
-0.27646
-0.258785
-0.242819
-0.228393
-0.215334
-0.203484
-0.192699
-0.182797
-0.173548
-0.16549
-0.480675
-0.466004
-0.452024
-0.435482
-0.415541
-0.393325
-0.37018
-0.347235
-0.325292
-0.304811
-0.285983
-0.268819
-0.253233
-0.239091
-0.226242
-0.214545
-0.20387
-0.194052
-0.18487
-0.176777
-0.474563
-0.460232
-0.447123
-0.432156
-0.414267
-0.394229
-0.373111
-0.351899
-0.331355
-0.311969
-0.293986
-0.277474
-0.262393
-0.248644
-0.236107
-0.224655
-0.214174
-0.204519
-0.195478
-0.187427
-0.46661
-0.452719
-0.440429
-0.426909
-0.410965
-0.393075
-0.374038
-0.35467
-0.33567
-0.31753
-0.300536
-0.284807
-0.270348
-0.2571
-0.244969
-0.233851
-0.223646
-0.214228
-0.205401
-0.197465
-0.457187
-0.443833
-0.432312
-0.420095
-0.405949
-0.39012
-0.373158
-0.355698
-0.338348
-0.321581
-0.305705
-0.29088
-0.277154
-0.264507
-0.252875
-0.242175
-0.232322
-0.223214
-0.21467
-0.206922
-0.446659
-0.433931
-0.423137
-0.412075
-0.399552
-0.385647
-0.370694
-0.355152
-0.339517
-0.32422
-0.309571
-0.295759
-0.28287
-0.270918
-0.25987
-0.249668
-0.240244
-0.231513
-0.223318
-0.215829
-0.435367
-0.423349
-0.413248
-0.403198
-0.392108
-0.379951
-0.366891
-0.353222
-0.339321
-0.325555
-0.312219
-0.299513
-0.287553
-0.276385
-0.266003
-0.256374
-0.247449
-0.239162
-0.231379
-0.224218
-0.423627
-0.412389
-0.402958
-0.393794
-0.383945
-0.373335
-0.362008
-0.350118
-0.337921
-0.325708
-0.313739
-0.302214
-0.291263
-0.280957
-0.271317
-0.262333
-0.253974
-0.246195
-0.238883
-0.232116
-0.41172
-0.40132
-0.392545
-0.384159
-0.37537
-0.366098
-0.356313
-0.346061
-0.335491
-0.324811
-0.314232
-0.303936
-0.294057
-0.284681
-0.275852
-0.26758
-0.259852
-0.252641
-0.245856
-0.239544
-0.399891
-0.39037
-0.382243
-0.374548
-0.366659
-0.358521
-0.350072
-0.341284
-0.33222
-0.323008
-0.313804
-0.304756
-0.295992
-0.287602
-0.279644
-0.272144
-0.265106
-0.25852
-0.252316
-0.246517
-0.388342
-0.379723
-0.372242
-0.365172
-0.358049
-0.350858
-0.343537
-0.33602
-0.328308
-0.32046
-0.312574
-0.304762
-0.297129
-0.289762
-0.282722
-0.276047
-0.269755
-0.263847
-0.258274
-0.253037
-0.377236
-0.369525
-0.362686
-0.356196
-0.349731
-0.343327
-0.336939
-0.330495
-0.323957
-0.317334
-0.310674
-0.304047
-0.297532
-0.291201
-0.285113
-0.279307
-0.273808
-0.268627
-0.263733
-0.259102
-0.366697
-0.359881
-0.353679
-0.347736
-0.341849
-0.336101
-0.330477
-0.324916
-0.319366
-0.313806
-0.308246
-0.30272
-0.297277
-0.291968
-0.286842
-0.281934
-0.277269
-0.272862
-0.268692
-0.264702
-0.356813
-0.350862
-0.345288
-0.339869
-0.334504
-0.329311
-0.32431
-0.319463
-0.314721
-0.310053
-0.305443
-0.300901
-0.296449
-0.292118
-0.287941
-0.283944
-0.280143
-0.276551
-0.273153
-0.269839
-0.347637
-0.34251
-0.337547
-0.332635
-0.327751
-0.323041
-0.318555
-0.31428
-0.310185
-0.306238
-0.302419
-0.29872
-0.295149
-0.29172
-0.28845
-0.285353
-0.282435
-0.279695
-0.277124
-0.274529
-0.339198
-0.33484
-0.330466
-0.326045
-0.321616
-0.317339
-0.313288
-0.309476
-0.30589
-0.302511
-0.299323
-0.296315
-0.29349
-0.290855
-0.288419
-0.286187
-0.284153
-0.282302
-0.280623
-0.278824
-0.331499
-0.327846
-0.324032
-0.320087
-0.316092
-0.312215
-0.308546
-0.305117
-0.301934
-0.298993
-0.296288
-0.293819
-0.291592
-0.289619
-0.287912
-0.286478
-0.285309
-0.284377
-0.283672
-0.282806
-0.324523
-0.321509
-0.31822
-0.314731
-0.311155
-0.307657
-0.304335
-0.301235
-0.298378
-0.295772
-0.293427
-0.291353
-0.289572
-0.28811
-0.286999
-0.286263
-0.285907
-0.28591
-0.286268
-0.286567
-0.318239
-0.315793
-0.312991
-0.309938
-0.306765
-0.303631
-0.300636
-0.297831
-0.295248
-0.292904
-0.290819
-0.289018
-0.287538
-0.286429
-0.285752
-0.28557
-0.285931
-0.28685
-0.288349
-0.290166
-0.312602
-0.310656
-0.308299
-0.305658
-0.302872
-0.30009
-0.297408
-0.29488
-0.29254
-0.290411
-0.288516
-0.286889
-0.285581
-0.284666
-0.284241
-0.284421
-0.285332
-0.287073
-0.289731
-0.293496
-0.307557
-0.306046
-0.304094
-0.301837
-0.299419
-0.296977
-0.2946
-0.292339
-0.290226
-0.288284
-0.286534
-0.285012
-0.283772
-0.282902
-0.282531
-0.282834
-0.284034
-0.286371
-0.290093
-0.296288
-0.303047
-0.301911
-0.300322
-0.29842
-0.296349
-0.294232
-0.292149
-0.290147
-0.288254
-0.286487
-0.28486
-0.2834
-0.282154
-0.281206
-0.280695
-0.280838
-0.28195
-0.28444
-0.288881
-0.297765
-0.29901
-0.298196
-0.29693
-0.295353
-0.293604
-0.291792
-0.28999
-0.288239
-0.286561
-0.284964
-0.283453
-0.282038
-0.280745
-0.279634
-0.278821
-0.278517
-0.279073
-0.281021
-0.285506
-0.29712
-0.295387
-0.29485
-0.293868
-0.292583
-0.291128
-0.289599
-0.288059
-0.286546
-0.285074
-0.283643
-0.282248
-0.280877
-0.279528
-0.278215
-0.276988
-0.275974
-0.275421
-0.275734
-0.278413
-0.290348
-0.292123
-0.291823
-0.291091
-0.290065
-0.288873
-0.287599
-0.2863
-0.285005
-0.283725
-0.282454
-0.281173
-0.279855
-0.278461
-0.276945
-0.275244
-0.273278
-0.270911
-0.267673
-0.262327
-0.255951
-0.28917
-0.289075
-0.288559
-0.28776
-0.2868
-0.285752
-0.284666
-0.283567
-0.282461
-0.28134
-0.280178
-0.27894
-0.277573
-0.276009
-0.274154
-0.271892
-0.26908
-0.265353
-0.259861
-0.254142
-0.286488
-0.28657
-0.28624
-0.285637
-0.284879
-0.284028
-0.283127
-0.282199
-0.281248
-0.280264
-0.279221
-0.278084
-0.276805
-0.275322
-0.273561
-0.271444
-0.2689
-0.265718
-0.261463
-0.257824
-0.284045
-0.284278
-0.284109
-0.283675
-0.28309
-0.282408
-0.281667
-0.280887
-0.28007
-0.279207
-0.278275
-0.277244
-0.276073
-0.274714
-0.273114
-0.271229
-0.269024
-0.266356
-0.263013
-0.260668
-0.281815
-0.282179
-0.282147
-0.281857
-0.28142
-0.280884
-0.280281
-0.279628
-0.278929
-0.278174
-0.277346
-0.27642
-0.275365
-0.274147
-0.272732
-0.271104
-0.269256
-0.267098
-0.264549
-0.263088
-0.279779
-0.280255
-0.280339
-0.280172
-0.279864
-0.279453
-0.27897
-0.27843
-0.277836
-0.277183
-0.276456
-0.275638
-0.274707
-0.273641
-0.272427
-0.271065
-0.269573
-0.267897
-0.266021
-0.265181
-0.277921
-0.278492
-0.278675
-0.278615
-0.278416
-0.278116
-0.27774
-0.277302
-0.276808
-0.276253
-0.275628
-0.274921
-0.274121
-0.273216
-0.272205
-0.271102
-0.269936
-0.268674
-0.267324
-0.266902
-0.276229
-0.276879
-0.277147
-0.277178
-0.277077
-0.276875
-0.276595
-0.276253
-0.275854
-0.275396
-0.274876
-0.274285
-0.27362
-0.272877
-0.272063
-0.2712
-0.270318
-0.269396
-0.268439
-0.268291
-0.274692
-0.275409
-0.275749
-0.27586
-0.275844
-0.27573
-0.275539
-0.275287
-0.27498
-0.27462
-0.274204
-0.273731
-0.2732
-0.272614
-0.271984
-0.271334
-0.270692
-0.27004
-0.269373
-0.269403
-0.2733
-0.274074
-0.274476
-0.274655
-0.274715
-0.274681
-0.274573
-0.274406
-0.274187
-0.273921
-0.273608
-0.273248
-0.272846
-0.272407
-0.271942
-0.271475
-0.271032
-0.270589
-0.270136
-0.270285
-0.272046
-0.272868
-0.273323
-0.273563
-0.27369
-0.273727
-0.273694
-0.273606
-0.273471
-0.273294
-0.273078
-0.272825
-0.272541
-0.272233
-0.271912
-0.271599
-0.271316
-0.271036
-0.27074
-0.270973
-0.270923
-0.271787
-0.272287
-0.27258
-0.272765
-0.272867
-0.272902