/*--------------------------------*- C++ -*----------------------------------*\
  =========                 |
  \\      /  F ield         | OpenFOAM: The Open Source CFD Toolbox
   \\    /   O peration     | Website:  https://openfoam.org
    \\  /    A nd           | Version:  6.0
     \\/     M anipulation  |
\*---------------------------------------------------------------------------*/
FoamFile
{
    version     2.0;
    format      ascii;
    class       volScalarField;
    location    "60";
    object      p;
}
// * * * * * * * * * * * * * * * * * * * * * * * * * * * * * * * * * * * * * //

dimensions      [0 2 -2 0 0 0 0];

internalField   nonuniform List<scalar> 
4000
(
-0.279181
-0.280007
-0.280552
-0.280946
-0.28127
-0.281536
-0.281756
-0.281943
-0.282106
-0.282249
-0.282381
-0.282506
-0.28263
-0.282758
-0.282895
-0.283051
-0.28323
-0.283391
-0.283509
-0.284027
-0.279328
-0.280108
-0.280622
-0.280991
-0.28129
-0.281533
-0.281731
-0.281897
-0.282039
-0.282164
-0.28228
-0.282391
-0.282504
-0.282625
-0.28276
-0.282919
-0.283106
-0.283283
-0.283424
-0.283968
-0.279552
-0.280289
-0.280771
-0.281112
-0.281383
-0.281597
-0.281766
-0.281902
-0.282016
-0.282113
-0.282202
-0.282289
-0.282381
-0.282484
-0.282605
-0.282756
-0.282942
-0.283126
-0.28328
-0.283844
-0.279845
-0.280544
-0.280996
-0.281306
-0.281544
-0.281723
-0.281855
-0.281954
-0.282029
-0.282089
-0.282141
-0.282192
-0.28225
-0.282323
-0.282418
-0.282548
-0.28272
-0.282899
-0.283054
-0.28363
-0.280204
-0.280872
-0.281294
-0.281571
-0.281771
-0.281909
-0.281997
-0.282049
-0.282076
-0.282086
-0.282089
-0.282091
-0.282102
-0.282129
-0.282183
-0.282277
-0.282422
-0.282581
-0.282724
-0.283305
-0.28063
-0.281273
-0.281665
-0.281906
-0.282064
-0.282153
-0.282189
-0.282185
-0.282153
-0.282102
-0.282042
-0.281981
-0.281929
-0.281894
-0.28189
-0.281931
-0.28203
-0.282154
-0.282269
-0.282843
-0.281125
-0.281748
-0.282111
-0.282314
-0.282424
-0.282458
-0.282433
-0.282364
-0.282262
-0.282138
-0.282001
-0.281861
-0.281728
-0.281613
-0.28153
-0.281497
-0.281531
-0.281598
-0.281666
-0.282224
-0.281695
-0.282304
-0.282638
-0.282798
-0.282855
-0.282828
-0.282735
-0.28259
-0.282408
-0.282198
-0.28197
-0.281735
-0.281503
-0.281287
-0.281102
-0.28097
-0.280913
-0.2809
-0.280899
-0.281427
-0.282352
-0.282948
-0.283252
-0.283366
-0.283365
-0.28327
-0.2831
-0.282873
-0.2826
-0.282293
-0.281961
-0.281614
-0.281264
-0.280923
-0.280611
-0.280352
-0.280172
-0.280048
-0.279949
-0.280432
-0.283107
-0.283693
-0.283963
-0.284026
-0.283961
-0.283792
-0.28354
-0.283222
-0.282852
-0.282438
-0.281991
-0.281517
-0.28103
-0.280541
-0.280073
-0.279653
-0.279315
-0.279039
-0.278804
-0.279219
-0.283979
-0.284551
-0.284782
-0.284789
-0.284654
-0.284405
-0.284065
-0.283652
-0.283179
-0.282653
-0.282081
-0.28147
-0.280829
-0.28017
-0.279516
-0.278899
-0.278357
-0.277877
-0.277452
-0.277766
-0.284985
-0.285537
-0.285723
-0.285666
-0.285455
-0.285121
-0.284689
-0.284178
-0.283598
-0.282957
-0.282257
-0.281501
-0.280695
-0.279848
-0.278979
-0.278123
-0.277325
-0.276575
-0.275884
-0.276043
-0.286146
-0.286668
-0.286799
-0.286669
-0.286374
-0.28595
-0.285422
-0.284811
-0.284126
-0.283371
-0.282544
-0.281643
-0.280666
-0.279617
-0.278509
-0.277375
-0.27626
-0.275159
-0.274094
-0.274012
-0.287483
-0.28796
-0.288024
-0.287811
-0.287423
-0.2869
-0.286273
-0.285561
-0.284772
-0.283907
-0.282959
-0.281918
-0.280773
-0.279518
-0.278153
-0.276703
-0.275211
-0.273661
-0.27208
-0.271622
-0.289016
-0.289431
-0.289412
-0.289102
-0.288609
-0.28798
-0.287247
-0.286431
-0.28554
-0.28457
-0.283508
-0.282336
-0.281032
-0.279573
-0.277945
-0.276153
-0.274226
-0.272123
-0.269846
-0.268813
-0.290768
-0.291099
-0.290979
-0.290555
-0.289942
-0.289193
-0.288344
-0.287419
-0.286423
-0.285349
-0.28418
-0.282887
-0.281436
-0.279786
-0.277898
-0.275753
-0.27335
-0.2706
-0.26743
-0.265553
-0.292761
-0.292983
-0.29274
-0.292181
-0.291428
-0.290542
-0.289563
-0.288516
-0.287408
-0.286228
-0.284952
-0.283545
-0.281958
-0.280134
-0.278004
-0.275516
-0.27263
-0.26919
-0.26497
-0.261914
-0.295018
-0.295104
-0.294711
-0.293993
-0.293077
-0.292031
-0.290902
-0.289717
-0.288481
-0.287184
-0.285797
-0.284278
-0.282567
-0.280587
-0.278245
-0.275442
-0.272092
-0.267956
-0.262554
-0.257855
-0.297567
-0.297486
-0.296915
-0.296009
-0.294901
-0.293669
-0.292366
-0.291019
-0.289637
-0.288209
-0.286704
-0.285077
-0.283264
-0.281175
-0.278694
-0.275677
-0.271952
-0.267117
-0.260243
-0.253114
-0.30044
-0.300156
-0.299374
-0.29825
-0.29692
-0.295473
-0.293968
-0.292436
-0.290888
-0.289314
-0.28769
-0.285977
-0.284122
-0.282057
-0.279695
-0.276923
-0.273575
-0.269137
-0.262277
-0.254246
-0.303673
-0.303149
-0.30212
-0.300744
-0.29916
-0.297469
-0.295734
-0.293994
-0.29226
-0.290531
-0.28879
-0.287016
-0.285189
-0.283301
-0.281375
-0.279503
-0.27789
-0.276881
-0.277839
-0.287525
-0.307311
-0.306502
-0.305188
-0.303525
-0.301656
-0.299692
-0.297705
-0.295735
-0.293802
-0.291907
-0.290046
-0.288216
-0.286428
-0.28472
-0.283182
-0.281994
-0.281472
-0.282107
-0.284974
-0.294514
-0.311403
-0.310259
-0.30862
-0.306635
-0.304451
-0.30219
-0.29993
-0.297716
-0.295571
-0.293504
-0.291519
-0.28963
-0.287868
-0.286299
-0.285039
-0.284281
-0.284315
-0.285524
-0.288454
-0.295451
-0.316001
-0.314466
-0.312459
-0.310121
-0.307595
-0.305016
-0.302467
-0.299997
-0.297631
-0.295382
-0.293262
-0.291291
-0.28951
-0.287991
-0.286844
-0.286229
-0.28635
-0.287435
-0.289724
-0.294212
-0.321161
-0.319173
-0.316755
-0.314032
-0.31114
-0.308224
-0.305374
-0.302637
-0.300037
-0.297589
-0.295303
-0.293202
-0.291323
-0.289727
-0.2885
-0.287748
-0.287588
-0.288117
-0.289427
-0.291677
-0.326934
-0.324427
-0.321555
-0.318418
-0.31514
-0.311873
-0.308707
-0.305687
-0.302831
-0.300149
-0.297647
-0.295339
-0.293253
-0.291432
-0.289929
-0.288807
-0.288114
-0.287874
-0.288119
-0.288605
-0.333368
-0.330275
-0.326907
-0.32333
-0.319646
-0.316011
-0.312513
-0.309184
-0.306036
-0.303065
-0.300268
-0.29765
-0.295226
-0.29302
-0.291064
-0.289387
-0.288006
-0.286909
-0.286108
-0.285236
-0.340505
-0.336754
-0.332852
-0.328813
-0.324705
-0.320684
-0.316826
-0.313149
-0.309648
-0.306306
-0.303111
-0.300056
-0.297147
-0.294401
-0.291837
-0.289471
-0.287309
-0.285341
-0.283568
-0.281659
-0.34837
-0.343898
-0.339426
-0.334906
-0.330355
-0.325921
-0.321662
-0.317575
-0.313635
-0.309814
-0.306089
-0.302452
-0.29891
-0.295479
-0.29218
-0.289031
-0.286043
-0.283217
-0.280554
-0.27781
-0.356978
-0.351723
-0.346654
-0.341633
-0.336617
-0.331732
-0.327011
-0.322426
-0.317932
-0.313494
-0.309091
-0.304721
-0.300401
-0.296159
-0.292028
-0.288036
-0.284205
-0.28055
-0.277068
-0.273607
-0.366322
-0.360232
-0.354543
-0.349006
-0.343492
-0.3381
-0.33283
-0.327628
-0.322438
-0.317225
-0.311983
-0.30673
-0.301504
-0.296354
-0.291325
-0.28646
-0.28179
-0.277336
-0.273093
-0.268975
-0.376372
-0.369406
-0.363082
-0.357009
-0.350954
-0.344974
-0.339038
-0.33307
-0.327016
-0.320858
-0.314619
-0.30835
-0.302116
-0.295988
-0.290027
-0.284283
-0.278791
-0.273573
-0.268616
-0.263875
-0.387069
-0.379201
-0.372232
-0.365599
-0.358938
-0.352264
-0.345513
-0.338604
-0.331502
-0.324229
-0.31685
-0.309455
-0.302142
-0.294999
-0.288098
-0.281489
-0.275205
-0.269262
-0.263631
-0.258296
-0.398321
-0.389541
-0.381923
-0.374692
-0.367341
-0.359832
-0.352089
-0.344046
-0.335712
-0.327166
-0.318529
-0.309933
-0.301502
-0.293337
-0.285511
-0.278068
-0.271031
-0.264403
-0.25814
-0.252242
-0.410001
-0.400316
-0.392044
-0.384165
-0.376009
-0.3675
-0.358566
-0.349188
-0.339448
-0.329498
-0.319518
-0.309679
-0.300124
-0.290957
-0.28224
-0.274007
-0.266263
-0.258998
-0.252144
-0.245723
-0.42194
-0.411376
-0.402446
-0.393848
-0.384747
-0.375043
-0.364708
-0.353805
-0.34251
-0.33106
-0.319691
-0.308604
-0.297948
-0.287818
-0.27826
-0.269288
-0.26089
-0.253037
-0.24564
-0.238742
-0.433929
-0.422528
-0.412931
-0.403524
-0.39331
-0.382204
-0.370262
-0.357665
-0.344703
-0.331697
-0.318933
-0.306624
-0.294914
-0.283878
-0.273539
-0.263888
-0.254893
-0.246507
-0.238616
-0.231295
-0.44572
-0.433541
-0.423259
-0.412929
-0.401417
-0.388698
-0.374963
-0.360539
-0.345842
-0.331269
-0.317138
-0.303663
-0.290965
-0.279092
-0.268041
-0.257776
-0.248246
-0.239384
-0.231052
-0.223369
-0.457026
-0.44414
-0.433147
-0.421761
-0.408758
-0.394228
-0.378543
-0.362207
-0.345754
-0.329646
-0.31421
-0.299646
-0.286042
-0.273413
-0.261724
-0.250914
-0.240915
-0.231638
-0.222923
-0.21494
-0.467525
-0.454016
-0.442276
-0.42969
-0.415003
-0.398489
-0.380747
-0.362463
-0.344283
-0.326708
-0.310059
-0.294502
-0.280086
-0.266788
-0.254542
-0.243262
-0.232862
-0.223234
-0.214197
-0.205982
-0.471727
-0.458251
-0.446479
-0.433788
-0.418937
-0.402219
-0.384253
-0.365739
-0.34733
-0.32953
-0.312661
-0.296887
-0.282258
-0.268749
-0.256294
-0.244806
-0.2342
-0.224365
-0.215123
-0.206707
-0.461602
-0.448744
-0.437725
-0.426244
-0.413084
-0.398351
-0.382437
-0.36586
-0.349164
-0.332813
-0.317139
-0.302339
-0.288502
-0.275643
-0.263725
-0.252687
-0.24246
-0.232957
-0.224015
-0.215811
-0.450649
-0.438491
-0.428188
-0.417775
-0.406118
-0.393205
-0.379242
-0.364573
-0.349623
-0.334795
-0.320409
-0.306681
-0.293732
-0.28161
-0.27031
-0.259796
-0.250018
-0.240908
-0.232328
-0.2244
-0.439186
-0.4278
-0.418186
-0.408708
-0.398364
-0.387077
-0.374917
-0.362076
-0.348858
-0.335588
-0.322557
-0.309982
-0.298004
-0.2867
-0.276093
-0.266173
-0.256909
-0.248253
-0.240091
-0.232503
-0.427499
-0.416943
-0.408001
-0.399346
-0.390131
-0.380263
-0.369724
-0.358586
-0.347038
-0.335322
-0.32368
-0.312315
-0.301378
-0.290964
-0.281121
-0.27186
-0.263172
-0.255027
-0.247335
-0.240145
-0.415838
-0.406155
-0.397874
-0.389949
-0.381699
-0.373046
-0.363928
-0.354332
-0.344348
-0.334137
-0.323883
-0.313761
-0.303916
-0.294451
-0.285432
-0.276892
-0.268837
-0.261257
-0.254085
-0.247346
-0.404413
-0.395627
-0.388001
-0.380735
-0.373309
-0.365682
-0.357779
-0.349541
-0.340982
-0.332187
-0.323282
-0.314403
-0.305676
-0.297205
-0.289063
-0.281296
-0.273927
-0.266963
-0.260356
-0.254114
-0.393391
-0.38551
-0.378534
-0.371876
-0.365159
-0.358391
-0.35151
-0.344435
-0.337134
-0.329633
-0.322001
-0.314331
-0.306723
-0.299268
-0.292041
-0.285093
-0.278459
-0.272157
-0.266158
-0.260452
-0.382904
-0.375917
-0.369585
-0.363496
-0.357402
-0.351356
-0.345322
-0.339222
-0.333001
-0.326645
-0.320175
-0.313646
-0.307126
-0.300687
-0.294395
-0.288301
-0.282442
-0.276845
-0.271494
-0.266356
-0.373047
-0.366926
-0.361226
-0.35568
-0.350145
-0.344713
-0.339379
-0.334083
-0.328766
-0.323391
-0.317949
-0.312461
-0.306966
-0.301513
-0.296154
-0.290933
-0.285883
-0.281031
-0.276371
-0.271828
-0.363878
-0.358582
-0.353499
-0.348475
-0.343454
-0.338556
-0.333806
-0.329169
-0.324593
-0.320035
-0.315471
-0.310899
-0.306334
-0.301808
-0.297354
-0.293006
-0.288788
-0.284718
-0.280796
-0.276886
-0.355432
-0.350906
-0.346417
-0.341898
-0.337359
-0.332939
-0.328688
-0.324592
-0.320616
-0.316723
-0.312883
-0.309086
-0.305334
-0.301644
-0.298039
-0.294541
-0.291163
-0.287913
-0.284789
-0.281573
-0.347714
-0.343896
-0.339972
-0.335943
-0.331864
-0.327884
-0.32407
-0.320428
-0.316939
-0.313577
-0.310318
-0.307149
-0.304074
-0.301104
-0.298261
-0.295562
-0.293017
-0.290619
-0.288369
-0.285966
-0.340708
-0.337531
-0.33414
-0.330582
-0.326946
-0.323382
-0.319965
-0.316716
-0.31363
-0.31069
-0.307883
-0.305204
-0.302661
-0.300275
-0.298076
-0.296093
-0.294344
-0.292823
-0.291535
-0.290148
-0.334382
-0.331777
-0.328881
-0.325776
-0.322568
-0.319404
-0.316359
-0.313463
-0.310719
-0.308121
-0.305662
-0.303347
-0.301195
-0.299243
-0.297543
-0.296152
-0.29512
-0.294471
-0.294229
-0.294181
-0.328685
-0.326586
-0.324149
-0.321474
-0.31868
-0.315901
-0.313212
-0.310645
-0.308206
-0.305893
-0.303705
-0.30165
-0.29976
-0.298088
-0.296715
-0.295744
-0.295286
-0.295436
-0.296274
-0.297975
-0.323559
-0.321903
-0.319886
-0.317618
-0.31522
-0.312815
-0.310471
-0.308217
-0.306061
-0.303998
-0.302026
-0.300155
-0.298417
-0.296878
-0.295644
-0.294868
-0.294749
-0.295503
-0.297356
-0.301284
-0.318935
-0.317669
-0.316034
-0.314145
-0.312124
-0.310077
-0.308066
-0.306116
-0.304228
-0.302396
-0.30061
-0.298872
-0.297206
-0.295672
-0.294385
-0.293535
-0.293401
-0.294355
-0.296916
-0.303364
-0.314746
-0.313823
-0.312534
-0.310996
-0.309326
-0.307618
-0.305925
-0.304265
-0.302636
-0.301024
-0.299409
-0.297779
-0.296136
-0.294518
-0.293015
-0.291807
-0.291206
-0.291686
-0.294283
-0.303295
-0.310927
-0.310309
-0.30933
-0.30811
-0.306763
-0.305369
-0.303972
-0.302586
-0.301203
-0.299802
-0.298352
-0.296822
-0.295188
-0.293443
-0.291615
-0.289804
-0.288223
-0.287217
-0.288105
-0.297445
-0.30742
-0.307076
-0.306374
-0.305439
-0.304381
-0.30327
-0.302142
-0.301005
-0.29985
-0.298647
-0.297357
-0.295932
-0.294316
-0.292444
-0.290241
-0.287617
-0.28444
-0.280233
-0.273659
-0.266137
-0.304178
-0.304081
-0.303625
-0.302941
-0.302138
-0.301275
-0.300383
-0.299467
-0.298514
-0.297493
-0.296361
-0.295063
-0.293529
-0.291677
-0.2894
-0.286579
-0.28308
-0.278534
-0.271964
-0.265324
-0.301166
-0.301294
-0.301055
-0.300587
-0.300003
-0.299353
-0.298662
-0.297934
-0.297156
-0.296296
-0.295314
-0.294157
-0.292759
-0.291046
-0.288933
-0.286338
-0.283203
-0.279294
-0.274032
-0.269617
-0.298362
-0.298694
-0.298643
-0.298361
-0.297962
-0.297489
-0.296965
-0.296393
-0.29576
-0.295037
-0.294188
-0.293166
-0.291915
-0.290375
-0.288482
-0.286191
-0.283475
-0.280154
-0.275872
-0.272894
-0.295753
-0.296268
-0.29638
-0.296254
-0.296009
-0.295683
-0.295296
-0.29485
-0.294335
-0.293727
-0.292993
-0.292094
-0.290986
-0.289624
-0.287964
-0.285988
-0.283696
-0.280949
-0.277542
-0.27558
-0.293338
-0.294012
-0.294263
-0.294267
-0.29415
-0.293944
-0.293668
-0.293326
-0.292909
-0.292398
-0.291766
-0.290982
-0.290015
-0.288832
-0.287408
-0.285748
-0.283871
-0.281673
-0.279036
-0.27781
-0.291115
-0.291927
-0.292293
-0.292406
-0.292394
-0.292287
-0.292104
-0.291848
-0.291516
-0.29109
-0.290553
-0.289881
-0.289051
-0.288046
-0.286855
-0.285496
-0.283998
-0.282282
-0.280274
-0.279561
-0.289091
-0.290015
-0.290476
-0.290678
-0.290753
-0.290729
-0.290623
-0.290443
-0.290186
-0.289841
-0.289395
-0.288832
-0.28814
-0.287308
-0.286338
-0.285253
-0.284088
-0.282774
-0.281259
-0.280891
-0.287268
-0.288279
-0.288816
-0.289091
-0.289238
-0.289283
-0.289245
-0.289133
-0.288946
-0.288678
-0.288321
-0.287865
-0.287305
-0.286638
-0.28587
-0.285029
-0.284145
-0.283156
-0.282017
-0.281877
-0.285647
-0.286721
-0.287318
-0.287651
-0.287857
-0.287962
-0.287984
-0.287933
-0.287811
-0.287617
-0.287346
-0.286993
-0.286558
-0.286042
-0.285454
-0.28482
-0.284166
-0.283434
-0.282576
-0.282588
-0.284228
-0.285343
-0.285982
-0.286362
-0.286617
-0.286773
-0.286847
-0.286851
-0.286791
-0.286666
-0.286476
-0.286219
-0.285897
-0.285514
-0.285081
-0.284619
-0.284151
-0.283617
-0.28297
-0.283083
-0.283006
-0.284141
-0.284809
-0.285224
-0.285518
-0.285717
-0.285837
-0.285891
-0.285886
-0.285825
-0.285708
-0.285538
-0.285316
-0.285048
-0.284744
-0.284423
-0.284101
-0.283719
-0.283233
-0.283415
-0.281974
-0.283112
-0.283796
-0.284235
-0.28456
-0.284794
-0.284953
-0.285051
-0.285096
-0.28509
-0.285039
-0.284943
-0.284807
-0.284635
-0.284437
-0.284229
-0.284022
-0.283758
-0.283396
-0.28363
-0.281123
-0.282248
-0.282937
-0.283392
-0.28374
-0.284001
-0.284192
-0.284327
-0.284413
-0.284456
-0.284459
-0.284427
-0.284362
-0.28427
-0.284158
-0.28404
-0.283924
-0.283754
-0.28349
-0.283766
-0.28044
-0.28154
-0.282225
-0.282689
-0.283052
-0.283333
-0.283549
-0.283713
-0.283833
-0.283915
-0.283964
-0.283983
-0.283976
-0.283948
-0.283906
-0.28386
-0.283816
-0.283721
-0.283539
-0.283852
-0.279915
-0.28098
-0.281653
-0.282118
-0.282489
-0.282783
-0.283017
-0.283203
-0.283349
-0.283462
-0.283546
-0.283606
-0.283645
-0.283668
-0.283681
-0.283693
-0.283708
-0.283675
-0.283562
-0.283911
-0.279533
-0.280555
-0.28121
-0.281671
-0.282043
-0.282344
-0.282588
-0.282788
-0.282953
-0.283088
-0.283199
-0.283289
-0.283364
-0.283427
-0.283483
-0.283541
-0.283605
-0.283625
-0.283572
-0.283957
-0.279281
-0.280257
-0.280889
-0.281339
-0.281706
-0.282008
-0.282256
-0.282463
-0.282638
-0.282788
-0.282916
-0.283028
-0.283128
-0.283221
-0.283311
-0.283406
-0.28351
-0.283575
-0.283575
-0.283995
-0.279146
-0.280072
-0.280678
-0.281113
-0.281471
-0.281766
-0.282011
-0.282219
-0.282397
-0.282553
-0.282691
-0.282816
-0.282933
-0.283046
-0.28316
-0.283284
-0.28342
-0.283524
-0.28357
-0.284025
-0.279117
-0.279992
-0.280569
-0.280985
-0.281328
-0.281611
-0.281848
-0.282048
-0.282222
-0.282376
-0.282515
-0.282644
-0.282769
-0.282894
-0.283025
-0.283169
-0.28333
-0.283466
-0.283552
-0.28404
-0.30101
-0.305319
-0.314585
-0.286165
-0.256484
-0.240694
-0.210156
-0.13116
-0.0968967
-0.0889743
-0.104591
-0.0881177
-0.0520009
-0.0209916
-0.0379237
-0.0415314
-0.0401112
-0.0387136
-0.0228001
0.0160918
-0.301382
-0.312108
-0.327534
-0.290676
-0.249003
-0.226573
-0.203983
-0.130819
-0.101254
-0.0966294
-0.108355
-0.0891401
-0.0507048
-0.0187036
-0.0347764
-0.0382473
-0.0388784
-0.0382209
-0.0233695
0.0158536
-0.301782
-0.318644
-0.339832
-0.294905
-0.241146
-0.211724
-0.196846
-0.130129
-0.105374
-0.104093
-0.111924
-0.0900192
-0.0493758
-0.0164331
-0.0315774
-0.034901
-0.0375566
-0.0375952
-0.0238806
0.0155408
-0.302155
-0.324809
-0.351327
-0.298807
-0.232924
-0.196287
-0.188631
-0.129049
-0.109256
-0.111296
-0.11531
-0.0907787
-0.0480341
-0.0141903
-0.0283239
-0.0314913
-0.0361318
-0.0368283
-0.0243211
0.0151505
-0.302445
-0.330495
-0.361885
-0.30233
-0.22435
-0.180403
-0.179239
-0.127545
-0.112905
-0.118177
-0.118518
-0.0914394
-0.0466974
-0.0119852
-0.0250131
-0.028017
-0.0345889
-0.0359134
-0.0246795
0.0146799
-0.302598
-0.335607
-0.371397
-0.305425
-0.215451
-0.164205
-0.168593
-0.125593
-0.116333
-0.124686
-0.121548
-0.0920193
-0.0453816
-0.00982795
-0.0216438
-0.0244776
-0.0329129
-0.0348451
-0.0249452
0.0141268
-0.302563
-0.340064
-0.379785
-0.308053
-0.206281
-0.147818
-0.156657
-0.123181
-0.119555
-0.130787
-0.124394
-0.0925337
-0.0441008
-0.00772805
-0.0182167
-0.0208736
-0.0310892
-0.0336198
-0.0251087
0.0134894
-0.302299
-0.343808
-0.387004
-0.310189
-0.196926
-0.131368
-0.143452
-0.120306
-0.122588
-0.136457
-0.127048
-0.0929953
-0.0428675
-0.00569413
-0.0147359
-0.0172069
-0.0291049
-0.0322358
-0.0251622
0.0127664
-0.301771
-0.346799
-0.393049
-0.311835
-0.187515
-0.114982
-0.129068
-0.116976
-0.125446
-0.141685
-0.129499
-0.0934141
-0.0416926
-0.00373386
-0.0112088
-0.0134808
-0.0269496
-0.0306935
-0.0250998
0.0119572
-0.30096
-0.349024
-0.397948
-0.313018
-0.178216
-0.0987947
-0.113669
-0.113207
-0.128139
-0.14647
-0.13174
-0.0937977
-0.0405855
-0.00185384
-0.00764714
-0.00970094
-0.0246165
-0.0289959
-0.0249178
0.0110622
-0.299858
-0.350486
-0.401761
-0.31379
-0.169222
-0.0829528
-0.0974894
-0.109022
-0.130667
-0.150814
-0.13376
-0.0941517
-0.0395541
-5.95352e-05
-0.00406637
-0.005875
-0.0221029
-0.0271481
-0.0246147
0.0100825
-0.298471
-0.35121
-0.404573
-0.314228
-0.160751
-0.0676144
-0.0808257
-0.104448
-0.133026
-0.154724
-0.135555
-0.0944807
-0.0386057
0.00164444
-0.000485805
-0.00201332
-0.0194114
-0.025158
-0.0241913
0.00902011
-0.296819
-0.351233
-0.406485
-0.314437
-0.153028
-0.0529501
-0.0640115
-0.0995183
-0.135198
-0.158208
-0.137121
-0.0947903
-0.0377482
0.00325346
0.00307232
0.00187098
-0.0165499
-0.023036
-0.0236508
0.00787837
-0.294935
-0.350599
-0.407601
-0.314534
-0.146263
-0.0391357
-0.0473937
-0.0942758
-0.137164
-0.161274
-0.138456
-0.0950815
-0.0369898
0.00476171
0.00658365
0.00576239
-0.0135318
-0.0207953
-0.0229984
0.00666163
-0.292857
-0.349351
-0.407994
-0.314587
-0.140545
-0.0263245
-0.0313061
-0.0887712
-0.138901
-0.163933
-0.139552
-0.0953371
-0.0363271
0.00616502
0.0100219
0.00964353
-0.0103756
-0.0184519
-0.0222411
0.00537541
-0.290625
-0.34753
-0.407719
-0.31454
-0.135767
-0.0146212
-0.0160491
-0.0830659
-0.140388
-0.166195
-0.140395
-0.0955269
-0.0357302
0.00747163
0.0133585
0.0134922
-0.00710472
-0.0160245
-0.021388
0.00402632
-0.288306
-0.345213
-0.406953
-0.314493
-0.132004
-0.00419059
-0.00186668
-0.0772299
-0.141604
-0.168062
-0.141011
-0.0957007
-0.035185
0.00870312
0.0165659
0.0172722
-0.0037502
-0.0135346
-0.0204492
0.00262299
-0.28592
-0.342462
-0.406064
-0.315434
-0.130475
0.00445668
0.0111214
-0.0713147
-0.142486
-0.169522
-0.14155
-0.0961171
-0.0348544
0.00982737
0.0196273
0.0209413
-0.000353809
-0.0110054
-0.0194337
0.00117954
-0.282915
-0.338839
-0.404593
-0.318452
-0.132688
0.0108452
0.0229128
-0.0653445
-0.142963
-0.17062
-0.142119
-0.0969187
-0.0351163
0.010637
0.0225438
0.0245418
0.00306902
-0.00846487
-0.0183478
-0.000292428
-0.277968
-0.333437
-0.399687
-0.319234
-0.133797
0.0169991
0.0328959
-0.0600528
-0.143623
-0.171652
-0.141961
-0.0968287
-0.0356642
0.0109687
0.0253021
0.0282884
0.00663852
-0.00595603
-0.0172422
-0.00184697
-0.241231
-0.29399
-0.355218
-0.299834
-0.117159
0.0554634
0.0765011
-0.0406316
-0.152185
-0.178412
-0.135412
-0.0887111
-0.0370759
0.0113295
0.0396113
0.0507488
0.0288091
0.00826903
-0.0118766
-0.0116503
-0.203326
-0.246088
-0.273701
-0.226265
-0.0823602
0.0434809
0.0375978
-0.062512
-0.143467
-0.147269
-0.10203
-0.0617247
-0.0218677
0.0174907
0.04091
0.0546162
0.0400659
0.0180366
-0.0061858
-0.0163328
-0.17671
-0.196799
-0.198038
-0.168715
-0.0858475
-0.00217414
-0.00440336
-0.0640195
-0.105598
-0.101417
-0.0691974
-0.0405348
-0.0147658
0.0149776
0.0350549
0.0458652
0.0357423
0.0161751
-0.00220846
-0.0110268
-0.139962
-0.154084
-0.152115
-0.137331
-0.089627
-0.0293196
-0.0137162
-0.0429439
-0.0715414
-0.0735514
-0.0532894
-0.0308191
-0.0109162
0.0117315
0.0283022
0.035739
0.0299776
0.0158581
0.00358549
-0.0038088
-0.110713
-0.124344
-0.124208
-0.114042
-0.082837
-0.0361422
-0.0144359
-0.0352126
-0.0612478
-0.0607663
-0.0408016
-0.0216473
-0.00803526
0.0074285
0.0209829
0.0270006
0.0245645
0.0149162
0.00585472
-0.000160059
-0.0885589
-0.10177
-0.102092
-0.093005
-0.0706896
-0.0389489
-0.0244663
-0.0387566
-0.053144
-0.0475157
-0.0312455
-0.0174121
-0.00754934
0.00362298
0.0146282
0.0197292
0.0187116
0.0123987
0.00630925
0.00171277
-0.0716124
-0.0830777
-0.0836466
-0.0762257
-0.0623172
-0.0443485
-0.0335914
-0.0368782
-0.0426327
-0.0387849
-0.0273749
-0.0161523
-0.00778419
0.000543197
0.00942289
0.0141897
0.0142224
0.0103992
0.00588739
0.00188923
-0.0583684
-0.0680105
-0.0693098
-0.065031
-0.057425
-0.0459142
-0.035104
-0.0330281
-0.0366021
-0.0347364
-0.0254799
-0.0152536
-0.00772718
-0.00126837
0.00574143
0.00995083
0.0103658
0.00774361
0.00443651
0.0016235
-0.0481421
-0.0563773
-0.0587557
-0.0569755
-0.0519159
-0.0431565
-0.0344265
-0.0318947
-0.0337138
-0.0314586
-0.0232283
-0.014193
-0.00776432
-0.00289816
0.00234557
0.00599919
0.00684477
0.00538346
0.00334417
0.00139294
-0.040286
-0.0475186
-0.0504682
-0.049735
-0.045996
-0.0400339
-0.0342305
-0.0314859
-0.0309013
-0.0279239
-0.0212034
-0.013965
-0.00865445
-0.00469318
-0.000387461
0.00309137
0.00440099
0.00372371
0.00234826
0.000960119
-0.0341665
-0.0404995
-0.043458
-0.0434038
-0.0411655
-0.0375228
-0.0334118
-0.0301582
-0.0281003
-0.0252639
-0.0202515
-0.0144338
-0.00957084
-0.00581233
-0.00207998
0.00100001
0.00241169
0.00217719
0.00135371
0.000600821
-0.0292485
-0.0347608
-0.0376681
-0.0383267
-0.0372995
-0.0349414
-0.0316807
-0.0285023
-0.0262008
-0.0237583
-0.0197111
-0.0145905
-0.00998108
-0.00652731
-0.00346621
-0.000849631
0.000676451
0.000932153
0.000648985
0.000353246
-0.0252001
-0.0300825
-0.0330033
-0.0341908
-0.0338864
-0.0322782
-0.0297993
-0.0272121
-0.0250319
-0.0226004
-0.0189332
-0.0144419
-0.0103816
-0.0073409
-0.00468881
-0.00227067
-0.000584563
5.14219e-05
0.000108929
0.0001072
-0.021811
-0.0262512
-0.0291875
-0.0307025
-0.030886
-0.0299247
-0.0282071
-0.0261499
-0.0239756
-0.0214529
-0.0181894
-0.0144338
-0.0109019
-0.00804105
-0.00551585
-0.00323763
-0.00153382
-0.000690156
-0.000371864
-9.24438e-05
-0.0188812
-0.023059
-0.0260313
-0.0277992
-0.0284044
-0.0279974
-0.026813
-0.0250625
-0.0229477
-0.0205518
-0.0177255
-0.0144997
-0.0112635
-0.0084781
-0.00608336
-0.00399699
-0.00233724
-0.00131471
-0.00073033
-0.000218059
-0.0162806
-0.0203807
-0.0234593
-0.0254677
-0.0264159
-0.0263896
-0.0255333
-0.0240391
-0.0221336
-0.0199495
-0.0173903
-0.0144564
-0.0114485
-0.00881266
-0.00657201
-0.00461605
-0.0029549
-0.00176422
-0.000976718
-0.000314379
-0.0139014
-0.0181596
-0.021425
-0.0236453
-0.0248276
-0.0250486
-0.0244489
-0.0232204
-0.0215344
-0.019488
-0.0170704
-0.0143631
-0.0116018
-0.00912073
-0.00695656
-0.00504517
-0.00337674
-0.00208977
-0.00117241
-0.00039271
-0.0117794
-0.0163967
-0.0198962
-0.0222766
-0.0236084
-0.0240113
-0.0236279
-0.0226085
-0.0210682
-0.0191128
-0.0168199
-0.0143135
-0.0117428
-0.00934556
-0.00720139
-0.00531819
-0.00367295
-0.00234231
-0.00132251
-0.000442692
-0.010031
-0.0151372
-0.0188584
-0.021343
-0.0227707
-0.0233023
-0.0230633
-0.0221706
-0.0207288
-0.0188632
-0.0166762
-0.0142909
-0.0118181
-0.00946737
-0.00735026
-0.00550042
-0.00387401
-0.0025057
-0.00141098
-0.000470565
-0.00893071
-0.0144633
-0.0183227
-0.0208579
-0.0223354
-0.0229324
-0.0227601
-0.0219275
-0.0205481
-0.0187467
-0.0166134
-0.0142693
-0.0118334
-0.00951707
-0.007431
-0.00560049
-0.00397219
-0.00257413
-0.00144648
-0.000482959
-0.160872
-0.170679
-0.180558
-0.190593
-0.200878
-0.211516
-0.22262
-0.234311
-0.246707
-0.259912
-0.273986
-0.288916
-0.304504
-0.320369
-0.335652
-0.349355
-0.359637
-0.365798
-0.365672
-0.363774
-0.100147
-0.10375
-0.107071
-0.110095
-0.112805
-0.115182
-0.117205
-0.118851
-0.120098
-0.120934
-0.121352
-0.121379
-0.121069
-0.120575
-0.120087
-0.12003
-0.120749
-0.123116
-0.127411
-0.135723
-0.0716716
-0.0758743
-0.0801092
-0.0843866
-0.0887173
-0.0931131
-0.097586
-0.102149
-0.106813
-0.111591
-0.116488
-0.121507
-0.126635
-0.131844
-0.137069
-0.142221
-0.147133
-0.151654
-0.15551
-0.158602
-0.056085
-0.0589121
-0.0616993
-0.0644478
-0.0671585
-0.0698322
-0.0724693
-0.0750704
-0.0776356
-0.0801653
-0.0826603
-0.0851227
-0.087557
-0.0899727
-0.0923862
-0.0948267
-0.0973428
-0.100012
-0.102989
-0.106543
-0.0440401
-0.0462873
-0.0485368
-0.0507909
-0.0530521
-0.0553227
-0.057605
-0.0599014
-0.0622143
-0.0645458
-0.0668981
-0.0692729
-0.0716714
-0.0740934
-0.0765378
-0.0789991
-0.0814739
-0.0839462
-0.0864338
-0.0889344
-0.0364265
-0.0381711
-0.039913
-0.041653
-0.0433916
-0.0451296
-0.0468678
-0.0486071
-0.0503484
-0.0520925
-0.0538406
-0.0555936
-0.057353
-0.0591201
-0.0608976
-0.0626869
-0.0644964
-0.0663285
-0.0682244
-0.0702108
-0.0303219
-0.0317013
-0.0330814
-0.0344628
-0.0358461
-0.037232
-0.0386212
-0.0400143
-0.041412
-0.042815
-0.044224
-0.0456397
-0.0470628
-0.0484937
-0.0499336
-0.0513819
-0.0528423
-0.0543116
-0.055815
-0.0573526
-0.0257371
-0.0268442
-0.0279512
-0.0290581
-0.0301653
-0.031273
-0.0323815
-0.0334911
-0.0346022
-0.0357151
-0.0368302
-0.037948
-0.0390688
-0.0401931
-0.0413217
-0.0424544
-0.0435945
-0.0447398
-0.0459109
-0.0471063
-0.02207
-0.022968
-0.0238654
-0.0247625
-0.0256593
-0.0265561
-0.027453
-0.0283502
-0.029248
-0.0301463
-0.0310456
-0.0319459
-0.0328475
-0.0337505
-0.0346554
-0.0355617
-0.0364717
-0.037383
-0.0383108
-0.0392511
-0.0191842
-0.0199205
-0.0206561
-0.0213911
-0.0221255
-0.0228595
-0.0235932
-0.0243266
-0.0250598
-0.0257929
-0.0265259
-0.0272591
-0.0279924
-0.0287258
-0.0294596
-0.0301935
-0.030929
-0.0316642
-0.0324101
-0.0331629
-0.0168533
-0.0174593
-0.0180649
-0.0186701
-0.019275
-0.0198797
-0.0204843
-0.0210887
-0.021693
-0.0222973
-0.0229016
-0.0235059
-0.0241102
-0.0247144
-0.0253188
-0.025923
-0.0265279
-0.0271322
-0.0277439
-0.0283601
-0.0149382
-0.0154372
-0.0159363
-0.0164356
-0.0169352
-0.0174351
-0.0179353
-0.0184359
-0.0189367
-0.0194378
-0.0199392
-0.0204409
-0.0209427
-0.0214446
-0.0219466
-0.0224485
-0.0229509
-0.0234528
-0.0239598
-0.0244708
-0.0132646
-0.0136733
-0.0140832
-0.0144943
-0.0149067
-0.0153204
-0.0157352
-0.0161513
-0.0165684
-0.0169866
-0.0174058
-0.0178258
-0.0182466
-0.018668
-0.0190899
-0.0195121
-0.0199349
-0.0203577
-0.0207843
-0.0212151
-0.0117331
-0.0120667
-0.012403
-0.012742
-0.0130837
-0.0134279
-0.0137746
-0.0141236
-0.0144749
-0.0148281
-0.0151833
-0.01554
-0.0158983
-0.0162577
-0.0166182
-0.0169795
-0.0173416
-0.0177041
-0.0180695
-0.0184395
-0.0100878
-0.0103586
-0.0106346
-0.0109156
-0.0112016
-0.0114923
-0.0117875
-0.0120868
-0.0123901
-0.0126969
-0.013007
-0.01332
-0.0136357
-0.0139537
-0.0142736
-0.0145953
-0.0149184
-0.0152427
-0.0155697
-0.015902
-0.00829121
-0.00851661
-0.00875059
-0.00899267
-0.00924241
-0.0094993
-0.00976277
-0.0100323
-0.0103073
-0.0105873
-0.0108718
-0.0111602
-0.011452
-0.0117468
-0.012044
-0.0123432
-0.0126441
-0.0129465
-0.0132507
-0.0135606
-0.00567271
-0.00589497
-0.00612977
-0.00637598
-0.0066326
-0.00689859
-0.00717293
-0.00745468
-0.00774295
-0.00803691
-0.00833576
-0.00863874
-0.00894515
-0.00925434
-0.00956569
-0.00987867
-0.0101927
-0.0105077
-0.0108233
-0.0111439
-0.00233167
-0.00262056
-0.00292181
-0.0032338
-0.00355515
-0.00388448
-0.00422054
-0.00456217
-0.00490833
-0.00525808
-0.00561053
-0.00596491
-0.00632049
-0.00667663
-0.00703272
-0.00738828
-0.00774274
-0.00809613
-0.00844761
-0.00880164
0.00271463
0.00216095
0.00161336
0.0010723
0.000538014
1.08125e-05
-0.000509057
-0.0010214
-0.00152607
-0.00202295
-0.00251196
-0.00299304
-0.00346616
-0.00393132
-0.0043885
-0.00483779
-0.00527908
-0.00571293
-0.00613842
-0.00656019
0.00822295
0.00730883
0.00642917
0.00558204
0.00476557
0.00397807
0.00321797
0.00248375
0.00177402
0.00108746
0.000422834
-0.000221011
-0.000845155
-0.00145062
-0.00203832
-0.00260922
-0.00316397
-0.00370385
-0.00422841
-0.00474234
0.00833105
0.00740133
0.00650587
0.00564275
0.00481012
0.00400628
0.00322966
0.00247877
0.00175218
0.00104859
0.000366777
-0.000294426
-0.000936091
-0.00155923
-0.00216478
-0.00275367
-0.00332659
-0.00388475
-0.00442783
-0.00496024
0.00283655
0.0022674
0.00170414
0.00114718
0.000596806
5.33273e-05
-0.000483009
-0.00101201
-0.00153351
-0.0020474
-0.0025536
-0.00305204
-0.00354267
-0.00402551
-0.00450052
-0.00496778
-0.0054272
-0.00587929
-0.00632325
-0.00676338
-0.00217547
-0.00247984
-0.00279679
-0.00312471
-0.00346219