/*--------------------------------*- C++ -*----------------------------------*\
  =========                 |
  \\      /  F ield         | OpenFOAM: The Open Source CFD Toolbox
   \\    /   O peration     | Website:  https://openfoam.org
    \\  /    A nd           | Version:  6.0
     \\/     M anipulation  |
\*---------------------------------------------------------------------------*/
FoamFile
{
    version     2.0;
    format      ascii;
    class       surfaceScalarField;
    location    "60";
    object      phi;
}
// * * * * * * * * * * * * * * * * * * * * * * * * * * * * * * * * * * * * * //

dimensions      [0 3 -1 0 0 0 0];

internalField   nonuniform List<scalar> 
7840
(
-2.23192e-06
9.35943e-06
-7.12751e-06
-7.9684e-06
2.53813e-05
-1.96448e-05
-1.63626e-05
3.89805e-05
-3.05863e-05
-2.66764e-05
5.03395e-05
-4.00256e-05
-3.82905e-05
5.97179e-05
-4.81038e-05
-5.07011e-05
6.74353e-05
-5.50246e-05
-6.35137e-05
7.383e-05
-6.10174e-05
-7.64344e-05
7.92314e-05
-6.63108e-05
-8.92604e-05
8.39419e-05
-7.11158e-05
-0.000101872
8.82273e-05
-7.56155e-05
-0.000114224
9.23118e-05
-7.99599e-05
-0.000126336
9.63778e-05
-8.42654e-05
-0.000138287
0.000100567
-8.86163e-05
-0.000150202
0.000104983
-9.30684e-05
-0.000162247
0.000109697
-9.76519e-05
-0.000174618
0.000114746
-0.000102376
-0.000187529
0.000120141
-0.00010723
-0.000201206
0.000125865
-0.000112189
-0.000215872
0.000131873
-0.000117207
0.000138112
-0.000122232
-0.000231751
-2.09498e-06
1.14544e-05
-7.49777e-06
3.0784e-05
-1.54097e-05
4.68924e-05
-2.51246e-05
6.00543e-05
-3.6043e-05
7.06364e-05
-4.76731e-05
7.90653e-05
-5.96248e-05
8.57817e-05
-7.16035e-05
9.12101e-05
-8.34023e-05
9.57407e-05
-9.48943e-05
9.97193e-05
-0.000106025
0.000103443
-0.000116807
0.000107159
-0.000127308
0.000111068
-0.000137649
0.000115324
-0.000147991
0.00012004
-0.000158531
0.000125286
-0.000169488
0.000131098
-0.000181094
0.000137471
-0.000193588
0.000144367
0.000151734
-0.00020721
-1.97604e-06
1.34305e-05
-7.07994e-06
3.5888e-05
-1.45485e-05
5.4361e-05
-2.36982e-05
6.9204e-05
-3.39433e-05
8.08814e-05
-4.47972e-05
8.99191e-05
-5.58688e-05
9.68533e-05
-6.68567e-05
0.000102198
-7.7543e-05
0.000106427
-8.77861e-05
0.000109962
-9.75159e-05
0.000113173
-0.000106728
0.000116371
-0.000115476
0.000119817
-0.000123871
0.000123719
-0.000132069
0.000128237
-0.000140264
0.000133482
-0.000148686
0.000139519
-0.000157582
0.000146367
-0.000167212
0.000153998
0.000162366
-0.000177845
-1.87929e-06
1.53097e-05
-6.72847e-06
4.07371e-05
-1.38055e-05
6.1438e-05
-2.24402e-05
7.78387e-05
-3.20532e-05
9.04945e-05
-4.21581e-05
0.000100024
-5.23573e-05
0.000107053
-6.2337e-05
0.000112178
-7.18614e-05
0.000115951
-8.07675e-05
0.000118869
-8.89614e-05
0.000121367
-9.64142e-05
0.000123824
-0.000103159
0.000126562
-0.000109289
0.000129849
-0.00011495
0.000133898
-0.000120338
0.00013887
-0.000125691
0.000144872
-0.000131278
0.000151954
-0.000137393
0.000160113
0.000169318
-0.000144345
-1.80808e-06
1.71178e-05
-6.45372e-06
4.53828e-05
-1.32009e-05
6.81853e-05
-2.13834e-05
8.60211e-05
-3.04223e-05
9.95334e-05
-3.98263e-05
0.000109428
-4.91871e-05
0.000116413
-5.81738e-05
0.000121165
-6.65272e-05
0.000124305
-7.40558e-05
0.000126397
-8.0634e-05
0.000127945
-8.62001e-05
0.00012939
-9.07569e-05
0.000131119
-9.43714e-05
0.000133463
-9.71742e-05
0.000136701
-9.93572e-05
0.000141053
-0.000101169
0.000146684
-0.000102907
0.000153692
-0.00010491
0.000162116
0.00017195
-0.000107542
-1.76432e-06
1.88822e-05
-6.26134e-06
4.98798e-05
-1.27458e-05
7.46697e-05
-2.05463e-05
9.38217e-05
-2.90795e-05
0.000108067
-3.78461e-05
0.000118195
-4.64246e-05
0.000124992
-5.44635e-05
0.000129203
-6.1676e-05
0.000131517
-6.78367e-05
0.000132558
-7.27799e-05
0.000132888
-7.64018e-05
0.000133012
-7.86639e-05
0.000133381
-7.95968e-05
0.000134396
-7.93048e-05
0.000136409
-7.79691e-05
0.000139717
-7.58469e-05
0.000144562
-7.32675e-05
0.000151113
-7.06251e-05
0.000159473
0.000169689
-6.83641e-05
-1.74811e-06
2.06303e-05
-6.15063e-06
5.42823e-05
-1.24381e-05
8.09571e-05
-1.99266e-05
0.00010131
-2.80244e-05
0.000116164
-3.6223e-05
0.000126393
-4.40871e-05
0.000132856
-5.12441e-05
0.00013636
-5.73778e-05
0.000137651
-6.22241e-05
0.000137404
-6.55714e-05
0.000136235
-6.7264e-05
0.000134704
-6.72095e-05
0.000133326
-6.53884e-05
0.000132575
-6.18646e-05
0.000132885
-5.67957e-05
0.000134649
-5.04404e-05
0.000138206
-4.31607e-05
0.000143833
-3.54193e-05
0.000151732
0.000162035
-2.77649e-05
-1.75714e-06
2.23874e-05
-6.11294e-06
5.86381e-05
-1.22599e-05
8.7104e-05
-1.94952e-05
0.000108546
-2.7217e-05
0.000123886
-3.49083e-05
0.000134085
-4.21217e-05
0.000140069
-4.84662e-05
0.000142705
-5.3597e-05
0.000142782
-5.72107e-05
0.000141018
-5.90454e-05
0.00013807
-5.88857e-05
0.000134545
-5.6573e-05
0.000131014
-5.20211e-05
0.000128023
-4.52344e-05
0.000126098
-3.63284e-05
0.000125743
-2.55484e-05
0.000127426
-1.32839e-05
0.000131569
-7.60509e-08
0.000138524
0.000148567
1.33917e-05
-1.78645e-06
2.41739e-05
-6.13063e-06
6.29823e-05
-1.21747e-05
9.31481e-05
-1.91921e-05
0.000115563
-2.657e-05
0.000131264
-3.37857e-05
0.0001413
-4.03845e-05
0.000146668
-4.5962e-05
0.000148282
-5.015e-05
0.00014697
-5.26097e-05
0.000143478
-5.3029e-05
0.000138489
-5.11286e-05
0.000132644
-4.66737e-05
0.000126559
-3.94945e-05
0.000120844
-2.95133e-05
0.000116117
-1.67774e-05
0.000113007
-1.49448e-06
0.000112143
1.59339e-05
0.00011414
3.48845e-05
0.000119573
0.000128946
5.45051e-05
-1.82838e-06
2.60022e-05
-6.1769e-06
6.73308e-05
-1.21268e-05
9.9098e-05
-1.89235e-05
0.00012236
-2.59436e-05
0.000138284
-3.2662e-05
0.000148019
-3.86235e-05
0.00015263
-4.34182e-05
0.000153077
-4.66643e-05
0.000150216
-4.7996e-05
0.000144809
-4.70585e-05
0.000137552
-4.35107e-05
0.000129096
-3.70377e-05
0.000120086
-2.7373e-05
0.000111179
-1.43336e-05
0.000103078
2.13302e-06
9.654e-05
2.18925e-05
9.23838e-05
4.45614e-05
9.14714e-05
6.9443e-05
9.46919e-05
0.000102905
9.54842e-05
-1.87288e-06
2.78751e-05
-6.21671e-06
7.16746e-05
-1.20427e-05
0.000104924
-1.85637e-05
0.000128881
-2.51457e-05
0.000144866
-3.12646e-05
0.000154138
-3.64708e-05
0.000157836
-4.03595e-05
0.000156966
-4.25474e-05
0.000152404
-4.26565e-05
0.000144918
-4.03038e-05
0.000135199
-3.50992e-05
0.000123892
-2.66539e-05
0.000111641
-1.46019e-05
9.91272e-05
1.36195e-06
8.71139e-05
2.14224e-05
7.64795e-05
4.55638e-05
6.82425e-05
7.3469e-05
6.35661e-05
0.000104399
6.37615e-05
7.02258e-05
0.000137078
-1.90833e-06
2.97834e-05
-6.20905e-06
7.59754e-05
-1.18348e-05
0.00011055
-1.79607e-05
0.000135007
-2.39392e-05
0.000150844
-2.92482e-05
0.000159447
-3.34484e-05
0.000162036
-3.61487e-05
0.000159666
-3.6978e-05
0.000153233
-3.55644e-05
0.000143505
-3.15186e-05
0.000131153
-2.44257e-05
0.000116799
-1.38454e-05
0.00010106
6.73255e-07
8.46085e-05
1.95574e-05
6.82297e-05
4.31461e-05
5.28909e-05
7.15889e-05
3.97996e-05
0.000104702
3.04527e-05
0.000141769
2.66953e-05
3.07012e-05
0.000181293
-1.92263e-06
3.17061e-05
-6.1104e-06
8.01631e-05
-1.14087e-05
0.000115848
-1.69466e-05
0.000140545
-2.20565e-05
0.000155954
-2.62144e-05
0.000163605
-2.89908e-05
0.000164812
-3.00121e-05
0.000160687
-2.89301e-05
0.000152151
-2.53962e-05
0.000139971
-1.90414e-05
0.000124798
-9.46001e-06
0.000107217
3.79975e-06
8.78006e-05
2.12341e-05
6.71742e-05
4.33621e-05
4.61017e-05
7.06698e-05
2.55832e-05
0.000103503
6.96679e-06
0.000141884
-7.92886e-06
0.00018522
-1.66408e-05
-1.5937e-05
0.000231858
-1.90456e-06
3.36106e-05
-5.8788e-06
8.41374e-05
-1.06706e-05
0.00012064
-1.53508e-05
0.000145225
-1.92202e-05
0.000159824
-2.17412e-05
0.000166126
-2.24855e-05
0.000165557
-2.10924e-05
0.000159294
-1.72377e-05
0.000148297
-1.06072e-05
0.00013334
-8.74705e-07
0.000115066
1.23184e-05
9.40244e-05
2.93816e-05
7.07373e-05
5.07893e-05
4.57665e-05
7.70812e-05
1.98098e-05
0.000108832
-6.16815e-06
0.000146566
-3.07664e-05
0.000190562
-5.19255e-05
0.000240486
-6.65641e-05
-7.01284e-05
0.000294677
-1.84496e-06
3.54556e-05
-5.47761e-06
8.777e-05
-9.53528e-06
0.000124698
-1.30143e-05
0.000148704
-1.5165e-05
0.000161974
-1.54173e-05
0.000166378
-1.33247e-05
0.000163464
-8.52241e-06
0.000154492
-6.97432e-07
0.000140472
1.0434e-05
0.000122209
2.51457e-05
0.000100354
4.37202e-05
7.54498e-05
6.64704e-05
4.79872e-05
9.37639e-05
1.8473e-05
0.000126048
-1.24744e-05
0.000163861
-4.39812e-05
0.000207796
-7.47012e-05
0.000258362
-0.000102492
0.000315603
-0.000123805
-0.000132643
0.000378118
-1.73746e-06
3.71931e-05
-4.87787e-06
9.09104e-05
-7.93157e-06
0.000127751
-9.79935e-06
0.000150572
-9.65688e-06
0.000161832
-6.87422e-06
0.000163595
-9.56911e-07
0.000157547
8.49461e-06
0.000145041
2.1811e-05
0.000127155
3.92701e-05
0.00010475
6.11071e-05
7.8517e-05
8.75239e-05
4.9033e-05
0.000118702
1.68087e-05
0.000154827
-1.76516e-05
0.000196122
-5.37693e-05
0.000242899
-9.07586e-05
0.000295599
-0.000127401
0.000354767
-0.00016166
0.000420823
-0.000189861
-0.000204766
0.000492945
-1.57838e-06
3.87714e-05
-4.0582e-06
9.33903e-05
-5.80266e-06
0.000129496
-5.59265e-06
0.000150362
-2.50046e-06
0.00015874
4.19706e-06
0.000156898
1.50798e-05
0.000146664
3.06233e-05
0.000129497
5.122e-05
0.000106558
7.71857e-05
7.8784e-05
0.000108758
4.69446e-05
0.00014609
1.17017e-05
0.00018924
-2.63416e-05
0.000238179
-6.65911e-05
0.00029281
-0.0001084
0.000353023
-0.000150971
0.000418784
-0.000193162
0.000490256
-0.000233132
0.000567871
-0.000267475
-0.00028854
0.000651645
-1.36557e-06
4.0137e-05
-3.00166e-06
9.50263e-05
-3.10101e-06
0.000129595
-2.98316e-07
0.000147559
6.46824e-06
0.000151973
1.80506e-05
0.000145315
3.51544e-05
0.00012956
5.83768e-05
0.000106275
8.82221e-05
7.67131e-05
0.000125101
4.19056e-05
0.000169313
2.73183e-06
0.000221027
-4.00122e-05
0.000280243
-8.55573e-05
0.000346761
-0.000133109
0.000420157
-0.000181796
0.000499788
-0.000230603
0.00058486
-0.000278234
0.000674574
-0.000322846
0.000768472
-0.000361373
-0.000387627
0.000867559
-1.09656e-06
4.12336e-05
-1.69027e-06
9.56201e-05
2.21866e-07
0.000127683
6.17782e-06
0.000141603
1.74033e-05
0.000140748
3.49123e-05
0.000127806
5.9573e-05
0.0001049
9.2144e-05
7.37035e-05
0.000133286
3.55711e-05
0.000183555
-8.36344e-06
0.00024338
-5.7093e-05
0.000313027
-0.000109659
0.000392552
-0.000165082
0.000481736
-0.000222292
0.000579997
-0.000280058
0.000686297
-0.000336903
0.000799039
-0.000390975
0.000915984
-0.000439791
0.00103449
-0.000479881
-0.000508881
0.00115575
-7.66167e-07
4.19997e-05
-9.83459e-08
9.49522e-05
4.22787e-06
0.000123357
1.39478e-05
0.000131883
3.04769e-05
0.000124219
5.50177e-05
0.000103266
8.86254e-05
7.12918e-05
0.000132242
3.00869e-05
0.000186704
-1.8891e-05
0.000252734
-7.43935e-05
0.000330921
-0.00013528
0.000421697
-0.000200435
0.000525306
-0.000268692
0.000641778
-0.000338764
0.000770877
-0.000409157
0.000912014
-0.000478039
0.00106402
-0.000542985
0.00122439
-0.000600155
0.00138637
-0.000641866
-0.000651668
0.00152916
-3.65353e-07
4.23651e-05
1.81196e-06
9.27749e-05
9.00143e-06
0.000116167
2.31566e-05
0.000117728
4.59021e-05
0.000101473
7.8642e-05
7.05257e-05
0.000122623
2.7311e-05
0.000178958
-2.62486e-05
0.000248631
-8.85638e-05
0.000332479
-0.000158242
0.000431182
-0.000233983
0.000545257
-0.00031451
0.00067508
-0.000398515
0.000820954
-0.000484638
0.000983258
-0.000571462
0.00116275
-0.000657527
0.0013611
-0.000741334
0.00158221
-0.000821267
0.0018362
-0.000895856
-0.000961146
0.00214568
1.22384e-07
4.22427e-05
4.09732e-06
8.88e-05
1.46584e-05
0.000105606
3.39927e-05
9.83936e-05
6.39425e-05
7.15233e-05
0.00010611
2.8358e-05
0.000161908
-2.84867e-05
0.000232567
-9.69075e-05
0.000319121
-0.000175118
0.000422381
-0.000261501
0.000542911
-0.000354513
0.000681026
-0.000452625
0.000836818
-0.000554306
0.00101022
-0.000658042
0.00120115
-0.000762387
0.00140967
-0.000866055
0.00163638
-0.000968036
0.00188283
-0.00106772
0.0021519
-0.00116493
-0.0012521
0.00244286
7.16778e-07
4.15259e-05
6.82519e-06
8.26915e-05
2.13342e-05
9.10971e-05
4.66705e-05
7.30573e-05
8.48886e-05
3.33053e-05
0.000137761
-2.45147e-05
0.000206806
-9.75319e-05
0.00029327
-0.000183371
0.000398082
-0.00027993
0.000521816
-0.000385235
0.00066465
-0.000497347
0.00082636
-0.000614335
0.00100635
-0.000734292
0.00120369
-0.000855387
0.00141725
-0.000975944
0.00164574
-0.00109455
0.00188785
-0.00121014
0.00214226
-0.00132213
0.00240748
-0.00143015
-0.00152609
0.00268147
1.44165e-06
4.00842e-05
1.0072e-05
7.40612e-05
2.9175e-05
7.19941e-05
6.14096e-05
4.08226e-05
0.000109016
-1.43009e-05
0.000173878
-8.93768e-05
0.000257516
-0.00018117
0.000361033
-0.000286888
0.000485048
-0.000403945
0.000629633
-0.00052982
0.000794283
-0.000661997
0.000977923
-0.000797975
0.00117896
-0.000935327
0.00139536
-0.00107179
0.00162477
-0.00120536
0.00186461
-0.00133438
0.00211211
-0.00145765
0.00236437
-0.00157438
0.00261836
-0.00168415
-0.00178029
0.00287257
2.32155e-06
3.77627e-05
1.39129e-05
6.24698e-05
3.83167e-05
4.75903e-05
7.83967e-05
7.42671e-07
0.000136522
-7.24263e-05
0.000214588
-0.000167443
0.000313961
-0.000280543
0.000435389
-0.000408316
0.000578913
-0.00054747
0.000743816
-0.000694723
0.000928619
-0.0008468
0.00113115
-0.0010005
0.00134864
-0.00115282
0.00157792
-0.00130107
0.00181554
-0.00144298
0.00205796
-0.0015768
0.00230163
-0.00170132
0.0025431
-0.00181584
0.0027791
-0.00192015
-0.00200965
0.00300845
3.37902e-06
3.43837e-05
1.84125e-05
4.74363e-05
4.88641e-05
1.71387e-05
9.7747e-05
-4.81403e-05
0.000167465
-0.000142144
0.000259771
-0.000259749
0.000375664
-0.000396436
0.000515269
-0.00054792
0.000677752
-0.000709953
0.000861316
-0.000878287
0.00106328
-0.00104876
0.00128022
-0.00121745
0.00150823
-0.00138083
0.00174315
-0.00153599
0.0019808
-0.00168063
0.00221719
-0.0018132
0.0024487
-0.00193283
0.00267212
-0.00203927
0.00288481
-0.00213284
-0.00221099
0.00308615
4.63222e-06
2.97514e-05
2.36161e-05
2.84524e-05
6.08715e-05
-2.01167e-05
0.000119471
-0.00010674
0.000201708
-0.000224381
0.000308985
-0.000367026
0.000441662
-0.000529113
0.000598932
-0.000705191
0.000778791
-0.000889812
0.000978125
-0.00107762
0.00119292
-0.00126356
0.00141857
-0.00144309
0.00165021
-0.00161247
0.00188307
-0.00176884
0.00211274
-0.0019103
0.00233541
-0.00203587
0.00254798
-0.0021454
0.00274811
-0.0022394
0.00293421
-0.00231894
-0.00238322
0.00310644
6.09339e-06
2.3658e-05
2.95434e-05
5.00243e-06
7.43296e-05
-6.49029e-05
0.000143449
-0.000175859
0.000238887
-0.000319818
0.000361428
-0.000489568
0.000510479
-0.000678165
0.00068399
-0.000878701
0.000878534
-0.00108436
0.00108956
-0.00128865
0.00131178
-0.00148578
0.00153963
-0.00167094
0.0017677
-0.00184055
0.00199114
-0.00199228
0.00220591
-0.00212506
0.00240891
-0.00223887
0.00259804
-0.00233454
0.00277217
-0.00241352
0.00293093
-0.0024777
-0.00252766
0.00307536
7.76793e-06
1.58901e-05
3.61847e-05
-2.34143e-05
8.91552e-05
-0.000117873
0.000169417
-0.000256121
0.000278393
-0.000428794
0.000415936
-0.00062711
0.00058017
-0.000842398
0.000767528
-0.00106606
0.000973024
-0.00128985
0.00119072
-0.00150634
0.00141431
-0.00170937
0.00163771
-0.00189434
0.00185552
-0.00205835
0.00206337
-0.00220013
0.0022581
-0.00231979
0.00243775
-0.00241852
0.00260149
-0.00249827
0.00274938
-0.00256142
0.00288222
-0.00261054
-0.00264721
0.00300177
9.65384e-06
6.23627e-06
4.34983e-05
-5.72587e-05
0.000105187
-0.000179562
0.000196963
-0.000347897
0.00031938
-0.000551211
0.000471018
-0.000778749
0.00064842
-0.0010198
0.000846328
-0.00126397
0.00105822
-0.00150175
0.00127704
-0.00172516
0.0014959
-0.00192823
0.00170875
-0.00210719
0.00191078
-0.00226039
0.00209863
-0.00238799
0.00227038
-0.00249154
0.00242537
-0.00257351
0.002564
-0.0026369
0.0026874
-0.00268481
0.00279718
-0.00272032
-0.00274562
0.00289559
1.17413e-05
-5.505e-06
5.14085e-05
-9.6926e-05
0.000122182
-0.000250336
0.000225525
-0.00045124
0.000360782
-0.000686468
0.00052493
-0.000942897
0.000712705
-0.00120758
0.000917145
-0.00146841
0.00113042
-0.00171502
0.00134478
-0.00193952
0.00155336
-0.0021368
0.00175071
-0.00230455
0.00193314
-0.00244281
0.00209858
-0.00255343
0.00224649
-0.00263945
0.00237747
-0.00270449
0.00249292
-0.00275234
0.00259471
-0.00278661
0.00268493
-0.00281054
-0.00282666
0.00276597
1.40119e-05
-1.95169e-05
5.98049e-05
-0.000142719
0.00013982
-0.00033035
0.000254412
-0.000565832
0.000401366
-0.000833422
0.00057578
-0.00111731
0.000770497
-0.00140229
0.000977016
-0.00167493
0.00118662
-0.00192463
0.00139145
-0.00214435
0.00158523
-0.00233058
0.00176367
-0.00248298
0.00192443
-0.00260357
0.00206691
-0.00269591
0.00219182
-0.00276436
0.00230077
-0.00281344
0.00239586
-0.00284743
0.00247936
-0.0028701
0.00255348
-0.00288467
-0.00289369
0.00262051
1.64384e-05
-3.59553e-05
6.85422e-05
-0.000194823
0.000157705
-0.000419513
0.000282822
-0.000690949
0.000439795
-0.000990395
0.000621668
-0.00129918
0.000819476
-0.0016001
0.00102354
-0.00187899
0.00122482
-0.00212591
0.00141594
-0.00233547
0.00159176
-0.0025064
0.00174942
-0.00264064
0.00188809
-0.00274224
0.00200848
-0.00281631
0.00211234
-0.00286822
0.00220195
-0.00290306
0.00227976
-0.00292524
0.00234814
-0.00293848
0.0024092
-0.00294573
-0.00294943
0.00246495
1.89839e-05
-5.49392e-05
7.74416e-05
-0.000253281
0.000175381
-0.000517452
0.000309886
-0.000825454
0.000474716
-0.00115522
0.000660834
-0.0014853
0.000857736
-0.001797
0.00105509
-0.00207634
0.00124412
-0.00231495
0.00141851
-0.00250986
0.00157457
-0.00266246
0.00171102
-0.00277708
0.00182841
-0.00285962
0.00192853
-0.00291643
0.00201383
-0.00295352
0.00208694
-0.00297616
0.00215037
-0.00298868
0.00220637
-0.00299447
0.00225681
-0.00299618
-0.00299596
0.00230335
2.16022e-05
-7.65414e-05
8.62956e-05
-0.000317974
0.000192348
-0.000623505
0.000334712
-0.000967817
0.000504852
-0.00132536
0.000691794
-0.00167225
0.000883932
-0.00198914
0.00107087
-0.00226328
0.0012447
-0.00248878
0.00140052
-0.00266569
0.00153628
-0.00279822
0.00165217
-0.00289297
0.0017499
-0.00295736
0.00183203
-0.00299855
0.00190136
-0.00302285
0.0019606
-0.0030354
0.00201213
-0.00304021
0.00205795
-0.00304029
0.00209962
-0.00303786
-0.00303478
0.00213844
2.42385e-05
-0.00010078
9.48747e-05
-0.00038861
0.000208088
-0.000736718
0.000356441
-0.00111617
0.000529097
-0.00149802
0.000713454
-0.0018566
0.000897354
-0.00217304
0.00107094
-0.00243686
0.00122762
-0.00264546
0.00136414
-0.0028022
0.00148002
-0.0029141
0.00157673
-0.00298968
0.00165683
-0.00303746
0.00172331
-0.00306503
0.00177908
-0.00307862
0.00182671
-0.00308304
0.00186834
-0.00308184
0.00190563
-0.00307758
0.00193986
-0.00307209
-0.00306692
0.00197201
2.68311e-05
-0.000127611
0.000102937
-0.000464716
0.000222091
-0.000855872
0.000374307
-0.00126839
0.000546592
-0.0016703
0.000725168
-0.00203518
0.000897924
-0.0023458
0.00105606
-0.002595
0.00119459
-0.00278399
0.00131194
-0.00291955
0.00140904
-0.0030112
0.00148834
-0.00306898
0.00155294
-0.00310206
0.00160597
-0.00311807
0.00165025
-0.0031229
0.00168809
-0.00312088
0.00172132
-0.00311506
0.00175129
-0.00310755
0.001779
-0.0030998
-0.00309307
0.00180515
2.93134e-05
-0.000156924
0.00011024
-0.000545643
0.000233886
-0.000979518
0.000387682
-0.00142218
0.000556771
-0.00183939
0.000726748
-0.00220515
0.000886117
-0.00250517
0.00102752
-0.0027364
0.0011477
-0.00290417
0.00124666
-0.0030185
0.00132646
-0.00309101
0.00139024
-0.00313276
0.00144134
-0.00315316
0.00148284
-0.00315957
0.00151731
-0.00315736
0.00154675
-0.00315033
0.00157268
-0.00314099
0.00159615
-0.00313103
0.00161795
-0.00312159
-0.00311369
0.00163856
3.16172e-05
-0.000188542
0.000116554
-0.000630579
0.000243069
-0.00110603
0.000396111
-0.00157523
0.000559383
-0.00200267
0.000718425
-0.0023642
0.000862837
-0.00264958
0.000986945
-0.00286051
0.00108919
-0.00300642
0.00117092
-0.00310023
0.00123507
-0.00315516
0.00128514
-0.00318284
0.00132451
-0.00319253
0.00135605
-0.0031911
0.00138202
-0.00318333
0.0014041
-0.00317241
0.0014235
-0.00316038
0.00144104
-0.00314858
0.00145732
-0.00313787
-0.00312904
0.00147267
3.36752e-05
0.000121671
0.000249325
0.000399336
0.000554474
0.000700773
0.000829289
0.000936114
0.00102125
0.00108712
0.00113725
0.00117526
0.00120439
0.00122722
0.00124567
0.00126112
0.00127451
0.00128649
0.00129748
0.00130774
3.35909e-05
0.000191874
0.000121201
0.000637474
0.000248106
0.00111424
0.000397035
0.0015831
0.000550862
0.00200915
0.000695755
0.00236873
0.000822896
0.00265204
0.000928461
0.00286104
0.0010125
0.0030053
0.00107743
0.00309777
0.00112677
0.00315165
0.00116412
0.00317852
0.00119269
0.00318759
0.00121503
0.00318565
0.00123306
0.00317745
0.00124813
0.00316616
0.00126118
0.00315379
0.00127286
0.00314168
0.00128358
0.00313068
0.00312159
0.00129359
3.15634e-05
0.00016031
0.000116184
0.000552853
0.000242034
0.000988388
0.000394058
0.00143108
0.000556033
0.00184717
0.000713625
0.00221114
0.000856566
0.0025091
0.000979282
0.00273832
0.00108028
0.0029043
0.00116092
0.00301713
0.00122415
0.00308843
0.00127344
0.00312923
0.00131215
0.00314888
0.00134311
0.00315469
0.00136858
0.00315199
0.00139021
0.00314452
0.0014092
0.0031348
0.00142639
0.00312449
0.00144234
0.00311473
0.00310653
0.00145739
2.929e-05
0.00013102
0.000109976
0.000472167
0.000233054
0.00086531
0.000385919
0.00127821
0.000553758
0.00167933
0.000722271
0.00204263
0.000880091
0.00235128
0.00101998
0.00259844
0.00113875
0.00278552
0.00123646
0.00291943
0.00131518
0.0030097
0.00137803
0.00306638
0.00142834
0.00309858
0.00146915
0.00311387
0.00150302
0.00311812
0.00153193
0.00311561
0.00155738
0.00310936
0.00158043
0.00310145
0.00160183
0.00309333
0.00308627
0.00162209
2.68358e-05
0.000104184
0.000102777
0.000396226
0.00022147
0.000746616
0.000372868
0.00112682
0.000543983
0.00150822
0.000721118
0.00186549
0.000892279
0.00218012
0.00104879
0.00244193
0.00118576
0.00264855
0.00130168
0.00280351
0.00139752
0.00291387
0.00147572
0.00298818
0.00153937
0.00303493
0.00159158
0.00306166
0.00163513
0.00307456
0.00167234
0.0030784
0.00170499
0.0030767
0.00173445
0.00307199
0.00176169
0.00306609
0.00306055
0.00178741
2.42683e-05
7.99159e-05
9.48129e-05
0.000325682
0.00020768
0.000633749
0.000355344
0.000979152
0.000526945
0.00133661
0.000709926
0.00168251
0.000892226
0.00199782
0.00106411
0.00227005
0.00121909
0.00249357
0.001354
0.00266859
0.00146842
0.00279945
0.00156383
0.00289277
0.0016428
0.00295596
0.00170828
0.00299618
0.00176318
0.00301966
0.00181005
0.00303154
0.00185098
0.00303577
0.00188765
0.00303532
0.00192132
0.00303243
0.00302893
0.00195294
2.16539e-05
5.8262e-05
8.63258e-05
0.00026101
0.000192147
0.000527928
0.000333966
0.000837333
0.000503196
0.00116738
0.000688872
0.00149684
0.000879455
0.00180724
0.00106465
0.00208485
0.00123668
0.00232154
0.00139073
0.00251454
0.00152482
0.00266536
0.00163919
0.0027784
0.00173557
0.00285958
0.00181649
0.00291525
0.00188477
0.00295139
0.00194307
0.00297323
0.00199377
0.00298507
0.00203883
0.00299027
0.00207982
0.00299144
0.00299075
0.002118
1.90546e-05
3.92074e-05
7.75568e-05
0.000202508
0.000175379
0.000430106
0.000309494
0.000703218
0.000473583
0.0010033
0.000658585
0.00131183
0.000854031
0.00161179
0.00104967
0.00188922
0.00123684
0.00213437
0.00140932
0.00234206
0.00156352
0.00251116
0.00169821
0.0026437
0.001814
0.0027438
0.00191268
0.00281657
0.0019967
0.00286738
0.00206866
0.00290127
0.00213107
0.00292266
0.00218614
0.00293519
0.00223575
0.00294183
0.00294498
0.00228151
1.65259e-05
2.26815e-05
6.87365e-05
0.000150297
0.000157895
0.000340947
0.000282779
0.000578333
0.000439198
0.000846877
0.000620142
0.00113089
0.000816645
0.00141529
0.00101908
0.00168678
0.00121849
0.00193496
0.00140762
0.00215294
0.00158141
0.00233737
0.00173709
0.00248802
0.0018739
0.00260699
0.00199258
0.00269788
0.00209489
0.00276507
0.0021831
0.00281306
0.00225965
0.0028461
0.00232689
0.00286796
0.00238692
0.00288179
0.00289018
0.00244172
1.41155e-05
8.56593e-06
6.00766e-05
0.000104336
0.000140198
0.000260826
0.000254715
0.000463816
0.000401312
0.000700281
0.000575009
0.000957191
0.000768619
0.00122168
0.000973655
0.00148174
0.00118147
0.00172715
0.00138427
0.00195013
0.00157591
0.00214573
0.00175218
0.00231175
0.00191083
0.00244834
0.0020513
0.00255741
0.00217436
0.00264202
0.00228161
0.00270581
0.00237515
0.00275256
0.00245724
0.00278587
0.00253009
0.00280894
0.00282432
0.00259595
1.1863e-05
-3.29707e-06
5.17624e-05
6.44364e-05
0.000122754
0.000189835
0.000226181
0.000360388
0.000361281
0.000565182
0.00052494
0.000793532
0.000711839
0.00103478
0.000914998
0.00127858
0.00112662
0.00151553
0.00133902
0.00173773
0.00154541
0.00193934
0.00174046
0.0021167
0.00192055
0.00226825
0.00208371
0.00239425
0.00222944
0.00249629
0.00235837
0.00257688
0.00247192
0.00263901
0.00257198
0.00268581
0.00266062
0.0027203
0.00274473
0.00274021
9.79919e-06
-1.30963e-05
4.39484e-05
3.02873e-05
0.000105972
0.000127811
0.000197993
0.000268368
0.000320453
0.000442722
0.000471837
0.000642148
0.000648613
0.000858002
0.000845484
0.00108171
0.00105593
0.00130508
0.00127292
0.00152074
0.00148964
0.00172262
0.00170013
0.00190621
0.00189967
0.00206871
0.002085
0.00220893
0.00225424
0.00232704
0.00240683
0.00242429
0.00254318
0.00250266
0.00266446
0.00256453
0.00277227
0.00261248
0.00264812
0.00286888
7.94622e-06
-2.10425e-05
3.67547e-05
1.47874e-06
9.01897e-05
7.43762e-05
0.000170862
0.000187695
0.000280081
0.000333502
0.000417602
0.000504627
0.000581469
0.000694136
0.000768057
0.000895124
0.000972354
0.00110078
0.00118843
0.00130467
0.00141002
0.00150103
0.0016311
0.00168513
0.00184635
0.00185346
0.0020515
0.00200378
0.00224347
0.00213507
0.00242038
0.00224739
0.00258144
0.0023416
0.00272678
0.00241919
0.00285721
0.00248205
0.0025308
0.00297453
6.31708e-06
-2.73596e-05
3.02646e-05
-2.24688e-05
7.56604e-05
2.89803e-05
0.000145364
0.000117991
0.000241246
0.00023762
0.000363994
0.000381879
0.000512933
0.000545197
0.000685948
0.000722109
0.000879571
0.000907161
0.00108923
0.001095
0.00130967
0.0012806
0.00153533
0.00145946
0.0017609
0.0016279
0.00198157
0.0017831
0.0021934
0.00192325
0.00239337
0.00204741
0.00257947
0.0021555
0.00275061
0.00224806
0.00290648
0.00232618
0.00238911
0.00304817
4.9149e-06
-3.22745e-05
2.45212e-05
-4.2075e-05
6.25472e-05
-9.04565e-06
0.000121914
5.86249e-05
0.000204796
0.000154738
0.000312502
0.000274173
0.000445312
0.000412387
0.000602357
0.000565065
0.000781582
0.000727936
0.000979843
0.000896741
0.00119312
0.00106732
0.00141681
0.00123577
0.0016461
0.00139861
0.00187625
0.00155295
0.00210294
0.00169656
0.00232242
0.00182793
0.00253167
0.00194625
0.00272842
0.0020513
0.00291116
0.00214343
0.00222017
0.00308011
3.73223e-06
-3.60067e-05
1.95263e-05
-5.78691e-05
5.09175e-05
-4.04369e-05
0.000100752
8.79048e-06
0.000171311
8.41795e-05
0.000264256
0.000181228
0.000380513
0.000296129
0.000520148
0.00042543
0.000682279
0.000565804
0.000865073
0.000713947
0.00106582
0.000866572
0.0012811
0.00102049
0.00150702
0.0011727
0.00173942
0.00132054
0.00197418
0.0014618
0.00220737
0.00159474
0.00243541
0.00171821
0.00265519
0.00183153
0.00286412
0.0019345
0.00202265
0.00306164
2.75086e-06
-3.87575e-05
1.5241e-05
-7.03593e-05
4.07453e-05
-6.59411e-05
8.19451e-05
-3.24093e-05
0.000141086
2.50391e-05
0.000219975
0.000102338
0.000319917
0.000196188
0.000441607
0.00030374
0.000585045
0.000422366
0.000749476
0.000549515
0.000933394
0.000682654
0.0011346
0.000819278
0.00135033
0.000956967
0.00157741
0.00109347
0.00181239
0.00122681
0.00205177
0.00135537
0.00229202
0.00147795
0.00252973
0.00159381
0.00276171
0.00170252
0.00179757
0.00298679
1.94296e-06
-4.07005e-05
1.15904e-05
-8.00067e-05
3.19208e-05
-8.62715e-05
6.54002e-05
-6.58886e-05
0.000114147
-2.37076e-05
0.000179968
3.65174e-05
0.00026433
0.000111825
0.000368299
0.000199772
0.000492458
0.000298207
0.00063685
0.000405123
0.000800942
0.000518562
0.000983634
0.000636586
0.00118331
0.00075729
0.00139792
0.000878857
0.0016251
0.000999633
0.00186225
0.00111823
0.00210658
0.00123361
0.0023552
0.0013452
0.0026051
0.00145263
0.00154795
0.00285472
1.27369e-06
-4.19742e-05
8.47309e-06
-8.72061e-05
2.42712e-05
-0.00010207
5.08987e-05
-9.25162e-05
9.02975e-05
-6.31064e-05
0.000144177
-1.73623e-05
0.000214019
4.19833e-05
0.000301045
0.000112746
0.000406166
0.000193086
0.000529934
0.000281355
0.000672509
0.000375988
0.000833644
0.000475451
0.00101272
0.000578219
0.00120878
0.000682796
0.00142065
0.000787764
0.001647
0.000891875
0.00188646
0.000994158
0.00213762
0.00109403
0.00239891
0.00119133
0.00127861
0.00266825
7.05409e-07
-4.26796e-05
5.77516e-06
-9.22759e-05
1.75894e-05
-0.000113884
3.81459e-05
-0.000113073
6.91909e-05
-9.41514e-05
0.000112284
-6.04555e-05
0.000168822
-1.45546e-05
0.000240031
4.15367e-05
0.000326945
0.000106173
0.000430369
0.00017793
0.000550862
0.000255494
0.00068873
0.000337583
0.000844048
0.000422902
0.00101673
0.000510114
0.00120664
0.000597848
0.00141381
0.000684709
0.00163868
0.000769286
0.00188264
0.00085007
0.00214828
0.000925692
0.000992223
0.00243467
2.02561e-07
-4.28821e-05
3.38628e-06
-9.54596e-05
1.16673e-05
-0.000122165
2.68277e-05
-0.000128233
5.04202e-05
-0.000117744
8.38325e-05
-9.38678e-05
0.000128321
-5.9043e-05
0.000185019
-1.51612e-05
0.000254929
3.62627e-05
0.000338908
9.39514e-05
0.00043765
0.000156753
0.000551683
0.00022355
0.000681395
0.00029319
0.000827095
0.000364414
0.000989163
0.00043578
0.00116832
0.00050555
0.00136616
0.000571445
0.00158639
0.000629848
0.00183867
0.000673409
0.000686743
0.00214415
-2.63019e-07
-4.26191e-05
1.2155e-06
-9.69381e-05
6.32762e-06
-0.000127277
1.66664e-05
-0.000138572
3.36065e-05
-0.000134684
5.83638e-05
-0.000118625
9.20314e-05
-9.27106e-05
0.000135597
-5.87266e-05
0.000189941
-1.80819e-05
0.000255829
2.80637e-05
0.000333888
7.86932e-05
0.000424591
0.000132847
0.000528231
0.00018955
0.000644894
0.000247751
0.000774421
0.000306253
0.000916317
0.000363653
0.00106953
0.00041823
0.00123166
0.000467725
0.00139594
0.000509125
0.000541191
0.00154149
-7.11523e-07
-4.19076e-05
-8.02565e-07
-9.68471e-05
1.44094e-06
-0.000129521
7.45462e-06
-0.000144585
1.84591e-05
-0.000145689
3.55129e-05
-0.000135679
5.95496e-05
-0.000116747
9.13975e-05
-9.05745e-05
0.000131784
-5.84683e-05
0.000181327
-2.14791e-05
0.000240514
1.95058e-05
0.000309675
6.36866e-05
0.000388934
0.000110291
0.00047816
0.000158524
0.000576882
0.000207531
0.000684192
0.000256344
0.000798632
0.00030379
0.000918059
0.000348298
0.0010397