/*--------------------------------*- C++ -*----------------------------------*\
  =========                 |
  \\      /  F ield         | OpenFOAM: The Open Source CFD Toolbox
   \\    /   O peration     | Website:  https://openfoam.org
    \\  /    A nd           | Version:  6.0
     \\/     M anipulation  |
\*---------------------------------------------------------------------------*/
FoamFile
{
    version     2.0;
    format      ascii;
    class       surfaceScalarField;
    location    "84";
    object      phi;
}
// * * * * * * * * * * * * * * * * * * * * * * * * * * * * * * * * * * * * * //

dimensions      [0 3 -1 0 0 0 0];

internalField   nonuniform List<scalar> 
7840
(
4.07375e-05
-0.000330408
0.00014004
-0.001019
0.000273831
-0.00168608
0.000418137
-0.00227383
0.00055372
-0.00274514
0.000668851
-0.00309027
0.000759086
-0.0033209
0.000825246
-0.00345977
0.000871034
-0.00353194
0.000901099
-0.0035595
0.000919829
-0.00355949
0.000930787
-0.00354383
0.000936592
-0.0035202
0.000939035
-0.00349327
0.000939286
-0.00346571
0.000938097
-0.00343902
0.00093595
-0.003414
0.000933165
-0.00339108
0.00092994
-0.00337046
-0.00335223
0.000926397
4.1605e-05
-0.000372013
0.000140018
-0.00111742
0.000268662
-0.00181472
0.000402904
-0.00240808
0.000524582
-0.00286682
0.000623885
-0.00318957
0.000698235
-0.00339525
0.000749764
-0.0035113
0.000782823
-0.003565
0.000802174
-0.00357885
0.000811984
-0.0035693
0.000815451
-0.00354729
0.000814812
-0.00351956
0.000811538
-0.00349
0.000806556
-0.00346073
0.000800448
-0.00343291
0.00079359
-0.00340714
0.000786231
-0.00338372
0.000778528
-0.00336275
-0.00334428
0.000770579
4.20087e-05
-0.000414022
0.000138348
-0.00121376
0.000260389
-0.00193676
0.000383398
-0.00253109
0.000490659
-0.00297408
0.000574343
-0.00327326
0.000633564
-0.00345447
0.000671508
-0.00354925
0.000692936
-0.00358643
0.000702554
-0.00358847
0.000704228
-0.00357097
0.000700774
-0.00354384
0.000694076
-0.00351287
0.000685321
-0.00348124
0.000675236
-0.00345064
0.000664269
-0.00342194
0.000652713
-0.00339558
0.000640765
-0.00337178
0.000628551
-0.00335054
-0.00333188
0.00061615
4.19299e-05
-0.000455952
0.000135059
-0.00130689
0.000249222
-0.00205092
0.000360109
-0.00264197
0.000452721
-0.00306669
0.000521179
-0.00334171
0.000566088
-0.00349938
0.000591436
-0.00357459
0.00060219
-0.00359718
0.000602884
-0.00358916
0.000597032
-0.00356512
0.000587078
-0.00353389
0.000574585
-0.00350037
0.0005605
-0.00346716
0.000545384
-0.00343553
0.000529582
-0.00340614
0.000513322
-0.00337932
0.000496762
-0.00335522
0.000480009
-0.00333378
-0.003315
0.000463127
4.13622e-05
-0.000497314
0.000130221
-0.00139574
0.000235425
-0.00215613
0.000333561
-0.00274011
0.000411519
-0.00314465
0.000465279
-0.00339547
0.000496711
-0.00353081
0.000510378
-0.00358826
0.000511294
-0.00359809
0.000503729
-0.00358159
0.000490833
-0.00355222
0.000474694
-0.00351775
0.000456594
-0.00348227
0.000437279
-0.00344784
0.000417176
-0.00341543
0.000396546
-0.00338551
0.000375569
-0.00335834
0.000354374
-0.00333402
0.000333052
-0.00331246
-0.00329361
0.000311663
4.03103e-05
-0.000537624
0.00012393
-0.00147936
0.00021929
-0.00225149
0.000304272
-0.00282509
0.000367745
-0.00320812
0.000407409
-0.00343514
0.000426177
-0.00354958
0.000428989
-0.00359107
0.000420771
-0.00358988
0.000405483
-0.00356631
0.000385906
-0.00353265
0.000363808
-0.00349565
0.000340227
-0.00345869
0.000315741
-0.00342336
0.00029067
-0.00339035
0.000265208
-0.00336005
0.000239495
-0.00333263
0.00021364
-0.00330817
0.000187727
-0.00328655
-0.00326769
0.000161809
3.8789e-05
-0.000576413
0.000116307
-0.00155688
0.000201125
-0.00233631
0.000272745
-0.00289671
0.000322035
-0.00325741
0.000348246
-0.00346135
0.000355121
-0.00355645
0.000347807
-0.00358376
0.000331049
-0.00357312
0.000308464
-0.00354372
0.000282482
-0.00350667
0.000254584
-0.00346775
0.000225603
-0.00342971
0.000195981
-0.00339373
0.000165949
-0.00336032
0.000135647
-0.00332974
0.00010518
-0.00330216
7.46442e-05
-0.00327763
4.41171e-05
-0.00325602
-0.00323723
1.36561e-05
3.68213e-05
-0.000613235
0.000107487
-0.00162755
0.000181242
-0.00241006
0.000239455
-0.00295492
0.000274957
-0.00329292
0.000288368
-0.00347476
0.000284065
-0.00355215
0.000267261
-0.00356696
0.000242453
-0.00354831
0.000212905
-0.00351417
0.00018072
-0.00347448
0.000147132
-0.00343416
0.000112801
-0.00339538
7.80584e-05
-0.00335899
4.30638e-05
-0.00332533
7.90897e-06
-0.00329459
-2.73279e-05
-0.00326693
-6.25652e-05
-0.00324239
-9.77225e-05
-0.00322086
-0.00320221
-0.000132737
3.44373e-05
-0.000647672
9.76184e-05
-0.00169073
0.000159948
-0.00247239
0.000204841
-0.00299982
0.000227014
-0.00331509
0.000228269
-0.00347601
0.000213441
-0.00353732
0.000187698
-0.00354121
0.000155242
-0.00351585
0.000118991
-0.00347792
8.07512e-05
-0.00343624
4.15412e-05
-0.00339495
1.88481e-06
-0.00335572
-3.7976e-05
-0.00331913
-7.79409e-05
-0.00328536
-0.00011796
-0.00325457
-0.000157983
-0.00322691
-0.000197938
-0.00320244
-0.000237738
-0.00318106
-0.00316264
-0.000277311
3.16727e-05
-0.000679345
8.68506e-05
-0.00174591
0.000137535
-0.00252307
0.000169304
-0.00303159
0.000178646
-0.00332443
0.000168367
-0.00346574
0.000143606
-0.00351256
0.000109398
-0.003507
6.96238e-05
-0.00347608
2.68689e-05
-0.00343517
-1.73249e-05
-0.00339205
-6.21179e-05
-0.00335016
-0.000107096
-0.00331075
-0.000152086
-0.00327414
-0.000197036
-0.00324041
-0.000241935
-0.00320967
-0.000286759
-0.00318208
-0.000331447
-0.00315775
-0.000375901
-0.00313661
-0.00311851
-0.000420032
2.85672e-05
-0.000707912
7.53358e-05
-0.00179268
0.000114281
-0.00256202
0.000133205
-0.00305051
0.000130239
-0.00332146
0.000109018
-0.00344451
7.48578e-05
-0.0034784
3.25912e-05
-0.00346474
-1.42306e-05
-0.00342926
-6.33368e-05
-0.00338606
-0.000113418
-0.00334197
-0.000163782
-0.00329979
-0.000214099
-0.00326043
-0.000264244
-0.00322399
-0.000314204
-0.00319045
-0.000364005
-0.00315987
-0.000413654
-0.00313243
-0.000463101
-0.0031083
-0.00051223
-0.00308748
-0.00306981
-0.000560929
2.51642e-05
-0.000733076
6.32237e-05
-0.00183073
9.04464e-05
-0.00258924
9.687e-05
-0.00305693
8.21286e-05
-0.00330672
5.05277e-05
-0.00341291
7.44849e-06
-0.00343532
-4.25234e-05
-0.00341477
-9.61697e-05
-0.00337561
-0.00015151
-0.00333072
-0.00020744
-0.00328604
-0.000263385
-0.00324385
-0.000319077
-0.00320474
-0.000374424
-0.00316865
-0.000429439
-0.00313544
-0.000484181
-0.00310513
-0.000538696
-0.00307792
-0.000592951
-0.00305405
-0.000646812
-0.00303362
-0.0030165
-0.000700124
2.15086e-05
-0.000754585
5.066e-05
-0.00185989
6.62708e-05
-0.00260485
6.05904e-05
-0.00305125
3.46092e-05
-0.00328074
-6.84033e-06
-0.00337146
-5.84013e-05
-0.00338376
-0.000115768
-0.0033574
-0.000176049
-0.00331533
-0.000237533
-0.00326924
-0.00029929
-0.00322428
-0.000360846
-0.00318229
-0.000421973
-0.00314361
-0.000482592
-0.00310803
-0.000542729
-0.0030753
-0.000602477
-0.00304538
-0.000661925
-0.00301847
-0.000721072
-0.0029949
-0.000779768
-0.00297492
-0.00295848
-0.000837791
1.76472e-05
-0.000772232
3.77849e-05
-0.00188002
4.19766e-05
-0.00260904
2.46283e-05
-0.0030339
-1.20585e-05
-0.00324405
-6.28522e-05
-0.00332067
-0.000122492
-0.00332412
-0.000186973
-0.00329292
-0.000253721
-0.00324858
-0.000321268
-0.00320169
-0.000388843
-0.0031567
-0.000456054
-0.00311508
-0.000522696
-0.00307697
-0.000588689
-0.00304204
-0.000654053
-0.00300994
-0.000718898
-0.00298054
-0.000783366
-0.002954
-0.000847508
-0.00293076
-0.00091117
-0.00291126
-0.00289563
-0.000974015
1.36268e-05
-0.000785859
2.47319e-05
-0.00189113
1.77677e-05
-0.00260208
-1.07811e-05
-0.00300536
-5.76426e-05
-0.00319719
-0.000117297
-0.00326102
-0.000184638
-0.00325678
-0.00025597
-0.00322159
-0.00032902
-0.00317553
-0.000402551
-0.00312816
-0.000475935
-0.00308332
-0.000548849
-0.00304217
-0.000621111
-0.00300471
-0.000692618
-0.00297053
-0.000763359
-0.0029392
-0.000833438
-0.00291046
-0.000903039
-0.0028844
-0.000972284
-0.00286151
-0.00104103
-0.00284252
-0.00282788
-0.00110878
9.49459e-06
-0.000795353
1.1627e-05
-0.00189326
-6.16942e-06
-0.00258428
-4.54266e-05
-0.0029661
-0.000101935
-0.00314068
-0.000169983
-0.00319297
-0.000244658
-0.00318211
-0.000322579
-0.00314366
-0.000401763
-0.00309635
-0.000481181
-0.00304874
-0.000560343
-0.00300416
-0.000639
-0.00296351
-0.000716993
-0.00292671
-0.000794198
-0.00289333
-0.000870547
-0.00286285
-0.000946093
-0.00283491
-0.00102103
-0.00280946
-0.00109557
-0.00278698
-0.00116958
-0.00276851
-0.00275497
-0.00124249
5.29648e-06
-0.00080065
-1.41182e-06
-0.00188655
-2.96657e-05
-0.00255603
-7.91195e-05
-0.00291665
-0.000144749
-0.00307506
-0.000220731
-0.00311699
-0.000302377
-0.00310046
-0.000386617
-0.00305942
-0.000471739
-0.00301123
-0.000556913
-0.00296357
-0.000641781
-0.00291929
-0.000726183
-0.00287911
-0.000810003
-0.00284289
-0.000893113
-0.00281022
-0.000975387
-0.00278057
-0.0010568
-0.0027535
-0.00113752
-0.00272874
-0.00121785
-0.00270664
-0.00129776
-0.00268861
-0.00267582
-0.00137691
1.07677e-06
-0.000801727
-1.42765e-05
-0.0018712
-5.25702e-05
-0.00251774
-0.000111693
-0.00285752
-0.000185919
-0.00300083
-0.000269377
-0.00303353
-0.000357623
-0.00301221
-0.000447889
-0.00296916
-0.000538715
-0.0029204
-0.000629459
-0.00287282
-0.000719899
-0.00282885
-0.000809979
-0.00278903
-0.000899668
-0.0027532
-0.000988883
-0.002721
-0.00107748
-0.00269198
-0.00116536
-0.00266562
-0.00125265
-0.00264145
-0.00133979
-0.0026195
-0.001427
-0.0026014
-0.00258791
-0.00151491
-3.12307e-06
-0.000798603
-2.68701e-05
-0.00184745
-7.47513e-05
-0.00246985
-0.000143006
-0.00278927
-0.000225304
-0.00291853
-0.000315777
-0.00294305
-0.000410235
-0.00291776
-0.000506194
-0.0028732
-0.000602429
-0.00282416
-0.000698471
-0.00277678
-0.000794233
-0.00273309
-0.000889795
-0.00269347
-0.000985268
-0.00265773
-0.00108071
-0.00262556
-0.00117609
-0.0025966
-0.00127131
-0.0025704
-0.00136641
-0.00254635
-0.00146181
-0.00252411
-0.00155813
-0.00250507
-0.00248791
-0.00165813
-7.26526e-06
-0.000791338
-3.9108e-05
-0.00181561
-9.6099e-05
-0.00241286
-0.000172942
-0.00271242
-0.00026279
-0.00282868
-0.000359817
-0.00284603
-0.000460078
-0.0028175
-0.000561354
-0.00277192
-0.000662623
-0.0027229
-0.000763558
-0.00267585
-0.000864193
-0.00263245
-0.000964737
-0.00259292
-0.00106548
-0.00255698
-0.00116677
-0.00252427
-0.00126891
-0.00249446
-0.00137215
-0.00246716
-0.00147663
-0.00244187
-0.001583
-0.00241774
-0.00169377
-0.0023943
-0.00238447
-0.0017972
-1.13032e-05
-0.000780035
-5.08983e-05
-0.00177601
-0.000116501
-0.00234726
-0.000201391
-0.00262753
-0.000298278
-0.0027318
-0.000401401
-0.0027429
-0.000507054
-0.00271184
-0.000613248
-0.00266573
-0.000719124
-0.00261702
-0.00082445
-0.00257052
-0.000929309
-0.0025276
-0.00103394
-0.00248829
-0.00113872
-0.00245221
-0.00124412
-0.00241887
-0.00135081
-0.00238776
-0.00145969
-0.00235829
-0.00157164
-0.00232992
-0.00168701
-0.00230237
-0.00180678
-0.00227453
-0.00223856
-0.00195269
-1.52326e-05
-0.000764802
-6.22253e-05
-0.00172902
-0.000135943
-0.00227354
-0.000228349
-0.00253513
-0.000331777
-0.00262837
-0.000440552
-0.00263413
-0.000551194
-0.0026012
-0.000661917
-0.00255501
-0.000771993
-0.00250694
-0.000881248
-0.00246127
-0.000989757
-0.00241909
-0.00109769
-0.00238035
-0.00120525
-0.00234465
-0.00131267
-0.00231145
-0.00142019
-0.00228024
-0.001528
-0.00225048
-0.00163615
-0.00222177
-0.00174491
-0.00219362
-0.00185505
-0.00216438
-0.0021302
-0.00196341
-1.90175e-05
-0.000745785
-7.30256e-05
-0.00167501
-0.000154355
-0.00219221
-0.000253759
-0.00243572
-0.000363253
-0.00251888
-0.00047726
-0.00252012
-0.000592512
-0.00248595
-0.000707406
-0.00244011
-0.000821327
-0.00239302
-0.000934153
-0.00234844
-0.00104597
-0.00230727
-0.00115694
-0.00226939
-0.00126722
-0.00223437
-0.00137695
-0.00220172
-0.00148622
-0.00217097
-0.00159504
-0.00214166
-0.00170338
-0.00211343
-0.0018112
-0.0020858
-0.00191773
-0.00205785
-0.00202871
-0.00201923
-2.26402e-05
-0.000723145
-8.32691e-05
-0.00161438
-0.000171714
-0.00210377
-0.000277618
-0.00232982
-0.000392726
-0.00240377
-0.00051157
-0.00240128
-0.00063108
-0.00236644
-0.000749814
-0.00232138
-0.000867249
-0.00227559
-0.000983297
-0.00223239
-0.00109804
-0.00219253
-0.00121159
-0.00215583
-0.00132407
-0.00212189
-0.00143553
-0.00209026
-0.00154599
-0.00206051
-0.00165536
-0.00203229
-0.00176349
-0.0020053
-0.00187009
-0.00197919
-0.00197446
-0.00195348
-0.00192769
-0.00207548
-2.60866e-05
-0.000697058
-9.29356e-05
-0.00154754
-0.000188008
-0.0020087
-0.000299934
-0.00221789
-0.000420232
-0.00228347
-0.000543547
-0.00227796
-0.000666998
-0.00224299
-0.000789289
-0.00219909
-0.000909982
-0.0021549
-0.00102902
-0.00211335
-0.00114649
-0.00207506
-0.0012625
-0.00203983
-0.00137712
-0.00200727
-0.00149039
-0.00197699
-0.00160229
-0.00194861
-0.00171275
-0.00192184
-0.00182162
-0.00189643
-0.00192863
-0.00187217
-0.00203338
-0.00184873
-0.00182585
-0.00213522
-2.93464e-05
-0.000667712
-0.000102013
-0.00147487
-0.00020324
-0.00190747
-0.000320731
-0.0021004
-0.000445818
-0.00215838
-0.000573265
-0.00215052
-0.000700364
-0.00211589
-0.000825957
-0.00207349
-0.000949679
-0.00203117
-0.00107151
-0.00199152
-0.00119155
-0.00195502
-0.00130989
-0.00192149
-0.00142661
-0.00189055
-0.00154174
-0.00186186
-0.00165527
-0.00183508
-0.00176715
-0.00180996
-0.00187726
-0.00178632
-0.00198545
-0.00176398
-0.00209152
-0.00174266
-0.00172219
-0.00219518
-3.2412e-05
-0.0006353
-0.000110495
-0.00139679
-0.000217414
-0.00180055
-0.000340035
-0.00197778
-0.000469536
-0.00202888
-0.000600797
-0.00201925
-0.000731279
-0.00198541
-0.000859944
-0.00194483
-0.000986501
-0.00190462
-0.00111096
-0.00186705
-0.00123344
-0.00183254
-0.00135404
-0.00180088
-0.00147285
-0.00177174
-0.00158992
-0.00174479
-0.00170526
-0.00171974
-0.00181885
-0.00169638
-0.00193064
-0.00167453
-0.00204056
-0.00165405
-0.00214853
-0.00163469
-0.00161634
-0.00225439
-3.52779e-05
-0.000600022
-0.00011838
-0.00131368
-0.000230544
-0.00168839
-0.000357878
-0.00185045
-0.000491434
-0.00189533
-0.000626212
-0.00188448
-0.000759825
-0.00185179
-0.000891351
-0.0018133
-0.00102056
-0.0017754
-0.00114751
-0.0017401
-0.00127233
-0.00170773
-0.00139513
-0.00167808
-0.00151602
-0.00165085
-0.00163507
-0.00162574
-0.00175232
-0.00160249
-0.00186779
-0.00158091
-0.00198148
-0.00156084
-0.00209339
-0.00154214
-0.0022035
-0.00152458
-0.0015081
-0.00231174
-3.79401e-05
-0.000562082
-0.000125667
-0.00122596
-0.00024264
-0.00157141
-0.000374287
-0.0017188
-0.000511557
-0.00175806
-0.000649567
-0.00174647
-0.000786074
-0.00171529
-0.000920258
-0.00167912
-0.00105196
-0.0016437
-0.00118125
-0.00161081
-0.00130829
-0.00158069
-0.00143322
-0.00155315
-0.00155616
-0.00152791
-0.0016772
-0.0015047
-0.00179641
-0.00148328
-0.00191384
-0.00146347
-0.00202954
-0.00144515
-0.00214354
-0.00142814
-0.00225586
-0.00141225
-0.00139746
-0.00236651
-4.03953e-05
-0.000521686
-0.000132357
-0.001134
-0.000253715
-0.00145005
-0.000389287
-0.00158323
-0.000529943
-0.0016174
-0.000670911
-0.0016055
-0.000810079
-0.00157612
-0.000946723
-0.00154247
-0.00108074
-0.00150969
-0.00121223
-0.00147931
-0.00134139
-0.00145154
-0.00146835
-0.00142619
-0.00159327
-0.00140299
-0.00171626
-0.00138171
-0.00183741
-0.00136213
-0.00195681
-0.00134408
-0.00207452
-0.00132744
-0.00219061
-0.00131205
-0.00230513
-0.00129773
-0.00128448
-0.00241811
-4.26409e-05
-0.000479046
-0.00013845
-0.00103819
-0.000263779
-0.00132473
-0.000402901
-0.00144411
-0.000546623
-0.00147368
-0.000690279
-0.00146184
-0.00083188
-0.00143452
-0.000970785
-0.00140357
-0.00110694
-0.00137354
-0.00124049
-0.00134576
-0.00137162
-0.00132041
-0.00150051
-0.0012973
-0.00162732
-0.00127618
-0.00175218
-0.00125685
-0.00187521
-0.00123909
-0.00199651
-0.00122278
-0.00211617
-0.00120778
-0.00223428
-0.00119395
-0.00235091
-0.0011811
-0.00116929
-0.0024661
-4.46744e-05
-0.000434371
-0.000143949
-0.000938913
-0.00027284
-0.00119583
-0.000415144
-0.0013018
-0.000561619
-0.0013272
-0.000707699
-0.00131576
-0.000851503
-0.00129072
-0.000992467
-0.0012626
-0.00113058
-0.00123542
-0.00126601
-0.00121033
-0.00139897
-0.00118745
-0.00152966
-0.00116661
-0.00165824
-0.0011476
-0.00178487
-0.00113022
-0.00190967
-0.00111429
-0.00203277
-0.00109968
-0.00215428
-0.00108627
-0.00227429
-0.00107394
-0.00239288
-0.00106251
-0.00105205
-0.00251012
-4.64936e-05
-0.000387877
-0.000148851
-0.000836556
-0.000280903
-0.00106378
-0.000426028
-0.00115668
-0.000574948
-0.00117828
-0.000723189
-0.00116752
-0.000868964
-0.00114494
-0.00101178
-0.00111979
-0.00115166
-0.00109554
-0.00128881
-0.00107318
-0.00142344
-0.00105282
-0.00155576
-0.00103428
-0.00168597
-0.00101739
-0.00181422
-0.00100196
-0.00194067
-0.000987846
-0.00206543
-0.000974916
-0.00218863
-0.00096307
-0.00231039
-0.000952185
-0.00243078
-0.000942115
-0.000932936
-0.00254989
-4.80961e-05
-0.000339781
-0.000153156
-0.000731496
-0.000287972
-0.000928966
-0.000435563
-0.00100909
-0.000586622
-0.00102722
-0.000736759
-0.00101738
-0.000884272
-0.000997426
-0.00102872
-0.000975337
-0.00117018
-0.000954088
-0.00130885
-0.000934515
-0.00144497
-0.000916694
-0.00157877
-0.000900487
-0.00171044
-0.000885723
-0.00184015
-0.000872247
-0.00196807
-0.000859927
-0.00209434
-0.000848654
-0.00221907
-0.000838337
-0.00234239
-0.000828864
-0.0024644
-0.00082011
-0.000812154
-0.00258518
-4.94796e-05
-0.000290302
-0.000156863
-0.000624112
-0.000294049
-0.00079178
-0.000443752
-0.000859385
-0.000596647
-0.000874328
-0.000748415
-0.000865617
-0.000897428
-0.000848414
-0.0010433
-0.000829466
-0.00118612
-0.000811271
-0.00132611
-0.000794519
-0.00146354
-0.000779269
-0.00159862
-0.000765401
-0.00173158
-0.00075277
-0.00186258
-0.000741244
-0.0019918
-0.00073071
-0.00211937
-0.000721076
-0.00224545
-0.000712262
-0.00237014
-0.00070417
-0.00249355
-0.000696698
-0.000689919
-0.00261579
-5.06421e-05
-0.00023966
-0.00015997
-0.000514785
-0.000299134
-0.000652615
-0.000450599
-0.00070792
-0.000605027
-0.000719901
-0.000758159
-0.000712485
-0.00090843
-0.000698143
-0.00105549
-0.000682404
-0.00119946
-0.000667304
-0.00134058
-0.000653401
-0.00147911
-0.00064074
-0.00161528
-0.000629223
-0.00174933
-0.000618729
-0.00188142
-0.000609149
-0.00201174
-0.000600391
-0.00214044
-0.00059238
-0.00226765
-0.000585047
-0.00239351
-0.000578313
-0.00251811
-0.000572093
-0.000566454
-0.00264158
-5.15816e-05
-0.000188078
-0.000162474
-0.000403892
-0.000303227
-0.000511862
-0.000456105
-0.000555042
-0.000611762
-0.000564244
-0.000765991
-0.000558256
-0.000917274
-0.00054686
-0.0010653
-0.00053438
-0.00121019
-0.000522407
-0.00135222
-0.000511375
-0.00149164
-0.000501318
-0.00162871
-0.000492158
-0.00176363
-0.000483802
-0.00189662
-0.000476166
-0.00202783
-0.000469177
-0.00215744
-0.000462774
-0.00228558
-0.000456907
-0.00241238
-0.00045151
-0.00253795
-0.00044652
-0.00044199
-0.00266242
-5.22965e-05
-0.000135782
-0.000164374
-0.000291814
-0.000306327
-0.000369909
-0.00046027
-0.000401099
-0.000616854
-0.00040766
-0.000771909
-0.000403202
-0.000923956
-0.000394812
-0.00107271
-0.00038563
-0.00121831
-0.000376807
-0.00136102
-0.000368661
-0.00150112
-0.000361217
-0.00163886
-0.00035442
-0.00177446
-0.000348204
-0.00190812
-0.000342508
-0.00204001
-0.00033728
-0.00217031
-0.000332478
-0.00229915
-0.000328062
-0.00242668
-0.000323989
-0.00255298
-0.000320211
-0.000316767
-0.00267821
-5.27853e-05
-8.29962e-05
-0.000165669
-0.000178931
-0.000308433
-0.000227145
-0.000463094
-0.000246438
-0.0006203
-0.000250454
-0.00077591
-0.000247591
-0.000928472
-0.000242251
-0.00107771
-0.00023639
-0.00122378
-0.000230734
-0.00136696
-0.000225484
-0.00150752
-0.000220659
-0.00164571
-0.000216228
-0.00178176
-0.000212152
-0.00191588
-0.000208394
-0.00204824
-0.000204923
-0.002179
-0.000201713
-0.00230832
-0.000198741
-0.00243633
-0.00019598
-0.00256314
-0.000193402
-0.000191027
-0.00268888
-5.30472e-05
-2.9949e-05
-0.000166356
-6.56215e-05
-0.000309544
-8.39575e-05
-0.000464576
-9.1406e-05
-0.000622101
-9.29287e-05
-0.000777995
-9.1698e-05
-0.000930817
-8.9428e-05
-0.00108031
-8.69025e-05
-0.00122662
-8.44203e-05
-0.00137003
-8.20709e-05
-0.00151082
-7.98684e-05
-0.00164925
-7.78049e-05
-0.00178553
-7.58683e-05
-0.00191988
-7.40468e-05
-0.00205247
-7.23299e-05
-0.00218347
-7.07086e-05
-0.00231304
-6.91749e-05
-0.0024413
-6.77202e-05
-0.00256837
-6.63352e-05
-6.50198e-05
-0.00269437
-5.30818e-05
2.31328e-05
-0.000166436
4.7733e-05
-0.00030966
5.92661e-05
-0.000464716
6.36496e-05
-0.000622256
6.46121e-05
-0.00077816
6.4206e-05
-0.000930991
6.3403e-05
-0.00108049
6.25927e-05
-0.00122681
6.19002e-05
-0.00137023
6.13485e-05
-0.00151102
6.09287e-05
-0.00164945
6.0625e-05
-0.00178574
6.04222e-05
-0.0019201
6.03077e-05
-0.0020527
6.02711e-05
-0.00218371
6.03047e-05
-0.00231329
6.04012e-05
-0.00244156
6.05508e-05
-0.00256864
6.07443e-05
6.10026e-05
-0.00269466
-5.28895e-05
7.60222e-05
-0.00016591
0.000160753
-0.000308782
0.000202138
-0.000463515
0.000218382
-0.000620767
0.000221865
-0.000776409
0.000219848
-0.000928995
0.000215989
-0.00107826
0.000211853
-0.00122435
0.000207993
-0.00136754
0.000204545
-0.00150812
0.000201506
-0.00164633
0.000198836
-0.00178241
0.000196495
-0.00191654
0.000194444
-0.00204892
0.000192653
-0.00217972
0.000191096
-0.00230907
0.000189753
-0.00243711
0.000188593
-0.00256396
0.000187591
0.000186786
-0.00268974
-5.24704e-05
0.000128493
-0.000164777
0.00027306
-0.00030691
0.000344271
-0.000460973
0.000372446
-0.000617634
0.000378525
-0.000772741
0.000374956
-0.00092483
0.000368077
-0.00107362
0.000360639
-0.00121925
0.000353625
-0.00136199
0.00034729
-0.00150212
0.000341638
-0.00163989
0.000336606
-0.00177553
0.000332127
-0.00190922
0.000328138
-0.00204116
0.000324588
-0.0021715
0.000321437
-0.00230039
0.000318646
-0.00242797
0.00031617
-0.00255434
0.000313962
0.000312081
-0.00267963
-5.18255e-05
0.000180318
-0.000163039
0.000384273
-0.000304045
0.000485278
-0.000457092
0.000525492
-0.000612857
0.00053429
-0.000767159
0.000529258
-0.000918499
0.000519417
-0.00106657
0.000508711
-0.00121151
0.000498566
-0.00135358
0.000489358
-0.00149304
0.000481102
-0.00163015
0.000473714
-0.00176512
0.000467098
-0.00189816
0.00046117
-0.00202942
0.000455857
-0.00215909
0.000451101
-0.0022873
0.000446853
-0.00241417
0.000443047
-0.00253983
0.000439619
0.000436641
-0.00266439
-5.09564e-05
0.000231274
-0.000160698
0.000494015
-0.00030019
0.000624769
-0.000451872
0.000677175
-0.000606439
0.000688857
-0.000759665
0.000682484
-0.000910008
0.000669759
-0.00105713
0.000655834
-0.00120115
0.000642589
-0.00134232
0.00063053
-0.00148091
0.000619683
-0.00161714
0.000609946
-0.00175123
0.000601196
-0.00188339
0.000593325
-0.00201377
0.000586241
-0.00214254
0.00057987
-0.00226984
0.000574148
-0.00239579
0.000568996
-0.0025205
0.000564328
0.000560225
-0.00264408
-4.98649e-05
0.000281139
-0.000157757
0.000601907
-0.000295345
0.000762357
-0.000445315
0.000827145
-0.00059838
0.000841923
-0.000750262
0.000834366
-0.000899361
0.000818858
-0.0010453
0.000801777
-0.00118819
0.000785472
-0.00132825
0.000770588
-0.00146573
0.00075717
-0.00160088
0.000745094
-0.0017339
0.000734213
-0.00186497
0.000724397
-0.00199426
0.000715533
-0.00212192
0.000707532
-0.00224809
0.000700318
-0.00237289
0.000693795
-0.00249642
0.00068786
0.000682599
-0.0026188
-4.85531e-05
0.000329692
-0.000154218
0.000707571
-0.000289512
0.000897652
-0.00043742
0.000975053
-0.000588681
0.000993184
-0.000738952
0.000984637
-0.000886566
0.000966472
-0.0010311
0.000946312
-0.00117263
0.000926999
-0.00131137
0.000909327
-0.00144756
0.000893361
-0.00158143
0.00087896
-0.00171317
0.000865955
-0.00184296
0.00085419
-0.00197096
0.000843535
-0.00209732
0.000833886
-0.00222215
0.000825154
-0.00234559
0.000817233
-0.00246773
0.000809997
0.000803533
-0.00258866
-4.70233e-05
0.000376716
-0.000150083
0.000810631
-0.000282692
0.00103026
-0.000428187
0.00112055
-0.00057734
0.00114234
-0.000725734
0.00113303
-0.000871623
0.00111236
-0.00101453
0.00108922
-0.0011545
0.00106696
-0.00129172
0.00104655
-0.00142642
0.00102806
-0.00155882
0.00101136
-0.0016891
0.000996238
-0.00181743
0.000982523
-0.00194397
0.000970065
-0.00206883
0.000958747
-0.00219214
0.000948467
-0.00231402
0.00093911
-0.00243455
0.000930532
0.00092281
-0.00255383
-4.52782e-05
0.000421994
-0.000145356
0.000910709
-0.000274885
0.00115979
-0.000417611
0.00126327
-0.000564351
0.00128908
-0.000710605
0.00127929
-0.000854534
0.00125629
-0.0009956
0.00123029
-0.0011338
0.00120516
-0.00126931
0.00118206
-0.00140235
0.0011611
-0.00153311
0.00114212
-0.00166177
0.0011249
-0.00178848
0.00110923
-0.00191337
0.00109496
-0.00203657
0.00108195
-0.00215819
0.00107008
-0.00227833
0.00105925
-0.00239707
0.00104927
0.00104022
-0.00251448
-4.33202e-05
0.000465314
-0.000140038
0.00100743
-0.000266088
0.00128584
-0.000405687
0.00140287
-0.000549706
0.0014331
-0.000693556
0.00142313
-0.000835293
0.00139803
-0.000974307
0.0013693
-0.00111055
0.00134141
-0.00124418
0.00131569
-0.00137539
0.00129231
-0.00150436
0.00127109
-0.00163124
0.00125178
-0.00175619
0.00123418
-0.00187931
0.00121808
-0.0020007
0.00120334
-0.00212048
0.00118986
-0.00223871
0.00117748
-0.00235549
0.00116605
0.00115558
-0.00247085
-4.11522e-05
0.000506466
-0.00013413
0.0011004
-0.000256297
0.00140801
-0.000392404
0.00153898
-0.000533391
0.00157408
-0.000674571
0.00156431
-0.000813887
0.00153734
-0.000950645
0.00150606
-0.00108475
0.00147552
-0.00121633
0.00144727
-0.00134556
0.00142153
-0.0014726
0.00139812
-0.00159759
0.00137677
-0.00172066
0.00135724
-0.00184189
0.00133932
-0.00196138
0.00132283
-0.0020792
0.00130767
-0.00219541
0.0012937
-0.00231008
0.00128071
0.00126873
-0.00242323
-3.8777e-05
0.000545243
-0.000127633
0.00118926
-0.000245507
0.00152588
-0.000377749
0.00167122
-0.000515386
0.00171172
-0.000653627
0.00170256
-0.000790291
0.00167401
-0.000924594
0.00164036
-0.00105639
0.00160731
-0.00118577
0.00157665
-0.00131288
0.00154865
-0.00143787
0.00152312
-0.00156088
0.00149978
-0.00168198
0.00147835
-0.00180127
0.0014586
-0.00191879
0.00144035
-0.00203458
0.00142347
-0.0021487
0.00140782
-0.00226117
0.00139319
0.00137954
-0.00237198
-3.61978e-05
0.000581441
-0.000120547
0.00127361
-0.00023371
0.00163904
-0.000361703
0.00179922
-0.000495663
0.00184568
-0.000630692
0.00183758
-0.000764472
0.00180779
-0.00089612
0.00177201
-0.00102543
0.00173662
-0.00115245
0.00170368
-0.00127733
0.00167352
-0.00140019
0.00164598
-0.00152114
0.00162072
-0.00164025
0.00159746
-0.00175756
0.00157592
-0.00187311
0.0015559
-0.00198689
0.00153725
-0.00209891
0.00151984
-0.00220915
0.00150343
0.00148795
-0.00231756
-3.34181e-05
0.000614859
-0.000112875
0.00135307
-0.000220896
0.00174706
-0.000344246
0.00192256
-0.000474189
0.00197562
-0.000605721
0.00196912
-0.000736379
0.00193845
-0.000865167
0.0019008
-0.000991816
0.00186327
-0.00111635
0.00182821
-0.00123888
0.00179606
-0.00135953
0.00176663
-0.00147838
0.00173957
-0.00159549
0.00171457
-0.00171088
0.0016913
-0.00182453
0.00166955
-0.0019364
0.00164912
-0.00204642
0.00162987
-0.00215453
0.00161153
0.00159398
-0.00226055
-3.04427e-05
0.000645302
-0.000104616
0.00142724
-0.000207058
0.00184951
-0.000325351
0.00204086
-0.000450925
0.0021012
-0.000578663
0.00209685
-0.000705947
0.00206573
-0.000831663
0.00202652
-0.000955473
0.00198708
-0.00107737
0.0019501
-0.00119744
0.00191613
-0.00131581
0.00188499
-0.00143256
0.00185632
-0.00154771
0.00182972
-0.00166128
0.00180487
-0.0017732
0.00178147
-0.00188338
0.0017593
-0.00199167
0.00173816
-0.00209787
0.00171774
0.00169781
-0.00220171
-2.72775e-05
0.000672579
-9.57766e-05
0.00149574
-0.000192186
0.00194592
-0.000304995
0.00215367
-0.000425825
0.00222203
-0.000549454
0.00222048
-0.000673097
0.00218937
-0.000795512
0.00214893
-0.000916285
0.00210785
-0.00103537
0.00206919
-0.00115287
0.00203363
-0.00126888
0.00200101
-0.0013835
0.00197094
-0.00149677
0.00194299
-0.00160868
0.00191678
-0.00171916
0.00189194
-0.00182807
0.00186821
-0.00193517
0.00184526
-0.00204004
0.00182261
0.00179986
-0.00214209
-2.39305e-05
0.00069651
-8.63635e-05
0.00155817
-0.000176277
0.00203583
-0.000283154
0.00226055
-0.000398845
0.00233772
-0.000518028
0.00233967
-0.000637739
0.00230908
-0.000756595
0.00226779
-0.000874101
0.00222536
-0.000990185
0.00218528
-0.00110493
0.00214838
-0.00121848
0.00211455
-0.00133094
0.00208339
-0.00144238
0.00205444
-0.00155282
0.00202722
-0.0016622
0.00200132
-0.00177037
0.00197638
-0.00187705
0.00195195
-0.00198158
0.00192713
0.00190111
-0.00208282
-2.04126e-05
0.000716923
-7.63911e-05
0.00161415
-0.000159335
0.00211877
-0.000259812
0.00236102
-0.000369946
0.00244785
-0.000484319
0.00245404
-0.000599781
0.00242454
-0.000714794
0.0023828
-0.000828775
0.00233934
-0.000941617
0.00229812
-0.00105342
0.00226018
-0.00116434
0.00222547
-0.00127454
0.0021936
-0.00138419
0.00216408
-0.00149338
0.0021364
-0.00160213
0.00211007
-0.00171043
0.00208469
-0.00181825
0.00205976
-0.00192484
0.00203372
0.00200288
-0.00202661
-1.67382e-05
0.000733661
-6.58816e-05
0.00166329
-0.000141374
0.00219426
-0.000234964
0.00245461
-0.000339097
0.00255199
-0.00044827
0.00256321
-0.000559131
0.00253541
-0.000669971
0.00249364
-0.000780094
0.00244946
-0.000889344
0.00240737
-0.000997807
0.00236864
-0.00110567
0.00233333
-0.00121314
0.00230108
-0.00132048
0.00227142
-0.00142795
0.00224388
-0.00153577
0.00221789
-0.00164402
0.00219293
-0.00175291
0.00216865
-0.00186313
0.00214394
0.0021114
-0.00197165
-1.29254e-05
0.000746586
-5.48672e-05
0.00170524
-0.000122424
0.00226182
-0.000208623
0.00254081
-0.000306288
0.00264965
-0.000409845
0.00266677
-0.000515731
0.00264129
-0.000622039
0.00259995
-0.00072795
0.00255538
-0.000833253
0.00251267
-0.000938043
0.00247343
-0.00104258
0.00243787
-0.00114724
0.00240573
-0.00125251
0.0023767
-0.00135907
0.00235044
-0.00146778
0.0023266
-0.00157948
0.00230463
-0.00169452
0.00228368
-0.00181382
0.00226324
0.00225561
-0.00195803
-9.00942e-06
0.000755596
-4.34117e-05
0.00173964
-0.000102554
0.00232096
-0.000180849
0.00261911
-0.000271561
0.00274036
-0.000369064
0.00276427
-0.000469574
0.0027418
-0.000570964
0.00270134
-0.000672254
0.00265667
-0.00077314
0.00261356
-0.000873665
0.00257396
-0.000974042
0.00253824
-0.00107456
0.00250625
-0.00117554