/*--------------------------------*- C++ -*----------------------------------*\
  =========                 |
  \\      /  F ield         | OpenFOAM: The Open Source CFD Toolbox
   \\    /   O peration     | Website:  https://openfoam.org
    \\  /    A nd           | Version:  6.0
     \\/     M anipulation  |
\*---------------------------------------------------------------------------*/
FoamFile
{
    version     2.0;
    format      ascii;
    class       volScalarField;
    location    "47";
    object      p;
}
// * * * * * * * * * * * * * * * * * * * * * * * * * * * * * * * * * * * * * //

dimensions      [0 2 -2 0 0 0 0];

internalField   nonuniform List<scalar> 
12500
(
-0.252148
-0.252883
-0.253391
-0.253779
-0.254111
-0.254393
-0.254635
-0.254845
-0.25503
-0.255196
-0.255347
-0.255485
-0.255615
-0.255738
-0.255858
-0.255976
-0.256095
-0.256218
-0.256346
-0.256481
-0.25663
-0.256794
-0.256935
-0.257031
-0.257462
-0.252026
-0.252781
-0.253303
-0.253699
-0.254037
-0.254324
-0.254568
-0.25478
-0.254966
-0.255131
-0.255279
-0.255415
-0.25554
-0.255658
-0.255771
-0.255881
-0.255991
-0.256104
-0.25622
-0.256343
-0.256478
-0.256626
-0.25675
-0.256826
-0.257243
-0.251968
-0.252745
-0.253278
-0.253681
-0.254023
-0.254311
-0.254556
-0.254766
-0.254948
-0.255109
-0.255252
-0.25538
-0.255497
-0.255606
-0.255708
-0.255806
-0.255903
-0.256
-0.256101
-0.256207
-0.256325
-0.256455
-0.256558
-0.256611
-0.257013
-0.25198
-0.252776
-0.253319
-0.253727
-0.254071
-0.254359
-0.2546
-0.254805
-0.254981
-0.255134
-0.255267
-0.255384
-0.255489
-0.255583
-0.25567
-0.255752
-0.255831
-0.25591
-0.255991
-0.256076
-0.256173
-0.256281
-0.256362
-0.256388
-0.256775
-0.252064
-0.252879
-0.253431
-0.253841
-0.254185
-0.254469
-0.254704
-0.254901
-0.255067
-0.255207
-0.255327
-0.255429
-0.255517
-0.255593
-0.25566
-0.25572
-0.255777
-0.255832
-0.255888
-0.255949
-0.256021
-0.256105
-0.25616
-0.256156
-0.256527
-0.252226
-0.253057
-0.253616
-0.254028
-0.254367
-0.254645
-0.254871
-0.255056
-0.255207
-0.255332
-0.255434
-0.255516
-0.255583
-0.255635
-0.255677
-0.255711
-0.25574
-0.255766
-0.255793
-0.255824
-0.255867
-0.255922
-0.255948
-0.255912
-0.256267
-0.252469
-0.253316
-0.25388
-0.254289
-0.254622
-0.25489
-0.255103
-0.255272
-0.255406
-0.255511
-0.25559
-0.255648
-0.255688
-0.255712
-0.255724
-0.255725
-0.25572
-0.255712
-0.255703
-0.255699
-0.255706
-0.255729
-0.255722
-0.255649
-0.255989
-0.2528
-0.253659
-0.254225
-0.254629
-0.254953
-0.255207
-0.255403
-0.255553
-0.255666
-0.255746
-0.255798
-0.255827
-0.255835
-0.255825
-0.255799
-0.255762
-0.255717
-0.255667
-0.255616
-0.255569
-0.255535
-0.25552
-0.255475
-0.255361
-0.255684
-0.253223
-0.254091
-0.254655
-0.255051
-0.255362
-0.2556
-0.255776
-0.255902
-0.255988
-0.25604
-0.25606
-0.256055
-0.256025
-0.255974
-0.255906
-0.255823
-0.255729
-0.255629
-0.255528
-0.25543
-0.255348
-0.255286
-0.255197
-0.255037
-0.255342
-0.253743
-0.254616
-0.255176
-0.25556
-0.255855
-0.256071
-0.256223
-0.256322
-0.256378
-0.256395
-0.25638
-0.256334
-0.256261
-0.256164
-0.256045
-0.255909
-0.255758
-0.255599
-0.255437
-0.255279
-0.255138
-0.255021
-0.254879
-0.254665
-0.25495
-0.254367
-0.255239
-0.25579
-0.256159
-0.256432
-0.256624
-0.256747
-0.256815
-0.256836
-0.256817
-0.25676
-0.25667
-0.256548
-0.256397
-0.256221
-0.256022
-0.255806
-0.255577
-0.255343
-0.255113
-0.2549
-0.254717
-0.25451
-0.254231
-0.254494
-0.255098
-0.255965
-0.256502
-0.25685
-0.257099
-0.257261
-0.257353
-0.257385
-0.257368
-0.257306
-0.257205
-0.257065
-0.256889
-0.256679
-0.256438
-0.256168
-0.255875
-0.255566
-0.255247
-0.254929
-0.254631
-0.254365
-0.254079
-0.253721
-0.253956
-0.255944
-0.256797
-0.257314
-0.257638
-0.257856
-0.257986
-0.258041
-0.258034
-0.257975
-0.257868
-0.257717
-0.257524
-0.25729
-0.257015
-0.256702
-0.256353
-0.255974
-0.255571
-0.255152
-0.254731
-0.254327
-0.25396
-0.253575
-0.253118
-0.253317
-0.256908
-0.25774
-0.258231
-0.258524
-0.258708
-0.258799
-0.258813
-0.258764
-0.25866
-0.258505
-0.258302
-0.258052
-0.257755
-0.257411
-0.25702
-0.256585
-0.256109
-0.2556
-0.255066
-0.254522
-0.253992
-0.253498
-0.252988
-0.252407
-0.252554
-0.257995
-0.258796
-0.259254
-0.25951
-0.259654
-0.259702
-0.259672
-0.259576
-0.259423
-0.259218
-0.258961
-0.258653
-0.258291
-0.257874
-0.257401
-0.256873
-0.256292
-0.255664
-0.254999
-0.254312
-0.25363
-0.252981
-0.252312
-0.25157
-0.251645
-0.25921
-0.259969
-0.260386
-0.260599
-0.260695
-0.260695
-0.260615
-0.26047
-0.260266
-0.260008
-0.259695
-0.259327
-0.258899
-0.258408
-0.257851
-0.257226
-0.256533
-0.255777
-0.254965
-0.254113
-0.253252
-0.252413
-0.251544
-0.250594
-0.250562
-0.260554
-0.261261
-0.261629
-0.26179
-0.261833
-0.261778
-0.261644
-0.261443
-0.261185
-0.260872
-0.260502
-0.260073
-0.25958
-0.259015
-0.258373
-0.257649
-0.256841
-0.255948
-0.254977
-0.25394
-0.25287
-0.251804
-0.250685
-0.249463
-0.249274
-0.262032
-0.262674
-0.262983
-0.263084
-0.263065
-0.262949
-0.262753
-0.262493
-0.262177
-0.261805
-0.261377
-0.260888
-0.260328
-0.259691
-0.258966
-0.258145
-0.25722
-0.256187
-0.255046
-0.253808
-0.252502
-0.251167
-0.249741
-0.248167
-0.24775
-0.263644
-0.264211
-0.26445
-0.264482
-0.264392
-0.264205
-0.263941
-0.263614
-0.263234
-0.262801
-0.262311
-0.26176
-0.261136
-0.260427
-0.259622
-0.258706
-0.257666
-0.256493
-0.25518
-0.253729
-0.252163
-0.250519
-0.248723
-0.246702
-0.245953
-0.265394
-0.265872
-0.26603
-0.265983
-0.265812
-0.265544
-0.265202
-0.264801
-0.264349
-0.263848
-0.263293
-0.262676
-0.261986
-0.261208
-0.260325
-0.259318
-0.25817
-0.256862
-0.255377
-0.253708
-0.251866
-0.249879
-0.247652
-0.245069
-0.243847
-0.267283
-0.267661
-0.267728
-0.267589
-0.267324
-0.266964
-0.266532
-0.266046
-0.265513
-0.264936
-0.264308
-0.263622
-0.262864
-0.262015
-0.261056
-0.259964
-0.258714
-0.25728
-0.255634
-0.253753
-0.251633
-0.249283
-0.246574
-0.243311
-0.241432
-0.269317
-0.269583
-0.269545
-0.269302
-0.26893
-0.268463
-0.267929
-0.267344
-0.266719
-0.266055
-0.265346
-0.264583
-0.26375
-0.262829
-0.261796
-0.260625
-0.259285
-0.257742
-0.255957
-0.253889
-0.251512
-0.248813
-0.245616
-0.241592
-0.238826
-0.271501
-0.271643
-0.271488
-0.271126
-0.270632
-0.270044
-0.269391
-0.268694
-0.267962
-0.267198
-0.266397
-0.265548
-0.264635
-0.263639
-0.262535
-0.261294
-0.259882
-0.258259
-0.256374
-0.254169
-0.251589
-0.248588
-0.24493
-0.240051
-0.236005
-0.273844
-0.27385
-0.273564
-0.273068
-0.272435
-0.27171
-0.270923
-0.270097
-0.269244
-0.268366
-0.26746
-0.266515
-0.265516
-0.264445
-0.263277
-0.261986
-0.260538
-0.258892
-0.256991
-0.254758
-0.252099
-0.248897
-0.24475
-0.238634
-0.232434
-0.276359
-0.276216
-0.275784
-0.275138
-0.274351
-0.27347
-0.272532
-0.271561
-0.270571
-0.269566
-0.268543
-0.267494
-0.266406
-0.265263
-0.264048
-0.262743
-0.261325
-0.259772
-0.258054
-0.256123
-0.253914
-0.251291
-0.247688
-0.241662
-0.234655
-0.279063
-0.278757
-0.278163
-0.277351
-0.276391
-0.275337
-0.274231
-0.2731
-0.271959
-0.270814
-0.269664
-0.268504
-0.267325
-0.266117
-0.264874
-0.263592
-0.262277
-0.260946
-0.259643
-0.258451
-0.257534
-0.257158
-0.257715
-0.260885
-0.273045
-0.281977
-0.281492
-0.28072
-0.279724
-0.278573
-0.27733
-0.27604
-0.274734
-0.273429
-0.272133
-0.270848
-0.269573
-0.268302
-0.267035
-0.265776
-0.264536
-0.263345
-0.262256
-0.261358
-0.2608
-0.260827
-0.261799
-0.264214
-0.269491
-0.282272
-0.285126
-0.284443
-0.283475
-0.282277
-0.280919
-0.279471
-0.277984
-0.27649
-0.27501
-0.273555
-0.27213
-0.270736
-0.269374
-0.268051
-0.266779
-0.265585
-0.264515
-0.263643
-0.263079
-0.262988
-0.263611
-0.26527
-0.268337
-0.273582
-0.284122
-0.288538
-0.287636
-0.286452
-0.285035
-0.283454
-0.281787
-0.280089
-0.278397
-0.276735
-0.275115
-0.273546
-0.272031
-0.270577
-0.269196
-0.267907
-0.266746
-0.265768
-0.265051
-0.264707
-0.264884
-0.265777
-0.267621
-0.27064
-0.275172
-0.283322
-0.292245
-0.291097
-0.289678
-0.288025
-0.286206
-0.284306
-0.282388
-0.280491
-0.27864
-0.276851
-0.275133
-0.273494
-0.271943
-0.270494
-0.269171
-0.268013
-0.267072
-0.266423
-0.266159
-0.266396
-0.267268
-0.268918
-0.271451
-0.274946
-0.280775
-0.296278
-0.294856
-0.29318
-0.291274
-0.289203
-0.28706
-0.284913
-0.282804
-0.28076
-0.278797
-0.276926
-0.275155
-0.273494
-0.271959
-0.270572
-0.269369
-0.268396
-0.267711
-0.267386
-0.267498
-0.268125
-0.269337
-0.27116
-0.273541
-0.277326
-0.300668
-0.298942
-0.296985
-0.294811
-0.292475
-0.29008
-0.287697
-0.28537
-0.283127
-0.280984
-0.278951
-0.277035
-0.275245
-0.273594
-0.2721
-0.270792
-0.269704
-0.268879
-0.268363
-0.268199
-0.268424
-0.269057
-0.270081
-0.271387
-0.273459
-0.305446
-0.30338
-0.301122
-0.298663
-0.296051
-0.293395
-0.290771
-0.288221
-0.285772
-0.283439
-0.28123
-0.279148
-0.277198
-0.275389
-0.273733
-0.27225
-0.270962
-0.269896
-0.269077
-0.268523
-0.268244
-0.268232
-0.268451
-0.26878
-0.269479
-0.310638
-0.308197
-0.305614
-0.302857
-0.299958
-0.297034
-0.294161
-0.291381
-0.288716
-0.286179
-0.283771
-0.281492
-0.279342
-0.277322
-0.275441
-0.273706
-0.272132
-0.270733
-0.269518
-0.268493
-0.267653
-0.266978
-0.266434
-0.265903
-0.265528
-0.316266
-0.313412
-0.310484
-0.307415
-0.30422
-0.301021
-0.297892
-0.294871
-0.291975
-0.28921
-0.286572
-0.284055
-0.281653
-0.279361
-0.277181
-0.275117
-0.273175
-0.271361
-0.269679
-0.268129
-0.2667
-0.265376
-0.264126
-0.262851
-0.26164
-0.322346
-0.319044
-0.31575
-0.312357
-0.308858
-0.305375
-0.30198
-0.298702
-0.295553
-0.292529
-0.289619
-0.286811
-0.284094
-0.281459
-0.278905
-0.276433
-0.274046
-0.271751
-0.269548
-0.267439
-0.265417
-0.263469
-0.261577
-0.259658
-0.257785
-0.328886
-0.325101
-0.321424
-0.317697
-0.313885
-0.310109
-0.306433
-0.302878
-0.299443
-0.296117
-0.292882
-0.289719
-0.286615
-0.283561
-0.280556
-0.277601
-0.274704
-0.271872
-0.269112
-0.266428
-0.263818
-0.261279
-0.258802
-0.256317
-0.253901
-0.335888
-0.331589
-0.327512
-0.323444
-0.31931
-0.315228
-0.311252
-0.307388
-0.303625
-0.299943
-0.296317
-0.292726
-0.289157
-0.285605
-0.282073
-0.278569
-0.275106
-0.271697
-0.268356
-0.265091
-0.261909
-0.258811
-0.255795
-0.252806
-0.249924
-0.343343
-0.338501
-0.334013
-0.329596
-0.325131
-0.320726
-0.316421
-0.312208
-0.308064
-0.303959
-0.299866
-0.295765
-0.29165
-0.287522
-0.283394
-0.279283
-0.27521
-0.271198
-0.267264
-0.263423
-0.259687
-0.256061
-0.252547
-0.249097
-0.245797
-0.351231
-0.345824
-0.340915
-0.336143
-0.331335
-0.326584
-0.321914
-0.317301
-0.312708
-0.308101
-0.303457
-0.298761
-0.294017
-0.289241
-0.284456
-0.279692
-0.27498
-0.270348
-0.265821
-0.261416
-0.257148
-0.253023
-0.249043
-0.245166
-0.241478
-0.35952
-0.353532
-0.348198
-0.343064
-0.337897
-0.332771
-0.327688
-0.322608
-0.317488
-0.312293
-0.307007
-0.301629
-0.29618
-0.29069
-0.2852
-0.27975
-0.274381
-0.269126
-0.264014
-0.259062
-0.254285
-0.249688
-0.245272
-0.240994
-0.236942
-0.368166
-0.361586
-0.355825
-0.350324
-0.344778
-0.339236
-0.333681
-0.328059
-0.322322
-0.316444
-0.310424
-0.304282
-0.298057
-0.291802
-0.28557
-0.279415
-0.273383
-0.267512
-0.261829
-0.256352
-0.25109
-0.246049
-0.241222
-0.236567
-0.232169
-0.377108
-0.369935
-0.363749
-0.357873
-0.35192
-0.345912
-0.339815
-0.333562
-0.327111
-0.320454
-0.31361
-0.306627
-0.29957
-0.29251
-0.285515
-0.278648
-0.271959
-0.265486
-0.259253
-0.253274
-0.247555
-0.242095
-0.236884
-0.231872
-0.22715
-0.386272
-0.378512
-0.371906
-0.365643
-0.359248
-0.352715
-0.345992
-0.339011
-0.331746
-0.324212
-0.316463
-0.308577
-0.300643
-0.292752
-0.284987
-0.277413
-0.270082
-0.263028
-0.256271
-0.249819
-0.243669
-0.237817
-0.232246
-0.2269
-0.221875
-0.395568
-0.387235
-0.380215
-0.37355
-0.36667
-0.35954
-0.352099
-0.344289
-0.336107
-0.327608
-0.318882
-0.310042
-0.301203
-0.292473
-0.283942
-0.275678
-0.267728
-0.26012
-0.252867
-0.24597
-0.239419
-0.233202
-0.227297
-0.221639
-0.216334
-0.404889
-0.396004
-0.388579
-0.381492
-0.374074
-0.366267
-0.358009
-0.349264
-0.34007
-0.330526
-0.320766
-0.310939
-0.301183
-0.291619
-0.282339
-0.273409
-0.264869
-0.256739
-0.249023
-0.241711
-0.234788
-0.228235
-0.222021
-0.216075
-0.210518
-0.414111
-0.404706
-0.396882
-0.389347
-0.381331
-0.372758
-0.36358
-0.353799
-0.343505
-0.332852
-0.32202
-0.31119
-0.300521
-0.29014
-0.280139
-0.270575
-0.26148
-0.252863
-0.244717
-0.237023
-0.229758
-0.222897
-0.216403
-0.210194
-0.204413
-0.423096
-0.413208
-0.404994
-0.396978
-0.388296
-0.378864
-0.368664
-0.357754
-0.346287
-0.334477
-0.322552
-0.310721
-0.299158
-0.28799
-0.277303
-0.267145
-0.257534
-0.248467
-0.239926
-0.231884
-0.224309
-0.217171
-0.210424
-0.203977
-0.198002
-0.431693
-0.421367
-0.412768
-0.404234
-0.39481
-0.384424
-0.373107
-0.360986
-0.34829
-0.335296
-0.322276
-0.309463
-0.297038
-0.285124
-0.273795
-0.263086
-0.253002
-0.243525
-0.234627
-0.226271
-0.218419
-0.211035
-0.204065
-0.197407
-0.191269
-0.439737
-0.429022
-0.420044
-0.410948
-0.400706
-0.389274
-0.376752
-0.363356
-0.349395
-0.335211
-0.321114
-0.307353
-0.29411
-0.281499
-0.269579
-0.258367
-0.247854
-0.238009
-0.228793
-0.22016
-0.212066
-0.204467
-0.197303
-0.190464
-0.184194
-0.447054
-0.436006
-0.42665
-0.416945
-0.405809
-0.393245
-0.379448
-0.36473
-0.349492
-0.334131
-0.318992
-0.304333
-0.290328
-0.277076
-0.264618
-0.252956
-0.242061
-0.231893
-0.222399
-0.213527
-0.205225
-0.197446
-0.190119
-0.183127
-0.17676
-0.453462
-0.442139
-0.432407
-0.422044
-0.409938
-0.39617
-0.381043
-0.364983
-0.348475
-0.331974
-0.315845
-0.300349
-0.285646
-0.271816
-0.25888
-0.246821
-0.235596
-0.225149
-0.21542
-0.206348
-0.197875
-0.189949
-0.182493
-0.175379
-0.168946
-0.458776
-0.447239
-0.43713
-0.426061
-0.41292
-0.397889
-0.3814
-0.363998
-0.346253
-0.328665
-0.311614
-0.295352
-0.280023
-0.265683
-0.252332
-0.239933
-0.228429
-0.217752
-0.207832
-0.1986
-0.189993
-0.181958
-0.174404
-0.1672
-0.160737
-0.462811
-0.451122
-0.440634
-0.428813
-0.414582
-0.398248
-0.380389
-0.361671
-0.342741
-0.324138
-0.306245
-0.289299
-0.273421
-0.258643
-0.244943
-0.232264
-0.220535
-0.209677
-0.199611
-0.190262
-0.181562
-0.173453
-0.165837
-0.158576
-0.152117
-0.465382
-0.453606
-0.442737
-0.430125
-0.414762
-0.397107
-0.377894
-0.357907
-0.337867
-0.318336
-0.299691
-0.282151
-0.265807
-0.250667
-0.236685
-0.223789
-0.211891
-0.200903
-0.190738
-0.181316
-0.172564
-0.16442
-0.156777
-0.149493
-0.143073
-0.466314
-0.454513
-0.443263
-0.429829
-0.41331
-0.394338
-0.373811
-0.352629
-0.33157
-0.31121
-0.291915
-0.273875
-0.257152
-0.241728
-0.227536
-0.214485
-0.202476
-0.191411
-0.181197
-0.171746
-0.162985
-0.154846
-0.147213
-0.13994
-0.133594
-0.465439
-0.453676
-0.442047
-0.427771
-0.410091
-0.389831
-0.368055
-0.345769
-0.323798
-0.302722
-0.282884
-0.264443
-0.247432
-0.231805
-0.217474
-0.204334
-0.192274
-0.181187
-0.170973
-0.161541
-0.152814
-0.144721
-0.137136
-0.12991
-0.123676
-0.462604
-0.450939
-0.438939
-0.423812
-0.404987
-0.383492
-0.360554
-0.337275
-0.314513
-0.29284
-0.272572
-0.253834
-0.236626
-0.220879
-0.206484
-0.193322
-0.181271
-0.170218
-0.160057
-0.150692
-0.142045
-0.13404
-0.126542
-0.119402
-0.113314
-0.45767
-0.446162
-0.433802
-0.417833
-0.3979
-0.375246
-0.351254
-0.327108
-0.303686
-0.281544
-0.260963
-0.242032
-0.224723
-0.208939
-0.194555
-0.181439
-0.16946
-0.158498
-0.148443
-0.139196
-0.130674
-0.122802
-0.11543
-0.108415
-0.10251
-0.450519
-0.439226
-0.426524
-0.409735
-0.388753
-0.365037
-0.340116
-0.315242
-0.291301
-0.268821
-0.248046
-0.22903
-0.211713
-0.195977
-0.181681
-0.16868
-0.156837
-0.146025
-0.136131
-0.127051
-0.118704
-0.111008
-0.103806
-0.0969542
-0.0912694
-0.441052
-0.43003
-0.417011
-0.399441
-0.377489
-0.352829
-0.32712
-0.301668
-0.277353
-0.254668
-0.23382
-0.214825
-0.197596
-0.181992
-0.16786
-0.155045
-0.143402
-0.1328
-0.123122
-0.114263
-0.106139
-0.0986658
-0.0916767
-0.0850305
-0.0796019
-0.429194
-0.418496
-0.405193
-0.386899
-0.364075
-0.338604
-0.312261
-0.286387
-0.261845
-0.239092
-0.218291
-0.199424
-0.182376
-0.16699
-0.153098
-0.140538
-0.12916
-0.118829
-0.109424
-0.100839
-0.092989
-0.0857862
-0.079055
-0.0726575
-0.0675221
-0.414895
-0.404573
-0.391027
-0.37208
-0.348499
-0.322364
-0.29555
-0.269415
-0.244797
-0.222109
-0.201473
-0.182838
-0.166064
-0.150979
-0.137404
-0.125169
-0.114121
-0.104122
-0.0950473
-0.0867912
-0.0792666
-0.0723835
-0.0659575
-0.0598537
-0.0550487
-0.398128
-0.388232
-0.374493
-0.354979
-0.330771
-0.304132
-0.277014
-0.25078
-0.226235
-0.203744
-0.183389
-0.165088
-0.148679
-0.133977
-0.120792
-0.108952
-0.0982986
-0.0886915
-0.080006
-0.0721339
-0.064988
-0.0584757
-0.0524043
-0.0466417
-0.0422042
-0.378895
-0.369473
-0.355598
-0.335615
-0.310923
-0.283945
-0.256695
-0.230525
-0.206198
-0.184033
-0.164071
-0.146201
-0.130245
-0.116003
-0.103283
-0.0919043
-0.0817089
-0.0725547
-0.0643162
-0.0568844
-0.0501719
-0.0440833
-0.038419
-0.0330478
-0.0290152
-0.357222
-0.348319
-0.334372
-0.314031
-0.289006
-0.261862
-0.234651
-0.208705
-0.184737
-0.163019
-0.143557
-0.126212
-0.110791
-0.0970859
-0.0848979
-0.0740465
-0.0643709
-0.0557292
-0.0479956
-0.0410609
-0.0348379
-0.0292289
-0.024028
-0.0191027
-0.0155152
-0.33316
-0.32482
-0.310873
-0.290293
-0.265093
-0.237957
-0.210954
-0.185385
-0.161911
-0.140758
-0.121895
-0.105163
-0.0903552
-0.0772566
-0.0656661
-0.0554025
-0.0463054
-0.0382334
-0.0310614
-0.024681
-0.0190051
-0.0139345
-0.00925867
-0.00484124
-0.00174626
-0.306787
-0.299052
-0.28518
-0.264489
-0.239275
-0.212318
-0.18569
-0.160645
-0.137793
-0.117314
-0.0991436
-0.0831051
-0.0689809
-0.0565527
-0.0456186
-0.0359984
-0.0275336
-0.0200849
-0.0135288
-0.00775874
-0.00268847
0.00178173
0.00586412
0.0097004
0.0122463
-0.278202
-0.271113
-0.257397
-0.236725
-0.211661
-0.185053
-0.158957
-0.134576
-0.112466
-0.0927601
-0.0753681
-0.0600957
-0.0467187
-0.0350172
-0.0247907
-0.015862
-0.00807642
-0.00129834
0.00459205
0.0096984
0.014105
0.0179099
0.0213217
0.0244911
0.0264335
-0.24753
-0.241123
-0.227646
-0.207128
-0.182375
-0.156281
-0.130867
-0.107282
-0.0860226
-0.0671826
-0.0506449
-0.0362029
-0.0236276
-0.0126998
-0.00322244
0.00497672
0.0120467
0.0181168
0.0233009
0.0276971
0.0313857
0.0344589
0.0371155
0.0395259
0.0408251
-0.214915
-0.209226
-0.196073
-0.175842
-0.151558
-0.126134
-0.101546
-0.0788769
-0.0585688
-0.0406766
-0.0250608
-0.0115043
0.000224069
0.0103413
0.0190393
0.0264835
0.032815
0.0381547
0.042607
0.046261
0.0491889
0.051472
0.0532919
0.0548472
0.0554363
-0.18052
-0.17558
-0.162836
-0.143026
-0.119364
-0.0947587
-0.0711273
-0.0494857
-0.03022
-0.0133491
0.00128619
0.0139108
0.0247568
0.0340373
0.0419377
0.0486153
0.0542014
0.0588054
0.0625181
0.065414
0.0675537
0.0690034
0.0699068
0.0704502
0.0700922
-0.144526
-0.140363
-0.128113
-0.108853
-0.0859575
-0.0623108
-0.0397579
-0.0192444
-0.00110263
0.0146821
0.0282864
0.0399413
0.0498786
0.058307
0.0654052
0.0713213
0.0761751
0.0800606
0.0830474
0.0851864
0.0865204
0.0870867
0.0869154
0.0860489
0.0842261
-0.107126
-0.103767
-0.0920924
-0.0735066
-0.0515155
-0.0289559
-0.00759224
0.011702
0.0286469
0.0432882
0.0558178
0.0664719
0.0754817
0.0830529
0.0893588
0.0945405
0.0987083
0.10194
0.104281
0.10575
0.106362
0.106075
0.104626
0.101717
0.0979292
-0.0685304
-0.0659957
-0.0549752
-0.0371815
-0.0162219
0.00513304
0.0252072
0.0432007
0.0588836
0.0723304
0.0837462
0.0933716
0.101438
0.10815
0.113679
0.118168
0.121725
0.124431
0.126324
0.127428
0.127769
0.127216
0.12507
0.120644
0.115972
-0.0289573
-0.0272644
-0.016971
-7.88776e-05
0.0197327
0.0397771
0.0584727
0.0750931
0.0894563
0.101662
0.111928
0.120497
0.1276
0.133442
0.138196
0.142008
0.145
0.147266
0.148884
0.149946
0.1506
0.150801
0.149687
0.146742
0.148935
0.0113739
0.0122096
0.0217069
0.0375961
0.0561545
0.074794
0.0920329
0.107217
0.12021
0.131134
0.140215
0.147699
0.153814
0.158765
0.162723
0.165836
0.168229
0.170008
0.171268
0.172128
0.17275
0.173116
0.172743
0.172045
0.176457
0.0522311
0.0521988
0.0608376
0.0756332
0.0928458
0.109999
0.125715
0.139411
0.15099
0.160597
0.168462
0.174832
0.179934
0.183967
0.187102
0.189486
0.191245
0.192488
0.193318
0.193856
0.194241
0.194451
0.194143
0.193797
0.197711
0.0933801
0.0924736
0.100199
0.113822
0.129609
0.145209
0.159348
0.171511
0.181643
0.189902
0.196526
0.201757
0.205819
0.208906
0.211183
0.212796
0.213866
0.214502
0.214804
0.214886
0.214873
0.214748
0.214221
0.213682
0.216662
0.134586
0.132803
0.139569
0.151951
0.166249
0.180241
0.192761
0.203361
0.212019
0.21891
0.224271
0.228343
0.231343
0.233457
0.234848
0.23565
0.235984
0.235949
0.235638
0.235156
0.234606
0.233962
0.232959
0.231962
0.234047
0.175616
0.172959
0.178726
0.189813
0.20257
0.214915
0.225788
0.234804
0.241973
0.247483
0.25157
0.254469
0.25639
0.257514
0.257992
0.257955
0.257514
0.256761
0.255781
0.254666
0.253502
0.252252
0.25067
0.249119
0.250337
0.216236
0.212712
0.217453
0.227203
0.238383
0.249057
0.258267
0.26569
0.271367
0.275491
0.278299
0.280021
0.280856
0.280978
0.28053
0.279634
0.278393
0.276892
0.275206
0.273416
0.271595
0.269695
0.267494
0.265361
0.26575
0.25622
0.25184
0.255534
0.263919
0.273503
0.282495
0.290041
0.295876
0.300065
0.302811
0.304347
0.304893
0.304645
0.303763
0.302384
0.300622
0.29857
0.296306
0.293899
0.291417
0.288922
0.286361
0.283537
0.280823
0.280416
0.295345
0.290124
0.292762
0.299768
0.307749
0.315064
0.320958
0.32522
0.32794
0.329324
0.329602
0.328987
0.327665
0.325788
0.323484
0.320858
0.317997
0.31497
0.311839
0.308665
0.305498
0.302283
0.29885
0.295567
0.294397
0.333394
0.327352
0.328934
0.334561
0.340949
0.346605
0.350872
0.35359
0.354867
0.354916
0.353961
0.352208
0.349831
0.346976
0.343762
0.340286
0.336627
0.332848
0.329003
0.325148
0.321322
0.317474
0.313453
0.309619
0.307717
0.370158
0.36332
0.363856
0.368117
0.372935
0.376966
0.379644
0.380856
0.38073
0.37948
0.377326
0.374465
0.371062
0.367255
0.363154
0.358849
0.354412
0.3499
0.345361
0.340844
0.336382
0.331925
0.327343
0.322982
0.320376
0.405436
0.397832
0.397341
0.400263
0.403549
0.406
0.407139
0.406896
0.405415
0.402912
0.399601
0.395671
0.391278
0.386552
0.381595
0.37649
0.371302
0.366084
0.360877
0.355725
0.350654
0.345617
0.340505
0.335639
0.332361
0.439038
0.4307
0.429213
0.430834
0.43264
0.43357
0.43323
0.431593
0.428815
0.425114
0.420696
0.415743
0.410404
0.404799
0.399023
0.393153
0.387249
0.381356
0.375513
0.369755
0.364107
0.358524
0.352913
0.347569
0.34365
0.470782
0.461749
0.459303
0.459674
0.460063
0.459543
0.457798
0.454836
0.450829
0.445991
0.440524
0.434602
0.428366
0.421928
0.415377
0.408784
0.402201
0.395671
0.389226
0.382899
0.376708
0.370612
0.364536
0.358742
0.354215
0.500499
0.490812
0.487455
0.486637
0.485686
0.483797
0.480729
0.476523
0.47136
0.465455
0.459004
0.452173
0.445095
0.437876
0.430598
0.423326
0.416108
0.408981
0.401975
0.395116
0.388419
0.381848
0.37534
0.369125
0.364026
0.52803
0.517735
0.513521
0.511589
0.509383
0.506218
0.501918
0.496555
0.490319
0.483423
0.476058
0.468384
0.460525
0.452582
0.44463
0.436729
0.428922
0.421243
0.413717
0.406366
0.399202
0.392194
0.38529
0.378685
0.373055
0.553228
0.542375
0.537367
0.534404
0.53104
0.526701
0.521268
0.514843
0.507622
0.499818
0.491616
0.483168
0.474594
0.465987
0.457418
0.448941
0.440596
0.432412
0.424411
0.416612
0.409022
0.401616
0.394352
0.38739
0.38127
0.57596
0.564602
0.558871
0.554967
0.550552
0.545147
0.538691
0.531304
0.523194
0.51457
0.505611
0.496465
0.487246
0.47804
0.468914
0.459917
0.451087
0.442448
0.434019
0.425816
0.417844
0.410081
0.402494
0.395209
0.388644
0.596107
0.584299
0.577921
0.573178
0.567825
0.561472
0.554105
0.545866
0.536966
0.527614
0.517985
0.508219
0.498427
0.48869
0.47907
0.469614
0.460353
0.451311
0.442504
0.433943
0.425633
0.417556
0.409684
0.402112
0.395151
0.613561
0.601363
0.59442
0.588944
0.582775
0.575598
0.56744
0.558461
0.548877
0.538893
0.528683
0.518381
0.508092
0.497895
0.487847
0.477992
0.468359
0.458969
0.449834
0.440964
0.432361
0.424012
0.415895
0.408074
0.400767
0.628232
0.615705
0.608284
0.602188
0.595331
0.587459
0.578635
0.569033
0.558873
0.548359
0.537659
0.526906
0.5162
0.505616
0.495209
0.485019
0.475073
0.465389
0.455979
0.44685
0.438002
0.429425
0.421102
0.413071
0.405473
0.640042
0.627249
0.619441
0.612845
0.605431
0.596999
0.587638
0.577535
0.56691
0.555968
0.544875
0.533758
0.522716
0.511821
0.501124
0.490665
0.480467
0.470548
0.460916
0.451578
0.442533
0.433773
0.425285
0.417084
0.40925
0.648929
0.635936
0.627835
0.620861
0.613027
0.604173
0.594408
0.583926
0.572952
0.561689
0.550299
0.538908
0.527613
0.516483
0.505569
0.494906
0.484519
0.474422
0.464625
0.455129
0.445935
0.437038
0.428426
0.420097
0.412084
0.654846
0.641719
0.633424
0.626197
0.618083
0.608947
0.598912
0.588179
0.576972
0.565494
0.553906
0.542334
0.53087
0.519584
0.508525
0.497727
0.487213
0.476998
0.467089
0.457489
0.448196
0.439207
0.430512
0.422098
0.413966
0.657762
0.644569
0.636177
0.628825
0.620573
0.611299
0.601131
0.590273
0.578952
0.567368
0.555682
0.54402
0.532473
0.521109
0.509978
0.499113
0.488537
0.478263
0.4683
0.458648
0.449306
0.440271
0.431535
0.423079
0.414887
0.657662
0.64447
0.636081
0.628734
0.620487
0.611217
0.601054
0.5902
0.578882
0.567301
0.555619
0.543959
0.532414
0.521053
0.509923
0.49906
0.488486
0.478213
0.468251
0.4586
0.44926
0.440226
0.431491
0.423035
0.414845
0.654545
0.641423
0.633136
0.625922
0.617823
0.608701
0.59868
0.587958
0.576762
0.565294
0.553715
0.54215
0.530694
0.519414
0.50836
0.497568
0.487059
0.476848
0.466944
0.457347
0.448058
0.439072
0.430379
0.421968
0.41384
0.648428
0.635442
0.627357
0.620404
0.612594
0.603763
0.59402
0.583558
0.572603
0.561355
0.54998
0.538603
0.527319
0.5162
0.505296
0.494642
0.484263
0.474173
0.464382
0.454893
0.445705
0.436812
0.428205
0.419881
0.411874
0.639342
0.626559
0.618773
0.612206
0.604825
0.596426
0.587096
0.57702
0.566421
0.555502
0.544429
0.533331
0.522305
0.511425
0.500742
0.490295
0.480108
0.470199
0.460577
0.451248
0.44221
0.433458
0.424976
0.416781
0.408956
0.627334
0.61482
0.607426
0.601369
0.594553
0.586724
0.577939
0.568373
0.558245
0.54776
0.537087
0.526357
0.515672
0.505107
0.494718
0.484544
0.474612
0.464942
0.455544
0.446426
0.437588
0.42902
0.420706
0.412682
0.405095
0.612467
0.600284
0.593374
0.587944
0.581827
0.574701
0.566591
0.557656
0.548111
0.538163
0.527984
0.517711
0.507448
0.497275
0.487249
0.477413
0.467798
0.458423
0.449303
0.440447
0.431856
0.423518
0.415411
0.407599
0.400306
0.594817
0.583027
0.576688
0.571999
0.566708
0.560415
0.553104
0.544916
0.536063
0.526753
0.517161
0.50743
0.497668
0.487959
0.478364
0.468931
0.459691
0.450668
0.441878
0.433333
0.425038
0.416973
0.409114
0.401552
0.394607
0.574478
0.563139
0.557453
0.553612
0.549267
0.543931
0.537539
0.530212
0.522156
0.513579
0.504664
0.495557
0.486372
0.477198
0.468101
0.459131
0.450324
0.441707
0.433298
0.425113
0.417158
0.409411
0.401837
0.394564
0.388017
0.551554
0.540724
0.535767
0.532874
0.529589
0.525327
0.519968
0.513609
0.506449
0.498699
0.490546
0.482142
0.473608
0.465037
0.4565
0.448053
0.439735
0.431575
0.423597
0.415818
0.408248
0.400859
0.39361
0.386661
0.380561
0.526168
0.515898
0.51174
0.509886
0.507767
0.504689
0.50047
0.495181
0.489012
0.482177
0.474866
0.467241
0.459426
0.451523
0.443607
0.435739
0.427962
0.420311
0.41281
0.405482
0.398339
0.39135
0.384463
0.377873
0.372265
0.498452
0.488792
0.485495
0.484764
0.483908
0.482114
0.479135
0.475011
0.469922
0.464083
0.457692
0.450914
0.443885
0.43671
0.429472
0.422236
0.415051
0.407954
0.400975
0.394141
0.387468
0.380918
0.374428
0.36823
0.363156
0.468553
0.459549
0.457169
0.457632
0.458126
0.457709
0.456061
0.453188
0.449261
0.444495
0.439093
0.43323
0.427046
0.420656
0.414149
0.407594
0.401047
0.39455
0.388135
0.381836
0.37567
0.369597
0.363541
0.357765
0.353264
0.43663
0.428324
0.426908
0.428628
0.430545
0.431587
0.431352
0.42981
0.42712
0.423496
0.419148
0.414258
0.408976
0.403422
0.397693
0.391866
0.386
0.380143
0.374332
0.368604
0.362984
0.357425
0.351836
0.346512
0.34262
0.402854
0.395284
0.394868
0.397896
0.401302
0.403871
0.405122
0.404981
0.403594
0.401174
0.397938
0.394075
0.389743
0.385072
0.380165
0.375106
0.36996
0.364779
0.359607
0.354486
0.349445
0.344435
0.339346
0.334501
0.331253
0.367406
0.360604
0.361219
0.365593
0.370538
0.374694
0.377491
0.378812
0.378785
0.377624
0.37555
0.37276
0.369422
0.365674
0.361626
0.357369
0.352976
0.348504
0.344002
0.339519
0.335089
0.33066
0.326103
0.321764
0.31919
0.330478
0.324473
0.326138
0.331884
0.338405
0.344194
0.348587
0.35142
0.352802
0.352944
0.352074
0.350396
0.348088
0.345295
0.342137
0.338712
0.335099
0.331363
0.327557
0.323738
0.319946
0.316127
0.312133
0.308323
0.306453
0.29227
0.287088
0.289812
0.296942
0.305063
0.312517
0.318544
0.322927
0.325756
0.327239
0.327605
0.327071
0.32582
0.324008
0.321763
0.319191
0.316379
0.313397
0.310307
0.30717
0.304038
0.300856
0.29745
0.294192
0.293057
0.252992
0.248652
0.252436
0.26095
0.270678
0.279817
0.287501
0.293463
0.297767
0.300615
0.302244
0.302874
0.302701
0.301887
0.30057
0.298863
0.296863
0.294646
0.292281
0.289839
0.28738
0.284853
0.282058
0.27937
0.279
0.212861
0.209379
0.214212
0.224095
0.235426
0.246251
0.255605
0.263161
0.268957
0.273188
0.276093
0.277901
0.278815
0.279007
0.278623
0.277785
0.276597
0.275144
0.273503
0.271755
0.269971
0.268106
0.265936
0.26383
0.264257
0.1721
0.169487
0.17535
0.186573
0.199485
0.211988
0.223009
0.232162
0.239455
0.245076
0.249262
0.252251
0.254253
0.25545
0.255994
0.256017
0.25563
0.254927
0.253994
0.252921
0.251797
0.250583
0.249033
0.24751
0.248768
0.130938
0.129201
0.136063
0.148585
0.163042
0.177196
0.189869
0.20061
0.209396
0.216402
0.221866
0.226031
0.229113
0.231303
0.232761
0.233625
0.234014
0.23403
0.233767
0.233328
0.232818
0.232213
0.231243
0.230275
0.232401
0.0896078
0.088748
0.0965719
0.110336
0.126287
0.142053
0.156349
0.168658
0.17892
0.187297
0.194027
0.199352
0.203499
0.206662
0.209009
0.210684
0.211811
0.212499
0.212848
0.212975
0.213003
0.212916
0.212423
0.211914
0.214937
0.0483431
0.0483587
0.0570968
0.0720363
0.0894148
0.106738
0.122615
0.136458
0.148172
0.157899
0.165872
0.172338
0.177527
0.181637
0.184842
0.187289
0.189106
0.190401
0.191278
0.19186