/*--------------------------------*- C++ -*----------------------------------*\
  =========                 |
  \\      /  F ield         | OpenFOAM: The Open Source CFD Toolbox
   \\    /   O peration     | Website:  https://openfoam.org
    \\  /    A nd           | Version:  6.0
     \\/     M anipulation  |
\*---------------------------------------------------------------------------*/
FoamFile
{
    version     2.0;
    format      ascii;
    class       surfaceScalarField;
    location    "47";
    object      phi;
}
// * * * * * * * * * * * * * * * * * * * * * * * * * * * * * * * * * * * * * //

dimensions      [0 3 -1 0 0 0 0];

internalField   nonuniform List<scalar> 
24700
(
-1.22676e-06
-2.90041e-06
4.12717e-06
-4.46902e-06
-7.76644e-06
1.10087e-05
-9.34643e-06
-1.19025e-05
1.67799e-05
-1.55233e-05
-1.54282e-05
2.1605e-05
-2.27088e-05
-1.84411e-05
2.56267e-05
-3.06562e-05
-2.10286e-05
2.8976e-05
-3.91599e-05
-2.32678e-05
3.17715e-05
-4.80531e-05
-2.52249e-05
3.41181e-05
-5.72044e-05
-2.69565e-05
3.61078e-05
-6.65152e-05
-2.85089e-05
3.78198e-05
-7.59166e-05
-2.99191e-05
3.93205e-05
-8.53663e-05
-3.12151e-05
4.06648e-05
-9.48464e-05
-3.24172e-05
4.18973e-05
-0.00010436
-3.35389e-05
4.30528e-05
-0.00011393
-3.45884e-05
4.41584e-05
-0.000123595
-3.55695e-05
4.52342e-05
-0.000133407
-3.64831e-05
4.62946e-05
-0.000143428
-3.73281e-05
4.73498e-05
-0.000153732
-3.81026e-05
4.8406e-05
-0.000164394
-3.88045e-05
4.9467e-05
-0.000175496
-3.94323e-05
5.05344e-05
-0.000187119
-3.99856e-05
5.16085e-05
-0.000199342
-4.04653e-05
5.26885e-05
-0.000212242
-4.08712e-05
5.37711e-05
-4.12012e-05
5.48515e-05
-0.000225892
-1.26641e-06
-1.634e-06
-4.60515e-06
-4.4277e-06
-9.61941e-06
-6.88827e-06
-1.5961e-05
-9.08661e-06
-2.33296e-05
-1.10724e-05
-3.14713e-05
-1.2887e-05
-4.01748e-05
-1.45642e-05
-4.9269e-05
-1.61307e-05
-5.86192e-05
-1.76063e-05
-6.81239e-05
-1.90041e-05
-7.77122e-05
-2.03309e-05
-8.734e-05
-2.15873e-05
-9.6988e-05
-2.27691e-05
-0.000106659
-2.38681e-05
-0.000116375
-2.48728e-05
-0.000126173
-2.57706e-05
-0.000136108
-2.65481e-05
-0.000146243
-2.71929e-05
-0.000156652
-2.76941e-05
-0.000167413
-2.80435e-05
-0.000178609
-2.82359e-05
-0.000190325
-2.827e-05
-0.000202642
-2.81484e-05
-0.000215639
-2.78741e-05
-2.74475e-05
-0.000229393
-1.30601e-06
-3.27988e-07
-4.73965e-06
-9.94064e-07
-9.88623e-06
-1.74169e-06
-1.63838e-05
-2.58902e-06
-2.39216e-05
-3.53463e-06
-3.2237e-05
-4.57161e-06
-4.11122e-05
-5.68901e-06
-5.03705e-05
-6.87253e-06
-5.98721e-05
-8.10466e-06
-6.95116e-05
-9.36469e-06
-7.92138e-05
-1.06287e-05
-8.89314e-05
-1.18697e-05
-9.86421e-05
-1.30585e-05
-0.000108346
-1.41643e-05
-0.000118063
-1.5156e-05
-0.00012783
-1.60032e-05
-0.0001377
-1.66777e-05
-0.000147739
-1.71545e-05
-0.00015802
-1.74131e-05
-0.000168626
-1.74378e-05
-0.000179642
-1.72193e-05
-0.000191158
-1.67544e-05
-0.000203259
-1.6047e-05
-0.000216031
-1.51027e-05
-1.39247e-05
-0.000229553
-1.34504e-06
1.01705e-06
-4.87062e-06
2.53151e-06
-1.01431e-05
3.53078e-06
-1.67858e-05
4.05371e-06
-2.44765e-05
4.15601e-06
-3.29432e-05
3.89513e-06
-4.19605e-05
3.32827e-06
-5.13447e-05
2.51173e-06
-6.09503e-05
1.50091e-06
-7.06657e-05
3.50737e-07
-8.04105e-05
-8.83946e-07
-9.01319e-05
-2.14826e-06
-9.98028e-05
-3.38759e-06
-0.000109419
-4.5482e-06
-0.000118997
-5.57823e-06
-0.000128571
-6.42885e-06
-0.000138193
-7.05557e-06
-0.000147928
-7.41953e-06
-0.000157852
-7.48876e-06
-0.000168051
-7.2391e-06
-0.000178615
-6.65502e-06
-0.000189639
-5.73053e-06
-0.000201217
-4.46934e-06
-0.00021344
-2.87953e-06
-9.66452e-07
-0.000226398
-1.38302e-06
2.40007e-06
-4.99622e-06
6.14471e-06
-1.03862e-05
8.92071e-06
-1.71609e-05
1.08285e-05
-2.4986e-05
1.19811e-05
-3.35799e-05
1.2489e-05
-4.27084e-05
1.24568e-05
-5.21805e-05
1.19838e-05
-6.18432e-05
1.11636e-05
-7.1578e-05
1.00855e-05
-8.12971e-05
8.83514e-06
-9.09409e-05
7.49555e-06
-0.000100475
6.14692e-06
-0.00010989
4.86644e-06
-0.000119196
3.72753e-06
-0.000128423
2.79873e-06
-0.000137621
2.14232e-06
-0.000146854
1.81294e-06
-0.000156199
1.85607e-06
-0.000165745
2.30686e-06
-0.000175589
3.18901e-06
-0.000185833
4.5136e-06
-0.000196581
6.27859e-06
-0.000207935
8.47497e-06
1.10958e-05
-0.000219997
-1.4194e-06
3.81947e-06
-5.11441e-06
9.83972e-06
-1.06113e-05
1.44176e-05
-1.75025e-05
1.77197e-05
-2.54413e-05
1.992e-05
-3.41361e-05
2.11837e-05
-4.3344e-05
2.16648e-05
-5.28657e-05
2.15055e-05
-6.25401e-05
2.0838e-05
-7.22403e-05
1.97857e-05
-8.18702e-05
1.8465e-05
-9.13612e-05
1.69866e-05
-0.000100671
1.54563e-05
-0.000109779
1.39752e-05
-0.000118691
1.26388e-05
-0.000127429
1.15369e-05
-0.000136038
1.07513e-05
-0.00014458
1.03547e-05
-0.000153132
1.04089e-05
-0.000161788
1.0963e-05
-0.000170652
1.20521e-05
-0.000179833
1.36953e-05
-0.00018945
1.5895e-05
-0.000199618
1.86435e-05
2.19334e-05
-0.000210456
-1.45356e-06
5.27303e-06
-5.22279e-06
1.3609e-05
-1.08134e-05
2.00082e-05
-1.78026e-05
2.47088e-05
-2.58315e-05
2.79489e-05
-3.45984e-05
2.99507e-05
-4.3852e-05
3.09183e-05
-5.33844e-05
3.10379e-05
-6.30259e-05
3.04796e-05
-7.26406e-05
2.94004e-05
-8.21225e-05
2.79469e-05
-9.13927e-05
2.62567e-05
-0.000100397
2.44611e-05
-0.000109107
2.26847e-05
-0.000117514
2.10461e-05
-0.000125634
1.96571e-05
-0.000133504
1.86212e-05
-0.000141182
1.80319e-05
-0.000148743
1.79705e-05
-0.000156284
1.85041e-05
-0.000163916
1.96833e-05
-0.00017176
2.15396e-05
-0.000179948
2.40836e-05
-0.000188617
2.73122e-05
3.12204e-05
-0.000197904
-1.48466e-06
6.75769e-06
-5.3183e-06
1.74426e-05
-1.09864e-05
2.56763e-05
-1.8051e-05
3.17735e-05
-2.61421e-05
3.604e-05
-3.49488e-05
3.87574e-05
-4.42112e-05
4.01807e-05
-5.37134e-05
4.05401e-05
-6.32772e-05
4.00433e-05
-7.27569e-05
3.88802e-05
-8.2036e-05
3.72259e-05
-9.10236e-05
3.52444e-05
-9.96535e-05
3.3091e-05
-0.000107882
3.09136e-05
-0.00011569
2.8854e-05
-0.00012308
2.70469e-05
-0.000130078
2.56193e-05
-0.000136734
2.46881e-05
-0.000143122
2.43585e-05
-0.000149338
2.472e-05
-0.000155499
2.58442e-05
-0.00016174
2.77807e-05
-0.000168211
3.05542e-05
-0.00017507
3.41714e-05
3.86334e-05
-0.000182483
-1.51164e-06
8.26933e-06
-5.39706e-06
2.1328e-05
-1.1122e-05
3.14012e-05
-1.82347e-05
3.88862e-05
-2.63547e-05
4.416e-05
-3.51628e-05
4.75655e-05
-4.4392e-05
4.94099e-05
-5.38188e-05
4.99669e-05
-6.32569e-05
4.94814e-05
-7.25512e-05
4.81745e-05
-8.1574e-05
4.62487e-05
-9.02219e-05
4.38922e-05
-9.8414e-05
4.12831e-05
-0.000106092
3.85914e-05
-0.000113219
3.59811e-05
-0.000119782
3.36105e-05
-0.000125794
3.16312e-05
-0.000131293
3.01869e-05
-0.000136345
2.941e-05
-0.000141043
2.94184e-05
-0.00014551
3.03116e-05
-0.000149894
3.21646e-05
-0.000154365
3.50244e-05
-0.000159108
3.89149e-05
4.38501e-05
-0.000164325
-1.53317e-06
9.8025e-06
-5.45421e-06
2.52491e-05
-1.12102e-05
3.71572e-05
-1.83369e-05
4.60128e-05
-2.64449e-05
5.2268e-05
-3.52082e-05
5.63288e-05
-4.43537e-05
5.85555e-05
-5.36521e-05
5.92652e-05
-6.29096e-05
5.8739e-05
-7.19627e-05
5.72276e-05
-8.06727e-05
5.49587e-05
-8.89233e-05
5.21428e-05
-9.66182e-05
4.8978e-05
-0.000103681
4.56546e-05
-0.000110058
4.23574e-05
-0.000115715
3.92673e-05
-0.000120645
3.65615e-05
-0.00012487
3.44122e-05
-0.000128444
3.29835e-05
-0.000131453
3.24278e-05
-0.000134022
3.28801e-05
-0.000136308
3.44511e-05
-0.000138504
3.72202e-05
-0.000140829
4.12402e-05
4.65481e-05
-0.000143527
-1.54758e-06
1.13501e-05
-5.48387e-06
2.91854e-05
-1.12388e-05
4.29122e-05
-1.83372e-05
5.31112e-05
-2.63824e-05
6.03132e-05
-3.50434e-05
6.49899e-05
-4.4043e-05
6.7555e-05
-5.31472e-05
6.83694e-05
-6.2157e-05
6.77488e-05
-7.09015e-05
6.59721e-05
-7.92324e-05
6.32897e-05
-8.70209e-05
5.99313e-05
-9.41553e-05
5.61125e-05
-0.000100541
5.20404e-05
-0.000106102
4.79181e-05
-0.000110782
4.39472e-05
-0.00011455
4.03296e-05
-0.000117405
3.72673e-05
-0.000119381
3.49593e-05
-0.000120551
3.35984e-05
-0.000121036
3.33646e-05
-0.000121001
3.44157e-05
-0.000120658
3.6878e-05
-0.000120267
4.08487e-05
4.64035e-05
-0.000120122
-1.55296e-06
1.2903e-05
-5.47921e-06
3.31116e-05
-1.11934e-05
4.86263e-05
-1.82112e-05
6.0129e-05
-2.61306e-05
6.82326e-05
-3.46175e-05
7.34768e-05
-4.33922e-05
7.63298e-05
-5.22186e-05
7.71958e-05
-6.08942e-05
7.64244e-05
-6.92431e-05
7.43209e-05
-7.71093e-05
7.11559e-05
-8.43534e-05
6.71754e-05
-9.08494e-05
6.26085e-05
-9.64843e-05
5.76753e-05
-0.000101159
5.25931e-05
-0.000104793
4.75808e-05
-0.000107326
4.28626e-05
-0.000108728
3.8669e-05
-0.000109005
3.52362e-05
-0.000108208
3.28023e-05
-0.000106445
3.16015e-05
-0.000103882
3.18524e-05
-0.00010075
3.37463e-05
-9.73479e-05
3.74462e-05
4.30901e-05
-9.40345e-05
-1.54723e-06
1.44503e-05
-5.43274e-06
3.69971e-05
-1.1058e-05
5.42515e-05
-1.79314e-05
6.70024e-05
-2.56474e-05
7.59486e-05
-3.38703e-05
8.16997e-05
-4.23202e-05
8.47797e-05
-5.07606e-05
8.56362e-05
-5.89884e-05
8.46522e-05
-6.68251e-05
8.21576e-05
-7.41103e-05
7.84411e-05
-8.06965e-05
7.37616e-05
-8.64461e-05
6.83581e-05
-9.12298e-05
6.2459e-05
-9.49274e-05
5.62906e-05
-9.74305e-05
5.00839e-05
-9.86484e-05
4.40805e-05
-9.85156e-05
3.85362e-05
-9.70026e-05
3.37231e-05
-9.41282e-05
2.9928e-05
-8.99738e-05
2.7447e-05
-8.46958e-05
2.65744e-05
-7.85372e-05
2.75877e-05
-7.18355e-05
3.07445e-05
3.62788e-05
-6.50242e-05
-1.52823e-06
1.59785e-05
-5.3367e-06
4.08056e-05
-1.08158e-05
5.97307e-05
-1.74684e-05
7.3655e-05
-2.48865e-05
8.33667e-05
-3.27344e-05
8.95476e-05
-4.07335e-05
9.27788e-05
-4.86491e-05
9.35519e-05
-5.62796e-05
9.22827e-05
-6.34471e-05
8.93251e-05
-6.99901e-05
8.49841e-05
-7.57572e-05
7.95288e-05
-8.06035e-05
7.32044e-05
-8.43874e-05
6.62429e-05
-8.69705e-05
5.88738e-05
-8.82199e-05
5.13333e-05
-8.80129e-05
4.38734e-05
-8.62454e-05
3.67688e-05
-8.28448e-05
3.03225e-05
-7.77856e-05
2.48688e-05
-7.11096e-05
2.0771e-05
-6.29475e-05
1.84123e-05
-5.354e-05
1.81803e-05
-4.32585e-05
2.04629e-05
2.56385e-05
-3.26182e-05
-1.49397e-06
1.74725e-05
-5.18365e-06
4.44953e-05
-1.04503e-05
6.49974e-05
-1.67923e-05
7.99969e-05
-2.38e-05
9.03744e-05
-3.11383e-05
9.6886e-05
-3.85308e-05
0.000100171
-4.57457e-05
0.000100767
-5.2585e-05
9.9122e-05
-5.88742e-05
9.56143e-05
-6.44543e-05
9.05641e-05
-6.91749e-05
8.42494e-05
-7.28891e-05
7.69185e-05
-7.54494e-05
6.88032e-05
-7.67059e-05
6.01303e-05
-7.65065e-05
5.1134e-05
-7.47008e-05
4.20677e-05
-7.11471e-05
3.3215e-05
-6.57253e-05
2.49008e-05
-5.83562e-05
1.74996e-05
-4.90263e-05
1.14411e-05
-3.78202e-05
7.2062e-06
-2.49557e-05
5.3158e-06
-1.08231e-05
6.33032e-06
1.08371e-05
3.97831e-06
-1.4428e-06
1.89153e-05
-4.96711e-06
4.80196e-05
-9.94656e-06
6.99768e-05
-1.5875e-05
8.59253e-05
-2.23411e-05
9.68405e-05
-2.90101e-05
0.000103555
-3.56072e-05
0.000106768
-4.19041e-05
0.000107064
-4.7707e-05
0.000104925
-5.28465e-05
0.000100754
-5.71694e-05
9.48869e-05
-6.05306e-05
8.76106e-05
-6.27877e-05
7.91756e-05
-6.37953e-05
6.98108e-05
-6.34013e-05
5.97362e-05
-6.14448e-05
4.91776e-05
-5.77574e-05
3.83802e-05
-5.21669e-05
2.76246e-05
-4.45094e-05
1.72432e-05
-3.46471e-05
7.63732e-06
-2.24985e-05
-7.07547e-07
-8.07927e-06
-7.21303e-06
8.44464e-06
-1.12081e-05
2.66909e-05
-1.19159e-05
-8.45712e-06
4.59851e-05
-1.37364e-06
2.02889e-05
-4.68225e-06
5.13282e-05
-9.29224e-06
7.45868e-05
-1.46923e-05
9.13253e-05
-2.04678e-05
0.000102616
-2.62824e-05
0.00010937
-3.18616e-05
0.000112348
-3.69789e-05
0.000112181
-4.1444e-05
0.00010939
-4.50927e-05
0.000104403
-4.77787e-05
9.75729e-05
-4.9366e-05
8.91979e-05
-4.97221e-05
7.95318e-05
-4.87123e-05
6.88009e-05
-4.61937e-05
5.72176e-05
-4.20109e-05
4.49948e-05
-3.59933e-05
3.23626e-05
-2.79553e-05
1.95866e-05
-1.77019e-05
6.98988e-06
-5.04418e-06
-5.02045e-06
1.01726e-05
-1.59243e-05
2.80208e-05
-2.50613e-05
4.84212e-05
-3.16085e-05
7.10417e-05
-3.45364e-05
-3.25767e-05
9.51612e-05
-1.28613e-06
2.1575e-05
-4.3264e-06
5.43685e-05
-8.47913e-06
7.87395e-05
-1.32256e-05
9.60718e-05
-1.81453e-05
0.000107536
-2.2897e-05
0.000114121
-2.72031e-05
0.000116654
-3.08354e-05
0.000115813
-3.3604e-05
0.000112159
-3.53476e-05
0.000106146
-3.59259e-05
9.81512e-05
-3.52123e-05
8.84843e-05
-3.30879e-05
7.74075e-05
-2.94354e-05
6.51484e-05
-2.41325e-05
5.19147e-05
-1.70458e-05
3.79081e-05
-8.02414e-06
2.3341e-05
3.10621e-06
8.45623e-06
1.65436e-05
-6.44747e-06
3.25047e-05
-2.09816e-05
5.12042e-05
-3.46238e-05
7.28093e-05
-4.66664e-05
9.736e-05
-5.61591e-05
0.000124632
-6.18087e-05
-6.18611e-05
0.000153917
-1.18074e-06
2.27558e-05
-3.89932e-06
5.70871e-05
-7.50349e-06
8.23437e-05
-1.14636e-05
0.000100032
-1.53489e-05
0.000111421
-1.88087e-05
0.000117581
-2.1557e-05
0.000119402
-2.33584e-05
0.000117615
-2.4018e-05
0.000112818
-2.33719e-05
0.0001055
-2.12811e-05
9.60604e-05
-1.76256e-05
8.48288e-05
-1.22992e-05
7.20811e-05
-5.20495e-06
5.80541e-05
3.7508e-06
4.2959e-05
1.46647e-05
2.69942e-05
2.76448e-05
1.03608e-05
4.28206e-05
-6.7195e-06
6.03526e-05
-2.39795e-05
8.044e-05
-4.1069e-05
0.000103317
-5.75003e-05
0.000129222
-7.2572e-05
0.00015833
-8.5267e-05
0.00019059
-9.40684e-05
-9.6676e-05
0.000225405
-1.05874e-06
2.38145e-05
-3.40315e-06
5.94315e-05
-6.36608e-06
8.53066e-05
-9.40197e-06
0.000103068
-1.20642e-05
0.000114083
-1.39866e-05
0.000119504
-1.4868e-05
0.000120283
-1.44585e-05
0.000117205
-1.25499e-05
0.00011091
-8.96779e-06
0.000101918
-3.56607e-06
9.06587e-05
3.77663e-06
7.74861e-05
1.31599e-05
6.26978e-05
2.4664e-05
4.65501e-05
3.83526e-05
2.92704e-05
5.42772e-05
1.10695e-05
7.24844e-05
-7.84634e-06
9.30263e-05
-2.72613e-05
0.000115976
-4.69296e-05
0.00014145
-6.65429e-05
0.000169624
-8.56745e-05
0.000200741
-0.000103689
0.000235076
-0.000119602
0.0002728
-0.000131792
-0.000137451
0.000313575
-9.21962e-07
2.47365e-05
-2.84179e-06
6.13513e-05
-5.07109e-06
8.75359e-05
-7.0421e-06
0.000105039
-8.28572e-06
0.000115327
-8.41319e-06
0.000119631
-7.10006e-06
0.00011897
-4.07324e-06
0.000114179
8.98486e-07
0.000105938
8.01102e-06
9.48054e-05
1.74289e-05
8.12409e-05
2.92868e-05
6.56281e-05
4.36903e-05
4.82944e-05
6.07138e-05
2.95265e-05
8.04003e-05
9.58385e-06
0.00010276
-1.12901e-05
0.000127772
-3.28581e-05
0.00015539
-5.48793e-05
0.000185556
-7.70964e-05
0.000218229
-9.92152e-05
0.000253417
-0.000120862
0.000291233
-0.000141505
0.000331933
-0.000160303
0.00037589
-0.000175749
-0.000184726
0.000423165
-7.72529e-07
2.5509e-05
-2.21991e-06
6.27987e-05
-3.62433e-06
8.89403e-05
-4.38839e-06
0.000105803
-4.01324e-06
0.000114952
-2.07959e-06
0.000117697
1.76871e-06
0.000115122
7.83753e-06
0.00010811
1.63916e-05
9.73837e-05
2.76602e-05
8.35368e-05
4.18395e-05
6.70615e-05
5.90929e-05
4.83747e-05
7.95481e-05
2.78392e-05
0.000103293
5.78163e-06
0.000130369
-1.74923e-05
0.000160765
-4.16856e-05
0.000194407
-6.65002e-05
0.000231156
-9.16291e-05
0.000270809
-0.000116749
0.000313109
-0.000141514
0.000357783
-0.000165537
0.000404622
-0.000188344
0.000453605
-0.000209285
0.00050508
-0.000227224
-0.000239271
0.000559625
-6.1234e-07
2.61213e-05
-1.54149e-06
6.37278e-05
-2.03044e-06
8.94293e-05
-1.44399e-06
0.000105216
7.54258e-07
0.000112753
5.02203e-06
0.00011343
1.17556e-05
0.000108388
2.13027e-05
9.85626e-05
3.39718e-05
8.47147e-05
5.00365e-05
6.74721e-05
6.97379e-05
4.73601e-05
9.32827e-05
2.48299e-05
0.000120839
2.82472e-07
0.000152531
-2.59102e-05
0.000188426
-5.33875e-05
0.000228525
-8.17845e-05
0.000272744
-0.000110719
0.000320893
-0.000139778
0.000372657
-0.000168513
0.000427572
-0.000196429
0.000485022
-0.000222987
0.000544284
-0.000247606
0.000604665
-0.000269666
0.000665904
-0.000288463
-0.000302756
0.00072939
-4.42551e-07
2.65639e-05
-8.08221e-07
6.40935e-05
-2.8986e-07
8.89109e-05
1.79414e-06
0.000103132
6.02546e-06
0.000108522
1.29078e-05
0.000106547
2.28852e-05
9.8411e-05
3.6355e-05
8.50928e-05
5.36772e-05
6.73925e-05
7.51786e-05
4.59707e-05
0.000101154
2.13846e-05
0.000131865
-5.88114e-06
0.000167535
-3.53876e-05
0.000208343
-6.67181e-05
0.000254413
-9.94576e-05
0.000305802
-0.000133173
0.000362479
-0.000167396
0.000424297
-0.000201596
0.000490948
-0.000235164
0.000561898
-0.00026738
0.0006363
-0.000297389
0.00071289
-0.000324196
0.00078993
-0.000346706
0.00086558
-0.000364112
-0.000379284
0.000942108
-2.63058e-07
2.6827e-05
-1.79283e-08
6.38484e-05
1.6042e-06
8.72888e-05
5.33996e-06
9.93967e-05
1.18237e-05
0.000102038
2.16118e-05
9.67591e-05
3.52018e-05
8.4821e-05
5.30463e-05
6.72483e-05
7.55608e-05
4.48779e-05
0.000103129
1.8403e-05
0.000136101
-1.15875e-05
0.000174795
-4.45755e-05
0.000219494
-8.0086e-05
0.000270438
-0.000117662
0.000327826
-0.000156846
0.000391808
-0.000197155
0.00046248
-0.000238068
0.000539877
-0.000278993
0.000623952
-0.000319239
0.000714531
-0.000357959
0.000811211
-0.000394069
0.000913128
-0.000426114
0.00101828
-0.000451857
0.00112166
-0.000467495
-0.000468659
0.00121104
-7.25723e-08
2.68995e-05
8.3589e-07
6.29399e-05
3.6672e-06
8.44575e-05
9.22114e-06
9.38428e-05
1.81913e-05
9.30681e-05
3.1192e-05
8.37585e-05
4.87781e-05
6.72348e-05
7.14588e-05
4.45676e-05
9.97045e-05
1.66323e-05
0.00013395
-1.58423e-05
0.000174594
-5.22314e-05
0.000221998
-9.19795e-05
0.000276484
-0.000134572
0.000338336
-0.000179514
0.000407802
-0.000226311
0.000485104
-0.000274458
0.000570462
-0.000323425
0.000664127
-0.000372659
0.000766455
-0.000421567
0.000878023
-0.000469527
0.000999842
-0.000515888
0.00113371
-0.00055998
0.00128304
-0.000601186
0.00145535
-0.000639805
-0.000680762
0.00166745
1.33374e-07
2.67662e-05
1.76768e-06
6.13056e-05
5.92798e-06
8.02972e-05
1.34845e-05
8.62863e-05
2.51954e-05
8.13571e-05
4.17364e-05
6.72175e-05
6.37205e-05
4.52507e-05
9.17103e-05
1.65778e-05
0.000126223
-1.78808e-05
0.000167732
-5.73511e-05
0.000216661
-0.000101161
0.000273386
-0.000148704
0.000338225
-0.000199412
0.000411448
-0.000252737
0.000493274
-0.000308138
0.000583891
-0.000365074
0.000683475
-0.00042301
0.000792239
-0.000481423
0.000910492
-0.000539819
0.00103874
-0.000597771
0.00117781
-0.000654958
0.00132906
-0.000711232
0.00149458
-0.00076671
0.00167681
-0.000822037
-0.000876877
0.00187293
3.59783e-07
2.64064e-05
2.79518e-06
5.88702e-05
8.42288e-06
7.46695e-05
1.81892e-05
7.652e-05
3.29207e-05
6.66257e-05
5.33549e-05
4.67833e-05
8.01598e-05
1.84458e-05
0.000113943
-1.72055e-05
0.000155254
-5.91913e-05
0.000204577
-0.000106675
0.000262332
-0.000158915
0.000328857
-0.000215229
0.000404412
-0.000274967
0.000489172
-0.000337498
0.000583234
-0.000402199
0.000686621
-0.000468461
0.000799309
-0.000535698
0.000921249
-0.000603362
0.0010524
-0.000670972
0.00119278
-0.000738146
0.00134247
-0.00080465
0.00150167
-0.000870429
0.00167056
-0.000935607
0.00184881
-0.00100028
-0.0010614
0.00203332
6.13698e-07
2.57927e-05
3.94152e-06
5.55424e-05
1.11974e-05
6.74136e-05
2.34072e-05
6.43101e-05
4.14668e-05
4.85661e-05
6.61729e-05
2.20772e-05
9.82399e-05
-1.36212e-05
0.000138305
-5.72707e-05
0.000186924
-0.00010781
0.000244562
-0.000164313
0.000311582
-0.000225935
0.000388232
-0.000291879
0.00047464
-0.000361375
0.000570805
-0.000433663
0.000676603
-0.000507997
0.000791793
-0.000583651
0.000916031
-0.000659937
0.00104889
-0.000736221
0.00118987
-0.000811956
0.00133843
-0.000886705
0.00149396
-0.000960171
0.00165574
-0.00103221
0.0018229
-0.00110278
0.00199421
-0.00117158
-0.00123469
0.0021675
9.03193e-07
2.48895e-05
5.23266e-06
5.12129e-05
1.43014e-05
5.83449e-05
2.92156e-05
4.93959e-05
5.09374e-05
2.68443e-05
8.03149e-05
-7.30033e-06
0.000118094
-5.14007e-05
0.000164918
-0.000104094
0.000221315
-0.000164207
0.000287681
-0.00023068
0.00036427
-0.000302523
0.000451169
-0.000378779
0.000548297
-0.000458503
0.000655398
-0.000540763
0.000772044
-0.000624643
0.000897652
-0.000709259
0.0010315
-0.000793782
0.00117273
-0.000877457
0.00132041
-0.000959634
0.00147349
-0.00103979
0.00163085
-0.00111752
0.00179123
-0.0011926
0.00195328
-0.00126483
0.0021155
-0.00133379
-0.00139563
0.00227644
1.23672e-06
2.36528e-05
6.69521e-06
4.57544e-05
1.77851e-05
4.72549e-05
3.56889e-05
3.14922e-05
6.14277e-05
1.10548e-06
9.58869e-05
-4.17595e-05
0.000139821
-9.53345e-05
0.000193843
-0.000158117
0.000258409
-0.000228772
0.000333791
-0.000306062
0.000420062
-0.000388794
0.000517076
-0.000475793
0.000624468
-0.000565894
0.000741651
-0.000657946
0.000867834
-0.000750826
0.00100205
-0.000843472
0.00114317
-0.0009349
0.00128995
-0.00102424
0.00144107
-0.00111075
0.00159512
-0.00119385
0.00175069
-0.00127309
0.00190627
-0.00134818
0.00206039
-0.00141895
0.0022116
-0.00148501
-0.00154307
0.00235904
1.62239e-06
2.20304e-05
8.35409e-06
3.90227e-05
2.16936e-05
3.39155e-05
4.28907e-05
1.0295e-05
7.30116e-05
-2.90154e-05
0.000112956
-8.17043e-05
0.000163455
-0.000145833
0.000225046
-0.000219708
0.000298053
-0.00030178
0.000382558
-0.000390567
0.000478379
-0.000484615
0.000585062
-0.000582476
0.000701885
-0.000682718
0.000827877
-0.000783938
0.000961849
-0.000884799
0.00110244
-0.00098406
0.00124815
-0.00108061
0.00139742
-0.00117351
0.00154865
-0.00126198
0.00170026
-0.00134545
0.0018507
-0.00142353
0.0019985
-0.00149599
0.00214229
-0.00156273
0.00228087
-0.00162358
-0.00167603
0.00241382
2.06737e-06
1.9963e-05
1.02303e-05
3.08598e-05
2.60623e-05
1.80835e-05
5.08656e-05
-1.45082e-05
8.57293e-05
-6.38791e-05
0.000131536
-0.000127511
0.000188947
-0.000203243
0.000258368
-0.00028913
0.000339926
-0.000383337
0.000433432
-0.000484073
0.000538375
-0.000589558
0.000653922
-0.000698024
0.000778943
-0.000807739
0.000912053
-0.000917047
0.00105166
-0.00102441
0.00119605
-0.00112845
0.00134344
-0.001228
0.00149204
-0.00132211
0.00164013
-0.00141008
0.00178612
-0.00149144
0.00192854
-0.00156595
0.00206611
-0.00163355
0.00219774
-0.00169436
0.00232261
-0.00174845
-0.00179412
0.0024407
2.57732e-06
1.73857e-05
1.23391e-05
2.1098e-05
3.09138e-05
-4.91198e-07
5.96329e-05
-4.32273e-05
9.95778e-05
-0.000103824
0.000151571
-0.000179505
0.000216148
-0.000267819
0.000293515
-0.000366498
0.000383522
-0.000473344
0.000485635
-0.000586186
0.000598942
-0.000702865
0.000722178
-0.000821259
0.000853775
-0.000939336
0.000991936
-0.00105521
0.00113472
-0.00116719
0.00128012
-0.00127385
0.00142618
-0.00137406
0.00157105
-0.00146698
0.00171304
-0.00155207
0.00185069
-0.00162909
0.00198279
-0.00169804
0.00210837
-0.00175914
0.00222674
-0.00181273
0.00233749
-0.0018592
-0.0018976
0.00244097
3.15608e-06
1.42296e-05
1.46889e-05
9.56519e-06
3.62542e-05
-2.20565e-05
6.91819e-05
-7.61551e-05
0.000114504
-0.000149146
0.00017293
-0.00023793
0.0002448
-0.00033969
0.000330046
-0.000451744
0.00042816
-0.000571458
0.000538188
-0.000696215
0.000658762
-0.000823439
0.000788154
-0.000950651
0.000924366
-0.00107555
0.00106523
-0.00119608
0.00120854
-0.0013105
0.00135214
-0.00141745
0.00149401
-0.00151594
0.00163239
-0.00160536
0.00176579
-0.00168547
0.00189302
-0.00175632
0.00201323
-0.00181825
0.00212584
-0.00187175
0.00223061
-0.0019175
0.00232752
-0.00195611
-0.00198732
0.00241723
3.80549e-06
1.04241e-05
1.72801e-05
-3.9094e-06
4.20721e-05
-4.68485e-05
7.94694e-05
-0.000113552
0.000130403
-0.00020008
0.000195402
-0.000302929
0.000274539
-0.000418826
0.000367384
-0.000544589
0.000472998
-0.000677071
0.000589946
-0.000813163
0.00071637
-0.000949863
0.000850085
-0.00108437
0.000988708
-0.00121417
0.0011298
-0.00133717
0.00127099
-0.00145169
0.0014101
-0.00155656
0.00154524
-0.00165108
0.00167488
-0.00173499
0.00179782
-0.00180841
0.00191328
-0.00187178
0.0020208
-0.00192577
0.00212025
-0.0019712
0.00221174
-0.00200899
0.00229566
-0.00204003
-0.00206453
0.00237287
4.52535e-06
5.89877e-06
2.01053e-05
-1.94894e-05
4.83378e-05
-7.50809e-05
9.04186e-05
-0.000155633
0.000147116
-0.000256777
0.000218702
-0.000374516
0.000304898
-0.000505021
0.000404836
-0.000644527
0.000517074
-0.000789309
0.000639661
-0.00093575
0.000770248
-0.00108045
0.000906238
-0.00122036
0.00104495
-0.00135288
0.00118378
-0.001476
0.00132037
-0.00158827
0.00145266
-0.00168886
0.00157903
-0.00177745
0.00169828
-0.00185423
0.00180962
-0.00191976
0.00191269
-0.00197485
0.00200745
-0.00202053
0.00209415
-0.0020579
0.00217325
-0.00208809
0.0022454
-0.00211217
-0.00213072
0.00231159
5.31349e-06
5.85281e-07
2.31492e-05
-3.73251e-05
5.50034e-05
-0.000106935
0.00010192
-0.00020255
0.000164432
-0.000319289
0.000242474
-0.000452558
0.000335329
-0.000597877
0.000441618
-0.000750816
0.000559353
-0.000907044
0.000686056
-0.00106245
0.000818928
-0.00121332
0.00095504
-0.00135647
0.00109154
-0.00148938
0.00122582
-0.00161028
0.00135564
-0.0017181
0.00147925
-0.00181246
0.00159537
-0.00189358
0.00170324
-0.0019621
0.00180251
-0.00201903
0.00189322
-0.00206557
0.00197573
-0.00210304
0.00205059
-0.00213276
0.00211852
-0.00215601
0.00218031
-0.00217396
-0.00218744
0.00223703
6.16579e-06
-5.58051e-06
2.63886e-05
-5.75479e-05
6.20037e-05
-0.00014255
0.000113834
-0.000254381
0.000182096
-0.000387551
0.000266302
-0.000536764
0.000365218
-0.000696793
0.000476897
-0.000862494
0.000598784
-0.00102893
0.000727904
-0.00119157
0.000861083
-0.0013465
0.000995186
-0.00149057
0.00112733
-0.00162152
0.00125505
-0.00173799
0.00137639
-0.00183944
0.00148999
-0.00192606
0.00159501
-0.0019986
0.00169113
-0.00205822
0.00177844
-0.00210634
0.00185736
-0.00214449
0.00192853
-0.00217421
0.00199274
-0.00219697
0.00205085
-0.00221412
0.00210374
-0.00222686
-0.00223614
0.00215244
7.07626e-06
-1.26568e-05
2.97929e-05
-8.02645e-05
6.92567e-05
-0.000182014
0.000125993
-0.000311117
0.000199815
-0.000461373
0.000289728
-0.000626677
0.000393915
-0.00080098
0.000509826
-0.000978404
0.000634355
-0.00115346
0.000764097
-0.00132132
0.000895618
-0.00147802
0.00102572
-0.00162067
0.00115164
-0.00174744
0.00127119
-0.00185755
0.00138283
-0.00195109
0.00148565
-0.00202887
0.00157927
-0.00209222
0.00166381
-0.00214276
0.00173974
-0.00218227
0.00180776
-0.00221251
0.00186874
-0.00223519
0.0019236
-0.00225182
0.00197325
-0.00226377
0.00201859
-0.00227219
-0.0022781
0.00206055
8.03707e-06
-2.06938e-05
3.33245e-05
-0.000105552
7.66656e-05
-0.000225355
0.000138204
-0.000372656
0.000217265
-0.000540433
0.000312267
-0.000721679
0.000420762
-0.000909475
0.000539593
-0.00109724
0.000665158
-0.00127903
0.00079372
-0.00144988
0.000921727
-0.00160603
0.00104607
-0.00174501
0.00116425
-0.00186562
0.00127449
-0.00196779
0.00137571
-0.00205231
0.00146747
-0.00212064
0.00154987
-0.00217462
0.00162339
-0.00221629
0.00168881
-0.00224768
0.00174703
-0.00227074
0.00179904
-0.0022872
0.00184582
-0.0022986
0.00188827
-0.00230622
0.00192724
-0.00231116
-0.0023144
0.00196354
9.03855e-06
-2.97324e-05
3.69391e-05
-0.000133453
8.41205e-05
-0.000272536
0.000150258
-0.000438794
0.000234103
-0.000624277
0.000333424
-0.000821001
0.00044512
-0.00102117
0.00056546
-0.00121758
0.000690427
-0.00140399
0.00081609
-0.00157554
0.000938927
-0.00172886
0.00105606
-0.00186215
0.0011654
-0.00197496
0.00126562
-0.00206801
0.00135615
-0.00214284
0.00143703
-0.00220151
0.00150873
-0.00224632
0.00157205
-0.00227961
0.00162798
-0.00230361
0.00167755
-0.0023203
0.00172179
-0.00233144
0.00176165
-0.00233846
0.001798
-0.00234257
0.00183158
-0.00234475
-0.00234589
0.00186308
1.00693e-05
-3.98017e-05
4.05865e-05
-0.00016397
9.15006e-05
-0.000323451
0.000161931
-0.000509224
0.000249979
-0.000712325
0.000352722
-0.000923744
0.000466408
-0.00113486
0.0005868
-0.00133797
0.000709587
-0.00152678
0.000830786
-0.00169674
0.000947059
-0.00184514
0.0010559
-0.00197098
0.00115567
-0.00207473
0.00124559
-0.00215793
0.00132555
-0.00222281
0.00139601
-0.00227197
0.00145777
-0.00230808
0.00151186
-0.0023337
0.00155937
-0.00235112
0.00160139
-0.00236233
0.00163894
-0.00236898
0.0016729
-0.00237242
0.00170405
-0.00237372
0.00173303
-0.00237373
-0.00237326
0.0017604
1.11161e-05
-5.09177e-05
4.42114e-05
-0.000197065
9.86775e-05
-0.000377917
0.000172994
-0.000583541
0.00026455
-0.000803881
0.000369713
-0.00102891
0.000484121
-0.00124927
0.000603127
-0.00145697
0.000722263
-0.00164592
0.000837651
-0.00181213
0.000946269
-0.00195376
0.00104607
-0.00207078
0.00113594
-0.00216461
0.00121561
-0.00223759
0.00128541
-0.00229261
0.00134614
-0.0023327
0.00139885
-0.00236079
0.00144469
-0.00237954
0.00148482
-0.00239125
0.0015203
-0.00239781
0.00155208
-0.00240076
0.00158097
-0.00240131
0.00160764
-0.00240039
0.00163263
-0.00239872
-0.002397
0.00165637
1.21644e-05
-6.30821e-05
4.77546e-05
-0.000232655
0.000105518
-0.000435681
0.000183221
-0.000661243
0.000277495
-0.000898155
0.000384005
-0.00113542
0.000497857
-0.00136312
0.000614111
-0.00157323
0.000728295
-0.0017601
0.000836775
-0.00192061
0.000936957
-0.00205394
0.00102731
-0.00216114
0.00110726
-0.00224456
0.001177
-0.00230732
0.00123724
-0.00235285
0.00128905
-0.00238451
0.00133363
-0.00240537
0.00137218
-0.0024181
0.00140586
-0.00242492
0.00143567
-0.00242762
0.00146246
-0.00242756
0.00148695
-0.0024258
0.0015097
-0.00242313
0.00153115
-0.00242017
-0.00241749
0.00155163
1.31982e-05
-7.62804e-05
5.11545e-05
-0.000270612
0.000111891
-0.000496417
0.000192394
-0.000741747
0.000288522
-0.000994282
0.000395277
-0.00124217
0.000507327
-0.00147517
0.000619585
-0.00168548
0.000727718
-0.00186823
0.00082846
-0.00202135
0.000919722
-0.0021452
0.00100052
-0.00224193
0.00107078
-0.00231482
0.0011311
-0.00236765
0.0011825
-0.00240426
0.00122623
-0.00242823
0.00126355
-0.00244269
0.00129569
-0.00245024
0.00132373
-0.00245296
0.00134859
-0.00245247
0.00137101
-0.00244999
0.00139161
-0.0024464
0.00141086
-0.00244238
0.0014291
-0.00243841
-0.00243497
0.00144658
1.42009e-05
-9.04812e-05
5.43487e-05
-0.000310759
0.000117666
-0.000559735
0.000200317
-0.000824397
0.000297386
-0.00109135
0.000403286
-0.00134807
0.000512366
-0.00158425
0.000619539
-0.00179266
0.000720744
-0.00196944
0.00081318
-0.00211379
0.000895302
-0.00222732
0.00096666
-0.00231329
0.00102764
-0.00237579
0.00107917
-0.00241918
0.0011225
-0.00244759
0.00115896
-0.0024647
0.00118986
-0.00247358
0.00121635
-0.00247673
0.00123942
-0.00247604
0.00125991
-0.00247296
0.00127845
-0.00246853
0.00129555
-0.0024635
0.00131159
-0.00245842
0.00132685
-0.00245367
-0.00244963
0.00134152
1.51551e-05
-0.000105636
5.72763e-05
-0.000352881
0.000122725
-0.000625183
0.000206814
-0.000908486
0.000303894
-0.00118843
0.000407875
-0.00145205
0.000512928
-0.0016893
0.000614104
-0.00189383
0.00070773
-0.00206306
0.000791531
-0.00219759
0.000864518
-0.00230031
0.000926739
-0.00237551
0.000978965
-0.00242802
0.00102239
-0.00246261
0.0010584
-0.0024836
0.00108837
-0.00249466
0.00111355
-0.00249876
0.00113503
-0.0024982
0.0011537