/*--------------------------------*- C++ -*----------------------------------*\
  =========                 |
  \\      /  F ield         | OpenFOAM: The Open Source CFD Toolbox
   \\    /   O peration     | Website:  https://openfoam.org
    \\  /    A nd           | Version:  6.0
     \\/     M anipulation  |
\*---------------------------------------------------------------------------*/
FoamFile
{
    version     2.0;
    format      ascii;
    class       surfaceScalarField;
    location    "113";
    object      phi;
}
// * * * * * * * * * * * * * * * * * * * * * * * * * * * * * * * * * * * * * //

dimensions      [0 3 -1 0 0 0 0];

internalField   nonuniform List<scalar> 
24700
(
-3.06297e-06
-3.92472e-05
4.23102e-05
-1.06693e-05
-0.000119698
0.000127304
-2.17665e-05
-0.000199106
0.000210204
-3.55472e-05
-0.000274883
0.000288664
-5.13044e-05
-0.000345569
0.000361326
-6.83562e-05
-0.000410716
0.000427767
-8.60186e-05
-0.000470522
0.000488185
-0.000103611
-0.000525515
0.000543107
-0.000120477
-0.000576293
0.00059316
-0.000136019
-0.000623348
0.00063889
-0.00014972
-0.000666973
0.000680675
-0.000161172
-0.000707239
0.00071869
-0.000170079
-0.000744029
0.000752936
-0.000176271
-0.000777093
0.000783285
-0.000179691
-0.000806128
0.000809548
-0.000180386
-0.000830838
0.000831532
-0.000178489
-0.000850991
0.000849094
-0.000174199
-0.000866461
0.000862171
-0.000167756
-0.000877243
0.000870799
-0.000159413
-0.000883463
0.000875121
-0.000149417
-0.000885372
0.000875377
-0.000137983
-0.000883333
0.000871899
-0.000125279
-0.0008778
0.000865096
-0.000111418
-0.000869284
0.000855423
-0.000858412
0.000843446
-9.64529e-05
-4.02377e-06
-3.52235e-05
-1.39091e-05
-0.000109813
-2.82079e-05
-0.000184808
-4.58331e-05
-0.000257258
-6.58761e-05
-0.000325526
-8.75126e-05
-0.000389079
-0.000109961
-0.000448074
-0.000132473
-0.000503003
-0.000154351
-0.000554415
-0.000174964
-0.000602735
-0.000193771
-0.000648166
-0.000210335
-0.000690675
-0.000224337
-0.000730027
-0.000235575
-0.000765856
-0.000243959
-0.000797744
-0.000249509
-0.000825288
-0.000252334
-0.000848166
-0.000252616
-0.000866179
-0.000250587
-0.000879272
-0.000246507
-0.000887544
-0.000240635
-0.000891244
-0.000233212
-0.000890757
-0.000224437
-0.000886576
-0.000214462
-0.000879259
-0.000869491
-0.000203382
-4.93519e-06
-3.02883e-05
-1.69694e-05
-9.77784e-05
-3.42695e-05
-0.000167507
-5.54808e-05
-0.000236046
-7.95081e-05
-0.000301499
-0.000105402
-0.000363185
-0.000132301
-0.000421175
-0.00015941
-0.000475894
-0.000186002
-0.000527823
-0.000211426
-0.000577311
-0.000235123
-0.00062447
-0.000256632
-0.000669166
-0.000275601
-0.000711058
-0.000291789
-0.000749668
-0.000305067
-0.000784466
-0.000315409
-0.000814946
-0.000322887
-0.000840688
-0.000327655
-0.000861411
-0.00032993
-0.000876996
-0.000329971
-0.000887503
-0.000328051
-0.000893163
-0.000324437
-0.000894371
-0.000319367
-0.000891645
-0.000313039
-0.000885587
-0.000876934
-0.000305596
-5.75622e-06
-2.45321e-05
-1.97215e-05
-8.38132e-05
-3.97111e-05
-0.000147518
-6.41279e-05
-0.00021163
-9.17122e-05
-0.000273914
-0.000121411
-0.000333486
-0.000152304
-0.000390282
-0.000183568
-0.00044463
-0.000214461
-0.00049693
-0.000244326
-0.000547446
-0.00027259
-0.000596205
-0.000298773
-0.000642984
-0.000322486
-0.000687344
-0.000343445
-0.000728709
-0.000361466
-0.000766445
-0.000376468
-0.000799944
-0.000388471
-0.000828685
-0.000397588
-0.000852294
-0.000404009
-0.000870575
-0.000407985
-0.000883528
-0.000409799
-0.000891349
-0.000409747
-0.000894423
-0.000408109
-0.000893283
-0.000405133
-0.000888563
-0.000881052
-0.000401016
-6.44659e-06
-1.80855e-05
-2.20415e-05
-6.82183e-05
-4.43028e-05
-0.000125257
-7.14282e-05
-0.000184504
-0.000102023
-0.00024332
-0.000134954
-0.000300555
-0.000169263
-0.000355973
-0.000204115
-0.000409778
-0.000238772
-0.000462272
-0.000272581
-0.000513637
-0.000304965
-0.000563822
-0.000335424
-0.000612524
-0.000363539
-0.000659229
-0.000388973
-0.000703275
-0.00041148
-0.000743938
-0.000430914
-0.00078051
-0.000447227
-0.000812371
-0.000460476
-0.000839045
-0.000470811
-0.00086024
-0.000478463
-0.000875876
-0.000483719
-0.000886092
-0.000486902
-0.000891241
-0.000488333
-0.000891852
-0.000488316
-0.00088858
-0.000882263
-0.000487105
-6.96949e-06
-1.1116e-05
-2.38167e-05
-5.1371e-05
-4.78367e-05
-0.000101237
-7.70696e-05
-0.000155271
-0.000110018
-0.000210371
-0.000145496
-0.000265078
-0.000182525
-0.000318944
-0.000220277
-0.000372026
-0.00025803
-0.000424519
-0.000295147
-0.000476521
-0.000331056
-0.000527913
-0.000365247
-0.000578334
-0.000397269
-0.000627207
-0.000426735
-0.000673808
-0.000453334
-0.000717339
-0.00047684
-0.000757004
-0.000497129
-0.000792083
-0.000514182
-0.000821991
-0.000528094
-0.000846328
-0.000539059
-0.000864911
-0.000547358
-0.000877794
-0.000553329
-0.00088527
-0.000557337
-0.000887843
-0.000559741
-0.000886177
-0.000881147
-0.000560856
-7.29443e-06
-3.82155e-06
-2.49542e-05
-3.37112e-05
-5.01409e-05
-7.60499e-05
-8.07924e-05
-0.00012462
-0.000115346
-0.000175818
-0.000152584
-0.00022784
-0.000191529
-0.000279998
-0.000231373
-0.000332182
-0.000271421
-0.00038447
-0.000311063
-0.000436879
-0.000349744
-0.000489232
-0.000386951
-0.000541126
-0.000422211
-0.000591948
-0.00045509
-0.000640929
-0.00048521
-0.000687219
-0.000512264
-0.00072995
-0.000536036
-0.00076831
-0.000556421
-0.000801607
-0.000573434
-0.000829316
-0.000587214
-0.000851131
-0.000598015
-0.000866993
-0.00060618
-0.000877105
-0.000612108
-0.000881915
-0.000616213
-0.000882072
-0.00087848
-0.00061888
-7.39984e-06
3.57828e-06
-2.53873e-05
-1.57237e-05
-5.10908e-05
-5.03465e-05
-8.24064e-05
-9.33043e-05
-0.000117742
-0.000140482
-0.000155873
-0.000189709
-0.000195838
-0.000240034
-0.000236856
-0.000291164
-0.000278272
-0.000343054
-0.000319512
-0.000395639
-0.000360046
-0.000448698
-0.000399371
-0.0005018
-0.000437003
-0.000554316
-0.000472472
-0.000605461
-0.000505339
-0.000654351
-0.000535217
-0.000700072
-0.000561792
-0.000741735
-0.000584857
-0.000778542
-0.000604329
-0.000809844
-0.000620266
-0.000835194
-0.00063287
-0.000854389
-0.000642469
-0.000867506
-0.000649484
-0.000874901
-0.00065438
-0.000877176
-0.000875238
-0.000657622
-7.27512e-06
1.08534e-05
-2.50817e-05
2.08289e-06
-5.06197e-05
-2.48085e-05
-8.18057e-05
-6.21184e-05
-0.000117055
-0.000105233
-0.000155155
-0.000151608
-0.000195171
-0.000200018
-0.000236358
-0.000249977
-0.000278106
-0.000301306
-0.000319882
-0.000353864
-0.000361193
-0.000407387
-0.000401559
-0.000461435
-0.000440496
-0.000515379
-0.000477514
-0.000568442
-0.00051213
-0.000619736
-0.000543881
-0.00066832
-0.000572362
-0.000713254
-0.000597252
-0.000753652
-0.000618353
-0.000788743
-0.000635618
-0.000817928
-0.000649167
-0.00084084
-0.000659284
-0.000857389
-0.000666393
-0.000867792
-0.000671006
-0.000872563
-0.000872567
-0.000673676
-6.92211e-06
1.77755e-05
-2.40395e-05
1.92003e-05
-4.87265e-05
-1.21473e-07
-7.89804e-05
-3.18646e-05
-0.000113258
-7.09559e-05
-0.000150378
-0.000114488
-0.000189436
-0.00016096
-0.00022973
-0.000209683
-0.000270693
-0.000260343
-0.000311839
-0.000312717
-0.000352719
-0.000366508
-0.000392884
-0.00042127
-0.00043187
-0.000476393
-0.000469187
-0.000531125
-0.000504324
-0.0005846
-0.000536765
-0.000635879
-0.00056602
-0.000683999
-0.000591662
-0.00072801
-0.000613367
-0.000767038
-0.000630961
-0.000800334
-0.000644451
-0.00082735
-0.000654044
-0.000847796
-0.00066014
-0.000861696
-0.000663287
-0.000869415
-0.000871716
-0.000664139
-6.35559e-06
2.41311e-05
-2.23011e-05
3.51458e-05
-4.54788e-05
2.30562e-05
-7.40224e-05
-3.32091e-06
-0.000106461
-3.8517e-05
-0.00014166
-7.92895e-05
-0.000178751
-0.000123869
-0.00021707
-0.000171363
-0.000256094
-0.000221319
-0.000295382
-0.00027343
-0.00033453
-0.00032736
-0.000373134
-0.000382666
-0.000410762
-0.000438765
-0.000446945
-0.000494943
-0.000481168
-0.000550376
-0.00051289
-0.000604157
-0.000541563
-0.000655327
-0.000566665
-0.000702908
-0.000587755
-0.000745948
-0.000604517
-0.000783572
-0.000616822
-0.000815045
-0.000624767
-0.000839851
-0.000628692
-0.000857772
-0.000629162
-0.000868945
-0.000873942
-0.000626936
-5.60264e-06
2.97337e-05
-1.99436e-05
4.94868e-05
-4.10114e-05
4.41241e-05
-6.71247e-05
2.27924e-05
-9.69127e-05
-8.72901e-06
-0.000129297
-4.69054e-05
-0.000163449
-8.97163e-05
-0.000198741
-0.000136072
-0.000234684
-0.000185376
-0.000270879
-0.000237234
-0.000306967
-0.000291272
-0.000342591
-0.000347042
-0.000377364
-0.000403991
-0.000410855
-0.000461452
-0.000442575
-0.000518655
-0.000471989
-0.000574744
-0.000498522
-0.000628794
-0.000521595
-0.000679835
-0.000540667
-0.000726876
-0.000555292
-0.000768947
-0.000565191
-0.000805146
-0.00057032
-0.000834722
-0.000570923
-0.000857168
-0.00056755
-0.000872318
-0.000880433
-0.000561059
-4.70102e-06
3.44347e-05
-1.70768e-05
6.18626e-05
-3.552e-05
6.25673e-05
-5.85724e-05
4.58447e-05
-8.49858e-05
1.76844e-05
-0.000113749
-1.81423e-05
-0.000144074
-5.93915e-05
-0.00017536
-0.000104785
-0.000207149
-0.000153587
-0.000239075
-0.000205309
-0.000270816
-0.00025953
-0.000302062
-0.000315796
-0.000332476
-0.000373577
-0.000361679
-0.000432249
-0.000389233
-0.000491101
-0.000414638
-0.000549339
-0.000437336
-0.000606095
-0.000456734
-0.000660437
-0.000472235
-0.000711376
-0.000483291
-0.000757891
-0.000489483
-0.000798954
-0.000490611
-0.000833594
-0.000486787
-0.000860992
-0.000478503
-0.000880603
-0.000892245
-0.000466691
-3.69639e-06
3.81311e-05
-1.3836e-05
7.20022e-05
-2.92489e-05
7.79802e-05
-4.87266e-05
6.53224e-05
-7.11612e-05
4.01191e-05
-9.56169e-05
6.31335e-06
-0.000121346
-3.36624e-05
-0.000147772
-7.83591e-05
-0.000174457
-0.000126903
-0.000201055
-0.000178711
-0.000227278
-0.000233308
-0.000252851
-0.000290223
-0.000277489
-0.000348939
-0.000300871
-0.000408867
-0.000322623
-0.000469349
-0.000342311
-0.000529652
-0.000359433
-0.000588973
-0.000373429
-0.00064644
-0.000383704
-0.000701102
-0.000389661
-0.000751934
-0.000390778
-0.000797837
-0.000386708
-0.000837663
-0.000377407
-0.000870294
-0.000363258
-0.000894751
-0.000910279
-0.000345224
-2.63888e-06
4.077e-05
-1.03721e-05
7.97354e-05
-2.24745e-05
9.00825e-05
-3.80007e-05
8.08485e-05
-5.5995e-05
5.81135e-05
-7.56039e-05
2.59222e-05
-9.61209e-05
-1.31454e-05
-0.00011699
-5.74901e-05
-0.000137783
-0.00010611
-0.000158169
-0.000158325
-0.000177875
-0.000213601
-0.000196659
-0.000271439
-0.000214278
-0.000331321
-0.000230466
-0.000392679
-0.000244921
-0.000454893
-0.000257291
-0.000517282
-0.00026716
-0.000579104
-0.00027405
-0.000639549
-0.000277424
-0.000697728
-0.000276705
-0.000752652
-0.000271332
-0.000803209
-0.000260851
-0.000848144
-0.000245061
-0.000886084
-0.000224197
-0.000915614
-0.000935297
-0.00019918
-1.57925e-06
4.23493e-05
-6.84082e-06
8.4997e-05
-1.54859e-05
9.87276e-05
-2.68319e-05
9.21945e-05
-4.00807e-05
7.13622e-05
-5.44659e-05
4.03074e-05
-6.93242e-05
1.71289e-06
-8.41168e-05
-4.26974e-05
-9.84219e-05
-9.18045e-05
-0.000111911
-0.000144836
-0.000124321
-0.000201191
-0.000135426
-0.000260334
-0.000145016
-0.000321731
-0.000152875
-0.00038482
-0.000158769
-0.000448999
-0.000162432
-0.00051362
-0.000163553
-0.000577983
-0.000161768
-0.000641334
-0.000156652
-0.000702845
-0.000147716
-0.000761588
-0.000134437
-0.000816488
-0.000116324
-0.000866257
-9.30555e-05
-0.000909353
-6.46984e-05
-0.000943972
-0.000967939
-3.20565e-05
-5.65021e-07
4.29143e-05
-3.39141e-06
8.78234e-05
-8.56436e-06
0.000103901
-1.56499e-05
9.92801e-05
-2.40061e-05
7.97184e-05
-3.29562e-05
4.92576e-05
-4.18819e-05
1.06385e-05
-5.02615e-05
-3.43178e-05
-5.76752e-05
-8.43908e-05
-6.37917e-05
-0.000138719
-6.83473e-05
-0.000196636
-7.11251e-05
-0.000257556
-7.19358e-05
-0.00032092
-7.06035e-05
-0.000386152
-6.69536e-05
-0.000452649
-6.08033e-05
-0.00051977
-5.19507e-05
-0.000586836
-4.01626e-05
-0.000653122
-2.51589e-05
-0.000717849
-6.59846e-06
-0.000780149
1.59255e-05
-0.000839012
4.28547e-05
-0.000893186
7.45611e-05
-0.000941059
0.000111132
-0.000980542
-0.00100875
0.00015194
3.62927e-07
4.25513e-05
-1.55668e-07
8.8342e-05
-1.96259e-06
0.000105708
-4.84602e-06
0.000102164
-8.31092e-06
8.31833e-05
-1.17694e-05
5.2716e-05
-1.46491e-05
1.35183e-05
-1.64461e-05
-3.25208e-05
-1.67413e-05
-8.40956e-05
-1.51968e-05
-0.000140264
-1.15432e-05
-0.000200289
-5.56432e-06
-0.000263535
2.91566e-06
-0.0003294
1.40425e-05
-0.000397279
2.79393e-05
-0.000466546
4.47125e-05
-0.000536543
6.44593e-05
-0.000606582
8.72782e-05
-0.000675941
0.000113286
-0.000743857
0.000142642
-0.000809505
0.000175574
-0.000871944
0.000212387
-0.00093
0.000253414
-0.000982086
0.000298837
-0.00102597
-0.00105815
0.000348243
1.17308e-06
4.13783e-05
2.76093e-06
8.67541e-05
4.11246e-06
0.000104356
5.255e-06
0.000101021
6.55293e-06
8.18853e-05
8.51098e-06
5.07579e-05
1.16561e-05
1.03732e-05
1.64742e-05
-3.73389e-05
2.33838e-05
-9.10053e-05
3.27309e-05
-0.000149611
4.47934e-05
-0.000212352
5.97898e-05
-0.000278532
7.78867e-05
-0.000347497
9.9204e-05
-0.000418597
0.000123818
-0.00049116
0.000151763
-0.000564488
0.000183036
-0.000637855
0.000217602
-0.000710508
0.000255412
-0.000781666
0.000296426
-0.000850518
0.000340654
-0.000916172
0.000388199
-0.000977544
0.000439259
-0.00103315
0.000494029
-0.00108074
-0.00111642
0.000552294
1.84508e-06
3.95332e-05
5.28585e-06
8.33133e-05
9.51341e-06
0.000100128
1.44167e-05
9.61177e-05
2.02528e-05
7.60492e-05
2.74538e-05
4.3557e-05
3.65048e-05
1.32211e-06
4.7875e-05
-4.87091e-05
6.19823e-05
-0.000105113
7.91801e-05
-0.000166809
9.97543e-05
-0.000232926
0.000123925
-0.000302702
0.000151848
-0.00037542
0.000183616
-0.000450364
0.000219254
-0.000526798
0.000258723
-0.000603957
0.000301916
-0.000681049
0.000348667
-0.000757258
0.000398758
-0.000831758
0.000451949
-0.000903709
0.000508016
-0.000972239
0.000566817
-0.00103635
0.000628344
-0.00109467
0.000692706
-0.0011451
-0.00118354
0.000759831
2.37056e-06
3.71626e-05
7.38321e-06
7.83007e-05
1.4161e-05
9.33507e-05
2.25059e-05
8.77727e-05
3.25972e-05
6.5958e-05
4.48093e-05
3.13449e-05
5.95935e-05
-1.34621e-05
7.74044e-05
-6.652e-05
9.86594e-05
-0.000126368
0.000123717
-0.000191867
0.000152869
-0.000262077
0.000186329
-0.000336162
0.000224234
-0.000413326
0.000266637
-0.000492767
0.000313503
-0.000573664
0.000364705
-0.000655159
0.000420024
-0.000736367
0.000479151
-0.000816385
0.000541701
-0.000894308
0.000607234
-0.000969241
0.000675293
-0.0010403
0.000745478
-0.00110653
0.000817527
-0.00116672
0.000891373
-0.00121894
-0.00125916
0.000966986
2.75303e-06
3.44096e-05
9.05464e-06
7.19991e-05
1.80468e-05
8.43585e-05
2.94989e-05
7.63207e-05
4.3545e-05
5.19118e-05
6.05222e-05
1.43677e-05
8.08578e-05
-3.37977e-05
0.000104997
-9.06588e-05
0.000133355
-0.000154726
0.000166292
-0.000224804
0.000204094
-0.000299879
0.000246958
-0.000379027
0.000294985
-0.000461353
0.000348169
-0.000545951
0.00040639
-0.000631885
0.000469412
-0.000718181
0.000536881
-0.000803837
0.000608334
-0.000887839
0.000683211
-0.000969185
0.000760876
-0.00104691
0.000840655
-0.00112008
0.000921904
-0.00118778
0.0010041
-0.00124891
0.0010869
-0.00130175
-0.00134247
0.00117022
3.00689e-06
3.14027e-05
1.03371e-05
6.46688e-05
2.12311e-05
7.34644e-05
3.54782e-05
6.20736e-05
5.3203e-05
3.4187e-05
7.47269e-05
-7.15614e-06
0.000100466
-5.95366e-05
0.000130859
-0.000121052
0.000166318
-0.000190185
0.000207195
-0.000265681
0.000253755
-0.000346438
0.000306155
-0.000431427
0.000364433
-0.000519631
0.000428492
-0.000610011
0.000498097
-0.000701489
0.000572869
-0.000792953
0.000652298
-0.000883265
0.000735745
-0.000971286
0.000822468
-0.00105591
0.000911643
-0.00113608
0.0010024
-0.00121084
0.00109388
-0.00127926
0.00118535
-0.00134038
0.00127621
-0.00139261
-0.00143246
0.0013662
3.15574e-06
2.8247e-05
1.12983e-05
5.65263e-05
2.38342e-05
6.09285e-05
4.06213e-05
4.52865e-05
6.18092e-05
1.29991e-05
8.77259e-05
-3.30729e-05
0.000118788
-9.05985e-05
0.00015543
-0.000157694
0.000198054
-0.000232809
0.000246985
-0.000314612
0.000302441
-0.000401895
0.000364508
-0.000493494
0.000433121
-0.000588243
0.00050805
-0.000684939
0.000588901
-0.000782341
0.000675124
-0.000879176
0.000766023
-0.000974164
0.000860782
-0.00106604
0.000958489
-0.00115362
0.00105816
-0.00123575
0.00115877
-0.00131145
0.00125928
-0.00137978
0.00135872
-0.00143982
0.00145627
-0.00149015
-0.00152805
0.00155186
3.23012e-06
2.50168e-05
1.20296e-05
4.77268e-05
2.60238e-05
4.69343e-05
4.51805e-05
2.61298e-05
6.97051e-05
-1.15255e-05
9.99521e-05
-6.33198e-05
0.000136346
-0.000126993
0.000179316
-0.000200663
0.000229234
-0.000282727
0.000286374
-0.000371752
0.00035087
-0.000466391
0.000422688
-0.000565312
0.000501607
-0.000667162
0.000587214
-0.000770546
0.00067891
-0.000874037
0.000775931
-0.000976198
0.000877384
-0.00107562
0.000982285
-0.00117095
0.00108961
-0.00126094
0.00119833
-0.00134448
0.00130746
-0.00142058
0.00141603
-0.00148835
0.00152292
-0.00154671
0.00162614
-0.00159338
-0.00162377
0.00172187
3.26442e-06
2.17524e-05
1.26371e-05
3.83541e-05
2.79981e-05
3.15734e-05
4.9457e-05
4.67091e-06
7.7299e-05
-3.93675e-05
0.000111919
-9.79396e-05
0.000153751
-0.000168825
0.000203203
-0.000250116
0.000260596
-0.00034012
0.00032611
-0.000437266
0.000399743
-0.000540024
0.000481281
-0.000646851
0.000570287
-0.000756168
0.000666102
-0.000866361
0.00076787
-0.000975805
0.000874575
-0.0010829
0.000985097
-0.00118614
0.00109828
-0.00128413
0.00121301
-0.00137567
0.0013283
-0.00145977
0.00144341
-0.00153568
0.00155797
-0.00160291
0.00167235
-0.00166108
0.00178888
-0.00170991
-0.00174827
0.00191337
3.29515e-06
1.84573e-05
1.32336e-05
2.84157e-05
2.99679e-05
1.4839e-05
5.37701e-05
-1.91312e-05
8.50199e-05
-7.06174e-05
0.000124157
-0.000137077
0.000171616
-0.000216284
0.000227762
-0.000306262
0.000292822
-0.000405179
0.000366829
-0.000511273
0.000449583
-0.000622778
0.000540624
-0.000737892
0.000639231
-0.000854775
0.000744441
-0.000971572
0.000855093
-0.00108646
0.000969886
-0.00119769
0.00108745
-0.0013037
0.00120643
-0.00140311
0.00132558
-0.00149481
0.0014438
-0.00157798
0.00156024
-0.00165213
0.0016744
-0.00171707
0.00178622
-0.0017729
0.0018963
-0.00181999
-0.00185697
0.002005
3.35614e-06
1.51011e-05
1.39262e-05
1.78456e-05
3.21359e-05
-3.37077e-06
5.84264e-05
-4.54216e-05
9.32755e-05
-0.000105466
0.00013716
-0.000180961
0.000190495
-0.000269619
0.000253561
-0.000369328
0.000326441
-0.000478059
0.000408957
-0.000593789
0.000500641
-0.000714461
0.000600717
-0.000837968
0.000708121
-0.00096218
0.000821544
-0.00108499
0.000939495
-0.00120441
0.00106039
-0.00131859
0.00118262
-0.00142594
0.00130468
-0.00152517
0.0014252
-0.00161533
0.00154304
-0.00169582
0.00165731
-0.0017664
0.00176739
-0.00182715
0.00187294
-0.00187845
0.0019737
-0.00192075
-0.00195285
0.00206958
3.4772e-06
1.16239e-05
1.48096e-05
6.5132e-06
3.468e-05
-2.32411e-05
6.36916e-05
-7.44333e-05
0.00010241
-0.000144185
0.000151328
-0.00022988
0.000210804
-0.000329095
0.000280985
-0.000439509
0.000361743
-0.000558816
0.000452619
-0.000684665
0.000552805
-0.000814647
0.000661151
-0.000946314
0.000776208
-0.00107724
0.000896302
-0.00120509
0.00101963
-0.00132773
0.00114434
-0.0014433
0.00126868
-0.00155028
0.00139104
-0.00164753
0.00151005
-0.00173434
0.00162461
-0.00181038
0.00173392
-0.0018757
0.00183743
-0.00193066
0.00193484
-0.00197587
0.00202606
-0.00201197
-0.0020383
0.00211151
3.68173e-06
7.9422e-06
1.59587e-05
-5.76375e-06
3.77392e-05
-4.50216e-05
6.97681e-05
-0.000106462
0.000112673
-0.00018709
0.000166928
-0.000284135
0.000232783
-0.000394949
0.000310187
-0.000516913
0.000398729
-0.000647358
0.000497598
-0.000783535
0.000605584
-0.000922634
0.000721121
-0.00106185
0.000842359
-0.00119848
0.000967276
-0.00133001
0.0010938
-0.00145425
0.00121991
-0.00156941
0.00134378
-0.00167415
0.00146382
-0.00176758
0.00157878
-0.0018493
0.00168772
-0.00191932
0.00179004
-0.00197802
0.00188543
-0.00202605
0.00197383
-0.00206427
0.00205539
-0.00209353
-0.0021137
0.00213079
3.98552e-06
3.95668e-06
1.7424e-05
-1.92022e-05
4.14054e-05
-6.9003e-05
7.67811e-05
-0.000141838
0.000124202
-0.000234512
0.000184071
-0.000344004
0.000256466
-0.000467344
0.000341067
-0.000601514
0.000437105
-0.000743396
0.000543351
-0.00088978
0.000658148
-0.00103743
0.000779495
-0.0011832
0.000905164
-0.00132414
0.00103284
-0.00145768
0.00116026
-0.00158167
0.00128534
-0.0016945
0.00140631
-0.00179511
0.00152172
-0.00188299
0.00163054
-0.00195812
0.0017321
-0.00202088
0.00182609
-0.00207201
0.00191252
-0.00211248
0.00199162
-0.00214336
0.00206383
-0.00216574
-0.00217993
0.00213006
4.39658e-06
-4.39894e-07
1.9231e-05
-3.40366e-05
4.57204e-05
-9.54924e-05
8.47753e-05
-0.000180893
0.000137016
-0.000286753
0.00020271
-0.000409698
0.00028169
-0.000546324
0.000373289
-0.000693113
0.000476312
-0.000846419
0.000589057
-0.00100253
0.000709403
-0.00115778
0.000834931
-0.00130872
0.000963085
-0.0014523
0.00109134
-0.00158594
0.00121738
-0.0017077
0.00133916
-0.00181629
0.00145509
-0.00191104
0.00156397
-0.00199188
0.00166508
-0.00205923
0.00175809
-0.00211389
0.00184304
-0.00215696
0.00192022
-0.00218966
0.00199017
-0.00221331
0.00205358
-0.00222915
-0.0022378
0.00211145
4.91577e-06
-5.35566e-06
2.13817e-05
-5.05025e-05
5.06793e-05
-0.00012479
9.3719e-05
-0.000223932
0.000151025
-0.000344059
0.000222654
-0.000481327
0.000308115
-0.000631784
0.000406316
-0.000791315
0.000515578
-0.00095568
0.000633701
-0.00112065
0.000758105
-0.00128218
0.000886005
-0.00143662
0.00101461
-0.0015809
0.00114131
-0.00171264
0.00126382
-0.00183021
0.00138031
-0.00193278
0.00148944
-0.00202017
0.00159039
-0.00209282
0.00168277
-0.00215161
0.00176664
-0.00219776
0.00184234
-0.00223266
0.00191047
-0.00225779
0.00197178
-0.00227463
0.00202715
-0.00228451
-0.00228829
0.00207764
5.53821e-06
-1.08939e-05
2.38581e-05
-6.88224e-05
5.62367e-05
-0.000157169
0.000103515
-0.000271211
0.000166046
-0.00040659
0.000243594
-0.000558874
0.000335259
-0.00072345
0.000439462
-0.000895517
0.000553997
-0.00107021
0.000676166
-0.00124282
0.000802973
-0.00140899
0.000931353
-0.001565
0.00105839
-0.00170794
0.00118152
-0.00183576
0.00129864
-0.00194733
0.00140822
-0.00204236
0.00150928
-0.00212123
0.00160138
-0.00218493
0.00168454
-0.00223478
0.00175914
-0.00227236
0.00182583
-0.00229935
0.00188544
-0.00231739
0.00193887
-0.00232806
0.00198709
-0.00233273
-0.00233237
0.00203116
6.25485e-06
-1.71487e-05
2.66273e-05
-8.91949e-05
6.23162e-05
-0.000192858
0.000114017
-0.000322912
0.000181826
-0.000474399
0.000265129
-0.000642178
0.000362545
-0.000820865
0.000471951
-0.00100492
0.0005906
-0.00118886
0.000715326
-0.00136754
0.000842797
-0.00153646
0.000969777
-0.00169198
0.00109336
-0.00183153
0.00121116
-0.00195356
0.00132137
-0.00205754
0.00142284
-0.00214383
0.00151501
-0.00221341
0.00159786
-0.00226777
0.00167175
-0.00230867
0.00173737
-0.00233798
0.0017956
-0.00235758
0.00184741
-0.00236921
0.00189383
-0.00237447
0.00193582
-0.00237473
-0.00237097
0.00197442
7.05407e-06
-2.42028e-05
2.96461e-05
-0.000111787
6.88193e-05
-0.000232031
0.000125041
-0.000379133
0.000198062
-0.00054742
0.000286806
-0.000730922
0.000389342
-0.000923402
0.000502973
-0.00111855
0.000624427
-0.00131032
0.000750132
-0.00149325
0.000876524
-0.00166285
0.00100033
-0.00181579
0.00111879
-0.00194999
0.00122981
-0.00206457
0.00133199
-0.00215972
0.0014246
-0.00223644
0.00150752
-0.00229633
0.0015811
-0.00234134
0.00164603
-0.0023736
0.00170323
-0.00239518
0.00175374
-0.00240809
0.00179863
-0.0024141
0.00183891
-0.00241476
0.00187557
-0.00241139
-0.00240492
0.00190952
7.92296e-06
-3.21257e-05
3.2865e-05
-0.000136729
7.56331e-05
-0.000274799
0.000136378
-0.000439879
0.000214419
-0.00062546
0.000308137
-0.00082464
0.000415002
-0.00103027
0.000531736
-0.00123529
0.000654586
-0.00143317
0.000779671
-0.00161833
0.000903322
-0.0017865
0.00102237
-0.00193484
0.00113433
-0.00206195
0.00123749
-0.00216774
0.00133091
-0.00225314
0.00141431
-0.00231984
0.00148799
-0.00237
0.00155262
-0.00240597
0.00160915
-0.00243013
0.00165867
-0.0024447
0.00170229
-0.00245171
0.00174111
-0.00245292
0.00177613
-0.00244978
0.00180823
-0.00244349
-0.00243493
0.00183825
8.8481e-06
-4.09738e-05
3.62309e-05
-0.000164112
8.26363e-05
-0.000321204
0.00014781
-0.000505052
0.00023055
-0.0007082
0.000328631
-0.000922721
0.000438894
-0.00114053
0.000557503
-0.0013539
0.000680302
-0.00155597
0.000803218
-0.00174125
0.000922617
-0.0019059
0.00103556
-0.00204778
0.00113995
-0.00216634
0.00123454
-0.00226232
0.00131885
-0.00233745
0.00139306
-0.00239405
0.00145779
-0.00243474
0.00151402
-0.0024622
0.00156287
-0.00247898
0.00160552
-0.00248734
0.0016431
-0.00248929
0.00167667
-0.00248649
0.00170717
-0.00248027
0.0017354
-0.00247172
-0.00246159
0.00176205
9.8159e-06
-5.07897e-05
3.9689e-05
-0.000193985
8.97031e-05
-0.000371218
0.00015911
-0.000574459
0.000246107
-0.000795198
0.000347811
-0.00102442
0.000460432
-0.00125315
0.000579629
-0.00147309
0.000700949
-0.00167729
0.00082026
-0.00186056
0.000934101
-0.00201974
0.00103989
-0.00215357
0.00113598
-0.00226243
0.00122162
-0.00234796
0.0012968
-0.00241263
0.00136208
-0.00245933
0.0014184
-0.00249106
0.00146692
-0.00251072
0.00150886
-0.00252092
0.00154544
-0.00252392
0.00157776
-0.00252162
0.00160682
-0.00251554
0.00163344
-0.0025069
0.00165833
-0.00249662
-0.00248533
0.00168208
1.08127e-05
-6.16025e-05
4.31833e-05
-0.000226355
9.67056e-05
-0.000424741
0.000170051
-0.000647804
0.000260749
-0.000885896
0.000365229
-0.0011289
0.000479095
-0.00136702
0.000597585
-0.00159158
0.000716072
-0.00179577
0.000830507
-0.001975
0.000937727
-0.00212696
0.00103559
-0.00225143
0.00112296
-0.0023498
0.00119958
-0.00242458
0.00126586
-0.00247891
0.0013227
-0.00251616
0.00137125
-0.00253962
0.00141281
-0.00255228
0.00144863
-0.00255674
0.00147989
-0.00255519
0.00150765
-0.00254938
0.0015328
-0.00254068
0.00155606
-0.00253016
0.00157804
-0.00251859
-0.0025065
0.0015992
1.18246e-05
-7.3427e-05
4.6657e-05
-0.000261188
0.000103516
-0.0004816
0.000180413
-0.000724701
0.000274157
-0.00097964
0.000380483
-0.00123523
0.000494447
-0.00148098
0.000610974
-0.00170811
0.000725396
-0.00191019
0.000833882
-0.00208348
0.000933674
-0.00222676
0.00102314
-0.0023409
0.00110165
-0.00242832
0.00116941
-0.00249235
0.00122722
-0.00253672
0.00127621
-0.00256516
0.00131771
-0.00258111
0.00135304
-0.00258761
0.00138346
-0.00258716
0.00141009
-0.00258182
0.00143387
-0.00257316
0.0014556
-0.00256241
0.00147591
-0.00255047
0.00149528
-0.00253797
-0.00252532
0.0015141
1.28372e-05
-8.62643e-05
5.00528e-05
-0.000298403
0.000110008
-0.000541555
0.000189984
-0.000804677
0.000286036
-0.00107569
0.000393228
-0.00134242
0.00050615
-0.00159391
0.000619535
-0.0018215
0.000728818
-0.00201948
0.000830503
-0.00218517
0.000922316
-0.00231857
0.00100315
-0.00242173
0.0010729
-0.00249806
0.00113216
-0.00255161
0.00118203
-0.00258659
0.00122384
-0.00260697
0.00125898
-0.00261626
0.00128879
-0.00261742
0.00131446
-0.00261283
0.00133702
-0.00260438
0.00135732
-0.00259346
0.00137602
-0.00258112
0.00139367
-0.00256811
0.00141066
-0.00255496
-0.00254194
0.00142728
1.38358e-05
-0.0001001
5.33132e-05
-0.000337881
0.000116058
-0.0006043
0.000198567
-0.000887186
0.000296128
-0.00117325
0.000403186
-0.00144948
0.000513967
-0.00170469
0.00062315
-0.00193068
0.000726399
-0.00212273
0.000820653
-0.00227942
0.000904171
-0.00240209
0.000976379
-0.00249394
0.00103762
-0.0025593
0.00108886
-0.00260285
0.0011314
-0.00262913
0.0011667
-0.00264226
0.00119616
-0.00264572
0.00122107
-0.00264233
0.00124255
-0.00263431
0.0012615
-0.00262333
0.00127868
-0.00261063
0.00129465
-0.00259709
0.00130985
-0.00258331
0.0013246
-0.0025697
-0.00255647
0.00133913
1.48052e-05
-0.000114905
5.63814e-05
-0.000379457
0.000121551
-0.00066947
0.000205985
-0.000971619
0.000304218
-0.00127149
0.00041015
-0.00155541
0.000517766
-0.0018123
0.000621825
-0.00203474
0.000718336
-0.00221924
0.000804743
-0.00236583
0.000879855
-0.0024772
0.000943606
-0.00255769
0.000996741
-0.00261244
0.0010405
-0.0026466
0.00107634
-0.00266498
0.00110577
-0.00267168
0.00113015
-0.0026701
0.00115071
-0.00266289
0.00116845
-0.00265204
0.00118417
-0.00263906
0.00119851
-0.00262498
0.00121195
-0.00261053
0.00122484
-0.0025962
0.00123744
-0.0025823
-0.00256895
0.00124992
1.57299e-05
-0.000130635
5.92024e-05
-0.00042293
0.000126378
-0.000736646
0.000212082
-0.00105732
0.000310136
-0.00136954
0.00041399
-0.00165927
0.000517516
-0.00191583
0.000615684
-0.0021329
0.000704941
-0.00230849
0.000783277
-0.00244417
0.000850045
-0.00254397
0.000905641
-0.00261329
0.000951143
-0.00265794
0.000987994
-0.00268345
0.00101775
-0.00269473
0.00104188
-0.00269582
0.00106172
-0.00268994
0.00107838
-0.00267954
0.00109275
-0.00266641
0.00110552
-0.00265183
0.00111723
-0.00263669
0.00112828
-0.00262157
0.00113895
-0.00260687
0.00114944
-0.00259279
-0.0025794
0.00115988
1.65945e-05
-0.00014723
6.17239e-05
-0.000468059
0.000130444
-0.000805366
0.000216734
-0.00114361
0.000313764
-0.00146657
0.000414648
-0.00176015
0.000513279
-0.00201446
0.000604948
-0.00222457
0.000686609
-0.00239015
0.000756816
-0.00251437
0.000815437
-0.00260259
0.000863266
-0.00266112
0.00090165
-0.00269632
0.000932164
-0.00271397
0.000956388
-0.00271895
0.000975759
-0.00271519
0.000991506
-0.00270569
0.00100463
-0.00269266
0.00101591
-0.00267769
0.00102594
-0.00266186
0.00103517
-0.00264592
0.00104391
-0.00263032
0.0010524
-0.00261536
0.0010608
-0.00260119
-0.0025878
0.0010692
1.73841e-05
-0.000164614
6.38981e-05
-0.000514573
0.000133665
-0.000875133
0.000219844
-0.00122979
0.000315035
-0.00156176
0.000412139
-0.00185725
0.000505196
-0.00210752
0.000589912
-0.00230929
0.000663794
-0.00246404
0.000725951
-0.00257653
0.000776717
-0.00265335
0.000817224
-0.00270163
0.000849011
-0.00272811
0.000873727
-0.00273869
0.000892931
-0.00273816
0.000907985
-0.00273025
0.00092001
-0.00271772
0.000929889
-0.00270254
0.000938297
-0.0026861
0.000945735
-0.0026693
0.000952569
-0.00265275
0.000959061
-0.00263681
0.000965395
-0.00262169
0.000971691
-0.00260748
-0.00259414
0.000978028
1.80846e-05
-0.000182698
6.56826e-05
-0.000562171
0.000135977
-0.000945427
0.000221349
-0.00131516
0.000313931
-0.00165434
0.000406537
-0.00194986
0.000493471
-0.00219445
0.000570928
-0.00238675
0.000636982
-0.00253009
0.000691271
-0.00263082
0.000734541