/*--------------------------------*- C++ -*----------------------------------*\
  =========                 |
  \\      /  F ield         | OpenFOAM: The Open Source CFD Toolbox
   \\    /   O peration     | Website:  https://openfoam.org
    \\  /    A nd           | Version:  6.0
     \\/     M anipulation  |
\*---------------------------------------------------------------------------*/
FoamFile
{
    version     2.0;
    format      ascii;
    class       volVectorField;
    location    "113";
    object      U;
}
// * * * * * * * * * * * * * * * * * * * * * * * * * * * * * * * * * * * * * //

dimensions      [0 1 -1 0 0 0 0];

internalField   nonuniform List<vector> 
12500
(
(-0.000340015 -0.0205076 -1.3475e-21)
(-0.00259246 -0.0620749 1.95778e-20)
(-0.00736495 -0.102845 -2.85875e-20)
(-0.0135327 -0.141579 1.31852e-20)
(-0.020502 -0.177576 7.6933e-22)
(-0.0278721 -0.210619 -1.61214e-21)
(-0.0352666 -0.240807 -2.42337e-20)
(-0.042345 -0.268403 1.33388e-20)
(-0.0488136 -0.293712 8.88096e-21)
(-0.0544322 -0.316992 9.00943e-21)
(-0.0590208 -0.338409 -1.52961e-20)
(-0.0624624 -0.358022 8.90654e-21)
(-0.0647022 -0.375803 -4.20629e-21)
(-0.065742 -0.391657 7.15584e-21)
(-0.0656324 -0.40546 -1.82712e-20)
(-0.0644627 -0.417094 2.63852e-20)
(-0.0623504 -0.426467 -4.99998e-21)
(-0.0594296 -0.433534 -1.87721e-20)
(-0.0558396 -0.438306 9.65535e-21)
(-0.0517166 -0.440854 -9.23131e-21)
(-0.0471961 -0.441303 8.25743e-21)
(-0.0424027 -0.439831 1.09238e-20)
(-0.0373188 -0.436653 1.12563e-21)
(-0.0316984 -0.432007 -3.1355e-20)
(-0.0263427 -0.426201 1.74502e-20)
(9.69077e-06 -0.0187447 2.51096e-20)
(-0.00195185 -0.0577992 -6.71997e-20)
(-0.00712921 -0.0967928 1.98765e-20)
(-0.0140652 -0.134285 1.33738e-20)
(-0.0220112 -0.169479 -1.07087e-20)
(-0.0304825 -0.202112 -6.11711e-20)
(-0.0390379 -0.232261 1.82344e-20)
(-0.0472912 -0.260166 -3.46003e-20)
(-0.05492 -0.286102 4.14471e-20)
(-0.0616676 -0.310289 -5.54446e-20)
(-0.0673455 -0.33284 2.95756e-20)
(-0.0718339 -0.353761 9.71185e-21)
(-0.0750777 -0.37296 -2.42072e-20)
(-0.0770801 -0.390282 -1.06422e-20)
(-0.0778929 -0.40555 7.85614e-20)
(-0.0776075 -0.418592 -6.96644e-20)
(-0.0763432 -0.429277 1.67319e-20)
(-0.0742372 -0.43753 2.89122e-20)
(-0.0714326 -0.443346 -6.52077e-21)
(-0.0680708 -0.446787 4.65954e-20)
(-0.0642947 -0.447989 8.53426e-21)
(-0.0602342 -0.447144 -3.08348e-21)
(-0.0558671 -0.444491 -5.91075e-20)
(-0.0509564 -0.440286 5.44275e-20)
(-0.0463793 -0.434895 -1.1003e-19)
(0.000221839 -0.0165102 8.08898e-20)
(-0.0016108 -0.0524302 2.78654e-20)
(-0.00724794 -0.0892631 -3.70034e-20)
(-0.0149336 -0.125285 1.61e-20)
(-0.0237846 -0.159552 1.48339e-20)
(-0.0332469 -0.191725 5.69929e-20)
(-0.0428275 -0.221829 -7.28279e-20)
(-0.0521062 -0.250064 -1.21443e-20)
(-0.0607415 -0.276664 -4.91862e-20)
(-0.0684673 -0.301803 -4.10785e-20)
(-0.0750925 -0.325546 5.27512e-20)
(-0.0804973 -0.347839 -1.77903e-19)
(-0.0846273 -0.368533 -5.80833e-21)
(-0.087486 -0.387416 -1.07273e-19)
(-0.089125 -0.404252 -1.26519e-20)
(-0.0896344 -0.418823 1.51237e-20)
(-0.0891332 -0.430951 -8.3614e-20)
(-0.0877588 -0.440527 -5.23409e-20)
(-0.0856563 -0.447523 -6.18429e-20)
(-0.0829714 -0.451991 9.68776e-20)
(-0.079854 -0.454065 3.52856e-20)
(-0.07644 -0.453953 -1.57704e-19)
(-0.0727034 -0.451908 -7.577e-20)
(-0.0684195 -0.448205 -8.45525e-20)
(-0.0645391 -0.443269 2.43376e-19)
(0.000265839 -0.0138459 -2.1845e-21)
(-0.00161659 -0.0460675 -6.45061e-20)
(-0.00774468 -0.0803894 -3.18566e-20)
(-0.0161201 -0.114731 1.99954e-20)
(-0.025756 -0.147956 1.22527e-19)
(-0.0360494 -0.179612 -5.51016e-20)
(-0.0464716 -0.209648 1.18757e-19)
(-0.0565815 -0.238207 1.13814e-19)
(-0.0660284 -0.265477 6.92814e-20)
(-0.0745446 -0.29158 -7.98293e-22)
(-0.081941 -0.316531 1.40485e-19)
(-0.0881004 -0.340226 2.45509e-20)
(-0.0929702 -0.36246 1.07746e-19)
(-0.0965532 -0.382967 2.48369e-19)
(-0.0988984 -0.401459 -2.88424e-19)
(-0.100092 -0.417665 4.34258e-19)
(-0.10025 -0.431362 9.42583e-20)
(-0.0995073 -0.442401 -2.09e-19)
(-0.0980084 -0.45072 -2.92773e-20)
(-0.0959024 -0.456355 7.5584e-20)
(-0.0933461 -0.459432 -3.7913e-20)
(-0.0904814 -0.460165 -2.25692e-20)
(-0.0872796 -0.458818 -2.18385e-20)
(-0.0835305 -0.455678 -8.82359e-20)
(-0.0802578 -0.451238 3.31898e-19)
(0.000118871 -0.0108155 4.27195e-20)
(-0.0020009 -0.0388518 -2.05575e-19)
(-0.00862434 -0.0703542 2.51848e-19)
(-0.0175881 -0.102825 -1.00622e-19)
(-0.0278424 -0.134893 1.21896e-19)
(-0.0387594 -0.165963 1.00555e-19)
(-0.0497938 -0.195885 3.83638e-20)
(-0.0604971 -0.224734 2.86983e-21)
(-0.0705195 -0.252639 2.17038e-19)
(-0.0795989 -0.279675 1.51285e-19)
(-0.0875527 -0.305809 -5.95533e-20)
(-0.094269 -0.33089 -3.85692e-20)
(-0.0996974 -0.354669 1.65828e-19)
(-0.103839 -0.37683 3.11049e-20)
(-0.10674 -0.397035 8.54131e-20)
(-0.108478 -0.414964 2.02645e-19)
(-0.109164 -0.430343 -1.73916e-19)
(-0.108927 -0.442977 1.39733e-19)
(-0.10791 -0.452766 -3.03165e-19)
(-0.106263 -0.459714 2.54027e-19)
(-0.104148 -0.463932 1.51154e-21)
(-0.101714 -0.46563 -2.01594e-19)
(-0.0989314 -0.465074 8.11406e-20)
(-0.095604 -0.462564 1.82909e-19)
(-0.0928296 -0.458661 -2.89114e-19)
(-0.000232129 -0.00750207 2.22296e-19)
(-0.00277593 -0.0309627 -2.45998e-19)
(-0.00987074 -0.0593843 -3.907e-20)
(-0.0192827 -0.0898111 5.1322e-20)
(-0.0299466 -0.120606 -1.10003e-19)
(-0.0412375 -0.151003 -1.71826e-19)
(-0.0526128 -0.180739 -1.44295e-19)
(-0.0636308 -0.209806 -3.49331e-20)
(-0.0739524 -0.238271 -2.49281e-19)
(-0.0833274 -0.266163 2.02587e-19)
(-0.091584 -0.293405 -3.11982e-19)
(-0.0986182 -0.319811 1.59545e-19)
(-0.104383 -0.34509 -5.09761e-20)
(-0.108878 -0.368891 1.21893e-19)
(-0.112142 -0.390829 -3.07381e-19)
(-0.114247 -0.410537 1.50769e-19)
(-0.115293 -0.427689 1.19439e-20)
(-0.115401 -0.44204 6.64352e-20)
(-0.11471 -0.453439 3.98377e-19)
(-0.113368 -0.461849 8.79245e-20)
(-0.111543 -0.467352 -8.42408e-21)
(-0.109389 -0.470142 2.49646e-20)
(-0.106875 -0.470478 1.63814e-19)
(-0.103821 -0.468668 4.63793e-20)
(-0.101401 -0.465345 1.63388e-19)
(-0.000788692 -0.00400492 -1.38353e-19)
(-0.00393288 -0.0226114 2.04937e-19)
(-0.0114473 -0.047743 1.33178e-20)
(-0.0211334 -0.0759697 -2.55295e-19)
(-0.0319627 -0.10537 5.43547e-19)
(-0.0433418 -0.134991 -1.75871e-19)
(-0.0547509 -0.164439 2.60113e-19)
(-0.0657683 -0.193615 2.38326e-19)
(-0.0760744 -0.222525 -1.97789e-19)
(-0.0854371 -0.251147 -2.8972e-19)
(-0.0936994 -0.279374 8.00038e-20)
(-0.100767 -0.306988 -8.5175e-20)
(-0.106599 -0.333673 -3.73959e-19)
(-0.111192 -0.359047 4.57522e-19)
(-0.11458 -0.382691 -2.19371e-19)
(-0.116826 -0.404191 -1.50392e-19)
(-0.118018 -0.423175 3.14033e-21)
(-0.118266 -0.439339 1.24581e-19)
(-0.1177 -0.452475 4.98329e-20)
(-0.116467 -0.462491 -1.9686e-19)
(-0.114737 -0.469425 2.24409e-19)
(-0.112667 -0.473441 -3.86379e-19)
(-0.110226 -0.47478 2.35928e-19)
(-0.107251 -0.473746 -1.77613e-19)
(-0.104995 -0.471051 5.21508e-20)
(-0.00153983 -0.000435246 2.05467e-19)
(-0.00544106 -0.0140326 -1.64768e-19)
(-0.0132981 -0.0357216 -1.05662e-19)
(-0.0230577 -0.0616113 -1.88696e-19)
(-0.0337814 -0.0894917 -3.46444e-19)
(-0.0449358 -0.118214 -2.57154e-19)
(-0.0560429 -0.147246 1.63106e-19)
(-0.0667138 -0.17639 -2.48005e-19)
(-0.0766561 -0.205586 3.15586e-19)
(-0.0856608 -0.234772 -5.16841e-19)
(-0.0935891 -0.26381 2.30741e-19)
(-0.10036 -0.292463 4.87797e-19)
(-0.105938 -0.320403 -6.88027e-19)
(-0.110322 -0.347225 9.88067e-20)
(-0.11354 -0.372488 1.28354e-19)
(-0.115645 -0.395742 1.22018e-19)
(-0.116713 -0.416568 -1.32075e-19)
(-0.116841 -0.434605 -3.21759e-20)
(-0.116149 -0.449578 -9.86188e-20)
(-0.114776 -0.461332 -7.98054e-20)
(-0.112893 -0.469842 -4.36549e-19)
(-0.11066 -0.475226 -2.87411e-20)
(-0.108045 -0.477686 4.46723e-21)
(-0.104901 -0.477514 -1.929e-19)
(-0.102567 -0.4755 2.14115e-19)
(-0.00246202 0.00308987 7.18919e-21)
(-0.00724881 -0.00547392 6.80441e-20)
(-0.0153501 -0.0236287 7.20525e-20)
(-0.0249649 -0.0470659 4.04295e-20)
(-0.0352958 -0.073301 3.55987e-19)
(-0.0458959 -0.100989 3.38572e-19)
(-0.0563465 -0.129452 -2.75867e-19)
(-0.0663025 -0.158394 -8.6698e-20)
(-0.0755056 -0.187688 -7.60154e-20)
(-0.0837739 -0.21723 3.93071e-19)
(-0.0909901 -0.246862 1.43174e-19)
(-0.0970884 -0.276337 -2.06441e-19)
(-0.102042 -0.305321 -1.7622e-19)
(-0.105854 -0.333406 4.24749e-19)
(-0.108549 -0.360137 -1.05907e-19)
(-0.110172 -0.385041 -1.28544e-19)
(-0.110786 -0.407658 -1.76715e-19)
(-0.110476 -0.427573 -1.37959e-19)
(-0.109348 -0.444446 -1.74398e-19)
(-0.107531 -0.458043 -1.11499e-19)
(-0.105193 -0.468264 4.6467e-19)
(-0.102497 -0.475157 -2.28497e-19)
(-0.0994079 -0.478866 1.52936e-19)
(-0.0957954 -0.479652 -3.98084e-19)
(-0.0930976 -0.478375 1.75349e-19)
(-0.00352017 0.0064539 -1.87854e-19)
(-0.00928579 0.00281585 -5.24613e-20)
(-0.0175171 -0.0117777 -4.03329e-19)
(-0.0267616 -0.0326733 -1.96667e-19)
(-0.0364078 -0.0571413 -3.88807e-19)
(-0.0461189 -0.083649 -4.10884e-20)
(-0.055551 -0.111377 2.11382e-19)
(-0.0644121 -0.139928 -1.31712e-19)
(-0.0724832 -0.169107 2.81915e-19)
(-0.0796131 -0.198772 -6.90458e-19)
(-0.0857079 -0.228746 -2.08586e-20)
(-0.0907197 -0.258783 1.23237e-19)
(-0.0946341 -0.288552 -1.56933e-19)
(-0.0974597 -0.317652 1.4213e-19)
(-0.0992222 -0.345631 -1.11662e-19)
(-0.0999613 -0.372005 -2.36479e-19)
(-0.0997317 -0.396289 4.26868e-19)
(-0.0986049 -0.418022 2.62242e-19)
(-0.0966716 -0.436797 -5.70187e-20)
(-0.094051 -0.452299 1.70125e-19)
(-0.0909057 -0.46434 -3.35935e-19)
(-0.0873982 -0.472876 4.75203e-19)
(-0.083493 -0.477967 -6.46409e-19)
(-0.0790731 -0.479814 1.32069e-19)
(-0.0756928 -0.479337 -2.63516e-19)
(-0.00466966 0.00954759 1.08141e-20)
(-0.0114668 0.0105986 -1.79681e-19)
(-0.0197043 -0.000474322 2.6397e-19)
(-0.028356 -0.0187711 5.47544e-19)
(-0.0370336 -0.0413618 -1.0567e-20)
(-0.0455287 -0.0665446 6.3299e-20)
(-0.0535852 -0.0933655 -2.42301e-19)
(-0.0609719 -0.121327 1.11571e-19)
(-0.0675135 -0.150167 7.91731e-19)
(-0.0730913 -0.179705 -1.79886e-19)
(-0.0776371 -0.20975 -2.15427e-19)
(-0.0811224 -0.240057 8.14546e-19)
(-0.0835477 -0.270311 2.68888e-19)
(-0.0849317 -0.300129 1.26885e-19)
(-0.0853051 -0.329072 1.32408e-19)
(-0.0847075 -0.356662 3.55889e-19)
(-0.0831885 -0.382405 -1.33269e-19)
(-0.0808103 -0.405807 3.61089e-19)
(-0.0776515 -0.42641 4.80582e-19)
(-0.0738195 -0.443816 -4.02857e-19)
(-0.0694704 -0.457742 5.93354e-19)
(-0.0647667 -0.468031 2.05835e-19)
(-0.0596735 -0.474629 -7.82014e-19)
(-0.0540849 -0.477644 1.12113e-18)
(-0.0496918 -0.478028 -9.70334e-19)
(-0.0058592 0.0122755 -4.92984e-19)
(-0.0136964 0.0176592 2.76936e-19)
(-0.021813 0.0099965 -1.88627e-19)
(-0.029663 -0.00568292 -1.78852e-19)
(-0.0371072 -0.026306 -1.98693e-19)
(-0.0440796 -0.050029 -2.16134e-19)
(-0.0504217 -0.0757758 5.81617e-20)
(-0.055969 -0.102953 5.73447e-19)
(-0.0605929 -0.131232 -1.20974e-19)
(-0.0642089 -0.160394 -3.23872e-19)
(-0.0667752 -0.190233 -2.01108e-19)
(-0.0682845 -0.220509 -8.11277e-20)
(-0.0687542 -0.250925 2.49761e-19)
(-0.0682167 -0.281125 -1.56797e-19)
(-0.0667127 -0.310694 -5.09659e-19)
(-0.0642877 -0.339177 -5.61195e-19)
(-0.0609924 -0.366087 2.25111e-19)
(-0.0568856 -0.390919 -4.11201e-19)
(-0.0520387 -0.413177 3.55272e-19)
(-0.0465499 -0.432398 -9.98475e-19)
(-0.0405696 -0.4482 7.55431e-19)
(-0.0342627 -0.460305 -9.85172e-19)
(-0.027597 -0.468514 -1.17734e-20)
(-0.0204745 -0.472794 -3.13531e-19)
(-0.0147452 -0.474098 1.00514e-18)
(-0.00703441 0.0145614 7.61002e-19)
(-0.0158753 0.023816 1.17627e-19)
(-0.0237457 0.0193834 -7.85725e-20)
(-0.0306072 0.0062949 -3.20306e-20)
(-0.036583 -0.0122994 6.19522e-19)
(-0.0417578 -0.0344482 2.056e-19)
(-0.046077 -0.0589704 1.89625e-19)
(-0.0494476 -0.0851846 -1.51358e-19)
(-0.0517899 -0.112697 5.90795e-19)
(-0.0530546 -0.141247 -2.8904e-19)
(-0.0532266 -0.170616 1.87451e-19)
(-0.0523205 -0.200567 4.87569e-19)
(-0.0503725 -0.230822 -2.738e-19)
(-0.0474315 -0.261052 3.02497e-19)
(-0.0435529 -0.290879 2.86311e-19)
(-0.0387941 -0.31988 9.6533e-20)
(-0.0332148 -0.347592 -2.32864e-19)
(-0.0268781 -0.373522 6.55009e-19)
(-0.0198556 -0.397158 -5.8102e-20)
(-0.0122426 -0.417995 -6.00403e-20)
(-0.0041878 -0.435565 7.57884e-19)
(0.00413748 -0.44947 -5.23758e-19)
(0.0127577 -0.459343 8.77016e-19)
(0.0217681 -0.464962 -7.06966e-19)
(0.0291374 -0.467227 9.77879e-19)
(-0.00814161 0.0163528 -3.73365e-19)
(-0.0179052 0.0289301 8.86835e-20)
(-0.0254109 0.0274795 -9.25024e-20)
(-0.0311254 0.0169047 -4.31223e-19)
(-0.0354355 0.000362486 2.48878e-20)
(-0.0385783 -0.0201279 2.54141e-19)
(-0.0406072 -0.0433018 -1.03383e-18)
(-0.0415033 -0.0684 7.80768e-19)
(-0.0412377 -0.0949664 -7.64532e-19)
(-0.0397969 -0.122701 -4.83978e-19)
(-0.0371929 -0.151365 4.4151e-19)
(-0.0334623 -0.180723 -9.59776e-19)
(-0.0286609 -0.210513 8.13706e-19)
(-0.0228565 -0.240435 -2.57825e-19)
(-0.0161227 -0.270147 -7.36878e-19)
(-0.00853509 -0.299266 1.80406e-19)
(-0.000169214 -0.327367 -1.68319e-19)
(0.00889812 -0.353986 5.94944e-20)
(0.0185855 -0.378625 -2.27042e-19)
(0.0287922 -0.400759 -7.37733e-19)
(0.0393642 -0.419868 1.66674e-19)
(0.0501165 -0.435446 3.80088e-21)
(0.0610585 -0.446954 -7.18283e-19)
(0.0722886 -0.453935 5.06679e-19)
(0.0815789 -0.457175 -4.53875e-19)
(-0.00913162 0.0176226 1.52629e-19)
(-0.0196957 0.032911 2.94964e-19)
(-0.0267266 0.0341312 4.13933e-19)
(-0.0311674 0.0259386 2.16976e-19)
(-0.0336562 0.0114264 -2.13133e-19)
(-0.034579 -0.00735981 5.14096e-19)
(-0.0340977 -0.0290974 3.853e-19)
(-0.0322692 -0.0529619 -1.37167e-19)
(-0.0291167 -0.0784408 5.0953e-19)
(-0.0246633 -0.105194 -5.26652e-19)
(-0.0189482 -0.13296 -1.53988e-19)
(-0.0120302 -0.161499 1.58183e-19)
(-0.00398518 -0.190562 3.21144e-19)
(0.0050987 -0.219872 2.6441e-21)
(0.0151266 -0.249122 2.04156e-19)
(0.0260007 -0.277969 3.69927e-19)
(0.0376226 -0.30603 -6.28657e-19)
(0.049893 -0.332887 7.78362e-19)
(0.0627107 -0.358074 2.58698e-19)
(0.075959 -0.381083 8.33467e-20)
(0.08947 -0.401372 -9.12772e-19)
(0.103036 -0.418362 1.33397e-19)
(0.11664 -0.43136 1.94824e-19)
(0.130392 -0.439643 -3.98662e-20)
(0.141864 -0.443822 2.21909e-19)
(-0.00996313 0.0183703 1.46886e-20)
(-0.0211684 0.0357197 -7.62055e-19)
(-0.0276239 0.0392443 -1.61909e-20)
(-0.0306952 0.0332469 -1.95129e-19)
(-0.0312491 0.0206924 -1.30024e-18)
(-0.0298112 0.00361095 1.13515e-18)
(-0.0266494 -0.0166436 -8.1516e-19)
(-0.0218968 -0.0391976 -3.85134e-20)
(-0.0156297 -0.063489 -3.93987e-19)
(-0.00790887 -0.0891389 6.88142e-19)
(0.00119886 -0.115862 -7.46152e-19)
(0.0116121 -0.14341 -3.52126e-19)
(0.0232341 -0.171537 1.09663e-20)
(0.0359555 -0.199986 -7.68791e-19)
(0.0496582 -0.228476 1.05072e-18)
(0.0642184 -0.256698 -1.21339e-18)
(0.0795092 -0.284315 4.12963e-21)
(0.0954017 -0.310954 1.87105e-19)
(0.111765 -0.3362 -4.52818e-19)
(0.128456 -0.359583 4.29179e-19)
(0.145284 -0.38058 -6.14131e-19)
(0.162009 -0.398586 -3.90925e-19)
(0.178576 -0.412791 7.1453e-19)
(0.195112 -0.422208 -7.65071e-19)
(0.209004 -0.427217 -1.35143e-20)
(-0.0106052 0.0186194 -6.26931e-19)
(-0.0222612 0.0373679 7.45165e-19)
(-0.0280478 0.0427858 -2.30142e-19)
(-0.0296811 0.0387433 4.50617e-19)
(-0.0282238 0.0280222 4.90081e-19)
(-0.0243278 0.0125977 -4.35388e-19)
(-0.0183613 -0.00617236 -2.97029e-19)
(-0.0105328 -0.027382 -3.56041e-19)
(-0.000972062 -0.0504294 3.27121e-19)
(0.0102213 -0.0749001 -1.97853e-20)
(0.0229515 -0.100484 4.86362e-19)
(0.0371135 -0.12692 4.83031e-19)
(0.0525888 -0.153961 -5.79835e-19)
(0.0692453 -0.18136 1.14517e-18)
(0.0869392 -0.208853 -7.58899e-19)
(0.105518 -0.23616 -1.30959e-19)
(0.124821 -0.262979 1.47256e-18)
(0.144684 -0.288982 -6.81919e-19)
(0.164938 -0.313805 4.23732e-19)
(0.185405 -0.337035 8.17137e-19)
(0.205861 -0.358195 -5.29235e-19)
(0.226025 -0.376705 5.7562e-20)
(0.245794 -0.3917 -3.10176e-20)
(0.265319 -0.401956 -1.96141e-19)
(0.281839 -0.40759 3.93297e-19)
(-0.0110389 0.0184149 1.4481e-19)
(-0.0229309 0.0379139 -4.79167e-19)
(-0.0279583 0.0447827 2.64851e-19)
(-0.0281039 0.0424074 -2.32675e-21)
(-0.0245878 0.0333446 2.01787e-19)
(-0.0181702 0.0194806 -3.51923e-19)
(-0.00931189 0.00215139 2.02502e-19)
(0.00170632 -0.0177226 5.56738e-19)
(0.0147008 -0.0395103 -1.73046e-20)
(0.029532 -0.0627673 -2.92182e-19)
(0.0460735 -0.0871591 2.97226e-19)
(0.0641946 -0.112409 -5.88839e-21)
(0.0837527 -0.138265 -9.46136e-19)
(0.10459 -0.164481 3.52998e-19)
(0.126536 -0.190803 7.91881e-20)
(0.149402 -0.216969 -1.37391e-19)
(0.172992 -0.242702 -2.38525e-19)
(0.197099 -0.267711 9.28026e-19)
(0.221508 -0.291678 2.20865e-19)
(0.245996 -0.314246 -4.74414e-19)
(0.270302 -0.335006 -5.26847e-20)
(0.2941 -0.353439 6.21636e-19)
(0.317223 -0.368697 -2.92361e-19)
(0.339855 -0.379376 1.16406e-19)
(0.35916 -0.385322 8.33238e-20)
(-0.0112575 0.0178176 -2.91778e-19)
(-0.0231531 0.0374551 2.98721e-19)
(-0.0273288 0.0453165 -1.70593e-19)
(-0.0259452 0.0442825 -5.52664e-19)
(-0.0203381 0.0366575 -5.12843e-19)
(-0.0113558 0.024212 -2.32896e-19)
(0.000458928 0.00823761 -1.92443e-19)
(0.0147573 -0.010348 -5.76198e-19)
(0.0313025 -0.0308962 -2.3429e-19)
(0.0499141 -0.0529389 2.14208e-19)
(0.0704323 -0.0761197 -3.09584e-19)
(0.0926978 -0.100146 -3.30693e-19)
(0.11654 -0.124755 -3.118e-19)
(0.141772 -0.149697 5.67073e-19)
(0.168188 -0.174722 -1.19517e-18)
(0.195563 -0.199576 6.78349e-19)
(0.223655 -0.223998 -1.16101e-18)
(0.252207 -0.247719 -1.76591e-19)
(0.280952 -0.27046 -6.23301e-19)
(0.309617 -0.291914 -1.40762e-19)
(0.337893 -0.31174 -1.73866e-19)
(0.365406 -0.329506 -5.6278e-19)
(0.391924 -0.344438 -5.22896e-20)
(0.417661 -0.355032 3.24735e-19)
(0.439816 -0.360881 -8.53382e-19)
(-0.011266 0.016899 2.51927e-19)
(-0.0229211 0.0361188 3.41777e-19)
(-0.0261431 0.0445147 1.20394e-18)
(-0.0231843 0.04447 -2.14291e-19)
(-0.0154537 0.0380256 5.11567e-19)
(-0.00386626 0.0268179 1.23245e-18)
(0.0109654 0.0120758 -3.38184e-19)
(0.0286303 -0.00530121 4.62778e-19)
(0.0488401 -0.0246582 2.7295e-19)
(0.0713721 -0.0455106 4.98751e-19)
(0.0960303 -0.0674837 -1.01701e-19)
(0.122622 -0.0902686 6.79756e-20)
(0.150944 -0.113591 -1.7879e-19)
(0.18077 -0.137194 9.69241e-19)
(0.211855 -0.160825 1.25331e-19)
(0.243925 -0.18423 8.97989e-19)
(0.276686 -0.207158 -2.27129e-19)
(0.309823 -0.229353 8.10402e-19)
(0.343008 -0.25056 1.0844e-19)
(0.375906 -0.270515 3.98208e-19)
(0.408158 -0.288934 -1.66098e-19)
(0.439342 -0.30548 -1.6899e-20)
(0.469152 -0.319495 8.99569e-19)
(0.497839 -0.329452 5.24899e-19)
(0.522767 -0.334722 -2.25161e-19)
(-0.0110788 0.0157353 -6.12508e-19)
(-0.0222431 0.0340513 -6.43436e-19)
(-0.0243919 0.0425399 -6.77609e-19)
(-0.0197926 0.0431207 2.49988e-19)
(-0.00988792 0.0375749 -5.07242e-19)
(0.00436194 0.0273953 -7.63536e-20)
(0.0222876 0.0137352 -2.02744e-19)
(0.0434226 -0.00253666 -8.51769e-19)
(0.0674292 -0.0207696 -1.35633e-19)
(0.0940408 -0.0404699 2.22442e-19)
(0.123021 -0.0612486 -7.03963e-19)
(0.154137 -0.0827822 9.80003e-19)
(0.187143 -0.104784 -1.33712e-18)
(0.221767 -0.126988 3.22508e-19)
(0.257709 -0.149135 -8.21571e-19)
(0.294638 -0.17097 -6.63775e-19)
(0.332193 -0.192243 -3.61371e-20)
(0.36999 -0.212707 -9.59865e-20)
(0.407633 -0.232124 8.08975e-20)
(0.444718 -0.250257 -3.62265e-19)
(0.480829 -0.266874 -2.45731e-19)
(0.515497 -0.281719 2.93768e-19)
(0.548344 -0.294272 -8.01781e-19)
(0.579644 -0.303057 2.55819e-19)
(0.607079 -0.307232 1.67159e-19)
(-0.0107172 0.0144014 -1.08962e-19)
(-0.0211366 0.0314065 -1.87886e-19)
(-0.0220671 0.0395773 7.32962e-19)
(-0.0157284 0.0404236 2.75132e-19)
(-0.00356278 0.0354838 3.6784e-19)
(0.0134437 0.0261064 -4.94887e-19)
(0.0345779 0.0133618 1.28293e-22)
(0.0593248 -0.00192175 -4.09324e-19)
(0.0872987 -0.0191063 7.60431e-19)
(0.118186 -0.0376956 2.51152e-19)
(0.151705 -0.0572913 2.84779e-19)
(0.187572 -0.0775579 -1.13183e-18)
(0.225486 -0.0981975 1.40247e-18)
(0.265115 -0.118934 -4.22296e-19)
(0.30609 -0.139501 -3.01116e-19)
(0.348007 -0.159642 9.01644e-19)
(0.390425 -0.179107 3.97107e-19)
(0.432881 -0.197654 -1.00402e-18)
(0.474898 -0.215057 -4.06192e-19)
(0.516 -0.231104 1.23149e-18)
(0.555713 -0.245597 -9.18625e-19)
(0.593525 -0.258352 5.4833e-19)
(0.628993 -0.268992 2.8991e-19)
(0.662393 -0.276137 -3.72632e-19)
(0.691877 -0.278694 -3.41965e-19)
(-0.010206 0.0129661 -4.01962e-19)
(-0.019623 0.0283357 6.47425e-19)
(-0.0191561 0.0358219 2.77469e-19)
(-0.0109316 0.0365932 -4.03334e-19)
(0.00363492 0.0319719 -6.45528e-20)
(0.023548 0.0231692 -4.29892e-19)
(0.0480617 0.0111703 -1.73113e-19)
(0.076618 -0.00324249 1.9651e-19)
(0.108784 -0.019451 -4.83848e-20)
(0.144193 -0.0369626 3.77294e-19)
(0.182507 -0.0553742 -3.29429e-19)
(0.223379 -0.0743419 9.16248e-19)
(0.266437 -0.0935591 -1.13977e-18)
(0.31127 -0.112742 7.13599e-19)
(0.357423 -0.13162 8.83991e-19)
(0.404397 -0.149936 -1.27371e-18)
(0.451662 -0.16744 -3.81185e-19)
(0.498662 -0.183899 6.43853e-19)
(0.544835 -0.199097 -3.91232e-19)
(0.589631 -0.21284 3.67694e-19)
(0.632517 -0.224958 -8.84253e-19)
(0.672946 -0.235325 1.51643e-19)
(0.710428 -0.243692 5.4824e-19)
(0.745243 -0.248773 -8.60247e-19)
(0.776125 -0.249141 2.43103e-19)
(-0.00956937 0.0114884 -3.71874e-19)
(-0.0177211 0.0249778 1.2087e-18)
(-0.0156354 0.0314668 2.33218e-19)
(-0.00531941 0.0318567 -6.35517e-19)
(0.0118552 0.0272873 4.58652e-19)
(0.0348954 0.0188456 2.35669e-19)
(0.0630305 0.00743411 3.79641e-19)
(0.095662 -0.00621324 -2.32112e-20)
(0.132305 -0.0215029 -3.93184e-20)
(0.172533 -0.0379516 -8.5079e-20)
(0.215934 -0.0551564 -3.72886e-19)
(0.262082 -0.0727702 -1.26329e-20)
(0.31051 -0.0904823 8.76052e-19)
(0.360706 -0.108007 -1.43624e-18)
(0.412107 -0.125074 1.02408e-18)
(0.464109 -0.141429 2.08775e-19)
(0.516075 -0.156832 3.66064e-19)
(0.567357 -0.171059 -1.78186e-19)
(0.61731 -0.183906 1.6135e-18)
(0.665316 -0.19519 -9.8537e-19)
(0.71079 -0.204759 7.72302e-19)
(0.753144 -0.212516 1.72985e-19)
(0.791849 -0.21828 -5.4064e-19)
(0.827156 -0.220755 4.51338e-19)
(0.8583 -0.218289 6.71167e-19)
(-0.00882752 0.0100142 -1.07969e-19)
(-0.0154403 0.021453 -4.25989e-19)
(-0.0114651 0.0266928 -7.32379e-19)
(0.00121611 0.0264415 -4.20276e-19)
(0.0212835 0.0216934 -5.88463e-20)
(0.0477519 0.0134278 -1.68051e-19)
(0.0798289 0.00247152 -7.8922e-19)
(0.116873 -0.0104904 1.31497e-19)
(0.158338 -0.0248923 -9.01913e-19)
(0.203721 -0.0402649 -7.10752e-20)
(0.25252 -0.0562119 -8.75354e-19)
(0.304198 -0.0723894 -3.12294e-19)
(0.358172 -0.0884905 1.79687e-19)
(0.413803 -0.104235 -8.5556e-19)
(0.470402 -0.119365 8.49047e-21)
(0.527242 -0.133638 -7.31659e-19)
(0.583583 -0.146833 2.80176e-19)
(0.638689 -0.158745 -1.00243e-18)
(0.691862 -0.169189 -1.65716e-19)
(0.742456 -0.177993 -1.67494e-20)
(0.789883 -0.185008 -1.59946e-19)
(0.833577 -0.190117 -1.62622e-19)
(0.873016 -0.193046 -8.25863e-20)
(0.908185 -0.192416 -3.09021e-19)
(0.937619 -0.187333 -6.41612e-19)
(-0.00799336 0.0085759 1.97998e-19)
(-0.0127753 0.0178584 5.39528e-19)
(-0.00658524 0.0216606 6.52372e-19)
(0.00880867 0.0205648 -5.24637e-19)
(0.0321356 0.0154558 9.82291e-19)
(0.0624168 0.00722443 -5.36535e-19)
(0.0988339 -0.00337007 2.93801e-19)
(0.140693 -0.0156894 4.63278e-19)
(0.187371 -0.0291984 4.24325e-19)
(0.238265 -0.0434472 2.08197e-19)
(0.292753 -0.0580532 3.37017e-19)
(0.350162 -0.0726845 1.97826e-19)
(0.40976 -0.0870485 1.3317e-18)
(0.470757 -0.100884 -9.65388e-19)
(0.532318 -0.113954 1.10192e-18)
(0.593589 -0.126049 -4.51419e-19)
(0.653729 -0.136981 9.71552e-19)
(0.711937 -0.146583 -4.94038e-20)
(0.767494 -0.154709 -1.98917e-19)
(0.819788 -0.161225 -2.7853e-20)
(0.868333 -0.166003 7.08269e-19)
(0.912791 -0.168888 -6.59248e-19)
(0.953102 -0.169424 4.71314e-19)
(0.989387 -0.166626 4.82324e-19)
(1.01734 -0.163181 8.66362e-20)
(-0.00706993 0.007192 1.36901e-19)
(-0.00970224 0.0142656 -7.69693e-19)
(-0.000913289 0.0165061 -2.81454e-19)
(0.0176154 0.0144254 2.60191e-19)
(0.0446494 0.0088316 -8.03352e-19)
(0.0792063 0.000546096 -1.59318e-19)
(0.12043 -0.00973033 1.1175e-19)
(0.167554 -0.0214039 4.46451e-19)
(0.219855 -0.0339723 -1.13286e-18)
(0.276601 -0.0470111 8.71626e-20)
(0.337013 -0.0601603 -3.3518e-19)
(0.400249 -0.0731114 -1.02058e-18)
(0.465398 -0.0855987 6.95253e-19)
(0.531498 -0.0973931 3.17977e-20)
(0.597559 -0.108298 -2.25154e-20)
(0.662599 -0.118148 6.93025e-19)
(0.725687 -0.126808 -1.21085e-18)
(0.785981 -0.134167 9.47615e-19)
(0.842763 -0.140144 -1.81044e-19)
(0.895473 -0.144681 5.12973e-19)
(0.943721 -0.147742 -8.5487e-19)
(0.98731 -0.1493 4.64421e-19)
(1.02633 -0.149209 -8.02007e-19)
(1.06104 -0.147285 7.82456e-19)
(1.08781 -0.1464 -2.6993e-19)
(-0.00604896 0.00586865 9.13369e-19)
(-0.00617649 0.0107226 -1.53263e-19)
(0.00565525 0.0113387 1.14418e-18)
(0.0278119 0.00819868 5.33965e-19)
(0.0590734 0.00206078 4.42958e-20)
(0.0984346 -0.00630627 2.36272e-19)
(0.144978 -0.0162518 5.76965e-20)
(0.19784 -0.0272249 9.77735e-19)
(0.256161 -0.0387596 3.17607e-19)
(0.319039 -0.0504647 -4.28499e-20)
(0.385505 -0.0620136 8.69308e-20)
(0.454511 -0.0731342 3.3284e-19)
(0.524946 -0.0836026 2.76854e-19)
(0.59566 -0.0932372 5.887e-19)
(0.665511 -0.101895 -6.74879e-19)
(0.733407 -0.109469 1.98919e-19)
(0.798355 -0.115885 6.6375e-20)
(0.859507 -0.121098 2.90533e-19)
(0.916185 -0.125091 7.56381e-19)
(0.967909 -0.127873 -5.0673e-19)
(1.0144 -0.129476 2.98001e-20)
(1.05557 -0.129958 -6.45207e-19)
(1.09158 -0.129325 5.84289e-19)
(1.12267 -0.127586 -5.309e-19)
(1.14612 -0.12687 7.57452e-20)
(-0.00491071 0.00460225 -7.60508e-19)
(-0.00213301 0.00725682 6.03098e-19)
(0.013244 0.00624293 -9.87474e-19)
(0.0395851 0.00203488 8.54907e-20)
(0.0756536 -0.00463957 7.05354e-19)
(0.120393 -0.0130512 -1.18266e-18)
(0.172792 -0.0225934 9.45871e-19)
(0.23185 -0.0327587 -1.50999e-18)
(0.296529 -0.0431232 3.01984e-19)
(0.365718 -0.0533386 6.52259e-20)
(0.438217 -0.0631248 5.13464e-19)
(0.512745 -0.0722612 -1.71291e-18)
(0.587975 -0.0805809 2.98026e-19)
(0.662576 -0.0879647 3.12497e-19)
(0.735271 -0.0943352 -1.84915e-19)
(0.804896 -0.0996519 -1.13289e-18)
(0.870444 -0.103906 5.39143e-19)
(0.931113 -0.107114 9.70809e-19)
(0.986319 -0.109318 -1.00118e-18)
(1.03571 -0.110575 7.12406e-19)
(1.07915 -0.110964 -8.85209e-19)
(1.11671 -0.11058 6.33828e-19)
(1.14865 -0.109479 -1.58046e-19)
(1.17531 -0.107689 8.98653e-19)
(1.1948 -0.106812 -9.98795e-19)
(-0.00362479 0.00338258 1.07856e-19)
(0.00251126 0.00388043 8.88626e-20)
(0.0219907 0.00128231 2.17122e-19)
(0.0531243 -0.00393937 7.85045e-19)
(0.0946195 -0.0110768 -2.54617e-20)
(0.145329 -0.019432 1.77151e-19)
(0.204107 -0.0284403 7.98447e-19)
(0.269767 -0.0376412 3.24371e-19)
(0.341046 -0.0466613 -1.07995e-19)
(0.416577 -0.0552082 9.18859e-19)
(0.494899 -0.0630632 -1.04873e-18)
(0.574481 -0.0700735 1.61194e-18)
(0.653782 -0.0761443 -6.39491e-19)
(0.731314 -0.0812307 1.15121e-18)
(0.80571 -0.0853289 -3.89831e-19)
(0.875786 -0.088468 1.40482e-19)
(0.94059 -0.0907012 1.68844e-19)
(0.999428 -0.092099 -3.09414e-19)
(1.05187 -0.0927433 2.63705e-19)
(1.09775 -0.0927228 1.66302e-19)
(1.13711 -0.0921319 2.18808e-19)
(1.17021 -0.0910671 4.36795e-19)
(1.19746 -0.0895857 -4.98564e-20)
(1.21931 -0.0877096 -1.95281e-19)
(1.23462 -0.086657 5.2654e-19)
(-0.00215203 0.00219625 -6.30443e-19)
(0.00785326 0.000596492 6.89971e-20)
(0.0320409 -0.00349424 -1.25194e-18)
(0.0686117 -0.00961645 -3.00532e-19)
(0.116171 -0.0170807 -5.6888e-19)
(0.173435 -0.025218 -1.22077e-19)
(0.239065 -0.0335083 -6.17556e-19)
(0.31164 -0.0415456 -3.72374e-19)
(0.38962 -0.0490196 4.93762e-19)
(0.471344 -0.0557091 -8.28635e-19)
(0.555066 -0.0614738 -2.3114e-19)
(0.639006 -0.0662443 8.23566e-21)
(0.721435 -0.0700112 -1.55305e-18)
(0.800753 -0.0728123 6.57928e-19)
(0.875566 -0.0747201 -9.50808e-19)
(0.944748 -0.0758294 -2.70513e-20)
(1.00747 -0.0762465 1.7681e-19)
(1.06322 -0.0760802 -2.96682e-19)
(1.11179 -0.0754358 -2.55075e-19)
(1.15321 -0.0744109 1.16032e-19)
(1.18778 -0.0730942 1.24543e-19)
(1.21592 -0.0715639 -8.16959e-19)
(1.23822 -0.0698538 4.61594e-19)
(1.25527 -0.0679738 2.10421e-19)
(1.26647 -0.0668862 3.65788e-20)
(-0.000446987 0.00103019 6.42093e-19)
(0.0139987 -0.00259412 -7.09332e-19)
(0.0435402 -0.00804493 1.00475e-18)
(0.0862134 -0.014901 1.59736e-19)
(0.140469 -0.0224988 -4.88424e-20)
(0.204826 -0.0302024 -3.43966e-19)
(0.277702 -0.0375448 5.23589e-20)
(0.357376 -0.0441872 5.31986e-19)
(0.441985 -0.0498984 -7.37816e-19)
(0.529547 -0.0545463 7.7833e-19)
(0.618024 -0.0580864 -8.27483e-20)
(0.705412 -0.0605472 4.09027e-20)
(0.78984 -0.0620137 1.00822e-18)
(0.869667 -0.0626094 1.33682e-18)
(0.943555 -0.062479 -5.26163e-19)
(1.01052 -0.0617728 9.05852e-19)
(1.06993 -0.0606348 4.41895e-19)
(1.12151 -0.0591941 -2.78661e-19)
(1.16532 -0.0575597 8.37673e-19)
(1.20166 -0.055819 -4.75391e-20)
(1.23101 -0.0540387 -7.72469e-19)
(1.25403 -0.0522658 7.87699e-19)
(1.27143 -0.0505021 9.71097e-20)
(1.28392 -0.0487455 -4.56104e-19)
(1.29129 -0.047774 1.46924e-19)
(0.00153924 -0.000125417 -8.8883e-19)
(0.0210561 -0.00568643 9.65871e-19)
(0.0566277 -0.0123273 -6.16588e-19)
(0.10607 -0.0197023 -1.9208e-19)
(0.167622 -0.0271894 -4.38293e-19)
(0.239544 -0.0341972 7.81138e-19)
(0.319939 -0.040326 -4.55266e-19)
(0.406736 -0.0453224 -2.09913e-19)
(0.497709 -0.0490538 -6.02234e-19)
(0.59054 -0.0514966 1.65817e-20)
(0.682917 -0.0527183 -2.38129e-19)
(0.772659 -0.0528561 1.12869e-19)
(0.857828 -0.0520928 -1.20576e-18)
(0.936828 -0.0506334 3.45106e-19)
(1.00847 -0.0486834 -4.07509e-19)
(1.07199 -0.0464324 -3.19622e-19)
(1.12703 -0.0440428 9.64689e-20)
(1.17362 -0.0416433 -4.52674e-19)
(1.21208 -0.0393276 -1.80216e-19)
(1.24297 -0.0371568 5.42079e-19)
(1.26701 -0.0351641 2.13994e-19)
(1.28499 -0.0333583 -9.1909e-19)
(1.29777 -0.031706 6.55056e-19)
(1.30612 -0.0301933 -1.21748e-19)
(1.31009 -0.0294646 -2.42549e-19)
(0.0038563 -0.00127479 -3.20537e-19)
(0.0291314 -0.00866599 -1.77949e-19)
(0.0714287 -0.0162913 -3.47037e-20)
(0.128293 -0.0239264 2.68148e-19)
(0.197685 -0.0310146 2.92259e-19)
(0.277542 -0.0370275 2.55034e-19)
(0.36559 -0.0416536 3.21051e-19)
(0.459353 -0.0447472 4.91631e-19)
(0.556218 -0.0462972 7.55409e-19)
(0.65354 -0.0464074 7.47247e-19)
(0.748779 -0.0452706 3.94351e-19)
(0.839647 -0.0431376 -1.07626e-19)
(0.924235 -0.040285 2.63457e-20)
(1.00109 -0.0369871 -2.81734e-20)
(1.06927 -0.0334923 3.09598e-19)
(1.1283 -0.0300083 -7.2066e-20)
(1.17815 -0.0266934 8.70981e-19)
(1.21918 -0.023656 -3.97308e-19)
(1.25199 -0.0209577 1.31729e-21)
(1.27737 -0.0186214 2.49879e-19)
(1.29622 -0.0166393 -5.56267e-19)