/*--------------------------------*- C++ -*----------------------------------*\
  =========                 |
  \\      /  F ield         | OpenFOAM: The Open Source CFD Toolbox
   \\    /   O peration     | Website:  https://openfoam.org
    \\  /    A nd           | Version:  6.0
     \\/     M anipulation  |
\*---------------------------------------------------------------------------*/
FoamFile
{
    version     2.0;
    format      ascii;
    class       volVectorField;
    location    "11";
    object      U;
}
// * * * * * * * * * * * * * * * * * * * * * * * * * * * * * * * * * * * * * //

dimensions      [0 1 -1 0 0 0 0];

internalField   nonuniform List<vector> 
4000
(
(0.0997727 0.00762567 6.40813e-20)
(0.316077 0.0396707 -3.4919e-20)
(0.534952 0.0945614 4.11666e-20)
(0.738665 0.156686 -3.06447e-20)
(0.913172 0.215915 -1.37536e-20)
(1.0513 0.266294 4.16962e-21)
(1.15269 0.305046 -1.35008e-20)
(1.22164 0.332017 4.8549e-20)
(1.26473 0.3487 -4.04429e-20)
(1.28878 0.357273 9.49811e-21)
(1.29981 0.359942 -7.07337e-21)
(1.3025 0.358598 -4.61232e-20)
(1.30023 0.354694 4.47541e-20)
(1.29529 0.349262 1.70532e-20)
(1.28912 0.342993 -1.69562e-20)
(1.2826 0.336325 3.98308e-20)
(1.27628 0.329513 -5.82648e-22)
(1.27048 0.322735 -3.86495e-20)
(1.26538 0.316374 2.86216e-20)
(1.26117 0.310325 9.04691e-21)
(0.11412 0.0126889 -2.24636e-20)
(0.350895 0.0551826 6.50959e-20)
(0.581461 0.119195 7.53116e-20)
(0.788444 0.187398 -3.55787e-20)
(0.959337 0.249215 6.18751e-20)
(1.08943 0.299218 9.79899e-20)
(1.18091 0.335619 -5.42241e-21)
(1.24007 0.359268 -1.68668e-20)
(1.27467 0.37243 8.32008e-20)
(1.29201 0.377755 4.0598e-20)
(1.29812 0.377666 -7.38436e-21)
(1.29741 0.374095 6.06021e-20)
(1.29291 0.36844 -6.50512e-20)
(1.28658 0.361641 1.01346e-19)
(1.27958 0.354295 -1.69061e-20)
(1.27261 0.346765 4.85307e-20)
(1.26607 0.339248 8.77658e-21)
(1.26019 0.331894 3.47441e-20)
(1.2551 0.325085 -3.3055e-20)
(1.25093 0.318581 8.02284e-21)
(0.128647 0.0188591 -3.49637e-20)
(0.384966 0.0730837 8.25921e-20)
(0.625421 0.146417 6.14485e-20)
(0.833675 0.22015 -9.33388e-21)
(0.999393 0.283687 9.59842e-20)
(1.12067 0.332482 -7.19184e-20)
(1.20226 0.365928 -5.6694e-21)
(1.25223 0.385928 6.34102e-20)
(1.27925 0.395468 2.01207e-20)
(1.29089 0.397594 2.82497e-20)
(1.293 0.394868 -4.1753e-20)
(1.28967 0.389206 1.09055e-19)
(1.28355 0.381916 2.04164e-20)
(1.27626 0.373837 -9.67118e-20)
(1.26874 0.365473 1.41597e-19)
(1.26153 0.357115 -1.67152e-19)
(1.25492 0.348907 -7.68708e-20)
(1.24908 0.340985 1.27458e-20)
(1.24407 0.333725 7.46434e-20)
(1.24001 0.326751 -1.4112e-19)
(0.143115 0.0261425 -7.82999e-20)
(0.417703 0.0932527 -1.84941e-19)
(0.666125 0.175929 -1.60183e-19)
(0.873782 0.254529 -2.18089e-19)
(1.03307 0.318909 -1.23939e-19)
(1.1451 0.365735 -2.57066e-19)
(1.21709 0.395731 3.26756e-20)
(1.25863 0.411853 -1.3683e-19)
(1.27904 0.417747 -1.5071e-20)
(1.28594 0.416763 2.25453e-20)
(1.2849 0.41153 -4.96701e-20)
(1.27961 0.403903 6.2331e-20)
(1.27236 0.395082 1.11124e-19)
(1.26448 0.385794 -1.56027e-19)
(1.2567 0.376455 2.53581e-20)
(1.24942 0.367291 7.28607e-20)
(1.24286 0.358403 1.22112e-19)
(1.23715 0.349917 -1.05317e-19)
(1.23228 0.3422 -5.0961e-21)
(1.22839 0.334741 1.24233e-19)
(0.157277 0.0345152 -1.47483e-19)
(0.448544 0.115503 4.05145e-19)
(0.702954 0.207373 -7.12643e-20)
(0.908325 0.290091 9.50379e-20)
(1.06023 0.354457 -9.29858e-20)
(1.16289 0.398644 2.85997e-19)
(1.22578 0.424802 -4.54374e-20)
(1.25975 0.436911 2.69436e-20)
(1.27452 0.439191 -1.39618e-20)
(1.27759 0.435212 4.46143e-20)
(1.27414 0.427608 2.89082e-20)
(1.26747 0.418136 3.68853e-20)
(1.25952 0.407872 -1.04387e-19)
(1.25134 0.397433 1.53371e-19)
(1.24349 0.387153 -1.16707e-19)
(1.23629 0.377199 2.2485e-20)
(1.2299 0.367639 -7.51764e-20)
(1.22439 0.358591 1.63158e-20)
(1.21973 0.350413 1.85174e-20)
(1.21607 0.342461 -1.70449e-19)
(0.170887 0.0439224 1.04028e-20)
(0.476968 0.139589 -2.03854e-19)
(0.735388 0.240341 1.12863e-19)
(0.937 0.326375 -3.93656e-19)
(1.08088 0.389919 1.9095e-19)
(1.17429 0.430894 -3.27656e-19)
(1.22875 0.452928 -2.56618e-19)
(1.25608 0.460967 -9.82657e-21)
(1.26614 0.459712 -8.73556e-20)
(1.26619 0.452872 -2.73219e-19)
(1.261 0.443032 -3.45279e-20)
(1.25345 0.431825 -2.63822e-19)
(1.24513 0.420196 4.75235e-20)
(1.2369 0.408656 -3.83457e-20)
(1.22917 0.397463 2.25966e-20)
(1.22217 0.386735 -1.7985e-19)
(1.21603 0.376509 8.49473e-21)
(1.2108 0.366904 3.55871e-20)
(1.20641 0.358262 -8.47057e-20)
(1.20304 0.349813 7.36421e-20)
(0.183701 0.0542796 -8.34924e-20)
(0.502508 0.165211 3.72416e-19)
(0.763013 0.274391 3.07054e-21)
(0.959625 0.362913 -3.22991e-19)
(1.09509 0.424892 2.44749e-19)
(1.17961 0.462184 1.03222e-19)
(1.22642 0.479904 2.08106e-20)
(1.24802 0.483883 -1.75053e-19)
(1.25427 0.479209 2.84472e-19)
(1.25206 0.469654 -1.6794e-19)
(1.2457 0.457711 6.00501e-20)
(1.23767 0.44487 2.85373e-19)
(1.2293 0.431947 -2.57697e-19)
(1.22122 0.41935 2.84025e-19)
(1.21375 0.407272 -1.84366e-19)
(1.20707 0.395783 -3.60606e-20)
(1.20127 0.384902 4.40988e-20)
(1.19639 0.374746 5.64642e-20)
(1.19233 0.36564 7.8239e-20)
(1.18932 0.356699 4.69172e-20)
(0.195492 0.0654734 3.33235e-20)
(0.524763 0.192027 -3.34565e-19)
(0.785522 0.309056 5.93062e-20)
(0.976132 0.399238 7.79559e-19)
(1.10306 0.458987 -7.17417e-20)
(1.17918 0.49223 2.17299e-19)
(1.21918 0.505532 1.35912e-19)
(1.23598 0.505519 2.24389e-20)
(1.23924 0.497567 -1.58933e-19)
(1.23543 0.485451 2.60832e-19)
(1.2284 0.471534 -3.13019e-20)
(1.22026 0.457155 3.99895e-19)
(1.21209 0.443003 1.55227e-19)
(1.20435 0.429393 9.79972e-20)
(1.19729 0.416455 -2.04204e-19)
(1.19102 0.404225 4.31892e-20)
(1.18564 0.392701 1.59946e-19)
(1.18118 0.382005 4.21574e-20)
(1.17751 0.37244 -1.95733e-19)
(1.17492 0.36302 -4.91728e-20)
(0.206047 0.0773646 -1.859e-19)
(0.543402 0.219658 5.99601e-19)
(0.802714 0.343853 -3.26487e-19)
(0.986549 0.434892 -3.01174e-19)
(1.105 0.491836 -2.62672e-19)
(1.17336 0.520759 -2.22208e-19)
(1.20743 0.529617 -2.75109e-19)
(1.2203 0.525725 3.45769e-19)
(1.22134 0.51466 -2.48005e-19)
(1.21651 0.500139 -2.02541e-20)
(1.20924 0.484374 -1.79681e-21)
(1.20132 0.468551 -4.78502e-20)
(1.19357 0.453233 -1.24283e-19)
(1.18634 0.438653 -1.39663e-19)
(1.1798 0.424885 -7.49192e-21)
(1.17404 0.411934 -3.13312e-20)
(1.16917 0.399786 -7.81336e-20)
(1.16518 0.388565 -2.45627e-20)
(1.16197 0.378549 2.63508e-20)
(1.15987 0.368674 -1.69608e-19)
(0.215183 0.0897912 3.25099e-19)
(0.558172 0.247702 3.36686e-19)
(0.814484 0.378298 -2.09329e-19)
(0.990991 0.469428 1.28928e-19)
(1.10122 0.523085 2.23812e-19)
(1.16253 0.547512 -4.69773e-20)
(1.19153 0.55197 5.5173e-20)
(1.2013 0.544351 6.30707e-20)
(1.2008 0.530351 1.05061e-19)
(1.19549 0.513585 -1.23897e-19)
(1.18837 0.496097 6.05308e-20)
(1.18093 0.478918 -4.24002e-20)
(1.1738 0.462498 1.89349e-19)
(1.16723 0.446993 8.40965e-20)
(1.16133 0.43243 -1.90168e-19)
(1.15619 0.418785 1.05483e-19)
(1.15189 0.406033 5.26014e-20)
(1.14845 0.394305 -9.77859e-20)
(1.14576 0.383855 2.65949e-19)
(1.1442 0.373561 -1.9642e-19)
(0.222742 0.102572 -2.39005e-19)
(0.568896 0.27574 -3.10735e-19)
(0.820823 0.411912 2.18399e-19)
(0.989644 0.502423 -2.01309e-19)
(1.09202 0.552404 -1.80589e-20)
(1.14705 0.572246 -2.23303e-19)
(1.17184 0.572404 1.84772e-19)
(1.17929 0.561241 3.44714e-19)
(1.17786 0.544498 -4.80003e-19)
(1.17252 0.525647 2.48001e-20)
(1.16588 0.506558 1.93256e-20)
(1.15916 0.488112 -9.78032e-20)
(1.15284 0.470654 6.70388e-20)
(1.14708 0.454272 -2.90249e-20)
(1.14195 0.438952 1.95231e-19)
(1.1375 0.424644 -2.10702e-19)
(1.13386 0.411316 -7.42148e-20)
(1.13103 0.399103 1.93083e-19)
(1.12892 0.388237 -2.91879e-19)
(1.12798 0.37757 1.84382e-19)
(0.228598 0.115513 4.96978e-19)
(0.575477 0.303351 4.40491e-19)
(0.821804 0.444229 -7.38697e-20)
(0.982757 0.533474 -9.49699e-21)
(1.07777 0.579483 -2.25486e-19)
(1.1273 0.59473 9.59116e-20)
(1.14871 0.590741 4.76573e-19)
(1.15454 0.576243 -4.19426e-19)
(1.15273 0.556955 2.67718e-19)
(1.14776 0.53618 -2.40109e-20)
(1.14189 0.515609 1.65831e-19)
(1.13611 0.495984 -4.03424e-20)
(1.13077 0.477554 1.00607e-19)
(1.12595 0.460348 1.31918e-19)
(1.12169 0.444313 -7.24943e-20)
(1.11805 0.429377 9.07716e-20)
(1.11514 0.415502 -1.30865e-19)
(1.11298 0.402824 3.34391e-19)
(1.11153 0.391562 -2.1128e-19)
(1.11128 0.380573 1.52268e-19)
(0.232659 0.128407 -2.43133e-19)
(0.577889 0.330113 -4.53714e-19)
(0.817575 0.474806 -3.13537e-19)
(0.970628 0.562207 -2.29753e-20)
(1.05885 0.604038 7.53368e-20)
(1.10366 0.61475 -4.12603e-20)
(1.12245 0.60681 -2.70358e-19)
(1.12731 0.589205 -1.19248e-19)
(1.1256 0.567576 -2.1952e-19)
(1.12135 0.545039 -1.09638e-19)
(1.11649 0.523105 5.48104e-20)
(1.11184 0.502388 -2.61907e-19)
(1.10764 0.483053 -6.26958e-20)
(1.10391 0.465077 -6.23743e-20)
(1.10064 0.448373 -1.97966e-19)
(1.09789 0.432847 8.77527e-20)
(1.09578 0.418454 7.00972e-22)
(1.09437 0.40533 8.35006e-20)
(1.09365 0.393681 -3.49944e-20)
(1.09416 0.382421 -1.28163e-19)
(0.23487 0.141046 5.61913e-19)
(0.576179 0.355618 4.88979e-19)
(0.808352 0.503225 6.08384e-19)
(0.9536 0.58828 -6.31684e-20)
(1.03562 0.625811 -2.22094e-19)
(1.07649 0.632112 6.56692e-19)
(1.09339 0.620451 -3.28671e-19)
(1.09784 0.599984 3.65818e-19)
(1.09665 0.576223 -6.78524e-20)
(1.09341 0.552084 2.26276e-19)
(1.0898 0.528906 2.52675e-20)
(1.08644 0.507183 1.10551e-19)
(1.08352 0.48701 -2.49695e-20)
(1.081 0.468319 1.12724e-19)
(1.07885 0.450992 -9.33401e-20)
(1.0771 0.434917 5.18905e-21)
(1.07588 0.420036 4.72213e-20)
(1.07528 0.406476 7.67106e-20)
(1.07535 0.394445 -1.21943e-20)
(1.07668 0.382968 4.23142e-20)
(0.235208 0.153218 -1.72669e-19)
(0.570459 0.379478 -4.85498e-19)
(0.794408 0.529103 -2.95438e-19)
(0.932047 0.611385 -5.17425e-19)
(1.00851 0.64457 5.57237e-19)
(1.04617 0.646637 -3.9422e-19)
(1.06182 0.631518 2.50616e-19)
(1.06637 0.608446 -8.72645e-20)
(1.06606 0.582766 -1.07353e-19)
(1.0641 0.557186 -7.6046e-20)
(1.06189 0.532879 3.96001e-20)
(1.05998 0.510236 5.21516e-20)
(1.05846 0.489288 4.19985e-20)
(1.05729 0.469933 -5.79996e-20)
(1.05638 0.452029 -4.1123e-20)
(1.05575 0.435444 1.33903e-19)
(1.0555 0.420103 -1.63124e-20)
(1.05578 0.406117 -5.11394e-20)
(1.05671 0.393714 4.11736e-21)
(1.05886 0.382101 -8.22153e-21)
(0.233687 0.164719 7.63946e-19)
(0.560901 0.401329 3.5877e-19)
(0.776066 0.552093 3.35529e-19)
(0.906374 0.631247 -1.99264e-19)
(0.977921 0.660113 2.45537e-20)
(1.01307 0.658174 2.83566e-19)
(1.02806 0.639883 3.76196e-20)
(1.03314 0.614474 7.87693e-20)
(1.03402 0.58709 8.65283e-20)
(1.03353 0.560231 6.38365e-21)
(1.03288 0.534913 4.46156e-20)
(1.03253 0.511431 -9.35498e-21)
(1.03252 0.489768 -2.38928e-20)
(1.0328 0.469793 -6.52071e-20)
(1.03327 0.451346 1.81583e-20)
(1.03389 0.43428 4.01822e-21)
(1.03473 0.4185 -5.83845e-21)
(1.03597 0.40409 4.18222e-21)
(1.0378 0.391321 7.608e-21)
(1.04083 0.379673 1.36687e-21)
(0.230354 0.17535 -5.46658e-19)
(0.547728 0.42084 -4.72381e-19)
(0.753689 0.571886 2.26496e-19)
(0.877005 0.647631 -2.79039e-19)
(0.944265 0.672268 -2.07069e-20)
(0.977538 0.666589 3.74903e-20)
(0.992396 0.645436 -4.3926e-20)
(0.998391 0.617965 -3.69627e-20)
(1.00071 0.589099 -7.6624e-20)
(1.00185 0.561125 -4.85899e-20)
(1.00287 0.534915 -1.46515e-20)
(1.00415 0.510678 -2.51735e-20)
(1.00574 0.488355 1.06793e-20)
(1.00757 0.467793 -1.08983e-20)
(1.00954 0.448824 8.5488e-21)
(1.01156 0.43129 -1.91822e-20)
(1.01364 0.415076 -2.36827e-20)
(1.01594 0.400208 -2.79118e-20)
(1.01882 0.386991 9.74701e-22)
(1.023 0.37532 4.64899e-20)
(0.225288 0.184928 5.08322e-19)
(0.531211 0.437712 1.77991e-20)
(0.727677 0.588219 -4.85207e-20)
(0.844381 0.660339 5.73525e-20)
(0.907964 0.680894 1.93229e-19)
(0.93995 0.671778 -1.41124e-19)
(0.955129 0.648087 5.67114e-20)
(0.962351 0.61884 -7.88345e-20)
(0.966306 0.588717 1.53926e-20)
(0.969203 0.559799 -1.77622e-20)
(0.971966 0.532819 -2.34972e-20)
(0.974919 0.507909 -2.3434e-20)
(0.978134 0.484972 2.22119e-20)
(0.981574 0.463842 -1.23096e-20)
(0.985148 0.444349 -1.1782e-19)
(0.988733 0.426344 1.11334e-19)
(0.992247 0.409689 -7.3144e-20)
(0.995862 0.394277 -4.84981e-20)
(1.00017 0.380336 5.45581e-20)
(1.00598 0.368401 -6.94511e-20)
(0.218595 0.193285 -1.06919e-19)
(0.511661 0.451689 1.13991e-19)
(0.698455 0.600867 7.69343e-20)
(0.808957 0.669211 -1.16241e-19)
(0.869442 0.685879 5.36823e-20)
(0.900668 0.673657 -9.3711e-20)
(0.916563 0.64777 -1.35824e-20)
(0.92527 0.617043 4.52554e-21)
(0.931013 0.5859 -8.2583e-21)
(0.935745 0.556217 -7.42806e-20)
(0.940271 0.528597 1.0311e-20)
(0.944888 0.503096 -4.80882e-21)
(0.949692 0.479576 9.08014e-20)
(0.954705 0.457852 -2.46313e-19)
(0.959893 0.437755 2.29159e-19)
(0.96513 0.419168 1.24414e-19)
(0.970281 0.401946 -2.99332e-20)
(0.9756 0.385765 1.87727e-20)
(0.981979 0.370634 2.21163e-19)
(0.989719 0.358079 -9.15064e-20)
(0.210407 0.200271 -3.26965e-20)
(0.489419 0.462553 8.11168e-20)
(0.666469 0.609653 -8.9579e-20)
(0.771196 0.674124 1.20039e-19)
(0.829125 0.687143 -1.56262e-20)
(0.86006 0.67217 -8.07439e-21)
(0.877004 0.644444 1.28314e-20)
(0.887405 0.612544 -4.61247e-20)
(0.895049 0.580633 4.68676e-20)
(0.901656 0.55039 3.63793e-20)
(0.90793 0.522293 2.22548e-20)
(0.914141 0.496321 9.42186e-22)
(0.920404 0.472277 8.48421e-20)
(0.926793 0.449925 -8.78317e-20)
(0.933345 0.429058 1.02779e-19)
(0.939987 0.409543 -2.13062e-19)
(0.946631 0.391184 2.40606e-19)
(0.953724 0.373348 -2.0746e-19)
(0.962247 0.355782 -1.35874e-19)
(0.971074 0.341931 2.37342e-19)
(0.200879 0.20576 4.33515e-20)
(0.464855 0.470128 -2.26223e-21)
(0.632181 0.61444 9.89963e-21)
(0.731566 0.67499 -1.93783e-20)
(0.787441 0.684631 -6.54806e-21)
(0.818497 0.667282 8.03373e-21)
(0.836772 0.638082 -1.20985e-19)
(0.849033 0.605329 8.0338e-20)
(0.858661 0.572923 8.4923e-20)
(0.867168 0.54236 -1.23592e-19)
(0.875166 0.51401 1.50418e-19)
(0.882889 0.487785 -5.6338e-20)
(0.890442 0.463437 1.16021e-19)
(0.897902 0.44067 -1.84153e-19)
(0.905316 0.419193 3.84684e-19)
(0.912645 0.398754 -8.52366e-20)
(0.919914 0.378946 -2.3446e-20)
(0.927798 0.358518 2.56761e-19)
(0.937077 0.335543 -1.24498e-19)
(0.942776 0.312549 5.84197e-20)
(0.190182 0.209646 -3.0548e-20)
(0.438353 0.47428 5.64077e-21)
(0.59606 0.615133 -2.87565e-20)
(0.690533 0.671757 2.15028e-20)
(0.744814 0.678315 -1.42476e-20)
(0.77635 0.658977 -1.35436e-19)
(0.796191 0.628674 2.05076e-19)
(0.810445 0.595391 1.50586e-20)
(0.822124 0.562769 -2.26279e-20)
(0.832557 0.532139 5.35024e-21)
(0.842281 0.503787 7.26822e-20)
(0.851499 0.477588 1.26201e-19)
(0.860293 0.453288 7.46882e-20)
(0.868696 0.430606 -1.78991e-19)
(0.876697 0.409293 -5.3113e-20)
(0.884233 0.389156 -6.54267e-21)
(0.891408 0.369933 3.52955e-20)
(0.898816 0.350937 5.52642e-21)
(0.906407 0.33146 3.89379e-19)
(0.909525 0.31363 -2.71374e-19)
(0.1785 0.211845 1.08185e-19)
(0.410309 0.474913 -1.55659e-21)
(0.558576 0.611675 -9.81099e-20)
(0.648563 0.664402 2.93205e-19)
(0.701663 0.668194 7.03257e-20)
(0.733987 0.647257 -1.93736e-19)
(0.755583 0.61622 1.85707e-19)
(0.771934 0.582729 -4.51495e-20)
(0.785713 0.550167 1.68419e-19)
(0.798097 0.519716 8.00237e-20)
(0.809566 0.491586 -3.68335e-19)
(0.820315 0.465623 -4.17843e-20)
(0.830429 0.441566 5.18104e-19)
(0.839941 0.419143 -6.3522e-19)
(0.848832 0.398112 5.87484e-19)
(0.857031 0.378278 2.0482e-19)
(0.864605 0.359362 -7.25034e-19)
(0.871957 0.340792 3.52307e-19)
(0.878911 0.322263 -7.13082e-20)
(0.881973 0.306169 8.42669e-20)
(0.166027 0.212295 -2.42287e-19)
(0.381127 0.47197 -2.52605e-19)
(0.520199 0.604049 1.72185e-19)
(0.606111 0.652935 -2.24927e-19)
(0.658402 0.654289 -6.32529e-19)
(0.691769 0.632142 -2.52657e-20)
(0.71527 0.600738 -1.89295e-19)
(0.733792 0.567354 6.1745e-21)
(0.749702 0.535127 -3.82702e-19)
(0.764047 0.505102 -3.89701e-19)
(0.777263 0.477428 -2.68035e-19)
(0.789542 0.451934 -1.14642e-20)
(0.800976 0.428364 -6.59415e-19)
(0.811614 0.406465 -7.60674e-21)
(0.821461 0.386024 3.22544e-19)
(0.830483 0.36688 -3.20228e-19)
(0.838759 0.348817 -2.48641e-19)
(0.846617 0.3314 2.39505e-19)
(0.853873 0.314446 -1.71347e-19)
(0.857669 0.299846 3.29279e-20)
(0.152964 0.210958 2.05154e-19)
(0.351209 0.465435 1.59022e-19)
(0.481391 0.592273 -8.54894e-21)
(0.563624 0.637399 -1.41024e-19)
(0.615429 0.636645 3.29161e-19)
(0.650049 0.613675 5.40924e-19)
(0.675566 0.582256 -5.7155e-20)
(0.696306 0.549284 8.00115e-21)
(0.714365 0.517652 1.03553e-19)
(0.730678 0.488282 2.41867e-19)
(0.745657 0.461274 3.52607e-19)
(0.759495 0.436443 -2.87323e-19)
(0.7723 0.413539 2.81236e-19)
(0.784139 0.39232 -9.85724e-20)
(0.795038 0.372589 3.29502e-19)
(0.804994 0.354194 -1.28532e-19)
(0.814114 0.336942 -3.2095e-19)
(0.822728 0.320494 1.91958e-19)
(0.830683 0.304781 -2.75751e-19)
(0.835483 0.291396 -3.12697e-19)
(0.139513 0.207818 9.92515e-20)
(0.320954 0.455327 1.76447e-19)
(0.442601 0.576402 -1.84943e-19)
(0.521532 0.617864 5.85322e-21)
(0.573133 0.615335 3.18834e-20)
(0.609169 0.591915 2.63544e-19)
(0.636774 0.560823 -3.8756e-19)
(0.659751 0.528553 3.67731e-19)
(0.679952 0.497765 -3.67184e-20)
(0.698225 0.469268 1.00317e-19)
(0.714962 0.443119 1.63461e-19)
(0.730368 0.419126 -3.11905e-19)
(0.744572 0.397047 1.48162e-19)
(0.757666 0.376655 1.41242e-19)
(0.7697 0.357764 5.23298e-20)
(0.780705 0.340232 -2.67836e-19)
(0.790811 0.32388 9.02003e-19)
(0.800344 0.308417 -5.06021e-19)
(0.809147 0.293811 9.17378e-19)
(0.815007 0.281377 -5.96768e-20)
(0.125878 0.202881 7.45055e-20)
(0.29075 0.441699 4.23961e-19)
(0.404266 0.556525 1.52659e-19)
(0.480251 0.594431 3.1318e-19)
(0.531883 0.590452 8.3197e-20)
(0.569454 0.566945 -5.0482e-19)
(0.599182 0.536505 7.84091e-19)
(0.624388 0.505214 4.07746e-19)
(0.646707 0.475503 1.74255e-20)
(0.666914 0.44808 5.2812e-19)
(0.68539 0.422966 8.66627e-20)
(0.702357 0.399967 5.51684e-20)
(0.717966 0.378847 3.15538e-19)
(0.732333 0.35939 -1.18494e-19)
(0.745534 0.341419 -1.23734e-19)
(0.75763 0.324797 7.35209e-19)
(0.768776 0.309356 -6.13167e-19)
(0.779288 0.294843 2.37441e-20)
(0.789002 0.281244 7.76489e-19)
(0.795947 0.269637 -8.08912e-22)
(0.112257 0.196172 -9.16605e-19)
(0.260974 0.424639 -1.50236e-19)
(0.366801 0.532764 -2.07388e-19)
(0.440174 0.567228 -1.59652e-19)
(0.492031 0.562118 -4.07563e-19)
(0.531213 0.538868 1.39456e-19)
(0.563066 0.509389 -1.96132e-19)
(0.590465 0.479336 5.83181e-20)
(0.614855 0.450921 -2.83982e-19)
(0.63695 0.424759 -2.67053e-19)
(0.657131 0.400844 5.73783e-20)
(0.675634 0.378979 -4.33813e-19)
(0.692635 0.358938 3.47757e-19)
(0.708273 0.340515 -1.25693e-19)
(0.722648 0.323542 3.91968e-19)
(0.735847 0.307884 -8.45976e-19)
(0.748043 0.293382 -1.60856e-19)
(0.759537 0.279813 -3.0366e-19)
(0.77016 0.267164 -8.14406e-19)
(0.778178 0.256313 -1.31308e-19)
(0.0988444 0.187735 1.48736e-19)
(0.231987 0.404265 -1.63711e-20)
(0.330603 0.50527 -2.3322e-19)
(0.401675 0.536413 8.25509e-20)
(0.45391 0.530476 -1.669e-19)
(0.494739 0.507812 -1.99675e-21)
(0.528686 0.479582 2.26652e-19)
(0.558215 0.45101 -3.38928e-19)
(0.584607 0.424094 1.31699e-19)
(0.608527 0.399367 -7.63474e-20)
(0.630356 0.376799 2.11111e-20)
(0.65035 0.356196 -3.79024e-19)
(0.668708 0.337342 -4.60497e-19)
(0.685588 0.320041 -1.75349e-20)
(0.701115 0.304133 5.12806e-19)
(0.715399 0.289487 2.36981e-20)
(0.728623 0.275953 6.4831e-19)
(0.741071 0.263333 -9.45304e-19)
(0.75258 0.251612 5.02405e-19)
(0.761643 0.24149 8.66483e-19)
(0.0858265 0.177635 -1.32515e-19)
(0.204131 0.380725 7.11581e-20)
(0.296045 0.474227 4.63492e-19)
(0.365105 0.502169 1.148e-19)
(0.417832 0.495696 -1.54358e-19)
(0.460306 0.473923 1.22101e-19)
(0.496283 0.447213 4.79781e-19)
(0.527856 0.420347 -3.89777e-19)
(0.556161 0.39512 3.61285e-20)
(0.581822 0.371988 -1.42163e-19)
(0.605226 0.350905 5.13779e-19)
(0.626649 0.331682 3.66975e-19)
(0.646307 0.314114 -5.33137e-20)
(0.664383 0.298016 -5.56148e-19)
(0.68102 0.283238 2.97673e-20)
(0.696345 0.269652 -6.85435e-20)
(0.710553 0.25712 3.2679e-19)
(0.723906 0.245467 5.31153e-19)
(0.736259 0.234671 4.63458e-19)
(0.746326 0.225278 -7.75063e-19)
(0.0733805 0.165951 -8.36098e-20)
(0.177727 0.354195 3.56366e-19)
(0.263475 0.439844 -3.46806e-19)
(0.330788 0.464703 4.83633e-19)
(0.384084 0.457968 -2.62187e-19)
(0.428167 0.437372 1.8899e-19)
(0.466082 0.412431 4.78265e-19)
(0.49959 0.387479 -5.75783e-19)
(0.529697 0.364115 2.62309e-19)
(0.556999 0.342725 3.31743e-19)
(0.581888 0.323253 -4.50459e-19)
(0.604658 0.305518 -3.15227e-20)
(0.625547 0.289327 -3.60662e-19)
(0.644754 0.27451 5.79175e-19)
(0.662439 0.260923 -3.13661e-19)
(0.678749 0.248447 3.36779e-19)
(0.69388 0.236955 -6.06386e-20)
(0.708078 0.226293 2.08259e-19)
(0.721223 0.216431 4.7587e-20)
(0.732241 0.207785 -1.21366e-19)
(0.0616723 0.152783 -2.57456e-19)
(0.153072 0.324877 -5.90629e-19)
(0.233214 0.402356 1.55407e-19)
(0.299024 0.424247 -4.98325e-19)
(0.352933 0.417504 -4.72268e-19)
(0.398557 0.398348 -3.3963e-19)
(0.438292 0.375404 2.64517e-19)
(0.473602 0.352556 2.03288e-19)
(0.505384 0.331213 -1.27571e-21)
(0.534209 0.311701 -1.77157e-19)
(0.560478 0.293955 -3.19951e-19)
(0.584501 0.277807 2.88213e-19)
(0.606533 0.263079 -9.92954e-20)
(0.626791 0.249613 -4.90306e-19)
(0.645452 0.237277 3.18847e-19)
(0.662675 0.22596 -2.39515e-19)
(0.678658 0.215547 -9.74821e-20)
(0.693632 0.205904 -2.72928e-19)
(0.707509 0.196994 -2.46746e-19)
(0.719417 0.189123 6.39138e-20)
(0.0508557 0.138242 2.2479e-19)
(0.130441 0.292997 1.16217e-19)
(0.205556 0.362023 1.78109e-19)
(0.270086 0.381056 -6.08869e-19)
(0.324621 0.374536 6.51743e-19)
(0.371688 0.357057 2.48469e-21)
(0.413101 0.336317 5.13354e-21)
(0.450062 0.315745 -3.9675e-19)
(0.483374 0.296566 3.7028e-19)
(0.51359 0.279054 -2.57801e-19)
(0.541119 0.263141 7.73667e-20)
(0.566286 0.24867 -3.44896e-19)
(0.589364 0.235482 -1.64003e-19)
(0.610583 0.223433 -7.81842e-20)
(0.630135 0.212404 5.89949e-19)
(0.648189 0.202293 -2.89476e-19)
(0.664945 0.192998 -2.61189e-19)
(0.68062 0.184404 2.68303e-19)
(0.695163 0.176467 -2.20249e-19)
(0.707888 0.169407 1.71656e-19)
(0.0410708 0.122454 4.79626e-19)
(0.110082 0.258803 -2.8972e-19)
(0.180764 0.319127 4.33e-20)
(0.24422 0.335402 5.0701e-19)
(0.299364 0.329314 2.01463e-19)
(0.347751 0.313726 2.49536e-19)
(0.390679 0.295373 2.48361e-19)
(0.429122 0.27723 5.26478e-19)
(0.463805 0.260344 -1.20566e-19)
(0.495267 0.24494 2.87963e-19)
(0.523924 0.230953 4.18147e-19)
(0.550116 0.218241 1.53951e-19)
(0.574131 0.206663 2.78565e-19)
(0.59621 0.196092 1.00996e-19)
(0.616557 0.186421 5.92287e-20)
(0.635355 0.17756 -4.30147e-20)
(0.652799 0.16942 3.449e-19)
(0.669094 0.161905 2.12422e-19)
(0.684231 0.154966 -1.93195e-19)
(0.697695 0.148753 1.82195e-19)
(0.0324429 0.10556 -3.18773e-19)
(0.0922124 0.222561 3.57508e-20)
(0.159072 0.27397 -9.20335e-20)
(0.221641 0.287578 -2.79729e-19)
(0.277354 0.282106 -1.47939e-19)
(0.326915 0.268595 -2.69127e-19)
(0.371176 0.25279 1.25271e-19)
(0.410917 0.237208 -4.83678e-19)
(0.446799 0.222727 2.85647e-19)
(0.47935 0.209528 -3.94805e-19)
(0.508993 0.197549 -2.44972e-19)
(0.536082 0.186669 -3.24092e-19)
(0.560914 0.176763 7.42281e-20)
(0.583744 0.167723 -7.32699e-20)
(0.604787 0.159456 8.73336e-20)
(0.624232 0.151886 4.69384e-20)
(0.642273 0.144936 9.32452e-20)
(0.659107 0.138526 -7.81511e-19)
(0.674763 0.132609 3.8878e-19)
(0.688876 0.127279 -2.33154e-19)
(0.0250813 0.0877094 1.05556e-19)
(0.0770246 0.184558 2.13081e-19)
(0.140682 0.226868 -1.38984e-19)
(0.202536 0.237889 3.43327e-19)
(0.258757 0.233192 -5.49212e-20)
(0.309326 0.221917 3.97288e-19)
(0.354722 0.208797 7.69015e-20)
(0.395565 0.195891 -8.05454e-20)
(0.432463 0.183911 2.93272e-19)
(0.465935 0.172998 2.24005e-19)
(0.496414 0.163099 8.31005e-20)
(0.524261 0.15411 1.09166e-19)
(0.549786 0.14593 5.47005e-20)
(0.573252 0.138468 -2.32251e-19)
(0.594883 0.131647 -3.22562e-20)
(0.614875 0.125402 2.4219e-19)
(0.63342 0.119673 -1.65518e-19)
(0.650706 0.114393 -7.81025e-21)
(0.6668 0.109519 -3.4615e-19)
(0.681467 0.105106 6.97085e-19)
(0.0190786 0.0690628 2.83418e-19)
(0.0646788 0.145092 -3.40022e-19)
(0.125764 0.178155 1.59572e-19)
(0.187062 0.186656 -2.25523e-19)
(0.243711 0.182865 1.99084e-19)
(0.295106 0.173958 -3.45479e-19)
(0.341426 0.163635 -2.52967e-19)
(0.383163 0.153499 1.89304e-20)
(0.420885 0.144099 -3.44563e-19)
(0.455105 0.13554 -2.1495e-19)
(0.48626 0.127778 -3.71929e-19)
(0.514722 0.120733 -1.23649e-20)
(0.540808 0.114324 -1.44302e-19)
(0.564789 0.108478 3.65257e-19)
(0.586896 0.103137 2.51546e-19)
(0.60733 0.0982473 -8.45343e-20)
(0.626281 0.0937638 -7.63622e-20)
(0.643933 0.0896355 -3.43819e-21)
(0.660382 0.0858229 9.4484e-21)
(0.6755 0.0823585 1.37808e-19)
(0.01451 0.0497884 -7.08996e-20)
(0.0553047 0.104476 -2.42726e-19)
(0.114455 0.128177 -1.51332e-19)
(0.175345 0.134211 -9.46923e-20)
(0.232328 0.131429 -1.96194e-19)
(0.284354 0.124993 3.36141e-19)
(0.331376 0.117556 -3.6078e-20)
(0.373791 0.110263 -8.09005e-20)
(0.412138 0.103503 3.27859e-21)
(0.446923 0.0973512 2.37504e-19)
(0.478591 0.0917739 -2.25568e-19)
(0.507518 0.0867124 2.20583e-19)
(0.534029 0.0821085 1.03484e-19)
(0.5584 0.0779107 -1.8859e-19)
(0.580868 0.0740753 4.12331e-20)
(0.601636 0.0705655 1.21161e-19)
(0.620894 0.067348 4.21139e-20)
(0.638821 0.0643872 -2.93386e-20)
(0.655539 0.0616524 -2.54608e-19)
(0.671001 0.05916 2.02721e-19)
(0.0114322 0.0300611 6.39855e-20)
(0.0490003 0.063031 7.76341e-20)
(0.106857 0.0772875 2.18273e-20)
(0.16748 0.0808933 -1.64335e-20)
(0.224692 0.0791946 4.68772e-20)
(0.277144 0.0753031 7.16746e-20)
(0.324638 0.0708149 2.718e-20)
(0.36751 0.0664176 3.3161e-20)
(0.406275 0.0623436 -7.04544e-20)
(0.441441 0.0586367 1.32021e-19)
(0.473452 0.0552766 -3.11775e-20)
(0.502693 0.0522276 -2.51783e-21)
(0.529489 0.0494547 3.16307e-20)
(0.554121 0.0469267 3.56612e-20)
(0.57683 0.0446172 -9.57809e-20)
(0.597823 0.0425041 6.30393e-20)
(0.617287 0.0405675 4.13274e-20)
(0.635398 0.0387859 3.52818e-20)
(0.652297 0.0371403 7.55925e-20)
(0.667991 0.0356376 3.12754e-20)
(0.00988343 0.0100601 -1.31045e-20)
(0.045831 0.0210859 2.72331e-20)
(0.103041 0.0258489 -3.81016e-20)
(0.163531 0.0270502 2.39447e-20)
(0.220859 0.0264793 1.40512e-20)
(0.273526 0.0251767 6.2939e-21)
(0.321258 0.0236757 1.48602e-20)
(0.364358 0.0222055 -4.25961e-20)
(0.403334 0.0208438 2.717e-20)
(0.438691 0.0196048 9.49714e-21)
(0.470875 0.0184818 -5.52848e-22)
(0.500272 0.0174629 5.82959e-20)
(0.527211 0.0165363 -1.76952e-20)
(0.551975 0.0156915 -1.69427e-20)
(0.574806 0.0149198 -1.62761e-20)
(0.595911 0.0142138 2.52473e-21)
(0.615478 0.0135667 -2.17348e-20)
(0.633681 0.0129716 4.15531e-21)
(0.650672 0.0124219 8.16615e-22)
(0.666482 0.0119194 -2.75719e-21)
(0.00988289 -0.0100324 8.32264e-21)
(0.0458299 -0.0210263 -4.42931e-20)
(0.103039 -0.0257733 5.27965e-20)
(0.16353 -0.0269685 -3.96766e-20)
(0.220857 -0.0263967 -1.8513e-20)
(0.273524 -0.0250955 5.54292e-20)
(0.321256 -0.0235967 4.61651e-21)
(0.364356 -0.0221291 1.28248e-21)
(0.403333 -0.0207697 2.58744e-20)
(0.438689 -0.0195331 1.33691e-20)
(0.470874 -0.0184122 -1.05681e-20)
(0.500271 -0.0173953 -3.70411e-20)
(0.52721 -0.0164706 3.52976e-21)
(0.551974 -0.0156276 -3.22093e-21)
(0.574804 -0.0148576 3.45127e-20)
(0.59591 -0.0141531 -2.07638e-20)
(0.615476 -0.0135076 2.84622e-20)
(0.63368 -0.0129139 -4.26581e-20)
(0.650671 -0.0123655 4.9965e-23)
(0.666481 -0.0118644 -8.97336e-21)
(0.0114305 -0.0300334 -2.7647e-20)
(0.0489969 -0.0629715 1.39445e-19)
(0.106853 -0.077212 9.3952e-20)
(0.167476 -0.0808118 6.21567e-20)
(0.224687 -0.0791121 7.75771e-20)
(0.27714 -0.075222 -1.88699e-20)
(0.324634 -0.0707361 8.59435e-20)
(0.367505 -0.0663412 1.75678e-20)
(0.406271 -0.0622697 -7.71114e-21)
(0.441437 -0.0585651 -6.13191e-20)
(0.473448 -0.0552071 6.35566e-20)
(0.502689 -0.0521601 -8.62906e-20)
(0.529485 -0.0493891 6.2678e-20)
(0.554117 -0.0468629 7.17662e-20)
(0.576827 -0.0445551 9.48761e-20)
(0.59782 -0.0424436 -6.23727e-20)
(0.617283 -0.0405084 1.75748e-20)
(0.635395 -0.0387283 6.57569e-20)
(0.652294 -0.037084 -6.2191e-20)
(0.667988 -0.0355826 4.68989e-20)
(0.0145073 -0.0497609 -2.67167e-19)
(0.0552991 -0.104417 -1.34143e-19)
(0.114448 -0.128102 -1.49171e-19)
(0.175337 -0.134129 -1.17462e-20)
(0.23232 -0.131347 -8.04486e-20)
(0.284347 -0.124912 -9.86095e-20)
(0.331368 -0.117477 1.74185e-19)
(0.373784 -0.110186 8.87086e-20)
(0.412131 -0.103429 1.09179e-19)
(0.446917 -0.0972798 -1.18676e-19)
(0.478584 -0.0917046 8.79044e-20)
(0.507512 -0.0866451 1.07158e-19)
(0.534023 -0.082043 3.77435e-20)
(0.558394 -0.0778471 -3.58766e-20)
(0.580862 -0.0740134 7.67104e-21)
(0.60163 -0.0705052 -1.55089e-20)
(0.620888 -0.0672892 -1.51377e-19)
(0.638815 -0.0643297 2.35068e-20)
(0.655534 -0.0615963 1.46968e-19)
(0.670996 -0.0591052 -1.97394e-19)
(0.0190748 -0.0690355 -8.77812e-20)
(0.0646709 -0.145033 1.30292e-19)
(0.125754 -0.17808 3.01061e-20)
(0.187051 -0.186575 -5.62071e-20)
(0.2437 -0.182783 -1.5901e-19)
(0.295095 -0.173878 -3.40613e-19)
(0.341415 -0.163557 -3.24054e-19)
(0.383153 -0.153423 -2.32401e-20)
(0.420875 -0.144025 -1.88341e-19)
(0.455095 -0.135469 -2.81573e-19)
(0.48625 -0.127709 2.18283e-19)
(0.514713 -0.120666 -3.21905e-19)
(0.540799 -0.114259 6.38217e-20)
(0.56478 -0.108415 -2.05384e-20)
(0.586888 -0.103075 -6.73138e-20)
(0.607322 -0.0981872 -8.49821e-20)
(0.626273 -0.0937052 1.37974e-19)
(0.643925 -0.0895783 1.10152e-19)
(0.660374 -0.0857671 1.89219e-19)
(0.675493 -0.082304 -2.83196e-19)
(0.0250764 -0.0876824 4.76654e-20)
(0.0770145 -0.1845 4.62516e-19)
(0.140669 -0.226794 1.32371e-19)
(0.202522 -0.237808 3.20041e-19)
(0.258743 -0.23311 -1.19581e-19)
(0.309312 -0.221837 1.83973e-19)
(0.354708 -0.208719 -5.77204e-20)
(0.395552 -0.195816 3.72816e-19)
(0.432451 -0.183838 -1.91723e-19)
(0.465923 -0.172927 2.25932e-19)
(0.496402 -0.16303 1.96048e-19)
(0.524249 -0.154044 2.09457e-19)
(0.549775 -0.145865 -1.87367e-19)
(0.573241 -0.138405 1.60632e-19)
(0.594872 -0.131586 -2.23308e-19)
(0.614865 -0.125342 -6.13403e-20)
(0.633409 -0.119614 -1.46797e-19)
(0.650696 -0.114336 -6.22918e-20)
(0.66679 -0.109463 2.47035e-19)
(0.681457 -0.105052 -4.08948e-19)
(0.032437 -0.105533 -1.91132e-19)
(0.0922001 -0.222504 -2.2509e-20)
(0.159056 -0.273896 -7.61295e-20)
(0.221624 -0.287498 -2.6778e-19)
(0.277337 -0.282025 4.57047e-20)
(0.326898 -0.268516 -4.1902e-19)
(0.371159 -0.252712 -1.75887e-19)
(0.410901 -0.237133 -1.35725e-20)
(0.446784 -0.222655 -4.42278e-19)
(0.479335 -0.209458 -1.37122e-19)