1.275 	2.15223e-18 	-2.76991e-20 	-0.144673 	0.00339009 	-2.62511e-22
1.825 	2.15223e-18 	-1.39322e-20 	-0.270888 	0.00310639 	3.5574e-21
2.375 	2.15223e-18 	-2.66896e-23 	-0.394341 	0.00962226 	-1.81514e-21
