/*--------------------------------*- C++ -*----------------------------------*\
  =========                 |
  \\      /  F ield         | OpenFOAM: The Open Source CFD Toolbox
   \\    /   O peration     | Website:  https://openfoam.org
    \\  /    A nd           | Version:  6.0
     \\/     M anipulation  |
\*---------------------------------------------------------------------------*/
FoamFile
{
    version     2.0;
    format      ascii;
    class       volScalarField;
    location    "26";
    object      p;
}
// * * * * * * * * * * * * * * * * * * * * * * * * * * * * * * * * * * * * * //

dimensions      [0 2 -2 0 0 0 0];

internalField   nonuniform List<scalar> 
8000
(
-0.259081
-0.260069
-0.260715
-0.261183
-0.261573
-0.261901
-0.262181
-0.262426
-0.262644
-0.262843
-0.263027
-0.263201
-0.263369
-0.263535
-0.263704
-0.263885
-0.264079
-0.264242
-0.264351
-0.264889
-0.25921
-0.260193
-0.260836
-0.261299
-0.261684
-0.262006
-0.26228
-0.262519
-0.262731
-0.262923
-0.2631
-0.263267
-0.263428
-0.263587
-0.26375
-0.263924
-0.264113
-0.26427
-0.264374
-0.264909
-0.259455
-0.26043
-0.261064
-0.261518
-0.261892
-0.262203
-0.262464
-0.26269
-0.262888
-0.263066
-0.263229
-0.263381
-0.263527
-0.263671
-0.263818
-0.263978
-0.264153
-0.264298
-0.264389
-0.264916
-0.259814
-0.260777
-0.261399
-0.261839
-0.262198
-0.26249
-0.262733
-0.262938
-0.263115
-0.263271
-0.26341
-0.263539
-0.26366
-0.26378
-0.263903
-0.264039
-0.264192
-0.264317
-0.264386
-0.264901
-0.260288
-0.261236
-0.261842
-0.262263
-0.262599
-0.262868
-0.263084
-0.263261
-0.263409
-0.263533
-0.263641
-0.263736
-0.263823
-0.263908
-0.263995
-0.264098
-0.26422
-0.264314
-0.264351
-0.264849
-0.260877
-0.261807
-0.262392
-0.262789
-0.263097
-0.263334
-0.263516
-0.263657
-0.263767
-0.263851
-0.263916
-0.263967
-0.264009
-0.264046
-0.264087
-0.264143
-0.264222
-0.264276
-0.264271
-0.264745
-0.261581
-0.26249
-0.263051
-0.263418
-0.263691
-0.26389
-0.26403
-0.264126
-0.264188
-0.264222
-0.264234
-0.264229
-0.264212
-0.264189
-0.264169
-0.264164
-0.264185
-0.264185
-0.264125
-0.264569
-0.262403
-0.263287
-0.263818
-0.26415
-0.264381
-0.264534
-0.264624
-0.264667
-0.264672
-0.264645
-0.264593
-0.264519
-0.26443
-0.264332
-0.264234
-0.264151
-0.264098
-0.264026
-0.263895
-0.264301
-0.263346
-0.264201
-0.264697
-0.264986
-0.265169
-0.265268
-0.2653
-0.265281
-0.26522
-0.265123
-0.264995
-0.26484
-0.264664
-0.264473
-0.264279
-0.264099
-0.263949
-0.263784
-0.263563
-0.26392
-0.264414
-0.265235
-0.265689
-0.265929
-0.266056
-0.266093
-0.26606
-0.265971
-0.265835
-0.265659
-0.265445
-0.265196
-0.264919
-0.264618
-0.264307
-0.264005
-0.263734
-0.263448
-0.263109
-0.263402
-0.265615
-0.266394
-0.2668
-0.266982
-0.267045
-0.267013
-0.266906
-0.26674
-0.266523
-0.26626
-0.265951
-0.265598
-0.265205
-0.264778
-0.264328
-0.263878
-0.263453
-0.263012
-0.262517
-0.262724
-0.266956
-0.267684
-0.268031
-0.268148
-0.268138
-0.268028
-0.267841
-0.267592
-0.267289
-0.266932
-0.266522
-0.266058
-0.26554
-0.26497
-0.264359
-0.263733
-0.263117
-0.262474
-0.261771
-0.261856
-0.268445
-0.269111
-0.26939
-0.26943
-0.269337
-0.269141
-0.268867
-0.26853
-0.268135
-0.267683
-0.267169
-0.266589
-0.265938
-0.265214
-0.264424
-0.263591
-0.262744
-0.261843
-0.26086
-0.260766
-0.270093
-0.270682
-0.27088
-0.270832
-0.270644
-0.270353
-0.269984
-0.269552
-0.269062
-0.268513
-0.267895
-0.267199
-0.266413
-0.26553
-0.264547
-0.263481
-0.26236
-0.261136
-0.259776
-0.259414
-0.271909
-0.272408
-0.272509
-0.272357
-0.272061
-0.271662
-0.271188
-0.270654
-0.270066
-0.269418
-0.268697
-0.267888
-0.266971
-0.265928
-0.264745
-0.263427
-0.261994
-0.260376
-0.258516
-0.257752
-0.273907
-0.274297
-0.274284
-0.274011
-0.27359
-0.273068
-0.272475
-0.271829
-0.271135
-0.270385
-0.269562
-0.268644
-0.267602
-0.266405
-0.265025
-0.263448
-0.261673
-0.259599
-0.257103
-0.25575
-0.276102
-0.276363
-0.276215
-0.275801
-0.275234
-0.274568
-0.273839
-0.273067
-0.272256
-0.271396
-0.270468
-0.269443
-0.268283
-0.266947
-0.265384
-0.263558
-0.261443
-0.258888
-0.255649
-0.253457
-0.278512
-0.278622
-0.278316
-0.277736
-0.276998
-0.276166
-0.275279
-0.274361
-0.273416
-0.272434
-0.271394
-0.270262
-0.268995
-0.267535
-0.265815
-0.263769
-0.261334
-0.258301
-0.254208
-0.250782
-0.281162
-0.281096
-0.280606
-0.279831
-0.278895
-0.277868
-0.276798
-0.27571
-0.274612
-0.273495
-0.272336
-0.271103
-0.269748
-0.26821
-0.266402
-0.264219
-0.261533
-0.257988
-0.252714
-0.247268
-0.284081
-0.283812
-0.283107
-0.282109
-0.280943
-0.279693
-0.278412
-0.277131
-0.275859
-0.274594
-0.273318
-0.272007
-0.270629
-0.269143
-0.267497
-0.26562
-0.263392
-0.260351
-0.255259
-0.249215
-0.28731
-0.286803
-0.285852
-0.284597
-0.283171
-0.281668
-0.280149
-0.278652
-0.27719
-0.275768
-0.274379
-0.273021
-0.271694
-0.270423
-0.269267
-0.26837
-0.267998
-0.268585
-0.271701
-0.284323
-0.290893
-0.290112
-0.288878
-0.287333
-0.285616
-0.283833
-0.282054
-0.280321
-0.278656
-0.277069
-0.27557
-0.274173
-0.272912
-0.271856
-0.271131
-0.270964
-0.271728
-0.273977
-0.278904
-0.291191
-0.294886
-0.293783
-0.292229
-0.290363
-0.288326
-0.286239
-0.28418
-0.282199
-0.280322
-0.27857
-0.276961
-0.275527
-0.274324
-0.273445
-0.273041
-0.273343
-0.274682
-0.277486
-0.282353
-0.29186
-0.299345
-0.29787
-0.295955
-0.293736
-0.291354
-0.288944
-0.286593
-0.284354
-0.282262
-0.28034
-0.278616
-0.277132
-0.275949
-0.275167
-0.274923
-0.275407
-0.276852
-0.279513
-0.283647
-0.290404
-0.304331
-0.302425
-0.300108
-0.297506
-0.294757
-0.292009
-0.289356
-0.286854
-0.284539
-0.282437
-0.280579
-0.279003
-0.277771
-0.276963
-0.276686
-0.277066
-0.278235
-0.280301
-0.283353
-0.28761
-0.309903
-0.307501
-0.304741
-0.30173
-0.298595
-0.295497
-0.292533
-0.289758
-0.287205
-0.284899
-0.282864
-0.281131
-0.279746
-0.278766
-0.278258
-0.278291
-0.278918
-0.280155
-0.282023
-0.284261
-0.316115
-0.313149
-0.309905
-0.30646
-0.302924
-0.299463
-0.296176
-0.29311
-0.290293
-0.287737
-0.285457
-0.283471
-0.281807
-0.280496
-0.279572
-0.279063
-0.278976
-0.279284
-0.279982
-0.280643
-0.323011
-0.319412
-0.315646
-0.311745
-0.307793
-0.303956
-0.300326
-0.296939
-0.293807
-0.290932
-0.288312
-0.285952
-0.283864
-0.282061
-0.280559
-0.279361
-0.278457
-0.277816
-0.277423
-0.276871
-0.330625
-0.326326
-0.322003
-0.317628
-0.313243
-0.30901
-0.305005
-0.301246
-0.297726
-0.294431
-0.291349
-0.288474
-0.28581
-0.283364
-0.281145
-0.279153
-0.27738
-0.275805
-0.274412
-0.272892
-0.338975
-0.333911
-0.329002
-0.324138
-0.319302
-0.314641
-0.31021
-0.306002
-0.30199
-0.298149
-0.294459
-0.290916
-0.287526
-0.284302
-0.281258
-0.278403
-0.27574
-0.273262
-0.270954
-0.268613
-0.348057
-0.342176
-0.336657
-0.331289
-0.325975
-0.320839
-0.315906
-0.311142
-0.306505
-0.301966
-0.29751
-0.293146
-0.288893
-0.28478
-0.280835
-0.277078
-0.273524
-0.27018
-0.267027
-0.263947
-0.357848
-0.351104
-0.344961
-0.339071
-0.333242
-0.32756
-0.32202
-0.316563
-0.311142
-0.305736
-0.300353
-0.295025
-0.289796
-0.284714
-0.279821
-0.275151
-0.270724
-0.266552
-0.262612
-0.258841
-0.368293
-0.360658
-0.353879
-0.347446
-0.341047
-0.334724
-0.328439
-0.322122
-0.315738
-0.309294
-0.302833
-0.296421
-0.290132
-0.284032
-0.278177
-0.272603
-0.267332
-0.262375
-0.257697
-0.253273
-0.379308
-0.370768
-0.363348
-0.356342
-0.349294
-0.342202
-0.335006
-0.327642
-0.32011
-0.312464
-0.304796
-0.297212
-0.289812
-0.282678
-0.275869
-0.26942
-0.263347
-0.257651
-0.252283
-0.247242
-0.390771
-0.38133
-0.373268
-0.365642
-0.357844
-0.349824
-0.341525
-0.332917
-0.324059
-0.31507
-0.306099
-0.297289
-0.288762
-0.280604
-0.272872
-0.265591
-0.258763
-0.252379
-0.246369
-0.240755
-0.402523
-0.392204
-0.383496
-0.375188
-0.366506
-0.357377
-0.347769
-0.337723
-0.327381
-0.316942
-0.306608
-0.296555
-0.286914
-0.277768
-0.26916
-0.261098
-0.253572
-0.246554
-0.239952
-0.233817
-0.414363
-0.403205
-0.393845
-0.384772
-0.37505
-0.364607
-0.353485
-0.341826
-0.329877
-0.317919
-0.306203
-0.294924
-0.28421
-0.274128
-0.264703
-0.255922
-0.247757
-0.240162
-0.233024
-0.226424
-0.426051
-0.41411
-0.404085
-0.39414
-0.3832
-0.371237
-0.358408
-0.344994
-0.331357
-0.317855
-0.304776
-0.292317
-0.28059
-0.269641
-0.259467
-0.250034
-0.241295
-0.233184
-0.225567
-0.218564
-0.437307
-0.424655
-0.413943
-0.403001
-0.390652
-0.376968
-0.362271
-0.347002
-0.331644
-0.316617
-0.302227
-0.288659
-0.275999
-0.264261
-0.253414
-0.2434
-0.234153
-0.225591
-0.217554
-0.210216
-0.447819
-0.434537
-0.423105
-0.411027
-0.397081
-0.381499
-0.364813
-0.347642
-0.330577
-0.314084
-0.298465
-0.283879
-0.270377
-0.257937
-0.246499
-0.23598
-0.226298
-0.21735
-0.208958
-0.201353
-0.457247
-0.443426
-0.431233
-0.417872
-0.402151
-0.384532
-0.36579
-0.346722
-0.328011
-0.310145
-0.293405
-0.277909
-0.263667
-0.25062
-0.238676
-0.227732
-0.21769
-0.208425
-0.199744
-0.191944
-0.465229
-0.450965
-0.437963
-0.423175
-0.405533
-0.385786
-0.364977
-0.34407
-0.323817
-0.304702
-0.286967
-0.270683
-0.255811
-0.242257
-0.229899
-0.218614
-0.208289
-0.198781
-0.189879
-0.181956
-0.471395
-0.456788
-0.442926
-0.426582
-0.40691
-0.385002
-0.362174
-0.339538
-0.317884
-0.297668
-0.279081
-0.262138
-0.246754
-0.232798
-0.220122
-0.208585
-0.198059
-0.188382
-0.179331
-0.171361
-0.475377
-0.460525
-0.445755
-0.427753
-0.405992
-0.381951
-0.357211
-0.332999
-0.310113
-0.288964
-0.269681
-0.252218
-0.236446
-0.222199
-0.209305
-0.197608
-0.186966
-0.177198
-0.168074
-0.160132
-0.476817
-0.461819
-0.446102
-0.426372
-0.402523
-0.376439
-0.349944
-0.324346
-0.300425
-0.278527
-0.25871
-0.240873
-0.224842
-0.210419
-0.197412
-0.18565
-0.174981
-0.165203
-0.156085
-0.148248
-0.475381
-0.460333
-0.443645
-0.422164
-0.396287
-0.368308
-0.340261
-0.3135
-0.288756
-0.266302
-0.246123
-0.228062
-0.211904
-0.197425
-0.184414
-0.172688
-0.162083
-0.152381
-0.143349
-0.135697
-0.470767
-0.455764
-0.438103
-0.414895
-0.387109
-0.357437
-0.328079
-0.300399
-0.27506
-0.252251
-0.231886
-0.213754
-0.197607
-0.183194
-0.170291
-0.158703
-0.148259
-0.138719
-0.12986
-0.12247
-0.462717
-0.447851
-0.429241
-0.404383
-0.374865
-0.343746
-0.313347
-0.285008
-0.259308
-0.236348
-0.215975
-0.19793
-0.181931
-0.167711
-0.15503
-0.143688
-0.133502
-0.124217
-0.115617
-0.108569
-0.451023
-0.436384
-0.416879
-0.390499
-0.359476
-0.327191
-0.296043
-0.267314
-0.24149
-0.218585
-0.198382
-0.18058
-0.164871
-0.150971
-0.138631
-0.127643
-0.117816
-0.10888
-0.100631
-0.0940034
-0.435532
-0.421213
-0.400898
-0.373171
-0.34091
-0.307768
-0.276173
-0.247328
-0.221617
-0.19897
-0.179112
-0.161709
-0.146431
-0.13298
-0.121099
-0.110577
-0.101214
-0.092727
-0.0849246
-0.0787975
-0.416155
-0.402247
-0.381238
-0.352383
-0.319184
-0.285512
-0.253777
-0.225085
-0.199717
-0.177525
-0.158186
-0.141334
-0.126624
-0.11375
-0.102449
-0.0925054
-0.0837138
-0.0757809
-0.0685281
-0.0629897
-0.392865
-0.379461
-0.357904
-0.328173
-0.294362
-0.260492
-0.228921
-0.200644
-0.175841
-0.154294
-0.135637
-0.119483
-0.105476
-0.093303
-0.0826995
-0.073448
-0.0653375
-0.0580683
-0.0514771
-0.0466226
-0.365702
-0.352896
-0.330961
-0.300635
-0.266548
-0.232812
-0.201701
-0.174089
-0.15006
-0.129334
-0.111514
-0.096196
-0.0830179
-0.0716652
-0.0618734
-0.0534247
-0.0461049
-0.0396139
-0.0338031
-0.0297198
-0.334769
-0.322655
-0.300535
-0.269912
-0.23589
-0.202615
-0.172244
-0.145529
-0.122467
-0.102725
-0.0858806
-0.0715235
-0.0592892
-0.0488662
-0.0399931
-0.0324539
-0.0260347
-0.0204421
-0.0155299
-0.0122734
-0.300232
-0.288905
-0.266806
-0.236196
-0.202578
-0.170072
-0.140702
-0.115099
-0.0931773
-0.0745629
-0.0588174
-0.045528
-0.0343356
-0.024936
-0.0170757
-0.0105449
-0.00513627
-0.000565905
0.00333319
0.00571716
-0.262315
-0.251869
-0.230008
-0.199722
-0.166834
-0.135389
-0.107261
-0.0829614
-0.0623326
-0.0449692
-0.0304239
-0.0182884
-0.00821368
9.08069e-05
0.00686403
0.0123035
0.0166046
0.0200344
0.0227823
0.0241279
-0.221297
-0.211822
-0.190421
-0.160766
-0.128917
-0.0988015
-0.0721316
-0.049304
-0.0300992
-0.0140878
-0.000821264
0.0100989
0.019005
0.0261664
0.0317995
0.036086
0.0392047
0.0413685
0.0427034
0.0425713
-0.177503
-0.169086
-0.148367
-0.119637
-0.0891177
-0.060575
-0.0355544
-0.0143441
0.00332928
0.0179124
0.0298504
0.039527
0.0472512
0.0532605
0.0577374
0.0608423
0.062714
0.063393
0.0627787
0.0606052
-0.131301
-0.124023
-0.104199
-0.0766746
-0.0477505
-0.021
0.0022026
0.0216709
0.0377257
0.0508278
0.0614189
0.0698699
0.0764677
0.0814157
0.0848596
0.0869286
0.0876485
0.0866688
0.0835356
0.0792557
-0.0830925
-0.0770274
-0.0583034
-0.0322427
-0.00515348
0.0196104
0.0408464
0.0584628
0.0728225
0.0843993
0.0936366
0.100904
0.106485
0.110582
0.113354
0.114948
0.115265
0.113469
0.108865
0.104217
-0.0333062
-0.0285183
-0.011083
0.013279
0.0383208
0.060928
0.0800667
0.0957317
0.108321
0.118317
0.126166
0.132241
0.13684
0.140205
0.142576
0.144227
0.145132
0.144324
0.141542
0.144977
0.0176177
0.0210717
0.0370461
0.0595012
0.0823118
0.102618
0.119548
0.133173
0.143919
0.15227
0.158667
0.163478
0.167
0.169484
0.171191
0.172378
0.173036
0.172699
0.17225
0.177825
0.0692204
0.0712951
0.0856585
0.106029
0.126457
0.144344
0.158976
0.17049
0.179329
0.185977
0.190865
0.19435
0.196726
0.198242
0.199146
0.199656
0.199756
0.199158
0.198757
0.203235
0.12104
0.121702
0.134329
0.152471
0.170397
0.185778
0.198045
0.207392
0.214275
0.219168
0.222486
0.224573
0.225707
0.226128
0.226062
0.225705
0.225053
0.223886
0.222944
0.225943
0.172614
0.171845
0.182636
0.19844
0.213783
0.226601
0.236462
0.243612
0.248507
0.251611
0.25332
0.253957
0.253784
0.253021
0.251869
0.250495
0.248884
0.246841
0.245046
0.246666
0.223489
0.221281
0.230168
0.243561
0.256272
0.266504
0.273949
0.278892
0.281793
0.283095
0.283174
0.282334
0.280817
0.27882
0.276525
0.274071
0.271427
0.268421
0.265699
0.265996
0.27322
0.269583
0.276523
0.287471
0.29754
0.305193
0.310239
0.312995
0.313916
0.313426
0.311881
0.309562
0.306689
0.303441
0.299979
0.296418
0.292717
0.288731
0.285077
0.284123
0.321378
0.316335
0.321318
0.32982
0.337274
0.342389
0.345082
0.345695
0.344675
0.342428
0.339286
0.335509
0.331298
0.326813
0.322195
0.317539
0.3128
0.307857
0.303296
0.301153
0.367552
0.36114
0.364185
0.370279
0.375177
0.377826
0.378238
0.376778
0.37388
0.369932
0.365243
0.360051
0.35454
0.348853
0.343112
0.337397
0.331661
0.325807
0.320376
0.317106
0.41135
0.403622
0.404777
0.408535
0.410971
0.411255
0.409485
0.406043
0.401352
0.395778
0.389609
0.383066
0.376312
0.369477
0.362666
0.355944
0.349266
0.342557
0.336302
0.331966
0.452407
0.443429
0.44277
0.444295
0.444393
0.44244
0.438612
0.433301
0.42692
0.419814
0.412253
0.404435
0.396512
0.388596
0.38078
0.373115
0.365561
0.358058
0.351031
0.345696
0.49038
0.480234
0.477861
0.477288
0.4752
0.471164
0.465422
0.458376
0.450425
0.441898
0.433043
0.424045
0.415037
0.406121
0.397374
0.388839
0.380481
0.372251
0.364509
0.358248
0.524956
0.513735
0.509776
0.507267
0.503171
0.497226
0.489734
0.481103
0.47172
0.461896
0.451861
0.441785
0.431789
0.421961
0.412368
0.403044
0.393958
0.385072
0.376678
0.369568
0.555852
0.543663
0.538265
0.534006
0.528103
0.520445
0.511385
0.501334
0.490669
0.479683
0.468592
0.457553
0.446673
0.436031
0.425683
0.415656
0.405924
0.396455
0.387477
0.379605
0.582815
0.569774
0.563106
0.557306
0.549817
0.540659
0.530226
0.518935
0.507148
0.495148
0.483135
0.471255
0.459604
0.448252
0.437246
0.426607
0.416315
0.40634
0.396849
0.388308
0.605627
0.591861
0.584106
0.576993
0.568156
0.557725
0.54613
0.533787
0.521052
0.508192
0.4954
0.482807
0.470505
0.458553
0.44699
0.435835
0.425071
0.41467
0.404744
0.395633
0.624102
0.609746
0.601105
0.592922
0.582989
0.571525
0.558987
0.545792
0.532288
0.518733
0.505308
0.492139
0.479309
0.466871
0.454859
0.443286
0.432141
0.421396
0.411116
0.401541
0.638092
0.623287
0.613971
0.604974
0.594209
0.581962
0.568709
0.554869
0.540783
0.5267
0.512797
0.499192
0.485962
0.473157
0.460804
0.448916
0.437482
0.426478
0.415928
0.406001
0.647484
0.632377
0.622605
0.613061
0.601737
0.588963
0.57523
0.560956
0.546479
0.532043
0.517818
0.50392
0.490422
0.47737
0.464789
0.452689
0.441063
0.429884
0.419153
0.408989
0.652202
0.636942
0.626942
0.617122
0.605516
0.592478
0.578504
0.564013
0.549339
0.534725
0.520339
0.506294
0.492661
0.479485
0.466789
0.454583
0.44286
0.431593
0.420771
0.410488
0.652207
0.636948
0.626948
0.617127
0.605521
0.592483
0.578508
0.564017
0.549343
0.534729
0.520343
0.506297
0.492665
0.479488
0.466793
0.454587
0.442863
0.431597
0.420774
0.410491
0.647502
0.632394
0.622622
0.613077
0.601752
0.588977
0.575244
0.560969
0.546491
0.532055
0.51783
0.503931
0.490433
0.47738
0.464799
0.452699
0.441073
0.429893
0.419162
0.408998
0.638122
0.623316
0.613999
0.605001
0.594235
0.581986
0.568732
0.554891
0.540804
0.52672
0.512816
0.49921
0.48598
0.473174
0.460821
0.448932
0.437499
0.426493
0.415943
0.406016
0.624144
0.609787
0.601144
0.592959
0.583024
0.571559
0.559019
0.545823
0.532317
0.518761
0.505335
0.492165
0.479334
0.466896
0.454883
0.44331
0.432164
0.421418
0.411137
0.401562
0.60568
0.591913
0.584157
0.577041
0.568201
0.557768
0.546171
0.533826
0.521089
0.508228
0.495434
0.482841
0.470537
0.458584
0.447021
0.435865
0.4251
0.414699
0.404771
0.39566
0.58288
0.569838
0.563167
0.557364
0.549872
0.540711
0.530276
0.518982
0.507194
0.495192
0.483178
0.471295
0.459644
0.448291
0.437283
0.426643
0.41635
0.406375
0.396883
0.388341
0.555929
0.543738
0.538338
0.534075
0.528168
0.520507
0.511444
0.50139
0.490723
0.479734
0.468642
0.457601
0.44672
0.436076
0.425727
0.415699
0.405966
0.396496
0.387516
0.379643
0.525045
0.513823
0.50986
0.507346
0.503247
0.497298
0.489802
0.481168
0.471783
0.461955
0.451918
0.44184
0.431843
0.422013
0.412418
0.403093
0.394006
0.385119
0.376724
0.369613
0.490481
0.480333
0.477957
0.477378
0.475286
0.471245
0.465499
0.458449
0.450496
0.441966
0.433109
0.424108
0.415098
0.40618
0.397431
0.388895
0.380535
0.372304
0.364561
0.358298
0.452519
0.44354
0.442876
0.444396
0.444488
0.442531
0.438698
0.433383
0.426999
0.41989
0.412325
0.404506
0.39658
0.388662
0.380844
0.373177
0.365621
0.358117
0.351089
0.345752
0.411475
0.403744
0.404894
0.408646
0.411076
0.411355
0.40958
0.406134
0.401439
0.395861
0.38969
0.383144
0.376387
0.36955
0.362737
0.356013
0.349333
0.342622
0.336366
0.332028
0.367688
0.361273
0.364313
0.370401
0.375293
0.377936
0.378342
0.376877
0.373975
0.370023
0.365331
0.360136
0.354622
0.348932
0.34319
0.337473
0.331734
0.325879
0.320446
0.317174
0.321526
0.31648
0.321457
0.329952
0.337399
0.342508
0.345195
0.345803
0.344778
0.342528
0.339382
0.335602
0.331387
0.326899
0.322279
0.317621
0.312879
0.307935
0.303372
0.301227
0.273379
0.269739
0.276674
0.287613
0.297675
0.305321
0.310361
0.313112
0.314027
0.313534
0.311985
0.309662
0.306785
0.303535
0.30007
0.296507
0.292803
0.288815
0.285159
0.284203
0.223659
0.221449
0.230329
0.243715
0.256417
0.266641
0.27408
0.279017
0.281912
0.28321
0.283285
0.282442
0.28092
0.27892
0.276622
0.274166
0.27152
0.268511
0.265787
0.266082
0.172796
0.172023
0.182808
0.198604
0.213937
0.226748
0.236602
0.243745
0.248635
0.251734
0.253438
0.254072
0.253895
0.253128
0.251973
0.250597
0.248983
0.246937
0.24514
0.246757
0.121232
0.121892
0.134512
0.152645
0.170562
0.185935
0.198193
0.207534
0.214411
0.219299
0.222612
0.224694
0.225825
0.226242
0.226173
0.225813
0.225158
0.223989
0.223044
0.226041
0.069424
0.0714956
0.0858518
0.106213
0.126631
0.14451
0.159133
0.17064
0.179473
0.186116
0.190999
0.19448
0.196851
0.198364
0.199264
0.199771
0.199868
0.199267
0.198864
0.203338
0.017832
0.0212827
0.0372497
0.059695
0.0824956
0.102792
0.119714
0.133332
0.144071
0.152417
0.158809
0.163615
0.167132
0.169613
0.171316
0.1725
0.173155
0.172816
0.172364
0.177935
-0.0330816
-0.0282969
-0.0108693
0.0134826
0.0385139
0.0611113
0.0802413
0.0958987
0.108481
0.118471
0.126315
0.132385
0.13698
0.140341
0.142709
0.144356
0.145258
0.144448
0.141663
0.145096
-0.0828577
-0.076796
-0.0580798
-0.0320296
-0.00495119
0.0198025
0.0410294
0.0586378
0.0729905
0.084561
0.0937927
0.101055
0.106632
0.110725
0.113494
0.115084
0.115398
0.1136
0.108995
0.104346
-0.131057
-0.123782
-0.103966
-0.0764522
-0.0475393
-0.0207993
0.00239392
0.0218539
0.0379014
0.050997
0.0615823
0.0700283
0.0766216
0.0815656
0.085006
0.0870719
0.0877891
0.0868072
0.0836725
0.0793921
-0.177249
-0.168836
-0.148124
-0.119405
-0.0888977
-0.0603659
-0.035355
-0.0141534
0.00351246
0.0180889
0.030021
0.0396923
0.0474119
0.0534171
0.0578904
0.0609921
0.062861
0.0635376
0.0629214
0.0607468
-0.221034
-0.211562
-0.19017
-0.160525
-0.128689
-0.0985843
-0.0719244
-0.0491057
-0.0299087
-0.0139043
-0.000643804
0.0102709
0.0191722
0.0263294
0.0319586
0.0362418
0.0393575
0.0415187
0.0428512
0.0427176
-0.262044
-0.251601
-0.229748
-0.199473
-0.166597
-0.135163
-0.107046
-0.0827558
-0.0621351
-0.0447788
-0.0302398
-0.0181099
-0.00804017
0.000259879
0.00702914
0.0124651
0.0167629
0.0201899
0.0229352
0.0242788
-0.299953
-0.288629
-0.266538
-0.235939
-0.202333
-0.169839
-0.14048
-0.114887
-0.092973
-0.0743659
-0.0586269
-0.0453434
-0.0341561
-0.0247611
-0.0169049
-0.0103778
-0.00497256
-0.000405302
0.00349098
0.00587279
-0.334483
-0.322372
-0.30026
-0.269648
-0.235639
-0.202375
-0.172015
-0.14531
-0.122256
-0.102521
-0.085684
-0.0713328
-0.0591039
-0.0486857
-0.0398169
-0.0322815
-0.0258659
-0.0202765
-0.0153673
-0.0121131
-0.365409
-0.352606
-0.330679
-0.300364
-0.266289
-0.232566
-0.201466
-0.173864
-0.149843
-0.129125
-0.111311
-0.0959997
-0.0828271
-0.0714793
-0.0616919
-0.0532473
-0.0459311
-0.0394436
-0.0336359
-0.0295551
-0.392566
-0.379165
-0.357616
-0.327896
-0.294096
-0.260239
-0.228679
-0.200412
-0.175618
-0.154079
-0.135429
-0.119281
-0.10528
-0.0931119
-0.082513
-0.0732657
-0.065159
-0.0578933
-0.0513054
-0.0464536
-0.415851
-0.401946
-0.380945
-0.3521
-0.318913
-0.285253
-0.25353
-0.224848
-0.199489
-0.177305
-0.157973
-0.141127
-0.126423
-0.113554
-0.102258
-0.0923184
-0.0835307
-0.0756014
-0.068352
-0.0628164
-0.435223
-0.420907
-0.400599
-0.372883
-0.340633
-0.307504
-0.27592
-0.247085
-0.221383
-0.198744
-0.178894
-0.161497
-0.146225
-0.132779
-0.120903
-0.110385
-0.101026
-0.0925432
-0.0847443
-0.07862
-0.45071
-0.436075
-0.416576
-0.390206
-0.359194
-0.326921
-0.295785
-0.267066
-0.241252
-0.218355
-0.198159
-0.180363
-0.16466
-0.150766
-0.138431
-0.127447
-0.117624
-0.108692
-0.100447
-0.0938218
-0.462402
-0.447539
-0.428935
-0.404086
-0.37458
-0.343472
-0.313085
-0.284756
-0.259065
-0.236113
-0.215747
-0.197709
-0.181716
-0.167501
-0.154826
-0.143488
-0.133306
-0.124025
-0.115428
-0.108383
-0.47045
-0.45545
-0.437794
-0.414595
-0.386821
-0.35716
-0.327813
-0.300142
-0.274813
-0.252012
-0.231654
-0.213529
-0.197388
-0.18298
-0.170082
-0.158499
-0.148059
-0.138523
-0.129667
-0.12228
-0.475063
-0.460019
-0.443335
-0.421862
-0.395995
-0.368027
-0.339991
-0.31324
-0.288505
-0.266059
-0.245888
-0.227834
-0.211681
-0.197208
-0.184201
-0.172479
-0.161879
-0.152181
-0.143153
-0.135503
-0.476499
-0.461504
-0.445792
-0.426069
-0.40223
-0.376156
-0.349671
-0.324083
-0.300171
-0.278281
-0.258471
-0.240641
-0.224615
-0.210197
-0.197196
-0.185438
-0.174773
-0.164999
-0.155885
-0.148051
-0.47506
-0.460211
-0.445445
-0.427449
-0.405697
-0.381666
-0.356935
-0.332733
-0.309856
-0.288715
-0.269438
-0.251982
-0.236216
-0.221974
-0.209086
-0.197392
-0.186755
-0.17699
-0.16787
-0.159931
-0.471079
-0.456475
-0.442617
-0.426279
-0.406614
-0.384715
-0.361897
-0.33927
-0.317624
-0.297416
-0.278836
-0.261899
-0.246521
-0.23257
-0.219899
-0.208366
-0.197845
-0.188171
-0.179124
-0.171157
-0.464915
-0.450655
-0.437656
-0.422873
-0.405237
-0.385498
-0.364698
-0.3438
-0.323556
-0.304448
-0.28672
-0.270441
-0.255575
-0.242026
-0.229673
-0.218392
-0.208071
-0.198566
-0.189668
-0.181748
-0.456937
-0.443118
-0.430928
-0.417571
-0.401857
-0.384245
-0.365511
-0.346451
-0.327747
-0.309888
-0.293155
-0.277665
-0.263429
-0.250386
-0.238447
-0.227507
-0.217469
-0.208208
-0.199529
-0.191732
-0.447512
-0.434233
-0.422804
-0.410729
-0.396788
-0.381212
-0.364534
-0.34737
-0.330312
-0.313826
-0.298213
-0.283633
-0.270136
-0.257701
-0.246267
-0.235752
-0.226074
-0.217129
-0.20874
-0.201138
-0.437004
-0.424355
-0.413645
-0.402706
-0.390362
-0.376683
-0.361992
-0.34673
-0.331379
-0.316358
-0.301974
-0.288411
-0.275756
-0.264022
-0.25318
-0.243169
-0.233926
-0.225367
-0.217333
-0.209998
-0.425752
-0.413815
-0.403792
-0.393849
-0.382913
-0.370954
-0.358131
-0.344722
-0.331091
-0.317595
-0.304522
-0.292067
-0.280345
-0.269401
-0.259231
-0.249801
-0.241065
-0.232957
-0.225343
-0.218343
-0.414069
-0.402914
-0.393556
-0.384485
-0.374766
-0.364327
-0.353209
-0.341555
-0.329612
-0.317659
-0.305948
-0.294673
-0.283963
-0.273886
-0.264464
-0.255687
-0.247525
-0.239933
-0.232797
-0.226199
-0.402234
-0.391917
-0.383212
-0.374906
-0.366227
-0.3571
-0.347496
-0.337454
-0.327116
-0.316681
-0.306352
-0.296304
-0.286666
-0.277524
-0.268919
-0.260861
-0.253337
-0.246322
-0.239723
-0.233589
-0.390487
-0.381049
-0.372989
-0.365365
-0.357568
-0.349551
-0.341255
-0.332651
-0.323795
-0.31481
-0.305843
-0.297037
-0.288513
-0.280359
-0.27263
-0.265351
-0.258526
-0.252144
-0.246136
-0.240524
-0.379029
-0.370491
-0.363074
-0.356069
-0.349023
-0.341933
-0.334739
-0.327378
-0.319849
-0.312205
-0.304541
-0.29696
-0.289563
-0.282432
-0.275625
-0.269179
-0.263108
-0.257414
-0.252047
-0.247008
-0.368019
-0.360386
-0.353609
-0.347178
-0.34078
-0.334459
-0.328176
-0.321861
-0.315479
-0.309037
-0.302578
-0.296169
-0.289882
-0.283785
-0.277931
-0.27236
-0.267091
-0.262136
-0.257459
-0.253036
-0.357579
-0.350837
-0.344695
-0.338807
-0.33298
-0.3273
-0.321761
-0.316306
-0.310886
-0.305481
-0.3001
-0.294774
-0.289546
-0.284466
-0.279575
-0.274906
-0.27048
-0.26631
-0.262371
-0.258602
-0.347793
-0.341913
-0.336397
-0.33103
-0.325718
-0.320583
-0.315651
-0.310889
-0.306253
-0.301714
-0.29726
-0.292896
-0.288644
-0.284532
-0.280588
-0.276832
-0.273279
-0.269936
-0.266785
-0.263705
-0.338715
-0.333653
-0.328746
-0.323884
-0.319049
-0.314389
-0.30996
-0.305753
-0.301742
-0.2979
-0.294211
-0.290668
-0.287278
-0.284054
-0.28101
-0.278156
-0.275493
-0.273016
-0.270709
-0.268369
-0.330369
-0.326071
-0.32175
-0.317378
-0.312995
-0.308763
-0.304759
-0.301001
-0.297481
-0.294186
-0.291103
-0.288228
-0.285563
-0.283116
-0.280896
-0.278905
-0.277132
-0.275557
-0.274165
-0.272645
-0.322759
-0.319161
-0.315397
-0.311498
-0.307548
-0.303713
-0.300084
-0.296698
-0.293567
-0.290691
-0.288069
-0.285708
-0.283618
-0.281814
-0.28031
-0.279112
-0.278208
-0.277567
-0.277174
-0.276623
-0.315865
-0.312901
-0.309659
-0.306216
-0.302682
-0.299224
-0.295938
-0.292874
-0.290056
-0.287499
-0.285218
-0.28323
-0.281563
-0.280249
-0.279324
-0.278813
-0.278724
-0.279033
-0.279731
-0.280393
-0.309656
-0.307255
-0.304498
-0.301488
-0.298357
-0.295261
-0.292299
-0.289525
-0.286972
-0.284665
-0.282627
-0.280892
-0.279503
-0.27852
-0.278009
-0.278039
-0.278665
-0.279901
-0.281769
-0.28401
-0.304085
-0.30218
-0.299866
-0.297267
-0.294521
-0.291776
-0.289125
-0.286624
-0.284308
-0.282205
-0.280344
-0.278766
-0.277529
-0.276717
-0.276436
-0.276813
-0.277979
-0.280045
-0.283097
-0.287357
-0.299099
-0.297626
-0.295714
-0.293497
-0.291119
-0.288712
-0.286364
-0.284126
-0.282033
-0.28011
-0.278383
-0.276894
-0.275707
-0.27492
-0.274671
-0.27515
-0.276592
-0.279252
-0.283387
-0.290149
-0.294639
-0.293539
-0.291988
-0.290125
-0.288092
-0.286008
-0.283952
-0.281971
-0.280094
-0.27834
-0.276728
-0.27529
-0.274081
-0.273196
-0.272786
-0.273082
-0.274418
-0.27722
-0.282088
-0.291601
-0.290645
-0.289866
-0.288636
-0.287095
-0.285382
-0.283602
-0.281825
-0.280093
-0.278427
-0.276838
-0.275336
-0.273934
-0.272666
-0.271603
-0.270871
-0.270698
-0.271458
-0.273704
-0.278634
-0.290929
-0.287058
-0.286556
-0.285609
-0.284358
-0.282935
-0.281435
-0.279919
-0.278422
-0.27696
-0.275534
-0.274142
-0.272778
-0.271445
-0.270165
-0.269002
-0.268098
-0.267721
-0.268305
-0.271424
-0.284057
-0.283827
-0.283563
-0.282863
-0.281868
-0.280706
-0.279459
-0.278179
-0.276898
-0.275626
-0.274357
-0.273076
-0.271759
-0.270374
-0.26888
-0.267225
-0.26534
-0.263105
-0.260058
-0.254966
-0.248923
-0.280904
-0.280845
-0.280359
-0.279589
-0.278656
-0.277632
-0.276563
-0.275475
-0.274375
-0.273254
-0.27209
-0.27085
-0.269487
-0.26794
-0.266123
-0.263931
-0.261237
-0.257684
-0.252407
-0.246956
-0.278253
-0.27837
-0.278069
-0.277492
-0.276758
-0.275927
-0.275041
-0.274122
-0.273175
-0.272189
-0.271143
-0.270004
-0.268727
-0.267258
-0.265529
-0.263472
-0.261026
-0.257983
-0.253883
-0.250445
-0.275841
-0.27611
-0.275967
-0.275557
-0.274993
-0.274328
-0.273599
-0.272826
-0.272011
-0.271147
-0.270212
-0.269178
-0.26801
-0.266663
-0.265088
-0.263251
-0.261123
-0.258555
-0.255303
-0.253092
-0.273646
-0.274045
-0.274037
-0.273768
-0.273349
-0.272827
-0.272234
-0.271586
-0.270888
-0.270132
-0.269302
-0.268374
-0.267322
-0.266114
-0.264721
-0.26313
-0.261341
-0.259249
-0.256738
-0.255359
-0.27165
-0.272158
-0.272264
-0.272116
-0.271822
-0.271423
-0.270947
-0.270411
-0.269818
-0.269163
-0.268435
-0.267616
-0.266688
-0.265632
-0.264434
-0.263101
-0.26165
-0.260013
-0.258133
-0.257342
-0.269838
-0.270437
-0.270639
-0.270594
-0.270408
-0.270117
-0.269745
-0.26931
-0.268815
-0.268258
-0.267632
-0.266925
-0.266128
-0.26523
-0.264232
-0.263149
-0.262009
-0.260764
-0.259381
-0.258989
-0.268196
-0.268871
-0.269155
-0.269198
-0.269106
-0.26891
-0.268633
-0.268292
-0.267891
-0.267431
-0.266908
-0.266317
-0.265653
-0.264915
-0.264109
-0.263257
-0.26239
-0.261466
-0.26046
-0.260334
-0.266716
-0.267453
-0.267805
-0.267924
-0.267914
-0.267804
-0.267614
-0.267361
-0.267051
-0.266686
-0.266267
-0.265791
-0.265259
-0.264674
-0.264047
-0.263401
-0.262764
-0.262098
-0.261371
-0.261423
-0.265386
-0.266174
-0.266584
-0.266769
-0.266831
-0.266798
-0.266688
-0.266517
-0.266294
-0.266022
-0.265703
-0.265339
-0.264933
-0.26449
-0.264023
-0.263554
-0.263107
-0.262643
-0.262124
-0.262298
-0.264199
-0.265028
-0.265486
-0.265728
-0.265855
-0.26589
-0.265853
-0.26576
-0.265618
-0.265433
-0.265209
-0.264949
-0.264658
-0.264342
-0.264014
-0.263693
-0.2634
-0.263092
-0.262729
-0.262991
-0.263146
-0.264009
-0.264508