/*--------------------------------*- C++ -*----------------------------------*\
  =========                 |
  \\      /  F ield         | OpenFOAM: The Open Source CFD Toolbox
   \\    /   O peration     | Website:  https://openfoam.org
    \\  /    A nd           | Version:  6.0
     \\/     M anipulation  |
\*---------------------------------------------------------------------------*/
FoamFile
{
    version     2.0;
    format      ascii;
    class       surfaceScalarField;
    location    "2";
    object      phi;
}
// * * * * * * * * * * * * * * * * * * * * * * * * * * * * * * * * * * * * * //

dimensions      [0 3 -1 0 0 0 0];

internalField   nonuniform List<scalar> 
7840
(
-3.38107e-05
3.40715e-05
-2.60786e-07
-0.000107583
7.43633e-05
-5.91117e-07
-0.000204262
9.74665e-05
-7.8741e-07
-0.000312818
0.00010945
-8.94044e-07
-0.000425955
0.00011408
-9.42881e-07
-0.000538695
0.000113694
-9.53943e-07
-0.000647373
0.000109616
-9.37735e-07
-0.000749
0.000102526
-8.98794e-07
-0.000840923
9.27617e-05
-8.3886e-07
-0.000920689
8.05256e-05
-7.59042e-07
-0.00098605
6.60221e-05
-6.61046e-07
-0.00103504
4.95416e-05
-5.47689e-07
-0.00106613
3.15113e-05
-4.22952e-07
-0.00107836
1.25217e-05
-2.91803e-07
-0.00107153
-6.67007e-06
-1.60014e-07
-0.00104633
-2.51723e-05
-3.37992e-08
-0.00100438
-4.20307e-05
8.09283e-08
-0.000948237
-5.63199e-05
1.79765e-07
-0.000881254
-6.72416e-05
2.5914e-07
-7.43331e-05
3.18385e-07
-0.000807239
-3.21783e-05
6.62498e-05
-0.000102911
0.000145096
-0.000196045
0.000190601
-0.000300957
0.000214362
-0.000410515
0.000223637
-0.000519803
0.000222983
-0.000625203
0.000215015
-0.000723784
0.000201107
-0.000812976
0.000181954
-0.00089042
0.00015797
-0.000953954
0.000129556
-0.00100167
9.72573e-05
-0.00103203
6.18684e-05
-0.001044
2.44903e-05
-0.00103722
-1.34497e-05
-0.00101215
-5.02378e-05
-0.000970191
-8.39893e-05
-0.000913702
-0.000112809
-0.000845962
-0.000134982
-0.000149396
-0.000770898
-2.90437e-05
9.52935e-05
-9.38874e-05
0.00020994
-0.000180108
0.000276821
-0.000277872
0.000312127
-0.000380375
0.00032614
-0.00048283
0.000325437
-0.000581697
0.000313882
-0.000674154
0.000293565
-0.000757776
0.000265576
-0.000830376
0.00023057
-0.000889955
0.000189135
-0.00093472
0.000142023
-0.000963152
9.02997e-05
-0.000974106
3.54444e-05
-0.000966957
-2.05984e-05
-0.000941768
-7.54264e-05
-0.000899471
-0.000126287
-0.000842024
-0.000170257
-0.000772516
-0.000204489
-0.000226855
-0.000695058
-2.46483e-05
0.000119942
-8.11134e-05
0.000266405
-0.000157386
0.000353094
-0.000244777
0.000399517
-0.000336966
0.000418329
-0.00042936
0.000417831
-0.000518529
0.000403051
-0.00060178
0.000376816
-0.000676869
0.000340664
-0.000741827
0.000295529
-0.00079488
0.000242188
-0.000834412
0.000181555
-0.00085898
0.000114867
-0.000867356
4.38209e-05
-0.000858632
-2.9322e-05
-0.000832382
-0.000101677
-0.000788902
-0.000169766
-0.000729524
-0.000229635
-0.00065694
-0.000277073
-0.000308395
-0.0005754
-1.93281e-05
0.00013927
-6.54436e-05
0.00031252
-0.00012924
0.00041689
-0.00020346
0.000473737
-0.000282431
0.0004973
-0.000361823
0.000497223
-0.000438341
0.000479569
-0.000509423
0.000447899
-0.000573008
0.000404249
-0.00062736
0.000349881
-0.000670957
0.000285784
-0.000702414
0.000213012
-0.000720441
0.000132894
-0.000723822
4.72018e-05
-0.000711448
-4.16961e-05
-0.000682438
-0.000130687
-0.000636394
-0.000215811
-0.000573824
-0.000292204
-0.000496748
-0.000354149
-0.000395773
-0.00040937
-1.3484e-05
0.000152754
-4.79283e-05
0.000346964
-9.73771e-05
0.000466339
-0.00015622
0.00053258
-0.00021958
0.00056066
-0.000283476
0.000561119
-0.000344775
0.000540868
-0.000401047
0.00050417
-0.000450389
0.000453592
-0.00049128
0.000390771
-0.000522446
0.00031695
-0.000542758
0.000233325
-0.000551147
0.000141283
-0.000546524
4.25785e-05
-0.00052774
-6.04799e-05
-0.000493621
-0.000164806
-0.000443163
-0.00026627
-0.000375979
-0.000359388
-0.000293138
-0.000436989
-0.000490442
-0.00019847
-7.54325e-06
0.000160297
-2.97307e-05
0.000369152
-6.3748e-05
0.000500357
-0.000105745
0.000574577
-0.000151772
0.000606688
-0.000198293
0.00060764
-0.000242385
0.00058496
-0.000281751
0.000543536
-0.000314628
0.000486469
-0.000339668
0.000415811
-0.00035581
0.000333092
-0.000362169
0.000239684
-0.000357922
0.000137036
-0.000342198
2.68544e-05
-0.000313975
-8.87027e-05
-0.00027202
-0.000206761
-0.000214957
-0.000323333
-0.000141623
-0.000432722
-5.19902e-05
-0.000526623
-0.000593327
5.08956e-05
-1.91814e-06
0.000162215
-1.20287e-05
0.000379262
-3.04e-05
0.000518728
-5.49387e-05
0.000599115
-8.27187e-05
0.000634468
-0.000110749
0.00063567
-0.000136386
0.000610598
-0.000157493
0.000564642
-0.000172432
0.000501408
-0.00017999
0.000423369
-0.000179273
0.000332375
-0.000169588
0.000229999
-0.000150334
0.000117782
-0.00012088
-2.60002e-06
-8.04359e-05
-0.000129146
-2.79245e-05
-0.000259272
3.80896e-05
-0.000389347
0.000119239
-0.000513871
0.000216568
-0.000623951
-0.000704901
0.000328141
3.03363e-06
0.000159182
4.09063e-06
0.000378205
6.93417e-07
0.000522125
-6.69627e-06
0.000606505
-1.62121e-05
0.000643984
-2.55001e-05
0.000644958
-3.22792e-05
0.000617377
-3.46173e-05
0.00056698
-3.10123e-05
0.000497803
-2.0363e-05
0.00041272
-1.88658e-06
0.000313898
2.49804e-05
0.000203132
6.06846e-05
8.20774e-05
0.000105661
-4.75765e-05
0.000160453
-0.000183938
0.00022586
-0.000324679
0.000303097
-0.000466584
0.00039386
-0.000604634
0.000499869
-0.00072996
-0.000825448
0.000620416
7.04082e-06
0.000152141
1.77305e-05
0.000367516
2.781e-05
0.000512045
3.63522e-05
0.000597963
4.41988e-05
0.000636137
5.30092e-05
0.000636147
6.46258e-05
0.00060576
8.07162e-05
0.00055089
0.000102624
0.000475895
0.000131352
0.000383992
0.000167614
0.000277637
0.000211911
0.000158835
0.000264616
2.9372e-05
0.00032605
-0.00010901
0.000396562
-0.00025445
0.000476645
-0.000404762
0.000567118
-0.000557057
0.000669352
-0.000706868
0.000785233
-0.00084584
-0.000955338
0.000915123
9.93803e-06
0.000142203
2.82632e-05
0.000349191
4.96417e-05
0.000490667
7.20943e-05
0.00057551
9.55536e-05
0.000612678
0.000120981
0.00061072
0.000149731
0.00057701
0.00018316
0.00051746
0.00022243
0.000436624
0.000268454
0.000337968
0.000321911
0.000224179
0.000383304
9.74428e-05
0.000453002
-4.03265e-05
0.000531285
-0.000187293
0.000618366
-0.000341531
0.000714446
-0.000500842
0.000819856
-0.000662467
0.000935348
-0.00082236
0.00106245
-0.000972938
-0.00109509
0.0012022
1.16716e-05
0.000130531
3.53772e-05
0.000325485
6.54175e-05
0.000460627
9.91551e-05
0.000541773
0.000135803
0.00057603
0.000175687
0.000570836
0.000219677
0.00053302
0.000268802
0.000468335
0.00032404
0.000381387
0.000386227
0.000275781
0.000456049
0.000154357
0.000534048
1.94439e-05
0.000620633
-0.000126911
0.000716065
-0.000282725
0.000820426
-0.000445892
0.000933605
-0.000614021
0.00105537
-0.000784233
0.00118566
-0.000952654
0.00132521
-0.00111248
-0.00124513
0.00147525
1.22929e-05
0.000118238
3.90903e-05
0.000298688
7.49717e-05
0.000424745
0.000117051
0.000499694
0.000164066
0.000529015
0.000215839
0.000519064
0.000272816
0.000476043
0.000335734
0.000405417
0.000405414
0.000311707
0.00048265
0.000198545
0.000568155
6.88525e-05
0.000662525
-7.49263e-05
0.000766188
-0.000230574
0.000879327
-0.000395865
0.0010018
-0.000568366
0.00113307
-0.000745294
0.00127225
-0.000923411
0.00141834
-0.00109874
0.00157099
-0.00126513
-0.00140535
0.00173121
1.19439e-05
0.000106294
3.97303e-05
0.000270901
7.87489e-05
0.000385727
0.000126249
0.000452194
0.000180771
0.000474493
0.000241816
0.000458018
0.000309533
0.000408327
0.00038445
0.0003305
0.000467287
0.00022887
0.000558827
0.000107005
0.000659809
-3.21301e-05
0.000770831
-0.000185948
0.000892226
-0.000351969
0.00102393
-0.000527572
0.00116538
-0.000709815
0.00131542
-0.000895333
0.00147236
-0.00108035
0.00163421
-0.00126059
0.00179948
-0.0014304
-0.00157453
0.00196865
1.08378e-05
9.54567e-05
3.78893e-05
0.00024385
7.77471e-05
0.000345869
0.000128127
0.000401814
0.000187647
0.000414973
0.000255709
0.000389955
0.000332328
0.000331708
0.000417938
0.00024489
0.000513223
0.000133584
0.000618956
1.2731e-06
0.000735832
-0.000149006
0.000864297
-0.000314413
0.00100437
-0.000492037
0.00115546
-0.000678666
0.0013163
-0.000870657
0.0014849
-0.00106393
0.00165865
-0.0012541
0.00183465
-0.00143659
0.00201043
-0.00160618
-0.00174995
0.00218585
9.23838e-06
8.62183e-05
3.43581e-05
0.00021873
7.34024e-05
0.000306824
0.00012481
0.000350406
0.000187529
0.000352254
0.000261086
0.000316399
0.000345532
0.000247262
0.000441316
0.000149106
0.00054911
2.579e-05
0.000669604
-0.000119221
0.000803276
-0.000282678
0.000950156
-0.000461293
0.00110961
-0.000651496
0.00128023
-0.000849278
0.00145973
-0.00105016
0.00164515
-0.00124935
0.00183299
-0.00144193
0.00201962
-0.00162322
0.00220197
-0.00178854
-0.0019274
0.00237943
7.43573e-06
7.87826e-05
3.00417e-05
0.000196124
6.74196e-05
0.000269447
0.000118906
0.00029892
0.000183982
0.000287178
0.000262485
0.000237896
0.000354638
0.000155108
0.000460954
4.27904e-05
0.000582031
-9.52867e-05
0.000718296
-0.000255486
0.000869722
-0.000434104
0.00103557
-0.00062714
0.00121421
-0.000830136
0.00140308
-0.00103815
0.00159879
-0.00124587
0.00179737
-0.00144793
0.00199464
-0.0016392
0.0021866
-0.00181518
0.0023701
-0.00197204
-0.00210162
0.00254433
5.7181e-06
7.30645e-05
2.58567e-05
0.000175985
6.15585e-05
0.000233745
0.000113147
0.000247331
0.000180765
0.000219559
0.000264675
0.000153986
0.000365324
5.44593e-05
0.000483231
-7.51163e-05
0.000618744
-0.0002308
0.000771739
-0.000408482
0.000941325
-0.000603689
0.00112563
-0.000811442
0.00132173
-0.00102624
0.00152578
-0.0012422
0.00173328
-0.00145338
0.00193951
-0.00165416
0.00213995
-0.00183965
0.00233075
-0.00200598
0.00250915
-0.00215044
-0.00226701
0.00267454
4.3394e-06
6.87251e-05
2.26203e-05
0.000157704
5.74013e-05
0.000198964
0.000109993
0.00019474
0.000181237
0.000148315
0.000271833
6.33907e-05
0.000382382
-5.60901e-05
0.000513236
-0.00020597
0.00066421
-0.000381774
0.000834279
-0.000578551
0.00102134
-0.000790747
0.00122211
-0.00101221
0.00143226
-0.00123639
0.00164671
-0.00145665
0.00186008
-0.00166675
0.00206723
-0.0018613
0.00226369
-0.00203612
0.00244622
-0.00218851
0.00261299
-0.00231721
-0.00241824
0.00276422
3.48821e-06
6.52369e-05
2.09483e-05
0.000140244
5.61436e-05
0.000163769
0.000111284
0.000139599
0.000187847
7.17522e-05
0.00028686
-3.56219e-05
0.000408891
-0.000178121
0.000553844
-0.000350923
0.000720668
-0.000548598
0.000907102
-0.000764986
0.00110958
-0.000993224
0.00132334
-0.00122597
0.00154274
-0.00145579
0.00176179
-0.00167569
0.00197464
-0.0018796
0.00217612
-0.00206279
0.00236214
-0.00222213
0.00252976
-0.00235614
0.00267726
-0.0024647
-0.00254935
0.00280836
3.26569e-06
6.19712e-05
2.1188e-05
0.000122322
5.84625e-05
0.000126494
0.000118032
8.00303e-05
0.00020184
-1.20566e-05
0.000311031
-0.000144813
0.000445856
-0.000312946
0.000605439
-0.000510506
0.000787531
-0.00073069
0.000988402
-0.000965856
0.00120295
-0.00120777
0.00142505
-0.00144807
0.00164811
-0.00167886
0.00186571
-0.00189329
0.00207213
-0.00208603
0.00226285
-0.0022535
0.00243465
-0.00239393
0.0025856
-0.00250709
0.00271487
-0.00259397
-0.00265959
0.00282511
3.68576e-06
5.82854e-05
2.3413e-05
0.000102595
6.45031e-05
8.54039e-05
0.000130397
1.41363e-05
0.000223261
-0.00010492
0.000344056
-0.000265608
0.000492382
-0.000461272
0.000666251
-0.000684374
0.000861965
-0.000926404
0.00107422
-0.00117811
0.00129649
-0.00143004
0.00152162
-0.0016732
0.00174256
-0.00189979
0.00195301
-0.00210374
0.00214797
-0.00228099
0.00232403
-0.00242956
0.00247945
-0.00254935
0.00261407
-0.00264171
0.00272927
-0.00270917
-0.00275693
0.00282661
4.68576e-06
5.35996e-05
2.74623e-05
7.98181e-05
7.3963e-05
3.89032e-05
0.000147849
-5.97494e-05
0.000251202
-0.000208273
0.000384463
-0.000398869
0.000546233
-0.000623042
0.00073313
-0.000871271
0.000939864
-0.00113314
0.00115962
-0.00139787
0.00138474
-0.00165515
0.00160748
-0.00189594
0.00182088
-0.00211319
0.00201932
-0.00230217
0.00219891
-0.00246058
0.00235758
-0.00258823
0.00249492
-0.00268669
0.00261189
-0.00275868
0.00271042
-0.00280769
-0.00283917
0.00279265
6.15977e-06
4.74399e-05
3.30316e-05
5.29462e-05
8.62604e-05
-1.43256e-05
0.000169424
-0.000142913
0.000284185
-0.000323034
0.000430109
-0.000544794
0.000604483
-0.000797416
0.000802325
-0.00106911
0.00101675
-0.00134756
0.00123965
-0.00162077
0.00146263
-0.00187814
0.00167795
-0.00211126
0.00187924
-0.00231448
0.00206201
-0.00248494
0.00222374
-0.00262231
0.00236379
-0.00272828
0.002483
-0.0028059
0.00258335
-0.00285903
0.00266746
-0.0028918
-0.00290963
0.00273793
7.98994e-06
3.94499e-05
3.97648e-05
2.11713e-05
0.000100705
-7.52652e-05
0.000193992
-0.0002362
0.000320521
-0.000449563
0.000478641
-0.000702914
0.000664057
-0.000982831
0.000870096
-0.00127515
0.0010884
-0.00156587
0.00130995
-0.00184232
0.00152614
-0.00209433
0.00172974
-0.00231486
0.00191546
-0.00250021
0.00208022
-0.0026497
0.00222296
-0.00276506
0.00234435
-0.00284966
0.00244625
-0.00290781
0.00253131
-0.00294409
0.0026025
-0.00296299
-0.00296952
0.00266239
1.00716e-05
2.93783e-05
4.73267e-05
-1.60838e-05
0.000116626
-0.000144564
0.000220442
-0.000340016
0.000358556
-0.000587678
0.000527785
-0.000872143
0.000722068
-0.00117711
0.000933074
-0.00148616
0.00115126
-0.00178406
0.00136716
-0.00205822
0.00157251
-0.00229968
0.00176108
-0.00250342
0.001929
-0.00266812
0.00207468
-0.00279539
0.00219849
-0.00288886
0.00230217
-0.00295334
0.00238834
-0.00299398
0.00246002
-0.00301578
0.00252027
-0.00302324
-0.00302085
0.0025716
1.23257e-05
1.70527e-05
5.54405e-05
-5.91986e-05
0.000133442
-0.000222566
0.00024778
-0.000454354
0.000396787
-0.000736685
0.000575485
-0.00105084
0.000775972
-0.0013776
0.000988435
-0.00169862
0.00120256
-0.00199819
0.00140897
-0.00226463
0.00160027
-0.00249097
0.00177158
-0.00267474
0.00192063
-0.00281716
0.00204729
-0.00292205
0.00215311
-0.00299469
0.00224065
-0.00304089
0.00231299
-0.00306631
0.00237324
-0.00307603
0.00242433
-0.00307433
-0.00306505
0.00246854
1.4699e-05
2.35366e-06
6.38913e-05
-0.000108391
0.000150667
-0.000309341
0.000275136
-0.000578823
0.000433876
-0.000895425
0.000619934
-0.0012369
0.00082362
-0.00158129
0.00103396
-0.00190896
0.00124039
-0.00220461
0.00143414
-0.00245838
0.00160911
-0.00266594
0.00176202
-0.00282765
0.00189214
-0.00294728
0.00200066
-0.00303057
0.00209004
-0.00308406
0.00216336
-0.00311421
0.00222385
-0.0031268
0.00227455
-0.00312673
0.00231812
-0.0031179
-0.00310348
0.00235655
1.71565e-05
-1.48028e-05
7.25088e-05
-0.000163743
0.00016788
-0.000404713
0.000301733
-0.000712676
0.000468631
-0.00106232
0.000659572
-0.00142784
0.000863282
-0.001785
0.00106808
-0.00211376
0.00126367
-0.00240021
0.0014424
-0.00263712
0.00159973
-0.00282326
0.00173401
-0.00296194
0.00184594
-0.00305921
0.00193776
-0.00312238
0.00201253
-0.00315884
0.00207359
-0.00317527
0.00212411
-0.00317733
0.00216689
-0.00316951
0.00220425
-0.00315526
-0.0031371
0.00223786
1.96708e-05
-3.44737e-05
8.11427e-05
-0.000225215
0.000184698
-0.000508268
0.000326856
-0.000854834
0.000499983
-0.00123545
0.000693091
-0.00162095
0.000893665
-0.00198557
0.00108983
-0.00230993
0.00127211
-0.00258248
0.00143429
-0.0027993
0.00157351
-0.00296249
0.0016897
-0.00307812
0.00178472
-0.00315423
0.00186155
-0.00319922
0.00192363
-0.00322091
0.00197427
-0.00322591
0.00201646
-0.00321951
0.00205266
-0.00320572
0.00208484
-0.00318743
-0.00316663
0.00211437
2.22141e-05
-5.66877e-05
8.96428e-05
-0.000292644
0.000200741
-0.000619366
0.00034983
-0.00100392
0.000526994
-0.00141261
0.00071946
-0.00181341
0.000913931
-0.00218004
0.00109888
-0.00249488
0.00126607
-0.00274966
0.00141095
-0.00294418
0.00153233
-0.00308387
0.00163146
-0.00317726
0.00171114
-0.00323391
0.00177482
-0.0032629
0.00182599
-0.00327208
0.00186784
-0.00326776
0.00190304
-0.00325471
0.0019337
-0.00323638
0.00196144
-0.00321517
-0.00319253
0.00198734
2.47527e-05
-8.14405e-05
9.78492e-05
-0.00036574
0.000215633
-0.000737151
0.000370028
-0.00115832
0.000548874
-0.00159146
0.000737949
-0.00200249
0.000923691
-0.00236578
0.00109543
-0.00266662
0.00124645
-0.00290069
0.00137396
-0.00307169
0.00147826
-0.00318817
0.00156172
-0.00326072
0.00162774
-0.00329993
0.00167998
-0.00331513
0.00172184
-0.00331395
0.00175625
-0.00330216
0.00178551
-0.00328397
0.00181139
-0.00326227
0.00183519
-0.00323896
-0.00321511
0.00185777
2.72462e-05
-0.000108687
0.000105591
-0.000444085
0.000229003
-0.000860563
0.000386891
-0.00131621
0.000565015
-0.00176958
0.000748141
-0.00218562
0.000922974
-0.00254062
0.0010801
-0.00282374
0.00121451
-0.0030351
0.00132509
-0.00318226
0.00141344
-0.00327652
0.00148274
-0.00333002
0.00153674
-0.00335392
0.00157909
-0.00335749
0.00161299
-0.00334785
0.00164101
-0.00333018
0.00166512
-0.00330808
0.00168675
-0.0032839
0.00170692
-0.00325913
-0.0032345
0.00172631
2.96481e-05
-0.000138335
0.000112691
-0.000527128
0.000240502
-0.000988374
0.000399955
-0.00147566
0.000575014
-0.00194464
0.000749933
-0.00236053
0.000912166
-0.00270285
0.00105385
-0.00296542
0.00117173
-0.00315299
0.0012662
-0.00327673
0.0013399
-0.00335022
0.00139655
-0.00338667
0.00144003
-0.0033974
0.00147383
-0.00339129
0.00150085
-0.00337486
0.00152329
-0.00335262
0.00154279
-0.00332758
0.0015605
-0.00330161
0.00157722
-0.00327585
-0.00325074
0.00159346
3.19083e-05
-0.000170243
0.000118978
-0.000614197
0.000249824
-0.00111922
0.000408873
-0.00163471
0.000578681
-0.00211445
0.000743497
-0.00252535
0.000891935
-0.00285129
0.00101785
-0.00309133
0.00111967
-0.00325481
0.00119908
-0.00335614
0.00125949
-0.00341064
0.00130492
-0.0034321
0.00133918
-0.00343167
0.00136553
-0.00341764
0.00138649
-0.00339582
0.00140393
-0.00337007
0.0014192
-0.00334284
0.00143319
-0.0033156
0.00144651
-0.00328917
-0.0032638
0.00145958
3.39761e-05
-0.000204219
0.00012429
-0.000704511
0.000256716
-0.00125165
0.000413432
-0.00179142
0.00057603
-0.00227705
0.000729243
-0.00267856
0.000863152
-0.0029852
0.000973369
-0.00320154
0.00105987
-0.00334132
0.00112538
-0.00342164
0.00117382
-0.00345908
0.0012093
-0.00346758
0.00123546
-0.00345782
0.00125521
-0.00343739
0.00127073
-0.00341135
0.00128359
-0.00338293
0.00129484
-0.00335409
0.00130519
-0.00332596
0.00131512
-0.0032991
-0.00327362
0.00132494
3.58039e-05
-0.000240023
0.000128493
-0.000797201
0.000261002
-0.00138416
0.000413552
-0.00194397
0.000567258
-0.00243075
0.000707762
-0.00281907
0.000826803
-0.00310424
0.000921712
-0.00329645
0.000993805
-0.00341341
0.00104658
-0.00347442
0.00108427
-0.00349677
0.00111091
-0.00349422
0.00112985
-0.00347676
0.00114367
-0.0034512
0.0011542
-0.00342188
0.00116272
-0.00339145
0.00117008
-0.00336144
0.00117681
-0.00333269
0.00118329
-0.00330558
-0.00328009
0.00118976
3.73531e-05
-0.000277376
0.000131483
-0.000891331
0.00026258
-0.00151525
0.000409281
-0.00209067
0.00055271
-0.00257418
0.00067976
-0.00294612
0.00078392
-0.0032084
0.000864122
-0.00337665
0.000922788
-0.00347208
0.000963968
-0.0035156
0.000991993
-0.0035248
0.0010107
-0.00351293
0.00102314
-0.0034892
0.00103151
-0.00345957
0.00103735
-0.00342773
0.00104169
-0.00339579
0.00104519
-0.00336494
0.00104827
-0.00333577
0.00105122
-0.00330852
-0.0032831
0.00105423
3.85776e-05
-0.000315954
0.00013316
-0.000985913
0.000261385
-0.00164348
0.000400744
-0.00223003
0.000532816
-0.00270625
0.000645997
-0.0030593
0.000735525
-0.00329793
0.000801759
-0.00344289
0.000847994
-0.00351831
0.000878618
-0.00354622
0.000897912
-0.00354409
0.000909445
-0.00352446
0.000915907
-0.00349566
0.000919183
-0.00346285
0.000920528
-0.00342907
0.000920757
-0.00339602
0.00092039
-0.00336457
0.00091976
-0.00333514
0.00091908
-0.00330784
-0.00328253
0.000918514
3.94319e-05
0.00013345
0.000257431
0.000388179
0.000508119
0.000607298
0.00068263
0.000735702
0.000770458
0.000791448
0.000802789
0.000807734
0.000808624
0.000807038
0.000803993
0.000800132
0.000795861
0.000791441
0.000787035
0.000782781
3.94244e-05
0.000315929
0.000133426
0.000985798
0.000257388
0.00164324
0.000388122
0.00222967
0.000508058
0.00270579
0.000607245
0.00305876
0.000682594
0.00329736
0.000735689
0.00344232
0.00077047
0.00351777
0.000791485
0.00354571
0.000802849
0.00354361
0.000807813
0.00352402
0.000808719
0.00349524
0.000807147
0.00346246
0.000804113
0.00342871
0.000800261
0.00339567
0.000795998
0.00336425
0.000791583
0.00333484
0.000787183
0.00330755
0.00328226
0.000782934
3.85702e-05
0.000277359
0.000133136
0.000891232
0.000261342
0.00151504
0.000400685
0.00209033
0.00053275
0.00257373
0.000645935
0.00294558
0.000735477
0.00320782
0.000801733
0.00337607
0.000847993
0.00347151
0.000878645
0.00351506
0.000897966
0.00352429
0.000909523
0.00351246
0.000916005
0.00348876
0.000919298
0.00345917
0.000920657
0.00342735
0.000920897
0.00339543
0.000920539
0.0033646
0.000919917
0.00333546
0.000919242
0.00330823
0.00328282
0.000918681
3.73451e-05
0.000240014
0.000131457
0.00079712
0.000262531
0.00138396
0.000409213
0.00194365
0.00055263
0.00243031
0.000679681
0.00281853
0.000783855
0.00310364
0.000864082
0.00329584
0.000922777
0.00341281
0.00096399
0.00347384
0.000992047
0.00349623
0.00101079
0.00349372
0.00102324
0.00347631
0.00103163
0.00345078
0.0010375
0.00342149
0.00104185
0.00339108
0.00104535
0.0033611
0.00104845
0.00333237
0.0010514
0.00330527
0.00327981
0.00105441
3.57955e-05
0.000204219
0.000128464
0.000704452
0.000260945
0.00125148
0.000413468
0.00179113
0.000567158
0.00227662
0.000707661
0.00267803
0.000826716
0.00298459
0.000921652
0.0032009
0.000993779
0.00334068
0.00104659
0.00342103
0.00108432
0.00345851
0.00111099
0.00346705
0.00112996
0.00345734
0.0011438
0.00343694
0.00115436
0.00341093
0.0011629
0.00338255
0.00117026
0.00335373
0.001177
0.00332562
0.00118349
0.00329879
0.00327333
0.00118997
3.39672e-05
0.000170251
0.000124258
0.000614161
0.000256653
0.00111909
0.000413336
0.00163444
0.000575911
0.00211404
0.000729118
0.00252482
0.000863038
0.00285067
0.000973282
0.00309066
0.00105982
0.00325414
0.00112537
0.00335549
0.00117386
0.00341002
0.00120938
0.00343153
0.00123557
0.00343115
0.00125535
0.00341716
0.0012709
0.00339538
0.00128377
0.00336967
0.00129504
0.00334247
0.0013054
0.00331526
0.00131534
0.00328885
0.0032635
0.00132517
3.18992e-05
0.000138352
0.000118944
0.000527116
0.000249756
0.000988277
0.000408769
0.00147543
0.000578547
0.00194427
0.000743348
0.00236002
0.000891792
0.00270222
0.00101773
0.00296473
0.00111959
0.00315228
0.00119904
0.00327603
0.0012595
0.00334956
0.00130498
0.00338606
0.00133928
0.00339684
0.00136566
0.00339078
0.00138665
0.00337439
0.00140413
0.0033522
0.00141941
0.00332719
0.00143342
0.00330125
0.00144675
0.00327551
0.00325043
0.00145983
2.96391e-05
0.000108713
0.000112658
0.000444097
0.000240433
0.000860501
0.000399844
0.00131602
0.000574866
0.00176924
0.000749761
0.00218512
0.000911991
0.00254
0.00105369
0.00282303
0.00117161
0.00303435
0.00126613
0.00318152
0.00133988
0.0032758
0.00139659
0.00332935
0.00144012
0.00335331
0.00147396
0.00335693
0.00150101
0.00334734
0.00152349
0.00332972
0.00154301
0.00330766
0.00156075
0.00328352
0.00157748
0.00325878
0.00323417
0.00159373
2.72376e-05
8.14755e-05
0.000105558
0.000365776
0.000228934
0.000737126
0.000386776
0.00115818
0.000564855
0.00159116
0.000747948
0.00200203
0.000922767
0.00236518
0.0010799
0.0026659
0.00121435
0.00289991
0.00132497
0.00307089
0.00141338
0.00318739
0.00148274
0.00325999
0.0015368
0.00329925
0.00157921
0.00331452
0.00161315
0.00331339
0.00164121
0.00330166
0.00166535
0.00328352
0.00168701
0.00326186
0.0017072
0.00323859
0.00321477
0.0017266
2.47447e-05
5.67308e-05
9.78181e-05
0.000292703
0.000215565
0.000619379
0.000369912
0.00100383
0.000548706
0.00141237
0.000737737
0.001813
0.000923453
0.00217946
0.00109519
0.00249416
0.00124623
0.00274886
0.00137379
0.00294334
0.00147815
0.00308303
0.00156168
0.00317646
0.00162777
0.00323316
0.00168007
0.00326222
0.00172199
0.00327147
0.00175644
0.00326721
0.00178574
0.00325422
0.00181166
0.00323594
0.00183549
0.00321477
0.00319217
0.00185808
2.22069e-05
3.45239e-05
8.96139e-05
0.000225296
0.000200676
0.000508317
0.000349716
0.000854791
0.000526822
0.00123526
0.000719234
0.00162059
0.000913665
0.00198503
0.0010986
0.00230923
0.0012658
0.00258166
0.00141072
0.00279842
0.00153215
0.0029616
0.00163136
0.00307725
0.00171112
0.00315341
0.00177486
0.00319847
0.00182611
0.00322023
0.00186802
0.0032253
0.00190327
0.00321897
0.00193397
0.00320523
0.00196174
0.003187
0.00316623
0.00198768
1.96645e-05
1.48594e-05
8.11166e-05
0.000163844
0.000184637
0.000404796
0.000326746
0.000712682
0.000499812
0.0010622
0.000692856
0.00142754
0.000893375
0.00178451
0.00108951
0.00211309
0.00127178
0.0023994
0.00143399
0.00263621
0.00157326
0.00282232
0.00168952
0.002961
0.00178462
0.00305831
0.00186154
0.00312155
0.0019237
0.00315808
0.00197442
0.00317458
0.00201667
0.00317672
0.00205293
0.00316897
0.00208515
0.00315478
0.00313667
0.00211471
1.71513e-05
-2.29192e-06
7.24861e-05
0.000108509
0.000167826
0.000309456
0.00030163
0.000578877
0.000468465
0.000895363
0.000659334
0.00123667
0.000862976
0.00158087
0.00106772
0.00190835
0.00126329
0.00220383
0.00144203
0.00245747
0.0015994
0.00266495
0.00173375
0.00282665
0.00184576
0.0029463
0.00193767
0.00302964
0.00201253
0.00308321
0.00207368
0.00311344
0.00212428
0.00312612
0.00216713
0.00312612
0.00220455
0.00311736
0.00310301
0.00223821
1.46951e-05
-1.6987e-05
6.38727e-05
5.93316e-05
0.000150619
0.00022271
0.000275043
0.000454454
0.00043372
0.000736685
0.000619701
0.00105069
0.000823307
0.00137726
0.00103358
0.00169808
0.00123996
0.00199745
0.0014337
0.00226373
0.00160869
0.00248996
0.00176165
0.00267368
0.00189185
0.0028161
0.00200047
0.00292102
0.00208995
0.00299373
0.00216337
0.00304001
0.00222396
0.00306553
0.00227475
0.00307533
0.00231839
0.00307372
0.00306452
0.00235688
1.23233e-05
-2.93103e-05
5.54266e-05
1.62283e-05
0.000133404
0.000144733
0.000247699
0.000340158
0.000396645
0.00058774
0.000575264
0.000872072
0.000775662
0.00117687
0.000988037
0.0014857
0.00120209
0.00178339
0.00140846
0.00205736
0.00159975
0.00229867
0.0017711
0.00250233
0.00192021
0.00266699
0.00204697
0.00279427
0.0021529
0.0028878
0.00224057
0.00295235
0.00231302
0.00299308
0.00237337
0.00301498
0.00242456
0.00302254
0.00302023
0.00246885
1.00709e-05
-3.93812e-05
4.73183e-05
-2.10191e-05
0.000116597
7.54538e-05
0.000220376
0.000236379
0.000358433
0.000449683
0.000527582
0.000702923
0.00072177
0.000982678
0.000932673
0.0012748
0.00115077
0.00156529
0.0013666
0.00184154
0.00157191
0.00209336
0.00176049
0.00231375
0.00192845
0.00249902
0.00207423
0.00264849
0.00219814
0.00276388
0.00230194
0.00284855
0.00238824
0.00290678
0.00246005
0.00294317
0.00252042
0.00296217
0.0029688
0.00257185
7.99112e-06
-4.73723e-05
3.97621e-05
-5.27901e-05
0.000100687
1.45292e-05
0.000193942
0.000143124
0.000320418
0.000323207
0.000478462
0.000544879
0.000663779
0.000797361
0.000869705
0.00106887
0.0010879
0.0013471
0.00130935
0.00162009
0.00152547
0.00187724
0.00172904
0.00211018
0.00191478
0.00231328
0.0020796
0.00248367
0.00222245
0.00262103
0.00234396
0.00272704
0.002446
0.00280474
0.00253121
0.00285796
0.00260253
0.00289085
0.00290878
0.00266254
6.16284e-06
-5.35351e-05
3.30347e-05
-7.9662e-05
8.62532e-05
-3.86894e-05
0.000169391
5.99866e-05
0.000284104
0.000208494
0.000429956
0.000399027
0.000604232
0.000623085
0.000801956
0.000871148
0.00101625
0.00113281
0.00123902
0.00139731
0.00146191
0.00165435
0.00167716
0.00189493
0.00187843
0.00211201
0.00206123
0.00230087
0.00222304
0.00245922
0.0023632
0.00258688
0.00248256
0.00268538
0.00258306
0.00275746
0.00266733
0.00280658
0.00283817
0.00273794
4.69055e-06
-5.82257e-05
2.74703e-05
-0.000102442
7.39647e-05
-8.51839e-05
0.000147829
-1.38778e-05
0.00025114
0.000105183
0.000384335
0.000265832
0.000546012
0.000461408
0.000732789
0.000684371
0.000939386
0.000926211
0.001159
0.00117769
0.00138398
0.00142937
0.00160662
0.00167229
0.00181995
0.00189867
0.00201838
0.00210245
0.00219801
0.00227959
0.00235677
0.00242812
0.00249425
0.00254791
0.00261138
0.00264033
0.00271008
0.00270788
0.00275575
0.00279249
3.69179e-06
-6.19175e-05
2.3424e-05
-0.000122174
6.45102e-05
-0.00012627
0.000130386
-7.97536e-05
0.000223213
1.23564e-05
0.000343947
0.000145098
0.000492186
0.00031317
0.000665938
0.000510618
0.000861512
0.000730638
0.00107361
0.000965593
0.00129573
0.00120726
0.00152072
0.0014473
0.00174154
0.00167784
0.00195193
0.00189206
0.00214689
0.00208463
0.00232301
0.002252
0.00247853
0.00239239
0.00261329
0.00250556
0.00272867
0.00259251
0.00265821
0.00282621
3.27205e-06
-6.51895e-05
2.1199e-05
-0.000140101
5.84693e-05
-0.00016354
0.00011802
-0.000139305
0.000201794
-7.14173e-05
0.000310929
3.5963e-05
0.000445672
0.000178427
0.000605146
0.000351144
0.000787102
0.000548682
0.000987813
0.000764881
0.00120219
0.000992889
0.00142412
0.00122537
0.00164703
0.00145493
0.00186452
0.00167457
0.00207089
0.00187826
0.0022616
0.00206129
0.00243347
0.00222052
0.00258454
0.00235449
0.00271398
0.00246307
0.00254774
0.00282444
3.49363e-06
-6.86832e-05
2.09554e-05
-0.000157563
5.61424e-05
-0.000198727
0.000111261
-0.000194424
0.000187787
-0.000147943
0.000286745
-6.29947e-05
0.0004087
5.64719e-05
0.000553552
0.000206292
0.000720247
0.000381987
0.000906526
0.000578602
0.00110883
0.000790587
0.0013224
0.0010118
0.00154163
0.0012357
0.00176052
0.00145568
0.00197325
0.00166553
0.00217468
0.00185986
0.0023607
0.00203451
0.00252839
0.0021868
0.00267599
0.00231546
0.0024165
0.00280724
4.34239e-06
-7.30256e-05
2.26191e-05
-0.000175839
5.73837e-05
-0.000233492
0.000109945
-0.000246985
0.000181146
-0.000219144
0.000271684
-0.000153533
0.000382159
-5.40028e-05
0.000512917
7.5534e-05
0.000663772
0.000231132
0.000833696
0.000408679
0.00102058
0.0006037
0.00122116
0.00081122
0.00143112
0.00102575
0.00164538
0.00124142
0.0018586
0.00145231
0.00206563
0.00165283
0.00226203
0.0018381
0.00244456
0.00200428
0.00261137
0.00214865
0.00226516
0.00276271
5.7172e-06
-7.87428e-05
2.58427e-05
-0.000195965
6.15163e-05
-0.000269165
0.000113062
-0.000298532
0.000180626
-0.000286708
0.00026447
-0.000237376
0.000365041
-0.000154574
0.000482855
-4.22803e-05
0.000618257
9.57299e-05
0.000771119
0.000255816
0.000940547
0.000434272
0.00112467