/*--------------------------------*- C++ -*----------------------------------*\
  =========                 |
  \\      /  F ield         | OpenFOAM: The Open Source CFD Toolbox
   \\    /   O peration     | Website:  https://openfoam.org
    \\  /    A nd           | Version:  6.0
     \\/     M anipulation  |
\*---------------------------------------------------------------------------*/
FoamFile
{
    version     2.0;
    format      ascii;
    class       volVectorField;
    location    "2";
    object      U;
}
// * * * * * * * * * * * * * * * * * * * * * * * * * * * * * * * * * * * * * //

dimensions      [0 1 -1 0 0 0 0];

internalField   nonuniform List<vector> 
4000
(
(-0.00651046 0.00680489 -4.46152e-21)
(-0.0303854 0.0145275 2.39432e-20)
(-0.0693596 0.0184421 -2.95973e-20)
(-0.112291 0.020015 2.27596e-20)
(-0.15447 0.020112 1.14069e-20)
(-0.193927 0.0192486 -3.43431e-20)
(-0.229433 0.0177169 -3.13242e-21)
(-0.260224 0.015668 -1.1992e-21)
(-0.285813 0.0131783 -1.87566e-20)
(-0.305854 0.0102952 -1.02228e-20)
(-0.320103 0.00706522 7.59333e-21)
(-0.328424 0.00355192 2.85271e-20)
(-0.330808 -0.000155126 -2.36186e-21)
(-0.327407 -0.00393573 2.77074e-21)
(-0.318546 -0.00763983 -2.75974e-20)
(-0.304722 -0.011095 1.66554e-20)
(-0.286661 -0.0141236 -2.26126e-20)
(-0.265592 -0.0165675 3.3895e-20)
(-0.243065 -0.0183035 -4.40801e-23)
(-0.218047 -0.0192378 6.71112e-21)
(-0.0072138 0.019864 1.48224e-20)
(-0.0312467 0.0425097 -7.67218e-20)
(-0.0693859 0.0540647 -5.4025e-20)
(-0.111153 0.0587574 -3.73433e-20)
(-0.152083 0.0590997 -4.90797e-20)
(-0.190286 0.0565998 9.94705e-21)
(-0.224574 0.0521204 -5.80592e-20)
(-0.25421 0.0461144 -1.36005e-20)
(-0.278727 0.038813 3.76053e-21)
(-0.297801 0.0303582 4.38257e-20)
(-0.311212 0.0208857 -4.8475e-20)
(-0.318837 0.0105755 6.74176e-20)
(-0.320673 -0.000318723 -5.01969e-20)
(-0.31686 -0.0114551 -5.83877e-20)
(-0.307699 -0.0224021 -7.72744e-20)
(-0.293648 -0.0326566 5.08845e-20)
(-0.275389 -0.0416885 -1.44402e-20)
(-0.254095 -0.0490107 -5.27025e-20)
(-0.231305 -0.0542297 4.9397e-20)
(-0.20618 -0.0570391 -3.62668e-20)
(-0.00854614 0.031927 1.47036e-19)
(-0.0328828 0.0687323 7.78562e-20)
(-0.0694112 0.0878225 8.83006e-20)
(-0.108917 0.0957994 7.65127e-21)
(-0.147402 0.0966456 4.9695e-20)
(-0.183138 0.0927945 6.23879e-20)
(-0.21502 0.0856644 -1.16606e-19)
(-0.242357 0.0760164 -6.26009e-20)
(-0.264723 0.0642471 -8.42934e-20)
(-0.281836 0.0505972 8.76212e-20)
(-0.293516 0.035284 -6.75294e-20)
(-0.299671 0.018584 -8.84868e-20)
(-0.300312 0.000881938 -3.32104e-20)
(-0.295563 -0.0173001 3.04128e-20)
(-0.285684 -0.0352915 -6.23894e-21)
(-0.271072 -0.0522883 1.22576e-20)
(-0.252323 -0.0674102 1.24777e-19)
(-0.2305 -0.0798016 -2.12207e-20)
(-0.207114 -0.0887219 -1.19094e-19)
(-0.181695 -0.0935738 1.52813e-19)
(-0.0103736 0.0424201 5.37725e-20)
(-0.0351411 0.0921417 -7.27198e-20)
(-0.069396 0.11856 -1.93012e-20)
(-0.105669 0.130053 3.62854e-20)
(-0.140623 0.131796 1.03401e-19)
(-0.172768 0.127036 2.29705e-19)
(-0.201116 0.117717 2.28574e-19)
(-0.225046 0.104914 2.08809e-20)
(-0.244188 0.0892068 1.44214e-19)
(-0.258314 0.0709421 2.22505e-19)
(-0.267298 0.0504135 -1.76216e-19)
(-0.271094 0.0279685 2.63218e-19)
(-0.269737 0.00407891 -6.01209e-20)
(-0.263347 -0.0206136 1.5278e-20)
(-0.252144 -0.0452676 5.7895e-20)
(-0.236453 -0.0688371 7.42573e-20)
(-0.216764 -0.0901143 -1.22811e-19)
(-0.193986 -0.107835 -9.74865e-20)
(-0.169566 -0.120801 -1.60516e-19)
(-0.143556 -0.127985 2.29042e-19)
(-0.0125164 0.0508943 -2.73535e-20)
(-0.0378133 0.111855 -2.88991e-19)
(-0.0692909 0.145251 -8.74029e-20)
(-0.101545 0.160502 -2.14278e-19)
(-0.132049 0.163619 8.15235e-20)
(-0.159612 0.158505 -1.31327e-19)
(-0.183406 0.147578 4.81909e-20)
(-0.202902 0.132233 -2.86634e-19)
(-0.217792 0.113246 1.54102e-19)
(-0.227911 0.091089 -1.834e-19)
(-0.233194 0.0661295 -1.63495e-19)
(-0.233652 0.0387672 -1.86173e-19)
(-0.229361 0.00951774 1.66183e-19)
(-0.220453 -0.0209237 -1.50588e-19)
(-0.207124 -0.0516296 2.05075e-19)
(-0.189642 -0.0814017 5.58246e-20)
(-0.168397 -0.108769 1.35097e-19)
(-0.144114 -0.13205 5.20858e-20)
(-0.118133 -0.149481 -2.22092e-19)
(-0.0911382 -0.159405 3.40635e-19)
(-0.01477 0.0570592 1.28531e-19)
(-0.0406577 0.127215 7.06718e-21)
(-0.0690458 0.167054 5.34593e-20)
(-0.0967288 0.186246 1.86458e-19)
(-0.122077 0.191229 -2.72735e-20)
(-0.144258 0.18637 3.1187e-19)
(-0.162642 0.174488 1.43863e-19)
(-0.176811 0.157282 1.2593e-20)
(-0.186531 0.135745 3.76501e-19)
(-0.191702 0.110487 1.26543e-19)
(-0.192323 0.0819621 6.1324e-20)
(-0.188468 0.0506139 1.89363e-19)
(-0.180261 0.0169732 1.73474e-19)
(-0.167867 -0.0182664 3.12756e-19)
(-0.151486 -0.0541756 -2.79265e-19)
(-0.131361 -0.0895128 3.77789e-19)
(-0.107808 -0.122655 -2.70123e-21)
(-0.0813786 -0.151567 -4.56029e-19)
(-0.053254 -0.173855 5.72345e-19)
(-0.0248162 -0.187005 2.14619e-19)
(-0.0169302 0.0608009 -7.48531e-20)
(-0.0434241 0.137839 -1.42217e-19)
(-0.0686161 0.183363 -2.94808e-19)
(-0.0914403 0.206542 -9.55167e-21)
(-0.111187 0.213826 5.44402e-20)
(-0.127425 0.209824 -3.86481e-19)
(-0.139757 0.197653 -2.92233e-19)
(-0.147902 0.179288 -4.0871e-20)
(-0.151714 0.155941 -3.80053e-19)
(-0.151161 0.12838 -2.68458e-19)
(-0.146304 0.0971594 -7.85212e-20)
(-0.137276 0.0627718 -2.54757e-19)
(-0.124256 0.0257546 -5.09348e-21)
(-0.107453 -0.0132303 -3.38364e-19)
(-0.0870951 -0.0533131 1.35478e-19)
(-0.063432 -0.0933113 -1.56141e-19)
(-0.0367536 -0.131591 1.11288e-19)
(-0.00747974 -0.165904 -1.54215e-19)
(0.0233954 -0.193262 -3.99196e-19)
(0.0537894 -0.21011 -1.12087e-19)
(-0.0188162 0.0621831 -3.16085e-20)
(-0.0458804 0.143634 -3.40019e-20)
(-0.0679698 0.193848 2.50285e-19)
(-0.0859237 0.220862 -4.14151e-19)
(-0.099909 0.230749 5.98979e-20)
(-0.109914 0.228131 -2.47003e-19)
(-0.115808 0.216297 1.15265e-19)
(-0.117478 0.197445 5.37555e-19)
(-0.114879 0.172999 -3.16461e-20)
(-0.108055 0.143889 -4.1282e-19)
(-0.0971284 0.110785 7.15304e-20)
(-0.0822853 0.0742428 1.47578e-20)
(-0.0637546 0.0348132 -8.78244e-20)
(-0.0417892 -0.00687656 9.19503e-21)
(-0.0166543 -0.0500409 7.46324e-19)
(0.0113686 -0.0936216 -1.06556e-19)
(0.0419708 -0.136103 -2.0142e-19)
(0.0747963 -0.175211 -3.41903e-19)
(0.109041 -0.207527 3.48696e-19)
(0.141975 -0.228387 1.3582e-19)
(-0.0202913 0.0614291 1.4703e-19)
(-0.047837 0.144805 -1.96756e-19)
(-0.06709 0.198488 2.76948e-19)
(-0.0804236 0.228934 2.81578e-19)
(-0.0887738 0.241526 2.59394e-19)
(-0.0925425 0.240676 5.33914e-19)
(-0.0918912 0.229711 3.52967e-19)
(-0.0868976 0.210978 -7.70558e-19)
(-0.0776447 0.186077 4.0081e-19)
(-0.0642609 0.156101 3.21384e-19)
(-0.0469297 0.121836 -5.98197e-21)
(-0.0258833 0.0839142 3.67638e-19)
(-0.00138939 0.0429168 2.86886e-19)
(0.026264 -0.000548805 -1.55206e-19)
(0.056777 -0.0457713 5.17351e-19)
(0.0898291 -0.0918303 -6.37864e-19)
(0.125061 -0.137403 2.48796e-19)
(0.162108 -0.180367 3.06599e-19)
(0.200332 -0.217116 -6.42042e-20)
(0.236472 -0.24199 5.49863e-19)
(-0.0212761 0.0588891 3.07668e-19)
(-0.0491665 0.141825 1.727e-20)
(-0.0659775 0.197575 -1.09264e-19)
(-0.0751596 0.230784 -1.14025e-19)
(-0.0782603 0.245932 -5.43706e-19)
(-0.0760619 0.247037 7.68931e-20)
(-0.0690236 0.237325 2.24662e-19)
(-0.0574382 0.219204 -1.09853e-19)
(-0.0415345 0.194401 9.20091e-20)
(-0.0215373 0.164146 -2.18296e-20)
(0.00230718 0.129339 -1.22431e-19)
(0.0297269 0.0906917 1.18731e-19)
(0.060428 0.0488267 -5.16335e-19)
(0.0940998 0.00435444 4.96773e-19)
(0.130415 -0.0420575 -4.25043e-19)
(0.169013 -0.0895963 1.3219e-19)
(0.209466 -0.137136 2.8847e-19)
(0.251332 -0.182814 -6.31855e-20)
(0.294091 -0.223088 -1.89282e-19)
(0.334158 -0.251564 -1.18344e-19)
(-0.021755 0.054997 -3.89387e-19)
(-0.0498169 0.135384 -2.44463e-20)
(-0.0646502 0.191692 8.21172e-20)
(-0.0703003 0.226749 2.10684e-19)
(-0.068737 0.244033 -2.96521e-19)
(-0.0610636 0.247039 -2.6212e-19)
(-0.0480234 0.23877 6.22917e-19)
(-0.0301315 0.221603 -3.42651e-19)
(-0.00777491 0.197329 -2.26057e-19)
(0.0187174 0.167275 -3.32361e-19)
(0.0490366 0.132436 2.2239e-19)
(0.0828774 0.0935979 -3.1028e-21)
(0.119928 0.0514303 -4.20485e-19)
(0.159862 0.00656618 -6.91074e-19)
(0.202324 -0.0403344 5.26356e-19)
(0.246903 -0.0885138 -4.17476e-19)
(0.293079 -0.136991 5.87066e-19)
(0.340273 -0.184184 -1.67766e-19)
(0.388014 -0.226801 3.01745e-19)
(0.432687 -0.258039 -1.01873e-18)
(-0.0217739 0.0502219 -8.01883e-19)
(-0.0498144 0.126314 5.21751e-19)
(-0.0631401 0.181664 7.00421e-20)
(-0.0659397 0.217466 1.38774e-20)
(-0.060409 0.236212 -3.21159e-19)
(-0.0478929 0.24081 4.73474e-19)
(-0.0293827 0.233952 5.36986e-20)
(-0.00560412 0.217896 -9.95381e-20)
(0.0228999 0.194431 -3.24921e-19)
(0.0556976 0.164933 3.53618e-19)
(0.0924212 0.130459 9.1385e-19)
(0.132736 0.0918555 -2.0191e-19)
(0.176312 0.0498404 4.62699e-19)
(0.222798 0.00508414 -5.49043e-19)
(0.271787 -0.0417286 -5.22576e-19)
(0.322781 -0.08984 3.15795e-19)
(0.375128 -0.13834 5.00498e-19)
(0.428045 -0.185877 -1.60287e-18)
(0.481015 -0.229511 2.02164e-19)
(0.530777 -0.262307 2.33964e-19)
(-0.0214296 0.0450219 5.96223e-19)
(-0.0492539 0.115508 1.98009e-19)
(-0.0614833 0.16848 1.00786e-18)
(-0.0620755 0.203821 5.181e-20)
(-0.0532731 0.223157 -1.12632e-19)
(-0.0365721 0.228808 -5.38116e-19)
(-0.0131561 0.223105 4.56169e-19)
(0.0160712 0.208122 8.30577e-19)
(0.0504301 0.185579 5.65184e-19)
(0.0893979 0.156851 4.11027e-19)
(0.132553 0.123025 3.58787e-19)
(0.179527 0.0849875 -6.51793e-19)
(0.229953 0.0435023 -2.0931e-19)
(0.283418 -0.000710604 -1.50634e-19)
(0.339406 -0.0469144 1.62537e-18)
(0.397262 -0.0943071 -1.21646e-20)
(0.456133 -0.141979 -3.9154e-19)
(0.51497 -0.188738 -1.01552e-19)
(0.57309 -0.232023 1.09547e-18)
(0.628012 -0.264931 1.44662e-19)
(-0.0208529 0.0398039 -2.84583e-20)
(-0.0482767 0.103831 -5.5981e-19)
(-0.0597015 0.153194 -8.28148e-19)
(-0.0585895 0.186875 -2.29476e-19)
(-0.0470848 0.205816 1.26789e-19)
(-0.0267456 0.211811 2.61614e-20)
(0.00112141 0.20682 7.32988e-19)
(0.0354842 0.19269 -9.12107e-19)
(0.0755592 0.171024 -3.49053e-19)
(0.120749 0.14315 -7.16956e-19)
(0.170577 0.110151 -6.21089e-19)
(0.224616 0.0729386 -5.5438e-19)
(0.282411 0.0323202 1.38211e-19)
(0.343409 -0.0109245 -1.79795e-19)
(0.406896 -0.0559875 7.7551e-19)
(0.471957 -0.101996 -4.33079e-19)
(0.537458 -0.147999 -1.30842e-18)
(0.602041 -0.192895 -2.39964e-19)
(0.664747 -0.234511 6.17918e-19)
(0.724277 -0.26601 -4.8412e-19)
(-0.0201873 0.0348939 -9.46497e-20)
(-0.0470366 0.0920476 6.87497e-19)
(-0.0577753 0.136831 -8.71075e-19)
(-0.0552277 0.167762 2.01289e-19)
(-0.0413413 0.185319 -4.11808e-19)
(-0.0176583 0.190867 9.17064e-19)
(0.0144633 0.186024 -6.58715e-19)
(0.0539203 0.172399 7.60618e-19)
(0.0998593 0.151443 -7.22277e-19)
(0.151616 0.124407 3.16003e-19)
(0.208633 0.0923462 -1.51403e-19)
(0.270362 0.0561838 -3.86781e-19)
(0.336169 0.0167716 -4.83278e-19)
(0.405245 -0.0250451 4.86377e-19)
(0.476556 -0.0683809 -4.06472e-19)
(0.548829 -0.112288 -8.79262e-19)
(0.620583 -0.155769 9.0963e-19)
(0.690156 -0.19778 -1.13007e-18)
(0.756269 -0.236544 4.91422e-19)
(0.819082 -0.265238 -8.37583e-21)
(-0.019564 0.0305185 -8.68574e-19)
(-0.0456586 0.0807593 -9.28327e-19)
(-0.0556118 0.120295 1.06761e-19)
(-0.0515871 0.147584 -8.82277e-19)
(-0.0352879 0.162868 -7.64666e-20)
(-0.00818268 0.167202 -6.47071e-19)
(0.0283813 0.161916 -1.48486e-19)
(0.0732758 0.148393 -4.36359e-19)
(0.125595 0.127925 6.24411e-21)
(0.184584 0.101667 -1.92053e-19)
(0.249539 0.0706372 1.81755e-20)
(0.319685 0.0357633 -5.68445e-19)
(0.394072 -0.00206203 6.39342e-19)
(0.471502 -0.0419319 -8.99303e-19)
(0.550504 -0.0828953 3.21589e-19)
(0.629384 -0.123954 9.40606e-21)
(0.706313 -0.164091 -4.9442e-19)
(0.779403 -0.202327 1.21356e-18)
(0.847111 -0.237302 -2.88429e-19)
(0.911141 -0.262125 -1.63106e-19)
(-0.0190789 0.0267967 9.73272e-19)
(-0.0442001 0.0703739 5.21515e-19)
(-0.0530178 0.104298 4.80655e-19)
(-0.0471167 0.127313 7.10013e-20)
(-0.0279581 0.139621 6.4483e-19)
(0.00309347 0.142094 9.2628e-19)
(0.044736 0.135843 7.56961e-19)
(0.0958317 0.122054 7.08399e-20)
(0.155398 0.101873 5.62306e-19)
(0.222521 0.0763603 8.73591e-19)
(0.296231 0.0464918 -2.26454e-19)
(0.375379 0.0131968 3.85101e-19)
(0.458553 -0.0226019 3.12193e-19)
(0.544043 -0.0599567 3.24195e-19)
(0.629885 -0.0978864 1.89251e-18)
(0.713976 -0.135392 -7.09907e-19)
(0.794229 -0.171494 -3.83752e-20)
(0.868683 -0.205313 7.87168e-19)
(0.935715 -0.235915 -4.36932e-19)
(0.99842 -0.256285 1.99884e-19)
(-0.0187741 0.0237445 -7.86175e-19)
(-0.0426218 0.0610936 4.99382e-20)
(-0.0496895 0.0893242 -6.17132e-19)
(-0.0411453 0.107714 -7.78235e-20)
(-0.0182549 0.116589 4.47533e-19)
(0.0177127 0.116746 -1.3297e-18)
(0.065493 0.109154 -2.38542e-21)
(0.123902 0.0948466 6.20204e-19)
(0.191802 0.0748458 5.85682e-19)
(0.267992 0.0501286 -2.5823e-19)
(0.351079 0.0216315 8.77259e-20)
(0.439386 -0.00972396 2.00038e-19)
(0.530913 -0.0430077 -9.69989e-20)
(0.623382 -0.0772713 -1.07371e-18)
(0.714366 -0.11156 2.71598e-19)
(0.801472 -0.14494 7.371e-19)
(0.882535 -0.176542 -1.04578e-18)
(0.955733 -0.205656 5.03869e-19)
(1.01968 -0.231701 1.31217e-19)
(1.07844 -0.247597 6.02833e-19)
(-0.0186284 0.0212884 -1.14759e-19)
(-0.0407783 0.0529304 -5.45745e-19)
(-0.0452256 0.0756171 2.48452e-19)
(-0.0329368 0.089304 -8.9878e-22)
(-0.00507012 0.0945513 -1.07503e-18)
(0.0371483 0.0921728 1.6777e-19)
(0.0924271 0.0830623 -3.16978e-20)
(0.159439 0.0681495 2.16508e-19)
(0.236749 0.0483622 -9.94303e-19)
(0.322705 0.0246094 -7.28991e-20)
(0.415329 -0.00221303 -2.39339e-19)
(0.512288 -0.0312093 2.08684e-19)
(0.610941 -0.0614777 7.15828e-19)
(0.708487 -0.0921213 -1.11032e-19)
(0.802163 -0.122274 4.50663e-20)
(0.88948 -0.151138 2.72186e-19)
(0.968419 -0.178027 -7.20761e-20)
(1.03752 -0.202459 5.3436e-19)
(1.09607 -0.224004 -3.24733e-19)
(1.14829 -0.236145 -4.62432e-19)
(-0.0185585 0.0192903 1.07459e-19)
(-0.0384287 0.0457421 2.61547e-20)
(-0.0391621 0.0632029 2.18526e-19)
(-0.0217654 0.0723427 5.30392e-19)
(0.0125864 0.0740167 2.95166e-19)
(0.0626076 0.0691216 3.03751e-20)
(0.126856 0.0585317 -3.51308e-19)
(0.203702 0.0431153 8.94059e-20)
(0.29124 0.0237327 4.75804e-19)
(0.387187 0.00123474 -8.09012e-19)
(0.488854 -0.0235332 6.13001e-19)
(0.593201 -0.0497295 -4.63708e-19)
(0.697005 -0.0765248 3.92794e-19)
(0.797087 -0.103126 -8.46224e-19)
(0.890573 -0.128806 9.24539e-19)
(0.975111 -0.152947 -9.83954e-19)
(1.04902 -0.175078 -2.49831e-19)
(1.11136 -0.19493 7.5786e-19)
(1.16226 -0.211951 -2.63429e-19)
(1.20473 -0.222552 9.4636e-20)
(-0.0184318 0.0175775 -8.15694e-20)
(-0.035264 0.0392854 7.63166e-19)
(-0.0310196 0.0519397 -5.59253e-21)
(-0.00698842 0.0568694 -4.69118e-19)
(0.0354809 0.0552372 -3.13041e-19)
(0.0948934 0.0480621 5.73037e-19)
(0.169479 0.0362378 -2.2676e-19)
(0.257112 0.0206013 -2.87398e-20)
(0.355222 0.0019613 4.7326e-19)
(0.460759 -0.0188929 -5.89519e-19)
(0.570262 -0.041189 6.52288e-20)
(0.680046 -0.064178 -7.68909e-19)
(0.786469 -0.0871499 4.02646e-19)
(0.886228 -0.109458 -1.14437e-18)
(0.976619 -0.130545 1.80012e-18)
(1.0557 -0.14997 -3.35885e-19)
(1.12237 -0.167427 3.1883e-19)
(1.17631 -0.182733 -8.32247e-19)
(1.21814 -0.195486 1.99047e-20)
(1.24643 -0.209497 7.88198e-19)
(-0.0180852 0.0159741 -2.48129e-19)
(-0.0309432 0.0332762 2.13076e-19)
(-0.0203461 0.0415876 -7.77993e-19)
(0.0119039 0.0427693 1.14626e-18)
(0.0641042 0.0382657 -8.24664e-19)
(0.134361 0.0292311 4.14453e-20)
(0.220364 0.0165968 -8.85217e-19)
(0.319284 0.00118078 6.3199e-19)
(0.42772 -0.0162624 -9.13124e-20)
(0.541777 -0.0350249 -5.60768e-19)
(0.657267 -0.0544434 -3.26409e-19)
(0.770022 -0.0739062 3.46207e-19)
(0.876243 -0.092866 2.25111e-19)
(0.972809 -0.110855 -9.80649e-19)
(1.05748 -0.127496 3.58176e-19)
(1.12899 -0.142513 -5.06719e-19)
(1.18698 -0.155721 6.29095e-20)
(1.23189 -0.166996 -3.93013e-19)
(1.26481 -0.176202 1.23425e-19)
(1.28627 -0.185888 -5.36839e-19)
(-0.0173467 0.0143295 7.05481e-19)
(-0.0251257 0.0274486 -4.23458e-19)
(-0.0067463 0.031886 3.47437e-19)
(0.0352733 0.0298632 -4.36201e-19)
(0.098679 0.0230495 7.3296e-19)
(0.180962 0.0127231 -1.59309e-20)
(0.279049 -0.000151467 -9.01139e-20)
(0.389207 -0.0147865 -6.75222e-20)
(0.5071 -0.0305053 4.05676e-19)
(0.627997 -0.0467185 6.88784e-19)
(0.74713 -0.0629163 -4.072e-19)
(0.860108 -0.0786661 3.93613e-19)
(0.963293 -0.0936126 7.06886e-19)
(1.05406 -0.107477 -4.95348e-19)
(1.13088 -0.120057 -9.60632e-19)
(1.1933 -0.131221 1.72656e-18)
(1.24177 -0.140899 -3.09253e-19)
(1.2774 -0.149069 -9.12919e-20)
(1.3018 -0.155717 9.0612e-19)
(1.31599 -0.163054 -2.22807e-19)
(-0.0160533 0.0125365 -1.15333e-18)
(-0.0174965 0.021602 -7.65178e-19)
(0.0101065 0.0226245 -2.92858e-19)
(0.0633452 0.0179941 5.63004e-19)
(0.139207 0.00952749 -1.26569e-18)
(0.23434 -0.00140887 6.52133e-19)
(0.344685 -0.0138476 8.22759e-20)
(0.465459 -0.0270674 8.089e-20)
(0.591353 -0.0405144 -8.56232e-19)
(0.716917 -0.0537673 -3.02456e-19)
(0.837051 -0.0665129 -5.26985e-19)
(0.947465 -0.0785251 5.04563e-19)
(1.04501 -0.0896462 1.34972e-19)
(1.12784 -0.099771 2.09018e-20)
(1.1953 -0.108835 5.99878e-19)
(1.24783 -0.116806 -6.21216e-19)
(1.28662 -0.123677 -2.18956e-20)
(1.31336 -0.129447 2.79617e-20)
(1.33 -0.134127 9.05751e-20)
(1.33786 -0.139634 3.81488e-19)
(-0.0140615 0.0105392 3.68475e-19)
(-0.00778044 0.0156291 9.45933e-19)
(0.0304701 0.0136929 7.57933e-19)
(0.0962321 0.00709599 -2.59929e-19)
(0.185523 -0.00229121 9.0013e-19)
(0.293916 -0.0130733 -7.36465e-20)
(0.416177 -0.0243371 -1.07571e-19)
(0.546384 -0.035489 6.21557e-20)
(0.678323 -0.0461593 8.68239e-19)
(0.806045 -0.0561446 5.07426e-19)
(0.924444 -0.0653586 1.48225e-19)
(1.02969 -0.0737848 1.22167e-20)
(1.11943 -0.0814407 -9.36416e-19)
(1.19278 -0.088353 8.13518e-19)
(1.25006 -0.0945447 1.28442e-19)
(1.29253 -0.100031 -2.22657e-19)
(1.32203 -0.104824 -8.78902e-19)
(1.34066 -0.108912 -5.81917e-20)
(1.35055 -0.112324 3.18966e-19)
(1.35315 -0.116673 -5.56654e-20)
(-0.0112517 0.00833115 -9.4e-19)
(0.00425252 0.00952505 3.92535e-19)
(0.054536 0.00510598 -1.90817e-18)
(0.13395 -0.00276959 7.78637e-19)
(0.237327 -0.0122853 -6.21023e-19)
(0.358949 -0.0221001 4.60343e-19)
(0.492265 -0.0314386 -7.10807e-19)
(0.630216 -0.0399146 6.48747e-20)
(0.76586 -0.0474076 -3.55901e-20)
(0.89307 -0.0539708 1.87103e-19)
(1.00711 -0.0597488 2.65376e-19)
(1.10495 -0.0649085 -5.00558e-19)
(1.18528 -0.0695943 2.66197e-19)
(1.24826 -0.0739057 2.34849e-19)
(1.29516 -0.0778946 9.5365e-19)
(1.32797 -0.0815737 -4.26085e-19)
(1.34898 -0.0849298 -2.53098e-19)
(1.36053 -0.0879151 4.14439e-19)
(1.3648 -0.0905466 1.90584e-19)
(1.36318 -0.0941758 -4.10981e-19)
(-0.00752609 0.00594679 8.27398e-19)
(0.0187855 0.00337979 7.96809e-19)
(0.0824285 -0.00299699 2.27091e-19)
(0.17642 -0.0114104 9.62749e-19)
(0.294196 -0.0202194 4.73797e-19)
(0.42856 -0.0282451 -8.49488e-19)
(0.571573 -0.0349532 1.28797e-18)
(0.715157 -0.0402525 -6.33052e-19)
(0.851935 -0.0443255 6.26518e-19)
(0.975991 -0.0474939 7.99877e-19)
(1.08335 -0.0501056 -4.54299e-19)
(1.17206 -0.0524568 8.73306e-20)
(1.24197 -0.0547523 4.60387e-19)
(1.29431 -0.0571005 3.14083e-19)
(1.33117 -0.059528 6.89212e-19)
(1.35509 -0.062005 -2.9033e-19)
(1.36865 -0.0644688 -4.66516e-20)
(1.37427 -0.0668233 3.81523e-19)
(1.37402 -0.0690713 -8.77238e-20)
(1.36918 -0.0723068 -2.78458e-21)
(-0.00280607 0.00345133 -4.28131e-19)
(0.0359535 -0.0026392 -1.57032e-18)
(0.114197 -0.010372 3.69288e-19)
(0.223459 -0.0185262 -2.80597e-19)
(0.355576 -0.0257733 -6.48558e-19)
(0.501734 -0.0312243 -4.60584e-19)
(0.652643 -0.0347 -2.84138e-19)
(0.799447 -0.0364821 6.9026e-19)
(0.934724 -0.0370829 -4.08297e-19)
(1.05319 -0.0370688 -4.15067e-19)
(1.15197 -0.036933 -5.10953e-19)
(1.23039 -0.0370266 -8.44041e-20)
(1.28948 -0.0375434 -6.52265e-20)
(1.33143 -0.0385412 -1.09612e-18)
(1.35899 -0.0399798 5.02571e-19)
(1.37506 -0.0417611 -6.65571e-19)
(1.38231 -0.0437612 1.85598e-19)
(1.38312 -0.0458351 -1.42493e-18)
(1.37936 -0.0479674 4.34019e-19)
(1.37217 -0.0510181 5.0864e-19)
(0.00297111 0.000931182 -1.07293e-19)
(0.0558406 -0.0083075 7.69777e-19)
(0.149804 -0.0166995 4.89553e-20)
(0.274759 -0.0237471 1.18877e-19)
(0.420762 -0.0285874 -2.42319e-19)
(0.577331 -0.0307623 -3.04867e-21)
(0.73398 -0.0305564 -4.78848e-21)
(0.881436 -0.0286753 -1.41673e-19)
(1.01269 -0.0259488 5.06855e-19)
(1.1235 -0.0231286 1.93285e-19)
(1.21233 -0.0207711 8.51559e-19)
(1.27986 -0.019201 -2.31552e-19)
(1.32824 -0.0185349 1.53672e-19)
(1.36046 -0.0187346 -1.44538e-20)
(1.37971 -0.0196669 4.08035e-19)
(1.38905 -0.0211558 2.37039e-19)
(1.39114 -0.0230167 5.4043e-19)
(1.38816 -0.0250648 -8.55673e-19)
(1.38178 -0.0272691 1.04037e-18)
(1.37293 -0.0302741 -3.29556e-19)
(0.0098529 -0.00151301 -1.00728e-18)
(0.0784745 -0.0133634 -3.13293e-19)
(0.189112 -0.0216158 2.45425e-19)
(0.329875 -0.0266751 1.54965e-19)
(0.488911 -0.0283107 1.57518e-19)
(0.654117 -0.0266373 1.60497e-19)
(0.814108 -0.0224884 -4.00309e-19)
(0.959657 -0.017003 -1.60458e-19)
(1.08463 -0.0112742 5.32945e-20)
(1.18616 -0.00614929 -4.69861e-19)
(1.26423 -0.00215447 -2.03204e-19)
(1.32079 0.000488447 1.22807e-18)
(1.359 0.00179249 -3.17925e-19)
(1.3824 0.00192024 -4.1463e-19)
(1.39445 0.00110722 -1.81878e-19)
(1.3982 -0.000395111 1.33335e-19)
(1.39617 -0.00235105 1.4494e-19)
(1.3903 -0.00454908 -6.85872e-19)
(1.38201 -0.00694422 9.60714e-19)
(1.37206 -0.00999252 -8.31182e-19)
(0.0178701 -0.00377103 -1.14346e-19)
(0.10382 -0.017524 3.27262e-20)
(0.231876 -0.0247422 -4.15414e-20)
(0.388222 -0.0269226 6.10471e-19)
(0.559048 -0.0246413 3.30449e-20)
(0.730811 -0.0187123 2.22769e-19)
(0.891647 -0.010563 -4.61425e-19)
(1.03289 -0.00172648 -1.5203e-20)
(1.1497 0.00653486 6.2452e-19)
(1.24086 0.013385 8.21378e-20)
(1.30783 0.0184199 -5.23133e-19)
(1.35379 0.0215838 -4.42913e-20)
(1.38263 0.0230532 -3.99076e-19)
(1.39827 0.0231257 4.05507e-19)
(1.40425 0.0221348 5.3168e-19)
(1.40348 0.0203957 -5.78063e-20)
(1.39825 0.0181805 -6.36685e-20)
(1.39023 0.0157129 1.9628e-19)
(1.38059 0.0130502 -6.00129e-19)
(1.36995 0.00989616 5.42127e-19)
(0.0270339 -0.00572599 1.14879e-19)
(0.131775 -0.0204988 -7.40019e-19)
(0.277736 -0.0257084 1.97878e-19)
(0.449089 -0.0241432 -6.15461e-19)
(0.630114 -0.0173552 2.11583e-19)
(0.806149 -0.00695176 -7.81615e-19)
(0.96537 0.00505413 3.12639e-19)
(1.10018 0.016824 -9.92408e-20)
(1.20742 0.0270471 -3.89809e-21)
(1.28758 0.0350108 9.48186e-20)
(1.34359 0.040513 -3.45196e-19)
(1.37961 0.0437085 -4.76832e-19)
(1.40007 0.0449517 -9.1437e-20)
(1.40907 0.0446706 -4.07254e-20)
(1.41004 0.0432825 -1.02919e-19)
(1.4057 0.0411489 -3.21732e-20)
(1.39803 0.0385621 -9.52144e-20)
(1.38846 0.0357448 -8.0699e-20)
(1.37792 0.0327662 -2.27144e-19)
(1.36688 0.029459 3.54884e-19)
(0.037332 -0.00725679 2.75551e-19)
(0.162162 -0.0220003 -3.06155e-19)
(0.326227 -0.0241727 6.60267e-19)
(0.511657 -0.0180547 -2.85124e-19)
(0.701006 -0.00632284 7.61402e-19)
(0.878942 0.00857751 1.1783e-20)
(1.03425 0.0241142 3.76494e-19)
(1.1609 0.0382734 -1.00231e-19)
(1.25761 0.0498319 4.05218e-19)
(1.32661 0.0583047 2.47556e-20)
(1.37213 0.0637527 9.19803e-19)
(1.39909 0.0665644 -6.27456e-19)
(1.41223 0.0672699 8.77568e-20)
(1.41566 0.0664113 1.59813e-19)
(1.4126 0.0644691 7.73463e-19)
(1.40548 0.0618321 -2.76134e-19)
(1.39601 0.0587966 -5.23479e-20)
(1.38536 0.0555743 -2.62493e-19)
(1.37424 0.0522472 -2.29104e-20)
(1.363 0.0487446 1.28645e-19)
(0.0487262 -0.00824058 -1.31266e-19)
(0.194732 -0.0217545 3.81001e-19)
(0.376782 -0.0198374 -3.92186e-19)
(0.575035 -0.0084537 1.54214e-19)
(0.770631 0.00848557 -1.84504e-19)
(0.948128 0.0277146 6.73322e-19)
(1.09751 0.046305 -9.38584e-20)
(1.21466 0.0622264 2.21437e-19)
(1.30033 0.0744793 -1.3172e-19)
(1.3584 0.0828936 -3.01225e-21)
(1.39414 0.0878325 1.40391e-19)
(1.41303 0.0899218 -1.05622e-19)
(1.41993 0.0898508 2.71273e-19)
(1.41877 0.0882522 -1.347e-19)
(1.41253 0.0856466 -5.6161e-19)
(1.40331 0.0824314 5.49868e-19)
(1.39255 0.0788933 -2.38356e-19)
(1.38116 0.0752255 1.89131e-19)
(1.3697 0.0715256 3.151e-19)
(1.35842 0.067787 1.2856e-19)
(0.0611493 -0.00855592 3.27215e-19)
(0.229164 -0.0195102 -6.749e-19)
(0.428757 -0.0124624 1.28833e-19)
(0.638292 0.00477496 -9.41219e-20)
(0.837953 0.0270027 -3.78562e-19)
(1.01281 0.05022 -2.93277e-19)
(1.15456 0.0712727 -5.81129e-20)
(1.26132 0.0882871 -5.08786e-19)
(1.33585 0.100612 -2.91506e-20)
(1.38348 0.108457 -9.12517e-20)
(1.41034 0.112505 -2.42436e-19)
(1.4222 0.113606 -5.46434e-20)
(1.42386 0.112582 -1.79033e-19)
(1.41902 0.110129 -2.86828e-19)
(1.41031 0.106785 2.86126e-19)
(1.39954 0.102939 3.44789e-20)
(1.38786 0.0988575 6.83652e-20)
(1.37601 0.0947125 -3.10395e-19)
(1.36439 0.0906188 -1.03151e-20)
(1.35315 0.0866023 -4.58258e-19)
(0.0745048 -0.0080863 3.55843e-19)
(0.265072 -0.0150488 2.38194e-19)
(0.481445 -0.00187394 -3.86156e-19)
(0.700498 0.0216564 6.01712e-19)
(0.902026 0.049073 -6.56857e-20)
(1.07225 0.0757931 2.21313e-19)
(1.20507 0.0986412 7.57803e-20)
(1.30093 0.116073 2.61822e-19)
(1.36454 0.127891 -2.0467e-19)
(1.40246 0.134725 6.53507e-20)
(1.42141 0.137573 -6.25236e-20)
(1.42726 0.137483 -2.5577e-20)
(1.42462 0.13538 4.96811e-20)
(1.41685 0.131993 -8.89116e-20)
(1.40628 0.127858 -2.53668e-20)
(1.39438 0.123343 -7.92426e-20)
(1.3821 0.118686 -1.25727e-19)
(1.36999 0.114037 8.2141e-20)
(1.35833 0.109529 -1.05887e-19)
(1.34721 0.105192 4.62736e-19)
(0.0886671 -0.00672374 -1.76423e-19)
(0.302012 -0.00819164 -5.02976e-19)
(0.534101 0.0120287 -6.67202e-20)
(0.760751 0.0421274 -1.92052e-20)
(0.962024 0.0744649 -2.24218e-19)
(1.12592 0.104089 -3.64536e-19)
(1.24886 0.128026 1.16668e-19)
(1.33369 0.145223 -1.59749e-19)
(1.38686 0.156014 -1.74557e-19)
(1.41593 0.161467 9.49958e-20)
(1.42797 0.162873 -7.08749e-20)
(1.42877 0.161446 -1.38917e-19)
(1.42265 0.158177 -1.83381e-21)
(1.41263 0.153804 9.29475e-20)
(1.40067 0.148841 -9.01536e-20)
(1.38801 0.143626 1.25078e-19)
(1.37535 0.138365 3.47676e-20)
(1.36312 0.133186 8.19049e-20)
(1.35152 0.128244 1.52364e-19)
(1.34057 0.123542 -1.29984e-19)
(0.103487 -0.00437211 1.67872e-19)
(0.339506 0.00119316 -1.34443e-20)
(0.585985 0.0292685 7.66074e-20)
(0.818234 0.066039 -1.02674e-19)
(1.01728 0.102879 9.7273e-21)
(1.17346 0.134727 3.49965e-19)
(1.28594 0.159042 -2.27814e-19)
(1.35991 0.175397 9.40346e-20)
(1.40332 0.184712 8.14037e-20)
(1.42447 0.188485 -2.25321e-19)
(1.43057 0.18827 2.07991e-19)
(1.42721 0.185404 1.54931e-21)
(1.41834 0.180911 -1.40098e-19)
(1.40661 0.175515 1.67234e-19)
(1.39367 0.169697 -6.48464e-20)
(1.3805 0.163757 4.88355e-20)
(1.36765 0.157867 -5.49619e-20)
(1.35543 0.152134 -2.27278e-20)
(1.34395 0.146737 -1.79463e-19)
(1.33321 0.141627 5.52578e-20)
(0.118791 -0.000954435 -5.55449e-20)
(0.377032 0.0131736 1.513e-19)
(0.636336 0.0497771 2.3997e-20)
(0.872161 0.0931551 9.86307e-20)
(1.06722 0.133961 4.67406e-20)
(1.21462 0.167315 2.19382e-20)
(1.31639 0.191319 1.21264e-19)
(1.3799 0.206288 -1.47787e-20)
(1.41436 0.213751 5.15351e-20)
(1.42856 0.215613 8.14964e-20)
(1.42966 0.213647 3.82716e-20)
(1.42293 0.209273 2.69402e-20)
(1.41194 0.203521 1.0804e-19)
(1.39896 0.19708 -1.04494e-19)
(1.38536 0.190385 2.19535e-20)
(1.3719 0.183696 -1.99381e-20)
(1.35901 0.177152 3.1093e-20)
(1.34688 0.170844 2.56991e-20)
(1.33559 0.164971 5.17294e-20)
(1.32509 0.159412 1.78723e-21)
(0.134377 0.00358342 3.30305e-20)
(0.414049 0.0277541 3.00883e-20)
(0.684441 0.0734076 -4.1758e-20)
(0.921878 0.123177 2.60515e-20)
(1.11141 0.167327 1.44348e-20)
(1.24929 0.201455 -4.51558e-20)
(1.3404 0.224508 1.45217e-20)
(1.39404 0.237616 2.78909e-21)
(1.42044 0.242921 2.4376e-20)
(1.42864 0.242699 -6.47229e-20)
(1.42561 0.238895 9.20688e-24)
(1.41622 0.232974 1.72296e-20)
(1.40364 0.225941 -1.376e-20)
(1.3898 0.218436 1.37542e-20)
(1.3758 0.210846 3.48716e-20)
(1.36223 0.203389 -1.95194e-20)
(1.3494 0.196169 5.64739e-21)
(1.33745 0.189266 2.07241e-20)
(1.3264 0.182898 -3.35308e-20)
(1.31618 0.176849 1.63409e-20)
(0.134365 -0.00358238 8.86863e-20)
(0.413999 -0.0277485 -4.89145e-20)
(0.684344 -0.0733944 5.78538e-20)
(0.921732 -0.123158 -4.30406e-20)
(1.11123 -0.167305 -1.91495e-20)
(1.24908 -0.201436 5.88632e-21)
(1.34017 -0.224494 -1.85562e-20)
(1.39381 -0.237611 6.65184e-20)
(1.42023 -0.242925 -5.47827e-20)
(1.42844 -0.242712 1.22886e-20)
(1.42542 -0.238915 -9.59948e-21)
(1.41604 -0.233 -6.06396e-20)
(1.40348 -0.225971 5.84319e-20)
(1.38965 -0.21847 2.2094e-20)
(1.37565 -0.210883 -2.11311e-20)
(1.3621 -0.203427 4.99306e-20)
(1.34928 -0.196208 -8.85879e-22)
(1.33733 -0.189307 -4.71552e-20)
(1.32628 -0.182939 3.40975e-20)
(1.31607 -0.17689 1.09892e-20)
(0.118782 0.000955222 -3.15281e-20)
(0.376989 -0.0131695 8.76819e-20)
(0.636246 -0.0497674 1.02591e-19)
(0.872019 -0.0931409 -4.92027e-20)
(1.06703 -0.133946 8.53226e-20)
(1.2144 -0.1673 1.3604e-19)
(1.31616 -0.19131 -7.25554e-21)
(1.37967 -0.206287 -2.29116e-20)
(1.41414 -0.213759 1.16007e-19)
(1.42836 -0.21563 5.63747e-20)
(1.42947 -0.213672 -9.9101e-21)
(1.42275 -0.209306 8.32385e-20)
(1.41177 -0.203559 -8.6484e-20)
(1.39881 -0.197121 1.38446e-19)
(1.38522 -0.190429 -2.22303e-20)
(1.37177 -0.183743 6.59393e-20)
(1.35888 -0.1772 1.21347e-20)
(1.34676 -0.170893 4.51681e-20)
(1.33548 -0.165021 -4.24396e-20)
(1.32499 -0.159461 1.17395e-20)
(0.103481 0.00437293 -4.77647e-20)
(0.339469 -0.00118952 1.05969e-19)
(0.585902 -0.0292597 7.96123e-20)
(0.818099 -0.066026 -1.26387e-20)
(1.0171 -0.102865 1.31311e-19)
(1.17325 -0.134716 -1.0004e-19)
(1.28571 -0.159036 -9.07888e-21)
(1.35967 -0.1754 9.06353e-20)
(1.40309 -0.184726 3.11246e-20)
(1.42425 -0.188509 4.0114e-20)
(1.43037 -0.188303 -5.77001e-20)
(1.42702 -0.185444 1.59831e-19)
(1.41817 -0.180958 2.93939e-20)
(1.40645 -0.175567 -1.35582e-19)
(1.39352 -0.169752 2.04146e-19)
(1.38036 -0.163814 -2.37496e-19)
(1.36752 -0.157925 -1.09155e-19)
(1.35531 -0.152193 2.00052e-20)
(1.34384 -0.146796 1.02741e-19)
(1.33311 -0.141686 -1.9427e-19)
(0.088665 0.00672485 -1.0104e-19)
(0.301984 0.00819567 -2.38727e-19)
(0.534028 -0.0120192 -2.10506e-19)
(0.760624 -0.0421135 -2.89345e-19)
(0.961844 -0.0744498 -1.6996e-19)
(1.1257 -0.104077 -3.58348e-19)
(1.24861 -0.128022 4.54228e-20)
(1.33344 -0.145229 -1.98404e-19)
(1.38662 -0.156032 -2.02955e-20)
(1.4157 -0.161497 3.26821e-20)
(1.42776 -0.162914 -7.23374e-20)
(1.42857 -0.161495 9.945e-20)
(1.42247 -0.158233 1.69817e-19)
(1.41246 -0.153865 -2.35628e-19)