1.275 	2.15223e-18 	-2.76991e-20 	-0.134609 	-0.0063185 	-2.52325e-22
1.825 	2.15223e-18 	-1.39322e-20 	-0.267734 	-0.034715 	3.43441e-21
2.375 	2.15223e-18 	-2.66896e-23 	-0.299836 	-0.0308711 	-1.54855e-21
