/*--------------------------------*- C++ -*----------------------------------*\
  =========                 |
  \\      /  F ield         | OpenFOAM: The Open Source CFD Toolbox
   \\    /   O peration     | Website:  https://openfoam.org
    \\  /    A nd           | Version:  6.0
     \\/     M anipulation  |
\*---------------------------------------------------------------------------*/
FoamFile
{
    version     2.0;
    format      ascii;
    class       surfaceScalarField;
    location    "86";
    object      phi;
}
// * * * * * * * * * * * * * * * * * * * * * * * * * * * * * * * * * * * * * //

dimensions      [0 3 -1 0 0 0 0];

internalField   nonuniform List<scalar> 
24700
(
-4.25657e-06
7.34586e-05
-6.9202e-05
-1.49404e-05
0.000162228
-0.000151544
-3.05005e-05
0.000208267
-0.000192707
-4.97072e-05
0.00022319
-0.000203983
-7.15753e-05
0.000216118
-0.00019425
-9.53133e-05
0.000194016
-0.000170278
-0.000120273
0.000162021
-0.000137061
-0.000145903
0.000123779
-9.81492e-05
-0.000171716
8.17906e-05
-5.59777e-05
-0.000197262
3.77047e-05
-1.21586e-05
-0.000222115
-7.42387e-06
3.22768e-05
-0.000245864
-5.29379e-05
7.66869e-05
-0.000268112
-9.84326e-05
0.000120681
-0.00028848
-0.000143658
0.000164025
-0.000306611
-0.000188455
0.000206586
-0.000322181
-0.000232728
0.000248298
-0.000334912
-0.000276423
0.000289154
-0.000344591
-0.000319524
0.000329203
-0.000351082
-0.00036206
0.000368551
-0.00035435
-0.000404107
0.000407375
-0.000354481
-0.000445788
0.00044592
-0.000351702
-0.000487277
0.000484497
-0.000346396
-0.000528802
0.000523496
-0.000339136
-0.000570723
0.000563463
-0.000613484
0.000605076
-0.000330728
-3.99024e-06
7.74488e-05
-1.41976e-05
0.000172435
-2.92723e-05
0.000223342
-4.80953e-05
0.000242013
-6.97294e-05
0.000237752
-9.33925e-05
0.00021768
-0.000118424
0.000187052
-0.000144249
0.000149605
-0.000170355
0.000107896
-0.000196264
6.36138e-05
-0.000221524
1.78364e-05
-0.000245699
-2.87628e-05
-0.000268367
-7.5765e-05
-0.000289121
-0.000122903
-0.000307579
-0.000169998
-0.000323392
-0.000216915
-0.000336262
-0.000263553
-0.000345958
-0.000309828
-0.00035234
-0.000355679
-0.000355381
-0.000401066
-0.00035519
-0.000445979
-0.000352033
-0.000490433
-0.000346353
-0.000534483
-0.000338798
-0.000578278
-0.000622034
-0.000330247
-3.59173e-06
8.10405e-05
-1.30179e-05
0.000181861
-2.71862e-05
0.00023751
-4.5124e-05
0.000259951
-6.59644e-05
0.000258592
-8.89485e-05
0.000240664
-0.000113412
0.000211516
-0.000138767
0.000174959
-0.000164477
0.000133606
-0.000190047
8.91842e-05
-0.000215007
4.27964e-05
-0.000238905
-4.86536e-06
-0.000261302
-5.33677e-05
-0.000281779
-0.000102427
-0.000299936
-0.00015184
-0.000315413
-0.000201439
-0.000327895
-0.00025107
-0.000337143
-0.00030058
-0.000343011
-0.00034981
-0.000345478
-0.000398599
-0.00034467
-0.000446786
-0.000340888
-0.000494215
-0.000334623
-0.000540748
-0.000326589
-0.000586312
-0.000630885
-0.000317738
-3.0634e-06
8.4104e-05
-1.14023e-05
0.0001902
-2.4235e-05
0.000250343
-4.07699e-05
0.000276486
-6.02346e-05
0.000278057
-8.19093e-05
0.000262338
-0.000105138
0.000234744
-0.000129324
0.000199145
-0.00015392
0.000158203
-0.000178421
0.000113685
-0.000202346
6.67217e-05
-0.000225239
1.8027e-05
-0.000246657
-3.19488e-05
-0.00026618
-8.29046e-05
-0.000283406
-0.000134614
-0.000297968
-0.000186876
-0.000309551
-0.000239488
-0.000317907
-0.000292224
-0.000322887
-0.00034483
-0.000324468
-0.000397018
-0.000322783
-0.000448471
-0.00031815
-0.000498848
-0.000311092
-0.000547805
-0.000302375
-0.000595028
-0.000640247
-0.000293014
-2.41498e-06
8.65189e-05
-9.37567e-06
0.000197161
-2.04554e-05
0.000261423
-3.50763e-05
0.000291107
-5.25838e-05
0.000295564
-7.23142e-05
0.000282069
-9.36315e-05
0.000256062
-0.000115942
0.000221455
-0.000138695
0.000180957
-0.000161382
0.000136371
-0.000183524
8.8864e-05
-0.00020467
3.91723e-05
-0.000224386
-1.22323e-05
-0.000242262
-6.50293e-05
-0.000257906
-0.000118969
-0.000270961
-0.000173821
-0.000281114
-0.000229335
-0.000288116
-0.000285222
-0.000291813
-0.000341134
-0.000292168
-0.000396663
-0.000289306
-0.000451333
-0.000283537
-0.000504617
-0.000275394
-0.000555949
-0.000265668
-0.000604754
-0.000650494
-0.000255421
-1.66409e-06
8.8183e-05
-6.98647e-06
0.000202483
-1.59289e-05
0.000270365
-2.81542e-05
0.000303332
-4.31476e-05
0.000310558
-6.03185e-05
0.00029924
-7.90643e-05
0.000274807
-9.88041e-05
0.000241195
-0.000118994
0.000201147
-0.000139129
0.000156507
-0.000158742
0.000108477
-0.000177394
5.78249e-05
-0.000194674
5.04787e-06
-0.000210192
-4.95118e-05
-0.000223579
-0.000105582
-0.000234497
-0.000162903
-0.000242643
-0.000221188
-0.000247774
-0.000280091
-0.000249722
-0.000339186
-0.000248431
-0.000397954
-0.000243993
-0.000455771
-0.000236686
-0.000511924
-0.000227016
-0.000565619
-0.000215769
-0.000616001
-0.000662226
-0.000204037
-8.34728e-07
8.90178e-05
-4.30476e-06
0.000205953
-1.07788e-05
0.000276839
-2.01795e-05
0.000312733
-3.21507e-05
0.000322529
-4.61913e-05
0.00031328
-6.17455e-05
0.000290362
-7.82562e-05
0.000257706
-9.51936e-05
0.000218084
-0.000112067
0.00017338
-0.000128424
0.000124834
-0.000143851
7.3252e-05
-0.000157964
1.91601e-05
-0.000170402
-3.70737e-05
-0.000180829
-9.51542e-05
-0.000188935
-0.000154798
-0.000194437
-0.000215686
-0.000197096
-0.000277432
-0.000196734
-0.000339549
-0.000193262
-0.000401425
-0.000186721
-0.000462312
-0.000177325
-0.00052132
-0.000165519
-0.000577425
-0.000152046
-0.000629475
-0.000676266
-0.000138006
4.33699e-08
8.89744e-05
-1.41983e-06
0.000207416
-5.16624e-06
0.000280586
-1.13883e-05
0.000318955
-1.99022e-05
0.000331043
-3.03112e-05
0.000323689
-4.21192e-05
0.00030217
-5.48036e-05
0.00027039
-6.78574e-05
0.000231138
-8.08094e-05
0.000186332
-9.32313e-05
0.000137256
-0.000104736
8.47563e-05
-0.00011497
2.93949e-05
-0.000123613
-2.84308e-05
-0.000130366
-8.84019e-05
-0.000134949
-0.000150214
-0.000137108
-0.000213527
-0.000136613
-0.000277928
-0.000133273
-0.000342888
-0.000126964
-0.000407734
-0.00011766
-0.000471617
-0.000105486
-0.000533494
-9.07893e-05
-0.000592122
-7.42348e-05
-0.000646029
-0.000693594
-5.6907e-05
9.36538e-07
8.80378e-05
1.56463e-06
0.000206788
7.17183e-07
0.000281433
-2.06657e-06
0.000321739
-6.78345e-06
0.00033576
-1.31526e-05
0.000330058
-2.07498e-05
0.000309767
-2.90975e-05
0.000278738
-3.77193e-05
0.00023976
-4.61698e-05
0.000194782
-5.40466e-05
0.000145133
-6.09924e-05
9.17021e-05
-6.66897e-05
3.50922e-05
-7.08541e-05
-2.42664e-05
-7.32263e-05
-8.60297e-05
-7.35653e-05
-0.000149875
-7.16438e-05
-0.000215449
-6.72469e-05
-0.000282325
-6.0178e-05
-0.000349957
-5.02742e-05
-0.000417638
-3.7438e-05
-0.000484453
-2.16916e-05
-0.00054924
-3.25823e-06
-0.000610555
1.73094e-05
-0.000666597
-0.000715248
3.89633e-05
1.8093e-06
8.62286e-05
4.5364e-06
0.000204061
6.65989e-06
0.00027931
7.46381e-06
0.000320935
6.76969e-06
0.000336454
4.73436e-06
0.000332094
1.69982e-06
0.000312801
-1.91072e-06
0.000282348
-5.65908e-06
0.000243508
-9.1302e-06
0.000198253
-1.19503e-05
0.000147953
-1.37917e-05
9.35435e-05
-1.437e-05
3.56705e-05
-1.34366e-05
-2.51998e-05
-1.07695e-05
-8.86967e-05
-6.16385e-06
-0.000154481
5.77467e-07
-0.00022219
9.65028e-06
-0.000291397
2.12517e-05
-0.000361558
3.55735e-05
-0.00043196
5.27782e-05
-0.000501657
7.29488e-05
-0.000569411
9.59979e-05
-0.000633604
0.000121509
-0.000692107
-0.000742227
0.000148488
2.62661e-06
8.36019e-05
7.38157e-06
0.000199306
1.24424e-05
0.000274249
1.68629e-05
0.000316514
2.02895e-05
0.000333027
2.27518e-05
0.000329632
2.45018e-05
0.000311051
2.59001e-05
0.00028095
2.73399e-05
0.000242068
2.9202e-05
0.000196391
3.18308e-05
0.000145324
3.55259e-05
8.98484e-05
4.05428e-05
3.06536e-05
4.70998e-05
-3.17567e-05
5.5387e-05
-9.69839e-05
6.55779e-05
-0.000164671
7.78407e-05
-0.000234453
9.23494e-05
-0.000305906
0.000109293
-0.000378502
0.000128877
-0.000451544
0.000151313
-0.000524093
0.000176772
-0.00059487
0.000205299
-0.000662131
0.000236621
-0.000723429
-0.00077542
0.000269813
3.35617e-06
8.02458e-05
9.99176e-06
0.000192671
1.7851e-05
0.00026639
2.57929e-05
0.000308573
3.3304e-05
0.000325516
4.02884e-05
0.000322647
4.6904e-05
0.000304436
5.34423e-05
0.000274412
6.02462e-05
0.000235264
6.76592e-05
0.000188978
7.59963e-05
0.000136987
8.55321e-05
8.03126e-05
9.64992e-05
1.96865e-05
0.000109093
-4.43504e-05
0.00012348
-0.000111371
0.00013981
-0.000181001
0.000158226
-0.000252869
0.00017888
-0.00032656
0.000201942
-0.000401564
0.000227617
-0.000477218
0.000256134
-0.00055261
0.000287727
-0.000626463
0.000322544
-0.000696948
0.000360452
-0.000761337
-0.000815569
0.000400601
3.97043e-06
7.62753e-05
1.22711e-05
0.00018437
2.26913e-05
0.000255969
3.39405e-05
0.000297323
4.53674e-05
0.000314089
5.67589e-05
0.000311256
6.81787e-05
0.000293016
7.98457e-05
0.000262745
9.20492e-05
0.000223061
0.000105093
0.000175934
0.000119265
0.000122815
0.000134818
6.47596e-05
0.000151969
2.53595e-06
0.000170898
-6.32799e-05
0.00019176
-0.000132233
0.000214688
-0.000203929
0.000239806
-0.000277988
0.000267244
-0.000353998
0.000297148
-0.000431469
0.000329697
-0.000509767
0.000365111
-0.000588024
0.000403641
-0.000664993
0.000445499
-0.000738807
0.000490666
-0.000806504
-0.00086327
0.000538367
4.44839e-06
7.1827e-05
1.41425e-05
0.000174676
2.68017e-05
0.00024331
4.10376e-05
0.000283088
5.60908e-05
0.000299036
7.1645e-05
0.000295701
8.76745e-05
0.000276987
0.000104326
0.000246093
0.000121835
0.000205552
0.000140467
0.000157302
0.000160482
0.0001028
0.000182118
4.31235e-05
0.000205582
-2.09288e-05
0.000231052
-8.87498e-05
0.000258676
-0.000159857
0.000288581
-0.000233834
0.000320878
-0.000310285
0.000355675
-0.000388795
0.000393084
-0.000468877
0.00043324
-0.000549923
0.000476317
-0.000631102
0.000522536
-0.000711212
0.000572119
-0.00078839
0.000625116
-0.000859501
-0.000918977
0.000680823
4.77679e-06
6.70502e-05
1.55529e-05
0.0001639
3.00646e-05
0.000228798
4.68819e-05
0.00026627
6.51723e-05
0.000280746
8.45362e-05
0.000276337
0.000104869
0.000256654
0.000126252
0.000224711
0.000148867
0.000182937
0.000172944
0.000133225
0.000198723
7.70213e-05
0.000226432
1.54148e-05
0.000256276
-5.07728e-05
0.000288435
-0.000120908
0.00032306
-0.000194482
0.000360278
-0.000271052
0.00040019
-0.000350198
0.000442878
-0.000431483
0.00048841
-0.000514409
0.000536855
-0.000598368
0.000588307
-0.000682554
0.000642904
-0.000765808
0.000700814
-0.0008463
0.000762105
-0.000920791
-0.000983
0.000826128
4.95093e-06
6.20992e-05
1.64769e-05
0.000152374
3.24155e-05
0.00021286
5.13527e-05
0.000247333
7.24219e-05
0.000259676
9.5166e-05
0.000253593
0.000119418
0.000232402
0.000145201
0.000198928
0.000172655
0.000155482
0.000201981
0.000103899
0.000233403
4.55998e-05
0.000267144
-1.83271e-05
0.000303417
-8.70455e-05
0.000342408
-0.0001599
0.000384277
-0.000236351
0.000429149
-0.000315923
0.000477109
-0.000398159
0.000528207
-0.00048258
0.000582448
-0.00056865
0.000639814
-0.000655734
0.000700281
-0.000743021
0.000763854
-0.000829381
0.000830585
-0.000913031
0.000900494
-0.0009907
-0.00105548
0.000972977
4.97494e-06
5.71243e-05
1.69188e-05
0.00014043
3.38485e-05
0.00019593
5.44227e-05
0.000226759
7.77817e-05
0.000236317
0.000103441
0.000227935
0.000131191
0.000204652
0.000161015
0.000169103
0.000193023
0.000123475
0.000227394
6.95281e-05
0.000264346
8.64728e-06
0.000304108
-5.80888e-05
0.000346899
-0.000129836
0.000392915
-0.000205916
0.000442319
-0.000285755
0.000495228
-0.000368831
0.000551699
-0.00045463
0.000611725
-0.000542607
0.000675232
-0.000632157
0.000742079
-0.000722582
0.000812091
-0.000813032
0.000885092
-0.000902382
0.000960962
-0.000988902
0.00103961
-0.00106935
-0.00113634
0.00112048
4.86167e-06
5.22626e-05
1.69129e-05
0.000128379
3.44192e-05
0.000178424
5.61638e-05
0.000205014
8.1336e-05
0.000211145
0.000109456
0.000199815
0.000140299
0.000173809
0.000173829
0.000135573
0.000210139
8.71652e-05
0.000249403
3.02641e-05
0.000291841
-3.37905e-05
0.000337688
-0.000103936
0.000387174
-0.000179321
0.000440497
-0.000259239
0.00049781
-0.000343069
0.000559201
-0.000430222
0.000624672
-0.000520101
0.000694132
-0.000612067
0.000767389
-0.000705413
0.000844149
-0.000799342
0.000924047
-0.000892931
0.0010067
-0.00098503
0.00109176
-0.00107396
0.00117899
-0.00115658
-0.00122519
0.00126783
4.6321e-06
4.76305e-05
1.65227e-05
0.000116488
3.42425e-05
0.000160704
5.67464e-05
0.000182511
8.33129e-05
0.000184579
0.000113501
0.000169626
0.000147101
0.000140209
0.000184078
9.85949e-05
0.00022453
4.67132e-05
0.000268638
-1.38432e-05
0.000316629
-8.17821e-05
0.000368748
-0.000156056
0.000425224
-0.000235797
0.000486241
-0.000320257
0.000551917
-0.000408744
0.000622274
-0.000500579
0.000697223
-0.000595049
0.000776543
-0.000691388
0.000859883
-0.000788752
0.000946759
-0.000886218
0.00103659
-0.000982761
0.00112875
-0.00107719
0.00122266
-0.00116787
0.0013179
-0.00125183
-0.00132123
0.00141394
4.31439e-06
4.33161e-05
1.58369e-05
0.000104966
3.34872e-05
0.000143054
5.64311e-05
0.000159567
8.40732e-05
0.000156937
0.000116046
0.000137654
0.000152182
0.000104073
0.000192477
5.82999e-05
0.000237048
2.1422e-06
0.000286093
-6.28884e-05
0.000339852
-0.000135541
0.000398566
-0.00021477
0.000462445
-0.000299676
0.000531629
-0.00038944
0.000606157
-0.000483272
0.000685941
-0.000580363
0.000770744
-0.000679853
0.000860168
-0.000780812
0.000953653
-0.000882238
0.00105049
-0.000983059
0.00114987
-0.00108214
0.00125093
-0.00117824
0.00135285
-0.0012698
0.00145505
-0.00135402
-0.00142319
0.00155701
3.94242e-06
3.93737e-05
1.49654e-05
9.39426e-05
3.23661e-05
0.000125653
5.55522e-05
0.000136381
8.40871e-05
0.000128402
0.000117708
0.000104033
0.000156318
6.54624e-05
0.000199964
1.46539e-05
0.000248798
-4.66916e-05
0.000303039
-0.000117129
0.000362926
-0.000195429
0.000428681
-0.000280525
0.000500458
-0.000371452
0.000578304
-0.000467286
0.000662128
-0.000567096
0.00075167
-0.000669905
0.000846484
-0.000774667
0.000945941
-0.000880269
0.00104924
-0.000985532
0.00115541
-0.00108924
0.00126342
-0.00119015
0.00137218
-0.001287
0.00148069
-0.00137831
0.00158823
-0.00146157
-0.00152929
0.00169433
3.55384e-06
3.58199e-05
1.40315e-05
8.34649e-05
3.11213e-05
0.000108563
5.44948e-05
0.000113007
8.38997e-05
9.89968e-05
0.000119204
6.87284e-05
0.000160406
2.42605e-05
0.000207617
-3.2557e-05
0.00026103
-0.000100104
0.000320875
-0.000176974
0.000387375
-0.000261928
0.000460687
-0.000353838
0.000540863
-0.000451628
0.000627797
-0.000554221
0.000721201
-0.000660499
0.000820574
-0.000769278
0.000925207
-0.0008793
0.00103419
-0.000989252
0.00114644
-0.00109778
0.00126076
-0.00120356
0.00137588
-0.00130527
0.00149054
-0.00140166
0.00160365
-0.00149142
0.00171441
-0.00157233
-0.00163728
0.0018224
3.18758e-06
3.26323e-05
1.31638e-05
7.34887e-05
3.00071e-05
9.17198e-05
5.36641e-05
8.935e-05
8.40852e-05
6.85757e-05
0.000121288
3.15253e-05
0.000165379
-1.98304e-05
0.00021654
-8.3718e-05
0.000274997
-0.000158561
0.00034097
-0.000242947
0.000414622
-0.00033558
0.000495999
-0.000435215
0.000584982
-0.000540611
0.000681246
-0.000650484
0.00078423
-0.000763483
0.000893136
-0.000878184
0.00100694
-0.000993102
0.00112442
-0.00110673
0.00124421
-0.00121758
0.00136488
-0.00132423
0.00148499
-0.00142537
0.00160318
-0.00151986
0.00171835
-0.00160658
0.00182972
-0.0016837
-0.00174453
0.00193698
2.88097e-06
2.97513e-05
1.24864e-05
6.38833e-05
2.92691e-05
7.49371e-05
5.34523e-05
6.51669e-05
8.5197e-05
3.6831e-05
0.000124679
-7.95673e-06
0.000172114
-6.72656e-05
0.000227747
-0.00013935
0.000291811
-0.000222625
0.000364479
-0.000315615
0.000445798
-0.000416899
0.000535637
-0.000525053
0.000633634
-0.000638608
0.000739169
-0.00075602
0.000851354
-0.000875667
0.00096904
-0.00099587
0.00109086
-0.00111492
0.00121529
-0.00123116
0.0013407
-0.00134299
0.00146544
-0.00144897
0.00158795
-0.00154788
0.00170682
-0.00163873
0.00182097
-0.00172073
0.00192983
-0.00179255
-0.00184812
0.00203341
2.66682e-06
2.70845e-05
1.21088e-05
5.44413e-05
2.9125e-05
5.79209e-05
5.4205e-05
4.00868e-05
8.7718e-05
3.31804e-06
0.000129993
-5.02315e-05
0.000181343
-0.000118616
0.000242048
-0.000200056
0.000312312
-0.000292889
0.0003922
-0.000395503
0.000481579
-0.000506278
0.000580064
-0.000623538
0.00068698
-0.000745524
0.000801349
-0.00087039
0.000921908
-0.000996226
0.00104714
-0.00112111
0.00117536
-0.00124314
0.00130476
-0.00136055
0.00143351
-0.00147174
0.00155987
-0.00157532
0.00168219
-0.00167021
0.00179904
-0.00175558
0.0019091
-0.00183079
0.00201112
-0.00189457
-0.00194312
0.00210612
2.57046e-06
2.4514e-05
1.21176e-05
4.48942e-05
2.97466e-05
4.02919e-05
5.61936e-05
1.36399e-05
9.20197e-05
-3.25081e-05
0.000137688
-9.59002e-05
0.000193581
-0.000174509
0.000259973
-0.000266447
0.000336976
-0.000369893
0.000424483
-0.00048301
0.000522103
-0.000603898
0.000629123
-0.000730558
0.000744491
-0.000860891
0.000866829
-0.000992728
0.000994481
-0.00112388
0.00112558
-0.00125221
0.00125816
-0.00137572
0.00139023
-0.00149262
0.00151987
-0.00160138
0.00164537
-0.00170082
0.00176524
-0.00179008
0.00187828
-0.00186862
0.00198363
-0.00193614
0.00208149
-0.00199243
-0.00203562
0.00217399
2.60932e-06
2.19047e-05
1.25717e-05
3.49318e-05
3.12502e-05
2.16135e-05
5.95957e-05
-1.47056e-05
9.8334e-05
-7.12463e-05
0.000148029
-0.000145595
0.000209086
-0.000235565
0.000281714
-0.000339075
0.000365867
-0.000454047
0.000461186
-0.000578329
0.000566946
-0.000709658
0.00068204
-0.000845652
0.000804992
-0.000983844
0.000934009
-0.00112174
0.00106706
-0.00125693
0.00120198
-0.00138713
0.00133659
-0.00151033
0.00146882
-0.00162485
0.00159679
-0.00172936
0.00171893
-0.00182296
0.00183399
-0.00190515
0.00194115
-0.00197577
0.00204003
-0.00203502
0.00213085
-0.00208326
-0.00211929
0.00221452
2.79028e-06
1.91144e-05
1.34981e-05
2.42239e-05
3.36891e-05
1.42244e-06
6.44887e-05
-4.55052e-05
0.000106746
-0.000113504
0.000161078
-0.000199926
0.000227852
-0.00030234
0.000307143
-0.000418366
0.000398667
-0.000545571
0.000501732
-0.000681393
0.00061521
-0.000823136
0.000737552
-0.000967994
0.000866839
-0.00111313
0.00100088
-0.00125578
0.00113731
-0.00139336
0.00127375
-0.00152357
0.00140794
-0.00164452
0.00153783
-0.00175473
0.00166169
-0.00185323
0.0017782
-0.00193947
0.00188641
-0.00201336
0.00198582
-0.00207518
0.0020763
-0.0021255
0.00215806
-0.00216501
-0.00219323
0.002232
3.11179e-06
1.60026e-05
1.48951e-05
1.24407e-05
3.70595e-05
-2.0742e-05
7.08554e-05
-7.93011e-05
0.000117203
-0.000159852
0.000176711
-0.000259434
0.000249639
-0.000375268
0.000335845
-0.000504572
0.000434724
-0.00064445
0.000545179
-0.000791848
0.000665626
-0.000943582
0.000794047
-0.00109641
0.000928092
-0.00124718
0.00106521
-0.0013929
0.00120281
-0.00153096
0.00133842
-0.00165917
0.00146978
-0.00177588
0.00159501
-0.00187997
0.00171267
-0.00197088
0.00182172
-0.00204852
0.00192163
-0.00211326
0.00201224
-0.00216579
0.00209376
-0.00220702
0.00216671
-0.00223797
-0.0022588
0.00223228
3.56522e-06
1.24374e-05
1.67371e-05
-7.31226e-07
4.1309e-05
-4.53139e-05
7.85995e-05
-0.000116592
0.000129538
-0.000210791
0.000194653
-0.000324548
0.000274014
-0.00045463
0.000367179
-0.000597736
0.000473142
-0.000750413
0.00059034
-0.000909046
0.000716697
-0.00106994
0.000849733
-0.00122945
0.000986712
-0.00138416
0.00112482
-0.00153101
0.00126134
-0.00166748
0.00139381
-0.00179164
0.00152015
-0.00190223
0.00163876
-0.00199859
0.00174854
-0.00208065
0.00184886
-0.00214884
0.00193956
-0.00220396
0.00202086
-0.00224709
0.0020933
-0.00227946
0.00215765
-0.00230232
-0.00231628
0.00221513
4.13723e-06
8.30019e-06
1.89819e-05
-1.55759e-05
4.63502e-05
-7.26822e-05
8.75667e-05
-0.000157808
0.0001435
-0.000266724
0.000214516
-0.000395564
0.00030041
-0.000540524
0.000400352
-0.000697679
0.000512869
-0.000862931
0.000635885
-0.00103206
0.000766829
-0.00120088
0.000902794
-0.00136542
0.00104074
-0.0015221
0.0011777
-0.00166797
0.00131096
-0.00180074
0.00143823
-0.00191891
0.00155771
-0.00202171
0.00166818
-0.00210905
0.00176892
-0.0021814
0.00185976
-0.00223968
0.00194091
-0.00228512
0.00201293
-0.00231912
0.00207663
-0.00234316
0.00213298
-0.00235867
-0.00236654
0.00218325
4.81231e-06
3.48788e-06
2.15777e-05
-3.23413e-05
5.20746e-05
-0.000103179
9.75664e-05
-0.0002033
0.000158782
-0.00032794
0.000235841
-0.000472623
0.000328175
-0.000632857
0.000434488
-0.000803992
0.000552781
-0.000981223
0.000680448
-0.00115973
0.000814447
-0.00133488
0.000951521
-0.00150249
0.00108843
-0.00165901
0.0012222
-0.00180173
0.00135025
-0.00192879
0.00147057
-0.00203924
0.00158177
-0.00213291
0.00168304
-0.00221031
0.00177413
-0.00227248
0.00185524
-0.00232079
0.00192695
-0.00235683
0.0019901
-0.00238227
0.00204568
-0.00239875
0.00209479
-0.00240777
-0.0024104
0.00213865
5.57493e-06
-2.08705e-06
2.44699e-05
-5.12363e-05
5.83648e-05
-0.000137074
0.00010839
-0.000253325
0.000175053
-0.000394603
0.000258136
-0.000555706
0.00035662
-0.000731341
0.000468676
-0.000916048
0.000591744
-0.00110429
0.0007227
-0.00129068
0.00085809
-0.00147027
0.000994407
-0.00163881
0.00112835
-0.00179296
0.00125706
-0.00193044
0.00137826
-0.00204998
0.00149031
-0.00215129
0.00159227
-0.00223487
0.00168379
-0.00230184
0.00176505
-0.00235374
0.00183662
-0.00239236
0.00189936
-0.00241957
0.00195432
-0.00243722
0.00200259
-0.00244702
0.00204532
-0.0024505
-0.00244876
0.00208368
6.41084e-06
-8.4979e-06
2.76052e-05
-7.24306e-05
6.51023e-05
-0.000174571
0.000119824
-0.000308047
0.00019197
-0.000466749
0.000280893
-0.00064463
0.000385047
-0.000835494
0.000502016
-0.00103302
0.000628674
-0.00123095
0.000761417
-0.00142343
0.000896477
-0.00160533
0.00103022
-0.00177255
0.00115944
-0.00192218
0.00128152
-0.00205252
0.00139458
-0.00216304
0.00149745
-0.00225416
0.00158966
-0.00232708
0.00167131
-0.00238349
0.00174298
-0.0024254
0.00180552
-0.0024549
0.00186001
-0.00247406
0.0019076
-0.00248481
0.00194945
-0.00248887
0.00198667
-0.00248772
-0.00248243
0.00202034
7.30773e-06
-1.58056e-05
3.09337e-05
-9.60565e-05
7.21719e-05
-0.000215809
0.000131656
-0.000367531
0.000209188
-0.00054428
0.000303608
-0.000739049
0.00041277
-0.000944656
0.000533648
-0.0011539
0.000662568
-0.00135987
0.000795528
-0.00155639
0.00092856
-0.00173836
0.00105806
-0.00190205
0.00118103
-0.00204515
0.00129524
-0.00216673
0.00139927
-0.00226707
0.00149247
-0.00234736
0.00157484
-0.00240944
0.00164687
-0.00245553
0.00170946
-0.00248799
0.0017637
-0.00250914
0.00181077
-0.00252114
0.00185189
-0.00252593
0.00188819
-0.00252517
0.00192072
-0.00252025
-0.00251215
0.00195044
8.25494e-06
-2.40606e-05
3.44088e-05
-0.00012221
7.94618e-05
-0.000260862
0.000143677
-0.000431746
0.000226369
-0.000626972
0.000325784
-0.000838465
0.000439133
-0.001058
0.000562774
-0.00127754
0.000692541
-0.00148964
0.000824143
-0.00168799
0.000953551
-0.00186777
0.00107733
-0.00202583
0.00119283
-0.00216065
0.00129829
-0.0022722
0.00139281
-0.00236159
0.00147623
-0.00243078
0.00154898
-0.00248219
0.00161191
-0.00251846
0.00166614
-0.00254222
0.0017129
-0.00255589
0.00175344
-0.00256168
0.00178895
-0.00256144
0.00182051
-0.00255673
0.00184907
-0.0025488
-0.00253854
0.00187546
9.24287e-06
-3.33034e-05
3.79859e-05
-0.000150953
8.68623e-05
-0.000309739
0.000155679
-0.000500563
0.000243177
-0.000714471
0.000346946
-0.000942233
0.000463521
-0.00117458
0.00058868
-0.0014027
0.000717853
-0.00161881
0.000846586
-0.00181672
0.00097094
-0.00199212
0.00108778
-0.00214266
0.00119491
-0.00226778
0.0012911
-0.00236839
0.00137597
-0.00244646
0.00144981
-0.00250462
0.00151343
-0.00254581
0.00156795
-0.00257298
0.00161463
-0.0025889
0.00165478
-0.00259604
0.00168964
-0.00259654
0.00172034
-0.00259214
0.00174786
-0.00258425
0.00177303
-0.00257398
-0.00256208
0.00179658
1.02622e-05
-4.35656e-05
4.16206e-05
-0.000182312
9.42633e-05
-0.000362381
0.000167455
-0.000573755
0.000259287
-0.000806303
0.000366638
-0.00104958
0.000485376
-0.00129332
0.000610757
-0.00152808
0.000737924
-0.00174598
0.000862403
-0.0019412
0.000980488
-0.00211021
0.00108946
-0.00225164
0.00118765
-0.00236598
0.00127437
-0.00245511
0.00134973
-0.00252181
0.00141443
-0.00256932
0.00146957
-0.00260095
0.00151645
-0.00261986
0.00155643
-0.00262887
0.0015908
-0.00263041
0.00162075
-0.00262649
0.00164732
-0.00261871
0.00167139
-0.00260832
0.00169367
-0.00259626
-0.00258315
0.00171474
1.13029e-05
-5.48685e-05
4.52666e-05
-0.000216275
0.000101553
-0.000418668
0.000178801
-0.000651003
0.000274382
-0.000901884
0.000384441
-0.00115964
0.00050421
-0.00141309
0.000628514
-0.00165238
0.000752347
-0.00186981
0.000871361
-0.00206022
0.000982208
-0.00222106
0.00108268
-0.0023521
0.00117165
-0.00245495
0.00124897
-0.00253243
0.00131519
-0.00258803
0.00137134
-0.00262548
0.00141875
-0.00264836
0.0014588
-0.00265991
0.00149287
-0.00266294
0.00152222
-0.00265976
0.00154794
-0.00265221
0.00157096
-0.00264173
0.00159204
-0.00262939
0.00161177
-0.002616
-0.00260202
0.00163064
1.23543e-05
-6.72228e-05
4.88755e-05
-0.000252797
0.000108616
-0.000478408
0.000189511
-0.000731897
0.000288162
-0.00100054
0.000399978
-0.00127146
0.000519616
-0.00153273
0.000641593
-0.00177436
0.000760893
-0.00198911
0.000873435
-0.00217276
0.000976333
-0.00232395
0.00106793
-0.0024437
0.00114768
-0.0025347
0.00121589
-0.00260064
0.00127349
-0.00264564
0.00132179
-0.00267378
0.00136222
-0.00268879
0.00139622
-0.00269391
0.00142512
-0.00269185
0.0014501
-0.00268474
0.00147215
-0.00267426
0.00149208
-0.00266165
0.00151052
-0.00264784
0.00152798
-0.00263346
-0.00261887
0.00154483
1.3404e-05
-8.06267e-05
5.23961e-05
-0.000291789
0.000115337
-0.000541349
0.000199388
-0.000815948
0.00030035
-0.0011015
0.000412924
-0.00138403
0.000531284
-0.00165109
0.000649769
-0.00189284
0.000763501
-0.00210284
0.000868786
-0.00227804
0.000963273
-0.00241844
0.00104588
-0.00252631
0.00111659
-0.0026054
0.00117614
-0.00266019
0.00122576
-0.00269526
0.00126692
-0.00271493
0.00130111
-0.00272298
0.00132977
-0.00272257
0.00135415
-0.00271622
0.00137531
-0.00270591
0.00139414
-0.00269309
0.00141132
-0.00267883
0.00142739
-0.0026639
0.00144275
-0.00264882
-0.00263383
0.0014577
1.44387e-05
-9.50654e-05
5.57751e-05
-0.000333125
0.0001216
-0.000607174
0.000208246
-0.000902594
0.000310702
-0.00120395
0.000423019
-0.00149635
0.000539
-0.00176707
0.000652952
-0.00200679
0.000760264
-0.00221015
0.000857728
-0.00237551
0.000943569
-0.00250428
0.00101727
-0.00260001
0.00107929
-0.00266742
0.00113073
-0.00271162
0.00117303
-0.00273756
0.00120775
-0.00274966
0.00123641
-0.00275164
0.00126035
-0.00274652
0.00128075
-0.00273662
0.00129854
-0.0027237
0.00131449
-0.00270904
0.00132918
-0.00269352
0.00134305
-0.00267778
0.00135643
-0.0026622
-0.00264695
0.00136955
1.5444e-05
-0.000110509
5.89585e-05
-0.00037664
0.000127294
-0.00067551
0.000215913
-0.000991213
0.000319012
-0.00130705
0.000430071
-0.00160741
0.000542655
-0.00187965
0.000651174
-0.00211531
0.000751407
-0.00231038
0.000840694
-0.0024648
0.000917852
-0.00258144
0.000982895
-0.00266506
0.00103669
-0.00272122
0.00108062
-0.00275555
0.00111625
-0.0027732
0.00114521
-0.00277861
0.00116893
-0.00277536
0.0011887
-0.00276628
0.00120555
-0.00275347
0.00122033
-0.00273847
0.00123366
-0.00272237
0.00124605
-0.00270591
0.00125784
-0.00268957
0.0012693
-0.00267366
-0.00265825
0.0012806
1.64051e-05
-0.000126915
6.1893e-05
-0.000422128
0.000132314
-0.000745931
0.000222241
-0.00108114
0.00032512
-0.00140993
0.000433964
-0.00171625
0.000542233
-0.00198792
0.000644578
-0.00221766
0.000737259
-0.00240307
0.000818203
-0.00254574
0.000886799
-0.00265004
0.000943542
-0.0027218
0.000989639
-0.00276732
0.00102666
-0.00279257
0.00105627
-0.00280281
0.00108005
-0.00280238
0.00109938
-0.00279469
0.00111541
-0.00278232
0.00112908
-0.00276714
0.0011411
-0.00275049
0.001152
-0.00273328
0.0011622
-0.0027161
0.00117198
-0.00269935
0.00118154
-0.00268322
-0.00266775
0.00119103
1.73068e-05
-0.000144221
6.45273e-05
-0.000469348
0.000136566
-0.00081797
0.000227108
-0.00117168
0.000328914
-0.00151174
0.000434649
-0.00182199
0.000537809
-0.00209108
0.0006334
-0.00231325
0.000718228
-0.00248789
0.00079082
-0.00261833
0.000851102
-0.00271032
0.000899981
-0.00277068
0.000938929
-0.00280627
0.000969645
-0.00282329
0.000993808
-0.00282698
0.00101294
-0.00282151
0.00102831
-0.00281007
0.00104097
-0.00279498
0.00105172
-0.00277789
0.00106118
-0.00275994
0.00106978
-0.00274188
0.00107786
-0.00272418
0.00108566
-0.00270714
0.00109332
-0.00269089
-0.0026754
0.00110098
1.81344e-05
-0.000162356
6.68141e-05
-0.000518028
0.000139969
-0.000891125
0.000230421
-0.00126213
0.000330331
-0.00161165
0.000432148
-0.00192381
0.000529533
-0.00218846
0.000617945
-0.00240166
0.000694774
-0.00256472
0.000759133
-0.00268269
0.000811436
-0.00276262
0.00085293
-0.00281217
0.00088528
-0.00283862
0.000910245
-0.00284825
0.000929476
-0.00284621
0.000944403
-0.00283644
0.000956192
-0.00282186
0.00096576
-0.00280455
0.000973798
-0.00278593
0.000980821
-0.00276696
0.0009872
-0.00274826
0.000993203
-0.00273019
0.000999018
-0.00271296
0.00100477
-0.00269664
-0.00268117
0.00101055
1.88737e-05
-0.000181229
6.87114e-05
-0.000567865
0.000142458
-0.000964872
0.000232117
-0.00135179
0.000329358
-0.00170889
0.000426543
-0.00202099
0.000517619
-0.00227954
0.000598568
-0.00248261
0.000667383
-0.00263354
0.000723729
-0.00273904
0.000768445
-0.00280734
0.000803046
-0.00284678
0.000829322
-0.00286489
0.000849042
-0.00286797
0.000863792
-0.00286096
0.000874891
-0.00284754
0.000883387
-0.00283035
0.000890075
-0.00281124
0.000895547
-0.0027914
0.00090023
-0.00277165
0.00090443
-0.00275246
0.000908365
-0.00273412
0.000912186
-0.00271678
0.000915991
-0.00270045
-0.00268503
0.00091985
1.95117e-05
-0.000200741
7.01832e-05
-0.000618537
0.000143983
-0.00103867
0.000232166
-0.00143998
0.000326024
-0.00180275
0.000417967
-0.00211293
0.000502327
-0.0023639
0.000575657
-0.00255594
0.000636549
-0.00269443
0.000685172
-0.00278766
0.000722722
-0.00284489
0.000750916
-0.00287497
0.000771606
-0.00288558
0.00078653
-0.0028829
0.00079718
-0.00287161
0.000804758
-0.00285512
0.000810188
-0.00283579
0.000814157
-0.00281521
0.000817163
-0.00279441
0.000819561
-0.00277405
0.000821601
-0.0027545
0.000823461
-0.00273598
0.000825261
-0.00271858
0.000827081
-0.00270227
-0.00268693
0.000828976
2.00369e-05
-0.000220778
7.12006e-05
-0.000669701
0.000144514
-0.00111199
0.000230567
-0.00152603