/*--------------------------------*- C++ -*----------------------------------*\
  =========                 |
  \\      /  F ield         | OpenFOAM: The Open Source CFD Toolbox
   \\    /   O peration     | Website:  https://openfoam.org
    \\  /    A nd           | Version:  6.0
     \\/     M anipulation  |
\*---------------------------------------------------------------------------*/
FoamFile
{
    version     2.0;
    format      ascii;
    class       volVectorField;
    location    "63";
    object      U;
}
// * * * * * * * * * * * * * * * * * * * * * * * * * * * * * * * * * * * * * //

dimensions      [0 1 -1 0 0 0 0];

internalField   nonuniform List<vector> 
12500
(
(0.000262375 -0.0364299 -1.00743e-21)
(-0.000549764 -0.0887161 1.30898e-20)
(-0.00337398 -0.125117 -1.88905e-20)
(-0.00752496 -0.149143 8.65039e-21)
(-0.0125352 -0.163732 5.41611e-22)
(-0.0180557 -0.171305 -1.10685e-21)
(-0.0237853 -0.173794 -1.56709e-20)
(-0.0294804 -0.172688 8.60638e-21)
(-0.0349547 -0.169093 5.63159e-21)
(-0.0400695 -0.163799 5.75605e-21)
(-0.0447257 -0.157336 -9.71703e-21)
(-0.0488564 -0.150037 5.66406e-21)
(-0.0524209 -0.142084 -2.66288e-21)
(-0.0554002 -0.133554 4.49622e-21)
(-0.0577942 -0.124449 -1.15036e-20)
(-0.0596196 -0.114725 1.67569e-20)
(-0.0609093 -0.104317 -3.25261e-21)
(-0.0617119 -0.0931503 -1.17519e-20)
(-0.0620917 -0.0811587 5.94113e-21)
(-0.0621277 -0.0682928 -5.68046e-21)
(-0.0619036 -0.0545294 5.13466e-21)
(-0.0615106 -0.0398783 6.9165e-21)
(-0.0611296 -0.0243877 6.63912e-22)
(-0.061068 -0.00813241 -1.95812e-20)
(-0.0609105 0.00881316 1.03001e-20)
(0.00127977 -0.0355094 1.6913e-20)
(0.00169797 -0.0862076 -4.39517e-20)
(-0.000610569 -0.121335 1.30676e-20)
(-0.00468339 -0.144398 8.64154e-21)
(-0.00988294 -0.158322 -6.90635e-21)
(-0.0157496 -0.165501 -3.89085e-20)
(-0.0219038 -0.167833 1.15971e-20)
(-0.0280495 -0.166771 -2.1705e-20)
(-0.0339671 -0.163388 2.60254e-20)
(-0.0394992 -0.158441 -3.47535e-20)
(-0.0445375 -0.152436 1.86476e-20)
(-0.0490126 -0.145679 5.84878e-21)
(-0.0528858 -0.138333 -1.51176e-20)
(-0.0561433 -0.130453 -6.79277e-21)
(-0.0587919 -0.122022 4.88505e-20)
(-0.0608563 -0.112976 -4.31175e-20)
(-0.0623777 -0.103225 1.01965e-20)
(-0.0634132 -0.092672 1.77918e-20)
(-0.0640356 -0.0812243 -4.34921e-21)
(-0.0643319 -0.0688056 2.90389e-20)
(-0.0643949 -0.0553658 5.10729e-21)
(-0.0643251 -0.0408908 -1.54317e-21)
(-0.0643015 -0.0254122 -3.61484e-20)
(-0.0646126 -0.0089977 3.34864e-20)
(-0.0649202 0.00829017 -6.31423e-20)
(0.00222843 -0.0343821 5.3434e-20)
(0.00377433 -0.0832444 1.80178e-20)
(0.00192066 -0.116977 -2.3152e-20)
(-0.00210056 -0.139042 9.77944e-21)
(-0.0074875 -0.152319 9.53418e-21)
(-0.0136745 -0.159157 3.55655e-20)
(-0.0202076 -0.161402 -4.49075e-20)
(-0.0267414 -0.160463 -6.97695e-21)
(-0.0330255 -0.157372 -2.98394e-20)
(-0.0388846 -0.152851 -2.49564e-20)
(-0.0442021 -0.147376 3.26625e-20)
(-0.0489064 -0.141231 -1.0814e-19)
(-0.052961 -0.134555 -3.07013e-21)
(-0.0563569 -0.127384 -6.45012e-20)
(-0.0591078 -0.119681 -7.5291e-21)
(-0.0612462 -0.111361 9.39713e-21)
(-0.0628219 -0.102312 -4.96339e-20)
(-0.0639008 -0.0924129 -3.09512e-20)
(-0.0645644 -0.0815444 -3.68861e-20)
(-0.0649086 -0.0696025 5.80334e-20)
(-0.0650363 -0.056509 2.13803e-20)
(-0.065058 -0.0422237 -9.26233e-20)
(-0.0651506 -0.0267578 -4.47598e-20)
(-0.0655834 -0.0101679 -4.92901e-20)
(-0.0661099 0.00749299 1.34544e-19)
(0.00309104 -0.0330589 -2.18904e-21)
(0.00563981 -0.0798552 -4.11936e-20)
(0.00416566 -0.112086 -1.89149e-20)
(0.000159548 -0.133126 1.15478e-20)
(-0.00542047 -0.145782 7.53008e-20)
(-0.011909 -0.152333 -3.43578e-20)
(-0.0187827 -0.154565 7.23112e-20)
(-0.0256504 -0.153829 6.84156e-20)
(-0.0322333 -0.151111 4.18232e-20)
(-0.0383398 -0.147097 -8.43406e-22)
(-0.0438453 -0.14223 8.39439e-20)
(-0.0486761 -0.136771 1.43434e-20)
(-0.0527975 -0.130836 6.37103e-20)
(-0.0562049 -0.124441 1.45544e-19)
(-0.0589182 -0.117529 -1.68516e-19)
(-0.0609775 -0.109996 2.52409e-19)
(-0.0624411 -0.101707 5.46493e-20)
(-0.0633841 -0.0925175 -1.19654e-19)
(-0.0638977 -0.0822804 -1.72532e-20)
(-0.0640874 -0.0708633 4.4242e-20)
(-0.0640679 -0.0581588 -2.12157e-20)
(-0.0639617 -0.0440981 -1.19183e-20)
(-0.0639435 -0.0286681 -1.19599e-20)
(-0.064265 -0.0119081 -4.94343e-20)
(-0.0647824 0.00613609 1.76217e-19)
(0.00385117 -0.0315504 2.68995e-20)
(0.00725729 -0.0760684 -1.26458e-19)
(0.00607397 -0.106702 1.52691e-19)
(0.00203751 -0.126699 -6.11712e-20)
(-0.00374816 -0.138763 7.22968e-20)
(-0.0105257 -0.145086 5.83572e-20)
(-0.0177086 -0.147376 2.2117e-20)
(-0.0248641 -0.146924 1.78559e-22)
(-0.0316876 -0.144662 1.24824e-19)
(-0.037973 -0.141237 8.57021e-20)
(-0.0435879 -0.137061 -3.53488e-20)
(-0.0484563 -0.132366 -2.24873e-20)
(-0.0525445 -0.12725 9.29588e-20)
(-0.0558517 -0.121707 1.76667e-20)
(-0.0584027 -0.115662 4.65863e-20)
(-0.0602449 -0.108991 1.12738e-19)
(-0.0614447 -0.101536 -9.871e-20)
(-0.0620866 -0.0931279 8.00809e-20)
(-0.0622721 -0.0835923 -1.68699e-19)
(-0.0621186 -0.0727674 1.41257e-19)
(-0.0617544 -0.0605145 5.60373e-22)
(-0.0613166 -0.0467341 -1.10249e-19)
(-0.0609803 -0.031384 4.59325e-20)
(-0.0609814 -0.0144802 1.0157e-19)
(-0.0612889 0.00393765 -1.48847e-19)
(0.0044932 -0.0298673 1.37162e-19)
(0.0085923 -0.0719112 -1.45724e-19)
(0.0075996 -0.100864 -2.44373e-20)
(0.0034801 -0.119806 2.91034e-20)
(-0.00252901 -0.13131 -6.42851e-20)
(-0.00958803 -0.137462 -1.00744e-19)
(-0.0170542 -0.139884 -8.30594e-20)
(-0.0244582 -0.139794 -2.00816e-20)
(-0.031473 -0.138071 -1.43616e-19)
(-0.0378791 -0.135318 1.115e-19)
(-0.0435373 -0.131914 -1.75873e-19)
(-0.0483687 -0.128068 8.76967e-20)
(-0.0523398 -0.123855 -3.06601e-20)
(-0.0554518 -0.11925 6.78268e-20)
(-0.0577339 -0.114161 -1.69703e-19)
(-0.0592388 -0.10844 7.99904e-20)
(-0.0600406 -0.101911 4.94936e-21)
(-0.0602332 -0.0943747 3.6067e-20)
(-0.0599296 -0.085631 2.15518e-19)
(-0.0592606 -0.0754858 4.56051e-20)
(-0.0583713 -0.0637672 -5.76751e-21)
(-0.0574169 -0.0503422 1.30813e-20)
(-0.0565765 -0.0351349 8.81848e-20)
(-0.0560748 -0.0181316 2.38724e-20)
(-0.0560029 0.00063268 7.96018e-20)
(0.00500248 -0.0280201 -8.5635e-20)
(0.00961348 -0.0674108 1.21489e-19)
(0.0087023 -0.0946103 7.29838e-21)
(0.00444242 -0.11249 -1.47814e-19)
(-0.00181066 -0.123467 3.07882e-19)
(-0.00914591 -0.129505 -1.00271e-19)
(-0.0168726 -0.132127 1.4478e-19)
(-0.0244906 -0.132475 1.33046e-19)
(-0.031654 -0.131369 -1.10248e-19)
(-0.0381318 -0.129368 -1.59603e-19)
(-0.0437785 -0.12682 4.33778e-20)
(-0.048512 -0.123907 -4.5433e-20)
(-0.0522978 -0.120686 -2.01636e-19)
(-0.0551376 -0.117115 2.42142e-19)
(-0.0570629 -0.11308 -1.15642e-19)
(-0.0581303 -0.108415 -7.98323e-20)
(-0.0584204 -0.102919 -6.41527e-22)
(-0.0580357 -0.096367 6.26187e-20)
(-0.0571013 -0.0885272 2.64007e-20)
(-0.0557632 -0.0791713 -1.03636e-19)
(-0.0541867 -0.068091 1.13892e-19)
(-0.05255 -0.0551158 -2.01605e-19)
(-0.0510416 -0.0401314 1.21102e-19)
(-0.0498816 -0.0230877 -9.35107e-20)
(-0.0492922 -0.00401766 2.54796e-20)
(0.00536548 -0.0260201 1.20277e-19)
(0.0102934 -0.0625953 -9.27118e-20)
(0.00934895 -0.0879779 -5.944e-20)
(0.00489008 -0.104792 -1.04362e-19)
(-0.00162689 -0.115274 -1.91494e-19)
(-0.00923227 -0.121251 -1.41865e-19)
(-0.0171967 -0.124137 8.70613e-20)
(-0.0249955 -0.12499 -1.32129e-19)
(-0.0322681 -0.124572 1.67974e-19)
(-0.0387743 -0.123398 -2.72528e-19)
(-0.0443633 -0.121784 1.20567e-19)
(-0.0489494 -0.11989 2.54219e-19)
(-0.0524957 -0.117752 -3.55487e-19)
(-0.0550031 -0.115312 5.03358e-20)
(-0.0565027 -0.112439 6.47052e-20)
(-0.0570533 -0.108948 6.30665e-20)
(-0.0567392 -0.104612 -6.91531e-20)
(-0.055671 -0.0991779 -1.84303e-20)
(-0.0539853 -0.0923782 -4.8035e-20)
(-0.051845 -0.0839463 -4.13745e-20)
(-0.0494389 -0.0736323 -2.1823e-19)
(-0.046973 -0.0612228 -1.37457e-20)
(-0.0446532 -0.0465584 1.60851e-21)
(-0.0427031 -0.0295464 -9.78149e-20)
(-0.0414871 -0.0102204 9.79473e-20)
(0.00557022 -0.02388 2.8397e-21)
(0.0106095 -0.0574952 3.80595e-20)
(0.00951529 -0.0810066 3.88662e-20)
(0.00480155 -0.0967547 2.37092e-20)
(-0.00199452 -0.106772 1.9233e-19)
(-0.00985881 -0.112733 1.79524e-19)
(-0.0180336 -0.115936 -1.4652e-19)
(-0.025977 -0.117354 -4.32387e-20)
(-0.0333181 -0.117685 -3.91743e-20)
(-0.0398106 -0.117402 2.02376e-19)
(-0.0452993 -0.116791 7.13028e-20)
(-0.0496952 -0.115991 -1.05767e-19)
(-0.0529582 -0.115022 -8.78092e-20)
(-0.055086 -0.113812 2.11862e-19)
(-0.0561076 -0.112215 -5.2093e-20)
(-0.0560806 -0.110025 -6.20634e-20)
(-0.055091 -0.10699 -8.65593e-20)
(-0.0532548 -0.102827 -6.63571e-20)
(-0.0507192 -0.097229 -8.32345e-20)
(-0.0476645 -0.0898839 -5.41601e-20)
(-0.0443056 -0.0804927 2.24771e-19)
(-0.0408822 -0.0687908 -1.09052e-19)
(-0.0376254 -0.0545644 7.302e-20)
(-0.0347745 -0.0376697 -1.90666e-19)
(-0.0328474 -0.0181446 7.85229e-20)
(0.00560675 -0.0216148 -1.05613e-19)
(0.0105453 -0.0521453 -2.6899e-20)
(0.00918773 -0.0737404 -2.14961e-19)
(0.00417059 -0.0884223 -1.02154e-19)
(-0.00291048 -0.0979992 -2.03266e-19)
(-0.0110125 -0.103982 -2.12257e-20)
(-0.0193605 -0.107545 1.08791e-19)
(-0.0274032 -0.109571 -6.50308e-20)
(-0.0347648 -0.110699 1.41873e-19)
(-0.0411959 -0.111355 -3.43058e-19)
(-0.0465388 -0.111801 -9.22328e-21)
(-0.0507014 -0.112156 6.04099e-20)
(-0.0536401 -0.11243 -7.64622e-20)
(-0.055348 -0.112539 6.85731e-20)
(-0.0558496 -0.112325 -5.17731e-20)
(-0.0551983 -0.111564 -1.09738e-19)
(-0.0534788 -0.109982 1.99235e-19)
(-0.0508092 -0.10726 1.21799e-19)
(-0.0473452 -0.103049 -2.54358e-20)
(-0.0432837 -0.0969827 7.76822e-20)
(-0.0388675 -0.088704 -1.53676e-19)
(-0.0343747 -0.0778841 2.19074e-19)
(-0.0300709 -0.0642414 -2.98233e-19)
(-0.0262257 -0.0475687 6.24177e-20)
(-0.023525 -0.0279092 -1.11565e-19)
(0.00546793 -0.0192428 5.51242e-21)
(0.0100919 -0.0465864 -9.04248e-20)
(0.00836523 -0.0662293 1.37623e-19)
(0.00300833 -0.0798455 2.81482e-19)
(-0.0043493 -0.0890006 -3.74918e-21)
(-0.0126524 -0.0950305 3.17165e-20)
(-0.0211209 -0.0989811 -1.19294e-19)
(-0.0292023 -0.101644 5.69875e-20)
(-0.0365212 -0.103593 3.8391e-19)
(-0.0428292 -0.105217 -8.73038e-20)
(-0.0479683 -0.10675 -1.01407e-19)
(-0.0518446 -0.1083 3.84086e-19)
(-0.0544108 -0.109868 1.22848e-19)
(-0.0556549 -0.111365 5.80829e-20)
(-0.0555947 -0.112625 5.83454e-20)
(-0.0542775 -0.113413 1.61251e-19)
(-0.0517825 -0.11343 -6.15383e-20)
(-0.0482267 -0.112326 1.5837e-19)
(-0.0437707 -0.109702 2.12832e-19)
(-0.0386261 -0.105136 -1.81544e-19)
(-0.0330637 -0.0981941 2.6539e-19)
(-0.0274038 -0.0884694 9.0237e-20)
(-0.0219556 -0.0755926 -3.48141e-19)
(-0.0170365 -0.0592743 4.97116e-19)
(-0.0135196 -0.0395586 -3.96606e-19)
(0.00515018 -0.0167863 -2.58905e-19)
(0.00924983 -0.0408668 1.43827e-19)
(0.00706099 -0.0585319 -9.58789e-20)
(0.001345 -0.0710822 -9.21151e-20)
(-0.00626152 -0.0798262 -9.74703e-20)
(-0.0147085 -0.0859166 -1.0663e-19)
(-0.0232228 -0.0902657 2.97692e-20)
(-0.0312592 -0.0935715 2.76418e-19)
(-0.038449 -0.0963457 -6.04163e-20)
(-0.0445485 -0.0989379 -1.53741e-19)
(-0.0494023 -0.101561 -9.25937e-20)
(-0.0529166 -0.104313 -3.83424e-20)
(-0.0550415 -0.107194 1.08208e-19)
(-0.0557599 -0.110114 -7.09955e-20)
(-0.0550825 -0.112908 -2.28132e-19)
(-0.0530481 -0.115333 -2.47789e-19)
(-0.0497282 -0.117076 9.78755e-20)
(-0.0452346 -0.117755 -1.80597e-19)
(-0.0397285 -0.116925 1.50749e-19)
(-0.0334329 -0.114094 -4.29384e-19)
(-0.0266452 -0.108746 3.24005e-19)
(-0.0197301 -0.100371 -4.22726e-19)
(-0.0130492 -0.0884872 -5.95956e-21)
(-0.00698636 -0.0726939 -1.37183e-19)
(-0.00262924 -0.0530217 3.98451e-19)
(0.00465441 -0.0142724 3.9542e-19)
(0.00802995 -0.0350438 5.76452e-20)
(0.00530386 -0.0507166 -3.74417e-20)
(-0.000769104 -0.0622002 -1.65967e-20)
(-0.00857302 -0.0705356 2.99618e-19)
(-0.0170807 -0.0766855 9.67154e-20)
(-0.0255381 -0.0814256 8.68944e-20)
(-0.033416 -0.0853591 -7.04679e-20)
(-0.0403579 -0.0889354 2.70296e-19)
(-0.0461293 -0.0924671 -1.3361e-19)
(-0.0505806 -0.0961482 8.65541e-20)
(-0.0536206 -0.100071 2.14688e-19)
(-0.0551989 -0.104238 -1.2218e-19)
(-0.0552947 -0.10857 1.29179e-19)
(-0.0539123 -0.112908 1.20984e-19)
(-0.0510819 -0.117012 4.16916e-20)
(-0.0468655 -0.120563 -9.93651e-20)
(-0.0413666 -0.123155 2.73851e-19)
(-0.0347434 -0.124301 -2.53802e-20)
(-0.0272255 -0.123439 -2.70169e-20)
(-0.0191338 -0.119956 3.12825e-19)
(-0.0108781 -0.113221 -2.17559e-19)
(-0.00287899 -0.102604 3.6157e-19)
(0.00439354 -0.0875539 -2.94323e-19)
(0.00959955 -0.0680565 3.72756e-19)
(0.00398678 -0.0117326 -1.87978e-19)
(0.00645508 -0.0291838 4.11319e-20)
(0.003139 -0.0428628 -4.25735e-20)
(-0.00326358 -0.053279 -2.08246e-19)
(-0.0111859 -0.0611999 1.19145e-20)
(-0.0196408 -0.0673946 1.16809e-19)
(-0.0279056 -0.0724999 -4.78299e-19)
(-0.0354748 -0.0770235 3.55369e-19)
(-0.0420098 -0.0813525 -3.45801e-19)
(-0.0472893 -0.0857629 -2.17828e-19)
(-0.051173 -0.0904321 1.9293e-19)
(-0.0535755 -0.09545 -4.14213e-19)
(-0.0544488 -0.100827 3.4636e-19)
(-0.0537714 -0.106499 -1.11019e-19)
(-0.0515435 -0.112323 -3.1001e-19)
(-0.0477888 -0.118076 7.61037e-20)
(-0.0425602 -0.123443 -7.21328e-20)
(-0.0359521 -0.12801 2.50536e-20)
(-0.0281165 -0.131258 -9.46702e-20)
(-0.0192851 -0.13256 -2.97707e-19)
(-0.00979801 -0.131202 6.78739e-20)
(-0.000108307 -0.126414 -2.0362e-21)
(0.00929975 -0.117379 -2.8457e-19)
(0.0178538 -0.103339 1.98754e-19)
(0.0239096 -0.0841875 -1.69565e-19)
(0.0031593 -0.0092032 7.53173e-20)
(0.00456056 -0.0233619 1.38413e-19)
(0.000627982 -0.0350608 1.9547e-19)
(-0.00604894 -0.0444102 9.97315e-20)
(-0.0139805 -0.0519037 -9.86129e-20)
(-0.0222363 -0.0581159 2.34612e-19)
(-0.0301356 -0.0635439 1.73405e-19)
(-0.0372041 -0.0685991 -6.42955e-20)
(-0.0431264 -0.0736063 2.23909e-19)
(-0.047698 -0.0788046 -2.30082e-19)
(-0.0507913 -0.084355 -6.75738e-20)
(-0.0523298 -0.0903466 6.8261e-20)
(-0.0522719 -0.0968013 1.31583e-19)
(-0.0505995 -0.103674 2.15893e-21)
(-0.0473135 -0.110849 8.08161e-20)
(-0.0424349 -0.118128 1.4876e-19)
(-0.0360116 -0.12522 -2.50844e-19)
(-0.0281308 -0.131719 3.07347e-19)
(-0.0189374 -0.137094 9.77049e-20)
(-0.00866192 -0.140671 3.02673e-20)
(0.00234112 -0.141642 -3.50334e-19)
(0.013579 -0.139084 4.93878e-20)
(0.0245038 -0.131962 7.51187e-20)
(0.0344308 -0.119242 -1.67072e-20)
(0.0413454 -0.100651 8.3023e-20)
(0.00219011 -0.0067236 5.07931e-21)
(0.00239432 -0.0176606 -3.55944e-19)
(-0.00215218 -0.0274107 -1.01471e-20)
(-0.00901872 -0.0356974 -8.99398e-20)
(-0.0168191 -0.0427459 -5.91239e-19)
(-0.0246947 -0.048938 5.09697e-19)
(-0.0320169 -0.0546322 -3.62224e-19)
(-0.0383487 -0.0601437 -1.92241e-20)
(-0.043402 -0.0657336 -1.69757e-19)
(-0.0469927 -0.0716032 2.91815e-19)
(-0.0490085 -0.0778956 -3.12588e-19)
(-0.0493855 -0.0846984 -1.45044e-19)
(-0.0480925 -0.0920451 2.17833e-21)
(-0.0451199 -0.0999136 -3.06277e-19)
(-0.0404756 -0.108219 4.15378e-19)
(-0.0341852 -0.1168 -4.73985e-19)
(-0.0262983 -0.125404 2.61792e-21)
(-0.0169003 -0.133656 7.12697e-20)
(-0.00613259 -0.14104 -1.71605e-19)
(0.0057765 -0.146862 1.62212e-19)
(0.0184627 -0.150246 -2.30167e-19)
(0.0313987 -0.150126 -1.45343e-19)
(0.0439785 -0.145221 2.64165e-19)
(0.0554073 -0.134145 -2.83608e-19)
(0.0632238 -0.116369 -1.97359e-21)
(0.00110335 -0.00433547 -2.98039e-19)
(1.61945e-05 -0.0121673 3.4374e-19)
(-0.00511071 -0.0200199 -1.06772e-19)
(-0.0120525 -0.0272543 2.048e-19)
(-0.0195505 -0.0338382 2.21279e-19)
(-0.0268309 -0.0399663 -1.94761e-19)
(-0.0333255 -0.0458608 -1.27217e-19)
(-0.0386406 -0.0517411 -1.53119e-19)
(-0.0425183 -0.0578036 1.40185e-19)
(-0.0447975 -0.0642097 -1.00288e-20)
(-0.0453839 -0.0710814 2.02023e-19)
(-0.0442293 -0.0785017 1.97632e-19)
(-0.0413169 -0.086513 -2.32957e-19)
(-0.0366517 -0.0951143 4.53434e-19)
(-0.0302558 -0.104253 -2.97342e-19)
(-0.0221685 -0.113812 -4.71484e-20)
(-0.0124508 -0.123587 5.60453e-19)
(-0.00119679 -0.133259 -2.59112e-19)
(0.0114487 -0.142354 1.5773e-19)
(0.0252562 -0.150202 3.01336e-19)
(0.0398543 -0.155899 -1.9433e-19)
(0.0546879 -0.158271 2.16607e-20)
(0.0691039 -0.155794 -1.24316e-20)
(0.0822198 -0.146659 -6.885e-20)
(0.0910526 -0.129972 1.36469e-19)
(-7.14477e-05 -0.00208054 6.73662e-20)
(-0.00250361 -0.00697085 -2.1581e-19)
(-0.00814562 -0.0130001 1.17509e-19)
(-0.0150195 -0.0192018 -1.76012e-21)
(-0.0220146 -0.0253037 8.90851e-20)
(-0.0284529 -0.0313213 -1.52936e-19)
(-0.0338339 -0.0373455 8.76101e-20)
(-0.037811 -0.0435011 2.38215e-19)
(-0.0401599 -0.0499191 -7.12316e-21)
(-0.0407441 -0.0567178 -1.19926e-19)
(-0.0394896 -0.0639944 1.19432e-19)
(-0.0363665 -0.0718214 -3.65746e-21)
(-0.0313767 -0.0802446 -3.74006e-19)
(-0.0245455 -0.0892785 1.38424e-19)
(-0.0159173 -0.0988992 3.02248e-20)
(-0.00555493 -0.109031 -5.04506e-20)
(0.00645667 -0.119527 -8.86142e-20)
(0.0200023 -0.130134 3.44987e-19)
(0.0349209 -0.140454 7.91509e-20)
(0.0509744 -0.149882 -1.73316e-19)
(0.0677839 -0.157548 -1.94137e-20)
(0.0847723 -0.162236 2.21383e-19)
(0.101257 -0.16222 -1.03861e-19)
(0.116315 -0.155226 4.12733e-20)
(0.126392 -0.13989 2.68389e-20)
(-0.00130042 1.41173e-06 -1.34706e-19)
(-0.00508669 -0.0021576 1.35041e-19)
(-0.0111467 -0.00646266 -7.59581e-20)
(-0.0177826 -0.0116639 -2.43831e-19)
(-0.0240478 -0.0172719 -2.24953e-19)
(-0.0293688 -0.0231349 -9.84785e-20)
(-0.0333184 -0.0292187 -8.23806e-20)
(-0.035601 -0.0355562 -2.42143e-19)
(-0.0360279 -0.0422127 -9.77325e-20)
(-0.0344893 -0.0492607 8.90365e-20)
(-0.0309331 -0.0567678 -1.2627e-19)
(-0.0253508 -0.06479 -1.32143e-19)
(-0.0177668 -0.0733678 -1.22627e-19)
(-0.00823217 -0.0825224 2.18293e-19)
(0.00317884 -0.0922488 -4.58585e-19)
(0.0163694 -0.102506 2.55353e-19)
(0.0312183 -0.113196 -4.33322e-19)
(0.0475738 -0.124142 -6.46363e-20)
(0.0652437 -0.135036 -2.26552e-19)
(0.0839684 -0.145378 -4.9802e-20)
(0.103356 -0.154397 -6.21343e-20)
(0.122813 -0.160929 -1.97841e-19)
(0.141647 -0.16314 -1.71495e-20)
(0.158967 -0.158308 1.12067e-19)
(0.170663 -0.144512 -2.83861e-19)
(-0.00254683 0.00187488 1.14862e-19)
(-0.00764916 0.00219272 1.50685e-19)
(-0.0139989 -0.000513521 5.30748e-19)
(-0.0202018 -0.0047625 -9.28836e-20)
(-0.0254868 -0.00987414 2.21841e-19)
(-0.0293912 -0.0155444 5.28684e-19)
(-0.0315657 -0.0216224 -1.43995e-19)
(-0.0317686 -0.0280535 1.9457e-19)
(-0.0298492 -0.0348377 1.12972e-19)
(-0.0257264 -0.042 2.04165e-19)
(-0.0193728 -0.0495739 -4.02387e-20)
(-0.0108037 -0.0575923 2.78622e-20)
(-7.01807e-05 -0.0660822 -6.77059e-20)
(0.0127457 -0.0750601 3.75964e-19)
(0.0275328 -0.0845273 4.90306e-20)
(0.0441512 -0.0944619 3.37832e-19)
(0.0624312 -0.104806 -8.3685e-20)
(0.0821705 -0.115442 2.97129e-19)
(0.103128 -0.126156 3.84011e-20)
(0.125006 -0.136576 1.41945e-19)
(0.147391 -0.146085 -5.76839e-20)
(0.169671 -0.15367 -3.97927e-21)
(0.19116 -0.157536 3.10142e-19)
(0.211095 -0.154611 1.77546e-19)
(0.224939 -0.142393 -7.34577e-20)
(-0.00377281 0.00351056 -2.78495e-19)
(-0.0101047 0.00601119 -2.83445e-19)
(-0.0165855 0.00475162 -2.96887e-19)
(-0.0221373 0.00138879 1.08634e-19)
(-0.0261716 -0.00323666 -2.18661e-19)
(-0.0283401 -0.00868529 -3.26418e-20)
(-0.028375 -0.0147002 -8.57563e-20)
(-0.0260915 -0.0211447 -3.54481e-19)
(-0.0213796 -0.0279557 -5.4774e-20)
(-0.0141897 -0.0351099 9.0123e-20)
(-0.00452214 -0.0426036 -2.80556e-19)
(0.0075801 -0.0504413 3.87822e-19)
(0.0220351 -0.0586284 -5.21729e-19)
(0.0387244 -0.0671667 1.23721e-19)
(0.0574936 -0.0760499 -3.13182e-19)
(0.078152 -0.0852586 -2.48941e-19)
(0.100472 -0.0947525 -1.28367e-20)
(0.124187 -0.104455 -3.43229e-20)
(0.148993 -0.114228 3.01488e-20)
(0.174534 -0.12382 -1.29135e-19)
(0.200359 -0.132791 -8.64018e-20)
(0.225831 -0.140368 1.01239e-19)
(0.250273 -0.14496 -2.73812e-19)
(0.273148 -0.143342 8.61031e-20)
(0.289777 -0.132493 5.47646e-20)
(-0.0049411 0.00488704 -4.9391e-20)
(-0.0123675 0.00924324 -8.20491e-20)
(-0.0187908 0.00925241 3.19429e-19)
(-0.023452 0.00669024 1.1891e-19)
(-0.0259467 0.00252642 1.57366e-19)
(-0.0260431 -0.00268294 -2.1007e-19)
(-0.0235577 -0.00858692 5.44134e-22)
(-0.0183656 -0.0149739 -1.69248e-19)
(-0.0104011 -0.0217212 3.1267e-19)
(0.000350174 -0.028758 1.01298e-19)
(0.0138559 -0.0360422 1.11952e-19)
(0.0300404 -0.0435464 -4.48055e-19)
(0.0487854 -0.051249 5.46775e-19)
(0.0699307 -0.0591285 -1.64204e-19)
(0.0932725 -0.0671598 -1.1482e-19)
(0.118563 -0.0753104 3.39677e-19)
(0.145509 -0.0835363 1.46576e-19)
(0.173773 -0.0917749 -3.69442e-19)
(0.202971 -0.0999294 -1.45883e-19)
(0.232675 -0.107838 4.41562e-19)
(0.262378 -0.115223 -3.24048e-19)
(0.291403 -0.121579 1.91539e-19)
(0.319057 -0.125681 9.73561e-20)
(0.345098 -0.124409 -1.2453e-19)
(0.365168 -0.114379 -1.08807e-19)
(-0.00601674 0.00599169 -1.81206e-19)
(-0.0143549 0.0118513 2.81847e-19)
(-0.0205024 0.0129279 1.20444e-19)
(-0.0240118 0.0110618 -1.74013e-19)
(-0.0246606 0.00732013 -2.78312e-20)
(-0.0223338 0.00235621 -1.82455e-19)
(-0.016934 -0.00339816 -7.254e-20)
(-0.00840002 -0.00966478 8.13907e-20)
(0.00328535 -0.0162663 -2.06893e-20)
(0.0180957 -0.0230869 1.52146e-19)
(0.0359609 -0.0300465 -1.31426e-19)
(0.056766 -0.0370848 3.62884e-19)
(0.0803499 -0.0441507 -4.4505e-19)
(0.106504 -0.0511951 2.77223e-19)
(0.134968 -0.0581665 3.37521e-19)
(0.165434 -0.065008 -4.81517e-19)
(0.197537 -0.0716547 -1.42153e-19)
(0.230861 -0.0780305 2.379e-19)
(0.26494 -0.0840425 -1.436e-19)
(0.299255 -0.0895659 1.31564e-19)
(0.333218 -0.0944244 -3.14731e-19)
(0.366088 -0.0983444 5.45614e-20)
(0.397106 -0.100535 1.86423e-19)
(0.426329 -0.0982259 -2.8477e-19)
(0.450343 -0.0878572 7.82516e-20)
(-0.00696834 0.00682102 -1.67481e-19)
(-0.0159894 0.0138162 5.25473e-19)
(-0.0216123 0.01574 1.01205e-19)
(-0.023686 0.014448 -2.73318e-19)
(-0.0221642 0.0110753 1.95947e-19)
(-0.0170476 0.00635288 9.96502e-20)
(-0.00832714 0.000779742 1.58755e-19)
(0.0039908 -0.0053086 -1.05741e-20)
(0.0198691 -0.0116863 -1.67406e-20)
(0.0392337 -0.0181964 -3.4537e-20)
(0.0619682 -0.0247237 -1.48836e-19)
(0.0879099 -0.0311767 -3.62093e-21)
(0.116846 -0.0374756 3.44699e-19)
(0.148511 -0.0435438 -5.56502e-19)
(0.182585 -0.0493022 3.9498e-19)
(0.218691 -0.0546649 7.97111e-20)
(0.256397 -0.0595358 1.38333e-19)
(0.295212 -0.0638056 -6.50029e-20)
(0.334586 -0.0673478 5.93805e-19)
(0.37391 -0.0700107 -3.59622e-19)
(0.412491 -0.0716189 2.77091e-19)
(0.449457 -0.0719898 5.96975e-20)
(0.483867 -0.0706232 -1.85187e-19)
(0.515872 -0.0650628 1.51894e-19)
(0.543548 -0.0518915 2.13401e-19)
(-0.00776892 0.0073802 -4.85832e-20)
(-0.0171997 0.0151375 -1.85134e-19)
(-0.0220169 0.0176749 -3.16756e-19)
(-0.0223458 0.0168218 -1.80593e-19)
(-0.0183079 0.0137543 -2.52761e-20)
(-0.010018 0.00926255 -7.12961e-20)
(0.00244269 0.00389909 -3.30868e-19)
(0.0189948 -0.00195313 5.49899e-20)
(0.0395394 -0.00802691 -3.70127e-19)
(0.063945 -0.0141298 -2.84051e-20)
(0.0920382 -0.0201162 -3.52288e-19)
(0.123596 -0.0258681 -1.24157e-19)
(0.158343 -0.0312819 7.04187e-20)
(0.195946 -0.0362594 -3.34809e-19)
(0.236017 -0.0407001 3.50752e-21)
(0.27811 -0.0444955 -2.80383e-19)
(0.321732 -0.047523 1.05659e-19)
(0.366338 -0.0496387 -3.77352e-19)
(0.411339 -0.050667 -6.10023e-20)
(0.456098 -0.0503861 -7.10862e-21)
(0.499898 -0.0485217 -5.86375e-20)
(0.541832 -0.0447597 -6.04354e-20)
(0.580784 -0.0384365 -3.30653e-20)
(0.61632 -0.0269879 -1.11693e-19)
(0.646468 -0.00803959 -2.12879e-19)
(-0.00839616 0.00768201 8.87562e-20)
(-0.0179206 0.0158327 2.34848e-19)
(-0.0216166 0.0187441 2.82566e-19)
(-0.0198622 0.0181869 -2.25672e-19)
(-0.0129379 0.0153554 4.19353e-19)
(-0.00107077 0.0110816 -2.27581e-19)
(0.0155644 0.00595857 1.23692e-19)
(0.0368086 0.000406467 1.92529e-19)
(0.0624908 -0.00527424 1.74696e-19)
(0.0924093 -0.0108626 8.46524e-20)
(0.126318 -0.0161895 1.36452e-19)
(0.163918 -0.0211179 7.93507e-20)
(0.204853 -0.0255299 5.2751e-19)
(0.248706 -0.0293169 -3.80098e-19)
(0.295005 -0.032372 4.2919e-19)
(0.343233 -0.0345836 -1.75288e-19)
(0.392833 -0.0358281 3.71576e-19)
(0.443229 -0.0359605 -2.10258e-20)
(0.49384 -0.0347997 -7.51272e-20)
(0.544111 -0.0321061 -1.1803e-20)
(0.59353 -0.0275523 2.63299e-19)
(0.641662 -0.0206417 -2.46132e-19)
(0.688386 -0.0102587 1.7209e-19)
(0.734223 0.00597484 1.73268e-19)
(0.775156 0.0251397 3.07213e-20)
(-0.00883179 0.00774511 6.14473e-20)
(-0.0180923 0.0159346 -3.35569e-19)
(-0.0203135 0.018983 -1.22011e-19)
(-0.0161036 0.0185786 1.11693e-19)
(-0.00589333 0.0159152 -3.43479e-19)
(0.00997874 0.0118517 -6.76875e-20)
(0.0312395 0.00700899 4.69666e-20)
(0.0576406 0.00183429 1.85346e-19)
(0.0889252 -0.00334756 -4.68903e-19)
(0.124804 -0.00829552 3.53691e-20)
(0.164938 -0.0128255 -1.36628e-19)
(0.208928 -0.0167918 -4.10523e-19)
(0.256312 -0.0200741 2.78412e-19)
(0.306568 -0.0225685 1.16406e-20)
(0.359119 -0.0241811 -7.73283e-21)
(0.41335 -0.0248223 2.68503e-19)
(0.468626 -0.0244018 -4.69351e-19)
(0.524316 -0.0228233 3.63849e-19)
(0.57982 -0.0199786 -6.986e-20)
(0.634611 -0.0157411 1.95566e-19)
(0.688266 -0.00996459 -3.25279e-19)
(0.74052 -0.00246698 1.74913e-19)
(0.791452 0.0071531 -3.06404e-19)
(0.841667 0.0196738 2.98509e-19)
(0.886786 0.0315782 -9.67688e-20)
(-0.00906052 0.00759224 4.13059e-19)
(-0.0176583 0.0154892 -6.72967e-20)
(-0.0180098 0.0184493 4.96604e-19)
(-0.0109335 0.0180635 2.30124e-19)
(0.00299621 0.0155101 1.86179e-20)
(0.0233278 0.011662 1.00503e-19)
(0.0496823 0.00715628 2.43347e-20)
(0.0817089 0.00245678 4.08824e-19)
(0.119046 -0.0020969 1.31473e-19)
(0.161294 -0.00625342 -1.7311e-20)
(0.207993 -0.00982446 3.59264e-20)
(0.258616 -0.0126673 1.35776e-19)
(0.312567 -0.0146731 1.11483e-19)
(0.369186 -0.0157585 2.33537e-19)
(0.427767 -0.0158602 -2.67139e-19)
(0.487573 -0.0149301 7.8273e-20)
(0.547867 -0.0129323 2.52464e-20)
(0.607939 -0.00984026 1.1288e-19)
(0.667139 -0.00563584 2.93087e-19)
(0.72491 -0.000310927 -1.95064e-19)
(0.780815 0.00612383 1.04806e-20)
(0.834563 0.0136263 -2.51575e-19)
(0.886081 0.0221934 2.27051e-19)
(0.935625 0.032105 -2.12895e-19)
(0.979482 0.0412926 2.57897e-20)
(-0.0090686 0.00724832 -3.44531e-19)
(-0.0165629 0.0145521 2.63508e-19)
(-0.0146049 0.0172203 -4.29014e-19)
(-0.00420876 0.0167372 3.694e-20)
(0.013911 0.0142547 3.02216e-19)
(0.0391847 0.0106484 -5.03351e-19)
(0.0711159 0.00656065 3.99187e-19)
(0.109233 0.00246119 -6.32659e-19)
(0.153045 -0.00130654 1.25938e-19)
(0.202012 -0.00449239 2.66024e-20)
(0.255522 -0.00691638 2.09407e-19)
(0.312886 -0.00845277 -6.96138e-19)
(0.373339 -0.00901904 1.20485e-19)
(0.436059 -0.00856812 1.25264e-19)
(0.500183 -0.00708256 -7.3917e-20)
(0.56484 -0.00456989 -4.49382e-19)
(0.629182 -0.00105902 2.13217e-19)
(0.692416 0.00340236 3.83194e-19)
(0.75384 0.00874854 -3.95556e-19)
(0.812867 0.0148937 2.81012e-19)
(0.869045 0.0217247 -3.51922e-19)
(0.922062 0.0290881 2.5121e-19)
(0.971761 0.0368297 -6.50206e-20)
(1.01822 0.0451087 3.65536e-19)
(1.05874 0.0530194 -4.05575e-19)
(-0.00884206 0.00673879 4.92246e-20)
(-0.0147487 0.0131855 3.87869e-20)
(-0.00999363 0.0153888 9.49178e-20)
(0.00422106 0.0147209 3.39806e-19)
(0.0270391 0.0122985 -1.07388e-20)
(0.057763 0.00899003 7.59153e-20)
(0.0957616 0.0054324 3.38193e-19)
(0.140417 0.00208941 1.36278e-19)
(0.19108 -0.000704176 -4.47561e-20)
(0.247031 -0.00271314 3.80484e-19)
(0.307471 -0.00378092 -4.30751e-19)
(0.371511 -0.00381466 6.58373e-19)
(0.438191 -0.00277436 -2.59328e-19)
(0.5065 -0.000664355 4.65076e-19)
(0.57541 0.002474 -1.56596e-19)
(0.643916 0.00656886 5.6323e-20)
(0.71107 0.0115238 6.76485e-20)
(0.776024 0.0172228 -1.24149e-19)
(0.838055 0.0235334 1.05378e-19)
(0.896589 0.030308 6.57533e-20)
(0.951208 0.0373824 8.7632e-20)
(1.00165 0.0445692 1.77681e-19)
(1.04778 0.0516839 -1.90067e-20)
(1.08969 0.0588447 -7.94527e-20)
(1.12568 0.0659183 2.1966e-19)
(-0.00836492 0.00608825 -2.87918e-19)
(-0.0121545 0.0114558 3.04716e-20)
(-0.00406535 0.0130602 -5.47158e-19)
(0.0145118 0.0121574 -1.30627e-19)
(0.0425715 0.00982121 -2.44892e-19)
(0.0792723 0.0069035 -5.24569e-20)
(0.123824 0.00402391 -2.62216e-19)
(0.175431 0.00162721 -1.56564e-19)
(0.233244 2.44303e-05 2.06685e-19)
(0.296329 -0.000580802 -3.4474e-19)
(0.363655 -7.30191e-05 -9.55409e-20)
(0.434103 0.00158982 2.86632e-21)
(0.506493 0.00438841 -6.34362e-19)
(0.579618 0.00825295 2.67624e-19)
(0.652293 0.0130736 -3.85777e-19)
(0.7234 0.0187105 -1.10951e-20)
(0.791935 0.0250033 7.18252e-20)
(0.857041 0.0317798 -1.20344e-19)
(0.918036 0.0388619 -1.03043e-19)
(0.974425 0.046071 4.77118e-20)
(1.0259 0.0532297 5.18447e-20)
(1.07231 0.0601611 -3.36694e-19)
(1.11366 0.0667045 1.90036e-19)
(1.15014 0.0729655 8.93194e-20)
(1.18087 0.0792569 1.9221e-20)
(-0.0076178 0.00531977 2.94327e-19)
(-0.00871302 0.00943096 -3.13769e-19)
(0.00329595 0.010349 4.40349e-19)
(0.0268216 0.00920656 6.88429e-20)
(0.0606942 0.00702665 -2.10367e-20)
(0.103905 0.00463431 -1.4783e-19)
(0.15547 0.00261872 2.23364e-20)
(0.214379 0.00138971 2.24788e-19)
(0.279537 0.00121643 -3.09802e-19)
(0.349751 0.00225118 3.24414e-19)
(0.423723 0.00454807 -3.39729e-20)
(0.500079 0.00807917 1.65434e-20)
(0.577408 0.0127497 4.15237e-19)
(0.654322 0.0184128 5.47883e-19)
(0.729509 0.0248852 -2.14659e-19)
(0.801789 0.0319611 3.70504e-19)
(0.870161 0.0394262 1.81966e-19)
(0.933835 0.0470689 -1.1398e-19)
(0.992242 0.0546891 3.44973e-19)
(1.04504 0.0621039 -1.77727e-20)
(1.09209 0.0691519 -3.19298e-19)
(1.13343 0.0756918 3.28471e-19)
(1.16926 0.0816097 4.20199e-20)
(1.1999 0.0870167 -1.93347e-19)
(1.22511 0.0924453 6.07583e-20)
(-0.006577 0.00445475 -4.09082e-19)
(-0.00435121 0.00718035 4.27615e-19)
(0.0122097 0.00737598 -2.71206e-19)
(0.041305 0.00604061 -8.44032e-20)
(0.0815776 0.00413583 -1.8964e-19)
(0.131818 0.00244757 3.35447e-19)
(0.190811 0.00151857 -1.94421e-19)
(0.257277 0.0017044 -8.89461e-20)
(0.329836 0.00321068 -2.54014e-19)
(0.406988 0.00611562 6.91554e-21)
(0.487142 0.01039 -9.91074e-20)
(0.568657 0.0159172 4.70362e-20)
(0.64991 0.0225132 -4.98725e-19)
(0.729364 0.0299478 1.42143e-19)
(0.805638 0.037965 -1.67723e-19)
(0.877565 0.0463028 -1.32448e-19)
(0.944227 0.0547088 4.05228e-20)
(1.00498 0.0629536 -1.87033e-19)
(1.05944 0.0708394 -7.57018e-20)
(1.10749 0.0782041 2.25959e-19)
(1.14921 0.0849233 9.10948e-20)
(1.18487 0.0909073 -3.87788e-19)
(1.21486 0.0960996 2.78542e-19)
(1.23967 0.10063 -5.14748e-20)
(1.25948 0.105095 -1.0364e-19)
(-0.00521424 0.00351339 -1.48714e-19)
(0.00100947 0.00477397 -7.94968e-20)
(0.0227956 0.00426702 -1.57301e-20)
(0.058106 0.0028404 1.16801e-19)
(0.105365 0.00138036 1.26822e-19)
(0.16312 0.000618027 1.10222e-19)