/*--------------------------------*- C++ -*----------------------------------*\
  =========                 |
  \\      /  F ield         | OpenFOAM: The Open Source CFD Toolbox
   \\    /   O peration     | Website:  https://openfoam.org
    \\  /    A nd           | Version:  6.0
     \\/     M anipulation  |
\*---------------------------------------------------------------------------*/
FoamFile
{
    version     2.0;
    format      ascii;
    class       volScalarField;
    location    "18";
    object      p;
}
// * * * * * * * * * * * * * * * * * * * * * * * * * * * * * * * * * * * * * //

dimensions      [0 2 -2 0 0 0 0];

internalField   nonuniform List<scalar> 
4000
(
-0.477324
-0.46334
-0.450916
-0.437173
-0.420912
-0.402637
-0.38318
-0.363386
-0.343971
-0.325441
-0.308083
-0.292016
-0.277245
-0.263707
-0.251307
-0.239938
-0.229497
-0.219857
-0.210823
-0.202691
-0.485229
-0.470811
-0.457553
-0.442336
-0.424098
-0.403649
-0.382094
-0.360447
-0.339491
-0.319721
-0.301383
-0.284545
-0.269163
-0.255137
-0.242343
-0.230651
-0.219946
-0.210081
-0.200843
-0.192608
-0.491261
-0.476505
-0.462363
-0.445542
-0.425225
-0.402577
-0.378983
-0.355603
-0.333252
-0.312396
-0.293224
-0.275747
-0.259873
-0.245465
-0.232371
-0.220446
-0.209558
-0.199541
-0.190171
-0.181905
-0.495047
-0.480053
-0.464976
-0.446452
-0.424005
-0.399196
-0.37368
-0.348728
-0.32516
-0.303389
-0.283541
-0.265565
-0.249323
-0.234644
-0.221352
-0.209284
-0.198298
-0.188207
-0.17878
-0.17056
-0.496231
-0.481096
-0.465046
-0.444755
-0.420186
-0.393317
-0.366046
-0.339721
-0.315135
-0.292636
-0.272278
-0.253949
-0.237468
-0.222634
-0.209248
-0.197134
-0.186139
-0.176055
-0.166649
-0.158551
-0.494479
-0.479298
-0.462253
-0.440176
-0.413555
-0.384786
-0.355971
-0.3285
-0.303116
-0.280085
-0.259388
-0.240858
-0.224273
-0.209403
-0.196031
-0.183972
-0.173058
-0.163066
-0.153763
-0.145865
-0.489493
-0.474359
-0.456319
-0.432488
-0.403946
-0.373486
-0.343377
-0.31501
-0.289056
-0.265697
-0.244839
-0.226262
-0.209709
-0.194927
-0.181682
-0.16978
-0.159044
-0.149231
-0.140116
-0.132497
-0.481017
-0.466022
-0.447014
-0.421515
-0.391236
-0.359341
-0.328214
-0.299216
-0.27293
-0.249448
-0.228608
-0.210142
-0.193761
-0.179192
-0.16619
-0.154552
-0.144091
-0.134549
-0.125709
-0.118449
-0.468848
-0.454084
-0.434166
-0.407133
-0.375353
-0.342312
-0.310464
-0.281108
-0.254729
-0.231331
-0.210688
-0.19249
-0.176422
-0.162194
-0.149553
-0.138288
-0.128204
-0.119028
-0.110554
-0.10373
-0.452839
-0.438396
-0.417658
-0.389277
-0.356272
-0.3224
-0.290138
-0.260699
-0.234465
-0.211355
-0.191085
-0.173311
-0.157697
-0.14394
-0.131779
-0.120998
-0.111396
-0.102685
-0.0946742
-0.0883671
-0.432907
-0.418877
-0.39744
-0.367934
-0.334013
-0.299642
-0.267275
-0.238026
-0.212168
-0.189544
-0.16982
-0.152623
-0.137601
-0.124443
-0.112882
-0.102699
-0.0936865
-0.0855458
-0.0781008
-0.0723989
-0.409031
-0.395507
-0.373522
-0.343152
-0.308645
-0.274112
-0.241947
-0.213149
-0.187891
-0.165942
-0.146929
-0.130456
-0.11616
-0.103725
-0.0928822
-0.0834112
-0.0750975
-0.0676374
-0.0608705
-0.0558692
-0.381256
-0.368334
-0.345975
-0.315028
-0.280277
-0.245918
-0.214252
-0.186157
-0.161706
-0.14061
-0.122461
-0.10685
-0.0934069
-0.0818142
-0.0718037
-0.0631549
-0.0556498
-0.0489851
-0.0430154
-0.0388017
-0.349693
-0.337468
-0.314932
-0.283712
-0.249062
-0.215203
-0.184318
-0.157158
-0.133708
-0.113627
-0.0964823
-0.081857
-0.0693818
-0.0587407
-0.0496694
-0.0419491
-0.0353629
-0.0296138
-0.0245594
-0.0211876
-0.314514
-0.303081
-0.280579
-0.2494
-0.215192
-0.182145
-0.152303
-0.126292
-0.104016
-0.0850922
-0.0690737
-0.0555414
-0.0441311
-0.0345351
-0.0264969
-0.0198042
-0.0142466
-0.00953709
-0.00551207
-0.00302692
-0.275949
-0.265403
-0.243156
-0.212332
-0.178895
-0.146952
-0.118392
-0.0937209
-0.0727712
-0.055128
-0.0403365
-0.0279825
-0.0177126
-0.00923285
-0.00230169
0.00328078
0.00771261
0.0112642
0.0141214
0.0155523
-0.234283
-0.224714
-0.202947
-0.172788
-0.140433
-0.109862
-0.0827999
-0.0596365
-0.0401428
-0.0238802
-0.0103932
0.000721894
0.00980134
0.0171175
0.0228891
0.0272999
0.0305315
0.0327989
0.0342237
0.0341549
-0.189845
-0.181342
-0.160278
-0.131081
-0.100099
-0.0711432
-0.045769
-0.0242577
-0.00632604
0.00848092
0.0206148
0.0304639
0.0383409
0.0444856
0.0490825
0.0522941
0.0542612
0.055024
0.0544745
0.0523373
-0.143009
-0.135654
-0.115509
-0.0875553
-0.0582099
-0.0310882
-0.00756977
0.0121662
0.0284499
0.0417498
0.0525137
0.0611166
0.0678484
0.0729146
0.0764626
0.0786235
0.0794237
0.0785075
0.0754116
0.0711511
-0.09418
-0.0880472
-0.0690275
-0.0425758
-0.0151075
0.00998721
0.0315026
0.0493548
0.0639153
0.0756653
0.0850537
0.0924537
0.0981524
0.102354
0.105219
0.106895
0.107285
0.10554
0.100961
0.0963422
-0.0437914
-0.0389452
-0.0212406
0.00347427
0.0288538
0.0517528
0.0711361
0.0870061
0.099769
0.109915
0.117894
0.124084
0.128786
0.132243
0.134698
0.136427
0.137404
0.136649
0.133902
0.137432
0.00771394
0.0112161
0.0274332
0.0502033
0.0733115
0.0938716
0.111013
0.124814
0.135708
0.144187
0.150694
0.155603
0.159211
0.161775
0.163555
0.164812
0.165534
0.165251
0.164857
0.170538
0.0598742
0.0619869
0.0765661
0.0972148
0.117901
0.136007
0.150818
0.162479
0.171443
0.178197
0.183176
0.186742
0.18919
0.190773
0.191739
0.192308
0.192464
0.191914
0.191564
0.196136
0.112225
0.112915
0.125731
0.144115
0.162264
0.177829
0.190244
0.199713
0.206696
0.211674
0.215065
0.217216
0.218408
0.218882
0.218867
0.218559
0.217954
0.21683
0.215932
0.219009
0.164303
0.163551
0.174506
0.190517
0.206046
0.219016
0.228998
0.236244
0.241217
0.244386
0.24615
0.246836
0.246708
0.245984
0.244871
0.243535
0.24196
0.23995
0.238191
0.239875
0.215652
0.213452
0.222476
0.236044
0.248908
0.259261
0.2668
0.271816
0.274773
0.276122
0.27624
0.275434
0.273946
0.271977
0.269709
0.267282
0.264665
0.261682
0.258987
0.259336
0.265827
0.262188
0.269241
0.280332
0.290524
0.298269
0.303384
0.306191
0.307148
0.306688
0.305166
0.302865
0.300009
0.296777
0.293331
0.289786
0.286101
0.282129
0.278494
0.277581
0.314397
0.309342
0.314416
0.323032
0.330579
0.335761
0.338498
0.339141
0.33814
0.335906
0.332772
0.329
0.324793
0.320313
0.3157
0.311051
0.306318
0.301382
0.296831
0.294718
0.360951
0.354519
0.357633
0.363814
0.368779
0.37147
0.371906
0.370455
0.36756
0.363609
0.358913
0.353715
0.348196
0.342503
0.336758
0.33104
0.325302
0.319447
0.314019
0.310769
0.405098
0.397341
0.398545
0.402364
0.404842
0.405147
0.403381
0.399931
0.395227
0.389636
0.383449
0.376887
0.370116
0.363264
0.356439
0.349706
0.343019
0.3363
0.330042
0.325718
0.44647
0.437457
0.436828
0.438392
0.438509
0.436556
0.432714
0.427381
0.420972
0.413837
0.406245
0.398399
0.390448
0.382507
0.374669
0.366985
0.359414
0.351896
0.344859
0.339529
0.484726
0.474538
0.47218
0.471625
0.469536
0.465482
0.459709
0.452627
0.444636
0.436068
0.427172
0.418135
0.409092
0.400143
0.391366
0.382806
0.374424
0.366173
0.358416
0.352152
0.519554
0.508284
0.504325
0.501815
0.497701
0.491722
0.484186
0.475505
0.466071
0.456195
0.446111
0.435988
0.425948
0.41608
0.406451
0.397095
0.387981
0.379068
0.370654
0.363535
0.550669
0.538425
0.533014
0.528738
0.522802
0.515096
0.505979
0.495868
0.485142
0.474095
0.462947
0.451854
0.440924
0.430236
0.419846
0.409782
0.400017
0.390517
0.381513
0.373627
0.577819
0.564719
0.558026
0.552196
0.54466
0.535442
0.524942
0.513581
0.501726
0.489657
0.477581
0.465639
0.453933
0.44253
0.431477
0.420796
0.410467
0.400458
0.390937
0.382377
0.600786
0.586957
0.579169
0.572014
0.563119
0.552618
0.540947
0.528527
0.515716
0.502782
0.48992
0.477262
0.464899
0.452891
0.441278
0.430077
0.419272
0.408834
0.398875
0.389741
0.619386
0.604963
0.596281
0.588047
0.578047
0.566506
0.553885
0.540607
0.527021
0.513387
0.499887
0.486649
0.473754
0.461257
0.449191
0.43757
0.426381
0.415596
0.405281
0.39568
0.633468
0.618594
0.609231
0.600177
0.589339
0.577008
0.563668
0.549739
0.535567
0.521402
0.507421
0.493742
0.480445
0.467578
0.455169
0.44323
0.431751
0.420705
0.410119
0.400163
0.642921
0.627744
0.617921
0.608315
0.596913
0.584052
0.570228
0.555863
0.541297
0.526775
0.512471
0.498498
0.484931
0.471815
0.459176
0.447024
0.435351
0.424129
0.41336
0.403166
0.647669
0.632339
0.622286
0.612401
0.600716
0.587589
0.573522
0.558937
0.544173
0.529473
0.515006
0.500885
0.487182
0.473942
0.461187
0.448928
0.437157
0.425847
0.414987
0.404672
0.647674
0.632344
0.62229
0.612406
0.60072
0.587593
0.573525
0.558941
0.544176
0.529476
0.515009
0.500888
0.487185
0.473944
0.46119
0.448931
0.43716
0.42585
0.414989
0.404675
0.642936
0.627758
0.617936
0.608328
0.596926
0.584064
0.570239
0.555874
0.541307
0.526785
0.51248
0.498507
0.484939
0.471823
0.459184
0.447032
0.435358
0.424136
0.413367
0.403173
0.633493
0.618619
0.609255
0.600199
0.58936
0.577028
0.563686
0.549757
0.535584
0.521418
0.507436
0.493757
0.48046
0.467592
0.455183
0.443243
0.431764
0.420717
0.410131
0.400175
0.619421
0.604997
0.596313
0.588078
0.578077
0.566534
0.553911
0.540632
0.527045
0.513409
0.499909
0.48667
0.473774
0.461277
0.44921
0.437588
0.426398
0.415613
0.405298
0.395697
0.600831
0.587001
0.579211
0.572054
0.563156
0.552654
0.540981
0.528559
0.515746
0.502811
0.489948
0.477288
0.464924
0.452916
0.441302
0.430101
0.419294
0.408856
0.398896
0.389762
0.577874
0.564773
0.558077
0.552244
0.544706
0.535485
0.524983
0.51362
0.501763
0.489693
0.477615
0.465672
0.453965
0.44256
0.431506
0.420825
0.410494
0.400485
0.390964
0.382403
0.550733
0.538488
0.533074
0.528796
0.522856
0.515147
0.506027
0.495914
0.485185
0.474137
0.462987
0.451892
0.440961
0.430272
0.419881
0.409816
0.400049
0.390549
0.381544
0.373657
0.519628
0.508357
0.504394
0.501881
0.497763
0.491781
0.484241
0.475558
0.466121
0.456243
0.446157
0.436032
0.425991
0.416122
0.406491
0.397134
0.388019
0.379105
0.37069
0.36357
0.48481
0.47462
0.472258
0.471699
0.469606
0.465548
0.459772
0.452686
0.444693
0.436122
0.427224
0.418186
0.40914
0.400189
0.391411
0.38285
0.374467
0.366215
0.358456
0.352191
0.446563
0.437548
0.436916
0.438475
0.438587
0.43663
0.432784
0.427447
0.421035
0.413897
0.406303
0.398455
0.390502
0.38256
0.374719
0.367034
0.359461
0.351942
0.344904
0.339572
0.4052
0.397442
0.398642
0.402456
0.404928
0.405228
0.403458
0.400005
0.395297
0.389703
0.383513
0.376949
0.370175
0.363322
0.356495
0.34976
0.343071
0.336351
0.330092
0.325766
0.361063
0.354628
0.357738
0.363913
0.368872
0.371559
0.37199
0.370535
0.367636
0.363681
0.358983
0.353782
0.348261
0.342566
0.336819
0.331099
0.325359
0.319502
0.314073
0.310822
0.314518
0.30946
0.31453
0.32314
0.330681
0.335857
0.338589
0.339228
0.338223
0.335985
0.332848
0.329073
0.324864
0.320381
0.315766
0.311115
0.30638
0.301442
0.29689
0.294775
0.265956
0.262314
0.269363
0.280447
0.290633
0.298373
0.303482
0.306283
0.307237
0.306773
0.305247
0.302944
0.300084
0.29685
0.293402
0.289855
0.286168
0.282194
0.278558
0.277643
0.21579
0.213587
0.222606
0.236167
0.249025
0.259371
0.266905
0.271915
0.274868
0.276212
0.276327
0.275518
0.274027
0.272055
0.269785
0.267356
0.264736
0.261752
0.259055
0.259402
0.164449
0.163694
0.174644
0.190648
0.20617
0.219133
0.229109
0.236349
0.241318
0.244483
0.246243
0.246926
0.246794
0.246068
0.244952
0.243614
0.242037
0.240025
0.238264
0.239946
0.112379
0.113066
0.125877
0.144254
0.162394
0.177952
0.190362
0.199825
0.206803
0.211776
0.215163
0.217311
0.2185
0.218971
0.218953
0.218643
0.218035
0.216909
0.216009
0.219084
0.0600358
0.0621458
0.0767191
0.0973603
0.118039
0.136137
0.150942
0.162597
0.171555
0.178305
0.18328
0.186843
0.189287
0.190867
0.19183
0.192397
0.19255
0.191998
0.191646
0.196215
0.00788287
0.0113822
0.0275933
0.0503556
0.0734559
0.0940083
0.111143
0.124938
0.135827
0.1443
0.150804
0.155708
0.159314
0.161874
0.163651
0.164905
0.165625
0.16534
0.164944
0.170623
-0.0436155
-0.0387722
-0.0210736
0.00363332
0.0290046
0.0518957
0.071272
0.0871358
0.0998932
0.110034
0.118009
0.124196
0.128894
0.132348
0.1348
0.136526
0.137501
0.136744
0.133995
0.137522
-0.0939975
-0.0878676
-0.068854
-0.0424104
-0.0149505
0.0101362
0.0316444
0.0494901
0.064045
0.07579
0.0851739
0.0925699
0.0982651
0.102464
0.105326
0.106999
0.107387
0.10564
0.101059
0.0964404
-0.14282
-0.135468
-0.11533
-0.0873838
-0.0580471
-0.0309335
-0.00742249
0.0123069
0.0285849
0.0418796
0.0526389
0.0612378
0.067966
0.0730291
0.0765743
0.0787327
0.0795308
0.0786128
0.0755157
0.0712547
-0.189651
-0.181151
-0.160093
-0.130904
-0.0999302
-0.0709831
-0.0456164
-0.0241118
-0.00618604
0.0086157
0.0207449
0.03059
0.0384634
0.0446049
0.0491989
0.052408
0.0543729
0.0551337
0.0545827
0.0524447
-0.234083
-0.224517
-0.202756
-0.172606
-0.14026
-0.109697
-0.0826422
-0.0594857
-0.0399979
-0.0237407
-0.0102584
0.000852552
0.00992829
0.0172412
0.0230098
0.027418
0.0306473
0.0329126
0.0343356
0.0342655
-0.275745
-0.265201
-0.24296
-0.212145
-0.178717
-0.146782
-0.11823
-0.0935654
-0.0726218
-0.054984
-0.0401973
-0.0278475
-0.0175814
-0.00910501
-0.00217686
0.00340291
0.0078323
0.0113816
0.0142369
0.0156663
-0.314306
-0.302876
-0.280379
-0.249208
-0.215009
-0.181971
-0.152136
-0.126132
-0.103862
-0.084944
-0.0689303
-0.0554022
-0.0439959
-0.0344033
-0.0263682
-0.0196782
-0.0141232
-0.00941601
-0.00539311
-0.00290958
-0.349482
-0.337259
-0.314728
-0.283516
-0.248875
-0.215025
-0.184147
-0.156994
-0.133551
-0.113475
-0.096335
-0.081714
-0.0692427
-0.0586051
-0.049537
-0.0418196
-0.0352359
-0.0294892
-0.024437
-0.021067
-0.381041
-0.368122
-0.345768
-0.314829
-0.280086
-0.245735
-0.214077
-0.185989
-0.161544
-0.140454
-0.12231
-0.106703
-0.0932642
-0.081675
-0.0716678
-0.0630218
-0.0555194
-0.0488572
-0.0428898
-0.0386779
-0.408813
-0.395293
-0.373312
-0.34295
-0.30845
-0.273926
-0.241769
-0.212978
-0.187726
-0.165783
-0.146774
-0.130306
-0.116014
-0.103582
-0.0927428
-0.0832748
-0.0749638
-0.0675062
-0.0607417
-0.0557424
-0.432688
-0.41866
-0.397228
-0.367729
-0.333816
-0.299453
-0.267094
-0.237851
-0.212
-0.189381
-0.169662
-0.15247
-0.137452
-0.124297
-0.112739
-0.10256
-0.0935496
-0.0854115
-0.0779689
-0.072269
-0.452619
-0.438178
-0.417445
-0.38907
-0.356072
-0.322209
-0.289954
-0.260522
-0.234294
-0.211189
-0.190924
-0.173154
-0.157544
-0.143791
-0.131633
-0.120855
-0.111256
-0.102547
-0.0945392
-0.0882341
-0.468627
-0.453865
-0.433951
-0.406925
-0.375152
-0.342119
-0.310278
-0.280928
-0.254555
-0.231163
-0.210524
-0.19233
-0.176266
-0.162042
-0.149404
-0.138142
-0.128061
-0.118887
-0.110416
-0.103594
-0.480796
-0.465804
-0.446799
-0.421306
-0.391033
-0.359145
-0.328026
-0.299034
-0.272754
-0.249278
-0.228442
-0.20998
-0.193603
-0.179037
-0.166039
-0.154403
-0.143945
-0.134406
-0.125568
-0.11831
-0.489272
-0.474141
-0.456104
-0.432279
-0.403742
-0.373289
-0.343187
-0.314826
-0.288878
-0.265524
-0.24467
-0.226098
-0.209549
-0.194769
-0.181528
-0.169629
-0.158895
-0.149085
-0.139972
-0.132355
-0.49426
-0.47908
-0.462038
-0.439966
-0.413351
-0.384588
-0.35578
-0.328315
-0.302935
-0.27991
-0.259217
-0.240691
-0.22411
-0.209243
-0.195874
-0.183818
-0.172907
-0.162917
-0.153616
-0.14572
-0.496013
-0.48088
-0.464833
-0.444545
-0.419982
-0.393119
-0.365853
-0.339534
-0.314953
-0.29246
-0.272105
-0.25378
-0.237303
-0.222471
-0.209088
-0.196977
-0.185984
-0.175902
-0.166499
-0.158402
-0.494831
-0.479839
-0.464765
-0.446244
-0.423801
-0.398998
-0.373487
-0.348541
-0.324977
-0.303211
-0.283366
-0.265394
-0.249155
-0.234479
-0.221189
-0.209125
-0.198141
-0.188052
-0.178627
-0.170408
-0.491047
-0.476293
-0.462153
-0.445336
-0.425022
-0.402379
-0.37879
-0.355415
-0.333068
-0.312216
-0.293048
-0.275574
-0.259703
-0.245298
-0.232207
-0.220284
-0.209398
-0.199383
-0.190015
-0.181751
-0.485018
-0.470601
-0.457346
-0.442131
-0.423897
-0.403451
-0.381901
-0.360259
-0.339306
-0.31954
-0.301206
-0.28437
-0.268991
-0.254968
-0.242176
-0.230487
-0.219783
-0.20992
-0.200684
-0.19245
-0.477116
-0.463134
-0.450711
-0.43697
-0.420713
-0.402441
-0.382988
-0.363197
-0.343786
-0.325259
-0.307904
-0.29184
-0.277071
-0.263536
-0.251138
-0.23977
-0.229331
-0.219693
-0.21066
-0.20253
0.0782083
0.0500085
0.0292811
0.0194538
0.0106816
-0.00120244
-0.0145564
-0.0274531
-0.0395905
-0.0513843
-0.0630787
-0.0746464
-0.0859932
-0.0970766
-0.107904
-0.118499
-0.128885
-0.13909
-0.149146
-0.159097
0.0212667
0.00736857
-0.00479553
-0.0121971
-0.0177404
-0.0241879
-0.0316969
-0.03925
-0.0462619
-0.0527888
-0.0590565
-0.0651613
-0.0710777
-0.076759
-0.0821855
-0.0873591
-0.0922857
-0.0969659
-0.101396
-0.105568
0.00741158
0.00130258
-0.00413618
-0.00873434
-0.0129097
-0.0171893
-0.021736
-0.0263809
-0.0309348
-0.0353558
-0.0396995
-0.0440193
-0.0483292
-0.0526212
-0.0568889
-0.0611346
-0.0653658
-0.0695905
-0.0738159
-0.0780488
-0.000637525
-0.00441187
-0.00806998
-0.0117045
-0.0153016
-0.0188636
-0.0224143
-0.0259533
-0.0294562
-0.0329033
-0.0362938
-0.0396358
-0.0429348
-0.0461903
-0.0494002
-0.0525635
-0.0556807
-0.0587534
-0.061783
-0.0647709
-0.00676695
-0.00980543
-0.0125445
-0.0151124
-0.0176714
-0.0202489
-0.0228117
-0.0253397
-0.027833
-0.0302973
-0.0327365
-0.035153
-0.0375491
-0.0399272
-0.0422896
-0.0446385
-0.0469765
-0.0493059
-0.0516295
-0.0539496
-0.0113224
-0.013759
-0.0157956
-0.0176213
-0.0194611
-0.0213629
-0.0232823
-0.0251837
-0.0270629
-0.028929
-0.0307881
-0.0326414
-0.0344883
-0.0363284
-0.0381622
-0.0399904
-0.0418135
-0.0436321
-0.0454466
-0.0472574
-0.0140783
-0.0159607
-0.0174723
-0.0188214
-0.0202021
-0.0216487
-0.0231189
-0.0245801
-0.0260275
-0.0274682
-0.028908
-0.0303476
-0.031786
-0.0332226
-0.0346572
-0.0360903
-0.0375222
-0.0389533
-0.0403839
-0.0418144
-0.0155968
-0.0170443
-0.0182196
-0.019285
-0.020379
-0.021525
-0.022692
-0.0238558
-0.0250117
-0.0261647
-0.0273186
-0.0284742
-0.0296306
-0.0307869
-0.031943
-0.0330988
-0.0342544
-0.0354099
-0.0365654
-0.0377209
-0.0164091
-0.0175001
-0.0184471
-0.019337
-0.0202423
-0.0211766
-0.0221245
-0.0230721
-0.0240162
-0.0249587
-0.0259019
-0.026846
-0.0277908
-0.0287356
-0.0296802
-0.0306246
-0.0315687
-0.0325127
-0.0334565
-0.0344002
-0.0169538
-0.0177461
-0.0185133
-0.0192785
-0.0200506
-0.0208294
-0.0216115
-0.0223939
-0.0231756
-0.0239568
-0.0247378
-0.0255187
-0.0262995
-0.02708
-0.0278601
-0.0286396
-0.0294187
-0.0301974
-0.0309757
-0.0317536
-0.0174319
-0.0179962
-0.0186128
-0.0192665
-0.0199245
-0.020575
-0.0212206
-0.0218657
-0.0225115
-0.0231574
-0.0238028
-0.0244475
-0.0250916
-0.0257351
-0.0263781
-0.0270207
-0.0276628
-0.0283045
-0.0289459
-0.0295871
-0.0178906
-0.0182898
-0.0187775
-0.0193221
-0.0198715
-0.0204074
-0.0209344
-0.0214601
-0.0219872
-0.0225151
-0.0230427
-0.0235698
-0.0240964
-0.0246227
-0.025149
-0.0256752
-0.0262015
-0.0267279
-0.0272546
-0.0277815
-0.0182916
-0.0185638
-0.0189356
-0.0193732
-0.019818
-0.0202483
-0.0206685
-0.0210871
-0.0215075
-0.0219296
-0.0223521
-0.0227747
-0.0231976
-0.023621
-0.0240452
-0.0244704
-0.0248965
-0.0253237
-0.0257522
-0.0261819
-0.0185795
-0.0187379
-0.0190013
-0.0193386
-0.0196865
-0.02002
-0.0203429
-0.0206641
-0.020988
-0.0213144
-0.0216425
-0.0219719
-0.0223028
-0.0226356
-0.0229706
-0.023308
-0.0236479
-0.0239904
-0.0243357
-0.0246838
-0.0187009
-0.0187163
-0.0188576
-0.0190943
-0.0193482
-0.019586
-0.0198108
-0.0200341
-0.0202618
-0.0204943
-0.0207308
-0.0209709
-0.0212149
-0.0214633
-0.0217166
-0.021975
-0.0222386
-0.0225075
-0.0227817
-0.0230613
-0.0187681
-0.0186292
-0.0186103
-0.0187027
-0.0188277
-0.0189443
-0.0190517
-0.0191615
-0.0192808
-0.0194111
-0.0195516
-0.0197015
-0.0198611
-0.0200306
-0.0202102
-0.0204
-0.0205997
-0.0208092
-0.0210283
-0.0212566
-0.0184055
-0.0181587
-0.0178942
-0.0176946
-0.0175604
-0.0174678
-0.0174018
-0.0173597
-0.0173433
-0.0173539
-0.0173909
-0.0174528
-0.017538
-0.0176454
-0.0177737
-0.0179217
-0.0180882
-0.0182721
-0.018472
-0.0186868
-0.0157198
-0.0152748
-0.0148088
-0.0144335
-0.0141577
-0.0139577
-0.0138148
-0.0137209
-0.0136732
-0.0136696
-0.0137072
-0.0137826
-0.0138923
-0.0140332
-0.0142024
-0.0143974
-0.0146155
-0.0148545
-0.0151121
-0.0153864
-0.00478338
-0.00132891
-0.000150501
-0.000768062
-0.00178121
-0.00254712
-0.00308121
-0.00356084
-0.00407839
-0.00463652
-0.00521094
-0.00578632
-0.00635959
-0.00693218
-0.00750491
-0.00807707
-0.00864739
-0.00921473
-0.00977826
-0.0103373
0.00618631
0.0180354
0.0216661
0.01918
0.0155405
0.0129217
0.0112269
0.00983126
0.00841137
0.00694876
0.00551523
0.0041529
0.00286386
0.00163584
0.000459283
-0.00066999
-0.00175376
-0.00279375
-0.0037922
-0.00475156
0.117877
0.118399
0.119465
0.121069
0.12321
0.125902
0.129165
0.133021
0.137488
0.142566
0.148243
0.154458
0.161101
0.167934
0.17454
0.180116
0.183141
0.180579
0.16582
0.12392
0.108729
0.109111
0.109833
0.110915
0.11232
0.11407
0.116097
0.118432
0.120946
0.123665
0.126339
0.128967
0.131057
0.132523
0.132382
0.13028
0.124153
0.112709
0.09083
0.0527457
0.0979218
0.0981251
0.0984838
0.0990103
0.0996709
0.100459
0.1013
0.102164
0.102921
0.103508
0.103697
0.10336
0.102107
0.0996725
0.0954065
0.0888057
0.0788948
0.0650148
0.0464677
0.023514
0.0861439
0.0861776
0.086217
0.0862625
0.0862919
0.0862763
0.0861534
0.0858582
0.0852868
0.0843329
0.0828384
0.0806358
0.0774978
0.0731838
0.0674267
0.0599797
0.0507016
0.0394882
0.0262756
0.0101801
0.0740922
0.0740004
0.0738042
0.073499
0.0730717
0.0724877
0.0717008
0.0706423
0.0692404
0.067397
0.0650215
0.0619887
0.0582064
0.0535443
0.0479582
0.0413505
0.0337357
0.0249165
0.0146256
0.00191942
0.0623453
0.0621776
0.0618361
0.061316
0.06061
0.05969
0.0585246
0.057061
0.0552551
0.0530404
0.0503743
0.0471864
0.0434524
0.0391082
0.0341549
0.02851
0.0221402
0.0148149
0.00627581
-0.00418148
0.0513035
0.0510996
0.0506881
0.0500651
0.0492273
0.0481557
0.0468321
0.0452224
0.0433029
0.0410343
0.0383989
0.0353578
0.031904
0.0279943
0.0236244
0.0187223
0.0132549
0.00706599
-2.47196e-06
-0.00843897
0.0411921
0.040979
0.0405503
0.0399027
0.0390349
0.0379357
0.0365958
0.0349953
0.0331222
0.0309534
0.0284804
0.0256777
0.0225414
0.01904
0.0151725
0.0108967
0.00621178
0.0010419
-0.00468196
-0.0112736
0.0320987
0.0318924
0.0314784
0.0308531
0.0300158
0.0289601
0.0276822
0.0261703
0.0244192
0.022414
0.0201509
0.0176126
0.014799
0.0116912
0.00829735
0.00459938
0.000618275
-0.0036703
-0.00825233
-0.0132221
0.0240193
0.0238282
0.0234448
0.0228654
0.0220893
0.0211124
0.019934
0.0185476
0.0169518
0.0151377
0.0131054
0.0108446
0.00835994
0.00564183
0.0027045
-0.000457659
-0.00381258
-0.00735248
-0.0110008
-0.0146872
0.0168974
0.0167245
0.016378
0.0158539
0.0151514
0.0142677
0.0132041
0.0119576
0.0105303
0.00891794
0.0071244
0.00514462
0.00298691
0.000646708
-0.00185913
-0.00453047
-0.00732926
-0.0102296
-0.0131204
-0.015846
0.0106519
0.0104974
0.0101884
0.00972066
0.00909341
0.00830506
0.00735853
0.00625349
0.00499474
0.00358137
0.00202041
0.000310659
-0.00153665
-0.0035226
-0.00562875
-0.00785274
-0.0101553
-0.0125048
-0.014778
-0.0167862
0.00519689
0.00505891
0.00478367
0.00436712
0.00380891
0.00310881
0.00227152
0.00129906
0.00019833
-0.00102933
-0.0023752
-0.00383825
-0.00540507
-0.00707314
-0.00882069
-0.0106419
-0.0124978
-0.014359
-0.0161066
-0.0175467
0.000455698
0.000330218
8.06581e-05
-0.000296582
-0.000800885
-0.00143066
-0.00217875
-0.00304009
-0.00400482
-0.00506891
-0.00622222
-0.0074634
-0.00878004
-0.0101698
-0.0116089
-0.0130847
-0.0145495
-0.0159672
-0.0172259
-0.018153
-0.00362841
-0.00374738
-0.00398356
-0.00434002
-0.00481512
-0.00540551
-0.00610119
-0.00689325
-0.00776639
-0.00871049
-0.00970874
-0.0107556
-0.0118381
-0.0129605
-0.0141091
-0.0152809
-0.0164221
-0.0174733
-0.018284
-0.018667
-0.00708459
-0.00720409
-0.00744134
-0.00779945
-0.00827621
-0.0088682
-0.00956387
-0.0103526
-0.0112135
-0.0121287
-0.0130661
-0.0140034
-0.0149039
-0.0157617
-0.0165628
-0.0173437
-0.018094
-0.0187977
-0.0192428
-0.0191235
-0.0099126
-0.0100387
-0.01029
-0.0106702
-0.0111775
-0.011811
-0.012561
-0.013421
-0.014371
-0.0153941
-0.0164483
-0.0174928
-0.0184454
-0.0192376
-0.0197683
-0.0200225
-0.0200102
-0.0198888
-0.0196448
-0.0189476
-0.0120876
-0.0122231
-0.0124962
-0.0129104
-0.0134662
-0.0141653
-0.0150054
-0.015987
-0.0171042
-0.0183519
-0.01971
-0.0211466
-0.0225869
-0.0239049
-0.0248777
-0.025201
-0.024529
-0.0226901
-0.0199326
-0.0169819
-0.0135708
-0.0137149
-0.0140099
-0.0144571
-0.0150614
-0.0158252
-0.0167574
-0.0178627
-0.0191576
-0.0206499
-0.0223665
-0.0243141
-0.0265178
-0.0289304
-0.0314489
-0.0336744
-0.0348365
-0.0333914
-0.0273446
-0.014893
-0.0143228
-0.0144733
-0.0147815
-0.0152493
-0.0158829
-0.0166872
-0.0176757
-0.0188596
-0.0202648
-0.0219153
-0.0238605
-0.026153
-0.0288892
-0.0321758
-0.0361674
-0.0409433
-0.0463024
-0.0508552
-0.0497201
-0.0277272
0.128251
0.128822
0.130097
0.131981
0.134619
0.137911
0.142099
0.14704
0.153113
0.160109
0.168615
0.178315
0.190147
0.203607
0.220277
0.239294
0.263518
0.291321
0.328164
0.370569
0.128215
0.128785
0.130059
0.131943
0.13458
0.13787
0.142056
0.146995
0.153064
0.160054
0.168553
0.178243
0.190058
0.203497
0.220129
0.239095
0.263227
0.290893
0.327502
0.369513
0.128142
0.128712
0.129986
0.131868
0.134502
0.13779
0.141972
0.146905
0.152966
0.159946
0.16843
0.178099
0.189883
0.203279
0.219835
0.238699
0.262648
0.290042
0.326184
0.367408
0.128033
0.128603
0.129875
0.131755
0.134386
0.137669
0.141845
0.14677
0.152821
0.159785
0.168246
0.177886
0.18962
0.202953
0.219397
0.238109
0.261783
0.288773
0.324217
0.364268
0.127889
0.128458
0.129728
0.131606
0.134232
0.13751
0.141678
0.146592
0.152627
0.159571
0.168003
0.177602
0.189273
0.20252
0.218817
0.237327
0.260638
0.287094
0.321608
0.360107
0.127708
0.128277
0.129545
0.131419
0.134041
0.137311
0.141469
0.14637
0.152387
0.159305
0.1677
0.177249
0.188842
0.201983
0.218098
0.236358
0.259219
0.285015
0.318371
0.354948
0.127493
0.128061
0.129327
0.131197
0.133812
0.137074
0.14122
0.146105
0.1521
0.158988
0.16734
0.176829
0.18833
0.201344
0.217243
0.235207
0.257532
0.282549
0.314518
0.348817
0.127242
0.12781
0.129073
0.130938
0.133546
0.136799
0.140931
0.145797
0.151767
0.15862
0.166923
0.176342
0.187738
0.200604
0.216258
0.233879
0.255587
0.279709
0.310066
0.341747
0.126956
0.127525
0.128784
0.130645
0.133245
0.136487
0.140604
0.145449
0.151391
0.158204
0.166452
0.175791
0.18707
0.199768
0.215148
0.23238
0.253395
0.276512
0.305034
0.333776
0.126637
0.127205
0.128461
0.130317
0.132908
0.136138
0.140238
0.14506
0.150971
0.157739
0.165927
0.175177
0.186328
0.198838
0.213919
0.230717
0.250967
0.272974
0.299443
0.324946
0.126283
0.126852
0.128105
0.129955
0.132536
0.135754
0.139835
0.144633
0.150509
0.157229
0.16535
0.174503
0.185515
0.197817
0.212576
0.228897
0.248317
0.269115
0.293318
0.315305
0.125896
0.126466
0.127716
0.12956
0.132131
0.135335
0.139396
0.144167
0.150006
0.156673
0.164724
0.17377
0.184635
0.19671
0.211126
0.226927
0.245461
0.264951
0.286687
0.304906
0.125477
0.126048
0.127294
0.129133
0.131693
0.134883
0.138923
0.143664
0.149464
0.156075
0.16405
0.172982
0.183691
0.19552
0.209577
0.224816
0.242415
0.260503
0.279579
0.293802
0.125025
0.125599
0.126842
0.128675
0.131224
0.134398
0.138415
0.143126
0.148884
0.155435
0.163331
0.172141
0.182686
0.194253
0.207936
0.222571
0.239199
0.255788
0.272032
0.282047
0.124541
0.125118
0.126358
0.128186
0.130723
0.133882
0.137875
0.142554
0.148268
0.154756
0.162568
0.171249
0.181623
0.192911
0.206208
0.220201
0.235831
0.250824
0.264089
0.269689
0.124027
0.124607
0.125845
0.127667
0.130192
0.133334
0.137302
0.141947
0.147614
0.154036
0.161759
0.170304
0.1805
0.191494
0.204394
0.217708
0.232323
0.245625
0.255804
0.256768
0.123482
0.124067
0.125304
0.12712
0.129633
0.132758
0.136699
0.141309
0.146927
0.15328
0.16091
0.169313
0.179323
0.19001
0.202504
0.215105
0.228697
0.240207
0.247237
0.243314
0.122908
0.1235
0.124738
0.126551
0.129054
0.132164
0.136082
0.140661
0.146235
0.152522
0.160066
0.168329
0.178159
0.188533
0.200623
0.212479
0.225045
0.234625
0.238436
0.229228
0.122305
0.122906
0.124147
0.125961
0.128457
0.131559
0.13546
0.140016
0.145554
0.151787
0.159255
0.16739
0.17705
0.187117
0.19881
0.209894
0.221433
0.228919
0.229419
0.213836
0.121668
0.122272
0.123506
0.12531
0.127782
0.130856
0.134709
0.139212
0.144665
0.1508
0.158115
0.166064
0.175443
0.185139
0.196297
0.206595
0.217038
0.222613
0.220274
0.197433
0.121681
0.122284
0.123519
0.125323
0.127796
0.13087
0.134724
0.139228
0.144682
0.150818
0.158135
0.166085
0.175467
0.185167
0.196328
0.206631
0.21708
0.222662
0.220334
0.197506
0.122317
0.122918
0.124159
0.125973
0.12847
0.131572
0.135474
0.140031
0.14557
0.151804
0.159274
0.167411
0.177074
0.187143
0.19884
0.209928
0.221473
0.228966
0.229475
0.213906
0.12292
0.123512
0.124749
0.126563
0.129066
0.132177
0.136096
0.140675
0.14625
0.152539
0.160084
0.168349
0.178181
0.188558
0.200651
0.212511
0.225083
0.234669
0.238489
0.229294
0.123493
0.124078
0.125315
0.127132
0.129644
0.13277
0.136712
0.141323
0.146942
0.153295
0.160927
0.169332
0.179344
0.190033
0.20253
0.215136
0.228732
0.240249
0.247288
0.243377
0.124037
0.124617
0.125855
0.127678
0.130203
0.133345
0.137313
0.14196
0.147627
0.15405
0.161775
0.170321
0.180519
0.191516
0.204419
0.217737
0.232357
0.245665
0.255852
0.256827
0.124551
0.125127
0.126368
0.128196
0.130733
0.133892
0.137886
0.142566
0.14828
0.15477
0.162583
0.171265
0.181642
0.192932
0.206232
0.220228
0.235862
0.250861
0.264134
0.269744
0.125033
0.125607
0.126851
0.128684
0.131233
0.134408
0.138426
0.143137
0.148896
0.155448
0.163345
0.172156
0.182704
0.194272
0.207958
0.222596
0.239228
0.255822
0.272074
0.282099
0.125485
0.126056
0.127303
0.129142
0.131702
0.134892
0.138932
0.143674
0.149475
0.156087
0.164063
0.172996
0.183707
0.195538
0.209597
0.224839
0.242443
0.260535
0.279618
0.29385
0.125904
0.126474
0.127723
0.129568
0.132139
0.135344
0.139405
0.144176
0.150016
0.156684
0.164736
0.173784
0.18465
0.196726
0.211145
0.226949
0.245486
0.264981
0.286722
0.30495
0.12629
0.126859
0.128112
0.129962
0.132544
0.135762
0.139843
0.144641
0.150518
0.157239
0.165361
0.174515
0.185529
0.197832
0.212593
0.228917
0.24834
0.269142
0.293351
0.315346
0.126643
0.127212
0.128468
0.130323
0.132915
0.136145
0.140245
0.145068
0.150979
0.157748
0.165937
0.175188
0.18634
0.198852
0.213934
0.230735
0.250988
0.272999
0.299473
0.324983
0.126962