/*--------------------------------*- C++ -*----------------------------------*\
  =========                 |
  \\      /  F ield         | OpenFOAM: The Open Source CFD Toolbox
   \\    /   O peration     | Website:  https://openfoam.org
    \\  /    A nd           | Version:  6.0
     \\/     M anipulation  |
\*---------------------------------------------------------------------------*/
FoamFile
{
    version     2.0;
    format      ascii;
    class       surfaceScalarField;
    location    "75";
    object      phi;
}
// * * * * * * * * * * * * * * * * * * * * * * * * * * * * * * * * * * * * * //

dimensions      [0 3 -1 0 0 0 0];

internalField   nonuniform List<scalar> 
7840
(
3.76702e-05
-0.00034235
0.000129021
-0.0010206
0.000251964
-0.00165901
0.00038483
-0.00221318
0.00051022
-0.00265472
0.000617358
-0.00297768
0.000701954
-0.00319397
0.000764496
-0.00332474
0.000808168
-0.00339299
0.000837133
-0.00341907
0.000855416
-0.00341876
0.000866355
-0.00340325
0.000872456
-0.00337988
0.000875471
-0.00335316
0.000876568
-0.00332576
0.000876507
-0.0032992
0.000875785
-0.00327432
0.000874723
-0.00325159
0.00087352
-0.00323122
-0.00321339
0.000872292
3.84391e-05
-0.000380789
0.000128971
-0.00111113
0.000247259
-0.0017773
0.000370994
-0.00233692
0.000483662
-0.00276738
0.000576166
-0.00307018
0.000645901
-0.0032637
0.000694585
-0.00337342
0.000726058
-0.00342447
0.000744645
-0.00343765
0.000754211
-0.00342833
0.000757785
-0.00340683
0.000757528
-0.00337962
0.000754889
-0.00335052
0.000750797
-0.00332167
0.000745845
-0.00329425
0.000740414
-0.00326889
0.000734749
-0.00324592
0.000729003
-0.00322548
-0.00320765
0.000723259
3.87762e-05
-0.000419565
0.000127386
-0.00119974
0.000239643
-0.00188956
0.000353089
-0.00245036
0.000452445
-0.00286674
0.000530372
-0.00314811
0.000585824
-0.00331915
0.000621528
-0.00340913
0.000641762
-0.0034447
0.000650852
-0.00344674
0.00065242
-0.0034299
0.000649158
-0.00340356
0.000642898
-0.00337336
0.000634817
-0.00334244
0.000625646
-0.0033125
0.00061584
-0.00328444
0.000605691
-0.00325874
0.000595393
-0.00323563
0.000585061
-0.00321515
-0.00319735
0.000574758
3.86643e-05
-0.00045823
0.00012429
-0.00128536
0.000229294
-0.00199456
0.000331546
-0.00255262
0.000417264
-0.00295246
0.000480872
-0.00321172
0.000522712
-0.00336099
0.000546303
-0.00343272
0.000556167
-0.00345457
0.000556515
-0.00344709
0.000550668
-0.00342405
0.000540976
-0.00339387
0.000528971
-0.00336135
0.000515593
-0.00332906
0.000501408
-0.00329831
0.000486762
-0.00326979
0.000471879
-0.00324386
0.00045691
-0.00322066
0.000441948
-0.00320018
-0.00318244
0.000427043
3.80963e-05
-0.000496326
0.000119736
-0.001367
0.000216435
-0.00209126
0.000306823
-0.002643
0.000378796
-0.00302443
0.000428478
-0.0032614
0.000457412
-0.00338993
0.000469702
-0.00344501
0.000469958
-0.00345482
0.000462182
-0.00343931
0.00044937
-0.00341124
0.000433546
-0.00337805
0.000415969
-0.00334378
0.000397382
-0.00331047
0.000378214
-0.00327915
0.000358722
-0.0032503
0.000339079
-0.00322421
0.000319405
-0.00320098
0.000299778
-0.00318056
-0.0031629
0.00028024
3.70745e-05
-0.000533401
0.000113807
-0.00144374
0.000201324
-0.00217878
0.000279391
-0.00272107
0.000337687
-0.00308273
0.000373931
-0.00329764
0.000390669
-0.00340667
0.000392402
-0.00344674
0.000383703
-0.00344612
0.000368309
-0.00342392
0.000348882
-0.00339181
0.000327142
-0.00335631
0.000304114
-0.00332075
0.000280371
-0.00328673
0.000256231
-0.00325501
0.000231883
-0.00322595
0.000207456
-0.00319979
0.000183049
-0.00317658
0.000158729
-0.00315624
-0.00313871
0.000134535
3.56105e-05
-0.000569011
0.000106606
-0.00151473
0.000184236
-0.00225641
0.000249711
-0.00278655
0.000294535
-0.00312755
0.000317881
-0.00332099
0.000323106
-0.00341189
0.000314949
-0.00343859
0.000297849
-0.00342902
0.000275239
-0.00340131
0.00024946
-0.00336603
0.000221957
-0.00332881
0.000193552
-0.00329234
0.000164682
-0.00325786
0.000135572
-0.0032259
0.000106353
-0.00319674
7.71217e-05
-0.00317056
4.7957e-05
-0.00314741
1.89235e-05
-0.0031272
-0.00310985
-9.93895e-06
3.37235e-05
-0.000602735
9.82541e-05
-0.00157926
0.000165455
-0.00232361
0.000218226
-0.00283932
0.000249884
-0.00315921
0.000260896
-0.003332
0.000255253
-0.00340625
0.000237794
-0.00342113
0.000212753
-0.00340398
0.000183247
-0.0033718
0.000151309
-0.00333409
0.000118147
-0.00329564
8.44108e-05
-0.00325861
5.04253e-05
-0.00322388
1.63414e-05
-0.00319181
-1.776e-05
-0.00316263
-5.18139e-05
-0.0031365
-8.57532e-05
-0.00311347
-0.000119513
-0.00309344
-0.00307631
-0.000153048
3.14397e-05
-0.000634174
8.88832e-05
-0.00163671
0.000145262
-0.00237999
0.000185351
-0.00287941
0.000204219
-0.00317808
0.000203466
-0.00333125
0.00018755
-0.00339033
0.000161303
-0.00339488
0.000128702
-0.00337138
9.25462e-05
-0.00333565
5.45903e-05
-0.00329614
1.58327e-05
-0.00325688
-2.32126e-05
-0.00321956
-6.23131e-05
-0.00318478
-0.00010138
-0.00315275
-0.000140375
-0.00312364
-0.000179264
-0.00309761
-0.000217989
-0.00307475
-0.000256482
-0.00305495
-0.00303811
-0.000294685
2.87909e-05
-0.000662965
7.86309e-05
-0.00168655
0.000123933
-0.00242529
0.000151469
-0.00290694
0.000157972
-0.00318458
0.000146012
-0.00331929
0.00012037
-0.00336469
8.57771e-05
-0.00336029
4.59286e-05
-0.00333153
3.31356e-06
-0.00329303
-4.0565e-05
-0.00325226
-8.4883e-05
-0.00321257
-0.000129237
-0.00317521
-0.000173464
-0.00314055
-0.000217526
-0.00310868
-0.000261427
-0.00307974
-0.00030516
-0.00305388
-0.000348681
-0.00303123
-0.000391908
-0.00301172
-0.00299525
-0.000434769
2.58132e-05
-0.000688778
6.7638e-05
-0.00172837
0.000101729
-0.00245938
0.000116929
-0.00292214
0.000111526
-0.00317918
8.88978e-05
-0.00329666
5.40232e-05
-0.00332982
1.14697e-05
-0.00331773
-3.53702e-05
-0.00328469
-8.43006e-05
-0.0032441
-0.000134041
-0.00320252
-0.000183912
-0.0031627
-0.000233592
-0.00312553
-0.000282971
-0.00309117
-0.000332052
-0.0030596
-0.000380875
-0.00303091
-0.000429467
-0.00300529
-0.000477795
-0.0029829
-0.000525764
-0.00296375
-0.00294773
-0.000573278
2.25461e-05
-0.000711324
5.60447e-05
-0.00176187
7.89003e-05
-0.00248224
8.20511e-05
-0.00292529
6.52163e-05
-0.00316234
3.2437e-05
-0.00326388
-1.12194e-05
-0.00328616
-6.14003e-05
-0.00326755
-0.00011502
-0.00323107
-0.000170157
-0.00318896
-0.000225727
-0.00314695
-0.000281165
-0.00310726
-0.000336212
-0.00307048
-0.000390789
-0.00303659
-0.000444927
-0.00300547
-0.000498704
-0.00297714
-0.000552183
-0.00295181
-0.00060535
-0.00292973
-0.000658095
-0.00291101
-0.00289554
-0.000710284
1.90317e-05
-0.000730356
4.39893e-05
-0.00178683
5.56783e-05
-0.00249393
4.71231e-05
-0.00291674
1.93431e-05
-0.00313456
-2.30944e-05
-0.00322144
-7.51209e-05
-0.00323413
-0.000132635
-0.00321004
-0.000192855
-0.00317085
-0.000254115
-0.0031277
-0.000315501
-0.00308556
-0.000376543
-0.00304622
-0.00043702
-0.00301001
-0.000496866
-0.00297674
-0.000556127
-0.0029462
-0.000614913
-0.00291835
-0.00067333
-0.00289339
-0.0007314
-0.00287166
-0.000788998
-0.00285341
-0.00283861
-0.000845931
1.53138e-05
-0.00074567
3.16059e-05
-0.00180312
3.22803e-05
-0.0024946
1.24069e-05
-0.00289686
-2.58271e-05
-0.00309633
-7.74503e-05
-0.00316982
-0.000137465
-0.00317412
-0.000202045
-0.00314546
-0.000268707
-0.00310419
-0.000336019
-0.00306039
-0.000403221
-0.00301836
-0.000469919
-0.00297952
-0.000535915
-0.00294401
-0.000601138
-0.00291152
-0.000665624
-0.00288172
-0.000729504
-0.00285447
-0.000792939
-0.00282996
-0.000855999
-0.0028086
-0.000918559
-0.00279085
-0.00277684
-0.000980325
1.14371e-05
-0.000757107
1.90237e-05
-0.00181071
8.90779e-06
-0.00248449
-2.18598e-05
-0.0028661
-7.00541e-05
-0.00304813
-0.000130407
-0.00310947
-0.000198049
-0.00310648
-0.000269443
-0.00307407
-0.000342392
-0.00303124
-0.000415686
-0.0029871
-0.000488704
-0.00294534
-0.000561119
-0.0029071
-0.000632749
-0.00287238
-0.000703498
-0.00284077
-0.000773368
-0.00281185
-0.000842483
-0.00278536
-0.000911046
-0.00276139
-0.000979202
-0.00274044
-0.00104684
-0.00272322
-0.00271017
-0.0011135
7.44662e-06
-0.000764554
6.36593e-06
-0.00180962
-1.42535e-05
-0.00246387
-5.54618e-05
-0.00282489
-0.00011312
-0.00299047
-0.000181757
-0.00304083
-0.000256676
-0.00303156
-0.000334631
-0.00299611
-0.000413706
-0.00295217
-0.000492894
-0.00290791
-0.000571708
-0.00286653
-0.000649893
-0.00282892
-0.000727286
-0.00279499
-0.000803759
-0.0027643
-0.000879256
-0.00273635
-0.000953846
-0.00271077
-0.00102775
-0.0026875
-0.00110118
-0.00266701
-0.00117407
-0.00265033
-0.00263839
-0.00124586
3.38684e-06
-0.00076794
-6.25156e-06
-0.00179999
-3.70336e-05
-0.00243309
-8.8205e-05
-0.00277372
-0.00015483
-0.00292385
-0.00023131
-0.00296435
-0.000313153
-0.00294971
-0.000397409
-0.00291185
-0.00048242
-0.00286716
-0.000567378
-0.00282295
-0.000651925
-0.00278198
-0.000735896
-0.00274495
-0.000819163
-0.00271172
-0.000901588
-0.00268187
-0.000983046
-0.00265489
-0.00106352
-0.0026303
-0.00114318
-0.00260783
-0.00122237
-0.00258782
-0.00130107
-0.00257163
-0.00256048
-0.00137898
-6.99154e-07
-0.000767241
-1.87214e-05
-0.00178196
-5.92793e-05
-0.00239253
-0.000119917
-0.00271308
-0.000195005
-0.00284876
-0.000278887
-0.00288047
-0.000367294
-0.00286131
-0.000457562
-0.00282159
-0.000548282
-0.00277644
-0.000638828
-0.0027324
-0.000728981
-0.00269183
-0.000818681
-0.00265525
-0.000907882
-0.00262252
-0.000996481
-0.00259328
-0.00108432
-0.00256705
-0.00117129
-0.00254333
-0.0012575
-0.00252162
-0.00134339
-0.00250193
-0.0014292
-0.00248582
-0.00247397
-0.00151571
-4.77066e-06
-0.000762471
-3.09463e-05
-0.00175579
-8.0856e-05
-0.00234262
-0.000150447
-0.00264349
-0.000233495
-0.00276571
-0.000324331
-0.00278963
-0.000418922
-0.00276672
-0.000514877
-0.00272563
-0.000611015
-0.0026803
-0.000706882
-0.00263654
-0.000802399
-0.00259631
-0.000897642
-0.00256
-0.00099271
-0.00252745
-0.00108764
-0.00249834
-0.00118237
-0.00247233
-0.00127676
-0.00244894
-0.00137082
-0.00242756
-0.00146494
-0.0024078
-0.00155973
-0.00239103
-0.00237563
-0.00165808
-8.79037e-06
-0.00075368
-4.28412e-05
-0.00172174
-0.00010165
-0.00228381
-0.000179674
-0.00256546
-0.000270176
-0.00267521
-0.000367513
-0.00269229
-0.000467886
-0.00266634
-0.000569156
-0.00262436
-0.00067034
-0.00257911
-0.000771129
-0.00253575
-0.000871566
-0.00249588
-0.000971864
-0.00245971
-0.00107232
-0.002427
-0.00117325
-0.00239742
-0.00127494
-0.00237064
-0.00137758
-0.0023463
-0.00148127
-0.00232387
-0.00158661
-0.00230247
-0.00169605
-0.00228159
-0.00227375
-0.00179792
-1.27126e-05
-0.000740968
-5.43138e-05
-0.00168014
-0.000121545
-0.00221658
-0.000207479
-0.00247953
-0.000304937
-0.00257775
-0.000408327
-0.0025889
-0.000514074
-0.0025606
-0.000620262
-0.00251817
-0.000726064
-0.00247331
-0.000831268
-0.00243054
-0.000935968
-0.00239118
-0.00104042
-0.00235525
-0.001145
-0.00232242
-0.00125022
-0.0022922
-0.00135673
-0.00226412
-0.00146542
-0.00223761
-0.00157715
-0.00221214
-0.00169225
-0.00218736
-0.00181166
-0.00216218
-0.00212908
-0.00195633
-1.65316e-05
-0.000724436
-6.53444e-05
-0.00163132
-0.00014052
-0.0021414
-0.000233849
-0.0023862
-0.000337775
-0.00247383
-0.00044678
-0.0024799
-0.000557501
-0.00244988
-0.000668217
-0.00240746
-0.000778229
-0.0023633
-0.000887377
-0.0023214
-0.000995748
-0.0022828
-0.00110352
-0.00224748
-0.00121092
-0.00221502
-0.00131818
-0.00218494
-0.00142559
-0.00215672
-0.00153334
-0.00212986
-0.00164152
-0.00210396
-0.00175034
-0.00207854
-0.00186053
-0.00205199
-0.0020206
-0.00196902
-2.0212e-05
-0.000704224
-7.58689e-05
-0.00157567
-0.000158503
-0.00205877
-0.000258722
-0.00228598
-0.000368649
-0.0023639
-0.000482853
-0.00236569
-0.000598171
-0.00233456
-0.000713057
-0.00229257
-0.000826922
-0.00224943
-0.000939659
-0.00220866
-0.00105136
-0.0021711
-0.0011622
-0.00213665
-0.00127232
-0.00210489
-0.0013819
-0.00207536
-0.00149102
-0.0020476
-0.00159971
-0.00202117
-0.00170796
-0.00199571
-0.00181573
-0.00197077
-0.00192226
-0.00194546
-0.00191893
-0.00202393
-2.37355e-05
-0.000680489
-8.58549e-05
-0.00151355
-0.000175464
-0.00196916
-0.000282086
-0.00217936
-0.000397569
-0.00224842
-0.00051658
-0.00224668
-0.000636143
-0.002215
-0.000754867
-0.00217385
-0.000872254
-0.00213205
-0.000988227
-0.00209268
-0.00110287
-0.00205645
-0.00121632
-0.0020232
-0.00132869
-0.00199252
-0.00144005
-0.001964
-0.00155042
-0.00193723
-0.00165972
-0.00191187
-0.00176781
-0.00188762
-0.00187441
-0.00186417
-0.00197885
-0.00184103
-0.00181778
-0.00207999
-2.70877e-05
-0.000653401
-9.52804e-05
-0.00144535
-0.00019139
-0.00187305
-0.000303945
-0.0020668
-0.000424565
-0.0021278
-0.00054802
-0.00212323
-0.00067151
-0.00209151
-0.000793788
-0.00205157
-0.000914436
-0.0020114
-0.00103341
-0.00197371
-0.0011508
-0.00193906
-0.00126671
-0.00190728
-0.00138124
-0.001878
-0.00149442
-0.00185082
-0.00160624
-0.00182541
-0.00171663
-0.00180147
-0.00182546
-0.00177879
-0.00193247
-0.00175716
-0.00203724
-0.00173625
-0.00171585
-0.00213918
-3.02578e-05
-0.000623143
-0.000104131
-0.00137148
-0.000206276
-0.00177091
-0.000324315
-0.00194876
-0.000449677
-0.00200243
-0.000577236
-0.00199567
-0.000704363
-0.00196438
-0.000829937
-0.001926
-0.000953617
-0.00188772
-0.00107539
-0.00185194
-0.00119535
-0.0018191
-0.00131362
-0.00178902
-0.00143026
-0.00176135
-0.00154532
-0.00173576
-0.00165879
-0.00171194
-0.00177061
-0.00168965
-0.0018807
-0.00166871
-0.00198889
-0.00164896
-0.00209499
-0.00163015
-0.00161213
-0.00219871
-3.32377e-05
-0.000589905
-0.000112399
-0.00129232
-0.000220126
-0.00166318
-0.000343221
-0.00182567
-0.00047295
-0.00187271
-0.000604298
-0.00186432
-0.000734793
-0.00183388
-0.000863434
-0.00179735
-0.000989946
-0.00176121
-0.00111435
-0.00172753
-0.00123677
-0.00169669
-0.0013573
-0.00166849
-0.00147604
-0.00164261
-0.00159305
-0.00161875
-0.00170834
-0.00159665
-0.00182189
-0.0015761
-0.00193365
-0.00155694
-0.00204358
-0.00153904
-0.00215158
-0.00152215
-0.00150621
-0.00225749
-3.60213e-05
-0.000553884
-0.00012008
-0.00120826
-0.000232949
-0.00155031
-0.000360686
-0.00169793
-0.000494427
-0.00173896
-0.000629266
-0.00172948
-0.000762878
-0.00170027
-0.000894373
-0.00166586
-0.00102354
-0.00163204
-0.00115043
-0.00160064
-0.00127518
-0.00157194
-0.00139792
-0.00154575
-0.00151876
-0.00152178
-0.00163776
-0.00149976
-0.00175496
-0.00147944
-0.00187041
-0.00146066
-0.00198408
-0.00144326
-0.002096
-0.00142712
-0.00220614
-0.00141201
-0.00139791
-0.00231444
-3.8604e-05
-0.00051528
-0.000127171
-0.00111969
-0.000244753
-0.00143273
-0.000376735
-0.00156595
-0.000514149
-0.00160155
-0.000652195
-0.00159144
-0.000788685
-0.00156378
-0.000922829
-0.00153172
-0.00105447
-0.0015004
-0.00118371
-0.0014714
-0.00131069
-0.00144495
-0.00143556
-0.00142088
-0.00155845
-0.0013989
-0.00167944
-0.00137876
-0.00179861
-0.00136027
-0.00191602
-0.00134325
-0.00203172
-0.00132757
-0.00214573
-0.00131311
-0.00225809
-0.00129965
-0.00128721
-0.00236879
-4.09822e-05
-0.000474298
-0.000133673
-0.001027
-0.000255547
-0.00131085
-0.000391391
-0.00143011
-0.000532149
-0.00146079
-0.000673128
-0.00145046
-0.000812263
-0.00142465
-0.000948856
-0.00139512
-0.00108281
-0.00136644
-0.00121424
-0.00133996
-0.00134333
-0.00131587
-0.00147024
-0.00129397
-0.00159511
-0.00127403
-0.00171806
-0.00125582
-0.00183918
-0.00123915
-0.00195856
-0.00122387
-0.00207627
-0.00120986
-0.00219237
-0.001197
-0.00230694
-0.00118509
-0.00117417
-0.00241998
-4.31528e-05
-0.000431145
-0.000139585
-0.000930571
-0.000265339
-0.0011851
-0.00040467
-0.00129078
-0.000548455
-0.00131701
-0.000692097
-0.00130682
-0.000833647
-0.0012831
-0.000972488
-0.00125628
-0.00110857
-0.00123036
-0.00124205
-0.00120649
-0.00137312
-0.0011848
-0.00150195
-0.00116514
-0.00162871
-0.00114727
-0.00175353
-0.00113099
-0.00187653
-0.00111615
-0.00199781
-0.00110258
-0.00211748
-0.0010902
-0.0022356
-0.00107887
-0.00235227
-0.00106842
-0.00105892
-0.00246753
-4.51127e-05
-0.000386032
-0.000144905
-0.000830778
-0.000274135
-0.00105587
-0.000416588
-0.00114832
-0.000563086
-0.00117051
-0.000709125
-0.00116078
-0.00085286
-0.00113936
-0.000993745
-0.0011154
-0.00113178
-0.00109232
-0.00126713
-0.00107113
-0.00140002
-0.00105191
-0.00153064
-0.00103452
-0.00165917
-0.00101874
-0.00178575
-0.00100441
-0.00191053
-0.000991371
-0.00203361
-0.0009795
-0.00215511
-0.000968697
-0.00227514
-0.000958842
-0.00239377
-0.000949788
-0.00094161
-0.00251108
-4.68593e-05
-0.000339173
-0.000149633
-0.000728004
-0.000281939
-0.000923564
-0.000427153
-0.00100311
-0.000576057
-0.0010216
-0.000724228
-0.0010126
-0.000869914
-0.000993677
-0.00101264
-0.000972677
-0.00115242
-0.000952535
-0.00128948
-0.000934073
-0.00142403
-0.000917363
-0.00155628
-0.000902262
-0.00168643
-0.000888596
-0.00181463
-0.000876208
-0.00194104
-0.000864964
-0.00206578
-0.000854758
-0.00218898
-0.000845497
-0.00231075
-0.000837074
-0.00243118
-0.000829359
-0.000822437
-0.00255035
-4.83899e-05
-0.000290783
-0.000153766
-0.000622628
-0.000288752
-0.000788579
-0.000436372
-0.000855489
-0.000587375
-0.000870602
-0.000737414
-0.000862566
-0.000884816
-0.000846275
-0.00102916
-0.000828337
-0.0011705
-0.000811189
-0.00130907
-0.000795505
-0.0014451
-0.000781332
-0.00157882
-0.000768546
-0.00171042
-0.000756996
-0.00184008
-0.000746549
-0.00196795
-0.000737088
-0.00209419
-0.000728524
-0.00221891
-0.000720775
-0.00234224
-0.000713746
-0.00246427
-0.000707327
-0.000701605
-0.0025851
-4.97021e-05
-0.000241081
-0.000157302
-0.000515028
-0.000294574
-0.000651307
-0.000444248
-0.000705816
-0.000597046
-0.000717804
-0.000748686
-0.000710925
-0.000897565
-0.000697396
-0.0010433
-0.000682598
-0.001186
-0.000668496
-0.00132588
-0.000655624
-0.0014632
-0.000644012
-0.00159819
-0.000633553
-0.00173106
-0.000624125
-0.001862
-0.000615614
-0.00199116
-0.000607926
-0.0021187
-0.000600984
-0.00224475
-0.000594721
-0.00236944
-0.000589056
-0.00249287
-0.000583899
-0.000579332
-0.00261514
-5.07933e-05
-0.000190288
-0.000160238
-0.000405583
-0.000299406
-0.000512139
-0.000450782
-0.00055444
-0.00060507
-0.000563515
-0.000758045
-0.000557951
-0.000908157
-0.000547285
-0.00105507
-0.000535688
-0.00119889
-0.000524672
-0.00133988
-0.000514638
-0.00147829
-0.000505603
-0.00161436
-0.000497483
-0.0017483
-0.000490178
-0.00188032
-0.0004836
-0.00201057
-0.000477674
-0.00213921
-0.000472339
-0.00226639
-0.000467542
-0.00239223
-0.000463217
-0.00251684
-0.000459295
-0.000455847
-0.00264032
-5.16614e-05
-0.000138626
-0.000162572
-0.000294672
-0.000303245
-0.000371466
-0.000455973
-0.000401711
-0.000611449
-0.00040804
-0.000765488
-0.000403912
-0.000916586
-0.000396186
-0.00106444
-0.000387839
-0.00120917
-0.000379938
-0.00135104
-0.000372762
-0.00149033
-0.000366318
-0.00162727
-0.000360543
-0.00176209
-0.000355363
-0.00189497
-0.000350714
-0.0020261
-0.000346541
-0.00215564
-0.000342801
-0.00228373
-0.000339454
-0.0024105
-0.000336451
-0.00253605
-0.000333742
-0.000331384
-0.00266051
-5.23045e-05
-8.63219e-05
-0.000164301
-0.000182675
-0.000306089
-0.000229678
-0.000459822
-0.000247979
-0.000616179
-0.000251682
-0.000771011
-0.00024908
-0.000922847
-0.00024435
-0.0010714
-0.000239287
-0.00121681
-0.000234523
-0.00135936
-0.000230219
-0.0014993
-0.000226374
-0.0016369
-0.000222947
-0.00177237
-0.000219893
-0.00190591
-0.00021717
-0.00203771
-0.000214745
-0.00216792
-0.00021259
-0.00229669
-0.00021068
-0.00242416
-0.000208985
-0.00255043
-0.000207473
-0.000206185
-0.00267562
-5.27212e-05
-3.36007e-05
-0.000165423
-6.99735e-05
-0.000307937
-8.7164e-05
-0.000462324
-9.3592e-05
-0.00061926
-9.47471e-05
-0.000774612
-9.37267e-05
-0.000926933
-9.20296e-05
-0.00107595
-9.02713e-05
-0.00122181
-8.86576e-05
-0.0013648
-8.72336e-05
-0.00150518
-8.59931e-05
-0.00164321
-8.49177e-05
-0.00177911
-8.39886e-05
-0.0019131
-8.31895e-05
-0.00204533
-8.25072e-05
-0.00217599
-8.1931e-05
-0.00230522
-8.14513e-05
-0.00243315
-8.10552e-05
-0.00255989
-8.07297e-05
-8.04965e-05
-0.00268558
-5.29102e-05
1.93095e-05
-0.000165936
4.30521e-05
-0.000308787
5.5687e-05
-0.000463481
6.11019e-05
-0.000620688
6.24605e-05
-0.000776289
6.18734e-05
-0.000928841
6.05226e-05
-0.00107808
5.89663e-05
-0.00122416
5.74243e-05
-0.00136736
5.59645e-05
-0.00150795
5.45988e-05
-0.00164619
5.33223e-05
-0.00178231
5.21266e-05
-0.0019165
5.10032e-05
-0.00204895
4.99451e-05
-0.00217983
4.89458e-05
-0.00230928
4.79999e-05
-0.00243744
4.71018e-05
-0.00256441
4.62461e-05
4.5432e-05
-0.00269034
-5.28715e-05
7.21811e-05
-0.00016584
0.00015602
-0.000308638
0.000198486
-0.00046329
0.000215754
-0.000620465
0.000219635
-0.000776038
0.000217447
-0.000928567
0.000213052
-0.00107778
0.000208183
-0.00122385
0.000203487
-0.00136703
0.000199145
-0.0015076
0.000195174
-0.00164583
0.000191547
-0.00178193
0.000188227
-0.00191611
0.000185182
-0.00204854
0.000182384
-0.00217941
0.000179809
-0.00230885
0.000177438
-0.00243699
0.000175245
-0.00256395
0.000173208
0.000171346
-0.00268987
-5.26046e-05
0.000124786
-0.000165133
0.000268549
-0.00030749
0.000340842
-0.000461751
0.000370016
-0.000618588
0.000376472
-0.00077386
0.000372719
-0.000926111
0.000365303
-0.00107507
0.000357137
-0.00122087
0.000349296
-0.00136381
0.000342077
-0.00150414
0.000335506
-0.00164212
0.00032953
-0.00177798
0.000324087
-0.00191192
0.00031912
-0.00204412
0.00031458
-0.00217473
0.000310428
-0.00230392
0.000306627
-0.00243181
0.000303135
-0.00255852
0.000299911
0.000296992
-0.00268416
-5.21099e-05
0.000176896
-0.000163817
0.000380256
-0.000305342
0.000482366
-0.000458863
0.000523537
-0.000615056
0.000532664
-0.000769754
0.000527417
-0.000921474
0.000517023
-0.00106992
0.000505585
-0.00121524
0.000494616
-0.0013577
0.000484533
-0.00149756
0.000475368
-0.00163508
0.000467048
-0.00177048
0.000459484
-0.00190395
0.000452594
-0.00203568
0.000446309
-0.00216582
0.000440572
-0.00229453
0.000435334
-0.00242193
0.000430534
-0.00254813
0.000426111
0.00042212
-0.00267326
-5.13883e-05
0.000228284
-0.000161893
0.000490761
-0.000302194
0.000622668
-0.000454627
0.00067597
-0.00060987
0.000687908
-0.000763721
0.000681267
-0.000914657
0.00066796
-0.00106236
0.00065329
-0.00120696
0.000639217
-0.00134872
0.000626286
-0.00148789
0.000614539
-0.00162472
0.000603881
-0.00175943
0.000594197
-0.00189222
0.000585382
-0.00202326
0.000577347
-0.00215271
0.000570018
-0.0022807
0.000563331
-0.00240738
0.000557209
-0.00253284
0.000551572
0.000546487
-0.00265721
-5.04411e-05
0.000278725
-0.000159361
0.000599681
-0.000298049
0.000761356
-0.000449042
0.000826963
-0.000603031
0.000841897
-0.000755762
0.000833998
-0.000905665
0.000817863
-0.00105239
0.000800013
-0.00119604
0.000782872
-0.00133687
0.000767115
-0.00147513
0.0007528
-0.00161107
0.000739814
-0.00174488
0.000728014
-0.00187677
0.000717273
-0.00200691
0.00070748
-0.00213543
0.000698547
-0.0022625
0.000690396
-0.00238822
0.000682933
-0.00251271
0.00067606
0.000669852
-0.00263608
-4.927e-05
0.000327995
-0.000156224
0.000706635
-0.000292905
0.000898037
-0.000442108
0.000976165
-0.000594537
0.000994326
-0.000745878
0.000985339
-0.000894501
0.000966486
-0.00104001
0.000945524
-0.0011825
0.000925357
-0.00132219
0.000906804
-0.00145933
0.000889943
-0.00159416
0.00087464
-0.00172687
0.000860729
-0.00185766
0.000848058
-0.00198668
0.000836499
-0.00211408
0.000825948
-0.00223999
0.000816313
-0.00236455
0.000807487
-0.00248784
0.000799351
0.000791984
-0.00260997
-4.78769e-05
0.000375872
-0.000152484
0.000811242
-0.000286765
0.00103232
-0.000433823
0.00112322
-0.000584387
0.00114489
-0.00073407
0.00113502
-0.000881169
0.00111358
-0.00102524
0.0010896
-0.00116634
0.00106646
-0.00130468
0.00104515
-0.00144051
0.00102576
-0.00157403
0.00100816
-0.00170544
0.000992146
-0.00183493
0.000977545
-0.00196264
0.00096421
-0.00208872
0.000952022
-0.00221328
0.000940879
-0.00233645
0.00093066
-0.00245833
0.000921228
0.000912656
-0.002579
-4.62641e-05
0.000422136
-0.000148143
0.00091312
-0.000279626
0.0011638
-0.000424185
0.00126778
-0.000572577
0.00129328
-0.000720335
0.00128278
-0.000865669
0.00125892
-0.00100808
0.001232
-0.00114759
0.00120597
-0.00128438
0.00118194
-0.00141869
0.00116007
-0.00155072
0.00114019
-0.00168066
0.00112208
-0.00180867
0.00110555
-0.00193489
0.00109043
-0.00205945
0.00107659
-0.00218248
0.0010639
-0.00230408
0.00105226
-0.00242433
0.00104149
0.00103165
-0.00254333
-4.44339e-05
0.00046657
-0.000143201
0.00101189
-0.000271488
0.00129209
-0.000413188
0.00140948
-0.0005591
0.00143919
-0.000704666
0.00142835
-0.000848
0.00140225
-0.000988532
0.00137254
-0.00112625
0.00134368
-0.00126131
0.00131701
-0.00139393
0.00129269
-0.0015243
0.00127056
-0.00165259
0.00125038
-0.00177896
0.00123192
-0.00190352
0.001215
-0.00202641
0.00119947
-0.00214773
0.00118522
-0.00226757
0.0011721
-0.00238601
0.00115993
0.00114878
-0.00250314
-4.23886e-05
0.000508959
-0.000137662
0.00110716
-0.000262347
0.00141677
-0.000400824
0.00154796
-0.000543945
0.00158231
-0.000687053
0.00157146
-0.000828152
0.00154335
-0.000966597
0.00151098
-0.00110233
0.00147941
-0.00123548
0.00145016
-0.00136624
0.00142346
-0.0014948
0.00139912
-0.0016213
0.00137688
-0.00174588
0.0013565
-0.00186866
0.00133777
-0.00198973
0.00132054
-0.00210919
0.00130467
-0.00222712
0.00129003
-0.00234359
0.00127641
0.00126383
-0.00245865
-4.01309e-05
0.000549089
-0.000131524
0.00119855
-0.000252198
0.00153745
-0.000387081
0.00168284
-0.000527094
0.00172233
-0.000667476
0.00171184
-0.00080611
0.00168199
-0.000942263
0.00164714
-0.00107582
0.00161297
-0.0012069
0.00158124
-0.00133566
0.00155222
-0.00146227
0.00152572
-0.00158686
0.00150147
-0.00170954
0.00147919
-0.00183042
0.00145865
-0.00194957
0.00143969
-0.00206706
0.00142216
-0.00218296
0.00140592
-0.00229731
0.00139076
0.00137667
-0.00241015
-3.76632e-05
0.000586753
-0.000124788
0.00128568
-0.000241032
0.00165369
-0.000371943
0.00181375
-0.000508526
0.00185891
-0.00064591
0.00184922
-0.000781846
0.00181792
-0.000915506
0.0017808
-0.00104672
0.00174418
-0.00117557
0.00171008
-0.00130219
0.00167884
-0.00142673
0.00165027
-0.00154931
0.00162405
-0.00167003
0.0015999
-0.00178894
0.00157757
-0.0019061
0.00155686
-0.00202156
0.00153762
-0.00213535
0.00151972
-0.0022475
0.00150291
0.00148716
-0.00235799
-3.49885e-05
0.000621741
-0.000117454
0.00136814
-0.00022884
0.00176508
-0.000355388
0.0019403
-0.000488209
0.00199173
-0.000622318
0.00198333
-0.000755322
0.00195093
-0.000886288
0.00191176
-0.00101498
0.00187288
-0.00114145
0.00183655
-0.00126582
0.00180321
-0.0013882
0.00177265
-0.00150871
0.00174456
-0.00162741
0.0017186
-0.00174434
0.0016945
-0.00185952
0.00167204
-0.00197295
0.00165105
-0.00208463
0.0016314
-0.00219455
0.00161283
0.00159524
-0.00230262
-3.21103e-05
0.000653851
-0.000109521
0.00144556
-0.000215612
0.00187117
-0.000337392
0.00206208
-0.000466106
0.00212044
-0.000596652
0.00211388
-0.000726483
0.00208076
-0.000854551
0.00203983
-0.000980554
0.00199888
-0.0011045
0.0019605
-0.0012265
0.00192521
-0.00134665
0.00189281
-0.00146505
0.00186295
-0.00158174
0.00183528
-0.00169672
0.00180949
-0.00181
0.00178531
-0.0019215
0.00176256
-0.00203118
0.00174107
-0.00213893
0.00172058
0.00170092
-0.00224461
-2.90331e-05
0.000682885
-0.00010099
0.00151751
-0.000201335
0.00197151
-0.000317928
0.00217867
-0.000442174
0.00224469
-0.000568855
0.00224056
-0.000695259
0.00220716
-0.000820214
0.00216478
-0.000943345
0.00212201
-0.00106463
0.00208178
-0.00118415
0.00204473
-0.001302
0.00201067
-0.00141827
0.00197922
-0.00153299
0.00195
-0.00164614
0.00192264
-0.00175767
0.00189683
-0.00186747
0.00187236
-0.00197539
0.00184899
-0.00208122
0.00182642
0.00180438
-0.00218469
-2.57626e-05
0.000708647
-9.18641e-05
0.00158361
-0.000186
0.00206565
-0.000296966
0.00228964
-0.000416362
0.00236409
-0.000538859
0.00236305
-0.000661567
0.00232987
-0.000783178
0.00228639
-0.000903239
0.00224207
-0.00102169
0.00220023
-0.00113861
0.00216164
-0.00125409
0.00212615
-0.00136822
0.00209336
-0.00148104
0.00206282
-0.00159252
0.00203412
-0.00170259
0.0020069
-0.00181111
0.00198087
-0.00191782
0.0019557
-0.00202229
0.0019309
0.00190601
-0.00212392
-2.23068e-05
0.000730954
-8.21508e-05
0.00164346
-0.000169601
0.0021531
-0.000274479
0.00239452
-0.000388623
0.00247823
-0.000506591
0.00248102
-0.000625309
0.00244859
-0.000743317
0.0024044
-0.000860078
0.00235883
-0.000975495
0.00231565
-0.00108964
0.00227579
-0.00120264
0.00223915
-0.00131458
0.00220531
-0.00142555
0.00217379
-0.00153555
0.00214411
-0.00164449
0.00211584
-0.00175223
0.00208861
-0.00185848
0.00206195
-0.00196254
0.00203496
0.00200679
-0.00206332
-1.86767e-05
0.000749631
-7.18632e-05
0.00169664
-0.000152138
0.00223338
-0.000250448
0.00249283
-0.00035891
0.00258669
-0.00047198
0.00259409
-0.000586386
0.00256299
-0.000700507
0.00251852
-0.000813709
0.00247203
-0.000925861
0.0024278
-0.00103704
0.00238697
-0.00114741
0.00234951
-0.00125711
0.00231501
-0.00136629
0.00228297
-0.00147504
0.00225286
-0.00158337
0.00222417
-0.00169125
0.00219649
-0.00179864
0.00216934
-0.00190478
0.00214111
0.00210802
-0.00200601
-1.48867e-05
0.000764517
-6.10226e-05
0.00174278
-0.000133625
0.00230598
-0.000224863
0.00258406
-0.000327187
0.00268902
-0.000434961
0.00270187
-0.000544701
0.00267273
-0.000654601
0.00262842
-0.000763914
0.00258135
-0.000872452
0.00253634
-0.000980282
0.0024948
-0.00108757
0.0024568
-0.00119452
0.00242196
-0.00130135
0.0023898
-0.00140832
0.00235982
-0.0015156
0.00233145
-0.00162327
0.00230416
-0.00173156
0.00227763
-0.00184124
0.00225079
0.00221599
-0.00194921
-1.09552e-05
0.000775472
-4.96605e-05
0.00178149
-0.000114086
0.0023704
-0.000197732
0.00266771
-0.000293438
0.00278472
-0.000395491
0.00280392
-0.000500182
0.00277742
-0.000605502
0.00273374
-0.000710568
0.00268641
-0.000815134
0.00264091
-0.000919273
0.00259894
-0.00102322
0.00256074
-0.00112733
0.00252607
-0.00123208
0.00249456
-0.00133815
0.00246589
-0.00144638
0.00243969
-0.00155768
0.00241545
-0.00167238
0.00239233
-0.00179148
0.0023699
0.00236071
-0.0019362
-6.91833e-06
0.000782391
-3.78417e-05
0.00181241
-9.35934e-05
0.00242616
-0.000169113
0.00274323
-0.000257698
0.00287331
-0.000353581
0.0028998
-0.000452818
0.00287666
-0.000553166
0.00283409
-0.000653579
0.00278683
-0.000753712
0.00274104
-0.000853584
0.00269881
-0.000953395
0.00266055
-0.00105343
0.0026261
-0.00115402
0.00259515
-0.00125547
0.00256734
-0.00135801