/*--------------------------------*- C++ -*----------------------------------*\
  =========                 |
  \\      /  F ield         | OpenFOAM: The Open Source CFD Toolbox
   \\    /   O peration     | Website:  https://openfoam.org
    \\  /    A nd           | Version:  6.0
     \\/     M anipulation  |
\*---------------------------------------------------------------------------*/
FoamFile
{
    version     2.0;
    format      ascii;
    class       volVectorField;
    location    "41";
    object      U;
}
// * * * * * * * * * * * * * * * * * * * * * * * * * * * * * * * * * * * * * //

dimensions      [0 1 -1 0 0 0 0];

internalField   nonuniform List<vector> 
4000
(
(0.090805 0.0071802 5.52391e-20)
(0.290713 0.0378192 -2.99921e-20)
(0.495835 0.091132 3.5272e-20)
(0.689803 0.152549 -2.62253e-20)
(0.859096 0.212362 -1.1735e-20)
(0.996042 0.264517 3.54887e-21)
(1.09914 0.305844 -1.14936e-20)
(1.17146 0.335723 4.12929e-20)
(1.21852 0.355261 -3.43218e-20)
(1.24647 0.366389 8.044e-21)
(1.26095 0.371205 -5.9968e-21)
(1.26653 0.371591 -3.88476e-20)
(1.26662 0.369048 3.76207e-20)
(1.26358 0.364679 1.42652e-20)
(1.25896 0.359246 -1.41906e-20)
(1.25376 0.35325 3.32149e-20)
(1.24857 0.346991 -5.16231e-22)
(1.24377 0.340676 -3.20852e-20)
(1.23959 0.33471 2.3731e-20)
(1.23629 0.329052 7.42236e-21)
(0.104571 0.0118828 -1.93547e-20)
(0.324589 0.0524321 5.61309e-20)
(0.541793 0.114668 6.47679e-20)
(0.739941 0.182264 -3.05032e-20)
(0.906678 0.244921 5.30724e-20)
(1.03646 0.296956 8.3806e-20)
(1.13017 0.336087 -4.59796e-21)
(1.19284 0.362668 -1.42915e-20)
(1.23125 0.378596 7.07045e-20)
(1.25218 0.386321 3.43945e-20)
(1.26135 0.3882 -6.18442e-21)
(1.26316 0.38619 5.1042e-20)
(1.26069 0.381753 -5.44972e-20)
(1.25601 0.375909 8.47787e-20)
(1.25037 0.369325 -1.41186e-20)
(1.24457 0.362419 4.02098e-20)
(1.23905 0.355426 7.16053e-21)
(1.2341 0.34852 2.86143e-20)
(1.22988 0.342099 -2.72544e-20)
(1.22657 0.335988 6.49251e-21)
(0.118596 0.0176581 -3.0109e-20)
(0.357966 0.0693965 7.16864e-20)
(0.585577 0.140797 5.3177e-20)
(0.785925 0.214059 -8.02767e-21)
(0.948446 0.278692 8.25083e-20)
(1.07012 0.329741 -6.14221e-20)
(1.15427 0.366025 -4.6841e-21)
(1.20775 0.388938 5.41542e-20)
(1.23837 0.401135 1.72051e-20)
(1.25324 0.405503 2.39336e-20)
(1.25806 0.40458 -3.52571e-20)
(1.25691 0.400332 9.15446e-20)
(1.25256 0.394148 1.69501e-20)
(1.24671 0.386943 -8.07177e-20)
(1.24041 0.379288 1.17325e-19)
(1.23425 0.371521 -1.38097e-19)
(1.22858 0.363822 -6.3013e-20)
(1.22361 0.356342 1.05353e-20)
(1.21942 0.349469 6.10427e-20)
(1.21618 0.342894 -1.14527e-19)
(0.132652 0.0245206 -6.80168e-20)
(0.390266 0.0886125 -1.60277e-19)
(0.626458 0.169241 -1.3839e-19)
(0.827118 0.247532 -1.88199e-19)
(0.984049 0.313253 -1.0653e-19)
(1.09702 0.362518 -2.20579e-19)
(1.17176 0.395415 2.80233e-20)
(1.21671 0.414401 -1.16513e-19)
(1.24044 0.422826 -1.27401e-20)
(1.25024 0.423931 1.91009e-20)
(1.25157 0.420355 -4.17854e-20)
(1.24819 0.414022 5.18986e-20)
(1.24248 0.406217 9.21579e-20)
(1.23588 0.397743 -1.29634e-19)
(1.22919 0.389078 2.058e-20)
(1.22287 0.380487 5.95888e-20)
(1.2172 0.3721 9.94629e-20)
(1.2123 0.364054 -8.57963e-20)
(1.20822 0.356729 -4.08594e-21)
(1.2051 0.349679 1.00027e-19)
(0.146498 0.0324553 -1.28335e-19)
(0.420922 0.109915 3.51472e-19)
(0.663783 0.199662 -6.20025e-20)
(0.863024 0.282249 8.1934e-20)
(1.01329 0.348182 -8.01555e-20)
(1.11728 0.394952 2.45731e-19)
(1.18299 0.424036 -3.88924e-20)
(1.22021 0.438934 2.31964e-20)
(1.23801 0.443616 -1.15037e-20)
(1.24364 0.441583 3.77136e-20)
(1.24227 0.435508 2.43049e-20)
(1.23727 0.42723 3.0406e-20)
(1.23067 0.417914 -8.65954e-20)
(1.22363 0.408247 1.26188e-19)
(1.21678 0.398618 -9.57467e-20)
(1.21048 0.389228 1.7884e-20)
(1.2049 0.380167 -6.09853e-20)
(1.20017 0.371562 1.28415e-20)
(1.19626 0.36378 1.43996e-20)
(1.19334 0.356249 -1.3525e-19)
(0.15989 0.041417 9.37331e-21)
(0.449403 0.133077 -1.77035e-19)
(0.696996 0.23167 9.76397e-20)
(0.893279 0.317756 -3.40423e-19)
(1.03611 0.383066 1.64666e-19)
(1.13112 0.42673 -2.81872e-19)
(1.18838 0.451682 -2.19474e-19)
(1.21872 0.462418 -8.35142e-21)
(1.23152 0.463435 -7.4096e-20)
(1.23384 0.458411 -2.29554e-19)
(1.23047 0.449991 -2.8465e-20)
(1.22437 0.439898 -2.1834e-19)
(1.21726 0.429165 3.96525e-20)
(1.21006 0.418368 -3.11586e-20)
(1.20325 0.407812 1.82113e-20)
(1.19708 0.397644 -1.44057e-19)
(1.19172 0.38792 7.99731e-21)
(1.18722 0.378761 2.90157e-20)
(1.18354 0.370522 -6.59279e-20)
(1.18088 0.362506 5.76379e-20)
(0.172587 0.0513302 -7.28331e-20)
(0.475226 0.157818 3.23913e-19)
(0.725643 0.264834 2.27011e-21)
(0.917653 0.35359 -2.79997e-19)
(1.05254 0.417503 2.10935e-19)
(1.13881 0.457555 8.83505e-20)
(1.18833 0.478158 1.79882e-20)
(1.21271 0.484733 -1.48002e-19)
(1.22141 0.482204 2.40275e-19)
(1.22118 0.474347 -1.3976e-19)
(1.21641 0.463731 5.09666e-20)
(1.20967 0.451941 2.34694e-19)
(1.20238 0.439875 -2.0991e-19)
(1.19524 0.428003 2.29897e-19)
(1.18862 0.416553 -1.48911e-19)
(1.18272 0.405625 -2.92534e-20)
(1.17765 0.395249 3.50617e-20)
(1.17346 0.385545 4.36744e-20)
(1.17008 0.376849 5.98227e-20)
(1.16773 0.368352 3.61436e-20)
(0.184356 0.0620906 2.91015e-20)
(0.497968 0.183809 -2.91468e-19)
(0.749378 0.298697 5.1742e-20)
(0.936028 0.389287 6.75048e-19)
(1.06274 0.451109 -6.23403e-20)
(1.14069 0.487147 1.86089e-19)
(1.18325 0.503276 1.15775e-19)
(1.20257 0.505749 1.93866e-20)
(1.208 0.499823 -1.32984e-19)
(1.20593 0.4893 2.17695e-19)
(1.20029 0.476633 -2.47513e-20)
(1.1933 0.463256 3.26128e-19)
(1.18609 0.449933 1.24426e-19)
(1.17922 0.437034 7.72026e-20)
(1.17294 0.424722 -1.60774e-19)
(1.16741 0.413053 3.38604e-20)
(1.16272 0.402039 1.23649e-19)
(1.15891 0.3918 3.11684e-20)
(1.15588 0.382651 -1.4819e-19)
(1.15392 0.373687 -3.67378e-20)
(0.194985 0.073567 -1.62191e-19)
(0.517275 0.210686 5.22337e-19)
(0.767958 0.332784 -2.84209e-19)
(0.948394 0.424388 -2.61029e-19)
(1.0669 0.483513 -2.26744e-19)
(1.13709 0.515239 -1.90457e-19)
(1.17354 0.526852 -2.33604e-19)
(1.18868 0.525335 2.91446e-19)
(1.19163 0.516184 -2.06429e-19)
(1.18833 0.503164 -1.64173e-20)
(1.18228 0.488584 -1.97226e-21)
(1.17537 0.473722 -3.89854e-20)
(1.16849 0.459213 -9.91255e-20)
(1.16206 0.445335 -1.09201e-19)
(1.15625 0.432192 -5.82785e-21)
(1.15118 0.419806 -2.4111e-20)
(1.14696 0.408171 -5.80472e-20)
(1.14359 0.397411 -1.72881e-20)
(1.14098 0.387818 2.04005e-20)
(1.13946 0.378409 -1.21059e-19)
(0.204281 0.0856048 2.83845e-19)
(0.53287 0.238055 2.93101e-19)
(0.781245 0.366614 -1.8172e-19)
(0.954831 0.458452 1.11978e-19)
(1.0653 0.514366 1.92278e-19)
(1.12839 0.541579 -3.8937e-20)
(1.15957 0.548707 4.73054e-20)
(1.17137 0.543352 5.20281e-20)
(1.17254 0.531162 8.61831e-20)
(1.16856 0.515816 -1.00141e-19)
(1.16251 0.499458 4.91367e-20)
(1.15597 0.483209 -3.25161e-20)
(1.14963 0.467581 1.46687e-19)
(1.1438 0.452773 6.17554e-20)
(1.13858 0.438835 -1.43131e-19)
(1.13408 0.425757 7.72661e-20)
(1.13039 0.413523 3.86287e-20)
(1.12753 0.40226 -6.75923e-20)
(1.12541 0.392236 1.84223e-19)
(1.1244 0.382415 -1.34069e-19)
(0.21208 0.0980295 -2.08673e-19)
(0.544551 0.265505 -2.70389e-19)
(0.789194 0.399712 1.88373e-19)
(0.9555 0.491052 -1.73916e-19)
(1.05825 0.543339 -1.65529e-20)
(1.11495 0.565929 -1.87466e-19)
(1.14173 0.568663 1.56398e-19)
(1.15097 0.559656 2.82028e-19)
(1.15099 0.544626 -3.91784e-19)
(1.14681 0.527124 2.02167e-20)
(1.14111 0.509119 1.47812e-20)
(1.13519 0.491576 -7.54152e-20)
(1.12959 0.474898 5.36801e-20)
(1.1245 0.459209 -2.14166e-20)
(1.11999 0.444514 1.37977e-19)
(1.11615 0.430776 -1.4855e-19)
(1.11308 0.417969 -4.83737e-20)
(1.11079 0.406222 1.29535e-19)
(1.10922 0.395786 -1.85126e-19)
(1.10878 0.385596 1.17012e-19)
(0.218246 0.110651 4.3244e-19)
(0.552194 0.292617 3.81224e-19)
(0.79185 0.431611 -6.4234e-20)
(0.950624 0.521785 -8.01531e-21)
(1.04608 0.570124 -1.92164e-19)
(1.09716 0.588063 8.19291e-20)
(1.12034 0.58655 3.92715e-19)
(1.12774 0.574103 -3.43579e-19)
(1.1272 0.556439 2.12047e-19)
(1.12323 0.53695 -1.78057e-20)
(1.11818 0.517424 1.25717e-19)
(1.11311 0.49868 -3.36926e-20)
(1.10842 0.48102 7.34326e-20)
(1.10421 0.464502 9.0448e-20)
(1.10054 0.449092 -5.35792e-20)
(1.09745 0.434728 5.8991e-20)
(1.09507 0.421375 -7.67954e-20)
(1.09343 0.409166 1.98583e-19)
(1.09247 0.398336 -1.17399e-19)
(1.09269 0.387826 8.37043e-20)
(0.22268 0.123268 -2.09225e-19)
(0.555752 0.318974 -3.90171e-19)
(0.789334 0.461866 -2.69128e-19)
(0.940486 0.550278 -1.82083e-20)
(1.02916 0.594439 6.31625e-20)
(1.07539 0.607772 -3.47375e-20)
(1.09576 0.602205 -2.23296e-19)
(1.10197 0.586549 -9.51044e-20)
(1.10135 0.566463 -1.69483e-19)
(1.09797 0.545156 -7.63118e-20)
(1.09383 0.524232 3.90005e-20)
(1.08981 0.504377 -1.84197e-19)
(1.08619 0.485802 -3.84662e-20)
(1.08301 0.46851 -3.5615e-20)
(1.08028 0.452429 -1.16995e-19)
(1.07805 0.437476 5.12481e-20)
(1.07643 0.423606 5.45289e-21)
(1.0755 0.410951 4.17983e-20)
(1.07524 0.399737 -1.77792e-20)
(1.07617 0.388956 -4.9201e-20)
(0.225315 0.135673 4.83459e-19)
(0.555249 0.344167 4.20865e-19)
(0.78184 0.49006 5.15183e-19)
(0.925411 0.576185 -5.37054e-20)
(1.00789 0.616025 -1.79614e-19)
(1.05002 0.624866 5.38561e-19)
(1.06829 0.615474 -2.59672e-19)
(1.07391 0.596858 2.82547e-19)
(1.07365 0.574564 -4.95635e-20)
(1.07116 0.551604 1.65559e-19)
(1.06817 0.529405 1.9232e-20)
(1.06537 0.508527 6.82305e-20)
(1.06297 0.489104 -1.45247e-20)
(1.06095 0.471092 6.15098e-20)
(1.05929 0.454386 -3.81959e-20)
(1.05802 0.438883 8.96728e-21)
(1.05725 0.424524 2.01428e-20)
(1.05709 0.411435 2.54955e-20)
(1.05759 0.39984 1.46045e-21)
(1.05929 0.388841 2.52585e-21)
(0.226121 0.147658 -1.47613e-19)
(0.550776 0.367808 -4.10239e-19)
(0.769622 0.515803 -2.48759e-19)
(0.905764 0.599196 -4.30225e-19)
(0.982643 0.634653 4.54407e-19)
(1.02142 0.63917 -3.08163e-19)
(1.03826 0.626214 1.90779e-19)
(1.0438 0.6049 -6.94741e-20)
(1.04429 0.580617 -7.38695e-20)
(1.04295 0.556169 -5.05528e-20)
(1.04129 0.532813 2.70549e-20)
(1.03986 0.510998 2.31928e-20)
(1.0388 0.49079 7.46433e-21)
(1.03808 0.472108 -2.29535e-20)
(1.03761 0.454821 -2.09903e-22)
(1.03741 0.438805 4.493e-21)
(1.03759 0.423987 -1.66345e-20)
(1.03827 0.410472 2.44787e-20)
(1.03959 0.398504 9.11695e-21)
(1.04208 0.387363 2.48657e-20)
(0.225101 0.159019 6.39843e-19)
(0.542487 0.389528 2.9762e-19)
(0.752986 0.538745 2.78721e-19)
(0.88194 0.619034 -1.61424e-19)
(0.953845 0.65012 1.76555e-20)
(0.989959 0.650533 2.22516e-19)
(1.00596 0.634301 2.50432e-20)
(1.01188 0.610559 4.35562e-20)
(1.01343 0.584507 4.28514e-20)
(1.01347 0.558737 -7.67121e-21)
(1.01329 0.534343 5.85904e-21)
(1.01335 0.511673 -1.16786e-20)
(1.01375 0.49074 -1.46767e-20)
(1.01443 0.47143 1.40513e-20)
(1.01529 0.453596 5.36942e-21)
(1.01629 0.437095 4.61765e-21)
(1.01752 0.421836 -8.63562e-21)
(1.01913 0.407896 -1.79085e-21)
(1.02132 0.395558 4.60762e-20)
(1.02466 0.38437 -4.49184e-20)
(0.222293 0.169557 -4.49835e-19)
(0.53059 0.408994 -3.86568e-19)
(0.732282 0.558573 1.78961e-19)
(0.854356 0.63546 -2.14056e-19)
(0.921907 0.662253 -1.77089e-20)
(0.955999 0.658824 1.60091e-20)
(0.971701 0.639625 -2.91456e-20)
(0.978396 0.613736 -3.0263e-20)
(0.981265 0.58614 -3.25825e-20)
(0.982856 0.559214 -2.30439e-20)
(0.984272 0.533903 -3.01751e-20)
(0.98591 0.510462 3.97936e-20)
(0.987847 0.488857 -4.02256e-21)
(0.990024 0.468953 1.11847e-20)
(0.992336 0.450589 4.25919e-21)
(0.994699 0.433617 -6.72965e-20)
(0.997125 0.417921 -5.72443e-20)
(0.999771 0.403523 -6.13512e-20)
(1.00296 0.390735 -1.42444e-21)
(1.0074 0.379508 9.42606e-20)
(0.217768 0.179088 4.04286e-19)
(0.515342 0.425903 2.02594e-20)
(0.7079 0.575018 -4.29929e-20)
(0.823449 0.648274 4.87592e-20)
(0.887247 0.670909 1.26515e-19)
(0.91991 0.663938 -1.00168e-19)
(0.935784 0.642099 1.10214e-20)
(0.943578 0.614351 -2.98826e-20)
(0.947983 0.58544 -2.36042e-20)
(0.951251 0.557531 3.44913e-21)
(0.954342 0.531424 -5.4586e-20)
(0.957602 0.507292 -4.52544e-20)
(0.961115 0.485063 5.03214e-20)
(0.96485 0.464583 -1.79851e-20)
(0.96872 0.445689 -1.95119e-19)
(0.972603 0.42824 1.92195e-19)
(0.976422 0.412101 -1.13745e-19)
(0.980337 0.397163 -7.17685e-20)
(0.984912 0.383661 9.18553e-20)
(0.990917 0.372162 -1.13056e-19)
(0.211623 0.187442 -8.6469e-20)
(0.497041 0.439993 9.40617e-20)
(0.680255 0.58785 4.35422e-20)
(0.789669 0.657311 -6.37792e-20)
(0.85029 0.675976 1.82624e-20)
(0.882058 0.665792 -3.31396e-20)
(0.89851 0.641656 -1.54771e-20)
(0.907674 0.612348 2.01981e-20)
(0.913778 0.58236 6.09998e-22)
(0.91881 0.553647 -1.15961e-19)
(0.923606 0.526875 3.11494e-20)
(0.928482 0.502136 1.0347e-20)
(0.93354 0.479312 1.37942e-19)
(0.938805 0.45823 -3.48864e-19)
(0.944243 0.438729 3.24939e-19)
(0.949735 0.420696 1.72222e-19)
(0.955149 0.403989 -3.38292e-20)
(0.960724 0.388298 2.84024e-20)
(0.96731 0.373636 3.09422e-19)
(0.97519 0.361523 -1.29196e-19)
(0.203985 0.194468 -2.35142e-20)
(0.476019 0.451039 5.44679e-20)
(0.649786 0.596887 -4.58135e-20)
(0.753476 0.662445 5.89771e-20)
(0.811462 0.67737 -3.89882e-20)
(0.842812 0.664328 3.90231e-20)
(0.860189 0.638253 2.9693e-20)
(0.870943 0.607695 -7.96869e-20)
(0.878867 0.576883 7.96453e-20)
(0.885711 0.547572 5.51332e-20)
(0.892205 0.520296 2.71266e-20)
(0.898632 0.495066 4.77745e-21)
(0.905112 0.471705 1.09691e-19)
(0.911718 0.449989 -1.10152e-19)
(0.918488 0.429716 1.31604e-19)
(0.925352 0.410758 -2.76111e-19)
(0.932225 0.392926 3.08184e-19)
(0.939535 0.375612 -2.64581e-19)
(0.948229 0.358568 -1.79637e-19)
(0.957218 0.345172 3.05654e-19)
(0.195002 0.200036 1.19341e-20)
(0.452635 0.458861 -2.3074e-20)
(0.61695 0.601985 -1.49131e-20)
(0.715336 0.663584 -5.22651e-20)
(0.771189 0.675036 1.6897e-20)
(0.802543 0.659509 4.57808e-21)
(0.821139 0.631864 -1.75778e-19)
(0.83366 0.600378 1.17207e-19)
(0.843496 0.569014 1.15952e-19)
(0.852183 0.539343 -1.61239e-19)
(0.860355 0.511784 1.87819e-19)
(0.868257 0.486277 -7.21167e-20)
(0.875995 0.462594 1.40667e-19)
(0.883647 0.440447 -2.24993e-19)
(0.891258 0.419554 4.67913e-19)
(0.898794 0.399668 -1.0623e-19)
(0.906276 0.380393 -2.93746e-20)
(0.91436 0.360515 3.0697e-19)
(0.923821 0.338142 -1.49599e-19)
(0.92983 0.315713 6.52616e-20)
(0.18484 0.204039 -7.0299e-20)
(0.42727 0.46332 9.5733e-20)
(0.582211 0.603046 -3.37675e-20)
(0.675715 0.660672 5.4209e-20)
(0.729897 0.668945 -2.62911e-20)
(0.761624 0.651318 -1.71595e-19)
(0.781683 0.622475 2.6366e-19)
(0.796115 0.590385 1.78131e-20)
(0.807935 0.55875 -2.80418e-20)
(0.818497 0.528971 4.87924e-21)
(0.828352 0.501377 8.50869e-20)
(0.837713 0.475868 1.46441e-19)
(0.846662 0.452205 8.82338e-20)
(0.855233 0.430118 -2.09427e-19)
(0.863415 0.40936 -5.95526e-20)
(0.871146 0.389742 -1.12014e-20)
(0.878519 0.371007 3.88373e-20)
(0.886113 0.352484 4.99305e-21)
(0.89389 0.333479 4.47347e-19)
(0.897314 0.316064 -3.12471e-19)
(0.173677 0.206388 1.76644e-19)
(0.400311 0.464312 -3.13881e-20)
(0.546037 0.600005 -1.18482e-19)
(0.635076 0.653684 3.9308e-19)
(0.688006 0.659089 7.3064e-20)
(0.720421 0.639756 -2.31703e-19)
(0.742144 0.610086 2.16055e-19)
(0.758598 0.577714 -4.81772e-20)
(0.772459 0.546085 1.91097e-19)
(0.784924 0.516443 8.67303e-20)
(0.796485 0.489035 -4.22328e-19)
(0.807341 0.463733 -4.93238e-20)
(0.817578 0.440287 5.87142e-19)
(0.827231 0.418434 -7.18557e-19)
(0.836278 0.397937 6.6472e-19)
(0.844652 0.378603 2.30002e-19)
(0.852411 0.360162 -8.19151e-19)
(0.859945 0.342056 3.95249e-19)
(0.86709 0.323979 -8.16186e-20)
(0.870432 0.308257 9.49948e-20)
(0.161704 0.207019 -3.1128e-19)
(0.37216 0.461776 -3.20279e-19)
(0.508894 0.592841 2.19037e-19)
(0.593876 0.642625 -2.72938e-19)
(0.645929 0.645489 -7.42383e-19)
(0.679297 0.62484 -2.33597e-20)
(0.702843 0.59471 -2.19828e-19)
(0.7214 0.562375 1.19272e-20)
(0.737339 0.531026 -4.29015e-19)
(0.75172 0.501765 -4.36566e-19)
(0.764992 0.474777 -2.95981e-19)
(0.777345 0.449911 -1.21516e-20)
(0.788874 0.426921 -7.34466e-19)
(0.799627 0.405562 -5.02605e-21)
(0.809605 0.385624 3.57939e-19)
(0.818777 0.366949 -3.56261e-19)
(0.827215 0.349325 -2.74196e-19)
(0.835237 0.33233 2.63932e-19)
(0.84267 0.315782 -1.89543e-19)
(0.846717 0.301526 3.65601e-20)
(0.149118 0.205891 2.46149e-19)
(0.343214 0.45569 1.91318e-19)
(0.471244 0.581569 -6.52663e-21)
(0.552561 0.627534 -1.53471e-19)
(0.604065 0.628189 3.78997e-19)
(0.638606 0.60661 6.05533e-19)
(0.664092 0.576377 -6.24527e-20)
(0.684807 0.544382 1.2112e-20)
(0.702845 0.513573 1.19147e-19)
(0.719156 0.484924 2.68924e-19)
(0.734154 0.458563 3.89153e-19)
(0.748035 0.434326 -3.14203e-19)
(0.760907 0.41197 3.11425e-19)
(0.772834 0.391262 -1.06233e-19)
(0.78384 0.372006 3.62421e-19)
(0.793923 0.354052 -1.4092e-19)
(0.803183 0.337214 -3.49366e-19)
(0.811941 0.321159 2.10864e-19)
(0.820052 0.305818 -3.00059e-19)
(0.825074 0.292745 -3.41559e-19)
(0.136119 0.202985 1.06663e-19)
(0.31387 0.446068 1.95639e-19)
(0.433536 0.566238 -2.06167e-19)
(0.511561 0.608479 1.01632e-20)
(0.562804 0.607256 3.54114e-20)
(0.598686 0.585124 2.84833e-19)
(0.626194 0.55513 -4.21967e-19)
(0.649091 0.523769 4.01403e-19)
(0.669229 0.493749 -3.81873e-20)
(0.687461 0.465926 1.09981e-19)
(0.704185 0.440386 1.76784e-19)
(0.719604 0.416951 -3.36954e-19)
(0.733847 0.395387 1.62054e-19)
(0.747003 0.375473 1.53783e-19)
(0.75912 0.357027 5.6676e-20)
(0.770227 0.339907 -2.90826e-19)
(0.780449 0.323941 9.7977e-19)
(0.790104 0.308842 -5.48006e-19)
(0.799042 0.294577 9.96853e-19)
(0.805097 0.282432 -6.46132e-20)
(0.122909 0.198303 7.64849e-20)
(0.284516 0.43296 4.5954e-19)
(0.396204 0.546934 1.62505e-19)
(0.471293 0.585557 3.40997e-19)
(0.522515 0.582783 8.84072e-20)
(0.559866 0.560462 -5.43645e-19)
(0.589438 0.531035 8.42681e-19)
(0.614515 0.500584 4.36126e-19)
(0.63673 0.471587 1.82109e-20)
(0.656862 0.444792 5.65384e-19)
(0.675294 0.420247 9.09209e-20)
(0.692246 0.39777 5.93148e-20)
(0.707868 0.377131 3.38487e-19)
(0.722272 0.358121 -1.26371e-19)
(0.735532 0.340565 -1.33828e-19)
(0.747706 0.324327 7.89364e-19)
(0.758946 0.309244 -6.60202e-19)
(0.769558 0.295068 2.56043e-20)
(0.779385 0.281783 8.35698e-19)
(0.7865 0.270444 -7.8343e-22)
(0.109685 0.191867 -9.83699e-19)
(0.255527 0.416447 -1.67653e-19)
(0.359666 0.523774 -2.25658e-19)
(0.432151 0.558894 -1.71991e-19)
(0.483551 0.554888 -4.35252e-19)
(0.522455 0.532726 1.4905e-19)
(0.554099 0.504175 -2.08325e-19)
(0.581325 0.474895 5.96355e-20)
(0.605574 0.44714 -3.0152e-19)
(0.627563 0.42156 -2.86146e-19)
(0.647671 0.398173 5.88397e-20)
(0.666133 0.376792 -4.62719e-19)
(0.683121 0.357199 3.69099e-19)
(0.698772 0.33919 -1.33347e-19)
(0.713183 0.322602 4.19104e-19)
(0.726438 0.3073 -9.04256e-19)
(0.738706 0.293129 -1.71561e-19)
(0.750279 0.279871 -3.24623e-19)
(0.760997 0.267512 -8.72882e-19)
(0.769161 0.256909 -1.40661e-19)
(0.096639 0.183721 1.6067e-19)
(0.227264 0.396644 -1.93999e-20)
(0.324319 0.496906 -2.4676e-19)
(0.39451 0.528644 8.70798e-20)
(0.446246 0.523713 -1.7609e-19)
(0.486745 0.502039 -2.35863e-21)
(0.520435 0.474656 2.40203e-19)
(0.549753 0.44679 -3.58315e-19)
(0.575971 0.420481 1.4011e-19)
(0.599756 0.39629 -8.09695e-20)
(0.621486 0.374208 2.17885e-20)
(0.641414 0.354052 -4.01376e-19)
(0.659736 0.335611 -4.88792e-19)
(0.676606 0.318692 -1.849e-20)
(0.692148 0.303138 5.45062e-19)
(0.706467 0.28882 2.56484e-20)
(0.719742 0.275591 6.90637e-19)
(0.73225 0.263257 -1.00654e-18)
(0.743835 0.251802 5.35969e-19)
(0.753022 0.241909 9.23485e-19)
(0.0839577 0.173926 -1.39356e-19)
(0.200067 0.373697 7.48758e-20)
(0.290536 0.46651 4.86979e-19)
(0.358721 0.494987 1.20145e-19)
(0.410912 0.489423 -1.62245e-19)
(0.45301 0.468546 1.27953e-19)
(0.488689 0.442603 5.04022e-19)
(0.520016 0.416379 -4.08846e-19)
(0.548117 0.391704 3.80335e-20)
(0.573617 0.369061 -1.4937e-19)
(0.596898 0.348423 5.4054e-19)
(0.618232 0.329609 3.86383e-19)
(0.637833 0.312419 -5.59923e-20)
(0.655879 0.296671 -5.87461e-19)
(0.67251 0.282217 3.09758e-20)
(0.687852 0.268931 -7.26366e-20)
(0.702092 0.256678 3.45798e-19)
(0.715487 0.245285 5.63106e-19)
(0.7279 0.234732 4.92379e-19)
(0.73807 0.22555 -8.22466e-19)
(0.0718173 0.16256 -8.70135e-20)
(0.17426 0.347777 3.71505e-19)
(0.258666 0.432794 -3.6252e-19)
(0.325111 0.458129 5.03743e-19)
(0.377839 0.452208 -2.74272e-19)
(0.421506 0.432415 1.96421e-19)
(0.459086 0.408163 4.99614e-19)
(0.492316 0.383789 -6.00788e-19)
(0.522194 0.360923 2.73811e-19)
(0.54931 0.339977 3.46966e-19)
(0.574055 0.320908 -4.71967e-19)
(0.596716 0.303543 -3.37739e-20)
(0.617528 0.287695 -3.79483e-19)
(0.636685 0.273195 6.08449e-19)
(0.654347 0.259902 -3.30412e-19)
(0.670656 0.247699 3.55027e-19)
(0.685801 0.236459 -6.44513e-20)
(0.700026 0.226033 2.1964e-19)
(0.713215 0.216391 5.00575e-20)
(0.724319 0.207937 -1.28407e-19)
(0.0603839 0.149718 -2.6632e-19)
(0.15014 0.319085 -6.13526e-19)
(0.229031 0.395989 1.61504e-19)
(0.29398 0.418299 -5.18068e-19)
(0.347292 0.412276 -4.90737e-19)
(0.392465 0.393833 -3.52856e-19)
(0.431834 0.3715 2.75145e-19)
(0.466839 0.349168 2.11738e-19)
(0.498368 0.32827 -1.54535e-21)
(0.526986 0.309155 -1.84896e-19)
(0.553091 0.291771 -3.3353e-19)
(0.576986 0.275955 3.01092e-19)
(0.598924 0.261535 -1.03664e-19)
(0.619117 0.248353 -5.13829e-19)
(0.637738 0.236281 3.34941e-19)
(0.654943 0.225207 -2.51642e-19)
(0.670926 0.215021 -1.02675e-19)
(0.685912 0.205589 -2.87434e-19)
(0.69982 0.196876 -2.60709e-19)
(0.711796 0.189179 6.74111e-20)
(0.0498111 0.135512 2.32684e-19)
(0.127982 0.287843 1.20694e-19)
(0.201927 0.356353 1.84617e-19)
(0.265602 0.375748 -6.29507e-19)
(0.319516 0.369858 6.74519e-19)
(0.366101 0.353004 3.26161e-21)
(0.407121 0.3328 5.53883e-21)
(0.443753 0.312681 -4.11845e-19)
(0.476792 0.293895 3.84773e-19)
(0.506783 0.276733 -2.67695e-19)
(0.53413 0.261139 8.10372e-20)
(0.559154 0.246963 -3.59786e-19)
(0.582122 0.234046 -1.71361e-19)
(0.60326 0.222249 -8.19949e-20)
(0.622756 0.211453 6.17711e-19)
(0.640779 0.201557 -3.03382e-19)
(0.657522 0.192463 -2.74e-19)
(0.673197 0.184056 2.82284e-19)
(0.687758 0.176294 -2.31886e-19)
(0.700537 0.169387 1.80765e-19)
(0.0402391 0.120068 4.93672e-19)
(0.108034 0.254298 -2.98131e-19)
(0.177617 0.314166 4.47113e-20)
(0.240224 0.330749 5.22921e-19)
(0.294727 0.325202 2.0755e-19)
(0.342606 0.310151 2.57733e-19)
(0.385117 0.292261 2.56697e-19)
(0.423211 0.274509 5.44919e-19)
(0.457604 0.257963 -1.25027e-19)
(0.488824 0.242864 2.98585e-19)
(0.517284 0.229153 4.34359e-19)
(0.543319 0.216697 1.60167e-19)
(0.567209 0.205356 2.90368e-19)
(0.589194 0.195003 1.0548e-19)
(0.609475 0.185534 6.22078e-20)
(0.628228 0.176861 -4.50347e-20)
(0.645647 0.168895 3.61529e-19)
(0.661933 0.161543 2.2319e-19)
(0.677077 0.154755 -2.02804e-19)
(0.690581 0.148676 1.91343e-19)
(0.0317934 0.103522 -3.27659e-19)
(0.0905174 0.218714 3.70612e-20)
(0.156338 0.269727 -9.47552e-20)
(0.218062 0.28359 -2.87837e-19)
(0.273117 0.278572 -1.52753e-19)
(0.322149 0.265513 -2.77571e-19)
(0.365973 0.250098 1.2894e-19)
(0.405349 0.234847 -4.99708e-19)
(0.440925 0.220654 2.95225e-19)
(0.473221 0.207713 -4.08716e-19)
(0.502654 0.195969 -2.54089e-19)
(0.529572 0.185305 -3.36604e-19)
(0.554269 0.175599 7.71425e-20)
(0.576994 0.166745 -7.61744e-20)
(0.597959 0.15865 9.13284e-20)
(0.61735 0.151239 4.92245e-20)
(0.635356 0.144437 9.78643e-20)
(0.652171 0.138166 -8.18371e-19)
(0.667825 0.132376 4.07493e-19)
(0.681966 0.127161 -2.44332e-19)
(0.0245836 0.086024 1.08191e-19)
(0.0756226 0.181375 2.18604e-19)
(0.138291 0.223352 -1.4272e-19)
(0.199305 0.234576 3.52492e-19)
(0.254854 0.230247 -5.67592e-20)
(0.304876 0.219341 4.0865e-19)
(0.349819 0.206538 7.89785e-20)
(0.390282 0.193903 -8.31459e-20)
(0.426862 0.182159 3.02581e-19)
(0.460068 0.171458 2.31664e-19)
(0.490326 0.161751 8.59992e-20)
(0.517993 0.152941 1.13214e-19)
(0.543372 0.144925 5.68498e-20)
(0.566724 0.137616 -2.41428e-19)
(0.588268 0.130936 -3.37162e-20)
(0.608196 0.124821 2.52625e-19)
(0.626698 0.119213 -1.72698e-19)
(0.643959 0.114047 -7.9132e-21)
(0.660043 0.109278 -3.62459e-19)
(0.674728 0.104961 7.30476e-19)
(0.0187025 0.067734 2.89958e-19)
(0.0635112 0.14258 -3.48493e-19)
(0.123648 0.175373 1.63445e-19)
(0.184109 0.184026 -2.31538e-19)
(0.240075 0.180519 2.04221e-19)
(0.29091 0.171897 -3.54988e-19)
(0.336763 0.161822 -2.60228e-19)
(0.37811 0.151896 1.95109e-20)
(0.415504 0.14268 -3.55342e-19)
(0.449448 0.134286 -2.22011e-19)
(0.480374 0.126676 -3.84926e-19)
(0.508647 0.11977 -1.30443e-20)
(0.53458 0.113489 -1.49809e-19)
(0.558439 0.107763 3.79246e-19)
(0.580452 0.102531 2.61773e-19)
(0.600816 0.0977443 -8.78388e-20)
(0.619717 0.0933557 -7.94697e-20)
(0.637337 0.0893159 -3.52377e-21)
(0.65377 0.0855859 9.80328e-21)
(0.668898 0.0821961 1.44198e-19)
(0.0142254 0.0488192 -7.25159e-20)
(0.0543137 0.102638 -2.48321e-19)
(0.112545 0.126133 -1.54943e-19)
(0.172602 0.13227 -9.70249e-20)
(0.228894 0.129688 -2.01252e-19)
(0.280349 0.123455 3.45235e-19)
(0.326895 0.116195 -3.68855e-20)
(0.368912 0.109054 -8.32175e-20)
(0.406922 0.102427 3.40004e-21)
(0.441426 0.0963936 2.45137e-19)
(0.472858 0.090925 -2.331e-19)
(0.50159 0.0859637 2.28251e-19)
(0.527942 0.0814525 1.07307e-19)
(0.552185 0.0773405 -1.95766e-19)
(0.574553 0.0735847 4.28214e-20)
(0.595246 0.0701487 1.26208e-19)
(0.61445 0.0669997 4.40797e-20)
(0.63234 0.0641027 -3.04383e-20)
(0.649037 0.0614274 -2.66157e-19)
(0.664504 0.058989 2.12015e-19)
(0.0112094 0.0294534 6.53894e-20)
(0.0481282 0.0618705 7.94395e-20)
(0.105087 0.0759868 2.23511e-20)
(0.164879 0.0796463 -1.68624e-20)
(0.221394 0.078065 4.79887e-20)
(0.273268 0.0742952 7.34963e-20)
(0.32028 0.0699143 2.78774e-20)
(0.362747 0.065609 3.40364e-20)
(0.401172 0.0616159 -7.26519e-20)
(0.436051 0.0579817 1.36127e-19)
(0.467822 0.054688 -3.22064e-20)
(0.496863 0.0517003 -2.62471e-21)
(0.523496 0.0489841 3.27796e-20)
(0.547997 0.0465086 3.69834e-20)
(0.570603 0.0442478 -9.95941e-20)
(0.591517 0.0421799 6.54519e-20)
(0.610923 0.0402851 4.29982e-20)
(0.628994 0.0385427 3.67488e-20)
(0.64587 0.0369335 7.89527e-20)
(0.661564 0.0354641 3.2726e-20)
(0.00969267 0.00981549 -1.33899e-20)
(0.0450208 0.0206053 2.78341e-20)
(0.101343 0.0252934 -3.89732e-20)
(0.161003 0.0264999 2.45015e-20)
(0.217632 0.025964 1.44112e-20)
(0.269718 0.024702 6.47121e-21)
(0.316964 0.0232385 1.52675e-20)
(0.359656 0.0218015 -4.3803e-20)
(0.398289 0.020469 2.79521e-20)
(0.433356 0.0192565 9.76643e-21)
(0.465298 0.0181577 -5.9636e-22)
(0.494494 0.017161 6.02939e-20)
(0.521268 0.016255 -1.82825e-20)
(0.545898 0.0154294 -1.75433e-20)
(0.568623 0.0146755 -1.68985e-20)
(0.589648 0.0139859 2.61741e-21)
(0.609156 0.0133542 -2.26536e-20)
(0.627318 0.0127735 4.31368e-21)
(0.644283 0.0122372 8.53254e-22)
(0.660092 0.011747 -2.87971e-21)
(0.00969442 -0.00991318 8.50559e-21)
(0.0450244 -0.0208257 -4.52743e-20)
(0.101347 -0.0255821 5.40051e-20)
(0.161008 -0.0268208 -4.06064e-20)
(0.217636 -0.0262963 -1.89829e-20)
(0.269721 -0.0250355 5.68439e-20)
(0.316967 -0.0235688 4.74773e-21)
(0.35966 -0.0221271 1.33653e-21)
(0.398292 -0.02079 2.66699e-20)
(0.433359 -0.0195732 1.38127e-20)
(0.4653 -0.0184705 -1.08876e-20)
(0.494496 -0.0174703 -3.83133e-20)
(0.52127 -0.016561 3.61226e-21)
(0.5459 -0.0157323 -3.36937e-21)
(0.568625 -0.0149755 3.58397e-20)
(0.58965 -0.0142832 -2.15887e-20)
(0.609157 -0.0136489 2.9661e-20)
(0.627319 -0.0130656 -4.44776e-20)
(0.644285 -0.0125269 5.2005e-23)
(0.660093 -0.0120344 -9.38179e-21)
(0.0112146 -0.0295503 -2.82553e-20)
(0.0481389 -0.0620894 1.42587e-19)
(0.1051 -0.076274 9.61538e-20)
(0.164891 -0.079966 6.36838e-20)
(0.221406 -0.0783963 7.95933e-20)
(0.27328 -0.0746277 -1.92761e-20)
(0.32029 -0.0702437 8.83506e-20)
(0.362756 -0.0659341 1.8145e-20)
(0.40118 -0.0619364 -7.84975e-21)
(0.436058 -0.0582979 -6.31794e-20)
(0.467829 -0.0550004 6.56499e-20)
(0.49687 -0.0520092 -8.92413e-20)
(0.523502 -0.0492897 6.49216e-20)
(0.548003 -0.0468112 7.44686e-20)
(0.570608 -0.0445476 9.86594e-20)
(0.591522 -0.042477 -6.47641e-20)
(0.610928 -0.0405796 1.83834e-20)
(0.628999 -0.0388347 6.86737e-20)
(0.645875 -0.0372232 -6.49464e-20)
(0.661568 -0.0357513 4.90111e-20)
(0.014234 -0.0489144 -2.73212e-19)
(0.0543311 -0.102854 -1.37317e-19)
(0.112566 -0.126418 -1.52767e-19)
(0.172623 -0.132587 -1.20581e-20)
(0.228914 -0.130018 -8.24757e-20)
(0.280367 -0.123786 -1.01185e-19)
(0.326912 -0.116523 1.78963e-19)
(0.368927 -0.109377 9.13164e-20)
(0.406936 -0.102746 1.12704e-19)
(0.441438 -0.0967088 -1.22396e-19)
(0.472869 -0.0912365 9.07978e-20)
(0.501601 -0.0862718 1.10991e-19)
(0.527952 -0.0817574 3.91624e-20)
(0.552195 -0.0776426 -3.72233e-20)
(0.574562 -0.073884 8.07812e-21)
(0.595255 -0.0704454 -1.60318e-20)
(0.614458 -0.0672939 -1.5783e-19)
(0.632348 -0.0643944 2.43891e-20)
(0.649045 -0.0617168 1.53604e-19)
(0.664511 -0.0592761 -2.06394e-19)
(0.0187142 -0.0678268 -8.99843e-20)
(0.0635352 -0.142791 1.33255e-19)
(0.123676 -0.175653 3.08856e-20)
(0.184138 -0.184339 -5.76879e-20)
(0.240103 -0.180845 -1.63223e-19)
(0.290935 -0.172225 -3.50006e-19)
(0.336786 -0.162147 -3.33423e-19)
(0.378131 -0.152218 -2.40935e-20)
(0.415523 -0.142997 -1.94304e-19)
(0.449466 -0.1346 -2.90833e-19)
(0.48039 -0.126986 2.25806e-19)
(0.508662 -0.120077 -3.33065e-19)
(0.534594 -0.113793 6.65059e-20)
(0.558452 -0.108064 -2.11403e-20)
(0.580464 -0.10283 -7.00927e-20)
(0.600828 -0.0980404 -8.87393e-20)
(0.619729 -0.0936493 1.43834e-19)
(0.637348 -0.0896073 1.15106e-19)
(0.65378 -0.0858749 1.98032e-19)
(0.668909 -0.0824829 -2.96368e-19)
(0.024598 -0.0861135 4.87933e-20)
(0.0756525 -0.181582 4.74389e-19)
(0.138326 -0.223626 1.3594e-19)
(0.199341 -0.234884 3.28789e-19)
(0.254888 -0.230569 -1.22917e-19)
(0.304908 -0.219665 1.89338e-19)
(0.349847 -0.206861 -5.96773e-20)
(0.390308 -0.194222 3.8454e-19)
(0.426886 -0.182474 -1.98006e-19)
(0.46009 -0.171769 2.33484e-19)
(0.490346 -0.16206 2.02857e-19)
(0.518011 -0.153246 2.17267e-19)
(0.54339 -0.145228 -1.94498e-19)
(0.56674 -0.137916 1.67165e-19)
(0.588283 -0.131233 -2.32403e-19)
(0.608211 -0.125117 -6.40101e-20)
(0.626713 -0.119506 -1.53478e-19)
(0.643972 -0.114338 -6.52357e-20)
(0.660056 -0.109567 2.58718e-19)
(0.674741 -0.105248 -4.28474e-19)
(0.0318102 -0.103607 -1.96483e-19)
(0.0905526 -0.218913 -2.27556e-20)
(0.15638 -0.269994 -7.83524e-20)
(0.218105 -0.283891 -2.7545e-19)
(0.273158 -0.278888 4.67795e-20)
(0.322187 -0.265833 -4.31794e-19)
(0.366007 -0.250416 -1.81766e-19)
(0.40538 -0.235163 -1.40927e-20)
(0.440953 -0.220966 -4.57611e-19)
(0.473247 -0.208022 -1.42301e-19)