1.45 	0 	0 	-0.248071
2.35 	0 	0 	0.0261467
