/*--------------------------------*- C++ -*----------------------------------*\
  =========                 |
  \\      /  F ield         | OpenFOAM: The Open Source CFD Toolbox
   \\    /   O peration     | Website:  https://openfoam.org
    \\  /    A nd           | Version:  6.0
     \\/     M anipulation  |
\*---------------------------------------------------------------------------*/
FoamFile
{
    version     2.0;
    format      ascii;
    class       surfaceScalarField;
    location    "20.9";
    object      phi;
}
// * * * * * * * * * * * * * * * * * * * * * * * * * * * * * * * * * * * * * //

dimensions      [0 3 -1 0 0 0 0];

internalField   nonuniform List<scalar> 
15760
(
-2.91506e-06
2.84936e-06
6.56948e-08
-1.02949e-05
7.25031e-06
1.29506e-07
-2.10594e-05
1.06199e-05
1.44657e-07
-3.433e-05
1.31449e-05
1.25753e-07
-4.94037e-05
1.49896e-05
8.40896e-08
-6.57312e-05
1.62995e-05
2.79578e-08
-8.28972e-05
1.72028e-05
-3.67991e-08
-0.000100602
1.78111e-05
-1.06247e-07
-0.000118646
1.82217e-05
-1.77888e-07
-0.000136915
1.85191e-05
-2.50247e-07
-0.000155368
1.87758e-05
-3.22529e-07
-0.000174028
1.90539e-05
-3.9436e-07
-0.000192967
1.94049e-05
-4.65592e-07
-0.000212301
1.98706e-05
-5.36172e-07
-0.000232178
2.04831e-05
-6.06058e-07
-0.000252768
2.1265e-05
-6.75171e-07
-0.000274254
2.22296e-05
-7.43389e-07
-0.000296825
2.33808e-05
-8.10531e-07
-0.000320665
2.47164e-05
-8.76271e-07
2.62331e-05
-9.40237e-07
-0.000345958
-2.89824e-06
5.7476e-06
-1.02343e-05
1.45864e-05
-2.09298e-05
2.13154e-05
-3.41054e-05
2.63205e-05
-4.90557e-05
2.99399e-05
-6.5228e-05
3.24719e-05
-8.22022e-05
3.4177e-05
-9.96728e-05
3.52817e-05
-0.000117433
3.59821e-05
-0.000135362
3.64481e-05
-0.000153412
3.68256e-05
-0.000171597
3.72393e-05
-0.000189986
3.77937e-05
-0.000208689
3.85736e-05
-0.000227851
3.96452e-05
-0.000247642
4.10559e-05
-0.000268247
4.28344e-05
-0.000289857
4.49911e-05
-0.000312663
4.75226e-05
5.04238e-05
-0.000336854
-2.86682e-06
8.61442e-06
-1.01204e-05
2.184e-05
-2.06849e-05
3.18799e-05
-3.36795e-05
3.9315e-05
-4.83944e-05
4.46548e-05
-6.42702e-05
4.83476e-05
-8.08774e-05
5.07842e-05
-9.78991e-05
5.23034e-05
-0.000115116
5.31986e-05
-0.000132391
5.37237e-05
-0.000149663
5.40979e-05
-0.000166933
5.45092e-05
-0.000184256
5.51166e-05
-0.000201734
5.60512e-05
-0.000219506
5.7417e-05
-0.00023774
5.92903e-05
-0.000256625
6.17199e-05
-0.000276361
6.47265e-05
-0.000297147
6.83093e-05
7.24622e-05
-0.000319186
-2.82313e-06
1.14375e-05
-9.96013e-06
2.8977e-05
-2.03382e-05
4.22579e-05
-3.30742e-05
5.2051e-05
-4.74526e-05
5.90332e-05
-6.29044e-05
6.37995e-05
-7.89874e-05
6.68672e-05
-9.53682e-05
6.86842e-05
-0.000111808
6.96383e-05
-0.00012815
7.00656e-05
-0.000144309
7.02573e-05
-0.000160266
7.04656e-05
-0.000176056
7.09064e-05
-0.000191765
7.1761e-05
-0.000207525
7.31767e-05
-0.000223501
7.52658e-05
-0.000239885
7.81043e-05
-0.000256889
8.17304e-05
-0.000274732
8.61521e-05
9.1365e-05
-0.000293634
-2.77017e-06
1.42077e-05
-9.7624e-06
3.59692e-05
-1.99065e-05
5.2402e-05
-3.23168e-05
6.44613e-05
-4.62711e-05
7.29875e-05
-6.11895e-05
7.87179e-05
-7.66143e-05
8.22919e-05
-9.21922e-05
8.42622e-05
-0.00010766
8.51063e-05
-0.000122834
8.52392e-05
-0.000137599
8.50226e-05
-0.000151906
8.47726e-05
-0.000165764
8.47643e-05
-0.000179237
8.52342e-05
-0.000192441
8.63801e-05
-0.000205534
8.83597e-05
-0.000218717
9.1287e-05
-0.000232216
9.5229e-05
-0.000246276
0.000100212
0.000106241
-0.000261152
-2.71098e-06
1.69187e-05
-9.53611e-06
4.27944e-05
-1.94066e-05
6.22725e-05
-3.14342e-05
7.64889e-05
-4.48903e-05
8.64436e-05
-5.9184e-05
9.30116e-05
-7.38413e-05
9.69493e-05
-8.84871e-05
9.89079e-05
-0.00010283
9.94497e-05
-0.000116654
9.90631e-05
-0.000129808
9.81766e-05
-0.000142205
9.7169e-05
-0.000153816
9.6376e-05
-0.000164676
9.60941e-05
-0.000174877
9.65804e-05
-0.000184567
9.80497e-05
-0.000193948
0.000100669
-0.00020327
0.00010455
-0.000212813
0.000109755
0.00011631
-0.000222881
-2.6481e-06
1.95668e-05
-9.28819e-06
4.94345e-05
-1.88511e-05
7.18354e-05
-3.04461e-05
8.80839e-05
-4.33397e-05
9.93372e-05
-5.69316e-05
0.000106604
-7.07329e-05
0.000110751
-8.43463e-05
0.000112521
-9.7452e-05
0.000112555
-0.000109797
0.000111408
-0.000121188
0.000109568
-0.000131493
0.000107474
-0.000140638
0.000105521
-0.000148612
0.000104069
-0.000155475
0.000103443
-0.000161354
0.000103929
-0.000166453
0.000105767
-0.00017104
0.000109137
-0.000175446
0.000114161
0.000120909
-0.000180045
-2.58288e-06
2.21497e-05
-9.02167e-06
5.58733e-05
-1.82441e-05
8.10578e-05
-2.9358e-05
9.91978e-05
-4.16271e-05
0.000111606
-5.44451e-05
0.000119422
-6.73114e-05
0.000123617
-7.98097e-05
0.00012502
-9.15924e-05
0.000124338
-0.00010237
0.000122185
-0.000111904
0.000119103
-0.00012001
0.00011558
-0.000126557
0.000112068
-0.00013148
0.000108991
-0.000134788
0.00010675
-0.000136575
0.000105717
-0.000137033
0.000106225
-0.000136451
0.000108555
-0.000135217
0.000112927
0.000119492
-0.0001338
-2.51508e-06
2.46647e-05
-8.73408e-06
6.20923e-05
-1.75784e-05
8.99022e-05
-2.81552e-05
0.000109775
-3.97286e-05
0.00012318
-5.16909e-05
0.000131384
-6.35351e-05
0.000135461
-7.48316e-05
0.000136316
-8.52104e-05
0.000134717
-9.43482e-05
0.000131323
-0.000101963
0.000126717
-0.000107813
0.000121429
-0.000111703
0.000115958
-0.0001135
0.000110788
-0.000113144
0.000106395
-0.000110678
0.00010325
-0.000106262
0.000101809
-0.000100196
0.000102489
-9.29291e-05
0.000105661
0.000111618
-8.50553e-05
-2.44263e-06
2.71074e-05
-8.41665e-06
6.80663e-05
-1.68333e-05
9.83188e-05
-2.67989e-05
0.00011974
-3.75814e-05
0.000133962
-4.85767e-05
0.000142379
-5.92784e-05
0.000146163
-6.92519e-05
0.00014629
-7.81129e-05
0.000143578
-8.55132e-05
0.000138723
-9.11317e-05
0.000132336
-9.46734e-05
0.000124971
-9.58758e-05
0.000117161
-9.45241e-05
0.000109436
-9.04755e-05
0.000102346
-8.36917e-05
9.64666e-05
-7.42769e-05
9.23941e-05
-6.25179e-05
9.073e-05
-4.89215e-05
9.20643e-05
9.69278e-05
-3.42314e-05
-2.3617e-06
2.94691e-05
-8.05446e-06
7.3759e-05
-1.59741e-05
0.000106238
-2.52253e-05
0.000128991
-3.5081e-05
0.000143818
-4.49455e-05
0.000152244
-5.43202e-05
0.000155538
-6.27746e-05
0.000154744
-6.99218e-05
0.000150725
-7.54012e-05
0.000144203
-7.88655e-05
0.0001358
-7.9977e-05
0.000126083
-7.84105e-05
0.000115594
-7.38687e-05
0.000104894
-6.61096e-05
9.45873e-05
-5.49895e-05
8.53465e-05
-4.05198e-05
7.79244e-05
-2.29362e-05
7.31465e-05
-2.77885e-06
7.19069e-05
7.51094e-05
1.90396e-05
-2.26724e-06
3.17363e-05
-7.62778e-06
7.91196e-05
-1.49552e-05
0.000113566
-2.33482e-05
0.000137384
-3.20843e-05
0.000152554
-4.05777e-05
0.000160737
-4.83429e-05
0.000163303
-5.49617e-05
0.000161363
-6.00572e-05
0.000155821
-6.3272e-05
0.000147417
-6.42519e-05
0.00013678
-6.26361e-05
0.000124467
-5.80556e-05
0.000111014
-5.01421e-05
9.69809e-05
-3.85543e-05
8.29994e-05
-2.30247e-05
6.98169e-05
-3.43357e-06
5.83333e-05
2.00879e-05
4.96251e-05
4.70168e-05
4.4978e-05
4.58501e-05
7.6276e-05
-2.1537e-06
3.389e-05
-7.11434e-06
8.40802e-05
-1.37234e-05
0.000120175
-2.10662e-05
0.000144727
-2.84189e-05
0.000159907
-3.52033e-05
0.000167522
-4.09467e-05
0.000169046
-4.52481e-05
0.000165664
-4.77494e-05
0.000158322
-4.81123e-05
0.00014778
-4.59977e-05
0.000134665
-4.10511e-05
0.00011952
-3.28924e-05
0.000102855
-2.11155e-05
8.52041e-05
-5.304e-06
6.71879e-05
1.4928e-05
4.95849e-05
3.9856e-05
3.34053e-05
6.95133e-05
1.99678e-05
0.000103477
1.10142e-05
8.77159e-06
0.000140556
-2.01602e-06
3.5906e-05
-6.49221e-06
8.85564e-05
-1.22243e-05
0.000125907
-1.82716e-05
0.000150775
-2.3898e-05
0.000165533
-2.85228e-05
0.000172146
-3.16791e-05
0.000172202
-3.2979e-05
0.000166964
-3.20851e-05
0.000157428
-2.86872e-05
0.000144382
-2.24814e-05
0.00012846
-1.31511e-05
0.00011019
-3.50607e-07
9.00546e-05
1.63077e-05
6.85458e-05
3.72559e-05
4.62397e-05
6.29493e-05
2.38914e-05
9.38026e-05
2.55204e-06
0.000130053
-1.62827e-05
0.000171485
-3.04179e-05
-3.66601e-05
0.000216917
-1.85043e-06
3.77565e-05
-5.74237e-06
9.24484e-05
-1.04075e-05
0.000130572
-1.48611e-05
0.000155228
-1.83367e-05
0.000169008
-2.02337e-05
0.000174043
-2.00739e-05
0.000172043
-1.74673e-05
0.000164357
-1.20862e-05
0.000152047
-3.64478e-06
0.000135941
8.11815e-06
0.000116697
2.34563e-05
9.48518e-05
4.26346e-05
7.08764e-05
6.59499e-05
4.52305e-05
9.37531e-05
1.84365e-05
0.00012646
-8.81557e-06
0.00016453
-3.5518e-05
0.000208372
-6.01248e-05
0.00025807
-8.0116e-05
-9.12547e-05
0.000312665
-1.6549e-06
3.94114e-05
-4.85011e-06
9.56436e-05
-8.22982e-06
0.000133952
-1.07419e-05
0.00015774
-1.15655e-05
0.000169832
-1.00543e-05
0.000172532
-5.69158e-06
0.00016768
1.94252e-06
0.000156723
1.31927e-05
0.000140797
2.83427e-05
0.000120791
4.76243e-05
9.74151e-05
7.12256e-05
7.12505e-05
9.93015e-05
4.28005e-05
0.000131992
1.25399e-05
0.000169452
-1.90233e-05
0.00021189
-5.1254e-05
0.000259609
-8.32368e-05
0.000313008
-0.000113524
0.000372445
-0.000139553
-0.000156231
0.000437421
-1.42875e-06
4.08401e-05
-3.80416e-06
9.8019e-05
-5.65464e-06
0.000135802
-5.83294e-06
0.000157918
-3.43473e-06
0.000167434
2.26404e-06
0.000166833
1.18541e-05
0.00015809
2.58238e-05
0.000142754
4.45759e-05
0.000122045
6.84339e-05
9.6933e-05
9.76392e-05
6.82098e-05
0.000132344
3.65454e-05
0.000172605
2.53987e-06
0.000218378
-3.3233e-05
0.000269534
-7.01792e-05
0.000325897
-0.000107617
0.000387315
-0.000144656
0.000453777
-0.000179985
0.000525541
-0.000211317
-0.00023342
0.00060273
-1.1715e-06
4.20116e-05
-2.59341e-06
9.94409e-05
-2.64611e-06
0.000135855
-5.70144e-08
0.000155329
6.19373e-06
0.000161183
1.69432e-05
0.000156084
3.28952e-05
0.000142138
5.46506e-05
0.000120998
8.27194e-05
9.39759e-05
0.000117519
6.21333e-05
0.000159361
2.63681e-05
0.000208425
-1.25188e-05
0.00026473
-5.37648e-05
0.000328093
-9.65968e-05
0.000398102
-0.000140187
0.000474091
-0.000183607
0.00055518
-0.000225744
0.000640376
-0.000265181
0.000728919
-0.000299859
-0.000326133
0.000821632
-8.80924e-07
4.28926e-05
-1.20132e-06
9.97613e-05
8.4088e-07
0.000133813
6.67465e-06
0.000149496
1.74674e-05
0.00015039
3.42033e-05
0.000139348
5.77366e-05
0.000118604
8.88209e-05
8.9914e-05
0.000128119
5.46781e-05
0.000176195
1.40571e-05
0.000233496
-3.09332e-05
0.000300318
-7.93405e-05
0.000376756
-0.000130203
0.000462641
-0.000182482
0.000557444
-0.00023499
0.000660153
-0.000286316
0.000769126
-0.000334718
0.000881919
-0.000377974
0.000995404
-0.000413344
-0.000440942
0.00111021
-5.50863e-07
4.34434e-05
4.00355e-07
9.88101e-05
4.8726e-06
0.000129341
1.44809e-05
0.000139887
3.05692e-05
0.000134302
5.42975e-05
0.00011562
8.66973e-05
8.62047e-05
0.0001287
4.79113e-05
0.000181144
2.23381e-06
0.000244769
-4.95672e-05
0.000320195
-0.000106359
0.000407907
-0.000167052
0.000508223
-0.00023052
0.000621266
-0.000295525
0.000746908
-0.000360631
0.000884655
-0.000424063
0.00103339
-0.00048345
0.00119046
-0.000535046
0.0013486
-0.000571481
-0.00057743
0.00148509
-1.7015e-07
4.36136e-05
2.25562e-06
9.63843e-05
9.54486e-06
0.000122051
2.35248e-05
0.000125907
4.57386e-05
0.000112088
7.75396e-05
8.38188e-05
0.000120144
4.35998e-05
0.000174657
-6.60088e-06
0.000242068
-6.51773e-05
0.000323248
-0.000130747
0.000418934
-0.000202046
0.000529733
-0.000277851
0.000656142
-0.000356928
0.000798622
-0.000438005
0.000957749
-0.000519759
0.00113452
-0.00060083
0.00133088
-0.000679813
0.00155104
-0.000755205
0.00180529
-0.000825733
-0.000888207
0.00211606
2.80905e-07
4.33327e-05
4.4307e-06
9.22345e-05
1.49914e-05
0.000111491
3.40226e-05
0.000106876
6.32807e-05
8.28301e-05
0.000104313
4.27866e-05
0.000158502
-1.05896e-05
0.000227077
-7.51755e-05
0.000311096
-0.000149196
0.000411426
-0.000231078
0.000528726
-0.000319345
0.000663439
-0.000412564
0.000815825
-0.000509315
0.000986027
-0.000608208
0.0011742
-0.00070793
0.0013807
-0.000807329
0.00160641
-0.000905526
0.00185324
-0.00100203
0.0021243
-0.00109679
-0.00118222
0.00241832
8.25926e-07
4.25067e-05
7.00503e-06
8.60554e-05
2.13706e-05
9.71251e-05
4.62257e-05
8.2021e-05
8.35396e-05
4.55162e-05
0.000135033
-8.70641e-06
0.000202202
-7.77589e-05
0.000286306
-0.00015928
0.000388329
-0.000251218
0.000508932
-0.000351681
0.00064843
-0.000458843
0.000806772
-0.000570906
0.000983567
-0.00068611
0.00117813
-0.000802775
0.00138958
-0.000919375
0.00161688
-0.00103463
0.00185897
-0.00114762
0.00211477
-0.00125783
0.00238294
-0.00136497
-0.00146057
0.00266129
1.49313e-06
4.10136e-05
1.00687e-05
7.74798e-05
2.88551e-05
7.83387e-05
6.03966e-05
5.04795e-05
0.000106855
-9.41959e-07
0.000170072
-7.19236e-05
0.000251565
-0.000159252
0.000352479
-0.000260194
0.00047352
-0.000372259
0.000614896
-0.000493057
0.00077628
-0.000620227
0.000956814
-0.00075144
0.00115514
-0.000884438
0.00136948
-0.00101712
0.00159772
-0.00114761
0.00183747
-0.00127438
0.00208614
-0.00139629
0.00234093
-0.00151262
0.00259889
-0.00162293
-0.00172005
0.00285837
2.31151e-06
3.87021e-05
1.37113e-05
6.608e-05
3.7609e-05
5.4441e-05
7.67678e-05
1.13206e-05
0.000133493
-5.76668e-05
0.000209656
-0.000148087
0.000306651
-0.000256247
0.000425304
-0.000378847
0.000565791
-0.000512746
0.000727577
-0.000654843
0.000909407
-0.000802058
0.00110935
-0.000951385
0.0013249
-0.00109999
0.00155311
-0.00124532
0.00179072
-0.00138522
0.00203431
-0.00151798
0.00228042
-0.0016424
0.00252556
-0.00175776
0.0027664
-0.00186377
-0.0019553
0.00300166
3.30762e-06
3.53945e-05
1.80102e-05
5.13775e-05
4.77632e-05
2.4688e-05
9.54987e-05
-3.64149e-05
0.000163577
-0.000125745
0.00025376
-0.00023827
0.000367111
-0.000369598
0.00050388
-0.000515616
0.000663421
-0.000672286
0.000844164
-0.000835586
0.00104368
-0.00100157
0.00125881
-0.00116652
0.00148587
-0.00132705
0.00172088
-0.00148033
0.00195977
-0.0016241
0.00219859
-0.0017568
0.00243366
-0.00187747
0.00266165
-0.00198575
0.00287974
-0.00208186
-0.00216274
0.00308718
4.50279e-06
3.08917e-05
2.30217e-05
3.28585e-05
5.9395e-05
-1.16854e-05
0.000116638
-9.3658e-05
0.000197032
-0.000206139
0.000302026
-0.000343264
0.000432094
-0.000499665
0.000586607
-0.00067013
0.000763795
-0.000849474
0.000960807
-0.0010326
0.00117389
-0.00121466
0.00139868
-0.0013913
0.00163048
-0.00155885
0.00186461
-0.00171446
0.00209669
-0.00185618
0.00232282
-0.00198293
0.00253977
-0.00209441
0.00274497
-0.00219096
0.00293662
-0.0022735
-0.00234081
0.00311469
5.9113e-06
2.49804e-05
2.87734e-05
9.9964e-06
7.25121e-05
-5.54241e-05
0.000140097
-0.000161243
0.00023354
-0.000299582
0.00035372
-0.000463444
0.000500211
-0.000646156
0.000671193
-0.000841112
0.00086351
-0.00104179
0.00107289
-0.00124197
0.00129428
-0.00143605
0.00152229
-0.00161931
0.00175161
-0.00178817
0.00197739
-0.00194023
0.00219548
-0.00207427
0.00240263
-0.00219009
0.00259654
-0.00228832
0.00277581
-0.00237023
0.00293985
-0.00243754
-0.0024905
0.00308954
7.5395e-06
1.74409e-05
3.52604e-05
-1.77245e-05
8.70431e-05
-0.000107207
0.000165634
-0.000239835
0.000272528
-0.000406475
0.000407724
-0.000598641
0.000569571
-0.000808003
0.000754774
-0.00102632
0.000958634
-0.00124565
0.00117547
-0.00145881
0.00139916
-0.00165974
0.00162371
-0.00184386
0.00184371
-0.00200817
0.0020547
-0.00215122
0.00225333
-0.0022729
0.00243743
-0.00237419
0.00260593
-0.00245682
0.00275867
-0.00252297
0.00289622
-0.0025751
-0.00261455
0.00302027
9.38548e-06
8.05542e-06
4.24428e-05
-5.07818e-05
0.000102833
-0.000167597
0.000192849
-0.000329851
0.000313169
-0.000526795
0.000462577
-0.000748049
0.000637886
-0.000983311
0.000834136
-0.00122257
0.00104508
-0.0014566
0.00126386
-0.00167759
0.00148371
-0.00187958
0.00169855
-0.00205871
0.00190348
-0.0022131
0.00209495
-0.00234269
0.00227081
-0.00244877
0.00243018
-0.00253357
0.00257324
-0.00259987
0.00270094
-0.00265067
0.00281474
-0.0026889
-0.00271664
0.00291684
1.1439e-05
-3.38358e-06
5.02458e-05
-8.95885e-05
0.000119643
-0.000236995
0.000221192
-0.000431399
0.000354414
-0.000660017
0.000516545
-0.00091018
0.000702626
-0.00116939
0.00090599
-0.00142593
0.00111904
-0.00166965
0.00133415
-0.0018927
0.00154446
-0.00208989
0.00174443
-0.00225868
0.00193016
-0.00239883
0.00209939
-0.00251192
0.00225133
-0.0026007
0.00238635
-0.00266859
0.00250571
-0.00271923
0.00261115
-0.00275611
0.00270468
-0.00278243
-0.00280064
0.00278868
1.36812e-05
-1.70648e-05
5.85588e-05
-0.000134466
0.000137155
-0.000315591
0.000249973
-0.000544217
0.000395031
-0.000805075
0.00056773
-0.00108288
0.000761229
-0.00136289
0.000967291
-0.00163199
0.00117737
-0.00187973
0.00138362
-0.00209895
0.0015797
-0.00228597
0.00176111
-0.0024401
0.00192533
-0.00256304
0.00207149
-0.00265808
0.00220011
-0.00272932
0.00231264
-0.00278112
0.00241105
-0.00281764
0.00249755
-0.00284261
0.00257434
-0.00285922
-0.00287001
0.00264371
1.60846e-05
-3.31494e-05
6.72368e-05
-0.000185618
0.000154975
-0.000403329
0.000278394
-0.000667637
0.000433681
-0.000960362
0.000614209
-0.00126341
0.000811315
-0.00156
0.00101553
-0.00183621
0.00121789
-0.00208208
0.00141095
-0.00229202
0.00158941
-0.00246443
0.00175019
-0.00260088
0.00189222
-0.00270508
0.00201602
-0.00278188
0.00212317
-0.00283646
0.00221582
-0.00287378
0.00229639
-0.0028982
0.00236719
-0.00291342
0.00243039
-0.00292241
-0.00292762
0.00248799
1.86123e-05
-5.17617e-05
7.61016e-05
-0.000243108
0.000172647
-0.000499874
0.000305584
-0.000800574
0.000468997
-0.00112378
0.000654183
-0.00144859
0.000850902
-0.00175672
0.00104895
-0.00203425
0.00123954
-0.00227268
0.00141621
-0.00246869
0.00157507
-0.00262328
0.00171458
-0.00274039
0.0018351
-0.0028256
0.00193825
-0.00288504
0.00202637
-0.00292458
0.00210201
-0.00294942
0.00216769
-0.00296388
0.00222565
-0.00297138
0.0022778
-0.00297456
-0.00297564
0.00232583
2.12184e-05
-7.29801e-05
8.49466e-05
-0.000306836
0.000189671
-0.000604599
0.000330644
-0.000941546
0.000499679
-0.00129281
0.000686119
-0.00163503
0.000878557
-0.00194915
0.00106664
-0.00222234
0.00124237
-0.00244841
0.00140065
-0.00262697
0.00153918
-0.00276181
0.00165795
-0.00285915
0.00175849
-0.00292614
0.00184324
-0.00296978
0.00191494
-0.00299628
0.00197627
-0.00301076
0.00202963
-0.00301725
0.00207704
-0.00301878
0.00212009
-0.00301762
-0.00301568
0.00216013
2.38486e-05
-9.68287e-05
9.35428e-05
-0.00037653
0.000205528
-0.000716584
0.000352705
-0.00108872
0.000524592
-0.0014647
0.000708862
-0.0018193
0.000893484
-0.00213378
0.00106856
-0.00239741
0.00122734
-0.00260718
0.00136634
-0.00276597
0.00148486
-0.00288034
0.00158418
-0.00295848
0.00166675
-0.00300871
0.00173546
-0.00303849
0.0017932
-0.00305402
0.00184255
-0.00306011
0.00188567
-0.00306037
0.00192427
-0.00305737
0.00195964
-0.003053
-0.00304884
0.0019928
2.64415e-05
-0.00012327
0.000101648
-0.000451737
0.000219703
-0.000834639
0.000370985
-0.00124001
0.00054284
-0.00163655
0.000721709
-0.00199817
0.000895526
-0.00230759
0.00105538
-0.00255727
0.00119608
-0.00274789
0.00131584
-0.00288572
0.00141537
-0.00297987
0.00149699
-0.0030401
0.00156371
-0.00307542
0.00161862
-0.0030934
0.00166454
-0.00309993
0.00170381
-0.00309938
0.00173827
-0.00309483
0.00176932
-0.00308843
0.001798
-0.00308167
-0.00307587
0.00182502
2.89309e-05
-0.000152201
0.00010902
-0.000531826
0.000231719
-0.000957338
0.000384836
-0.00139312
0.000553821
-0.00180554
0.000724415
-0.00216877
0.000885094
-0.00246827
0.00102834
-0.00270051
0.00115068
-0.00287023
0.00125189
-0.00298693
0.00133388
-0.00306187
0.00139969
-0.0031059
0.00145259
-0.00312833
0.00149567
-0.00313648
0.00153151
-0.00313577
0.00156215
-0.00313002
0.00158911
-0.0031218
0.00161352
-0.00311283
0.00163615
-0.0031043
-0.00309724
0.00165752
3.12483e-05
-0.000183449
0.000115424
-0.000616001
0.000241163
-0.00108308
0.000393782
-0.00154574
0.000557244
-0.001969
0.000717166
-0.00232869
0.000863054
-0.00261416
0.000989041
-0.0028265
0.00109335
-0.00297454
0.00117715
-0.00307073
0.00124324
-0.00312796
0.00129507
-0.00315773
0.00133598
-0.00316924
0.00136885
-0.00316935
0.00139597
-0.0031629
0.00141907
-0.00315311
0.00143936
-0.00314209
0.00145771
-0.00313118
0.00147472
-0.0031213
-0.00311327
0.00149074
3.33264e-05
-0.000216776
0.000120652
-0.000703327
0.000247707
-0.00121013
0.000397541
-0.00169558
0.000553125
-0.00212458
0.000700499
-0.00247606
0.000830582
-0.00274424
0.000939258
-0.00293518
0.00102633
-0.00306161
0.00109407
-0.00313846
0.0011459
-0.00317979
0.00118542
-0.00319725
0.00121586
-0.00319968
0.00123982
-0.00319331
0.00125927
-0.00318234
0.00127559
-0.00316943
0.00128977
-0.00315626
0.00130246
-0.00314388
0.00131411
-0.00313296
-0.00312413
0.00132498
3.51052e-05
-0.000251881
0.000124534
-0.000792755
0.000251138
-0.00133674
0.000396038
-0.00184048
0.000541754
-0.0022703
0.000675237
-0.00260955
0.000789054
-0.00285806
0.000880815
-0.00302694
0.000951691
-0.00313249
0.0010048
-0.00319157
0.00104389
-0.00321889
0.00107256
-0.00322592
0.00109378
-0.0032209
0.00110983
-0.00320936
0.00112234
-0.00319485
0.00113244
-0.00317953
0.00114087
-0.0031647
0.00114816
-0.00315117
0.00115462
-0.00313942
-0.00312993
0.00116042
3.65218e-05
-0.000288403
0.000126921
-0.000883154
0.000251318
-0.00146113
0.00038934
-0.0019785
0.000523596
-0.00240455
0.000642325
-0.00272827
0.000739856
-0.00295559
0.000815404
-0.00310248
0.000871259
-0.00318834
0.000911106
-0.00323142
0.000938831
-0.00324661
0.000957847
-0.00324493
0.000970828
-0.00323388
0.000979713
-0.00321825
0.000985832
-0.00320097
0.00099007
-0.00318376
0.00099301
-0.00316764
0.000995038
-0.00315319
0.000996398
-0.00314077
-0.00313074
0.000997206
3.75319e-05
-0.000325935
0.000127729
-0.000973351
0.000248244
-0.00158165
0.000377705
-0.00210796
0.000499303
-0.00252615
0.000602839
-0.00283181
0.0006844
-0.00303715
0.000744617
-0.0031627
0.000786643
-0.00323037
0.000814497
-0.00325927
0.000832017
-0.00326413
0.000842354
-0.00325527
0.000847847
-0.00323937
0.000850112
-0.00322052
0.000850213
-0.00320107
0.000848838
-0.00318239
0.000846435
-0.00316524
0.000843299
-0.00315006
0.000839613
-0.00313709
-0.00312659
0.00083546
3.80986e-05
-0.000364033
0.000126917
-0.00106217
0.000241999
-0.00169673
0.000361499
-0.00222746
0.000469612
-0.00263427
0.000557857
-0.00292006
0.000623993
-0.00310329
0.000669848
-0.00320856
0.000699186
-0.0032597
0.000716163
-0.00327625
0.000724444
-0.00327242
0.000726869
-0.0032577
0.000725438
-0.00323794
0.000721473
-0.00321655
0.000715814
-0.00319541
0.000708988
-0.00317556
0.000701337
-0.00315759
0.00069309
-0.00314181
0.000684389
-0.00312839
-0.00311749
0.000675293
3.8197e-05
-0.00040223
0.000124486
-0.00114846
0.000232746
-0.00180499
0.000341172
-0.00233589
0.000435298
-0.00272839
0.00050842
-0.00299318
0.000559823
-0.00315469
0.000592293
-0.00324103
0.00060999
-0.0032774
0.000617046
-0.0032833
0.000616873
-0.00327224
0.000611975
-0.0032528
0.000604035
-0.00323
0.000594117
-0.00320663
0.000582871
-0.00318417
0.000570698
-0.00316339
0.000557859
-0.00314475
0.000544534
-0.00312849
0.000530836
-0.00311469
-0.00310347
0.00051681
3.78143e-05
-0.000440044
0.000120481
-0.00123112
0.000220715
-0.00190523
0.000317228
-0.0024324
0.000397138
-0.0028083
0.000455499
-0.00305154
0.000492932
-0.00319212
0.000512959
-0.00326105
0.000519945
-0.00328439
0.000517881
-0.00328124
0.000509877
-0.00326424
0.000498103
-0.00324102
0.000483956
-0.00321585
0.000468277
-0.00319095
0.000451561
-0.00316745
0.000434108
-0.00314594
0.000416119
-0.00312676
0.000397734
-0.0031101
0.000379051
-0.00309601
-0.00308453
0.000360109
3.69495e-05
-0.000476994
0.000114982
-0.00130916
0.000206177
-0.00199642
0.000290191
-0.00251641
0.000355881
-0.00287399
0.000399972
-0.00309563
0.000424223
-0.00321637
0.000432682
-0.00326951
0.000429763
-0.00328147
0.000419235
-0.00327071
0.000403886
-0.00324889
0.000385571
-0.00322271
0.000365431
-0.00319571
0.000344123
-0.00316965
0.000322015
-0.00314534
0.000299328
-0.00312325
0.000276211
-0.00310364
0.000252782
-0.00308667
0.000229124
-0.00307235
-0.00306068
0.000205279
3.56125e-05
-0.000512606
0.000108097
-0.00138164
0.000189435
-0.00207776
0.000260586
-0.00258756
0.000312225
-0.00292563
0.000342619
-0.00312602
0.000354462
-0.00322822
0.000352142
-0.00326719
0.000340006
-0.00326933
0.000321546
-0.00325225
0.000299225
-0.00322657
0.000274613
-0.0031981
0.00024863
-0.00316973
0.000221782
-0.0031428
0.000194336
-0.0031179
0.000166445
-0.00309536
0.000138219
-0.00307542
0.000109753
-0.00305821
8.11312e-05
-0.00304373
-0.00303195
5.23988e-05
3.38228e-05
-0.000546429
9.99558e-05
-0.00144777
0.000170805
-0.00214861
0.000228921
-0.00264568
0.000266805
-0.00296351
0.000284118
-0.00314334
0.00028429
-0.00322839
0.000271895
-0.0032548
0.000251118
-0.00324856
0.000225149
-0.00322628
0.00019614
-0.00319756
0.000165404
-0.00316736
0.00013368
-0.00313801
0.000101351
-0.00311047
6.86007e-05
-0.00308515
3.55271e-05
-0.00306228
2.20532e-06
-0.00304209
-3.1285e-05
-0.00302472
-6.48597e-05
-0.00301015
-0.00299835
-9.84605e-05
3.16085e-05
-0.000578038
9.0704e-05
-0.00150687
0.000150606
-0.00220851
0.000195672
-0.00269075
0.000220195
-0.00298804
0.000225055
-0.0031482
0.000214244
-0.00321758
0.000192388
-0.00323294
0.000163451
-0.00321962
0.000130307
-0.00319314
9.48186e-05
-0.00316207
5.8079e-05
-0.00313062
2.06783e-05
-0.00310061
-1.70988e-05
-0.00307269
-5.51329e-05
-0.00304711
-9.33745e-05
-0.00302404
-0.000131781
-0.00300369
-0.000170288
-0.00298621
-0.000208803
-0.00297164
-0.0029599
-0.00024725
2.90043e-05
-0.000607042
8.0495e-05
-0.00155836
0.000129148
-0.00225716
0.000161282
-0.00272288
0.000172901
-0.00299966
0.000165934
-0.00314123
0.000144771
-0.00319641
0.00011399
-0.00320216
7.72887e-05
-0.00318292
3.72315e-05
-0.00315308
-4.585e-06
-0.00312025
-4.72524e-05
-0.00308795
-9.02991e-05
-0.00305756
-0.000133513
-0.00302948
-0.000176826
-0.0030038
-0.000220232
-0.00298064
-0.000263721
-0.0029602
-0.000307243
-0.00294269
-0.000350693
-0.00292819
-0.00291662
-0.000393971
2.60505e-05
-0.000633093
6.94866e-05
-0.0016018
0.000106732
-0.00229441
0.000126157
-0.0027423
0.000125369
-0.00299887
0.000107183
-0.00312304
7.62452e-05
-0.00316548
3.7005e-05
-0.00316292
-7.13159e-06
-0.00313878
-5.38991e-05
-0.00310632
-0.000101937
-0.00307222
-0.000150492
-0.0030394
-0.000199183
-0.00300887
-0.000247847
-0.00298081
-0.000296455
-0.00295519
-0.000345037
-0.00293206
-0.000393621
-0.00291161
-0.000442178
-0.00289413
-0.000490587
-0.00287978
-0.0028685
-0.00053871
2.27912e-05
-0.000655884
5.7837e-05
-0.00163684
8.36385e-05
-0.00232021
9.06609e-05
-0.00274933
7.79924e-05
-0.0029862
4.91718e-05
-0.00309422
8.98559e-06
-0.00312529
-3.83069e-05
-0.00311563
-8.96024e-05
-0.00308748
-0.000142919
-0.003053
-0.000197106
-0.00301803
-0.000251539
-0.00298497
-0.000305899
-0.00295451
-0.000360057
-0.00292665
-0.000414001
-0.00290125
-0.000467796
-0.00287826
-0.000521513
-0.0028579
-0.000575154
-0.00284049
-0.000628588
-0.00282634
-0.00281547
-0.000681615
1.92738e-05
-0.000675158
4.57012e-05
-0.00166327
6.01325e-05
-0.00233464
5.51253e-05
-0.00274432
3.11151e-05
-0.00296219
-7.77909e-06
-0.00305533
-5.67305e-05
-0.00307634
-0.000111713
-0.00306065
-0.000169929
-0.00302927
-0.000229662
-0.00299326
-0.000289949
-0.00295774
-0.00035027
-0.00292465
-0.000410355
-0.00289443
-0.000470081
-0.00286693
-0.00052944
-0.00284189
-0.000588515
-0.00281919
-0.000647428
-0.00279898
-0.000706227
-0.00278169
-0.000764781
-0.00276779
-0.00275746
-0.000822795
1.5547e-05
-0.000690705
3.32294e-05
-0.00168095
3.64574e-05
-0.00233787
1.98456e-05
-0.00272771
-1.49594e-05
-0.00292738
-6.33884e-05
-0.0030069
-0.000120655
-0.00301907
-0.000182996
-0.00299831
-0.000247914
-0.00296435
-0.000313944
-0.00292723
-0.00038029
-0.0028914
-0.000446526
-0.00285841
-0.000512415
-0.00282854
-0.000577826
-0.00280152
-0.000642729
-0.00277699
-0.000707202
-0.00275471
-0.000771403
-0.00273478
-0.000835451
-0.00271764
-0.000899224
-0.00270401
-0.00269439
-0.000962291
1.16605e-05
-0.000702365
2.05645e-05
-0.00168986
1.28367e-05
-0.00233014
-1.49136e-05
-0.00269996
-5.99628e-05
-0.00288234
-0.000117406
-0.00294946
-0.000182561
-0.00295392
-0.000251943
-0.00292892
-0.000323351
-0.00289294
-0.000395551
-0.00285503
-0.000467905
-0.00281904
-0.000540078
-0.00278624
-0.000611866
-0.00275675
-0.000683126
-0.00273026
-0.000753778
-0.00270633
-0.000823857
-0.00268463
-0.000893533
-0.00266511
-0.000962996
-0.00264818
-0.00103216
-0.00263485
-0.00262607
-0.00110048
7.66332e-06
-0.000710028
7.8408e-06
-0.00169003
-1.0527e-05
-0.00231177
-4.89176e-05
-0.00266157
-0.000103659
-0.00282759
-0.000169609
-0.00288351
-0.000242235
-0.00288129
-0.000318344
-0.00285281
-0.000396015
-0.00281527
-0.000474232
-0.00277682
-0.000552509
-0.00274077
-0.00063061
-0.00270814
-0.000708381
-0.00267898
-0.000785677
-0.00265296
-0.000862368
-0.00262964
-0.000938415
-0.00260859
-0.00101396
-0.00258956
-0.00108928
-0.00257286
-0.00116437
-0.00255976
-0.00255157
-0.00123887
3.60344e-06
-0.000713632
-4.81752e-06
-0.00168161
-3.34522e-05
-0.00228314
-8.19606e-05
-0.00261306
-0.000145841
-0.00276371
-0.000219796
-0.00280955
-0.00029948
-0.00280161
-0.000381987
-0.00277031
-0.000465663
-0.00273159
-0.000549698
-0.00269278
-0.000633757
-0.00265671
-0.000717716
-0.00262418
-0.000801505
-0.00259519
-0.000885021
-0.00256945
-0.000968117
-0.00254655
-0.00105068
-0.00252603
-0.0011328
-0.00250744
-0.00121488
-0.00249078
-0.00129712
-0.00247752
-0.00246859
-0.0013801
-4.73878e-07
-0.000713158
-1.72983e-05
-0.00166479
-5.57805e-05
-0.00224466
-0.000113866
-0.00255497
-0.000186333
-0.00269125
-0.000267794
-0.00272809
-0.000354111
-0.00271529
-0.000442659
-0.00268176
-0.000532031
-0.00264222
-0.000621608
-0.00260321
-0.000711205
-0.00256711
-0.000800833
-0.00253455
-0.000890562
-0.00250546
-0.000980424
-0.00247958
-0.00107036
-0.00245661
-0.00116027
-0.00243612
-0.00125015
-0.00241756
-0.00134034
-0.00240059
-0.00143143
-0.00238643
-0.00237389
-0.00152612
-4.52688e-06
-0.000708631
-2.95028e-05
-0.00163981
-7.73774e-05
-0.00219678
-0.00014449
-0.00248786
-0.000224993
-0.00261074
-0.000313464
-0.00263962
-0.000405978
-0.00262278
-0.000500172
-0.00258756
-0.000594858
-0.00254754
-0.00068958
-0.00250848
-0.000784283
-0.00247241
-0.000879115
-0.00243972
-0.000974327
-0.00241025
-0.00107021
-0.0023837
-0.00116704
-0.00235978
-0.00126501
-0.00233814
-0.00136426
-0.00231832
-0.00146533
-0.00229952
-0.00157048
-0.00228129
-0.002275
-0.00166936
-8.50622e-06
-0.000700125
-4.13277e-05
-0.00160699
-9.81114e-05
-0.00214
-0.000173696
-0.00241228
-0.000261697