/*--------------------------------*- C++ -*----------------------------------*\
  =========                 |
  \\      /  F ield         | OpenFOAM: The Open Source CFD Toolbox
   \\    /   O peration     | Website:  https://openfoam.org
    \\  /    A nd           | Version:  6.0
     \\/     M anipulation  |
\*---------------------------------------------------------------------------*/
FoamFile
{
    version     2.0;
    format      ascii;
    class       volScalarField;
    location    "6.6";
    object      p;
}
// * * * * * * * * * * * * * * * * * * * * * * * * * * * * * * * * * * * * * //

dimensions      [0 2 -2 0 0 0 0];

internalField   nonuniform List<scalar> 
8000
(
-0.328069
-0.330992
-0.332811
-0.334176
-0.335475
-0.336789
-0.338164
-0.339629
-0.341192
-0.342847
-0.344585
-0.346394
-0.34826
-0.350171
-0.352124
-0.354127
-0.356143
-0.357971
-0.359663
-0.363001
-0.328626
-0.331463
-0.333237
-0.334574
-0.335853
-0.337151
-0.338514
-0.339968
-0.341521
-0.343168
-0.344898
-0.346699
-0.348558
-0.350463
-0.352408
-0.354405
-0.356416
-0.35824
-0.359921
-0.36325
-0.329723
-0.332391
-0.334075
-0.33536
-0.336598
-0.337863
-0.339199
-0.340631
-0.342165
-0.343794
-0.345508
-0.347293
-0.349137
-0.351027
-0.352958
-0.35494
-0.356942
-0.358759
-0.360416
-0.363726
-0.331303
-0.33373
-0.335284
-0.336489
-0.337665
-0.33888
-0.340175
-0.341571
-0.343072
-0.344672
-0.346358
-0.348117
-0.349935
-0.3518
-0.353705
-0.355664
-0.357646
-0.35945
-0.36107
-0.364346
-0.333288
-0.335413
-0.336802
-0.337903
-0.338996
-0.340142
-0.341378
-0.342721
-0.344174
-0.345729
-0.347372
-0.34909
-0.350868
-0.352693
-0.354559
-0.356479
-0.35843
-0.360209
-0.361778
-0.365002
-0.335582
-0.337364
-0.338559
-0.339534
-0.340522
-0.341579
-0.342734
-0.344005
-0.34539
-0.34688
-0.348461
-0.350118
-0.351837
-0.353603
-0.355411
-0.357274
-0.359176
-0.360917
-0.36242
-0.365568
-0.338087
-0.3395
-0.340481
-0.341309
-0.342171
-0.343115
-0.344168
-0.345342
-0.346634
-0.348036
-0.349531
-0.351104
-0.352739
-0.354424
-0.356151
-0.357934
-0.359764
-0.36145
-0.362871
-0.36592
-0.340702
-0.341742
-0.342496
-0.34316
-0.343875
-0.344683
-0.345606
-0.346656
-0.347829
-0.349113
-0.350493
-0.351954
-0.353479
-0.355055
-0.356674
-0.358351
-0.360086
-0.361694
-0.363017
-0.365946
-0.343337
-0.344017
-0.344541
-0.345027
-0.345575
-0.346221
-0.346988
-0.347884
-0.348906
-0.350042
-0.351277
-0.352595
-0.353979
-0.355416
-0.356899
-0.358441
-0.360052
-0.361559
-0.362767
-0.36556
-0.345917
-0.346268
-0.346566
-0.346864
-0.347225
-0.347686
-0.348268
-0.348981
-0.34982
-0.350776
-0.351834
-0.352977
-0.354189
-0.355456
-0.356771
-0.358148
-0.359604
-0.360982
-0.362059
-0.364704
-0.348387
-0.348452
-0.348535
-0.348638
-0.348798
-0.349052
-0.349422
-0.349922
-0.350548
-0.351294
-0.352144
-0.353082
-0.354092
-0.35516
-0.356277
-0.357458
-0.358727
-0.359943
-0.360865
-0.363351
-0.350717
-0.350548
-0.350433
-0.350338
-0.350283
-0.35031
-0.350445
-0.350706
-0.351093
-0.351602
-0.352218
-0.352927
-0.353711
-0.354554
-0.355447
-0.356402
-0.357447
-0.35846
-0.359188
-0.361495
-0.352901
-0.352554
-0.35226
-0.351966
-0.351687
-0.351471
-0.351352
-0.351353
-0.351481
-0.351734
-0.3521
-0.352562
-0.353103
-0.353704
-0.35435
-0.355051
-0.355836
-0.356592
-0.357059
-0.359134
-0.354961
-0.35449
-0.354035
-0.353542
-0.353032
-0.352562
-0.352176
-0.351904
-0.35176
-0.351746
-0.351852
-0.352062
-0.352354
-0.352705
-0.353092
-0.353515
-0.353998
-0.354429
-0.354529
-0.356258
-0.356941
-0.356393
-0.355792
-0.355102
-0.354355
-0.353623
-0.352962
-0.352411
-0.351991
-0.351709
-0.351557
-0.351518
-0.351565
-0.351668
-0.351791
-0.351918
-0.352055
-0.352079
-0.35166
-0.352839
-0.358908
-0.358316
-0.357579
-0.35669
-0.355704
-0.354707
-0.353769
-0.352939
-0.352245
-0.351701
-0.3513
-0.351023
-0.350838
-0.350702
-0.350565
-0.350382
-0.350131
-0.349658
-0.34854
-0.348866
-0.360948
-0.360326
-0.359456
-0.358365
-0.357137
-0.355875
-0.354661
-0.353557
-0.352599
-0.351803
-0.351166
-0.350666
-0.350264
-0.349903
-0.349511
-0.34901
-0.348336
-0.347291
-0.345311
-0.34441
-0.363156
-0.362502
-0.361489
-0.36019
-0.358717
-0.357191
-0.355707
-0.354337
-0.353126
-0.352092
-0.351234
-0.350526
-0.349921
-0.349347
-0.348705
-0.347875
-0.346736
-0.345035
-0.34203
-0.339452
-0.365636
-0.364924
-0.363752
-0.362234
-0.360512
-0.358724
-0.356977
-0.355352
-0.353899
-0.352641
-0.351576
-0.350676
-0.349888
-0.349126
-0.348268
-0.347147
-0.345561
-0.343125
-0.338797
-0.333886
-0.368491
-0.367677
-0.366319
-0.364567
-0.36259
-0.36054
-0.358536
-0.356665
-0.354983
-0.353513
-0.352256
-0.351184
-0.350246
-0.349365
-0.348429
-0.347289
-0.345736
-0.343291
-0.338596
-0.332478
-0.371817
-0.370839
-0.369258
-0.367253
-0.365011
-0.362699
-0.360443
-0.358334
-0.35643
-0.354757
-0.353315
-0.352081
-0.351018
-0.350074
-0.349196
-0.348353
-0.347562
-0.346893
-0.346853
-0.352334
-0.375697
-0.374481
-0.372635
-0.370353
-0.367833
-0.365253
-0.362746
-0.360403
-0.35828
-0.356402
-0.35477
-0.353364
-0.352153
-0.351106
-0.350205
-0.349469
-0.348984
-0.348932
-0.349761
-0.35433
-0.380203
-0.378666
-0.376505
-0.373916
-0.371102
-0.368246
-0.365484
-0.362904
-0.360558
-0.358465
-0.356623
-0.35501
-0.353601
-0.35237
-0.351314
-0.35046
-0.349884
-0.34972
-0.350193
-0.352517
-0.38539
-0.383444
-0.380915
-0.377989
-0.374858
-0.371713
-0.368687
-0.36586
-0.363275
-0.360943
-0.358852
-0.356976
-0.355285
-0.353754
-0.352375
-0.351162
-0.350153
-0.349406
-0.349022
-0.349323
-0.391301
-0.388857
-0.385908
-0.38261
-0.379139
-0.375688
-0.372381
-0.369288
-0.366434
-0.363819
-0.361416
-0.359192
-0.35711
-0.355139
-0.353264
-0.351484
-0.349807
-0.348242
-0.346842
-0.345482
-0.397966
-0.394941
-0.391518
-0.387815
-0.383979
-0.3802
-0.376588
-0.373194
-0.370024
-0.367058
-0.364256
-0.361573
-0.358969
-0.356411
-0.353881
-0.351374
-0.348891
-0.346427
-0.344021
-0.341417
-0.40541
-0.401723
-0.397779
-0.393639
-0.389412
-0.385276
-0.381325
-0.377579
-0.374021
-0.370609
-0.367291
-0.364018
-0.360749
-0.35746
-0.354142
-0.350797
-0.347436
-0.344064
-0.340718
-0.337155
-0.413646
-0.409226
-0.404718
-0.400114
-0.395468
-0.390941
-0.386596
-0.382423
-0.378377
-0.374397
-0.370424
-0.366412
-0.362334
-0.358184
-0.353973
-0.349722
-0.345457
-0.341204
-0.336999
-0.332669
-0.422679
-0.417462
-0.412357
-0.407265
-0.402168
-0.3972
-0.392389
-0.387686
-0.383022
-0.378323
-0.373537
-0.368633
-0.363612
-0.358493
-0.353315
-0.348121
-0.342956
-0.337859
-0.332866
-0.327868
-0.4325
-0.426434
-0.420705
-0.415101
-0.409515
-0.40404
-0.398661
-0.393295
-0.387851
-0.382263
-0.376498
-0.370557
-0.364477
-0.35831
-0.352123
-0.345977
-0.339931
-0.334031
-0.328305
-0.322694
-0.44308
-0.436124
-0.429754
-0.423615
-0.417486
-0.411413
-0.405334
-0.399138
-0.392733
-0.386074
-0.379169
-0.372064
-0.364836
-0.357573
-0.350362
-0.343278
-0.336382
-0.32972
-0.323306
-0.317109
-0.454365
-0.446493
-0.439469
-0.432765
-0.426024
-0.419233
-0.412289
-0.40507
-0.397506
-0.389599
-0.38141
-0.373041
-0.36461
-0.356233
-0.348009
-0.340017
-0.332312
-0.324929
-0.317867
-0.311106
-0.466272
-0.457471
-0.449787
-0.442478
-0.435029
-0.427366
-0.419364
-0.410913
-0.401992
-0.392674
-0.383088
-0.373389
-0.363733
-0.354251
-0.345045
-0.336187
-0.327718
-0.319659
-0.311987
-0.304687
-0.478678
-0.468953
-0.460603
-0.452633
-0.444353
-0.435637
-0.42636
-0.416461
-0.406002
-0.395139
-0.384076
-0.373019
-0.362145
-0.351592
-0.341452
-0.331779
-0.322597
-0.313908
-0.305665
-0.297862
-0.491423
-0.480796
-0.471772
-0.463065
-0.453803
-0.443825
-0.433047
-0.421495
-0.40934
-0.396838
-0.384261
-0.37185
-0.359794
-0.348221
-0.337204
-0.326775
-0.316935
-0.307666
-0.298894
-0.29063
-0.504305
-0.492814
-0.483103
-0.473561
-0.463137
-0.451673
-0.439171
-0.425787
-0.41182
-0.397626
-0.383535
-0.369808
-0.356628
-0.3441
-0.332273
-0.32115
-0.31071
-0.300913
-0.291659
-0.282984
-0.517079
-0.504778
-0.49436
-0.483861
-0.472074
-0.458897
-0.444469
-0.42911
-0.413261
-0.397367
-0.3818
-0.366821
-0.352591
-0.339186
-0.32662
-0.31487
-0.303891
-0.293622
-0.283937
-0.274906
-0.529461
-0.516418
-0.505261
-0.493662
-0.480304
-0.465196
-0.448673
-0.431246
-0.413494
-0.395938
-0.378964
-0.362819
-0.347627
-0.333428
-0.320202
-0.307895
-0.296442
-0.285759
-0.275696
-0.26637
-0.541131
-0.527425
-0.515486
-0.502631
-0.487493
-0.470265
-0.451526
-0.431991
-0.412366
-0.393221
-0.374938
-0.357729
-0.341675
-0.326773
-0.312968
-0.300178
-0.288318
-0.277284
-0.2669
-0.257344
-0.551743
-0.537459
-0.524686
-0.510411
-0.493299
-0.473804
-0.452783
-0.431156
-0.409735
-0.389111
-0.369638
-0.351481
-0.334672
-0.319163
-0.304864
-0.291669
-0.279474
-0.268153
-0.257511
-0.247792
-0.560926
-0.546156
-0.532489
-0.516632
-0.497385
-0.475528
-0.45222
-0.428574
-0.405475
-0.383508
-0.362983
-0.344006
-0.326555
-0.31054
-0.295838
-0.28232
-0.269864
-0.258324
-0.247488
-0.237676
-0.568297
-0.553136
-0.538512
-0.520928
-0.499428
-0.475174
-0.449637
-0.424093
-0.39947
-0.376322
-0.354896
-0.335234
-0.317261
-0.300846
-0.285836
-0.27208
-0.259443
-0.247756
-0.236794
-0.22696
-0.573476
-0.558017
-0.542375
-0.522948
-0.499128
-0.47251
-0.444859
-0.417585
-0.391623
-0.367472
-0.345306
-0.325103
-0.306734
-0.29003
-0.27481
-0.260906
-0.24817
-0.236411
-0.225395
-0.215614
-0.576091
-0.560427
-0.543716
-0.522365
-0.496222
-0.467334
-0.437741
-0.408942
-0.381849
-0.356887
-0.334152
-0.313556
-0.294921
-0.278042
-0.262716
-0.248759
-0.23601
-0.224258
-0.213263
-0.203611
-0.575789
-0.560012
-0.542198
-0.518888
-0.490482
-0.459482
-0.428163
-0.398075
-0.370076
-0.344506
-0.32138
-0.300544
-0.281777
-0.264844
-0.249519
-0.235607
-0.222934
-0.211271
-0.200376
-0.19093
-0.572251
-0.55645
-0.53752
-0.512272
-0.481725
-0.448825
-0.416037
-0.384919
-0.356253
-0.330284
-0.306947
-0.286029
-0.267268
-0.250403
-0.235191
-0.221426
-0.208924
-0.197434
-0.186723
-0.177561
-0.565198
-0.549462
-0.529433
-0.502319
-0.469813
-0.435274
-0.401303
-0.36943
-0.340342
-0.314188
-0.290824
-0.269983
-0.25137
-0.234699
-0.219715
-0.206202
-0.193966
-0.182739
-0.172296
-0.163498
-0.5544
-0.538816
-0.517736
-0.488884
-0.454656
-0.418776
-0.383929
-0.351586
-0.322327
-0.296201
-0.272993
-0.252391
-0.234067
-0.21772
-0.203081
-0.189928
-0.178058
-0.167186
-0.1571
-0.148745
-0.539683
-0.52434
-0.50229
-0.471879
-0.436211
-0.399315
-0.363915
-0.331389
-0.302206
-0.276321
-0.253453
-0.23325
-0.215359
-0.199465
-0.185291
-0.172609
-0.161206
-0.150786
-0.141149
-0.133315
-0.520932
-0.505921
-0.483015
-0.451271
-0.414479
-0.376914
-0.341286
-0.308864
-0.280002
-0.254565
-0.232216
-0.21257
-0.195256
-0.179945
-0.166356
-0.154257
-0.143428
-0.133559
-0.124468
-0.117235
-0.498097
-0.483511
-0.459897
-0.427083
-0.38951
-0.351631
-0.316098
-0.28406
-0.255753
-0.230964
-0.209309
-0.190374
-0.173775
-0.159177
-0.146294
-0.134893
-0.124745
-0.115533
-0.107092
-0.100549
-0.471193
-0.457127
-0.43298
-0.399391
-0.361396
-0.323557
-0.288436
-0.257048
-0.229521
-0.20557
-0.184773
-0.166696
-0.150947
-0.137187
-0.125129
-0.114538
-0.105182
-0.0967372
-0.0890593
-0.0833015
-0.440299
-0.426852
-0.402371
-0.368323
-0.33027
-0.292819
-0.258412
-0.227926
-0.201387
-0.178451
-0.158664
-0.141583
-0.12681
-0.114005
-0.102885
-0.0932156
-0.084761
-0.077199
-0.0704038
-0.0655166
-0.405559
-0.39283
-0.368233
-0.334055
-0.296305
-0.259578
-0.226168
-0.196815
-0.171454
-0.149692
-0.131054
-0.115091
-0.101406
-0.0896662
-0.0795901
-0.0709468
-0.0635028
-0.0569438
-0.0511486
-0.0471815
-0.367177
-0.355265
-0.330783
-0.296808
-0.259713
-0.224024
-0.191871
-0.163861
-0.139848
-0.1194
-0.10203
-0.087288
-0.0747876
-0.0642025
-0.0552625
-0.0477432
-0.041419
-0.0359865
-0.0313026
-0.0282945
-0.325412
-0.314417
-0.290286
-0.256843
-0.220739
-0.186379
-0.155719
-0.129239
-0.106721
-0.0877047
-0.071698
-0.0582593
-0.0470144
-0.0376527
-0.0299202
-0.0236059
-0.0184975
-0.0143093
-0.0108747
-0.00899673
-0.280576
-0.270592
-0.247051
-0.214459
-0.17966
-0.146894
-0.117937
-0.093148
-0.0722488
-0.0547581
-0.040187
-0.028107
-0.018163
-0.0100681
-0.00359255
0.00145761
0.00527714
0.00809311
0.0100042
0.0102851
-0.233024
-0.224144
-0.201425
-0.169987
-0.136781
-0.105849
-0.0787775
-0.0558159
-0.0366341
-0.0207372
-0.00764357
0.00305746
0.011695
0.0185208
0.023729
0.0274917
0.0299604
0.0311766
0.0309998
0.0290937
-0.183149
-0.175457
-0.153784
-0.123784
-0.0924341
-0.0635452
-0.0385194
-0.0175004
-0.000113841
0.0141456
0.0257529
0.0351033
0.0425008
0.0481607
0.0522387
0.0548749
0.0560997
0.0555391
0.0526898
0.0485708
-0.131376
-0.124949
-0.104532
-0.0762293
-0.0469687
-0.0203086
0.00253336
0.0215096
0.0370337
0.0496205
0.0597443
0.0677965
0.0740772
0.0787999
0.0821333
0.0842353
0.0850028
0.0835476
0.0791417
0.0746951
-0.0781528
-0.073057
-0.0540884
-0.027715
-0.000748627
0.023523
0.0440611
0.0609047
0.0744992
0.085366
0.0939788
0.100732
0.105939
0.109854
0.11273
0.114856
0.116196
0.115723
0.113176
0.117149
-0.0239357
-0.0202295
-0.00288218
0.0213589
0.045857
0.0676065
0.08574
0.100372
0.111973
0.121062
0.128106
0.133492
0.137531
0.140488
0.142634
0.14424
0.145289
0.145285
0.145168
0.151343
0.0308035
0.0330741
0.0486517
0.0705899
0.0924786
0.1116
0.12725
0.139608
0.14916
0.156421
0.161844
0.165806
0.168613
0.170526
0.171803
0.172672
0.173108
0.172806
0.172714
0.177723
0.0855923
0.0863947
0.10008
0.11958
0.138753
0.155171
0.168281
0.17832
0.18578
0.191165
0.194913
0.197381
0.198862
0.199604
0.199844
0.199785
0.199418
0.198509
0.197837
0.201279
0.139962
0.139277
0.150977
0.167939
0.184325
0.197996
0.208538
0.216235
0.221581
0.225064
0.227101
0.228029
0.228121
0.227604
0.22669
0.22555
0.224164
0.222327
0.220754
0.222742
0.193453
0.191276
0.200926
0.215289
0.228854
0.239765
0.247739
0.253095
0.256327
0.257902
0.258214
0.25758
0.256248
0.254427
0.252303
0.250021
0.247544
0.244692
0.242141
0.242739
0.245617
0.241959
0.249526
0.261265
0.272013
0.280186
0.285618
0.288663
0.289804
0.289488
0.288087
0.285891
0.28313
0.27999
0.276636
0.273187
0.269597
0.265713
0.262183
0.261468
0.296023
0.29091
0.296391
0.305521
0.31349
0.318977
0.321926
0.322712
0.32181
0.319645
0.316564
0.312834
0.308666
0.304225
0.299655
0.295056
0.290375
0.285488
0.281005
0.279044
0.344259
0.337732
0.341155
0.347725
0.352989
0.355876
0.356424
0.355031
0.352157
0.348206
0.3435
0.338287
0.332755
0.327053
0.321306
0.315595
0.309869
0.304027
0.298633
0.295492
0.389937
0.38205
0.383473
0.387567
0.390234
0.390632
0.388891
0.38542
0.380667
0.375013
0.368759
0.362129
0.355297
0.348392
0.341524
0.334759
0.328048
0.321311
0.315055
0.310802
0.432689
0.423514
0.423022
0.424758
0.424964
0.423015
0.419118
0.413692
0.407171
0.399916
0.392205
0.384245
0.37619
0.368156
0.360237
0.352487
0.34486
0.337293
0.330231
0.324936
0.472177
0.461798
0.459503
0.459028
0.456939
0.452808
0.44691
0.439672
0.431513
0.422774
0.413713
0.40452
0.395333
0.386255
0.377365
0.368708
0.360242
0.351916
0.344108
0.337848
0.50809
0.496605
0.492643
0.490133
0.485939
0.479813
0.472088
0.463197
0.453545
0.443454
0.433164
0.422848
0.412631
0.402602
0.392831
0.383351
0.374127
0.365117
0.356629
0.349487
0.540148
0.527666
0.522195
0.517848
0.511764
0.503851
0.494491
0.484122
0.473134
0.461834
0.450445
0.439126
0.427989
0.417114
0.406556
0.396344
0.386447
0.376831
0.367734
0.3598
0.568099
0.554742
0.54794
0.541979
0.534237
0.52476
0.513972
0.502312
0.490159
0.477804
0.465456
0.453262
0.441324
0.42971
0.418468
0.407619
0.39714
0.386998
0.377367
0.368738
0.591728
0.577626
0.569688
0.562353
0.553205
0.542403
0.530405
0.517652
0.504514
0.491266
0.478108
0.465175
0.452559
0.440321
0.428501
0.417116
0.406146
0.395561
0.385477
0.376258
0.610853
0.596145
0.587281
0.578828
0.568537
0.55666
0.543683
0.530045
0.516108
0.502138
0.488323
0.474792
0.461628
0.448886
0.436599
0.424781
0.413415
0.402472
0.39202
0.382321
0.625325
0.610157
0.600588
0.591285
0.580128
0.567436
0.553717
0.53941
0.524868
0.510352
0.496041
0.482056
0.468478
0.455355
0.442714
0.430568
0.418903
0.40769
0.39696
0.386895
0.635034
0.619556
0.609512
0.599638
0.587898
0.57466
0.560443
0.545686
0.530739
0.515856
0.501211
0.486923
0.473067
0.459688
0.446811
0.434445
0.42258
0.411186
0.400267
0.389957
0.639905
0.624271
0.613988
0.603827
0.591795
0.578282
0.563815
0.548833
0.533682
0.518615
0.503804
0.489363
0.475368
0.46186
0.448864
0.436388
0.424423
0.412938
0.401925
0.391491
0.639901
0.624266
0.613984
0.603823
0.591791
0.578279
0.563812
0.54883
0.533679
0.518612
0.503801
0.489361
0.475365
0.461858
0.448862
0.436386
0.424421
0.412936
0.401923
0.391489
0.635021
0.619542
0.6095
0.599626
0.587887
0.57465
0.560433
0.545677
0.53073
0.515847
0.501203
0.486916
0.47306
0.459681
0.446804
0.434438
0.422574
0.41118
0.400261
0.389951
0.625303
0.610135
0.600567
0.591265
0.58011
0.567419
0.553701
0.539394
0.524854
0.510338
0.496027
0.482044
0.468466
0.455343
0.442703
0.430557
0.418893
0.40768
0.39695
0.386885
0.610822
0.596114
0.587252
0.5788
0.568511
0.556636
0.54366
0.530024
0.516088
0.502119
0.488305
0.474774
0.461611
0.44887
0.436584
0.424765
0.4134
0.402458
0.392007
0.382307
0.591689
0.577587
0.569651
0.562318
0.553172
0.542372
0.530376
0.517625
0.504488
0.491242
0.478084
0.465152
0.452537
0.440301
0.428481
0.417097
0.406127
0.395543
0.38546
0.376241
0.56805
0.554694
0.547894
0.541936
0.534197
0.524723
0.513937
0.502278
0.490127
0.477774
0.465427
0.453235
0.441298
0.429685
0.418444
0.407596
0.397117
0.386976
0.377345
0.368718
0.54009
0.52761
0.522141
0.517798
0.511717
0.503806
0.494449
0.484082
0.473097
0.461799
0.450411
0.439093
0.427958
0.417084
0.406527
0.396316
0.38642
0.376805
0.367708
0.359775
0.508024
0.496541
0.492581
0.490075
0.485884
0.479762
0.47204
0.463152
0.453502
0.443413
0.433124
0.42281
0.412595
0.402568
0.392798
0.383319
0.374096
0.365087
0.356599
0.349459
0.472103
0.461725
0.459433
0.458963
0.456877
0.452751
0.446856
0.439621
0.431464
0.422728
0.413669
0.404478
0.395293
0.386216
0.377328
0.368672
0.360207
0.351882
0.344075
0.337817
0.432606
0.423433
0.422945
0.424685
0.424895
0.422951
0.419057
0.413635
0.407117
0.399865
0.392156
0.384198
0.376144
0.368112
0.360195
0.352446
0.344821
0.337255
0.330194
0.324901
0.389846
0.381961
0.383388
0.387487
0.390158
0.390562
0.388825
0.385357
0.380607
0.374957
0.368704
0.362078
0.355247
0.348344
0.341478
0.334715
0.328005
0.321269
0.315015
0.310763
0.34416
0.337635
0.341063
0.347637
0.352907
0.355798
0.356352
0.354963
0.352092
0.348144
0.343441
0.33823
0.332701
0.327
0.321256
0.315547
0.309822
0.303982
0.298589
0.29545
0.295916
0.290805
0.296291
0.305426
0.313401
0.318894
0.321847
0.322638
0.321739
0.319578
0.3165
0.312773
0.308607
0.304168
0.299601
0.295003
0.290324
0.285438
0.280957
0.278998
0.245502
0.241847
0.249418
0.261164
0.271918
0.280096
0.285534
0.288583
0.289728
0.289416
0.288018
0.285825
0.283067
0.279929
0.276577
0.27313
0.269542
0.26566
0.262131
0.261419
0.19333
0.191156
0.200812
0.215181
0.228752
0.23967
0.247648
0.25301
0.256246
0.257825
0.258141
0.257509
0.25618
0.254362
0.252241
0.249961
0.247486
0.244636
0.242087
0.242686
0.139832
0.13915
0.150855
0.167824
0.184217
0.197894
0.208442
0.216144
0.221494
0.224982
0.227022
0.227954
0.228049
0.227535
0.226623
0.225486
0.224102
0.222267
0.220695
0.222686
0.0854557
0.0862606
0.0999516
0.119458
0.138638
0.155063
0.16818
0.178224
0.185689
0.191078
0.19483
0.197302
0.198786
0.199531
0.199774
0.199717
0.199352
0.198445
0.197775
0.201219
0.0306601
0.0329332
0.0485164
0.0704619
0.0923581
0.111487
0.127143
0.139507
0.149064
0.156329
0.161756
0.165722
0.168532
0.170448
0.171728
0.172599
0.173038
0.172738
0.172648
0.17766
-0.0240857
-0.0203769
-0.00302388
0.0212247
0.0457305
0.0674874
0.0856275
0.100266
0.111872
0.120966
0.128014
0.133403
0.137446
0.140406
0.142555
0.144164
0.145215
0.145214
0.145098
0.151277
-0.0783091
-0.0732106
-0.0542363
-0.0278552
-0.000880768
0.0233984
0.0439435
0.0607932
0.0743932
0.0852649
0.0938821
0.100639
0.10585
0.109767
0.112647
0.114775
0.116119
0.115647
0.113103
0.117078
-0.131538
-0.125108
-0.104686
-0.0763752
-0.0471064
-0.0204385
0.00241067
0.0213933
0.036923
0.0495149
0.0596432
0.0676994
0.0739838
0.0787097
0.0820461
0.0841507
0.0849206
0.0834675
0.0790629
0.0746172
-0.183317
-0.175622
-0.153943
-0.123936
-0.092577
-0.06368
-0.0386469
-0.0176214
-0.000228965
0.0140356
0.0256476
0.0350022
0.0424033
0.0480666
0.0521475
0.0547863
0.0560135
0.0554548
0.0526069
0.0484887
-0.233197
-0.224314
-0.201589
-0.170144
-0.136929
-0.105988
-0.0789096
-0.0559413
-0.0367535
-0.0208513
-0.0077529
0.00295238
0.0115937
0.0184229
0.0236342
0.0273996
0.0298706
0.031089
0.0309139
0.0290088
-0.280754
-0.270768
-0.247221
-0.214621
-0.179813
-0.147039
-0.118074
-0.0932777
-0.0723723
-0.0548761
-0.0403002
-0.0282158
-0.0182678
-0.0101694
-0.00369074
0.00136225
0.00518432
0.00800258
0.00991564
0.010198
-0.325595
-0.314597
-0.290461
-0.257009
-0.220896
-0.186528
-0.15586
-0.129373
-0.106849
-0.0878265
-0.0718147
-0.0583716
-0.0471226
-0.0377573
-0.0300215
-0.0237042
-0.0185932
-0.0144025
-0.0109657
-0.00908607
-0.367364
-0.355449
-0.330962
-0.296978
-0.259875
-0.224177
-0.192015
-0.163999
-0.139979
-0.119525
-0.10215
-0.0874034
-0.0748989
-0.0643101
-0.0553667
-0.0478443
-0.0415173
-0.0360822
-0.0313961
-0.0283861
-0.40575
-0.393018
-0.368416
-0.33423
-0.296471
-0.259735
-0.226316
-0.196956
-0.171588
-0.14982
-0.131177
-0.115209
-0.101521
-0.0897765
-0.079697
-0.0710504
-0.0636036
-0.0570419
-0.0512442
-0.0472751
-0.440493
-0.427043
-0.402557
-0.368502
-0.330439
-0.29298
-0.258564
-0.22807
-0.201524
-0.178582
-0.15879
-0.141704
-0.126927
-0.114118
-0.102995
-0.0933217
-0.084864
-0.0772992
-0.0705015
-0.0656122
-0.47139
-0.457322
-0.43317
-0.399573
-0.361568
-0.32372
-0.288591
-0.257195
-0.229661
-0.205704
-0.184902
-0.16682
-0.151067
-0.137302
-0.12524
-0.114646
-0.105287
-0.0968395
-0.0891589
-0.0833989
-0.498296
-0.483708
-0.460089
-0.427267
-0.389686
-0.351797
-0.316256
-0.28421
-0.255896
-0.231101
-0.20944
-0.1905
-0.173897
-0.159295
-0.146408
-0.135003
-0.124853
-0.115637
-0.107193
-0.100648
-0.521133
-0.50612
-0.48321
-0.451458
-0.414657
-0.377083
-0.341446
-0.309017
-0.280147
-0.254704
-0.23235
-0.212698
-0.195379
-0.180065
-0.166472
-0.15437
-0.143537
-0.133665
-0.124571
-0.117336
-0.539886
-0.524541
-0.502486
-0.472068
-0.436391
-0.399486
-0.364077
-0.331544
-0.302354
-0.276463
-0.253589
-0.23338
-0.215485
-0.199587
-0.185409
-0.172723
-0.161317
-0.150893
-0.141254
-0.133417
-0.554604
-0.539018
-0.517933
-0.489074
-0.454838
-0.418949
-0.384094
-0.351743
-0.322476
-0.296344
-0.273131
-0.252523
-0.234195
-0.217843
-0.2032
-0.190044
-0.17817
-0.167295
-0.157206
-0.148849
-0.565402
-0.549664
-0.529631
-0.50251
-0.469997
-0.435449
-0.401469
-0.369588
-0.340494
-0.314333
-0.290963
-0.270117
-0.251499
-0.234824
-0.219836
-0.206319
-0.194079
-0.18285
-0.172404
-0.163603
-0.572455
-0.556653
-0.537719
-0.512464
-0.481909
-0.449001
-0.416205
-0.385079
-0.356406
-0.330431
-0.307088
-0.286165
-0.267399
-0.250529
-0.235314
-0.221545
-0.209039
-0.197546
-0.186831
-0.177667
-0.575992
-0.560214
-0.542396
-0.519081
-0.490667
-0.459659
-0.428332
-0.398236
-0.37023
-0.344654
-0.321522
-0.300681
-0.281909
-0.264971
-0.249643
-0.235727
-0.223051
-0.211384
-0.200487
-0.191038
-0.576293
-0.560628
-0.543914
-0.522557
-0.496407
-0.467511
-0.43791
-0.409104
-0.382004
-0.357036
-0.334296
-0.313694
-0.295054
-0.278171
-0.262841
-0.24888
-0.236127
-0.224372
-0.213374
-0.203719
-0.573678
-0.558217
-0.542572
-0.523139
-0.499313
-0.472687
-0.44503
-0.417748
-0.391779
-0.367622
-0.345451
-0.325242
-0.306868
-0.29016
-0.274936
-0.261028
-0.248288
-0.236527
-0.225507
-0.215724
-0.568496
-0.553333
-0.538706
-0.521119
-0.499612
-0.475352
-0.449807
-0.424256
-0.399627
-0.376473
-0.355041
-0.335374
-0.317397
-0.300977
-0.285963
-0.272203
-0.259562
-0.247873
-0.236908
-0.227071
-0.561122
-0.546351
-0.532682
-0.516821
-0.497569
-0.475705
-0.45239
-0.428737
-0.405632
-0.383659
-0.363129
-0.344146
-0.326691
-0.310671
-0.295966
-0.282444
-0.269985
-0.258442
-0.247603
-0.237787
-0.551936
-0.537651
-0.524876
-0.510597
-0.493481
-0.47398
-0.452953
-0.431319
-0.409892
-0.389262
-0.369784
-0.351623
-0.334809
-0.319296
-0.304993
-0.291794
-0.279596
-0.268271
-0.257626
-0.247904
-0.541322
-0.527613
-0.515673
-0.502815
-0.487672
-0.47044
-0.451695
-0.432153
-0.412523
-0.393373
-0.375085
-0.357871
-0.341812
-0.326906
-0.313097
-0.300304
-0.28844
-0.277403
-0.267017
-0.257457
-0.529647
-0.516603
-0.505444
-0.493843
-0.480481
-0.465369
-0.448841
-0.431408
-0.413651
-0.396089
-0.37911
-0.36296
-0.347765
-0.333562
-0.320332
-0.308021
-0.296565
-0.285879
-0.275813
-0.266484
-0.517262
-0.504959
-0.494539
-0.484038
-0.472249
-0.459067
-0.444635
-0.429271
-0.413417
-0.397518
-0.381946
-0.366963
-0.352729
-0.33932
-0.326751
-0.314997
-0.304015
-0.293743
-0.284055
-0.275021
-0.504484
-0.492991
-0.483279
-0.473735
-0.463308
-0.451841
-0.439335
-0.425946
-0.411975
-0.397776
-0.383681
-0.36995
-0.356766
-0.344235
-0.332404
-0.321278
-0.310835
-0.301035
-0.291778
-0.2831
-0.491598
-0.480969
-0.471944
-0.463235
-0.45397
-0.44399
-0.433209
-0.421653
-0.409494
-0.396988
-0.384407
-0.371992
-0.359933
-0.348356
-0.337336
-0.326903
-0.317061
-0.307789
-0.299014
-0.290747
-0.478849
-0.469122
-0.46077
-0.452799
-0.444517
-0.435799
-0.426519
-0.416617
-0.406154
-0.395288
-0.384222
-0.373161
-0.362284
-0.351727
-0.341584
-0.331908
-0.322724
-0.314032
-0.305786
-0.297981
-0.466438
-0.457636
-0.44995
-0.44264
-0.435189
-0.427525
-0.41952
-0.411066
-0.402143
-0.392822
-0.383232
-0.373531
-0.363871
-0.354386
-0.345178
-0.336318
-0.327846
-0.319785
-0.31211
-0.304808
-0.454528
-0.446654
-0.439628
-0.432923
-0.426181
-0.419387
-0.412442
-0.405221
-0.397655
-0.389745
-0.381554
-0.373182
-0.364749
-0.356369
-0.348143
-0.340148
-0.332441
-0.325056
-0.317991
-0.311227
-0.443238
-0.436281
-0.429909
-0.423769
-0.417639
-0.411564
-0.405484
-0.399286
-0.392879
-0.386219
-0.379311
-0.372204
-0.364974
-0.35771
-0.350496
-0.343411
-0.336513
-0.329849
-0.323432
-0.317233
-0.432654
-0.426587
-0.420856
-0.415251
-0.409663
-0.404187
-0.398807
-0.393439
-0.387995
-0.382406
-0.376639
-0.370697
-0.364615
-0.358447
-0.352258
-0.346111
-0.340063
-0.334161
-0.328433
-0.32282
-0.422829
-0.417612
-0.412505
-0.407411
-0.402313
-0.397344
-0.392531
-0.387828
-0.383162
-0.378463
-0.373676
-0.368772
-0.36375
-0.358631
-0.353451
-0.348256
-0.343089
-0.337992
-0.332996
-0.327997
-0.413793
-0.409372
-0.404862
-0.400257
-0.395609
-0.391081
-0.386735
-0.382561
-0.378515
-0.374534
-0.370561
-0.366549
-0.362471
-0.358322
-0.35411
-0.349858
-0.345593
-0.341339
-0.337133
-0.3328
-0.405554
-0.401866
-0.39792
-0.393779
-0.38955
-0.385413
-0.38146
-0.377713
-0.374155
-0.370743
-0.367426
-0.364154
-0.360885
-0.357597
-0.35428
-0.350936
-0.347575
-0.344203
-0.340855
-0.33729
-0.398107
-0.395081
-0.391657
-0.387952
-0.384114
-0.380333
-0.37672
-0.373325
-0.370156
-0.367189
-0.364388
-0.361707
-0.359105
-0.356549
-0.354021
-0.351516
-0.349033
-0.346569
-0.344162
-0.341557
-0.39144
-0.388995
-0.386044
-0.382744
-0.379271
-0.375818
-0.37251
-0.369416
-0.366562
-0.363947
-0.361547
-0.359325
-0.357245
-0.355278
-0.353406
-0.351627
-0.349953
-0.348389
-0.346988
-0.345627
-0.385528
-0.38358
-0.38105
-0.378122
-0.374988
-0.371842
-0.368813
-0.365986
-0.3634
-0.361069
-0.35898
-0.357107
-0.35542
-0.353893
-0.352519
-0.351309
-0.350304
-0.349558
-0.349175
-0.349475
-0.38034
-0.378801
-0.376639
-0.374048
-0.37123
-0.368372
-0.365608
-0.363027
-0.36068
-0.358589
-0.356749
-0.35514
-0.353735
-0.35251
-0.35146
-0.350611
-0.35004
-0.34988
-0.350355
-0.352677
-0.375834
-0.374617
-0.372769
-0.370483
-0.367961
-0.365378
-0.362869
-0.360524
-0.358401
-0.356525
-0.354895
-0.353493
-0.352288
-0.351247
-0.350354
-0.349625
-0.349147
-0.3491
-0.349933
-0.354501
-0.371954
-0.370975
-0.369392
-0.367384
-0.365139
-0.362823
-0.360565
-0.358455
-0.356551
-0.354879
-0.35344
-0.352211
-0.351154
-0.350217
-0.349348
-0.348514
-0.347732
-0.347072
-0.34704
-0.352521
-0.368631
-0.367814
-0.366454
-0.364698
-0.362718
-0.360665
-0.358658
-0.356786
-0.355104
-0.353636
-0.352382
-0.351315
-0.350384
-0.349511
-0.348586
-0.347457
-0.345916
-0.343484
-0.338804
-0.3327
-0.365779
-0.365064
-0.363889
-0.362367
-0.360642
-0.35885
-0.357101
-0.355474
-0.354021
-0.352765
-0.351704
-0.35081
-0.350029
-0.349276
-0.348429
-0.347321
-0.345748
-0.343328
-0.339016
-0.334122
-0.363302
-0.362643
-0.361627
-0.360324
-0.358848
-0.357318
-0.355833
-0.354462
-0.353251
-0.35222
-0.351365
-0.350663
-0.350066
-0.349502
-0.348871
-0.348054
-0.34693
-0.345245
-0.342258
-0.339697
-0.361097
-0.36047
-0.359596
-0.358501
-0.35727
-0.356005
-0.354789
-0.353684
-0.352727
-0.351934
-0.351302
-0.350808
-0.350414
-0.350064
-0.349684
-0.349197
-0.348538
-0.34751
-0.345549
-0.344663
-0.35906
-0.358462
-0.357721
-0.356828
-0.355839
-0.35484
-0.3539
-0.353069
-0.352378
-0.351836
-0.35144
-0.35117
-0.350994
-0.350869
-0.350745
-0.350576
-0.350341
-0.349885
-0.348786
-0.349127
-0.357096
-0.356541
-0.355936
-0.355241
-0.354492
-0.353758
-0.353095
-0.352545
-0.352127
-0.351849
-0.351702
-0.35167
-0.351727
-0.351841
-0.351977
-0.352119
-0.352271
-0.352313
-0.351913
-0.353107
-0.355118
-0.35464
-0.35418
-0.353683
-0.35317
-0.352698
-0.352311
-0.35204
-0.351899
-0.35189
-0.352002
-0.35222
-0.352522
-0.352884
-0.353284
-0.353722
-0.354221
-0.354669
-0.354788
-0.356533
-0.353059
-0.352705
-0.352405
-0.352107
-0.351826
-0.351608
-0.351489
-0.351492
-0.351623
-0.351881
-0.352253
-0.352724
-0.353275
-0.353888
-0.354548
-0.355264
-0.356064
-0.356837
-0.357323
-0.359412
-0.350875
-0.350697
-0.350577
-0.350478
-0.350421
-0.350447
-0.350583
-0.350845
-0.351236
-0.35175
-0.352374
-0.353092
-0.353886
-0.354741
-0.355647
-0.356617
-0.357678
-0.358707
-0.359453
-0.361775
-0.348543
-0.348599
-0.348676
-0.348776
-0.348934
-0.349187
-0.349559
-0.350061
-0.350691
-0.351443
-0.3523
-0.353247
-0.354268
-0.355348
-0.356479
-0.357674
-0.358958
-0.36019
-0.36113
-0.363629
-0.34607
-0.346411
-0.346703
-0.346998
-0.347358
-0.347819
-0.348402
-0.349117
-0.349961
-0.350923
-0.351989
-0.353141
-0.354363
-0.355642
-0.35697
-0.358361
-0.359832
-0.361226
-0.36232
-0.364977
-0.343484
-0.344154
-0.344673
-0.345156
-0.345702