/*--------------------------------*- C++ -*----------------------------------*\
  =========                 |
  \\      /  F ield         | OpenFOAM: The Open Source CFD Toolbox
   \\    /   O peration     | Website:  https://openfoam.org
    \\  /    A nd           | Version:  6.0
     \\/     M anipulation  |
\*---------------------------------------------------------------------------*/
FoamFile
{
    version     2.0;
    format      ascii;
    class       volVectorField;
    location    "25";
    object      U;
}
// * * * * * * * * * * * * * * * * * * * * * * * * * * * * * * * * * * * * * //

dimensions      [0 1 -1 0 0 0 0];

internalField   nonuniform List<vector> 
12500
(
(-0.000268264 0.000371373 -5.6269e-22)
(-0.00156717 0.000946502 7.76217e-21)
(-0.00407774 0.00137377 -1.12412e-20)
(-0.00728842 0.00168131 5.15414e-21)
(-0.0109195 0.00189178 3.08547e-22)
(-0.0147964 0.00202441 -6.33674e-22)
(-0.01878 0.00209607 -9.34302e-21)
(-0.022767 0.00212134 5.12297e-21)
(-0.0266861 0.00211274 3.38271e-21)
(-0.0304907 0.002081 3.43084e-21)
(-0.0341539 0.00203526 -5.79886e-21)
(-0.0376645 0.00198328 3.36869e-21)
(-0.0410238 0.00193164 -1.58413e-21)
(-0.0442424 0.00188582 2.68242e-21)
(-0.0473379 0.00185036 -6.83237e-21)
(-0.0503335 0.0018289 9.85905e-21)
(-0.0532556 0.00182426 -1.87705e-21)
(-0.0561329 0.00183849 -6.95382e-21)
(-0.0589943 0.00187288 3.55706e-21)
(-0.061869 0.00192805 -3.39012e-21)
(-0.0647902 0.00200389 3.02972e-21)
(-0.0677907 0.00209963 3.99867e-21)
(-0.070848 0.00221477 4.05401e-22)
(-0.0738668 0.00234958 -1.14162e-20)
(-0.077224 0.00249719 6.02332e-21)
(-0.000310517 0.00101741 1.02737e-20)
(-0.001676 0.00262129 -2.65032e-20)
(-0.00423631 0.00383532 7.80462e-21)
(-0.00748206 0.00473 5.20816e-21)
(-0.0111352 0.00536223 -4.14645e-21)
(-0.0150226 0.0057808 -2.35266e-20)
(-0.0190065 0.00602936 6.98548e-21)
(-0.0229847 0.00614639 -1.31728e-20)
(-0.0268866 0.00616548 1.57382e-20)
(-0.0306664 0.00611589 -2.09807e-20)
(-0.0342979 0.00602303 1.11849e-20)
(-0.0377704 0.0059089 3.60975e-21)
(-0.0410855 0.00579241 -9.07993e-21)
(-0.0442541 0.00568969 -4.00584e-21)
(-0.0472945 0.00561432 2.92818e-20)
(-0.05023 0.00557744 -2.58693e-20)
(-0.0530876 0.00558791 6.17928e-21)
(-0.0558966 0.00565241 1.0673e-20)
(-0.0586865 0.0057755 -2.43305e-21)
(-0.0614872 0.00595974 1.71493e-20)
(-0.0643325 0.00620553 3.11679e-21)
(-0.0672562 0.0065114 -1.11566e-21)
(-0.0702365 0.00687662 -2.15634e-20)
(-0.0731772 0.00730289 1.98197e-20)
(-0.0764566 0.0077703 -3.77963e-20)
(-0.000393384 0.0016596 3.29502e-20)
(-0.00188979 0.00428547 1.09421e-20)
(-0.00454806 0.00628007 -1.4328e-20)
(-0.0078629 0.00775606 6.14671e-21)
(-0.0115595 0.00880442 5.74698e-21)
(-0.0154675 0.00950339 2.17833e-20)
(-0.0194517 0.00992328 -2.76331e-20)
(-0.0234119 0.0101263 -4.48719e-21)
(-0.0272794 0.0101669 -1.84525e-20)
(-0.0310097 0.0100928 -1.53844e-20)
(-0.0345779 0.00994564 1.98375e-20)
(-0.0379741 0.00976159 -6.63076e-20)
(-0.0412008 0.00957192 -2.06835e-21)
(-0.0442696 0.00940352 -3.96814e-20)
(-0.0471996 0.00927913 -4.66431e-21)
(-0.0500148 0.00921763 5.62026e-21)
(-0.0527434 0.00923418 -3.06756e-20)
(-0.0554155 0.00934037 -1.91648e-20)
(-0.058062 0.00954434 -2.26602e-20)
(-0.0607139 0.00985088 3.54596e-20)
(-0.0634068 0.0102612 1.29453e-20)
(-0.0661761 0.0107732 -5.74818e-20)
(-0.0690012 0.0113863 -2.76504e-20)
(-0.0717847 0.0121037 -3.08776e-20)
(-0.0749075 0.0128923 8.32649e-20)
(-0.000516636 0.00229552 -1.0294e-21)
(-0.00220795 0.00593214 -2.53049e-20)
(-0.0050121 0.00869699 -1.21316e-20)
(-0.00842978 0.0107446 7.51811e-21)
(-0.012191 0.0121997 4.6756e-20)
(-0.0161296 0.01317 -2.10647e-20)
(-0.020114 0.013752 4.48597e-20)
(-0.0240473 0.0140315 4.26705e-20)
(-0.0278635 0.0140835 2.59421e-20)
(-0.0315202 0.0139741 -3.9004e-22)
(-0.0349942 0.0137609 5.21632e-20)
(-0.0382769 0.0134942 9.01831e-21)
(-0.041372 0.0132176 3.96995e-20)
(-0.0442923 0.0129689 9.11403e-20)
(-0.0470578 0.0127803 -1.05599e-19)
(-0.0496938 0.0126787 1.58577e-19)
(-0.0522297 0.0126861 3.44503e-20)
(-0.0546972 0.0128194 -7.59259e-20)
(-0.0571291 0.0130908 -1.07587e-20)
(-0.0595584 0.013508 2.75402e-20)
(-0.062023 0.0140733 -1.37878e-20)
(-0.0645609 0.0147845 -8.24067e-21)
(-0.0671536 0.0156412 -8.02519e-21)
(-0.0697022 0.0166489 -3.2296e-20)
(-0.0725912 0.017761 1.13185e-19)
(-0.000679942 0.00292289 1.71629e-20)
(-0.00262954 0.00755477 -7.9694e-20)
(-0.00562699 0.0110755 9.65828e-20)
(-0.00918078 0.0136812 -3.84149e-20)
(-0.0130274 0.0155304 4.59478e-20)
(-0.0170062 0.0167594 3.74547e-20)
(-0.0209908 0.0174911 1.42058e-20)
(-0.0248886 0.0178342 6.94437e-22)
(-0.028637 0.0178841 7.98025e-20)
(-0.0321967 0.0177248 5.51755e-20)
(-0.0355464 0.0174295 -2.20983e-20)
(-0.0386797 0.0170626 -1.42123e-20)
(-0.0416016 0.0166802 5.98976e-20)
(-0.0443261 0.016331 1.12697e-20)
(-0.0468746 0.016057 3.05429e-20)
(-0.0492739 0.0158935 7.3061e-20)
(-0.051555 0.01587 -6.3049e-20)
(-0.0537517 0.0160094 5.08469e-20)
(-0.0558991 0.0163289 -1.09496e-19)
(-0.0580331 0.0168395 9.19259e-20)
(-0.0601945 0.0175458 5.93378e-22)
(-0.0624251 0.0184458 -7.31562e-20)
(-0.0647095 0.0195399 2.94234e-20)
(-0.0669468 0.0208365 6.67589e-20)
(-0.0695272 0.0222751 -9.83151e-20)
(-0.000882889 0.00353966 8.87696e-20)
(-0.00315329 0.00914721 -9.42327e-20)
(-0.00639059 0.0134057 -1.5155e-20)
(-0.0101129 0.0165525 1.90997e-20)
(-0.0140649 0.0187795 -4.12273e-20)
(-0.0180931 0.0202519 -6.42399e-20)
(-0.0220774 0.0211179 -5.33768e-20)
(-0.0259309 0.0215089 -1.28593e-20)
(-0.0295955 0.0215402 -9.17438e-20)
(-0.0330354 0.021313 7.30187e-20)
(-0.0362322 0.0209161 -1.1333e-19)
(-0.0391815 0.0204275 5.72502e-20)
(-0.0418901 0.0199156 -1.8984e-20)
(-0.0443735 0.0194403 4.39495e-20)
(-0.0466546 0.0190537 -1.10435e-19)
(-0.0487617 0.0188002 5.3482e-20)
(-0.050728 0.0187173 3.98389e-21)
(-0.0525894 0.0188351 2.36944e-20)
(-0.0543841 0.0191766 1.43018e-19)
(-0.0561513 0.0197576 3.16601e-20)
(-0.0579359 0.0205855 -2.88275e-21)
(-0.0597847 0.0216597 9.02855e-21)
(-0.061686 0.0229823 5.94562e-20)
(-0.0635376 0.0245654 1.69287e-20)
(-0.0657373 0.0263345 5.56103e-20)
(-0.00112498 0.00414397 -5.53111e-20)
(-0.0037775 0.0107037 7.85145e-20)
(-0.00729995 0.015678 4.91858e-21)
(-0.0112219 0.0193455 -9.5773e-20)
(-0.015298 0.0219314 2.0129e-19)
(-0.0193835 0.0236291 -6.50507e-20)
(-0.0233664 0.0246119 9.49138e-20)
(-0.0271665 0.025033 8.68026e-20)
(-0.0307312 0.0250269 -7.17923e-20)
(-0.034029 0.0247115 -1.04444e-19)
(-0.0370449 0.0241905 2.85766e-20)
(-0.0397771 0.0235552 -3.01187e-20)
(-0.0422342 0.0228861 -1.33157e-19)
(-0.0444333 0.0222544 1.61687e-19)
(-0.0463988 0.0217225 -7.75042e-20)
(-0.0481608 0.0213445 -5.34149e-20)
(-0.0497543 0.021167 4.92763e-22)
(-0.0512181 0.0212282 4.35936e-20)
(-0.0525936 0.0215584 1.79632e-20)
(-0.0539241 0.0221795 -7.03364e-20)
(-0.0552597 0.0231035 8.0259e-20)
(-0.0566531 0.0243324 -1.39379e-19)
(-0.0580981 0.0258711 8.50786e-20)
(-0.0594916 0.027737 -6.51217e-20)
(-0.0612415 0.0298414 1.69868e-20)
(-0.00140565 0.00473411 8.04799e-20)
(-0.00450002 0.0122187 -6.18887e-20)
(-0.00835097 0.0178834 -3.93635e-20)
(-0.0125017 0.0220482 -6.94762e-20)
(-0.0167184 0.0249716 -1.26987e-19)
(-0.0208674 0.0268745 -9.3802e-20)
(-0.0248462 0.0279548 5.84464e-20)
(-0.0285826 0.0283869 -8.84964e-20)
(-0.0320306 0.0283234 1.1229e-19)
(-0.0351641 0.0278982 -1.82702e-19)
(-0.0379718 0.0272289 8.11313e-20)
(-0.0404548 0.0264197 1.71297e-19)
(-0.0426237 0.0255628 -2.40605e-19)
(-0.0444973 0.0247404 3.4343e-20)
(-0.0461013 0.0240255 4.46677e-20)
(-0.0474675 0.0234826 4.31723e-20)
(-0.0486328 0.0231683 -4.63773e-20)
(-0.0496388 0.0231303 -1.13964e-20)
(-0.0505306 0.0234079 -3.40212e-20)
(-0.0513562 0.024031 -2.83646e-20)
(-0.0521716 0.025018 -1.55597e-19)
(-0.0530372 0.0263758 -1.05008e-20)
(-0.0539537 0.0281136 1.69612e-21)
(-0.0548183 0.0302566 -7.02781e-20)
(-0.0560526 0.0327016 7.23479e-20)
(-0.00172418 0.00530839 2.32588e-21)
(-0.00531801 0.0136868 2.53132e-20)
(-0.00953817 0.020013 2.63523e-20)
(-0.0139436 0.024649 1.52892e-20)
(-0.0183148 0.0278862 1.29246e-19)
(-0.0225307 0.029973 1.21359e-19)
(-0.0265 0.031131 -9.8622e-20)
(-0.0301603 0.0315546 -3.0009e-20)
(-0.0334734 0.0314136 -2.66416e-20)
(-0.0364191 0.0308568 1.37426e-19)
(-0.0389908 0.0300149 4.93172e-20)
(-0.0411927 0.0290038 -7.17837e-20)
(-0.0430377 0.0279268 -6.07357e-20)
(-0.044546 0.0268768 1.46305e-19)
(-0.0457446 0.0259375 -3.60672e-20)
(-0.0466665 0.0251843 -4.37076e-20)
(-0.0473504 0.0246845 -6.09719e-20)
(-0.0478407 0.0244969 -4.7445e-20)
(-0.048186 0.0246719 -6.05385e-20)
(-0.0484398 0.0252498 -3.95708e-20)
(-0.0486649 0.0262581 1.64386e-19)
(-0.0489308 0.0277109 -8.09232e-20)
(-0.049247 0.029625 5.44735e-20)
(-0.049513 0.032036 -1.44819e-19)
(-0.0501687 0.0348269 5.83457e-20)
(-0.0020797 0.00586503 -7.22717e-20)
(-0.00622782 0.0151023 -1.88245e-20)
(-0.0108543 0.0220579 -1.47013e-19)
(-0.0155366 0.0271363 -7.0428e-20)
(-0.0200717 0.0306623 -1.38992e-19)
(-0.0243536 0.0329109 -1.44895e-20)
(-0.0283042 0.0341267 7.44571e-20)
(-0.0318724 0.0345232 -4.53462e-20)
(-0.0350291 0.034286 9.76968e-20)
(-0.0377612 0.0335775 -2.3733e-19)
(-0.0400674 0.0325401 -6.87239e-21)
(-0.0419553 0.0313003 4.20412e-20)
(-0.0434402 0.0299716 -5.33211e-20)
(-0.0445438 0.0286567 4.84996e-20)
(-0.0452939 0.0274497 -3.70754e-20)
(-0.0457245 0.026437 -7.94117e-20)
(-0.0458756 0.0256975 1.44811e-19)
(-0.0457937 0.0253029 8.97806e-20)
(-0.0455314 0.0253165 -1.86087e-20)
(-0.0451473 0.0257918 5.92077e-20)
(-0.0447123 0.0267691 -1.16797e-19)
(-0.0443065 0.0282734 1.68277e-19)
(-0.0439503 0.0303329 -2.29776e-19)
(-0.0435485 0.0329979 4.7293e-20)
(-0.0435647 0.0361386 -8.97706e-20)
(-0.00247108 0.00640201 3.9221e-21)
(-0.00722469 0.0164591 -6.43015e-20)
(-0.0122897 0.0240084 9.52277e-20)
(-0.0172656 0.0294984 1.95217e-19)
(-0.0219686 0.0332867 -3.2121e-21)
(-0.02631 0.0356752 2.20982e-20)
(-0.0302271 0.0369301 -8.34771e-20)
(-0.0336818 0.0372828 3.90783e-20)
(-0.0366556 0.0369336 2.69293e-19)
(-0.0391436 0.0360567 -6.10923e-20)
(-0.0411506 0.0348047 -7.21269e-20)
(-0.0426883 0.0333132 2.72533e-19)
(-0.0437745 0.0317042 8.89694e-20)
(-0.0444325 0.0300894 4.23361e-20)
(-0.0446904 0.0285722 4.33273e-20)
(-0.0445826 0.0272498 1.18026e-19)
(-0.0441499 0.0262134 -4.53407e-20)
(-0.0434402 0.0255483 1.19837e-19)
(-0.0425094 0.0253333 1.62117e-19)
(-0.0414217 0.0256386 -1.38237e-19)
(-0.0402563 0.026521 2.05344e-19)
(-0.0391056 0.0280214 7.32378e-20)
(-0.0380035 0.0301847 -2.77876e-19)
(-0.0368632 0.0330822 4.01769e-19)
(-0.0361806 0.0365742 -3.25314e-19)
(-0.00289675 0.00691687 -1.8402e-19)
(-0.00830247 0.01775 1.0029e-19)
(-0.0138324 0.0258541 -6.72866e-20)
(-0.0191118 0.0317224 -6.38994e-20)
(-0.0239793 0.035746 -6.89572e-20)
(-0.028366 0.0382529 -7.47967e-20)
(-0.032227 0.0395301 2.05253e-20)
(-0.0355391 0.0398257 1.94955e-19)
(-0.0382959 0.0393531 -4.17559e-20)
(-0.0405021 0.0382966 -1.08715e-19)
(-0.0421693 0.0368173 -6.63764e-20)
(-0.0433144 0.0350577 -2.71486e-20)
(-0.043958 0.0331467 8.02887e-20)
(-0.0441247 0.0312029 -5.12731e-20)
(-0.0438432 0.0293379 -1.67277e-19)
(-0.0431474 0.0276585 -1.84528e-19)
(-0.0420779 0.026268 7.35621e-20)
(-0.0406837 0.0252662 -1.36877e-19)
(-0.0390227 0.0247492 1.18824e-19)
(-0.0371642 0.0248072 -3.3552e-19)
(-0.0351964 0.0255185 2.5772e-19)
(-0.0332251 0.0269457 -3.40744e-19)
(-0.0313004 0.0291582 -6.35262e-21)
(-0.0293482 0.0322567 -1.14653e-19)
(-0.0279071 0.036096 3.36571e-19)
(-0.00335468 0.00740662 2.82363e-19)
(-0.00945331 0.0189667 4.13835e-20)
(-0.015467 0.027583 -2.71876e-20)
(-0.0210515 0.0337944 -1.14685e-20)
(-0.0260711 0.0380256 2.13352e-19)
(-0.0304794 0.0406304 6.93809e-20)
(-0.0342516 0.0419158 6.29009e-20)
(-0.0373814 0.0421455 -5.05591e-20)
(-0.0398764 0.041544 1.94943e-19)
(-0.0417521 0.0403043 -9.58285e-20)
(-0.0430285 0.0385936 6.18337e-20)
(-0.0437281 0.0365596 1.57243e-19)
(-0.0438753 0.0343354 -8.91498e-20)
(-0.0434963 0.0320444 9.65227e-20)
(-0.0426202 0.029804 9.11371e-20)
(-0.0412801 0.0277289 3.11834e-20)
(-0.0395159 0.025933 -7.67935e-20)
(-0.0373759 0.0245305 2.12376e-19)
(-0.0349194 0.023636 -1.97576e-20)
(-0.0322197 0.0233626 -2.2746e-20)
(-0.0293736 0.0238152 2.54132e-19)
(-0.0265016 0.0250856 -1.80724e-19)
(-0.0236725 0.0272768 3.04371e-19)
(-0.0208297 0.030531 -2.52336e-19)
(-0.0185686 0.0347054 3.243e-19)
(-0.00384212 0.00786761 -1.36397e-19)
(-0.0106673 0.0200998 3.0232e-20)
(-0.0171749 0.0291814 -3.15048e-20)
(-0.0230559 0.0356983 -1.49097e-19)
(-0.0282041 0.040109 8.65087e-21)
(-0.0325984 0.0427923 8.48578e-20)
(-0.0362363 0.0440751 -3.45106e-19)
(-0.0391306 0.0442349 2.57568e-19)
(-0.0413045 0.0435063 -2.50704e-19)
(-0.0427862 0.0420891 -1.58084e-19)
(-0.0436051 0.0401547 1.41751e-19)
(-0.0437909 0.0378533 -3.0668e-19)
(-0.0433726 0.03532 2.58267e-19)
(-0.0423788 0.0326798 -8.2114e-20)
(-0.0408392 0.0300531 -2.34453e-19)
(-0.0387864 0.0275594 5.79017e-20)
(-0.0362585 0.0253206 -5.43534e-20)
(-0.0333024 0.0234638 2.04694e-20)
(-0.0299774 0.0221216 -7.32255e-20)
(-0.0263594 0.0214318 -2.42869e-19)
(-0.0225526 0.0215307 5.44011e-20)
(-0.018693 0.0225469 -8.82319e-23)
(-0.01487 0.0246289 -2.50148e-19)
(-0.0110498 0.0279767 1.75717e-19)
(-0.00790249 0.0324616 -1.51812e-19)
(-0.00435555 0.00829555 5.52137e-20)
(-0.0119325 0.021138 1.01662e-19)
(-0.0189334 0.0306338 1.42225e-19)
(-0.0250907 0.0374159 7.31463e-20)
(-0.030331 0.0419769 -7.17153e-20)
(-0.0346613 0.0447209 1.71066e-19)
(-0.0381038 0.0459932 1.26572e-19)
(-0.0406923 0.0460847 -4.60641e-20)
(-0.0424676 0.0452389 1.64498e-19)
(-0.0434717 0.0436605 -1.69185e-19)
(-0.0437457 0.0415235 -4.96046e-20)
(-0.0433276 0.0389786 5.03414e-20)
(-0.0422523 0.0361597 9.97277e-20)
(-0.0405523 0.0331906 1.19207e-21)
(-0.0382589 0.0301908 6.30836e-20)
(-0.0354044 0.0272805 1.16402e-19)
(-0.0320256 0.0245859 -1.98153e-19)
(-0.0281672 0.0222427 2.46266e-19)
(-0.023887 0.0203994 8.30597e-20)
(-0.0192616 0.0192181 2.92743e-20)
(-0.0144014 0.018869 -2.98515e-19)
(-0.00945724 0.0195249 4.22488e-20)
(-0.00454054 0.0213936 6.54971e-20)
(0.000355504 0.0247535 -1.5706e-20)
(0.00446387 0.0295079 7.46286e-20)
(-0.0048906 0.00868554 4.33179e-21)
(-0.0132343 0.022069 -2.61878e-19)
(-0.0207163 0.0319226 -6.51759e-21)
(-0.0271162 0.0389264 -6.60161e-20)
(-0.0323971 0.0436073 -4.33779e-19)
(-0.0365967 0.0463945 3.74481e-19)
(-0.039764 0.0476515 -2.66424e-19)
(-0.0419558 0.0476816 -1.33987e-20)
(-0.043232 0.0467363 -1.2582e-19)
(-0.0436505 0.0450245 2.17513e-19)
(-0.043265 0.042721 -2.34082e-19)
(-0.0421239 0.0399751 -1.09575e-19)
(-0.0402699 0.0369175 2.32004e-21)
(-0.037741 0.0336674 -2.36957e-19)
(-0.034572 0.0303394 3.23242e-19)
(-0.0307965 0.0270499 -3.74389e-19)
(-0.0264508 0.0239234 7.42615e-22)
(-0.021578 0.0210986 5.7347e-20)
(-0.0162333 0.018734 -1.43427e-19)
(-0.0104928 0.0170121 1.39078e-19)
(-0.00447073 0.0161365 -1.973e-19)
(0.00166905 0.0163291 -1.30308e-19)
(0.00779321 0.0178697 2.42756e-19)
(0.0138791 0.0211414 -2.64776e-19)
(0.0190365 0.0261039 -5.10609e-21)
(-0.00544195 0.00903226 -2.21694e-19)
(-0.0145557 0.0228793 2.54305e-19)
(-0.0224933 0.0330286 -7.84615e-20)
(-0.029087 0.0402068 1.51019e-19)
(-0.0343399 0.0449752 1.62825e-19)
(-0.0383229 0.0477878 -1.43402e-19)
(-0.0411139 0.0490264 -9.50682e-20)
(-0.0427941 0.0490064 -1.13793e-19)
(-0.0434438 0.0479868 1.04162e-19)
(-0.0431383 0.0461798 -6.94265e-21)
(-0.0419457 0.0437608 1.51784e-19)
(-0.0399263 0.0408764 1.49575e-19)
(-0.0371327 0.0376522 -1.78626e-19)
(-0.0336109 0.0342006 3.50718e-19)
(-0.0294017 0.0306279 -2.32511e-19)
(-0.024543 0.0270413 -3.98743e-20)
(-0.0190731 0.0235574 4.52701e-19)
(-0.0130351 0.0203097 -2.09588e-19)
(-0.00648288 0.017458 1.33489e-19)
(0.000509288 0.0151962 2.60667e-19)
(0.00782535 0.0137552 -1.69109e-19)
(0.0152908 0.0134043 1.78248e-20)
(0.0227533 0.014506 -1.16168e-20)
(0.0301627 0.0175761 -6.92582e-20)
(0.0364767 0.0226643 1.30316e-19)
(-0.00600345 0.00933021 5.06674e-20)
(-0.0158775 0.0235547 -1.61199e-19)
(-0.02423 0.0339312 8.81008e-20)
(-0.030952 0.041232 -1.08108e-21)
(-0.0360898 0.0460523 6.62965e-20)
(-0.0397492 0.0488715 -1.14061e-19)
(-0.0420385 0.0500893 6.52459e-20)
(-0.0430647 0.0500333 1.77642e-19)
(-0.0429297 0.0489699 -5.39466e-21)
(-0.0417271 0.0471152 -9.07074e-20)
(-0.0395405 0.0446448 9.11828e-20)
(-0.0364439 0.0417028 -2.11023e-21)
(-0.0325021 0.0384093 -2.88645e-19)
(-0.0277718 0.0348687 1.0702e-19)
(-0.0223033 0.0311765 2.3648e-20)
(-0.0161428 0.027427 -4.15906e-20)
(-0.00933499 0.0237225 -7.41323e-20)
(-0.00192718 0.0201824 2.84163e-19)
(0.00602494 0.0169557 6.92693e-20)
(0.0144472 0.0142342 -1.48404e-19)
(0.0232228 0.0122613 -1.78189e-20)
(0.0321696 0.0113435 2.04215e-19)
(0.0411214 0.011926 -9.53617e-20)
(0.0500106 0.0146849 4.0934e-20)
(0.0576163 0.019799 2.75785e-20)
(-0.00656819 0.00957399 -1.0147e-19)
(-0.017178 0.0240811 1.00844e-19)
(-0.0258888 0.0346096 -5.68323e-20)
(-0.0326553 0.0419758 -1.82415e-19)
(-0.0375699 0.0468086 -1.67903e-19)
(-0.0407752 0.0496131 -7.43199e-20)
(-0.042411 0.0508067 -6.15234e-20)
(-0.0426108 0.0507298 -1.81965e-19)
(-0.0414986 0.0496565 -7.34843e-20)
(-0.0391868 0.0478076 6.69605e-20)
(-0.0357755 0.0453599 -9.56066e-20)
(-0.0313536 0.0424561 -1.00939e-19)
(-0.0259998 0.0392122 -9.46807e-20)
(-0.0197845 0.035725 1.71883e-19)
(-0.0127717 0.0320793 -3.60966e-19)
(-0.00502091 0.028355 2.06041e-19)
(0.00341062 0.0246354 -3.52352e-19)
(0.0124642 0.0210184 -5.42829e-20)
(0.0220753 0.0176295 -1.93382e-19)
(0.0321647 0.0146403 -4.51453e-20)
(0.0426125 0.0122839 -5.50649e-20)
(0.05323 0.0108791 -1.83851e-19)
(0.0638449 0.0109377 -2.01133e-20)
(0.0743936 0.0133122 1.12463e-19)
(0.0834619 0.0183517 -2.92399e-19)
(-0.00712863 0.00975867 8.70486e-20)
(-0.0184335 0.024445 1.13847e-19)
(-0.0274282 0.0350434 3.98689e-19)
(-0.0341356 0.0424121 -6.99932e-20)
(-0.0386965 0.0472137 1.66535e-19)
(-0.0412918 0.0499786 3.96655e-19)
(-0.0420937 0.0511425 -1.08081e-19)
(-0.0412623 0.0510586 1.46254e-19)
(-0.0389436 0.0500099 8.52961e-20)
(-0.0352689 0.0482227 1.54535e-19)
(-0.0303547 0.0458772 -3.09517e-20)
(-0.0243056 0.0431168 2.09022e-20)
(-0.0172158 0.0400561 -5.40723e-20)
(-0.00917181 0.0367875 2.92476e-19)
(-0.000255157 0.0333876 3.74235e-20)
(0.00945571 0.0299238 2.71079e-19)
(0.0198829 0.0264609 -6.92931e-20)
(0.0309467 0.0230711 2.4774e-19)
(0.0425628 0.0198472 3.47311e-20)
(0.0546352 0.0169223 1.25811e-19)
(0.0670323 0.0144909 -5.427e-20)
(0.079555 0.0128442 -9.61921e-21)
(0.092031 0.0125182 2.98787e-19)
(0.104438 0.0145319 1.83663e-19)
(0.115182 0.0194328 -7.66009e-20)
(-0.00767677 0.00988001 -2.10984e-19)
(-0.0196186 0.0246344 -2.13842e-19)
(-0.0288032 0.0352139 -2.23481e-19)
(-0.0353259 0.0425167 8.18766e-20)
(-0.0393784 0.0472385 -1.64414e-19)
(-0.0411808 0.0499351 -2.44919e-20)
(-0.0409377 0.0510606 -6.45572e-20)
(-0.0388359 0.0509813 -2.67669e-19)
(-0.0350429 0.0499898 -4.17715e-20)
(-0.0297081 0.0483196 6.86161e-20)
(-0.0229642 0.0461562 -2.15195e-19)
(-0.0149311 0.043647 2.98207e-19)
(-0.00571907 0.0409088 -4.04766e-19)
(0.00456738 0.0380347 9.74051e-20)
(0.0158262 0.0350992 -2.47619e-19)
(0.0279545 0.032163 -2.00823e-19)
(0.0408459 0.0292785 -1.14145e-20)
(0.0543882 0.0264961 -3.03045e-20)
(0.0684619 0.0238746 2.39312e-20)
(0.0829365 0.0214984 -1.14415e-19)
(0.0976501 0.0194972 -7.91552e-20)
(0.112378 0.0180849 9.72412e-20)
(0.126943 0.0177485 -2.68883e-19)
(0.141416 0.0196152 8.73851e-20)
(0.154097 0.0244175 6.2245e-20)
(-0.00820428 0.00993475 -3.74346e-20)
(-0.0207056 0.0246393 -6.21161e-20)
(-0.0299649 0.0351052 2.41266e-19)
(-0.0361537 0.0422687 8.97156e-20)
(-0.0395165 0.046858 1.18712e-19)
(-0.0403134 0.0494543 -1.58524e-19)
(-0.038782 0.0505298 2.68855e-22)
(-0.0351347 0.0504638 -1.28199e-19)
(-0.0295601 0.0495593 2.36913e-19)
(-0.0222244 0.0480581 7.73037e-20)
(-0.0132754 0.0461532 8.66748e-20)
(-0.00284786 0.0439988 -3.44644e-19)
(0.00893231 0.0417187 4.2491e-19)
(0.0219423 0.0394123 -1.27613e-19)
(0.0360576 0.0371597 -9.12818e-20)
(0.0511475 0.0350254 2.73227e-19)
(0.0670707 0.0330609 1.21855e-19)
(0.0836722 0.0313084 -3.08367e-19)
(0.100781 0.0298049 -1.2866e-19)
(0.118209 0.0285922 3.88215e-19)
(0.135735 0.0277261 -2.96522e-19)
(0.153076 0.0273008 1.78266e-19)
(0.170022 0.0276532 9.95945e-20)
(0.186781 0.0298904 -1.28083e-19)
(0.201719 0.0348462 -1.2355e-19)
(-0.00870252 0.00992062 -1.3771e-19)
(-0.021665 0.0244519 2.13952e-19)
(-0.03086 0.0347051 9.11086e-20)
(-0.0365392 0.0416525 -1.31555e-19)
(-0.0390019 0.0460543 -2.10522e-20)
(-0.0385493 0.0485165 -1.37895e-19)
(-0.0354516 0.0495287 -5.49293e-20)
(-0.0299469 0.0494832 6.16289e-20)
(-0.0222433 0.0486933 -1.53935e-20)
(-0.0125229 0.0474097 1.16264e-19)
(-0.000947774 0.0458341 -1.00959e-19)
(0.012334 0.0441302 2.79297e-19)
(0.0271814 0.0424319 -3.46131e-19)
(0.043454 0.0408506 2.15821e-19)
(0.0610053 0.0394799 2.68086e-19)
(0.0796758 0.0383992 -3.8742e-19)
(0.0992871 0.0376757 -1.17889e-19)
(0.119635 0.0373651 1.98611e-19)
(0.140484 0.0375113 -1.22597e-19)
(0.161565 0.0381461 1.18338e-19)
(0.18256 0.0392806 -2.86805e-19)
(0.20307 0.0408865 4.7767e-20)
(0.222775 0.0430653 1.86867e-19)
(0.24203 0.0467386 -3.0058e-19)
(0.259586 0.0526647 8.11376e-20)
(-0.00916236 0.00983632 -1.27383e-19)
(-0.0224646 0.0240675 3.99189e-19)
(-0.0314299 0.0340063 7.66153e-20)
(-0.0363943 0.0406597 -2.06982e-19)
(-0.0377146 0.0448191 1.48228e-19)
(-0.0357341 0.0471144 7.52409e-20)
(-0.0307559 0.0480519 1.20144e-19)
(-0.0230432 0.0480357 -7.85483e-21)
(-0.0128232 0.0473887 -1.24794e-20)
(-0.000293474 0.0463703 -2.61533e-20)
(0.0143704 0.045191 -1.14289e-19)
(0.0310073 0.0440243 -3.87253e-21)
(0.0494622 0.0430159 2.66985e-19)
(0.0695782 0.0422919 -4.37804e-19)
(0.0911889 0.0419644 3.11469e-19)
(0.11411 0.042137 6.30239e-20)
(0.13813 0.0429081 1.11434e-19)
(0.162999 0.0443734 -5.74313e-20)
(0.188419 0.0466266 5.09565e-19)
(0.214025 0.0497576 -3.15672e-19)
(0.239359 0.0538294 2.52447e-19)
(0.263807 0.0588141 5.94575e-20)
(0.286751 0.0646983 -1.8497e-19)
(0.30849 0.0722841 1.56711e-19)
(0.328551 0.0818381 2.42975e-19)
(-0.00957399 0.00968133 -3.70381e-20)
(-0.0230688 0.0234836 -1.40765e-19)
(-0.0316091 0.0330067 -2.40502e-19)
(-0.0356208 0.0392904 -1.37022e-19)
(-0.0355213 0.0431563 -1.91589e-20)
(-0.0316973 0.0452574 -5.40733e-20)
(-0.0244855 0.0461148 -2.50509e-19)
(-0.0141747 0.0461432 4.14905e-20)
(-0.00101183 0.0456735 -2.81325e-19)
(0.0147893 0.0449723 -2.18197e-20)
(0.0330388 0.0442572 -2.69675e-19)
(0.053561 0.0437095 -9.60357e-20)
(0.076186 0.0434846 5.51042e-20)
(0.100741 0.0437208 -2.62272e-19)
(0.127043 0.0445474 2.37575e-21)
(0.15489 0.0460917 -2.25889e-19)
(0.184055 0.0484873 8.7207e-20)
(0.214274 0.0518833 -3.15431e-19)
(0.245231 0.0564563 -5.40725e-20)
(0.276536 0.0624239 -7.54211e-21)
(0.307669 0.0700433 -5.33785e-20)
(0.337869 0.0795795 -5.47742e-20)
(0.366139 0.0914841 -2.7484e-20)
(0.391906 0.10712 -1.09916e-19)
(0.413818 0.12537 -2.3564e-19)
(-0.00992645 0.00945572 6.75867e-20)
(-0.0234377 0.0227007 1.78461e-19)
(-0.0313242 0.0317098 2.14432e-19)
(-0.034109 0.0375542 -1.7131e-19)
(-0.0322735 0.041084 3.17747e-19)
(-0.0262502 0.0429738 -1.72466e-19)
(-0.0164113 0.0437579 9.36276e-20)
(-0.00307265 0.0438593 1.45918e-19)
(0.0134966 0.0436147 1.32737e-19)
(0.0330634 0.0432947 6.45284e-20)
(0.0554186 0.0431206 1.04264e-19)
(0.0803674 0.0432769 6.06118e-20)
(0.107719 0.043922 4.09594e-19)
(0.137281 0.0451982 -2.97633e-19)
(0.16885 0.0472391 3.39814e-19)
(0.202213 0.0501793 -1.41221e-19)
(0.23714 0.0541648 3.0484e-19)
(0.273389 0.0593668 -1.44732e-20)
(0.31071 0.0660034 -6.31284e-20)
(0.34885 0.0743704 -1.16502e-20)
(0.387566 0.0848826 2.40046e-19)
(0.426672 0.0981792 -2.35518e-19)
(0.46636 0.115558 1.64967e-19)
(0.507313 0.138888 1.83698e-19)
(0.546139 0.16217 3.82072e-20)
(-0.010207 0.0091596 4.67722e-20)
(-0.0235257 0.0217211 -2.55347e-19)
(-0.0304924 0.0301248 -9.26791e-20)
(-0.0317357 0.0354706 8.45923e-20)
(-0.0278064 0.0386353 -2.60545e-19)
(-0.0191857 0.0403132 -5.13906e-20)
(-0.00628447 0.0410493 3.56172e-20)
(0.0105503 0.0412724 1.40649e-19)
(0.0310223 0.0413216 -3.56017e-19)
(0.0548717 0.0414681 2.70602e-20)
(0.0818619 0.0419312 -1.04037e-19)
(0.111767 0.0428917 -3.16076e-19)
(0.144363 0.0445019 2.15323e-19)
(0.179422 0.0468941 9.20873e-21)
(0.216706 0.0501882 -6.44632e-21)
(0.255969 0.0544984 2.16982e-19)
(0.296963 0.0599415 -3.83711e-19)
(0.339441 0.0666442 3.03856e-19)
(0.383181 0.0747547 -5.61761e-20)
(0.428003 0.0844526 1.77559e-19)
(0.473805 0.0959551 -2.92289e-19)
(0.520627 0.109547 1.67985e-19)
(0.568919 0.125786 -3.0195e-19)
(0.619579 0.145223 3.12795e-19)
(0.667714 0.161739 -9.72381e-20)
(-0.0104003 0.00879301 3.14701e-19)
(-0.0232804 0.0205488 -5.13135e-20)
(-0.0290199 0.0282664 3.77686e-19)
(-0.0283641 0.0330694 1.74739e-19)
(-0.0219388 0.0358588 1.39956e-20)
(-0.0102793 0.0373463 7.62191e-20)
(0.00615997 0.0380849 1.83832e-20)
(0.026994 0.0385055 3.10274e-19)
(0.0518903 0.0389461 9.98895e-20)
(0.0805505 0.0396732 -1.33966e-20)
(0.112695 0.0408983 2.68324e-20)
(0.148049 0.04279 1.03249e-19)
(0.186334 0.045484 8.6144e-20)
(0.227262 0.0490896 1.84259e-19)
(0.270533 0.0536958 -2.09924e-19)
(0.315837 0.0593761 6.33957e-20)
(0.362865 0.0661921 1.92278e-20)
(0.411317 0.0741963 9.38539e-20)
(0.46092 0.0834335 2.54526e-19)
(0.511451 0.0939378 -1.65947e-19)
(0.562758 0.10572 1.42587e-20)
(0.614784 0.118757 -2.35837e-19)
(0.667691 0.133105 2.23636e-19)
(0.721905 0.148994 -2.17599e-19)
(0.772554 0.162534 2.0393e-20)
(-0.0104881 0.00835587 -2.62535e-19)
(-0.0226419 0.01919 2.00625e-19)
(-0.0268022 0.0261546 -3.26415e-19)
(-0.0238436 0.0303905 2.8149e-20)
(-0.0144752 0.0328185 2.2947e-19)
(0.000707235 0.0341649 -3.82098e-19)
(0.0211972 0.0349869 3.02945e-19)
(0.0465613 0.0357137 -4.80433e-19)
(0.0764164 0.0366772 9.57107e-20)
(0.110408 0.0381332 2.04465e-20)
(0.148193 0.0402778 1.61237e-19)
(0.189422 0.0432587 -5.35643e-19)
(0.233733 0.0471837 9.2481e-20)
(0.280749 0.052127 9.79296e-20)
(0.330073 0.0581335 -5.87147e-20)
(0.381298 0.0652222 -3.64155e-19)
(0.434017 0.0733881 1.71447e-19)
(0.487831 0.0826029 3.20994e-19)
(0.542371 0.0928128 -3.38942e-19)
(0.597308 0.103934 2.46026e-19)
(0.652373 0.115837 -3.19618e-19)
(0.707351 0.128337 2.3246e-19)
(0.762123 0.141266 -6.50384e-20)
(0.816749 0.154825 3.71968e-19)
(0.86713 0.16702 -4.26782e-19)
(-0.0104486 0.00784799 3.75918e-20)
(-0.021542 0.0176528 2.9625e-20)
(-0.0237234 0.0238155 7.25487e-20)
(-0.0180116 0.0274838 2.58727e-19)
(-0.00520855 0.0295929 -8.08817e-21)
(0.0140196 0.0308795 5.77694e-20)
(0.0391026 0.0319007 2.56973e-19)
(0.0695425 0.0330786 1.03645e-19)
(0.104886 0.0347326 -3.41261e-20)
(0.1447 0.0371003 2.9047e-19)
(0.188546 0.0403534 -3.30642e-19)
(0.235971 0.0446079 5.07196e-19)
(0.2865 0.0499326 -2.01208e-19)
(0.339629 0.0563545 3.65116e-19)
(0.394836 0.0638631 -1.23274e-19)
(0.451587 0.0724143 4.49628e-20)
(0.509348 0.0819323 5.44857e-20)
(0.567606 0.0923112 -1.05428e-19)
(0.625875 0.103414 8.82343e-20)
(0.683719 0.115073 5.67831e-20)
(0.740755 0.127078 7.85503e-20)
(0.796652 0.139173 1.67251e-19)
(0.851129 0.151104 -1.38651e-20)
(0.904068 0.163047 -7.66286e-20)
(0.952455 0.174455 2.33646e-19)
(-0.0102563 0.00726937 -2.19804e-19)
(-0.0199045 0.0159479 2.32302e-20)
(-0.019658 0.021281 -4.17393e-19)
(-0.0106961 0.0244091 -9.96481e-20)
(0.0060739 0.0262743 -1.86432e-19)
(0.0299024 0.0276183 -3.99771e-20)
(0.0601382 0.0289916 -1.99479e-19)
(0.0961977 0.0308024 -1.19142e-19)
(0.137531 0.0333491 1.57714e-19)
(0.183594 0.0368416 -2.63164e-19)
(0.233821 0.0414155 -7.30795e-20)
(0.287622 0.0471432 2.87809e-21)
(0.344368 0.0540415 -4.93778e-19)
(0.403406 0.0620783 2.09912e-19)
(0.464059 0.0711782 -3.06499e-19)
(0.52565 0.0812278 -9.58112e-21)
(0.587515 0.0920805 6.05987e-20)
(0.649022 0.103561 -9.82263e-20)
(0.709593 0.115467 -8.6186e-20)
(0.76871 0.127575 4.32889e-20)
(0.825928 0.139637 4.86014e-20)
(0.880871 0.151384 -3.14647e-19)
(0.933215 0.162547 1.7957e-19)
(0.982795 0.173262 9.14693e-20)
(1.02766 0.184 2.60189e-20)
(-0.0098817 0.00662065 2.24949e-19)
(-0.0176455 0.0140896 -2.39938e-19)
(-0.0144721 0.01859 3.36327e-19)
(-0.00171979 0.0212367 5.2251e-20)
(0.0195841 0.0229685 -1.60243e-20)
(0.0485883 0.0245244 -1.12889e-19)
(0.084538 0.0264403 1.69739e-20)
(0.126736 0.0291007 1.71471e-19)
(0.174502 0.0327722 -2.36469e-19)
(0.227142 0.037624 2.48258e-19)
(0.283931 0.043742 -2.62078e-20)
(0.344098 0.0511402 1.15404e-20)
(0.406838 0.0597697 3.22735e-19)
(0.471318 0.0695275 4.32616e-19)
(0.536699 0.0802651 -1.69238e-19)
(0.602162 0.0917968 3.01032e-19)
(0.666924 0.103909 1.53294e-19)
(0.730271 0.116366 -9.3578e-20)
(0.791567 0.128921 2.97689e-19)
(0.850276 0.141321 -1.09126e-20)
(0.905958 0.15331 -2.87257e-19)
(0.958274 0.164636 3.04184e-19)
(1.00696 0.175058 4.4522e-20)
(1.0519 0.18468 -1.89975e-19)
(1.09206 0.194621 5.95601e-20)
(-0.00929188 0.00590386 -3.13127e-19)
(-0.0146746 0.0120969 3.27118e-19)
(-0.00802701 0.0157898 -2.07523e-19)
(0.00909506 0.0180482 -6.47789e-20)
(0.0355248 0.0197944 -1.44801e-19)
(0.0702863 0.0217547 2.55945e-19)
(0.112492 0.0244393 -1.48515e-19)
(0.161293 0.0281962 -6.8017e-20)
(0.215842 0.0332458 -1.94653e-19)
(0.275255 0.0397006 5.03421e-21)
(0.338602 0.0475799 -7.6106e-20)
(0.404906 0.056823 3.70613e-20)
(0.473158 0.0673014 -3.90009e-19)
(0.542341 0.0788307 1.11106e-19)
(0.61146 0.0911839 -1.34263e-19)
(0.679573 0.104104 -1.08402e-19)
(0.745823 0.117318 3.34473e-20)
(0.809461 0.130547 -1.58673e-19)
(0.869863 0.143517 -6.86744e-20)
(0.926541 0.155971 1.96972e-19)
(0.979141 0.16767 8.41523e-20)
(1.02744 0.178402 -3.57237e-19)
(1.07129 0.187979 2.63747e-19)
(1.11074 0.1965 -5.00157e-20)
(1.14542 0.205418 -1.04145e-19)
(-0.00845087 0.00512309 -1.14239e-19)
(-0.0108971 0.00999523 -6.10916e-20)
(-0.000182115 0.0129372 -1.22243e-20)
(0.0219203 0.014937 8.9208e-20)
(0.0540808 0.0168838 9.70103e-20)
(0.095169 0.0194779 8.44405e-20)
(0.144127 0.0231889 1.04949e-19)
(0.199916 0.0283119 1.60126e-19)
(0.261471 0.0350025 2.44609e-19)
(0.327678 0.0432972 2.41908e-19)
(0.397368 0.05313 1.27687e-19)
(0.469332 0.0643485 -3.42715e-20)
(0.542351 0.0767315 8.5811e-21)
(0.615234 0.0900062 -1.17793e-20)
(0.686859 0.103867 1.01097e-19)
(0.756214 0.117993 -2.7242e-20)
(0.822423 0.132064 3.00992e-19)