/*--------------------------------*- C++ -*----------------------------------*\
  =========                 |
  \\      /  F ield         | OpenFOAM: The Open Source CFD Toolbox
   \\    /   O peration     | Website:  https://openfoam.org
    \\  /    A nd           | Version:  6.0
     \\/     M anipulation  |
\*---------------------------------------------------------------------------*/
FoamFile
{
    version     2.0;
    format      ascii;
    class       volScalarField;
    location    "17.4";
    object      p;
}
// * * * * * * * * * * * * * * * * * * * * * * * * * * * * * * * * * * * * * //

dimensions      [0 2 -2 0 0 0 0];

internalField   nonuniform List<scalar> 
8000
(
-0.275915
-0.277012
-0.277722
-0.278232
-0.278658
-0.279019
-0.27933
-0.279607
-0.27986
-0.280095
-0.28032
-0.280539
-0.280757
-0.280981
-0.281214
-0.281467
-0.281743
-0.282022
-0.282292
-0.282806
-0.276062
-0.277152
-0.277856
-0.27836
-0.27878
-0.279134
-0.279439
-0.279709
-0.279954
-0.280183
-0.280399
-0.28061
-0.28082
-0.281035
-0.28126
-0.281504
-0.281772
-0.282044
-0.282306
-0.282817
-0.276348
-0.277422
-0.278114
-0.278606
-0.279014
-0.279355
-0.279646
-0.279901
-0.280132
-0.280344
-0.280544
-0.280737
-0.280929
-0.281126
-0.281332
-0.281559
-0.28181
-0.282065
-0.282311
-0.282815
-0.276768
-0.27782
-0.278494
-0.278969
-0.279357
-0.279678
-0.279948
-0.280181
-0.280387
-0.280575
-0.280749
-0.280915
-0.281078
-0.281245
-0.281423
-0.28162
-0.281845
-0.282075
-0.282294
-0.282786
-0.277321
-0.278344
-0.278995
-0.279446
-0.279808
-0.280101
-0.280341
-0.280543
-0.280717
-0.28087
-0.281007
-0.281134
-0.281258
-0.281383
-0.281519
-0.281675
-0.281861
-0.282055
-0.282237
-0.282713
-0.278002
-0.278992
-0.279614
-0.280035
-0.280364
-0.280622
-0.280823
-0.280985
-0.281116
-0.281222
-0.281311
-0.281387
-0.281457
-0.281528
-0.281607
-0.281708
-0.281842
-0.281986
-0.282121
-0.282574
-0.278809
-0.279762
-0.280349
-0.280734
-0.281023
-0.281236
-0.281391
-0.281502
-0.281579
-0.281629
-0.281656
-0.281668
-0.281669
-0.281668
-0.281675
-0.281704
-0.281769
-0.281849
-0.281922
-0.282346
-0.279739
-0.280652
-0.281199
-0.281542
-0.281782
-0.281943
-0.282041
-0.282092
-0.282105
-0.282085
-0.282039
-0.281971
-0.281888
-0.281797
-0.281712
-0.281649
-0.281626
-0.281622
-0.281618
-0.282005
-0.280793
-0.281661
-0.282164
-0.282457
-0.282642
-0.282741
-0.282775
-0.282756
-0.282694
-0.282594
-0.28246
-0.282298
-0.282113
-0.281915
-0.281716
-0.281538
-0.281401
-0.28129
-0.281189
-0.28153
-0.281972
-0.282793
-0.283245
-0.28348
-0.283601
-0.283632
-0.283592
-0.283495
-0.283349
-0.283159
-0.282927
-0.282657
-0.282354
-0.282028
-0.281692
-0.281371
-0.281091
-0.280841
-0.280614
-0.280895
-0.283282
-0.284048
-0.284442
-0.284613
-0.284663
-0.284617
-0.284495
-0.284313
-0.284076
-0.283788
-0.283449
-0.28306
-0.282625
-0.282151
-0.281654
-0.28116
-0.280701
-0.280271
-0.279877
-0.280076
-0.284727
-0.285432
-0.285761
-0.285858
-0.285827
-0.285697
-0.285488
-0.285214
-0.284882
-0.284491
-0.28404
-0.283526
-0.282948
-0.282311
-0.281629
-0.280929
-0.280248
-0.279585
-0.278963
-0.27904
-0.286317
-0.286951
-0.287204
-0.287218
-0.287098
-0.286875
-0.286571
-0.286203
-0.285772
-0.285278
-0.284714
-0.284072
-0.283347
-0.282536
-0.281649
-0.280711
-0.27976
-0.278795
-0.277858
-0.277745
-0.288061
-0.288613
-0.288778
-0.288697
-0.288476
-0.288151
-0.287747
-0.287279
-0.286749
-0.286153
-0.285479
-0.284713
-0.283842
-0.282854
-0.281748
-0.280542
-0.27927
-0.277922
-0.276549
-0.276135
-0.28997
-0.290426
-0.290488
-0.290298
-0.289963
-0.289525
-0.289012
-0.288439
-0.287808
-0.287111
-0.286332
-0.285449
-0.284439
-0.283278
-0.281948
-0.280452
-0.278812
-0.276992
-0.275025
-0.274138
-0.292059
-0.292401
-0.292344
-0.292028
-0.291562
-0.290996
-0.290361
-0.289674
-0.288937
-0.288139
-0.287258
-0.286266
-0.285127
-0.283802
-0.282253
-0.280458
-0.278413
-0.276039
-0.273301
-0.2717
-0.294345
-0.294554
-0.294358
-0.293894
-0.293277
-0.292563
-0.29179
-0.290975
-0.290121
-0.289216
-0.288232
-0.287134
-0.285876
-0.284401
-0.282648
-0.280564
-0.278108
-0.275139
-0.271481
-0.268857
-0.296847
-0.296902
-0.296542
-0.295907
-0.295114
-0.29423
-0.293295
-0.292333
-0.291347
-0.290321
-0.289228
-0.288024
-0.286655
-0.285048
-0.283115
-0.280765
-0.277912
-0.274335
-0.269615
-0.265519
-0.299593
-0.299468
-0.298919
-0.298084
-0.297087
-0.296003
-0.294883
-0.29375
-0.292609
-0.291448
-0.290237
-0.288931
-0.28747
-0.285772
-0.283728
-0.281202
-0.278029
-0.273825
-0.267731
-0.261364
-0.302616
-0.302282
-0.301513
-0.300447
-0.299216
-0.297904
-0.296569
-0.29524
-0.293925
-0.292614
-0.291282
-0.289893
-0.288398
-0.286736
-0.284827
-0.282569
-0.279804
-0.276035
-0.269997
-0.262814
-0.305956
-0.30538
-0.304357
-0.303029
-0.301531
-0.299962
-0.298385
-0.296836
-0.295328
-0.293855
-0.292404
-0.290956
-0.289494
-0.288015
-0.28655
-0.285197
-0.284168
-0.28382
-0.285528
-0.296035
-0.309663
-0.308805
-0.307493
-0.305868
-0.304073
-0.302219
-0.300377
-0.298589
-0.296872
-0.295229
-0.293656
-0.292153
-0.290732
-0.289435
-0.288356
-0.287679
-0.287722
-0.288976
-0.292511
-0.30277
-0.313792
-0.312606
-0.310965
-0.309012
-0.306892
-0.304729
-0.302604
-0.300562
-0.298626
-0.296806
-0.295109
-0.293546
-0.292152
-0.290993
-0.290188
-0.289929
-0.290503
-0.292293
-0.295833
-0.303483
-0.318404
-0.316834
-0.314825
-0.312513
-0.310042
-0.307552
-0.305129
-0.302824
-0.300663
-0.298659
-0.296825
-0.295181
-0.293769
-0.29266
-0.291963
-0.291835
-0.292477
-0.294112
-0.296974
-0.302063
-0.323558
-0.321546
-0.319127
-0.316426
-0.313583
-0.31075
-0.30802
-0.305443
-0.303045
-0.300841
-0.298843
-0.297072
-0.295563
-0.294376
-0.293594
-0.293318
-0.29366
-0.294714
-0.296563
-0.299362
-0.329315
-0.326795
-0.323924
-0.320808
-0.317575
-0.314386
-0.311337
-0.308475
-0.305822
-0.303387
-0.301175
-0.299201
-0.297488
-0.296075
-0.295012
-0.294354
-0.294147
-0.294406
-0.295158
-0.296146
-0.335728
-0.332631
-0.329268
-0.325711
-0.322072
-0.318514
-0.315132
-0.311963
-0.30902
-0.3063
-0.3038
-0.301521
-0.299472
-0.297674
-0.296153
-0.29493
-0.294015
-0.293392
-0.293068
-0.292657
-0.342841
-0.339096
-0.335203
-0.331186
-0.327124
-0.323182
-0.319442
-0.31593
-0.31264
-0.309557
-0.306665
-0.303954
-0.301424
-0.299085
-0.296948
-0.295024
-0.293311
-0.291792
-0.290467
-0.288985
-0.350685
-0.346225
-0.341767
-0.337271
-0.33277
-0.328419
-0.324286
-0.320371
-0.316652
-0.313098
-0.309685
-0.306398
-0.303237
-0.30021
-0.29733
-0.294609
-0.292051
-0.289652
-0.287409
-0.285065
-0.359274
-0.354037
-0.348986
-0.343995
-0.339033
-0.334239
-0.329652
-0.32525
-0.320989
-0.31683
-0.312747
-0.308732
-0.304793
-0.300951
-0.29723
-0.293652
-0.290232
-0.286981
-0.283895
-0.280809
-0.368603
-0.362536
-0.35687
-0.351368
-0.345916
-0.340624
-0.3355
-0.330494
-0.325549
-0.320628
-0.315715
-0.310822
-0.305977
-0.301219
-0.296589
-0.292122
-0.287844
-0.283774
-0.279903
-0.27614
-0.378642
-0.371704
-0.365406
-0.359375
-0.353391
-0.347523
-0.341748
-0.335992
-0.330198
-0.324343
-0.318442
-0.312535
-0.306679
-0.300935
-0.29536
-0.289998
-0.284879
-0.280025
-0.275419
-0.271013
-0.389334
-0.381496
-0.374558
-0.367973
-0.361395
-0.354847
-0.348274
-0.341594
-0.334768
-0.32781
-0.320774
-0.313742
-0.306802
-0.300034
-0.293505
-0.287261
-0.281332
-0.275732
-0.270433
-0.265416
-0.400586
-0.391839
-0.384255
-0.377081
-0.369825
-0.362461
-0.354914
-0.347117
-0.339074
-0.330853
-0.322563
-0.314328
-0.306262
-0.298461
-0.290993
-0.283898
-0.277199
-0.270897
-0.264947
-0.25935
-0.412272
-0.402621
-0.394389
-0.386576
-0.37853
-0.370183
-0.361465
-0.352352
-0.342916
-0.333298
-0.323667
-0.314185
-0.304987
-0.296171
-0.287798
-0.279897
-0.272473
-0.265517
-0.25896
-0.252823
-0.424224
-0.413694
-0.404809
-0.396289
-0.387314
-0.377792
-0.367693
-0.357071
-0.346092
-0.334979
-0.323959
-0.313223
-0.302914
-0.293122
-0.283893
-0.275237
-0.267144
-0.259584
-0.252468
-0.24584
-0.436234
-0.424868
-0.415321
-0.406003
-0.395934
-0.38503
-0.373343
-0.361043
-0.348405
-0.33574
-0.32332
-0.311355
-0.299981
-0.289271
-0.279246
-0.269897
-0.261192
-0.253084
-0.245459
-0.238394
-0.448053
-0.43591
-0.425684
-0.415457
-0.404109
-0.391613
-0.378149
-0.364035
-0.349669
-0.335437
-0.321646
-0.308505
-0.296132
-0.284572
-0.273822
-0.263844
-0.25459
-0.245992
-0.237914
-0.230473
-0.459395
-0.446547
-0.435618
-0.42435
-0.411529
-0.39724
-0.381844
-0.365827
-0.349709
-0.333939
-0.318837
-0.304598
-0.291307
-0.278979
-0.267577
-0.257042
-0.247305
-0.23828
-0.229806
-0.222053
-0.469941
-0.456471
-0.444803
-0.43235
-0.417864
-0.40161
-0.384169
-0.366212
-0.348368
-0.331127
-0.314804
-0.299562
-0.285448
-0.272438
-0.260467
-0.24945
-0.2393
-0.229912
-0.221104
-0.213107
-0.479345
-0.465343
-0.452891
-0.439103
-0.422778
-0.404425
-0.384883
-0.365002
-0.345503
-0.326893
-0.309462
-0.293327
-0.278493
-0.264897
-0.252443
-0.241023
-0.230534
-0.22085
-0.211774
-0.203603
-0.48724
-0.472804
-0.459517
-0.444248
-0.425939
-0.405406
-0.383763
-0.362029
-0.340988
-0.321141
-0.302731
-0.285827
-0.270385
-0.256304
-0.243457
-0.231718
-0.220967
-0.21106
-0.201782
-0.19351
-0.493254
-0.478481
-0.464306
-0.447429
-0.427035
-0.404299
-0.380615
-0.357147
-0.334714
-0.313781
-0.294541
-0.277
-0.261068
-0.246607
-0.233464
-0.221493
-0.210562
-0.200505
-0.191097
-0.182797
-0.497016
-0.482005
-0.466893
-0.448307
-0.425778
-0.400879
-0.375272
-0.350232
-0.326583
-0.30474
-0.284825
-0.266788
-0.250491
-0.235761
-0.222421
-0.21031
-0.199284
-0.189154
-0.179692
-0.171439
-0.498168
-0.483017
-0.466928
-0.446571
-0.421917
-0.394956
-0.367594
-0.341183
-0.316519
-0.29395
-0.273527
-0.255141
-0.238607
-0.223724
-0.210294
-0.198139
-0.187105
-0.176985
-0.167545
-0.159416
-0.496378
-0.481181
-0.464094
-0.441947
-0.415239
-0.386377
-0.357472
-0.329918
-0.304459
-0.281361
-0.260603
-0.242018
-0.225382
-0.210466
-0.197053
-0.184954
-0.174004
-0.163978
-0.154643
-0.146716
-0.491346
-0.476198
-0.458113
-0.43421
-0.405578
-0.375026
-0.344829
-0.316383
-0.290357
-0.266933
-0.246017
-0.227389
-0.210788
-0.195962
-0.182678
-0.170739
-0.159969
-0.150124
-0.140979
-0.133333
-0.482819
-0.46781
-0.448756
-0.423182
-0.392814
-0.360828
-0.329616
-0.300542
-0.274187
-0.250645
-0.22975
-0.211234
-0.194809
-0.180199
-0.16716
-0.155487
-0.144994
-0.135422
-0.126554
-0.119269
-0.470594
-0.455815
-0.435849
-0.408741
-0.376873
-0.343744
-0.311814
-0.282385
-0.255942
-0.232487
-0.211792
-0.193547
-0.177437
-0.163172
-0.150496
-0.139198
-0.129084
-0.11988
-0.11138
-0.104533
-0.454524
-0.440067
-0.41928
-0.390822
-0.35773
-0.323774
-0.291434
-0.261927
-0.235632
-0.212468
-0.19215
-0.174333
-0.15868
-0.144887
-0.132694
-0.121883
-0.112253
-0.103516
-0.0954808
-0.0891528
-0.434526
-0.420482
-0.398996
-0.369414
-0.335409
-0.300958
-0.268518
-0.239203
-0.213289
-0.190615
-0.170846
-0.153609
-0.138551
-0.12536
-0.113768
-0.103558
-0.0945199
-0.086355
-0.0788877
-0.0731668
-0.41058
-0.397044
-0.375009
-0.344565
-0.309977
-0.275368
-0.243135
-0.214277
-0.188965
-0.16697
-0.147916
-0.131406
-0.117077
-0.104611
-0.0937406
-0.0842442
-0.0759069
-0.0684246
-0.0616374
-0.0566191
-0.382734
-0.369799
-0.347391
-0.316373
-0.281545
-0.247114
-0.215384
-0.187233
-0.162734
-0.141595
-0.123409
-0.107763
-0.0942898
-0.0826693
-0.0726335
-0.0639614
-0.0564349
-0.0497501
-0.043762
-0.0395331
-0.351098
-0.33886
-0.316276
-0.284987
-0.250265
-0.216339
-0.185396
-0.158184
-0.13469
-0.114569
-0.0973901
-0.0827338
-0.0702308
-0.0595646
-0.0504703
-0.0427291
-0.0361236
-0.0303563
-0.0252854
-0.0219004
-0.315844
-0.304399
-0.281851
-0.250606
-0.216331
-0.183222
-0.153325
-0.127267
-0.104951
-0.0859917
-0.0699419
-0.0563815
-0.0449462
-0.0353276
-0.0272688
-0.0205574
-0.0149827
-0.010257
-0.00621746
-0.00372061
-0.277204
-0.266646
-0.244355
-0.21347
-0.17997
-0.14797
-0.11936
-0.0946467
-0.0736603
-0.0559851
-0.0411653
-0.0287862
-0.0184939
-0.00999399
-0.00304463
0.00255432
0.00700125
0.0105669
0.0134368
0.0148776
-0.235462
-0.225883
-0.204074
-0.173858
-0.141445
-0.110822
-0.083715
-0.0605133
-0.0409866
-0.0246953
-0.011183
-4.56408e-05
0.00905368
0.0163876
0.0221751
0.0266003
0.0298449
0.0321242
0.0335594
0.033498
-0.19095
-0.182438
-0.161334
-0.132085
-0.101049
-0.0720464
-0.0466321
-0.0250865
-0.00712538
0.0077071
0.0198633
0.0297322
0.0376267
0.0437869
0.0483976
0.0516214
0.0535995
0.0543719
0.05383
0.0516972
-0.144041
-0.136678
-0.116496
-0.0884935
-0.0591003
-0.0319364
-0.00838212
0.0113843
0.027694
0.0410164
0.0517999
0.0604201
0.0671672
0.0722469
0.0758069
0.0779783
0.0787877
0.0778789
0.0747874
0.0705292
-0.0951408
-0.0890005
-0.0699473
-0.0434512
-0.0159399
0.00919227
0.0307393
0.0486182
0.0632014
0.0749711
0.0843767
0.0917918
0.0975039
0.101718
0.104593
0.106278
0.106676
0.104937
0.100361
0.0957462
-0.0446831
-0.0398306
-0.0220954
0.00265939
0.0280771
0.051009
0.07042
0.0863132
0.0990958
0.109259
0.117253
0.123456
0.12817
0.131637
0.134101
0.135839
0.136825
0.136076
0.133332
0.136873
0.00688872
0.0103962
0.0266406
0.0494463
0.0725882
0.0931769
0.110342
0.124163
0.135074
0.143567
0.150087
0.155006
0.158625
0.161197
0.162985
0.16425
0.16498
0.164703
0.164315
0.170009
0.0591127
0.0612296
0.0758331
0.0965131
0.117229
0.135359
0.15019
0.161868
0.170845
0.177611
0.182601
0.186176
0.188632
0.190223
0.191195
0.191771
0.191934
0.191389
0.191045
0.195627
0.111524
0.112217
0.125055
0.143466
0.161639
0.177225
0.189657
0.199139
0.206133
0.211121
0.21452
0.216678
0.217877
0.218357
0.218348
0.218045
0.217446
0.216326
0.215433
0.218519
0.163659
0.162909
0.173882
0.189917
0.205467
0.218454
0.228449
0.235705
0.240688
0.243864
0.245634
0.246326
0.246202
0.245483
0.244374
0.243043
0.241472
0.239465
0.237711
0.239402
0.215062
0.212863
0.221903
0.23549
0.248372
0.258738
0.266287
0.271311
0.274274
0.275628
0.275751
0.274948
0.273463
0.271497
0.269233
0.266809
0.264194
0.261215
0.258523
0.258877
0.265287
0.261648
0.268714
0.279821
0.290026
0.297782
0.302904
0.305716
0.306678
0.306221
0.304701
0.302403
0.299548
0.296318
0.292874
0.289331
0.285648
0.281677
0.278044
0.277136
0.313905
0.308848
0.313932
0.322561
0.330118
0.335307
0.33805
0.338696
0.337697
0.335464
0.332331
0.328559
0.324353
0.319873
0.31526
0.310612
0.30588
0.300944
0.296395
0.294285
0.360502
0.354067
0.357189
0.363379
0.368351
0.371047
0.371485
0.370036
0.36714
0.363189
0.358493
0.353293
0.347774
0.34208
0.336334
0.330616
0.324878
0.319022
0.313595
0.310347
0.404688
0.396928
0.398137
0.401963
0.404446
0.404752
0.402986
0.399536
0.39483
0.389237
0.383048
0.376483
0.36971
0.362857
0.35603
0.349296
0.342607
0.335888
0.329629
0.325307
0.446096
0.437078
0.436453
0.438021
0.43814
0.436187
0.432343
0.427007
0.420595
0.413456
0.405861
0.398011
0.390058
0.382114
0.374273
0.366587
0.359014
0.351494
0.344456
0.339126
0.484384
0.47419
0.471834
0.471281
0.469192
0.465135
0.459359
0.452272
0.444277
0.435704
0.426804
0.417763
0.408715
0.399762
0.390982
0.382419
0.374034
0.365781
0.358022
0.351758
0.51924
0.507965
0.504005
0.501495
0.497379
0.491396
0.483854
0.475168
0.465728
0.455846
0.445756
0.435628
0.425583
0.415711
0.406078
0.396718
0.387601
0.378685
0.370268
0.363149
0.550379
0.53813
0.532717
0.528439
0.522499
0.514787
0.505664
0.495546
0.484813
0.473759
0.462605
0.451505
0.44057
0.429876
0.419482
0.409413
0.399644
0.390142
0.381135
0.373247
0.577551
0.564444
0.557748
0.551915
0.544373
0.535148
0.524641
0.513272
0.501408
0.489332
0.477248
0.4653
0.453588
0.442179
0.431121
0.420435
0.410101
0.400088
0.390565
0.382003
0.600535
0.586699
0.578907
0.571747
0.562846
0.552337
0.540658
0.528229
0.515409
0.502467
0.489596
0.476931
0.464561
0.452547
0.440928
0.429722
0.418912
0.40847
0.398507
0.389371
0.619149
0.604719
0.596032
0.587792
0.577785
0.566235
0.553605
0.540317
0.526722
0.513078
0.499571
0.486324
0.473423
0.460919
0.448847
0.43722
0.426026
0.415237
0.404918
0.395314
0.633242
0.61836
0.608992
0.599931
0.589085
0.576745
0.563394
0.549456
0.535274
0.521099
0.507109
0.493423
0.480118
0.467244
0.454829
0.442884
0.4314
0.420349
0.409758
0.3998
0.642702
0.627516
0.617688
0.608075
0.596664
0.583794
0.569959
0.555584
0.541008
0.526477
0.512163
0.498182
0.484607
0.471484
0.458839
0.446681
0.435002
0.423775
0.413002
0.402805
0.647453
0.632115
0.622056
0.612164
0.60047
0.587333
0.573255
0.558661
0.543886
0.529176
0.5147
0.50057
0.48686
0.473612
0.460851
0.448586
0.43681
0.425495
0.41463
0.404312
0.647458
0.63212
0.62206
0.612169
0.600474
0.587337
0.573259
0.558664
0.54389
0.52918
0.514703
0.500573
0.486863
0.473615
0.460854
0.448589
0.436813
0.425498
0.414633
0.404315
0.642717
0.627531
0.617703
0.608089
0.596677
0.583806
0.569971
0.555595
0.541018
0.526487
0.512173
0.498191
0.484616
0.471493
0.458847
0.446689
0.43501
0.423783
0.41301
0.402812
0.633267
0.618385
0.609015
0.599954
0.589106
0.576765
0.563414
0.549475
0.535291
0.521116
0.507126
0.493439
0.480134
0.467259
0.454844
0.442899
0.431414
0.420363
0.409772
0.399813
0.619184
0.604753
0.596065
0.587824
0.577815
0.566263
0.553632
0.540343
0.526747
0.513103
0.499594
0.486347
0.473444
0.46094
0.448867
0.43724
0.426045
0.415256
0.404936
0.395332
0.600581
0.586744
0.578949
0.571788
0.562884
0.552374
0.540693
0.528262
0.515441
0.502498
0.489626
0.47696
0.464589
0.452574
0.440954
0.429748
0.418937
0.408494
0.398531
0.389394
0.577606
0.564498
0.5578
0.551964
0.54442
0.535193
0.524684
0.513313
0.501448
0.48937
0.477285
0.465336
0.453622
0.442212
0.431153
0.420467
0.410132
0.400118
0.390594
0.382031
0.550444
0.538193
0.532778
0.528498
0.522554
0.51484
0.505714
0.495594
0.484859
0.473804
0.462648
0.451547
0.44061
0.429916
0.41952
0.40945
0.399681
0.390177
0.381169
0.37328
0.519314
0.508038
0.504076
0.501562
0.497442
0.491457
0.483912
0.475224
0.465781
0.455897
0.445806
0.435676
0.42563
0.415756
0.406122
0.396761
0.387642
0.378726
0.370308
0.363187
0.484468
0.474273
0.471914
0.471357
0.469264
0.465204
0.459425
0.452335
0.444337
0.435762
0.42686
0.417817
0.408768
0.399813
0.391032
0.382467
0.374082
0.365827
0.358067
0.351801
0.44619
0.437171
0.436542
0.438106
0.438221
0.436264
0.432416
0.427077
0.420662
0.413521
0.405923
0.398072
0.390116
0.382171
0.374328
0.366641
0.359067
0.351545
0.344507
0.339175
0.404792
0.39703
0.398236
0.402057
0.404535
0.404836
0.403067
0.399613
0.394904
0.389308
0.383117
0.37655
0.369775
0.36292
0.356092
0.349355
0.342665
0.335945
0.329685
0.325361
0.360615
0.354178
0.357296
0.363482
0.368448
0.37114
0.371574
0.370121
0.367222
0.363267
0.358568
0.353366
0.347845
0.342149
0.336402
0.330681
0.324941
0.319084
0.313656
0.310406
0.314027
0.308969
0.314049
0.322672
0.330224
0.335408
0.338146
0.338788
0.337785
0.335549
0.332413
0.328639
0.32443
0.319947
0.315333
0.310683
0.305949
0.301012
0.296461
0.294349
0.26542
0.261778
0.26884
0.27994
0.29014
0.29789
0.303008
0.305815
0.306773
0.306312
0.30479
0.302488
0.299631
0.296399
0.292952
0.289407
0.285722
0.28175
0.278115
0.277205
0.215204
0.213002
0.222037
0.235618
0.248493
0.258854
0.266398
0.271417
0.274377
0.275726
0.275846
0.27504
0.273553
0.271584
0.269317
0.266891
0.264274
0.261293
0.258599
0.258951
0.16381
0.163057
0.174025
0.190054
0.205597
0.218577
0.228568
0.235819
0.240797
0.243969
0.245736
0.246424
0.246297
0.245575
0.244464
0.24313
0.241557
0.239549
0.237792
0.239481
0.111683
0.112374
0.125206
0.143611
0.161777
0.177356
0.189782
0.199259
0.206249
0.211232
0.214628
0.216783
0.217979
0.218456
0.218444
0.218139
0.217537
0.216415
0.21552
0.218603
0.0592808
0.0613952
0.0759932
0.096666
0.117374
0.135498
0.150323
0.161995
0.170968
0.177729
0.182715
0.186287
0.18874
0.190327
0.191297
0.191871
0.192031
0.191484
0.191138
0.195717
0.00706535
0.0105702
0.026809
0.0496073
0.0727415
0.0933231
0.110482
0.124297
0.135203
0.143691
0.150208
0.155123
0.158739
0.161308
0.163093
0.164355
0.165083
0.164804
0.164414
0.170104
-0.0444982
-0.0396483
-0.0219189
0.00282822
0.0282381
0.0511626
0.0705669
0.0864542
0.0992316
0.10939
0.11738
0.123579
0.128289
0.131753
0.134215
0.135951
0.136933
0.136182
0.133438
0.136976
-0.0949479
-0.0888102
-0.0697629
-0.0432746
-0.0157715
0.00935302
0.0308932
0.0487659
0.0633438
0.0751087
0.0845099
0.0919212
0.0976299
0.10184
0.104713
0.106396
0.106792
0.105051
0.100473
0.0958579
-0.14384
-0.136479
-0.116304
-0.0883095
-0.0589246
-0.0317686
-0.00822145
0.0115386
0.0278427
0.0411602
0.0519393
0.0605556
0.0672991
0.0723757
0.0759329
0.0781018
0.0789091
0.0779984
0.0749056
0.070647
-0.190742
-0.182233
-0.161135
-0.131893
-0.100866
-0.0718718
-0.0464648
-0.0249257
-0.00697034
0.00785704
0.0200087
0.0298735
0.0377644
0.0439214
0.0485292
0.0517504
0.0537263
0.0544967
0.0539531
0.0518193
-0.235247
-0.225671
-0.203867
-0.173659
-0.141256
-0.110641
-0.0835412
-0.0603463
-0.0408254
-0.0245394
-0.0110318
0.000101396
0.00919697
0.0165276
0.022312
0.0267345
0.0299766
0.0322538
0.033687
0.0336242
-0.276982
-0.266427
-0.244141
-0.213265
-0.179774
-0.147782
-0.11918
-0.0944736
-0.0734933
-0.0558234
-0.0410085
-0.0286336
-0.0183452
-0.0098488
-0.00290259
0.0026935
0.00713783
0.010701
0.0135687
0.0150079
-0.315616
-0.304173
-0.281631
-0.250395
-0.216128
-0.183028
-0.153139
-0.127088
-0.104778
-0.0858245
-0.0697796
-0.0562237
-0.0447924
-0.0351773
-0.0271219
-0.0204134
-0.0148414
-0.0101184
-0.00608116
-0.00358609
-0.350864
-0.338628
-0.31605
-0.28477
-0.250057
-0.21614
-0.185204
-0.158
-0.134512
-0.114397
-0.0972225
-0.0825708
-0.0700719
-0.0594094
-0.0503186
-0.0425805
-0.0359778
-0.0302132
-0.0251449
-0.0217618
-0.382495
-0.369562
-0.34716
-0.31615
-0.281331
-0.246908
-0.215187
-0.187043
-0.16255
-0.141418
-0.123236
-0.107595
-0.094126
-0.0825094
-0.0724771
-0.0638083
-0.0562848
-0.0496028
-0.0436173
-0.0393905
-0.410336
-0.396802
-0.374772
-0.344336
-0.309757
-0.275157
-0.242932
-0.214081
-0.188777
-0.166788
-0.147738
-0.131233
-0.116908
-0.104447
-0.0935797
-0.0840866
-0.0757524
-0.0682731
-0.0614886
-0.0564725
-0.434277
-0.420236
-0.398754
-0.369181
-0.335185
-0.300742
-0.26831
-0.239003
-0.213095
-0.190427
-0.170664
-0.153432
-0.138378
-0.125191
-0.113603
-0.103396
-0.0943611
-0.0861993
-0.0787348
-0.0730163
-0.454271
-0.439816
-0.419034
-0.390584
-0.357501
-0.323554
-0.291222
-0.261722
-0.235433
-0.212276
-0.191963
-0.174151
-0.158502
-0.144714
-0.132524
-0.121717
-0.11209
-0.103356
-0.0953238
-0.0889983
-0.470338
-0.455561
-0.4356
-0.408499
-0.376639
-0.343519
-0.311597
-0.282176
-0.255739
-0.23229
-0.2116
-0.193361
-0.177256
-0.162994
-0.150322
-0.139028
-0.128917
-0.119716
-0.111219
-0.104375
-0.482561
-0.467554
-0.448503
-0.422936
-0.392576
-0.360599
-0.329395
-0.300328
-0.27398
-0.250444
-0.229554
-0.211044
-0.194623
-0.180017
-0.166982
-0.155312
-0.144823
-0.135254
-0.126389
-0.119106
-0.491085
-0.475939
-0.457858
-0.433961
-0.405337
-0.374793
-0.344604
-0.316165
-0.290146
-0.266728
-0.245818
-0.227194
-0.210598
-0.195776
-0.182496
-0.170561
-0.159794
-0.149952
-0.140809
-0.133167
-0.496115
-0.48092
-0.463837
-0.441696
-0.414995
-0.386141
-0.357244
-0.329697
-0.304244
-0.281152
-0.260399
-0.241819
-0.225188
-0.210276
-0.196866
-0.184771
-0.173825
-0.163801
-0.15447
-0.146546
-0.497904
-0.482755
-0.46667
-0.446317
-0.42167
-0.394717
-0.367362
-0.340958
-0.316301
-0.293737
-0.27332
-0.254938
-0.238409
-0.22353
-0.210103
-0.197952
-0.186921
-0.176804
-0.167368
-0.159241
-0.496751
-0.481743
-0.466633
-0.448052
-0.42553
-0.400637
-0.375037
-0.350004
-0.326361
-0.304523
-0.284613
-0.266581
-0.250288
-0.235563
-0.222227
-0.210119
-0.199096
-0.18897
-0.17951
-0.17126
-0.492989
-0.478219
-0.464046
-0.447174
-0.426785
-0.404055
-0.380378
-0.356916
-0.334489
-0.313562
-0.294326
-0.27679
-0.260862
-0.246405
-0.233266
-0.221298
-0.21037
-0.200316
-0.190911
-0.182613
-0.486976
-0.472542
-0.459257
-0.443992
-0.425688
-0.405161
-0.383523
-0.361795
-0.340761
-0.320918
-0.302514
-0.285614
-0.270176
-0.256098
-0.243255
-0.231518
-0.220771
-0.210866
-0.201592
-0.193322
-0.479082
-0.465082
-0.452632
-0.438847
-0.422526
-0.404178
-0.384641
-0.364766
-0.345272
-0.326668
-0.309241
-0.29311
-0.27828
-0.264688
-0.252237
-0.24082
-0.230334
-0.220653
-0.211579
-0.203411
-0.46968
-0.456211
-0.444545
-0.432094
-0.417612
-0.401362
-0.383927
-0.365974
-0.348135
-0.330899
-0.31458
-0.299342
-0.285231
-0.272225
-0.260257
-0.249242
-0.239095
-0.229709
-0.220904
-0.21291
-0.459135
-0.446289
-0.435361
-0.424096
-0.411278
-0.396993
-0.381601
-0.365588
-0.349474
-0.333708
-0.318611
-0.304375
-0.291087
-0.278762
-0.267363
-0.256831
-0.247096
-0.238073
-0.229601
-0.221851
-0.447795
-0.435653
-0.42543
-0.415205
-0.403859
-0.391365
-0.377906
-0.363795
-0.349432
-0.335204
-0.321417
-0.308279
-0.295909
-0.284352
-0.273604
-0.263628
-0.254376
-0.245781
-0.237704
-0.230265
-0.435978
-0.424614
-0.415068
-0.405752
-0.395685
-0.384783
-0.3731
-0.360802
-0.348168
-0.335505
-0.323089
-0.311126
-0.299755
-0.289046
-0.279024
-0.269677
-0.260973
-0.252867
-0.245244
-0.238181
-0.42397
-0.413443
-0.404558
-0.39604
-0.387067
-0.377547
-0.36745
-0.356831
-0.345854
-0.334743
-0.323725
-0.312991
-0.302684
-0.292894
-0.283667
-0.275013
-0.266921
-0.259363
-0.252248
-0.245621
-0.412021
-0.402372
-0.39414
-0.386329
-0.378285
-0.369939
-0.361222
-0.352111
-0.342677
-0.333061
-0.323432
-0.313951
-0.304755
-0.29594
-0.287567
-0.279667
-0.272245
-0.26529
-0.258734
-0.252598
-0.400338
-0.391592
-0.384009
-0.376837
-0.369582
-0.362218
-0.354673
-0.346877
-0.338835
-0.330615
-0.322326
-0.314091
-0.306027
-0.298226
-0.290758
-0.283665
-0.276965
-0.270664
-0.264715
-0.259118
-0.389088
-0.381252
-0.374315
-0.367731
-0.361154
-0.354607
-0.348035
-0.341355
-0.33453
-0.327572
-0.320536
-0.313504
-0.306564
-0.299795
-0.293266
-0.287022
-0.281093
-0.275494
-0.270195
-0.265177
-0.378399
-0.371462
-0.365166
-0.359135
-0.353152
-0.347285
-0.341511
-0.335754
-0.32996
-0.324105
-0.318203
-0.312295
-0.306438
-0.300694
-0.295118
-0.289754
-0.284635
-0.27978
-0.275173
-0.270768
-0.368362
-0.362297
-0.356631
-0.35113
-0.34568
-0.340388
-0.335264
-0.330258
-0.325313
-0.32039
-0.315476
-0.310581
-0.305734
-0.300975
-0.296343
-0.291874
-0.287594
-0.283523
-0.279651
-0.275886
-0.359035
-0.3538
-0.34875
-0.34376
-0.338799
-0.334005
-0.329419
-0.325016
-0.320753
-0.316592
-0.312507
-0.30849
-0.304548
-0.300703
-0.296979
-0.293398
-0.289976
-0.286723
-0.283635
-0.280548
-0.350448
-0.34599
-0.341533
-0.337039
-0.332538
-0.328188
-0.324054
-0.320138
-0.316418
-0.312862
-0.309445
-0.306155
-0.30299
-0.299959
-0.297075
-0.29435
-0.291789
-0.289387
-0.287141
-0.284795
-0.342606
-0.338862
-0.33497
-0.330955
-0.326894
-0.322952
-0.319213
-0.315699
-0.312408
-0.309322
-0.306426
-0.30371
-0.301176
-0.298831
-0.29669
-0.29476
-0.293043
-0.29152
-0.290191
-0.288706
-0.335494
-0.332398
-0.329037
-0.325482
-0.321844
-0.318287
-0.314904
-0.311734
-0.308788
-0.306065
-0.303561
-0.301276
-0.299222
-0.297418
-0.29589
-0.294661
-0.293741
-0.293113
-0.292783
-0.292369
-0.329082
-0.326564
-0.323694
-0.320579
-0.317348
-0.31416
-0.31111
-0.308247
-0.305591
-0.303152
-0.300935
-0.298955
-0.297235
-0.295815
-0.294745
-0.29408
-0.293866
-0.294119
-0.294865
-0.295848
-0.323325
-0.321315
-0.318898
-0.316199
-0.313357
-0.310525
-0.307794
-0.305215
-0.302815
-0.300606
-0.298602
-0.296824
-0.295308
-0.294113
-0.293322
-0.293038
-0.293372
-0.294418
-0.296261
-0.299054
-0.31817
-0.316603
-0.314596
-0.312286
-0.309817
-0.307327
-0.304903
-0.302596
-0.300432
-0.298423
-0.296582
-0.294931
-0.293511
-0.292393
-0.291686
-0.291548
-0.292181
-0.293807
-0.296661
-0.301744
-0.313558
-0.312375
-0.310736
-0.308785
-0.306666
-0.304503
-0.302377
-0.300333
-0.298394
-0.296569
-0.294864
-0.293294
-0.29189
-0.290722
-0.289906
-0.289636
-0.2902
-0.291979
-0.29551
-0.303152
-0.309429
-0.308574
-0.307264
-0.305641
-0.303847
-0.301993
-0.30015
-0.298359
-0.296637
-0.294988
-0.293408
-0.291897
-0.290466
-0.289159
-0.288068
-0.287379
-0.28741
-0.288652
-0.292177
-0.302428
-0.305721
-0.305149
-0.304129
-0.302802
-0.301305
-0.299735
-0.298156
-0.296604
-0.295091
-0.293612
-0.292153
-0.290696
-0.289223
-0.287734
-0.286256
-0.28489
-0.283848
-0.283486
-0.285183
-0.295679
-0.302381
-0.302052
-0.301285
-0.300221
-0.298989
-0.297677
-0.296339
-0.295006
-0.293685
-0.292367
-0.291027
-0.289628
-0.288123
-0.286449
-0.284528
-0.282256
-0.279476
-0.275692
-0.269638
-0.26244
-0.29936
-0.29924
-0.298692
-0.297858
-0.296861
-0.295776
-0.294652
-0.293515
-0.292368
-0.291199
-0.289979
-0.288663
-0.287191
-0.285481
-0.283424
-0.280885
-0.277697
-0.273478
-0.26737
-0.260989
-0.296616
-0.296676
-0.296319
-0.295684
-0.29489
-0.294003
-0.293065
-0.292098
-0.291105
-0.290071
-0.288968
-0.287754
-0.286374
-0.284754
-0.282808
-0.280445
-0.277578
-0.273987
-0.269255
-0.265145
-0.294118
-0.294332
-0.294137
-0.293674
-0.293056
-0.29234
-0.291562
-0.290741
-0.28988
-0.288966
-0.287972
-0.286864
-0.285594
-0.284107
-0.282341
-0.280244
-0.277774
-0.274792
-0.271122
-0.268486
-0.291838
-0.292184
-0.292129
-0.291813
-0.291346
-0.290776
-0.290136
-0.289443
-0.288699
-0.287891
-0.287001
-0.285997
-0.284847
-0.283509
-0.281947
-0.28014
-0.278082
-0.275696
-0.272947
-0.271334
-0.289756
-0.290216
-0.29028
-0.290089
-0.289752
-0.28931
-0.288792
-0.288213
-0.287574
-0.286868
-0.286079
-0.285185
-0.284163
-0.28299
-0.281647
-0.28014
-0.278486
-0.276654
-0.274678
-0.273778
-0.287856
-0.288411
-0.288577
-0.288495
-0.288272
-0.287943
-0.287534
-0.28706
-0.286522
-0.285917
-0.285233
-0.284456
-0.283574
-0.282574
-0.281455
-0.280237
-0.278953
-0.277594
-0.27621
-0.275784
-0.286122
-0.28676
-0.287013
-0.287026
-0.286903
-0.286676
-0.286368
-0.285993
-0.285554
-0.285052
-0.284478
-0.283825
-0.283089
-0.282267
-0.281368
-0.280418
-0.279455
-0.278478
-0.277531
-0.277405
-0.284545
-0.285252
-0.285581
-0.285677
-0.285643
-0.285509
-0.285295
-0.285015
-0.284675
-0.284276
-0.283815
-0.283291
-0.282703
-0.282055
-0.281361
-0.28065
-0.279958
-0.279283
-0.278651
-0.278715
-0.283113
-0.28388
-0.284275
-0.284444
-0.284491
-0.284441
-0.284315
-0.284126
-0.283882
-0.283586
-0.283238
-0.28284
-0.282395
-0.281911
-0.281402
-0.280898
-0.280428
-0.279987
-0.279583
-0.279768
-0.281818
-0.282638
-0.28309
-0.283324
-0.283443
-0.28347
-0.283425
-0.283322
-0.283169
-0.282972
-0.282732
-0.282453
-0.282141
-0.281804
-0.281458
-0.281127
-0.280837
-0.280576
-0.280339
-0.280608
-0.280653