1.22 	3.45254e-18 	-6.98323e-18 	-0.456758 	0.00832452 	-1.38863e-21
1.66 	3.45254e-18 	-6.96118e-18 	-0.543962 	-0.00340299 	-1.22223e-22
2.1 	3.45254e-18 	-6.93894e-18 	-0.218489 	-0.00870761 	-1.44832e-21
2.54 	3.45254e-18 	-8.30431e-18 	-0.0265265 	-0.00813144 	2.04472e-23
2.98 	3.45254e-18 	-8.28171e-18 	0.235307 	-0.00804765 	-3.01703e-22
3.42 	3.45254e-18 	-6.87115e-18 	0.416038 	-0.00634083 	-6.07983e-22
3.86 	3.45254e-18 	-6.84819e-18 	0.570439 	-0.00487266 	-1.29972e-22
4.3 	3.45254e-18 	-6.82504e-18 	0.676547 	-0.00356807 	-5.36663e-22
4.74 	3.45254e-18 	-5.41391e-18 	0.759884 	-0.00270173 	3.07108e-22
5.18 	3.45254e-18 	-2.61482e-18 	0.824074 	-0.00203622 	1.5669e-22
5.62 	3.45254e-18 	-1.2033e-18 	0.874184 	-0.00150231 	-6.46383e-23
6.06 	3.45254e-18 	-1.17937e-18 	0.911483 	-0.00107144 	-1.62918e-22
6.5 	3.45254e-18 	-1.15524e-18 	0.938415 	-0.000740289 	7.50889e-23
