/*--------------------------------*- C++ -*----------------------------------*\
  =========                 |
  \\      /  F ield         | OpenFOAM: The Open Source CFD Toolbox
   \\    /   O peration     | Website:  https://openfoam.org
    \\  /    A nd           | Version:  6.0
     \\/     M anipulation  |
\*---------------------------------------------------------------------------*/
FoamFile
{
    version     2.0;
    format      ascii;
    class       volVectorField;
    location    "38";
    object      U;
}
// * * * * * * * * * * * * * * * * * * * * * * * * * * * * * * * * * * * * * //

dimensions      [0 1 -1 0 0 0 0];

internalField   nonuniform List<vector> 
4000
(
(-0.000419555 0.000314925 -3.25131e-21)
(-0.00232465 0.000829668 1.73781e-20)
(-0.00586459 0.0012187 -2.11343e-20)
(-0.0102182 0.00150163 1.60925e-20)
(-0.0149511 0.00169531 7.83581e-21)
(-0.0198141 0.00181554 -2.35294e-20)
(-0.0246284 0.001878 -2.0796e-21)
(-0.0292779 0.00189756 -7.37988e-22)
(-0.0336987 0.00188795 -1.22102e-20)
(-0.0378646 0.00186162 -6.61448e-21)
(-0.0417776 0.00182968 4.93366e-21)
(-0.0454602 0.00180184 1.87538e-20)
(-0.0489484 0.00178635 -1.40591e-21)
(-0.0522871 0.00179004 2.00746e-21)
(-0.0555265 0.00181821 -1.88839e-20)
(-0.0587264 0.00187459 1.16343e-20)
(-0.0619472 0.00196145 -1.6667e-20)
(-0.0651698 0.0020812 2.5219e-20)
(-0.068274 0.00223709 -2.81499e-23)
(-0.071821 0.00241912 5.43926e-21)
(-0.000490621 0.00128818 1.07959e-20)
(-0.00250548 0.00326729 -5.5163e-20)
(-0.00612456 0.00469104 -3.80955e-20)
(-0.0105295 0.00567016 -2.58703e-20)
(-0.015289 0.00629469 -3.32771e-20)
(-0.0201566 0.00664186 7.32838e-21)
(-0.0249562 0.00678089 -3.84111e-20)
(-0.0295738 0.00677246 -8.6256e-21)
(-0.0339473 0.00666914 2.72879e-21)
(-0.0380521 0.00651613 2.87097e-20)
(-0.0418913 0.00635197 -3.13099e-20)
(-0.0454883 0.00620902 4.35488e-20)
(-0.0488805 0.00611386 -3.26073e-20)
(-0.0521138 0.00608759 -3.86632e-20)
(-0.05524 0.006146 -5.32737e-20)
(-0.0583201 0.00629937 3.40259e-20)
(-0.0614167 0.00655297 -1.09957e-20)
(-0.0645122 0.00691183 -4.00451e-20)
(-0.0674861 0.00738345 3.7867e-20)
(-0.0709009 0.00793496 -2.80766e-20)
(-0.000639053 0.00225521 1.05504e-19)
(-0.00288035 0.00568605 5.46324e-20)
(-0.00666029 0.00813186 6.14374e-20)
(-0.011168 0.00979472 5.11065e-21)
(-0.0159793 0.0108378 3.39542e-20)
(-0.0208543 0.0113997 4.23861e-20)
(-0.0256224 0.0116027 -7.69988e-20)
(-0.0301745 0.0115529 -4.07768e-20)
(-0.0344521 0.0113413 -5.30895e-20)
(-0.0384336 0.0110459 5.66882e-20)
(-0.0421246 0.0107326 -4.32907e-20)
(-0.0455507 0.0104566 -5.56797e-20)
(-0.0487514 0.0102633 -2.02651e-20)
(-0.0517751 0.0101888 1.92583e-20)
(-0.0546763 0.0102602 -5.35023e-21)
(-0.0575192 0.0104952 7.72669e-21)
(-0.0603702 0.0109028 8.93304e-20)
(-0.0632154 0.0114914 -1.25568e-20)
(-0.0659335 0.0122736 -9.07856e-20)
(-0.0690909 0.0131936 1.19551e-19)
(-0.000864614 0.00321147 3.66851e-20)
(-0.00344814 0.0080725 -5.18524e-20)
(-0.00746959 0.0115192 -1.30036e-20)
(-0.0121304 0.0138454 2.42977e-20)
(-0.0170178 0.0152873 6.90115e-20)
(-0.0219022 0.0160444 1.51099e-19)
(-0.026622 0.0162912 1.47631e-19)
(-0.0310755 0.0161788 1.22541e-20)
(-0.0352096 0.015836 9.05164e-20)
(-0.0390072 0.0153728 1.38534e-19)
(-0.0424776 0.0148827 -1.10692e-19)
(-0.0456493 0.0144442 1.63809e-19)
(-0.0485653 0.0141222 -3.706e-20)
(-0.0512772 0.013969 9.36426e-21)
(-0.0538434 0.0140245 3.87159e-20)
(-0.0563332 0.0143152 5.14341e-20)
(-0.0588189 0.0148555 -8.09492e-20)
(-0.0612921 0.0156584 -6.75353e-20)
(-0.0636311 0.0167434 -1.19499e-19)
(-0.066409 0.0180316 1.73818e-19)
(-0.0011669 0.0041527 -1.91708e-20)
(-0.00420689 0.0104137 -1.96201e-19)
(-0.00854844 0.014832 -5.80291e-20)
(-0.0134104 0.0177936 -1.41411e-19)
(-0.0183962 0.019608 5.34433e-20)
(-0.0232907 0.0205344 -8.4297e-20)
(-0.0279447 0.0207989 2.89698e-20)
(-0.0322663 0.020596 -1.7851e-19)
(-0.0362102 0.0200914 9.41555e-20)
(-0.0397651 0.0194267 -1.12291e-19)
(-0.0429448 0.0187226 -9.98554e-20)
(-0.0457817 0.0180811 -1.11773e-19)
(-0.0483224 0.0175879 1.01458e-19)
(-0.0506229 0.017313 -9.10609e-20)
(-0.0527468 0.017311 1.26811e-19)
(-0.0547695 0.01762 3.66403e-20)
(-0.0567718 0.0182618 9.06739e-20)
(-0.0587529 0.0192564 3.9777e-20)
(-0.0605917 0.0206327 -1.57518e-19)
(-0.0628723 0.0222893 2.56422e-19)
(-0.00154532 0.00507494 8.44477e-20)
(-0.00515344 0.0126971 6.51809e-21)
(-0.00989021 0.0180498 3.47921e-20)
(-0.0149976 0.0216124 1.21418e-19)
(-0.0201005 0.0237671 -1.86046e-20)
(-0.0250028 0.0248323 1.97148e-19)
(-0.0295714 0.0250839 8.74779e-20)
(-0.0337271 0.024758 7.35097e-21)
(-0.0374344 0.024056 2.24931e-19)
(-0.0406891 0.0231495 7.36839e-20)
(-0.0435101 0.0221859 3.49452e-20)
(-0.0459343 0.0212912 1.10935e-19)
(-0.0480123 0.0205727 1.01666e-19)
(-0.0498049 0.0201201 1.85568e-19)
(-0.0513815 0.0200057 -1.6586e-19)
(-0.0528254 0.0202822 2.34385e-19)
(-0.0542275 0.0209824 3.02415e-21)
(-0.055598 0.0221372 -2.99481e-19)
(-0.0568176 0.0237887 3.88129e-19)
(-0.0584873 0.0258138 1.60976e-19)
(-0.00199898 0.00597423 -4.97695e-20)
(-0.00628299 0.0149102 -9.03096e-20)
(-0.0114846 0.0211526 -1.87979e-19)
(-0.0168758 0.0252759 -5.57174e-21)
(-0.0221086 0.0277349 3.20577e-20)
(-0.0270113 0.0289054 -2.40036e-19)
(-0.0314706 0.0291113 -1.78066e-19)
(-0.0354235 0.0286283 -2.54777e-20)
(-0.0388461 0.0276906 -2.25202e-19)
(-0.0417427 0.0264985 -1.55894e-19)
(-0.0441382 0.0252247 -4.54313e-20)
(-0.0460738 0.0240189 -1.46264e-19)
(-0.0476043 0.0230109 -2.38877e-21)
(-0.0487951 0.0223122 -1.94181e-19)
(-0.0497216 0.0220161 8.16739e-20)
(-0.0504763 0.0221943 -9.31821e-20)
(-0.0511625 0.0228959 7.13338e-20)
(-0.0518038 0.0241676 -9.08482e-20)
(-0.0522862 0.0260712 -2.59359e-19)
(-0.0532353 0.028464 -7.88031e-20)
(-0.00252649 0.00684632 -1.82879e-20)
(-0.00758839 0.0170398 -1.98679e-20)
(-0.0133165 0.0241203 1.57584e-19)
(-0.0190207 0.0287591 -2.56407e-19)
(-0.0243875 0.0314836 3.76189e-20)
(-0.0292744 0.0327255 -1.48093e-19)
(-0.0335931 0.0328539 7.00008e-20)
(-0.0372998 0.0321812 3.14544e-19)
(-0.0403848 0.0309714 -2.01899e-20)
(-0.0428623 0.0294506 -2.34595e-19)
(-0.0447637 0.0278148 4.26518e-20)
(-0.0461348 0.0262361 8.26834e-21)
(-0.0470335 0.0248673 -4.81167e-20)
(-0.0475296 0.0238433 4.90653e-21)
(-0.0477044 0.0232822 4.22872e-19)
(-0.0476596 0.02328 -6.02403e-20)
(-0.0475131 0.0239088 -1.17411e-19)
(-0.0473051 0.0252391 -2.10545e-19)
(-0.046931 0.027362 2.14793e-19)
(-0.047052 0.0301188 9.27296e-20)
(-0.00312569 0.00768617 9.24473e-20)
(-0.00905929 0.019071 -1.20925e-19)
(-0.0153643 0.0269309 1.7098e-19)
(-0.0213983 0.0320364 1.72128e-19)
(-0.0268897 0.0349868 1.58687e-19)
(-0.0317319 0.0362682 3.21786e-19)
(-0.0358662 0.0362918 2.08066e-19)
(-0.039272 0.0354027 -4.47059e-19)
(-0.0419566 0.0338912 2.28607e-19)
(-0.0439456 0.0320053 1.79352e-19)
(-0.0452779 0.0299609 -2.53421e-21)
(-0.0460034 0.0279502 2.00698e-19)
(-0.0461831 0.0261476 1.5643e-19)
(-0.0458893 0.0247128 -8.51222e-20)
(-0.0452086 0.0237917 2.87489e-19)
(-0.0442517 0.0235108 -3.5638e-19)
(-0.0431522 0.0239735 1.42601e-19)
(-0.04197 0.0252854 1.83344e-19)
(-0.0406151 0.0275801 -4.27443e-20)
(-0.0397998 0.0306912 3.68834e-19)
(-0.00379317 0.00848747 1.85656e-19)
(-0.0106811 0.0209867 9.63189e-21)
(-0.0175984 0.0295601 -6.66569e-20)
(-0.023962 0.0350802 -7.04321e-20)
(-0.0295507 0.038218 -3.26117e-19)
(-0.0343005 0.0395114 4.61729e-20)
(-0.038188 0.0394107 1.30828e-19)
(-0.0412197 0.0382896 -6.29109e-20)
(-0.0434232 0.03646 5.189e-20)
(-0.0448381 0.0341868 -1.37803e-20)
(-0.0455116 0.0317011 -6.77754e-20)
(-0.0454982 0.0292111 6.43227e-20)
(-0.044861 0.0269098 -2.79633e-19)
(-0.043674 0.0249807 2.68051e-19)
(-0.0420266 0.0235994 -2.32124e-19)
(-0.0400377 0.0229287 7.17179e-20)
(-0.0378568 0.0231128 1.63083e-19)
(-0.0355661 0.0243071 -3.39858e-20)
(-0.0330957 0.0267071 -1.12816e-19)
(-0.0312303 0.0301524 -7.68189e-20)
(-0.00452386 0.00924224 -2.31231e-19)
(-0.0124339 0.022766 -1.52528e-20)
(-0.0199796 0.0319799 4.87062e-20)
(-0.0266506 0.0378597 1.25273e-19)
(-0.0322854 0.041148 -1.76857e-19)
(-0.0368697 0.0424327 -1.54331e-19)
(-0.0404209 0.0421995 3.60186e-19)
(-0.0429776 0.0408467 -1.99034e-19)
(-0.0445914 0.0387024 -1.2837e-19)
(-0.0453185 0.0360429 -1.84147e-19)
(-0.0452169 0.0331085 1.21887e-19)
(-0.0443466 0.0301169 -3.33556e-21)
(-0.0427728 0.0272745 -2.27576e-19)
(-0.0405697 0.0247843 -3.72151e-19)
(-0.037828 0.0228508 2.83504e-19)
(-0.0346721 0.0216763 -2.29619e-19)
(-0.0312666 0.0214552 3.25543e-19)
(-0.0277169 0.0224098 -9.12521e-20)
(-0.0239788 0.0248251 1.91543e-19)
(-0.0209371 0.028568 -6.51452e-19)
(-0.00531054 0.00994062 -4.68223e-19)
(-0.0142916 0.0243845 3.07105e-19)
(-0.0224579 0.0341569 4.1772e-20)
(-0.0293869 0.0403388 8.08101e-21)
(-0.0349863 0.043743 -1.89439e-19)
(-0.0392984 0.0450059 2.78579e-19)
(-0.0423873 0.0446459 3.03989e-20)
(-0.0443288 0.0430814 -5.71142e-20)
(-0.0452025 0.0406524 -1.83289e-19)
(-0.0450852 0.0376403 1.98115e-19)
(-0.0440486 0.0342878 5.02149e-19)
(-0.042161 0.0308143 -1.10946e-19)
(-0.0394909 0.0274307 2.50577e-19)
(-0.0361128 0.0243519 -2.95925e-19)
(-0.0321171 0.0218051 -2.83662e-19)
(-0.0276312 0.0200303 1.7059e-19)
(-0.0228326 0.0192782 2.81709e-19)
(-0.0178486 0.0198556 -9.12626e-19)
(-0.012663 0.0221711 1.07246e-19)
(-0.00829623 0.0261529 1.4584e-19)
(-0.00614347 0.010571 3.46704e-19)
(-0.0162211 0.0258135 1.14098e-19)
(-0.0249717 0.036053 5.94519e-19)
(-0.0320764 0.0424746 3.06093e-20)
(-0.0375216 0.0459618 -6.61209e-20)
(-0.0414127 0.0471975 -3.14889e-19)
(-0.0438662 0.0467306 2.6779e-19)
(-0.0449994 0.0449972 4.80381e-19)
(-0.0449249 0.0423444 3.19974e-19)
(-0.0437443 0.0390545 2.30964e-19)
(-0.0415476 0.0353653 1.99048e-19)
(-0.0384156 0.0314895 -3.57436e-19)
(-0.0344243 0.0276322 -1.11927e-19)
(-0.0296512 0.0240071 -8.2392e-20)
(-0.0241868 0.0208517 8.82985e-19)
(-0.0181602 0.0184339 -3.09962e-21)
(-0.0117592 0.0170574 -2.19935e-19)
(-0.00512871 0.0171254 -6.91411e-20)
(0.00172338 0.01921 6.30822e-19)
(0.0076012 0.0233472 8.23877e-20)
(-0.00701027 0.0111203 -1.70677e-20)
(-0.0181818 0.0270213 -3.28137e-19)
(-0.0274475 0.0376245 -4.88301e-19)
(-0.0346072 0.0442178 -1.35912e-19)
(-0.0397349 0.0477542 7.50561e-20)
(-0.0430053 0.0489631 1.61709e-20)
(-0.0445916 0.0484225 4.28501e-19)
(-0.044657 0.0465843 -5.31421e-19)
(-0.0433508 0.0438016 -2.02126e-19)
(-0.0408043 0.0403538 -4.07231e-19)
(-0.0371315 0.0364698 -3.46757e-19)
(-0.0324323 0.0323481 -3.06942e-19)
(-0.0267971 0.0281769 7.67399e-20)
(-0.0203134 0.024154 -9.95908e-20)
(-0.0130774 0.0205079 4.26595e-19)
(-0.00522254 0.0175127 -2.33891e-19)
(0.00305411 0.0155066 -7.32686e-19)
(0.0115955 0.0149859 -1.47586e-19)
(0.0203857 0.0167207 3.61376e-19)
(0.0280157 0.020913 -3.15575e-19)
(-0.00789605 0.011575 -5.53177e-20)
(-0.0201263 0.0279741 4.01466e-19)
(-0.0297998 0.0388241 -5.12109e-19)
(-0.0368498 0.0455125 1.18347e-19)
(-0.041446 0.0490612 -2.43853e-19)
(-0.0438365 0.0502459 5.43214e-19)
(-0.0442546 0.0496738 -3.88187e-19)
(-0.0429122 0.047813 4.44036e-19)
(-0.0399984 0.0450229 -4.21007e-19)
(-0.0356782 0.0415809 1.79547e-19)
(-0.0300956 0.0377061 -8.71676e-20)
(-0.0233778 0.03358 -2.18708e-19)
(-0.0156404 0.0293667 -2.70102e-19)
(-0.00699354 0.0252344 2.69105e-19)
(0.00244811 0.0213804 -2.25291e-19)
(0.0125362 0.0180535 -4.92395e-19)
(0.0230572 0.0155871 5.12572e-19)
(0.0338452 0.0145375 -6.53607e-19)
(0.0449085 0.0158847 2.9395e-19)
(0.0546092 0.02005 8.25044e-21)
(-0.00878375 0.0119222 -5.01895e-19)
(-0.0220002 0.0286384 -5.42136e-19)
(-0.0319316 0.0396033 6.24516e-20)
(-0.038658 0.0462998 -5.23022e-19)
(-0.0424508 0.0498174 -4.66065e-20)
(-0.0436349 0.0509787 -3.84693e-19)
(-0.0425053 0.0504207 -8.82545e-20)
(-0.0393233 0.04863 -2.57887e-19)
(-0.034319 0.0459753 2.25283e-21)
(-0.0276938 0.0427364 -1.12811e-19)
(-0.0196267 0.0391275 7.9416e-21)
(-0.0102807 0.0353173 -3.24817e-19)
(0.000190161 0.031447 3.57807e-19)
(0.0116352 0.02765 -5.07587e-19)
(0.0238993 0.0240763 1.7974e-19)
(0.0367956 0.0209167 6.77218e-21)
(0.0500713 0.0184434 -2.86101e-19)
(0.0635402 0.017198 7.09252e-19)
(0.0772815 0.0183268 -1.69387e-19)
(0.0894715 0.022483 -1.10449e-19)
(-0.00965465 0.0121504 5.636e-19)
(-0.0237426 0.028983 3.04413e-19)
(-0.0337343 0.0399159 2.83202e-19)
(-0.0398676 0.0465218 4.22818e-20)
(-0.0425213 0.0499567 3.83047e-19)
(-0.0420985 0.05109 5.5207e-19)
(-0.0389556 0.0505899 4.52046e-19)
(-0.0334021 0.0489641 4.03655e-20)
(-0.0257081 0.0465956 3.30865e-19)
(-0.0161116 0.043774 5.11152e-19)
(-0.00482952 0.0407188 -1.32564e-19)
(0.00793235 0.0375978 2.22437e-19)
(0.021969 0.0345424 1.79611e-19)
(0.0370689 0.031662 1.8266e-19)
(0.0530072 0.029062 1.07948e-18)
(0.0695212 0.0268586 -4.04557e-19)
(0.0862735 0.025209 -2.46951e-20)
(0.103009 0.0245254 4.69032e-19)
(0.119916 0.0259889 -2.65972e-19)
(0.135145 0.0304129 1.32136e-19)
(-0.0104888 0.0122508 -4.55997e-19)
(-0.0252865 0.0289819 2.93416e-20)
(-0.0350865 0.0397223 -3.65314e-19)
(-0.0402954 0.0461287 -4.75484e-20)
(-0.0414037 0.0494218 2.67436e-19)
(-0.038893 0.0505168 -7.95922e-19)
(-0.0331792 0.0501137 -4.61496e-22)
(-0.0246177 0.0487433 3.70271e-19)
(-0.0135154 0.0468084 3.47837e-19)
(-0.00014524 0.0446164 -1.53128e-19)
(0.0152382 0.0424046 5.04367e-20)
(0.0323826 0.0403581 1.17034e-19)
(0.051023 0.0386223 -5.54382e-20)
(0.0708682 0.0373134 -6.20957e-19)
(0.0915916 0.0365256 1.57222e-19)
(0.112805 0.0363293 4.32435e-19)
(0.134013 0.0367596 -6.16168e-19)
(0.154784 0.0379997 3.00568e-19)
(0.175393 0.0410867 8.07169e-20)
(0.194312 0.046805 4.10842e-19)
(-0.011265 0.0122174 -6.74944e-20)
(-0.026557 0.0286159 -3.19789e-19)
(-0.0358518 0.038994 1.4709e-19)
(-0.0397352 0.0450866 5.8661e-22)
(-0.0388134 0.0481754 -6.41418e-19)
(-0.0336468 0.0492203 1.00073e-19)
(-0.0247088 0.0489513 -1.89778e-20)
(-0.0123972 0.047923 1.29423e-19)
(0.0029473 0.0465601 -5.92306e-19)
(0.02102 0.0451938 -4.1401e-20)
(0.041531 0.0440894 -1.38952e-19)
(0.0641835 0.0434665 1.2376e-19)
(0.0886513 0.0435139 4.1729e-19)
(0.114557 0.0444005 -6.45278e-20)
(0.141449 0.0462826 2.49462e-20)
(0.168756 0.0492908 1.64268e-19)
(0.195707 0.0534763 -4.04881e-20)
(0.221458 0.0589376 3.31524e-19)
(0.246077 0.066682 -1.92162e-19)
(0.268733 0.0770835 -3.05009e-19)
(-0.0119602 0.0120471 6.25059e-20)
(-0.0274702 0.0278743 1.51515e-20)
(-0.0358751 0.0377181 1.28293e-19)
(-0.0379525 0.043385 3.14228e-19)
(-0.0344293 0.0462137 1.7629e-19)
(-0.0259453 0.0472048 1.83921e-20)
(-0.013031 0.0471152 -2.10454e-19)
(0.00387446 0.0465199 5.3963e-20)
(0.0243971 0.0458632 2.83542e-19)
(0.0482017 0.0454982 -4.8041e-19)
(0.0749661 0.0457178 3.62405e-19)
(0.104358 0.0467795 -2.72969e-19)
(0.13601 0.0489275 2.31565e-19)
(0.169499 0.0524144 -4.99355e-19)
(0.204311 0.0575258 5.49302e-19)
(0.23978 0.0645929 -5.87571e-19)
(0.274941 0.0739818 -1.52863e-19)
(0.308467 0.0863315 4.80789e-19)
(0.339254 0.103532 -1.62029e-19)
(0.364613 0.125077 7.36487e-20)
(-0.0125485 0.0117391 -4.73876e-20)
(-0.0279294 0.026755 4.46994e-19)
(-0.0349778 0.0358998 -1.91188e-21)
(-0.0346789 0.0410437 -2.77419e-19)
(-0.0278871 0.0435765 -1.86604e-19)
(-0.0153255 0.0445346 3.41775e-19)
(0.00241509 0.0446951 -1.35371e-19)
(0.0248483 0.0446466 -1.70627e-20)
(0.0515586 0.0448433 2.81818e-19)
(0.0821694 0.0456472 -3.50151e-19)
(0.116317 0.04736 3.8323e-20)
(0.153629 0.0502501 -4.54865e-19)
(0.193716 0.0545784 2.39478e-19)
(0.236162 0.0606283 -6.85336e-19)
(0.280541 0.0687461 1.09222e-18)
(0.326418 0.0793943 -1.99862e-19)
(0.373397 0.0932782 2.09911e-19)
(0.421429 0.111909 -5.44879e-19)
(0.471063 0.138252 1.95037e-21)
(0.51483 0.167248 6.31283e-19)
(-0.0129987 0.0112937 -1.43715e-19)
(-0.0278213 0.0252644 1.24224e-19)
(-0.032953 0.0335644 -4.56922e-19)
(-0.0296071 0.0381173 6.757e-19)
(-0.0187762 0.0403559 -4.87756e-19)
(-0.0012749 0.0413456 2.51196e-20)
(0.0222335 0.0418757 -5.25616e-19)
(0.0511978 0.0425369 3.75712e-19)
(0.0851352 0.0437788 -5.37283e-20)
(0.123594 0.04595 -3.3134e-19)
(0.166126 0.0493288 -1.93221e-19)
(0.212271 0.0541455 2.04147e-19)
(0.261552 0.0606015 1.35026e-19)
(0.313494 0.0688868 -5.97976e-19)
(0.367644 0.0791973 2.15775e-19)
(0.423621 0.0917463 -3.18888e-19)
(0.481181 0.106789 3.85249e-20)
(0.540466 0.124838 -2.73011e-19)
(0.602436 0.147054 1.15197e-19)
(0.659825 0.168734 -4.14455e-19)
(-0.0132721 0.0107114 4.09073e-19)
(-0.0270126 0.0234166 -2.47557e-19)
(-0.0295626 0.0307581 2.03988e-19)
(-0.0223902 0.0346967 -2.57499e-19)
(-0.00664177 0.0366984 4.31785e-19)
(0.0167596 0.0378488 -7.65604e-21)
(0.0470542 0.0389388 -5.25293e-20)
(0.0835912 0.0405478 -3.89324e-20)
(0.125773 0.043102 2.39553e-19)
(0.173014 0.0469123 4.07108e-19)
(0.224707 0.0522015 -2.4052e-19)
(0.280219 0.0591218 2.33703e-19)
(0.338892 0.0677678 4.27002e-19)
(0.400063 0.0781856 -2.99459e-19)
(0.463099 0.0903758 -6.09519e-19)
(0.527443 0.104287 1.11578e-18)
(0.592647 0.119797 -1.99136e-19)
(0.658473 0.136765 -6.52108e-20)
(0.725243 0.155549 7.08699e-19)
(0.787464 0.17471 -1.47745e-19)
(-0.0133206 0.00999299 -6.66531e-19)
(-0.0253468 0.0212336 -4.43713e-19)
(-0.0245363 0.0275474 -1.70332e-19)
(-0.0126447 0.0309088 3.28483e-19)
(0.00900384 0.0328027 -7.41255e-19)
(0.0393494 0.0343238 3.83636e-19)
(0.077495 0.0362506 4.85885e-20)
(0.122634 0.039133 4.90267e-20)
(0.173983 0.0433506 -5.02008e-19)
(0.230737 0.0491484 -1.77259e-19)
(0.292041 0.0566605 -3.12339e-19)
(0.35699 0.0659266 3.01587e-19)
(0.424649 0.0769044 8.57229e-20)
(0.494081 0.0894776 1.68008e-20)
(0.564387 0.103461 3.9462e-19)
(0.634753 0.118598 -3.99222e-19)
(0.704474 0.134547 -1.67958e-20)
(0.772987 0.150899 9.33911e-21)
(0.84005 0.167545 5.39226e-20)
(0.902406 0.185696 3.16506e-19)
(-0.0130848 0.00913952 2.12325e-19)
(-0.022644 0.0187464 5.46904e-19)
(-0.0175754 0.0240203 4.38907e-19)
(3.77345e-05 0.0269149 -1.51193e-19)
(0.0286591 0.0289145 5.25489e-19)
(0.0670463 0.0311069 -4.42348e-20)
(0.114102 0.0342382 -6.23402e-20)
(0.168784 0.0388031 3.70831e-20)
(0.230027 0.0451037 5.0724e-19)
(0.296705 0.0532827 2.97878e-19)
(0.367613 0.0633483 8.69279e-20)
(0.441491 0.0751938 5.29151e-21)
(0.517059 0.0886153 -5.7761e-19)
(0.593073 0.103329 5.01767e-19)
(0.668371 0.118984 8.64677e-20)
(0.741926 0.135176 -1.41873e-19)
(0.812868 0.15145 -6.19376e-19)
(0.880509 0.167329 -5.33464e-20)
(0.944337 0.182372 2.46364e-19)
(1.00323 0.199572 -5.11132e-20)
(-0.0124942 0.00815396 -5.39502e-19)
(-0.0187027 0.0159969 2.25713e-19)
(-0.0083605 0.020287 -1.10134e-18)
(0.0160739 0.0229096 4.50744e-19)
(0.0528023 0.0253207 -3.59372e-19)
(0.100333 0.0285776 2.64918e-19)
(0.157279 0.0333642 -4.11188e-19)
(0.222255 0.040084 3.77618e-20)
(0.2938 0.0489186 -2.11303e-20)
(0.370357 0.0598637 1.10393e-19)
(0.450285 0.0727592 1.59513e-19)
(0.531912 0.0873189 -3.0155e-19)
(0.61361 0.103161 1.59532e-19)
(0.693865 0.11984 1.46755e-19)
(0.771344 0.136872 6.36015e-19)
(0.844941 0.153761 -2.75748e-19)
(0.913801 0.170018 -1.84672e-19)
(0.977332 0.185206 3.11177e-19)
(1.03507 0.198748 1.68018e-19)
(1.08738 0.214516 -3.13261e-19)
(-0.0114675 0.00704334 4.7307e-19)
(-0.0133045 0.0130426 4.56183e-19)
(0.00343678 0.0164834 1.31365e-19)
(0.0358663 0.0191205 5.53499e-19)
(0.0818546 0.0223432 2.71668e-19)
(0.139566 0.0271434 -4.89516e-19)
(0.207209 0.0341 7.41094e-19)
(0.282925 0.0434744 -3.6462e-19)
(0.364736 0.0552734 3.63751e-19)
(0.450558 0.069293 4.70574e-19)
(0.538263 0.0851625 -2.68863e-19)
(0.625778 0.102392 5.10408e-20)
(0.711195 0.120422 2.8507e-19)
(0.792857 0.138667 2.01095e-19)
(0.869428 0.156559 4.64325e-19)
(0.939927 0.173578 -1.85127e-19)
(1.00373 0.189272 -2.22779e-20)
(1.06053 0.203304 2.95492e-19)
(1.1102 0.215153 -6.32063e-20)
(1.15398 0.228858 4.67507e-22)
(-0.00991446 0.00582142 -2.44321e-19)
(-0.00622156 0.00996058 -8.97944e-19)
(0.0181385 0.0127747 2.11327e-19)
(0.0597763 0.0158088 -1.60821e-19)
(0.116138 0.0203334 -3.70913e-19)
(0.184923 0.027225 -2.64417e-19)
(0.263791 0.0368981 -1.63293e-19)
(0.350273 0.0494064 3.96724e-19)
(0.441764 0.0645176 -2.35554e-19)
(0.535599 0.0817749 -2.40949e-19)
(0.629183 0.100565 -3.05036e-19)
(0.720136 0.12019 -5.03825e-20)
(0.806425 0.139935 -3.39162e-20)
(0.886455 0.15913 -7.06714e-19)
(0.959113 0.177189 3.43523e-19)
(1.02376 0.193643 -4.51624e-19)
(1.08018 0.20815 1.42874e-19)
(1.12854 0.220513 -1.08722e-18)
(1.16917 0.23041 3.27439e-19)
(1.20372 0.24157 4.17181e-19)
(-0.00773955 0.00451146 -6.12814e-20)
(0.00277407 0.00685286 4.38677e-19)
(0.036042 0.009359 2.80782e-20)
(0.0880954 0.0132687 6.76e-20)
(0.155837 0.0196644 -1.37411e-19)
(0.236349 0.0292386 -2.16665e-21)
(0.326588 0.0421642 -3.43554e-21)
(0.423345 0.0582089 -8.26308e-20)
(0.523323 0.0768348 2.93126e-19)
(0.623297 0.0972906 1.13423e-19)
(0.720313 0.118712 5.14552e-19)
(0.81187 0.140219 -1.40478e-19)
(0.896048 0.161003 9.8126e-20)
(0.971563 0.180381 -1.29215e-20)
(1.03775 0.197838 2.72042e-19)
(1.0945 0.213031 1.66948e-19)
(1.14214 0.225786 4.0362e-19)
(1.18133 0.236077 -6.52657e-19)
(1.2129 0.243835 8.22942e-19)
(1.23866 0.252251 -2.61105e-19)
(-0.00484505 0.00314855 -5.72686e-19)
(0.0138989 0.00385007 -1.78439e-19)
(0.0574003 0.00646971 1.39685e-19)
(0.121015 0.0118247 8.80099e-20)
(0.200955 0.0207201 8.98369e-20)
(0.293518 0.0335754 9.12231e-20)
(0.394805 0.050228 -2.27984e-19)
(0.500778 0.0700763 -9.42831e-20)
(0.607457 0.0922209 2.92629e-20)
(0.711173 0.1156 -2.79036e-19)
(0.808827 0.139127 -1.26227e-19)
(0.898064 0.161807 7.63495e-19)
(0.977352 0.182822 -1.96848e-19)
(1.04596 0.201576 -2.71994e-19)
(1.10385 0.217706 -1.29559e-19)
(1.15154 0.23106 8.94698e-20)
(1.18993 0.241665 1.09744e-19)
(1.22016 0.249674 -5.26314e-19)
(1.24342 0.255255 7.62975e-19)
(1.26154 0.261015 -6.61996e-19)
(-0.00113548 0.00178133 -6.51076e-20)
(0.0273454 0.00111364 1.86936e-20)
(0.0824004 0.00437448 -2.35751e-20)
(0.158597 0.0118245 3.45679e-19)
(0.251291 0.02388 1.88397e-20)
(0.355818 0.0405774 1.26763e-19)
(0.467304 0.0613154 -2.63043e-19)
(0.580869 0.0850474 -9.57501e-21)
(0.69196 0.110484 3.65159e-19)
(0.796695 0.136277 5.08815e-20)
(0.892122 0.16119 -3.18185e-19)
(0.976337 0.184212 -2.78544e-20)
(1.04846 0.204626 -2.61816e-19)
(1.10849 0.222017 2.60563e-19)
(1.15712 0.236241 3.6267e-19)
(1.19548 0.24737 -4.00171e-20)
(1.22498 0.255638 -4.89625e-20)
(1.24708 0.261354 1.49203e-19)
(1.26323 0.264869 -4.8083e-19)
(1.27518 0.268262 4.23171e-19)
(0.00347782 0.000472861 6.50305e-20)
(0.0432692 -0.0011644 -4.20483e-19)
(0.111143 0.00337072 1.12611e-19)
(0.200751 0.0136272 -3.48426e-19)
(0.306413 0.0294982 1.19711e-19)
(0.422348 0.0505118 -4.44458e-19)
(0.542653 0.0755266 1.79133e-19)
(0.661695 0.103 -5.69288e-20)
(0.774578 0.131267 -2.26637e-21)
(0.877526 0.158768 5.82791e-20)
(0.968075 0.184227 -2.12594e-19)
(1.04506 0.206741 -3.03518e-19)
(1.10844 0.225799 -6.23046e-20)
(1.15905 0.241239 -2.79649e-20)
(1.19825 0.253175 -7.10448e-20)
(1.22773 0.261906 -2.31786e-20)
(1.24924 0.26784 -6.94053e-20)
(1.26444 0.271409 -6.02428e-20)
(1.27484 0.273077 -1.79636e-19)
(1.28208 0.274487 2.85296e-19)
(0.00907187 -0.000699517 1.57107e-19)
(0.0617748 -0.00276449 -1.74377e-19)
(0.143621 0.00377666 3.75042e-19)
(0.247212 0.0175865 -1.61648e-19)
(0.365655 0.0378809 4.31922e-19)
(0.491953 0.0635481 5.97311e-21)
(0.619216 0.0928247 2.16662e-19)
(0.741268 0.123665 -5.78047e-20)
(0.853211 0.154096 2.4187e-19)
(0.951745 0.182469 1.7529e-20)
(1.03522 0.207605 5.75922e-19)
(1.10343 0.22883 -3.97682e-19)
(1.15726 0.245925 5.35621e-20)
(1.19833 0.259023 1.02247e-19)
(1.2286 0.268493 5.36269e-19)
(1.25013 0.274833 -1.92696e-19)
(1.26485 0.278581 -3.82581e-20)
(1.27447 0.28024 -2.0288e-19)
(1.28045 0.280328 -2.14361e-20)
(1.28424 0.280148 1.0161e-19)
(0.015707 -0.00164517 -7.56936e-20)
(0.0829035 -0.00344522 2.18208e-19)
(0.179708 0.00591872 -2.22819e-19)
(0.297534 0.0240309 8.82409e-20)
(0.428138 0.0492628 -1.04938e-19)
(0.563284 0.0797417 3.85659e-19)
(0.695266 0.11304 -5.3506e-20)
(0.817701 0.146658 1.32308e-19)
(0.926089 0.17844 -7.77506e-20)
(1.01798 0.2068 -1.89979e-21)
(1.09279 0.2308 8.89728e-20)
(1.15138 0.250094 -6.88483e-20)
(1.19554 0.264804 1.78681e-19)
(1.22756 0.27536 -8.90187e-20)
(1.24983 0.282358 -3.92349e-19)
(1.26459 0.286442 3.90167e-19)
(1.2738 0.288232 -1.75927e-19)
(1.27909 0.28825 1.40468e-19)
(1.28179 0.28703 2.43782e-19)
(1.28314 0.285607 1.00075e-19)
(0.0234217 -0.00226216 1.8822e-19)
(0.106622 -0.00295165 -3.87725e-19)
(0.219143 0.0101158 7.42538e-20)
(0.351093 0.0332424 -5.37597e-20)
(0.492798 0.0637885 -2.163e-19)
(0.634881 0.099029 -1.6965e-19)
(0.769118 0.135887 -3.32802e-20)
(0.889347 0.171525 -3.02233e-19)
(0.991891 0.20377 -1.8281e-20)
(1.07546 0.231264 -5.60907e-20)
(1.14068 0.253432 -1.52311e-19)
(1.18946 0.270324 -3.38418e-20)
(1.22439 0.282409 -1.16584e-19)
(1.24824 0.290386 -1.9456e-19)
(1.26364 0.295025 1.99249e-19)
(1.27286 0.297065 2.74682e-20)
(1.27776 0.297149 5.47242e-20)
(1.2798 0.295788 -2.29607e-19)
(1.28013 0.293501 -5.76663e-21)
(1.27979 0.291114 -3.54145e-19)
(0.0322281 -0.00244016 2.06836e-19)
(0.132813 -0.00102558 1.37808e-19)
(0.26153 0.0166619 -2.21746e-19)
(0.407105 0.0454369 3.46258e-19)
(0.558446 0.0815003 -3.72192e-20)
(0.705265 0.121234 1.29113e-19)
(0.839243 0.160999 4.46532e-20)
(0.954906 0.19779 1.58141e-19)
(1.04978 0.229606 -1.23801e-19)
(1.12394 0.255475 4.11964e-20)
(1.17924 0.27527 -3.95828e-20)
(1.21856 0.289458 -1.74358e-20)
(1.24507 0.298836 3.30756e-20)
(1.26185 0.304315 -6.0932e-20)
(1.27156 0.306781 -1.86998e-20)
(1.27639 0.307011 -5.72313e-20)
(1.27802 0.305634 -9.30526e-20)
(1.27769 0.30312 6.00909e-20)
(1.27636 0.299965 -8.23821e-20)
(1.27489 0.296819 3.55906e-19)
(0.0421078 -0.00206417 -1.03451e-19)
(0.161271 0.00258258 -2.92594e-19)
(0.306346 0.025809 -3.89096e-20)
(0.464656 0.0607488 -1.04759e-20)
(0.623831 0.102335 -1.30765e-19)
(0.773037 0.146088 -2.14465e-19)
(0.904357 0.18796 7.01524e-20)
(1.01347 0.224993 -9.63684e-20)
(1.09938 0.255552 -1.07943e-19)
(1.16362 0.279165 6.00674e-20)
(1.20921 0.296207 -4.53928e-20)
(1.23977 0.307544 -9.17479e-20)
(1.25889 0.314248 -3.04161e-21)
(1.26974 0.317382 6.21014e-20)
(1.27489 0.317889 -6.32309e-20)
(1.27635 0.316538 8.77776e-20)
(1.27555 0.313914 2.36251e-20)
(1.27353 0.310431 5.94613e-20)
(1.27107 0.306559 1.15782e-19)
(1.26884 0.302797 -9.91502e-20)
(0.0530085 -0.00101893 9.8888e-20)
(0.191705 0.00810134 -8.90382e-21)
(0.352952 0.0377512 4.41789e-20)
(0.522747 0.0792213 -6.00569e-20)
(0.687713 0.126131 4.87126e-21)
(0.836951 0.17325 2.07931e-19)
(0.963474 0.216341 -1.36612e-19)
(1.0645 0.252725 5.77415e-20)
(1.1407 0.281297 5.08474e-20)
(1.19503 0.302174 -1.43047e-19)
(1.23148 0.31623 1.343e-19)
(1.25423 0.32469 1.16114e-21)
(1.26706 0.328832 -9.44537e-20)
(1.27307 0.32981 1.13817e-19)
(1.27467 0.32857 -4.50988e-20)
(1.27358 0.32584 3.4478e-20)
(1.27103 0.322141 -3.85888e-20)
(1.26784 0.317829 -1.54176e-20)
(1.26462 0.313348 -1.34715e-19)
(1.2619 0.309059 4.119e-20)
(0.064843 0.000806058 -3.34454e-20)
(0.223736 0.0157257 8.95235e-20)
(0.400615 0.0526118 1.39193e-20)
(0.580338 0.100802 5.84404e-20)
(0.748924 0.152641 2.78192e-20)
(0.895967 0.202336 1.30352e-20)
(1.01592 0.245727 7.38999e-20)
(1.10782 0.280635 -8.99889e-21)
(1.17406 0.306622 3.25063e-20)
(1.21885 0.324424 5.22088e-20)
(1.24699 0.335386 2.51501e-20)
(1.26298 0.341027 1.80288e-20)
(1.2706 0.342765 7.30715e-20)
(1.27278 0.341781 -7.07118e-20)
(1.27166 0.338987 1.51641e-20)
(1.26871 0.335046 -1.41366e-20)
(1.26492 0.330405 2.19493e-20)
(1.26094 0.325363 1.83661e-20)
(1.25723 0.320346 3.82651e-20)
(1.2542 0.315582 1.63443e-21)
(0.0774889 0.00351136 1.98217e-20)
(0.256913 0.0256055 1.81002e-20)
(0.448543 0.0704346 -2.50252e-20)
(0.6364 0.125348 1.56302e-20)
(0.806422 0.181546 8.80921e-21)
(0.949284 0.232942 -2.74012e-20)
(1.0613 0.275733 9.03049e-21)
(1.1435 0.308438 1.61986e-21)
(1.19992 0.331372 1.55454e-20)
(1.23587 0.345889 -4.16226e-20)
(1.25668 0.353747 -1.14475e-22)
(1.26696 0.356685 1.14928e-20)
(1.27037 0.356193 -9.15686e-21)
(1.26958 0.353432 9.26234e-21)
(1.26643 0.349249 2.40913e-20)
(1.26215 0.344228 -1.36744e-20)
(1.25752 0.338741 3.82486e-21)
(1.25303 0.333038 1.49395e-20)
(1.24902 0.32753 -2.46137e-20)
(1.24581 0.322313 1.1815e-20)
(0.0776165 -0.00351317 5.35574e-20)
(0.257278 -0.0256195 -2.94135e-20)
(0.449111 -0.0704661 3.46897e-20)
(0.637117 -0.125388 -2.58206e-20)
(0.807224 -0.181577 -1.16703e-20)
(0.95011 -0.232948 3.60481e-21)
(1.0621 -0.275701 -1.15432e-20)
(1.14425 -0.308363 4.17109e-20)
(1.20061 -0.331252 -3.48897e-20)
(1.2365 -0.345728 7.97371e-21)
(1.25724 -0.353552 -6.15376e-21)
(1.26747 -0.356462 -4.03232e-20)
(1.27084 -0.355948 3.92565e-20)
(1.27001 -0.35317 1.52032e-20)
(1.26684 -0.348975 -1.46359e-20)
(1.26253 -0.343944 3.51548e-20)
(1.25788 -0.33845 -4.26163e-22)
(1.25337 -0.33274 -3.42434e-20)
(1.24934 -0.327228 2.51181e-20)
(1.24611 -0.322007 8.36824e-21)
(0.0649605 -0.000803705 -1.92217e-20)
(0.224081 -0.0157283 5.18481e-20)
(0.401166 -0.0526284 6.05985e-20)
(0.58105 -0.100827 -2.931e-20)
(0.749738 -0.152661 5.06091e-20)
(0.896823 -0.202335 8.21088e-20)
(1.01676 -0.245692 -4.65118e-21)
(1.10862 -0.280558 -1.47497e-20)
(1.17479 -0.3065 7.29477e-20)
(1.21952 -0.324259 3.60492e-20)
(1.2476 -0.335183 -6.75158e-21)
(1.26353 -0.340793 5.48606e-20)
(1.27109 -0.342505 -5.88385e-20)
(1.27324 -0.341502 9.41792e-20)
(1.27208 -0.338694 -1.53775e-20)
(1.2691 -0.334741 4.6867e-20)
(1.26529 -0.330091 9.17745e-21)
(1.26129 -0.325043 3.34733e-20)
(1.25756 -0.320021 -3.14329e-20)
(1.25451 -0.315252 8.73337e-21)
(0.0531151 0.00102469 -2.84171e-20)
(0.192028 -0.00809405 6.19919e-20)
(0.35348 -0.0377539 4.61579e-20)
(0.523446 -0.0792322 -7.35584e-21)
(0.688531 -0.12614 7.71546e-20)
(0.83783 -0.173242 -6.1007e-20)
(0.96436 -0.216303 -6.37188e-21)
(1.06535 -0.252647 5.4889e-20)
(1.1415 -0.281176 1.82687e-20)
(1.19575 -0.302009 2.55419e-20)
(1.23213 -0.316023 -3.76438e-20)
(1.25481 -0.324448 1.04937e-19)
(1.26759 -0.328561 2.03704e-20)
(1.27355 -0.329515 -9.25286e-20)
(1.27511 -0.328258 1.42386e-19)
(1.27399 -0.325514 -1.68521e-19)
(1.27141 -0.321805 -8.01407e-20)
(1.2682 -0.317485 1.37088e-20)
(1.26496 -0.312998 7.72238e-20)
(1.26222 -0.308704 -1.46135e-19)
(0.042203 0.00207254 -5.95259e-20)
(0.16157 -0.0025669 -1.39613e-19)
(0.306846 -0.0257993 -1.23038e-19)
(0.465334 -0.0607463 -1.67779e-19)
(0.624645 -0.102333 -9.97481e-20)