/*--------------------------------*- C++ -*----------------------------------*\
  =========                 |
  \\      /  F ield         | OpenFOAM: The Open Source CFD Toolbox
   \\    /   O peration     | Website:  https://openfoam.org
    \\  /    A nd           | Version:  6.0
     \\/     M anipulation  |
\*---------------------------------------------------------------------------*/
FoamFile
{
    version     2.0;
    format      ascii;
    class       volVectorField;
    location    "36";
    object      U;
}
// * * * * * * * * * * * * * * * * * * * * * * * * * * * * * * * * * * * * * //

dimensions      [0 1 -1 0 0 0 0];

internalField   nonuniform List<vector> 
4000
(
(0.0909663 0.00719301 5.5682e-20)
(0.291249 0.0378837 -3.0239e-20)
(0.496745 0.0912751 3.55693e-20)
(0.691029 0.152763 -2.64499e-20)
(0.860544 0.21262 -1.18414e-20)
(0.997611 0.264784 3.57969e-21)
(1.10074 0.306092 -1.16038e-20)
(1.17304 0.335932 4.17007e-20)
(1.22005 0.355422 -3.46754e-20)
(1.24794 0.366499 8.12846e-21)
(1.26235 0.371269 -6.05977e-21)
(1.26788 0.371614 -3.93073e-20)
(1.26793 0.369036 3.80806e-20)
(1.26485 0.364638 1.44537e-20)
(1.26021 0.359179 -1.43792e-20)
(1.25499 0.353161 3.36798e-20)
(1.24978 0.346881 -5.16309e-22)
(1.24497 0.340548 -3.25704e-20)
(1.24079 0.334563 2.41012e-20)
(1.23747 0.328887 7.55163e-21)
(0.104755 0.0119033 -1.95094e-20)
(0.325174 0.0525194 5.65864e-20)
(0.542757 0.114843 6.53067e-20)
(0.741207 0.182511 -3.07655e-20)
(0.90814 0.245205 5.35325e-20)
(1.03802 0.297242 8.45704e-20)
(1.13174 0.336345 -4.6413e-21)
(1.19437 0.362882 -1.44413e-20)
(1.23273 0.37876 7.1434e-20)
(1.25359 0.386434 3.47667e-20)
(1.2627 0.388269 -6.26387e-21)
(1.26446 0.38622 5.16459e-20)
(1.26197 0.381751 -5.51969e-20)
(1.25725 0.375879 8.5884e-20)
(1.25159 0.369272 -1.4309e-20)
(1.24577 0.362344 4.08037e-20)
(1.24024 0.355331 7.286e-21)
(1.23528 0.348406 2.90774e-20)
(1.23104 0.341968 -2.76927e-20)
(1.22773 0.335838 6.60848e-21)
(0.118803 0.0176879 -3.03537e-20)
(0.358597 0.0695094 7.22504e-20)
(0.586587 0.141006 5.36076e-20)
(0.787219 0.214339 -8.09798e-21)
(0.949911 0.279003 8.32389e-20)
(1.07166 0.330045 -6.1991e-20)
(1.1558 0.366294 -4.75623e-21)
(1.20924 0.389159 5.46868e-20)
(1.23979 0.401303 1.73777e-20)
(1.25461 0.405622 2.41962e-20)
(1.25937 0.404657 -3.56609e-20)
(1.25818 0.400372 9.26756e-20)
(1.25379 0.394158 1.71903e-20)
(1.24792 0.386927 -8.17966e-20)
(1.2416 0.379249 1.19021e-19)
(1.23542 0.371462 -1.4017e-19)
(1.22974 0.363743 -6.40439e-20)
(1.22476 0.356244 1.06841e-20)
(1.22056 0.349354 6.20827e-20)
(1.21731 0.342761 -1.16582e-19)
(0.13288 0.0245611 -6.85474e-20)
(0.390936 0.0887533 -1.61551e-19)
(0.627503 0.169485 -1.39513e-19)
(0.828428 0.247845 -1.89791e-19)
(0.985506 0.313589 -1.07474e-19)
(1.09852 0.362839 -2.22607e-19)
(1.17325 0.395696 2.82801e-20)
(1.21814 0.41463 -1.17715e-19)
(1.24182 0.423003 -1.28791e-20)
(1.25156 0.42406 1.93108e-20)
(1.25284 0.420443 -4.22877e-20)
(1.24942 0.414075 5.25972e-20)
(1.24368 0.406242 9.34561e-20)
(1.23706 0.397743 -1.31429e-19)
(1.23035 0.389055 2.09298e-20)
(1.22402 0.380444 6.05585e-20)
(1.21833 0.372038 1.01152e-19)
(1.21342 0.363974 -8.72511e-20)
(1.20933 0.356631 -4.16841e-21)
(1.2062 0.349563 1.01911e-19)
(0.146746 0.0325079 -1.2934e-19)
(0.421625 0.110085 3.54287e-19)
(0.664854 0.199942 -6.24914e-20)
(0.864339 0.282595 8.26467e-20)
(1.01473 0.348543 -8.08788e-20)
(1.11875 0.39529 2.48002e-19)
(1.18444 0.424329 -3.92708e-20)
(1.22159 0.439173 2.34056e-20)
(1.23934 0.443802 -1.16749e-20)
(1.24491 0.441723 3.81451e-20)
(1.2435 0.435609 2.45998e-20)
(1.23846 0.427299 3.08508e-20)
(1.23184 0.417955 -8.78024e-20)
(1.22478 0.408265 1.28085e-19)
(1.21792 0.398613 -9.72266e-20)
(1.21159 0.389203 1.82333e-20)
(1.20601 0.380123 -6.20258e-20)
(1.20126 0.371499 1.3119e-20)
(1.19734 0.3637 1.47369e-20)
(1.19441 0.35615 -1.38016e-19)
(0.160155 0.0414828 9.43798e-21)
(0.450133 0.133278 -1.78472e-19)
(0.698084 0.231986 9.84463e-20)
(0.894591 0.318134 -3.43347e-19)
(1.03752 0.383451 1.66119e-19)
(1.13255 0.427086 -2.84499e-19)
(1.18978 0.451988 -2.21686e-19)
(1.22007 0.462669 -8.44369e-21)
(1.23281 0.463634 -7.49202e-20)
(1.23508 0.458565 -2.3236e-19)
(1.23166 0.450108 -2.88782e-20)
(1.22554 0.439983 -2.2142e-19)
(1.2184 0.429224 4.01724e-20)
(1.21118 0.418404 -3.16689e-20)
(1.20435 0.407826 1.85276e-20)
(1.19818 0.397638 -1.46719e-19)
(1.1928 0.387894 7.98572e-21)
(1.18829 0.378717 2.9486e-20)
(1.1846 0.370461 -6.74178e-20)
(1.18192 0.362426 5.88965e-20)
(0.172866 0.0514101 -7.3397e-20)
(0.475976 0.158051 3.26538e-19)
(0.726738 0.265185 2.30997e-21)
(0.918952 0.353998 -2.82408e-19)
(1.05393 0.417912 2.12865e-19)
(1.1402 0.457928 8.92378e-20)
(1.18968 0.478478 1.8135e-20)
(1.214 0.484997 -1.49717e-19)
(1.22265 0.482417 2.43069e-19)
(1.22238 0.474517 -1.41629e-19)
(1.21757 0.463865 5.15338e-20)
(1.21081 0.452045 2.38166e-19)
(1.20349 0.439953 -2.13255e-19)
(1.19633 0.428057 2.33768e-19)
(1.1897 0.416586 -1.51446e-19)
(1.18378 0.405638 -2.97392e-20)
(1.1787 0.395242 3.57476e-20)
(1.1745 0.38552 4.46785e-20)
(1.17111 0.376806 6.12827e-20)
(1.16875 0.368291 3.6996e-20)
(0.184648 0.0621851 2.93529e-20)
(0.498732 0.184074 -2.9386e-19)
(0.750472 0.299082 5.21377e-20)
(0.937307 0.389723 6.81005e-19)
(1.06409 0.45154 -6.28649e-20)
(1.14203 0.487537 1.87996e-19)
(1.18455 0.503611 1.17014e-19)
(1.20382 0.506028 1.95572e-20)
(1.20921 0.500052 -1.34679e-19)
(1.20709 0.489487 2.2053e-19)
(1.20142 0.476785 -2.52336e-20)
(1.1944 0.463378 3.31239e-19)
(1.18718 0.45003 1.26639e-19)
(1.18029 0.437107 7.87446e-20)
(1.17399 0.424774 -1.63986e-19)
(1.16844 0.413085 3.45412e-20)
(1.16375 0.402051 1.26426e-19)
(1.15992 0.391794 3.20536e-20)
(1.15688 0.382627 -1.51939e-19)
(1.15491 0.373644 -3.77333e-20)
(0.195287 0.0736765 -1.63503e-19)
(0.518047 0.210981 5.26684e-19)
(0.769044 0.333202 -2.86597e-19)
(0.949646 0.424853 -2.63365e-19)
(1.06821 0.483965 -2.28855e-19)
(1.13838 0.515646 -1.92388e-19)
(1.17479 0.527202 -2.36215e-19)
(1.18988 0.525629 2.94934e-19)
(1.19279 0.516429 -2.09183e-19)
(1.18945 0.503368 -1.66854e-20)
(1.18338 0.488755 -1.94993e-21)
(1.17644 0.473864 -3.95958e-20)
(1.16954 0.459329 -1.00921e-19)
(1.16309 0.445428 -1.11438e-19)
(1.15727 0.432264 -5.95184e-21)
(1.15219 0.419857 -2.46575e-20)
(1.14795 0.408202 -5.96119e-20)
(1.14457 0.397424 -1.78733e-20)
(1.14195 0.387813 2.08708e-20)
(1.14042 0.378384 -1.24998e-19)
(0.20459 0.0857295 2.86258e-19)
(0.533642 0.23838 2.95605e-19)
(0.782315 0.367063 -1.8334e-19)
(0.956052 0.458942 1.12946e-19)
(1.06657 0.514838 1.94217e-19)
(1.12963 0.542002 -3.94862e-20)
(1.16078 0.549072 4.77881e-20)
(1.17253 0.543662 5.27734e-20)
(1.17366 0.531424 8.7467e-20)
(1.16965 0.516038 -1.01797e-19)
(1.16357 0.499647 4.99272e-20)
(1.15701 0.483369 -3.32386e-20)
(1.15066 0.467717 1.4983e-19)
(1.1448 0.452885 6.3476e-20)
(1.13957 0.438925 -1.46689e-19)
(1.13506 0.425827 7.94437e-20)
(1.13136 0.413573 3.97268e-20)
(1.12849 0.402291 -7.00092e-20)
(1.12635 0.39225 1.90856e-19)
(1.12533 0.382409 -1.39121e-19)
(0.212393 0.098169 -2.10464e-19)
(0.545318 0.265858 -2.72792e-19)
(0.790243 0.400189 1.90193e-19)
(0.956684 0.491565 -1.75575e-19)
(1.05947 0.543829 -1.65947e-20)
(1.11615 0.566368 -1.89823e-19)
(1.14289 0.569043 1.5822e-19)
(1.15208 0.559982 2.86317e-19)
(1.15207 0.544905 -3.97835e-19)
(1.14786 0.527364 2.05349e-20)
(1.14214 0.509326 1.51215e-20)
(1.1362 0.491755 -7.70546e-20)
(1.13058 0.475052 5.46258e-20)
(1.12547 0.459339 -2.19967e-20)
(1.12095 0.444622 1.42419e-19)
(1.1171 0.430864 -1.53392e-19)
(1.11401 0.418036 -5.045e-20)
(1.11172 0.406271 1.34659e-19)
(1.11014 0.395818 -1.93872e-19)
(1.10969 0.385609 1.22538e-19)
(0.218561 0.110805 4.36315e-19)
(0.552952 0.292997 3.84817e-19)
(0.792872 0.432114 -6.48036e-20)
(0.951769 0.52232 -8.11485e-21)
(1.04725 0.570632 -1.94278e-19)
(1.09831 0.588517 8.28093e-20)
(1.12146 0.586946 3.98403e-19)
(1.12882 0.574444 -3.48764e-19)
(1.12824 0.556735 2.15993e-19)
(1.12424 0.537208 -1.82634e-20)
(1.11917 0.51765 1.28662e-19)
(1.11409 0.498877 -3.41475e-20)
(1.10938 0.481192 7.5481e-20)
(1.10516 0.464651 9.36602e-20)
(1.10147 0.449218 -5.50192e-20)
(1.09837 0.434833 6.15101e-20)
(1.09598 0.42146 -8.11904e-20)
(1.09433 0.409232 2.09668e-19)
(1.09336 0.398384 -1.25161e-19)
(1.09357 0.387856 8.93974e-20)
(0.222994 0.123436 -2.11376e-19)
(0.556495 0.319379 -3.94158e-19)
(0.790326 0.462394 -2.71924e-19)
(0.941588 0.550832 -1.85553e-20)
(1.03029 0.594962 6.39693e-20)
(1.0765 0.608241 -3.51759e-20)
(1.09682 0.602615 -2.2649e-19)
(1.10301 0.586906 -9.68074e-20)
(1.10236 0.566775 -1.73096e-19)
(1.09895 0.545431 -7.88313e-20)
(1.09479 0.524476 4.01887e-20)
(1.09076 0.504592 -1.90091e-19)
(1.08712 0.485992 -4.03748e-20)
(1.08393 0.468676 -3.775e-20)
(1.08119 0.452573 -1.23462e-19)
(1.07894 0.437598 5.41528e-20)
(1.07732 0.423708 5.02991e-21)
(1.07637 0.411034 4.52491e-20)
(1.0761 0.399803 -1.91794e-20)
(1.07703 0.389003 -5.5859e-20)
(0.225626 0.135854 4.88458e-19)
(0.555972 0.344595 4.25142e-19)
(0.782797 0.490608 5.21302e-19)
(0.926468 0.576756 -5.43209e-20)
(1.00896 0.616563 -1.82587e-19)
(1.05108 0.625348 5.46678e-19)
(1.06931 0.615897 -2.64582e-19)
(1.0749 0.59723 2.88559e-19)
(1.07462 0.574892 -5.09209e-20)
(1.07211 0.551896 1.70062e-19)
(1.0691 0.529665 1.96731e-20)
(1.06628 0.508759 7.15199e-20)
(1.06386 0.48931 -1.53428e-20)
(1.06184 0.471274 6.55811e-20)
(1.06016 0.454546 -4.26798e-20)
(1.05888 0.439021 8.61006e-21)
(1.0581 0.424642 2.23504e-20)
(1.05793 0.411534 2.97539e-20)
(1.05842 0.399922 2.89594e-22)
(1.06012 0.388903 5.91323e-21)
(0.226426 0.147852 -1.49247e-19)
(0.551477 0.368255 -4.15233e-19)
(0.770541 0.51637 -2.51858e-19)
(0.906775 0.599782 -4.36141e-19)
(0.98367 0.635203 4.6155e-19)
(1.02243 0.639664 -3.1435e-19)
(1.03923 0.626651 1.9514e-19)
(1.04475 0.605285 -7.07362e-20)
(1.04521 0.58096 -7.63945e-20)
(1.04386 0.556476 -5.24963e-20)
(1.04218 0.533089 2.80026e-20)
(1.04074 0.511245 2.54918e-20)
(1.03967 0.491012 1.02698e-20)
(1.03893 0.472306 -2.57765e-20)
(1.03846 0.454996 -3.60259e-21)
(1.03825 0.438959 1.52205e-20)
(1.03841 0.42412 -1.65548e-20)
(1.03909 0.410586 1.80661e-20)
(1.04039 0.3986 8.65754e-21)
(1.04288 0.38744 2.19726e-20)
(0.225399 0.159223 6.48274e-19)
(0.543162 0.389994 3.01798e-19)
(0.753865 0.539328 2.8259e-19)
(0.882903 0.619632 -1.64079e-19)
(0.954822 0.650681 1.81769e-20)
(0.990918 0.651038 2.269e-19)
(1.00689 0.634749 2.59991e-20)
(1.01279 0.610957 4.62937e-20)
(1.01432 0.584864 4.62725e-20)
(1.01434 0.559058 -6.5215e-21)
(1.01415 0.534634 8.97872e-21)
(1.0142 0.511936 -1.14621e-20)
(1.01459 0.490977 -1.53859e-20)
(1.01525 0.471643 7.52627e-21)
(1.0161 0.453785 6.3926e-21)
(1.0171 0.437263 4.54868e-21)
(1.01832 0.421983 -8.38538e-21)
(1.01992 0.408024 -1.27086e-21)
(1.0221 0.395668 4.27416e-20)
(1.02543 0.384462 -4.08895e-20)
(0.222582 0.169771 -4.56579e-19)
(0.531237 0.409474 -3.92545e-19)
(0.73312 0.559169 1.82377e-19)
(0.855271 0.636069 -2.18805e-19)
(0.922834 0.662823 -1.79057e-20)
(0.95691 0.659339 1.77044e-20)
(0.972589 0.640084 -3.02694e-20)
(0.979263 0.614146 -3.07349e-20)
(0.982115 0.58651 -3.60535e-20)
(0.983691 0.559549 -2.50539e-20)
(0.985095 0.534207 -2.88589e-20)
(0.986723 0.510737 3.44492e-20)
(0.98865 0.489107 -2.82691e-21)
(0.990817 0.469178 9.34147e-21)
(0.99312 0.450792 4.58418e-21)
(0.995475 0.433798 -6.32014e-20)
(0.997892 0.418081 -5.4341e-20)
(1.00053 0.403663 -5.84235e-20)
(1.00371 0.390858 -1.20468e-21)
(1.00814 0.379613 9.00337e-20)
(0.218045 0.179311 4.11771e-19)
(0.515958 0.426396 2.00012e-20)
(0.708695 0.575624 -4.3331e-20)
(0.824315 0.648891 4.9335e-20)
(0.888125 0.671487 1.31614e-19)
(0.920774 0.66446 -1.03246e-19)
(0.936628 0.642567 1.46708e-20)
(0.944404 0.614772 -3.37534e-20)
(0.948795 0.585821 -2.04232e-20)
(0.952051 0.557878 1.73083e-21)
(0.95513 0.53174 -5.19748e-20)
(0.958381 0.50758 -4.34018e-20)
(0.961885 0.485325 4.79323e-20)
(0.965612 0.46482 -1.74994e-20)
(0.969473 0.445904 -1.88402e-19)
(0.973349 0.428433 1.8516e-19)
(0.97716 0.412272 -1.10181e-19)
(0.981068 0.397315 -6.96988e-20)
(0.985637 0.383794 8.85355e-20)
(0.99164 0.372277 -1.09177e-19)
(0.211889 0.187672 -8.79238e-20)
(0.497625 0.440495 9.54515e-20)
(0.681006 0.588464 4.61517e-20)
(0.790487 0.657934 -6.78817e-20)
(0.85112 0.676559 2.10828e-20)
(0.882876 0.666321 -3.7946e-20)
(0.899312 0.642133 -1.5293e-20)
(0.908461 0.612779 1.88997e-20)
(0.914552 0.582751 -1.05953e-22)
(0.919573 0.554005 -1.12388e-19)
(0.92436 0.527202 2.94135e-20)
(0.929227 0.502435 9.10017e-21)
(0.934277 0.479585 1.33856e-19)
(0.939534 0.458479 -3.39857e-19)
(0.944965 0.438954 3.16511e-19)
(0.950451 0.420899 1.67973e-19)
(0.955857 0.404171 -3.34553e-20)
(0.961425 0.388459 2.75462e-20)
(0.968008 0.373776 3.01459e-19)
(0.975887 0.361644 -1.25794e-19)
(0.204238 0.194703 -2.42057e-20)
(0.47657 0.451548 5.65008e-20)
(0.650493 0.597505 -4.92512e-20)
(0.754245 0.663071 6.37847e-20)
(0.812243 0.677958 -3.70292e-20)
(0.843585 0.664862 3.51535e-20)
(0.860948 0.638736 2.82821e-20)
(0.87169 0.608134 -7.68405e-20)
(0.879603 0.577284 7.68598e-20)
(0.886438 0.547939 5.35199e-20)
(0.892924 0.520633 2.66828e-20)
(0.899344 0.495375 4.45553e-21)
(0.905816 0.471988 1.07477e-19)
(0.912415 0.450247 -1.08139e-19)
(0.919178 0.429951 1.29008e-19)
(0.926035 0.41097 -2.70446e-19)
(0.932902 0.393116 3.02046e-19)
(0.940206 0.37578 -2.59379e-19)
(0.948896 0.358713 -1.75649e-19)
(0.957882 0.345296 2.99361e-19)
(0.195241 0.200276 1.44532e-20)
(0.453153 0.459375 -2.13454e-20)
(0.617612 0.602606 -1.28798e-20)
(0.716057 0.664212 -4.95094e-20)
(0.771923 0.675626 1.49726e-20)
(0.803271 0.660047 4.85047e-21)
(0.821856 0.632352 -1.71049e-19)
(0.834367 0.600823 1.14028e-19)
(0.844194 0.569422 1.13246e-19)
(0.852874 0.539718 -1.5792e-19)
(0.861039 0.512129 1.84473e-19)
(0.868934 0.486596 -7.07141e-20)
(0.876667 0.462886 1.38424e-19)
(0.884311 0.440715 -2.21279e-19)
(0.891916 0.419799 4.60302e-19)
(0.899445 0.399891 -1.04327e-19)
(0.90692 0.380594 -2.88324e-20)
(0.914997 0.360692 3.02287e-19)
(0.924453 0.338294 -1.47268e-19)
(0.930453 0.31584 6.45743e-20)
(0.185064 0.204282 -6.69481e-20)
(0.427753 0.463835 8.82716e-20)
(0.582829 0.603666 -3.32999e-20)
(0.676389 0.6613 5.14655e-20)
(0.730585 0.669534 -2.5268e-20)
(0.762308 0.651858 -1.68381e-19)
(0.782359 0.622967 2.58478e-19)
(0.796783 0.590835 1.7561e-20)
(0.808597 0.559165 -2.75559e-20)
(0.819153 0.529354 4.91289e-21)
(0.829003 0.50173 8.39478e-20)
(0.838358 0.476194 1.44565e-19)
(0.847301 0.452506 8.69846e-20)
(0.855867 0.430395 -2.06605e-19)
(0.864042 0.409615 -5.89324e-20)
(0.871765 0.389976 -1.07943e-20)
(0.879132 0.37122 3.84846e-20)
(0.886718 0.352678 5.03222e-21)
(0.89449 0.333652 4.41797e-19)
(0.897903 0.316218 -3.08526e-19)
(0.173885 0.206632 1.70778e-19)
(0.40076 0.464826 -2.89149e-20)
(0.546611 0.600623 -1.16624e-19)
(0.635704 0.654308 3.84301e-19)
(0.688649 0.659677 7.27277e-20)
(0.721062 0.640296 -2.28244e-19)
(0.74278 0.61058 2.13245e-19)
(0.759228 0.578168 -4.78597e-20)
(0.773085 0.546504 1.88959e-19)
(0.785545 0.516831 8.6054e-20)
(0.797102 0.489395 -4.17281e-19)
(0.807954 0.464066 -4.86306e-20)
(0.818186 0.440596 5.80596e-19)
(0.827834 0.41872 -7.10624e-19)
(0.836875 0.398201 6.57355e-19)
(0.845243 0.378846 2.27567e-19)
(0.852994 0.360385 -8.10102e-19)
(0.860522 0.342258 3.91087e-19)
(0.86766 0.324161 -8.06296e-20)
(0.870992 0.308423 9.39397e-20)
(0.161897 0.207263 -3.05144e-19)
(0.372574 0.462288 -3.14243e-19)
(0.509426 0.593455 2.14861e-19)
(0.594459 0.643245 -2.68582e-19)
(0.646527 0.646074 -7.32253e-19)
(0.679897 0.625379 -2.34863e-20)
(0.70344 0.595205 -2.17001e-19)
(0.721993 0.562831 1.14364e-20)
(0.73793 0.531448 -4.246e-19)
(0.752308 0.502157 -4.32094e-19)
(0.765576 0.475142 -2.93263e-19)
(0.777926 0.45025 -1.20768e-20)
(0.789451 0.427237 -7.27224e-19)
(0.800199 0.405855 -5.23073e-21)
(0.810173 0.385896 3.54491e-19)
(0.819339 0.367201 -3.52761e-19)
(0.827771 0.349558 -2.71675e-19)
(0.835787 0.332545 2.61511e-19)
(0.843213 0.315979 -1.87753e-19)
(0.847251 0.301706 3.61911e-20)
(0.149295 0.206134 2.42407e-19)
(0.343595 0.456197 1.88378e-19)
(0.471734 0.582175 -6.68342e-21)
(0.5531 0.628147 -1.52221e-19)
(0.604621 0.628769 3.74334e-19)
(0.639165 0.607146 5.99343e-19)
(0.664651 0.57687 -6.19287e-20)
(0.685365 0.544839 1.17537e-20)
(0.703402 0.513998 1.17692e-19)
(0.719711 0.485319 2.66319e-19)
(0.734707 0.458932 3.85597e-19)
(0.748585 0.43467 -3.11551e-19)
(0.761454 0.412291 3.08491e-19)
(0.773377 0.391561 -1.05456e-19)
(0.784379 0.372285 3.5918e-19)
(0.794458 0.354312 -1.39697e-19)
(0.803712 0.337456 -3.46512e-19)
(0.812465 0.321383 2.08983e-19)
(0.82057 0.306025 -2.97608e-19)
(0.825584 0.292938 -3.3863e-19)
(0.136282 0.203225 1.05896e-19)
(0.314218 0.446568 1.93769e-19)
(0.433985 0.566835 -2.04115e-19)
(0.512058 0.609084 9.78848e-21)
(0.563319 0.607829 3.50672e-20)
(0.599207 0.585656 2.82679e-19)
(0.626717 0.555621 -4.18544e-19)
(0.649614 0.524225 3.98072e-19)
(0.669752 0.494174 -3.80153e-20)
(0.687984 0.466323 1.09032e-19)
(0.704707 0.440757 1.75445e-19)
(0.720125 0.417298 -3.3443e-19)
(0.734366 0.395713 1.60683e-19)
(0.747518 0.375778 1.52534e-19)
(0.759632 0.357312 5.62381e-20)
(0.770735 0.340174 -2.88509e-19)
(0.780953 0.32419 9.71937e-19)
(0.790603 0.309075 -5.43745e-19)
(0.799536 0.294794 9.88805e-19)
(0.805584 0.282636 -6.41176e-20)
(0.123056 0.19854 7.62169e-20)
(0.284832 0.43345 4.55947e-19)
(0.396615 0.54752 1.61464e-19)
(0.471749 0.586151 3.38213e-19)
(0.52299 0.583347 8.78551e-20)
(0.56035 0.560988 -5.39693e-19)
(0.589926 0.531522 8.36701e-19)
(0.615005 0.501037 4.33205e-19)
(0.637222 0.47201 1.81244e-20)
(0.657354 0.445189 5.61559e-19)
(0.675787 0.42062 9.04541e-20)
(0.692739 0.398119 5.88938e-20)
(0.708359 0.37746 3.36139e-19)
(0.722761 0.358429 -1.25553e-19)
(0.736018 0.340855 -1.32806e-19)
(0.748189 0.3246 7.83805e-19)
(0.759425 0.3095 -6.5539e-19)
(0.770034 0.295309 2.54227e-20)
(0.779856 0.282009 8.29609e-19)
(0.786965 0.270657 -7.86444e-22)
(0.109817 0.1921 -9.7677e-19)
(0.255812 0.416926 -1.65967e-19)
(0.360039 0.524346 -2.23826e-19)
(0.432568 0.559476 -1.70729e-19)
(0.483989 0.555442 -4.32369e-19)
(0.522903 0.533243 1.48051e-19)
(0.554553 0.504656 -2.07046e-19)
(0.581782 0.475344 5.94535e-20)
(0.606035 0.447561 -2.99678e-19)
(0.628026 0.421956 -2.84189e-19)
(0.648135 0.398545 5.86497e-20)
(0.666598 0.377143 -4.59723e-19)
(0.683586 0.357529 3.66857e-19)
(0.699235 0.339502 -1.32541e-19)
(0.713644 0.322896 4.16297e-19)
(0.726897 0.307577 -8.98223e-19)
(0.739163 0.293391 -1.70448e-19)
(0.750733 0.280118 -3.22445e-19)
(0.761446 0.267745 -8.66817e-19)
(0.769605 0.257129 -1.39673e-19)
(0.0967567 0.183948 1.59454e-19)
(0.227519 0.39711 -1.91182e-20)
(0.324656 0.497464 -2.45304e-19)
(0.39489 0.529211 8.65885e-20)
(0.446648 0.524255 -1.75098e-19)
(0.487159 0.502547 -2.32675e-21)
(0.520856 0.47513 2.38768e-19)
(0.55018 0.447235 -3.56248e-19)
(0.576403 0.420898 1.39231e-19)
(0.600191 0.396683 -8.04836e-20)
(0.621923 0.374579 2.17066e-20)
(0.641853 0.354403 -3.99014e-19)
(0.660175 0.335942 -4.85821e-19)
(0.677046 0.319006 -1.83867e-20)
(0.692586 0.303435 5.41681e-19)
(0.706903 0.289101 2.54506e-20)
(0.720177 0.275857 6.86208e-19)
(0.732682 0.263509 -1.00012e-18)
(0.744264 0.252041 5.32462e-19)
(0.753446 0.242136 9.17446e-19)
(0.0840614 0.174146 -1.38603e-19)
(0.200294 0.374148 7.44672e-20)
(0.290838 0.467051 4.84388e-19)
(0.359066 0.495539 1.19548e-19)
(0.41128 0.489953 -1.61378e-19)
(0.453392 0.469044 1.27305e-19)
(0.48908 0.443069 5.01376e-19)
(0.520414 0.416816 -4.06751e-19)
(0.548521 0.392116 3.78288e-20)
(0.574025 0.369451 -1.48588e-19)
(0.59731 0.348792 5.37651e-19)
(0.618646 0.329958 3.84295e-19)
(0.638249 0.31275 -5.57014e-20)
(0.656296 0.296985 -5.84124e-19)
(0.672926 0.282515 3.08411e-20)
(0.688267 0.269215 -7.22012e-20)
(0.702505 0.256947 3.43779e-19)
(0.715899 0.245542 5.5972e-19)
(0.728309 0.234976 4.89319e-19)
(0.738476 0.225783 -8.17401e-19)
(0.0719078 0.162771 -8.662e-20)
(0.17446 0.348213 3.69772e-19)
(0.258936 0.433316 -3.60746e-19)
(0.325422 0.458663 5.01438e-19)
(0.378174 0.452722 -2.7292e-19)
(0.421856 0.4329 1.95561e-19)
(0.459448 0.408619 4.97225e-19)
(0.492686 0.384218 -5.97982e-19)
(0.522571 0.361329 2.72526e-19)
(0.549694 0.340361 3.45284e-19)
(0.574443 0.321272 -4.69609e-19)
(0.597107 0.30389 -3.3542e-20)
(0.617921 0.288025 -3.77453e-19)
(0.63708 0.273509 6.05275e-19)
(0.654743 0.260201 -3.28611e-19)
(0.671051 0.247984 3.53069e-19)
(0.686196 0.236731 -6.40495e-20)
(0.700419 0.226292 2.18418e-19)
(0.713607 0.216639 4.97891e-20)
(0.724707 0.208174 -1.27649e-19)
(0.0604618 0.149921 -2.65255e-19)
(0.150314 0.319503 -6.10853e-19)
(0.229271 0.396491 1.60792e-19)
(0.29426 0.418814 -5.15783e-19)
(0.347597 0.412774 -4.88603e-19)
(0.392787 0.394304 -3.51333e-19)
(0.432168 0.371945 2.7393e-19)
(0.467183 0.349588 2.10782e-19)
(0.49872 0.328668 -1.52022e-21)
(0.527346 0.309533 -1.84032e-19)
(0.553456 0.29213 -3.3201e-19)
(0.577356 0.276298 2.99666e-19)
(0.599297 0.261861 -1.03179e-19)
(0.619491 0.248665 -5.11258e-19)
(0.638113 0.236579 3.33195e-19)
(0.655319 0.225493 -2.50328e-19)
(0.671302 0.215294 -1.02117e-19)
(0.686288 0.205851 -2.85871e-19)
(0.700194 0.197127 -2.59215e-19)
(0.712168 0.18942 6.70323e-20)
(0.0498772 0.135706 2.31739e-19)
(0.128133 0.288242 1.2017e-19)
(0.202138 0.356833 1.83849e-19)
(0.265853 0.376243 -6.27034e-19)
(0.319793 0.370338 6.71815e-19)
(0.366396 0.35346 3.18718e-21)
(0.40743 0.333232 5.49593e-21)
(0.444073 0.31309 -4.10107e-19)
(0.477122 0.294284 3.8312e-19)
(0.507121 0.277103 -2.66562e-19)
(0.534474 0.261493 8.06341e-20)
(0.559503 0.247301 -3.58127e-19)
(0.582474 0.23437 -1.70549e-19)
(0.603615 0.222559 -8.15802e-20)
(0.623114 0.21175 6.14668e-19)
(0.641138 0.201842 -3.01862e-19)
(0.657881 0.192737 -2.72604e-19)
(0.673556 0.184319 2.80773e-19)
(0.688117 0.176547 -2.30629e-19)
(0.700893 0.169632 1.79773e-19)
(0.0402942 0.12025 4.9192e-19)
(0.108163 0.254675 -2.97081e-19)
(0.177802 0.314623 4.45387e-20)
(0.240448 0.331222 5.2098e-19)
(0.294977 0.325663 2.06806e-19)
(0.342877 0.310591 2.56754e-19)
(0.385403 0.292679 2.55709e-19)
(0.423509 0.274906 5.42762e-19)
(0.457912 0.258342 -1.24511e-19)
(0.489142 0.243226 2.97362e-19)
(0.517609 0.2295 4.32516e-19)
(0.543649 0.21703 1.59467e-19)
(0.567544 0.205674 2.89051e-19)
(0.589533 0.195309 1.04985e-19)
(0.609816 0.185829 6.18844e-20)
(0.628571 0.177145 -4.48129e-20)
(0.645991 0.169169 3.59713e-19)
(0.662277 0.161807 2.22021e-19)
(0.677421 0.15501 -2.01759e-19)
(0.690923 0.148923 1.90341e-19)
(0.0318384 0.103693 -3.26538e-19)
(0.090626 0.219069 3.69047e-20)
(0.156499 0.270159 -9.44182e-20)
(0.218262 0.28404 -2.86832e-19)
(0.273344 0.279013 -1.52174e-19)
(0.322397 0.265935 -2.76554e-19)
(0.366237 0.2505 1.28494e-19)
(0.405627 0.235231 -4.97813e-19)
(0.441215 0.221022 2.941e-19)
(0.47352 0.208065 -4.071e-19)
(0.502961 0.196307 -2.53044e-19)
(0.529886 0.18563 -3.35184e-19)
(0.554588 0.175913 7.68132e-20)
(0.577317 0.167047 -7.58467e-20)
(0.598285 0.158942 9.08894e-20)
(0.617678 0.151521 4.89757e-20)
(0.635685 0.14471 9.73624e-20)
(0.652501 0.13843 -8.14335e-19)
(0.668155 0.132632 4.05449e-19)
(0.682295 0.127409 -2.43101e-19)
(0.0246194 0.0861831 1.07851e-19)
(0.0757129 0.181707 2.17898e-19)
(0.13843 0.223758 -1.42249e-19)
(0.199482 0.235001 3.51333e-19)
(0.255059 0.230666 -5.65415e-20)
(0.305104 0.219744 4.07252e-19)
(0.350064 0.206925 7.87222e-20)
(0.390542 0.194274 -8.28383e-20)
(0.427134 0.182515 3.01477e-19)
(0.460351 0.1718 2.30772e-19)
(0.490617 0.162081 8.56645e-20)
(0.518291 0.153259 1.12751e-19)
(0.543676 0.145233 5.6607e-20)
(0.567032 0.137913 -2.40396e-19)
(0.58858 0.131224 -3.35558e-20)
(0.608511 0.125101 2.51469e-19)
(0.627015 0.119484 -1.71903e-19)
(0.644276 0.114311 -7.89841e-21)
(0.660361 0.109534 -3.60675e-19)
(0.675045 0.10521 7.26798e-19)
(0.0187302 0.0678802 2.89099e-19)
(0.0635854 0.142887 -3.47401e-19)
(0.123768 0.175752 1.62944e-19)
(0.184266 0.184426 -2.30781e-19)
(0.240262 0.180915 2.03573e-19)
(0.291119 0.172281 -3.53812e-19)
(0.336991 0.162191 -2.59342e-19)
(0.378354 0.152252 1.94431e-20)
(0.415761 0.143022 -3.54062e-19)
(0.449716 0.134617 -2.21183e-19)
(0.480651 0.126996 -3.83425e-19)
(0.508932 0.120079 -1.29734e-20)
(0.534871 0.113789 -1.49187e-19)
(0.558735 0.108054 3.77665e-19)
(0.580752 0.102815 2.6063e-19)
(0.601119 0.0980202 -8.74671e-20)
(0.620023 0.0936244 -7.91231e-20)
(0.637644 0.0895779 -3.51363e-21)
(0.654078 0.0858414 9.76339e-21)
(0.669206 0.0824456 1.43493e-19)
(0.0142461 0.0489516 -7.23024e-20)
(0.0543737 0.102919 -2.4759e-19)
(0.112649 0.126483 -1.54476e-19)
(0.172742 0.132642 -9.67266e-20)
(0.229064 0.130061 -2.00617e-19)
(0.280543 0.123819 3.44109e-19)
(0.327108 0.116547 -3.67809e-20)
(0.369141 0.109393 -8.29361e-20)
(0.407166 0.102755 3.38528e-21)
(0.441681 0.0967123 2.4424e-19)
(0.473123 0.0912344 -2.32225e-19)
(0.501863 0.0862645 2.27368e-19)
(0.528222 0.0817454 1.06872e-19)
(0.552471 0.0776261 -1.94956e-19)
(0.574843 0.0738633 4.26427e-20)
(0.595539 0.0704208 1.25647e-19)
(0.614745 0.0672657 4.38648e-20)
(0.632637 0.0643628 -3.03145e-20)
(0.649336 0.0616821 -2.6489e-19)
(0.664803 0.0592385 2.10988e-19)
(0.0112241 0.0295715 6.52044e-20)
(0.0481763 0.0621242 7.92048e-20)
(0.105176 0.0763066 2.22831e-20)
(0.165004 0.0799906 -1.68093e-20)
(0.221549 0.0784125 4.78453e-20)
(0.273448 0.0746366 7.32672e-20)
(0.320481 0.0702467 2.77899e-20)
(0.362965 0.065932 3.39281e-20)
(0.401404 0.06193 -7.23933e-20)
(0.436295 0.0582876 1.35643e-19)
(0.468077 0.0549863 -3.2087e-20)
(0.497127 0.0519917 -2.61281e-21)
(0.523767 0.0492689 3.26489e-20)
(0.548274 0.0467874 3.68336e-20)
(0.570884 0.0445209 -9.91686e-20)
(0.591802 0.0424476 6.51809e-20)
(0.611211 0.0405478 4.2812e-20)
(0.629284 0.0388006 3.65862e-20)
(0.646161 0.0371869 7.85838e-20)
(0.661855 0.0357131 3.25662e-20)
(0.0097026 0.00991849 -1.33526e-20)
(0.0450593 0.0208307 2.77559e-20)
(0.101421 0.025582 -3.88609e-20)
(0.161117 0.0268149 2.44302e-20)
(0.217776 0.0262855 1.43666e-20)
(0.269887 0.0250208 6.44953e-21)
(0.317154 0.0235512 1.5218e-20)
(0.359864 0.0221071 -4.36577e-20)
(0.398512 0.0207678 2.78582e-20)
(0.433592 0.019549 9.73398e-21)
(0.465545 0.0184444 -5.91979e-22)
(0.494749 0.0174423 6.00648e-20)
(0.521531 0.0165313 -1.82147e-20)
(0.546168 0.015701 -1.74749e-20)
(0.568898 0.0149427 -1.68287e-20)
(0.589926 0.014249 2.607e-21)
(0.609437 0.0136133 -2.25523e-20)
(0.627601 0.0130288 4.29603e-21)
(0.644568 0.012489 8.49243e-22)
(0.660377 0.0119954 -2.86616e-21)
(0.00970083 -0.00982587 8.4819e-21)
(0.0450556 -0.0206297 -4.51479e-20)
(0.101416 -0.0253258 5.38508e-20)
(0.161112 -0.0265361 -4.04886e-20)
(0.217771 -0.0260016 -1.89249e-20)
(0.269882 -0.02474 5.66697e-20)
(0.317149 -0.0232766 4.73203e-21)
(0.35986 -0.0218394 1.33056e-21)
(0.398508 -0.020507 2.6577e-20)
(0.433588 -0.0192945 1.37618e-20)
(0.465541 -0.0181959 -1.085e-20)
(0.494746 -0.0171994 -3.8168e-20)
(0.521527 -0.0162936 3.60188e-21)
(0.546164 -0.0154682 -3.35337e-21)
(0.568894 -0.0147145 3.56916e-20)
(0.589923 -0.0140251 -2.14972e-20)
(0.609434 -0.0133936 2.95291e-20)
(0.627598 -0.0128131 -4.42778e-20)
(0.644565 -0.0122769 5.17829e-23)
(0.660374 -0.0117869 -9.33695e-21)
(0.0112188 -0.0294793 -2.81773e-20)
(0.0481653 -0.0619239 1.42189e-19)
(0.105163 -0.0760511 9.58781e-20)
(0.16499 -0.0797125 6.34946e-20)
(0.221535 -0.0781292 7.93482e-20)
(0.273435 -0.0743564 -1.92227e-20)
(0.320467 -0.0699725 8.80638e-20)
(0.362952 -0.0656648 1.80789e-20)
(0.401392 -0.0616695 -7.83068e-21)
(0.436283 -0.0580335 -6.29614e-20)
(0.468066 -0.0547382 6.54098e-20)
(0.497116 -0.0517491 -8.89057e-20)
(0.523756 -0.0490315 6.46689e-20)
(0.548263 -0.0465549 7.4167e-20)
(0.570874 -0.044293 9.82409e-20)
(0.591792 -0.0422241 -6.4498e-20)
(0.611201 -0.0403284 1.82959e-20)
(0.629275 -0.0385851 6.83559e-20)
(0.646152 -0.0369751 -6.46459e-20)
(0.661847 -0.0355049 4.87797e-20)
(0.0142373 -0.0488602 -2.72457e-19)
(0.0543555 -0.10272 -1.36923e-19)
(0.112626 -0.126229 -1.52324e-19)
(0.172718 -0.132366 -1.20208e-20)
(0.22904 -0.129779 -8.22286e-20)
(0.28052 -0.123539 -1.00871e-19)
(0.327086 -0.116274 1.78395e-19)
(0.36912 -0.109127 9.10102e-20)
(0.407145 -0.102496 1.12301e-19)
(0.441661 -0.0964589 -1.21965e-19)
(0.473104 -0.090987 9.0467e-20)
(0.501845 -0.0860226 1.10562e-19)
(0.528204 -0.0815086 3.90058e-20)
(0.552454 -0.0773941 -3.70736e-20)
(0.574826 -0.073636 8.03478e-21)
(0.595523 -0.0701978 -1.59723e-20)
(0.61473 -0.0670467 -1.57124e-19)
(0.632622 -0.0641478 2.42916e-20)
(0.649321 -0.0614707 1.52884e-19)
(0.664788 -0.0590307 -2.0541e-19)
(0.0187181 -0.0677899 -8.97225e-20)
(0.0635601 -0.14269 1.32882e-19)
(0.123737 -0.1755 3.07904e-20)
(0.184233 -0.184151 -5.75147e-20)
(0.240229 -0.180635 -1.62722e-19)
(0.291087 -0.172004 -3.48896e-19)
(0.33696 -0.161919 -3.32328e-19)
(0.378324 -0.151987 -2.40003e-20)
(0.415732 -0.142764 -1.93621e-19)
(0.449689 -0.134365 -2.89781e-19)
(0.480625 -0.126749 2.24957e-19)
(0.508907 -0.119838 -3.31809e-19)
(0.534846 -0.113553 6.62154e-20)
(0.558711 -0.107823 -2.10701e-20)
(0.580729 -0.102588 -6.97887e-20)
(0.601097 -0.097798 -8.83325e-20)
(0.620001 -0.0934062 1.43197e-19)
(0.637622 -0.0893635 1.14571e-19)
(0.654057 -0.0856307 1.97083e-19)
(0.669185 -0.0822385 -2.94937e-19)
(0.024604 -0.0860943 4.86567e-20)
(0.0756807 -0.181513 4.72982e-19)
(0.138391 -0.223509 1.3552e-19)
(0.19944 -0.234729 3.27762e-19)
(0.255017 -0.230388 -1.22531e-19)
(0.305063 -0.219469 1.88717e-19)
(0.350024 -0.206655 -5.94622e-20)
(0.390504 -0.19401 3.83204e-19)
(0.427098 -0.182258 -1.97299e-19)
(0.460316 -0.171549 2.32633e-19)
(0.490584 -0.161836 2.02094e-19)
(0.518258 -0.153019 2.16406e-19)
(0.543645 -0.144998 -1.93712e-19)
(0.567002 -0.137683 1.66455e-19)
(0.58855 -0.130998 -2.31412e-19)
(0.608482 -0.124879 -6.37214e-20)
(0.626987 -0.119267 -1.5276e-19)
(0.644249 -0.114097 -6.4919e-20)
(0.660334 -0.109324 2.57467e-19)
(0.675019 -0.105004 -4.26366e-19)
(0.0318199 -0.103606 -1.95877e-19)
(0.0905872 -0.218878 -2.27112e-20)
(0.156451 -0.269914 -7.81013e-20)
(0.21821 -0.28377 -2.7457e-19)
(0.273293 -0.278738 4.66434e-20)
(0.322347 -0.265662 -4.30346e-19)
(0.36619 -0.250233 -1.81115e-19)
(0.405581 -0.23497 -1.40376e-20)
(0.441171 -0.220767 -4.55912e-19)