1.275 	2.15223e-18 	-2.76991e-20 	-0.137935 	0.00482022 	-2.53703e-22
1.825 	2.15223e-18 	-1.39322e-20 	-0.264679 	-0.00938119 	3.43249e-21
2.375 	2.15223e-18 	-2.66896e-23 	-0.327458 	-0.0281623 	-1.61002e-21
