1.275 	2.15223e-18 	-2.76991e-20 	-0.152018 	0.0069699 	-2.82062e-22
1.825 	2.15223e-18 	-1.39322e-20 	-0.364692 	0.00680259 	4.23184e-21
2.375 	2.15223e-18 	-2.66896e-23 	-0.459285 	0.00183767 	-2.12178e-21
