/*--------------------------------*- C++ -*----------------------------------*\
  =========                 |
  \\      /  F ield         | OpenFOAM: The Open Source CFD Toolbox
   \\    /   O peration     | Website:  https://openfoam.org
    \\  /    A nd           | Version:  6.0
     \\/     M anipulation  |
\*---------------------------------------------------------------------------*/
FoamFile
{
    version     2.0;
    format      ascii;
    class       volScalarField;
    location    "9.1";
    object      p;
}
// * * * * * * * * * * * * * * * * * * * * * * * * * * * * * * * * * * * * * //

dimensions      [0 2 -2 0 0 0 0];

internalField   nonuniform List<scalar> 
8000
(
-0.310428
-0.312194
-0.313322
-0.314158
-0.314909
-0.315619
-0.316318
-0.317029
-0.317768
-0.318544
-0.319361
-0.320225
-0.32114
-0.322111
-0.323148
-0.324277
-0.325486
-0.326573
-0.327523
-0.33027
-0.310711
-0.312438
-0.313544
-0.314364
-0.315102
-0.315801
-0.316488
-0.31719
-0.317918
-0.318683
-0.319489
-0.320341
-0.321244
-0.322202
-0.323227
-0.324345
-0.325544
-0.326623
-0.327561
-0.330303
-0.311261
-0.312912
-0.313975
-0.314764
-0.315476
-0.316151
-0.316817
-0.317496
-0.318203
-0.318945
-0.319727
-0.320555
-0.321433
-0.322365
-0.323363
-0.324456
-0.325635
-0.326698
-0.327611
-0.33034
-0.312058
-0.313602
-0.3146
-0.315344
-0.316017
-0.316655
-0.317286
-0.317932
-0.318604
-0.31931
-0.320055
-0.320844
-0.321681
-0.322572
-0.323528
-0.324581
-0.325725
-0.326762
-0.327634
-0.330337
-0.313074
-0.314484
-0.3154
-0.316086
-0.316705
-0.317293
-0.317876
-0.318473
-0.319096
-0.319751
-0.320443
-0.321176
-0.321955
-0.322787
-0.323683
-0.324676
-0.325769
-0.326764
-0.327578
-0.330239
-0.314275
-0.315531
-0.316352
-0.316965
-0.317517
-0.318042
-0.318562
-0.319095
-0.319653
-0.320239
-0.32086
-0.321518
-0.322219
-0.322969
-0.323783
-0.324696
-0.325717
-0.326651
-0.327388
-0.329984
-0.315623
-0.316715
-0.317429
-0.317958
-0.318431
-0.318877
-0.319318
-0.319771
-0.320244
-0.320744
-0.321272
-0.321834
-0.322434
-0.32308
-0.323788
-0.324594
-0.325517
-0.326368
-0.327005
-0.329513
-0.317084
-0.318009
-0.318609
-0.319044
-0.319424
-0.319776
-0.320122
-0.320476
-0.320847
-0.321238
-0.321653
-0.322096
-0.32257
-0.323086
-0.32366
-0.324331
-0.325127
-0.325869
-0.326382
-0.328775
-0.318625
-0.319389
-0.319872
-0.320204
-0.320478
-0.320722
-0.320956
-0.321193
-0.321442
-0.321705
-0.321985
-0.322284
-0.322609
-0.322967
-0.323376
-0.323881
-0.324518
-0.325118
-0.325482
-0.327734
-0.320223
-0.320835
-0.3212
-0.321422
-0.32158
-0.321703
-0.321809
-0.321912
-0.322021
-0.322137
-0.322261
-0.322396
-0.322545
-0.322718
-0.322933
-0.323238
-0.323678
-0.324099
-0.324281
-0.326366
-0.321862
-0.322337
-0.322586
-0.32269
-0.322723
-0.322711
-0.322676
-0.322631
-0.322585
-0.322538
-0.322489
-0.322441
-0.322394
-0.322357
-0.322348
-0.322416
-0.322618
-0.322814
-0.322771
-0.324657
-0.323536
-0.323892
-0.324026
-0.324008
-0.323906
-0.323748
-0.32356
-0.323356
-0.323143
-0.322922
-0.322691
-0.322446
-0.322188
-0.321922
-0.321662
-0.321458
-0.321373
-0.321285
-0.320954
-0.32259
-0.325251
-0.325504
-0.325526
-0.32538
-0.325134
-0.324823
-0.324472
-0.3241
-0.323715
-0.323315
-0.322896
-0.322452
-0.321976
-0.321468
-0.320937
-0.320426
-0.320003
-0.319557
-0.318842
-0.320142
-0.327024
-0.327189
-0.327098
-0.326819
-0.326421
-0.325946
-0.325427
-0.324882
-0.324321
-0.323743
-0.32314
-0.322501
-0.321811
-0.32106
-0.320247
-0.319401
-0.318586
-0.317691
-0.316455
-0.317271
-0.328883
-0.328967
-0.328762
-0.32834
-0.327782
-0.327136
-0.326441
-0.325721
-0.324987
-0.324236
-0.323457
-0.322633
-0.321742
-0.320758
-0.319661
-0.318462
-0.317204
-0.315762
-0.313826
-0.313925
-0.330865
-0.330871
-0.330543
-0.329969
-0.329239
-0.328414
-0.327538
-0.326639
-0.325732
-0.324814
-0.32387
-0.322877
-0.321802
-0.320602
-0.319234
-0.317676
-0.315938
-0.313858
-0.311026
-0.310088
-0.333017
-0.332936
-0.332473
-0.331733
-0.330819
-0.329803
-0.328737
-0.327657
-0.326576
-0.325494
-0.324395
-0.323246
-0.322003
-0.320608
-0.31899
-0.317085
-0.314858
-0.312093
-0.308216
-0.30586
-0.335392
-0.335206
-0.33459
-0.333665
-0.332551
-0.331331
-0.330066
-0.328795
-0.327538
-0.326293
-0.32504
-0.323744
-0.32235
-0.320782
-0.318938
-0.31671
-0.314001
-0.310531
-0.305494
-0.301256
-0.338045
-0.337727
-0.336933
-0.335802
-0.334468
-0.333028
-0.331551
-0.330081
-0.328641
-0.327229
-0.325826
-0.324394
-0.322872
-0.321173
-0.319173
-0.316712
-0.313606
-0.309429
-0.303
-0.296193
-0.341039
-0.340549
-0.339546
-0.338184
-0.33661
-0.334932
-0.333228
-0.331547
-0.329915
-0.328333
-0.326786
-0.32524
-0.323643
-0.321925
-0.319986
-0.317698
-0.314877
-0.311004
-0.30457
-0.296763
-0.344434
-0.343725
-0.342477
-0.340854
-0.339015
-0.33708
-0.335134
-0.333232
-0.3314
-0.329645
-0.327958
-0.326318
-0.324699
-0.323076
-0.321445
-0.319843
-0.318401
-0.317347
-0.317634
-0.325374
-0.348291
-0.347305
-0.345771
-0.343857
-0.341728
-0.339517
-0.337315
-0.335179
-0.33314
-0.331207
-0.329378
-0.327645
-0.326003
-0.324466
-0.323083
-0.32197
-0.321349
-0.321589
-0.323475
-0.330792
-0.352668
-0.351342
-0.349477
-0.34724
-0.344796
-0.342289
-0.339817
-0.337437
-0.335182
-0.333064
-0.331083
-0.329243
-0.327552
-0.326043
-0.324788
-0.323913
-0.323623
-0.324201
-0.326051
-0.330972
-0.35762
-0.355885
-0.353643
-0.351049
-0.348264
-0.345444
-0.342689
-0.340055
-0.337573
-0.335253
-0.333099
-0.331113
-0.329311
-0.327728
-0.326427
-0.325511
-0.325114
-0.325393
-0.326532
-0.329149
-0.363198
-0.360983
-0.358315
-0.355332
-0.352183
-0.349032
-0.345979
-0.343076
-0.340347
-0.337798
-0.335427
-0.333232
-0.331223
-0.329427
-0.327888
-0.326668
-0.32584
-0.32546
-0.325608
-0.326251
-0.369449
-0.366679
-0.363539
-0.360136
-0.356602
-0.353102
-0.349733
-0.346538
-0.34353
-0.340703
-0.338045
-0.335547
-0.333209
-0.331045
-0.32908
-0.327346
-0.325872
-0.324669
-0.323775
-0.3229
-0.376412
-0.373014
-0.369358
-0.365509
-0.361566
-0.357697
-0.353988
-0.350465
-0.347124
-0.343945
-0.340905
-0.337983
-0.335174
-0.332483
-0.329923
-0.327515
-0.325269
-0.323186
-0.321288
-0.319246
-0.384119
-0.380022
-0.375812
-0.371491
-0.367119
-0.362856
-0.358769
-0.354863
-0.351112
-0.347479
-0.343931
-0.340444
-0.337012
-0.333641
-0.330347
-0.32715
-0.324066
-0.321101
-0.318275
-0.315321
-0.392588
-0.387729
-0.382929
-0.378117
-0.373293
-0.3686
-0.364081
-0.359711
-0.355441
-0.351223
-0.34702
-0.342815
-0.338609
-0.334423
-0.330286
-0.326228
-0.322276
-0.318452
-0.31477
-0.311054
-0.401824
-0.396146
-0.390731
-0.385408
-0.380103
-0.37493
-0.369899
-0.364954
-0.360028
-0.355069
-0.35005
-0.344969
-0.339853
-0.334742
-0.329684
-0.324724
-0.319903
-0.31525
-0.310777
-0.306379
-0.411813
-0.405268
-0.399218
-0.393366
-0.38754
-0.381815
-0.376164
-0.370501
-0.364754
-0.358881
-0.352879
-0.346779
-0.340638
-0.334522
-0.328498
-0.322625
-0.316948
-0.311501
-0.306287
-0.30125
-0.422512
-0.415066
-0.408369
-0.401964
-0.395561
-0.389186
-0.382773
-0.376222
-0.369469
-0.362502
-0.355361
-0.34812
-0.340869
-0.333701
-0.326696
-0.319919
-0.313414
-0.307212
-0.301301
-0.295653
-0.433852
-0.425486
-0.418133
-0.411144
-0.404086
-0.396931
-0.389585
-0.38195
-0.373996
-0.365765
-0.357352
-0.348878
-0.340467
-0.332231
-0.324256
-0.316602
-0.309307
-0.30239
-0.295824
-0.289593
-0.445725
-0.436435
-0.428422
-0.420805
-0.412988
-0.404891
-0.396414
-0.387488
-0.378146
-0.368501
-0.358714
-0.348951
-0.339364
-0.330071
-0.321155
-0.312667
-0.304627
-0.297041
-0.289859
-0.283081
-0.457986
-0.447789
-0.43911
-0.430801
-0.422092
-0.412865
-0.40304
-0.392618
-0.381718
-0.370544
-0.359318
-0.348248
-0.337498
-0.327183
-0.317374
-0.308101
-0.299369
-0.291162
-0.28341
-0.276127
-0.470449
-0.459376
-0.450024
-0.440939
-0.431176
-0.420608
-0.409218
-0.397109
-0.384517
-0.371736
-0.359049
-0.346686
-0.334813
-0.32353
-0.312886
-0.302887
-0.293518
-0.284744
-0.276469
-0.268732
-0.482887
-0.470987
-0.460947
-0.450978
-0.439978
-0.427848
-0.414683
-0.400731
-0.386353
-0.371934
-0.357799
-0.344189
-0.331255
-0.319071
-0.307658
-0.296998
-0.287053
-0.277767
-0.269019
-0.260885
-0.49503
-0.482367
-0.471615
-0.460634
-0.448196
-0.434287
-0.419168
-0.403257
-0.387048
-0.371002
-0.355471
-0.340684
-0.326766
-0.31376
-0.301652
-0.290399
-0.279941
-0.270202
-0.261038
-0.252567
-0.506573
-0.493223
-0.481725
-0.469586
-0.455505
-0.439622
-0.422408
-0.404473
-0.386439
-0.368819
-0.351971
-0.336099
-0.321289
-0.307545
-0.294822
-0.283048
-0.272145
-0.262016
-0.252494
-0.243752
-0.517179
-0.503229
-0.490939
-0.477485
-0.461568
-0.443547
-0.424151
-0.404183
-0.384375
-0.365272
-0.347213
-0.330363
-0.314762
-0.300374
-0.287119
-0.274901
-0.263624
-0.253171
-0.243353
-0.234408
-0.526489
-0.512029
-0.498894
-0.483968
-0.466044
-0.445771
-0.424162
-0.402208
-0.380723
-0.360258
-0.341115
-0.323407
-0.307125
-0.29219
-0.278492
-0.265912
-0.254336
-0.243626
-0.233577
-0.224499
-0.534124
-0.519251
-0.505212
-0.488668
-0.468604
-0.446022
-0.42223
-0.398389
-0.375363
-0.353684
-0.3336
-0.315164
-0.298317
-0.28294
-0.268892
-0.256034
-0.244237
-0.233343
-0.223131
-0.213994
-0.539705
-0.524516
-0.509515
-0.491227
-0.468941
-0.444056
-0.418172
-0.392588
-0.368191
-0.345466
-0.324595
-0.305571
-0.288281
-0.272571
-0.258271
-0.245225
-0.233289
-0.222286
-0.211983
-0.202861
-0.542858
-0.527449
-0.511436
-0.491313
-0.466778
-0.439659
-0.41183
-0.384692
-0.359117
-0.33553
-0.314038
-0.29457
-0.276966
-0.261036
-0.246587
-0.233446
-0.221458
-0.210424
-0.200106
-0.191074
-0.543227
-0.527692
-0.510629
-0.488624
-0.461875
-0.432656
-0.403077
-0.374604
-0.348068
-0.323814
-0.301875
-0.282114
-0.264328
-0.248296
-0.233805
-0.220666
-0.208715
-0.197732
-0.187478
-0.178614
-0.540484
-0.524915
-0.506785
-0.482899
-0.454036
-0.422905
-0.391814
-0.362252
-0.334986
-0.310271
-0.28806
-0.268162
-0.250331
-0.234319
-0.219896
-0.206862
-0.19504
-0.184194
-0.174086
-0.165469
-0.534339
-0.518828
-0.499638
-0.473926
-0.443109
-0.410305
-0.377974
-0.347589
-0.319831
-0.294863
-0.272564
-0.252686
-0.23495
-0.219084
-0.204842
-0.192017
-0.180422
-0.1698
-0.159924
-0.151633
-0.52455
-0.509186
-0.488976
-0.461545
-0.42899
-0.394793
-0.361517
-0.330585
-0.302581
-0.277573
-0.255366
-0.235669
-0.218169
-0.202576
-0.188634
-0.176126
-0.164856
-0.154551
-0.144997
-0.137111
-0.510929
-0.495801
-0.474642
-0.445654
-0.411621
-0.376344
-0.342434
-0.311239
-0.283234
-0.258395
-0.236464
-0.217106
-0.199986
-0.184796
-0.171272
-0.159191
-0.148349
-0.138457
-0.129315
-0.121913
-0.493345
-0.478546
-0.456541
-0.426203
-0.390993
-0.354969
-0.320745
-0.289569
-0.261805
-0.237342
-0.215865
-0.197006
-0.180407
-0.165751
-0.152766
-0.141225
-0.130916
-0.121538
-0.112905
-0.106068
-0.471735
-0.457355
-0.434641
-0.403201
-0.367144
-0.330719
-0.2965
-0.26562
-0.238332
-0.214445
-0.193596
-0.175389
-0.159452
-0.145458
-0.133132
-0.122246
-0.112578
-0.10382
-0.0958002
-0.0896163
-0.446096
-0.432232
-0.408972
-0.376712
-0.340155
-0.303679
-0.269777
-0.239459
-0.212871
-0.189751
-0.169696
-0.152288
-0.137147
-0.123942
-0.112394
-0.102275
-0.0933595
-0.0853311
-0.0780387
-0.0726043
-0.416495
-0.403242
-0.379627
-0.346851
-0.31015
-0.273966
-0.240684
-0.21118
-0.185501
-0.163325
-0.144218
-0.127747
-0.113528
-0.10123
-0.0905758
-0.0813355
-0.0732816
-0.066099
-0.0596533
-0.0550546
-0.383061
-0.370517
-0.346756
-0.313783
-0.277295
-0.241736
-0.209356
-0.1809
-0.156322
-0.135252
-0.11723
-0.101821
-0.0886392
-0.0773575
-0.0677022
-0.059447
-0.0523651
-0.0461488
-0.0406676
-0.0369558
-0.345983
-0.334247
-0.310563
-0.277719
-0.241793
-0.207173
-0.175958
-0.148761
-0.125457
-0.105633
-0.088819
-0.0745766
-0.0625282
-0.0523552
-0.0437925
-0.0366209
-0.0306208
-0.025495
-0.0210911
-0.0183076
-0.305511
-0.29468
-0.271303
-0.238913
-0.203882
-0.170495
-0.140682
-0.114935
-0.0930541
-0.0745978
-0.059089
-0.0460968
-0.0352553
-0.0262607
-0.0188636
-0.0128577
-0.00803634
-0.0041196
-0.000931826
0.00075187
-0.261945
-0.252113
-0.229277
-0.197657
-0.163835
-0.131948
-0.103751
-0.0796171
-0.0592864
-0.0422946
-0.0281662
-0.0164823
-0.00689531
0.000875769
0.00705625
0.0118361
0.0154048
0.0179846
0.0196841
0.0198062
-0.215631
-0.206888
-0.184823
-0.154275
-0.121952
-0.0918069
-0.0654133
-0.043033
-0.0243546
-0.00889873
0.00380444
0.0141568
0.0224808
0.0290237
0.0339753
0.0375041
0.0397573
0.0407751
0.0404289
0.038407
-0.166955
-0.159384
-0.138312
-0.109119
-0.078561
-0.0503717
-0.0259447
-0.00543753
0.011507
0.0253798
0.0366453
0.0456907
0.0528147
0.0582284
0.0620842
0.0645186
0.0655603
0.0648401
0.0618685
0.0576714
-0.116335
-0.110013
-0.0901411
-0.0625645
-0.034008
-0.0079643
0.0143534
0.0328834
0.0480229
0.0602739
0.0701008
0.077888
0.0839306
0.0884383
0.0915766
0.0934996
0.0941057
0.0925197
0.0880234
0.0834959
-0.0642135
-0.0592056
-0.0407274
-0.0150007
0.0113458
0.0350798
0.0551637
0.0716226
0.0848865
0.0954652
0.103823
0.110348
0.11535
0.119076
0.121779
0.123741
0.124931
0.124336
0.121698
0.1255
-0.0110427
-0.00740723
0.00950418
0.0331749
0.0571331
0.078419
0.0961641
0.11047
0.12179
0.130636
0.137465
0.142658
0.146522
0.149318
0.151314
0.152777
0.153691
0.153571
0.15334
0.159329
0.0427085
0.0449256
0.0601203
0.0815614
0.102986
0.121713
0.137036
0.149121
0.15844
0.165499
0.170745
0.174548
0.177209
0.178987
0.180137
0.180884
0.181205
0.180801
0.180604
0.185447
0.0965696
0.0973355
0.11069
0.129761
0.14854
0.164629
0.17747
0.187285
0.194558
0.199781
0.203386
0.205726
0.20709
0.207722
0.207858
0.207697
0.207233
0.206235
0.205472
0.208775
0.150073
0.149369
0.160786
0.177385
0.193443
0.206844
0.21717
0.22469
0.22989
0.233248
0.235175
0.236005
0.236007
0.235405
0.234409
0.233188
0.231724
0.229816
0.228167
0.23004
0.20276
0.200579
0.209993
0.224054
0.237353
0.24805
0.255855
0.261079
0.264202
0.265686
0.26592
0.265214
0.263818
0.261935
0.259751
0.257408
0.254873
0.251966
0.249356
0.249858
0.254182
0.250535
0.25791
0.269404
0.279941
0.28795
0.29326
0.296212
0.297279
0.296904
0.295452
0.293212
0.29041
0.28723
0.283836
0.280345
0.276715
0.272792
0.269218
0.268426
0.303907
0.298819
0.304149
0.313085
0.320895
0.326266
0.329132
0.329862
0.328919
0.326724
0.323618
0.319869
0.315681
0.31122
0.306629
0.302006
0.297301
0.29239
0.287877
0.285857
0.351523
0.345034
0.348343
0.354767
0.359918
0.362731
0.363235
0.361818
0.358932
0.354978
0.350272
0.34506
0.339528
0.333825
0.328074
0.322356
0.316621
0.310769
0.305359
0.302175
0.39664
0.388803
0.390146
0.394138
0.396733
0.397096
0.395344
0.391878
0.38714
0.381507
0.375274
0.368666
0.361852
0.354963
0.348107
0.341349
0.334643
0.327908
0.321648
0.317366
0.438889
0.429775
0.429233
0.430906
0.431078
0.429127
0.425249
0.419855
0.413374
0.40616
0.39849
0.390569
0.382549
0.374546
0.366653
0.358923
0.351313
0.343761
0.336704
0.331394
0.47793
0.467623
0.465305
0.464801
0.462712
0.458609
0.452756
0.445573
0.437475
0.428796
0.419794
0.410656
0.401519
0.392484
0.383633
0.375008
0.36657
0.358268
0.350476
0.344212
0.513451
0.502047
0.498086
0.495576
0.491412
0.48534
0.477684
0.468869
0.459296
0.449282
0.439065
0.428817
0.418663
0.408691
0.398969
0.389531
0.380344
0.371367
0.362903
0.355767
0.54517
0.532777
0.527328
0.523008
0.516978
0.509141
0.49987
0.489595
0.478702
0.467493
0.456191
0.444952
0.433889
0.42308
0.412581
0.40242
0.392569
0.382993
0.373927
0.366009
0.572836
0.559573
0.552811
0.546899
0.539233
0.529851
0.519169
0.507617
0.495572
0.483321
0.471071
0.458967
0.447112
0.435573
0.424397
0.413608
0.403181
0.393085
0.383492
0.374886
0.596229
0.582227
0.574344
0.567076
0.558021
0.547329
0.535451
0.52282
0.5098
0.496666
0.483614
0.47078
0.458255
0.446099
0.434352
0.423032
0.41212
0.401586
0.391546
0.382356
0.615168
0.600564
0.591767
0.583395
0.573211
0.561457
0.54861
0.535103
0.521294
0.507446
0.493745
0.480319
0.467251
0.454597
0.442388
0.43064
0.419336
0.408449
0.398045
0.388379
0.629504
0.614442
0.604949
0.595738
0.584698
0.572138
0.558557
0.544388
0.52998
0.515591
0.501399
0.487525
0.474048
0.461016
0.448458
0.436386
0.424786
0.413632
0.402952
0.392925
0.639125
0.623755
0.613792
0.604016
0.592401
0.579301
0.565227
0.550613
0.535804
0.521052
0.50653
0.492356
0.478603
0.465318
0.452526
0.440236
0.428439
0.417106
0.40624
0.395969
0.643955
0.62843
0.618232
0.608172
0.596267
0.582895
0.568574
0.553736
0.538726
0.523791
0.509104
0.494779
0.480888
0.467476
0.454567
0.442168
0.430271
0.418848
0.407889
0.397496
0.643957
0.628432
0.618234
0.608174
0.596269
0.582897
0.568576
0.553738
0.538728
0.523793
0.509106
0.494781
0.48089
0.467478
0.454568
0.44217
0.430273
0.41885
0.40789
0.397498
0.639131
0.623761
0.613799
0.604023
0.592407
0.579306
0.565233
0.550618
0.535809
0.521057
0.506535
0.492361
0.478608
0.465323
0.452531
0.440241
0.428444
0.417111
0.406244
0.395974
0.629515
0.614453
0.60496
0.595748
0.584708
0.572148
0.558567
0.544397
0.52999
0.5156
0.501408
0.487534
0.474057
0.461025
0.448467
0.436394
0.424795
0.41364
0.40296
0.392933
0.615184
0.600579
0.591782
0.583409
0.573225
0.561471
0.548623
0.535116
0.521306
0.507458
0.493757
0.480331
0.467263
0.454609
0.4424
0.430651
0.419347
0.40846
0.398056
0.38839
0.596249
0.582247
0.574363
0.567095
0.558039
0.547347
0.535468
0.522836
0.509816
0.496682
0.48363
0.470795
0.45827
0.446114
0.434367
0.423047
0.412135
0.401601
0.39156
0.38237
0.57286
0.559597
0.552834
0.546922
0.539255
0.529873
0.51919
0.507638
0.495592
0.48334
0.47109
0.458986
0.447131
0.435591
0.424416
0.413626
0.403199
0.393102
0.383509
0.374903
0.545199
0.532805
0.527356
0.523035
0.517004
0.509167
0.499895
0.489619
0.478726
0.467517
0.456214
0.444975
0.433911
0.423102
0.412603
0.402442
0.39259
0.383014
0.373948
0.366029
0.513484
0.502079
0.498118
0.495607
0.491442
0.485369
0.477713
0.468897
0.459323
0.449309
0.439091
0.428844
0.418689
0.408716
0.398994
0.389556
0.380369
0.371391
0.362927
0.355791
0.477968
0.46766
0.465341
0.464836
0.462746
0.458642
0.452788
0.445605
0.437506
0.428827
0.419824
0.410685
0.401548
0.392513
0.383662
0.375036
0.366597
0.358296
0.350503
0.344239
0.438931
0.429817
0.429274
0.430945
0.431117
0.429165
0.425285
0.419891
0.413409
0.406195
0.398524
0.390602
0.382582
0.374578
0.366685
0.358955
0.351344
0.343791
0.336735
0.331424
0.396687
0.38885
0.390191
0.394182
0.396776
0.397137
0.395384
0.391918
0.387179
0.381545
0.375311
0.368703
0.361888
0.354999
0.348142
0.341384
0.334677
0.327942
0.321681
0.317399
0.351575
0.345086
0.348393
0.354816
0.359966
0.362776
0.363279
0.361861
0.358975
0.35502
0.350313
0.3451
0.339568
0.333864
0.328113
0.322394
0.316659
0.310807
0.305396
0.302211
0.303964
0.298876
0.304204
0.313138
0.320946
0.326316
0.329181
0.32991
0.328966
0.32677
0.323663
0.319913
0.315724
0.311263
0.306671
0.302048
0.297342
0.292431
0.287918
0.285897
0.254244
0.250597
0.257969
0.269462
0.279997
0.288005
0.293313
0.296263
0.29733
0.296954
0.295501
0.29326
0.290457
0.287276
0.283881
0.280391
0.276759
0.272836
0.269261
0.268469
0.202827
0.200646
0.210058
0.224117
0.237413
0.248109
0.255913
0.261135
0.264257
0.26574
0.265972
0.265266
0.263869
0.261985
0.2598
0.257457
0.254921
0.252013
0.249402
0.249904
0.150146
0.14944
0.160856
0.177453
0.193509
0.206908
0.217231
0.22475
0.229948
0.233305
0.235231
0.236061
0.236061
0.235459
0.234462
0.23324
0.231776
0.229866
0.228217
0.230089
0.0966475
0.0974127
0.110765
0.129834
0.14861
0.164697
0.177536
0.18735
0.19462
0.199842
0.203446
0.205785
0.207148
0.20778
0.207914
0.207753
0.207287
0.206289
0.205526
0.208828
0.0427919
0.0450083
0.0602008
0.081639
0.10306
0.121786
0.137106
0.14919
0.158507
0.165565
0.170809
0.174611
0.177271
0.179048
0.180197
0.180943
0.181264
0.180858
0.180661
0.185503
-0.0109537
-0.00731904
0.00959
0.0332577
0.057213
0.0784963
0.0962391
0.110543
0.121861
0.130706
0.137533
0.142725
0.146588
0.149383
0.151378
0.15284
0.153754
0.153633
0.153401
0.159389
-0.0641188
-0.0591118
-0.0406361
-0.0149126
0.0114307
0.0351619
0.0552434
0.0717001
0.0849622
0.0955392
0.103896
0.11042
0.11542
0.119145
0.121847
0.123808
0.124997
0.124401
0.121763
0.125564
-0.116235
-0.109913
-0.0900443
-0.0624711
-0.033918
-0.00787736
0.0144377
0.0329654
0.0481029
0.0603522
0.0701775
0.0779633
0.0840046
0.0885112
0.0916484
0.0935705
0.0941758
0.0925892
0.0880926
0.083565
-0.166849
-0.159279
-0.138209
-0.10902
-0.0784659
-0.0502799
-0.0258557
-0.005351
0.0115914
0.0254622
0.036726
0.04577
0.0528926
0.0583051
0.0621599
0.0645933
0.0656341
0.0649133
0.0619413
0.0577442
-0.215519
-0.206777
-0.184715
-0.154171
-0.121852
-0.0917101
-0.0653196
-0.042942
-0.0242659
-0.00881204
0.00388932
0.0142401
0.0225627
0.0291042
0.0340547
0.0375825
0.0398347
0.0408517
0.0405048
0.0384826
-0.261827
-0.251996
-0.229163
-0.197547
-0.163729
-0.131846
-0.103653
-0.0795215
-0.0591933
-0.0422037
-0.0280772
-0.0163951
-0.00680969
0.000959979
0.00713918
0.0119179
0.0154855
0.0180644
0.019763
0.0198846
-0.305388
-0.294557
-0.271184
-0.238798
-0.203771
-0.170388
-0.140579
-0.114835
-0.0929567
-0.0745027
-0.058996
-0.0460057
-0.035166
-0.0261728
-0.0187771
-0.0127725
-0.00795235
-0.00403671
-0.000849948
0.000833087
-0.345854
-0.334119
-0.310438
-0.277598
-0.241677
-0.207061
-0.17585
-0.148656
-0.125355
-0.105534
-0.088722
-0.0744816
-0.0624351
-0.0522637
-0.0437027
-0.0365324
-0.0305336
-0.0254091
-0.0210063
-0.0182236
-0.382925
-0.370383
-0.346625
-0.313656
-0.277174
-0.241619
-0.209243
-0.18079
-0.156216
-0.135148
-0.117129
-0.101722
-0.0885424
-0.0772626
-0.067609
-0.0593552
-0.0522748
-0.0460598
-0.0405799
-0.0368691
-0.416354
-0.403102
-0.379491
-0.346719
-0.310024
-0.273845
-0.240567
-0.211066
-0.185391
-0.163218
-0.144113
-0.127644
-0.113428
-0.101132
-0.0904792
-0.0812405
-0.0731882
-0.0660071
-0.0595628
-0.0549651
-0.44595
-0.432087
-0.40883
-0.376575
-0.340023
-0.303552
-0.269655
-0.239341
-0.212756
-0.18964
-0.169587
-0.152182
-0.137043
-0.12384
-0.112294
-0.102177
-0.0932631
-0.0852363
-0.0779454
-0.0725121
-0.471583
-0.457205
-0.434493
-0.403059
-0.367007
-0.330588
-0.296373
-0.265497
-0.238213
-0.21433
-0.193484
-0.175279
-0.159344
-0.145353
-0.133029
-0.122144
-0.112479
-0.103722
-0.0957041
-0.0895215
-0.493188
-0.47839
-0.456388
-0.426055
-0.390851
-0.354833
-0.320614
-0.289442
-0.261682
-0.237223
-0.215749
-0.196892
-0.180296
-0.165643
-0.15266
-0.141121
-0.130813
-0.121437
-0.112806
-0.10597
-0.510767
-0.49564
-0.474484
-0.445501
-0.411474
-0.376203
-0.342298
-0.311107
-0.283107
-0.258271
-0.236344
-0.216989
-0.199871
-0.184685
-0.171162
-0.159084
-0.148244
-0.138354
-0.129214
-0.121813
-0.524384
-0.50902
-0.488814
-0.461388
-0.428838
-0.394647
-0.361377
-0.33045
-0.30245
-0.277446
-0.255243
-0.235548
-0.218051
-0.202462
-0.188521
-0.176015
-0.164748
-0.154445
-0.144892
-0.137008
-0.534168
-0.518658
-0.499472
-0.473764
-0.442953
-0.410155
-0.377829
-0.347449
-0.319696
-0.294733
-0.272437
-0.252562
-0.234829
-0.218965
-0.204726
-0.191904
-0.180311
-0.169691
-0.159818
-0.151528
-0.540309
-0.524742
-0.506614
-0.482733
-0.453876
-0.42275
-0.391666
-0.362109
-0.334847
-0.310136
-0.28793
-0.268035
-0.250207
-0.234198
-0.219777
-0.206746
-0.194927
-0.184082
-0.173977
-0.165361
-0.543049
-0.527515
-0.510454
-0.488454
-0.461711
-0.432497
-0.402924
-0.374456
-0.347926
-0.323676
-0.30174
-0.281983
-0.264201
-0.248172
-0.233683
-0.220547
-0.208599
-0.197618
-0.187366
-0.178504
-0.542677
-0.527269
-0.511258
-0.49114
-0.46661
-0.439497
-0.411673
-0.38454
-0.358971
-0.335388
-0.313901
-0.294436
-0.276836
-0.260909
-0.246463
-0.233324
-0.221339
-0.210307
-0.199992
-0.190961
-0.539521
-0.524334
-0.509335
-0.491051
-0.468769
-0.44389
-0.418012
-0.392434
-0.368041
-0.345321
-0.324454
-0.305434
-0.288148
-0.27244
-0.258144
-0.2451
-0.233167
-0.222167
-0.211867
-0.202746
-0.533938
-0.519067
-0.50503
-0.488488
-0.468429
-0.445853
-0.422067
-0.39823
-0.37521
-0.353535
-0.333455
-0.315024
-0.29818
-0.282807
-0.268762
-0.255907
-0.244113
-0.233221
-0.223012
-0.213877
-0.526302
-0.511843
-0.498709
-0.483787
-0.465867
-0.445599
-0.423995
-0.402046
-0.380566
-0.360106
-0.340968
-0.323264
-0.306985
-0.292054
-0.27836
-0.265782
-0.254209
-0.243502
-0.233455
-0.22438
-0.516991
-0.503042
-0.490753
-0.477302
-0.461389
-0.443372
-0.423981
-0.404019
-0.384215
-0.365117
-0.347063
-0.330217
-0.31462
-0.300235
-0.286983
-0.274769
-0.263495
-0.253044
-0.243229
-0.234286
-0.506384
-0.493035
-0.481538
-0.469402
-0.455324
-0.439445
-0.422236
-0.404306
-0.386276
-0.368661
-0.351818
-0.33595
-0.321144
-0.307404
-0.294684
-0.282913
-0.272013
-0.261887
-0.252368
-0.243628
-0.494841
-0.482179
-0.471428
-0.460449
-0.448014
-0.434109
-0.418994
-0.403087
-0.386883
-0.370841
-0.355314
-0.340532
-0.326618
-0.313615
-0.301511
-0.290261
-0.279806
-0.270071
-0.260909
-0.252441
-0.482698
-0.470799
-0.46076
-0.450793
-0.439795
-0.427668
-0.414507
-0.400559
-0.386185
-0.37177
-0.35764
-0.344034
-0.331103
-0.318924
-0.307515
-0.296858
-0.286915
-0.277633
-0.268888
-0.260756
-0.470261
-0.459189
-0.449838
-0.440754
-0.430993
-0.420428
-0.40904
-0.396935
-0.384347
-0.37157
-0.358887
-0.346528
-0.334659
-0.32338
-0.312739
-0.302744
-0.293378
-0.284607
-0.276335
-0.268601
-0.457798
-0.447602
-0.438925
-0.430617
-0.421909
-0.412684
-0.402862
-0.392442
-0.381546
-0.370375
-0.359153
-0.348087
-0.33734
-0.32703
-0.317224
-0.307955
-0.299226
-0.291023
-0.283274
-0.275994
-0.445538
-0.43625
-0.428238
-0.420621
-0.412805
-0.404711
-0.396235
-0.387312
-0.377972
-0.36833
-0.358546
-0.348787
-0.339203
-0.329914
-0.321002
-0.312517
-0.304481
-0.296898
-0.28972
-0.282946
-0.433666
-0.425301
-0.417949
-0.410962
-0.403905
-0.396751
-0.389406
-0.381773
-0.373821
-0.365593
-0.357182
-0.348711
-0.340304
-0.332071
-0.324099
-0.316449
-0.309158
-0.302244
-0.295681
-0.289454
-0.422328
-0.414883
-0.408187
-0.401783
-0.395381
-0.389006
-0.382595
-0.376045
-0.369293
-0.362328
-0.355189
-0.34795
-0.340703
-0.333538
-0.326536
-0.319763
-0.313262
-0.307063
-0.301156
-0.295511
-0.41163
-0.405086
-0.399037
-0.393186
-0.387361
-0.381637
-0.375985
-0.370324
-0.364577
-0.358705
-0.352704
-0.346606
-0.340468
-0.334355
-0.328334
-0.322464
-0.316791
-0.311348
-0.306139
-0.301105
-0.401643
-0.395965
-0.390551
-0.385229
-0.379925
-0.374753
-0.369722
-0.364776
-0.359851
-0.354892
-0.349873
-0.344794
-0.33968
-0.334571
-0.329516
-0.32456
-0.319742
-0.315093
-0.310624
-0.30623
-0.392407
-0.38755
-0.382751
-0.37794
-0.373117
-0.368424
-0.363905
-0.359533
-0.355263
-0.351045
-0.346842
-0.342637
-0.338433
-0.334249
-0.330113
-0.326059
-0.322111
-0.31829
-0.314613
-0.310901
-0.383939
-0.379845
-0.375635
-0.371315
-0.366944
-0.362681
-0.358594
-0.354686
-0.350934
-0.3473
-0.343751
-0.340264
-0.336832
-0.333462
-0.33017
-0.326976
-0.323896
-0.320935
-0.318113
-0.315164
-0.376234
-0.372838
-0.369183
-0.365334
-0.361392
-0.357523
-0.353813
-0.350289
-0.346946
-0.343766
-0.340723
-0.3378
-0.334991
-0.3323
-0.329741
-0.327335
-0.325093
-0.323014
-0.321121
-0.319085
-0.369272
-0.366503
-0.363365
-0.359963
-0.356429
-0.352929
-0.349559
-0.346362
-0.343351
-0.340522
-0.337861
-0.335361
-0.333022
-0.330857
-0.328893
-0.32716
-0.32569
-0.324491
-0.323603
-0.322734
-0.363022
-0.360808
-0.358142
-0.35516
-0.352012
-0.34886
-0.345805
-0.3429
-0.340168
-0.337616
-0.335241
-0.333043
-0.331033
-0.329235
-0.327696
-0.326477
-0.325651
-0.325275
-0.32543
-0.32608
-0.357444
-0.355712
-0.353471
-0.350878
-0.348093
-0.345272
-0.342515
-0.339878
-0.337393
-0.335069
-0.332911
-0.330922
-0.329117
-0.327531
-0.32623
-0.325313
-0.324919
-0.325202
-0.326347
-0.328972
-0.352493
-0.35117
-0.349306
-0.34707
-0.344625
-0.342117
-0.339643
-0.33726
-0.335001
-0.332878
-0.330893
-0.329048
-0.327353
-0.325842
-0.324585
-0.32371
-0.323421
-0.324002
-0.325858
-0.330789
-0.348117
-0.347134
-0.345602
-0.343688
-0.341559
-0.339346
-0.337141
-0.335001
-0.332957
-0.33102
-0.329186
-0.327447
-0.325801
-0.324261
-0.322875
-0.32176
-0.32114
-0.321382
-0.323274
-0.330602
-0.344262
-0.343556
-0.342309
-0.340687
-0.338847
-0.336909
-0.33496
-0.333054
-0.331217
-0.329457
-0.327764
-0.326118
-0.324494
-0.322867
-0.321232
-0.319629
-0.318186
-0.317133
-0.317425
-0.325174
-0.340871
-0.340384
-0.339382
-0.338019
-0.336443
-0.334762
-0.333054
-0.331369
-0.329731
-0.328144
-0.326591
-0.325038
-0.323436
-0.321713
-0.319771
-0.31748
-0.314657
-0.310784
-0.304351
-0.296545
-0.337881
-0.337565
-0.336772
-0.33564
-0.334305
-0.332861
-0.33138
-0.329905
-0.328458
-0.327039
-0.32563
-0.324192
-0.322665
-0.32096
-0.318956
-0.316493
-0.313385
-0.309208
-0.302779
-0.295974
-0.335232
-0.335049
-0.334433
-0.333507
-0.33239
-0.331167
-0.329897
-0.328621
-0.327357
-0.326105
-0.324846
-0.323544
-0.322144
-0.32057
-0.318723
-0.316492
-0.313781
-0.310312
-0.305277
-0.301041
-0.332864
-0.332785
-0.332322
-0.33158
-0.330663
-0.329643
-0.328573
-0.327486
-0.326399
-0.325311
-0.324204
-0.323049
-0.3218
-0.320401
-0.318778
-0.31687
-0.314642
-0.311878
-0.308004
-0.305651
-0.33072
-0.330727
-0.330398
-0.329822
-0.32909
-0.32826
-0.327379
-0.326475
-0.325561
-0.324636
-0.323686
-0.322686
-0.321605
-0.3204
-0.319028
-0.317468
-0.315729
-0.31365
-0.310822
-0.309887
-0.328746
-0.328831
-0.328625
-0.328201
-0.327639
-0.32699
-0.32629
-0.325564
-0.324823
-0.324065
-0.32328
-0.32245
-0.321554
-0.320565
-0.319465
-0.318264
-0.317005
-0.315564
-0.313631
-0.313733
-0.326897
-0.327061
-0.326969
-0.326687
-0.326286
-0.325808
-0.325283
-0.324733
-0.324166
-0.323582
-0.322973
-0.322327
-0.321633
-0.320878
-0.320061
-0.319214
-0.318398
-0.317504
-0.316271
-0.317089
-0.325135
-0.325387
-0.325406
-0.325258
-0.325009
-0.324693
-0.324338
-0.32396
-0.323569
-0.323163
-0.322739
-0.32229
-0.32181
-0.321298
-0.320764
-0.320252
-0.319829
-0.319383
-0.31867
-0.319971
-0.323431
-0.323784
-0.323916
-0.323896
-0.32379
-0.323629
-0.323436
-0.323227
-0.323008
-0.322782
-0.322546
-0.322296
-0.322035
-0.321765
-0.321503
-0.321297
-0.321212
-0.321125
-0.320795
-0.322433
-0.321768
-0.32224
-0.322486
-0.322588
-0.322617
-0.322601
-0.322562
-0.322513
-0.322461
-0.32241
-0.322357
-0.322304
-0.322254
-0.322214
-0.322203
-0.32227
-0.322471
-0.322668
-0.322626
-0.324512
-0.32014
-0.320748
-0.321111
-0.321329
-0.321485
-0.321604
-0.321706
-0.321805
-0.32191
-0.322021
-0.322142
-0.322272
-0.322419
-0.322589
-0.322803
-0.323106
-0.323546
-0.323967
-0.32415
-0.326236
-0.318553
-0.319312
-0.319792