/*--------------------------------*- C++ -*----------------------------------*\
  =========                 |
  \\      /  F ield         | OpenFOAM: The Open Source CFD Toolbox
   \\    /   O peration     | Website:  https://openfoam.org
    \\  /    A nd           | Version:  6.0
     \\/     M anipulation  |
\*---------------------------------------------------------------------------*/
FoamFile
{
    version     2.0;
    format      ascii;
    class       volVectorField;
    location    "9.1";
    object      U;
}
// * * * * * * * * * * * * * * * * * * * * * * * * * * * * * * * * * * * * * //

dimensions      [0 1 -1 0 0 0 0];

internalField   nonuniform List<vector> 
8000
(
(-0.00090713 0.00101548 -4.10433e-21)
(-0.00478094 0.00244637 2.1944e-20)
(-0.0118142 0.0034303 -2.67209e-20)
(-0.0204074 0.00410031 2.03609e-20)
(-0.0297808 0.00454365 9.9332e-21)
(-0.0395236 0.00482386 -2.98324e-20)
(-0.0493481 0.00499014 -2.64403e-21)
(-0.0590697 0.00508073 -9.49161e-22)
(-0.0685861 0.00512572 -1.55669e-20)
(-0.0778519 0.005149 -8.45843e-21)
(-0.086862 0.00516964 6.28448e-21)
(-0.09564 0.00520286 2.40307e-20)
(-0.104228 0.00526063 -1.76034e-21)
(-0.112679 0.00535206 2.61635e-21)
(-0.121056 0.00548351 -2.43611e-20)
(-0.129453 0.00565834 1.50448e-20)
(-0.137947 0.00587761 -2.16556e-20)
(-0.14634 0.00614446 3.28001e-20)
(-0.154263 0.00646324 -3.59312e-23)
(-0.163649 0.00679708 7.26154e-21)
(-0.00104294 0.00301942 1.36285e-20)
(-0.00505531 0.00730077 -6.96935e-20)
(-0.0120972 0.0102694 -4.8202e-20)
(-0.020622 0.0123119 -3.27744e-20)
(-0.029875 0.0136822 -4.22134e-20)
(-0.0394584 0.0145657 9.25213e-21)
(-0.0490927 0.0151067 -4.88219e-20)
(-0.0585986 0.015418 -1.1016e-20)
(-0.0678763 0.0155887 3.41047e-21)
(-0.0768818 0.0156899 3.65911e-20)
(-0.0856104 0.015779 -4.00364e-20)
(-0.0940857 0.0159018 5.57837e-20)
(-0.10235 0.0160946 -4.18676e-20)
(-0.110456 0.0163855 -4.97951e-20)
(-0.118468 0.0167944 -6.88977e-20)
(-0.126481 0.0173321 4.38683e-20)
(-0.134574 0.0180026 -1.43803e-20)
(-0.142554 0.0188161 -5.22385e-20)
(-0.150038 0.0197872 4.9426e-20)
(-0.158964 0.0208054 -3.72672e-20)
(-0.00130789 0.00493718 1.33283e-19)
(-0.00559273 0.0119664 6.9136e-20)
(-0.012654 0.0168624 7.77939e-20)
(-0.0210471 0.0202444 6.4865e-21)
(-0.0300657 0.0225218 4.30401e-20)
(-0.0393373 0.0239954 5.37839e-20)
(-0.0485988 0.0249 -9.78078e-20)
(-0.0576808 0.0254201 -5.19137e-20)
(-0.0664892 0.0257019 -6.7784e-20)
(-0.0749824 0.0258628 7.23439e-20)
(-0.0831569 0.0259978 -5.53563e-20)
(-0.0910363 0.0261835 -7.14426e-20)
(-0.0986631 0.0264814 -2.60537e-20)
(-0.10609 0.0269395 2.47729e-20)
(-0.113383 0.0275929 -7.05881e-21)
(-0.120638 0.028462 9.86588e-21)
(-0.127944 0.0295554 1.16133e-19)
(-0.13511 0.0308926 -1.61265e-20)
(-0.141733 0.0325023 -1.18737e-19)
(-0.149756 0.0342008 1.59105e-19)
(-0.00168952 0.00671755 4.64919e-20)
(-0.00637272 0.0163292 -6.55502e-20)
(-0.0134699 0.0230583 -1.65023e-20)
(-0.0216795 0.0277246 3.08159e-20)
(-0.030364 0.0308753 8.75747e-20)
(-0.039187 0.0329159 1.91932e-19)
(-0.0479094 0.0341649 1.87764e-19)
(-0.0563767 0.0348735 1.56869e-20)
(-0.0645029 0.035242 1.15461e-19)
(-0.0722507 0.0354322 1.76986e-19)
(-0.0796182 0.0355757 -1.41791e-19)
(-0.0866292 0.0357803 2.09807e-19)
(-0.0933265 0.0361333 -4.79248e-20)
(-0.0997639 0.0367048 1.18798e-20)
(-0.106008 0.0375476 5.01602e-20)
(-0.112159 0.0386947 6.69617e-20)
(-0.118316 0.040163 -1.05009e-19)
(-0.124298 0.041985 -8.80222e-20)
(-0.129674 0.0442103 -1.56466e-19)
(-0.136387 0.0465835 2.30964e-19)
(-0.0021708 0.0083185 -2.42525e-20)
(-0.00736689 0.0202927 -2.48698e-19)
(-0.0145242 0.0287266 -7.36508e-20)
(-0.0225145 0.0345994 -1.79534e-19)
(-0.0307848 0.0385742 6.78589e-20)
(-0.0390444 0.0411479 -1.07192e-19)
(-0.0470846 0.0427128 3.6942e-20)
(-0.0547705 0.0435808 -2.27528e-19)
(-0.0620273 0.0440019 1.2014e-19)
(-0.0688234 0.0441793 -1.43457e-19)
(-0.0751592 0.04428 -1.2782e-19)
(-0.0810594 0.0444424 -1.43488e-19)
(-0.0865667 0.044781 1.30487e-19)
(-0.091736 0.0453901 -1.17485e-19)
(-0.0966363 0.046344 1.63746e-19)
(-0.101373 0.0476931 4.76019e-20)
(-0.106059 0.0494671 1.18145e-19)
(-0.110528 0.0517177 5.21118e-20)
(-0.114316 0.0545254 -2.06212e-19)
(-0.119364 0.0575674 3.41376e-19)
(-0.00273181 0.00970963 1.07269e-19)
(-0.00854159 0.0237834 8.14709e-21)
(-0.0157918 0.033763 4.41997e-20)
(-0.0235455 0.0407422 1.54235e-19)
(-0.031345 0.0454759 -2.36002e-20)
(-0.0389522 0.0485361 2.50788e-19)
(-0.0461953 0.0503786 1.11494e-19)
(-0.0529628 0.0513678 9.35925e-21)
(-0.059194 0.0517978 2.8731e-19)
(-0.0648652 0.0519095 9.44202e-20)
(-0.06998 0.051903 4.48438e-20)
(-0.0745639 0.0519464 1.42367e-19)
(-0.0786601 0.0521821 1.30818e-19)
(-0.0823245 0.0527313 2.3954e-19)
(-0.0856286 0.0536939 -2.14163e-19)
(-0.0886844 0.0551438 3.04298e-19)
(-0.0916216 0.0571309 4.67584e-21)
(-0.0942982 0.0597337 -3.90478e-19)
(-0.0962139 0.0630782 5.07632e-19)
(-0.099301 0.0667835 2.14694e-19)
(-0.00335178 0.0108736 -6.31892e-20)
(-0.00986078 0.0267536 -1.14915e-19)
(-0.0172449 0.0380935 -2.39028e-19)
(-0.0247635 0.046058 -7.10345e-21)
(-0.03206 0.0514681 4.08967e-20)
(-0.038954 0.0549552 -3.05548e-19)
(-0.0453149 0.0570263 -2.26905e-19)
(-0.0510592 0.0580895 -3.2411e-20)
(-0.0561435 0.0584763 -2.87625e-19)
(-0.0605535 0.0584604 -1.99537e-19)
(-0.0642974 0.0582712 -5.82041e-20)
(-0.067402 0.0581049 -1.87732e-19)
(-0.0699104 0.0581319 -2.90449e-21)
(-0.0718796 0.0585022 -2.50249e-19)
(-0.0733836 0.0593461 1.05796e-19)
(-0.0745413 0.0607683 -1.20612e-19)
(-0.0755029 0.0628479 9.31184e-20)
(-0.0761569 0.0657019 -1.17819e-19)
(-0.075974 0.0695208 -3.38711e-19)
(-0.0768714 0.0738819 -1.03682e-19)
(-0.00401099 0.0118064 -2.34125e-20)
(-0.011289 0.0291822 -2.53837e-20)
(-0.0188545 0.0416767 2.00494e-19)
(-0.0261568 0.0504854 -3.26428e-19)
(-0.0329404 0.0564728 4.78754e-20)
(-0.0390864 0.0603135 -1.8873e-19)
(-0.0445094 0.0625537 8.92002e-20)
(-0.0491574 0.0636357 4.01531e-19)
(-0.0530074 0.0639209 -2.55695e-20)
(-0.0560572 0.0637092 -3.00226e-19)
(-0.0583206 0.0632546 5.45514e-20)
(-0.0598263 0.0627782 1.04655e-20)
(-0.060617 0.0624765 -6.22625e-20)
(-0.0607495 0.0625296 5.82232e-21)
(-0.0602998 0.0631023 5.4661e-19)
(-0.0593933 0.0643381 -7.76365e-20)
(-0.0582026 0.0663569 -1.525e-19)
(-0.0566548 0.0693295 -2.74675e-19)
(-0.0542031 0.0735357 2.80022e-19)
(-0.0527464 0.0785383 1.22073e-19)
(-0.00469258 0.0125162 1.177e-19)
(-0.012794 0.031074 -1.54131e-19)
(-0.0205916 0.0445028 2.1782e-19)
(-0.0277085 0.0539977 2.1924e-19)
(-0.0339873 0.0604473 2.02075e-19)
(-0.0393718 0.0645555 4.09962e-19)
(-0.043825 0.0668961 2.65346e-19)
(-0.0473302 0.0679361 -5.70578e-19)
(-0.049888 0.0680582 2.92084e-19)
(-0.0515109 0.0675812 2.29561e-19)
(-0.0522204 0.0667775 -3.14503e-21)
(-0.0520472 0.065887 2.57747e-19)
(-0.0510333 0.0651294 2.0161e-19)
(-0.0492336 0.0647131 -1.09439e-19)
(-0.0467242 0.0648404 3.71699e-19)
(-0.0436356 0.0657008 -4.61004e-19)
(-0.0401626 0.0674681 1.85111e-19)
(-0.0362786 0.0703864 2.38765e-19)
(-0.0314356 0.0748578 -5.61616e-20)
(-0.0275212 0.0804712 4.84232e-19)
(-0.00538382 0.0130218 2.37048e-19)
(-0.0143482 0.0324561 1.22601e-20)
(-0.0224273 0.046591 -8.49888e-20)
(-0.0293952 0.0566006 -8.96895e-20)
(-0.0351865 0.0633837 -4.15516e-19)
(-0.0398081 0.0676623 5.87882e-20)
(-0.0432742 0.0700279 1.6688e-19)
(-0.0456065 0.0709629 -8.02275e-20)
(-0.0468331 0.0708627 6.62295e-20)
(-0.046984 0.0700568 -1.75233e-20)
(-0.0460905 0.0688277 -8.67519e-20)
(-0.0441866 0.067427 8.22802e-20)
(-0.0413129 0.0660905 -3.59737e-19)
(-0.037521 0.0650506 3.4465e-19)
(-0.0328836 0.0645458 -2.99628e-19)
(-0.0275333 0.0648166 9.25e-20)
(-0.0216852 0.066104 2.11469e-19)
(-0.015364 0.0687483 -4.39783e-20)
(-0.00804175 0.0733155 -1.46852e-19)
(-0.00161493 0.0794793 -1.00071e-19)
(-0.00607677 0.0133493 -2.95375e-19)
(-0.0159297 0.033373 -1.92449e-20)
(-0.0243321 0.0479842 6.21527e-20)
(-0.0311832 0.0583276 1.59587e-19)
(-0.0365022 0.0653053 -2.25332e-19)
(-0.040359 0.0696494 -1.96642e-19)
(-0.0428207 0.0719613 4.5925e-19)
(-0.043951 0.0727309 -2.53679e-19)
(-0.0438086 0.0723582 -1.63785e-19)
(-0.0424449 0.071175 -2.35326e-19)
(-0.0399037 0.0694645 1.55939e-19)
(-0.0362241 0.0674806 -4.03119e-21)
(-0.0314456 0.065465 -2.91641e-19)
(-0.0256146 0.0636652 -4.78606e-19)
(-0.0187979 0.0623492 3.64723e-19)
(-0.0111251 0.0618083 -2.96569e-19)
(-0.00282746 0.0623597 4.20946e-19)
(0.00601717 0.0644643 -1.17987e-19)
(0.0158943 0.068902 2.50625e-19)
(0.0248592 0.0755116 -8.431e-19)
(-0.00676823 0.0135295 -5.98402e-19)
(-0.0175217 0.0338804 3.91943e-19)
(-0.0262741 0.048742 5.32989e-20)
(-0.0330251 0.0592343 1.029e-20)
(-0.0378705 0.0662614 -2.41235e-19)
(-0.0409432 0.0705621 3.54721e-19)
(-0.0423647 0.0727427 3.88468e-20)
(-0.042243 0.0732947 -7.28429e-20)
(-0.0406712 0.072616 -2.33573e-19)
(-0.0377255 0.0710326 2.5269e-19)
(-0.0334656 0.0688198 6.41422e-19)
(-0.0279388 0.0662224 -1.41778e-19)
(-0.0211853 0.0634758 3.20637e-19)
(-0.0132465 0.0608285 -3.79702e-19)
(-0.00418051 0.0585646 -3.6471e-19)
(0.00589008 0.0570163 2.19529e-19)
(0.016724 0.0565772 3.64481e-19)
(0.0281917 0.0578478 -1.18055e-18)
(0.0407175 0.0618782 1.38262e-19)
(0.0522495 0.0687758 1.86864e-19)
(-0.00745903 0.0135939 4.43128e-19)
(-0.0191104 0.0340383 1.45437e-19)
(-0.0282159 0.0489335 7.57282e-19)
(-0.0348544 0.0593901 3.88556e-20)
(-0.0391925 0.0663199 -8.41837e-20)
(-0.0414252 0.0704689 -4.00605e-19)
(-0.0417291 0.0724463 3.40706e-19)
(-0.0402587 0.072742 6.10987e-19)
(-0.0371439 0.0717472 4.07546e-19)
(-0.0324889 0.0697766 2.93926e-19)
(-0.0263734 0.06709 2.53456e-19)
(-0.018857 0.0639133 -4.56394e-19)
(-0.00998474 0.0604621 -1.43632e-19)
(0.000203837 0.0569683 -1.05338e-19)
(0.0116582 0.053711 1.13261e-18)
(0.0242649 0.051042 -3.50891e-21)
(0.0377775 0.049416 -2.83298e-19)
(0.0520193 0.0495769 -9.01298e-20)
(0.0673443 0.0528973 8.14143e-19)
(0.0815222 0.0598782 1.01949e-19)
(-0.00815253 0.0135718 -2.20402e-20)
(-0.0206823 0.0339048 -4.18431e-19)
(-0.0301106 0.0486294 -6.21777e-19)
(-0.0365813 0.0588709 -1.72752e-19)
(-0.0403279 0.0655596 9.53181e-20)
(-0.0416067 0.0694533 2.05605e-20)
(-0.0406498 0.0711654 5.44501e-19)
(-0.037658 0.0711835 -6.7546e-19)
(-0.0327993 0.069891 -2.5691e-19)
(-0.0262084 0.0675891 -5.18009e-19)
(-0.0179888 0.064518 -4.41695e-19)
(-0.00821765 0.0608785 -3.91026e-19)
(0.00304802 0.0568551 9.77134e-20)
(0.0157628 0.0526459 -1.26897e-19)
(0.0298766 0.0484997 5.45654e-19)
(0.0452808 0.0447547 -2.99388e-19)
(0.0617233 0.0418901 -9.40766e-19)
(0.0789846 0.0407685 -1.90708e-19)
(0.0973562 0.0431178 4.65092e-19)
(0.114366 0.0499664 -4.02974e-19)
(-0.0088527 0.0134874 -7.07032e-20)
(-0.0222199 0.0335298 5.10992e-19)
(-0.031897 0.0478942 -6.51245e-19)
(-0.0380873 0.0577508 1.50664e-19)
(-0.0410899 0.0640627 -3.09598e-19)
(-0.0412221 0.0676066 6.89151e-19)
(-0.0387698 0.069004 -4.92506e-19)
(-0.033979 0.068743 5.63576e-19)
(-0.0270551 0.0672011 -5.33883e-19)
(-0.0181636 0.064668 2.2815e-19)
(-0.00743523 0.0613659 -1.10633e-19)
(0.00502898 0.0574696 -2.77696e-19)
(0.0191501 0.0531287 -3.43427e-19)
(0.0348631 0.0484958 3.42913e-19)
(0.0521023 0.043767 -2.87392e-19)
(0.0707488 0.0392281 -6.2979e-19)
(0.0905338 0.0353263 6.56511e-19)
(0.111191 0.0329777 -8.37957e-19)
(0.13298 0.0342526 3.78485e-19)
(0.153174 0.0408229 1.50514e-20)
(-0.0095618 0.0133577 -6.39029e-19)
(-0.0236974 0.0329507 -6.89128e-19)
(-0.0334946 0.0467814 7.951e-20)
(-0.0392204 0.0560967 -6.63227e-19)
(-0.0412414 0.0619086 -5.85852e-20)
(-0.0399354 0.0650213 -4.87515e-19)
(-0.0356398 0.0660704 -1.11711e-19)
(-0.0286423 0.0655491 -3.26297e-19)
(-0.0191829 0.0638342 3.44668e-21)
(-0.00745746 0.0612096 -1.42496e-19)
(0.00637421 0.0578862 1.0485e-20)
(0.0221801 0.0540205 -4.11675e-19)
(0.0398467 0.0497328 4.54896e-19)
(0.0592697 0.0451313 -6.44547e-19)
(0.0803418 0.0403487 2.29188e-19)
(0.102905 0.0355881 8.98201e-21)
(0.126645 0.0312009 -3.64734e-19)
(0.151227 0.0280503 9.0761e-19)
(0.176922 0.0284613 -2.15834e-19)
(0.200855 0.0348082 -1.41136e-19)
(-0.0102779 0.0131912 7.16509e-19)
(-0.0250759 0.0321895 3.86599e-19)
(-0.0347986 0.0453295 3.59312e-19)
(-0.0397912 0.0539644 5.36411e-20)
(-0.0404929 0.0591704 4.85314e-19)
(-0.037342 0.0617885 6.99012e-19)
(-0.0307238 0.0624747 5.71525e-19)
(-0.0209638 0.0617329 5.1474e-20)
(-0.00833235 0.0599457 4.18515e-19)
(0.00694552 0.0573995 6.46356e-19)
(0.0246786 0.0543051 -1.67298e-19)
(0.0446963 0.0508142 2.81445e-19)
(0.0668351 0.0470339 2.27152e-19)
(0.0909273 0.0430442 2.31626e-19)
(0.116789 0.0389249 1.3709e-18)
(0.144182 0.0347906 -5.141e-19)
(0.1727 0.0308512 -3.11113e-20)
(0.201889 0.0277885 5.98054e-19)
(0.232055 0.028007 -3.3939e-19)
(0.260479 0.0345686 1.67891e-19)
(-0.0109927 0.0129875 -5.78623e-19)
(-0.0262985 0.0312522 3.66915e-20)
(-0.0356754 0.0435611 -4.62021e-19)
(-0.0395701 0.0513976 -5.99955e-20)
(-0.0385026 0.0559149 3.37763e-19)
(-0.0329726 0.0579989 -1.00558e-18)
(-0.0234103 0.0583314 -8.67945e-22)
(-0.0101749 0.0574322 4.67753e-19)
(0.00643482 0.0556959 4.38827e-19)
(0.0261651 0.0534198 -1.93576e-19)
(0.0487886 0.0508262 6.37364e-20)
(0.0740856 0.0480783 1.4769e-19)
(0.101825 0.0452926 -7.00877e-20)
(0.131748 0.0425507 -7.8588e-19)
(0.163552 0.0399149 1.98853e-19)
(0.196862 0.0374452 5.4902e-19)
(0.231119 0.0352168 -7.83073e-19)
(0.265659 0.0336401 3.81654e-19)
(0.30079 0.0349962 1.02547e-19)
(0.334488 0.0429924 5.18258e-19)
(-0.0116889 0.012738 -8.49379e-20)
(-0.0272869 0.0301295 -4.04612e-19)
(-0.0359592 0.0414839 1.86231e-19)
(-0.0382856 0.0484294 9.42976e-22)
(-0.0348784 0.052205 -8.10012e-19)
(-0.0263006 0.053747 1.26575e-19)
(-0.0130272 0.0537664 -2.39398e-20)
(0.00454961 0.0528025 1.63172e-19)
(0.0261013 0.0512651 -7.46766e-19)
(0.0513398 0.0494677 -5.2385e-20)
(0.0799927 0.0476517 -1.75478e-19)
(0.111777 0.0460051 1.55856e-19)
(0.146377 0.0446753 5.2703e-19)
(0.183415 0.0437807 -8.14542e-20)
(0.222436 0.0434233 3.17878e-20)
(0.262864 0.0436929 2.076e-19)
(0.303888 0.0446408 -5.15927e-20)
(0.344471 0.0465097 4.20881e-19)
(0.384652 0.0515029 -2.4396e-19)
(0.423543 0.0639341 -3.81292e-19)
(-0.0123394 0.0124273 7.90898e-20)
(-0.0279384 0.0288002 1.95279e-20)
(-0.0354502 0.0390942 1.62088e-19)
(-0.035625 0.0450865 3.96718e-19)
(-0.0291819 0.0481045 2.22486e-19)
(-0.0167532 0.0491375 2.31e-20)
(0.00113719 0.0489267 -2.651e-19)
(0.0240576 0.0480298 6.80518e-20)
(0.0516394 0.0468712 3.57223e-19)
(0.0835454 0.0457783 -6.05173e-19)
(0.119439 0.0450097 4.56563e-19)
(0.158958 0.0447764 -3.44082e-19)
(0.201686 0.0452598 2.92061e-19)
(0.247135 0.0466307 -6.30295e-19)
(0.294719 0.0490708 6.94095e-19)
(0.343715 0.0527891 -7.42615e-19)
(0.393127 0.0580106 -1.93419e-19)
(0.441555 0.0652327 6.07129e-19)
(0.488077 0.0771285 -2.05145e-19)
(0.530397 0.098062 9.30725e-20)
(-0.012906 0.0120351 -5.96836e-20)
(-0.0281247 0.0272349 5.63524e-19)
(-0.0339142 0.0363825 -2.41435e-21)
(-0.0312369 0.0413949 -3.49739e-19)
(-0.0209367 0.0436852 -2.34845e-19)
(-0.00372675 0.0442941 4.3041e-19)
(0.0198074 0.0439899 -1.70435e-19)
(0.049176 0.0433443 -2.14482e-20)
(0.0839439 0.0427884 3.54807e-19)
(0.123691 0.0426521 -4.40739e-19)
(0.16798 0.0431928 4.82937e-20)
(0.216327 0.044619 -5.72848e-19)
(0.268193 0.0471101 3.01685e-19)
(0.322977 0.0508403 -8.63269e-19)
(0.380028 0.0560093 1.37529e-18)
(0.438664 0.0628832 -2.5239e-19)
(0.4982 0.0718766 2.62042e-19)
(0.558157 0.0840212 -6.80233e-19)
(0.618788 0.102358 6.39537e-21)
(0.671437 0.125513 7.5184e-19)
(-0.0133388 0.0115389 -1.80555e-19)
(-0.0276918 0.025402 1.55888e-19)
(-0.0310845 0.0333401 -5.74829e-19)
(-0.0247361 0.0373881 8.50161e-19)
(-0.00963875 0.039035 -6.13647e-19)
(0.0133944 0.0393674 3.16899e-20)
(0.0436895 0.0391741 -6.61297e-19)
(0.0806623 0.0390314 4.72755e-19)
(0.123763 0.0393633 -6.75701e-20)
(0.172428 0.0404815 -4.17016e-19)
(0.226046 0.0426133 -2.43284e-19)
(0.283942 0.0459221 2.57096e-19)
(0.345372 0.0505243 1.69956e-19)
(0.409541 0.0565053 -7.51721e-19)
(0.475638 0.0639349 2.71489e-19)
(0.542884 0.0728805 -3.9985e-19)
(0.6106 0.0834194 4.87411e-20)
(0.678371 0.0957778 -3.36924e-19)
(0.746642 0.110999 1.32716e-19)
(0.808915 0.127385 -4.96629e-19)
(-0.0135773 0.0109167 5.14169e-19)
(-0.0264613 0.0232743 -3.11645e-19)
(-0.0266656 0.029968 2.56741e-19)
(-0.015712 0.033116 -3.24037e-19)
(0.0052296 0.0342667 5.42898e-19)
(0.0352137 0.0345433 -9.43488e-21)
(0.0734343 0.0347433 -6.60465e-20)
(0.119153 0.035433 -4.89879e-20)
(0.171631 0.0370098 3.0143e-19)
(0.230073 0.0397411 5.12392e-19)
(0.293602 0.0437909 -3.02717e-19)
(0.36125 0.0492382 2.94176e-19)
(0.431975 0.0560922 5.36979e-19)
(0.504696 0.0643051 -3.7652e-19)
(0.578347 0.073782 -7.62642e-19)
(0.651928 0.0843848 1.39282e-18)
(0.724569 0.0959242 -2.48806e-19)
(0.795599 0.108181 -7.99705e-20)
(0.864876 0.121302 8.52582e-19)
(0.928495 0.135981 -1.83635e-19)
(-0.0135506 0.0101504 -8.36394e-19)
(-0.0242338 0.0208353 -5.56778e-19)
(-0.020339 0.0262853 -2.13697e-19)
(-0.00373839 0.0286545 4.12384e-19)
(0.024181 0.0295277 -9.31195e-19)
(0.0622928 0.030049 4.82283e-19)
(0.109592 0.0310075 6.11157e-20)
(0.165102 0.0329375 6.17415e-20)
(0.227792 0.036182 -6.31652e-19)
(0.296529 0.0409311 -2.23079e-19)
(0.370061 0.0472475 -3.93016e-19)
(0.447036 0.0550879 3.7937e-19)
(0.526043 0.0643213 1.07319e-19)
(0.605675 0.0747458 2.06778e-20)
(0.684595 0.0861039 4.91314e-19)
(0.761602 0.0980924 -4.98585e-19)
(0.835678 0.110364 -2.03146e-20)
(0.906035 0.122547 1.4145e-20)
(0.972186 0.134345 6.95667e-20)
(1.03253 0.148205 3.74225e-19)
(-0.0131797 0.00922804 2.66199e-19)
(-0.0207925 0.0180868 6.85529e-19)
(-0.0117707 0.022339 5.50084e-19)
(0.0116125 0.0241161 -1.89694e-19)
(0.0477006 0.0250085 6.59998e-19)
(0.0951162 0.0261585 -5.56016e-20)
(0.152563 0.0283204 -7.83504e-20)
(0.218712 0.0319644 4.6611e-20)
(0.292119 0.0373408 6.38163e-19)
(0.371194 0.0445192 3.74896e-19)
(0.454215 0.0534191 1.09479e-19)
(0.539383 0.0638379 6.87836e-21)
(0.624904 0.0754801 -7.2432e-19)
(0.70908 0.0879857 6.29396e-19)
(0.790389 0.100957 1.07173e-19)
(0.867555 0.113978 -1.77423e-19)
(0.939585 0.126635 -7.6184e-19)
(1.00579 0.138548 -6.25743e-20)
(1.06571 0.149224 2.97649e-19)
(1.11951 0.162055 -5.91127e-20)
(-0.0123782 0.00814669 -6.7475e-19)
(-0.0159086 0.0150542 2.82322e-19)
(-0.00062144 0.0182122 -1.37902e-18)
(0.030753 0.0196587 5.65105e-19)
(0.0762182 0.0209502 -4.50762e-19)
(0.13405 0.0231944 3.32398e-19)
(0.202537 0.0270723 -5.16594e-19)
(0.279863 0.0329441 4.74118e-20)
(0.364038 0.0409165 -2.66243e-20)
(0.452908 0.0508877 1.38908e-19)
(0.544219 0.0625886 2.00382e-19)
(0.635726 0.0756274 -3.7863e-19)
(0.725319 0.0895347 2.00656e-19)
(0.811133 0.103808 1.83713e-19)
(0.891638 0.117948 7.89096e-19)
(0.965687 0.131494 -3.43809e-19)
(1.03253 0.144037 -2.25549e-19)
(1.09181 0.155271 3.78121e-19)
(1.14338 0.164719 1.97873e-19)
(1.18843 0.175991 -3.77795e-19)
(-0.0110543 0.006914 5.90537e-19)
(-0.00934688 0.0117922 5.69357e-19)
(0.0134419 0.0140305 1.64504e-19)
(0.0540594 0.0154918 6.92763e-19)
(0.110076 0.0176471 3.40626e-19)
(0.179294 0.0215236 -6.1417e-19)
(0.25944 0.0276747 9.30556e-19)
(0.34806 0.0362893 -4.57993e-19)
(0.442495 0.0472681 4.57202e-19)
(0.539957 0.0602823 5.91256e-19)
(0.63767 0.0748363 -3.37829e-19)
(0.733032 0.0903352 6.42444e-20)
(0.823776 0.10615 3.56725e-19)
(0.908083 0.121676 2.50642e-19)
(0.984646 0.136376 5.74612e-19)
(1.05268 0.149812 -2.31331e-19)
(1.1119 0.161657 -2.96763e-20)
(1.16241 0.171721 3.57073e-19)
(1.20457 0.179685 -7.74985e-20)
(1.2401 0.188917 -7.86728e-23)
(-0.00911245 0.00554976 -3.04733e-19)
(-0.00087312 0.00838798 -1.12003e-18)
(0.0307312 0.00996655 2.63909e-19)
(0.0818469 0.0118782 -2.0097e-19)
(0.149491 0.0154429 -4.64349e-19)
(0.230837 0.0215442 -3.31933e-19)
(0.322884 0.0305355 -2.0509e-19)
(0.422393 0.0423586 4.97937e-19)
(0.525953 0.0566391 -2.95713e-19)
(0.63015 0.0727726 -3.02995e-19)
(0.731786 0.0900181 -3.8243e-19)
(0.828093 0.107592 -6.30925e-20)
(0.91689 0.124752 -4.33842e-20)
(0.996668 0.140858 -8.79241e-19)
(1.06659 0.155414 4.23885e-19)
(1.12644 0.168081 -5.57796e-19)
(1.17651 0.178672 1.72782e-19)
(1.21746 0.187147 -1.31696e-18)
(1.25016 0.19341 3.97498e-19)
(1.27652 0.20035 4.96648e-19)
(-0.00645542 0.00408692 -7.66049e-20)
(0.00973704 0.00496333 5.45736e-19)
(0.0515194 0.00624049 3.50361e-20)
(0.114342 0.00913063 8.42921e-20)
(0.194518 0.0147196 -1.71432e-19)
(0.288415 0.0236636 -2.91106e-21)
(0.392134 0.036026 -4.45967e-21)
(0.501542 0.0514158 -1.0362e-19)
(0.612469 0.0691205 3.67653e-19)
(0.72098 0.088232 1.41937e-19)
(0.823667 0.107777 6.43719e-19)
(0.917873 0.126836 -1.75277e-19)
(1.0018 0.14463 1.2197e-19)
(1.0745 0.160573 -1.53742e-20)
(1.13583 0.174292 3.36746e-19)
(1.18623 0.185611 2.04797e-19)
(1.22661 0.194522 4.90291e-19)
(1.25815 0.201148 -7.90157e-19)
(1.28213 0.205609 9.9022e-19)
(1.30049 0.210262 -3.13173e-19)
(-0.00298718 0.00257217 -7.10356e-19)
(0.0226878 0.00167481 -2.22147e-19)
(0.076021 0.00311666 1.73351e-19)
(0.151651 0.00760184 1.09376e-19)
(0.245013 0.0158776 1.12491e-19)
(0.351477 0.0282684 1.13874e-19)
(0.466103 0.044443 -2.85377e-19)
(0.58383 0.0635948 -1.17789e-19)
(0.699821 0.0846304 3.66778e-20)
(0.809846 0.106346 -3.49063e-19)
(0.910595 0.127593 -1.57484e-19)
(0.999843 0.147403 9.5085e-19)
(1.07646 0.165062 -2.45531e-19)
(1.14029 0.18013 -3.3652e-19)
(1.19193 0.192425 -1.58351e-19)
(1.23254 0.201975 1.10387e-19)
(1.26355 0.208962 1.32855e-19)
(1.28653 0.213658 -6.36301e-19)
(1.30302 0.216355 9.17233e-19)
(1.31486 0.218924 -7.93867e-19)
(0.00138368 0.00106634 -8.00179e-20)
(0.0381509 -0.00128779 2.28622e-20)
(0.104371 0.000897053 -2.94979e-20)
(0.193734 0.00766976 4.29499e-19)
(0.300605 0.0193115 2.39095e-20)
(0.419179 0.0356911 1.57928e-19)
(0.543395 0.0559755 -3.28488e-19)
(0.667329 0.0788775 -1.1929e-20)
(0.785699 0.102918 4.56001e-19)
(0.89431 0.126655 6.33576e-20)
(0.990309 0.148861 -3.96299e-19)
(1.07222 0.168631 -3.48783e-20)
(1.13981 0.185422 -3.2361e-19)
(1.19378 0.199018 3.22813e-19)
(1.23552 0.209469 4.45703e-19)
(1.26674 0.217018 -4.90119e-20)
(1.2893 0.222015 -5.92192e-20)
(1.30497 0.224851 1.80445e-19)
(1.31537 0.225927 -5.77198e-19)
(1.32221 0.22672 5.09435e-19)
(0.00673962 -0.00035569 8.08164e-20)
(0.056253 -0.00370493 -5.20065e-19)
(0.136602 -8.88534e-05 1.39074e-19)
(0.24038 0.00971819 -4.32624e-19)
(0.360686 0.0253813 1.48888e-19)
(0.490408 0.0461792 -5.52964e-19)
(0.622379 0.0706816 2.23141e-19)
(0.750008 0.0970933 -7.11653e-20)
(0.867912 0.123598 -2.94648e-21)
(0.972323 0.148616 7.24884e-20)
(1.0612 0.170972 -2.63572e-19)
(1.13407 0.189946 -3.75523e-19)
(1.19169 0.20525 -7.65804e-20)
(1.23562 0.216941 -3.43777e-20)
(1.26791 0.225312 -8.7044e-20)
(1.29069 0.230797 -2.82208e-20)
(1.30603 0.23388 -8.44626e-20)
(1.31576 0.235022 -7.30629e-20)
(1.32145 0.234683 -2.16033e-19)
(1.32461 0.234033 3.41821e-19)
(0.0131491 -0.00160565 1.93451e-19)
(0.0770617 -0.00533261 -2.14967e-19)
(0.17263 0.000502834 4.63007e-19)
(0.291196 0.014115 -2.00179e-19)
(0.42442 0.0343856 5.35141e-19)
(0.563831 0.0598713 7.91919e-21)
(0.7013 0.0884816 2.68879e-19)
(0.829901 0.11794 -7.23194e-20)
(0.944572 0.146196 3.00175e-19)
(1.04238 0.171676 2.13834e-20)
(1.12238 0.193392 7.12166e-19)
(1.18523 0.210916 -4.90952e-19)
(1.23267 0.224272 6.63812e-20)
(1.26702 0.233801 1.26173e-19)
(1.29078 0.240018 6.5582e-19)
(1.30633 0.243507 -2.35439e-19)
(1.31577 0.244835 -4.6487e-20)
(1.32087 0.244495 -2.44782e-19)
(1.32305 0.242963 -2.53129e-20)
(1.32361 0.241174 1.22181e-19)
(0.0206614 -0.0025832 -9.24381e-20)
(0.100574 -0.0059097 2.67672e-19)
(0.212239 0.00301505 -2.74927e-19)
(0.345601 0.0211896 1.08244e-19)
(0.49077 0.0465384 -1.30175e-19)
(0.637975 0.0767854 4.76994e-19)
(0.778413 0.10917 -6.67471e-20)
(0.905262 0.141023 1.63239e-19)
(1.01423 0.170212 -9.64374e-20)
(1.10357 0.19533 -2.7337e-21)
(1.17361 0.215704 1.09322e-19)
(1.22616 0.231268 -8.46697e-20)
(1.26381 0.242381 2.19259e-19)
(1.28945 0.249646 -1.09433e-19)
(1.30586 0.253758 -4.78976e-19)
(1.31546 0.255398 4.75524e-19)
(1.32027 0.255173 -2.13482e-19)
(1.32187 0.253565 1.70349e-19)
(1.32151 0.251045 2.94216e-19)
(1.32027 0.248368 1.20804e-19)
(0.0293011 -0.00317818 2.3022e-19)
(0.126704 -0.00516723 -4.74623e-19)
(0.255075 0.00777286 9.07006e-20)
(0.402845 0.031212 -6.59825e-20)
(0.55855 0.0619528 -2.66853e-19)
(0.711324 0.0968203 -2.09405e-19)
(0.852106 0.132439 -4.12904e-20)
(0.974675 0.165901 -3.72927e-19)
(1.07594 0.195171 -2.27994e-20)
(1.15556 0.219166 -6.92112e-20)
(1.21522 0.237623 -1.87492e-19)
(1.25774 0.250874 -4.17185e-20)
(1.28641 0.259597 -1.43076e-19)
(1.30446 0.264615 -2.37983e-19)
(1.31475 0.266747 2.43161e-19)
(1.31961 0.266724 3.31087e-20)
(1.32088 0.265146 6.59626e-20)
(1.31993 0.262466 -2.78629e-19)
(1.31778 0.259131 -7.19394e-21)
(1.31532 0.255753 -4.28268e-19)
(0.0390636 -0.00327376 2.51608e-19)
(0.155281 -0.00283937 1.68051e-19)
(0.300649 0.0150661 -2.71673e-19)
(0.462035 0.0443752 4.24198e-19)
(0.626495 0.0806348 -4.59325e-20)
(0.782416 0.119769 1.58604e-19)
(0.920998 0.157917 5.49395e-20)
(1.03712 0.192128 1.94336e-19)
(1.12922 0.220656 -1.52198e-19)
(1.1985 0.242872 5.06399e-20)
(1.24788 0.258982 -4.8531e-20)
(1.28107 0.269711 -2.11497e-20)
(1.30181 0.276018 4.04837e-20)
(1.31346 0.278885 -7.43798e-20)
(1.31881 0.279202 -2.27422e-20)
(1.32 0.277704 -6.96612e-20)
(1.31864 0.274956 -1.13032e-19)
(1.31586 0.271361 7.30469e-20)
(1.31248 0.267347 -9.97117e-20)
(1.30921 0.263399 4.31433e-19)
(0.0499113 -0.00275043 -1.2536e-19)
(0.18604 0.0013245 -3.55909e-19)
(0.348349 0.0251329 -4.7422e-20)
(0.522172 0.0607828 -1.31249e-20)
(0.693325 0.102485 -1.59806e-19)
(0.849928 0.145339 -2.62522e-19)
(0.984004 0.185196 8.58453e-20)
(1.09197 0.219286 -1.17966e-19)
(1.17401 0.246328 -1.31956e-19)
(1.23285 0.266238 7.34561e-20)
(1.2725 0.279711 -5.54421e-20)
(1.2973 0.287832 -1.11993e-19)
(1.31124 0.291777 -3.62618e-21)
(1.31765 0.292633 7.58617e-20)
(1.31912 0.291309 -7.71432e-20)
(1.31755 0.288507 1.0707e-19)
(1.31427 0.28474 2.88835e-20)
(1.3102 0.280355 7.24098e-20)
(1.306 0.27576 1.40672e-19)
(1.3022 0.271323 -1.20511e-19)
(0.0617714 -0.00149078 1.1961e-19)
(0.218632 0.00754718 -1.02729e-20)
(0.397462 0.0381455 5.40017e-20)
(0.582204 0.0804426 -7.30843e-20)
(0.75782 0.127311 6.18396e-21)
(0.912738 0.173183 2.53915e-19)
(1.04035 0.213868 -1.66651e-19)
(1.13897 0.247007 7.06193e-20)
(1.21057 0.271926 6.2273e-20)
(1.2593 0.289138 -1.74572e-19)
(1.29004 0.299806 1.63977e-19)
(1.30754 0.30532 1.49818e-21)
(1.31581 0.307012 -1.15314e-19)
(1.31803 0.306013 1.38945e-19)
(1.31652 0.30321 -5.5085e-20)
(1.3129 0.299251 4.20893e-20)
(1.30826 0.294581 -4.70937e-20)
(1.30332 0.289495 -1.89011e-20)
(1.29857 0.284384 -1.64244e-19)
(1.29444 0.279504 5.03895e-20)
(0.074535 0.000615396 -4.01303e-20)
(0.252627 0.0160116 1.08139e-19)
(0.447197 0.0541989 1.69368e-20)
(0.641071 0.103267 7.08531e-20)
(0.818871 0.154837 3.38813e-20)
(0.969958 0.202914 1.58927e-20)
(1.08958 0.243542 8.98951e-20)
(1.17813 0.274978 -1.08706e-20)
(1.23936 0.297258 3.96197e-20)
(1.27863 0.311502 6.359e-20)
(1.30146 0.319298 3.06662e-20)
(1.31275 0.32227 2.20127e-20)
(1.31641 0.321842 8.92262e-20)
(1.31536 0.319142 -8.63663e-20)
(1.3116 0.315002 1.85254e-20)
(1.3065 0.310001 -1.73522e-20)
(1.30092 0.304514 2.68188e-20)
(1.29541 0.298786 2.24677e-20)
(1.29034 0.293202 4.68521e-20)
(1.28601 0.287896 1.91996e-21)
(0.0880586 0.00366583 2.38051e-20)
(0.287527 0.0268502 2.17445e-20)
(0.496722 0.073305 -3.01511e-20)
(0.697755 0.129079 1.88476e-20)
(0.875526 0.184731 1.06595e-20)
(1.02094 0.234138 -3.31825e-20)
(1.13149 0.273857 1.09398e-20)
(1.2097 0.302938 2.00088e-21)
(1.26099 0.322184 1.88571e-20)
(1.29165 0.3333 -5.06032e-20)
(1.30761 0.338229 -1.5892e-22)
(1.31375 0.338763 1.40189e-20)
(1.31375 0.336357 -1.11741e-20)
(1.3102 0.332096 1.13049e-20)
(1.30481 0.326736 2.95054e-20)
(1.29867 0.32078 -1.67947e-20)
(1.29247 0.314534 4.67495e-21)
(1.2866 0.308203 1.83969e-20)
(1.28135 0.302166 -3.02983e-20)
(1.27692 0.296434 1.45698e-20)
(0.102167 0.00774073 6.60436e-20)
(0.322783 0.0401363 -3.60115e-20)
(0.545194 0.0953896 4.24702e-20)
(0.751317 0.157623 -3.1619e-20)
(0.927012 0.216615 -1.41927e-20)
(1.06528 0.266456 4.30718e-21)
(1.16608 0.304484 -1.39317e-20)
(1.23408 0.33067 5.00952e-20)
(1.27609 0.346603 -4.17367e-20)
(1.29912 0.354517 9.80554e-21)
(1.30926 0.356641 -7.29986e-21)
(1.31123 0.35486 -4.76231e-20)
(1.30838 0.350613 4.62165e-20)
(1.30297 0.344909 1.76168e-20)
(1.29642 0.338421 -1.75156e-20)
(1.28959 0.331573 4.11556e-20)
(1.283 0.324606 -5.99929e-22)
(1.27695 0.317693 -3.99442e-20)
(1.27162 0.311213 2.95799e-20)
(1.26718 0.305043 9.36016e-21)
(0.116658 0.0128984 -2.31547e-20)
(0.357816 0.0558787 6.70785e-20)
(0.59179 0.120296 7.76367e-20)
(0.800932 0.188573 -3.66923e-20)
(0.972737 0.250084 6.37991e-20)
(1.10276 0.299486 1.01055e-19)
(1.19354 0.335129 -5.60198e-21)
(1.25173 0.357994 -1.74095e-20)
(1.2853 0.370433 8.58313e-20)
(1.30172 0.375142 4.18928e-20)
(1.30704 0.374555 -7.62768e-21)
(1.3057 0.37059 6.25677e-20)
(1.30071 0.364626 -6.71935e-20)
(1.29397 0.357581 1.04696e-19)
(1.28663 0.350035 -1.74672e-20)
(1.27937 0.342337 5.01757e-20)
(1.27258 0.334673 9.0854e-21)
(1.26648 0.327189 3.59346e-20)
(1.26116 0.320265 -3.41828e-20)
(1.25678 0.313642 8.31678e-21)
(0.131304 0.0191713 -3.60395e-20)
(0.392031 0.0740177 8.4995e-20)
(0.635738 0.147787 6.3266e-20)
(0.8459 0.221554 -9.61673e-21)
(1.01229 0.284717 9.88955e-20)
(1.13333 0.332858 -7.41825e-20)
(1.21415 0.365526 -5.8569e-21)
(1.26316 0.384751 6.53669e-20)
(1.28923 0.393602 2.07295e-20)
(1.30004 0.395155 2.91461e-20)
(1.30146 0.391972 -4.30948e-20)
(1.29758 0.385951 1.12617e-19)
(1.29103 0.378381 2.11057e-20)
(1.28338 0.370075 -9.99281e-20)
(1.27556 0.361524 1.46409e-19)
(1.26809 0.353006 -1.72876e-19)
(1.26124 0.344657 -7.95567e-20)
(1.25518 0.336608 1.31868e-20)
(1.24996 0.329235 7.72554e-20)
(1.24569 0.322142 -1.46222e-19)
(0.145867 0.026563 -8.05665e-20)
(0.424843 0.0944262 -1.90374e-19)
(0.676339 0.17756 -1.64985e-19)
(0.885661 0.256146 -2.24597e-19)
(1.04541 0.32009 -1.277e-19)
(1.15708 0.36622 -2.64877e-19)
(1.22827 0.395429 3.36733e-20)
(1.26889 0.410796 -1.41085e-19)
(1.28843 0.416036 -1.55588e-20)
(1.29459 0.414518 2.32595e-20)
(1.29295 0.408866 -5.12816e-20)
(1.28718 0.400912 6.4418e-20)
(1.27955 0.391831 1.14897e-19)