1.275 	2.15223e-18 	-2.76991e-20 	0.0152366 	-0.389233 	-4.12434e-22
1.825 	2.15223e-18 	-1.39322e-20 	-0.334613 	-0.455222 	4.48816e-21
2.375 	2.15223e-18 	1.38775e-18 	0.550438 	0.0431556 	-1.93851e-21
2.925 	2.15223e-18 	2.78958e-18 	0.819721 	0.451629 	2.24515e-22
3.475 	2.15223e-18 	4.53849e-18 	0.627627 	0.663281 	-4.21727e-22
4.025 	2.15223e-18 	6.28755e-18 	0.659451 	0.420205 	6.75098e-23
4.575 	2.15223e-18 	6.30203e-18 	0.916061 	-0.0639785 	1.83244e-21
5.125 	2.15223e-18 	6.31666e-18 	0.961715 	-0.480954 	-1.8146e-21
5.675 	2.15223e-18 	6.33144e-18 	0.8927 	-0.606342 	-1.97553e-22
6.225 	2.15223e-18 	4.61166e-18 	0.917845 	-0.420891 	-4.8111e-22
