/*--------------------------------*- C++ -*----------------------------------*\
  =========                 |
  \\      /  F ield         | OpenFOAM: The Open Source CFD Toolbox
   \\    /   O peration     | Website:  https://openfoam.org
    \\  /    A nd           | Version:  6.0
     \\/     M anipulation  |
\*---------------------------------------------------------------------------*/
FoamFile
{
    version     2.0;
    format      ascii;
    class       surfaceScalarField;
    location    "39";
    object      phi;
}
// * * * * * * * * * * * * * * * * * * * * * * * * * * * * * * * * * * * * * //

dimensions      [0 3 -1 0 0 0 0];

internalField   nonuniform List<scalar> 
24700
(
-1.27919e-06
5.48195e-08
1.22437e-06
-4.65271e-06
1.28406e-07
3.24512e-06
-9.7235e-06
1.46294e-07
4.9245e-06
-1.61447e-05
1.03918e-07
6.31724e-06
-2.36181e-05
3.78239e-09
7.46968e-06
-3.18923e-05
-1.49006e-07
8.42314e-06
-4.07587e-05
-3.4765e-07
9.21411e-06
-5.0049e-05
-5.84186e-07
9.87445e-06
-5.96308e-05
-8.49802e-07
1.04316e-05
-6.94049e-05
-1.135e-06
1.09091e-05
-7.93015e-05
-1.4297e-06
1.13263e-05
-8.92775e-05
-1.72339e-06
1.16993e-05
-9.93132e-05
-2.00534e-06
1.20411e-05
-0.00010941
-2.26483e-06
1.23616e-05
-0.000119587
-2.49143e-06
1.26686e-05
-0.00012988
-2.67538e-06
1.29679e-05
-0.000140335
-2.80781e-06
1.32635e-05
-0.000151012
-2.88108e-06
1.3558e-05
-0.000161977
-2.88903e-06
1.38532e-05
-0.000173299
-2.8271e-06
1.41499e-05
-0.000185055
-2.69247e-06
1.44482e-05
-0.000197319
-2.48422e-06
1.47478e-05
-0.000210164
-2.20329e-06
1.50484e-05
-0.000223661
-1.85121e-06
1.53484e-05
-1.42851e-06
1.56465e-05
-0.000237879
-1.28973e-06
1.34455e-06
-4.68798e-06
3.52665e-06
-9.79228e-06
5.2506e-06
-1.62514e-05
6.56308e-06
-2.3764e-05
7.51631e-06
-3.20754e-05
8.16244e-06
-4.09751e-05
8.55198e-06
-5.02922e-05
8.733e-06
-5.98929e-05
8.75081e-06
-6.96757e-05
8.64789e-06
-7.95695e-05
8.46406e-06
-8.95294e-05
8.23645e-06
-9.95343e-05
7.99958e-06
-0.000109584
7.78519e-06
-0.000119698
7.62208e-06
-0.000129909
7.53584e-06
-0.000140265
7.54861e-06
-0.000150825
7.67879e-06
-0.000161655
7.94079e-06
-0.000172827
8.34496e-06
-0.000184417
8.89748e-06
-0.000196502
9.60031e-06
-0.000209156
1.04512e-05
-0.000222453
1.1446e-05
1.2582e-05
-0.000236464
-1.29946e-06
2.64401e-06
-4.71918e-06
6.94637e-06
-9.85027e-06
1.03817e-05
-1.63362e-05
1.30491e-05
-2.38712e-05
1.50513e-05
-3.21968e-05
1.64881e-05
-4.10989e-05
1.74541e-05
-5.04036e-05
1.80377e-05
-5.99735e-05
1.83206e-05
-6.97041e-05
1.83785e-05
-7.95208e-05
1.82808e-05
-8.93757e-05
1.80913e-05
-9.92447e-05
1.78686e-05
-0.000109125
1.76656e-05
-0.000119033
1.753e-05
-0.000129001
1.75038e-05
-0.000139076
1.76231e-05
-0.000149315
1.79179e-05
-0.000159786
1.84117e-05
-0.000170562
1.91216e-05
-0.000181723
2.0058e-05
-0.000193347
2.12246e-05
-0.000205514
2.26184e-05
-0.000218301
2.4233e-05
2.60638e-05
-0.000231783
-1.30842e-06
3.95243e-06
-4.74628e-06
1.03842e-05
-9.89733e-06
1.55327e-05
-1.63989e-05
1.95506e-05
-2.39397e-05
2.25921e-05
-3.22569e-05
2.48052e-05
-4.11318e-05
2.6329e-05
-5.0386e-05
2.72919e-05
-5.98778e-05
2.78124e-05
-6.9498e-05
2.79988e-05
-7.91674e-05
2.79501e-05
-8.88331e-05
2.7757e-05
-9.84664e-05
2.75019e-05
-0.00010806
2.72595e-05
-0.000117627
2.70968e-05
-0.000127196
2.70731e-05
-0.000136813
2.72396e-05
-0.000146534
2.7639e-05
-0.000156428
2.83054e-05
-0.00016657
2.92639e-05
-0.000177042
3.05305e-05
-0.00018793
3.2112e-05
-0.000199317
3.40058e-05
-0.000211288
3.62037e-05
3.86998e-05
-0.000223924
-1.31667e-06
5.2691e-06
-4.76939e-06
1.3837e-05
-9.93354e-06
2.06969e-05
-1.64395e-05
2.60566e-05
-2.39701e-05
3.01227e-05
-3.22569e-05
3.30921e-05
-4.10762e-05
3.51483e-05
-5.02445e-05
3.64601e-05
-5.96142e-05
3.71821e-05
-6.90705e-05
3.74551e-05
-7.85278e-05
3.74074e-05
-8.79269e-05
3.71561e-05
-9.72327e-05
3.68077e-05
-0.000106432
3.64589e-05
-0.000115532
3.61967e-05
-0.000124558
3.60987e-05
-0.00013355
3.62323e-05
-0.000142566
3.66548e-05
-0.000151673
3.74128e-05
-0.000160951
3.85414e-05
-0.000170485
4.00643e-05
-0.000180366
4.19931e-05
-0.000190687
4.43272e-05
-0.000201542
4.70583e-05
5.01791e-05
-0.000213021
-1.3243e-06
6.59339e-06
-4.78851e-06
1.73012e-05
-9.95876e-06
2.58671e-05
-1.64578e-05
3.25556e-05
-2.39621e-05
3.7627e-05
-3.21976e-05
4.13275e-05
-4.09346e-05
4.38853e-05
-4.99839e-05
4.55094e-05
-5.91915e-05
4.63898e-05
-6.84357e-05
4.66993e-05
-7.76232e-05
4.6595e-05
-8.6687e-05
4.62199e-05
-9.55837e-05
4.57044e-05
-0.000104292
4.51674e-05
-0.000112812
4.47165e-05
-0.000121162
4.44486e-05
-0.000129379
4.44491e-05
-0.000137516
4.47918e-05
-0.000145641
4.55381e-05
-0.000153835
4.67359e-05
-0.000162191
4.84194e-05
-0.000170805
5.06079e-05
-0.000179783
5.33051e-05
-0.000189229
5.65044e-05
6.01988e-05
-0.000199249
-1.33128e-06
7.92467e-06
-4.80334e-06
2.07732e-05
-9.97216e-06
3.1036e-05
-1.64525e-05
3.9036e-05
-2.39143e-05
4.50887e-05
-3.20774e-05
4.94906e-05
-4.07065e-05
5.25145e-05
-4.9606e-05
5.44089e-05
-5.86152e-05
5.5399e-05
-6.76045e-05
5.56885e-05
-7.64719e-05
5.54624e-05
-8.5141e-05
5.48889e-05
-9.35584e-05
5.41218e-05
-0.000101693
5.3302e-05
-0.000109535
5.25581e-05
-0.000117093
5.20074e-05
-0.000124399
5.17549e-05
-0.000131501
5.18933e-05
-0.000138464
5.25017e-05
-0.000145373
5.36444e-05
-0.000152323
5.53697e-05
-0.000159423
5.77082e-05
-0.00016679
6.06719e-05
-0.000174545
6.42588e-05
6.84645e-05
-0.00018281
-1.33744e-06
9.2621e-06
-4.81298e-06
2.42488e-05
-9.97168e-06
3.61947e-05
-1.64202e-05
4.54845e-05
-2.38217e-05
5.24903e-05
-3.18906e-05
5.75595e-05
-4.0386e-05
6.10098e-05
-4.91059e-05
6.31289e-05
-5.78828e-05
6.41759e-05
-6.65788e-05
6.43845e-05
-7.50825e-05
6.39661e-05
-8.33066e-05
6.3113e-05
-9.11864e-05
6.20016e-05
-9.86783e-05
6.07939e-05
-0.00010576
5.964e-05
-0.000112431
5.86779e-05
-0.00011871
5.80341e-05
-0.000124639
5.78226e-05
-0.000130281
5.81436e-05
-0.000135719
5.9082e-05
-0.000141054
6.07051e-05
-0.000146406
6.306e-05
-0.000151906
6.61717e-05
-0.000157695
7.00481e-05
7.46904e-05
-0.000163921
-1.34236e-06
1.06045e-05
-4.81571e-06
2.77221e-05
-9.95355e-06
4.13325e-05
-1.63543e-05
5.18852e-05
-2.36752e-05
5.98112e-05
-3.16254e-05
6.55097e-05
-3.99589e-05
6.93432e-05
-4.84682e-05
7.16382e-05
-5.69791e-05
7.26867e-05
-6.53454e-05
7.27508e-05
-7.34461e-05
7.20668e-05
-8.11823e-05
7.08493e-05
-8.84762e-05
6.92954e-05
-9.52701e-05
6.75878e-05
-0.000101527
6.58969e-05
-0.000107231
6.4382e-05
-0.000112389
6.31922e-05
-0.000117032
6.24652e-05
-0.000121215
6.23262e-05
-0.000125018
6.28853e-05
-0.000128548
6.42349e-05
-0.000131933
6.64453e-05
-0.000135323
6.95619e-05
-0.000138884
7.3609e-05
7.85997e-05
-0.000142793
-1.34532e-06
1.19498e-05
-4.80877e-06
3.11856e-05
-9.91179e-06
4.64355e-05
-1.6245e-05
5.82184e-05
-2.346e-05
6.70263e-05
-3.12617e-05
7.33113e-05
-3.94001e-05
7.74816e-05
-4.76631e-05
7.99013e-05
-5.58706e-05
8.08943e-05
-6.38691e-05
8.07493e-05
-7.15277e-05
7.97254e-05
-7.8736e-05
7.80576e-05
-8.54023e-05
7.59616e-05
-9.14529e-05
7.36385e-05
-9.68338e-05
7.12777e-05
-0.000101511
6.90595e-05
-0.000105475
6.71557e-05
-0.000108739
6.57299e-05
-0.000111349
6.49358e-05
-0.000113378
6.49143e-05
-0.000114933
6.57897e-05
-0.000116152
6.76645e-05
-0.000117204
7.06139e-05
-0.000118283
7.46885e-05
7.99228e-05
-0.000119607
-1.34528e-06
1.32951e-05
-4.78823e-06
3.46285e-05
-9.83801e-06
5.14853e-05
-1.60777e-05
6.44581e-05
-2.31544e-05
7.41029e-05
-3.07697e-05
8.09267e-05
-3.8671e-05
8.53829e-05
-4.66429e-05
8.78732e-05
-5.45009e-05
8.87523e-05
-6.20853e-05
8.83336e-05
-6.92568e-05
8.68969e-05
-7.58937e-05
8.46945e-05
-8.18903e-05
8.19582e-05
-8.71564e-05
7.89046e-05
-9.16186e-05
7.57399e-05
-9.52222e-05
7.26631e-05
-9.79353e-05
6.98688e-05
-9.97524e-05
6.7547e-05
-0.0001007
6.5883e-05
-0.000100839
6.50538e-05
-0.000100273
6.52238e-05
-9.91467e-05
6.65381e-05
-9.76471e-05
6.91143e-05
-9.60024e-05
7.30438e-05
7.83964e-05
-9.4476e-05
-1.34085e-06
1.46359e-05
-4.74902e-06
3.80367e-05
-9.72131e-06
5.64576e-05
-1.58339e-05
7.05707e-05
-2.27299e-05
8.0999e-05
-3.01093e-05
8.8306e-05
-3.7718e-05
9.29915e-05
-4.53393e-05
9.54946e-05
-5.27862e-05
9.61991e-05
-5.98946e-05
9.5442e-05
-6.65187e-05
9.3521e-05
-7.25273e-05
9.07031e-05
-7.78017e-05
8.72327e-05
-8.22354e-05
8.33383e-05
-8.57347e-05
7.92391e-05
-8.82218e-05
7.51502e-05
-8.96391e-05
7.12861e-05
-8.99552e-05
6.78631e-05
-8.91713e-05
6.50991e-05
-8.73297e-05
6.32122e-05
-8.45212e-05
6.24153e-05
-8.08911e-05
6.2908e-05
-7.66432e-05
6.48663e-05
-7.20414e-05
6.84421e-05
7.37614e-05
-6.74065e-05
-1.33035e-06
1.59663e-05
-4.68504e-06
4.13914e-05
-9.54854e-06
6.13211e-05
-1.54905e-05
7.65126e-05
-2.21511e-05
8.76597e-05
-2.92295e-05
9.53844e-05
-3.64718e-05
0.000100234
-4.36619e-05
0.000102685
-5.06124e-05
0.00010315
-5.71575e-05
0.000101987
-6.31476e-05
9.9511e-05
-6.84445e-05
9.60001e-05
-7.29193e-05
9.17075e-05
-7.64507e-05
8.68696e-05
-7.89257e-05
8.17142e-05
-8.02426e-05
7.64672e-05
-8.03157e-05
7.13592e-05
-7.90819e-05
6.66293e-05
-7.65109e-05
6.2528e-05
-7.26153e-05
5.93167e-05
-6.74639e-05
5.72639e-05
-6.1193e-05
5.66371e-05
-5.40167e-05
5.769e-05
-4.62349e-05
6.06603e-05
6.57614e-05
-3.82349e-05
-1.31194e-06
1.72782e-05
-4.58948e-06
4.46689e-05
-9.30481e-06
6.60364e-05
-1.50212e-05
8.2229e-05
-2.13766e-05
9.4015e-05
-2.80697e-05
0.000102078
-3.48486e-05
0.000107013
-4.14989e-05
0.000109335
-4.78354e-05
0.000109486
-5.36933e-05
0.000107845
-5.89223e-05
0.00010474
-6.33815e-05
0.000100459
-6.69353e-05
9.52612e-05
-6.94515e-05
8.93859e-05
-7.08013e-05
8.30639e-05
-7.08607e-05
7.65266e-05
-6.95153e-05
7.00138e-05
-6.66679e-05
6.37819e-05
-6.22493e-05
5.81094e-05
-5.6233e-05
5.33003e-05
-4.86526e-05
4.96836e-05
-3.96217e-05
4.76061e-05
-2.93528e-05
4.74212e-05
-1.8177e-05
4.94844e-05
5.41403e-05
-6.55585e-06
-1.28372e-06
1.85619e-05
-4.45526e-06
4.78405e-05
-8.97439e-06
7.05555e-05
-1.43978e-05
8.76524e-05
-2.03607e-05
9.99779e-05
-2.65622e-05
0.000108279
-3.27522e-05
0.000113203
-3.87197e-05
0.000115303
-4.4283e-05
0.000115049
-4.92812e-05
0.000112843
-5.3567e-05
0.000109026
-5.70007e-05
0.000103893
-5.94457e-05
9.77062e-05
-6.07648e-05
9.0705e-05
-6.08191e-05
8.31182e-05
-5.94677e-05
7.51752e-05
-5.65715e-05
6.71176e-05
-5.19995e-05
5.921e-05
-4.56405e-05
5.17504e-05
-3.74197e-05
4.50795e-05
-2.73219e-05
3.95858e-05
-1.54198e-05
3.5704e-05
-1.90608e-06
3.39075e-05
1.28704e-05
3.47079e-05
3.86398e-05
2.83709e-05
-1.24394e-06
1.98059e-05
-4.27559e-06
5.08721e-05
-8.54172e-06
7.48217e-05
-1.35915e-05
9.27022e-05
-1.90565e-05
0.000105443
-2.46351e-05
0.000113858
-3.00788e-05
0.000118646
-3.518e-05
0.000120404
-3.97616e-05
0.000119631
-4.36679e-05
0.00011675
-4.67577e-05
0.000112116
-4.8897e-05
0.000106032
-4.9954e-05
9.87632e-05
-4.97942e-05
9.05452e-05
-4.82773e-05
8.16013e-05
-4.52551e-05
7.21531e-05
-4.05727e-05
6.24351e-05
-3.40721e-05
5.27094e-05
-2.56028e-05
4.32811e-05
-1.50381e-05
3.45148e-05
-2.30181e-06
2.68495e-05
1.25946e-05
2.08076e-05
2.95046e-05
1.69975e-05
4.80853e-05
1.61272e-05
1.89961e-05
6.7729e-05
-1.19118e-06
2.09971e-05
-4.04455e-06
5.37255e-05
-7.99261e-06
7.87697e-05
-1.25751e-05
9.72847e-05
-1.74178e-05
0.000110286
-2.22165e-05
0.000118656
-2.67225e-05
0.000123152
-3.07298e-05
0.000124411
-3.40651e-05
0.000122966
-3.65785e-05
0.000119263
-3.81359e-05
0.000113673
-3.86125e-05
0.000106509
-3.78868e-05
9.80375e-05
-3.5835e-05
8.84934e-05
-3.23261e-05
7.80924e-05
-2.72181e-05
6.7045e-05
-2.0355e-05
5.5572e-05
-1.15675e-05
4.39219e-05
-6.7796e-07
3.23916e-05
1.24861e-05
2.13508e-05
2.80662e-05
1.12694e-05
4.613e-05
2.7437e-06
6.66088e-05
-3.48123e-06
8.92047e-05
-6.46871e-06
-5.06587e-06
0.000113267
-1.1245e-06
2.21216e-05
-3.75762e-06
5.63586e-05
-7.31529e-06
8.23274e-05
-1.13248e-05
0.000101294
-1.54029e-05
0.000114364
-1.92393e-05
0.000122493
-2.25814e-05
0.000126494
-2.52217e-05
0.000127051
-2.69877e-05
0.000124732
-2.77328e-05
0.000120008
-2.73293e-05
0.00011327
-2.56623e-05
0.000104842
-2.26238e-05
9.4999e-05
-1.81075e-05
8.39771e-05
-1.20027e-05
7.19876e-05
-4.18885e-06
5.92312e-05
5.47033e-06
4.59129e-05
1.71317e-05
3.22605e-05
3.09745e-05
1.85488e-05
4.7195e-05
5.13032e-06
6.59879e-05
-7.52355e-06
8.75067e-05
-1.87751e-05
0.000111791
-2.77654e-05
0.000138642
-3.33194e-05
-3.38429e-05
0.000167419
-1.04355e-06
2.31651e-05
-3.41199e-06
5.8727e-05
-6.50108e-06
8.54165e-05
-9.82143e-06
0.000104614
-1.29763e-05
0.000117519
-1.56442e-05
0.000125161
-1.75636e-05
0.000128414
-1.852e-05
0.000128008
-1.83361e-05
0.000124548
-1.68635e-05
0.000118535
-1.39765e-05
0.000110383
-9.5671e-06
0.000100432
-3.5403e-06
8.89722e-05
4.19006e-06
7.62467e-05
1.37063e-05
6.24713e-05
2.50931e-05
4.78444e-05
3.84447e-05
3.25613e-05
5.38743e-05
1.68309e-05
7.15236e-05
8.99461e-07
9.15698e-05
-1.49159e-05
0.000114223
-3.01766e-05
0.000139701
-4.42534e-05
0.000168167
-5.62311e-05
0.000199582
-6.47348e-05
-6.7675e-05
0.000233415
-9.48598e-07
2.41137e-05
-3.00657e-06
6.0785e-05
-5.54455e-06
8.79545e-05
-8.05111e-06
0.000107121
-1.01101e-05
0.000119578
-1.13828e-05
0.000126433
-1.15916e-05
0.000128623
-1.05077e-05
0.000126924
-7.94108e-06
0.000121982
-3.73333e-06
0.000114328
2.24745e-06
0.000104402
1.01101e-05
9.25699e-05
1.99426e-05
7.91397e-05
3.18144e-05
6.43749e-05
4.57784e-05
4.85073e-05
6.18749e-05
3.17479e-05
8.0138e-05
1.42982e-05
0.000100605
-3.6364e-06
0.000123333
-2.18283e-05
0.000148415
-3.99983e-05
0.000176004
-5.77654e-05
0.000206316
-7.45654e-05
0.000239607
-8.95223e-05
0.000276049
-0.000101177
-0.000106983
0.000315357
-8.40355e-07
2.49541e-05
-2.54163e-06
6.24863e-05
-4.44287e-06
8.98557e-05
-6.00411e-06
0.000108682
-6.78313e-06
0.000120357
-6.41635e-06
0.000126067
-4.60236e-06
0.000126809
-1.08893e-06
0.000123411
4.33651e-06
0.000116556
1.18533e-05
0.000106811
2.16111e-05
9.46439e-05
3.37318e-05
8.04492e-05
4.83088e-05
6.45627e-05
6.5406e-05
4.72777e-05
8.50558e-05
2.88575e-05
0.000107258
9.54557e-06
0.000131981
-1.04245e-05
0.000159165
-3.08204e-05
0.000188737
-5.14007e-05
0.000220635
-7.18964e-05
0.000254845
-9.19753e-05
0.000291452
-0.000111172
0.000330689
-0.000128759
0.00037292
-0.000143408
-0.000152315
0.000418252
-7.19742e-07
2.56738e-05
-2.018e-06
6.37845e-05
-3.19434e-06
9.10321e-05
-3.67297e-06
0.000109161
-2.97809e-06
0.000119662
-7.13454e-07
0.000123802
3.45505e-06
0.00012264
9.81281e-06
0.000117053
1.86059e-05
0.000107763
3.00466e-05
9.53701e-05
4.43165e-05
8.0374e-05
6.15657e-05
6.32e-05
8.19105e-05
4.4218e-05
0.000105428
2.37599e-05
0.000132151
2.13431e-06
0.000162059
-2.03619e-05
0.000195068
-4.34338e-05
0.000231029
-6.67814e-05
0.000269723
-9.00942e-05
0.000310873
-0.000113047
0.000354184
-0.000135286
0.000399414
-0.000156403
0.000446516
-0.000175861
0.000495831
-0.000192723
-0.00020446
0.000547976
-5.87509e-07
2.62613e-05
-1.43591e-06
6.46329e-05
-1.79629e-06
9.13924e-05
-1.04908e-06
0.000108414
1.32279e-06
0.00011729
5.75632e-06
0.000119368
1.26271e-05
0.000115769
2.22631e-05
0.000107417
3.49545e-05
9.50717e-05
5.09589e-05
7.93658e-05
7.05028e-05
6.08301e-05
9.37809e-05
3.99219e-05
0.000120951
1.70474e-05
0.000152129
-7.41802e-06
0.000187376
-3.31123e-05
0.000226685
-5.96712e-05
0.000269967
-8.67151e-05
0.000317023
-0.000113837
0.000367525
-0.000140596
0.00042099
-0.000166512
0.000476773
-0.00019107
0.000534109
-0.000213739
0.00059226
-0.000234012
0.000650943
-0.000251405
-0.000265128
0.00071161
-4.4378e-07
2.67051e-05
-7.93689e-07
6.49829e-05
-2.42442e-07
9.08412e-05
1.88134e-06
0.00010629
6.14369e-06
0.000113028
1.303e-05
0.000112482
2.29652e-05
0.000105834
3.63285e-05
9.40535e-05
5.34625e-05
7.79377e-05
7.46793e-05
5.81491e-05
0.000100261
3.52482e-05
0.00013046
9.72335e-06
0.000165491
-1.79842e-05
0.00020553
-4.7457e-05
0.000250699
-7.8281e-05
0.000301054
-0.000110026
0.000356563
-0.000142225
0.000417079
-0.000174353
0.000482288
-0.000205805
0.000551642
-0.000235865
0.00062426
-0.000263687
0.000698823
-0.000288302
0.000773505
-0.000308694
0.000846373
-0.000324273
-0.000338545
0.000919791
-2.87622e-07
2.69927e-05
-8.63645e-08
6.47816e-05
1.47953e-06
8.92753e-05
5.14125e-06
0.000102628
1.15209e-05
0.000106648
2.11592e-05
0.000102844
3.45367e-05
9.24567e-05
5.20893e-05
7.65009e-05
7.42178e-05
5.58092e-05
0.000101293
3.10743e-05
0.000133655
2.88549e-06
0.000171618
-2.82394e-05
0.00021546
-6.18266e-05
0.000265426
-9.74228e-05
0.000321719
-0.000134574
0.000384498
-0.000172805
0.000453873
-0.0002116
0.000529892
-0.000250372
0.000612519
-0.000288433
0.000701588
-0.000324934
0.000796684
-0.000358784
0.000896902
-0.00038852
0.00100014
-0.000411934
0.00110124
-0.000425372
-0.000424862
0.00118756
-1.17188e-07
2.71099e-05
6.94502e-07
6.39699e-05
3.38908e-06
8.65807e-05
8.76489e-06
9.72524e-05
1.75065e-05
9.79063e-05
3.0215e-05
9.01352e-05
4.7431e-05
7.52407e-05
6.96494e-05
5.42825e-05
9.73284e-05
2.81302e-05
0.000130894
-2.49094e-06
0.000170739
-3.69597e-05
0.000217225
-7.47255e-05
0.000270679
-0.000115281
0.000331395
-0.000158139
0.000399638
-0.000202817
0.000475653
-0.00024882
0.00055969
-0.000295636
0.000652036
-0.000342719
0.000753093
-0.00038949
0.000863493
-0.000435333
0.000984313
-0.000479604
0.00111743
-0.000521639
0.00126636
-0.00056086
0.00143871
-0.000597724
-0.000637771
0.00165162
7.22717e-08
2.70376e-05
1.56443e-06
6.24778e-05
5.51735e-06
8.26278e-05
1.2803e-05
8.99667e-05
2.41735e-05
8.65359e-05
4.02939e-05
7.40148e-05
6.17656e-05
5.3769e-05
8.91403e-05
2.69079e-05
0.000122927
-5.65636e-06
0.000163593
-4.31573e-05
0.000211565
-8.49315e-05
0.000267223
-0.000130383
0.0003309
-0.000178958
0.000402884
-0.000230124
0.000483425
-0.000283357
0.000572745
-0.00033814
0.000671068
-0.000393958
0.000778659
-0.00045031
0.000895893
-0.000506724
0.00102335
-0.000562794
0.00116197
-0.000618222
0.00131321
-0.000672883
0.0014793
-0.000726941
0.00166272
-0.000781144
-0.000835495
0.00186044
2.85721e-07
2.67519e-05
2.54125e-06
6.02222e-05
7.90115e-06
7.72679e-05
1.7316e-05
8.05519e-05
3.16085e-05
7.22433e-05
5.15087e-05
5.41146e-05
7.76759e-05
2.76018e-05
0.000110711
-6.12682e-06
0.000151158
-4.61035e-05
0.000199505
-9.15042e-05
0.000256176
-0.000141602
0.000321526
-0.000195733
0.000395837
-0.000253269
0.000479314
-0.000313601
0.000572093
-0.000376137
0.000674247
-0.000440294
0.000785806
-0.000505517
0.000906783
-0.000571287
0.00103721
-0.000637154
0.00117719
-0.000702766
0.00132688
-0.000767917
0.00148658
-0.000832583
0.00165656
-0.000896923
0.00183651
-0.00096109
-0.00102218
0.00202319
5.29895e-07
2.6222e-05
3.64732e-06
5.71048e-05
1.05848e-05
7.03304e-05
2.23742e-05
6.87625e-05
3.99098e-05
5.47077e-05
6.39835e-05
3.00408e-05
9.5305e-05
-3.7197e-06
0.000134509
-4.53304e-05
0.000182152
-9.37468e-05
0.000238708
-0.00014806
0.000304556
-0.00020745
0.000379967
-0.000271145
0.000465101
-0.000338403
0.00056
-0.0004085
0.000664588
-0.000480724
0.00077868
-0.000554386
0.000901996
-0.000628833
0.00103417
-0.000703465
0.00117479
-0.000777768
0.00132336
-0.000851333
0.00147933
-0.000923894
0.00164208
-0.000995329
0.00181077
-0.00106561
0.00198416
-0.00113448
-0.00119801
0.00215999
8.12345e-07
2.54097e-05
4.90717e-06
5.301e-05
1.36158e-05
6.16218e-05
2.80513e-05
5.4327e-05
4.91768e-05
3.35823e-05
7.78385e-05
1.37904e-06
0.000114782
-4.06631e-05
0.000160652
-9.12008e-05
0.000215987
-0.000149081
0.000281199
-0.000213273
0.000356565
-0.000282816
0.000442209
-0.000356788
0.000538092
-0.000434286
0.000644007
-0.000514415
0.000759587
-0.000596304
0.000884309
-0.000679108
0.00101751
-0.000762036
0.00115841
-0.000844367
0.00130613
-0.00092548
0.00145966
-0.00100487
0.00161794
-0.00108217
0.00177974
-0.00115713
0.00194371
-0.00122959
0.00210834
-0.00129911
-0.00136176
0.00227209
1.14086e-06
2.42688e-05
6.34551e-06
4.78053e-05
1.70409e-05
5.09263e-05
3.44174e-05
3.69506e-05
5.9499e-05
8.50071e-06
9.31729e-05
-3.22949e-05
0.000136198
-8.3688e-05
0.000189197
-0.0001442
0.000252642
-0.000212526
0.000326831
-0.000287463
0.000411873
-0.000367858
0.000507668
-0.000452583
0.000613901
-0.000540518
0.000730046
-0.000630561
0.000855376
-0.000721634
0.000988984
-0.000812716
0.00112981
-0.000902859
0.00127666
-0.000991217
0.00142825
-0.00107707
0.00158322
-0.00115984
0.00174016
-0.0012391
0.00189758
-0.00131455
0.00205396
-0.00138597
0.00220784
-0.00145299
-0.00151219
0.00235826
1.52284e-06
2.2746e-05
7.98521e-06
4.13429e-05
2.09017e-05
3.80099e-05
4.15307e-05
1.63215e-05
7.0944e-05
-2.09125e-05
0.000110048
-7.13985e-05
0.000159581
-0.000133222
0.000220102
-0.000204721
0.00029196
-0.000284384
0.000375272
-0.000370775
0.000469903
-0.000462489
0.000575454
-0.000558134
0.000691266
-0.000656331
0.000816433
-0.000755727
0.00094983
-0.000855031
0.00109015
-0.000953039
0.00123596
-0.00104867
0.00138573
-0.00114098
0.00153788
-0.00122923
0.00169085
-0.00131281
0.00184307
-0.00139132
0.00199304
-0.00146452
0.00213936
-0.00153228
0.00228075
-0.00159438
-0.00164818
0.00241674
1.96478e-06
2.07812e-05
9.84532e-06
3.34624e-05
2.52302e-05
2.2625e-05
4.94313e-05
-7.87961e-06
8.35464e-05
-5.50275e-05
0.000128469
-0.000116322
0.000184878
-0.000189631
0.000253207
-0.00027305
0.000333618
-0.000364794
0.00042597
-0.000463127
0.00052981
-0.000566329
0.00064437
-0.000672694
0.000768586
-0.000780547
0.000901138
-0.000888279
0.0010405
-0.000994393
0.001185
-0.00109754
0.0013329
-0.00119656
0.00148242
-0.00129051
0.00163185
-0.00137866
0.00177958
-0.00146053
0.0019241
-0.00153584
0.00206409
-0.00160451
0.00219839
-0.00166658
0.0023261
-0.0017221
-0.00176923
0.00244715
2.47177e-06
1.83094e-05
1.19395e-05
2.39947e-05
3.00462e-05
4.51831e-06
5.81348e-05
-3.59682e-05
9.72992e-05
-9.41919e-05
0.00014838
-0.000167402
0.000211937
-0.000253188
0.000288216
-0.000349329
0.000377113
-0.000453691
0.000478154
-0.000564168
0.000590493
-0.000678668
0.000712935
-0.000795136
0.000843982
-0.000911594
0.000981898
-0.0010262
0.00112479
-0.00113729
0.0012707
-0.00124345
0.00141767
-0.00134353
0.00156384
-0.00143669
0.00170753
-0.00152234
0.00184721
-0.00160022
0.00198162
-0.00167026
0.00210974
-0.00173263
0.0022308
-0.00178764
0.00234432
-0.00183561
-0.00187549
0.00245058
3.04728e-06
1.52621e-05
1.4275e-05
1.2767e-05
3.5354e-05
-1.65607e-05
6.76283e-05
-6.82426e-05
0.000112148
-0.000138711
0.000169646
-0.0002249
0.0002405
-0.000324042
0.00032469
-0.000433519
0.000421766
-0.000550767
0.000530846
-0.000673247
0.000650632
-0.000798454
0.000779469
-0.000923973
0.000915423
-0.00104755
0.00105638
-0.00116716
0.00120017
-0.00128107
0.00134464
-0.00138791
0.00148778
-0.00148667
0.00162779
-0.0015767
0.00176314
-0.00165769
0.00189259
-0.00172966
0.0020152
-0.00179288
0.00213036
-0.00184779
0.00223772
-0.001895
0.00233721
-0.00193511
-0.00196773
0.00242945
3.69294e-06
1.15692e-05
1.68517e-05
-3.91794e-07
4.11415e-05
-4.08504e-05
7.78681e-05
-0.000104969
0.000127987
-0.00018883
0.00019206
-0.000288973
0.000270206
-0.000402188
0.000362058
-0.00052537
0.000466742
-0.000655452
0.000582903
-0.000789408
0.000708758
-0.000924308
0.000842188
-0.0010574
0.000980867
-0.00118623
0.00112239
-0.00130868
0.0012644
-0.00142308
0.00140472
-0.00152823
0.00154142
-0.00162337
0.00167291
-0.00170819
0.00179797
-0.00178275
0.00191571
-0.00184741
0.00202563
-0.00190279
0.00212751
-0.00194967
0.00222142
-0.00198891
0.00230767
-0.00202136
-0.00204717
0.0023871
4.40856e-06
7.16064e-06
1.96624e-05
-1.56456e-05
4.73794e-05
-6.85674e-05
8.87785e-05
-0.000146368
0.000144659
-0.000244711
0.000215339
-0.000359653
0.000300595
-0.000487444
0.00039963
-0.000624405
0.000511082
-0.000766904
0.000633077
-0.000911404
0.000763341
-0.00105457
0.000899335
-0.0011934
0.00103842
-0.00132531
0.001178
-0.00144827
0.00131572
-0.00156079
0.00144948
-0.00166199
0.00157761
-0.00175151
0.00169885
-0.00182943
0.00181235
-0.00189625
0.00191767
-0.00195273
0.00201472
-0.00199983
0.00210367
-0.00203862
0.00218495
-0.00207018
0.00225915
-0.00209556
-0.00211529
0.00232727
5.1921e-06
1.96854e-06
2.26921e-05
-3.31457e-05
5.4021e-05
-9.98963e-05
0.000100252
-0.0001926
0.000161959
-0.000306417
0.000239131
-0.000436826
0.000331121
-0.000579434
0.000436629
-0.000729912
0.000553749
-0.000884024
0.000680081
-0.00103774
0.000812892
-0.00118738
0.000949297
-0.0013298
0.00108646
-0.00146247
0.00122177
-0.00158357
0.00135296
-0.00169199
0.00147823
-0.00178726
0.00159623
-0.00186951
0.00170613
-0.00193933
0.00180751
-0.00199764
0.00190037
-0.00204559
0.00198499
-0.00208445
0.00206187
-0.0021155
0.0021317
-0.00214002
0.00219527
-0.00215912
-0.00217364
0.00225362
6.03971e-06
-4.07116e-06
2.59187e-05
-5.30246e-05
6.10027e-05
-0.00013498
0.000112153
-0.00024375
0.000179635
-0.000373899
0.000263028
-0.000520219
0.000361177
-0.000677583
0.00047222
-0.000840955
0.000593685
-0.00100549
0.00072267
-0.00116672
0.000856052
-0.00132076
0.000990721
-0.00146447
0.00112379
-0.00159554
0.00125276
-0.00171255
0.00137565
-0.00181487
0.001491
-0.00190261
0.00159793
-0.00197644
0.00169604
-0.00203744
0.00178536
-0.00208696
0.00186625
-0.00212648
0.00193931
-0.00215751
0.0020053
-0.00218149
0.00206505
-0.00219977
0.00211945
-0.00221352
-0.00222371
0.00216952
6.94573e-06
-1.10169e-05
2.93125e-05
-7.53914e-05
6.82449e-05
-0.000173913
0.000124315
-0.00029982
0.000197398
-0.000446982
0.000286574
-0.000609395
0.000390113
-0.000781123
0.000505554
-0.000956395
0.00062987
-0.00112981
0.000759715
-0.00129657
0.000891688
-0.00145274
0.00102259
-0.00159538
0.00114965
-0.0017226
0.00127062
-0.00183352
0.0013839
-0.00192815
0.0014885
-0.00200721
0.00158399
-0.00207193
0.00167042
-0.00212386
0.00174819
-0.00216473
0.00181798
-0.00219627
0.00188062
-0.00222015
0.00193701
-0.00223788
0.00198806
-0.00225082
0.00203467
-0.00226013
-0.00226682
0.00207778
7.90267e-06
-1.89196e-05
3.2837e-05
-0.000100326
7.56527e-05
-0.000216729
0.000136551
-0.000360718
0.000214926
-0.000525358
0.000309285
-0.000703753
0.000417269
-0.000889107
0.000535809
-0.00107494
0.000661372
-0.00125537
0.000790267
-0.00142546
0.000918951
-0.00158142
0.0010443
-0.00172072
0.00116377
-0.00184207
0.00127552
-0.00194528
0.00137841
-0.00203104
0.00147193
-0.00210073
0.0015561
-0.0021561
0.00163136
-0.00219912
0.00169843
-0.0022318
0.00175821
-0.00225605
0.00181166
-0.0022736
0.00185974
-0.00228596
0.00190338
-0.00229446
0.00194342
-0.00230017
-0.00230409
0.00198068
8.9012e-06
-2.78208e-05
3.6449e-05
-0.000127873
8.31179e-05
-0.000263397
0.000148651
-0.000426251
0.000231879
-0.000608586
0.000330667
-0.000802541
0.000442002
-0.00100044
0.000562236
-0.00119517
0.000687408
-0.00138054
0.000813612
-0.00155166
0.000937315
-0.00170513
0.00105561
-0.00183901
0.00116633
-0.00195279
0.0012681
-0.00204705
0.00136028
-0.00212322
0.00144282
-0.00218327
0.00151616
-0.00222944
0.00158105
-0.00226402
0.00163844
-0.0022892
0.00168936
-0.00230697
0.00173483
-0.00231907
0.00177581
-0.00232694
0.00181316
-0.00233181
0.00184764
-0.00233465
-0.0023364
0.00187996
9.93018e-06
-3.77509e-05
4.0099e-05
-0.000158042
9.05212e-05
-0.00031382
0.000160394
-0.000496123
0.000247907
-0.000696099
0.000350237
-0.00090487
0.000463721
-0.00111393
0.00058419
-0.00131564
0.000707374
-0.00150372
0.000829293
-0.00167358
0.000946582
-0.00182241
0.00105668
-0.00194911
0.00115788
-0.002054
0.00124933
-0.0021385
0.00133087
-0.00220475
0.00140288
-0.00225528
0.00146612
-0.00229268
0.0015216
-0.00231949
0.0015704
-0.00233799
0.00161359
-0.00235016
0.00165218
-0.00235766
0.00168709
-0.00236185
0.00171909
-0.0023638
0.00174884
-0.0023644
-0.00236447
0.0017769
1.09767e-05
-4.87277e-05
4.37326e-05
-0.000190798
9.77349e-05
-0.000367822
0.000171551
-0.000569939
0.000262665
-0.000787214
0.000367543
-0.00100975
0.000481908
-0.00122829
0.000601166
-0.0014349
0.000720869
-0.00162343
0.000837124
-0.00178984
0.000946863
-0.00193215
0.00104797
-0.00205022
0.00113928
-0.0021453
0.00122042
-0.00221964
0.00129169
-0.00227603
0.00135384
-0.00231742
0.00140787
-0.00234672
0.00145494
-0.00236656
0.00149618
-0.00237923
0.00153266
-0.00238664
0.00156534
-0.00239034
0.00159504
-0.00239155
0.00162244
-0.0023912
0.00164809
-0.00239005
-0.00238882
0.00167244
1.20263e-05
-6.0754e-05
4.72907e-05
-0.000226062
0.000104627
-0.000425158
0.000181894
-0.000647206
0.000275827
-0.000881148
0.000382187
-0.00111611
0.000496149
-0.00134225
0.000612814
-0.00155156
0.000727708
-0.00173832
0.000837164
-0.0018993
0.000938531
-0.00203352
0.00103021
-0.0021419
0.00111155
-0.00222664
0.00118268
-0.00229077
0.00124428
-0.00233762
0.00129736
-0.0023705
0.00134311
-0.00239247
0.00138273
-0.00240618
0.00141737
-0.00241387
0.00144804
-0.00241731
0.00147561
-0.00241791
0.00150079
-0.00241673
0.00152417
-0.00241458
0.00154619
-0.00241208
-0.00240983
0.0015672
1.30633e-05
-7.38173e-05
5.0712e-05
-0.000263711
0.000111063
-0.000485509
0.000191205
-0.000727348
0.000287099
-0.000977041
0.000393835
-0.00122285
0.00050614
-0.00145456
0.000618947
-0.00166437
0.000727904
-0.00184728
0.000829697
-0.00200109
0.000922171
-0.00212599
0.00100427
-0.00222399
0.00107585
-0.00229823
0.00113746
-0.00235239
0.0011901
-0.00239025
0.00123496
-0.00241536
0.00127331
-0.00243083
0.00130638
-0.00243925
0.00133525
-0.00244274
0.00136085
-0.00244291
0.00138395
-0.00244101
0.00140516
-0.00243794
0.00142495
-0.00243437
0.0014437
-0.00243082
-0.00242779
0.00146166
1.40708e-05
-8.7888e-05
5.3934e-05
-0.000303574
0.000116915
-0.00054849
0.000199283
-0.000809717
0.000296227
-0.00107398
0.000402236
-0.00132885
0.000511701
-0.00156402
0.000619538
-0.0017722
0.000721652
-0.00194939
0.00081518
-0.00209462
0.000898509
-0.00220932
0.00097112
-0.0022966
0.00103334
-0.00236044
0.00108606
-0.00240511
0.00113049
-0.00243469
0.00116796
-0.00245283
0.00119976
-0.00246263
0.00122705
-0.00246655
0.00125085
-0.00246654
0.00127199
-0.00246405
0.00129112
-0.00246013
0.00130875
-0.00245557
0.00132528
-0.0024509
0.001341
-0.00244654
-0.00244288
0.00135609
1.50316e-05
-0.00010292
5.68952e-05
-0.000345438
0.000122061
-0.000613656
0.000205952
-0.000893607
0.000303013
-0.00117105
0.000407221
-0.00143306
0.000512773
-0.00166958
0.000614704
-0.00187414
0.000709294
-0.00204398
0.0007942
-0.00217952
0.000868365
-0.00228349
0.000931773
-0.00236001
0.000985146
-0.00241382
0.00102965
-0.00244961
0.00106664
-0.00247168
0.0010975
-0.00248368
0.00112347
-0.0024886
0.00114566
-0.00248874
0.00116496
-0.00248584
0.00118211
-0.00248119
0.00119765
-0.00247568
0.00121201
-0.00246993
0.00122551
-0.0024644
0.00123837