/*--------------------------------*- C++ -*----------------------------------*\
  =========                 |
  \\      /  F ield         | OpenFOAM: The Open Source CFD Toolbox
   \\    /   O peration     | Website:  https://openfoam.org
    \\  /    A nd           | Version:  6.0
     \\/     M anipulation  |
\*---------------------------------------------------------------------------*/
FoamFile
{
    version     2.0;
    format      ascii;
    class       volVectorField;
    location    "39";
    object      U;
}
// * * * * * * * * * * * * * * * * * * * * * * * * * * * * * * * * * * * * * //

dimensions      [0 1 -1 0 0 0 0];

internalField   nonuniform List<vector> 
12500
(
(-0.000251111 -0.000297622 -5.33679e-22)
(-0.00150264 -0.000806015 7.35337e-21)
(-0.00394248 -0.001261 -1.06494e-20)
(-0.00707088 -0.00166969 4.88312e-21)
(-0.0106139 -0.00203888 2.92634e-22)
(-0.0144001 -0.00237501 -6.00698e-22)
(-0.0182922 -0.00268342 -8.85292e-21)
(-0.0221882 -0.00296852 4.85441e-21)
(-0.0260168 -0.00323392 3.20507e-21)
(-0.0297311 -0.00348235 3.25102e-21)
(-0.0333034 -0.00371579 -5.49484e-21)
(-0.0367212 -0.00393541 3.1922e-21)
(-0.0399839 -0.00414178 -1.50109e-21)
(-0.0431003 -0.00433489 2.54171e-21)
(-0.0460858 -0.00451432 -6.47402e-21)
(-0.0489613 -0.00467941 9.34249e-21)
(-0.0517509 -0.00482937 -1.77918e-21)
(-0.0544806 -0.00496338 -6.58857e-21)
(-0.0571774 -0.00508077 3.36965e-21)
(-0.059868 -0.00518104 -3.21123e-21)
(-0.0625821 -0.00526401 2.87001e-21)
(-0.065349 -0.00532987 3.78818e-21)
(-0.0681573 -0.00537854 3.83587e-22)
(-0.0709406 -0.00540904 -1.08133e-20)
(-0.0739774 -0.0054254 5.70203e-21)
(-0.000274262 0.00033623 9.72782e-21)
(-0.00156852 0.000838283 -2.50999e-20)
(-0.00405005 0.00115648 7.39329e-21)
(-0.00721553 0.00132495 4.93358e-21)
(-0.0107896 0.00137027 -3.92786e-21)
(-0.0146001 0.00131478 -2.22873e-20)
(-0.0185099 0.00117924 6.61789e-21)
(-0.0224167 0.000982461 -1.24795e-20)
(-0.0262496 0.000741316 1.49106e-20)
(-0.0299618 0.00047101 -1.9878e-20)
(-0.0335258 0.00018531 1.05979e-20)
(-0.0369294 -0.000103296 3.41919e-21)
(-0.0401724 -0.000383495 -8.60302e-21)
(-0.0432639 -0.000645116 -3.79589e-21)
(-0.0462199 -0.000879148 2.77435e-20)
(-0.0490614 -0.00107778 -2.45089e-20)
(-0.0518133 -0.0012345 5.85395e-21)
(-0.0545022 -0.00134412 1.01113e-20)
(-0.0571556 -0.00140284 -2.30586e-21)
(-0.0598011 -0.00140833 1.62463e-20)
(-0.0624691 -0.00135982 2.95015e-21)
(-0.0651896 -0.00125806 -1.05648e-21)
(-0.0679517 -0.00110339 -2.04217e-20)
(-0.0706883 -0.00089409 1.87657e-20)
(-0.0736806 -0.000644193 -3.57713e-20)
(-0.000337793 0.000972763 3.11913e-20)
(-0.00173898 0.00248759 1.03626e-20)
(-0.00431067 0.00357879 -1.35656e-20)
(-0.00754786 0.00432254 5.81935e-21)
(-0.0111753 0.00477923 5.44411e-21)
(-0.0150216 0.00500036 2.06328e-20)
(-0.0189507 0.005033 -2.61729e-20)
(-0.0228616 0.00491927 -4.24808e-21)
(-0.0266841 0.00469658 -1.74777e-20)
(-0.0303726 0.00439812 -1.45725e-20)
(-0.0339004 0.0040534 1.87936e-20)
(-0.0372562 0.00368864 -6.28124e-20)
(-0.0404405 0.00332707 -1.95758e-21)
(-0.0434631 0.00298916 -3.75877e-20)
(-0.0463407 0.00269267 -4.41736e-21)
(-0.0490955 0.00245274 5.32518e-21)
(-0.0517531 0.00228186 -2.90529e-20)
(-0.0543414 0.00218983 -1.81496e-20)
(-0.0568891 0.00218379 -2.14597e-20)
(-0.059425 0.00226819 3.35818e-20)
(-0.0619811 0.00244458 1.22568e-20)
(-0.0645891 0.00271176 -5.44208e-20)
(-0.067239 0.00306914 -2.6175e-20)
(-0.0698627 0.00351934 -2.92164e-20)
(-0.072745 0.00403807 7.87684e-20)
(-0.00044201 0.00160964 -9.77646e-22)
(-0.00201453 0.0041353 -2.3958e-20)
(-0.00472473 0.00599541 -1.14837e-20)
(-0.00806791 0.00730885 7.1119e-21)
(-0.0117705 0.00817035 4.42743e-20)
(-0.0156636 0.0086608 -1.99519e-20)
(-0.0196134 0.00885367 4.24845e-20)
(-0.023521 0.00881446 4.04112e-20)
(-0.0273184 0.00860103 2.4571e-20)
(-0.0309617 0.00826451 -3.70829e-22)
(-0.0344256 0.00785009 4.94068e-20)
(-0.0377002 0.00739775 8.54106e-21)
(-0.040787 0.00694271 3.76011e-20)
(-0.043697 0.00651585 8.63176e-20)
(-0.0464481 0.00614396 -1.00009e-19)
(-0.0490637 0.00584981 1.50175e-19)
(-0.0515708 0.00565223 3.26207e-20)
(-0.0539989 0.00556607 -7.18923e-20)
(-0.0563785 0.00560229 -1.01858e-20)
(-0.0587405 0.00576786 2.60785e-20)
(-0.061119 0.00606549 -1.30481e-20)
(-0.0635482 0.00649384 -7.79206e-21)
(-0.0660197 0.00705231 -7.59008e-21)
(-0.0684643 0.0077448 -3.05469e-20)
(-0.071172 0.00853639 1.07054e-19)
(-0.000587102 0.00224456 1.62394e-20)
(-0.00239534 0.00577478 -7.5429e-20)
(-0.00529201 0.00839574 9.14185e-20)
(-0.00877481 0.0102697 -3.63704e-20)
(-0.0125737 0.0115262 4.34973e-20)
(-0.0165238 0.0122756 3.54577e-20)
(-0.0204949 0.0126178 1.34498e-20)
(-0.0243916 0.0126417 6.52692e-22)
(-0.028149 0.0124253 7.55627e-20)
(-0.0317255 0.0120375 5.2243e-20)
(-0.035098 0.0115392 -2.09292e-20)
(-0.0382583 0.0109839 -1.34597e-20)
(-0.0412095 0.0104189 5.67163e-20)
(-0.043964 0.00988574 1.06718e-20)
(-0.046541 0.00942044 2.89169e-20)
(-0.0489656 0.00905387 6.91737e-20)
(-0.0512664 0.0088117 -5.96988e-20)
(-0.0534752 0.0087145 4.81436e-20)
(-0.0556246 0.00877767 -1.03655e-19)
(-0.0577483 0.00901141 8.70126e-20)
(-0.0598834 0.00942017 5.58249e-22)
(-0.0620674 0.010003 -6.92208e-20)
(-0.0642945 0.0107596 2.78478e-20)
(-0.066494 0.0116959 6.31576e-20)
(-0.0689629 0.0127658 -9.29463e-20)
(-0.000773142 0.00287521 8.39755e-20)
(-0.00288112 0.00739941 -8.91595e-20)
(-0.00601145 0.0107692 -1.4347e-20)
(-0.0096665 0.0131911 1.80755e-20)
(-0.0135818 0.0148296 -3.90264e-20)
(-0.0175979 0.0158249 -6.08192e-20)
(-0.02159 0.0163031 -5.05363e-20)
(-0.0254676 0.0163761 -1.21772e-20)
(-0.0291695 0.016142 -8.68706e-20)
(-0.0326576 0.0156871 6.91284e-20)
(-0.0359115 0.0150876 -1.07308e-19)
(-0.038925 0.0144105 5.4204e-20)
(-0.0417032 0.0137152 -1.79805e-20)
(-0.0442599 0.0130539 4.1613e-20)
(-0.0466162 0.0124722 -1.0456e-19)
(-0.0487988 0.0120096 5.06276e-20)
(-0.0508384 0.0116994 3.76741e-21)
(-0.0527691 0.0115687 2.24321e-20)
(-0.0546266 0.0116381 1.35369e-19)
(-0.0564476 0.011922 2.99521e-20)
(-0.0582732 0.0124277 -2.73892e-21)
(-0.0601453 0.0131551 8.54071e-21)
(-0.0620615 0.0141053 5.62489e-20)
(-0.0639499 0.0152866 1.60097e-20)
(-0.0661165 0.0166417 5.25232e-20)
(-0.00100006 0.00349933 -5.2325e-20)
(-0.00347108 0.00900252 7.42885e-20)
(-0.006881 0.0131054 4.65331e-21)
(-0.0107394 0.0160593 -9.06453e-20)
(-0.0147893 0.0180641 1.90511e-19)
(-0.018879 0.0192897 -6.15768e-20)
(-0.0228906 0.0198886 8.98429e-20)
(-0.0267396 0.0199949 8.21761e-20)
(-0.0303699 0.0197266 -6.79662e-20)
(-0.0337475 0.0191867 -9.88817e-20)
(-0.0368554 0.0184664 2.70534e-20)
(-0.03969 0.017646 -2.85141e-20)
(-0.0422582 0.0167965 -1.26064e-19)
(-0.044576 0.0159812 1.53067e-19)
(-0.0466659 0.0152555 -7.33693e-20)
(-0.0485564 0.0146681 -5.0564e-20)
(-0.0502807 0.0142606 4.63817e-22)
(-0.0518753 0.0140676 4.12572e-20)
(-0.0533792 0.0141165 1.69981e-20)
(-0.0548332 0.014427 -6.65631e-20)
(-0.0562828 0.0150102 7.59286e-20)
(-0.0577758 0.0158685 -1.31855e-19)
(-0.0593141 0.017005 8.04756e-20)
(-0.0608253 0.018432 -6.15742e-20)
(-0.0626268 0.0200804 1.6149e-20)
(-0.00126764 0.00411461 7.61085e-20)
(-0.00416375 0.0105774 -5.85414e-20)
(-0.00789731 0.0153936 -3.72473e-20)
(-0.0119878 0.0188603 -6.57438e-20)
(-0.0161884 0.0212133 -1.20176e-19)
(-0.0203569 0.0226521 -8.87812e-20)
(-0.0243842 0.0233548 5.5316e-20)
(-0.0281932 0.0234778 -8.37657e-20)
(-0.0317344 0.0231576 1.06293e-19)
(-0.0349786 0.0225139 -1.72948e-19)
(-0.0379127 0.0216519 7.68013e-20)
(-0.040536 0.0206647 1.62158e-19)
(-0.042858 0.0196349 -2.27764e-19)
(-0.0448961 0.0186364 3.25083e-20)
(-0.0466747 0.017735 4.22797e-20)
(-0.0482242 0.0169889 4.08622e-20)
(-0.0495797 0.016449 -4.39022e-20)
(-0.0507806 0.0161587 -1.07935e-20)
(-0.0518697 0.0161534 -3.21981e-20)
(-0.0528919 0.01646 -2.68419e-20)
(-0.0538987 0.0170953 -1.47199e-19)
(-0.0549443 0.0180655 -9.92713e-21)
(-0.0560366 0.0193775 1.60125e-21)
(-0.0571037 0.0210494 -6.64544e-20)
(-0.0584777 0.0229999 6.83676e-20)
(-0.00157543 0.00471864 2.20358e-21)
(-0.00495684 0.0121169 2.39557e-20)
(-0.00905538 0.0176229 2.49335e-20)
(-0.0134037 0.0215805 1.44687e-20)
(-0.0177677 0.0242614 1.22302e-19)
(-0.0220169 0.0258949 1.14851e-19)
(-0.026053 0.026684 -9.33383e-20)
(-0.0298081 0.0268066 -2.84004e-20)
(-0.0332402 0.0264173 -2.52174e-20)
(-0.036326 0.0256511 1.30084e-19)
(-0.0390572 0.0246265 4.66821e-20)
(-0.0414363 0.0234486 -6.79506e-20)
(-0.0434751 0.0222111 -5.74901e-20)
(-0.0451931 0.0209983 1.38488e-19)
(-0.0466161 0.0198861 -3.41415e-20)
(-0.0477759 0.0189431 -4.13702e-20)
(-0.0487099 0.0182302 -5.77069e-20)
(-0.0494601 0.0178009 -4.49017e-20)
(-0.0500728 0.0177004 -5.72831e-20)
(-0.0505982 0.0179649 -3.74343e-20)
(-0.051094 0.0186192 1.55507e-19)
(-0.0516226 0.0196756 -7.65443e-20)
(-0.0521994 0.0211474 5.15202e-20)
(-0.0527543 0.0230608 -1.36919e-19)
(-0.0536385 0.0253225 5.52181e-20)
(-0.0019227 0.00530879 -6.83413e-20)
(-0.00584699 0.0136135 -1.78089e-20)
(-0.0103482 0.0197819 -1.39072e-19)
(-0.0149759 0.0242055 -6.6636e-20)
(-0.0195115 0.0271926 -1.31524e-19)
(-0.0238389 0.0290014 -1.37168e-20)
(-0.0278727 0.0298598 7.04664e-20)
(-0.0315558 0.029966 -4.29162e-20)
(-0.0348551 0.0294915 9.24708e-20)
(-0.0377545 0.0285856 -2.24641e-19)
(-0.0402508 0.0273792 -6.5065e-21)
(-0.0423505 0.025988 3.97941e-20)
(-0.044068 0.0245161 -5.04721e-20)
(-0.0454244 0.0230575 4.59057e-20)
(-0.0464469 0.0216982 -3.50939e-20)
(-0.0471686 0.0205169 -7.51622e-20)
(-0.0476283 0.0195857 1.37051e-19)
(-0.0478705 0.0189693 8.496e-20)
(-0.0479452 0.0187249 -1.76161e-20)
(-0.0479076 0.0189005 5.6013e-20)
(-0.0478228 0.0195317 -1.10493e-19)
(-0.0477627 0.0206404 1.59155e-19)
(-0.0477518 0.0222492 -2.17306e-19)
(-0.0477242 0.0243966 4.47273e-20)
(-0.0480558 0.0269777 -8.47679e-20)
(-0.00230835 0.0058821 3.71251e-21)
(-0.00682957 0.0150589 -6.08068e-20)
(-0.0117665 0.0218584 9.00843e-20)
(-0.0166896 0.0267206 1.84697e-19)
(-0.0213993 0.0299906 -3.03785e-21)
(-0.0257965 0.0319554 2.09111e-20)
(-0.0298109 0.0328669 -7.90053e-20)
(-0.0333981 0.0329426 3.6982e-20)
(-0.0365355 0.0323697 2.54886e-19)
(-0.0392153 0.0313104 -5.78231e-20)
(-0.0414403 0.0299063 -6.82728e-20)
(-0.0432215 0.0282829 2.5797e-19)
(-0.044576 0.0265529 8.42168e-20)
(-0.0455268 0.0248192 4.00728e-20)
(-0.046102 0.0231771 4.10124e-20)
(-0.0463355 0.0217155 1.11714e-19)
(-0.0462671 0.0205177 -4.29089e-20)
(-0.0459431 0.0196612 1.13417e-19)
(-0.0454168 0.0192169 1.53412e-19)
(-0.0447485 0.0192475 -1.30794e-19)
(-0.044011 0.0198034 1.94261e-19)
(-0.0432874 0.0209199 6.92596e-20)
(-0.0426133 0.022634 -2.62789e-19)
(-0.0419296 0.0250015 3.79906e-19)
(-0.0416443 0.0279078 -3.07626e-19)
(-0.00273076 0.00643513 -1.73982e-19)
(-0.00789831 0.0164439 9.48597e-20)
(-0.0132978 0.0238388 -6.36491e-20)
(-0.0185257 0.0291098 -6.04508e-20)
(-0.0234048 0.0326383 -6.52482e-20)
(-0.0278559 0.0347403 -7.07854e-20)
(-0.0318259 0.0356905 1.94189e-20)
(-0.0352855 0.0357246 1.84516e-19)
(-0.0382241 0.0350443 -3.95168e-20)
(-0.0406435 0.0338229 -1.029e-19)
(-0.0425535 0.0322113 -6.28308e-20)
(-0.0439703 0.0303428 -2.56976e-20)
(-0.0449142 0.0283372 7.60062e-20)
(-0.04541 0.0263048 -4.85356e-20)
(-0.0454867 0.0243487 -1.5834e-19)
(-0.0451783 0.0225672 -1.74662e-19)
(-0.0445249 0.0210548 6.96292e-20)
(-0.043574 0.0199024 -1.29543e-19)
(-0.0423812 0.0191966 1.12445e-19)
(-0.0410117 0.0190178 -3.17497e-19)
(-0.0395462 0.019435 2.43836e-19)
(-0.03808 0.0205029 -3.22335e-19)
(-0.0366623 0.0222788 -5.98978e-21)
(-0.035244 0.0248437 -1.08381e-19)
(-0.034275 0.0280763 3.18317e-19)
(-0.00318772 0.00696392 2.66979e-19)
(-0.0090451 0.0177581 3.91486e-20)
(-0.0149268 0.0257085 -2.57193e-20)
(-0.0204606 0.0313555 -1.08497e-20)
(-0.0254953 0.0351176 2.01891e-19)
(-0.0299746 0.0373386 6.56699e-20)
(-0.0338655 0.0383155 5.95429e-20)
(-0.0371555 0.038301 -4.78535e-20)
(-0.0398478 0.0375097 1.8453e-19)
(-0.0419551 0.0361247 -9.07074e-20)
(-0.0434958 0.034304 5.85295e-20)
(-0.0444919 0.0321868 1.48858e-19)
(-0.0449676 0.0298979 -8.43917e-20)
(-0.04495 0.0275527 9.13787e-20)
(-0.0444686 0.0252605 8.62799e-20)
(-0.0435575 0.0231273 2.95185e-20)
(-0.0422563 0.0212576 -7.26825e-20)
(-0.0406125 0.0197555 2.01025e-19)
(-0.0386831 0.0187245 -1.86942e-20)
(-0.0365371 0.0182653 -2.15045e-20)
(-0.0342633 0.0184706 2.40479e-19)
(-0.0319699 0.01942 -1.70967e-19)
(-0.0297218 0.0212004 2.87924e-19)
(-0.0274836 0.0239277 -2.38611e-19)
(-0.0257601 0.0274802 3.0694e-19)
(-0.00367622 0.00746391 -1.28971e-19)
(-0.0102596 0.0189896 2.86161e-20)
(-0.0166342 0.0274508 -2.98043e-20)
(-0.0224651 0.0334385 -1.41076e-19)
(-0.0276311 0.037408 8.17907e-21)
(-0.0321016 0.0397309 8.03201e-20)
(-0.0358661 0.0407253 -3.2665e-19)
(-0.0389311 0.0406601 2.43811e-19)
(-0.0413156 0.0397611 -2.37321e-19)
(-0.0430448 0.0382194 -1.49646e-19)
(-0.0441468 0.0361986 1.34199e-19)
(-0.0446508 0.0338414 -2.90344e-19)
(-0.0445859 0.0312754 2.44515e-19)
(-0.0439819 0.0286185 -7.77387e-20)
(-0.0428696 0.0259832 -2.21958e-19)
(-0.0412827 0.0234806 5.48115e-20)
(-0.0392599 0.0212231 -5.14494e-20)
(-0.0368479 0.0193266 1.93684e-20)
(-0.0341036 0.0179111 -6.93117e-20)
(-0.0310987 0.0170997 -2.29864e-19)
(-0.027929 0.0170125 5.14886e-20)
(-0.0247162 0.0177615 -6.68915e-23)
(-0.0215422 0.019473 -2.36652e-19)
(-0.0183899 0.0223129 1.66242e-19)
(-0.0158346 0.0261676 -1.43692e-19)
(-0.00419244 0.00792997 5.22086e-20)
(-0.0115293 0.0201255 9.61772e-20)
(-0.0183973 0.0290474 1.3458e-19)
(-0.0245049 0.0353374 6.9229e-20)
(-0.0297652 0.0394871 -6.78753e-20)
(-0.034176 0.0418954 1.61922e-19)
(-0.0377517 0.0429012 1.19824e-19)
(-0.0405201 0.0427879 -4.35944e-20)
(-0.0425176 0.0417918 1.55737e-19)
(-0.0437837 0.0401104 -1.60175e-19)
(-0.0443577 0.0379112 -4.69598e-20)
(-0.0442773 0.0353382 4.76614e-20)
(-0.043578 0.0325193 9.44341e-20)
(-0.0422934 0.0295719 1.12582e-21)
(-0.0404566 0.0266085 5.97351e-20)
(-0.0381015 0.0237416 1.10208e-19)
(-0.0352658 0.0210879 -1.87604e-19)
(-0.0319947 0.0187716 2.3315e-19)
(-0.0283439 0.0169273 7.86363e-20)
(-0.0243861 0.0156999 2.77033e-20)
(-0.0202225 0.0152399 -2.82566e-19)
(-0.0159878 0.0156981 4.00048e-20)
(-0.0117822 0.0172526 6.19826e-20)
(-0.00760957 0.0201373 -1.48391e-20)
(-0.00413614 0.0242613 7.061e-20)
(-0.00473162 0.0083565 4.11956e-21)
(-0.012839 0.0211516 -2.47774e-19)
(-0.0201891 0.0304785 -6.15463e-21)
(-0.0265402 0.0370285 -6.24762e-20)
(-0.0318432 0.0413295 -4.10607e-19)
(-0.0361272 0.0438072 3.54513e-19)
(-0.0394341 0.0448204 -2.52233e-19)
(-0.0418146 0.0446668 -1.26724e-20)
(-0.0433242 0.0435916 -1.19135e-19)
(-0.0440184 0.0417982 2.05967e-19)
(-0.0439493 0.039456 -2.2166e-19)
(-0.0431649 0.036709 -1.03763e-19)
(-0.0417086 0.0336829 2.20846e-21)
(-0.0396198 0.0304918 -2.24392e-19)
(-0.0369352 0.0272446 3.061e-19)
(-0.0336906 0.0240507 -3.54524e-19)
(-0.0299238 0.0210259 7.04017e-22)
(-0.0256784 0.0182976 5.43071e-20)
(-0.0210086 0.0160099 -1.358e-19)
(-0.0159861 0.0143261 1.31665e-19)
(-0.0107157 0.0134266 -1.86794e-19)
(-0.00534341 0.0135054 -1.23346e-19)
(1.31353e-05 0.0148044 2.29767e-19)
(0.00532703 0.0176483 -2.5058e-19)
(0.00981793 0.0219899 -4.83034e-21)
(-0.00528808 0.00873758 -2.09746e-19)
(-0.0141711 0.022053 2.40642e-19)
(-0.0219787 0.0317228 -7.42395e-20)
(-0.0285254 0.0384863 1.42952e-19)
(-0.0338033 0.0429072 1.54139e-19)
(-0.0378753 0.0454378 -1.35759e-19)
(-0.0408127 0.0464563 -9.00355e-20)
(-0.0426909 0.0462738 -1.07757e-19)
(-0.0435861 0.0451446 9.86341e-20)
(-0.043571 0.0432767 -6.56224e-21)
(-0.0427121 0.0408409 1.43742e-19)
(-0.0410695 0.0379802 1.41652e-19)
(-0.0386966 0.0348164 -1.69161e-19)
(-0.0356408 0.0314581 3.32147e-19)
(-0.031945 0.028007 -2.20192e-19)
(-0.0276494 0.0245649 -3.77696e-20)
(-0.0227942 0.0212408 4.28709e-19)
(-0.0174234 0.0181579 -1.98476e-19)
(-0.0115901 0.0154614 1.26403e-19)
(-0.00536463 0.0133256 2.4682e-19)
(0.0011471 0.011955 -1.60124e-19)
(0.00779022 0.011586 1.68777e-20)
(0.0144325 0.0125331 -1.09849e-20)
(0.0210266 0.0152383 -6.55558e-20)
(0.0266522 0.0197251 1.23492e-19)
(-0.00585528 0.0090673 4.79404e-20)
(-0.0155056 0.0228145 -1.52619e-19)
(-0.0237317 0.0327582 8.3416e-20)
(-0.0304097 0.0396837 -1.01387e-21)
(-0.0355764 0.0441898 6.27787e-20)
(-0.0393309 0.0467553 -1.08025e-19)
(-0.0417751 0.0477772 6.17932e-20)
(-0.0430105 0.0475802 1.68237e-19)
(-0.0431352 0.0464271 -5.10174e-21)
(-0.0422401 0.0445307 -8.59186e-20)
(-0.0404075 0.0420636 8.63786e-20)
(-0.0377111 0.039167 -1.99678e-21)
(-0.0342164 0.0359588 -2.73395e-19)
(-0.0299817 0.0325407 1.01371e-19)
(-0.0250594 0.029005 2.24038e-20)
(-0.0194979 0.0254424 -3.93975e-20)
(-0.0133439 0.0219489 -7.02034e-20)
(-0.00664587 0.0186353 2.69127e-19)
(0.000541155 0.0156372 6.56062e-20)
(0.008147 0.0131268 -1.4054e-19)
(0.0160654 0.0113197 -1.68666e-20)
(0.0241356 0.0104848 1.93374e-19)
(0.0322164 0.0110107 -9.03008e-20)
(0.0402496 0.0134805 3.8754e-20)
(0.0471513 0.0180231 2.61729e-20)
(-0.00642594 0.00933997 -9.60477e-20)
(-0.0168203 0.0234212 9.54519e-20)
(-0.0254098 0.0335625 -5.38187e-20)
(-0.0321371 0.040593 -1.7275e-19)
(-0.0370869 0.0451455 -1.59009e-19)
(-0.0403956 0.047725 -7.04228e-20)
(-0.0421973 0.0487476 -5.82695e-20)
(-0.0426206 0.0485511 -1.72376e-19)
(-0.0417858 0.0474074 -6.96005e-20)
(-0.0398027 0.0455346 6.34133e-20)
(-0.0367703 0.0431078 -9.05621e-20)
(-0.0327772 0.0402678 -9.56272e-20)
(-0.0279027 0.0371292 -8.96909e-20)
(-0.0222189 0.0337876 1.6281e-19)
(-0.0157916 0.0303259 -3.4192e-19)
(-0.00868228 0.0268216 1.95154e-19)
(-0.000950285 0.0233542 -3.33739e-19)
(0.00734476 0.0200143 -5.14142e-20)
(0.0161393 0.0169162 -1.83154e-19)
(0.0253581 0.0142131 -4.27588e-20)
(0.0348924 0.0121107 -5.21523e-20)
(0.0445769 0.0108877 -1.7412e-19)
(0.0542686 0.0109915 -1.90513e-20)
(0.0639196 0.0131616 1.06497e-19)
(0.0722695 0.0176668 -2.77117e-19)
(-0.00699219 0.00955051 8.24055e-20)
(-0.0180911 0.0238592 1.07802e-19)
(-0.0269713 0.0341146 3.77617e-19)
(-0.0336466 0.041187 -6.63101e-20)
(-0.0382517 0.0457424 1.57762e-19)
(-0.0409621 0.0483117 3.7577e-19)
(-0.0419447 0.0493296 -1.0239e-19)
(-0.0413552 0.0491476 1.3856e-19)
(-0.0393364 0.048047 8.08215e-20)
(-0.0360171 0.0462526 1.46411e-19)
(-0.0315129 0.0439433 -2.93346e-20)
(-0.0259281 0.0412615 1.97989e-20)
(-0.0193574 0.0383213 -5.1219e-20)
(-0.0118889 0.0352148 2.77085e-19)
(-0.00360561 0.0320182 3.54576e-20)
(0.00541218 0.0287976 2.56788e-19)
(0.0150851 0.0256157 -6.56361e-20)
(0.025333 0.0225395 2.34658e-19)
(0.0360728 0.0196529 3.28951e-20)
(0.0472132 0.017073 1.19165e-19)
(0.0586342 0.0149686 -5.14084e-20)
(0.0701621 0.0135906 -9.11371e-21)
(0.0816586 0.013406 2.83022e-19)
(0.0931213 0.015301 1.73977e-19)
(0.103127 0.0197078 -7.26127e-20)
(-0.00754579 0.00969468 -1.99819e-19)
(-0.0192919 0.0241162 -2.02591e-19)
(-0.0283711 0.0343954 -2.11741e-19)
(-0.034872 0.0414406 7.75689e-20)
(-0.0389812 0.0459505 -1.55778e-19)
(-0.0409142 0.0484811 -2.32053e-20)
(-0.0408714 0.049486 -6.11745e-20)
(-0.0390352 0.04933 -2.53643e-19)
(-0.0355705 0.0483049 -3.95777e-20)
(-0.0306245 0.0466428 6.50243e-20)
(-0.0243289 0.0445289 -2.03923e-19)
(-0.0168036 0.04211 2.82566e-19)
(-0.00815934 0.0395033 -3.83522e-19)
(0.00149841 0.036802 9.22856e-20)
(0.0120662 0.0340812 -2.346e-19)
(0.02344 0.0314017 -1.90246e-19)
(0.0355127 0.0288148 -1.08098e-20)
(0.048172 0.0263679 -2.87042e-20)
(0.0613007 0.0241131 2.26696e-20)
(0.0747735 0.0221214 -1.08377e-19)
(0.0884409 0.0204994 -7.49834e-20)
(0.102105 0.0194233 9.21245e-20)
(0.115628 0.0193094 -2.54739e-19)
(0.129102 0.021135 8.27997e-20)
(0.14101 0.0254782 5.89342e-20)
(-0.00807821 0.00976933 -3.54744e-20)
(-0.0203952 0.0241822 -5.88986e-20)
(-0.0295605 0.0343887 2.28617e-19)
(-0.035741 0.0413327 8.50313e-20)
(-0.0391773 0.0457442 1.12517e-19)
(-0.0401256 0.0482043 -1.50253e-19)
(-0.0388194 0.0491845 2.39051e-22)
(-0.0354679 0.0490633 -1.21511e-19)
(-0.0302568 0.0481428 2.24549e-19)
(-0.0233508 0.0466643 7.32619e-20)
(-0.0148968 0.0448204 8.21278e-20)
(-0.00502912 0.0427657 -3.26621e-19)
(0.00612579 0.0406243 4.02646e-19)
(0.0184446 0.0384968 -1.20934e-19)
(0.0318021 0.0364642 -8.6492e-20)
(0.0460672 0.0345918 2.58858e-19)
(0.0610987 0.0329315 1.15432e-19)
(0.0767426 0.0315237 -2.92115e-19)
(0.0928308 0.0304009 -1.21877e-19)
(0.109181 0.0295945 3.67751e-19)
(0.125586 0.0291401 -2.80921e-19)
(0.141788 0.0290969 1.6889e-19)
(0.157621 0.029733 9.43973e-20)
(0.173319 0.031991 -1.21401e-19)
(0.187428 0.0365073 -1.17209e-19)
(-0.00858068 0.00977238 -1.3054e-19)
(-0.0213712 0.02405 2.02774e-19)
(-0.0304866 0.0340827 8.63526e-20)
(-0.0361751 0.0408476 -1.24699e-19)
(-0.0387331 0.0451051 -1.99608e-20)
(-0.0384583 0.0474606 -1.30742e-19)
(-0.0356175 0.0484029 -5.2091e-20)
(-0.0304456 0.0483234 5.84153e-20)
(-0.0231485 0.0475348 -1.45893e-20)
(-0.0139068 0.0462875 1.10215e-19)
(-0.00288167 0.0447832 -9.56962e-20)
(0.00977929 0.0431861 2.64714e-19)
(0.0239353 0.0416312 -3.28026e-19)
(0.0394461 0.0402309 2.04528e-19)
(0.0561654 0.0390806 2.54019e-19)
(0.0739348 0.038261 -3.67064e-19)
(0.0925769 0.0378407 -1.11685e-19)
(0.11189 0.0378752 1.88151e-19)
(0.131643 0.0384059 -1.16143e-19)
(0.151573 0.0394569 1.12116e-19)
(0.171374 0.0410222 -2.7175e-19)
(0.190673 0.0430419 4.52447e-20)
(0.209194 0.0455503 1.77146e-19)
(0.227321 0.0492909 -2.85029e-19)
(0.243968 0.0547728 7.70795e-20)
(-0.00904412 0.00970284 -1.20818e-19)
(-0.022188 0.0237152 3.78532e-19)
(-0.0310913 0.0334704 7.26577e-20)
(-0.0360875 0.0399769 -1.96289e-19)
(-0.0375307 0.0440246 1.40556e-19)
(-0.035761 0.0462422 7.13139e-20)
(-0.0310785 0.0471345 1.1392e-19)
(-0.0237435 0.0471049 -7.47135e-21)
(-0.0139813 0.0464758 -1.18274e-20)
(-0.00198799 0.0455063 -2.47789e-20)
(0.0120623 0.0444072 -1.0833e-19)
(0.0280093 0.0433526 -3.65933e-21)
(0.0456992 0.0424896 2.5306e-19)
(0.0649765 0.0419457 -4.14899e-19)
(0.0856767 0.0418351 2.95167e-19)
(0.107618 0.0422636 5.97192e-20)
(0.130593 0.0433318 1.05581e-19)
(0.154356 0.0451372 -5.44085e-20)
(0.178613 0.0477734 4.82772e-19)
(0.203009 0.0513264 -2.99102e-19)
(0.227093 0.0558474 2.39231e-19)
(0.250274 0.061282 5.6376e-20)
(0.271976 0.067554 -1.75373e-19)
(0.292523 0.0752727 1.48617e-19)
(0.31158 0.0843773 2.30669e-19)
(-0.00945881 0.00956058 -3.51786e-20)
(-0.0228106 0.0231761 -1.33509e-19)
(-0.0313105 0.0325502 -2.28129e-19)
(-0.0353819 0.0387209 -1.30006e-19)
(-0.0354392 0.0425065 -1.81825e-20)
(-0.0318663 0.0445576 -5.13164e-20)
(-0.0249971 0.0453936 -2.37593e-19)
(-0.0151177 0.0454281 3.93311e-20)
(-0.00247274 0.0449916 -2.66772e-19)
(0.0127257 0.0443504 -2.06821e-20)
(0.0302895 0.0437224 -2.5568e-19)
(0.0500453 0.0432899 -9.10415e-20)
(0.0718257 0.0432097 5.22279e-20)
(0.0954614 0.0436221 -2.48587e-19)
(0.120774 0.0446584 2.25523e-21)
(0.147567 0.0464492 -2.14051e-19)
(0.17562 0.0491316 8.26276e-20)
(0.204677 0.0528584 -2.98886e-19)
(0.234429 0.0578099 -5.12445e-20)
(0.264496 0.064206 -7.18629e-21)
(0.294365 0.072302 -5.06185e-20)
(0.32329 0.0823517 -5.1972e-20)
(0.350303 0.0947661 -2.6112e-20)
(0.374845 0.110721 -1.04452e-19)
(0.395677 0.128671 -2.24294e-19)
(-0.00981409 0.00934607 6.40767e-20)
(-0.0231999 0.0224339 1.69312e-19)
(-0.0310721 0.0313264 2.0346e-19)
(-0.0339504 0.0370895 -1.62581e-19)
(-0.0323131 0.0405685 3.0146e-19)
(-0.0265894 0.0424344 -1.63652e-19)
(-0.0171486 0.0432191 8.88187e-20)
(-0.00430397 0.0433444 1.38389e-19)
(0.0116781 0.0431462 1.25892e-19)
(0.0305669 0.0428951 6.11861e-20)
(0.0521567 0.0428127 9.88711e-20)
(0.0762564 0.0430844 5.74696e-20)
(0.10268 0.0438704 3.88283e-19)
(0.131242 0.0453148 -2.82126e-19)
(0.161747 0.047554 3.22063e-19)
(0.193991 0.0507265 -1.33842e-19)
(0.227756 0.0549823 2.88879e-19)
(0.262814 0.0604984 -1.37209e-20)
(0.298928 0.0674996 -5.98275e-20)
(0.335862 0.0762899 -1.11033e-20)
(0.373392 0.0872926 2.27749e-19)
(0.411357 0.101156 -2.2386e-19)
(0.44999 0.119173 1.56625e-19)
(0.490016 0.14308 1.75132e-19)
(0.528292 0.166544 3.66615e-20)
(-0.0100976 0.00905995 4.43534e-20)
(-0.0233113 0.0214917 -2.42412e-19)
(-0.0302951 0.0298089 -8.79628e-20)
(-0.0316726 0.0351029 8.02368e-20)
(-0.0279906 0.0382438 -2.47275e-19)
(-0.0197268 0.0399214 -4.87964e-20)
(-0.00728863 0.0406778 3.37948e-20)
(0.00898009 0.0409399 1.33408e-19)
(0.0287865 0.0410461 -3.37741e-19)
(0.0518747 0.0412674 2.56585e-20)
(0.078013 0.0418236 -9.86765e-20)
(0.106982 0.0428964 -2.99708e-19)
(0.138566 0.0446398 2.0416e-19)
(0.172547 0.0471883 8.72012e-21)
(0.2087 0.0506647 -6.10003e-21)
(0.246794 0.0551871 2.0564e-19)
(0.286597 0.0608763 -3.63685e-19)
(0.327883 0.0678649 2.88015e-19)
(0.37045 0.0763071 -5.32122e-20)
(0.414143 0.0863903 1.68549e-19)
(0.458886 0.0983391 -2.77411e-19)
(0.504751 0.112447 1.59733e-19)
(0.552235 0.129276 -2.876e-19)
(0.602271 0.149289 2.98877e-19)
(0.650083 0.166075 -9.26734e-20)
(-0.0102946 0.00870273 2.98855e-19)
(-0.0230941 0.0203547 -4.87793e-20)
(-0.028888 0.0280133 3.58628e-19)
(-0.0284144 0.0327913 1.65883e-19)
(-0.0222942 0.0355811 1.32506e-20)
(-0.0110579 0.037089 7.2351e-20)
(0.00484391 0.0378642 1.7437e-20)
(0.0250306 0.0383358 2.94434e-19)
(0.0491745 0.0388406 9.47657e-20)
(0.0769833 0.039645 -1.27e-20)
(0.108185 0.0409608 2.54652e-20)
(0.142515 0.0429581 9.79446e-20)
(0.179708 0.0457741 8.1688e-20)
(0.219488 0.0495207 1.74666e-19)
(0.261575 0.0542899 -1.99e-19)
(0.30568 0.0601588 6.00915e-20)
(0.351514 0.0671931 1.82072e-20)
(0.398803 0.07545 8.89773e-20)
(0.4473 0.084979 2.41461e-19)
(0.496809 0.0958188 -1.57328e-19)
(0.547206 0.107984 1.3655e-20)
(0.598465 0.121455 -2.24316e-19)
(0.650787 0.13629 2.13129e-19)
(0.704621 0.152672 -2.07984e-19)
(0.755114 0.166466 1.91285e-20)
(-0.0103875 0.00827483 -2.49371e-19)
(-0.0224897 0.0190298 1.90537e-19)
(-0.0267484 0.0259606 -3.10002e-19)
(-0.0240282 0.0301952 2.6744e-20)
(-0.0150313 0.0326446 2.17876e-19)
(-0.000347899 0.0340283 -3.62773e-19)
(0.019521 0.0348997 2.87559e-19)
(0.0441478 0.0356855 -4.55979e-19)
(0.0731568 0.0367165 9.08401e-20)
(0.106203 0.0382484 1.9388e-20)
(0.142953 0.040478 1.52918e-19)
(0.183073 0.0435544 -5.08022e-19)
(0.22622 0.0475876 8.77092e-20)
(0.272034 0.0526547 9.28517e-20)
(0.320143 0.0588039 -5.56671e-20)
(0.370166 0.066058 -3.45234e-19)
(0.421721 0.074416 1.62527e-19)
(0.474438 0.0838535 3.04426e-19)
(0.527975 0.0943201 -3.21601e-19)
(0.582032 0.105734 2.3356e-19)
(0.636364 0.117969 -3.03808e-19)
(0.690783 0.130836 2.21092e-19)
(0.745193 0.144171 -6.21254e-20)
(0.799667 0.158153 3.55534e-19)
(0.850063 0.170587 -4.08999e-19)
(-0.0103552 0.0077765 3.57503e-20)
(-0.0214319 0.0175259 2.81575e-20)
(-0.023763 0.0236777 6.899e-20)
(-0.018354 0.0273652 2.45815e-19)
(-0.00599799 0.0295129 -7.66308e-21)
(0.0126463 0.03085 5.48914e-20)
(0.0370161 0.0319291 2.44011e-19)
(0.066622 0.0331698 9.83918e-20)
(0.101021 0.0348905 -3.23761e-20)
(0.139793 0.037329 2.75635e-19)
(0.182516 0.0406579 -3.13666e-19)
(0.228758 0.0449956 4.81097e-19)
(0.278065 0.0504135 -1.90817e-19)
(0.329961 0.0569423 3.46216e-19)
(0.383952 0.0645754 -1.16884e-19)
(0.439532 0.0732728 4.26298e-20)
(0.496199 0.0829627 5.16617e-20)
(0.553467 0.0935428 -1.00037e-19)
(0.610878 0.104879 8.36966e-20)
(0.66802 0.116803 5.38869e-20)
(0.724531 0.129105 7.46393e-20)
(0.780096 0.141526 1.5926e-19)
(0.834445 0.15381 -1.30063e-20)
(0.887463 0.166126 -7.30385e-20)
(0.93606 0.177774 2.24095e-19)
(-0.0101729 0.00720809 -2.09005e-19)
(-0.019846 0.0158545 2.20783e-20)
(-0.0198084 0.0211971 -3.96767e-19)
(-0.0112224 0.0243616 -9.47281e-20)
(0.00501629 0.0262787 -1.77136e-19)
(0.0281678 0.027682 -3.80002e-20)
(0.0575913 0.0291173 -1.8947e-19)
(0.0927153 0.0309904 -1.13108e-19)
(0.133005 0.0335991 1.49722e-19)
(0.177934 0.0371539 -2.4979e-19)
(0.22696 0.0417924 -6.93517e-20)
(0.279518 0.0475899 2.70494e-21)
(0.335011 0.0545672 -4.6834e-19)
(0.392814 0.0626965 1.99078e-19)
(0.452285 0.0719075 -2.90663e-19)
(0.512779 0.0820911 -9.08868e-21)
(0.573661 0.093105 5.75002e-20)
(0.634329 0.104776 -9.31637e-20)
(0.694224 0.116906 -8.17661e-20)
(0.75285 0.129268 4.11605e-20)
(0.809772 0.141614 4.6279e-20)
(0.864618 0.153667 -2.99583e-19)
(0.917065 0.165156 1.71051e-19)
(0.96694 0.176217 8.74924e-20)
(1.01221 0.187208 2.52369e-20)
(-0.00981207 0.00657051 2.13987e-19)
(-0.0176499 0.0140302 -2.28253e-19)
(-0.0147529 0.0185583 3.19824e-19)
(-0.00245802 0.0212553 4.96059e-20)
(0.0182221 0.0230481 -1.52301e-20)
(0.0464491 0.0246677 -1.07312e-19)
(0.0814827 0.0266452 1.61348e-20)
(0.122642 0.0293633 1.62854e-19)
(0.169268 0.0330886 -2.24541e-19)
(0.220692 0.0379917 2.35651e-19)
(0.276217 0.0441618 -2.48559e-20)
(0.335106 0.0516172 1.09686e-20)
(0.396589 0.0603142 3.06194e-19)
(0.45987 0.0701554 4.10338e-19)
(0.524145 0.0809978 -1.60518e-19)
(0.588626 0.0926608 2.85554e-19)
(0.652561 0.104934 1.45484e-19)
(0.715255 0.117586 -8.87809e-20)
(0.77609 0.130369 2.82702e-19)
(0.834536 0.143027 -1.02299e-20)
(0.890157 0.155301 -2.73141e-19)
(0.942604 0.166931 2.89542e-19)
(0.991601 0.177671 4.2607e-20)
(1.03702 0.187624 -1.81294e-19)
(1.07774 0.197843 5.6854e-20)
(-0.00924037 0.00586588 -2.98007e-19)
(-0.0147548 0.0120723 3.11227e-19)
(-0.00845954 0.0158087 -1.97441e-19)
(0.00811543 0.0181276 -6.16721e-20)
(0.0338218 0.0199399 -1.37673e-19)
(0.0677008 0.0219639 2.43279e-19)
(0.108884 0.0247055 -1.41142e-19)
(0.156547 0.0285118 -6.46061e-20)
(0.209868 0.033604 -1.8487e-19)
(0.267997 0.0400978 4.79357e-21)
(0.330041 0.0480173 -7.22426e-20)
(0.395061 0.0573077 3.51601e-20)
(0.46209 0.0678469 -3.70038e-19)
(0.53015 0.0794574 1.05412e-19)
(0.598279 0.0919182 -1.27365e-19)
(0.665567 0.104977 -1.02861e-19)
(0.731179 0.118365 3.17529e-20)
(0.794378 0.131802 -1.50637e-19)
(0.854547 0.145016 -6.52935e-20)
(0.911193 0.157743 1.87133e-19)
(0.963953 0.169739 8.00929e-20)
(1.01258 0.180784 -3.39963e-19)
(1.05692 0.190679 2.51232e-19)
(1.09698 0.199524 -4.77075e-20)
(1.13232 0.208742 -9.94613e-20)
(-0.00842248 0.00509826 -1.08823e-19)
(-0.0110672 0.010006 -5.8179e-20)
(-0.000788945 0.0130049 -1.16685e-20)
(0.0206692 0.0150719 8.48315e-20)
(0.0520011 0.0170856 9.22666e-20)
(0.0920987 0.0197391 8.03155e-20)
(0.13993 0.0234987 9.97532e-20)
(0.194487 0.0286595 1.52181e-19)
(0.25474 0.03538 2.32384e-19)
(0.319617 0.0437016 2.29755e-19)
(0.387992 0.0535647 1.21218e-19)
(0.458702 0.0648249 -3.25243e-20)
(0.530571 0.0772687 8.16923e-21)
(0.602446 0.0906308 -1.11744e-20)