/*--------------------------------*- C++ -*----------------------------------*\
  =========                 |
  \\      /  F ield         | OpenFOAM: The Open Source CFD Toolbox
   \\    /   O peration     | Website:  https://openfoam.org
    \\  /    A nd           | Version:  6.0
     \\/     M anipulation  |
\*---------------------------------------------------------------------------*/
FoamFile
{
    version     2.0;
    format      ascii;
    class       surfaceScalarField;
    location    "15.1";
    object      phi;
}
// * * * * * * * * * * * * * * * * * * * * * * * * * * * * * * * * * * * * * //

dimensions      [0 3 -1 0 0 0 0];

internalField   nonuniform List<scalar> 
15760
(
-3.23572e-06
3.09089e-06
1.44827e-07
-1.13817e-05
7.7817e-06
3.64298e-07
-2.32476e-05
1.13353e-05
5.30618e-07
-3.78901e-05
1.39874e-05
6.55031e-07
-5.457e-05
1.59332e-05
7.46755e-07
-7.27231e-05
1.73395e-05
8.13597e-07
-9.19344e-05
1.83492e-05
8.62046e-07
-0.000111916
1.90845e-05
8.9739e-07
-0.00013249
1.96503e-05
9.23839e-07
-0.000153571
2.01361e-05
9.44662e-07
-0.000175152
2.06185e-05
9.62323e-07
-0.000197292
2.11616e-05
9.78623e-07
-0.000220105
2.18182e-05
9.94825e-07
-0.000243746
2.26295e-05
1.01177e-06
-0.000268402
2.36261e-05
1.02994e-06
-0.000294279
2.48272e-05
1.04955e-06
-0.000321591
2.62416e-05
1.07057e-06
-0.000350551
2.78671e-05
1.09279e-06
-0.000381362
2.96948e-05
1.11589e-06
3.1718e-05
1.13953e-06
-0.00041422
-3.20586e-06
6.29675e-06
-1.12786e-05
1.58544e-05
-2.30333e-05
2.309e-05
-3.75269e-05
2.8481e-05
-5.40177e-05
3.2424e-05
-7.19364e-05
3.52583e-05
-9.08614e-05
3.72742e-05
-0.000110497
3.872e-05
-0.000130655
3.98084e-05
-0.00015124
4.07216e-05
-0.000172237
4.16152e-05
-0.000193696
4.26201e-05
-0.000215722
4.38444e-05
-0.000238466
4.53739e-05
-0.000262113
4.72724e-05
-0.000286867
4.95817e-05
-0.000312948
5.23219e-05
-0.000340571
5.54911e-05
-0.000369949
5.90724e-05
6.30523e-05
-0.000401283
-3.1468e-06
9.44355e-06
-1.1074e-05
2.37816e-05
-2.26077e-05
3.46237e-05
-3.68061e-05
4.26795e-05
-5.29229e-05
4.85408e-05
-7.03796e-05
5.2715e-05
-8.87416e-05
5.56361e-05
-0.000107697
5.76755e-05
-0.00012704
5.91515e-05
-0.000146656
6.03377e-05
-0.00016651
6.14685e-05
-0.000186633
6.27432e-05
-0.000207116
6.43279e-05
-0.000228099
6.63571e-05
-0.00024976
6.89331e-05
-0.000272304
7.21262e-05
-0.000295956
7.59739e-05
-0.000320945
8.04797e-05
-0.000347496
8.5623e-05
9.1384e-05
-0.000375827
-3.06332e-06
1.25069e-05
-1.07827e-05
3.1501e-05
-2.19995e-05
4.58404e-05
-3.57739e-05
5.64538e-05
-5.13534e-05
6.41203e-05
-6.8147e-05
6.95087e-05
-8.57021e-05
7.31912e-05
-0.000103684
7.56574e-05
-0.000121861
7.7328e-05
-0.000140088
7.85653e-05
-0.000158302
7.96821e-05
-0.000176506
8.09473e-05
-0.000194767
8.25889e-05
-0.000213206
8.47958e-05
-0.000231989
8.77169e-05
-0.000251323
9.14602e-05
-0.00027144
9.60903e-05
-0.000292586
0.000101626
-0.000315013
0.00010805
0.000115339
-0.000338967
-2.96181e-06
1.54687e-05
-1.04244e-05
3.89636e-05
-2.12465e-05
5.66625e-05
-3.4491e-05
6.96983e-05
-4.93988e-05
7.90281e-05
-6.53642e-05
8.54741e-05
-8.19128e-05
8.97397e-05
-9.8682e-05
9.24267e-05
-0.000115406
9.40521e-05
-0.000131904
9.50633e-05
-0.000148072
9.58496e-05
-0.000163874
9.675e-05
-0.000179344
9.80584e-05
-0.000194573
0.000100025
-0.000209712
0.000102856
-0.000224962
0.00010671
-0.000240565
0.000111693
-0.000256793
0.000117854
-0.000273935
0.000125193
0.000133688
-0.000292285
-2.84931e-06
1.8318e-05
-1.00208e-05
4.61351e-05
-2.03904e-05
6.70321e-05
-3.30245e-05
8.23325e-05
-4.71577e-05
9.31613e-05
-6.21696e-05
0.000100486
-7.75624e-05
0.000105133
-9.29424e-05
0.000107807
-0.000108005
0.000109115
-0.000122525
0.000109583
-0.000136349
0.000109674
-0.000149393
0.000109794
-0.000161642
0.000110307
-0.000173147
0.000111531
-0.000184032
0.000113741
-0.000194486
0.000117164
-0.00020476
0.000121967
-0.000215159
0.000128253
-0.000226026
0.000136059
0.000145384
-0.000237722
-2.7325e-06
2.10505e-05
-9.59197e-06
5.29946e-05
-1.94698e-05
7.69099e-05
-3.14363e-05
9.4299e-05
-4.47216e-05
0.000106447
-5.86921e-05
0.000114456
-7.2828e-05
0.000119268
-8.67042e-05
0.000121683
-9.99756e-05
0.000122386
-0.000112367
0.000121975
-0.000123668
0.000120975
-0.000133734
0.00011986
-0.000142489
0.000119061
-0.00014993
0.000118972
-0.000156137
0.000119948
-0.000161275
0.000122302
-0.000165599
0.000126291
-0.00016945
0.000132104
-0.000173239
0.000139849
0.000149572
-0.000177428
-2.6167e-06
2.36672e-05
-9.15378e-06
5.95316e-05
-1.8514e-05
8.62702e-05
-2.97724e-05
0.000105557
-4.21574e-05
0.000118832
-5.50261e-05
0.000127325
-6.78411e-05
0.000132083
-8.01489e-05
0.000133991
-9.15652e-05
0.000133802
-0.000101764
0.000132173
-0.000110474
0.000129685
-0.00011748
0.000126866
-0.00012263
0.000124212
-0.00012585
0.000122192
-0.000127155
0.000121253
-0.000126668
0.000121815
-0.000124635
0.000124258
-0.000121426
0.000128895
-0.000117539
0.000135962
0.000145604
-0.000113571
-2.50496e-06
2.61722e-05
-8.71444e-06
6.57411e-05
-1.7537e-05
9.50928e-05
-2.80526e-05
0.000116073
-3.94916e-05
0.000130271
-5.1208e-05
0.000139042
-6.26531e-05
0.000143528
-7.33526e-05
0.00014469
-8.28888e-05
0.000143339
-9.08892e-05
0.000140174
-9.70212e-05
0.000135817
-0.000100995
0.000130839
-0.000102572
0.000125789
-0.000101586
0.000121205
-9.79641e-05
0.000117631
-9.17602e-05
0.000115611
-8.31822e-05
0.00011568
-7.26212e-05
0.000118334
-6.06662e-05
0.000124007
0.000133029
-4.80914e-05
-2.39754e-06
2.85697e-05
-8.27284e-06
7.16164e-05
-1.65332e-05
0.000103353
-2.62629e-05
0.000125803
-3.66979e-05
0.000140706
-4.71956e-05
0.000149539
-5.72053e-05
0.000153538
-6.62421e-05
0.000153727
-7.38663e-05
0.000150963
-7.96686e-05
0.000145976
-8.32628e-05
0.000139411
-8.42861e-05
0.000131863
-8.24095e-05
0.000123913
-7.73595e-05
0.000116155
-6.89506e-05
0.000109222
-5.71306e-05
0.000103791
-4.2034e-05
0.000100583
-2.40393e-05
0.00010034
-3.82165e-06
0.00010379
0.000111582
1.76255e-05
-2.29177e-06
3.08615e-05
-7.81802e-06
7.71427e-05
-1.5476e-05
0.000111011
-2.4352e-05
0.000134679
-3.36901e-05
0.000150044
-4.28568e-05
0.000158706
-5.13088e-05
0.00016199
-5.85629e-05
0.000160981
-6.41721e-05
0.000156572
-6.77069e-05
0.000149511
-6.87433e-05
0.000140447
-6.68591e-05
0.000129979
-6.16406e-05
0.000118694
-5.27033e-05
0.000107218
-3.97291e-05
9.62479e-05
-2.25251e-05
8.65871e-05
-1.10269e-06
7.91609e-05
2.42239e-05
7.50131e-05
5.27242e-05
7.52895e-05
8.11511e-05
8.31552e-05
-2.18254e-06
3.3044e-05
-7.33032e-06
8.22905e-05
-1.43198e-05
0.000118001
-2.22343e-05
0.000142593
-3.03245e-05
0.000158134
-3.79697e-05
0.000166351
-4.46406e-05
0.000168661
-4.98674e-05
0.000166208
-5.32116e-05
0.000159916
-5.42439e-05
0.000150543
-5.25267e-05
0.00013873
-4.76039e-05
0.000125056
-3.90001e-05
0.00011009
-2.62344e-05
9.44523e-05
-8.85503e-06
7.88685e-05
1.34963e-05
6.42358e-05
4.09826e-05
5.16746e-05
7.34253e-05
4.25704e-05
0.000110104
3.86106e-05
4.17293e-05
0.000149526
-2.06316e-06
3.51072e-05
-6.78406e-06
8.70114e-05
-1.30049e-05
0.000124221
-1.97965e-05
0.000149385
-2.64107e-05
0.000164748
-3.22365e-05
0.000172177
-3.67607e-05
0.000173185
-3.95329e-05
0.00016898
-4.01359e-05
0.000160519
-3.81605e-05
0.000148568
-3.31839e-05
0.000133754
-2.47523e-05
0.000116624
-1.23704e-05
9.77084e-05
4.49781e-06
7.75841e-05
2.64073e-05
5.69591e-05
5.38756e-05
3.67675e-05
8.72724e-05
1.82778e-05
0.000126633
3.20968e-06
0.000171355
-6.11143e-06
-6.66658e-06
0.000219751
-1.92661e-06
3.70338e-05
-6.15114e-06
9.12359e-05
-1.14646e-05
0.000129535
-1.69108e-05
0.000154831
-2.17301e-05
0.000169567
-2.53114e-05
0.000175758
-2.71499e-05
0.000175024
-2.68118e-05
0.000168642
-2.39045e-05
0.000157612
-1.80518e-05
0.000142715
-8.87042e-06
0.000124572
4.05094e-06
0.000103703
2.11715e-05
8.05878e-05
4.30126e-05
5.5743e-05
7.01584e-05
2.98132e-05
0.000103226
3.7004e-06
0.000142771
-2.12673e-05
0.000189095
-4.31147e-05
0.000241851
-5.88671e-05
-6.41237e-05
0.000299308
-1.76668e-06
3.88004e-05
-5.40478e-06
9.4874e-05
-9.6331e-06
0.000133763
-1.3448e-05
0.000158646
-1.6059e-05
0.000172178
-1.68354e-05
0.000176535
-1.52628e-05
0.000173451
-1.09079e-05
0.000164287
-3.392e-06
0.000150096
7.63082e-06
0.000131692
2.24928e-05
0.00010971
4.15319e-05
8.46637e-05
6.5114e-05
5.70057e-05
9.36581e-05
2.71989e-05
0.000127661
-4.18956e-06
0.000167706
-3.63448e-05
0.000214426
-6.79871e-05
0.000268354
-9.70425e-05
0.000329517
-0.000120031
-0.000131017
0.00039641
-1.57876e-06
4.03792e-05
-4.522e-06
9.78172e-05
-7.45073e-06
0.000136692
-9.28861e-06
0.000160484
-9.1877e-06
0.000172077
-6.47017e-06
0.000173817
-5.82495e-07
0.000167563
8.93751e-06
0.000154767
2.24829e-05
0.000136551
4.03919e-05
0.000113783
6.29579e-05
8.71442e-05
9.04389e-05
5.71826e-05
0.000123071
2.43736e-05
0.000161091
-1.08211e-05
0.000204773
-4.78713e-05
0.000254474
-8.60457e-05
0.00031067
-0.000124183
0.000373928
-0.000160301
0.000444643
-0.000190745
-0.000208226
0.000521851
-1.3598e-06
4.1739e-05
-3.48373e-06
9.99412e-05
-4.8655e-06
0.000138074
-4.32656e-06
0.000159945
-9.30387e-07
0.000168681
6.08232e-06
0.000166805
1.73415e-05
0.000156304
3.33789e-05
0.00013873
5.46444e-05
0.000115285
8.15112e-05
8.69166e-05
0.000114273
5.43828e-05
0.000153135
1.83204e-05
0.00019821
-2.07018e-05
0.000249519
-6.21298e-05
0.00030701
-0.000105362
0.000370614
-0.000149649
0.000440329
-0.000193899
0.000516329
-0.000236301
0.000599006
-0.000273422
-0.000297414
0.000688194
-1.10727e-06
4.28463e-05
-2.27216e-06
0.000101106
-1.82841e-06
0.00013763
1.53627e-06
0.00015658
8.88046e-06
0.000161337
2.10817e-05
0.000154603
3.8887e-05
0.000138499
6.29422e-05
0.000114674
9.38031e-05
8.44244e-05
0.000131931
4.87884e-05
0.000177678
8.63615e-06
0.000231258
-3.52595e-05
0.000292717
-8.21609e-05
0.000361898
-0.000131311
0.000438414
-0.000181879
0.000521657
-0.000232892
0.000610856
-0.000283098
0.000705229
-0.000330673
0.000804281
-0.000372474
-0.000401892
0.000908759
-8.17349e-07
4.36636e-05
-8.6543e-07
0.000101154
1.71609e-06
0.000135048
8.40476e-06
0.000149892
2.0414e-05
0.000149328
3.87744e-05
0.000136243
6.43867e-05
0.000112887
9.80502e-05
8.10109e-05
0.000140469
4.20056e-05
0.000192242
-2.98432e-06
0.000253837
-5.29594e-05
0.000325558
-0.00010698
0.00040749
-0.000164093
0.000499438
-0.000223259
0.000600843
-0.000283283
0.000710681
-0.00034273
0.000827371
-0.000399789
0.000948704
-0.000452006
0.00107206
-0.000495834
-0.000528144
0.00119832
-4.82717e-07
4.41463e-05
7.68645e-07
9.99028e-05
5.84186e-06
0.000129975
1.64093e-05
0.000139324
3.3868e-05
0.000131869
5.94293e-05
0.000110682
9.41731e-05
7.81428e-05
0.000139073
3.61109e-05
0.000194999
-1.39206e-05
0.000262705
-7.06901e-05
0.000342804
-0.000133059
0.000435745
-0.00019992
0.000541776
-0.000270125
0.000660921
-0.000342403
0.000792922
-0.000415284
0.000937158
-0.000486967
0.00109244
-0.000555067
0.00125624
-0.000615811
0.00142197
-0.000661562
-0.000675289
0.00156911
-9.14445e-08
4.42378e-05
2.67663e-06
9.71347e-05
1.06496e-05
0.000122002
2.57197e-05
0.000124254
4.94896e-05
0.000108099
8.33667e-05
7.68046e-05
0.000128614
3.28955e-05
0.000186368
-2.16435e-05
0.000257634
-8.51864e-05
0.000343266
-0.000156322
0.00044395
-0.000233743
0.000560194
-0.000316165
0.000692346
-0.000402277
0.000840657
-0.000490714
0.00100542
-0.000580048
0.00118726
-0.000668809
0.00138768
-0.000755481
0.0016103
-0.00083843
0.00186482
-0.000916084
-0.000983738
0.00217327
3.76537e-07
4.38612e-05
4.92591e-06
9.25853e-05
1.62749e-05
0.000110653
3.65545e-05
0.000103974
6.75843e-05
7.70693e-05
0.000110965
3.34237e-05
0.000168119
-2.42586e-05
0.000240291
-9.38152e-05
0.000328525
-0.00017342
0.000433631
-0.000261429
0.000556163
-0.000356274
0.000696403
-0.000456404
0.000854386
-0.000560261
0.00102997
-0.000666297
0.00122295
-0.000773029
0.00143326
-0.000879119
0.00166128
-0.0009835
0.00190834
-0.00108549
0.00217708
-0.00118483
-0.00127365
0.00246699
9.44807e-07
4.29164e-05
7.59566e-06
8.59345e-05
2.28751e-05
9.53738e-05
4.91614e-05
7.76881e-05
8.84875e-05
3.77433e-05
0.000142621
-2.07102e-05
0.000213084
-9.47214e-05
0.000301125
-0.000181856
0.00040767
-0.000279966
0.000533278
-0.000387036
0.000678093
-0.000501089
0.000841838
-0.00062015
0.00102384
-0.000742262
0.00122308
-0.000865541
0.00143831
-0.000988251
0.00166809
-0.00110891
0.00191099
-0.00122639
0.00216551
-0.00134002
0.00243007
-0.00144938
-0.00154632
0.00270274
1.64116e-06
4.12753e-05
1.07743e-05
7.68014e-05
3.06184e-05
7.55297e-05
6.37934e-05
4.45131e-05
0.00011252
-1.0983e-05
0.000178674
-8.68643e-05
0.000263771
-0.000179819
0.000368907
-0.000286991
0.000494679
-0.000405738
0.000641126
-0.000533483
0.000807689
-0.000667651
0.000993218
-0.000805679
0.00119603
-0.000945075
0.00141399
-0.0010835
0.00164464
-0.0012189
0.00188527
-0.00134954
0.00213304
-0.00147415
0.00238493
-0.00159191
0.00263791
-0.00170236
-0.00179892
0.00289051
2.49383e-06
3.87814e-05
1.45481e-05
6.47471e-05
3.96614e-05
5.04164e-05
8.06676e-05
3.50682e-06
0.000139919
-7.02341e-05
0.000219298
-0.000166243
0.000320157
-0.000280678
0.00044322
-0.000410055
0.000588491
-0.00055101
0.000755196
-0.000700188
0.00094178
-0.000854236
0.00114598
-0.00100988
0.00136493
-0.00116403
0.00159536
-0.00131393
0.00183373
-0.00145727
0.00207641
-0.00159222
0.00231982
-0.00171756
0.00256045
-0.00183255
0.00279508
-0.00193699
-0.00202641
0.00302258
3.52835e-06
3.52531e-05
1.89908e-05
4.92846e-05
5.01251e-05
1.92822e-05
9.99232e-05
-4.62913e-05
0.000170771
-0.000141082
0.000264405
-0.000259877
0.000381794
-0.000398068
0.000523023
-0.000551283
0.000687197
-0.000715184
0.000872441
-0.000885432
0.00107598
-0.00105777
0.00129429
-0.00122819
0.00152337
-0.00139311
0.00175897
-0.00154953
0.00199684
-0.00169514
0.00223296
-0.00182835
0.00246371
-0.0019483
0.0026859
-0.00205474
0.00289695
-0.00214803
-0.00222577
0.0030963
4.76493e-06
3.04882e-05
2.41537e-05
2.98959e-05
6.20748e-05
-1.8639e-05
0.000121585
-0.000105801
0.000204958
-0.000224455
0.000313567
-0.000368486
0.000447729
-0.000532229
0.000606572
-0.000710126
0.000788009
-0.000896622
0.000988829
-0.00108625
0.00120491
-0.00127386
0.00143156
-0.00145483
0.00166381
-0.00162537
0.00189685
-0.00178257
0.00212624
-0.00192452
0.00234817
-0.00205028
0.00255958
-0.00215971
0.0027582
-0.00225336
0.00294253
-0.00233237
-0.00239604
0.0031128
6.21668e-06
2.42715e-05
3.00593e-05
6.0533e-06
7.55054e-05
-6.40851e-05
0.000145538
-0.000175834
0.000242115
-0.000321032
0.000365979
-0.00049235
0.000516471
-0.000682721
0.000691454
-0.000885109
0.000887397
-0.00109256
0.00109964
-0.0012985
0.0013228
-0.00149701
0.00155121
-0.00168325
0.00177944
-0.00185359
0.00200258
-0.00200571
0.00221663
-0.00213857
0.00241853
-0.00225218
0.00260626
-0.00234744
0.00277876
-0.00242586
0.00293577
-0.00248938
-0.00253867
0.0030784
7.88878e-06
1.63827e-05
3.66972e-05
-2.27551e-05
9.03316e-05
-0.00011772
0.000171512
-0.000257014
0.000281624
-0.000431143
0.000420456
-0.000631182
0.000586045
-0.000848311
0.000774718
-0.00107378
0.000981371
-0.00129922
0.00119996
-0.00151708
0.00142409
-0.00172114
0.00164762
-0.00190678
0.00186514
-0.00207111
0.0020723
-0.00221288
0.00226599
-0.00233226
0.00244434
-0.00243053
0.00260658
-0.00250968
0.00275288
-0.00257217
0.00288411
-0.00262061
-0.00265666
0.0030021
9.77812e-06
6.60457e-06
4.40222e-05
-5.69992e-05
0.000106385
-0.000180082
0.000199083
-0.000349712
0.000322615
-0.000554675
0.000475478
-0.000784045
0.000654103
-0.00102694
0.000853113
-0.00127279
0.00106587
-0.00151198
0.00128522
-0.00173643
0.00150422
-0.00194014
0.0017168
-0.00211937
0.00191819
-0.00227249
0.00210507
-0.00239976
0.0022756
-0.00250279
0.00242921
-0.00258414
0.00256638
-0.00264685
0.00268833
-0.00269411
0.00279671
-0.00272899
-0.00275376
0.00289382
1.18732e-05
-5.26866e-06
5.19538e-05
-9.70798e-05
0.000123413
-0.000251541
0.000227672
-0.000453971
0.000364001
-0.000691005
0.000529271
-0.000949316
0.000718093
-0.00121576
0.000923377
-0.00147808
0.00113719
-0.00172579
0.00135172
-0.00195096
0.00156007
-0.00214849
0.00175684
-0.00231613
0.00193836
-0.00245401
0.00210267
-0.00256407
0.00224931
-0.00264943
0.00237896
-0.00271378
0.00249308
-0.00276097
0.00259361
-0.00279464
0.00268267
-0.00281805
-0.00283375
0.00276265
1.41539e-05
-1.94226e-05
6.03756e-05
-0.000143301
0.000141082
-0.000332247
0.000256569
-0.000569458
0.000404526
-0.000838961
0.000579923
-0.00112471
0.00077547
-0.00141131
0.000982548
-0.00168515
0.00119237
-0.00193561
0.00139703
-0.00215562
0.00159028
-0.00234175
0.00176789
-0.00249374
0.00192761
-0.00261373
0.00206891
-0.00270538
0.0021926
-0.00277311
0.00230033
-0.00282152
0.00239427
-0.00285491
0.00247671
-0.00287708
0.00254989
-0.00289123
-0.00289993
0.00261608
1.65912e-05
-3.60138e-05
6.91368e-05
-0.000195847
0.000158988
-0.000422099
0.000284961
-0.000695431
0.000442836
-0.000996836
0.000625519
-0.0013074
0.000823914
-0.0016097
0.00102825
-0.00188949
0.00122943
-0.0021368
0.00142011
-0.00234629
0.00159519
-0.00251682
0.00175188
-0.00265044
0.00188946
-0.00275131
0.00200871
-0.00282463
0.00211145
-0.00287585
0.0022
-0.00291007
0.00227684
-0.00293175
0.00234435
-0.00294459
0.00240465
-0.00295153
-0.002955
0.00245971
1.91465e-05
-5.51603e-05
7.8054e-05
-0.000254754
0.000176666
-0.000520711
0.000311964
-0.000830728
0.000477567
-0.00116244
0.000664298
-0.00149413
0.000861535
-0.00180694
0.00105888
-0.00208683
0.00124756
-0.00232548
0.0014213
-0.00252003
0.00157648
-0.00267201
0.00171191
-0.00278587
0.00182824
-0.00286763
0.00192731
-0.0029237
0.00201162
-0.00296016
0.00208382
-0.00298227
0.00214645
-0.00299438
0.00220174
-0.00299987
0.00225156
-0.00300136
-0.00300097
0.00229754
2.17727e-05
-7.6933e-05
8.69159e-05
-0.000319898
0.00019361
-0.000627406
0.000336681
-0.000973798
0.000507444
-0.0013332
0.000694789
-0.00168147
0.000887017
-0.00199917
0.00107371
-0.00227352
0.00124698
-0.00249876
0.00140202
-0.00267507
0.00153684
-0.00280683
0.00165173
-0.00290076
0.00174847
-0.00296437
0.00182965
-0.00300489
0.00189813
-0.00302863
0.00195661
-0.00304076
0.00200748
-0.00304525
0.00205271
-0.0030451
0.00209387
-0.00304252
-0.00303932
0.00213221
2.4414e-05
-0.000101347
9.54904e-05
-0.000390974
0.000209298
-0.000741213
0.000358253
-0.00112275
0.000531366
-0.00150632
0.000715915
-0.00186602
0.000899685
-0.00218294
0.00107283
-0.00244666
0.00122881
-0.00265474
0.00136447
-0.00281072
0.00147941
-0.00292177
0.00157517
-0.00299652
0.00165438
-0.00304358
0.00172004
-0.00307055
0.00177509
-0.00308368
0.00182208
-0.00308775
0.00186315
-0.00308632
0.00189994
-0.0030819
0.00193373
-0.0030763
-0.00307105
0.00196546
2.70081e-05
-0.000128355
0.000103534
-0.0004675
0.000223218
-0.000860897
0.000375916
-0.00127545
0.000548486
-0.00167889
0.000727056
-0.00204459
0.000899494
-0.00235537
0.00105704
-0.00260421
0.00119479
-0.00279249
0.00131126
-0.00292719
0.00140745
-0.00301797
0.00148589
-0.00307496
0.0015497
-0.00310739
0.00160202
-0.00312288
0.00164568
-0.00312733
0.00168298
-0.00312505
0.00171573
-0.00311906
0.00174527
-0.00311144
0.00177258
-0.00310362
-0.00309683
0.00179836
2.94881e-05
-0.000157843
0.000110805
-0.000548817
0.000234904
-0.000984995
0.00038905
-0.0014296
0.000558255
-0.00184809
0.00072805
-0.00221439
0.00088695
-0.00251427
0.00102767
-0.00274492
0.00114703
-0.00291185
0.00124512
-0.00302528
0.00132408
-0.00309693
0.00138708
-0.00313796
0.00143749
-0.00315779
0.00147838
-0.00316377
0.00151231
-0.00316127
0.00154129
-0.00315403
0.00156679
-0.00314456
0.00158988
-0.00313453
0.00161131
-0.00312505
-0.00311709
0.00163157
3.17856e-05
-0.000189629
0.000117073
-0.000634105
0.000243953
-0.00111188
0.000397211
-0.00158286
0.00056044
-0.00201132
0.00071915
-0.0023731
0.000862983
-0.00265811
0.000986346
-0.00286828
0.00108777
-0.00301328
0.00116868
-0.00310618
0.00123206
-0.00316031
0.00128144
-0.00318735
0.00132021
-0.00319656
0.00135121
-0.00319478
0.00137672
-0.00318677
0.00139838
-0.00317569
0.00141739
-0.00316357
0.00143458
-0.00315172
0.00145051
-0.00314097
-0.00313211
0.00146552
3.38334e-05
-0.000223462
0.000122132
-0.000722403
0.000250054
-0.0012398
0.000400149
-0.00173295
0.000555102
-0.00216627
0.00070095
-0.00251894
0.000828814
-0.00278597
0.000934872
-0.00297434
0.00101921
-0.00309762
0.00108432
-0.00317129
0.00113375
-0.00320974
0.00117115
-0.00322475
0.00119975
-0.00322515
0.00122211
-0.00321714
0.00124014
-0.00320481
0.00125521
-0.00319076
0.00126824
-0.00317661
0.00127988
-0.00316336
0.00129054
-0.00315164
-0.00314203
0.00130047
3.55726e-05
-0.000259035
0.000125819
-0.000812649
0.000253012
-0.00136699
0.000397821
-0.00187776
0.000542577
-0.00231103
0.000674309
-0.00265068
0.000785834
-0.0028975
0.000875056
-0.00306356
0.000943396
-0.00316596
0.000994133
-0.00322203
0.00103111
-0.00324672
0.00105793
-0.00325157
0.00107755
-0.00324477
0.0010922
-0.00323179
0.00110347
-0.00321607
0.00111244
-0.00319973
0.00111984
-0.00318401
0.00112615
-0.00316967
0.00113168
-0.00315717
-0.00314695
0.0011366
3.69415e-05
-0.000295976
0.000127992
-0.000903699
0.000252705
-0.0014917
0.000390323
-0.00201538
0.000523356
-0.00244406
0.000640192
-0.00276751
0.000735431
-0.00299273
0.000808565
-0.0031367
0.000862093
-0.00321949
0.000899822
-0.00325976
0.000925684
-0.00327258
0.000943081
-0.00326896
0.000954653
-0.00325634
0.000962294
-0.00323943
0.000967293
-0.00322107
0.000970501
-0.00320294
0.00097248
-0.00318599
0.000973598
-0.00317079
0.000974086
-0.00315766
-0.00314692
0.000974059
3.78973e-05
-0.000333874
0.000128575
-0.000994376
0.000249147
-0.00161228
0.000377935
-0.00214416
0.000498114
-0.00256424
0.000599682
-0.00286908
0.000679004
-0.00307206
0.000736959
-0.00319465
0.000776867
-0.00325939
0.000802828
-0.00328572
0.000818699
-0.00328845
0.000827603
-0.00327787
0.00083184
-0.00326058
0.000832982
-0.00324057
0.000832059
-0.00322015
0.00082973
-0.00320061
0.000826425
-0.00318268
0.000822429
-0.00316679
0.000817914
-0.00315314
-0.00314197
0.000812964
3.84049e-05
-0.000372279
0.000127532
-0.0010835
0.000242435
-0.00172718
0.000361039
-0.00226277
0.000467595
-0.0026708
0.000553853
-0.00295534
0.000617839
-0.00313604
0.000661593
-0.00323841
0.00068901
-0.00328681
0.000704293
-0.00330101
0.000711104
-0.00329526
0.000712246
-0.00327901
0.000709679
-0.00325801
0.000704686
-0.00323558
0.000698075
-0.00321354
0.000690353
-0.00319289
0.000681849
-0.00317418
0.000672783
-0.00315772
0.00066329
-0.00314365
-0.00313211
0.00065343
3.84411e-05
-0.00041072
0.000124874
-0.00116994
0.000232744
-0.00183505
0.000340096
-0.00237012
0.000432579
-0.00276328
0.000503736
-0.0030265
0.000553097
-0.0031854
0.000583628
-0.00326894
0.000599583
-0.00330277
0.000605117
-0.00330654
0.000603621
-0.00329377
0.00059756
-0.00327295
0.000588579
-0.00324903
0.000577705
-0.0032247
0.000565565
-0.0032014
0.000552543
-0.00317986
0.000538892
-0.00316053
0.000524782
-0.00314362
0.000510325
-0.00312919
-0.00311735
0.000495566
3.79949e-05
-0.000448715
0.000120649
-0.00125259
0.00022031
-0.00193471
0.000315615
-0.00246542
0.000393839
-0.00284151
0.000450285
-0.00308294
0.000485795
-0.00322091
0.000504039
-0.00328718
0.000509441
-0.00330817
0.000505999
-0.0033031
0.000496792
-0.00328456
0.000483952
-0.00326011
0.000468837
-0.00323391
0.000452261
-0.00320813
0.000434698
-0.00318383
0.000416436
-0.0031616
0.000397667
-0.00314176
0.000378529
-0.00312448
0.000359116
-0.00310978
-0.00309771
0.000339468
3.70668e-05
-0.000485781
0.000114943
-0.00133047
0.000205412
-0.00202518
0.000288121
-0.00254813
0.000352115
-0.0029055
0.00039436
-0.00312519
0.000416811
-0.00324336
0.000423628
-0.003294
0.000419265
-0.00330381
0.00040748
-0.00329131
0.000391026
-0.00326811
0.000371721
-0.00324081
0.000350673
-0.00321286
0.000328514
-0.00318597
0.000305598
-0.00316092
0.000282135
-0.00313814
0.00025827
-0.00311789
0.000234114
-0.00310032
0.000209753
-0.00308542
-0.00307318
0.000185228
3.56683e-05
-0.00052145
0.000107867
-0.00140267
0.000188354
-0.00210567
0.000258136
-0.00261791
0.000308093
-0.00295546
0.000336723
-0.00315382
0.000346885
-0.00325353
0.000343053
-0.00329017
0.000329592
-0.00329034
0.000309975
-0.00327169
0.000286629
-0.00324476
0.000261088
-0.00321527
0.000234245
-0.00318602
0.000206586
-0.00315831
0.000178365
-0.0031327
0.000149727
-0.0031095
0.000120779
-0.00308895
9.16148e-05
-0.00307116
6.23145e-05
-0.00305612
-0.00304379
3.29266e-05
3.382e-05
-0.00055527
9.95539e-05
-0.0014684
0.000169453
-0.00217557
0.000226162
-0.00267462
0.0002624
-0.00299169
0.000278035
-0.00316945
0.000276639
-0.00325213
0.000262845
-0.00327637
0.000240846
-0.00326834
0.000213804
-0.00324465
0.000183834
-0.00321479
0.00015222
-0.00318365
0.000119676
-0.00315348
8.65686e-05
-0.0031252
5.30724e-05
-0.0030992
1.92792e-05
-0.00307571
-1.47393e-05
-0.00305493
-4.89048e-05
-0.00303699
-8.31337e-05
-0.00302189
-0.00300956
-0.000117366
3.15509e-05
-0.000586821
9.01493e-05
-0.001527
0.000149026
-0.00223444
0.000192671
-0.00271827
0.000215595
-0.00301462
0.000218866
-0.00317272
0.00020659
-0.00323985
0.000183438
-0.00325322
0.000153364
-0.00323827
0.000119216
-0.0032105
8.28196e-05
-0.0031784
4.52432e-05
-0.00314607
7.05608e-06
-0.00311529
-3.147e-05
-0.00308667
-7.02237e-05
-0.00306045
-0.00010916
-0.00303677
-0.000148241
-0.00301585
-0.0001874
-0.00299783
-0.000226546
-0.00298274
-0.00297051
-0.000265602
2.88963e-05
-0.000615717
7.98075e-05
-0.00157791
0.000127382
-0.00228202
0.000158099
-0.00274899
0.000168173
-0.00302469
0.000159703
-0.00316425
0.000137171
-0.00321732
0.000105182
-0.00322123
6.74174e-05
-0.00320051
2.64125e-05
-0.0031695
-1.6267e-05
-0.00313572
-5.97364e-05
-0.00310261
-0.00010354
-0.00307149
-0.000147478
-0.00304274
-0.000191487
-0.00301644
-0.000235564
-0.00299269
-0.000279705
-0.00297171
-0.000323858
-0.00295368
-0.000367918
-0.00293868
-0.00292664
-0.000411783
2.5897e-05
-0.000641614
6.86861e-05
-0.0016207
0.000104817
-0.00231815
0.000122841
-0.00276701
0.00012057
-0.00302242
0.000100964
-0.00314465
6.87436e-05
-0.0031851
2.83716e-05
-0.00318086
-1.67658e-05
-0.00315537
-6.4433e-05
-0.00312183
-0.000113297
-0.00308685
-0.000162625
-0.00305328
-0.000212047
-0.00302206
-0.000261412
-0.00299337
-0.000310694
-0.00296716
-0.000359927
-0.00294346
-0.000409143
-0.00292249
-0.00045831
-0.00290451
-0.000507309
-0.00288969
-0.00287795
-0.000555999
2.25974e-05
-0.000664211
5.69423e-05
-0.00165504
8.16103e-05
-0.00234282
8.72588e-05
-0.00277266
7.31685e-05
-0.00300833
4.30065e-05
-0.00311449
1.61537e-06
-0.00314371
-4.67421e-05
-0.0031325
-9.89852e-05
-0.00310313
-0.000153161
-0.00306766
-0.000208143
-0.00303187
-0.000263322
-0.0029981
-0.000318393
-0.00296699
-0.00037323
-0.00293854
-0.000427828
-0.00291256
-0.000482255
-0.00288903
-0.000536585
-0.00286816
-0.000590818
-0.00285028
-0.000644824
-0.00283568
-0.00282437
-0.0006984
1.90448e-05
-0.000683256
4.47301e-05
-0.00168073
5.80206e-05
-0.00235611
5.16738e-05
-0.00276631
2.63047e-05
-0.00298296
-1.38575e-05
-0.00307432
-6.39443e-05
-0.00309363
-0.000119933
-0.00307651
-0.000179051
-0.00304401
-0.000239609
-0.0030071
-0.000300663
-0.00297082
-0.000361709
-0.00293705
-0.000422484
-0.00290622
-0.000482871
-0.00287815
-0.000542866
-0.00285256
-0.000602555
-0.00282934
-0.000662062
-0.00280865
-0.000721437
-0.0027909
-0.000780547
-0.00277657
-0.00276583
-0.000839094
1.52879e-05
-0.000698544
3.21981e-05
-0.00169764
3.42885e-05
-0.0023582
1.63766e-05
-0.0027484
-1.97254e-05
-0.00294686
-6.93545e-05
-0.0030247
-0.000127694
-0.00303529
-0.00019099
-0.00301322
-0.000256771
-0.00297823
-0.000323594
-0.00294028
-0.000390683
-0.00290373
-0.000457624
-0.00287011
-0.000524186
-0.00283966
-0.000590242
-0.00281209
-0.000655765
-0.00278704
-0.000720834
-0.00276427
-0.000785614
-0.00274387
-0.000850222
-0.0027263
-0.000914535
-0.00271226
-0.00270224
-0.000978118
1.13762e-05
-0.00070992
1.94877e-05
-0.00170575
1.06338e-05
-0.00234934
-1.83738e-05
-0.00271939
-6.46599e-05
-0.00290057
-0.00012324
-0.00296611
-0.000189412
-0.00296911
-0.000259704
-0.00294292
-0.000331938
-0.00290599
-0.000404904
-0.00286731
-0.00047798
-0.00283065
-0.00055084
-0.00279725
-0.000623287
-0.00276721
-0.000695176
-0.0027402
-0.000766434
-0.00271578
-0.000837095
-0.00269361
-0.000907334
-0.00267364
-0.000977343
-0.00265629
-0.00104703
-0.00264257
-0.00263342
-0.00111586
7.35856e-06
-0.000717279
6.73159e-06
-0.00170512
-1.27441e-05
-0.00232987
-5.23475e-05
-0.00267979
-0.000108268
-0.00284465
-0.000175296
-0.00289909
-0.000248889
-0.00289552
-0.000325867
-0.00286595
-0.000404332
-0.00282753
-0.00048329
-0.00278835
-0.000562269
-0.00275167
-0.000641041
-0.00271848
-0.000719456
-0.0026888
-0.00079737
-0.00266229
-0.000874655
-0.0026385
-0.000951272
-0.002617
-0.00102737
-0.00259754
-0.00110323
-0.00258043
-0.00117884
-0.00256696
-0.00255842
-0.00125384
3.28248e-06
-0.000720561
-5.94755e-06
-0.00169589
-3.56671e-05
-0.00230015
-8.53425e-05
-0.00263011
-0.000150347
-0.00277965
-0.000225326
-0.00282411
-0.00030593
-0.00281492
-0.000389268
-0.00278261
-0.000473709
-0.00274309
-0.000558462
-0.0027036
-0.000643203
-0.00266693
-0.000727817
-0.00263386
-0.000812237
-0.00260438
-0.000896362
-0.00257816
-0.000980044
-0.00255482
-0.00106317
-0.00253387
-0.00114584
-0.00251487
-0.00122845
-0.00249782
-0.00131121
-0.00248419
-0.00247492
-0.00139471
-8.07061e-07
-0.000719754
-1.8439e-05
-0.00167826
-5.79792e-05
-0.00226061
-0.000117186
-0.00257091
-0.000190724
-0.00270611
-0.00027316
-0.00274167
-0.000360354
-0.00272772
-0.000449699
-0.00269326
-0.000539808
-0.00265298
-0.000630079
-0.00261333
-0.000720338
-0.00257667
-0.000810605
-0.0025436
-0.000900952
-0.00251403
-0.000991412
-0.0024877
-0.00108193
-0.0024643
-0.0011724
-0.0024434
-0.00126283
-0.00242444
-0.00135357
-0.00240708
-0.00144519
-0.00239257
-0.00237968
-0.00154043
-4.86871e-06
-0.000714886
-3.06457e-05
-0.00165248
-7.95487e-05
-0.00221171
-0.000147737
-0.00250272
-0.000229261
-0.00262459
-0.00031866
-0.00265227
-0.000412012
-0.00263437
-0.00050697
-0.00259831
-0.000602365
-0.00255758
-0.000697757
-0.00251793
-0.000793101
-0.00248133
-0.000888552
-0.00244815
-0.000984364
-0.00241822
-0.00108083
-0.00239123
-0.00117823
-0.00236689
-0.00127678
-0.00234486
-0.00137657
-0.00232465
-0.0014782
-0.00230546
-0.00158392
-0.00228685
-0.00228031
-0.00168328
-8.85342e-06
-0.000706032
-4.24654e-05
-0.00161887
-0.000100246
-0.00215392
-0.000176863
-0.0024261
-0.000265837