/*--------------------------------*- C++ -*----------------------------------*\
  =========                 |
  \\      /  F ield         | OpenFOAM: The Open Source CFD Toolbox
   \\    /   O peration     | Website:  https://openfoam.org
    \\  /    A nd           | Version:  6.0
     \\/     M anipulation  |
\*---------------------------------------------------------------------------*/
FoamFile
{
    version     2.0;
    format      ascii;
    class       volScalarField;
    location    "17";
    object      p;
}
// * * * * * * * * * * * * * * * * * * * * * * * * * * * * * * * * * * * * * //

dimensions      [0 2 -2 0 0 0 0];

internalField   nonuniform List<scalar> 
12500
(
-0.272113
-0.273048
-0.273687
-0.27417
-0.274586
-0.274944
-0.275259
-0.275542
-0.275802
-0.276045
-0.276277
-0.276501
-0.276722
-0.27694
-0.277161
-0.277385
-0.277616
-0.277857
-0.27811
-0.27838
-0.278673
-0.278992
-0.279278
-0.279506
-0.280254
-0.272211
-0.273141
-0.273775
-0.274256
-0.274668
-0.275023
-0.275334
-0.275614
-0.27587
-0.27611
-0.276338
-0.276559
-0.276775
-0.276989
-0.277205
-0.277425
-0.277652
-0.277889
-0.278138
-0.278403
-0.278692
-0.279007
-0.27929
-0.279514
-0.28026
-0.272399
-0.273319
-0.273946
-0.274419
-0.274824
-0.275173
-0.275477
-0.275749
-0.275998
-0.276231
-0.276451
-0.276663
-0.276871
-0.277077
-0.277284
-0.277495
-0.277712
-0.27794
-0.278179
-0.278435
-0.278716
-0.279023
-0.279298
-0.279513
-0.280255
-0.272676
-0.273581
-0.274196
-0.27466
-0.275055
-0.275393
-0.275687
-0.275948
-0.276185
-0.276406
-0.276614
-0.276814
-0.277008
-0.277201
-0.277394
-0.27759
-0.277793
-0.278005
-0.27823
-0.278472
-0.278739
-0.279033
-0.279297
-0.279498
-0.280232
-0.27304
-0.273925
-0.274526
-0.274976
-0.275358
-0.275682
-0.275961
-0.276207
-0.276429
-0.276633
-0.276825
-0.277007
-0.277184
-0.277357
-0.277531
-0.277707
-0.277889
-0.278081
-0.278285
-0.278506
-0.278754
-0.279031
-0.279279
-0.27946
-0.280184
-0.273488
-0.27435
-0.274934
-0.275367
-0.275732
-0.276038
-0.276299
-0.276526
-0.276727
-0.276911
-0.27708
-0.27724
-0.277393
-0.277542
-0.27769
-0.27784
-0.277995
-0.27816
-0.278337
-0.278532
-0.278754
-0.279008
-0.279234
-0.27939
-0.2801
-0.274018
-0.274854
-0.275417
-0.275831
-0.276175
-0.27646
-0.276698
-0.276901
-0.277078
-0.277235
-0.277378
-0.277509
-0.277632
-0.27775
-0.277866
-0.277983
-0.278105
-0.278235
-0.278378
-0.278539
-0.278729
-0.278953
-0.279151
-0.279277
-0.27997
-0.274627
-0.275434
-0.275974
-0.276366
-0.276685
-0.276945
-0.277156
-0.277331
-0.277478
-0.277604
-0.277714
-0.277811
-0.277898
-0.277979
-0.278056
-0.278132
-0.278212
-0.278299
-0.2784
-0.278519
-0.278669
-0.278856
-0.279019
-0.279108
-0.279782
-0.275312
-0.27609
-0.276604
-0.27697
-0.277262
-0.277492
-0.277672
-0.277814
-0.277926
-0.278016
-0.278087
-0.278144
-0.278189
-0.278224
-0.278254
-0.278282
-0.278311
-0.278348
-0.278396
-0.278464
-0.278564
-0.278706
-0.278827
-0.278873
-0.279523
-0.276072
-0.276819
-0.277306
-0.277643
-0.277904
-0.278101
-0.278245
-0.278348
-0.278421
-0.278469
-0.278496
-0.278506
-0.278501
-0.278485
-0.27846
-0.278431
-0.278401
-0.278375
-0.278362
-0.278368
-0.278408
-0.278494
-0.278564
-0.278558
-0.279182
-0.276907
-0.277622
-0.278078
-0.278385
-0.278611
-0.278769
-0.278873
-0.278935
-0.278962
-0.278963
-0.27894
-0.278897
-0.278837
-0.278762
-0.278674
-0.278578
-0.278479
-0.278382
-0.278295
-0.278226
-0.278195
-0.278213
-0.27822
-0.278153
-0.278746
-0.277817
-0.278498
-0.278923
-0.279194
-0.279382
-0.279498
-0.279558
-0.279572
-0.27955
-0.279498
-0.279421
-0.27932
-0.279198
-0.279057
-0.278899
-0.278728
-0.278549
-0.278369
-0.278196
-0.27804
-0.277922
-0.277857
-0.277787
-0.277647
-0.278203
-0.278802
-0.279449
-0.279839
-0.280072
-0.280217
-0.280288
-0.280298
-0.280261
-0.280186
-0.280077
-0.27994
-0.279777
-0.279588
-0.279375
-0.27914
-0.278886
-0.278619
-0.278344
-0.278071
-0.277812
-0.277591
-0.277426
-0.27726
-0.277029
-0.277542
-0.279867
-0.280477
-0.280829
-0.281021
-0.281119
-0.281139
-0.281096
-0.281004
-0.28087
-0.280702
-0.280502
-0.280272
-0.280012
-0.279723
-0.279405
-0.279062
-0.278697
-0.278316
-0.27793
-0.277551
-0.277207
-0.27692
-0.276635
-0.276291
-0.276747
-0.281013
-0.281585
-0.281895
-0.282041
-0.282088
-0.282053
-0.281953
-0.2818
-0.281606
-0.281374
-0.281109
-0.280809
-0.280476
-0.280109
-0.279705
-0.279267
-0.278798
-0.278301
-0.277788
-0.277272
-0.276783
-0.276347
-0.275913
-0.275422
-0.275802
-0.282246
-0.282775
-0.28304
-0.283135
-0.283126
-0.283031
-0.282869
-0.282653
-0.282394
-0.282097
-0.281764
-0.281395
-0.280988
-0.28054
-0.28005
-0.279515
-0.278936
-0.278316
-0.277663
-0.276993
-0.276333
-0.275718
-0.275096
-0.274413
-0.274685
-0.283572
-0.284055
-0.284269
-0.284307
-0.284235
-0.284075
-0.283846
-0.283563
-0.283236
-0.28287
-0.282469
-0.28203
-0.281549
-0.281024
-0.280447
-0.279815
-0.279125
-0.278377
-0.277576
-0.276734
-0.27588
-0.275049
-0.274191
-0.273254
-0.273369
-0.284998
-0.285428
-0.285585
-0.28556
-0.28542
-0.285188
-0.284885
-0.284529
-0.284131
-0.283695
-0.283224
-0.282715
-0.282163
-0.281561
-0.280901
-0.280175
-0.279376
-0.278499
-0.277543
-0.276515
-0.275442
-0.274358
-0.273208
-0.271938
-0.271821
-0.286532
-0.286902
-0.286995
-0.286899
-0.286682
-0.286371
-0.285989
-0.285554
-0.285079
-0.28457
-0.284027
-0.283447
-0.282824
-0.282149
-0.281411
-0.280596
-0.279692
-0.278689
-0.277577
-0.276355
-0.275041
-0.273667
-0.272163
-0.270457
-0.270003
-0.288182
-0.288485
-0.288506
-0.28833
-0.288027
-0.287627
-0.287157
-0.286636
-0.286079
-0.28549
-0.284872
-0.284221
-0.283528
-0.282782
-0.281968
-0.28107
-0.280069
-0.278946
-0.277682
-0.276262
-0.274694
-0.272995
-0.271074
-0.268817
-0.267877
-0.28996
-0.290187
-0.290125
-0.289859
-0.28946
-0.288961
-0.288393
-0.287777
-0.287129
-0.286455
-0.285756
-0.285029
-0.284264
-0.283448
-0.282563
-0.281587
-0.280497
-0.279264
-0.277858
-0.276248
-0.274423
-0.27238
-0.26999
-0.267057
-0.265443
-0.291878
-0.292018
-0.291863
-0.291496
-0.290988
-0.290378
-0.2897
-0.288978
-0.288229
-0.28746
-0.286674
-0.285866
-0.285025
-0.284137
-0.283183
-0.282137
-0.280969
-0.279643
-0.278116
-0.27634
-0.274278
-0.271903
-0.269035
-0.265341
-0.262818
-0.293951
-0.293993
-0.293732
-0.29325
-0.29262
-0.291886
-0.291085
-0.290244
-0.289382
-0.288509
-0.287626
-0.286728
-0.285807
-0.284847
-0.283826
-0.282719
-0.28149
-0.280098
-0.278488
-0.276593
-0.274344
-0.27168
-0.268358
-0.263806
-0.259988
-0.296197
-0.296127
-0.295746
-0.295134
-0.294367
-0.293494
-0.292556
-0.291583
-0.290597
-0.289607
-0.288617
-0.287623
-0.286617
-0.285584
-0.284505
-0.283355
-0.282099
-0.280695
-0.279083
-0.277176
-0.274867
-0.272017
-0.268219
-0.262444
-0.256473
-0.298634
-0.298437
-0.297921
-0.297164
-0.296243
-0.295216
-0.294127
-0.293009
-0.291884
-0.290767
-0.28966
-0.288564
-0.287471
-0.286371
-0.285249
-0.284089
-0.28287
-0.281566
-0.280143
-0.278547
-0.276702
-0.274459
-0.271248
-0.265614
-0.258868
-0.301287
-0.300943
-0.300275
-0.299357
-0.298267
-0.297069
-0.295814
-0.294537
-0.293264
-0.292009
-0.290779
-0.289575
-0.288394
-0.287233
-0.286087
-0.284953
-0.283837
-0.282754
-0.28174
-0.28087
-0.280294
-0.280264
-0.281152
-0.284548
-0.296917
-0.30418
-0.30367
-0.30283
-0.301733
-0.300457
-0.299075
-0.29764
-0.296192
-0.294759
-0.293358
-0.291998
-0.290684
-0.289418
-0.288201
-0.287041
-0.28595
-0.284956
-0.284108
-0.283489
-0.283237
-0.283582
-0.284869
-0.287577
-0.293032
-0.305915
-0.307341
-0.306641
-0.30561
-0.304316
-0.302838
-0.301255
-0.299628
-0.298
-0.296399
-0.294846
-0.293353
-0.291927
-0.290575
-0.289307
-0.288137
-0.287091
-0.286214
-0.285574
-0.285274
-0.285469
-0.286386
-0.288331
-0.291661
-0.297083
-0.307698
-0.3108
-0.309883
-0.308639
-0.307129
-0.305433
-0.303638
-0.301808
-0.29999
-0.298215
-0.296506
-0.294877
-0.293338
-0.2919
-0.290578
-0.289393
-0.288378
-0.287586
-0.28709
-0.286992
-0.287433
-0.288594
-0.290695
-0.293951
-0.298654
-0.306863
-0.314587
-0.313423
-0.311944
-0.310201
-0.308271
-0.30625
-0.304208
-0.302193
-0.30024
-0.298371
-0.296603
-0.294948
-0.293419
-0.292034
-0.290815
-0.289799
-0.289036
-0.288594
-0.288559
-0.289037
-0.290152
-0.292034
-0.294781
-0.298445
-0.304335
-0.318732
-0.317288
-0.31555
-0.313556
-0.311378
-0.309121
-0.306858
-0.304641
-0.302505
-0.300473
-0.298561
-0.296783
-0.29515
-0.293681
-0.292397
-0.291331
-0.290525
-0.290033
-0.289917
-0.290248
-0.291095
-0.292518
-0.294538
-0.29709
-0.300954
-0.323264
-0.321506
-0.319485
-0.317222
-0.314783
-0.312279
-0.30979
-0.307365
-0.30504
-0.302839
-0.300774
-0.298858
-0.297101
-0.295516
-0.294122
-0.292943
-0.29201
-0.291361
-0.291034
-0.291068
-0.291491
-0.292317
-0.293526
-0.295005
-0.297183
-0.328211
-0.326101
-0.323773
-0.321225
-0.318513
-0.315754
-0.31303
-0.310392
-0.307872
-0.30549
-0.303257
-0.30118
-0.299266
-0.297522
-0.29596
-0.294596
-0.293449
-0.29254
-0.291889
-0.291511
-0.29141
-0.291575
-0.291969
-0.292472
-0.293302
-0.333596
-0.331097
-0.328438
-0.32559
-0.322592
-0.31957
-0.316605
-0.313745
-0.311018
-0.308439
-0.306014
-0.303744
-0.301629
-0.299671
-0.297874
-0.296245
-0.294795
-0.293532
-0.292465
-0.291594
-0.290912
-0.290398
-0.290018
-0.289658
-0.28943
-0.339437
-0.336512
-0.3335
-0.330337
-0.327045
-0.323751
-0.320537
-0.317443
-0.314492
-0.311692
-0.309041
-0.306533
-0.304162
-0.301923
-0.299815
-0.29784
-0.296002
-0.294303
-0.292747
-0.291328
-0.290038
-0.288857
-0.287759
-0.286647
-0.28559
-0.345749
-0.342361
-0.338975
-0.335485
-0.331889
-0.328315
-0.32484
-0.321496
-0.318296
-0.31524
-0.312317
-0.309515
-0.306821
-0.304227
-0.301729
-0.299327
-0.297022
-0.294818
-0.292717
-0.290718
-0.288813
-0.286991
-0.285234
-0.283464
-0.28174
-0.352538
-0.348652
-0.344874
-0.341048
-0.337139
-0.333274
-0.329521
-0.325903
-0.322421
-0.319062
-0.31581
-0.312645
-0.309552
-0.306523
-0.303554
-0.300647
-0.297808
-0.295044
-0.292361
-0.289762
-0.287248
-0.284815
-0.282454
-0.280101
-0.277821
-0.359803
-0.355388
-0.351203
-0.347032
-0.342801
-0.338631
-0.334579
-0.330654
-0.326842
-0.323122
-0.31947
-0.315864
-0.31229
-0.308743
-0.305224
-0.301744
-0.298314
-0.294948
-0.29166
-0.288458
-0.285349
-0.282336
-0.279416
-0.276537
-0.273771
-0.367533
-0.362562
-0.357958
-0.353435
-0.348872
-0.344379
-0.339998
-0.335721
-0.331522
-0.32737
-0.323237
-0.319104
-0.314962
-0.310816
-0.306676
-0.302563
-0.298499
-0.294504
-0.290599
-0.286798
-0.283113
-0.27955
-0.27611
-0.272747
-0.26954
-0.375706
-0.370158
-0.365128
-0.360246
-0.355338
-0.350497
-0.345748
-0.341063
-0.336404
-0.331737
-0.327033
-0.322283
-0.317489
-0.312668
-0.307846
-0.303054
-0.298324
-0.293686
-0.289165
-0.284778
-0.280538
-0.276454
-0.272526
-0.268713
-0.265094
-0.38429
-0.378149
-0.372688
-0.367442
-0.362172
-0.356951
-0.351782
-0.34662
-0.341418
-0.336142
-0.330773
-0.325315
-0.319788
-0.314227
-0.308673
-0.30317
-0.297759
-0.292475
-0.287345
-0.282389
-0.27762
-0.273042
-0.268656
-0.264419
-0.260411
-0.393235
-0.386494
-0.380601
-0.374985
-0.369331
-0.363688
-0.358035
-0.352314
-0.346475
-0.340491
-0.334361
-0.328109
-0.321778
-0.315423
-0.309102
-0.302869
-0.296772
-0.29085
-0.285129
-0.279627
-0.274353
-0.26931
-0.264493
-0.259856
-0.25548
-0.402482
-0.395139
-0.388817
-0.382822
-0.376755
-0.370636
-0.364424
-0.358051
-0.351472
-0.344679
-0.337695
-0.330572
-0.32338
-0.316192
-0.309083
-0.302115
-0.295339
-0.288794
-0.282504
-0.276482
-0.270732
-0.265251
-0.260028
-0.255015
-0.250293
-0.411951
-0.404014
-0.397268
-0.390882
-0.384364
-0.377706
-0.370848
-0.36372
-0.356296
-0.348594
-0.340672
-0.332614
-0.324517
-0.316473
-0.308569
-0.300873
-0.293435
-0.286291
-0.279458
-0.272944
-0.266746
-0.260855
-0.255254
-0.249888
-0.244845
-0.421548
-0.413032
-0.40587
-0.399076
-0.392062
-0.384788
-0.377187
-0.369199
-0.360824
-0.352122
-0.34319
-0.334147
-0.325117
-0.31621
-0.307518
-0.299111
-0.291036
-0.283321
-0.275976
-0.269001
-0.262384
-0.256112
-0.25016
-0.244465
-0.239126
-0.431163
-0.422093
-0.414521
-0.407298
-0.399732
-0.391758
-0.38331
-0.374352
-0.364928
-0.355145
-0.345147
-0.335088
-0.325114
-0.31535
-0.305889
-0.296798
-0.288118
-0.279864
-0.272041
-0.264636
-0.257632
-0.251008
-0.244733
-0.238734
-0.233128
-0.440667
-0.431075
-0.423103
-0.415422
-0.40724
-0.398473
-0.389071
-0.379039
-0.368478
-0.357549
-0.346446
-0.335357
-0.324446
-0.313845
-0.303645
-0.293905
-0.284654
-0.275899
-0.267631
-0.259831
-0.252471
-0.245527
-0.238958
-0.23268
-0.226838
-0.44992
-0.439844
-0.431478
-0.423306
-0.414435
-0.404778
-0.394317
-0.383117
-0.371343
-0.359224
-0.346997
-0.334882
-0.323055
-0.311649
-0.300748
-0.290399
-0.280619
-0.271401
-0.262726
-0.254565
-0.246883
-0.239649
-0.232815
-0.226288
-0.22024
-0.458763
-0.44825
-0.439497
-0.430792
-0.421155
-0.410509
-0.398891
-0.38644
-0.3734
-0.360064
-0.346715
-0.333595
-0.320888
-0.308719
-0.297162
-0.28625
-0.275984
-0.266345
-0.257302
-0.248816
-0.240846
-0.233354
-0.226286
-0.219538
-0.213317
-0.467029
-0.45613
-0.446992
-0.437709
-0.427226
-0.415497
-0.402635
-0.388868
-0.374528
-0.359972
-0.345521
-0.331433
-0.317892
-0.305013
-0.292852
-0.281426
-0.270721
-0.260703
-0.251332
-0.242559
-0.234337
-0.226622
-0.219351
-0.212411
-0.206051
-0.47454
-0.463311
-0.45379
-0.443879
-0.43247
-0.419572
-0.405392
-0.390267
-0.374616
-0.358856
-0.343342
-0.328339
-0.314022
-0.30049
-0.287783
-0.275896
-0.2648
-0.25445
-0.244793
-0.235772
-0.227334
-0.21943
-0.211988
-0.204888
-0.198423
-0.481108
-0.469609
-0.459705
-0.449115
-0.436704
-0.422562
-0.407013
-0.39051
-0.37356
-0.356636
-0.340114
-0.32426
-0.309234
-0.295115
-0.28192
-0.269629
-0.258194
-0.247559
-0.237659
-0.22843
-0.219814
-0.211757
-0.204178
-0.196949
-0.190414
-0.486547
-0.474839
-0.46455
-0.453231
-0.439751
-0.424306
-0.407359
-0.38948
-0.371267
-0.353237
-0.335778
-0.319147
-0.303486
-0.288849
-0.275233
-0.262595
-0.250876
-0.240004
-0.229906
-0.220512
-0.211757
-0.203584
-0.195902
-0.188577
-0.182007
-0.490666
-0.478814
-0.468136
-0.456041
-0.441436
-0.424651
-0.406298
-0.387075
-0.367655
-0.348594
-0.330282
-0.312959
-0.296742
-0.281662
-0.26769
-0.254768
-0.242819
-0.231761
-0.221513
-0.211996
-0.203143
-0.194893
-0.187144
-0.179757
-0.173188
-0.49328
-0.481346
-0.470278
-0.457366
-0.441596
-0.423454
-0.403716
-0.3832
-0.362653
-0.342651
-0.32358
-0.305656
-0.28897
-0.273523
-0.259266
-0.246122
-0.234
-0.222809
-0.212459
-0.202866
-0.193957
-0.185668
-0.177889
-0.170476
-0.163944
-0.494211
-0.482259
-0.470799
-0.457039
-0.44008
-0.42059
-0.399511
-0.377779
-0.3562
-0.335361
-0.315634
-0.297207
-0.280139
-0.264406
-0.249937
-0.236636
-0.224401
-0.213131
-0.202728
-0.193105
-0.184184
-0.175898
-0.168127
-0.160723
-0.154264
-0.493289
-0.481382
-0.469533
-0.454905
-0.436754
-0.415947
-0.393597
-0.370746
-0.348246
-0.326686
-0.306413
-0.287584
-0.270227
-0.254291
-0.239682
-0.226292
-0.214004
-0.202711
-0.192308
-0.182702
-0.173815
-0.165574
-0.157849
-0.150492
-0.144144
-0.490361
-0.478559
-0.466327
-0.450825
-0.431501
-0.409435
-0.385904
-0.36205
-0.338753
-0.316595
-0.295892
-0.276767
-0.259215
-0.243159
-0.228488
-0.215076
-0.202798
-0.191539
-0.181189
-0.171651
-0.162843
-0.15469
-0.147052
-0.13978
-0.13358
-0.485289
-0.473651
-0.461048
-0.44468
-0.424224
-0.400979
-0.376381
-0.351653
-0.327696
-0.305069
-0.284056
-0.264742
-0.24709
-0.231001
-0.216343
-0.202978
-0.190775
-0.179608
-0.169366
-0.159946
-0.151266
-0.143246
-0.135736
-0.128588
-0.122574
-0.477954
-0.466538
-0.453582
-0.436373
-0.414848
-0.390525
-0.364991
-0.339533
-0.315058
-0.292098
-0.270896
-0.251501
-0.233846
-0.217809
-0.203241
-0.189996
-0.177931
-0.166917
-0.156838
-0.147589
-0.139085
-0.131244
-0.123905
-0.116923
-0.111131
-0.46826
-0.45712
-0.443837
-0.42583
-0.403318
-0.37804
-0.351714
-0.325681
-0.300836
-0.277678
-0.25641
-0.237043
-0.219482
-0.203583
-0.189184
-0.176129
-0.164268
-0.153468
-0.143609
-0.134584
-0.126306
-0.118691
-0.111567
-0.104794
-0.0992618
-0.456132
-0.445322
-0.431746
-0.413
-0.389603
-0.363508
-0.336549
-0.310099
-0.285036
-0.261819
-0.240606
-0.221375
-0.204003
-0.188328
-0.174177
-0.161382
-0.149791
-0.139267
-0.129686
-0.120939
-0.11294
-0.105599
-0.0987367
-0.0922152
-0.0869812
-0.441522
-0.431094
-0.417268
-0.397856
-0.373694
-0.346935
-0.319509
-0.292807
-0.267678
-0.244537
-0.223501
-0.204511
-0.187422
-0.172056
-0.158228
-0.145766
-0.134512
-0.124325
-0.11508
-0.106667
-0.0989982
-0.091982
-0.0854296
-0.0792063
-0.0743079
-0.424408
-0.414411
-0.400385
-0.380397
-0.355605
-0.328344
-0.300623
-0.273834
-0.248791
-0.22586
-0.205117
-0.186472
-0.169758
-0.154783
-0.141355
-0.129295
-0.118443
-0.108655
-0.0998051
-0.0917826
-0.0844989
-0.077859
-0.0716666
-0.0657897
-0.0612648
-0.404792
-0.395274
-0.381107
-0.360646
-0.335369
-0.307777
-0.279936
-0.253225
-0.228415
-0.205824
-0.185487
-0.167286
-0.151035
-0.136532
-0.123577
-0.111987
-0.101601
-0.0922744
-0.0838789
-0.0763038
-0.0694603
-0.0632507
-0.0574715
-0.051992
-0.0478786
-0.382703
-0.37371
-0.359469
-0.338648
-0.313042
-0.285295
-0.257507
-0.231036
-0.206602
-0.184475
-0.164651
-0.146989
-0.131286
-0.11733
-0.104917
-0.0938643
-0.0840072
-0.0752015
-0.067319
-0.060249
-0.0539025
-0.0481799
-0.0428711
-0.0378443
-0.034183
-0.358198
-0.349774
-0.335531
-0.314473
-0.2887
-0.260973
-0.233412
-0.207336
-0.183415
-0.161869
-0.142661
-0.125625
-0.110547
-0.0972095
-0.0854055
-0.0749506
-0.0656817
-0.057455
-0.050143
-0.0436357
-0.0378448
-0.0326687
-0.0278927
-0.0233815
-0.0202207
-0.331357
-0.323543
-0.309376
-0.288211
-0.262435
-0.234905
-0.207737
-0.182207
-0.158926
-0.138071
-0.119572
-0.103244
-0.0888645
-0.0762094
-0.0650734
-0.0552728
-0.0466465
-0.0390528
-0.0323662
-0.0264786
-0.0213022
-0.0167353
-0.0125615
-0.00864005
-0.00603711
-0.302283
-0.295119
-0.281112
-0.259973
-0.234361
-0.207199
-0.180585
-0.15574
-0.133221
-0.113159
-0.0954544
-0.0799078
-0.066289
-0.0543735
-0.043957
-0.0348591
-0.0269227
-0.0200099
-0.0139989
-0.00878471
-0.00428158
-0.000389479
0.00310419
0.00634912
0.00833932
-0.271104
-0.264628
-0.250864
-0.229889
-0.204605
-0.177977
-0.152069
-0.128042
-0.106395
-0.0872172
-0.0703844
-0.0556838
-0.0428809
-0.0317521
-0.0220969
-0.01374
-0.0065301
-0.000335707
0.00495871
0.00945282
0.013228
0.0163783
0.0191064
0.021582
0.0229202
-0.237967
-0.232214
-0.218781
-0.198105
-0.173309
-0.147375
-0.122316
-0.0992288
-0.0785547
-0.0603441
-0.0444505
-0.0306512
-0.0187095
-0.0084044
0.000459289
0.00804973
0.0145103
0.0199638
0.0245163
0.028258
0.0312623
0.0336121
0.0354926
0.0371023
0.0377216
-0.20304
-0.198042
-0.185025
-0.164785
-0.140631
-0.115541
-0.0914638
-0.0694273
-0.0498174
-0.0326476
-0.0177522
-0.00490038
0.00614459
0.0155998
0.0236539
0.0304665
0.0361711
0.0408786
0.0446814
0.047655
0.0498607
0.0513664
0.0523188
0.052904
0.0525633
-0.166505
-0.162291
-0.149777
-0.130103
-0.106739
-0.0826328
-0.0596595
-0.0387753
-0.0203113
-0.00424728
0.00959957
0.0214659
0.031588
0.0401784
0.0474186
0.0534589
0.0584211
0.0624004
0.0654677
0.0676745
0.0690642
0.0696754
0.0695391
0.0686958
0.0668689
-0.128561
-0.125156
-0.113228
-0.0942469
-0.0718115
-0.0488183
-0.0270603
-0.00741966
0.00982548
0.0247265
0.0374812
0.0483311
0.057512
0.0652327
0.0716694
0.0769654
0.0812325
0.0845502
0.0869634
0.0884918
0.0891511
0.0888997
0.0874695
0.0845572
0.0807405
-0.0894201
-0.0868452
-0.0755831
-0.0574132
-0.0360343
-0.0142727
0.00616951
0.0244851
0.0404463
0.0541333
0.0657568
0.0755628
0.0837867
0.0906361
0.0962859
0.100879
0.104529
0.107313
0.109275
0.110435
0.110822
0.110303
0.108169
0.103723
0.0990232
-0.0493032
-0.0475759
-0.0370535
-0.0198058
0.000399515
0.0208232
0.0398605
0.0567787
0.0713984
0.0838253
0.0942813
0.103015
0.110263
0.116231
0.121095
0.125004
0.12808
0.130421
0.132104
0.133223
0.133929
0.134176
0.133085
0.130137
0.132397
-0.00843215
-0.00756802
0.00214487
0.0183682
0.037294
0.0562855
0.0738397
0.0892978
0.102525
0.113651
0.122906
0.130539
0.136786
0.14185
0.145908
0.149109
0.15158
0.153428
0.154749
0.155666
0.15634
0.156754
0.156416
0.155749
0.160263
0.0329582
0.0329484
0.0417888
0.0568965
0.0744499
0.0919281
0.107933
0.121878
0.133671
0.14346
0.151482
0.157988
0.163207
0.167342
0.170567
0.17303
0.174859
0.176165
0.177052
0.177643
0.178078
0.178334
0.178063
0.177755
0.181762
0.0746318
0.0737417
0.0816544
0.0955664
0.111668
0.127566
0.141967
0.154357
0.164681
0.173104
0.179868
0.185219
0.189385
0.192562
0.194919
0.196601
0.197734
0.198426
0.198779
0.19891
0.198943
0.198862
0.198371
0.197868
0.20093
0.116352
0.11458
0.121517
0.134166
0.148751
0.163014
0.175772
0.186574
0.195404
0.20244
0.207925
0.212103
0.215193
0.217386
0.218845
0.219708
0.220095
0.220109
0.219843
0.219402
0.218893
0.218288
0.217317
0.216351
0.218507
0.157883
0.15523
0.161155
0.172486
0.185504
0.198093
0.209178
0.218375
0.225696
0.231332
0.235526
0.238516
0.240515
0.241705
0.242241
0.242255
0.241858
0.241146
0.240204
0.239123
0.237994
0.236775
0.235219
0.233694
0.234974
0.198991
0.195465
0.200348
0.210319
0.221735
0.232627
0.242025
0.249607
0.255415
0.259648
0.262547
0.264345
0.265245
0.265421
0.26502
0.264166
0.26296
0.261491
0.259835
0.258073
0.256279
0.254403
0.252222
0.250109
0.25055
0.239447
0.23506
0.238881
0.247465
0.257259
0.266443
0.274154
0.280125
0.284427
0.287264
0.288875
0.289484
0.289287
0.288448
0.287106
0.285375
0.28335
0.28111
0.278724
0.276262
0.273787
0.271244
0.268433
0.265733
0.26537
0.279027
0.273794
0.276544
0.283728
0.291894
0.299376
0.305412
0.30979
0.312603
0.314062
0.3144
0.313834
0.312551
0.310705
0.308427
0.305823
0.302979
0.299968
0.29685
0.293689
0.290534
0.287331
0.283905
0.28063
0.279495
0.317514
0.311455
0.313135
0.318918
0.325467
0.331267
0.335654
0.338467
0.33982
0.339927
0.339018
0.337299
0.33495
0.332115
0.328917
0.325452
0.321802
0.31803
0.314192
0.310341
0.306521
0.302677
0.298657
0.294826
0.292951
0.354699
0.347838
0.348457
0.352854
0.35781
0.361962
0.364738
0.366027
0.365959
0.364752
0.362629
0.35979
0.356402
0.352605
0.348509
0.344207
0.33977
0.335258
0.330717
0.326198
0.321735
0.317276
0.31269
0.308325
0.30574
0.390378
0.382746
0.382325
0.385362
0.388764
0.391315
0.392532
0.392347
0.390908
0.388433
0.385139
0.381218
0.376829
0.372102
0.367142
0.36203
0.356835
0.351609
0.346393
0.341232
0.336154
0.331108
0.325986
0.321113
0.317847
0.424362
0.415992
0.414561
0.416277
0.418178
0.419187
0.418907
0.41731
0.414558
0.41087
0.406457
0.401502
0.396156
0.39054
0.384751
0.378867
0.372947
0.367039
0.36118
0.355408
0.349746
0.344148
0.338522
0.333166
0.329253
0.456469
0.447398
0.444996
0.445444
0.445908
0.445447
0.443743
0.440806
0.436809
0.431971
0.426496
0.420561
0.414308
0.40785
0.401277
0.394661
0.388056
0.381503
0.375036
0.368688
0.362478
0.356363
0.350266
0.344455
0.339928
0.486528
0.476799
0.473473
0.472716
0.47182
0.469972
0.466928
0.46273
0.457564
0.451646
0.445176
0.438321
0.431216
0.423968
0.416661
0.409359
0.402111
0.394955
0.387921
0.381035
0.374313
0.367717
0.361185
0.354949
0.349845
0.51438
0.504039
0.499845
0.497957
0.495789
0.492648
0.488356
0.482986
0.476733
0.469813
0.462418
0.45471
0.446815
0.438835
0.430846
0.422907
0.415064
0.40735
0.399791
0.392408
0.385214
0.378177
0.371244
0.364614
0.358972
0.539879
0.528976
0.523977
0.521042
0.517701
0.513368
0.507929
0.501483
0.494234
0.486394
0.478152
0.469661
0.461043
0.452391
0.443777
0.435257
0.42687
0.418645
0.410605
0.402769
0.395145
0.387706
0.380409
0.373418
0.367281
0.562891
0.551479
0.545747
0.541858
0.537449
0.532037
0.525559
0.51814
0.509989
0.501319
0.492311
0.483114
0.473842
0.464584
0.455407
0.446361
0.437483
0.428798
0.420325
0.41208
0.404069
0.39627
0.388647
0.381329
0.374743
0.583296
0.571431
0.565043
0.560301
0.554941
0.548567
0.541165
0.532882
0.523932
0.514524
0.504837
0.495012
0.48516
0.475365
0.465688
0.456177
0.446863
0.437771
0.428915
0.420309
0.411956
0.403838
0.395928
0.38832
0.381333
0.600988
0.58873
0.581768
0.576282
0.570092
0.562881
0.554678
0.545644
0.535999
0.525952
0.515675
0.505307
0.494952
0.484691
0.474581
0.464666
0.454975
0.44553
0.436343
0.427424
0.418775
0.410382
0.402223
0.394363
0.387027
0.615875
0.603285
0.595837
0.589721
0.582831
0.574914
0.566034
0.556368
0.546139
0.535553
0.52478
0.513954
0.503177
0.492523
0.482049
0.471794
0.461786
0.452044
0.442578
0.433396
0.424499
0.415875
0.407509
0.399436
0.391805
0.627879
0.615021
0.60718
0.600553
0.593097
0.584609
0.575183
0.565007
0.554306
0.543286
0.532113
0.520918
0.509799
0.498829
0.488061
0.477532
0.467269
0.457288
0.447598
0.438204
0.429107
0.420298
0.411763
0.403519
0.395649
0.636939
0.623878
0.615739
0.608726
0.60084
0.591922
0.582084
0.571522
0.560465
0.549116
0.537641
0.526168
0.514791
0.503583
0.492593
0.481858
0.471402
0.46124
0.451381
0.441828
0.43258
0.423631
0.41497
0.406597
0.398545
0.643007
0.629811
0.621471
0.614199
0.606025
0.596818
0.586703
0.575883
0.564587
0.553019
0.541342
0.529682
0.518133
0.506765
0.495627
0.484753
0.474168
0.463886
0.453913
0.444253
0.434904
0.425862
0.417117
0.408656
0.400483
0.646053
0.632788
0.624348
0.616945
0.608627
0.599275
0.589021
0.578072
0.566656
0.554978
0.543199
0.531445
0.51981
0.508361
0.497149
0.486206
0.475556
0.465213
0.455184
0.44547
0.43607
0.426981
0.418194
0.409689
0.401455
0.64606
0.632795
0.624355
0.616952
0.608634
0.599281
0.589027
0.578077
0.566661
0.554983
0.543204
0.53145
0.519814
0.508366
0.497153
0.48621
0.47556
0.465217
0.455188
0.445474
0.436074
0.426985
0.418197
0.409693
0.401459
0.643029
0.629832
0.621492
0.614219
0.606044
0.596836
0.58672
0.5759
0.564603
0.553035
0.541357
0.529696
0.518147
0.506778
0.49564
0.484766
0.474181
0.463898
0.453925
0.444264
0.434915
0.425872
0.417127
0.408666
0.400493
0.636975
0.623913
0.615773
0.608759
0.600872
0.591952
0.582112
0.57155
0.560491
0.549142
0.537666
0.526191
0.514814
0.503605
0.492615
0.481879
0.471423
0.46126
0.4514
0.441847
0.432598
0.423649
0.414988
0.406614
0.398562
0.627929
0.61507
0.607228
0.6006
0.593141
0.584652
0.575224
0.565046
0.554343
0.543321
0.532147
0.520951
0.509831
0.49886
0.488091
0.477562
0.467298
0.457315
0.447625
0.43823
0.429132
0.420323
0.411788
0.403544
0.395673
0.615939
0.603348
0.595899
0.58978
0.582887
0.574968
0.566086
0.556418
0.546186
0.535598
0.524824
0.513997
0.503217
0.492562
0.482087
0.471831
0.461823
0.452079
0.442613
0.43343
0.424532
0.415908
0.40754
0.399467
0.391835
0.601066
0.588806
0.581843
0.576354
0.570161
0.562947
0.55474
0.545704
0.536057
0.526007
0.515729
0.505358
0.495002
0.484739
0.474628
0.464711
0.455019
0.445573
0.436385
0.427465
0.418815
0.410421
0.402262
0.394401
0.387064
0.583387
0.571521
0.565131
0.560386
0.555022
0.548644
0.541239
0.532953
0.524
0.514589
0.5049
0.495073
0.485219
0.475422
0.465744
0.45623
0.446915
0.437821
0.428965
0.420357
0.412003
0.403884
0.395973
0.388364
0.381377
0.562996
0.551582
0.545847
0.541955
0.537542
0.532125
0.525643
0.518221
0.510067
0.501394
0.492383
0.483183
0.473909
0.464649
0.45547
0.446422
0.437542
0.428856
0.420382
0.412136
0.404124
0.396323
0.388699
0.38138
0.374793
0.539997
0.529092
0.52409
0.521151
0.517805
0.513468
0.508024
0.501574
0.494321
0.486478
0.478233
0.469739
0.461118
0.452464
0.443849
0.435326
0.426937
0.418711
0.410669
0.402831
0.395206
0.387765
0.380468
0.373475
0.367337
0.51451
0.504168
0.49997
0.498078
0.495905
0.492759
0.488461
0.483087
0.47683
0.469906
0.462508
0.454797
0.446899
0.438916
0.430925
0.422984
0.415139
0.407423
0.399862
0.392477
0.385282
0.378243
0.371309
0.364678
0.359034
0.486671
0.47694
0.47361
0.472848
0.471947
0.470094
0.467044
0.462841
0.45767
0.451748
0.445275
0.438416
0.431309
0.424058
0.416748
0.409443
0.402193
0.395035
0.387999
0.381111
0.374387
0.36779
0.361257
0.355019
0.349913
0.456624
0.447551
0.445144
0.445587
0.446046
0.445579
0.443869
0.440926
0.436925
0.432082
0.426604
0.420665
0.414408
0.407947
0.401372
0.394753
0.388145
0.38159
0.375121
0.368771
0.362559
0.356442
0.350344
0.344531
0.340003
0.424529
0.416156
0.414721
0.416431
0.418326
0.419329
0.419042
0.41744
0.414683
0.41099
0.406573
0.401614
0.396264
0.390645
0.384853
0.378966
0.373044
0.367133
0.361271
0.355497
0.349833
0.344233
0.338606
0.333248
0.329333
0.390556
0.382921
0.382496
0.385526
0.388922
0.391466
0.392677
0.392486
0.391041
0.388561
0.385263
0.381338
0.376945
0.372215
0.367251
0.362136
0.356938
0.351709
0.346491
0.341328
0.336247
0.3312
0.326076
0.321201
0.317933
0.354886
0.348023
0.348638
0.353028
0.357977
0.362122
0.364892
0.366174
0.366101
0.364889
0.362761
0.359917
0.356525
0.352724
0.348625
0.344319
0.33988
0.335364
0.330822
0.3263
0.321835
0.317373
0.312785
0.308419
0.305831
0.317712
0.31165
0.313325
0.319102
0.325643
0.331436
0.335816
0.338623
0.33997
0.340071
0.339157
0.337434
0.33508
0.332241
0.329039
0.325571
0.321918
0.318143
0.314302
0.310449
0.306627
0.30278
0.298758
0.294926
0.293048
0.279234
0.273998
0.276743
0.28392
0.292079
0.299554
0.305583
0.309954
0.312761
0.314213
0.314546
0.313976
0.312687
0.310838
0.308556
0.305948
0.303102
0.300087
0.296967
0.293802
0.290645
0.287439
0.284011
0.280734
0.279597
0.239663
0.235272
0.239089
0.247666
0.257452
0.266629
0.274332
0.280297
0.284592
0.287423
0.289029
0.289633
0.289431
0.288588
0.287241
0.285506
0.283478
0.281235
0.278846
0.276382
0.273903
0.271358
0.268545
0.265843
0.265477
0.199215
0.195686
0.200564
0.210529
0.221937
0.23282
0.242211
0.249785
0.255586
0.259813
0.262707
0.2645
0.265395
0.265567
0.265162
0.264303
0.263094
0.261622
0.259963
0.258198
0.2564
0.254522
0.252339
0.250224
0.250663
0.158114
0.155459
0.161379
0.172703
0.185713
0.198294
0.209371
0.21856
0.225874
0.231504
0.235692
0.238677
0.24067
0.241856
0.242388
0.242398
0.241998
0.241282
0.240336
0.239253
0.238121
0.2369
0.235341
0.233814
0.235091
0.116591
0.114815
0.121748
0.13439
0.148967
0.163221
0.175971
0.186766
0.195589
0.202618
0.208097
0.212269
0.215354
0.217543
0.218997
0.219857
0.22024
0.22025
0.219981
0.219537
0.219025
0.218417
0.217443
0.216475
0.218629
0.074877
0.0739838
0.0818915
0.0957966
0.11189
0.127779
0.142173
0.154555
0.164871
0.173288
0.180045
0.185391
0.189552
0.192724
0.195077
0.196755
0.197884
0.198572
0.198922
0.199049
0.19908
0.198996
0.198502
0.197997
0.201056
0.0332093
0.0331964
0.0420318
0.0571325
0.0746779
0.0921476
0.108144
0.122082
0.133867
0.143649
0.151666
0.158165
0.163379
0.167509
0.17073
0.173188
0.175014