/*--------------------------------*- C++ -*----------------------------------*\
  =========                 |
  \\      /  F ield         | OpenFOAM: The Open Source CFD Toolbox
   \\    /   O peration     | Website:  https://openfoam.org
    \\  /    A nd           | Version:  6.0
     \\/     M anipulation  |
\*---------------------------------------------------------------------------*/
FoamFile
{
    version     2.0;
    format      ascii;
    class       surfaceScalarField;
    location    "17";
    object      phi;
}
// * * * * * * * * * * * * * * * * * * * * * * * * * * * * * * * * * * * * * //

dimensions      [0 3 -1 0 0 0 0];

internalField   nonuniform List<scalar> 
24700
(
-1.59474e-06
1.65084e-06
-5.6096e-08
-5.75983e-06
4.29562e-06
-1.30531e-07
-1.19977e-05
6.41392e-06
-1.76085e-07
-1.98919e-05
8.09372e-06
-1.99507e-07
-2.90956e-05
9.41004e-06
-2.06332e-07
-3.93233e-05
1.04287e-05
-2.01037e-07
-5.03435e-05
1.12074e-05
-1.87183e-07
-6.19727e-05
1.17967e-05
-1.67554e-07
-7.40691e-05
1.22407e-05
-1.44284e-07
-8.65284e-05
1.25783e-05
-1.18967e-07
-9.92791e-05
1.28435e-05
-9.27683e-08
-0.000112279
1.3066e-05
-6.65059e-08
-0.00012551
1.32721e-05
-4.0734e-08
-0.000138978
1.34842e-05
-1.58049e-08
-0.000152709
1.37221e-05
8.08056e-09
-0.000166742
1.40022e-05
3.08352e-08
-0.000181133
1.43385e-05
5.24583e-08
-0.000195948
1.47421e-05
7.30145e-08
-0.000211262
1.52214e-05
9.26172e-08
-0.000227156
1.57825e-05
1.11418e-07
-0.000243714
1.64289e-05
1.29605e-07
-0.000261023
1.71617e-05
1.47406e-07
-0.000279168
1.79797e-05
1.65074e-07
-0.000298231
1.88801e-05
1.82863e-07
1.98626e-05
2.01025e-07
-0.000318295
-1.58515e-06
3.23598e-06
-5.72596e-06
8.43643e-06
-1.1927e-05
1.2615e-05
-1.97728e-05
1.59395e-05
-2.89166e-05
1.85538e-05
-3.90724e-05
2.05846e-05
-5.0008e-05
2.2143e-05
-6.15383e-05
2.3327e-05
-7.35202e-05
2.42226e-05
-8.58474e-05
2.49055e-05
-9.84464e-05
2.54424e-05
-0.000111272
2.5892e-05
-0.000124306
2.63058e-05
-0.000137551
2.67288e-05
-0.000151029
2.72002e-05
-0.00016478
2.77533e-05
-0.000178858
2.84162e-05
-0.000193327
2.92116e-05
-0.000208263
3.01571e-05
-0.000223745
3.12651e-05
-0.00023986
3.25434e-05
-0.000256693
3.3995e-05
-0.000274331
3.56178e-05
-0.000292858
3.7407e-05
3.9362e-05
-0.000312357
-1.5664e-06
4.80238e-06
-5.65959e-06
1.25296e-05
-1.17882e-05
1.87436e-05
-1.95385e-05
2.36898e-05
-2.85641e-05
2.75794e-05
-3.8578e-05
3.05985e-05
-4.93462e-05
3.29113e-05
-6.06813e-05
3.46621e-05
-7.24369e-05
3.59782e-05
-8.45031e-05
3.69717e-05
-9.68022e-05
3.77416e-05
-0.000109285
3.83751e-05
-0.000121929
3.89491e-05
-0.000134731
3.95312e-05
-0.000147711
4.01803e-05
-0.000160905
4.0947e-05
-0.000174363
4.18742e-05
-0.000188148
4.2997e-05
-0.000202334
4.43429e-05
-0.000217001
4.5932e-05
-0.000232235
4.77772e-05
-0.000248124
4.98841e-05
-0.000264756
5.22504e-05
-0.000282219
5.487e-05
5.7742e-05
-0.000300599
-1.5394e-06
6.34179e-06
-5.56361e-06
1.65538e-05
-1.1587e-05
2.47669e-05
-1.91982e-05
3.13011e-05
-2.80511e-05
3.64323e-05
-3.78578e-05
4.04051e-05
-4.83816e-05
4.34351e-05
-5.94315e-05
4.5712e-05
-7.08567e-05
4.74034e-05
-8.2542e-05
4.86569e-05
-9.44036e-05
4.96032e-05
-0.000106386
5.03576e-05
-0.000118459
5.10223e-05
-0.000130615
5.16874e-05
-0.000142867
5.24318e-05
-0.000155244
5.33243e-05
-0.000167794
5.44235e-05
-0.000180575
5.57781e-05
-0.000193659
5.7427e-05
-0.000207126
5.93994e-05
-0.000221064
6.17147e-05
-0.000235562
6.43824e-05
-0.000250714
6.7402e-05
-0.00026661
7.07662e-05
7.44741e-05
-0.000283342
-1.50542e-06
7.8472e-06
-5.44206e-06
2.04905e-05
-1.13311e-05
3.0656e-05
-1.87643e-05
3.87343e-05
-2.7396e-05
4.5064e-05
-3.69367e-05
4.99459e-05
-4.71469e-05
5.36452e-05
-5.7831e-05
5.63962e-05
-6.88326e-05
5.84049e-05
-8.00295e-05
5.98539e-05
-9.13305e-05
6.09041e-05
-0.000102672
6.16987e-05
-0.000114014
6.23645e-05
-0.000125341
6.30142e-05
-0.000136656
6.37473e-05
-0.000147983
6.46512e-05
-0.000159361
6.58017e-05
-0.000170846
6.72626e-05
-0.000182505
6.90862e-05
-0.000194418
7.13127e-05
-0.000206674
7.39705e-05
-0.000219367
7.70754e-05
-0.000232595
8.06299e-05
-0.000246456
8.46276e-05
8.90682e-05
-0.00026105
-1.46595e-06
9.31315e-06
-5.29974e-06
2.43243e-05
-1.10301e-05
3.63864e-05
-1.8252e-05
4.59561e-05
-2.66204e-05
5.34325e-05
-3.58444e-05
5.91699e-05
-4.56811e-05
6.3482e-05
-5.593e-05
6.6645e-05
-6.64279e-05
6.89028e-05
-7.70448e-05
7.04708e-05
-8.76801e-05
7.15394e-05
-9.82597e-05
7.22783e-05
-0.000108734
7.28386e-05
-0.000119075
7.3355e-05
-0.000129275
7.39482e-05
-0.000139349
7.47251e-05
-0.000149327
7.57797e-05
-0.000159258
7.71932e-05
-0.000169205
7.90337e-05
-0.000179248
8.13554e-05
-0.000189476
8.41985e-05
-0.000199989
8.75882e-05
-0.000210892
9.15333e-05
-0.000222295
9.60305e-05
0.000101082
-0.000234309
-1.42263e-06
1.07358e-05
-5.14185e-06
2.80435e-05
-1.06939e-05
4.19384e-05
-1.76772e-05
5.29394e-05
-2.57475e-05
6.15028e-05
-3.46126e-05
6.8035e-05
-4.4026e-05
7.28954e-05
-5.37821e-05
7.64011e-05
-6.37107e-05
7.88314e-05
-7.36729e-05
8.04329e-05
-8.35577e-05
8.14242e-05
-9.32793e-05
8.19999e-05
-0.000102775
8.23342e-05
-0.000112004
8.25839e-05
-0.000120946
8.28902e-05
-0.000129601
8.33804e-05
-0.00013799
8.41686e-05
-0.000146152
8.53552e-05
-0.000154145
8.70271e-05
-0.000162046
8.92562e-05
-0.000169946
9.20987e-05
-0.000177951
9.55935e-05
-0.000186178
9.97598e-05
-0.000194749
0.000104602
0.000110125
-0.000203793
-1.37706e-06
1.21128e-05
-4.97345e-06
3.16399e-05
-1.03323e-05
4.72972e-05
-1.70554e-05
5.96626e-05
-2.47996e-05
6.9247e-05
-3.32714e-05
7.65068e-05
-4.22215e-05
8.18455e-05
-5.14391e-05
8.56187e-05
-6.07468e-05
8.81392e-05
-6.99967e-05
8.96829e-05
-7.90668e-05
9.04943e-05
-8.78583e-05
9.07914e-05
-9.62941e-05
9.077e-05
-0.000104318
9.06076e-05
-0.000111894
9.0466e-05
-0.000119006
9.04931e-05
-0.000125662
9.0824e-05
-0.000131888
9.15812e-05
-0.000137734
9.28734e-05
-0.000143273
9.47948e-05
-0.000148597
9.74229e-05
-0.000153819
0.000100816
-0.00015907
0.00010501
-0.00016449
0.000110022
0.000115867
-0.000170232
-1.33066e-06
1.34435e-05
-4.79898e-06
3.51082e-05
-9.95378e-06
5.2452e-05
-1.64e-05
6.61088e-05
-2.37956e-05
7.66426e-05
-3.18465e-05
8.45577e-05
-4.03011e-05
9.03001e-05
-4.89441e-05
9.42616e-05
-5.75916e-05
9.67867e-05
-6.6087e-05
9.81782e-05
-7.42969e-05
9.87042e-05
-8.21092e-05
9.86037e-05
-8.94312e-05
9.80921e-05
-9.61895e-05
9.73659e-05
-0.00010233
9.66063e-05
-0.000107818
9.59817e-05
-0.000112643
9.56491e-05
-0.000116817
9.57548e-05
-0.000120377
9.64335e-05
-0.000123389
9.78063e-05
-0.000125944
9.99785e-05
-0.000128164
0.000103036
-0.000130193
0.000107039
-0.000132199
0.000112028
0.000118033
-0.000134365
-1.28455e-06
1.4728e-05
-4.62182e-06
3.84455e-05
-9.56461e-06
5.73948e-05
-1.57204e-05
7.22646e-05
-2.27486e-05
8.36708e-05
-3.03552e-05
9.21644e-05
-3.82872e-05
9.8232e-05
-4.63259e-05
0.0001023
-5.42823e-05
0.000104743
-6.19916e-05
0.000105888
-6.93102e-05
0.000106023
-7.61126e-05
0.000105406
-8.22904e-05
0.00010427
-8.77516e-05
0.000102827
-9.24217e-05
0.000101276
-9.62453e-05
9.98052e-05
-9.91891e-05
9.85928e-05
-0.000101245
9.78108e-05
-0.000102434
9.76227e-05
-0.000102811
9.81825e-05
-0.000102463
9.96308e-05
-0.000101517
0.00010209
-0.000100137
0.000105659
-9.85178e-05
0.000110409
0.000116402
-9.68865e-05
-1.23942e-06
1.59675e-05
-4.4439e-06
4.16499e-05
-9.16802e-06
6.21189e-05
-1.5021e-05
7.81176e-05
-2.16638e-05
9.03136e-05
-2.88033e-05
9.93039e-05
-3.61863e-05
0.000105615
-4.35925e-05
0.000109707
-5.0829e-05
0.00011198
-5.7725e-05
0.000112784
-6.4128e-05
0.000112426
-6.99004e-05
0.000111179
-7.49186e-05
0.000109288
-7.90718e-05
0.00010698
-8.2264e-05
0.000104469
-8.44157e-05
0.000101957
-8.54682e-05
9.96453e-05
-8.53884e-05
9.77309e-05
-8.41746e-05
9.64089e-05
-8.1863e-05
9.5871e-05
-7.85338e-05
9.63016e-05
-7.43157e-05
9.78721e-05
-6.93887e-05
0.000100732
-6.39849e-05
0.000105005
0.0001108
-5.83836e-05
-1.19547e-06
1.71629e-05
-4.26546e-06
4.47199e-05
-8.76368e-06
6.66171e-05
-1.43e-05
8.36539e-05
-2.05369e-05
9.65504e-05
-2.7183e-05
0.00010595
-3.3986e-05
0.000112418
-4.07258e-05
0.000116446
-4.72081e-05
0.000118462
-5.32583e-05
0.000118834
-5.87174e-05
0.000117885
-6.34382e-05
0.000115899
-6.72834e-05
0.000113133
-7.01251e-05
0.000109822
-7.18453e-05
0.000106189
-7.23392e-05
0.000102451
-7.15194e-05
9.88255e-05
-6.93226e-05
9.55341e-05
-6.57176e-05
9.28039e-05
-6.07153e-05
9.08687e-05
-5.43786e-05
8.99649e-05
-4.68323e-05
9.03258e-05
-3.82711e-05
9.21704e-05
-2.89653e-05
9.56996e-05
0.000101095
-1.92599e-05
-1.15238e-06
1.83153e-05
-4.08492e-06
4.76525e-05
-8.34746e-06
7.08797e-05
-1.35491e-05
8.88556e-05
-1.93533e-05
0.000102355
-2.54709e-05
0.000112068
-3.1652e-05
0.000118599
-3.76784e-05
0.000122473
-4.33567e-05
0.00012414
-4.85115e-05
0.000123989
-5.29806e-05
0.000122354
-5.66104e-05
0.000119529
-5.92536e-05
0.000115776
-6.07675e-05
0.000111336
-6.10146e-05
0.000106436
-5.98648e-05
0.000101301
-5.72006e-05
9.61613e-05
-5.29242e-05
9.12577e-05
-4.69682e-05
8.6848e-05
-3.93087e-05
8.32091e-05
-2.99806e-05
8.06368e-05
-1.90944e-05
7.94396e-05
-6.85191e-06
7.9928e-05
6.43847e-06
8.24092e-05
8.71793e-05
2.03543e-05
-1.10934e-06
1.94247e-05
-3.89901e-06
5.04421e-05
-7.91154e-06
7.48922e-05
-1.27533e-05
9.36973e-05
-1.80879e-05
0.000107689
-2.36283e-05
0.000117608
-2.91278e-05
0.000124099
-3.43717e-05
0.000127717
-3.91698e-05
0.000128938
-4.33489e-05
0.000128168
-4.67471e-05
0.000125752
-4.92091e-05
0.000121991
-5.05822e-05
0.000117149
-5.07137e-05
0.000111467
-4.94507e-05
0.000105173
-4.66414e-05
9.84918e-05
-4.2139e-05
9.1659e-05
-3.58099e-05
8.49285e-05
-2.75448e-05
7.85829e-05
-1.72756e-05
7.29399e-05
-4.99625e-06
6.83575e-05
9.21204e-06
6.52313e-05
2.51533e-05
6.39867e-05
4.24877e-05
6.50749e-05
6.89604e-05
6.07065e-05
-1.06517e-06
2.04898e-05
-3.703e-06
5.308e-05
-7.44493e-06
7.86341e-05
-1.18919e-05
9.81443e-05
-1.67062e-05
0.000112504
-2.1602e-05
0.000122504
-2.63358e-05
0.000128832
-3.06974e-05
0.000132078
-3.45011e-05
0.000132742
-3.75787e-05
0.000131245
-3.97726e-05
0.000127946
-4.09299e-05
0.000123149
-4.08985e-05
0.000117118
-3.95225e-05
0.000110091
-3.66407e-05
0.000102291
-3.2086e-05
9.3937e-05
-2.5688e-05
8.5261e-05
-1.72797e-05
7.65202e-05
-6.70849e-06
6.80117e-05
6.1451e-06
6.00863e-05
2.13414e-05
5.31612e-05
3.8847e-05
4.77257e-05
5.84924e-05
4.43413e-05
7.99211e-05
4.36461e-05
4.63448e-05
0.000102537
-1.0184e-06
2.15082e-05
-3.49113e-06
5.55527e-05
-6.93415e-06
8.20772e-05
-1.09397e-05
0.00010215
-1.5166e-05
0.00011673
-1.93268e-05
0.000126665
-2.31807e-05
0.000132686
-2.65212e-05
0.000135419
-2.9168e-05
0.000135389
-3.09591e-05
0.000133036
-3.17438e-05
0.000128731
-3.13765e-05
0.000122781
-2.97112e-05
0.000115453
-2.65967e-05
0.000106977
-2.1873e-05
9.75673e-05
-1.53684e-05
8.74324e-05
-6.89964e-06
7.67922e-05
3.72471e-06
6.58959e-05
1.66951e-05
5.50413e-05
3.21834e-05
4.4598e-05
5.03143e-05
3.50303e-05
7.11216e-05
2.69184e-05
9.44896e-05
2.09733e-05
0.000120073
1.80627e-05
1.922e-05
0.000147198
-9.67469e-07
2.24757e-05
-3.25706e-06
5.78423e-05
-6.36432e-06
8.51844e-05
-9.8685e-06
0.000105654
-1.34202e-05
0.000120282
-1.67296e-05
0.000129974
-1.95545e-05
0.000135511
-2.16903e-05
0.000137555
-2.29605e-05
0.000136659
-2.3209e-05
0.000133285
-2.2293e-05
0.000127815
-2.00766e-05
0.000120565
-1.64253e-05
0.000111801
-1.12003e-05
0.000101752
-4.25341e-06
9.06204e-05
4.57778e-06
7.86012e-05
1.54732e-05
6.58968e-05
2.86312e-05
5.27378e-05
4.42646e-05
3.94079e-05
6.25878e-05
2.62748e-05
8.37898e-05
1.38283e-05
0.000107987
2.72133e-06
0.000135148
-6.18808e-06
0.000164982
-1.17706e-05
-1.25647e-05
0.000196766
-9.10857e-07
2.33866e-05
-2.99436e-06
5.99258e-05
-5.71998e-06
8.79101e-05
-8.64882e-06
0.000108583
-1.14191e-05
0.000123052
-1.37326e-05
0.000132287
-1.53423e-05
0.000137121
-1.60412e-05
0.000138254
-1.5653e-05
0.000136271
-1.40243e-05
0.000131656
-1.10184e-05
0.000124809
-6.5091e-06
0.000116056
-3.75675e-07
0.000105668
7.50255e-06
9.38738e-05
1.72518e-05
8.08712e-05
2.90101e-05
6.6843e-05
4.29334e-05
5.19735e-05
5.92017e-05
3.64695e-05
7.80219e-05
2.05876e-05
9.96246e-05
4.67211e-06
0.000124246
-1.07926e-05
0.000152084
-2.51167e-05
0.00018322
-3.7324e-05
0.000217469
-4.60197e-05
-4.92208e-05
0.000254125
-8.47191e-07
2.42337e-05
-2.69686e-06
6.17755e-05
-4.98596e-06
9.01992e-05
-7.25132e-06
0.000110848
-9.11276e-06
0.000124913
-1.02579e-05
0.000133433
-1.04286e-05
0.000137292
-9.40925e-06
0.000137234
-7.01734e-06
0.000133879
-3.09648e-06
0.000127735
2.48953e-06
0.000119223
9.8612e-06
0.000108684
1.91273e-05
9.64019e-05
3.03889e-05
8.26122e-05
4.37438e-05
6.75162e-05
5.92926e-05
5.12942e-05
7.71461e-05
3.41201e-05
9.74348e-05
1.61808e-05
0.00012032
-2.29754e-06
0.000146002
-2.10095e-05
0.000174718
-3.9509e-05
0.000206722
-5.71205e-05
0.00024221
-7.28127e-05
0.000281164
-8.49737e-05
-9.10504e-05
0.000322994
-7.75279e-07
2.5009e-05
-2.35876e-06
6.33589e-05
-4.14761e-06
9.1988e-05
-5.64747e-06
0.000112348
-6.45281e-06
0.000125719
-6.22988e-06
0.00013321
-4.70169e-06
0.000135763
-1.63578e-06
0.000134168
3.165e-06
0.000129078
9.86927e-06
0.000121031
1.86216e-05
0.00011047
2.95453e-05
9.77602e-05
4.27445e-05
8.32027e-05
5.83052e-05
6.70514e-05
7.62974e-05
4.9524e-05
9.67778e-05
3.08138e-05
0.000119796
1.11022e-05
0.000145403
-9.4261e-06
0.000173667
-3.05621e-05
0.000204695
-5.20374e-05
0.00023865
-7.34642e-05
0.000275764
-9.42343e-05
0.000316309
-0.000113357
0.000360465
-0.00012913
-0.000138484
0.000407898
-6.94041e-07
2.57031e-05
-1.97444e-06
6.46393e-05
-3.19059e-06
9.32042e-05
-3.80934e-06
0.000112967
-3.39214e-06
0.000125301
-1.57568e-06
0.000131393
1.94461e-06
0.000132243
7.42758e-06
0.000128685
1.50957e-05
0.00012141
2.51409e-05
0.000110986
3.77282e-05
9.7883e-05
5.29964e-05
8.24919e-05
7.10576e-05
6.51415e-05
9.19947e-05
4.61144e-05
0.000115859
2.56596e-05
0.000142669
4.00414e-06
0.000172408
-1.86367e-05
0.00020503
-4.20487e-05
0.000240473
-6.60046e-05
0.000278677
-9.02416e-05
0.000319628
-0.000114415
0.000363403
-0.000138009
0.00041022
-0.000160175
0.000460422
-0.000179332
-0.000192119
0.000514057
-6.02343e-07
2.63054e-05
-1.53801e-06
6.5575e-05
-2.10002e-06
9.37662e-05
-1.70842e-06
0.000112575
1.16437e-07
0.000123477
3.77599e-06
0.000127734
9.61177e-06
0.000126407
1.79192e-05
0.000120378
2.89573e-05
0.000110372
4.29537e-05
9.69895e-05
6.01075e-05
8.07292e-05
8.0588e-05
6.20114e-05
0.000104532
4.11979e-05
0.000132036
1.86097e-05
0.000163154
-5.45835e-06
0.000197883
-3.07247e-05
0.000236157
-5.69108e-05
0.00027784
-8.37317e-05
0.000322723
-0.000110888
0.000370535
-0.000138053
0.000420976
-0.000164856
0.000473788
-0.000190822
0.000528881
-0.000215267
0.000586515
-0.000236966
-0.000252804
0.0006472
-4.98746e-07
2.68042e-05
-1.04255e-06
6.61188e-05
-8.59069e-07
9.35827e-05
6.8649e-07
0.00011103
4.12304e-06
0.00012004
9.89869e-06
0.000121958
1.84011e-05
0.000117905
2.99721e-05
0.000108807
4.49177e-05
9.54264e-05
6.35131e-05
7.83941e-05
8.60041e-05
5.82382e-05
0.000112605
3.54103e-05
0.000143494
1.03087e-05
0.000178805
-1.67013e-05
0.000218617
-4.52697e-05
0.000262938
-7.50455e-05
0.00031169
-0.000105663
0.000364687
-0.000136729
0.000421609
-0.00016781
0.000481981
-0.000198426
0.000545167
-0.000228042
0.0006104
-0.000256055
0.000676915
-0.000281782
0.000744313
-0.000304365
-0.000322248
0.000813758
-3.81209e-07
2.71854e-05
-4.79229e-07
6.62168e-05
5.52576e-07
9.25509e-05
3.41177e-06
0.00010817
8.68429e-06
0.000114767
1.68729e-05
0.000113769
2.84194e-05
0.000106358
4.37207e-05
9.35057e-05
6.31381e-05
7.6009e-05
8.70027e-05
5.45294e-05
0.000115616
2.96245e-05
0.000149249
1.77792e-06
0.000188132
-2.85748e-05
0.000232454
-6.10232e-05
0.000282345
-9.51608e-05
0.000337866
-0.000130566
0.000398983
-0.000166781
0.000465547
-0.000203292
0.000537238
-0.000239501
0.000613512
-0.000274699
0.000693502
-0.000308032
0.000775926
-0.000338478
0.000858998
-0.000364854
0.000940748
-0.000386115
-0.000404469
0.00102297
-2.46822e-07
2.74322e-05
1.63421e-07
6.58066e-05
2.16023e-06
9.05541e-05
6.51128e-06
0.000103819
1.38666e-05
0.000107412
2.47904e-05
0.000102846
3.97852e-05
9.13635e-05
5.93083e-05
7.39826e-05
8.3781e-05
5.15363e-05
0.000113593
2.4717e-05
0.000149105
-5.8867e-06
0.00019064
-3.97578e-05
0.000238489
-7.64231e-05
0.000292894
-0.000115429
0.000354054
-0.00015632
0.000422109
-0.000198621
0.000497141
-0.000241813
0.000579161
-0.000285312
0.000668091
-0.000328432
0.000763723
-0.000370331
0.000865619
-0.000409929
0.000972896
-0.000445754
0.00108355
-0.000475506
0.00119253
-0.000495094
-0.000499023
0.00128708
-9.21197e-08
2.75243e-05
8.99244e-07
6.48152e-05
3.9941e-06
8.74592e-05
1.00367e-05
9.77768e-05
1.9747e-05
9.77019e-05
3.37558e-05
8.88367e-05
5.26303e-05
7.24891e-05
7.68895e-05
4.97234e-05
0.000107014
2.14122e-05
0.000143447
-1.17159e-05
0.000186595
-4.90352e-05
0.000236826
-8.99888e-05
0.000294463
-0.00013406
0.000359784
-0.00018075
0.000433023
-0.00022956
0.000514381
-0.000279978
0.000604037
-0.000331469
0.000702192
-0.000383467
0.00080913
-0.00043537
0.000925338
-0.000486539
0.00105171
-0.000536303
0.00118991
-0.000583956
0.0013432
-0.000628791
0.00151888
-0.000670772
-0.000713497
0.00173335
8.8796e-08
2.74355e-05
1.74762e-06
6.31564e-05
6.09311e-06
8.31137e-05
1.40512e-05
8.98187e-05
2.64163e-05
8.53368e-05
4.38887e-05
7.13642e-05
6.71003e-05
4.92776e-05
9.66288e-05
2.01949e-05
0.000133004
-1.49634e-05
0.00017671
-5.54211e-05
0.000228176
-0.000100501
0.000287778
-0.000149591
0.00035583
-0.000202112
0.000432584
-0.000257504
0.000518233
-0.000315209
0.000612924
-0.000374668
0.000716777
-0.000435322
0.000829929
-0.00049662
0.000952597
-0.000558037
0.00108516
-0.000619107
0.00122833
-0.000679467
0.00138328
-0.00073891
0.00155196
-0.000797468
0.00173675
-0.000855557
-0.000911949
0.0019352
3.01438e-07
2.71341e-05
2.72836e-06
6.07295e-05
8.49809e-06
7.7344e-05
1.86217e-05
7.96951e-05
3.39701e-05
6.99884e-05
5.53129e-05
5.00215e-05
8.33423e-05
2.12481e-05
0.000118685
-1.51479e-05
0.000161904
-5.81826e-05
0.000213495
-0.000107012
0.000273876
-0.000160882
0.000343382
-0.000219097
0.000422254
-0.000280985
0.00051064
-0.00034589
0.000608592
-0.00041316
0.000716077
-0.000482154
0.000832998
-0.000552243
0.000959217
-0.000622839
0.00109459
-0.000693412
0.00123901
-0.00076353
0.00139245
-0.000832901
0.00155495
-0.000901411
0.00172659
-0.000969113
0.00190702
-0.00103598
-0.0010984
0.00209347
5.52502e-07
2.65816e-05
3.86386e-06
5.74181e-05
1.12535e-05
6.99543e-05
2.38187e-05
6.71299e-05
4.2506e-05
5.13011e-05
6.81497e-05
2.43777e-05
0.000101493
-1.20951e-05
0.000143193
-5.68484e-05
0.00019382
-0.00010881
0.000253843
-0.000167035
0.00032362
-0.000230659
0.000403381
-0.000298858
0.000493224
-0.000370827
0.000593104
-0.000445769
0.000702835
-0.000522892
0.000822104
-0.000601422
0.000950479
-0.000680618
0.00108743
-0.000759794
0.00123237
-0.000838344
0.00138461
-0.000915777
0.00154345
-0.00099174
0.00170808
-0.00106604
0.00187753
-0.00113857
0.00205055
-0.001209
-0.00127307
0.00222522
8.48949e-07
2.57326e-05
5.17689e-06
5.30902e-05
1.44036e-05
6.07277e-05
2.971e-05
5.18234e-05
5.21138e-05
2.88973e-05
8.25043e-05
-6.01278e-06
0.000121658
-5.12484e-05
0.000170236
-0.000105427
0.000228777
-0.000167351
0.000297676
-0.000235933
0.000377166
-0.000310149
0.000467305
-0.000388997
0.000567963
-0.000471486
0.000678822
-0.000556628
0.000799377
-0.000643447
0.000928954
-0.000730999
0.00106673
-0.000818393
0.00121175
-0.000904817
0.00136297
-0.000989562
0.00151924
-0.00107205
0.00167935
-0.00115185
0.00184198
-0.00122866
0.00200571
-0.0013023
0.00216903
-0.00137232
-0.00143472
0.00233068
1.19755e-06
2.45351e-05
6.68896e-06
4.75988e-05
1.79884e-05
4.94282e-05
3.63547e-05
3.34571e-05
6.28662e-05
2.38592e-06
9.84502e-05
-4.15968e-05
0.00014389
-9.66883e-05
0.000199815
-0.000161352
0.000266681
-0.000234216
0.000344746
-0.000313999
0.000434051
-0.000399453
0.000534401
-0.000489347
0.000645362
-0.000582447
0.000766266
-0.000677532
0.00089623
-0.000773411
0.00103418
-0.000868949
0.00117889
-0.0009631
0.001329
-0.00105493
0.00148311
-0.00114367
0.00163972
-0.00122867
0.00179735
-0.00130947
0.00195446
-0.00138578
0.00210956
-0.00145739
0.00226121
-0.00152397
-0.00158219
0.00240868
1.60443e-06
2.29306e-05
8.41878e-06
4.07844e-05
2.20413e-05
3.58056e-05
4.3797e-05
1.17015e-05
7.48083e-05
-2.86254e-05
0.000116015
-8.2804e-05
0.000168172
-0.000148845
0.000231826
-0.000225005
0.000307288
-0.000309679
0.000394609
-0.00040132
0.000493558
-0.000498402
0.00060361
-0.000599399
0.000723958
-0.000702795
0.000853531
-0.000807105
0.000991033
-0.000910913
0.00113499
-0.00101291
0.00128381
-0.00111192
0.00143583
-0.00120696
0.00158938
-0.00129721
0.00174282
-0.0013821
0.00189456
-0.00146122
0.00204313
-0.00153435
0.00218718
-0.00160144
0.00232555
-0.00166234
-0.00171458
0.00245794
2.07471e-06
2.08559e-05
1.03808e-05
3.24783e-05
2.6585e-05
1.96015e-05
5.20606e-05
-1.37742e-05
8.79499e-05
-6.45147e-05
0.000135171
-0.000130025
0.000194398
-0.000208073
0.000266037
-0.000296644
0.000350183
-0.000393824
0.000446599
-0.000497737
0.000554704
-0.000606507
0.000673574
-0.000718269
0.000801974
-0.000831196
0.000938407
-0.000943538
0.00108117
-0.00105368
0.00122844
-0.00116018
0.00137834
-0.00126182
0.00152902
-0.00135763
0.00167869
-0.00144689
0.00182574
-0.00152915
0.00196871
-0.00160418
0.00210634
-0.00167198
0.00223759
-0.00173269
0.0023617
-0.00178645
-0.00183164
0.00247877
2.61219e-06
1.82437e-05
1.25843e-05
2.25062e-05
3.16296e-05
5.56234e-07
6.11451e-05
-4.32897e-05
0.000102259
-0.000105628
0.000155819
-0.000183585
0.000222365
-0.000274619
0.000302083
-0.000376362
0.000394775
-0.000486516
0.000499837
-0.000602798
0.000616264
-0.000722933
0.000742682
-0.000844687
0.000877407
-0.00096592
0.00101852
-0.00108465
0.00116398
-0.00119913
0.00131168
-0.00130788
0.00145959
-0.00140973
0.00160581
-0.00150385
0.00174864
-0.00158972
0.00188663
-0.00166714
0.00201859
-0.00173615
0.00214363
-0.00179702
0.00226111
-0.00185017
0.00237072
-0.00189605
-0.00193381
0.00247288
3.21923e-06
1.50245e-05
1.50324e-05
1.0693e-05
3.71709e-05
-2.15823e-05
7.10223e-05
-7.71411e-05
0.000117656
-0.000152262
0.000177794
-0.000243724
0.000251766
-0.000348591
0.000339463
-0.000464059
0.000440308
-0.000587361
0.000553255
-0.000715746
0.000676824
-0.000846502
0.000809163
-0.000977027
0.000948152
-0.00110491
0.00109151
-0.00122801
0.00123693
-0.00134455
0.00138218
-0.00145313
0.00152522
-0.00155277
0.00166425
-0.00164288
0.00179781
-0.00172328
0.00192475
-0.00179408
0.00204427
-0.00185567
0.00215589
-0.00190864
0.00225942
-0.00195371
0.00235495
-0.00199158
-0.00202207
0.00244321
3.8966e-06
1.11279e-05
1.77218e-05
-3.13223e-06
4.31893e-05
-4.70498e-05
8.16346e-05
-0.000115586
0.000134014
-0.000204641
0.000200854
-0.000310564
0.000282196
-0.000429932
0.000377549
-0.000559411
0.00048588
-0.000695692
0.000605643
-0.000835509
0.000734851
-0.00097571
0.000871191
-0.00111337
0.00101216
-0.00124588
0.00115521
-0.00137107
0.00129791
-0.00148725
0.00143803
-0.00159326
0.00157368
-0.00168842
0.00170334
-0.00177254
0.00182587
-0.00184581
0.00194054
-0.00190875
0.00204698
-0.00196211
0.00214514
-0.00200679
0.00223522
-0.00204378
0.00231766
-0.00207403
-0.00209781
0.00239341
4.64349e-06
6.48442e-06
2.06424e-05
-1.91311e-05
4.96489e-05
-7.60564e-05
9.28945e-05
-0.000158832
0.000151157
-0.000262904
0.000224689
-0.000384096
0.000313157
-0.0005184
0.000415607
-0.000661861
0.000530484
-0.00081057
0.000655708
-0.000960732
0.000788791
-0.00110879
0.00092701
-0.00125159
0.00106758
-0.00138644
0.00120781
-0.0015113
0.00134531
-0.00162474
0.00147801
-0.00172595
0.0016043
-0.00181471
0.00172304
-0.00189128
0.00183353
-0.0019563
0.00193547
-0.00201069
0.00202891
-0.00205555
0.00211417
-0.00209206
0.00219181
-0.00212142
0.0022625
-0.00214472
-0.00216262
0.00232731
5.4574e-06
1.02702e-06
2.3777e-05
-3.74508e-05
5.64976e-05
-0.000108777
0.000104684
-0.000207019
0.000168862
-0.000327081
0.000248923
-0.000464158
0.000344074
-0.000613551
0.000452825
-0.000770612
0.000573056
-0.000930801
0.000702148
-0.00108982
0.000837163
-0.00124381
0.00097506
-0.00138948
0.0011129
-0.00152428
0.00124802
-0.00164643
0.00137819
-0.00175491
0.00150167
-0.00184944
0.00161725
-0.00193029
0.00172422
-0.00199825
0.00182233
-0.00205441
0.00191172
-0.00210007
0.00199279
-0.00213663
0.0020662
-0.00216546
0.00213269
-0.00218791
0.00219313
-0.00220516
-0.00221807
0.00224858
6.33413e-06
-5.30711e-06
2.71017e-05
-5.82183e-05
6.3667e-05
-0.000145342
0.000116858
-0.00026021
0.000186862
-0.000397085
0.000273127
-0.000550422
0.000374316
-0.00071474
0.000488349
-0.000884646
0.000612528
-0.00105498
0.00074373
-0.00122103
0.000878655
-0.00137873
0.00101407
-0.0015249
0.00114704
-0.00165725
0.00127509
-0.00177447
0.00139629
-0.00187612
0.00150933
-0.00196247
0.00161344
-0.00203441
0.00170841
-0.00209321
0.00179439
-0.0021404
0.0018719
-0.00217758
0.00194163
-0.00220636
0.00200444
-0.00222827
0.00206122
-0.00224469
0.00211288
-0.00225682
-0.00226564
0.00216045
7.26771e-06
-1.25748e-05
3.05851e-05
-8.15357e-05
7.10729e-05
-0.00018583
0.000129243
-0.00031838
0.000204857
-0.000472699
0.00029683
-0.000642395
0.000403219
-0.000821129
0.000521324
-0.00100275
0.000647887
-0.00118154
0.000779362
-0.0013525
0.000912206
-0.00151158
0.00104315
-0.00165585
0.00116942
-0.00178352
0.00128885
-0.00189391
0.00139995
-0.00198721
0.00150188
-0.00206439
0.00159436
-0.00212689
0.00167759
-0.00217645
0.00175213
-0.00221493
0.00181875
-0.00224419
0.00187836
-0.00226597
0.00193192
-0.00228183
0.00198037
-0.00229314
0.00202462
-0.00230106
-0.00230659
0.00206558
8.25029e-06
-2.08251e-05
3.41889e-05
-0.000107474
7.86164e-05
-0.000230258
0.000141642
-0.000381405
0.000222515
-0.000553572
0.000319538
-0.000739419
0.000430117
-0.000931708
0.000550935
-0.00112357
0.000678234
-0.00130884
0.000808155
-0.00148242
0.000937062
-0.00164049
0.00106181
-0.00178059
0.00117992
-0.00190164
0.00128967
-0.00200365
0.00139004
-0.00208759
0.0014807
-0.00215505
0.00156182
-0.00220801
0.00163398
-0.00224861
0.00169802
-0.00227897
0.0017549
-0.00230108
0.00180566
-0.00231672
0.00185126
-0.00232744
0.00189265
-0.00233453
0.00193065
-0.00233906
-0.002342
0.00196606
9.27211e-06
-3.00972e-05
3.78682e-05
-0.00013607
8.61855e-05
-0.000278575
0.000153842
-0.000449062
0.000239488
-0.000639218
0.000340754
-0.000840685
0.000454374
-0.00104533
0.000576452
-0.00124565
0.000702828
-0.00143522
0.00082947
-0.00160906
0.000952803
-0.00176382
0.00106995
-0.00189775
0.00117886
-0.00201055
0.0012783
-0.00210309
0.00136778
-0.00217707
0.00144742
-0.00223469
0.0015178
-0.00227839
0.00157978
-0.00231059
0.0016344
-0.00233359
0.00168274
-0.00234941
0.00172583
-0.00235982
0.00176465
-0.00236626
0.00180006
-0.00236993
0.00183277
-0.00237178
-0.0023727
0.00186347
1.03215e-05
-4.04188e-05
4.15718e-05
-0.000167321
9.36571e-05
-0.00033066
0.000165616
-0.00052102
0.000255422
-0.000729024
0.000359996
-0.000945258
0.00047541
-0.00116074
0.000597265
-0.0013675
0.000721124
-0.00155908
0.000842934
-0.00173087
0.000959336
-0.00188022
0.00106785
-0.00200626
0.00116693
-0.00210962
0.00125586
-0.00219202
0.00133464
-0.00225585
0.00140382
-0.00230387
0.00146427
-0.00233884
0.00151708
-0.0023634
0.00156338
-0.00237989
0.00160429
-0.00239032
0.00164081
-0.00239634
0.00167384
-0.00239929
0.00170414
-0.00240023
0.00173234
-0.00239999
-0.00239933
0.00175898
1.13852e-05
-5.1804e-05
4.52433e-05
-0.000201179
0.000100901
-0.000386318
0.000176731
-0.000596851
0.000269974
-0.000822267
0.00037682
-0.0010521
0.000492732
-0.00127665
0.00061291
-0.00148768
0.000732787
-0.00167895
0.000848443
-0.00184653
0.000956871
-0.00198865
0.00105608
-0.00210547
0.00114506
-0.0021986
0.00122361
-0.00227057
0.00129217
-0.00232442
0.00135163
-0.00236333
0.00140309
-0.0023903
0.00144774
-0.00240805
0.00148676
-0.00241891
0.00152124
-0.00242479
0.0015521
-0.00242721
0.00158016
-0.00242735
0.00160606
-0.00242613
0.00163033
-0.00242426
-0.00242239
0.00165339
1.24481e-05
-6.42521e-05
4.88225e-05
-0.000237553
0.000107782
-0.000445277
0.000186961
-0.00067603
0.000282821
-0.000918128
0.000390842
-0.00116013
0.000505953
-0.00139176
0.000623086
-0.00160481
0.000737695
-0.00179356
0.000846139
-0.00195497
0.000945867
-0.00208838
0.00103543
-0.00219504
0.00111435
-0.00227752
0.00118291
-0.00233912
0.00124192
-0.00238343
0.0012925
-0.00241391
0.0013359
-0.0024337
0.00137336
-0.00244552
0.00140604
-0.00245159
0.00143494
-0.00245369
0.0014609
-0.00245318
0.00148463
-0.00245108
0.00150667
-0.00244817
0.00152745
-0.00244503
-0.00244221
0.00154727
1.3494e-05
-7.77461e-05
5.22467e-05
-0.000276306
0.000114167
-0.000507198
0.000196087
-0.000757949
0.000293676
-0.00101572
0.000401748
-0.0012682
0.000514805
-0.00150482
0.000627656
-0.00171766
0.000735927
-0.00190184
0.000836373
-0.00205542
0.000926973
-0.00217898
0.00100683
-0.0022749
0.00107598
-0.00234667
0.00113511
-0.00239825
0.00118532
-0.00243363
0.00122788
-0.00245647
0.00126413
-0.00246994
0.00129527
-0.00247667
0.00132241
-0.00247872
0.00134644
-0.00247772
0.00136811
-0.00247485
0.00138801
-0.00247098
0.00140658
-0.00246675
0.00142418
-0.00246263
-0.00245906
0.00144102
1.45058e-05
-9.22519e-05
5.54531e-05
-0.000317253
0.000119927
-0.000571672
0.000203913
-0.000841935
0.0003023
-0.0011141
0.000409308
-0.00137521
0.000519145
-0.00161466
0.000626643
-0.00182516
0.000727733
-0.00200293
0.000819661
-0.00214735
0.000900967
-0.00226028
0.0009713
-0.00234523
0.00103114
-0.0024065
0.0010815
-0.00244862
0.00112369
-0.00247582
0.00115908
-0.00249186
0.00118897
-0.00249984
0.00121456
-0.00250225
0.00123681
-0.00250098
0.00125654
-0.00249745
0.00127438
-0.00249269
0.00129082
-0.00248742
0.00130623
-0.00248215
0.00132086
-0.00247726
-0.00247309
0.00133489
1.5466e-05
-0.000107718
5.83799e-05
-0.000360167
0.000124941
-0.000638233
0.000210268
-0.000927263
0.000308505
-0.00121234
0.000413383
-0.00148008
0.000518949
-0.00172023
0.000620207
-0.00192642
0.000713503
-0.00209622
0.000796631
-0.00223047
0.000868695
-0.00233235
0.000929844
-0.00240638
0.000980937
-0.0024576
0.00102324
-0.00249092
0.00105818
-0.00251076
0.00108715
-0.00252083
0.00111142
-0.00252411
0.00113207
-0.0025229
0.00114998
-0.00251889
0.00116585
-0.00251332
0.00118021
-0.00250705
0.00119347
-0.00250067
0.0012059
-0.00249459
0.00121773
-0.00248909