/*--------------------------------*- C++ -*----------------------------------*\
  =========                 |
  \\      /  F ield         | OpenFOAM: The Open Source CFD Toolbox
   \\    /   O peration     | Website:  https://openfoam.org
    \\  /    A nd           | Version:  6.0
     \\/     M anipulation  |
\*---------------------------------------------------------------------------*/
FoamFile
{
    version     2.0;
    format      ascii;
    class       surfaceScalarField;
    location    "79";
    object      phi;
}
// * * * * * * * * * * * * * * * * * * * * * * * * * * * * * * * * * * * * * //

dimensions      [0 3 -1 0 0 0 0];

internalField   nonuniform List<scalar> 
24700
(
-4.24778e-06
-7.223e-05
7.64777e-05
-1.48688e-05
-0.00015975
0.000170371
-3.02742e-05
-0.00020512
0.000220525
-4.92079e-05
-0.000219674
0.000238607
-7.06718e-05
-0.000212422
0.000233886
-9.38741e-05
-0.000190308
0.00021351
-0.000118176
-0.000158504
0.000182806
-0.000143043
-0.000120733
0.000145601
-0.000168008
-7.958e-05
0.000104544
-0.000192639
-3.67724e-05
6.14037e-05
-0.000216529
6.57758e-06
1.7313e-05
-0.000239284
4.97831e-05
-2.70281e-05
-0.00026052
9.24402e-05
-7.12045e-05
-0.000279866
0.000134328
-0.000114982
-0.000296974
0.000175347
-0.00015824
-0.000311524
0.000215483
-0.000200932
-0.000323242
0.000254786
-0.000243069
-0.000331911
0.000293374
-0.000284705
-0.000337394
0.000331427
-0.000325944
-0.000339653
0.000369194
-0.000366936
-0.00033877
0.000406997
-0.000407881
-0.000334969
0.00044522
-0.000449021
-0.000328641
0.000484318
-0.000490646
-0.000320379
0.0005249
-0.000533162
0.000567687
-0.000577044
-0.000311022
-4.36036e-06
-6.78696e-05
-1.51138e-05
-0.000148997
-3.05345e-05
-0.000189699
-4.92913e-05
-0.000200917
-7.03567e-05
-0.000191356
-9.29397e-05
-0.000167725
-0.000116421
-0.000135023
-0.000140294
-9.68603e-05
-0.000164125
-5.57485e-05
-0.000187522
-1.33753e-05
-0.000210115
2.91703e-05
-0.000231547
7.12154e-05
-0.000251474
0.000112367
-0.000269565
0.000152419
-0.000285508
0.00019129
-0.000299017
0.000228992
-0.000309845
0.000265614
-0.000317794
0.000301323
-0.00032273
0.000336363
-0.000324601
0.000371065
-0.000323457
0.000405854
-0.000319475
0.000441238
-0.000312979
0.000477822
-0.000304484
0.000516405
0.000557959
-0.000294756
-4.36929e-06
-6.35003e-05
-1.50249e-05
-0.000138341
-3.01518e-05
-0.000174572
-4.837e-05
-0.000182699
-6.86366e-05
-0.00017109
-9.01674e-05
-0.000146194
-0.000112364
-0.000112827
-0.00013475
-7.4474e-05
-0.000156928
-3.35707e-05
-0.000178543
8.23997e-06
-0.000199267
4.9894e-05
-0.000218785
9.07338e-05
-0.000236797
0.000130379
-0.000253015
0.000168637
-0.00026717
0.000205445
-0.000279016
0.000240838
-0.000288339
0.000274937
-0.000294963
0.000307948
-0.000298765
0.000340164
-0.000299684
0.000371985
-0.000297746
0.000403916
-0.00029308
0.000436573
-0.000285952
0.000470693
-0.0002768
0.000507254
0.000547478
-0.00026632
-4.29327e-06
-5.9207e-05
-1.46651e-05
-0.000127969
-2.92505e-05
-0.000159987
-4.66421e-05
-0.000165307
-6.57915e-05
-0.00015194
-8.59242e-05
-0.000126061
-0.000106462
-9.22895e-05
-0.000126958
-5.3978e-05
-0.000147048
-1.3481e-05
-0.000166415
2.76075e-05
-0.000184772
6.82512e-05
-0.000201849
0.00010781
-0.000217387
0.000145918
-0.000231146
0.000182396
-0.0002429
0.000217199
-0.000252445
0.000250383
-0.000259602
0.000282094
-0.000264223
0.000312568
-0.000266197
0.000342139
-0.000265464
0.000371252
-0.000262029
0.00040048
-0.000255984
0.000430528
-0.000247541
0.00046225
-0.000237071
0.000496784
0.000535602
-0.000225195
-4.15432e-06
-5.50527e-05
-1.41067e-05
-0.000118017
-2.79725e-05
-0.000146121
-4.43325e-05
-0.000148947
-6.21382e-05
-0.000134135
-8.06245e-05
-0.000107575
-9.92311e-05
-7.36829e-05
-0.000117536
-3.5673e-05
-0.000135205
4.18843e-06
-0.000151958
4.43602e-05
-0.000167544
8.38375e-05
-0.000181734
0.000122
-0.000194314
0.000158497
-0.000205083
0.000193166
-0.000213861
0.000225976
-0.000220481
0.000257004
-0.000224802
0.000286415
-0.000226703
0.000314469
-0.000226091
0.000341527
-0.000222908
0.000368069
-0.000217145
0.000394718
-0.000208867
0.00042225
-0.000198241
0.000451624
-0.000185576
0.000484119
0.000521453
-0.000171427
-3.97615e-06
-5.10766e-05
-1.34274e-05
-0.000108566
-2.64698e-05
-0.000133078
-4.16811e-05
-0.000133736
-5.8014e-05
-0.000117802
-7.47106e-05
-9.08784e-05
-9.12237e-05
-5.71698e-05
-0.000107151
-1.97461e-05
-0.000122182
1.92202e-05
-0.000136068
5.82456e-05
-0.00014859
9.63602e-05
-0.000159557
0.000132966
-0.00016879
0.000167731
-0.00017613
0.000200505
-0.00018143
0.000231277
-0.000184563
0.000260137
-0.000185418
0.00028727
-0.0001839
0.000312951
-0.000179934
0.000337561
-0.00017347
0.000361605
-0.000164492
0.000385739
-0.000153041
0.0004108
-0.000139252
0.000437834
-0.000123386
0.000468254
0.000504007
-0.00010594
-3.78298e-06
-4.72936e-05
-1.2706e-05
-9.96425e-05
-2.48956e-05
-0.000120889
-3.89295e-05
-0.000119702
-5.376e-05
-0.000102971
-6.86313e-05
-7.6007e-05
-8.30032e-05
-4.27979e-05
-9.64854e-05
-6.26387e-06
-0.000108787
3.15221e-05
-0.000119681
6.91392e-05
-0.000128977
0.000105656
-0.000136512
0.000140501
-0.00014214
0.000173358
-0.000145731
0.000204096
-0.00014717
0.000232716
-0.000146359
0.000259326
-0.000143212
0.000284123
-0.000137658
0.000307396
-0.000129637
0.00032954
-0.000119108
0.000351076
-0.000106053
0.000372684
-9.04996e-05
0.000395247
-7.25587e-05
0.000419893
-5.24613e-05
0.000448156
0.000482209
-3.06634e-05
-3.59793e-06
-4.36957e-05
-1.20177e-05
-9.12228e-05
-2.33962e-05
-0.00010951
-3.63088e-05
-0.000106789
-4.97029e-05
-8.95774e-05
-6.28187e-05
-6.28912e-05
-7.51158e-05
-3.05008e-05
-8.62092e-05
4.82957e-06
-9.58192e-05
4.11321e-05
-0.000103734
7.70537e-05
-0.000109784
0.000111706
-0.000113827
0.000144544
-0.000115741
0.000175272
-0.000115419
0.000203774
-0.000112769
0.000230066
-0.000107711
0.000254268
-0.000100178
0.00027659
-9.01141e-05
0.000297333
-7.74737e-05
0.0003169
-6.22219e-05
0.000335824
-4.43427e-05
0.000354805
-2.38596e-05
0.000374764
-8.71949e-07
0.000396905
2.44012e-05
0.000422883
0.000455091
5.15191e-05
-3.44185e-06
-4.02538e-05
-1.14296e-05
-8.3235e-05
-2.21024e-05
-9.88375e-05
-3.40263e-05
-9.48652e-05
-4.61371e-05
-7.74667e-05
-5.76644e-05
-5.13639e-05
-6.80606e-05
-2.01046e-05
-7.69391e-05
1.3708e-05
-8.40236e-05
4.82165e-05
-8.91107e-05
8.21408e-05
-9.20434e-05
0.000114639
-9.26941e-05
0.000145195
-9.09553e-05
0.000173534
-8.67342e-05
0.000199553
-7.99505e-05
0.000223282
-7.05355e-05
0.000244853
-5.84304e-05
0.000264485
-4.35861e-05
0.000282488
-2.59618e-05
0.000299276
-5.5274e-06
0.000315389
1.77299e-05
0.000331547
4.37849e-05
0.000348709
7.25354e-05
0.000368155
0.000103752
0.000391667
0.000421867
0.000136976
-3.33204e-06
-3.69218e-05
-1.09975e-05
-7.55695e-05
-2.11221e-05
-8.87129e-05
-3.2253e-05
-8.37343e-05
-4.33066e-05
-6.64131e-05
-5.34955e-05
-4.1175e-05
-6.22588e-05
-1.13413e-05
-6.92016e-05
2.06509e-05
-7.40449e-05
5.30599e-05
-7.65874e-05
8.46833e-05
-7.66774e-05
0.000114729
-7.41944e-05
0.000142712
-6.90379e-05
0.000168377
-6.11205e-05
0.000191636
-5.0365e-05
0.000212527
-3.67022e-05
0.00023119
-2.00708e-05
0.000247853
-4.16897e-07
0.000262835
2.23051e-05
0.000276554
4.81288e-05
0.000289566
7.70669e-05
0.000302609
0.000109089
0.000316687
0.000144077
0.000333167
0.000181767
0.000353977
0.000381989
0.000221644
-3.28123e-06
-3.36405e-05
-1.07616e-05
-6.80891e-05
-2.05331e-05
-7.89414e-05
-3.11121e-05
-7.31554e-05
-4.13881e-05
-5.61371e-05
-5.05508e-05
-3.20122e-05
-5.80214e-05
-3.87072e-06
-6.33919e-05
2.60214e-05
-6.63757e-05
5.60437e-05
-6.67682e-05
8.50758e-05
-6.44176e-05
0.000112378
-5.92046e-05
0.000137499
-5.10291e-05
0.000160202
-3.98017e-05
0.000180408
-2.54393e-05
0.000198164
-7.8627e-06
0.000213613
1.30042e-05
0.000226986
3.72333e-05
0.000238605
6.4889e-05
0.000248898
9.60216e-05
0.000258433
0.000130653
0.000267978
0.000168751
0.000278589
0.000210176
0.000291742
0.000254605
0.000309548
0.000335173
0.000301421
-3.29658e-06
-3.0344e-05
-1.07437e-05
-6.0642e-05
-2.03765e-05
-6.93087e-05
-3.06684e-05
-6.28635e-05
-4.0475e-05
-4.63304e-05
-4.89591e-05
-2.35282e-05
-5.55202e-05
2.69037e-06
-5.97347e-05
3.02359e-05
-6.13053e-05
5.76144e-05
-6.00208e-05
8.37913e-05
-5.57255e-05
0.000108083
-4.82973e-05
0.000130071
-3.7632e-05
0.000149536
-2.3633e-05
0.000166409
-6.20465e-06
0.000180736
1.47511e-05
0.000192657
3.93362e-05
0.000202401
6.76544e-05
0.000210287
9.98061e-05
0.000216746
0.000135877
0.000222362
0.000175917
0.000227937
0.000219906
0.0002346
0.000267683
0.000243965
0.000318852
0.000258379
0.000281377
0.000372648
-3.37887e-06
-2.69651e-05
-1.09445e-05
-5.30764e-05
-2.06519e-05
-5.96013e-05
-3.09202e-05
-5.25952e-05
-4.05655e-05
-3.66851e-05
-4.87204e-05
-1.53733e-05
-5.47618e-05
8.73184e-06
-5.82493e-05
3.37233e-05
-5.88732e-05
5.82383e-05
-5.64143e-05
8.13324e-05
-5.07115e-05
0.00010238
-4.1638e-05
0.000120998
-2.90834e-05
0.000136982
-1.29412e-05
0.000150267
6.90033e-06
0.000160894
3.05637e-05
0.000168994
5.81849e-05
0.00017478
8.99122e-05
0.00017856
0.0001259
0.000180759
0.00016629
0.000181971
0.00021119
0.000183038
0.000260614
0.000185177
0.000314401
0.000190178
0.000372081
0.000200699
0.000220764
0.000432695
-3.522e-06
-2.34431e-05
-1.13422e-05
-4.52562e-05
-2.13145e-05
-4.9629e-05
-3.17942e-05
-4.21156e-05
-4.15536e-05
-2.69257e-05
-4.96941e-05
-7.23278e-06
-5.55697e-05
1.46074e-05
-5.87226e-05
3.68763e-05
-5.88312e-05
5.83469e-05
-5.56678e-05
7.8169e-05
-4.90654e-05
9.57778e-05
-3.88924e-05
0.000110825
-2.50322e-05
0.000123122
-7.36869e-06
0.000132603
1.4226e-05
0.0001393
3.98998e-05
0.00014332
6.98266e-05
0.000144853
0.000104206
0.00014418
0.00014326
0.000141705
0.000187211
0.00013802
0.00023625
0.000133999
0.000290464
0.000130962
0.00034973
0.000130912
0.000413521
0.000136908
0.00015363
0.000480654
-3.71283e-06
-1.97302e-05
-1.18923e-05
-3.70767e-05
-2.22747e-05
-3.92466e-05
-3.31447e-05
-3.12456e-05
-4.32285e-05
-1.68419e-05
-5.15956e-05
1.13433e-06
-5.7577e-05
2.05888e-05
-6.06981e-05
3.99974e-05
-6.06248e-05
5.82736e-05
-5.71205e-05
7.46647e-05
-5.00122e-05
8.86695e-05
-3.91633e-05
9.99755e-05
-2.44522e-05
0.00010841
-5.755e-06
0.000113906
1.7069e-05
0.000116476
4.41896e-05
0.0001162
7.58145e-05
0.000113229
0.000112194
0.0001078
0.000153621
0.000100279
0.000200409
9.12317e-05
0.000252859
8.15499e-05
0.000311172
7.26484e-05
0.000375309
6.67748e-05
0.000444736
6.74818e-05
8.03147e-05
0.000518051
-3.93161e-06
-1.57986e-05
-1.25289e-05
-2.84794e-05
-2.34013e-05
-2.83742e-05
-3.47591e-05
-1.98878e-05
-4.5281e-05
-6.32003e-06
-5.40042e-05
9.85757e-06
-6.02363e-05
2.68208e-05
-6.34844e-05
4.32455e-05
-6.34004e-05
5.81896e-05
-5.97365e-05
7.10008e-05
-5.23113e-05
8.12443e-05
-4.09817e-05
8.8646e-05
-2.5621e-05
9.30497e-05
-6.09929e-06
9.43846e-05
1.77322e-05
9.26442e-05
4.60566e-05
8.78752e-05
7.91043e-05
8.01808e-05
0.000117163
6.97411e-05
0.000160582
5.68601e-05
0.000209761
4.20529e-05
0.000265114
2.61966e-05
0.000326985
1.07778e-05
0.000395472
-1.71242e-06
0.000470109
-7.15571e-06
1.10107e-06
0.000549323
-4.15311e-06
-1.16455e-05
-1.31693e-05
-1.94632e-05
-2.45294e-05
-1.7014e-05
-3.63697e-05
-8.04747e-06
-4.73209e-05
4.63112e-06
-5.63866e-05
1.89232e-05
-6.28482e-05
3.32825e-05
-6.61913e-05
4.65886e-05
-6.60486e-05
5.80469e-05
-6.21556e-05
6.71078e-05
-5.43165e-05
7.34052e-05
-4.23766e-05
7.67061e-05
-2.62002e-05
7.68733e-05
-5.65148e-06
7.38359e-05
1.94223e-05
6.75704e-05
4.92069e-05
5.80907e-05
8.39365e-05
4.54512e-05
0.000123909
2.97688e-05
0.000169496
1.12726e-05
0.000221147
-9.59814e-06
0.000279363
-3.20194e-05
0.000344623
-5.44819e-05
0.000417203
-7.42924e-05
0.000496798
-8.67509e-05
-8.3874e-05
0.000581773
-4.34849e-06
-7.29703e-06
-1.37191e-05
-1.00926e-05
-2.54722e-05
-5.26091e-06
-3.76732e-05
4.15348e-06
-4.89046e-05
1.58626e-05
-5.81339e-05
2.81525e-05
-6.46113e-05
3.97599e-05
-6.77936e-05
4.97709e-05
-6.72855e-05
5.75388e-05
-6.27962e-05
6.26185e-05
-5.41051e-05
6.47141e-05
-4.1036e-05
6.3637e-05
-2.34365e-05
5.92737e-05
-1.16063e-06
5.15601e-05
2.59457e-05
4.0464e-05
5.80596e-05
2.59768e-05
9.53957e-05
8.11513e-06
0.000138223
-1.30587e-05
0.000186883
-3.73875e-05
0.000241805
-6.45197e-05
0.000303505
-9.37193e-05
0.000372543
-0.00012352
0.000449372
-0.000151122
0.00053394
-0.000171318
-0.000174667
0.000624733
-4.48789e-06
-2.80914e-06
-1.40811e-05
-4.9939e-07
-2.60367e-05
6.69467e-06
-3.83555e-05
1.64723e-05
-4.95723e-05
2.70793e-05
-5.86133e-05
3.71935e-05
-6.46904e-05
4.58369e-05
-6.72209e-05
5.23014e-05
-6.57698e-05
5.60878e-05
-6.00062e-05
5.68549e-05
-4.96709e-05
5.43788e-05
-3.45532e-05
4.85193e-05
-1.4473e-05
3.91935e-05
1.07322e-05
2.63549e-05
4.12177e-05
9.97852e-06
7.71412e-05
-9.94664e-06
0.000118673
-3.34164e-05
0.000166009
-6.03946e-05
0.000219392
-9.07707e-05
0.000279139
-0.000124267
0.000345671
-0.000160251
0.00041952
-0.000197369
0.000501248
-0.00023285
0.00059111
-0.00026118
-0.000271518
0.000687961
-4.54348e-06
1.73434e-06
-1.41645e-05
9.12164e-06
-2.60419e-05
1.85721e-05
-3.81214e-05
2.85518e-05
-4.88899e-05
3.78478e-05
-5.72271e-05
4.55308e-05
-6.22963e-05
5.09062e-05
-6.34639e-05
5.3469e-05
-6.02409e-05
5.28648e-05
-5.22418e-05
4.88557e-05
-3.91546e-05
4.12915e-05
-2.07207e-05
3.00855e-05
3.2777e-06
1.51951e-05
3.30257e-05
-3.39308e-06
6.86788e-05
-2.56746e-05
0.000110365
-5.16328e-05
0.000158186
-8.12373e-05
0.000212223
-0.000114432
0.000272556
-0.000151103
0.00033929
-0.000191001
0.00041262
-0.000233581
0.000492892
-0.000277642
0.000580642
-0.000320599
0.000676406
-0.000356945
-0.000374774
0.000779662
-4.49258e-06
6.22691e-06
-1.38943e-05
1.85233e-05
-2.53372e-05
3.0015e-05
-3.67234e-05
3.99381e-05
-4.64926e-05
4.76169e-05
-5.3472e-05
5.25102e-05
-5.67669e-05
5.4201e-05
-5.56804e-05
5.23825e-05
-4.96575e-05
4.68419e-05
-3.82456e-05
3.74439e-05
-2.10692e-05
2.41151e-05
2.18627e-06
6.82998e-06
3.17816e-05
-1.44002e-05
6.79246e-05
-3.95361e-05
0.000110766
-6.85163e-05
0.000160393
-0.000101259
0.000216817
-0.000137662
0.000279976
-0.000177591
0.000349732
-0.000220859
0.000425906
-0.000267176
0.000508346
-0.000316021
0.000597047
-0.000366342
0.000692308
-0.00041586
0.000794801
-0.000459438
-0.000484754
0.00090478
-4.32032e-06
1.05472e-05
-1.32195e-05
2.74225e-05
-2.38179e-05
4.06134e-05
-3.39871e-05
5.01073e-05
-4.21211e-05
5.57509e-05
-4.69902e-05
5.73793e-05
-4.76339e-05
5.48447e-05
-4.32836e-05
4.80322e-05
-3.33099e-05
3.68682e-05
-1.71875e-05
2.13215e-05
5.52604e-06
1.40157e-06
3.52004e-05
-2.28444e-05
7.21344e-05
-5.13342e-05
0.00011655
-8.39518e-05
0.000168581
-0.000120547
0.000228258
-0.000160936
0.00029549
-0.000204894
0.00037005
-0.00025215
0.000451564
-0.000302374
0.000539534
-0.000355145
0.00063339
-0.000409877
0.000732638
-0.000465591
0.000837107
-0.000520329
0.000947283
-0.000569615
-0.000601623
0.00106415
-4.02148e-06
1.45687e-05
-1.21188e-05
3.55198e-05
-2.14357e-05
4.99303e-05
-2.98272e-05
5.84988e-05
-3.56454e-05
6.15691e-05
-3.7602e-05
5.93359e-05
-3.46666e-05
5.19094e-05
-2.5996e-05
3.93616e-05
-1.08859e-05
2.1758e-05
1.1259e-05
-8.23352e-07
4.094e-05
-2.82794e-05
7.85699e-05
-6.04743e-05
0.000124469
-9.72331e-05
0.000178853
-0.000138336
0.00024182
-0.000183514
0.000313327
-0.000232443
0.000393168
-0.000284735
0.000480951
-0.000339933
0.000576081
-0.000397503
0.000677749
-0.000456813
0.000784969
-0.000517097
0.000896698
-0.000577319
0.00101211
-0.000635737
0.00113108
-0.000688584
-0.000725658
0.00125511
-3.60087e-06
1.81696e-05
-1.06017e-05
4.25207e-05
-1.82014e-05
5.753e-05
-2.42529e-05
6.45502e-05
-2.7072e-05
6.43883e-05
-2.53138e-05
5.75776e-05
-1.78804e-05
4.4476e-05
-3.85812e-06
2.53393e-05
1.75241e-05
3.75767e-07
4.69175e-05
-3.02167e-05
8.48633e-05
-6.62252e-05
0.000131792
-0.000107403
0.000188017
-0.000153458
0.000253719
-0.000204038
0.00032893
-0.000258726
0.000413518
-0.000317031
0.000507161
-0.000378378
0.00060933
-0.000442102
0.000719262
-0.000507436
0.000835937
-0.000573488
0.000958054
-0.000639214
0.00108406
-0.00070333
0.00121234
-0.000764012
0.00134171
-0.000817956
-0.000857951
0.001474
-3.07237e-06
2.12419e-05
-8.70586e-06
4.81541e-05
-1.41802e-05
6.30043e-05
-1.73593e-05
6.77294e-05
-1.65313e-05
6.35603e-05
-1.03012e-05
5.13475e-05
2.48792e-06
3.16869e-05
2.2808e-05
5.01919e-06
5.14788e-05
-2.8295e-05
8.9183e-05
-6.79209e-05
0.00013647
-0.000113512
0.000193752
-0.000164685
0.000261292
-0.000220998
0.000339193
-0.000281939
0.000427387
-0.00034692
0.000525624
-0.000415268
0.00063347
-0.000486224
0.000750306
-0.000558938
0.000875332
-0.000632462
0.00100757
-0.000705725
0.00114585
-0.000777494
0.00128876
-0.000846244
0.0014344
-0.000909648
0.00157928
-0.000962838
-0.000994401
0.00171573
-2.45691e-06
2.36989e-05
-6.49074e-06
5.2188e-05
-9.47901e-06
6.59926e-05
-9.30857e-06
6.75589e-05
-4.24974e-06
5.85015e-05
7.13104e-06
3.99667e-05
2.60349e-05
1.27831e-05
5.34719e-05
-2.24178e-05
9.02829e-05
-6.5106e-05
0.000137147
-0.000114785
0.00019458
-0.000170945
0.000262924
-0.000233028
0.000342336
-0.00030041
0.000432783
-0.000372386
0.000534035
-0.000448172
0.000645672
-0.000526905
0.0007671
-0.000607652
0.000897589
-0.000689427
0.00103633
-0.000771205
0.00118255
-0.000851942
0.00133566
-0.000930602
0.00149557
-0.00100616
0.00166342
-0.0010775
0.00184381
-0.00114323
-0.00120004
0.00204944
-1.77784e-06
2.54767e-05
-4.02576e-06
5.44359e-05
-4.22644e-06
6.61933e-05
-2.99015e-07
6.36315e-05
9.49236e-06
4.87101e-05
2.66046e-05
2.28545e-05
5.22624e-05
-1.28748e-05
8.74862e-05
-5.76416e-05
0.000133103
-0.000110722
0.000189743
-0.000171425
0.000257834
-0.000239036
0.000337586
-0.000312781
0.000428985
-0.000391809
0.000531784
-0.000475185
0.000645511
-0.000561899
0.000769485
-0.000650879
0.000902851
-0.000741017
0.00104462
-0.000831198
0.00119375
-0.000920337
0.00134924
-0.00100742
0.00151021
-0.00109158
0.00167614
-0.00117209
0.00184709
-0.00124845
0.00202405
-0.00132019
-0.00138302
0.00220704
-1.05918e-06
2.65359e-05
-1.38265e-06
5.47594e-05
1.44369e-06
6.3367e-05
9.46187e-06
5.56133e-05
2.44014e-05
3.37706e-05
4.77236e-05
-4.67799e-07
8.06512e-05
-4.58023e-05
0.00012418
-0.000101171
0.000179079
-0.000165621
0.000245877
-0.000238223
0.00032485
-0.000318009
0.000416008
-0.000403939
0.000519086
-0.000494887
0.000633547
-0.000589646
0.000758598
-0.00068695
0.000893218
-0.0007855
0.00103621
-0.000884005
0.00118623
-0.000981226
0.00134192
-0.00107602
0.00150189
-0.0011674
0.00166487
-0.00125455
0.00182969
-0.00133691
0.0019954
-0.00141415
0.00216109
-0.00148588
-0.00154779
0.00232585
-3.20915e-07
2.68568e-05
1.37672e-06
5.30617e-05
7.41353e-06
5.73302e-05
1.97886e-05
4.32383e-05
4.02116e-05
1.33476e-05
7.01267e-05
-3.03829e-05
0.000110723
-8.63983e-05
0.00016293
-0.000153378
0.000227406
-0.000230097
0.000304517
-0.000315334
0.000394318
-0.00040781
0.00049654
-0.000506162
0.000610594
-0.00060894
0.000735578
-0.000714631
0.000870315
-0.000821687
0.0010134
-0.000928582
0.00116325
-0.00103386
0.00131819
-0.00113617
0.00147652
-0.00123435
0.00163657
-0.00132745
0.00179677
-0.00141475
0.00195566
-0.0014958
0.00211189
-0.00157038
0.00226424
-0.00163823
-0.00169582
0.00241228
4.23095e-07
2.64337e-05
4.20734e-06
4.92775e-05
1.35945e-05
4.7943e-05
3.05378e-05
2.6295e-05
5.67126e-05
-1.28273e-05
9.35197e-05
-6.719e-05
0.000142077
-0.000134955
0.000203198
-0.0002145
0.000277371
-0.00030427
0.000364726
-0.000402689
0.00046502
-0.000508104
0.000577631
-0.000618773
0.000701572
-0.000732882
0.000835525
-0.000848583
0.000977894
-0.000964056
0.00112688
-0.00107757
0.00128055
-0.00118753
0.00143695
-0.00129257
0.00159417
-0.00139157
0.00175039
-0.00148367
0.00190397
-0.00156834
0.00205347
-0.00164529
0.00219759
-0.00171451
0.00233532
-0.00177596
-0.00182711
0.00246661
1.16643e-06
2.52673e-05
7.08499e-06
4.33589e-05
1.99342e-05
3.50939e-05
4.16182e-05
4.6109e-06
7.37605e-05
-4.49696e-05
0.000117687
-0.000111117
0.000174399
-0.000191667
0.000244537
-0.000284637
0.000328344
-0.000388077
0.00042564
-0.000499984
0.000535804
-0.000618268
0.00065779
-0.000740759
0.000790159
-0.000865251
0.000931146
-0.000989571
0.00107874
-0.00111165
0.0012308
-0.00122962
0.00138513
-0.00134186
0.0015396
-0.00144704
0.00169225
-0.00154421
0.00184131
-0.00163273
0.00198528
-0.00171232
0.00212296
-0.00178297
0.0022534
-0.00184494
0.00237597
-0.00189853
-0.00194215
0.002491
1.90997e-06
2.33573e-05
1.0006e-05
3.52629e-05
2.6416e-05
1.86839e-05
5.29887e-05
-2.19618e-05
9.12729e-05
-8.32538e-05
0.000142481
-0.000162325
0.000207443
-0.000256629
0.000286555
-0.000363749
0.00037974
-0.000481262
0.000486422
-0.000606666
0.000605529
-0.000737376
0.000735533
-0.000870763
0.000874519
-0.00100424
0.00102028
-0.00113534
0.00117046
-0.00126183
0.00132263
-0.0013818
0.00147449
-0.00149371
0.00162389
-0.00159645
0.00176898
-0.0016893
0.00190823
-0.00177198
0.00204046
-0.00184455
0.00216484
-0.00190735
0.00228087
-0.00196097
0.00238837
-0.00200604
-0.00204179
0.00248801
2.66053e-06
2.06968e-05
1.29834e-05
2.494e-05
3.30516e-05
-1.38428e-06
6.46458e-05
-5.3556e-05
0.00010921
-0.000127818
0.000167794
-0.000220909
0.00024099
-0.000329825
0.000328874
-0.000451633
0.00043096
-0.000583349
0.000546201
-0.000721907
0.000673012
-0.000864187
0.000809353
-0.0010071
0.00095284
-0.00114772
0.00110089
-0.00128339
0.00125087
-0.00141181
0.00140026
-0.00153118
0.00154675
-0.0016402
0.00168837
-0.00173807
0.00182354
-0.00182447
0.0019511
-0.00189954
0.0020703
-0.00196374
0.00218076
-0.00201781
0.00228245
-0.00206266
0.00237562
-0.0020992
-0.00212735
0.00246118
3.42873e-06
1.7268e-05
1.60408e-05
1.23279e-05
3.98691e-05
-2.52126e-05
7.66047e-05
-9.02916e-05
0.000127546
-0.000178759
0.000193521
-0.000286884
0.000274807
-0.000411112
0.000371073
-0.000547898
0.000481345
-0.000693621
0.000604034
-0.000844595
0.000737008
-0.000997161
0.000877722
-0.00114782
0.00102338
-0.00129338
0.00117112
-0.00143113
0.00131819
-0.00155888
0.0014621
-0.00167509
0.00160074
-0.00177884
0.00173244
-0.00186977
0.00185605
-0.00194808
0.00197084
-0.00201434
0.00207655
-0.00206945
0.00217324
-0.0021145
0.0022613
-0.00215071
0.00234132
-0.00217923
-0.00220043
0.0024144
4.22647e-06
1.30416e-05
1.92044e-05
-2.65008e-06
4.68989e-05
-5.2907e-05
8.88777e-05
-0.00013227
0.000146241
-0.000236122
0.000219523
-0.000360166
0.000308604
-0.000500193
0.000412656
-0.000651951
0.000530145
-0.00081111
0.000658896
-0.000973347
0.000796233
-0.0011345
0.000939156
-0.00129074
0.00108456
-0.00143879
0.00122944
-0.00157601
0.00137109
-0.00170053
0.00150723
-0.00181123
0.00163607
-0.00190768
0.00175641
-0.00199011
0.00186754
-0.00205921
0.00196924
-0.00211604
0.00206168
-0.00216189
0.00214534
-0.00219817
0.00222093
-0.0022263
0.00228929
-0.00224759
-0.00226272
0.00235158
5.0645e-06
7.97706e-06
2.24965e-05
-2.00821e-05
5.41603e-05
-8.45708e-05
0.000101454
-0.000179564
0.000165215
-0.000299883
0.000245602
-0.000440552
0.000342007
-0.000596599
0.00045303
-0.000762973
0.000576519
-0.000934599
0.000709709
-0.00110654
0.000849419
-0.00127421
0.000992294
-0.00143362
0.00113506
-0.00158155
0.00127474
-0.00171569
0.00140883
-0.00183462
0.00153541
-0.0019378
0.00165315
-0.00202542
0.00176133
-0.00209829
0.00185976
-0.00215763
0.00194866
-0.00220494
0.00202861
-0.00224184
0.00210039
-0.00226995
0.00216492
-0.00229083
0.00222318
-0.00230585
-0.00231587
0.00227633
5.95066e-06
2.02639e-06
2.59292e-05
-4.00606e-05
6.16519e-05
-0.000120294
0.000114288
-0.0002322
0.000184332
-0.000369928
0.000271481
-0.000527701
0.000374556
-0.000699673
0.000491515
-0.000879933
0.000619573
-0.00106266
0.0007554
-0.00124236
0.000895401
-0.00141421
0.001036
-0.00157422
0.00117393
-0.00171948
0.0013064
-0.00184816
0.00143126
-0.00195949
0.00154707
-0.0020536
0.00165301
-0.00213137
0.00174888
-0.00219416
0.00183494
-0.0022437
0.00191183
-0.00228183
0.00198039
-0.0023104
0.00204164
-0.00233119
0.00209659
-0.00234578
0.00214627
-0.00235553
-0.00236137
0.00219178
6.88866e-06
-4.86227e-06
2.95016e-05
-6.26735e-05
6.93456e-05
-0.000160138
0.000127287
-0.000290141
0.000203394
-0.000446035
0.000296812
-0.000621118
0.000405712
-0.000808574
0.00052738
-0.0010016
0.000658404
-0.00119368
0.000794971
-0.00137893
0.0009332
-0.00155244
0.00106946
-0.00171048
0.00120064
-0.00185066
0.00132432
-0.00197183
0.00143881
-0.00207398
0.0015432
-0.00215799
0.00163721
-0.00222538
0.00172111
-0.00227806
0.00179557
-0.00231815
0.0018615
-0.00234776
0.00191997
-0.00236887
0.00197207
-0.00238329
0.00201886
-0.00239258
0.00206135
-0.00239802
-0.00240051
0.00210049
7.87769e-06
-1.274e-05
3.31981e-05
-8.7994e-05
7.71844e-05
-0.000204124
0.000140317
-0.000353274
0.000222147
-0.000527866
0.000321181
-0.000720152
0.000434892
-0.000922285
0.000559881
-0.00112659
0.000692171
-0.00132597
0.000827578
-0.00151434
0.000962093
-0.00168695
0.0010922
-0.00184059
0.00121512
-0.00197358
0.0013289
-0.0020856
0.00143239
-0.00217748
0.00152522
-0.00225082
0.00160762
-0.00230778
0.00168027
-0.00235071
0.00174413
-0.00238201
0.00180031
-0.00240394
0.00184999
-0.00241855
0.00189428
-0.00242758
0.00193419
-0.0024325
0.00197065
-0.00243447
-0.00243435
0.00200449
8.91261e-06
-2.16526e-05
3.69892e-05
-0.000116071
8.50852e-05
-0.00025222
0.000153204
-0.000421393
0.00024029
-0.000614951
0.00034414
-0.000824003
0.000461498
-0.00103964
0.000588316
-0.00125341
0.000720147
-0.0014578
0.000852583
-0.00164678
0.000981659
-0.00181603
0.00110414
-0.00196308
0.0012177
-0.00208714
0.00132092
-0.00218883
0.00141325
-0.0022698
0.0014948
-0.00233238
0.00156625
-0.00237923
0.00162858
-0.00241304
0.00168297
-0.0024364
0.00173063
-0.00245161
0.00177275
-0.00246067
0.00181041
-0.00246523
0.00184454
-0.00246662
0.00187593
-0.00246587
-0.00246371
0.00190529
9.98445e-06
-3.1637e-05
4.08331e-05
-0.000146919
9.29426e-05
-0.000304329
0.000165746
-0.000494196
0.000257494
-0.0007067
0.000365227
-0.000931736
0.000484961
-0.00115938
0.000612071
-0.00138052
0.00074177
-0.0015875
0.000869594
-0.0017746
0.000991787
-0.00193822
0.00110554
-0.00207683
0.00120905
-0.00219065
0.0013015
-0.00228127
0.00138286
-0.00235116
0.00145372
-0.00240324
0.00151508
-0.00244058
0.00156814
-0.0024661
0.0016142
-0.00248245
0.00165449
-0.0024919
0.00169016
-0.00249634
0.00172219
-0.00249726
0.00175141
-0.00249585
0.00177851
-0.00249297
-0.00248923
0.00180403
1.10811e-05
-4.27182e-05
4.46787e-05
-0.000180517
0.000100635
-0.000360286
0.00017772
-0.000571281
0.000273422
-0.000802402
0.000383996
-0.00104231
0.000504774
-0.00128015
0.000630656
-0.0015064
0.000756674
-0.00171352
0.000878472
-0.0018964
0.000992657
-0.0020524
0.00109694
-0.00218111
0.00119011
-0.00228382
0.00127191
-0.00236307
0.0013428
-0.00242205
0.00140374
-0.00246418
0.00145597
-0.00249281
0.00150082
-0.00251096
0.00153962
-0.00252125
0.00157357
-0.00252585
0.00160372
-0.00252649
0.00163095
-0.0025245
0.00165597
-0.00252087
0.00167935
-0.00251634
-0.00251139
0.00170151
1.21882e-05
-5.49064e-05
4.84675e-05
-0.000216796
0.00010803
-0.000419848
0.000188899
-0.000652149
0.000287745
-0.000901248
0.000400045
-0.00115461
0.00052052
-0.00140063
0.000643733
-0.00162961
0.000764696
-0.00183448
0.000879324
-0.00201103
0.000984701
-0.00215778
0.00107912
-0.00227553
0.00116198
-0.00236668
0.00123352
-0.00243462
0.00129462
-0.00248315
0.00134651
-0.00251608
0.00139059
-0.00253688
0.00142824
-0.0025486
0.00146074
-0.00255375
0.00148922
-0.00255433
0.00151462
-0.00255189
0.0015377
-0.00254758
0.00155906
-0.00254223
0.00157915
-0.00253643
-0.00253054
0.0015983
1.32896e-05
-6.8196e-05
5.21371e-05
-0.000255644
0.000114994
-0.000482705
0.000199059
-0.000736215
0.000300161
-0.00100235
0.000413034
-0.00126748
0.000531895
-0.00151949
0.000651123
-0.00174884
0.000765872
-0.00194923
0.000872465
-0.00211762
0.000968549
-0.00225386
0.00105302
-0.00236
0.00112584
-0.00243949
0.0011877
-0.00249648
0.00123979
-0.00253525
0.00128354
-0.00255983
0.0013204
-0.00257374
0.00135173
-0.00257994
0.00137876
-0.00258078
0.0014025
-0.00257807
0.00142376
-0.00257315
0.0014432
-0.00256701
0.00146129
-0.00256032
0.0014784
-0.00255354
-0.00254692
0.00149478
1.43679e-05
-8.25638e-05
5.56233e-05
-0.000296899
0.000121391
-0.000548472
0.000207992
-0.000822817
0.000310408
-0.00110477
0.000422702
-0.00137978
0.000538714
-0.0016355
0.000652804
-0.00186293
0.000760416
-0.00205684
0.000858385
-0.00221559
0.000944964
-0.00234044
0.00101965
-0.00243469
0.00108288
-0.00250272
0.00113574
-0.00254934
0.00117965
-0.00257915
0.00121611
-0.00259629
0.0012466
-0.00260423
0.00127241
-0.00260576
0.00129466
-0.00260303
0.00131422
-0.00259764
0.00133182
-0.00259075
0.00134798
-0.00258317
0.0013631
-0.00257544
0.00137745
-0.00256789
-0.0025607
0.00139123
1.54053e-05
-9.79692e-05
5.88623e-05
-0.000340356
0.000127095
-0.000616705
0.000215513
-0.000911234
0.000318275
-0.00120753
0.000428871
-0.00149037
0.000540916
-0.00174755
0.0006489
-0.00197092
0.000748688
-0.00215663
0.000837695
-0.0023046
0.00091479
-0.00241754
0.000980019
-0.00249991
0.00103425
-0.00255696
0.00107885
-0.00259393
0.00111536
-0.00261567
0.00114534
-0.00262627
0.0011702
-0.00262909
0.00119114
-0.0026267
0.00120916
-0.00262104
0.00122501
-0.00261349
0.0012393
-0.00260504
0.00125246
-0.00259633
0.0012648
-0.00258778
0.00127654
-0.00257963
-0.00257198
0.00128782
1.63841e-05
-0.000114353
6.17928e-05
-0.000385765
0.000131993
-0.000686905
0.000221465
-0.00100071
0.000323608
-0.00130967
0.000431456
-0.00159822
0.00053855
-0.00185464
0.000639657
-0.00207202
0.000731158
-0.00224813
0.000811084
-0.00238452
0.0008789
-0.00248535
0.000935137
-0.00255615
0.000981011
-0.00260283
0.00101807
-0.002631
0.00104795
-0.00264554
0.00107215
-0.00265048
0.00109201
-0.00264895
0.00110862
-0.00264331
0.00112284
-0.00263525
0.00113532
-0.00262598
0.00114656
-0.00261628
0.00115691
-0.00260668
0.00116661
-0.00259748
0.00117584
-0.00258886
-0.00258084
0.0011847
1.72866e-05
-0.00013164
6.43582e-05
-0.000432836
0.000135983
-0.00075853
0.000225729
-0.00109045
0.000326315
-0.00141026
0.000430455
-0.00170236
0.000531769
-0.00195595
0.000625421
-0.00216568
0.000708374
-0.00233108
0.000779281
-0.00245543
0.000838153
-0.00254423
0.000885939
-0.00260394
0.00092411
-0.002641
0.000954333
-0.00266122
0.000978239
-0.00266944
0.000997278
-0.00266952
0.00101267
-0.00266434
0.00102537
-0.00265601
0.00103613
-0.00264601
0.0010455
-0.00263534
0.00105387
-0.00262466
0.00106154
-0.00261435
0.00106871