/*--------------------------------*- C++ -*----------------------------------*\
  =========                 |
  \\      /  F ield         | OpenFOAM: The Open Source CFD Toolbox
   \\    /   O peration     | Website:  https://openfoam.org
    \\  /    A nd           | Version:  6.0
     \\/     M anipulation  |
\*---------------------------------------------------------------------------*/
FoamFile
{
    version     2.0;
    format      ascii;
    class       volScalarField;
    location    "80";
    object      p;
}
// * * * * * * * * * * * * * * * * * * * * * * * * * * * * * * * * * * * * * //

dimensions      [0 2 -2 0 0 0 0];

internalField   nonuniform List<scalar> 
8000
(
-0.448004
-0.4486
-0.448767
-0.448776
-0.448932
-0.449383
-0.450187
-0.45134
-0.452802
-0.454524
-0.456456
-0.458556
-0.460789
-0.463133
-0.465565
-0.46806
-0.47061
-0.473352
-0.476392
-0.478365
-0.438616
-0.439626
-0.439982
-0.440051
-0.440179
-0.440512
-0.441104
-0.44195
-0.443016
-0.444255
-0.445626
-0.447093
-0.448631
-0.450225
-0.451865
-0.453533
-0.455231
-0.457083
-0.459176
-0.460342
-0.429095
-0.430506
-0.431047
-0.431173
-0.431272
-0.431484
-0.43186
-0.432393
-0.433052
-0.433794
-0.434583
-0.435392
-0.436203
-0.437009
-0.437808
-0.438595
-0.439378
-0.440266
-0.441331
-0.441633
-0.41958
-0.42138
-0.422099
-0.422281
-0.422352
-0.422445
-0.422603
-0.422821
-0.423067
-0.423304
-0.4235
-0.423633
-0.423694
-0.423685
-0.423611
-0.423479
-0.423306
-0.423183
-0.423175
-0.422586
-0.410217
-0.412393
-0.413285
-0.413523
-0.413566
-0.41354
-0.413481
-0.413384
-0.413216
-0.412943
-0.412538
-0.411986
-0.411284
-0.41044
-0.409473
-0.4084
-0.407247
-0.406091
-0.404996
-0.403521
-0.401161
-0.403699
-0.404755
-0.405046
-0.405061
-0.404916
-0.404641
-0.404229
-0.403647
-0.402863
-0.401855
-0.400611
-0.399136
-0.397448
-0.395574
-0.393546
-0.391403
-0.389208
-0.387031
-0.384699
-0.392571
-0.39545
-0.396661
-0.397001
-0.396985
-0.39672
-0.39623
-0.395503
-0.394509
-0.393216
-0.391603
-0.389665
-0.387412
-0.384869
-0.382076
-0.379082
-0.37594
-0.372702
-0.369455
-0.366302
-0.384608
-0.387801
-0.389153
-0.389534
-0.389484
-0.389097
-0.388393
-0.387356
-0.385955
-0.384156
-0.381942
-0.379307
-0.376269
-0.37286
-0.369131
-0.365152
-0.360993
-0.356699
-0.35238
-0.348438
-0.37743
-0.380899
-0.382375
-0.382789
-0.3827
-0.382193
-0.381278
-0.379939
-0.378139
-0.375845
-0.373035
-0.369707
-0.365878
-0.361587
-0.356899
-0.351901
-0.346685
-0.341297
-0.335875
-0.331154
-0.371188
-0.374881
-0.376458
-0.376896
-0.376766
-0.376141
-0.375027
-0.373399
-0.37122
-0.368449
-0.365061
-0.36105
-0.356429
-0.35124
-0.345556
-0.339488
-0.33315
-0.326589
-0.319994
-0.31447
-0.366011
-0.369864
-0.371513
-0.371966
-0.371796
-0.371065
-0.369768
-0.367879
-0.36535
-0.362136
-0.358201
-0.353529
-0.348127
-0.342029
-0.335314
-0.328108
-0.32055
-0.312698
-0.304799
-0.298401
-0.362002
-0.365936
-0.367625
-0.368084
-0.367879
-0.367057
-0.365607
-0.363493
-0.36066
-0.357052
-0.352621
-0.347333
-0.341179
-0.334181
-0.326406
-0.317992
-0.309099
-0.29979
-0.290391
-0.282981
-0.359229
-0.363149
-0.36484
-0.365297
-0.365064
-0.364174
-0.362605
-0.360313
-0.357234
-0.353298
-0.348439
-0.342604
-0.335757
-0.327894
-0.319061
-0.309387
-0.299043
-0.288087
-0.27692
-0.268275
-0.357709
-0.361514
-0.363164
-0.363608
-0.363353
-0.362417
-0.360768
-0.35835
-0.355088
-0.350897
-0.345692
-0.339395
-0.331939
-0.323282
-0.313433
-0.302493
-0.290618
-0.277839
-0.264596
-0.254389
-0.357416
-0.360998
-0.362558
-0.362971
-0.362696
-0.361732
-0.360034
-0.357535
-0.354146
-0.349768
-0.344298
-0.337628
-0.32966
-0.320308
-0.309531
-0.297379
-0.283972
-0.26927
-0.253666
-0.241481
-0.358271
-0.361525
-0.362942
-0.363298
-0.362992
-0.362005
-0.360275
-0.357722
-0.354246
-0.349732
-0.344056
-0.337089
-0.328699
-0.318761
-0.307177
-0.293936
-0.279097
-0.262522
-0.244418
-0.229811
-0.360158
-0.362986
-0.3642
-0.364463
-0.364101
-0.363076
-0.36131
-0.358709
-0.355158
-0.350527
-0.344678
-0.337461
-0.328719
-0.318292
-0.306038
-0.291882
-0.27582
-0.25762
-0.237158
-0.219753
-0.362932
-0.36525
-0.366199
-0.366318
-0.365859
-0.364761
-0.362932
-0.360262
-0.356621
-0.351869
-0.345852
-0.338406
-0.329359
-0.318531
-0.305743
-0.290864
-0.273837
-0.254366
-0.231901
-0.211408
-0.366441
-0.36818
-0.368802
-0.368716
-0.3681
-0.366878
-0.364938
-0.362158
-0.358395
-0.353499
-0.347309
-0.339658
-0.33037
-0.319261
-0.30614
-0.290832
-0.273197
-0.252816
-0.228622
-0.204727
-0.370535
-0.371648
-0.37188
-0.371522
-0.37068
-0.369266
-0.367156
-0.364212
-0.360287
-0.355224
-0.348866
-0.341057
-0.331649
-0.320496
-0.307466
-0.292439
-0.275292
-0.255531
-0.231721
-0.206702
-0.375094
-0.37555
-0.375334
-0.374632
-0.373491
-0.371812
-0.369464
-0.366302
-0.362171
-0.35692
-0.350404
-0.342497
-0.333102
-0.322162
-0.309687
-0.295785
-0.280696
-0.264788
-0.249292
-0.240651
-0.380029
-0.379812
-0.379097
-0.377984
-0.376469
-0.374455
-0.371806
-0.36837
-0.363995
-0.358534
-0.351864
-0.343894
-0.33458
-0.323948
-0.312112
-0.299309
-0.285937
-0.272594
-0.260453
-0.253394
-0.385298
-0.384399
-0.383143
-0.381557
-0.379604
-0.37719
-0.374182
-0.370425
-0.365768
-0.360076
-0.353245
-0.345218
-0.336002
-0.325679
-0.314428
-0.302538
-0.290416
-0.278592
-0.267764
-0.259827
-0.390898
-0.389313
-0.38748
-0.385373
-0.382927
-0.380061
-0.376644
-0.372523
-0.367547
-0.361592
-0.354572
-0.34646
-0.337297
-0.327201
-0.316375
-0.305099
-0.293722
-0.282628
-0.272204
-0.263324
-0.396863
-0.394586
-0.392148
-0.389482
-0.386504
-0.383145
-0.379278
-0.37475
-0.369411
-0.363146
-0.355885
-0.347621
-0.338421
-0.328423
-0.317829
-0.306892
-0.295893
-0.285101
-0.274746
-0.265177
-0.403254
-0.40027
-0.397207
-0.393957
-0.390418
-0.386534
-0.382179
-0.377196
-0.371438
-0.364795
-0.35721
-0.348698
-0.339342
-0.329291
-0.318743
-0.307924
-0.297061
-0.286359
-0.275973
-0.266036
-0.410143
-0.406429
-0.402724
-0.398876
-0.394756
-0.390318
-0.385432
-0.379937
-0.373684
-0.36657
-0.358555
-0.349673
-0.340027
-0.329774
-0.31911
-0.308241
-0.297364
-0.286645
-0.276206
-0.266104
-0.417599
-0.413124
-0.408764
-0.404309
-0.399593
-0.394568
-0.389098
-0.383014
-0.376167
-0.368467
-0.359895
-0.350509
-0.340435
-0.329845
-0.318933
-0.307894
-0.296906
-0.286114
-0.27562
-0.265468
-0.425676
-0.420405
-0.415379
-0.410311
-0.404979
-0.399325
-0.393201
-0.386428
-0.378866
-0.370444
-0.361175
-0.35115
-0.340522
-0.329478
-0.318215
-0.306922
-0.295759
-0.284856
-0.274296
-0.264128
-0.434404
-0.428299
-0.422599
-0.41691
-0.410934
-0.404591
-0.397718
-0.390134
-0.381713
-0.372422
-0.362315
-0.351525
-0.340234
-0.328645
-0.316959
-0.305353
-0.293971
-0.282926
-0.272283
-0.262087
-0.443781
-0.436807
-0.430427
-0.424104
-0.417439
-0.410325
-0.402584
-0.394041
-0.384605
-0.374294
-0.363216
-0.351552
-0.339514
-0.327318
-0.31516
-0.303203
-0.291573
-0.28036
-0.269609
-0.259355
-0.453766
-0.445899
-0.438833
-0.431852
-0.424436
-0.416442
-0.407686
-0.398019
-0.387405
-0.37593
-0.363769
-0.351148
-0.338307
-0.325465
-0.312809
-0.300482
-0.288584
-0.277183
-0.2663
-0.255956
-0.464282
-0.45551
-0.447751
-0.440076
-0.431821
-0.422811
-0.412871
-0.401904
-0.389954
-0.37719
-0.363858
-0.350227
-0.336553
-0.323052
-0.309891
-0.297186
-0.285012
-0.27341
-0.262375
-0.251917
-0.475208
-0.465534
-0.457077
-0.448655
-0.439447
-0.429257
-0.417948
-0.405505
-0.392077
-0.377927
-0.363368
-0.348703
-0.334193
-0.320039
-0.306381
-0.293304
-0.280854
-0.269046
-0.257847
-0.247264
-0.486384
-0.475827
-0.466664
-0.457421
-0.447121
-0.435567
-0.422699
-0.408618
-0.393596
-0.377995
-0.362186
-0.346493
-0.331167
-0.316383
-0.302248
-0.288813
-0.276096
-0.264085
-0.25272
-0.242013
-0.497606
-0.486205
-0.47632
-0.466163
-0.454607
-0.441494
-0.426884
-0.411026
-0.39433
-0.377251
-0.360204
-0.343514
-0.327412
-0.312034
-0.297452
-0.283683
-0.270715
-0.258513
-0.246988
-0.23617
-0.508633
-0.496441
-0.485813
-0.474627
-0.461636
-0.446769
-0.430253
-0.412517
-0.394108
-0.375562
-0.357317
-0.339685
-0.322859
-0.306937
-0.291947
-0.277874
-0.26468
-0.252307
-0.240636
-0.229731
-0.519186
-0.506268
-0.494867
-0.482521
-0.467908
-0.451105
-0.432554
-0.412881
-0.392764
-0.372799
-0.353425
-0.334923
-0.31744
-0.30103
-0.285679
-0.271341
-0.257954
-0.245435
-0.233642
-0.222681
-0.528951
-0.515385
-0.503171
-0.489521
-0.473104
-0.454213
-0.433543
-0.411923
-0.390146
-0.368841
-0.348429
-0.329145
-0.311083
-0.29425
-0.278593
-0.264035
-0.250493
-0.237863
-0.225978
-0.215001
-0.53759
-0.523461
-0.510387
-0.495286
-0.476902
-0.455809
-0.432987
-0.409459
-0.386111
-0.363576
-0.342237
-0.32227
-0.303717
-0.286532
-0.27063
-0.255905
-0.242254
-0.229553
-0.217615
-0.206666
-0.544745
-0.530144
-0.516157
-0.499464
-0.478981
-0.455624
-0.430672
-0.405327
-0.380531
-0.3569
-0.334759
-0.314221
-0.295269
-0.277814
-0.261734
-0.246901
-0.233195
-0.220469
-0.208522
-0.197651
-0.550049
-0.535068
-0.520114
-0.501706
-0.479036
-0.453409
-0.426407
-0.399378
-0.373291
-0.348718
-0.325914
-0.304924
-0.285675
-0.268034
-0.251851
-0.236976
-0.223273
-0.210576
-0.198669
-0.187931
-0.553134
-0.537869
-0.521898
-0.501681
-0.476786
-0.448946
-0.420025
-0.391485
-0.364289
-0.338943
-0.315624
-0.29431
-0.274871
-0.257139
-0.240934
-0.226089
-0.212454
-0.199844
-0.188032
-0.177486
-0.553647
-0.538191
-0.521165
-0.499081
-0.471982
-0.442044
-0.411386
-0.381542
-0.353439
-0.327502
-0.303826
-0.28232
-0.262806
-0.245081
-0.228941
-0.214204
-0.200708
-0.188248
-0.176593
-0.1663
-0.551254
-0.535699
-0.517597
-0.493635
-0.464413
-0.432549
-0.400376
-0.369463
-0.34067
-0.314333
-0.290463
-0.268904
-0.249435
-0.23182
-0.215838
-0.201293
-0.188012
-0.175771
-0.164339
-0.154364
-0.545655
-0.530092
-0.510915
-0.485114
-0.453909
-0.420342
-0.386912
-0.355182
-0.325929
-0.299389
-0.275492
-0.254023
-0.234722
-0.217328
-0.201602
-0.187338
-0.174353
-0.162403
-0.151266
-0.141677
-0.536589
-0.521108
-0.500886
-0.473337
-0.440345
-0.40534
-0.370937
-0.338658
-0.309179
-0.282637
-0.258884
-0.237652
-0.218647
-0.201587
-0.186219
-0.172329
-0.159724
-0.148144
-0.137376
-0.128242
-0.523845
-0.508537
-0.48733
-0.458174
-0.423641
-0.387496
-0.352423
-0.319871
-0.290405
-0.264062
-0.240623
-0.219777
-0.201199
-0.184589
-0.169685
-0.156266
-0.144131
-0.133003
-0.122684
-0.114073
-0.507266
-0.492223
-0.470123
-0.439551
-0.403762
-0.366803
-0.331373
-0.298825
-0.269607
-0.243663
-0.220711
-0.200398
-0.182379
-0.166339
-0.152008
-0.13916
-0.127586
-0.116996
-0.107209
-0.0991912
-0.486754
-0.47207
-0.449201
-0.417446
-0.380719
-0.343286
-0.307816
-0.275547
-0.246809
-0.22146
-0.199161
-0.17953
-0.162201
-0.146851
-0.133203
-0.12103
-0.110113
-0.100154
-0.090986
-0.0836335
-0.462276
-0.448045
-0.424563
-0.391893
-0.354569
-0.317008
-0.281811
-0.250088
-0.222053
-0.197487
-0.176005
-0.157198
-0.140689
-0.126148
-0.113295
-0.101901
-0.0917419
-0.0825102
-0.0740579
-0.0674506
-0.433859
-0.42018
-0.396265
-0.362976
-0.325408
-0.288065
-0.253446
-0.222523
-0.195404
-0.171799
-0.151288
-0.133443
-0.117879
-0.104262
-0.092314
-0.0818037
-0.0725038
-0.0641027
-0.0564712
-0.0506962
-0.401597
-0.38857
-0.364423
-0.33083
-0.293375
-0.256588
-0.222835
-0.192952
-0.166945
-0.144468
-0.12507
-0.108314
-0.0938118
-0.0812303
-0.0702921
-0.0607682
-0.0524292
-0.0449664
-0.0382672
-0.0334018
-0.365643
-0.353368
-0.32921
-0.295636
-0.258647
-0.222738
-0.190122
-0.161499
-0.136784
-0.115583
-0.0974275
-0.0818748
-0.068539
-0.0570924
-0.0472625
-0.038823
-0.0315473
-0.0251356
-0.0194782
-0.0155643
-0.32621
-0.314789
-0.290848
-0.257621
-0.221439
-0.186709
-0.155479
-0.128313
-0.105049
-0.0852548
-0.0684511
-0.0541975
-0.042116
-0.0318887
-0.0232525
-0.0159886
-0.00987868
-0.00463492
-0.000123098
0.00280814
-0.283566
-0.273098
-0.249608
-0.217049
-0.181998
-0.148727
-0.119105
-0.0935708
-0.0718941
-0.0536155
-0.038252
-0.0253716
-0.0146094
-0.00566347
0.00171331
0.00772616
0.0125797
0.0165439
0.0197801
0.0215679
-0.238028
-0.228608
-0.205803
-0.174222
-0.140602
-0.109042
-0.0812255
-0.057474
-0.0374984
-0.020821
-0.0069622
0.00449614
0.0138995
0.0215263
0.0275995
0.0323078
0.0358373
0.0383998
0.0400954
0.0402874
-0.189957
-0.181675
-0.159783
-0.129471
-0.0975592
-0.0679341
-0.0420948
-0.0202517
-0.00206694
0.012949
0.0252676
0.0352889
0.043332
0.0496408
0.0544036
0.0577877
0.0599352
0.0608746
0.0604768
0.0584972
-0.139748
-0.132688
-0.111925
-0.0831557
-0.0531997
-0.0257076
-0.00199222
0.0178377
0.0341625
0.0474807
0.0582563
0.0668726
0.0736236
0.0787168
0.0823024
0.0845157
0.0853777
0.0845081
0.081435
0.0772671
-0.0878293
-0.0820656
-0.0626343
-0.0356534
-0.00787353
0.0173138
0.0387786
0.0565057
0.0709124
0.0825056
0.0917471
0.0990161
0.104601
0.108707
0.111494
0.113112
0.113445
0.11161
0.106937
0.102425
-0.0346499
-0.030246
-0.0123298
0.0126434
0.0380567
0.0607929
0.0798989
0.0954436
0.107874
0.117703
0.125391
0.13132
0.135791
0.139046
0.141331
0.142918
0.143759
0.142849
0.139982
0.143533
0.019334
0.0223229
0.0385607
0.0613363
0.0842232
0.104388
0.121046
0.13434
0.14474
0.152756
0.15884
0.163367
0.166636
0.168901
0.170424
0.171462
0.171989
0.171537
0.171053
0.176708
0.0736507
0.0751825
0.0896031
0.110025
0.130258
0.147759
0.161902
0.172893
0.181216
0.187376
0.191813
0.194889
0.1969
0.198095
0.198723
0.198997
0.19889
0.19812
0.197643
0.202138
0.127829
0.127875
0.140367
0.158312
0.1758
0.190573
0.202157
0.21081
0.217023
0.221289
0.224032
0.225597
0.226264
0.226272
0.225847
0.225179
0.224257
0.22287
0.2218
0.224722
0.181401
0.179946
0.190426
0.205811
0.220496
0.232511
0.241518
0.24782
0.25191
0.254264
0.255286
0.2553
0.254568
0.253307
0.251719
0.249963
0.248019
0.245703
0.24373
0.245194
0.233909
0.230954
0.239369
0.252144
0.264006
0.273264
0.279705
0.283668
0.285643
0.286088
0.285382
0.28383
0.281671
0.279102
0.276301
0.273402
0.270367
0.267038
0.264084
0.264155
0.284906
0.280466
0.286795
0.296951
0.306007
0.31254
0.316453
0.318115
0.318008
0.316568
0.314153
0.311043
0.307457
0.303572
0.299544
0.295481
0.291337
0.286981
0.283046
0.281804
0.333965
0.32807
0.33232
0.339884
0.346186
0.35006
0.351513
0.350937
0.348804
0.345529
0.341445
0.336811
0.331826
0.326648
0.321411
0.316204
0.310978
0.305624
0.300738
0.298251
0.380675
0.373371
0.375582
0.380618
0.384252
0.385562
0.384649
0.381923
0.377842
0.372802
0.367112
0.36101
0.354675
0.348248
0.341845
0.335538
0.329277
0.322978
0.317183
0.313523
0.424648
0.415996
0.416236
0.418841
0.419927
0.418798
0.415639
0.410873
0.404945
0.39823
0.391016
0.383519
0.375903
0.36829
0.360782
0.353435
0.346203
0.339019
0.332368
0.327606
0.46552
0.455596
0.453962
0.454266
0.452954
0.449537
0.444274
0.4376
0.429945
0.421663
0.413023
0.404222
0.395407
0.386687
0.378147
0.369833
0.361702
0.353702
0.346252
0.340464
0.502955
0.491847
0.488461
0.486625
0.483093
0.477564
0.470362
0.46193
0.452685
0.44296
0.433006
0.423005
0.413087
0.403348
0.393861
0.384661
0.375711
0.366969
0.358785
0.352052
0.536641
0.524453
0.519463
0.515674
0.510124
0.502681
0.493724
0.483702
0.473018
0.461988
0.450847
0.43976
0.428845
0.418187
0.407845
0.397848
0.388163
0.378756
0.369906
0.362317
0.566299
0.553146
0.54672
0.541192
0.533849
0.524709
0.514198
0.502767
0.490809
0.478625
0.466433
0.454386
0.44259
0.431118
0.420021
0.409322
0.39899
0.388999
0.379558
0.371207
0.591681
0.577688
0.570016
0.562981
0.55409
0.543487
0.531638
0.518995
0.50594
0.492761
0.479664
0.46679
0.454235
0.442064
0.430318
0.419015
0.40813
0.397637
0.387686
0.378676
0.612569
0.597873
0.589159
0.58087
0.570695
0.558877
0.545917
0.532268
0.518303
0.504299
0.49045
0.476889
0.463705
0.450953
0.438669
0.426866
0.415524
0.404616
0.394237
0.384677
0.628782
0.613525
0.603991
0.594716
0.583531
0.570761
0.556928
0.542488
0.527808
0.513155
0.498715
0.484614
0.470935
0.457726
0.445019
0.432822
0.42112
0.409886
0.39917
0.389175
0.640171
0.624504
0.614381
0.604402
0.592495
0.579042
0.564584
0.549576
0.534382
0.519261
0.504396
0.489906
0.47587
0.462332
0.449319
0.436839
0.424879
0.413409
0.402447
0.392138
0.646624
0.630703
0.620231
0.609838
0.597505
0.583647
0.568817
0.55347
0.537968
0.522567
0.507446
0.492722
0.478469
0.464733
0.451536
0.438884
0.426768
0.415155
0.404041
0.393543
0.648065
0.632048
0.621475
0.610965
0.598507
0.584527
0.569582
0.554129
0.538528
0.523036
0.507831
0.49303
0.478706
0.464903
0.451643
0.438935
0.426765
0.415102
0.403936
0.393374
0.644455
0.628503
0.618078
0.607751
0.595473
0.581657
0.566857
0.551532
0.536043
0.520652
0.505536
0.490815
0.476565
0.462829
0.449631
0.436979
0.424861
0.413243
0.402121
0.391625
0.635792
0.620065
0.610037
0.600194
0.588401
0.575035
0.56064
0.545676
0.530512
0.515412
0.50056
0.486079
0.472047
0.458511
0.445498
0.433017
0.421055
0.409577
0.398599
0.388296
0.622111
0.606767
0.597384
0.588321
0.577316
0.564683
0.550951
0.536583
0.521953
0.507335
0.492919
0.478835
0.465165
0.451962
0.439257
0.427062
0.41536
0.404116
0.393378
0.383395
0.603482
0.588678
0.58018
0.572189
0.562268
0.550648
0.537833
0.52429
0.510402
0.496453
0.482644
0.469112
0.455947
0.443209
0.430934
0.419137
0.407798
0.39688
0.386477
0.376938
0.580015
0.5659
0.558518
0.551881
0.543335
0.533
0.521351
0.508857
0.495914
0.482818
0.469783
0.456955
0.444435
0.432289
0.420563
0.409275
0.3984
0.387901
0.377926
0.36895
0.551853
0.53857
0.532526
0.527513
0.520619
0.511831
0.501589
0.490363
0.47856
0.466495
0.454395
0.44242
0.43068
0.419253
0.408191
0.397521
0.387211
0.377219
0.367761
0.359462
0.519175
0.506858
0.502358
0.499223
0.494245
0.487257
0.478652
0.468902
0.458429
0.447566
0.436557
0.425577
0.414749
0.40416
0.393875
0.383928
0.374279
0.364883
0.356026
0.348513
0.482195
0.470968
0.468201
0.467179
0.464366
0.459414
0.452665
0.444588
0.435624
0.426127
0.416357
0.406507
0.396715
0.38708
0.377681
0.368556
0.359664
0.35095
0.342772
0.336146
0.441157
0.431135
0.430269
0.431575
0.431154
0.428459
0.423769
0.417551
0.410265
0.402284
0.393893
0.385301
0.376662
0.36809
0.359677
0.351474
0.343429
0.335479
0.328056
0.32241
0.39634
0.387624
0.388805
0.392629
0.394805
0.394568
0.392125
0.387937
0.382482
0.376159
0.369274
0.362057
0.35468
0.347272
0.339942
0.332749
0.32564
0.318533
0.311936
0.307356
0.348053
0.34073
0.34408
0.350582
0.355538
0.357938
0.357908
0.355903
0.352419
0.34788
0.342616
0.336881
0.330863
0.324712
0.31855
0.312453
0.306361
0.300174
0.294467
0.291035
0.296632
0.290775
0.29639
0.305702
0.313588
0.318779
0.32131
0.321622
0.320231
0.317586
0.314044
0.309882
0.30531
0.300494
0.295577
0.29065
0.285653
0.280458
0.2757
0.273492
0.242443
0.23811
0.246054
0.258274
0.269213
0.277324
0.282537
0.285279
0.286083
0.285424
0.283688
0.281174
0.278116
0.2747
0.271091
0.267398
0.263561
0.259424
0.25567
0.254758
0.185875
0.183108
0.193418
0.208609
0.222689
0.233817
0.241809
0.247071
0.250151
0.251549
0.251681
0.250872
0.249377
0.247407
0.245148
0.242733
0.240108
0.237085
0.234382
0.23484
0.127344
0.126169
0.138848
0.157036
0.174311
0.188523
0.199364
0.20721
0.212621
0.216126
0.218166
0.219094
0.21919
0.218687
0.217797
0.216681
0.215295
0.213419
0.211799
0.213701
0.0672837
0.0677115
0.0827308
0.103903
0.12439
0.141722
0.155451
0.165919
0.173695
0.179331
0.183295
0.185966
0.187649
0.1886
0.189057
0.189215
0.189045
0.1883
0.187763
0.191203
0.00614965
0.00817437
0.0254735
0.049578
0.0732564
0.0937093
0.110338
0.123441
0.133589
0.141356
0.147234
0.151627
0.154863
0.157221
0.15897
0.160339
0.161311
0.161607
0.162076
0.167124
-0.0555884
-0.051988
-0.0325016
-0.00555554
0.0212564
0.0447996
0.064312
0.0800366
0.0925417
0.102418
0.110179
0.11625
0.120974
0.124647
0.127562
0.129974
0.131848
0.132822
0.133941
0.140741
-0.117449
-0.112309
-0.0907584
-0.0610999
-0.0312491
-0.00467825
0.017674
0.035985
0.0508121
0.0627564
0.0723479
0.0800241
0.0861375
0.0909874
0.094884
0.0981354
0.100712
0.102039
0.103159
0.11129
-0.178941
-0.172313
-0.148851
-0.116646
-0.0838868
-0.0543806
-0.0292552
-0.00841013
0.00869325
0.0226613
0.0340363
0.0432664
0.0507076
0.0566478
0.0613814
0.0652411
0.0681831
0.0690211
0.0674374
0.0731105
-0.239574
-0.231521
-0.206329
-0.171779
-0.136275
-0.103954
-0.0761426
-0.05283
-0.0335048
-0.017562
-0.00445557
0.00626221
0.0149331
0.0218009
0.0270629
0.0309097
0.0332329
0.0330133
0.0293674
0.0255102
-0.298866
-0.289462
-0.262742
-0.22608
-0.188028
-0.153039
-0.122649
-0.0969454
-0.0754533
-0.0575724
-0.0427514
-0.0305367
-0.0205809
-0.0126385
-0.00652994
-0.00208704
0.000737071
0.00150612
-0.000442322
-0.00407051
-0.356339
-0.345671
-0.317646
-0.279138
-0.238765
-0.201281
-0.168435
-0.140427
-0.116821
-0.0970214
-0.0804656
-0.0666794
-0.0552854
-0.0459958
-0.0385888
-0.0328622
-0.0286293
-0.0258477
-0.0247735
-0.0259071
-0.411535
-0.399697
-0.370612
-0.330549
-0.288116
-0.248336
-0.21318
-0.182966
-0.157308
-0.135616
-0.117315
-0.101906
-0.0889797
-0.0782073
-0.0693256
-0.0621088
-0.0563204
-0.0517011
-0.0482267
-0.0468206
-0.464021
-0.451116
-0.421228
-0.379931
-0.335727
-0.293881
-0.256584
-0.224287
-0.19666
-0.173128
-0.153107
-0.136079
-0.121609
-0.109341
-0.0989823
-0.0902885
-0.0830034
-0.076799
-0.0715652
-0.0682889
-0.513399
-0.499535
-0.469111
-0.426922
-0.381268
-0.337615
-0.298377
-0.264144
-0.234659
-0.209369
-0.187687
-0.169082
-0.153104
-0.139375
-0.127583
-0.117468
-0.108759
-0.101107
-0.094424
-0.0898206
-0.559309
-0.544599
-0.513912
-0.47119
-0.424434
-0.379267
-0.338315
-0.302322
-0.271114
-0.244173
-0.220916
-0.200808
-0.183385
-0.168256
-0.155097
-0.14364
-0.133603
-0.124623
-0.116633
-0.110893
-0.601441
-0.585997
-0.555319
-0.512437
-0.464953
-0.418591
-0.376182
-0.338631
-0.305862
-0.2774
-0.25268
-0.231165
-0.212385
-0.195943
-0.181506
-0.168802
-0.157546
-0.147365
-0.138178
-0.13133
-0.639534
-0.62347
-0.593064
-0.5504
-0.502581
-0.455371
-0.411789
-0.372908
-0.338762
-0.308934
-0.282882
-0.260078
-0.240051
-0.2224
-0.20679
-0.192944
-0.180581
-0.16932
-0.159056
-0.151141
-0.673387
-0.656813
-0.62693
-0.584859
-0.537111
-0.489423
-0.444976
-0.405016
-0.369697
-0.338676
-0.311443
-0.287484
-0.266335
-0.247593
-0.230923
-0.216045
-0.202685
-0.190465
-0.179247
-0.170352
-0.70286
-0.685881
-0.656752
-0.615638
-0.568372
-0.520591
-0.475609
-0.434841
-0.398575
-0.366548
-0.338298
-0.313331
-0.291193
-0.271486
-0.253874
-0.23808
-0.223835
-0.210768
-0.198716
-0.188941
-0.727873
-0.710592
-0.682422
-0.642606
-0.596232
-0.548754
-0.503582
-0.462295
-0.42532
-0.39249
-0.363397
-0.337577
-0.314591
-0.294048
-0.275617
-0.259022
-0.244001
-0.230196
-0.217418
-0.206853
-0.748417
-0.730927
-0.703889
-0.665684
-0.620596
-0.573821
-0.528817
-0.487312
-0.44988
-0.416458
-0.386704
-0.360191
-0.336501
-0.315255
-0.296127
-0.278845
-0.263155
-0.248715
-0.235308
-0.224036
-0.764544
-0.746935
-0.721167
-0.684845
-0.641416
-0.595737
-0.551263
-0.509851
-0.472221
-0.438426
-0.408198
-0.381157
-0.356909
-0.335092
-0.315388
-0.297531
-0.281275
-0.266295
-0.252353
-0.240452
-0.776371
-0.758728
-0.734331
-0.700116
-0.658683
-0.61448
-0.570897
-0.529893
-0.492332
-0.458387
-0.427876
-0.40047
-0.37581
-0.353553
-0.333393
-0.315069
-0.298347
-0.282919
-0.268532
-0.25608
-0.784076
-0.76648
-0.743514
-0.711578
-0.672435
-0.630062
-0.587722
-0.547442
-0.510219
-0.47635
-0.445746
-0.418141
-0.393214
-0.370646
-0.350144
-0.33146
-0.314368
-0.298581
-0.283834
-0.27091
-0.787893
-0.770424
-0.748913
-0.719366
-0.682755
-0.642531
-0.60177
-0.562525
-0.525907
-0.492341
-0.461836
-0.434194
-0.409142
-0.386387
-0.365658
-0.346715
-0.329346
-0.313284
-0.298258
-0.28494
-0.788109
-0.770843
-0.750775
-0.723668
-0.689769
-0.651971
-0.613099
-0.575188
-0.539441
-0.506401
-0.476184
-0.448667
-0.423627
-0.400808
-0.37996
-0.360856
-0.343298
-0.327041
-0.311813
-0.298176
-0.785051
-0.768065
-0.749401
-0.724724
-0.693649
-0.6585
-0.621795
-0.585499
-0.550879
-0.518588
-0.488844
-0.461608
-0.436716
-0.41395
-0.393086
-0.373915
-0.356252
-0.339874
-0.324517
-0.310633
-0.779081
-0.762454
-0.74513
-0.722816
-0.694609
-0.662271
-0.627969
-0.593546
-0.560298
-0.52897
-0.499881
-0.473081
-0.448465
-0.425864
-0.405083
-0.385933
-0.368244
-0.351815
-0.336396
-0.322336
-0.770586
-0.754397
-0.738332
-0.718268
-0.692902
-0.66347
-0.631758
-0.599435
-0.567786
-0.537627
-0.509371
-0.483155
-0.458943
-0.436614
-0.416009
-0.396962
-0.37932
-0.362907
-0.347487
-0.333315
-0.759968
-0.744298
-0.729402
-0.711432
-0.688816
-0.662316
-0.633321
-0.603288
-0.573445
-0.544649
-0.517398
-0.491909
-0.468221
-0.446267
-0.425926
-0.40706
-0.389534
-0.373196
-0.357833
-0.343612
-0.74763
-0.732558
-0.718742
-0.702683
-0.682668
-0.659054
-0.632844
-0.605245
-0.577386
-0.550134
-0.524049
-0.499429
-0.476382
-0.4549
-0.434906
-0.416293
-0.398947
-0.382739
-0.367483
-0.35327
-0.733969
-0.719572
-0.706749
-0.692403
-0.674792
-0.653955
-0.630531
-0.605458
-0.579728
-0.554182
-0.529417
-0.5058
-0.483509
-0.462594
-0.443025
-0.424731
-0.407623
-0.391595
-0.376491
-0.36234
-0.719364
-0.705714
-0.693807
-0.680973
-0.665537
-0.647307
-0.626606
-0.604097
-0.580602
-0.556898
-0.533596
-0.511111
-0.489685
-0.469428
-0.450361
-0.432448
-0.41563
-0.399827
-0.384914
-0.370871
-0.704168
-0.69133
-0.680273
-0.668758
-0.655248
-0.63941
-0.621307
-0.60134
-0.580142
-0.55839
-0.536676
-0.515446
-0.494993
-0.475484
-0.45699
-0.439519
-0.423039
-0.4075
-0.392809
-0.378915
-0.6887
-0.67673
-0.666471
-0.656097
-0.644262
-0.630568
-0.614884
-0.59738
-0.57849
-0.558765
-0.538747
-0.518886
-0.499511
-0.480839
-0.462991
-0.446016
-0.429919
-0.414678
-0.400236
-0.386523
-0.673243
-0.662184
-0.652683
-0.643294
-0.632892
-0.621075
-0.607589
-0.592416
-0.575794
-0.558134
-0.539895
-0.521504
-0.503309
-0.485563
-0.468432
-0.45201
-0.436338
-0.421425
-0.407249
-0.393741
-0.658037
-0.647917
-0.639144
-0.630611
-0.621417
-0.61121
-0.599674
-0.58665
-0.572208
-0.556606
-0.5402
-0.523367
-0.506448
-0.489719
-0.47338
-0.457568
-0.442361
-0.427801
-0.413903
-0.400613
-0.643277
-0.634113
-0.626045
-0.61826
-0.610079
-0.601224
-0.591375
-0.580286
-0.567889
-0.554295
-0.539744
-0.524536
-0.508982
-0.493358
-0.477889
-0.462746
-0.448046
-0.433863
-0.420249
-0.407177
-0.62912
-0.620911
-0.613529
-0.606408
-0.599071
-0.591335
-0.582913
-0.57352
-0.562994
-0.551316
-0.538604
-0.525066
-0.510953
-0.496522
-0.482006
-0.467598
-0.453448
-0.439665
-0.426334
-0.413471
-0.615681
-0.608414
-0.601698
-0.595174
-0.588542
-0.581718
-0.574476
-0.566537
-0.55768
-0.547788
-0.536863
-0.525007
-0.512397
-0.499244
-0.485766
-0.472166
-0.458617
-0.445259
-0.43221
-0.419531
-0.603045
-0.596692
-0.590618
-0.584634
-0.578595
-0.572508
-0.566223
-0.559499
-0.552096
-0.54383
-0.534604
-0.524415
-0.513348
-0.501548
-0.489197
-0.476487
-0.463599
-0.450699
-0.437931
-0.425405
-0.591273
-0.58579
-0.580327
-0.574832
-0.569292
-0.563797
-0.558277
-0.552548
-0.546385
-0.539566
-0.531919
-0.523348
-0.51384
-0.503457
-0.492321
-0.48059
-0.468438
-0.456041
-0.443563
-0.431156
-0.580409
-0.575737
-0.570843
-0.565788
-0.560668
-0.555646
-0.550729
-0.545802
-0.540673
-0.535115
-0.528908
-0.521877
-0.513916
-0.504995
-0.495156
-0.484503
-0.473179
-0.46135
-0.449191
-0.436891
-0.570487
-0.566553
-0.562174
-0.557508
-0.552741
-0.548094
-0.543649
-0.539359
-0.53508
-0.5306
-0.525679
-0.520086
-0.513631
-0.506193
-0.497724
-0.48825
-0.477861
-0.466692
-0.454909
-0.442732
-0.561542
-0.558254
-0.554327
-0.549996
-0.54552
-0.541171
-0.537092
-0.533304
-0.529714
-0.526144
-0.522352
-0.518074
-0.513059
-0.507099
-0.500054
-0.491859
-0.482527
-0.47214
-0.460841
-0.448912
-0.553601
-0.55085
-0.547306
-0.543258
-0.539022
-0.534908
-0.531115
-0.527721
-0.524689
-0.521876
-0.51906
-0.515964
-0.512296
-0.507779
-0.502186
-0.495354
-0.487202
-0.477734
-0.467044
-0.455546
-0.546684
-0.544348
-0.541115
-0.537303
-0.533265
-0.529343
-0.525779
-0.522701
-0.520119
-0.517935
-0.515951
-0.513898
-0.511464
-0.508325
-0.50418
-0.498774
-0.491923
-0.483524
-0.473611
-0.462971
-0.540792
-0.53874
-0.535747
-0.532132
-0.528267
-0.524514
-0.521147
-0.518334
-0.516127
-0.514466
-0.513187
-0.51204
-0.510713
-0.508857
-0.506121
-0.50217
-0.496712
-0.489479
-0.480221
-0.470653
-0.535895
-0.533996
-0.531178
-0.527735
-0.524034
-0.520448
-0.517273
-0.514704
-0.512827
-0.511614
-0.510934
-0.510565
-0.510211
-0.509524
-0.508126
-0.50564
-0.501704
-0.495964
-0.48782
-0.47775
-0.531925
-0.530055
-0.527358
-0.524073
-0.520544
-0.517146
-0.514184
-0.511869
-0.510309
-0.509501
-0.509344
-0.509646
-0.510136
-0.510487
-0.510331
-0.509284
-0.506985
-0.503135
-0.497239
-0.488703
-0.528776
-0.526828
-0.524209
-0.521079
-0.517744
-0.51457
-0.511864
-0.509839
-0.508614
-0.508202
-0.508524
-0.509414
-0.510634
-0.511884
-0.51282
-0.51307
-0.512266
-0.51007
-0.5059
-0.499244
-0.526301
-0.524194
-0.521622
-0.518655
-0.515545
-0.512644
-0.510249
-0.508569
-0.50772
-0.507723
-0.508511
-0.50994
-0.511799
-0.513818
-0.515683
-0.517043
-0.517534
-0.516783
-0.514123
-0.509546
-0.524327
-0.52201
-0.51947
-0.516678
-0.513827
-0.51125
-0.509227
-0.507954
-0.507536
-0.507991
-0.509257
-0.511205
-0.513645
-0.516337
-0.518999
-0.521314
-0.52295
-0.52354
-0.522431
-0.520065
-0.522666
-0.520123
-0.517612
-0.51501
-0.512452
-0.510246
-0.508652
-0.507843
-0.507909
-0.508857
-0.510626
-0.513091
-0.51608
-0.51938
-0.522739
-0.525883
-0.528524
-0.53033
-0.530753
-0.530482
-0.521124
-0.518372
-0.515903
-0.513509
-0.511269
-0.509472
-0.508348
-0.508046
-0.508635
-0.51011
-0.512399
-0.515384
-0.518902
-0.522761
-0.52674
-0.530601
-0.534101
-0.536957
-0.538775
-0.540284
-0.519518
-0.516601
-0.514196
-0.512027
-0.510126
-0.508756
-0.508123
-0.508349
-0.509477
-0.511487
-0.514299
-0.517792
-0.521813
-0.526186
-0.530713
-0.535189
-0.539405
-0.543132
-0.546136
-0.549014
-0.517679
-0.514663
-0.512353
-0.510422
-0.508866
-0.507927
-0.507781
-0.508524
-0.510177
-0.512701
-0.516008
-0.519976
-0.524457
-0.529285
-0.534284
-0.539273
-0.544069
-0.548492
-0.552446
-0.556287
-0.515456
-0.512422
-0.510241
-0.508556
-0.50734
-0.506812
-0.507125
-0.508346
-0.510476
-0.513461
-0.517205
-0.521583
-0.526454
-0.531661
-0.537043
-0.542437
-0.54768
-0.552634
-0.557315
-0.561779
-0.512723
-0.509757
-0.507739
-0.5063
-0.505404
-0.50525
-0.505968
-0.507602
-0.510133
-0.513496
-0.517589
-0.522287
-0.527452
-0.532939
-0.538599
-0.544283
-0.549842
-0.555181
-0.560399
-0.565228
-0.509377
-0.506564
-0.504738
-0.50354