1.275 	2.15223e-18 	-2.76991e-20 	-0.408996 	0.00460299 	-3.71837e-22
1.825 	2.15223e-18 	-1.39322e-20 	-0.357797 	-0.00797022 	3.20739e-21
2.375 	2.15223e-18 	1.38775e-18 	0.0156455 	-0.0106347 	-8.09576e-22
2.925 	2.15223e-18 	2.78958e-18 	0.220758 	-0.00826595 	-1.3028e-22
3.475 	2.15223e-18 	4.53849e-18 	0.461214 	-0.00719841 	2.97802e-22
4.025 	2.15223e-18 	6.28755e-18 	0.62396 	-0.00513553 	5.71421e-23
4.575 	2.15223e-18 	6.30203e-18 	0.746988 	-0.00358848 	-4.79754e-22
5.125 	2.15223e-18 	6.31666e-18 	0.829855 	-0.00245817 	4.01396e-22
5.675 	2.15223e-18 	6.33144e-18 	0.888842 	-0.00167597 	6.35789e-23
6.225 	2.15223e-18 	4.61166e-18 	0.928819 	-0.00109513 	1.1808e-22
