1.275 	2.15223e-18 	-2.76991e-20 	-0.173735 	0.00671277 	-2.97436e-22
1.825 	2.15223e-18 	-1.39322e-20 	-0.440515 	0.00389345 	4.73156e-21
2.375 	2.15223e-18 	-2.66896e-23 	-0.444861 	0.000185532 	-2.16729e-21
