/*--------------------------------*- C++ -*----------------------------------*\
  =========                 |
  \\      /  F ield         | OpenFOAM: The Open Source CFD Toolbox
   \\    /   O peration     | Website:  https://openfoam.org
    \\  /    A nd           | Version:  6.0
     \\/     M anipulation  |
\*---------------------------------------------------------------------------*/
FoamFile
{
    version     2.0;
    format      ascii;
    class       surfaceScalarField;
    location    "78";
    object      phi;
}
// * * * * * * * * * * * * * * * * * * * * * * * * * * * * * * * * * * * * * //

dimensions      [0 3 -1 0 0 0 0];

internalField   nonuniform List<scalar> 
24700
(
-1.09557e-06
5.93705e-05
-5.8275e-05
-4.16723e-06
0.000168624
-0.000165552
-9.06303e-06
0.000268314
-0.000263419
-1.55871e-05
0.000357666
-0.000351142
-2.34421e-05
0.0004365
-0.000428645
-3.2209e-05
0.000505309
-0.000496543
-4.1364e-05
0.000565029
-0.000555874
-5.03185e-05
0.000616786
-0.000607832
-5.84692e-05
0.000661705
-0.000653554
-6.52482e-05
0.00070076
-0.000693981
-7.01649e-05
0.000734698
-0.000729782
-7.28359e-05
0.000764027
-0.000761356
-7.30016e-05
0.00078904
-0.000788874
-7.05302e-05
0.00080987
-0.000812342
-6.54098e-05
0.000826556
-0.000831676
-5.77336e-05
0.000839094
-0.00084677
-4.7678e-05
0.000847487
-0.000857543
-3.54772e-05
0.000851775
-0.000863976
-2.13961e-05
0.000852049
-0.00086613
-5.70339e-06
0.000848449
-0.000864142
1.13553e-05
0.000841161
-0.00085822
2.95817e-05
0.000830402
-0.000848628
4.88464e-05
0.000816405
-0.00083567
6.91051e-05
0.000799381
-0.00081964
0.000779536
-0.000800853
9.04222e-05
-1.39168e-07
5.95097e-05
-8.72785e-07
0.000169357
-2.41209e-06
0.000269854
-4.83801e-06
0.000360092
-8.07435e-06
0.000439736
-1.188e-05
0.000509115
-1.58731e-05
0.000569022
-1.95757e-05
0.000620489
-2.24685e-05
0.000664598
-2.40448e-05
0.000702336
-2.38567e-05
0.00073451
-2.15488e-05
0.000761719
-1.68781e-05
0.000784369
-9.7194e-06
0.000802712
-6.0092e-08
0.000816897
1.20146e-05
0.000827019
2.6342e-05
0.00083316
4.27064e-05
0.000835411
6.0864e-05
0.000833891
8.05687e-05
0.000828745
0.000101596
0.000820133
0.000123769
0.000808229
0.000146976
0.000793199
0.000171191
0.000775165
0.00075422
0.000196508
7.29391e-07
5.87803e-05
2.16055e-06
0.000167926
3.77671e-06
0.000268238
5.2563e-06
0.000358613
6.47361e-06
0.000438519
7.4981e-06
0.000508091
8.56712e-06
0.000567953
1.00399e-05
0.000619016
1.23422e-05
0.000662296
1.59109e-05
0.000698767
2.1145e-05
0.000729276
2.83697e-05
0.000754495
3.78137e-05
0.000774925
4.96003e-05
0.000790925
6.37511e-05
0.000802746
8.01974e-05
0.000810573
9.87992e-05
0.000814558
0.000119366
0.000814844
0.000141682
0.000811576
0.000165525
0.000804901
0.000190693
0.000794966
0.000217023
0.000781899
0.000244415
0.000765807
0.000272853
0.000746727
0.000724631
0.000302442
1.48915e-06
5.72912e-05
4.85748e-06
0.000164558
9.34854e-06
0.000263746
1.4444e-05
0.000353517
1.98437e-05
0.000433119
2.54594e-05
0.000502475
3.13881e-05
0.000562024
3.78678e-05
0.000612536
4.52245e-05
0.000654939
5.3818e-05
0.000690174
6.39932e-05
0.000719101
7.60415e-05
0.000742446
9.01768e-05
0.00076079
0.000106523
0.000774579
0.000125115
0.000784154
0.000145907
0.000789781
0.000168786
0.000791678
0.000193595
0.000790035
0.000220147
0.000785024
0.000248247
0.000776801
0.000277716
0.000765497
0.000308401
0.000751214
0.000340209
0.000734
0.00037312
0.000713816
0.000690512
0.000407239
2.12526e-06
5.51659e-05
7.16139e-06
0.000159522
1.41815e-05
0.000256726
2.25199e-05
0.000345179
3.17358e-05
0.000423903
4.16044e-05
0.000492606
5.20927e-05
0.000551536
6.33205e-05
0.000601309
7.55123e-05
0.000642747
8.89466e-05
0.00067674
0.000103909
0.000704139
0.000120653
0.000725702
0.000139375
0.000742068
0.0001602
0.000753754
0.000183176
0.000761177
0.000208283
0.000764674
0.000235441
0.00076452
0.000264525
0.000760951
0.000295383
0.000754166
0.000327849
0.000744334
0.000361763
0.000731583
0.000396986
0.000715991
0.00043342
0.000697565
0.000471037
0.000676199
0.000651624
0.000509924
2.6288e-06
5.25371e-05
9.03368e-06
0.000153117
1.8187e-05
0.000247573
2.93274e-05
0.000334038
4.19117e-05
0.000411319
5.56051e-05
0.000478913
7.02613e-05
0.00053688
8.58906e-05
0.000585679
0.000102618
0.000626019
0.00012064
0.000658717
0.000140179
0.0006846
0.000161448
0.000704434
0.000184621
0.000718894
0.000209821
0.000728554
0.000237111
0.000733888
0.000266493
0.000735292
0.00029792
0.000733093
0.000331303
0.000727568
0.000366525
0.000718945
0.000403449
0.00070741
0.000441938
0.000693094
0.000481861
0.000676068
0.000523117
0.00065631
0.000565655
0.000633661
0.000607744
0.000609536
2.99573e-06
4.95414e-05
1.04522e-05
0.00014566
2.13079e-05
0.000236717
3.47575e-05
0.000320589
5.01959e-05
0.00039588
6.72086e-05
0.0004619
8.55576e-05
0.000518531
0.000105157
0.00056608
0.000126041
0.000605136
0.000148325
0.000636434
0.000172166
0.000660758
0.000197735
0.000678866
0.00022518
0.000691449
0.000254618
0.000699115
0.000286121
0.000702385
0.000319715
0.000701698
0.000355382
0.000697426
0.000393069
0.000689881
0.000432692
0.000679321
0.000474149
0.000665953
0.000517323
0.000649921
0.000562093
0.000631298
0.00060835
0.000610053
0.000656019
0.000585992
0.00055865
0.000705112
3.22641e-06
4.6315e-05
1.141e-05
0.000137477
2.35171e-05
0.00022461
3.87481e-05
0.000305358
5.64763e-05
0.000378152
7.624e-05
0.000442136
9.77342e-05
0.000497036
0.000120795
0.000543019
0.000145376
0.000580555
0.000171518
0.000610292
0.000199317
0.000632959
0.000228896
0.000649287
0.000260376
0.000659969
0.000293864
0.000665628
0.000329436
0.000666812
0.000367138
0.000663996
0.00040698
0.000657585
0.000448941
0.00064792
0.000492974
0.000635288
0.000539008
0.000619919
0.00058695
0.000601979
0.000636693
0.000581555
0.000688123
0.000558623
0.00074113
0.000532984
0.000504113
0.000795667
3.32465e-06
4.29903e-05
1.19128e-05
0.000128889
2.48144e-05
0.000211709
4.12808e-05
0.000288891
6.07026e-05
0.00035873
8.26032e-05
0.000420236
0.000106637
0.000473002
0.000132583
0.000517073
0.000160329
0.000552809
0.000189849
0.000580771
0.000221184
0.000601624
0.000254409
0.000616062
0.000289616
0.000624761
0.000326899
0.000628345
0.000366334
0.000627377
0.000407981
0.000622349
0.000451875
0.000613691
0.000498027
0.000601767
0.000546426
0.00058689
0.000597034
0.000569311
0.00064979
0.000549223
0.000704604
0.00052674
0.000761361
0.000501867
0.00081992
0.000474425
0.00044388
0.000880153
3.29684e-06
3.96935e-05
1.19772e-05
0.000120208
2.52232e-05
0.000198463
4.23779e-05
0.000271737
6.28839e-05
0.000338224
8.62808e-05
0.000396839
0.000112209
0.000447074
0.000140411
0.000488871
0.000170726
0.000522494
0.000203076
0.000548422
0.000237448
0.000567252
0.000273877
0.000579633
0.000312425
0.000586213
0.000353168
0.000587603
0.00039618
0.000584365
0.000441531
0.000576998
0.000489278
0.000565943
0.000539464
0.000551582
0.000592113
0.000534241
0.000647227
0.000514197
0.000704782
0.000491668
0.00076472
0.000466802
0.000826936
0.000439651
0.000891262
0.000410099
0.000377671
0.000957471
3.15134e-06
3.65421e-05
1.16285e-05
0.000111731
2.47879e-05
0.000185303
4.20987e-05
0.000254426
6.30862e-05
0.000317237
8.73336e-05
0.000372592
0.000114492
0.000419915
0.00014429
0.000459073
0.000176534
0.00049025
0.000211107
0.000513849
0.000247954
0.000530405
0.000287073
0.000540515
0.000328496
0.000544789
0.000372282
0.000543817
0.000418501
0.000538146
0.00046723
0.000528269
0.000518545
0.000514628
0.000572519
0.000497608
0.000629216
0.000477544
0.000688686
0.000454727
0.000750957
0.000429397
0.000816016
0.000401743
0.00088379
0.000371877
0.000954098
0.000339791
0.000305172
0.0010266
2.8981e-06
3.3644e-05
1.09e-05
0.000103729
2.35723e-05
0.000172631
4.05384e-05
0.00023746
6.14315e-05
0.000296344
8.59016e-05
0.000348121
0.000113633
0.000392184
0.000144359
0.000428347
0.000177873
0.000456736
0.00021403
0.000477691
0.000252746
0.000491689
0.000293987
0.000499274
0.00033776
0.000501016
0.000384106
0.000497471
0.000433091
0.000489161
0.000484797
0.000476564
0.000539319
0.000460106
0.000596761
0.000440165
0.000657232
0.000417073
0.00072084
0.000391119
0.000787678
0.000362559
0.000857807
0.000331614
0.000931213
0.000298471
0.00100772
0.00026328
0.000226036
0.00108686
2.54877e-06
3.10952e-05
9.83326e-06
9.64446e-05
2.16594e-05
0.000160805
3.78274e-05
0.000221292
5.80979e-05
0.000276073
8.22067e-05
0.000324013
0.000109889
0.000364502
0.000140901
0.000397335
0.000175039
0.000422598
0.000212146
0.000440584
0.000252117
0.000451718
0.000294896
0.000456495
0.000340471
0.000455441
0.000388869
0.000449073
0.00044015
0.00043788
0.000494404
0.00042231
0.000551746
0.000402765
0.000612314
0.000379598
0.000676267
0.00035312
0.000743781
0.000323605
0.000815035
0.000291306
0.000890184
0.000256464
0.000969306
0.000219349
0.00105227
0.000180319
0.000139867
0.00113844
2.11705e-06
2.89782e-05
8.47826e-06
9.00834e-05
1.91526e-05
0.00015013
3.41334e-05
0.000206311
5.33231e-05
0.000256884
7.65575e-05
0.000300778
0.000103637
0.000337422
0.000134358
0.000366615
0.000168531
0.000388425
0.000206003
0.000403113
0.00024666
0.00041106
0.000290436
0.00041272
0.000337307
0.000408571
0.000387291
0.000399088
0.000440451
0.00038472
0.000496884
0.000365876
0.00055673
0.000342919
0.000620163
0.000316164
0.000687401
0.000285882
0.000758692
0.000252313
0.000834314
0.000215684
0.000914534
0.000176244
0.000999544
0.000134339
0.00108927
9.05929e-05
4.62235e-05
0.00118291
1.61941e-06
2.73588e-05
6.8956e-06
8.48072e-05
1.61782e-05
0.000140848
2.96648e-05
0.000192824
4.74088e-05
0.00023914
6.93558e-05
0.000278831
9.53843e-05
0.000311394
0.000125341
0.000336658
0.000159069
0.000354697
0.000196431
0.00036575
0.000237321
0.00037017
0.000281672
0.000368369
0.000329462
0.000360781
0.000380713
0.000347837
0.000435495
0.000329938
0.000493924
0.000307447
0.000556167
0.000280676
0.000622441
0.000249889
0.000693019
0.000215304
0.000768225
0.000177108
0.000848426
0.000135483
0.000934002
9.06687e-05
0.00102525
4.30868e-05
0.00112217
-6.32683e-06
-5.53806e-05
0.00122378
1.07583e-06
2.62829e-05
5.15792e-06
8.07251e-05
1.28879e-05
0.000133118
2.46732e-05
0.000181039
4.07235e-05
0.000223089
6.11016e-05
0.000258453
8.57729e-05
0.000286723
0.000114647
0.000307784
0.000147615
0.000321729
0.00018457
0.000328795
0.00022543
0.00032931
0.000270147
0.000323652
0.000318714
0.000312213
0.000371174
0.000295377
0.000427618
0.000273495
0.000488189
0.000246875
0.00055309
0.000215776
0.000622578
0.000180401
0.000696975
0.000140908
0.000776659
9.74234e-05
0.000862062
5.00804e-05
0.00095363
-8.99415e-07
0.00105174
-5.50189e-05
0.0011564
-0.000110995
-0.000165433
0.00126646
5.10365e-07
2.57726e-05
3.35076e-06
7.78847e-05
9.45905e-06
0.00012701
1.94536e-05
0.000171045
3.37027e-05
0.00020884
5.23914e-05
0.000239764
7.55807e-05
0.000263533
0.000103257
0.000280107
0.000135371
0.000289615
0.000171868
0.000292299
0.000212708
0.00028847
0.000257883
0.000278477
0.000307423
0.000262673
0.000361408
0.000241392
0.000419967
0.000214936
0.000483281
0.000183561
0.000551589
0.000147468
0.000625182
0.000106808
0.000704403
6.16869e-05
0.000789645
1.21811e-05
0.000881339
-4.16131e-05
0.000979918
-9.94789e-05
0.00108573
-0.000160835
0.00119878
-0.000224037
-0.000284333
0.00131768
-4.89659e-08
2.58215e-05
1.5717e-06
7.62641e-05
6.09248e-06
0.000122489
1.43395e-05
0.000162798
2.68401e-05
0.00019634
4.39059e-05
0.000222699
6.57025e-05
0.000241737
9.23057e-05
0.000253504
0.000123745
0.000258176
0.000160036
0.000256008
0.000201204
0.000247302
0.000247302
0.000232379
0.000298421
0.000211554
0.000354693
0.00018512
0.000416298
0.000153331
0.000483461
0.000116398
0.000556447
7.44826e-05
0.000635553
2.77021e-05
0.000721104
-2.38639e-05
0.000813436
-8.01512e-05
0.000912885
-0.000141062
0.00101976
-0.00020635
0.00113425
-0.000275331
0.00125623
-0.000346016
-0.000412261
0.00138416
-5.71039e-07
2.63926e-05
-7.31122e-08
7.57661e-05
3.00497e-06
0.000119411
9.69042e-06
0.000156112
2.06683e-05
0.000185362
3.63816e-05
0.000206985
5.71104e-05
0.000221008
8.30342e-05
0.00022758
0.000114279
0.000226931
0.000150951
0.000219335
0.000193164
0.00020509
0.00024105
0.000184492
0.000294777
0.000157828
0.000354542
0.000125354
0.000420577
8.72956e-05
0.000493137
4.38383e-05
0.000572486
-4.86668e-06
0.000658886
-5.86978e-05
0.000752573
-0.000117551
0.00085374
-0.000181318
0.000962516
-0.000249838
0.00107895
-0.000322781
0.00120295
-0.000399339
0.00133416
-0.000477227
-0.000549024
0.00147093
-1.02355e-06
2.74161e-05
-1.47516e-06
7.62177e-05
4.16662e-07
0.000117519
5.87029e-06
0.000150659
1.57268e-05
0.000175505
3.0565e-05
0.000192147
5.07899e-05
0.000200783
7.66988e-05
0.000201671
0.000108531
0.000195099
0.0001465
0.000181366
0.000190823
0.000160767
0.000241726
0.000133589
0.000299455
0.000100099
0.000364269
6.05404e-05
0.000436433
1.51323e-05
0.000516197
-3.5926e-05
0.000603779
-9.24492e-05
0.000699337
-0.000154255
0.000802938
-0.000221152
0.000914534
-0.000292914
0.00103394
-0.000369247
0.00116084
-0.000449678
0.00129476
-0.000533255
0.00143501
-0.000617481
-0.000693903
0.00157989
-1.37577e-06
2.87919e-05
-2.53221e-06
7.73742e-05
-1.4658e-06
0.000116452
3.22027e-06
0.000145972
1.25203e-05
0.000166205
2.71532e-05
0.000177514
4.76576e-05
0.000180279
7.446e-05
0.000174869
0.000107924
0.000161635
0.000148383
0.000140907
0.000196158
0.000112992
0.000251567
7.81804e-05
0.000314921
3.67455e-05
0.000386512
-1.10512e-05
0.000466598
-6.4953e-05
0.000555369
-0.000124698
0.000652928
-0.000190007
0.000759246
-0.000260573
0.000874138
-0.000336044
0.000997233
-0.00041601
0.00112796
-0.000499972
0.00126555
-0.000587267
0.00140909
-0.000676794
0.00155755
-0.00076594
-0.000845546
0.00170919
-1.60178e-06
3.03937e-05
-3.15808e-06
7.89305e-05
-2.46815e-06
0.000115763
2.02789e-06
0.000141476
1.14731e-05
0.00015676
2.67288e-05
0.000162258
4.8472e-05
0.000158535
7.72641e-05
0.000146077
0.000113596
0.000125303
0.000157916
9.6587e-05
0.000210639
6.02681e-05
0.000272152
1.6668e-05
0.000342794
-3.38963e-05
0.000422842
-9.10994e-05
0.000512481
-0.000154592
0.000611773
-0.000223989
0.000720618
-0.000298853
0.000838728
-0.000378683
0.00096559
-0.000462906
0.00110045
-0.00055087
0.00124231
-0.00064183
0.00138994
-0.000734904
0.001542
-0.000828851
0.0016971
-0.000921042
-0.00100191
0.00185347
-1.68344e-06
3.20771e-05
-3.29164e-06
8.05387e-05
-2.46578e-06
0.000114937
2.49931e-06
0.000136511
1.28883e-05
0.000146371
2.97026e-05
0.000145444
5.37569e-05
0.000134481
8.57432e-05
0.000114091
0.00012627
8.47766e-05
0.00017588
4.69766e-05
0.000235055
1.09295e-06
0.000304203
-5.24799e-05
0.000383639
-0.000113331
0.000473553
-0.000181014
0.000573984
-0.000255024
0.00068478
-0.000334785
0.000805568
-0.000419641
0.000935729
-0.000508843
0.00107437
-0.000601552
0.00122034
-0.000696839
0.00137221
-0.000793698
0.00152834
-0.000891031
0.00168698
-0.000987495
0.00184648
-0.00108054
-0.00116043
0.002005
-1.61256e-06
3.36897e-05
-2.9031e-06
8.18292e-05
-1.39551e-06
0.000113429
4.7405e-06
0.000130375
1.69202e-05
0.000134192
3.62772e-05
0.000126087
6.3754e-05
0.000107004
0.000100158
7.76869e-05
0.000146189
3.87449e-05
0.000202452
-9.28622e-06
0.000269443
-6.5898e-05
0.000347533
-0.00013057
0.000436937
-0.000202735
0.000537683
-0.00028176
0.00064958
-0.000366921
0.00077219
-0.000457395
0.000904804
-0.000552255
0.00104643
-0.000650473
0.00119581
-0.000750928
0.00135139
-0.000852418
0.00151138
-0.000953684
0.00167376
-0.00105342
0.00183646
-0.00115019
0.00199758
-0.00124166
-0.00131835
0.0021555
-1.39155e-06
3.50813e-05
-1.99585e-06
8.24335e-05
7.40889e-07
0.000110692
8.75207e-06
0.000122364
2.3568e-05
0.000119376
4.64394e-05
0.000103216
7.84166e-05
7.50272e-05
0.000120394
3.57095e-05
0.000173127
-1.39877e-05
0.000237226
-7.33857e-05
0.000313142
-0.000141814
0.000401131
-0.000218559
0.000501231
-0.000302835
0.000613221
-0.00039375
0.000736605
-0.000490305
0.000870594
-0.000591384
0.00101411
-0.000695767
0.00116578
-0.00080215
0.00132402
-0.000909164
0.001487
-0.0010154
0.00165276
-0.00111944
0.00181919
-0.00121984
0.00198399
-0.00131499
0.00214439
-0.00140206
-0.00147037
0.0022964
-1.03299e-06
3.61142e-05
-6.0439e-07
8.20049e-05
3.88166e-06
0.000106206
1.44382e-05
0.000111808
3.26905e-05
0.000101123
5.99833e-05
7.59228e-05
9.74453e-05
3.75652e-05
0.000146018
-1.28635e-05
0.00020646
-7.44291e-05
0.000279325
-0.000146251
0.000364942
-0.00022743
0.000463372
-0.00031699
0.000574386
-0.000413849
0.000697437
-0.000516801
0.000831652
-0.00062452
0.000975842
-0.000735574
0.00112853
-0.000848453
0.00128799
-0.000961613
0.00145234
-0.00107352
0.00161962
-0.00118268
0.00178788
-0.00128771
0.00195541
-0.00138737
0.00212093
-0.00148052
0.00228472
-0.00156585
-0.00163719
0.00245155
-5.54799e-07
3.6669e-05
1.21715e-06
8.0233e-05
7.92397e-06
9.94995e-05
2.16346e-05
9.8097e-05
4.40443e-05
7.87136e-05
7.65623e-05
4.34047e-05
0.000120357
-6.22947e-06
0.000176367
-6.88739e-05
0.000245291
-0.000143352
0.000327553
-0.000228514
0.000423277
-0.000323153
0.000532243
-0.000425956
0.000653873
-0.000535479
0.000787219
-0.000650148
0.000930978
-0.000768279
0.00108353
-0.000888122
0.00124298
-0.00100791
0.00140728
-0.00112591
0.00157428
-0.00124051
0.00174184
-0.00135024
0.00190797
-0.00145384
0.00207093
-0.00155032
0.00222937
-0.00163897
0.00238268
-0.00171916
-0.00178631
0.00253179
2.00294e-08
3.6649e-05
3.39989e-06
7.68531e-05
1.27371e-05
9.01623e-05
3.01324e-05
8.07016e-05
5.73233e-05
5.15227e-05
9.5747e-05
4.98107e-06
0.000146564
-5.70467e-05
0.000210652
-0.000132962
0.000288577
-0.000221277
0.000380554
-0.000320491
0.000486413
-0.000429012
0.000605572
-0.000545115
0.000737028
-0.000666935
0.000879375
-0.000792495
0.00103085
-0.000919752
0.00118939
-0.00104667
0.00135276
-0.00117127
0.0015186
-0.00129175
0.00168459
-0.0014065
0.00184854
-0.00151419
0.00200849
-0.00161379
0.00216277
-0.00170461
0.00231008
-0.00178627
0.00244949
-0.00185857
-0.00191818
0.00258137
6.69491e-07
3.59795e-05
5.87525e-06
7.16473e-05
1.81878e-05
7.78498e-05
3.97164e-05
5.91729e-05
7.22087e-05
1.90304e-05
0.000117088
-3.98981e-05
0.000175452
-0.000115411
0.00024805
-0.000205559
0.000335235
-0.000308462
0.000436929
-0.000422184
0.000552582
-0.000544666
0.00068117
-0.000673703
0.000821207
-0.000806972
0.000970798
-0.000942086
0.00112772
-0.00107668
0.00128954
-0.00120848
0.0014537
-0.00133544
0.00161772
-0.00145576
0.00177922
-0.001568
0.0019361
-0.00167107
0.0020866
-0.00176429
0.00222933
-0.00184733
0.00236327
-0.00192022
0.00248783
-0.00198313
-0.00203404
0.00260369
1.37517e-06
3.46044e-05
8.58347e-06
6.4439e-05
2.41568e-05
6.22765e-05
5.01892e-05
3.31405e-05
8.84035e-05
-1.91839e-05
0.00014016
-9.16546e-05
0.000206433
-0.000181684
0.000287763
-0.00028689
0.00038421
-0.00040491
0.000495309
-0.000533283
0.000620053
-0.000669409
0.000756909
-0.000810558
0.000903874
-0.000953937
0.00105857
-0.00109678
0.00121837
-0.00123648
0.00138054
-0.00137065
0.00154237
-0.00149727
0.00170136
-0.00161475
0.00185527
-0.00172192
0.00200228
-0.00181808
0.00214096
-0.00190297
0.00227034
-0.00197671
0.00238987
-0.00203975
0.00249939
-0.00209266
-0.00213444
0.00259979
2.12428e-06
3.24801e-05
1.14797e-05
5.50836e-05
3.05498e-05
4.32064e-05
6.13883e-05
2.30196e-06
0.000105653
-6.34486e-05
0.000164586
-0.000150588
0.000238965
-0.000256063
0.000329042
-0.000376967
0.00043449
-0.000510358
0.000554371
-0.000653165
0.000687151
-0.000802189
0.000830748
-0.000954156
0.000982647
-0.00110584
0.00114003
-0.00125417
0.00129996
-0.00139641
0.00145955
-0.00153023
0.00161609
-0.00165382
0.00176723
-0.0017659
0.00191106
-0.00186575
0.00204614
-0.00195316
0.00217153
-0.00202836
0.00228675
-0.00209193
0.00239174
-0.00214474
0.00248681
-0.00218772
-0.00222069
0.00257305
2.91029e-06
2.95698e-05
1.4536e-05
4.34579e-05
3.73009e-05
2.04414e-05
7.31893e-05
-3.35864e-05
0.000123748
-0.000114007
0.000190036
-0.000216875
0.000272554
-0.000338581
0.000371176
-0.000475588
0.000485095
-0.000624277
0.000612827
-0.000780897
0.000752257
-0.000941619
0.000900754
-0.00110265
0.00105533
-0.00126041
0.00121283
-0.00141167
0.00137015
-0.00155372
0.00152439
-0.00168447
0.00167304
-0.00180247
0.00181408
-0.00190694
0.00194603
-0.0019977
0.00206796
-0.00207508
0.00217944
-0.00213983
0.00228049
-0.00219299
0.00237152
-0.00223576
0.0024532
-0.0022694
-0.00229426
0.00252677
3.73214e-06
2.58376e-05
1.77391e-05
2.94509e-05
4.43682e-05
-6.18759e-06
8.54984e-05
-7.47166e-05
0.000142511
-0.000171019
0.000216208
-0.000290573
0.000306727
-0.0004291
0.000413464
-0.000582326
0.000535055
-0.000745867
0.000669405
-0.000915248
0.000813809
-0.00108602
0.00096512
-0.00125396
0.00111997
-0.00141526
0.00127501
-0.00156671
0.00142713
-0.00170584
0.00157361
-0.00183095
0.0017123
-0.00194116
0.00184163
-0.00203627
0.00196065
-0.00211672
0.00206897
-0.0021834
0.00216666
-0.00223753
0.00225421
-0.00228054
0.00233237
-0.00231392
0.00240208
-0.00233912
-0.00235685
0.00246467
4.59256e-06
2.12451e-05
2.10858e-05
1.29577e-05
5.17244e-05
-3.68262e-05
9.82385e-05
-0.000121231
0.000161778
-0.000234559
0.000242806
-0.000371601
0.000341
-0.000527294
0.000455192
-0.000696518
0.000583386
-0.000874061
0.000722856
-0.00105472
0.000870326
-0.00123349
0.00102222
-0.00140586
0.00117494
-0.00156798
0.00132509
-0.00171686
0.00146974
-0.00185049
0.00160654
-0.00196775
0.0017338
-0.00206842
0.0018505
-0.00215298
0.00195625
-0.00222247
0.00205116
-0.00227831
0.00213577
-0.00232214
0.00221091
-0.00235568
0.00227759
-0.0023806
0.0023369
-0.00239843
-0.0024101
0.00239015
5.49588e-06
1.57492e-05
2.45762e-05
-6.12262e-06
5.9346e-05
-7.15961e-05
0.000111331
-0.000173216
0.000181375
-0.000304602
0.00026951
-0.000459736
0.000374858
-0.000632642
0.000495611
-0.000817271
0.000629097
-0.00100755
0.000771967
-0.00119759
0.000920455
-0.00138198
0.00107068
-0.00155609
0.00121898
-0.00171627
0.0013621
-0.00185999
0.00149747
-0.00198585
0.00162321
-0.00209349
0.0017382
-0.00218341
0.001842
-0.00225678
0.00193473
-0.0023152
0.00201697
-0.00236055
0.00208959
-0.00239477
0.00215367
-0.00241976
0.00221037
-0.00243729
0.00226083
-0.00244888
-0.00245555
0.00230628
6.44592e-06
9.30328e-06
2.82079e-05
-2.78846e-05
6.72015e-05
-0.00011059
0.000124681
-0.000230695
0.000201098
-0.000381019
0.000295959
-0.000554596
0.000407745
-0.000744428
0.000533944
-0.00094347
0.000671206
-0.00114481
0.000815616
-0.001342
0.000963032
-0.0015294
0.00110944
-0.0017025
0.00125128
-0.0018581
0.00138564
-0.00199435
0.00151041
-0.00211063
0.00162431
-0.00220739
0.00172679
-0.00228589
0.00181794
-0.00234793
0.00189836
-0.00239562
0.00196898
-0.00243116
0.00203092
-0.00245671
0.00208538
-0.00247423
0.00213357
-0.00248548
0.0021766
-0.00249192
-0.00249453
0.00221558
7.44434e-06
1.85893e-06
3.19714e-05
-5.24116e-05
7.52439e-05
-0.000153862
0.000138166
-0.000293618
0.000220706
-0.000463559
0.000321749
-0.000655639
0.000439063
-0.000861742
0.000569406
-0.00107381
0.000708785
-0.00128419
0.000852818
-0.00148603
0.000997145
-0.00167372
0.0011378
-0.00184316
0.0012715
-0.00199181
0.00139582
-0.00211867
0.00150922
-0.00222403
0.00161101
-0.00230918
0.00170121
-0.00237609
0.00178039
-0.00242712
0.00184952
-0.00246475
0.00190976
-0.0024914
0.00196237
-0.00250932
0.00200861
-0.00252046
0.00204963
-0.00252649
0.00208647
-0.00252876
-0.00252817
0.00212011
8.48962e-06
-6.63069e-06
3.58466e-05
-7.97686e-05
8.34058e-05
-0.000201421
0.000151634
-0.000361845
0.000239918
-0.000551843
0.000346439
-0.000762161
0.000468201
-0.000983504
0.000601244
-0.00120686
0.000741007
-0.00142395
0.000882786
-0.00162781
0.00102218
-0.00181312
0.00115545
-0.00197642
0.00127975
-0.00211611
0.00139322
-0.00223214
0.00149494
-0.00232575
0.00158481
-0.00239904
0.00166335
-0.00245462
0.0017315
-0.00249527
0.0017905
-0.00252374
0.00184164
-0.00254255
0.00188624
-0.00255392
0.00192551
-0.00255973
0.00196053
-0.00256151
0.00199223
-0.00256045
-0.00255734
0.0020214
9.57669e-06
-1.62074e-05
3.98026e-05
-0.000109995
9.15988e-05
-0.000253218
0.0001649
-0.000435146
0.00025842
-0.000645363
0.000369565
-0.000873306
0.000494559
-0.0011085
0.000628771
-0.00134107
0.000767195
-0.00156238
0.00090497
-0.00176559
0.00103783
-0.00194598
0.00116244
-0.00210103
0.00127649
-0.00223016
0.00137876
-0.0023344
0.00146892
-0.00241592
0.0015474
-0.00247753
0.00161513
-0.00252235
0.00167335
-0.00255349
0.00172341
-0.0025738
0.00176669
-0.00258583
0.00180447
-0.0025917
0.00183787
-0.00259313
0.00186785
-0.0025915
0.00189522
-0.00258782
-0.00258276
0.00192063
1.0697e-05
-2.69044e-05
4.37976e-05
-0.000143095
9.97161e-05
-0.000309136
0.000177758
-0.000513189
0.00027588
-0.000743485
0.000390668
-0.000988094
0.00051758
-0.00123541
0.000651409
-0.00147489
0.000786853
-0.00169782
0.000919074
-0.00189781
0.00104412
-0.00207103
0.00115916
-0.00221607
0.00126252
-0.00233352
0.0013536
-0.00242548
0.00143265
-0.00249496
0.00150051
-0.00254539
0.00155843
-0.00258027
0.00160781
-0.00260287
0.00165011
-0.00261609
0.00168664
-0.00262237
0.00171862
-0.00262368
0.00174705
-0.00262157
0.00177278
-0.00261722
0.00179646
-0.0026115
-0.00260492
0.00181863
1.18391e-05
-3.87435e-05
4.7781e-05
-0.000179037
0.000107636
-0.000368991
0.000189987
-0.00059554
0.000291963
-0.000845461
0.000409312
-0.00110544
0.000536784
-0.00136288
0.000668718
-0.00160683
0.000799688
-0.00182879
0.000925055
-0.00202317
0.00104132
-0.00218729
0.00114626
-0.00232101
0.00123885
-0.00242611
0.00131907
-0.0025057
0.00138765
-0.00256353
0.00144579
-0.00260353
0.00149493
-0.00262941
0.00153658
-0.00264452
0.00157214
-0.00265166
0.0016029
-0.00265313
0.00162994
-0.00265071
0.00165413
-0.00264577
0.0016762
-0.00263929
0.00169668
-0.00263198
-0.00262423
0.00171598
1.29888e-05
-5.17323e-05
5.16954e-05
-0.000217744
0.000115229
-0.000432525
0.000201362
-0.000681673
0.000306348
-0.000950446
0.000425113
-0.00122421
0.000551789
-0.00148956
0.000680413
-0.00173545
0.000805611
-0.00195399
0.000923103
-0.00214067
0.00102995
-0.00229414
0.00112458
-0.00241564
0.0012066
-0.00250813
0.0012765
-0.00257561
0.00133541
-0.00262245
0.00138478
-0.00265289
0.00142615
-0.00267079
0.00146104
-0.00267941
0.0014908
-0.00268142
0.00151659
-0.00267892
0.00153937
-0.00267349
0.0015599
-0.00266629
0.00157875
-0.00265815
0.00159638
-0.0026496
-0.00264094
0.00161309
1.41306e-05
-6.58629e-05
5.54795e-05
-0.000259093
0.00012236
-0.000499405
0.000211664
-0.000770977
0.000318742
-0.00105752
0.000437751
-0.00134322
0.000562326
-0.00161413
0.000686368
-0.0018595
0.000804724
-0.00207234
0.000913601
-0.00224954
0.0010107
-0.00239124
0.00109508
-0.00250002
0.00116693
-0.00257998
0.00122721
-0.00263588
0.00127731
-0.00267255
0.00131883
-0.00269441
0.00135336
-0.00270532
0.00138237
-0.00270841
0.00140709
-0.00270614
0.00142857
-0.0027004
0.00144764
-0.00269256
0.00146493
-0.00268358
0.00148091
-0.00267413
0.00149593
-0.00266463
-0.00265525
0.00151024
1.52473e-05
-8.11102e-05
5.90697e-05
-0.000302915
0.000128899
-0.000569234
0.000220689
-0.000862767
0.000328897
-0.00116573
0.000446988
-0.00146131
0.000568248
-0.00173539
0.000686612
-0.00197786
0.000797294
-0.00218303
0.000897086
-0.00234933
0.000984345
-0.0024785
0.00105876
-0.00257444
0.00112102
-0.00264223
0.00117242
-0.00268728
0.00121456
-0.00271469
0.00124912
-0.00272897
0.00127764
-0.00273384
0.0013015
-0.00273226
0.00132182
-0.00272647
0.00133952
-0.0027181
0.00135528
-0.00270832
0.00136964
-0.00269794
0.00138298
-0.00268746
0.00139556
-0.00267721
-0.00266728
0.00140759
1.63214e-05
-9.74316e-05
6.24032e-05
-0.000348997
0.000134721
-0.000641552
0.000228259
-0.000956304
0.000336614
-0.00127409
0.000452673
-0.00157737
0.000569527
-0.00185225
0.000681308
-0.00208964
0.000783721
-0.00228544
0.000874197
-0.00243981
0.00095175
-0.00255605
0.00101663
-0.00263932
0.00106995
-0.00269555
0.00111325
-0.00273058
0.00114825
-0.00274969
0.00117663
-0.00275734
0.00119985
-0.00275707
0.00121918
-0.00275159
0.00123561
-0.0027429
0.00124992
-0.00273241
0.00126268
-0.00272109
0.00127434
-0.00270959
0.0012852
-0.00269832
0.00129546
-0.00268748
-0.00267709
0.00130527
1.73351e-05
-0.000114767
6.54199e-05
-0.000397082
0.000139715
-0.000715847
0.000234225
-0.00105081
0.000341754
-0.00138162
0.000454741
-0.00169035
0.000566244
-0.00196375
0.000670737
-0.00219413
0.000764502
-0.0023792
0.000845637
-0.00252095
0.000913774
-0.00262419
0.000969659
-0.00269521
0.00101471
-0.0027406
0.00105067
-0.00276653
0.00107928
-0.00277831
0.00110217
-0.00278023
0.0011207
-0.0027756
0.00113599
-0.00276689
0.00114892
-0.00275583
0.00116014
-0.00274363
0.00117013
-0.00273108
0.00117924
-0.00271871
0.00118772
-0.0027068
0.00119573
-0.00269548
-0.00268474
0.00120338
1.82713e-05
-0.000133038
6.80638e-05
-0.000446874
0.000143783
-0.000791567
0.000238473
-0.0011455
0.000344237
-0.00148738
0.00045321
-0.00179933
0.000558575
-0.00206912
0.000655265
-0.00229082
0.000740198
-0.00246414
0.000812131
-0.00259288
0.000871257
-0.00268332
0.000918731
-0.00274268
0.000956215
-0.00277809
0.00098553
-0.00279585
0.00100842
-0.00280119
0.00102639
-0.0027982
0.00104072
-0.00278993
0.00105237
-0.00277854
0.0010621
-0.00276556
0.00107046
-0.00275198
0.00107783
-0.00273846
0.0010845
-0.00272538
0.00109067
-0.00271296
0.00109646
-0.00270127
-0.00269024
0.00110196
1.91134e-05
-0.000152151
7.02854e-05
-0.000498046
0.000146849
-0.00086813
0.000240929
-0.00123958
0.000344042
-0.00159049
0.000448173
-0.00190346
0.000546773
-0.00216771
0.000635322
-0.00237937
0.000711402
-0.00254022
0.000774396
-0.00265587
0.000824989
-0.00273391
0.000864657
-0.00278235
0.000895224
-0.00280865
0.000918537
-0.00281916
0.000936271
-0.00281893
0.000949835
-0.00281177
0.00096035
-0.00280044
0.000968669
-0.00278686
0.000975424
-0.00277231
0.000981068
-0.00275762
0.000985927
-0.00274331
0.000990225
-0.00272968
0.000994118
-0.00271686
0.000997707
-0.00270486
-0.00269359
0.00100106
1.98463e-05
-0.000171998
7.20427e-05
-0.000550243
0.000148852
-0.000944939
0.000241554
-0.00133229
0.000341204
-0.00169014
0.000439789
-0.00200204
0.000531148
-0.00225907
0.000611376
-0.0024596
0.000678715
-0.00260756
0.00073312
-0.00271028
0.000775694
-0.00277648
0.000808153
-0.00281481
0.000832408
-0.00283291
0.000850282
-0.00283703
0.000863353
-0.002832
0.000872905
-0.00282132
0.000879922
-0.00280746
0.000885138
-0.00279208
0.000889081
-0.00277625
0.000892127
-0.00276067
0.000894539
-0.00274573