/*--------------------------------*- C++ -*----------------------------------*\
  =========                 |
  \\      /  F ield         | OpenFOAM: The Open Source CFD Toolbox
   \\    /   O peration     | Website:  https://openfoam.org
    \\  /    A nd           | Version:  6.0
     \\/     M anipulation  |
\*---------------------------------------------------------------------------*/
FoamFile
{
    version     2.0;
    format      ascii;
    class       volVectorField;
    location    "78";
    object      U;
}
// * * * * * * * * * * * * * * * * * * * * * * * * * * * * * * * * * * * * * //

dimensions      [0 1 -1 0 0 0 0];

internalField   nonuniform List<vector> 
12500
(
(-0.000685476 0.0295185 -9.61377e-22)
(-0.00263098 0.0838025 1.32866e-20)
(-0.00568302 0.133272 -1.92061e-20)
(-0.00949096 0.177568 8.7828e-21)
(-0.0138108 0.21664 5.21603e-22)
(-0.0184093 0.250775 -1.08804e-21)
(-0.0230183 0.280478 -1.58234e-20)
(-0.02736 0.306338 8.67194e-21)
(-0.0311723 0.328928 5.70758e-21)
(-0.0342291 0.348732 5.7939e-21)
(-0.0363555 0.366112 -9.78236e-21)
(-0.0374361 0.381296 5.68753e-21)
(-0.0374168 0.394403 -2.67634e-21)
(-0.0363013 0.405469 4.53235e-21)
(-0.0341429 0.414481 -1.1577e-20)
(-0.0310343 0.421412 1.67637e-20)
(-0.0270956 0.426242 -3.18833e-21)
(-0.0224627 0.428973 -1.18659e-20)
(-0.0172749 0.429642 6.08344e-21)
(-0.0116651 0.428317 -5.83282e-21)
(-0.00575928 0.425093 5.22716e-21)
(0.000329051 0.42009 6.93417e-21)
(0.00659414 0.413441 7.35853e-22)
(0.0132494 0.405277 -1.99034e-20)
(0.0197797 0.395715 1.0423e-20)
(-0.0014209 0.029793 1.76101e-20)
(-0.00419851 0.084666 -4.53457e-20)
(-0.00718076 0.134749 1.3331e-20)
(-0.0103776 0.17963 8.85054e-21)
(-0.0137326 0.21919 -7.0644e-21)
(-0.0171306 0.253647 -3.98204e-20)
(-0.0204019 0.283445 1.18326e-20)
(-0.0233458 0.309139 -2.21742e-20)
(-0.0257567 0.331294 2.65046e-20)
(-0.0274475 0.350414 -3.53277e-20)
(-0.0282674 0.366896 1.88487e-20)
(-0.0281136 0.381026 6.0513e-21)
(-0.0269358 0.392981 -1.53182e-20)
(-0.0247348 0.402861 -6.81345e-21)
(-0.0215568 0.410711 4.95317e-20)
(-0.0174844 0.41655 -4.3873e-20)
(-0.012626 0.420395 1.04464e-20)
(-0.00710542 0.422274 1.81572e-20)
(-0.00104992 0.422234 -4.23788e-21)
(0.00541854 0.420338 2.94906e-20)
(0.0121853 0.41667 5.4872e-21)
(0.0191458 0.41132 -1.78272e-21)
(0.0262887 0.404387 -3.7423e-20)
(0.0338151 0.395965 3.47306e-20)
(0.041305 0.386106 -6.53962e-20)
(-0.00216021 0.0295907 5.64761e-20)
(-0.00583213 0.0843753 1.86661e-20)
(-0.00885925 0.134612 -2.43866e-20)
(-0.011565 0.179777 1.0388e-20)
(-0.0140582 0.219651 9.75394e-21)
(-0.0163322 0.254354 3.67581e-20)
(-0.0183125 0.28425 -4.6521e-20)
(-0.0198769 0.309841 -7.47103e-21)
(-0.0208804 0.331667 -3.09182e-20)
(-0.0211802 0.350234 -2.57758e-20)
(-0.020655 0.36597 3.33567e-20)
(-0.0192191 0.379203 -1.11252e-19)
(-0.0168291 0.390166 -3.42569e-21)
(-0.0134848 0.399014 -6.67377e-20)
(-0.0092259 0.405846 -7.92925e-21)
(-0.00412459 0.410727 9.48255e-21)
(0.00172296 0.413709 -5.20185e-20)
(0.00820638 0.414841 -3.26513e-20)
(0.015211 0.414182 -3.88225e-20)
(0.0226264 0.411795 6.0878e-20)
(0.0303491 0.407748 2.25996e-20)
(0.0382838 0.402108 -9.9533e-20)
(0.0464139 0.394942 -4.83818e-20)
(0.0549255 0.386305 -5.45169e-20)
(0.0634856 0.376182 1.44224e-19)
(-0.00286958 0.028962 -1.86524e-21)
(-0.00746093 0.0830274 -4.32533e-20)
(-0.0106434 0.132965 -2.03776e-20)
(-0.0129945 0.1781 1.28039e-20)
(-0.0147589 0.218087 7.90361e-20)
(-0.0160229 0.252932 -3.55248e-20)
(-0.0167991 0.282903 7.54467e-20)
(-0.0170414 0.308432 7.14844e-20)
(-0.0166668 0.330019 4.34396e-20)
(-0.0155803 0.34816 -7.02954e-22)
(-0.0136948 0.363296 8.72193e-20)
(-0.010946 0.375789 1.50273e-20)
(-0.00730115 0.385918 6.6416e-20)
(-0.00276185 0.393886 1.52748e-19)
(0.00263714 0.399841 -1.77338e-19)
(0.00883294 0.40389 2.66979e-19)
(0.0157415 0.406118 5.85865e-20)
(0.0232658 0.406597 -1.2854e-19)
(0.0313041 0.405396 -1.86207e-20)
(0.0397577 0.40258 4.70805e-20)
(0.0485339 0.398208 -2.38734e-20)
(0.0575465 0.392326 -1.45609e-20)
(0.0667748 0.384969 -1.43002e-20)
(0.076388 0.376156 -5.71308e-20)
(0.0861296 0.365811 1.95926e-19)
(-0.00352114 0.0279672 2.93082e-20)
(-0.00902285 0.080745 -1.35668e-19)
(-0.0124621 0.12995 1.63845e-19)
(-0.0146043 0.174732 -6.48454e-20)
(-0.0157944 0.214607 7.73361e-20)
(-0.0161926 0.249459 6.26044e-20)
(-0.0158864 0.27945 2.36261e-20)
(-0.0148993 0.304929 8.91262e-22)
(-0.0132091 0.326342 1.32614e-19)
(-0.0107701 0.344161 9.14056e-20)
(-0.00753278 0.358829 -3.69436e-20)
(-0.00345819 0.370729 -2.37569e-20)
(0.00147199 0.380172 9.925e-20)
(0.00725089 0.387406 1.87182e-20)
(0.0138459 0.392618 5.06642e-20)
(0.0212017 0.395953 1.22316e-19)
(0.0292451 0.397527 -1.06195e-19)
(0.0378913 0.397434 8.6321e-20)
(0.0470512 0.395757 -1.85861e-19)
(0.0566373 0.392564 1.57155e-19)
(0.0665672 0.387907 1.20831e-21)
(0.0767632 0.38182 -1.26736e-19)
(0.0872018 0.374311 5.09849e-20)
(0.0980339 0.365363 1.17306e-19)
(0.109067 0.354842 -1.7018e-19)
(-0.00409413 0.0266743 1.51453e-19)
(-0.0104679 0.0776716 -1.59956e-19)
(-0.0142535 0.12574 -2.58524e-20)
(-0.0163341 0.169845 3.19243e-20)
(-0.0171181 0.209363 -6.91648e-20)
(-0.016817 0.244055 -1.07512e-19)
(-0.0155778 0.273973 -8.87433e-20)
(-0.0134849 0.299375 -2.12674e-20)
(-0.010572 0.320646 -1.52463e-19)
(-0.00684253 0.33822 1.20403e-19)
(-0.00228592 0.352527 -1.87691e-19)
(0.00310807 0.363959 9.44342e-20)
(0.00933969 0.372852 -3.19418e-20)
(0.0163932 0.379483 7.30518e-20)
(0.024235 0.384074 -1.83774e-19)
(0.0328143 0.386803 8.87559e-20)
(0.0420666 0.387814 6.44667e-21)
(0.051918 0.387222 3.96127e-20)
(0.0622904 0.385124 2.42049e-19)
(0.0731068 0.381594 5.42956e-20)
(0.0842938 0.376686 -4.43522e-21)
(0.0957818 0.370422 1.56076e-20)
(0.107545 0.362793 1.03358e-19)
(0.119716 0.353753 2.96643e-20)
(0.13215 0.34311 9.63552e-20)
(-0.00457552 0.0251543 -9.44106e-20)
(-0.0117605 0.0739636 1.33259e-19)
(-0.0159682 0.120531 8.1982e-21)
(-0.0181308 0.163641 -1.60692e-19)
(-0.0186822 0.202543 3.36164e-19)
(-0.0178621 0.236877 -1.08422e-19)
(-0.0158599 0.26659 1.57372e-19)
(-0.012809 0.291849 1.43515e-19)
(-0.00879306 0.312967 -1.18791e-19)
(-0.00386116 0.330334 -1.7218e-19)
(0.00195797 0.344355 4.70052e-20)
(0.0086442 0.355419 -4.93254e-20)
(0.0161766 0.363872 -2.19362e-19)
(0.0245272 0.370014 2.66067e-19)
(0.0336576 0.374091 -1.27922e-19)
(0.0435188 0.376309 -8.87796e-20)
(0.054052 0.376835 1.6762e-22)
(0.0651918 0.375806 7.2294e-20)
(0.0768694 0.373332 3.06093e-20)
(0.0890169 0.369499 -1.19155e-19)
(0.101569 0.364363 1.36833e-19)
(0.114462 0.357945 -2.40066e-19)
(0.127669 0.350224 1.46825e-19)
(0.141302 0.341131 -1.14773e-19)
(0.155251 0.330425 2.80603e-20)
(-0.00496019 0.0234796 1.36396e-19)
(-0.0128808 0.0697847 -1.04226e-19)
(-0.0175728 0.114533 -6.58186e-20)
(-0.0199519 0.156348 -1.15692e-19)
(-0.0204421 0.194364 -2.11152e-19)
(-0.0192885 0.228119 -1.55453e-19)
(-0.0167053 0.25746 9.61619e-20)
(-0.012862 0.282465 -1.45109e-19)
(-0.00788355 0.303377 1.83963e-19)
(-0.00186031 0.32053 -2.98653e-19)
(0.00514169 0.3343 1.32395e-19)
(0.0130714 0.345058 2.79756e-19)
(0.0218849 0.353152 -3.92954e-19)
(0.0315389 0.358892 5.60344e-20)
(0.0419873 0.362541 7.32299e-20)
(0.0531792 0.364326 7.17406e-20)
(0.0650588 0.364432 -7.66013e-20)
(0.0775665 0.363016 -1.88209e-20)
(0.0906409 0.360202 -5.59536e-20)
(0.104221 0.356088 -4.78668e-20)
(0.118248 0.350738 -2.64466e-19)
(0.132664 0.344179 -1.82957e-20)
(0.147441 0.336386 3.03939e-21)
(0.16267 0.327278 -1.22769e-19)
(0.178252 0.316573 1.23844e-19)
(-0.0052507 0.0217206 3.36852e-21)
(-0.0138253 0.065299 4.20818e-20)
(-0.0190511 0.107964 4.36823e-20)
(-0.0217687 0.148207 2.58326e-20)
(-0.0223603 0.185069 2.14179e-19)
(-0.0210555 0.218004 1.99608e-19)
(-0.0180764 0.246773 -1.62169e-19)
(-0.0136156 0.271375 -4.85957e-20)
(-0.00782982 0.29198 -4.33322e-20)
(-0.000844423 0.308869 2.23458e-19)
(0.00724055 0.322377 7.96356e-20)
(0.0163442 0.332851 -1.16721e-19)
(0.0263987 0.34063 -9.85081e-20)
(0.0373436 0.346023 2.37655e-19)
(0.0491225 0.349304 -5.8279e-20)
(0.0616796 0.35071 -7.0789e-20)
(0.0749593 0.350444 -9.99912e-20)
(0.0889055 0.348675 -7.78758e-20)
(0.103462 0.345542 -1.00356e-19)
(0.118574 0.341156 -6.68747e-20)
(0.134188 0.335594 2.77683e-19)
(0.15025 0.328893 -1.37052e-19)
(0.166731 0.321037 9.28305e-20)
(0.183699 0.311943 -2.51567e-19)
(0.201044 0.301301 9.84587e-20)
(-0.00545687 0.019944 -1.21416e-19)
(-0.0146064 0.0606664 -3.08885e-20)
(-0.0204054 0.101042 -2.44129e-19)
(-0.0235685 0.139465 -1.15796e-19)
(-0.0244091 0.174913 -2.28291e-19)
(-0.0231243 0.206779 -2.33967e-20)
(-0.0199286 0.234753 1.21476e-19)
(-0.0150255 0.258765 -7.32401e-20)
(-0.00859383 0.278924 1.58089e-19)
(-0.000786955 0.295452 -3.82857e-19)
(0.00826555 0.30864 -1.07283e-20)
(0.0184553 0.318807 6.77259e-20)
(0.0296909 0.326274 -8.58284e-20)
(0.0418943 0.33134 7.84487e-20)
(0.0549963 0.33428 -5.91278e-20)
(0.0689349 0.335337 -1.27866e-19)
(0.0836521 0.334721 2.3524e-19)
(0.0990935 0.332613 1.47139e-19)
(0.115207 0.329164 -2.94707e-20)
(0.131943 0.324497 9.85762e-20)
(0.149251 0.318706 -1.94583e-19)
(0.167085 0.311842 2.84623e-19)
(0.185414 0.30391 -3.90344e-19)
(0.204282 0.29484 8.10755e-20)
(0.223531 0.284313 -1.52681e-19)
(-0.00559506 0.0182113 6.28328e-21)
(-0.0152513 0.0560371 -1.06077e-19)
(-0.0216552 0.0939768 1.57311e-19)
(-0.0253541 0.130369 3.20697e-19)
(-0.0265716 0.16416 -4.911e-21)
(-0.0254591 0.194705 3.59868e-20)
(-0.0222114 0.221645 -1.3456e-19)
(-0.0170318 0.244857 6.3825e-20)
(-0.0101125 0.264392 4.31952e-19)
(-0.00162767 0.280421 -9.81524e-20)
(0.00826872 0.293191 -1.14822e-19)
(0.019444 0.302986 4.34551e-19)
(0.0317852 0.3101 1.41151e-19)
(0.0451964 0.314821 6.76217e-20)
(0.0595956 0.317413 6.85744e-20)
(0.0749128 0.318118 1.88625e-19)
(0.0910866 0.317149 -7.38045e-20)
(0.108063 0.314691 1.92396e-19)
(0.125795 0.310905 2.6355e-19)
(0.144237 0.305926 -2.27742e-19)
(0.163346 0.299862 3.4076e-19)
(0.183081 0.292787 1.2382e-19)
(0.203415 0.284733 -4.7069e-19)
(0.224363 0.275666 6.85152e-19)
(0.24568 0.265284 -5.44253e-19)
(-0.00568725 0.0165774 -3.05401e-19)
(-0.0157998 0.0515483 1.65886e-19)
(-0.0228353 0.0869635 -1.10663e-19)
(-0.0271421 0.121154 -1.05283e-19)
(-0.0288401 0.15307 -1.11868e-19)
(-0.0280262 0.182052 -1.20851e-19)
(-0.024867 0.207716 3.39172e-20)
(-0.0195572 0.229899 3.12796e-19)
(-0.0122943 0.248608 -6.78685e-20)
(-0.0032671 0.263967 -1.73613e-19)
(0.0073517 0.276182 -1.05026e-19)
(0.0194091 0.285499 -4.3313e-20)
(0.0327729 0.292185 1.25315e-19)
(0.0473308 0.296504 -8.09844e-20)
(0.0629887 0.298707 -2.65195e-19)
(0.0796683 0.299027 -2.93439e-19)
(0.0973051 0.297673 1.16743e-19)
(0.115847 0.29483 -2.20182e-19)
(0.135249 0.290663 1.91939e-19)
(0.155476 0.285313 -5.44584e-19)
(0.176495 0.278903 4.22871e-19)
(0.198272 0.271531 -5.647e-19)
(0.22079 0.263268 -1.30573e-20)
(0.244032 0.254139 -1.97681e-19)
(0.267611 0.243895 5.58543e-19)
(-0.00575986 0.01509 4.66731e-19)
(-0.0163019 0.0473204 6.73388e-20)
(-0.0239917 0.0801787 -4.40575e-20)
(-0.0289586 0.11204 -1.88604e-20)
(-0.0312118 0.141891 3.44401e-19)
(-0.0307899 0.169086 1.10418e-19)
(-0.0278264 0.193237 9.92003e-20)
(-0.0225017 0.21416 -8.04945e-20)
(-0.0150129 0.231826 3.07782e-19)
(-0.00555715 0.246325 -1.51758e-19)
(0.00567899 0.257821 9.80018e-20)
(0.0185266 0.266525 2.45691e-19)
(0.0328376 0.272674 -1.40198e-19)
(0.0484859 0.276505 1.50147e-19)
(0.0653666 0.27825 1.4177e-19)
(0.0833951 0.278126 4.90565e-20)
(0.102505 0.276332 -1.22523e-19)
(0.122646 0.273046 3.3576e-19)
(0.143782 0.26843 -3.22614e-20)
(0.16589 0.262629 -3.9446e-20)
(0.188949 0.255773 4.11611e-19)
(0.212942 0.247983 -2.98209e-19)
(0.237862 0.239378 5.04257e-19)
(0.263662 0.230069 -4.26094e-19)
(0.28974 0.219914 5.30915e-19)
(-0.00584229 0.0137879 -2.23696e-19)
(-0.0168131 0.0434544 4.80055e-20)
(-0.025176 0.0737747 -5.07032e-20)
(-0.0308326 0.103222 -2.41009e-19)
(-0.0336816 0.130854 1.43372e-20)
(-0.0337047 0.156066 1.34635e-19)
(-0.031001 0.178485 -5.48116e-19)
(-0.0257338 0.197922 4.06563e-19)
(-0.0180955 0.214331 -3.9478e-19)
(-0.00828694 0.227769 -2.4835e-19)
(0.00349648 0.238369 2.2066e-19)
(0.0170745 0.246308 -4.76129e-19)
(0.0322873 0.251791 3.99928e-19)
(0.0489985 0.255028 -1.27672e-19)
(0.0670958 0.256227 -3.64609e-19)
(0.0864907 0.255584 9.07176e-20)
(0.107118 0.253281 -8.56873e-20)
(0.128933 0.249483 3.3483e-20)
(0.151911 0.244341 -1.15658e-19)
(0.176044 0.237995 -3.87919e-19)
(0.201332 0.230578 8.67002e-20)
(0.227775 0.222228 -1.91983e-21)
(0.255384 0.213117 -4.13178e-19)
(0.284075 0.203469 2.89501e-19)
(0.312952 0.193317 -2.47968e-19)
(-0.00596509 0.012701 9.01276e-20)
(-0.0173902 0.0400289 1.63763e-19)
(-0.0264383 0.0678756 2.28743e-19)
(-0.0327875 0.0948667 1.16459e-19)
(-0.036233 0.120164 -1.14168e-19)
(-0.0367054 0.14323 2.70976e-19)
(-0.0342718 0.163727 1.98586e-19)
(-0.0290778 0.181476 -7.38693e-20)
(-0.0213085 0.196424 2.56161e-19)
(-0.0111647 0.208609 -2.63254e-19)
(0.00115418 0.218138 -7.73621e-20)
(0.0154616 0.225157 7.80586e-20)
(0.0315911 0.229841 1.52123e-19)
(0.0494009 0.232372 2.25041e-21)
(0.0687754 0.232932 9.6028e-20)
(0.0896269 0.231691 1.7969e-19)
(0.111894 0.228812 -3.06674e-19)
(0.135544 0.224437 3.8237e-19)
(0.160565 0.218702 1.29759e-19)
(0.186967 0.211731 4.79037e-20)
(0.214773 0.20365 -4.73342e-19)
(0.244001 0.194605 6.5558e-20)
(0.274671 0.184821 1.05712e-19)
(0.306666 0.174665 -2.77815e-20)
(0.338701 0.164425 1.21498e-19)
(-0.00615784 0.0118483 5.74441e-21)
(-0.0180854 0.0370979 -4.20743e-19)
(-0.0278197 0.0625738 -1.14772e-20)
(-0.0348315 0.0871076 -1.05593e-19)
(-0.0388269 0.109999 -6.87171e-19)
(-0.039695 0.130796 5.89842e-19)
(-0.037476 0.149216 -4.17876e-19)
(-0.0322992 0.165107 -2.19228e-20)
(-0.024341 0.178419 -1.94557e-19)
(-0.0137985 0.189182 3.34474e-19)
(-0.000870478 0.197481 -3.58551e-19)
(0.014256 0.203439 -1.67017e-19)
(0.0314137 0.207203 2.26577e-21)
(0.0504613 0.208928 -3.59333e-19)
(0.071286 0.208767 4.90339e-19)
(0.0938053 0.206867 -5.69496e-19)
(0.117967 0.203362 7.93813e-22)
(0.143749 0.198373 8.69396e-20)
(0.171155 0.192008 -2.22205e-19)
(0.200215 0.184371 2.18672e-19)
(0.230963 0.17557 -3.088e-19)
(0.263427 0.165749 -2.08081e-19)
(0.297624 0.155176 3.91669e-19)
(0.333398 0.144389 -4.31932e-19)
(0.368989 0.134011 -7.55241e-21)
(-0.00644659 0.0112375 -3.55053e-19)
(-0.0189408 0.034689 4.06452e-19)
(-0.0293433 0.0579276 -1.25863e-19)
(-0.0369479 0.080042 2.39424e-19)
(-0.041391 0.100497 2.57095e-19)
(-0.0425333 0.118949 -2.25722e-19)
(-0.0403951 0.135184 -1.46564e-19)
(-0.0350918 0.14909 -1.7554e-19)
(-0.0267905 0.160632 1.60882e-19)
(-0.0156809 0.169838 -1.15073e-20)
(-0.00195608 0.176781 2.31531e-19)
(0.0142025 0.181567 2.27179e-19)
(0.0326338 0.184317 -2.70376e-19)
(0.0532031 0.185162 5.29167e-19)
(0.0758059 0.184229 -3.51343e-19)
(0.100369 0.181639 -5.94407e-20)
(0.126851 0.177498 6.86138e-19)
(0.155238 0.171901 -3.18239e-19)
(0.185547 0.164929 2.05579e-19)
(0.21781 0.156655 4.04586e-19)
(0.252064 0.147165 -2.63001e-19)
(0.288318 0.136585 2.74065e-20)
(0.326556 0.125215 -1.98408e-20)
(0.366581 0.113785 -1.12892e-19)
(0.406104 0.103319 2.06384e-19)
(-0.00685117 0.0108636 8.06969e-20)
(-0.0199816 0.0328012 -2.54119e-19)
(-0.0310073 0.0539592 1.38499e-19)
(-0.0390866 0.0737272 -2.15303e-21)
(-0.0438112 0.0917604 1.03816e-19)
(-0.0450284 0.10784 -1.77114e-19)
(-0.0427467 0.121833 1.01193e-19)
(-0.0370707 0.133677 2.74144e-19)
(-0.0281572 0.143363 -8.09273e-21)
(-0.0161854 0.150926 -1.37183e-19)
(-0.0013368 0.156434 1.36816e-19)
(0.0162186 0.159979 -3.75985e-21)
(0.0363318 0.161663 -4.32946e-19)
(0.0588803 0.161596 1.60064e-19)
(0.0837711 0.159882 3.48349e-20)
(0.11094 0.156615 -6.16868e-20)
(0.140353 0.15188 -1.12796e-19)
(0.171997 0.145741 4.28539e-19)
(0.205881 0.138255 1.05512e-19)
(0.242023 0.129465 -2.27194e-19)
(0.280428 0.119425 -2.86722e-20)
(0.321054 0.10824 3.21024e-19)
(0.363807 0.0962212 -1.49496e-19)
(0.408449 0.0842932 6.66961e-20)
(0.452167 0.0739349 4.27623e-20)
(-0.00738257 0.0107087 -1.60256e-19)
(-0.021212 0.0314048 1.59836e-19)
(-0.0327787 0.0506533 -8.92751e-20)
(-0.0411586 0.0681792 -2.85673e-19)
(-0.045927 0.0838474 -2.62134e-19)
(-0.0469337 0.0975753 -1.13611e-19)
(-0.0441841 0.109323 -9.46432e-20)
(-0.0377751 0.119086 -2.77888e-19)
(-0.0278522 0.126888 -1.1193e-19)
(-0.014581 0.132777 1.02145e-19)
(0.00187271 0.136823 -1.44491e-19)
(0.0213553 0.13911 -1.51072e-19)
(0.0437333 0.139727 -1.41294e-19)
(0.0688978 0.138765 2.56103e-19)
(0.0967645 0.136309 -5.37451e-19)
(0.127273 0.132434 3.07984e-19)
(0.16038 0.127201 -5.26513e-19)
(0.196056 0.120653 -8.16191e-20)
(0.234276 0.112821 -2.93183e-19)
(0.275006 0.103726 -6.95211e-20)
(0.318185 0.0933942 -8.45348e-20)
(0.36367 0.0818988 -2.87079e-19)
(0.411246 0.0695419 -3.35697e-20)
(0.460631 0.0574316 1.80593e-19)
(0.508601 0.0475369 -4.58433e-19)
(-0.00804069 0.0107419 1.36924e-19)
(-0.0226106 0.0304419 1.78523e-19)
(-0.0345905 0.0479575 6.22729e-19)
(-0.0430345 0.0633715 -1.08459e-19)
(-0.0475325 0.0767703 2.58508e-19)
(-0.0479527 0.0882166 6.11531e-19)
(-0.0443057 0.0977699 -1.66359e-19)
(-0.0366841 0.105489 2.23504e-19)
(-0.0252224 0.111435 1.29344e-19)
(-0.0100705 0.115678 2.33288e-19)
(0.00862329 0.118293 -4.58096e-20)
(0.0307223 0.119361 3.16709e-20)
(0.0561069 0.118963 -7.98027e-20)
(0.0846752 0.117176 4.34099e-19)
(0.116341 0.114071 5.53446e-20)
(0.151029 0.109707 4.022e-19)
(0.188667 0.104126 -1.03398e-19)
(0.229175 0.0973574 3.70914e-19)
(0.272458 0.0894145 5.33322e-20)
(0.318389 0.0803009 1.9198e-19)
(0.366794 0.0700234 -8.41061e-20)
(0.417395 0.0586252 -1.8065e-20)
(0.469811 0.0463773 4.68613e-19)
(0.52372 0.0345341 2.94805e-19)
(0.5757 0.0255895 -1.18128e-19)
(-0.00881299 0.0109205 -3.29544e-19)
(-0.0241293 0.029829 -3.32825e-19)
(-0.0363419 0.045785 -3.46931e-19)
(-0.0445479 0.0592357 1.27263e-19)
(-0.0483835 0.0704939 -2.5384e-19)
(-0.0477508 0.0797716 -3.75798e-20)
(-0.0426744 0.0872304 -9.88664e-20)
(-0.0332465 0.0929962 -4.06157e-19)
(-0.0195924 0.097173 -6.22431e-20)
(-0.00184811 0.0998533 1.0288e-19)
(0.0198526 0.101123 -3.20429e-19)
(0.045384 0.101065 4.43656e-19)
(0.0746299 0.0997559 -5.99834e-19)
(0.10748 0.0972643 1.44013e-19)
(0.143825 0.0936497 -3.65986e-19)
(0.183547 0.0889594 -2.9744e-19)
(0.226508 0.0832262 -1.72896e-20)
(0.272543 0.0764688 -4.58882e-20)
(0.321443 0.0686918 3.50659e-20)
(0.37295 0.0598909 -1.74048e-19)
(0.426739 0.0500626 -1.21573e-19)
(0.482368 0.0392264 1.51491e-19)
(0.539271 0.0276034 -4.22206e-19)
(0.59708 0.0165347 1.38217e-19)
(0.652473 0.00909109 9.79653e-20)
(-0.00967418 0.0111929 -5.80511e-20)
(-0.0256942 0.0294619 -9.56488e-20)
(-0.0379015 0.0440185 3.7418e-19)
(-0.0455025 0.0556651 1.38345e-19)
(-0.0482098 0.0649371 1.82119e-19)
(-0.0459745 0.072195 -2.42725e-19)
(-0.0388444 0.0777023 9.59232e-22)
(-0.0269177 0.0816531 -1.93469e-19)
(-0.010316 0.084195 3.57315e-19)
(0.0108318 0.0854465 1.15481e-19)
(0.0363962 0.0855076 1.28138e-19)
(0.0662478 0.084465 -5.12081e-19)
(0.100253 0.0823941 6.28944e-19)
(0.138269 0.0793592 -1.88771e-19)
(0.180128 0.0754131 -1.34929e-19)
(0.225635 0.0705959 4.04298e-19)
(0.274549 0.0649349 1.81474e-19)
(0.326576 0.0584447 -4.59871e-19)
(0.381358 0.0511283 -1.94878e-19)
(0.438473 0.042981 5.87685e-19)
(0.49742 0.0339973 -4.53989e-19)
(0.557591 0.0241811 2.74427e-19)
(0.618238 0.0136894 1.57038e-19)
(0.678935 0.00387093 -2.02268e-19)
(0.736777 -0.00154562 -1.91599e-19)
(-0.0105873 0.0115017 -2.12824e-19)
(-0.0272087 0.0292223 3.31313e-19)
(-0.0391144 0.0425182 1.4076e-19)
(-0.0456823 0.0525213 -2.03023e-19)
(-0.0467299 0.0599777 -3.2665e-20)
(-0.0422722 0.0653911 -2.11124e-19)
(-0.0323908 0.0691233 -8.34419e-20)
(-0.0171996 0.0714351 9.31319e-20)
(0.00317271 0.0725174 -2.38794e-20)
(0.0285901 0.0725157 1.73473e-19)
(0.0589086 0.071545 -1.50209e-19)
(0.0939707 0.0696986 4.14963e-19)
(0.133596 0.0670531 -5.12557e-19)
(0.177571 0.0636705 3.19346e-19)
(0.225637 0.0595997 3.96516e-19)
(0.277476 0.0548772 -5.73894e-19)
(0.332705 0.0495282 -1.75805e-19)
(0.390869 0.0435675 2.96368e-19)
(0.451433 0.0370012 -1.84049e-19)
(0.51379 0.0298297 1.80099e-19)
(0.577263 0.0220521 -4.37797e-19)
(0.641083 0.0136639 7.22208e-20)
(0.704356 0.00475013 2.92032e-19)
(0.766599 -0.00340895 -4.75319e-19)
(0.825544 -0.00634101 1.2345e-19)
(-0.0115061 0.0117885 -1.96172e-19)
(-0.0285591 0.028986 6.15552e-19)
(-0.0398101 0.041131 1.17908e-19)
(-0.0448632 0.0496436 -3.17971e-19)
(-0.0436666 0.0554617 2.27319e-19)
(-0.0363142 0.0592225 1.14755e-19)
(-0.0229349 0.0613799 1.82047e-19)
(-0.00367239 0.062257 -1.27253e-20)
(0.02132 0.0620864 -1.92982e-20)
(0.0518769 0.0610398 -3.91538e-20)
(0.0878121 0.0592474 -1.70058e-19)
(0.128907 0.0568099 -5.22725e-21)
(0.174895 0.0538057 3.96676e-19)
(0.225454 0.0502956 -6.49302e-19)
(0.280188 0.0463256 4.61921e-19)
(0.338623 0.0419295 9.31904e-20)
(0.400201 0.0371315 1.65302e-19)
(0.464283 0.0319482 -8.68601e-20)
(0.530148 0.0263918 7.66292e-19)
(0.597008 0.0204731 -4.77029e-19)
(0.664019 0.0142043 3.84653e-19)
(0.730267 0.00758529 9.23838e-20)
(0.794744 0.000651567 -2.88187e-19)
(0.856919 -0.00537876 2.45897e-19)
(0.915073 -0.00537726 3.76142e-19)
(-0.0123782 0.011998 -5.6745e-20)
(-0.0296209 0.0286328 -2.17044e-19)
(-0.0398108 0.0397021 -3.70329e-19)
(-0.0428225 0.0468621 -2.10253e-19)
(-0.0387584 0.0512177 -2.94951e-20)
(-0.0278066 0.0535259 -8.26848e-20)
(-0.0101601 0.0543236 -3.80433e-19)
(0.0139875 0.0539906 6.31284e-20)
(0.0444338 0.0527975 -4.23396e-19)
(0.0809536 0.0509402 -3.23896e-20)
(0.123283 0.0485629 -4.0341e-19)
(0.1711 0.0457725 -1.43403e-19)
(0.224012 0.0426483 8.19626e-20)
(0.281542 0.0392483 -3.90979e-19)
(0.343121 0.0356136 3.47609e-21)
(0.408086 0.0317725 -3.36865e-19)
(0.475687 0.0277447 1.30258e-19)
(0.545097 0.0235452 -4.7255e-19)
(0.615426 0.0191896 -8.16505e-20)
(0.685744 0.0147007 -1.11979e-20)
(0.755096 0.0101126 -8.0542e-20)
(0.822496 0.00545763 -8.17686e-20)
(0.886886 0.000819531 -3.86467e-20)
(0.947653 -0.0025007 -1.64328e-19)
(1.00252 0.00031547 -3.52047e-19)
(-0.0131487 0.012083 1.04093e-19)
(-0.0302657 0.028055 2.74619e-19)
(-0.0389389 0.0380872 3.29504e-19)
(-0.0393472 0.0440127 -2.62918e-19)
(-0.0317668 0.0470739 4.86343e-19)
(-0.0164974 0.0481314 -2.63567e-19)
(0.00618297 0.0477938 1.42727e-19)
(0.0360052 0.0464903 2.20867e-19)
(0.0726858 0.0445245 2.00349e-19)
(0.115902 0.0421128 9.6822e-20)
(0.165269 0.0394104 1.5673e-19)
(0.220319 0.0365274 9.06198e-20)
(0.280484 0.0335406 6.12648e-19)
(0.345094 0.0305003 -4.45677e-19)
(0.413372 0.027437 5.07921e-19)
(0.484448 0.0243658 -2.11858e-19)
(0.557372 0.0212924 4.56444e-19)
(0.631146 0.0182183 -2.15965e-20)
(0.704748 0.015148 -9.47113e-20)
(0.777171 0.0120981 -1.67956e-20)
(0.847455 0.00910812 3.60032e-19)
(0.914719 0.00625306 -3.48196e-19)
(0.978224 0.00377181 2.4799e-19)
(1.03775 0.00292521 2.69006e-19)
(1.08831 0.00466117 5.22244e-20)
(-0.0137638 0.0120068 7.19473e-20)
(-0.0303666 0.0271651 -3.92887e-19)
(-0.0370223 0.0361643 -1.42482e-19)
(-0.0342369 0.0409524 1.29504e-19)
(-0.0224776 0.0428774 -3.99313e-19)
(-0.00217515 0.0428854 -7.86121e-20)
(0.0262825 0.0416441 5.42433e-20)
(0.0625186 0.039623 2.12848e-19)
(0.10613 0.0371523 -5.39942e-19)
(0.156654 0.0344637 4.06298e-20)
(0.213535 0.0317179 -1.57143e-19)
(0.27611 0.0290229 -4.75938e-19)
(0.343597 0.026446 3.24598e-19)
(0.415092 0.0240223 1.30654e-20)
(0.489589 0.021762 -9.00179e-21)
(0.566001 0.0196567 3.25222e-19)
(0.643192 0.0176848 -5.76264e-19)
(0.720017 0.0158187 4.55917e-19)
(0.795366 0.014031 -8.46764e-20)
(0.868207 0.012301 2.63886e-19)
(0.937626 0.0106207 -4.34885e-19)
(1.00286 0.00899636 2.46697e-19)
(1.06335 0.00749501 -4.34646e-19)
(1.11903 0.00668965 4.37654e-19)
(1.16669 0.00705913 -1.40138e-19)
(-0.0141726 0.0117453 4.84535e-19)
(-0.0298021 0.0259017 -7.90896e-20)
(-0.0338974 0.0338434 5.80926e-19)
(-0.0273042 0.037573 2.68273e-19)
(-0.010698 0.0385119 2.1068e-20)
(0.0153386 0.0376725 1.16742e-19)
(0.0502774 0.0357677 2.79786e-20)
(0.0935964 0.0332969 4.72937e-19)
(0.144729 0.0306085 1.51636e-19)
(0.203019 0.0279417 -2.02023e-20)
(0.267695 0.025455 4.06625e-20)
(0.33785 0.0232451 1.56775e-19)
(0.412444 0.0213599 1.30436e-19)
(0.490319 0.0198085 2.77784e-19)
(0.570227 0.0185695 -3.16608e-19)
(0.650875 0.0175989 9.55432e-20)
(0.73097 0.0168375 2.89685e-20)
(0.809271 0.0162185 1.40941e-19)
(0.884641 0.015675 3.79516e-19)
(0.956087 0.0151454 -2.49283e-19)
(1.0228 0.0145775 1.94809e-20)
(1.08417 0.0139268 -3.41864e-19)
(1.1398 0.013167 3.18189e-19)
(1.18969 0.0125927 -2.97163e-19)
(1.232 0.013083 3.45448e-20)
(-0.0143297 0.0112874 -4.04406e-19)
(-0.0284586 0.0242318 3.08869e-19)
(-0.0294091 0.0310729 -5.02274e-19)
(-0.0183737 0.0338117 4.33815e-20)
(0.00374859 0.0339123 3.52119e-19)
(0.0361974 0.0324334 -5.8585e-19)
(0.0782697 0.030118 4.63428e-19)
(0.129254 0.0274836 -7.34155e-19)
(0.188369 0.0248855 1.464e-19)
(0.254715 0.0225598 3.0962e-20)
(0.32725 0.0206509 2.45194e-19)
(0.404779 0.0192317 -8.14358e-19)
(0.485977 0.0183176 1.40441e-19)
(0.569417 0.0178782 1.48477e-19)
(0.653623 0.0178483 -8.8994e-20)
(0.737129 0.018138 -5.49691e-19)
(0.818542 0.0186431 2.5924e-19)
(0.896596 0.0192546 4.81312e-19)
(0.970207 0.0198673 -5.04874e-19)
(1.03851 0.0203864 3.63917e-19)
(1.10086 0.0207311 -4.64917e-19)
(1.15688 0.0208337 3.35871e-19)
(1.20641 0.0206416 -8.86379e-20)
(1.24958 0.0203379 5.05176e-19)
(1.28556 0.0209572 -5.58029e-19)
(-0.0141944 0.0106341 5.81294e-20)
(-0.0262307 0.0221516 4.5765e-20)
(-0.0234111 0.0278427 1.1219e-19)
(-0.00727871 0.0296579 3.98538e-19)
(0.021026 0.0290738 -1.2256e-20)
(0.0605356 0.027176 8.90538e-20)
(0.110331 0.0247211 3.9464e-19)
(0.169461 0.0222298 1.59054e-19)
(0.236874 0.0200506 -5.20287e-20)
(0.311372 0.0184011 4.44796e-19)
(0.391591 0.017396 -5.05467e-19)
(0.476017 0.017068 7.7475e-19)
(0.563022 0.0173839 -3.06697e-19)
(0.650923 0.0182598 5.56068e-19)
(0.738051 0.0195754 -1.87521e-19)
(0.822833 0.0211881 6.82666e-20)
(0.903851 0.0229471 8.25969e-20)
(0.97991 0.0247048 -1.57211e-19)
(1.05007 0.0263274 1.32247e-19)
(1.11368 0.0277014 8.44423e-20)
(1.17036 0.0287375 1.14605e-19)
(1.21998 0.0293697 2.36828e-19)
(1.26267 0.0295537 -2.34145e-20)
(1.29877 0.0294225 -1.07142e-19)
(1.32817 0.0300224 3.00027e-19)
(-0.0137306 0.00979589 -3.39688e-19)
(-0.0230197 0.0196833 3.58222e-20)
(-0.0157637 0.0241839 -6.44267e-19)
(0.00613945 0.0251538 -1.53879e-19)
(0.0412868 0.0240548 -2.87295e-19)
(0.0884679 0.0219788 -6.17717e-20)
(0.1465 0.0196779 -3.07175e-19)
(0.214135 0.017658 -1.83061e-19)
(0.289994 0.0162423 2.42893e-19)
(0.372522 0.0156106 -4.04814e-19)
(0.459997 0.0158278 -1.12287e-19)
(0.550562 0.0168668 3.91869e-21)
(0.642298 0.0186292 -7.56148e-19)
(0.733302 0.0209645 3.20867e-19)
(0.821781 0.0236903 -4.67096e-19)
(0.906138 0.0266105 -1.42536e-20)
(0.985039 0.0295327 9.04809e-20)
(1.05746 0.032282 -1.48498e-19)
(1.1227 0.0347111 -1.29139e-19)
(1.18039 0.0367061 6.23046e-20)
(1.23047 0.0381886 6.84002e-20)
(1.27312 0.0391134 -4.44377e-19)
(1.30872 0.0394632 2.52144e-19)
(1.33785 0.0393591 1.21008e-19)
(1.36085 0.039735 2.70267e-20)
(-0.0129046 0.00879108 3.48077e-19)
(-0.0187324 0.0168721 -3.7126e-19)
(-0.006334 0.0201647 5.19844e-19)
(0.0220303 0.0203914 8.0316e-20)
(0.0646678 0.0189731 -2.46557e-20)
(0.120082 0.0169863 -1.74973e-19)
(0.186771 0.0151573 2.60981e-20)
(0.26313 0.0139554 2.6496e-19)
(0.347388 0.013655 -3.65156e-19)
(0.437589 0.0143742 3.8284e-19)
(0.531624 0.0161047 -4.00726e-20)
(0.6273 0.0187396 1.78396e-20)
(0.722441 0.0220999 4.96804e-19)
(0.814996 0.0259604 6.62142e-19)
(0.903144 0.0300758 -2.59169e-19)
(0.985374 0.0342034 4.56047e-19)
(1.06054 0.0381224 2.28643e-19)
(1.1279 0.0416475 -1.4115e-19)
(1.18706 0.0446372 4.38186e-19)
(1.23801 0.0469965 -1.99559e-20)
(1.28099 0.0486748 -4.13207e-19)
(1.31651 0.0496606 4.29432e-19)
(1.34519 0.0499724 5.77212e-20)
(1.3678 0.0497363 -2.57583e-19)
(1.38493 0.0497268 8.07563e-20)
(-0.0116843 0.00764319 -4.85158e-19)
(-0.0132798 0.0137817 5.06373e-19)
(0.0050039 0.015885 -3.21275e-19)
(0.0405302 0.0155062 -1.0066e-19)
(0.0912822 0.0139979 -2.24094e-19)
(0.155426 0.0123979 3.96042e-19)
(0.231078 0.0113814 -2.30318e-19)
(0.31621 0.0113544 -1.05505e-19)
(0.408605 0.0125145 -3.02044e-19)
(0.50587 0.0148903 7.74956e-21)
(0.605506 0.0183762 -1.17694e-19)
(0.705018 0.0227673 5.7072e-20)
(0.802047 0.0277937 -6.00465e-19)
(0.894493 0.0331549 1.71125e-19)
(0.980622 0.0385508 -2.04787e-19)
(1.05913 0.043707 -1.63797e-19)
(1.12918 0.0483942 5.02747e-20)
(1.19035 0.052438 -2.35382e-19)
(1.24266 0.0557232 -9.81349e-20)
(1.28643 0.058191 2.87351e-19)
(1.32223 0.0598318 1.18144e-19)
(1.35083 0.0606754 -5.03411e-19)
(1.37307 0.06078 3.64855e-19)
(1.38984 0.0602835 -6.8329e-20)
(1.40184 0.0597868 -1.37515e-19)
(-0.0100371 0.00637935 -1.77372e-19)
(-0.0065765 0.0104898 -9.48134e-20)
(0.0183659 0.0114705 -1.91619e-20)
(0.0617554 0.0106678 1.37985e-19)
(0.121207 0.00933795 1.50498e-19)
(0.19449 0.00845245 1.31407e-19)
(0.27927 0.00860608 1.62922e-19)
(0.373031 0.0101092 2.48908e-19)
(0.473067 0.0130507 3.8002e-19)
(0.576534 0.0173411 3.75934e-19)
(0.680571 0.0227552 1.9794e-19)
(0.782451 0.0289771 -5.3017e-20)
(0.879734 0.0356445 1.37529e-20)
(0.970399 0.0423904 -1.68034e-20)
(1.05293 0.0488769 1.55795e-19)
(1.12633 0.0548207 -3.96685e-20)
(1.19016 0.0600075 4.51669e-19)
(1.24441 0.0642967 -2.03264e-19)
(1.28947 0.0676179 2.05488e-21)
(1.32601 0.0699617 1.36812e-19)
(1.35489 0.0713673 -3.00513e-19)
(1.37708 0.0719083 4.90915e-19)
(1.39355 0.0716809 -3.95109e-19)
(1.40526 0.0708335 6.99044e-20)
(1.41297 0.0698093 -2.48068e-19)
(-0.00793001 0.0050293 3.80679e-19)
(0.00145868 0.00708541 2.56311e-19)
(0.0338539 0.00706619 -1.64426e-19)
(0.0857934 0.00607133 7.25402e-19)
(0.154471 0.00522862 -6.27841e-19)
(0.23719 0.0054117 1.32975e-19)
(0.331096 0.00709961 -9.94881e-20)
(0.43313 0.010471 -4.38516e-19)
(0.54007 0.0154722 -4.52941e-20)
(0.648639 0.0218683 -3.52551e-19)
(0.755678 0.0292979 7.57373e-21)
(0.858334 0.0373305 -3.64522e-19)
(0.954218 0.0455204 -2.56103e-19)
(1.04152 0.0534525 3.52765e-19)
(1.11907 0.0607767 -5.48456e-19)
(1.18628 0.0672277 -1.38785e-19)
(1.24315 0.0726313 5.61122e-19)
(1.2901 0.0769009 -4.7034e-19)
(1.32788 0.0800251 1.94915e-20)
(1.35746 0.0820516 -1.77583e-19)