1.22 	3.45254e-18 	-6.98323e-18 	0.0960005 	0.232627 	-1.44736e-21
1.66 	3.45254e-18 	-6.96118e-18 	-0.105259 	0.683184 	-1.2031e-22
2.1 	3.45254e-18 	-6.93894e-18 	0.245456 	0.46037 	-1.98467e-21
2.54 	3.45254e-18 	-8.30431e-18 	0.68794 	-0.193149 	-3.70516e-23
2.98 	3.45254e-18 	-8.28171e-18 	0.859218 	-0.538031 	1.87869e-21
3.42 	3.45254e-18 	-6.87115e-18 	0.779603 	-0.661608 	1.16315e-21
3.86 	3.45254e-18 	-6.84819e-18 	0.765938 	-0.577083 	2.14199e-22
4.3 	3.45254e-18 	-6.82504e-18 	0.901548 	-0.168099 	1.26282e-21
4.74 	3.45254e-18 	-5.41391e-18 	1.00163 	0.223799 	-1.18343e-21
5.18 	3.45254e-18 	-2.61482e-18 	1.0307 	0.411351 	-6.21663e-22
5.62 	3.45254e-18 	-1.2033e-18 	0.940344 	0.599433 	2.55413e-22
6.06 	3.45254e-18 	-1.17937e-18 	0.954857 	0.500324 	5.20253e-22
6.5 	3.45254e-18 	-1.15524e-18 	0.999834 	0.226805 	-4.69831e-22
