/*--------------------------------*- C++ -*----------------------------------*\
  =========                 |
  \\      /  F ield         | OpenFOAM: The Open Source CFD Toolbox
   \\    /   O peration     | Website:  https://openfoam.org
    \\  /    A nd           | Version:  6.0
     \\/     M anipulation  |
\*---------------------------------------------------------------------------*/
FoamFile
{
    version     2.0;
    format      ascii;
    class       volVectorField;
    location    "67";
    object      U;
}
// * * * * * * * * * * * * * * * * * * * * * * * * * * * * * * * * * * * * * //

dimensions      [0 1 -1 0 0 0 0];

internalField   nonuniform List<vector> 
4000
(
(0.105306 0.00784338 6.54624e-20)
(0.331202 0.0405086 -3.5678e-20)
(0.557771 0.0959366 4.20366e-20)
(0.766648 0.158012 -3.12638e-20)
(0.943633 0.216451 -1.39651e-20)
(1.08196 0.265416 4.26463e-21)
(1.18196 0.302392 -1.36278e-20)
(1.2487 0.327496 4.88369e-20)
(1.28931 0.342428 -4.04992e-20)
(1.311 0.349485 9.49138e-21)
(1.31994 0.350917 -7.069e-21)
(1.32088 0.348603 -4.54322e-20)
(1.31717 0.343958 4.38988e-20)
(1.31103 0.337968 1.6553e-20)
(1.30385 0.331282 -1.64185e-20)
(1.29647 0.324304 3.8296e-20)
(1.28938 0.317262 -6.53933e-22)
(1.28287 0.310318 -3.66674e-20)
(1.2771 0.303835 2.69753e-20)
(1.27222 0.297672 8.37813e-21)
(0.119888 0.0131194 -2.29617e-20)
(0.366309 0.0565337 6.64215e-20)
(0.60424 0.121186 7.67973e-20)
(0.815825 0.18929 -3.62281e-20)
(0.98861 0.2502 6.29247e-20)
(1.11846 0.29869 9.9238e-20)
(1.20835 0.333278 -5.4985e-21)
(1.2653 0.355094 -1.6867e-20)
(1.29757 0.36659 8.32526e-20)
(1.31279 0.370511 4.04283e-20)
(1.31706 0.369298 -7.2057e-21)
(1.31484 0.364856 5.97545e-20)
(1.30911 0.358538 -6.34536e-20)
(1.30174 0.351237 9.87641e-20)
(1.29386 0.343511 -1.63762e-20)
(1.28612 0.335691 4.65034e-20)
(1.27889 0.327952 8.19698e-21)
(1.27237 0.320433 3.2747e-20)
(1.26666 0.313494 -3.11579e-20)
(1.26188 0.306866 7.52745e-21)
(0.134598 0.0195147 -3.57013e-20)
(0.400525 0.0749538 8.41216e-20)
(0.647963 0.149006 6.25545e-20)
(0.860268 0.222574 -9.46387e-21)
(1.02736 0.28509 9.72109e-20)
(1.14807 0.332291 -7.27576e-20)
(1.22795 0.363911 -5.40977e-21)
(1.27577 0.382125 6.36816e-20)
(1.30065 0.390091 2.01675e-20)
(1.31039 0.390918 2.80831e-20)
(1.31091 0.387168 -4.13091e-20)
(1.30627 0.380718 1.07197e-19)
(1.29908 0.372827 1.97303e-20)
(1.29089 0.364288 -9.40495e-20)
(1.2826 0.355568 1.3653e-19)
(1.2747 0.346931 -1.60229e-19)
(1.26746 0.338505 -7.27716e-20)
(1.26104 0.330414 1.24077e-20)
(1.25545 0.323016 7.00588e-20)
(1.25082 0.315904 -1.31658e-19)
(0.149197 0.0270304 -7.97567e-20)
(0.433266 0.0956356 -1.88395e-19)
(0.688252 0.179087 -1.63225e-19)
(0.899435 0.257442 -2.21444e-19)
(1.05966 0.320697 -1.25535e-19)
(1.17088 0.365869 -2.5952e-19)
(1.24112 0.394044 3.30086e-20)
(1.28062 0.408443 -1.36837e-19)
(1.29909 0.412853 -1.50012e-20)
(1.30431 0.410669 2.24188e-20)
(1.30189 0.4045 -4.89595e-20)
(1.29547 0.396153 6.08736e-20)
(1.28729 0.386779 1.07801e-19)
(1.27862 0.377061 -1.51581e-19)
(1.27015 0.367382 2.41389e-20)
(1.26225 0.357945 6.93578e-20)
(1.25512 0.348838 1.15483e-19)
(1.24887 0.340177 -9.96177e-20)
(1.24348 0.332313 -4.66288e-21)
(1.23906 0.324705 1.15515e-19)
(0.163436 0.0356376 -1.5001e-19)
(0.463979 0.118382 4.1215e-19)
(0.724509 0.211059 -7.24857e-20)
(0.932921 0.293449 9.62818e-20)
(1.08541 0.356598 -9.38145e-20)
(1.18709 0.39909 2.88337e-19)
(1.24825 0.423449 -4.56362e-20)
(1.28033 0.433904 2.72089e-20)
(1.29336 0.434791 -1.35173e-20)
(1.29495 0.4297 4.42627e-20)
(1.2903 0.421235 2.85247e-20)
(1.28266 0.411099 3.58468e-20)
(1.27389 0.400319 -1.01568e-19)
(1.26501 0.389471 1.481e-19)
(1.25654 0.378861 -1.1231e-19)
(1.24878 0.368637 2.11009e-20)
(1.24187 0.358854 -7.14749e-20)
(1.23586 0.349625 1.49832e-20)
(1.23072 0.34129 1.67918e-20)
(1.22657 0.333175 -1.57565e-19)
(0.177067 0.0452764 1.04347e-20)
(0.49215 0.142936 -2.0701e-19)
(0.756239 0.244509 1.14691e-19)
(0.960454 0.33013 -3.98532e-19)
(1.10463 0.392379 1.93081e-19)
(1.19697 0.431637 -3.29855e-19)
(1.24976 0.451908 -2.56939e-19)
(1.27535 0.458367 -9.79187e-21)
(1.28387 0.455805 -8.68938e-20)
(1.28264 0.447934 -2.69689e-19)
(1.2764 0.437296 -3.36388e-20)
(1.268 0.425469 -2.57148e-19)
(1.25897 0.413352 4.65979e-20)
(1.25011 0.401418 -3.68599e-20)
(1.24182 0.3899 2.16032e-20)
(1.23431 0.378901 -1.70073e-19)
(1.2277 0.36845 9.23254e-21)
(1.22201 0.358657 3.41149e-20)
(1.21718 0.349848 -7.7835e-20)
(1.21336 0.341224 6.78908e-20)
(0.189848 0.0558574 -8.48577e-20)
(0.517326 0.168991 3.77829e-19)
(0.783052 0.278989 3.09462e-21)
(0.98188 0.367015 -3.26467e-19)
(1.11742 0.427637 2.46629e-19)
(1.20082 0.463208 1.03381e-19)
(1.24606 0.479212 2.10965e-20)
(1.26609 0.481686 -1.73644e-19)
(1.27098 0.475786 2.82016e-19)
(1.26765 0.465272 -1.64888e-19)
(1.26039 0.452584 5.95708e-20)
(1.25162 0.439159 2.77502e-19)
(1.24261 0.425768 -2.4901e-19)
(1.23398 0.412787 2.72461e-19)
(1.22601 0.400387 -1.76876e-19)
(1.21886 0.388626 -3.46228e-20)
(1.21263 0.377514 4.13717e-20)
(1.20733 0.367165 5.20503e-20)
(1.20286 0.357883 7.16655e-20)
(1.19944 0.348755 4.30053e-20)
(0.201555 0.0672627 3.35317e-20)
(0.539119 0.196197 -3.38718e-19)
(0.804663 0.314026 6.03854e-20)
(0.997152 0.403637 7.86574e-19)
(1.12399 0.461984 -7.25641e-20)
(1.199 0.493515 2.1727e-19)
(1.23755 0.505156 1.35551e-19)
(1.25294 0.503713 2.2545e-20)
(1.25501 0.494612 -1.56674e-19)
(1.25022 0.481598 2.56721e-19)
(1.24241 0.466982 -2.96767e-20)
(1.23363 0.452049 3.88047e-19)
(1.2249 0.437444 1.48713e-19)
(1.21666 0.423456 9.26723e-20)
(1.20914 0.410197 -1.93359e-19)
(1.20245 0.397692 4.11041e-20)
(1.19668 0.385933 1.49071e-19)
(1.19183 0.375038 3.80572e-20)
(1.18779 0.365289 -1.79386e-19)
(1.18482 0.355673 -4.45585e-20)
(0.211981 0.079349 -1.88236e-19)
(0.557212 0.224171 6.06272e-19)
(0.820893 0.349137 -3.30023e-19)
(1.00632 0.439536 -3.03445e-19)
(1.12457 0.495048 -2.64101e-19)
(1.19185 0.522282 -2.22355e-19)
(1.22459 0.52954 -2.73712e-19)
(1.23622 0.524293 3.42565e-19)
(1.23622 0.512149 -2.44077e-19)
(1.23056 0.496786 -1.95713e-20)
(1.22261 0.48036 -1.89211e-21)
(1.21412 0.464005 -4.65605e-20)
(1.20587 0.448247 -1.19451e-19)
(1.1982 0.433293 -1.3262e-19)
(1.19124 0.419205 -7.06465e-21)
(1.18511 0.405976 -2.93241e-20)
(1.17988 0.393588 -7.17986e-20)
(1.17554 0.382163 -2.1954e-20)
(1.17199 0.371957 2.42355e-20)
(1.16954 0.361878 -1.51064e-19)
(0.220944 0.091951 3.2767e-19)
(0.571367 0.252506 3.39833e-19)
(0.831656 0.383835 -2.10838e-19)
(1.00951 0.474268 1.30124e-19)
(1.11947 0.526476 2.24016e-19)
(1.17976 0.549249 -4.6114e-20)
(1.20757 0.55217 5.51306e-20)
(1.21625 0.54327 6.18603e-20)
(1.21485 0.528255 1.02805e-19)
(1.20882 0.510696 -1.20242e-19)
(1.20112 0.492579 5.88441e-20)
(1.19317 0.474888 -4.03872e-20)
(1.18561 0.458037 1.7949e-19)
(1.17864 0.442162 7.75816e-20)
(1.17236 0.427277 -1.77677e-19)
(1.16688 0.413352 9.72036e-20)
(1.16226 0.400358 4.80259e-20)
(1.1585 0.388422 -8.73411e-20)
(1.1555 0.377776 2.35591e-19)
(1.15364 0.367271 -1.73326e-19)
(0.228293 0.104885 -2.40704e-19)
(0.581423 0.280781 -3.12717e-19)
(0.836961 0.417642 2.19125e-19)
(1.00693 0.507407 -2.02066e-19)
(1.109 0.555937 -1.87352e-20)
(1.16308 0.574167 -2.20978e-19)
(1.18682 0.572857 1.8346e-19)
(1.19332 0.560483 3.37351e-19)
(1.19112 0.542784 -4.6912e-19)
(1.18516 0.523184 2.40726e-20)
(1.17802 0.503493 1.8103e-20)
(1.17087 0.484551 -9.30539e-20)
(1.16416 0.466671 6.47223e-20)
(1.15804 0.449922 -2.69334e-20)
(1.15256 0.434281 1.78443e-19)
(1.14781 0.419691 -1.92028e-19)
(1.14388 0.406118 -6.53463e-20)
(1.14077 0.393693 1.70599e-19)
(1.13838 0.382628 -2.51806e-19)
(1.13717 0.371745 1.58652e-19)
(0.233907 0.117953 4.99721e-19)
(0.587294 0.308573 4.42425e-19)
(0.836895 0.450093 -7.43752e-20)
(0.998834 0.538553 -9.40976e-21)
(1.09353 0.583121 -2.24708e-19)
(1.1422 0.596806 9.56052e-20)
(1.16268 0.591417 4.68228e-19)
(1.1677 0.575775 -4.11065e-19)
(1.16523 0.555586 2.5899e-19)
(1.15974 0.534101 -2.28429e-20)
(1.15344 0.512955 1.57566e-19)
(1.14728 0.492847 -3.93584e-20)
(1.14159 0.474003 9.39326e-20)
(1.13645 0.456433 1.20209e-19)
(1.13189 0.440077 -6.74054e-20)
(1.12797 0.424858 8.06755e-20)
(1.1248 0.410736 -1.11763e-19)
(1.1224 0.397845 2.85244e-19)
(1.1207 0.38638 -1.7554e-19)
(1.12022 0.375172 1.25411e-19)
(0.237699 0.13095 -2.43093e-19)
(0.588968 0.33546 -4.54127e-19)
(0.83162 0.480745 -3.13477e-19)
(0.985528 0.567334 -2.22136e-20)
(1.07344 0.607744 7.45468e-20)
(1.11749 0.61695 -4.10328e-20)
(1.13547 0.607678 -2.66066e-19)
(1.13963 0.588994 -1.15902e-19)
(1.13737 0.566515 -2.10756e-19)
(1.13268 0.543303 -1.01993e-19)
(1.12746 0.520817 5.12713e-20)
(1.12248 0.499631 -2.42909e-19)
(1.11797 0.479889 -5.54814e-20)
(1.11396 0.461553 -5.39133e-20)
(1.11042 0.444529 -1.72004e-19)
(1.10742 0.428719 7.63531e-20)
(1.10508 0.414078 2.93216e-21)
(1.10345 0.400738 6.78092e-20)
(1.10252 0.388884 -2.90426e-20)
(1.10283 0.377403 -9.6084e-20)
(0.23962 0.143663 5.61587e-19)
(0.586505 0.361036 4.89386e-19)
(0.821362 0.509184 6.04946e-19)
(0.96736 0.593409 -6.28697e-20)
(1.0491 0.629547 -2.17143e-19)
(1.0893 0.634401 6.44983e-19)
(1.10551 0.621477 -3.18859e-19)
(1.10938 0.599993 3.52363e-19)
(1.10773 0.57543 -6.42139e-20)
(1.10413 0.550649 2.13932e-19)
(1.1002 0.52694 2.41349e-20)
(1.09656 0.504762 9.91751e-20)
(1.09337 0.484189 -2.20765e-20)
(1.0906 0.465142 9.7141e-20)
(1.08821 0.447498 -7.4817e-20)
(1.08624 0.431139 7.37379e-21)
(1.08481 0.416008 3.79386e-20)
(1.08402 0.402231 5.75309e-20)
(1.08392 0.389994 -6.47149e-21)
(1.08507 0.378297 2.59187e-20)
(0.239652 0.155882 -1.72096e-19)
(0.580025 0.384913 -4.82392e-19)
(0.806403 0.535028 -2.93334e-19)
(0.944712 0.616469 -5.111e-19)
(1.02093 0.648299 5.46852e-19)
(1.05802 0.648982 -3.81961e-19)
(1.07309 0.632669 2.40809e-19)
(1.07716 0.608639 -8.48382e-20)
(1.07648 0.582201 -1.0026e-19)
(1.07421 0.55601 -7.00503e-20)
(1.07174 0.531193 3.68471e-20)
(1.06959 0.508108 4.38604e-20)
(1.06784 0.48677 3.09137e-20)
(1.06645 0.467065 -4.69453e-20)
(1.06533 0.448846 -2.64696e-20)
(1.06449 0.431977 8.75585e-20)
(1.06407 0.416387 -1.7287e-20)
(1.06418 0.402183 -2.13447e-20)
(1.06496 0.389573 6.71371e-21)
(1.06697 0.377742 6.54007e-21)
(0.237815 0.167402 7.56536e-19)
(0.569709 0.40673 3.54643e-19)
(0.787073 0.557933 3.31599e-19)
(0.917988 0.636245 -1.9537e-19)
(0.989334 0.663798 2.34503e-20)
(1.024 0.66054 2.75104e-19)
(1.03852 0.641123 3.50124e-20)
(1.04322 0.614811 7.03116e-20)
(1.04379 0.586713 7.5388e-20)
(1.04305 0.559273 2.0713e-21)
(1.0422 0.533465 3.31654e-20)
(1.04164 0.509556 -1.05129e-20)
(1.04144 0.487513 -2.16377e-20)
(1.04153 0.467194 -3.83817e-20)
(1.04181 0.448437 1.43876e-20)
(1.04225 0.43109 4.58933e-21)
(1.04293 0.415061 -7.06931e-21)
(1.04402 0.400432 1.53716e-21)
(1.04573 0.387457 2.36919e-20)
(1.04865 0.375599 -1.86575e-20)
(0.23416 0.178025 -5.38664e-19)
(0.555789 0.426158 -4.65105e-19)
(0.763742 0.577593 2.20791e-19)
(0.887618 0.652501 -2.69762e-19)
(0.954726 0.675873 -2.06134e-20)
(0.987615 0.668942 3.21831e-20)
(1.00209 0.646728 -4.08702e-20)
(1.00778 0.61841 -3.59535e-20)
(1.00986 0.58887 -6.51915e-20)
(1.01081 0.560345 -4.18268e-20)
(1.01167 0.533665 -2.01294e-20)
(1.01278 0.509017 -4.16407e-21)
(1.01421 0.486324 6.15685e-21)
(1.01587 0.465428 -2.9555e-21)
(1.01767 0.446154 7.66935e-21)
(1.01953 0.428344 -3.74258e-20)
(1.02147 0.411883 -3.7282e-20)
(1.02365 0.396796 -4.2131e-20)
(1.02642 0.383375 -2.95711e-22)
(1.03052 0.371503 6.76845e-20)
(0.228769 0.187569 4.96515e-19)
(0.538542 0.442902 1.91629e-20)
(0.736813 0.593747 -4.86732e-20)
(0.854044 0.665042 5.68031e-20)
(0.917527 0.684383 1.80053e-19)
(0.949215 0.674083 -1.33572e-19)
(0.964101 0.649396 4.48557e-20)
(0.971092 0.619355 -6.6483e-20)
(0.974871 0.588599 3.88103e-21)
(0.977625 0.559158 -1.14648e-20)
(0.980257 0.531729 -3.39336e-20)
(0.98308 0.506423 -3.12069e-20)
(0.98616 0.483131 3.25195e-20)
(0.989462 0.461677 -1.42814e-20)
(0.992894 0.441888 -1.48604e-19)
(0.996335 0.423613 1.43942e-19)
(0.999713 0.406713 -8.99421e-20)
(1.00321 0.39108 -5.85945e-20)
(1.00744 0.376934 7.11034e-20)
(1.01322 0.364805 -8.87566e-20)
(0.221754 0.195867 -1.0482e-19)
(0.518284 0.456707 1.12327e-19)
(0.706715 0.606175 7.00005e-20)
(0.817722 0.673709 -1.05137e-19)
(0.87816 0.689219 4.52877e-20)
(0.909169 0.675881 -7.90095e-20)
(0.92485 0.649062 -1.44415e-20)
(0.933394 0.617593 9.33955e-21)
(0.939017 0.585854 -5.66395e-21)
(0.943648 0.555677 -8.90714e-20)
(0.948078 0.527631 1.7014e-20)
(0.952595 0.501752 -6.44504e-24)
(0.957294 0.47789 1.08886e-19)
(0.962194 0.455855 -2.87607e-19)
(0.967261 0.435472 2.68158e-19)
(0.972372 0.416623 1.44705e-19)
(0.977395 0.39916 -3.18658e-20)
(0.982603 0.382755 2.29698e-20)
(0.988915 0.367408 2.61105e-19)
(0.996633 0.354655 -1.08687e-19)
(0.213249 0.20277 -3.12329e-20)
(0.495362 0.467358 7.65092e-20)
(0.673899 0.6147 -8.02196e-20)
(0.779115 0.678382 1.06751e-19)
(0.837051 0.690301 -2.27109e-20)
(0.867844 0.67428 5.06664e-21)
(0.884648 0.645684 1.81083e-20)
(0.894947 0.613092 -5.7169e-20)
(0.902518 0.580625 5.80089e-20)
(0.909064 0.549917 4.31989e-20)
(0.915275 0.521417 2.44172e-20)
(0.921415 0.495085 2.30205e-21)
(0.927597 0.470715 9.50896e-20)
(0.933897 0.448066 -9.74027e-20)
(0.940349 0.426926 1.15267e-19)
(0.94688 0.40716 -2.40347e-19)
(0.953406 0.388568 2.71112e-19)
(0.960388 0.370508 -2.33466e-19)
(0.968828 0.352718 -1.56122e-19)
(0.977597 0.338654 2.70198e-19)
(0.203413 0.208153 3.62363e-20)
(0.470148 0.474684 -7.85341e-21)
(0.638827 0.61919 3.46797e-21)
(0.738692 0.678975 -2.8943e-20)
(0.794626 0.687575 -1.55679e-22)
(0.825611 0.669247 7.29873e-21)
(0.843813 0.639238 -1.39815e-19)
(0.856027 0.605843 9.30636e-20)
(0.865627 0.572917 9.63387e-20)
(0.874108 0.541919 -1.38026e-19)
(0.882074 0.51319 1.65545e-19)
(0.889752 0.486626 -6.26687e-20)
(0.897248 0.461972 1.26712e-19)
(0.904639 0.438924 -2.01991e-19)
(0.911973 0.41719 4.21882e-19)
(0.919211 0.396515 -9.44364e-20)
(0.926378 0.376488 -2.61661e-20)
(0.934152 0.35585 2.8085e-19)
(0.943299 0.332674 -1.36373e-19)
(0.948828 0.309492 6.24251e-20)
(0.192419 0.211912 -4.18372e-20)
(0.443031 0.478553 2.94797e-20)
(0.601971 0.619553 -3.07719e-20)
(0.69692 0.675437 3.11182e-20)
(0.751309 0.681016 -1.79468e-20)
(0.78284 0.660765 -1.48977e-19)
(0.802668 0.629713 2.26739e-19)
(0.816926 0.595837 1.62365e-20)
(0.828617 0.562734 -2.48158e-20)
(0.839058 0.531699 5.15306e-21)
(0.848778 0.502994 7.79401e-20)
(0.857977 0.476478 1.35177e-19)
(0.866735 0.451891 8.0753e-20)
(0.87509 0.428949 -1.9281e-19)
(0.88303 0.407397 -5.63027e-20)
(0.890495 0.387045 -8.45775e-21)
(0.897593 0.367625 3.72019e-20)
(0.904921 0.348451 5.36483e-21)
(0.912412 0.328818 4.18804e-19)
(0.91541 0.310841 -2.92553e-19)
(0.180453 0.213964 1.28952e-19)
(0.414407 0.478871 -9.49746e-21)
(0.5638 0.615732 -1.06075e-19)
(0.654263 0.667748 3.27609e-19)
(0.707521 0.670622 7.27455e-20)
(0.739898 0.648838 -2.08949e-19)
(0.761537 0.617113 1.98438e-19)
(0.777937 0.583076 -4.69661e-20)
(0.791765 0.550071 1.78763e-19)
(0.804188 0.519246 8.37022e-20)
(0.81568 0.490789 -3.92683e-19)
(0.826434 0.464532 -4.50972e-20)
(0.836535 0.440209 5.50837e-19)
(0.846019 0.417544 -6.75288e-19)
(0.854866 0.396293 6.24925e-19)
(0.86301 0.376257 2.17528e-19)
(0.87052 0.357155 -7.72123e-19)
(0.8778 0.338415 3.74162e-19)
(0.884665 0.319741 -7.65481e-20)
(0.887633 0.303518 9.01136e-20)
(0.167711 0.214249 -2.66337e-19)
(0.384683 0.475584 -2.76516e-19)
(0.524787 0.607714 1.8891e-19)
(0.611178 0.65592 -2.43204e-19)
(0.663672 0.656416 -6.77495e-19)
(0.697149 0.63349 -2.52101e-20)
(0.720742 0.601454 -2.02241e-19)
(0.739354 0.567572 8.15442e-21)
(0.755347 0.53494 -4.04278e-19)
(0.769759 0.504572 -4.11735e-19)
(0.783023 0.476598 -2.81845e-19)
(0.795329 0.450835 -1.19215e-20)
(0.806771 0.427022 -6.96271e-19)
(0.817401 0.404901 -6.83501e-21)
(0.827223 0.38426 3.40434e-19)
(0.83621 0.364934 -3.38359e-19)
(0.84444 0.346705 -2.61942e-19)
(0.852241 0.329138 2.52422e-19)
(0.859421 0.312055 -1.80784e-19)
(0.86314 0.297334 3.50641e-20)
(0.154396 0.21273 2.20786e-19)
(0.354263 0.468679 1.71234e-19)
(0.485393 0.595519 -8.16804e-21)
(0.568111 0.639996 -1.47511e-19)
(0.620163 0.638447 3.50339e-19)
(0.654943 0.614762 5.70699e-19)
(0.680597 0.582769 -5.98281e-20)
(0.701465 0.549345 9.47234e-21)
(0.719637 0.517346 1.10437e-19)
(0.736044 0.487666 2.54854e-19)
(0.751093 0.460385 3.70662e-19)
(0.76498 0.43531 -3.01012e-19)
(0.777812 0.412184 2.96264e-19)
(0.789661 0.390765 -1.02681e-19)
(0.800553 0.370853 3.46413e-19)
(0.810489 0.352293 -1.34914e-19)
(0.819578 0.334891 -3.36083e-19)
(0.82815 0.318308 2.01999e-19)
(0.836044 0.302482 -2.88813e-19)
(0.840785 0.288989 -3.28814e-19)
(0.14071 0.209394 1.03327e-19)
(0.323546 0.458176 1.85435e-19)
(0.446069 0.579204 -1.94707e-19)
(0.525492 0.620049 7.23386e-21)
(0.577379 0.616785 3.35208e-20)
(0.613622 0.592716 2.74799e-19)
(0.641405 0.561106 -4.05119e-19)
(0.664544 0.528431 3.84764e-19)
(0.684887 0.497314 -3.77507e-20)
(0.703277 0.468538 1.05172e-19)
(0.720106 0.442145 1.70485e-19)
(0.73558 0.417934 -3.25165e-19)
(0.749831 0.395657 1.55257e-19)
(0.762952 0.375086 1.47781e-19)
(0.774996 0.356034 5.46344e-20)
(0.785996 0.338356 -2.80107e-19)
(0.796087 0.321872 9.43503e-19)
(0.80559 0.306291 -5.28695e-19)
(0.814345 0.291585 9.60425e-19)
(0.820162 0.279055 -6.22896e-20)
(0.126859 0.204246 7.64614e-20)
(0.292921 0.44413 4.42275e-19)
(0.407249 0.558861 1.58341e-19)
(0.483736 0.59618 3.27286e-19)
(0.535692 0.591529 8.62437e-20)
(0.573512 0.567436 -5.2565e-19)
(0.603456 0.536534 8.15806e-19)
(0.628854 0.504884 4.23401e-19)
(0.65134 0.474882 1.79137e-20)
(0.671686 0.447213 5.48512e-19)
(0.690274 0.421884 8.92547e-20)
(0.707328 0.398693 5.73897e-20)
(0.723 0.377399 3.27982e-19)
(0.73741 0.357786 -1.22848e-19)
(0.750636 0.339674 -1.2913e-19)
(0.762742 0.322924 7.64622e-19)
(0.773887 0.307368 -6.38662e-19)
(0.784383 0.292754 2.4673e-20)
(0.79406 0.279068 8.08803e-19)
(0.800977 0.267378 -7.83184e-22)
(0.113041 0.197312 -9.53257e-19)
(0.262766 0.426632 -1.58231e-19)
(0.369351 0.53461 -2.16654e-19)
(0.443237 0.568521 -1.66265e-19)
(0.495454 0.5628 -4.23157e-19)
(0.534922 0.539028 1.44853e-19)
(0.567025 0.509142 -2.03114e-19)
(0.594643 0.478775 5.95441e-20)
(0.619223 0.450108 -2.94027e-19)
(0.641478 0.423733 -2.7751e-19)
(0.661788 0.399632 5.84836e-20)
(0.680395 0.377601 -4.49832e-19)
(0.697475 0.357412 3.59739e-19)
(0.71317 0.338855 -1.2997e-19)
(0.727584 0.321762 4.0683e-19)
(0.740807 0.305996 -8.77867e-19)
(0.753014 0.291397 -1.66715e-19)
(0.764503 0.277742 -3.15116e-19)
(0.775102 0.265022 -8.46403e-19)
(0.783104 0.254099 -1.36642e-19)
(0.0994521 0.18864 1.55045e-19)
(0.233442 0.405801 -1.7596e-20)
(0.332771 0.506608 -2.41365e-19)
(0.404368 0.53723 8.53375e-20)
(0.456995 0.530744 -1.72505e-19)
(0.498146 0.50762 -2.12836e-21)
(0.532372 0.479038 2.34569e-19)
(0.562146 0.450197 -3.50372e-19)
(0.588748 0.423068 1.36496e-19)
(0.612846 0.398162 -7.89647e-20)
(0.634821 0.375438 2.15508e-20)
(0.654934 0.354697 -3.9177e-19)
(0.673384 0.335719 -4.76355e-19)
(0.690336 0.318308 -1.80642e-20)
(0.705915 0.302301 5.30677e-19)
(0.720234 0.287566 2.47525e-20)
(0.73348 0.273952 6.71501e-19)
(0.745932 0.261263 -9.78825e-19)
(0.757427 0.249486 5.20764e-19)
(0.766485 0.239305 8.98662e-19)
(0.0862784 0.178292 -1.3686e-19)
(0.205291 0.381786 7.35228e-20)
(0.297882 0.475038 4.78454e-19)
(0.367479 0.502491 1.18291e-19)
(0.420629 0.49553 -1.59357e-19)
(0.463456 0.473361 1.25836e-19)
(0.499739 0.446353 4.94743e-19)
(0.531579 0.419264 -4.01696e-19)
(0.560113 0.393862 3.72362e-20)
(0.585968 0.370584 -1.46454e-19)
(0.609534 0.349376 5.29502e-19)
(0.631088 0.330043 3.78126e-19)
(0.650853 0.312377 -5.49453e-20)
(0.669011 0.296193 -5.73757e-19)
(0.685711 0.281337 3.05614e-20)
(0.701083 0.267683 -7.07063e-20)
(0.715322 0.25509 3.37271e-19)
(0.728688 0.243384 5.4856e-19)
(0.741037 0.232546 4.79129e-19)
(0.751108 0.223109 -8.01652e-19)
(0.0736975 0.166352 -8.60145e-20)
(0.178634 0.354765 3.66771e-19)
(0.265032 0.440109 -3.5731e-19)
(0.332896 0.464513 4.97431e-19)
(0.386643 0.457351 -2.70089e-19)
(0.431108 0.436421 1.94145e-19)
(0.469353 0.411237 4.92015e-19)
(0.503147 0.386107 -5.91799e-19)
(0.533499 0.362607 2.69531e-19)
(0.56101 0.341107 3.40965e-19)
(0.586074 0.32154 -4.63311e-19)
(0.608987 0.303724 -3.27694e-20)
(0.629993 0.287462 -3.71361e-19)
(0.649293 0.272582 5.95826e-19)
(0.667052 0.25894 -3.22977e-19)
(0.683417 0.246416 3.46898e-19)
(0.698587 0.234882 -6.27199e-20)
(0.712807 0.224184 2.14385e-19)
(0.725955 0.214295 4.88485e-20)
(0.736986 0.20562 -1.25272e-19)
(0.061876 0.152917 -2.64183e-19)
(0.15377 0.32494 -6.06952e-19)
(0.234542 0.402061 1.59771e-19)
(0.300919 0.42353 -5.12085e-19)
(0.355304 0.416421 -4.84977e-19)
(0.401335 0.396993 -3.48547e-19)
(0.441421 0.373859 2.71577e-19)
(0.477034 0.35088 2.08714e-19)
(0.509076 0.32944 -1.40075e-21)
(0.538122 0.309853 -1.81967e-19)
(0.564577 0.292045 -3.28166e-19)
(0.588754 0.275844 2.95716e-19)
(0.610914 0.261072 -1.01971e-19)
(0.631274 0.247568 -5.03681e-19)
(0.650016 0.2352 3.27699e-19)
(0.667302 0.223856 -2.46258e-19)
(0.683332 0.21342 -1.00305e-19)
(0.698334 0.203759 -2.80667e-19)
(0.712221 0.194837 -2.542e-19)
(0.724148 0.186952 6.58491e-20)
(0.050968 0.1381 2.30747e-19)
(0.130972 0.292539 1.19447e-19)
(0.206706 0.361152 1.8282e-19)
(0.271819 0.379796 -6.24082e-19)
(0.326854 0.372972 6.68159e-19)
(0.374351 0.355284 2.91842e-21)
(0.416134 0.334409 5.41138e-21)
(0.453412 0.313751 -4.06634e-19)
(0.486997 0.294516 3.79459e-19)
(0.517445 0.276964 -2.64038e-19)
(0.545169 0.26102 7.95678e-20)
(0.5705 0.246527 -3.53568e-19)
(0.593713 0.233322 -1.68065e-19)
(0.615042 0.221261 -8.01397e-20)
(0.634681 0.210222 6.05216e-19)
(0.652805 0.200106 -2.9712e-19)
(0.669613 0.190808 -2.67974e-19)
(0.685322 0.182214 2.75706e-19)
(0.699881 0.174282 -2.26315e-19)
(0.712631 0.167223 1.76539e-19)
(0.0411139 0.122029 4.90909e-19)
(0.11049 0.257811 -2.96431e-19)
(0.181787 0.317666 4.44136e-20)
(0.245844 0.333587 5.19044e-19)
(0.30151 0.327257 2.05929e-19)
(0.350347 0.311522 2.55288e-19)
(0.39366 0.293089 2.54078e-19)
(0.432433 0.274906 5.38611e-19)
(0.4674 0.258005 -1.2348e-19)
(0.499103 0.242597 2.94571e-19)
(0.527963 0.228613 4.27833e-19)
(0.554326 0.215909 1.57503e-19)
(0.578482 0.204341 2.85181e-19)
(0.600677 0.193783 1.03392e-19)
(0.621118 0.184127 6.08429e-20)
(0.63999 0.175282 -4.41772e-20)
(0.65749 0.16716 3.53491e-19)
(0.673824 0.159664 2.17824e-19)
(0.688982 0.152746 -1.98138e-19)
(0.702473 0.14655 1.86911e-19)
(0.0324395 0.104843 -3.26028e-19)
(0.0925423 0.221022 3.67661e-20)
(0.160022 0.271905 -9.41372e-20)
(0.223209 0.285193 -2.85902e-19)
(0.279465 0.279544 -1.51421e-19)
(0.329492 0.265949 -2.75063e-19)
(0.374152 0.250119 1.2776e-19)
(0.414234 0.234545 -4.94234e-19)
(0.450408 0.22009 2.91663e-19)
(0.483207 0.206923 -4.03437e-19)
(0.51306 0.194981 -2.50407e-19)
(0.540325 0.184139 -3.31209e-19)
(0.565303 0.174272 7.58325e-20)
(0.588254 0.165272 -7.4919e-20)
(0.609395 0.157044 8.93762e-20)
(0.628917 0.149512 4.80104e-20)
(0.647018 0.142601 9.53976e-20)
(0.663893 0.136229 -7.99848e-19)
(0.679574 0.13035 3.97921e-19)
(0.693715 0.125054 -2.38876e-19)
(0.0250545 0.0866931 1.07738e-19)
(0.0773208 0.18246 2.17521e-19)
(0.141611 0.224188 -1.41865e-19)
(0.204102 0.234925 3.50471e-19)
(0.260884 0.230115 -5.61664e-20)
(0.311934 0.218821 4.05413e-19)
(0.357739 0.205731 7.82606e-20)
(0.398932 0.192881 -8.2177e-20)
(0.436129 0.180967 2.99084e-19)
(0.469854 0.170125 2.28524e-19)
(0.500547 0.160296 8.47101e-20)
(0.528575 0.151377 1.11458e-19)
(0.55425 0.143266 5.58823e-20)
(0.577839 0.13587 -2.36971e-19)
(0.59957 0.129113 -3.29528e-20)
(0.619642 0.12293 2.47362e-19)
(0.638248 0.11726 -1.69068e-19)
(0.655577 0.112038 -7.84434e-21)
(0.671699 0.107219 -3.53799e-19)
(0.686393 0.102858 7.13307e-19)
(0.0190521 0.0677405 2.88827e-19)
(0.0649868 0.142423 -3.46873e-19)
(0.126725 0.174849 1.62657e-19)
(0.188681 0.183103 -2.30038e-19)
(0.245907 0.179264 2.02856e-19)
(0.297795 0.170403 -3.52114e-19)
(0.344532 0.160167 -2.57832e-19)
(0.386626 0.150135 1.92016e-20)
(0.424651 0.140843 -3.51125e-19)
(0.459128 0.132393 -2.19064e-19)
(0.4905 0.124737 -3.7916e-19)
(0.519145 0.117794 -1.25586e-20)
(0.545382 0.111482 -1.46986e-19)
(0.569488 0.105731 3.72363e-19)
(0.591696 0.100479 2.56522e-19)
(0.612211 0.0956746 -8.61725e-20)
(0.631223 0.091272 -7.78006e-20)
(0.648919 0.0872207 -3.42635e-21)
(0.665396 0.0834821 9.62907e-21)
(0.68054 0.080087 1.40786e-19)
(0.014508 0.0481535 -7.22788e-20)
(0.0556711 0.101226 -2.47171e-19)
(0.115503 0.124233 -1.54119e-19)
(0.177072 0.13006 -9.64332e-20)
(0.234646 0.127297 -1.99751e-19)
(0.287174 0.120973 3.42323e-19)
(0.33462 0.11368 -3.66231e-20)
(0.377396 0.10654 -8.23755e-20)
(0.416048 0.099933 3.40852e-21)
(0.451093 0.0939282 2.41823e-19)
(0.482979 0.088492 -2.29615e-19)
(0.512089 0.0835652 2.24584e-19)
(0.538752 0.0790895 1.05443e-19)
(0.563248 0.0750134 -1.92023e-19)
(0.585816 0.0712934 4.19707e-20)
(0.606664 0.0678929 1.23436e-19)
(0.625982 0.0647784 4.2976e-20)
(0.643952 0.0619149 -2.98216e-20)
(0.660699 0.0592728 -2.59544e-19)
(0.676181 0.0568676 2.06864e-19)
(0.0114797 0.0281074 6.50856e-20)
(0.0494727 0.0591894 7.90191e-20)
(0.108048 0.0726969 2.2246e-20)
(0.169372 0.0761364 -1.67036e-20)
(0.227187 0.074526 4.77112e-20)
(0.280148 0.0708142 7.29352e-20)
(0.32807 0.0665295 2.76683e-20)
(0.371304 0.0623353 3.37186e-20)
(0.410375 0.0584572 -7.16096e-20)
(0.4458 0.0549371 1.3424e-19)
(0.478029 0.0517542 -3.16908e-20)
(0.507452 0.0488733 -2.57444e-21)
(0.534398 0.0462594 3.21797e-20)
(0.559154 0.0438816 3.62801e-20)
(0.581961 0.041714 -9.74031e-20)
(0.603031 0.0397344 6.40906e-20)
(0.622552 0.0379233 4.20583e-20)
(0.640705 0.0362599 3.58986e-20)
(0.657631 0.0347261 7.69427e-20)
(0.673339 0.0333287 3.18882e-20)
(0.0100062 0.00778192 -1.33134e-20)
(0.0464585 0.0166434 2.76586e-20)
(0.104432 0.0206027 -3.8699e-20)
(0.165646 0.021681 2.43175e-20)
(0.223587 0.0212697 1.42682e-20)
(0.276767 0.0202165 6.40938e-21)
(0.324928 0.0189789 1.50881e-20)
(0.368389 0.0177631 -4.32563e-20)
(0.40767 0.016642 2.76031e-20)
(0.443284 0.0156301 9.64963e-21)
(0.475683 0.0147214 -5.65041e-22)
(0.50526 0.0139045 5.91966e-20)
(0.532346 0.0131682 -1.79698e-20)
(0.557229 0.0125028 -1.72096e-20)
(0.580155 0.0118997 -1.6524e-20)
(0.601333 0.011352 2.55769e-21)
(0.620953 0.0108535 -2.20821e-20)
(0.639195 0.0103977 4.20661e-21)
(0.656209 0.0099795 8.30399e-22)
(0.672026 0.00960059 -2.8087e-21)
(0.0101073 -0.0126403 8.44517e-21)
(0.0466627 -0.0260784 -4.49308e-20)
(0.104689 -0.0316828 5.35579e-20)
(0.165926 -0.0329553 -4.02462e-20)
(0.223875 -0.0321499 -1.87766e-20)
(0.277057 -0.0305277 5.62023e-20)
(0.325216 -0.028704 4.68289e-21)
(0.368675 -0.0269297 1.30559e-21)
(0.407952 -0.0252839 2.62199e-20)
(0.443561 -0.0237791 1.35486e-20)
(0.475957 -0.0224063 -1.07124e-20)
(0.505528 -0.0211527 -3.75685e-20)
(0.53261 -0.0200056 3.58248e-21)
(0.557488 -0.0189537 -3.26143e-21)
(0.580407 -0.0179878 3.49989e-20)
(0.60158 -0.0170997 -2.10562e-20)
(0.621195 -0.0162823 2.88775e-20)
(0.639432 -0.0155276 -4.32733e-20)
(0.656441 -0.0148275 5.03566e-23)
(0.672249 -0.0141845 -9.11365e-21)
(0.0117841 -0.0329758 -2.80207e-20)
(0.0500872 -0.0686411 1.41212e-19)
(0.108822 -0.0837914 9.51362e-20)
(0.170215 -0.0874198 6.29657e-20)
(0.228053 -0.0854099 7.85453e-20)
(0.281018 -0.0811247 -1.91796e-20)
(0.328936 -0.0762507 8.70119e-20)
(0.37216 -0.0714956 1.77837e-20)
(0.411221 -0.0670909 -7.82161e-21)
(0.446634 -0.0630761 -6.21395e-20)
(0.47885 -0.0594279 6.43595e-20)
(0.508258 -0.0561089 -8.73696e-20)
(0.535189 -0.0530829 6.34525e-20)
(0.559929 -0.0503177 7.26619e-20)
(0.58272 -0.0477862 9.6096e-20)
(0.603773 -0.0454653 -6.31611e-20)
(0.623278 -0.0433345 1.77882e-20)
(0.641416 -0.0413712 6.6637e-20)
(0.658329 -0.0395547 -6.30395e-20)
(0.674007 -0.0378931 4.75588e-20)
(0.0150183 -0.0530418 -2.70182e-19)
(0.0567008 -0.110711 -1.3571e-19)
(0.116798 -0.135356 -1.50898e-19)
(0.178483 -0.141361 -1.18651e-20)
(0.236095 -0.138188 -8.13725e-20)
(0.288629 -0.131282 -9.99209e-20)
(0.336066 -0.123394 1.76069e-19)
(0.378827 -0.115688 8.97594e-20)
(0.417461 -0.10855 1.10327e-19)
(0.452485 -0.102047 -1.20131e-19)
(0.484349 -0.0961428 8.89338e-20)
(0.513435 -0.0907754 1.08296e-19)
(0.540073 -0.0858852 3.80599e-20)
(0.564542 -0.0814196 -3.6263e-20)
(0.587083 -0.0773338 7.78244e-21)
(0.607902 -0.0735902 -1.57086e-20)
(0.627193 -0.0701544 -1.53214e-19)
(0.645139 -0.0669891 2.37209e-20)
(0.661863 -0.0640624 1.48787e-19)
(0.677296 -0.0613929 -2.00042e-19)
(0.0197729 -0.0726583 -8.84879e-20)
(0.0664399 -0.151958 1.31856e-19)
(0.128551 -0.186015 3.04768e-20)
(0.190668 -0.194431 -5.65899e-20)
(0.247945 -0.190166 -1.60511e-19)
(0.299839 -0.180709 -3.44043e-19)
(0.346564 -0.169868 -3.27257e-19)
(0.388636 -0.159263 -2.33596e-20)
(0.426636 -0.149435 -1.90187e-19)
(0.461083 -0.140482 -2.84309e-19)
(0.492423 -0.132353 2.20575e-19)
(0.521034 -0.124966 -3.25129e-19)
(0.547235 -0.118236 6.43157e-20)
(0.571304 -0.112092 -2.07666e-20)
(0.593473 -0.106471 -6.8022e-20)
(0.613948 -0.101321 -8.58609e-20)
(0.632921 -0.0965946 1.3929e-19)
(0.650583 -0.0922389 1.11208e-19)
(0.667028 -0.088213 1.91237e-19)
(0.682102 -0.0845534 -2.86495e-19)
(0.0259921 -0.0916496 4.8091e-20)
(0.0792089 -0.192059 4.66326e-19)
(0.14398 -0.23541 1.33464e-19)
(0.206676 -0.246287 3.22746e-19)
(0.263522 -0.241029 -1.20396e-19)
(0.314578 -0.229123 1.85545e-19)
(0.360365 -0.215415 -5.79243e-20)
(0.401529 -0.201982 3.75902e-19)
(0.438691 -0.189524 -1.93122e-19)
(0.472379 -0.178172 2.27835e-19)
(0.503029 -0.167865 1.97762e-19)
(0.531012 -0.158497 2.11097e-19)
(0.55664 -0.149963 -1.88968e-19)
(0.58018 -0.14217 1.6182e-19)
(0.601861 -0.13504 -2.25162e-19)
(0.62188 -0.128508 -6.18784e-20)
(0.640435 -0.122511 -1.48054e-19)
(0.657721 -0.116981 -6.2967e-20)
(0.6738 -0.111871 2.49219e-19)
(0.688405 -0.107245 -4.13185e-19)
(0.0336021 -0.109846 -1.92043e-19)
(0.0948802 -0.230701 -2.29908e-20)
(0.16295 -0.283195 -7.65083e-20)
(0.226385 -0.296597 -2.69497e-19)
(0.282716 -0.290473 4.63652e-20)
(0.332747 -0.276245 -4.21636e-19)
(0.377381 -0.25978 -1.767e-19)
(0.417427 -0.243612 -1.3557e-20)
(0.453557 -0.228602 -4.44893e-19)
(0.486307 -0.214918 -1.37896e-19)
(0.516107 -0.202491 -6.28874e-20)