/*--------------------------------*- C++ -*----------------------------------*\
  =========                 |
  \\      /  F ield         | OpenFOAM: The Open Source CFD Toolbox
   \\    /   O peration     | Website:  https://openfoam.org
    \\  /    A nd           | Version:  6.0
     \\/     M anipulation  |
\*---------------------------------------------------------------------------*/
FoamFile
{
    version     2.0;
    format      ascii;
    class       volVectorField;
    location    "3.3";
    object      U;
}
// * * * * * * * * * * * * * * * * * * * * * * * * * * * * * * * * * * * * * //

dimensions      [0 1 -1 0 0 0 0];

internalField   nonuniform List<vector> 
8000
(
(-0.00368394 0.00394055 -4.77406e-21)
(-0.0179439 0.00883167 2.55666e-20)
(-0.0422117 0.011699 -3.1358e-20)
(-0.0701059 0.0132486 2.39975e-20)
(-0.0987327 0.0139159 1.186e-20)
(-0.12675 0.0139911 -3.56578e-20)
(-0.153306 0.0136714 -3.2159e-21)
(-0.17791 0.0130869 -1.22258e-21)
(-0.200317 0.0123229 -1.9187e-20)
(-0.220428 0.011436 -1.05386e-20)
(-0.238228 0.0104658 7.73241e-21)
(-0.253761 0.00944216 2.99879e-20)
(-0.267108 0.00838896 -2.12915e-21)
(-0.278382 0.00732612 3.3134e-21)
(-0.287702 0.00627001 -3.05614e-20)
(-0.295163 0.00523318 1.88555e-20)
(-0.300929 0.00422231 -2.69587e-20)
(-0.305483 0.00323482 4.07998e-20)
(-0.309227 0.00226424 -4.84362e-23)
(-0.309894 0.00133708 8.93293e-21)
(-0.00411932 0.0115734 1.58491e-20)
(-0.0185657 0.0259712 -8.14555e-20)
(-0.0424219 0.0344325 -5.68241e-20)
(-0.069668 0.0390095 -3.89485e-20)
(-0.097559 0.0409722 -5.0634e-20)
(-0.124811 0.0411721 1.07261e-20)
(-0.150599 0.0401899 -5.93122e-20)
(-0.174443 0.0384119 -1.37387e-20)
(-0.196095 0.0360923 3.82793e-21)
(-0.215449 0.0334015 4.49822e-20)
(-0.232481 0.0304589 -4.98657e-20)
(-0.247224 0.0273547 6.98152e-20)
(-0.259748 0.0241619 -5.26493e-20)
(-0.270153 0.0209418 -6.27671e-20)
(-0.27855 0.0177459 -8.66597e-20)
(-0.285029 0.0146151 5.53376e-20)
(-0.289743 0.0115734 -1.7949e-20)
(-0.29318 0.00861706 -6.49627e-20)
(-0.295778 0.00573039 6.1214e-20)
(-0.295285 0.00299727 -4.68387e-20)
(-0.00494849 0.018668 1.5574e-19)
(-0.0197517 0.0420822 8.16139e-20)
(-0.0428106 0.0560006 9.21718e-20)
(-0.0687948 0.0636387 7.81263e-21)
(-0.0952455 0.067005 5.13824e-20)
(-0.120993 0.0674615 6.45729e-20)
(-0.145269 0.0659462 -1.18537e-19)
(-0.167612 0.0630888 -6.36351e-20)
(-0.187773 0.059307 -8.45274e-20)
(-0.205636 0.0548818 8.95173e-20)
(-0.221161 0.0500108 -6.9043e-20)
(-0.234363 0.0448432 -9.03769e-20)
(-0.24529 0.0395003 -3.3381e-20)
(-0.254024 0.0340864 3.15109e-20)
(-0.260658 0.0286922 -8.79602e-21)
(-0.265269 0.0233943 1.24172e-20)
(-0.267997 0.0182448 1.45892e-19)
(-0.269328 0.0132507 -2.09765e-20)
(-0.269771 0.00839696 -1.47434e-19)
(-0.267123 0.00383878 1.97795e-19)
(-0.00609416 0.0249099 5.54088e-20)
(-0.0213956 0.0565457 -7.68662e-20)
(-0.043321 0.0756827 -1.98376e-20)
(-0.0674954 0.086418 3.69826e-20)
(-0.0918632 0.0913495 1.05455e-19)
(-0.115421 0.0922686 2.32764e-19)
(-0.137482 0.0904275 2.29707e-19)
(-0.15762 0.0866784 2.00547e-20)
(-0.175592 0.0815931 1.4365e-19)
(-0.19127 0.0755589 2.21693e-19)
(-0.204599 0.0688482 -1.78595e-19)
(-0.215569 0.0616665 2.64816e-19)
(-0.224209 0.054182 -6.21331e-20)
(-0.230574 0.0465419 1.46978e-20)
(-0.234736 0.0388803 6.38261e-20)
(-0.236759 0.0313185 8.52016e-20)
(-0.236759 0.023951 -1.34469e-19)
(-0.235213 0.0168142 -1.1227e-19)
(-0.232725 0.00991106 -1.96671e-19)
(-0.227199 0.0034892 2.90079e-19)
(-0.00745142 0.0300464 -2.85746e-20)
(-0.0233518 0.0688384 -2.97062e-19)
(-0.0438777 0.0928405 -8.88187e-20)
(-0.065791 0.106684 -2.17067e-19)
(-0.0875251 0.113368 8.21728e-20)
(-0.108285 0.115007 -1.31202e-19)
(-0.127499 0.113111 4.63567e-20)
(-0.144787 0.108725 -2.828e-19)
(-0.159924 0.102561 1.50549e-19)
(-0.172777 0.0951063 -1.80422e-19)
(-0.18328 0.0867049 -1.61802e-19)
(-0.191407 0.0776145 -1.8394e-19)
(-0.197162 0.0680465 1.67343e-19)
(-0.200582 0.0581889 -1.52253e-19)
(-0.201718 0.0482194 2.11378e-19)
(-0.200617 0.0383101 6.11997e-20)
(-0.197371 0.0286128 1.51942e-19)
(-0.192431 0.0192149 6.56257e-20)
(-0.186507 0.0101599 -2.62877e-19)
(-0.177699 0.00181502 4.26896e-19)
(-0.00889943 0.0339045 1.29713e-19)
(-0.0254508 0.0785645 8.71594e-21)
(-0.0443975 0.10695 5.36771e-20)
(-0.0637202 0.123854 1.87335e-19)
(-0.0823901 0.132466 -2.82581e-20)
(-0.0998539 0.135105 3.08376e-19)
(-0.115677 0.133464 1.39345e-19)
(-0.129551 0.128746 1.17992e-20)
(-0.14128 0.121788 3.63373e-19)
(-0.15074 0.113167 1.21449e-19)
(-0.157861 0.103294 5.82755e-20)
(-0.16261 0.0924754 1.83594e-19)
(-0.16498 0.0809606 1.69892e-19)
(-0.164991 0.0689723 3.12631e-19)
(-0.162682 0.0567277 -2.79676e-19)
(-0.158088 0.0444489 3.9738e-19)
(-0.151278 0.032353 6.10522e-21)
(-0.14266 0.0205996 -5.06943e-19)
(-0.133042 0.00929815 6.5713e-19)
(-0.12083 -0.00103867 2.68613e-19)
(-0.0103148 0.0364019 -7.60422e-20)
(-0.0275172 0.0854805 -1.40894e-19)
(-0.0448006 0.117633 -2.92634e-19)
(-0.061344 0.137454 -9.01819e-21)
(-0.0766645 0.148116 5.1673e-20)
(-0.090468 0.152013 -3.7819e-19)
(-0.102479 0.150947 -2.83291e-19)
(-0.112483 0.146231 -4.00186e-20)
(-0.120327 0.138804 -3.64473e-19)
(-0.125913 0.129326 -2.55991e-19)
(-0.129183 0.118268 -7.49769e-20)
(-0.130108 0.105983 -2.43606e-19)
(-0.12868 0.0927499 -3.47971e-21)
(-0.124917 0.0788209 -3.28498e-19)
(-0.118853 0.0644418 1.38642e-19)
(-0.110521 0.0498766 -1.58204e-19)
(-0.0999693 0.0354058 1.22205e-19)
(-0.0875545 0.0212745 -1.55473e-19)
(-0.0741541 0.00768152 -4.43992e-19)
(-0.0585993 -0.00469736 -1.33685e-19)
(-0.0115855 0.0375498 -2.9857e-20)
(-0.0293881 0.0895101 -3.21996e-20)
(-0.0450218 0.12468 2.46656e-19)
(-0.0587481 0.147149 -4.04234e-19)
(-0.0705975 0.159887 5.89615e-20)
(-0.0805367 0.165239 -2.36735e-19)
(-0.0884652 0.165032 1.11446e-19)
(-0.0942766 0.160645 5.09959e-19)
(-0.0978866 0.153089 -3.08904e-20)
(-0.0992375 0.143095 -3.8756e-19)
(-0.098297 0.131188 6.91629e-20)
(-0.0950543 0.117762 1.31694e-20)
(-0.0895163 0.103124 -8.39879e-20)
(-0.0817065 0.0875456 5.85939e-21)
(-0.0716643 0.0712901 7.26813e-19)
(-0.0594283 0.0546478 -1.02302e-19)
(-0.0450404 0.0379504 -2.03745e-19)
(-0.0287947 0.0215301 -3.66117e-19)
(-0.011598 0.00569375 3.72866e-19)
(0.00718564 -0.00871764 1.57356e-19)
(-0.012623 0.0374478 1.4488e-19)
(-0.0309317 0.0907476 -1.91504e-19)
(-0.0450204 0.128069 2.70119e-19)
(-0.056041 0.152772 2.72845e-19)
(-0.0644684 0.167477 2.51362e-19)
(-0.0705156 0.174373 5.13061e-19)
(-0.0742619 0.175236 3.35316e-19)
(-0.0757263 0.171458 -7.26357e-19)
(-0.0749088 0.164091 3.75034e-19)
(-0.0718098 0.153919 2.98434e-19)
(-0.0664387 0.141515 -4.26904e-21)
(-0.0588157 0.127308 3.40964e-19)
(-0.048971 0.111631 2.69672e-19)
(-0.0369443 0.0947665 -1.44822e-19)
(-0.0227854 0.0769854 4.98681e-19)
(-0.00654334 0.0585866 -6.18142e-19)
(0.0117396 0.0399324 2.48862e-19)
(0.0318314 0.0214329 3.19696e-19)
(0.0528463 0.00351622 -7.33941e-20)
(0.0748086 -0.0128203 6.26685e-19)
(-0.0133721 0.0362706 2.9693e-19)
(-0.032062 0.0894465 1.58049e-20)
(-0.0447869 0.127968 -1.05921e-19)
(-0.0533458 0.154345 -1.11173e-19)
(-0.0585635 0.170751 -5.20907e-19)
(-0.0608689 0.179139 7.35922e-20)
(-0.0605165 0.181168 2.11889e-19)
(-0.0576598 0.17819 -1.02492e-19)
(-0.0523977 0.17127 8.52624e-20)
(-0.0448038 0.161219 -2.13487e-20)
(-0.0349423 0.148647 -1.13145e-19)
(-0.0228741 0.134014 1.08296e-19)
(-0.0086591 0.117671 -4.80214e-19)
(0.00764375 0.09991 4.60404e-19)
(0.0259746 0.0809984 -4.03433e-19)
(0.0462767 0.0612285 1.24258e-19)
(0.0685052 0.0409697 2.85991e-19)
(0.0924876 0.0206928 -5.89307e-20)
(0.117411 0.000959922 -1.97571e-19)
(0.142648 -0.017079 -1.30938e-19)
(-0.0138161 0.034248 -3.72432e-19)
(-0.0327479 0.0859944 -2.36045e-20)
(-0.0443444 0.12473 7.83405e-20)
(-0.0507883 0.152092 2.00711e-19)
(-0.0531445 0.169773 -2.83087e-19)
(-0.0520166 0.179439 -2.48284e-19)
(-0.0478196 0.182585 5.84455e-19)
(-0.0408423 0.180482 -3.22081e-19)
(-0.0312913 0.174169 -2.10201e-19)
(-0.0193234 0.164464 -3.06103e-19)
(-0.00506578 0.151998 2.043e-19)
(0.0113749 0.137248 -2.99532e-21)
(0.0299083 0.120582 -3.85784e-19)
(0.0504594 0.102293 -6.41859e-19)
(0.0729645 0.0826405 4.89888e-19)
(0.0973693 0.0618961 -4.0122e-19)
(0.12363 0.0404155 5.69581e-19)
(0.151627 0.0187076 -1.59567e-19)
(0.180667 -0.00251445 3.35535e-19)
(0.20947 -0.021923 -1.10802e-18)
(-0.0139776 0.0316414 -7.5988e-19)
(-0.0330161 0.0808752 4.95676e-19)
(-0.0437457 0.118857 6.70389e-20)
(-0.048479 0.146428 1.30508e-20)
(-0.0484107 0.164817 -3.04284e-19)
(-0.0442714 0.175392 4.47841e-19)
(-0.0366133 0.179454 4.99354e-20)
(-0.0258519 0.178163 -9.30234e-20)
(-0.0123007 0.172501 -3.00471e-19)
(0.00379784 0.163269 3.26334e-19)
(0.022253 0.151098 8.38202e-19)
(0.0429147 0.136474 -1.85144e-19)
(0.065668 0.11977 4.24369e-19)
(0.0904299 0.101275 -5.07682e-19)
(0.117143 0.0812333 -4.90866e-19)
(0.145767 0.0598901 2.9572e-19)
(0.176263 0.0375692 4.93524e-19)
(0.208547 0.0147937 -1.59651e-18)
(0.242076 -0.00755287 1.88799e-19)
(0.274957 -0.0278937 2.47902e-19)
(-0.0139144 0.0287186 5.63688e-19)
(-0.0329447 0.0746223 1.8543e-19)
(-0.0430624 0.11096 9.55777e-19)
(-0.0464918 0.13793 4.89069e-20)
(-0.0444586 0.156364 -1.06372e-19)
(-0.037773 0.167349 -5.06634e-19)
(-0.0270936 0.171989 4.30326e-19)
(-0.0129442 0.171312 7.76334e-19)
(0.0042663 0.166227 5.23242e-19)
(0.024219 0.157491 3.78763e-19)
(0.0466687 0.145718 3.29298e-19)
(0.0714324 0.131387 -5.97535e-19)
(0.0983817 0.114864 -1.92079e-19)
(0.127436 0.0964324 -1.3983e-19)
(0.158552 0.0763163 1.51583e-18)
(0.191704 0.0547311 -3.49263e-21)
(0.226849 0.0319582 -3.81488e-19)
(0.263905 0.00851099 -1.21507e-19)
(0.302481 -0.0145389 1.0987e-18)
(0.34015 -0.0352474 1.41594e-19)
(-0.0137102 0.0257295 -2.78459e-20)
(-0.0326478 0.0677685 -5.29821e-19)
(-0.0423657 0.101704 -7.84763e-19)
(-0.0448378 0.127292 -2.17416e-19)
(-0.0412432 0.145068 1.19957e-19)
(-0.0324283 0.155886 2.54705e-20)
(-0.0191231 0.160667 6.88511e-19)
(-0.00193173 0.160306 -8.55306e-19)
(0.0186643 0.155621 -3.26117e-19)
(0.0422903 0.147314 -6.63671e-19)
(0.068665 0.135963 -5.71433e-19)
(0.0975888 0.122026 -5.09114e-19)
(0.128932 0.105858 1.2708e-19)
(0.162619 0.0877246 -1.66263e-19)
(0.198615 0.0678348 7.24761e-19)
(0.236889 0.0463762 -3.99021e-19)
(0.277361 0.0235867 -1.25963e-18)
(0.319881 -5.23961e-05 -2.55801e-19)
(0.364169 -0.0232749 6.21679e-19)
(0.407437 -0.0436083 -5.21415e-19)
(-0.0134619 0.0228857 -8.97595e-20)
(-0.0322514 0.0607984 6.47434e-19)
(-0.0417006 0.0917404 -8.22485e-19)
(-0.0434375 0.115257 1.90367e-19)
(-0.0385439 0.131704 -3.89422e-19)
(-0.0278662 0.141766 8.66337e-19)
(-0.0121696 0.14621 -6.20264e-19)
(0.00789657 0.145812 7.12537e-19)
(0.0318103 0.141293 -6.75027e-19)
(0.0591689 0.133292 2.92213e-19)
(0.0896773 0.122339 -1.40549e-19)
(0.123133 0.108865 -3.56914e-19)
(0.159405 0.0932021 -4.45933e-19)
(0.198412 0.0756023 4.4904e-19)
(0.240089 0.0562608 -3.78365e-19)
(0.284348 0.0353483 -8.35739e-19)
(0.331007 0.0130666 8.73492e-19)
(0.379748 -0.010153 -1.11405e-18)
(0.43032 -0.0328695 5.03434e-19)
(0.479867 -0.0518724 1.10015e-20)
(-0.0132631 0.0203446 -8.13248e-19)
(-0.0318639 0.0541078 -8.72498e-19)
(-0.0410553 0.0816573 1.00676e-19)
(-0.0420945 0.102554 -8.33649e-19)
(-0.0359428 0.117098 -7.24425e-20)
(-0.0234201 0.12587 -6.11622e-19)
(-0.00529163 0.129528 -1.40022e-19)
(0.0177851 0.128745 -4.09658e-19)
(0.0452811 0.124156 5.80808e-21)
(0.0767918 0.116331 -1.79083e-19)
(0.112023 0.105753 1.57545e-20)
(0.150765 0.0928137 -5.25846e-19)
(0.192864 0.0778243 5.89916e-19)
(0.238182 0.0610245 -8.33605e-19)
(0.286558 0.0426033 3.01334e-19)
(0.33776 0.0227263 1.31074e-20)
(0.39141 0.00157416 -4.77874e-19)
(0.44692 -0.0204869 1.19983e-18)
(0.503939 -0.0419073 -2.82927e-19)
(0.560005 -0.0584583 -1.76826e-19)
(-0.013188 0.0181997 9.10236e-19)
(-0.0315453 0.0479756 4.89307e-19)
(-0.0403339 0.071927 4.5289e-19)
(-0.0404793 0.0898321 6.73324e-20)
(-0.0328254 0.102045 6.09298e-19)
(-0.0181494 0.109113 8.75832e-19)
(0.00281206 0.111627 7.14547e-19)
(0.0294236 0.110182 6.58902e-20)
(0.0611732 0.105343 5.26151e-19)
(0.0976644 0.0976128 8.14339e-19)
(0.138593 0.0874257 -2.1066e-19)
(0.183708 0.075139 3.56994e-19)
(0.232772 0.0610404 2.88201e-19)
(0.285507 0.0453596 2.97367e-19)
(0.341554 0.0282852 1.77578e-18)
(0.400434 0.00998651 -6.67666e-19)
(0.461482 -0.00936497 -3.88249e-20)
(0.523771 -0.0294831 7.81711e-19)
(0.586714 -0.0488365 -4.42779e-19)
(0.648794 -0.061807 2.11224e-19)
(-0.0132759 0.0164778 -7.33718e-19)
(-0.0312831 0.0425497 4.58927e-20)
(-0.0393397 0.0628752 -5.80294e-19)
(-0.0381322 0.0776064 -7.43225e-20)
(-0.0284127 0.0872397 4.22214e-19)
(-0.0109118 0.0923502 -1.25606e-18)
(0.013677 0.0935025 -1.70747e-21)
(0.044753 0.0912409 5.84371e-19)
(0.0818209 0.0860709 5.48514e-19)
(0.124471 0.0784431 -2.42441e-19)
(0.17234 0.0687442 8.09384e-20)
(0.225062 0.0572978 1.86046e-19)
(0.282216 0.0443697 -8.86619e-20)
(0.343276 0.0301792 -1.00404e-18)
(0.407573 0.0149136 2.53443e-19)
(0.474282 -0.00125477 7.0915e-19)
(0.542395 -0.0181634 -1.01441e-18)
(0.610645 -0.0356253 4.92465e-19)
(0.678147 -0.0522808 1.32368e-19)
(0.744758 -0.0607413 6.46132e-19)
(-0.0135213 0.0151428 -1.06577e-19)
(-0.0309788 0.0378481 -5.10248e-19)
(-0.0377758 0.0546675 2.34047e-19)
(-0.0344904 0.0662232 6.15287e-22)
(-0.0218266 0.0732165 -1.01317e-18)
(-0.000481944 0.0762952 1.58587e-19)
(0.0288855 0.0760321 -2.97581e-20)
(0.0656928 0.0729439 2.03369e-19)
(0.109424 0.0674933 -9.31831e-19)
(0.159594 0.0600846 -6.69038e-20)
(0.215691 0.051063 -2.21993e-19)
(0.277126 0.0407181 1.94589e-19)
(0.343176 0.0292916 6.67575e-19)
(0.412955 0.0169886 -1.02915e-19)
(0.485395 0.00398949 4.17412e-20)
(0.559267 -0.00953788 2.63267e-19)
(0.633192 -0.0234483 -6.771e-20)
(0.705608 -0.0376507 5.4068e-19)
(0.775432 -0.050989 -3.1446e-19)
(0.843659 -0.0544561 -4.77182e-19)
(-0.0138715 0.0141089 9.99988e-20)
(-0.0304504 0.0337768 2.49956e-20)
(-0.0352654 0.0473155 2.04095e-19)
(-0.0289362 0.0558482 4.97606e-19)
(-0.01218 0.0603123 2.7805e-19)
(0.0143046 0.0614582 2.85258e-20)
(0.0498566 0.0598903 -3.30091e-19)
(0.0938556 0.0561152 8.46792e-20)
(0.145687 0.0505638 4.45411e-19)
(0.204684 0.0435998 -7.55581e-19)
(0.270071 0.0355265 5.71473e-19)
(0.340911 0.0265949 -4.32042e-19)
(0.416073 0.0170142 3.68232e-19)
(0.494238 0.00696388 -7.97093e-19)
(0.573914 -0.00339332 8.80689e-19)
(0.653494 -0.0139012 -9.42986e-19)
(0.731293 -0.0244262 -2.45863e-19)
(0.805552 -0.0348757 7.65659e-19)
(0.875123 -0.0440551 -2.60094e-19)
(0.940077 -0.043769 1.09351e-19)
(-0.0142322 0.0132584 -7.52851e-20)
(-0.0294483 0.0301605 7.09238e-19)
(-0.0313844 0.0407043 -3.87682e-21)
(-0.0208548 0.0464822 -4.38573e-19)
(0.00133416 0.0486685 -2.9305e-19)
(0.0344229 0.0481298 5.37227e-19)
(0.0776739 0.0455136 -2.12553e-19)
(0.130335 0.0413254 -2.67718e-20)
(0.191574 0.0359687 4.42278e-19)
(0.260415 0.0297653 -5.49758e-19)
(0.335683 0.022969 6.09292e-20)
(0.415983 0.0157785 -7.17788e-19)
(0.499708 0.0083502 3.78895e-19)
(0.585089 0.000813255 -1.08432e-18)
(0.670271 -0.00671464 1.72662e-18)
(0.753406 -0.0141112 -3.19538e-19)
(0.832754 -0.021236 3.23266e-19)
(0.906801 -0.0278383 -8.38353e-19)
(0.974852 -0.0327307 1.37543e-20)
(1.03156 -0.0359431 8.50101e-19)
(-0.0144794 0.0124633 -2.27696e-19)
(-0.0276805 0.0267828 1.96064e-19)
(-0.0256976 0.0346372 -7.2186e-19)
(-0.00968287 0.0380038 1.06603e-18)
(0.0193782 0.0382688 -7.68178e-19)
(0.0605782 0.0364118 3.93671e-20)
(0.112996 0.0331238 -8.25416e-19)
(0.175617 0.0289079 5.89712e-19)
(0.247251 0.0241355 -8.4552e-20)
(0.326468 0.019076 -5.2152e-19)
(0.411574 0.013917 -3.04879e-19)
(0.500641 0.0087814 3.22048e-19)
(0.591565 0.0037441 2.12838e-19)
(0.682181 -0.00115032 -9.37859e-19)
(0.770376 -0.00587054 3.39507e-19)
(0.854225 -0.0103828 -4.95802e-19)
(0.932094 -0.014637 6.25156e-20)
(1.00275 -0.0185306 -4.03057e-19)
(1.06565 -0.0216515 1.39253e-19)
(1.11871 -0.0240923 -5.67727e-19)
(-0.0144744 0.0116069 6.4839e-19)
(-0.0248388 0.0234293 -3.92164e-19)
(-0.0177879 0.0288905 3.22534e-19)
(0.00506183 0.0302322 -4.06115e-19)
(0.042444 0.0290066 6.80456e-19)
(0.0931912 0.026289 -1.25888e-20)
(0.156062 0.0228014 -8.28848e-20)
(0.229625 0.0190321 -6.17116e-20)
(0.312177 0.0153043 3.76766e-19)
(0.401701 0.0118137 6.40719e-19)
(0.495902 0.00865502 -3.78904e-19)
(0.592295 0.00584652 3.68193e-19)
(0.688338 0.00335321 6.70143e-19)
(0.781588 0.00111065 -4.69438e-19)
(0.869858 -0.000953286 -9.38306e-19)
(0.951337 -0.00290072 1.70449e-18)
(1.02468 -0.00477225 -3.04318e-19)
(1.08906 -0.00657883 -9.33961e-20)
(1.14423 -0.00821568 9.67226e-19)
(1.18989 -0.00919183 -2.24065e-19)
(-0.0140788 0.0105993 -1.0553e-18)
(-0.0206206 0.0199253 -7.0173e-19)
(-0.00727369 0.0232691 -2.68946e-19)
(0.0237745 0.022997 5.18408e-19)
(0.0708638 0.0207669 -1.16899e-18)
(0.132431 0.0177191 6.04208e-19)
(0.206755 0.0145808 7.64263e-20)
(0.291822 0.0117995 7.64394e-20)
(0.385265 0.00962 -7.9182e-19)
(0.484381 0.00813032 -2.79929e-19)
(0.586244 0.00729839 -4.91917e-19)
(0.687868 0.00700724 4.73897e-19)
(0.78641 0.00709037 1.31922e-19)
(0.879356 0.00736529 2.43233e-20)
(0.964671 0.00766195 5.95784e-19)
(1.04089 0.00784327 -6.09689e-19)
(1.10717 0.00781581 -2.31188e-20)
(1.16321 0.00753388 2.3097e-20)
(1.20928 0.00702353 8.8297e-20)
(1.24612 0.0069895 4.10964e-19)
(-0.0131635 0.00938683 3.36124e-19)
(-0.0147435 0.0161629 8.64584e-19)
(0.00618485 0.0176519 6.93255e-19)
(0.0467708 0.0162 -2.38693e-19)
(0.104836 0.0135005 8.29175e-19)
(0.178266 0.0107146 -6.92596e-20)
(0.264683 0.00853439 -9.86296e-20)
(0.361325 0.00732294 5.79932e-20)
(0.465037 0.00720144 8.0107e-19)
(0.572386 0.00810614 4.70058e-19)
(0.679861 0.00984079 1.37359e-19)
(0.784125 0.0121296 9.54537e-21)
(0.882252 0.0146685 -8.95748e-19)
(0.971917 0.0171694 7.78908e-19)
(1.0515 0.019393 1.28328e-19)
(1.1201 0.0211685 -2.17263e-19)
(1.17751 0.022399 -8.96286e-19)
(1.22408 0.0230574 -6.64144e-20)
(1.26061 0.0231775 3.36833e-19)
(1.28853 0.0234928 -6.23612e-20)
(-0.011614 0.00795317 -8.52667e-19)
(-0.00695137 0.0121144 3.56503e-19)
(0.0228854 0.0120202 -1.7394e-18)
(0.0742964 0.00985646 7.12021e-19)
(0.144446 0.00727325 -5.67914e-19)
(0.230494 0.00539438 4.19481e-19)
(0.329223 0.00481777 -6.50747e-19)
(0.436972 0.00576144 5.95144e-20)
(0.549728 0.00816415 -3.32685e-20)
(0.663357 0.0117618 1.74015e-19)
(0.773911 0.0161642 2.49677e-19)
(0.877939 0.0209306 -4.71281e-19)
(0.97272 0.0256369 2.50584e-19)
(1.0564 0.0299263 2.26054e-19)
(1.128 0.0335391 9.46962e-19)
(1.18736 0.0363228 -4.17696e-19)
(1.23497 0.0382254 -2.60422e-19)
(1.27181 0.0392783 4.32097e-19)
(1.29917 0.039576 2.10967e-19)
(1.31876 0.03974 -4.29491e-19)
(-0.00932961 0.00631565 7.4697e-19)
(0.00298356 0.00783161 7.19762e-19)
(0.0430821 0.00646582 2.07379e-19)
(0.106526 0.00410923 8.74643e-19)
(0.189666 0.00228108 4.30348e-19)
(0.288746 0.00199258 -7.74724e-19)
(0.399534 0.00366917 1.17445e-18)
(0.517361 0.00730699 -5.77917e-19)
(0.637359 0.0125979 5.75577e-19)
(0.754831 0.0190367 7.41337e-19)
(0.865642 0.0260296 -4.22812e-19)
(0.966532 0.032992 8.08106e-20)
(1.0553 0.0394252 4.39479e-19)
(1.13081 0.0449616 3.04922e-19)
(1.19291 0.0493803 6.85138e-19)
(1.24223 0.0525988 -2.82451e-19)
(1.27992 0.0546477 -4.12327e-20)
(1.3075 0.0556399 4.01511e-19)
(1.32661 0.0557392 -9.00897e-20)
(1.33904 0.0554342 -1.57614e-21)
(-0.00622066 0.00451829 -3.85666e-19)
(0.0152597 0.00343738 -1.41633e-18)
(0.0669782 0.00118275 3.33646e-19)
(0.14355 -0.000781512 -2.53955e-19)
(0.240335 -0.00116647 -5.8717e-19)
(0.352465 0.00083174 -4.19257e-19)
(0.474548 0.00536997 -2.59025e-19)
(0.600869 0.0121376 6.28838e-19)
(0.725819 0.0205224 -3.73025e-19)
(0.844384 0.0297603 -3.81612e-19)
(0.952574 0.0390752 -4.76907e-19)
(1.04767 0.0477917 -7.86362e-20)
(1.12826 0.0554047 -5.72889e-20)
(1.19412 0.0616045 -1.06552e-18)
(1.24599 0.0662666 5.01757e-19)
(1.28521 0.0694183 -6.62004e-19)
(1.31354 0.0711949 1.94217e-19)
(1.33283 0.0717972 -1.48797e-18)
(1.34492 0.0714506 4.51209e-19)
(1.35155 0.0705233 5.43655e-19)
(-0.00220613 0.00262498 -9.69373e-20)
(0.0300434 -0.000889135 6.90625e-19)
(0.0947134 -0.00355327 4.42667e-20)
(0.185349 -0.00446635 1.06752e-19)
(0.296125 -0.00268544 -2.17321e-19)
(0.42088 0.0022721 -3.46628e-21)
(0.55297 0.0101871 -5.32687e-21)
(0.685708 0.0203627 -1.3025e-19)
(0.812973 0.0318496 4.63394e-19)
(0.929786 0.0436418 1.77919e-19)
(1.03268 0.0548395 7.98803e-19)
(1.11978 0.0647553 -2.16883e-19)
(1.1907 0.0729572 1.48093e-19)
(1.24618 0.0792591 -1.62967e-20)
(1.28779 0.0836766 4.02389e-19)
(1.3175 0.0863684 2.38926e-19)
(1.33745 0.0875775 5.57469e-19)
(1.3497 0.0875826 -8.90745e-19)
(1.3561 0.0866513 1.09852e-18)
(1.35825 0.0850709 -3.47429e-19)
(0.00278738 0.000714314 -8.9935e-19)
(0.0474619 -0.00492669 -2.81158e-19)
(0.126345 -0.00740939 2.19378e-19)
(0.231765 -0.00654324 1.38527e-19)
(0.356514 -0.00186581 1.42381e-19)
(0.492994 0.00665504 1.44288e-19)
(0.633316 0.0183177 -3.61412e-19)
(0.770012 0.0319827 -1.47585e-19)
(0.896805 0.046369 4.70782e-20)
(1.00916 0.0602883 -4.3571e-19)
(1.10449 0.0728061 -1.93339e-19)
(1.18203 0.0833156 1.16599e-18)
(1.24249 0.0915346 -3.01806e-19)
(1.28754 0.0974502 -4.03713e-19)
(1.31945 0.101241 -1.83358e-19)
(1.34064 0.103199 1.3119e-19)
(1.35344 0.103661 1.49752e-19)
(1.35995 0.102965 -7.14321e-19)
(1.36191 0.1014 1.01372e-18)
(1.36076 0.0992071 -8.76799e-19)
(0.008824 -0.00112373 -1.0112e-19)
(0.0675951 -0.00842471 2.88346e-20)
(0.161831 -0.0100203 -3.73979e-20)
(0.282483 -0.00659452 5.44464e-19)
(0.42078 0.00168159 3.03182e-20)
(0.567613 0.0142544 1.99968e-19)
(0.713979 0.0298515 -4.15784e-19)
(0.851962 0.0468739 -1.45848e-20)
(0.975559 0.0637624 5.72075e-19)
(1.0811 0.0792438 7.77826e-20)
(1.16717 0.0924565 -4.89748e-19)
(1.23425 0.102965 -4.27084e-20)
(1.2841 0.110696 -3.87904e-19)
(1.31923 0.115838 3.90295e-19)
(1.34238 0.118734 5.25312e-19)
(1.35624 0.119792 -5.73062e-20)
(1.36318 0.119422 -6.64396e-20)
(1.36517 0.117994 2.02725e-19)
(1.3638 0.115801 -6.34599e-19)
(1.3603 0.11307 5.66447e-19)
(0.0159547 -0.00278954 1.02481e-19)
(0.090464 -0.0111137 -6.58176e-19)
(0.201014 -0.0110102 1.75877e-19)
(0.337018 -0.00421982 -5.48424e-19)
(0.488006 0.00828684 1.88821e-19)
(0.643396 0.0252436 -7.00153e-19)
(0.793339 0.0447552 2.8184e-19)
(0.929907 0.0647988 -8.99029e-20)
(1.04785 0.0836373 -3.74492e-21)
(1.14471 0.100036 8.91908e-20)
(1.22046 0.113316 -3.23707e-19)
(1.27679 0.123287 -4.5519e-19)
(1.31644 0.130121 -9.0281e-20)
(1.34251 0.13421 -4.04306e-20)
(1.35807 0.136045 -1.01931e-19)
(1.36585 0.136125 -3.24111e-20)
(1.36812 0.134903 -9.66768e-20)
(1.36668 0.132755 -8.27975e-20)
(1.36288 0.129973 -2.38595e-19)
(1.35776 0.12678 3.74532e-19)
(0.0242125 -0.00417508 2.44416e-19)
(0.116021 -0.0127142 -2.71688e-19)
(0.243611 -0.0100119 5.85808e-19)
(0.394721 0.000937099 -2.53554e-19)
(0.557124 0.018194 6.77736e-19)
(0.718933 0.0396799 1.05203e-20)
(0.869859 0.062878 3.38885e-19)
(1.00247 0.0854332 -9.12084e-20)
(1.1127 0.105568 3.73181e-19)
(1.1996 0.122217 2.48394e-20)
(1.26454 0.134981 8.68418e-19)
(1.31038 0.143966 -5.95506e-19)
(1.3406 0.149597 8.18458e-20)
(1.35871 0.152454 1.52494e-19)
(1.36789 0.153145 7.65569e-19)
(1.37077 0.152229 -2.7398e-19)
(1.36944 0.150173 -5.30774e-20)
(1.36545 0.147344 -2.72411e-19)
(1.35995 0.144021 -2.58942e-20)
(1.35375 0.140431 1.34711e-19)
(0.0336069 -0.00516551 -1.16173e-19)
(0.144141 -0.0129457 3.37402e-19)
(0.289214 -0.00668351 -3.47788e-19)
(0.4548 0.00916752 1.36477e-19)
(0.626966 0.0315457 -1.64743e-19)
(0.792834 0.0575055 6.019e-19)
(0.942186 0.0839722 -8.44875e-20)
(1.06861 0.108401 2.02641e-19)
(1.16959 0.129131 -1.20387e-19)
(1.24579 0.145393 -3.43974e-21)
(1.29998 0.157135 1.32413e-19)
(1.33597 0.164782 -1.01432e-19)
(1.35777 0.169002 2.61357e-19)
(1.36909 0.170529 -1.30441e-19)
(1.37305 0.170053 -5.56705e-19)
(1.37209 0.16816 5.48929e-19)
(1.36805 0.16531 -2.4226e-19)
(1.36222 0.161841 1.92693e-19)
(1.35554 0.158023 3.26889e-19)
(1.34865 0.15408 1.33739e-19)
(0.0441197 -0.00564149 2.89651e-19)
(0.174617 -0.0115359 -5.97423e-19)
(0.337296 -0.000723922 1.13989e-19)
(0.51635 0.0206827 -8.32478e-20)
(0.696324 0.0483779 -3.36901e-19)
(0.863804 0.0785586 -2.6321e-19)
(1.00921 0.10772 -5.21457e-20)
(1.12762 0.133307 -4.63988e-19)
(1.21833 0.153934 -2.78286e-20)
(1.28363 0.169232 -8.49698e-20)
(1.32753 0.17954 -2.2802e-19)
(1.35456 0.185596 -5.10779e-20)
(1.36906 0.188278 -1.71346e-19)
(1.37474 0.188438 -2.79959e-19)
(1.37454 0.18681 2.82749e-19)
(1.37063 0.183977 3.62493e-20)
(1.36459 0.180376 7.20503e-20)
(1.35748 0.176305 -3.15388e-19)
(1.35002 0.17203 -9.37217e-21)
(1.3427 0.167759 -4.75141e-19)
(0.0557018 -0.0054825 3.15121e-19)
(0.207162 -0.0082308 2.10868e-19)
(0.387227 0.00811362 -3.42024e-19)
(0.578392 0.0356042 5.33637e-19)
(0.764016 0.0686235 -5.81733e-20)
(0.930705 0.102592 1.98591e-19)
(1.0701 0.133761 6.8539e-20)
(1.17915 0.159761 2.40059e-19)
(1.25906 0.17963 -1.87913e-19)
(1.31369 0.19347 6.14771e-20)
(1.34804 0.202027 -5.87782e-20)
(1.36716 0.206323 -2.47443e-20)
(1.37548 0.207406 4.79925e-20)
(1.37658 0.206202 -8.69951e-20)
(1.37313 0.203457 -2.57656e-20)
(1.36702 0.199729 -7.95457e-20)
(1.35954 0.195414 -1.27758e-19)
(1.35155 0.190771 8.30026e-20)
(1.34359 0.186064 -1.10137e-19)
(1.33604 0.18147 4.78952e-19)
(0.0682711 -0.004571 -1.56414e-19)
(0.241409 -0.002806 -4.4554e-19)
(0.43829 0.0200095 -5.9319e-20)
(0.63992 0.0539596 -1.6887e-20)
(0.828938 0.0921213 -1.9998e-19)
(0.9926 0.129297 -3.27501e-19)
(1.12429 0.161717 1.06178e-19)
(1.22309 0.187399 -1.45726e-19)
(1.29213 0.205922 -1.61326e-19)
(1.33663 0.217903 8.89717e-20)
(1.36237 0.224478 -6.67671e-20)
(1.37466 0.226916 -1.33043e-19)
(1.37787 0.226386 -3.09791e-21)
(1.37533 0.223848 8.97081e-20)
(1.36939 0.220028 -8.91773e-20)
(1.36167 0.215445 1.23826e-19)
(1.35319 0.210444 3.39128e-20)
(1.34462 0.205248 8.24547e-20)
(1.33638 0.200124 1.56869e-19)
(1.32872 0.195197 -1.34123e-19)
(0.0817125 -0.00279695 1.48943e-19)
(0.276922 0.00492331 -1.21643e-20)
(0.489713 0.0350689 6.78589e-20)
(0.699938 0.0756831 -9.13046e-20)
(0.890106 0.11863 8.24349e-21)
(1.04876 0.158318 3.15457e-19)
(1.17147 0.191209 -2.06273e-19)
(1.25958 0.215886 8.65966e-20)
(1.31803 0.23256 7.58289e-20)
(1.35318 0.242372 -2.11009e-19)
(1.37133 0.246813 1.96759e-19)
(1.37786 0.24735 1.73013e-21)
(1.37693 0.245223 -1.35696e-19)
(1.37155 0.24139 1.62834e-19)
(1.36376 0.236537 -6.38665e-20)
(1.35488 0.23113 4.84787e-20)
(1.34574 0.225464 -5.44252e-20)
(1.33682 0.219724 -2.21702e-20)
(1.32844 0.214186 -1.83941e-19)
(1.32077 0.208906 5.654e-20)
(0.0958794 -6.2604e-05 -4.95112e-20)
(0.313209 0.0150927 1.34398e-19)
(0.540696 0.0533158 2.12252e-20)
(0.757506 0.100621 8.80456e-20)
(0.946689 0.147844 4.20529e-20)
(1.09868 0.189279 1.97443e-20)
(1.21153 0.221871 1.10514e-19)
(1.28889 0.244924 -1.33646e-20)
(1.33731 0.259334 4.80189e-20)
(1.36404 0.26675 7.65387e-20)
(1.37564 0.268971 3.64926e-20)
(1.3774 0.267601 2.59824e-20)
(1.37319 0.263913 1.04793e-19)
(1.36565 0.258828 -1.01373e-19)
(1.35652 0.252979 2.1547e-20)
(1.34685 0.246772 -1.99022e-20)
(1.33729 0.240449 3.0886e-20)
(1.32819 0.234167 2.57198e-20)
(1.31979 0.228211 5.27519e-20)
(1.31217 0.222551 1.98666e-21)
(0.110597 0.00371292 2.94126e-20)
(0.349733 0.0277812 2.68383e-20)
(0.590436 0.0746917 -3.72781e-20)
(0.811765 0.128541 2.32944e-20)
(0.998012 0.179408 1.30919e-20)
(1.14203 0.221789 -4.08482e-20)
(1.24455 0.253353 1.33327e-20)
(1.31142 0.274246 2.51576e-21)
(1.35057 0.286067 2.27331e-20)
(1.36985 0.290935 -6.07882e-20)
(1.37592 0.290897 -1.10324e-22)
(1.37382 0.287645 1.6554e-20)
(1.36706 0.282438 -1.32066e-20)
(1.35793 0.276144 1.3301e-20)
(1.34786 0.269327 3.42782e-20)
(1.33769 0.262333 -1.93703e-20)
(1.3279 0.255356 5.48704e-21)
(1.31876 0.248528 2.09264e-20)
(1.31041 0.242145 -3.41801e-20)
(1.30291 0.236075 1.6547e-20)
(0.125666 0.00858963 8.08028e-20)
(0.385937 0.0430057 -4.42498e-20)
(0.638159 0.0990573 5.22625e-20)
(0.861962 0.159141 -3.88901e-20)
(1.04357 0.212932 -1.73579e-20)
(1.17865 0.255457 5.34742e-21)
(1.27072 0.285327 -1.69102e-20)
(1.3276 0.303612 6.05306e-20)
(1.35835 0.312601 -5.01923e-20)
(1.37119 0.314831 1.17755e-20)
(1.37268 0.312536 -8.75964e-21)
(1.36753 0.307442 -5.63405e-20)
(1.35885 0.300765 5.44628e-20)
(1.34859 0.293298 2.05646e-20)
(1.33791 0.285535 -2.03671e-20)
(1.32745 0.277762 4.75769e-20)
(1.31759 0.270128 -8.03958e-22)
(1.30851 0.262747 -4.55732e-20)
(1.30029 0.255925 3.35009e-20)
(1.29296 0.249414 1.04987e-20)
(0.140868 0.0146035 -2.83732e-20)
(0.421252 0.0607193 8.18805e-20)
(0.683143 0.126198 9.4923e-20)
(0.907462 0.192066 -4.48873e-20)
(1.08299 0.248004 7.78339e-20)
(1.20854 0.289901 1.22773e-19)
(1.29031 0.317487 -6.87547e-21)
(1.33789 0.332802 -2.09229e-20)
(1.36118 0.338793 1.02991e-19)
(1.36857 0.338348 5.00638e-20)
(1.36635 0.333825 -8.95594e-21)
(1.35884 0.32694 7.41481e-20)
(1.34878 0.318838 -7.88526e-20)
(1.33777 0.310232 1.22905e-19)
(1.32674 0.301538 -2.03682e-20)
(1.31618 0.292989 5.81297e-20)
(1.30638 0.284692 1.03336e-20)
(1.29744 0.276751 4.09757e-20)
(1.2894 0.269478 -3.89381e-20)
(1.28229 0.262497 9.61578e-21)
(0.155972 0.0217634 -4.41087e-20)
(0.455118 0.0808098 1.0266e-19)
(0.724729 0.15583 7.65998e-20)
(0.947753 0.226913 -1.16369e-20)
(1.11608 0.284197 1.19539e-19)
(1.23179 0.324745 -9.00979e-20)
(1.30364 0.349543 -6.71693e-21)
(1.34274 0.361612 7.85055e-20)
(1.35954 0.364505 2.48137e-20)
(1.36239 0.361388 3.47542e-20)
(1.35726 0.354687 -5.11891e-20)
(1.34801 0.346068 1.33397e-19)
(1.337 0.336588 2.46864e-20)
(1.32556 0.326868 -1.17255e-19)
(1.3144 0.317257 1.71075e-19)
(1.30389 0.307932 -2.00983e-19)
(1.29424 0.298967 -9.16796e-20)
(1.28553 0.290459 1.56384e-20)
(1.27772 0.282722 8.82334e-20)
(1.27088 0.275249 -1.67303e-19)
(0.170739 0.0300499 -9.72355e-20)
(0.487002 0.103103 -2.30416e-19)
(0.762347 0.18761 -2.00467e-19)
(0.982447 0.263248 -2.71551e-19)
(1.14272 0.321082 -1.54404e-19)
(1.24856 0.359626 -3.19155e-19)
(1.31108 0.38122 4.06274e-20)
(1.34258 0.389848 -1.68891e-19)
(1.35385 0.389599 -1.86104e-20)
(1.35303 0.383848 2.77495e-20)
(1.34567 0.375032 -6.08459e-20)
(1.33522 0.36474 7.62913e-20)
(1.32364 0.353924 1.35295e-19)
(1.31202 0.343117 -1.89951e-19)
(1.30091 0.332598 3.08319e-20)
(1.29058 0.322498 8.77912e-20)