/*--------------------------------*- C++ -*----------------------------------*\
  =========                 |
  \\      /  F ield         | OpenFOAM: The Open Source CFD Toolbox
   \\    /   O peration     | Website:  https://openfoam.org
    \\  /    A nd           | Version:  6.0
     \\/     M anipulation  |
\*---------------------------------------------------------------------------*/
FoamFile
{
    version     2.0;
    format      ascii;
    class       surfaceScalarField;
    location    "31";
    object      phi;
}
// * * * * * * * * * * * * * * * * * * * * * * * * * * * * * * * * * * * * * //

dimensions      [0 3 -1 0 0 0 0];

internalField   nonuniform List<scalar> 
15760
(
-2.59112e-06
2.2808e-06
3.10316e-07
-9.19733e-06
5.8311e-06
7.75119e-07
-1.8863e-05
8.54013e-06
1.12549e-06
-3.07926e-05
1.05414e-05
1.38828e-06
-4.43396e-05
1.19623e-05
1.58468e-06
-5.89923e-05
1.29205e-05
1.7321e-06
-7.4359e-05
1.35221e-05
1.84467e-06
-9.01542e-05
1.38615e-05
1.93368e-06
-0.000106185
1.40227e-05
2.00801e-06
-0.000122339
1.40792e-05
2.07442e-06
-0.000138572
1.40956e-05
2.13792e-06
-0.000154902
1.41278e-05
2.20204e-06
-0.000171394
1.4223e-05
2.26905e-06
-0.000188155
1.44206e-05
2.34023e-06
-0.000205322
1.47514e-05
2.41599e-06
-0.000223057
1.52384e-05
2.49607e-06
-0.000241533
1.58963e-05
2.57963e-06
-0.00026093
1.67319e-05
2.66534e-06
-0.000281427
1.7746e-05
2.75142e-06
1.894e-05
2.83597e-06
-0.000303203
-2.59068e-06
4.87148e-06
-9.19114e-06
1.24316e-05
-1.8841e-05
1.819e-05
-3.07406e-05
2.2441e-05
-4.42391e-05
2.54608e-05
-5.88205e-05
2.75019e-05
-7.40886e-05
2.87902e-05
-8.97526e-05
2.95255e-05
-0.000105614
2.98838e-05
-0.000121554
3.00192e-05
-0.000137524
3.00656e-05
-0.000153535
3.01387e-05
-0.000169648
3.03364e-05
-0.000185967
3.07397e-05
-0.000202628
3.14125e-05
-0.000219792
3.24022e-05
-0.000237635
3.37394e-05
-0.000256341
3.54376e-05
-0.000276093
3.74982e-05
3.99229e-05
-0.000297076
-2.58618e-06
7.45766e-06
-9.16645e-06
1.90118e-05
-1.87729e-05
2.77964e-05
-3.05985e-05
3.42666e-05
-4.39855e-05
3.88478e-05
-5.84099e-05
4.19264e-05
-7.34668e-05
4.38471e-05
-8.88555e-05
4.49142e-05
-0.000104366
4.53946e-05
-0.000119869
4.55219e-05
-0.000135303
4.54997e-05
-0.000150668
4.55041e-05
-0.000166017
4.56853e-05
-0.000181446
4.61687e-05
-0.000197088
4.70544e-05
-0.000213104
4.8418e-05
-0.000229674
5.03098e-05
-0.000246991
5.27539e-05
-0.000265247
5.5755e-05
5.93166e-05
-0.000284641
-2.57855e-06
1.00362e-05
-9.12576e-06
2.5559e-05
-1.86632e-05
3.73338e-05
-3.03742e-05
4.59777e-05
-4.35912e-05
5.20648e-05
-5.77799e-05
5.61151e-05
-7.25232e-05
5.85904e-05
-8.7506e-05
5.9897e-05
-0.000102503
6.03913e-05
-0.000117366
6.03849e-05
-0.000132017
6.01507e-05
-0.000146439
5.99259e-05
-0.000160669
5.99154e-05
-0.000174792
6.02922e-05
-0.000188936
6.1198e-05
-0.00020326
6.27423e-05
-0.000217952
6.50015e-05
-0.000233214
6.80164e-05
-0.00024926
7.18006e-05
7.63623e-05
-0.000266306
-2.56885e-06
1.26051e-05
-9.07178e-06
3.2062e-05
-1.85168e-05
4.67789e-05
-3.00758e-05
5.75366e-05
-4.30698e-05
6.50588e-05
-5.69524e-05
6.99976e-05
-7.12917e-05
7.29297e-05
-8.57554e-05
7.43608e-05
-0.000100098
7.47334e-05
-0.000114148
7.44351e-05
-0.000127803
7.38064e-05
-0.000141024
7.31464e-05
-0.000153825
7.27166e-05
-0.000166275
7.27424e-05
-0.000178491
7.34132e-05
-0.000190629
7.48809e-05
-0.000202885
7.72569e-05
-0.000215477
8.06087e-05
-0.000228644
8.49673e-05
9.03522e-05
-0.000242633
-2.55787e-06
1.51629e-05
-9.0061e-06
3.85102e-05
-1.83363e-05
5.61091e-05
-2.97074e-05
6.89078e-05
-4.24291e-05
7.77805e-05
-5.59419e-05
8.35104e-05
-6.97987e-05
8.67865e-05
-8.36477e-05
8.82098e-05
-9.72193e-05
8.8305e-05
-0.000110316
8.75317e-05
-0.000122805
8.62955e-05
-0.000134615
8.49563e-05
-0.000145732
8.3834e-05
-0.000156201
8.32109e-05
-0.000166119
8.33317e-05
-0.00017564
8.44011e-05
-0.000184961
8.65787e-05
-0.000194325
8.99725e-05
-0.000204003
9.46447e-05
0.000100637
-0.000214288
-2.54568e-06
1.77086e-05
-8.92773e-06
4.48922e-05
-1.81186e-05
6.53e-05
-2.92643e-05
8.00534e-05
-4.16633e-05
9.01795e-05
-5.47449e-05
9.6592e-05
-6.80469e-05
0.000100089
-8.11983e-05
0.000101361
-9.39043e-05
0.000101011
-0.000105937
9.95642e-05
-0.000117128
9.74869e-05
-0.000127369
9.51969e-05
-0.000136607
9.30723e-05
-0.000144852
9.14559e-05
-0.000152176
9.06558e-05
-0.000158717
9.0942e-05
-0.000164677
9.25388e-05
-0.000170319
9.56144e-05
-0.000175958
0.000100284
0.00010663
-0.000181951
-2.53118e-06
2.02398e-05
-8.83174e-06
5.11928e-05
-1.78526e-05
7.43208e-05
-2.87271e-05
9.09279e-05
-4.07451e-05
0.000102198
-5.33266e-05
0.000109174
-6.59978e-05
0.00011276
-7.837e-05
0.000113733
-9.01245e-05
0.000112766
-0.000101002
0.000110441
-0.000110795
0.000107281
-0.000119352
0.000103753
-0.000126571
0.000100292
-0.000132418
9.73022e-05
-0.000136923
9.51616e-05
-0.0001402
9.42188e-05
-0.000142444
9.47828e-05
-0.000143939
9.71087e-05
-0.00014505
0.000101395
0.000107799
-0.000146219
-2.51181e-06
2.27516e-05
-8.70817e-06
5.73892e-05
-1.75163e-05
8.3129e-05
-2.80582e-05
0.00010147
-3.96177e-05
0.000113757
-5.16099e-05
0.000121166
-6.35536e-05
0.000124703
-7.50474e-05
0.000125227
-8.57525e-05
0.000123471
-9.538e-05
0.000120069
-0.000103685
0.000115585
-0.000110465
0.000110533
-0.000115566
0.000105393
-0.000118892
0.000100629
-0.000120421
9.6691e-05
-0.000120221
9.40188e-05
-0.000118467
9.30282e-05
-0.000115452
9.40942e-05
-0.0001116
9.75434e-05
0.000103655
-0.000107457
-2.48347e-06
2.52351e-05
-8.54165e-06
6.34473e-05
-1.70763e-05
9.16637e-05
-2.71989e-05
0.000111592
-3.81903e-05
0.000124748
-4.94658e-05
0.000132441
-6.05426e-05
0.00013578
-7.10136e-05
0.000135698
-8.05269e-05
0.000132984
-8.87708e-05
0.000128313
-9.54656e-05
0.00012228
-0.000100362
0.000115429
-0.000103246
0.000108277
-0.000103954
0.000101336
-0.00010239
9.51268e-05
-9.85553e-05
9.01843e-05
-9.25793e-05
8.70523e-05
-8.47491e-05
8.62639e-05
-7.55378e-05
8.83321e-05
9.3736e-05
-6.56184e-05
-2.4407e-06
2.76758e-05
-8.31193e-06
6.93186e-05
-1.64877e-05
9.98394e-05
-2.60691e-05
0.000121174
-3.63366e-05
0.000135016
-4.67094e-05
0.000142814
-5.67098e-05
0.00014578
-6.59332e-05
0.000144922
-7.40243e-05
0.000141075
-8.06593e-05
0.000134948
-8.55343e-05
0.000127155
-8.83607e-05
0.000118256
-8.88687e-05
0.000108785
-8.68205e-05
9.92881e-05
-8.20344e-05
9.03406e-05
-7.44209e-05
8.25708e-05
-6.40309e-05
7.66623e-05
-5.11103e-05
7.33433e-05
-3.61623e-05
7.33841e-05
7.75747e-05
-2.0001e-05
-2.37719e-06
3.0053e-05
-7.9953e-06
7.49367e-05
-1.56971e-05
0.000107541
-2.45714e-05
0.000130048
-3.38982e-05
0.000144343
-4.31028e-05
0.000152019
-5.17173e-05
0.000154395
-5.93472e-05
0.000152552
-6.56447e-05
0.000147373
-7.02876e-05
0.000139591
-7.29642e-05
0.000129832
-7.33638e-05
0.000118655
-7.11751e-05
0.000106597
-6.60953e-05
9.42084e-05
-5.78533e-05
8.20986e-05
-4.62502e-05
7.09677e-05
-3.12226e-05
6.16347e-05
-1.29268e-05
5.50476e-05
8.14867e-06
5.23086e-05
5.46681e-05
3.10552e-05
-2.28665e-06
3.23396e-05
-7.56703e-06
8.02171e-05
-1.46469e-05
0.000114621
-2.25976e-05
0.000137999
-3.06945e-05
0.00015244
-3.83672e-05
0.000159691
-4.51579e-05
0.000161186
-5.06863e-05
0.00015808
-5.46207e-05
0.000151307
-5.6655e-05
0.000141625
-5.64895e-05
0.000129666
-5.38167e-05
0.000115982
-4.8313e-05
0.000101093
-3.96383e-05
8.55337e-05
-2.74506e-05
6.99109e-05
-1.14428e-05
5.49599e-05
8.58876e-06
4.16031e-05
3.26336e-05
3.10027e-05
6.02934e-05
2.46489e-05
2.44307e-05
9.05308e-05
-2.16368e-06
3.45033e-05
-7.00417e-06
8.50576e-05
-1.32809e-05
0.000120898
-2.00379e-05
0.000144756
-2.65365e-05
0.000158938
-3.22022e-05
0.000165357
-3.65812e-05
0.000165565
-3.93041e-05
0.000160803
-4.00573e-05
0.00015206
-3.85596e-05
0.000140127
-3.45419e-05
0.000125649
-2.77299e-05
0.00010917
-1.78284e-05
9.11913e-05
-4.51011e-06
7.22154e-05
1.25856e-05
5.28152e-05
3.38341e-05
3.37114e-05
5.95696e-05
1.58677e-05
8.99684e-05
6.03912e-07
0.000124823
-1.02053e-05
-1.38676e-05
0.000163121
-2.00465e-06
3.65079e-05
-6.2882e-06
8.93411e-05
-1.15497e-05
0.000126159
-1.67906e-05
0.000149997
-2.12426e-05
0.00016339
-2.43112e-05
0.000168426
-2.55308e-05
0.000166784
-2.45294e-05
0.000159801
-2.10016e-05
0.000148532
-1.46884e-05
0.000133814
-5.35966e-06
0.00011632
7.20216e-06
9.66086e-05
2.32195e-05
7.5174e-05
4.29391e-05
5.24958e-05
6.66519e-05
2.91024e-05
9.47035e-05
5.65981e-06
0.000127476
-1.69049e-05
0.000165311
-3.72307e-05
0.000208281
-5.31754e-05
-6.11866e-05
0.0002556
-1.80816e-06
3.83161e-05
-5.40642e-06
9.29394e-05
-9.41399e-06
0.000130167
-1.27693e-05
0.000153352
-1.4652e-05
0.000165273
-1.4424e-05
0.000168198
-1.15824e-05
0.000163943
-5.72633e-06
0.000153945
3.46611e-06
0.00013934
1.62526e-05
0.000121028
3.28361e-05
9.97363e-05
5.33735e-05
7.60712e-05
7.79854e-05
5.05621e-05
0.000106774
2.37076e-05
0.000139848
-3.97255e-06
0.000177368
-3.18594e-05
0.000219573
-5.911e-05
0.000266804
-8.44624e-05
0.000319403
-0.000105774
-0.000118815
0.000377031
-1.57466e-06
3.98908e-05
-4.35123e-06
9.57159e-05
-6.84413e-06
0.00013266
-7.90331e-06
0.000154411
-6.62945e-06
0.000163999
-2.30998e-06
0.000163878
5.62892e-06
0.000156004
1.76544e-05
0.00014192
3.41449e-05
0.000122849
5.53973e-05
9.97753e-05
8.16256e-05
7.3508e-05
0.000112955
4.47419e-05
0.000149414
1.41033e-05
0.000190932
-1.78106e-05
0.000237352
-5.03922e-05
0.000288464
-8.29717e-05
0.000344078
-0.000114724
0.000404138
-0.000144523
0.000468897
-0.000170533
-0.000188552
0.000538634
-1.30537e-06
4.11961e-05
-3.11688e-06
9.75274e-05
-3.81445e-06
0.000133357
-2.13107e-06
0.000152728
2.94219e-06
0.000158926
1.22263e-05
0.000154594
2.64048e-05
0.000141825
4.60545e-05
0.00012227
7.16597e-05
9.72442e-05
0.000103612
6.78233e-05
0.000142197
3.49227e-05
0.000187574
-6.35194e-07
0.000239743
-3.80656e-05
0.000298508
-7.65752e-05
0.00036344
-0.000115324
0.000433858
-0.00015339
0.000508848
-0.000189714
0.000587368
-0.000223042
0.000668625
-0.00025179
-0.000273604
0.000753676
-1.0003e-06
4.21964e-05
-1.69384e-06
9.8221e-05
-2.9312e-07
0.000131956
4.61574e-06
0.000147819
1.41823e-05
0.000149359
2.93698e-05
0.000139407
5.10084e-05
0.000120187
7.98263e-05
9.34523e-05
0.000116461
6.06096e-05
0.000161455
2.28293e-05
0.000215238
-1.88605e-05
0.000278096
-6.34933e-05
0.000350124
-0.000110094
0.000431159
-0.00015761
0.000520681
-0.000204846
0.000617677
-0.000250387
0.000720477
-0.000292514
0.000826537
-0.000329102
0.000932555
-0.000357808
-0.000380524
0.00103947
-6.5588e-07
4.28523e-05
-6.20341e-08
9.76271e-05
3.77054e-06
0.000128124
1.24317e-05
0.000139158
2.72403e-05
0.000134551
4.93303e-05
0.000117317
7.97068e-05
8.98102e-05
0.000119276
5.38828e-05
0.000168857
1.10286e-05
0.000229176
-3.74899e-05
0.000300856
-9.05403e-05
0.000384396
-0.000147034
0.000480151
-0.000205849
0.000588296
-0.000265755
0.000708767
-0.000325317
0.000841138
-0.000382757
0.000984313
-0.000435688
0.00113555
-0.00048034
0.00128718
-0.000509436
-0.000509034
0.00141569
-2.63683e-07
4.3116e-05
1.81404e-06
9.55494e-05
8.45602e-06
0.000121482
2.14542e-05
0.00012616
4.23198e-05
0.000113685
7.23757e-05
8.72607e-05
0.000112811
4.93745e-05
0.00016471
1.98452e-06
0.000229052
-5.33139e-05
0.000306715
-0.000115153
0.000398466
-0.000182291
0.000504967
-0.000253535
0.000626808
-0.00032769
0.000764585
-0.000403532
0.000919058
-0.00047979
0.00109146
-0.000555161
0.00128407
-0.000628297
0.0015015
-0.000697767
0.00175461
-0.000762546
-0.000820917
0.00206649
1.93471e-07
4.29225e-05
3.99279e-06
9.17501e-05
1.38822e-05
0.000111593
3.18768e-05
0.000108165
5.96945e-05
8.58672e-05
9.88496e-05
4.81056e-05
0.0001507
-2.47618e-06
0.000216462
-6.37777e-05
0.000297202
-0.000134053
0.000393818
-0.000211769
0.000507032
-0.000295505
0.000637391
-0.000383893
0.000785299
-0.000475598
0.000951092
-0.000569325
0.00113517
-0.000663866
0.00133819
-0.000758185
0.00156142
-0.000851529
0.0018072
-0.000943544
0.00207899
-0.00103433
-0.00111683
0.0023749
7.37335e-07
4.21852e-05
6.54787e-06
8.59396e-05
2.01965e-05
9.79438e-05
4.39343e-05
8.44274e-05
7.96876e-05
5.0114e-05
0.000129144
-1.35094e-06
0.000193783
-6.71153e-05
0.000274867
-0.000144861
0.000373409
-0.000232595
0.000490138
-0.000328499
0.000625474
-0.00043084
0.000779513
-0.000537933
0.000952057
-0.000648141
0.00114265
-0.00075992
0.00135067
-0.000871881
0.00157537
-0.000982891
0.00181601
-0.00109216
0.00207179
-0.00119933
0.00234165
-0.00130419
-0.00139825
0.00262306
1.39514e-06
4.079e-05
9.56645e-06
7.77683e-05
2.75667e-05
7.99435e-05
5.78831e-05
5.41111e-05
0.000102633
5.36375e-06
0.000163633
-6.23504e-05
0.000242395
-0.000145878
0.000340092
-0.000242558
0.000457494
-0.000349998
0.000594919
-0.000465924
0.000752194
-0.000588115
0.000928654
-0.000714393
0.00112317
-0.000842659
0.00133422
-0.000970963
0.00155992
-0.00109759
0.00179816
-0.00122113
0.00204656
-0.00134056
0.00230249
-0.00145525
0.0025631
-0.0015648
-0.00166174
0.00282659
2.19594e-06
3.85941e-05
1.31383e-05
6.6826e-05
3.61582e-05
5.69236e-05
7.39605e-05
1.63087e-05
0.000128811
-4.94865e-05
0.000202568
-0.000136107
0.000296643
-0.000239953
0.000411927
-0.000357841
0.000548704
-0.000486775
0.000706599
-0.000623819
0.000884559
-0.000766076
0.00108089
-0.000910723
0.00129333
-0.0010551
0.00151917
-0.00119681
0.0017554
-0.00133381
0.00199876
-0.00146449
0.00224591
-0.00158771
0.0024934
-0.00170275
0.00273789
-0.0018093
-0.00190182
0.00297798
3.16723e-06
3.54269e-05
1.73442e-05
5.2649e-05
4.61097e-05
2.81581e-05
9.23414e-05
-2.9923e-05
0.000158372
-0.000115517
0.000245971
-0.000223707
0.000356257
-0.000350238
0.000489587
-0.000491172
0.000645477
-0.000642665
0.000822569
-0.000800911
0.00101868
-0.000962182
0.0012309
-0.00112294
0.00145579
-0.00128
0.00168959
-0.00143061
0.00192838
-0.0015726
0.0021683
-0.00170441
0.00240568
-0.00182508
0.00263711
-0.00193418
0.00285963
-0.00203181
-0.00211453
0.00307234
4.33192e-06
3.1095e-05
2.22459e-05
3.4735e-05
5.75105e-05
-7.10645e-06
0.000113098
-8.55101e-05
0.00019128
-0.0001937
0.00029355
-0.000325976
0.000420478
-0.000477167
0.0005716
-0.000642293
0.000745359
-0.000816424
0.000939161
-0.000994712
0.00114952
-0.00117254
0.00137232
-0.00134574
0.00160307
-0.00151075
0.00183724
-0.00166478
0.0020705
-0.00180586
0.00229894
-0.00193286
0.00251922
-0.00204536
0.00272862
-0.00214358
0.00292509
-0.00222829
-0.00229791
0.00310847
5.70618e-06
2.53888e-05
2.78777e-05
1.25635e-05
7.03831e-05
-4.96118e-05
0.000136167
-0.000151294
0.000227264
-0.000284797
0.000344637
-0.000443349
0.000488014
-0.000620544
0.000655793
-0.000810072
0.000845082
-0.00100571
0.00105188
-0.00120151
0.00127141
-0.00139207
0.00149849
-0.00157282
0.00172793
-0.00174019
0.00195493
-0.00189178
0.00217531
-0.00202624
0.00238569
-0.00214324
0.00258358
-0.00224325
0.00276737
-0.00232737
0.00293623
-0.00239714
-0.00245254
0.00309086
7.29822e-06
1.80906e-05
3.42413e-05
-1.43795e-05
8.46714e-05
-0.000100042
0.000161337
-0.00022796
0.000265795
-0.000389255
0.000398183
-0.000575737
0.00055706
-0.00077942
0.0007394
-0.000992413
0.000940796
-0.00120711
0.00115584
-0.00141656
0.00137864
-0.00161487
0.00160332
-0.0017975
0.00182452
-0.00196139
0.00203772
-0.00210497
0.00223944
-0.00222795
0.00242731
-0.00233111
0.00260002
-0.00241597
0.00275721
-0.00248456
0.00289923
-0.00253916
-0.00258092
0.00302761
9.10777e-06
8.9828e-06
4.13035e-05
-4.65752e-05
0.000100235
-0.000158974
0.000188235
-0.00031596
0.00030609
-0.00050711
0.000452783
-0.00072243
0.00062539
-0.000952028
0.000819257
-0.00118628
0.00102843
-0.00141629
0.00124629
-0.00163442
0.00146621
-0.00183479
0.00168217
-0.00201345
0.00188917
-0.0021684
0.00208355
-0.00229935
0.00226293
-0.00240734
0.00242623
-0.0024944
0.00257339
-0.00256312
0.00270516
-0.00261633
0.00282287
-0.00265687
-0.00268666
0.00292861
1.1126e-05
-2.14317e-06
4.8995e-05
-8.44443e-05
0.00011685
-0.000226829
0.000216332
-0.000415442
0.000347133
-0.000637911
0.000506742
-0.000882039
0.00069051
-0.00113579
0.000892082
-0.00138785
0.00110413
-0.00162833
0.00131919
-0.00184948
0.00153045
-0.00204605
0.00173232
-0.00221532
0.00192074
-0.00235682
0.00209324
-0.00247184
0.0022488
-0.0025629
0.0023876
-0.00263321
0.0025107
-0.00268622
0.00261969
-0.00272533
0.00271649
-0.00275368
-0.00277363
0.00280346
1.33353e-05
-1.54784e-05
5.72106e-05
-0.00012832
0.000134207
-0.000303825
0.000244962
-0.000526196
0.000387721
-0.000780671
0.000558189
-0.00105251
0.000749857
-0.00132746
0.000954788
-0.00159278
0.00116463
-0.00183817
0.00137162
-0.00205647
0.00156936
-0.00224379
0.00175322
-0.00239918
0.00192044
-0.00252404
0.00206996
-0.00262136
0.00220206
-0.00269501
0.00231801
-0.00274916
0.00241967
-0.00278787
0.00250916
-0.00281481
0.00258862
-0.00283314
-0.00284538
0.00266038
1.57091e-05
-3.11875e-05
6.58098e-05
-0.00017842
0.000151925
-0.00038994
0.000273341
-0.000647612
0.000426527
-0.000933857
0.000605199
-0.00123118
0.000801023
-0.00152329
0.00100478
-0.00179654
0.00120761
-0.00204101
0.00140206
-0.00225093
0.00158269
-0.00242442
0.00174621
-0.0025627
0.00189133
-0.00266916
0.00201834
-0.00274837
0.00212865
-0.00280531
0.00222429
-0.00284481
0.00230759
-0.00287117
0.00238086
-0.00288807
0.00244621
-0.0028985
-0.00290491
0.00250574
1.82117e-05
-4.93992e-05
7.46186e-05
-0.000234827
0.000169555
-0.000484877
0.000300605
-0.000778663
0.000462187
-0.00109544
0.000645954
-0.00141495
0.000841963
-0.0017193
0.00104018
-0.00199476
0.00123185
-0.00223268
0.00141039
-0.00242947
0.0015717
-0.00258573
0.00171404
-0.00270504
0.00183753
-0.00279265
0.00194362
-0.00285446
0.00203451
-0.0028962
0.00211269
-0.00292299
0.00218064
-0.00293912
0.0022406
-0.00294803
0.00229451
-0.00295241
-0.0029545
0.0023441
2.07984e-05
-7.01976e-05
8.34337e-05
-0.000297463
0.000186603
-0.000588046
0.000325861
-0.000917921
0.00049339
-0.00126297
0.000678879
-0.00160043
0.000871163
-0.00191158
0.00105997
-0.00218356
0.00123724
-0.00240994
0.00139768
-0.00258991
0.00153879
-0.00272683
0.0016603
-0.00282655
0.00176358
-0.00289594
0.00185093
-0.0029418
0.001925
-0.00297027
0.00198846
-0.00298645
0.0020437
-0.00299436
0.00209274
-0.00299708
0.00213725
-0.00299692
-0.00299584
0.00217859
2.34156e-05
-9.36132e-05
9.20288e-05
-0.000366076
0.000202551
-0.000698568
0.000348234
-0.0010636
0.000518978
-0.00143371
0.000702769
-0.00178423
0.000887739
-0.00209655
0.00106398
-0.00235981
0.00122461
-0.00257056
0.00136591
-0.00273122
0.00148697
-0.00284789
0.00158886
-0.00292844
0.00167388
-0.00298095
0.00174484
-0.00301276
0.00180459
-0.00303003
0.00185572
-0.00303758
0.00190039
-0.00303903
0.00194035
-0.00303704
0.00197695
-0.00303351
-0.00303011
0.00201122
2.60029e-05
-0.000119616
0.000100163
-0.000440236
0.000216883
-0.000815288
0.000366929
-0.00121365
0.00053802
-0.0016048
0.000716855
-0.00196306
0.000891447
-0.00227114
0.0010528
-0.00252116
0.00119552
-0.00271329
0.0013176
-0.00285329
0.00141954
-0.00294983
0.00150348
-0.00301239
0.00157235
-0.00304982
0.00162919
-0.0030696
0.0016768
-0.00307764
0.00171756
-0.00307833
0.00175333
-0.00307481
0.00178555
-0.00306926
0.00181528
-0.00306324
-0.00305811
0.00184328
2.84946e-05
-0.000148111
0.000107594
-0.000519336
0.000229119
-0.000936812
0.000381281
-0.00136581
0.000549877
-0.0017734
0.000720835
-0.00213402
0.000882625
-0.00243293
0.00102758
-0.00266611
0.00115201
-0.00283772
0.00125545
-0.00295674
0.00133967
-0.00303405
0.00140754
-0.00308027
0.00146231
-0.00310459
0.00150703
-0.00311432
0.00154431
-0.00311492
0.00157621
-0.00311023
0.0016043
-0.0031029
0.00162973
-0.00309468
0.00165329
-0.0030868
-0.00308036
0.00167554
3.08226e-05
-0.000178933
0.000114088
-0.000602601
0.000238835
-0.00106156
0.000390791
-0.00151777
0.000554216
-0.00193682
0.000714836
-0.00229464
0.000862081
-0.00258018
0.000989891
-0.00279392
0.00109627
-0.00294409
0.00118217
-0.00304264
0.00125026
-0.00310214
0.00130391
-0.00313391
0.00134643
-0.00314711
0.00138071
-0.00314861
0.00140907
-0.00314328
0.00143326
-0.00313442
0.00145454
-0.00312418
0.0014738
-0.00311394
0.00149166
-0.00310466
-0.00309719
0.0015085
3.29191e-05
-0.000211853
0.00011943
-0.000689112
0.000245694
-0.00118782
0.000395152
-0.00166723
0.000551014
-0.00209268
0.000699353
-0.00244298
0.000830953
-0.00271178
0.000941486
-0.00290446
0.00103054
-0.00303314
0.00110021
-0.00311231
0.00115383
-0.00315576
0.00119495
-0.00317503
0.00122679
-0.00317895
0.00125197
-0.00317379
0.0012725
-0.00316381
0.00128979
-0.00315172
0.00130486
-0.00313924
0.00131838
-0.00312747
0.00133082
-0.0031171
-0.00310881
0.00134244
3.47239e-05
-0.000246576
0.000123449
-0.000777837
0.000249469
-0.00131384
0.000394266
-0.00181202
0.00054053
-0.00223895
0.000675176
-0.00257762
0.000790597
-0.0028272
0.000884189
-0.00299805
0.000956927
-0.00310588
0.00101179
-0.00316718
0.00105248
-0.00319644
0.00108254
-0.00320509
0.00110498
-0.00320139
0.00112211
-0.00319092
0.00113558
-0.00317728
0.00114655
-0.00316269
0.00115581
-0.00314849
0.00116386
-0.00313553
0.00117106
-0.0031243
-0.00311533
0.00117759
3.61732e-05
-0.00028275
0.00012599
-0.000867653
0.000250011
-0.00143786
0.000388178
-0.00195019
0.000523201
-0.00237397
0.000643229
-0.00269765
0.000742395
-0.00292637
0.000819706
-0.00307536
0.000877286
-0.00316346
0.000918721
-0.00320861
0.000947857
-0.00322558
0.000968106
-0.00322534
0.000982168
-0.00321545
0.000992014
-0.00320076
0.000999003
-0.00318427
0.00100405
-0.00316773
0.00100775
-0.0031522
0.0010105
-0.00313828
0.00101257
-0.00312636
-0.00311683
0.00101406
3.72217e-05
-0.000319971
0.000126964
-0.000957395
0.000247303
-0.0015582
0.000377126
-0.00208001
0.000499663
-0.00249651
0.000604581
-0.00280257
0.000687762
-0.00300955
0.00074965
-0.00313725
0.00079326
-0.00320707
0.000822544
-0.0032379
0.00084132
-0.00324436
0.000852755
-0.00323678
0.000859218
-0.00322191
0.000862355
-0.0032039
0.000863258
-0.00318517
0.000862636
-0.00316711
0.000860952
-0.00315051
0.000858509
-0.00313584
0.000855497
-0.00312335
-0.00311333
0.000852001
3.78312e-05
-0.000357803
0.000126323
-0.00104589
0.000241416
-0.0016733
0.000361463
-0.00220006
0.000470641
-0.00260569
0.000560307
-0.00289223
0.00062802
-0.00307726
0.000675439
-0.00318467
0.000706226
-0.00323786
0.000724491
-0.00325616
0.000733899
-0.00325376
0.000737312
-0.00324019
0.000736763
-0.00322136
0.000733603
-0.00320074
0.000728693
-0.00318026
0.000722579
-0.00316099
0.000715613
-0.00314354
0.000708031
-0.00312826
0.000699978
-0.0031153
-0.00310487
0.000691515
3.79756e-05
-0.000395778
0.000124066
-0.00113198
0.000232507
-0.00178174
0.000341631
-0.00230918
0.000436907
-0.00270096
0.000511456
-0.00296678
0.00056437
-0.00313017
0.000598296
-0.00321859
0.000617315
-0.00325688
0.000625537
-0.00326438
0.000626383
-0.00325461
0.000622387
-0.0032362
0.00061526
-0.00321424
0.000606094
-0.00319158
0.000595557
-0.00316972
0.000584062
-0.0031495
0.00057188
-0.00313136
0.000559195
-0.00311557
0.000546122
-0.00310223
-0.00309145
0.000532709
3.76407e-05
-0.000433419
0.000120231
-0.00121457
0.000220794
-0.0018823
0.000318125
-0.00240652
0.000399239
-0.00278208
0.000459005
-0.00302655
0.000497875
-0.00316904
0.000519252
-0.00323997
0.000527447
-0.00326507
0.000526443
-0.00326338
0.000519371
-0.00324754
0.00050843
-0.00322525
0.000495042
-0.00320085
0.000480073
-0.00317661
0.000464033
-0.00315368
0.000447231
-0.0031327
0.000429874
-0.00311401
0.000412108
-0.00309781
0.000394029
-0.00308415
-0.0030731
0.000375679
3.68242e-05
-0.000470243
0.000114894
-0.00129264
0.000206547
-0.00197395
0.000291469
-0.00249144
0.000358388
-0.002849
0.000403848
-0.00307201
0.000429454
-0.00319465
0.000439163
-0.00324968
0.000437354
-0.00326326
0.0004278
-0.00325382
0.000413311
-0.00323305
0.000395772
-0.00320772
0.000376349
-0.00318143
0.000355717
-0.00315597
0.000334258
-0.00313222
0.000312199
-0.00311064
0.000289693
-0.0030915
0.000266861
-0.00307497
0.000243788
-0.00306108
-0.00304983
0.000220515
3.55348e-05
-0.000505778
0.000108161
-0.00136526
0.000190065
-0.00205586
0.000262188
-0.00256356
0.000315059
-0.00290187
0.000346773
-0.00310372
0.000359892
-0.00320777
0.000358731
-0.00324852
0.000347618
-0.00325215
0.000330059
-0.00323626
0.000308541
-0.00321153
0.00028466
-0.00318383
0.00025936
-0.00315613
0.000233161
-0.00312977
0.000206339
-0.0031054
0.000179055
-0.00308335
0.00015142
-0.00306387
0.000123534
-0.00304709
9.54782e-05
-0.00303302
-0.00302165
6.72986e-05
3.37914e-05
-0.000539569
0.00010016
-0.00143163
0.000171662
-0.00212736
0.000230792
-0.00262269
0.000269897
-0.00294097
0.000288475
-0.0031223
0.000289845
-0.00320914
0.000278527
-0.0032372
0.0002587
-0.00323232
0.000233571
-0.00321114
0.000205317
-0.00318328
0.000175277
-0.00315379
0.000144207
-0.00312506
0.000112503
-0.00309807
8.03567e-05
-0.00307326
4.78708e-05
-0.00305087
1.51226e-05
-0.00303112
-1.78069e-05
-0.00301416
-5.08336e-05
-0.00299999
-0.00298859
-8.38999e-05
3.16208e-05
-0.00057119
9.10346e-05
-0.00149105
0.000151657
-0.00218798
0.000197762
-0.0026688
0.000223482
-0.00296669
0.00022955
-0.00312837
0.000219864
-0.00319945
0.000199013
-0.00321635
0.000170962
-0.00320427
0.000138608
-0.00317878
0.000103837
-0.00314851
6.77628e-05
-0.00311772
3.09921e-05
-0.00308829
-6.18055e-06
-0.0030609
-4.36293e-05
-0.00303581
-8.1301e-05
-0.0030132
-0.000119152
-0.00299327
-0.000157115
-0.0029762
-0.000195099
-0.00296201
-0.00295065
-0.00023303
2.90575e-05
-0.000600248
8.09371e-05
-0.00154293
0.000130363
-0.00223741
0.000163546
-0.00270198
0.000176329
-0.00297948
0.000170512
-0.00312255
0.000150407
-0.00317935
0.000120567
-0.00318651
8.46992e-05
-0.0031684
4.53899e-05
-0.00313947
4.25856e-06
-0.00310737
-3.77679e-05
-0.00307569
-8.02051e-05
-0.00304585
-0.000122833
-0.00301827
-0.000165578
-0.00299306
-0.00020843
-0.00297034
-0.000251379
-0.00295032
-0.000294374
-0.0029332
-0.000337311
-0.00291907
-0.00290788
-0.00038009
2.6141e-05
-0.000626389
7.00256e-05
-0.00158681
0.000108081
-0.00227546
0.000128553
-0.00272245
0.000128893
-0.00297982
0.0001118
-0.00310546
8.1858e-05
-0.00314941
4.35035e-05
-0.00314816
1.55256e-07
-0.00312506
-4.58992e-05
-0.00309342
-9.32786e-05
-0.00306
-0.000141214
-0.00302776
-0.000189313
-0.00299775
-0.000237408
-0.00297018
-0.000285463
-0.00294501
-0.000333507
-0.0029223
-0.000381567
-0.00290226
-0.000429612
-0.00288516
-0.000477524
-0.00287116
-0.00286024
-0.000525164
2.29156e-05
-0.000649304
5.84586e-05
-0.00162235
8.50957e-05
-0.0023021
9.31537e-05
-0.00273051
8.15732e-05
-0.00296824
5.37906e-05
-0.00307768
1.4545e-05
-0.00311016
-3.19103e-05
-0.0031017
-8.24561e-05
-0.00307451
-0.000135089
-0.00304079
-0.00018864
-0.00300644
-0.000242471
-0.00297393
-0.000296256
-0.00294397
-0.000349858
-0.00291657
-0.000403265
-0.0028916
-0.000456537
-0.00286903
-0.000509744
-0.00284905
-0.000562888
-0.00283201
-0.000615838
-0.00281821
-0.00280768
-0.000668397
1.94281e-05
-0.000668732
4.63919e-05
-0.00164932
6.16734e-05
-0.00231738
5.76838e-05
-0.00272652
3.47201e-05
-0.00294527
-3.18752e-06
-0.00303977
-5.12484e-05
-0.0030621
-0.000105436
-0.00304751
-0.000162936
-0.00301701
-0.000222011
-0.00298171
-0.000281681
-0.00294677
-0.000341416
-0.00291419
-0.000400939
-0.00288444
-0.000460123
-0.00285739
-0.000518958
-0.00283277
-0.000577524
-0.00281046
-0.00063594
-0.00279064
-0.000694255
-0.0027737
-0.000752338
-0.00276013
-0.00275012
-0.000809898
1.57275e-05
-0.00068446
3.39764e-05
-0.00166757
3.80605e-05
-0.00232146
2.24435e-05
-0.0027109
-1.13568e-05
-0.00291147
-5.88476e-05
-0.00299228
-0.000115269
-0.00300568
-0.000176852
-0.00298593
-0.000241084
-0.00295278
-0.000306477
-0.00291632
-0.000372223
-0.00288103
-0.000437887
-0.00284853
-0.000503227
-0.0028191
-0.000568109
-0.00279251
-0.0006325
-0.00276838
-0.000696475
-0.00274649
-0.000760193
-0.00272692
-0.000823768
-0.00271012
-0.000887084
-0.00269681
-0.00268749
-0.00094971
1.18634e-05
-0.000696323
2.13562e-05
-0.00167706
1.44831e-05
-0.00231459
-1.22987e-05
-0.00268412
-5.63847e-05
-0.00286739
-0.000112935
-0.00293573
-0.000177285
-0.00294133
-0.000245944
-0.00291727
-0.00031669
-0.00288203
-0.000388273
-0.00284473
-0.000460042
-0.00280926
-0.000531656
-0.00277692
-0.000602906
-0.00274785
-0.000673646
-0.00272177
-0.000743797
-0.00269822
-0.000813391
-0.00267689
-0.000882594
-0.00265771
-0.000951597
-0.00264112
-0.00102032
-0.00262809
-0.0026196
-0.00108821
7.88505e-06
-0.000704208
8.66666e-06
-0.00167784
-8.85371e-06
-0.00229707
-4.63046e-05
-0.00264667
-0.000100123
-0.00281357
-0.000165221
-0.00287063
-0.000237081
-0.00286947
-0.000312496
-0.00284185
-0.000389528
-0.002805
-0.000467147
-0.00276711
-0.000544854
-0.00273155
-0.000622408
-0.00269936
-0.00069965
-0.00267061
-0.000776435
-0.00264498
-0.000852633
-0.00262203
-0.000928202
-0.00260132
-0.00100328
-0.00258263
-0.00107815
-0.00256625
-0.00115281
-0.00255344
-0.00254553
-0.00122688
3.84055e-06
-0.000708049
-3.96701e-06
-0.00167003
-3.17662e-05
-0.00226927
-7.93651e-05
-0.00259907
-0.000142362
-0.00275057
-0.000215504
-0.00279749
-0.000294455
-0.00279052
-0.000376296
-0.00276001
-0.000459355
-0.00272194
-0.000542809
-0.00268366
-0.000626313
-0.00264805
-0.000709736
-0.00261594
-0.000793005
-0.00258734
-0.000876017
-0.00256197
-0.000958625
-0.00253942
-0.00104071
-0.00251923
-0.00112238
-0.00250097
-0.001204
-0.00248463
-0.00128579
-0.00247164
-0.00246299
-0.00136834
-2.24555e-07
-0.000707824
-1.64315e-05
-0.00165383
-5.40936e-05
-0.00223161
-0.000111301
-0.00254186
-0.000182922
-0.00267895
-0.000263607
-0.0027168
-0.000349223
-0.0027049
-0.00043713
-0.00267211
-0.000525906
-0.00263317
-0.000614919
-0.00259465
-0.000703974
-0.00255899
-0.000793079
-0.00252683
-0.000882299
-0.00249812
-0.000971663
-0.0024726
-0.00106112
-0.00244996
-0.00115055
-0.0024298
-0.00123996
-0.00241156
-0.0013297
-0.00239489
-0.00142033
-0.00238102
-0.00236876
-0.00151455
-4.26826e-06
-0.000703556
-2.86271e-05
-0.00162947
-7.56998e-05
-0.00218454
-0.000141965
-0.0024756
-0.000221658
-0.00259926
-0.000309387
-0.00262907
-0.000401229
-0.00261306
-0.000494807
-0.00257853
-0.000588918
-0.00253905
-0.000683094
-0.00250047
-0.000777272
-0.00246482
-0.000871596
-0.00243251
-0.000966311
-0.00240341
-0.00106171
-0.00237721
-0.00115805
-0.00235362
-0.00125556
-0.0023323
-0.00135433
-0.00231278
-0.00145494
-0.00229429
-0.00155959
-0.00227636
-0.00227028
-0.00165807
-8.24102e-06
-0.000695315
-4.04494e-05
-0.00159726
-9.64514e-05
-0.00212853
-0.00017122
-0.00240083
-0.000258445
-0.00251203