/*--------------------------------*- C++ -*----------------------------------*\
  =========                 |
  \\      /  F ield         | OpenFOAM: The Open Source CFD Toolbox
   \\    /   O peration     | Website:  https://openfoam.org
    \\  /    A nd           | Version:  6.0
     \\/     M anipulation  |
\*---------------------------------------------------------------------------*/
FoamFile
{
    version     2.0;
    format      ascii;
    class       volVectorField;
    location    "18.7";
    object      U;
}
// * * * * * * * * * * * * * * * * * * * * * * * * * * * * * * * * * * * * * //

dimensions      [0 1 -1 0 0 0 0];

internalField   nonuniform List<vector> 
8000
(
(-0.000519479 0.00065576 -3.60162e-21)
(-0.00281827 0.00162476 1.92519e-20)
(-0.00704935 0.0023077 -2.34163e-20)
(-0.0122349 0.00277218 1.78313e-20)
(-0.0178705 0.00306949 8.68352e-21)
(-0.0236749 0.00324102 -2.60762e-20)
(-0.0294486 0.00332157 -2.30487e-21)
(-0.0350642 0.00334008 -8.18085e-22)
(-0.0404526 0.00332048 -1.35372e-20)
(-0.0455867 0.00328246 -7.33463e-21)
(-0.05047 0.00324217 5.46931e-21)
(-0.055128 0.00321261 2.07959e-20)
(-0.0596006 0.00320405 -1.55616e-21)
(-0.0639374 0.00322427 2.22951e-21)
(-0.068193 0.00327871 -2.09513e-20)
(-0.0724267 0.00337063 1.29105e-20)
(-0.0766975 0.0035012 -1.85018e-20)
(-0.0810271 0.00367035 2.80003e-20)
(-0.0853888 0.00387763 -3.13969e-23)
(-0.0900353 0.00411678 6.05313e-21)
(-0.000611816 0.0018314 1.19609e-20)
(-0.00303861 0.00453764 -6.11289e-20)
(-0.00734437 0.00643936 -4.22224e-20)
(-0.0125642 0.00772723 -2.86735e-20)
(-0.0182014 0.00854528 -3.68884e-20)
(-0.0239801 0.00900959 8.11618e-21)
(-0.0297049 0.00921783 -4.25843e-20)
(-0.0352512 0.00925144 -9.56557e-21)
(-0.0405519 0.00917794 3.02102e-21)
(-0.0455815 0.00905325 3.18289e-20)
(-0.0503443 0.0089234 -3.47239e-20)
(-0.0548668 0.00882587 4.83045e-20)
(-0.0591898 0.00879046 -3.61756e-20)
(-0.0633639 0.00883996 -4.29035e-20)
(-0.067445 0.00899062 -5.91322e-20)
(-0.0714942 0.00925227 3.77598e-20)
(-0.0755723 0.00962875 -1.22205e-20)
(-0.0797029 0.0101203 -4.44948e-20)
(-0.0838587 0.0107261 4.20699e-20)
(-0.0882968 0.0114275 -3.12894e-20)
(-0.000793027 0.00298692 1.16936e-19)
(-0.00347205 0.00740141 6.05604e-20)
(-0.00792628 0.0105005 6.81078e-20)
(-0.0132153 0.0125945 5.66769e-21)
(-0.0188575 0.0139184 3.76438e-20)
(-0.0245873 0.0146615 4.69802e-20)
(-0.0302172 0.0149832 -8.53845e-20)
(-0.0356283 0.0150165 -4.52161e-20)
(-0.0407574 0.0148719 -5.88934e-20)
(-0.0455818 0.0146412 6.28648e-20)
(-0.0501079 0.0144004 -4.8019e-20)
(-0.0543636 0.0142118 -6.17893e-20)
(-0.0583917 0.0141252 -2.25016e-20)
(-0.0622446 0.0141796 2.13754e-20)
(-0.0659809 0.0144029 -5.94756e-21)
(-0.069665 0.0148128 8.5667e-21)
(-0.0733618 0.0154169 9.92212e-20)
(-0.0770984 0.0162168 -1.39213e-20)
(-0.0808471 0.0172121 -1.00892e-19)
(-0.0848741 0.0183712 1.33079e-19)
(-0.0010608 0.00411054 4.06932e-20)
(-0.00411384 0.0101867 -5.74692e-20)
(-0.00878986 0.0144482 -1.44165e-20)
(-0.0141835 0.0173203 2.6958e-20)
(-0.0198354 0.0191258 7.65396e-20)
(-0.0254951 0.0201249 1.67574e-19)
(-0.0309869 0.020537 1.63746e-19)
(-0.0362006 0.020545 1.36069e-20)
(-0.0410787 0.0203014 1.00418e-19)
(-0.0456027 0.0199333 1.53708e-19)
(-0.0497816 0.0195463 -1.22826e-19)
(-0.0536457 0.0192281 1.81777e-19)
(-0.0572401 0.0190498 -4.11739e-20)
(-0.0606201 0.0190677 1.03804e-20)
(-0.0638479 0.0193236 4.30006e-20)
(-0.0669929 0.0198451 5.71527e-20)
(-0.0701265 0.0206453 -8.99329e-20)
(-0.0732813 0.0217289 -7.5078e-20)
(-0.0764301 0.0230982 -1.32897e-19)
(-0.0798532 0.0247079 1.93522e-19)
(-0.00141194 0.00519206 -2.12596e-20)
(-0.00495711 0.0128672 -2.17627e-19)
(-0.00992707 0.0182436 -6.4371e-20)
(-0.0154611 0.0218556 -1.56863e-19)
(-0.0211284 0.0241098 5.92975e-20)
(-0.0266991 0.0253345 -9.35158e-20)
(-0.0320132 0.0258063 3.21661e-20)
(-0.0369719 0.025756 -1.98074e-19)
(-0.0415256 0.0253762 1.04499e-19)
(-0.0456607 0.0248282 -1.24617e-19)
(-0.0493902 0.0242472 -1.10828e-19)
(-0.0527467 0.0237463 -1.24104e-19)
(-0.055778 0.0234194 1.12655e-19)
(-0.0585427 0.0233421 -1.01159e-19)
(-0.0611079 0.023573 1.40862e-19)
(-0.0635494 0.0241524 4.07191e-20)
(-0.0659473 0.0251023 1.00804e-19)
(-0.0683424 0.0264338 4.4258e-20)
(-0.07071 0.0281543 -1.75209e-19)
(-0.0733506 0.0302045 2.8517e-19)
(-0.00184256 0.00622311 9.37382e-20)
(-0.00599297 0.0154201 7.2047e-21)
(-0.0113266 0.0218525 3.86132e-20)
(-0.0170356 0.0261569 1.34726e-19)
(-0.0227245 0.0288196 -2.06193e-20)
(-0.0281889 0.0302334 2.18781e-19)
(-0.0332888 0.0307286 9.71101e-20)
(-0.0379394 0.0305809 8.16423e-21)
(-0.0421014 0.0300209 2.49708e-19)
(-0.0457675 0.029242 8.18253e-20)
(-0.0489544 0.0284082 3.88191e-20)
(-0.0516977 0.0276585 1.23199e-19)
(-0.0540477 0.0271104 1.12933e-19)
(-0.0560667 0.0268618 2.06188e-19)
(-0.0578267 0.0269911 -1.84296e-19)
(-0.0594116 0.0275559 2.60555e-19)
(-0.0609125 0.028592 3.44835e-21)
(-0.0623815 0.0301213 -3.33109e-19)
(-0.0637998 0.0321615 4.3189e-19)
(-0.0654963 0.0346395 1.78921e-19)
(-0.00234827 0.00719716 -5.52417e-20)
(-0.00721043 0.0178266 -1.00282e-19)
(-0.0129731 0.0252455 -2.08663e-19)
(-0.0188888 0.0301869 -6.1835e-21)
(-0.0246038 0.0332123 3.56102e-20)
(-0.0299444 0.0347744 -2.6644e-19)
(-0.0347945 0.0352535 -1.97669e-19)
(-0.0390874 0.0349666 -2.82746e-20)
(-0.0427955 0.0341786 -2.50038e-19)
(-0.0459191 0.0331129 -1.73124e-19)
(-0.0484794 0.0319603 -5.0455e-20)
(-0.0505146 0.0308851 -1.6247e-19)
(-0.0520771 0.0300297 -2.64494e-21)
(-0.0532321 0.0295164 -2.15779e-19)
(-0.0540571 0.029448 9.07807e-20)
(-0.0546446 0.0299049 -1.0357e-19)
(-0.055099 0.0309431 7.9368e-20)
(-0.0554875 0.0326031 -1.00955e-19)
(-0.0558021 0.03492 -2.88657e-19)
(-0.056411 0.0378091 -8.77157e-20)
(-0.00292429 0.00810919 -2.03407e-20)
(-0.00859626 0.0200708 -2.20869e-20)
(-0.0148464 0.0283977 1.74955e-19)
(-0.0209947 0.0339142 -2.84712e-19)
(-0.0267351 0.0372523 4.17682e-20)
(-0.0319305 0.0389206 -1.64463e-19)
(-0.0364936 0.0393443 7.77146e-20)
(-0.0403786 0.0388774 3.49319e-19)
(-0.0435723 0.0378149 -2.24068e-20)
(-0.0460842 0.0364064 -2.60603e-19)
(-0.0479403 0.0348668 4.73493e-20)
(-0.049181 0.033384 9.17935e-21)
(-0.04986 0.0321253 -5.35162e-20)
(-0.0500446 0.0312395 5.40356e-21)
(-0.0498167 0.0308582 4.70155e-19)
(-0.0492776 0.0310914 -6.69413e-20)
(-0.0485471 0.0320242 -1.30611e-19)
(-0.0477111 0.0337259 -2.34397e-19)
(-0.0467797 0.0362612 2.39116e-19)
(-0.046175 0.0395387 1.03061e-19)
(-0.00356536 0.0089552 1.02673e-19)
(-0.0101345 0.0221391 -1.34337e-19)
(-0.0169203 0.0312876 1.89921e-19)
(-0.0233168 0.0373121 1.91182e-19)
(-0.0290728 0.0409111 1.76232e-19)
(-0.0340932 0.0426442 3.57354e-19)
(-0.0383241 0.0429773 2.31086e-19)
(-0.0417448 0.0422955 -4.96571e-19)
(-0.0443596 0.0409192 2.5396e-19)
(-0.0461885 0.0391192 1.99287e-19)
(-0.0472634 0.0371299 -2.83079e-21)
(-0.0476266 0.0351599 2.23092e-19)
(-0.0473321 0.0333994 1.73934e-19)
(-0.0464474 0.0320248 -9.46125e-20)
(-0.0450573 0.0311998 3.1973e-19)
(-0.0432714 0.0310716 -3.9635e-19)
(-0.0412256 0.0317652 1.58656e-19)
(-0.0390283 0.0333938 2.04066e-19)
(-0.0367164 0.036068 -4.75644e-20)
(-0.034787 0.0397009 4.09669e-19)
(-0.00426558 0.0097315 2.06362e-19)
(-0.011806 0.0240187 1.06981e-20)
(-0.019161 0.0338952 -7.40584e-20)
(-0.0258067 0.0403567 -7.82184e-20)
(-0.0315531 0.0441646 -3.62225e-19)
(-0.0363531 0.0459254 5.12978e-20)
(-0.0401916 0.0461401 1.45327e-19)
(-0.0430774 0.0452202 -6.99032e-20)
(-0.0450351 0.0435051 5.76616e-20)
(-0.0460984 0.0412808 -1.52877e-20)
(-0.0463058 0.0387954 -7.53196e-20)
(-0.0457021 0.0362726 7.15096e-20)
(-0.0443406 0.0339215 -3.10916e-19)
(-0.0422871 0.0319441 2.98058e-19)
(-0.039627 0.0305382 -2.58184e-19)
(-0.0364764 0.0298945 7.97539e-20)
(-0.0329872 0.03019 1.81493e-19)
(-0.0292931 0.0316003 -3.7749e-20)
(-0.0254675 0.0343071 -1.25622e-19)
(-0.0221118 0.0382469 -8.53353e-20)
(-0.00501815 0.010434 -2.57066e-19)
(-0.0135874 0.0256964 -1.69014e-20)
(-0.0215263 0.0362005 5.41336e-20)
(-0.0284014 0.0430248 1.39163e-19)
(-0.0340909 0.0469907 -1.9647e-19)
(-0.0386017 0.048748 -1.71441e-19)
(-0.0419629 0.0488284 4.00154e-19)
(-0.0442171 0.0476638 -2.21115e-19)
(-0.0454138 0.0456067 -1.42634e-19)
(-0.0456028 0.0429515 -2.0466e-19)
(-0.0448323 0.0399528 1.35485e-19)
(-0.0431504 0.0368414 -3.66493e-21)
(-0.0406096 0.0338384 -2.53012e-19)
(-0.0372732 0.0311656 -4.13893e-19)
(-0.0332242 0.0290527 3.15323e-19)
(-0.0285825 0.0277367 -2.5549e-19)
(-0.0235142 0.0274579 3.62248e-19)
(-0.0181798 0.0284759 -1.01466e-19)
(-0.0126985 0.0310774 2.13401e-19)
(-0.00781477 0.0352528 -7.23691e-19)
(-0.00581492 0.0110578 -5.20658e-19)
(-0.0154504 0.0271573 3.4137e-19)
(-0.0239642 0.0381816 4.64242e-20)
(-0.0310221 0.0452912 8.97976e-21)
(-0.0365775 0.049366 -2.10451e-19)
(-0.0406974 0.051096 3.09474e-19)
(-0.0434601 0.0510397 3.37796e-20)
(-0.0449469 0.0496448 -6.34588e-20)
(-0.0452362 0.0472715 -2.03685e-19)
(-0.0443982 0.0442155 2.20173e-19)
(-0.0424942 0.0407297 5.58208e-19)
(-0.0395789 0.0370432 -1.2332e-19)
(-0.0357057 0.0333781 2.78654e-19)
(-0.0309352 0.029966 -3.29155e-19)
(-0.0253468 0.0270596 -3.15604e-19)
(-0.0190611 0.0249391 1.89772e-19)
(-0.0122558 0.0239135 3.13556e-19)
(-0.00511676 0.0243478 -1.01606e-18)
(0.00218547 0.0266759 1.19295e-19)
(0.00871258 0.0309876 1.62158e-19)
(-0.00664617 0.0115967 3.85554e-19)
(-0.0173616 0.0283838 1.26819e-19)
(-0.0264122 0.039813 6.60565e-19)
(-0.033573 0.0471267 3.39871e-20)
(-0.0388792 0.0512621 -7.3459e-20)
(-0.0424633 0.052948 -3.49798e-19)
(-0.0444575 0.0527671 2.97473e-19)
(-0.0449861 0.0511795 5.33691e-19)
(-0.0441608 0.0485488 3.55568e-19)
(-0.042077 0.0451667 2.56702e-19)
(-0.0388138 0.0412774 2.21297e-19)
(-0.0344372 0.0370978 -3.97394e-19)
(-0.0290067 0.0328394 -1.24481e-19)
(-0.0225832 0.028728 -9.16708e-20)
(-0.015244 0.0250236 9.82374e-19)
(-0.00710891 0.0220355 -3.38096e-21)
(0.00163504 0.0201357 -2.44815e-19)
(0.0107814 0.0198076 -7.72381e-20)
(0.0201101 0.0216786 7.02634e-19)
(0.0284297 0.0259998 9.21981e-20)
(-0.00750039 0.0120434 -1.90152e-20)
(-0.0192813 0.0293559 -3.64695e-19)
(-0.0287968 0.0410655 -5.42515e-19)
(-0.0359408 0.0484964 -1.50947e-19)
(-0.0408369 0.0526433 8.33512e-20)
(-0.0436872 0.0542733 1.79496e-20)
(-0.0446814 0.0539922 4.75981e-19)
(-0.0439904 0.0522714 -5.90325e-19)
(-0.0417631 0.0494757 -2.24546e-19)
(-0.0381244 0.0458905 -4.52527e-19)
(-0.0331773 0.0417462 -3.85432e-19)
(-0.0270065 0.0372406 -3.41282e-19)
(-0.019685 0.0325622 8.53298e-20)
(-0.0112828 0.027914 -1.1079e-19)
(-0.00188139 0.023541 4.74682e-19)
(0.0083961 0.019755 -2.602e-19)
(0.0193531 0.0169663 -8.15513e-19)
(0.0307686 0.0157697 -1.6454e-19)
(0.042389 0.0170258 4.0246e-19)
(0.0527106 0.0212173 -3.50366e-19)
(-0.0083643 0.01239 -6.15134e-20)
(-0.0211643 0.0300517 4.46028e-19)
(-0.0310337 0.0419064 -5.68822e-19)
(-0.0379953 0.0493602 1.3148e-19)
(-0.0422665 0.0534661 -2.70797e-19)
(-0.0441221 0.0550299 6.03184e-19)
(-0.0438117 0.0546812 -4.31101e-19)
(-0.0415547 0.0529033 4.9322e-19)
(-0.0375394 0.0500637 -4.67645e-19)
(-0.0319246 0.0464421 1.99538e-19)
(-0.0248427 0.0422557 -9.68371e-20)
(-0.0164059 0.0376807 -2.43134e-19)
(-0.00671262 0.0328759 -3.00413e-19)
(0.00414443 0.0280077 2.99341e-19)
(0.0160648 0.0232812 -2.5068e-19)
(0.0289091 0.0189749 -5.48052e-19)
(0.042462 0.0154908 5.70551e-19)
(0.0564905 0.0134937 -7.27777e-19)
(0.0707436 0.0140873 3.27385e-19)
(0.0833684 0.0180465 8.19317e-21)
(-0.00922302 0.0126286 -5.57693e-19)
(-0.022959 0.0304487 -6.02105e-19)
(-0.0330272 0.0423016 6.93878e-20)
(-0.0395887 0.049675 -5.80588e-19)
(-0.0429591 0.0536812 -5.16615e-20)
(-0.043488 0.0551663 -4.27068e-19)
(-0.0414854 0.054785 -9.79738e-20)
(-0.0372191 0.0530351 -2.86339e-19)
(-0.0309177 0.0502908 2.54584e-21)
(-0.0227757 0.0468315 -1.25292e-19)
(-0.0129605 0.0428667 8.89422e-21)
(-0.00162038 0.0385569 -3.61054e-19)
(0.0111069 0.034034 3.9794e-19)
(0.0250865 0.0294238 -5.64617e-19)
(0.0401753 0.0248763 2.00029e-19)
(0.0561918 0.0206014 7.57424e-21)
(0.0728763 0.0169309 -3.185e-19)
(0.0899706 0.0145146 7.89726e-19)
(0.107281 0.0146487 -1.8856e-19)
(0.122634 0.0184079 -1.22129e-19)
(-0.0100603 0.0127524 6.26e-19)
(-0.024608 0.0305261 3.37994e-19)
(-0.0346699 0.0422186 3.14389e-19)
(-0.0405548 0.049399 4.69326e-20)
(-0.0426804 0.0532396 4.25097e-19)
(-0.0414719 0.0546286 6.12725e-19)
(-0.0372985 0.0542473 5.01674e-19)
(-0.0304749 0.0526117 4.49049e-20)
(-0.0212687 0.0501077 3.67415e-19)
(-0.00991031 0.0470228 5.67728e-19)
(0.00339485 0.0435701 -1.47278e-19)
(0.0184546 0.0399075 2.47177e-19)
(0.0350783 0.0361547 1.99597e-19)
(0.0530674 0.0324103 2.03064e-19)
(0.072205 0.0287735 1.20122e-18)
(0.0922295 0.0253719 -4.50235e-19)
(0.11279 0.0224117 -2.74773e-20)
(0.133555 0.020408 5.22125e-19)
(0.154434 0.0207122 -2.96042e-19)
(0.173098 0.0246139 1.46229e-19)
(-0.0108586 0.0127559 -5.06204e-19)
(-0.0260469 0.030266 3.24128e-20)
(-0.0358406 0.0416301 -4.05155e-19)
(-0.040706 0.0484979 -5.2734e-20)
(-0.0411672 0.0521022 2.9658e-19)
(-0.0377248 0.0533735 -8.82933e-19)
(-0.0308056 0.0530215 -6.60625e-22)
(-0.0207679 0.0515825 4.10918e-19)
(-0.00791588 0.0494601 3.86095e-19)
(0.00748488 0.046958 -1.69987e-19)
(0.0251897 0.0443059 5.60601e-20)
(0.0449573 0.0416776 1.30024e-19)
(0.0665327 0.0392055 -6.15688e-20)
(0.0896327 0.0369922 -6.90643e-19)
(0.113933 0.0351226 1.74857e-19)
(0.139043 0.0336721 4.81252e-19)
(0.164448 0.0327179 -6.85726e-19)
(0.189642 0.0325455 3.34414e-19)
(0.21463 0.0343908 8.97745e-20)
(0.237297 0.0395733 4.54231e-19)
(-0.0115986 0.0126354 -7.47154e-20)
(-0.0272025 0.0296558 -3.54638e-19)
(-0.0364008 0.0405186 1.63195e-19)
(-0.0398292 0.0469526 7.62482e-22)
(-0.0381225 0.0502506 -7.11207e-19)
(-0.0318571 0.0513849 1.10988e-19)
(-0.0215152 0.0510927 -2.10802e-20)
(-0.00749704 0.0499319 1.43588e-19)
(0.00985881 0.0483261 -6.57281e-19)
(0.0302525 0.046601 -4.60907e-20)
(0.0533997 0.0450125 -1.54447e-19)
(0.0790078 0.0437672 1.37384e-19)
(0.106753 0.0430378 4.63853e-19)
(0.136257 0.0429756 -7.17163e-20)
(0.167063 0.0437204 2.77924e-20)
(0.198593 0.0453968 1.82635e-19)
(0.230061 0.0480835 -4.51255e-20)
(0.260569 0.0519702 3.68612e-19)
(0.289957 0.0582998 -2.1387e-19)
(0.316718 0.0681361 -3.37974e-19)
(-0.0122584 0.0123889 6.93206e-20)
(-0.0279905 0.0286889 1.69246e-20)
(-0.036191 0.0388795 1.422e-19)
(-0.0376798 0.0447663 3.48276e-19)
(-0.0332086 0.0476996 1.9544e-19)
(-0.0234311 0.0486911 2.0393e-20)
(-0.00888568 0.0485032 -2.33321e-19)
(0.00998508 0.0477124 5.98087e-20)
(0.0328058 0.0467601 3.14601e-19)
(0.0592395 0.0459921 -5.33126e-19)
(0.0889596 0.0456898 4.0232e-19)
(0.121625 0.0460943 -3.03164e-19)
(0.156854 0.0474284 2.57313e-19)
(0.194205 0.049918 -5.55055e-19)
(0.233144 0.0538167 6.10772e-19)
(0.272986 0.0594224 -6.53315e-19)
(0.312762 0.067076 -1.6992e-19)
(0.351136 0.0774153 5.33673e-19)
(0.386935 0.0925111 -1.80181e-19)
(0.416825 0.112855 7.9902e-20)
(-0.0128117 0.0120151 -5.24511e-20)
(-0.0283114 0.0273649 4.95005e-19)
(-0.0350249 0.0367242 -2.07304e-21)
(-0.0339759 0.0419704 -3.07297e-19)
(-0.0260416 0.0445066 -2.06662e-19)
(-0.0119579 0.0453803 3.78619e-19)
(0.00767515 0.0453736 -1.49965e-19)
(0.0323636 0.045075 -1.8892e-20)
(0.0616827 0.0449348 3.12589e-19)
(0.0952418 0.0453061 -3.88335e-19)
(0.132655 0.046477 4.25933e-20)
(0.173519 0.0486967 -5.04964e-19)
(0.217399 0.0521999 2.65963e-19)
(0.263827 0.0572351 -7.61129e-19)
(0.312309 0.0641023 1.21277e-18)
(0.362337 0.0732028 -2.22212e-19)
(0.413423 0.0851541 2.31967e-19)
(0.465388 0.101331 -6.02278e-19)
(0.518681 0.124774 3.87685e-21)
(0.565213 0.151619 6.83611e-19)
(-0.0132259 0.0115126 -1.58879e-19)
(-0.0280469 0.0256894 1.37254e-19)
(-0.0326857 0.0340814 -5.05556e-19)
(-0.0283947 0.0386278 7.4777e-19)
(-0.0161894 0.0407781 -5.39875e-19)
(0.00310119 0.0416095 2.78703e-20)
(0.0288002 0.0419161 -5.82221e-19)
(0.0603405 0.0422884 4.16293e-19)
(0.0972167 0.0431707 -5.94694e-20)
(0.138944 0.0449022 -3.67441e-19)
(0.185026 0.0477463 -2.14461e-19)
(0.234942 0.0519134 2.2661e-19)
(0.288136 0.057579 1.49897e-19)
(0.344037 0.0649011 -6.63452e-19)
(0.402083 0.0740363 2.39502e-19)
(0.461768 0.0851521 -3.534e-19)
(0.522709 0.0984464 4.28165e-20)
(0.584859 0.114341 -3.0034e-19)
(0.649014 0.134001 1.23009e-19)
(0.707979 0.153684 -4.50439e-19)
(-0.0134593 0.0108798 4.52312e-19)
(-0.0270561 0.0236742 -2.73967e-19)
(-0.0289231 0.0309978 2.25745e-19)
(-0.0205727 0.0348347 -2.85001e-19)
(-0.00317736 0.036671 4.77705e-19)
(0.0223205 0.0376054 -8.34753e-21)
(0.0551389 0.038434 -5.81661e-20)
(0.0945965 0.0397351 -4.31324e-20)
(0.140053 0.0419286 2.65476e-19)
(0.190861 0.0453147 4.51465e-19)
(0.246338 0.0500998 -2.6668e-19)
(0.305752 0.0564155 2.59309e-19)
(0.368331 0.0643318 4.73723e-19)
(0.433284 0.0738671 -3.32159e-19)
(0.499843 0.084994 -6.74808e-19)
(0.567304 0.0976354 1.23407e-18)
(0.635078 0.111648 -2.20357e-19)
(0.702771 0.126863 -7.15883e-20)
(0.770547 0.14359 7.70996e-19)
(0.833332 0.16107 -1.63301e-19)
(-0.01346 0.0101146 -7.36297e-19)
(-0.0251738 0.0213378 -4.90147e-19)
(-0.0234546 0.0275387 -1.88158e-19)
(-0.010112 0.0307201 3.63029e-19)
(0.0134969 0.0323899 -8.19619e-19)
(0.046283 0.0336573 4.24496e-19)
(0.0873116 0.0353054 5.38043e-20)
(0.135724 0.0378817 5.44227e-20)
(0.190664 0.0417574 -5.56117e-19)
(0.251233 0.0471631 -1.96395e-19)
(0.31646 0.0542137 -3.4624e-19)
(0.385309 0.0629256 3.34422e-19)
(0.456699 0.0732313 9.49296e-20)
(0.529544 0.0849899 1.85615e-20)
(0.602804 0.0979955 4.35939e-19)
(0.675527 0.111978 -4.4159e-19)
(0.746894 0.126597 -1.83207e-20)
(0.816247 0.141452 1.13091e-20)
(0.883246 0.156378 6.05455e-20)
(0.945128 0.172984 3.42058e-19)
(-0.0131643 0.00921554 2.34423e-19)
(-0.0222108 0.0187075 6.03753e-19)
(-0.0159701 0.0237895 4.84502e-19)
(0.00340687 0.0264452 -1.6702e-19)
(0.034339 0.0281829 5.80965e-19)
(0.0755381 0.0301054 -4.89501e-20)
(0.125846 0.0329616 -6.89566e-20)
(0.184135 0.0372409 4.10529e-20)
(0.249233 0.0432318 5.61753e-19)
(0.319877 0.0510574 3.30109e-19)
(0.394711 0.060701 9.64113e-20)
(0.472308 0.0720283 5.93878e-21)
(0.551229 0.0848091 -6.39667e-19)
(0.630078 0.0987366 5.5582e-19)
(0.707565 0.113447 9.53169e-20)
(0.782565 0.128532 -1.56992e-19)
(0.854144 0.14355 -6.80659e-19)
(0.92159 0.158058 -5.74401e-20)
(0.984376 0.171591 2.68676e-19)
(1.04181 0.187277 -5.46618e-20)
(-0.0124969 0.00818365 -5.94765e-19)
(-0.017957 0.0158227 2.4885e-19)
(-0.00614134 0.0198583 -1.21504e-18)
(0.0204063 0.0222034 4.97681e-19)
(0.0598242 0.0243366 -3.96919e-19)
(0.11055 0.0273287 2.92637e-19)
(0.171102 0.0318627 -4.54673e-19)
(0.23997 0.0383303 4.17361e-20)
(0.31554 0.0468923 -2.34476e-20)
(0.396077 0.0575164 1.22327e-19)
(0.479754 0.0700108 1.76664e-19)
(0.564718 0.0840576 -3.33881e-19)
(0.649181 0.0992484 1.76836e-19)
(0.731502 0.115119 1.62395e-19)
(0.810262 0.13118 7.01386e-19)
(0.884318 0.146947 -3.04689e-19)
(0.952819 0.161955 -2.02349e-19)
(1.01522 0.175812 3.40229e-19)
(1.07115 0.187968 1.81314e-19)
(1.12123 0.202211 -3.41501e-19)
(-0.0113726 0.00702504 5.20916e-19)
(-0.0121872 0.0127394 5.02278e-19)
(0.00636554 0.0158801 1.4494e-19)
(0.0412874 0.0182217 6.10456e-19)
(0.0903594 0.021172 2.99936e-19)
(0.151641 0.0257319 -5.40728e-19)
(0.223201 0.0324723 8.1906e-19)
(0.303007 0.0416334 -4.03089e-19)
(0.38888 0.0531909 4.02433e-19)
(0.478523 0.0669033 5.20754e-19)
(0.569603 0.0823614 -2.97615e-19)
(0.659873 0.0990421 5.654e-20)
(0.74729 0.116362 3.15234e-19)
(0.830122 0.133728 2.22089e-19)
(0.907017 0.15058 5.11454e-19)
(0.977026 0.166423 -2.04706e-19)
(1.0396 0.180845 -2.5292e-20)
(1.09456 0.193556 3.22443e-19)
(1.14191 0.204105 -6.93776e-20)
(1.18307 0.216301 2.66428e-22)
(-0.009698 0.00575365 -2.68891e-19)
(-0.00466851 0.00953565 -9.88309e-19)
(0.0218736 0.0120213 2.32755e-19)
(0.0664032 0.0147622 -1.772e-19)
(0.126242 0.0190399 -4.09105e-19)
(0.198938 0.0257315 -2.92155e-19)
(0.281958 0.0352326 -1.80501e-19)
(0.372607 0.0475629 4.38347e-19)
(0.468037 0.0624466 -2.60339e-19)
(0.565347 0.0793807 -2.66652e-19)
(0.661743 0.0977102 -3.37254e-19)
(0.754704 0.116707 -5.56685e-20)
(0.842121 0.135646 -3.77579e-20)
(0.922399 0.15386 -7.79821e-19)
(0.994482 0.170792 3.7795e-19)
(1.05784 0.186012 -4.97066e-19)
(1.1124 0.19923 1.56002e-19)
(1.15848 0.210301 -1.1877e-18)
(1.19658 0.218985 3.58037e-19)
(1.22846 0.228716 4.52497e-19)
(-0.00737533 0.00439395 -6.75297e-20)
(0.00482884 0.00631656 4.82075e-19)
(0.0406765 0.00848363 3.09121e-20)
(0.0960292 0.0121223 7.43815e-20)
(0.16762 0.0183139 -1.51232e-19)
(0.252324 0.027739 -2.50126e-21)
(0.346845 0.0405365 -3.8965e-21)
(0.4477 0.0564247 -9.12965e-20)
(0.551318 0.0748104 3.23814e-19)
(0.654242 0.0948908 1.25186e-19)
(0.753355 0.115763 5.68397e-19)
(0.84608 0.13653 -1.5496e-19)
(0.930501 0.156387 1.08197e-19)
(1.00542 0.174679 -1.40369e-20)
(1.07029 0.190934 2.99628e-19)
(1.12518 0.204863 1.8329e-19)
(1.1706 0.216347 4.41534e-19)
(1.20736 0.225416 -7.13018e-19)
(1.23646 0.232069 8.97014e-19)
(1.25974 0.239204 -2.84156e-19)
(-0.00430576 0.00298314 -6.28265e-19)
(0.0165205 0.00321765 -1.96173e-19)
(0.0630184 0.00550612 1.53292e-19)
(0.130334 0.0106309 9.66551e-20)
(0.214453 0.0193789 9.90908e-20)
(0.311403 0.03214 1.00441e-19)
(0.416974 0.048699 -2.51427e-19)
(0.526813 0.0683893 -1.03965e-19)
(0.636664 0.0902475 3.22531e-20)
(0.742663 0.113163 -3.08045e-19)
(0.841615 0.136021 -1.39346e-19)
(0.931173 0.157831 8.42041e-19)
(1.0099 0.177801 -2.17243e-19)
(1.07722 0.195384 -2.99422e-19)
(1.13329 0.210273 -1.42055e-19)
(1.17881 0.222378 9.84093e-20)
(1.21487 0.23178 1.19946e-19)
(1.24275 0.238678 -5.74843e-19)
(1.26375 0.243287 8.31741e-19)
(1.27975 0.247955 -7.20785e-19)
(-0.000393779 0.00157258 -7.10651e-20)
(0.0305949 0.000406562 2.03522e-20)
(0.0890726 0.00336353 -2.59889e-20)
(0.169349 0.010641 3.79566e-19)
(0.266488 0.0226146 2.09377e-20)
(0.375489 0.0392689 1.39422e-19)
(0.491115 0.0599296 -2.89713e-19)
(0.608157 0.0834717 -1.05646e-20)
(0.721816 0.10854 4.02512e-19)
(0.828082 0.133751 5.61045e-20)
(0.923998 0.157861 -3.50691e-19)
(1.00777 0.179887 -3.08152e-20)
(1.07868 0.199163 -2.88088e-19)
(1.13695 0.215337 2.86881e-19)
(1.18348 0.22833 3.98361e-19)
(1.21959 0.238274 -4.39097e-20)
(1.24685 0.245447 -5.34913e-20)
(1.26683 0.250192 1.63086e-19)
(1.28104 0.252883 -5.24101e-19)
(1.29125 0.255383 4.61688e-19)
(0.00444829 0.000228368 7.14102e-20)
(0.0472006 -0.00191785 -4.60565e-19)
(0.118921 0.00236059 1.23249e-19)
(0.212947 0.0125162 -3.82439e-19)
(0.323237 0.0283734 1.31517e-19)
(0.443609 0.0493828 -4.88457e-19)
(0.567766 0.0743104 1.9705e-19)
(0.689761 0.101529 -6.27474e-20)
(0.804519 0.129316 -2.55431e-21)
(0.908229 0.156099 6.42096e-20)
(0.998525 0.180623 -2.33847e-19)
(1.07443 0.202039 -3.3387e-19)
(1.13615 0.219904 -6.84508e-20)
(1.18474 0.234131 -3.07291e-20)
(1.22177 0.244894 -7.79626e-20)
(1.2491 0.252543 -2.53941e-20)
(1.26859 0.257517 -7.60124e-20)
(1.28196 0.260265 -6.58973e-20)
(1.29077 0.261253 -1.95994e-19)
(1.29661 0.261957 3.10924e-19)
(0.0102954 -0.000968995 1.7167e-19)
(0.066432 -0.00352932 -1.90669e-19)
(0.152534 0.002822 4.10386e-19)
(0.260825 0.0166127 -1.77175e-19)
(0.383979 0.0369568 4.7355e-19)
(0.514546 0.0626384 6.77781e-21)
(0.645241 0.0917872 2.37872e-19)
(0.769629 0.122276 -6.37505e-20)
(0.882722 0.152097 2.659e-19)
(0.9813 0.179615 1.92085e-20)
(1.0639 0.203704 6.3302e-19)
(1.13058 0.223766 -4.36932e-19)
(1.18249 0.239661 5.88905e-20)
(1.22147 0.251592 1.12356e-19)
(1.24966 0.259984 5.88179e-19)
(1.26925 0.265368 -2.1132e-19)
(1.28222 0.268299 -4.18802e-20)
(1.29033 0.26928 -2.21781e-19)
(1.29501 0.268821 -2.33309e-20)
(1.29769 0.268091 1.10949e-19)
(0.017205 -0.00192586 -8.23666e-20)
(0.0883175 -0.00418052 2.37986e-19)
(0.189757 0.00507877 -2.43745e-19)
(0.312493 0.0232582 9.62391e-20)
(0.447781 0.0485915 -1.15139e-19)
(0.586906 0.0790772 4.22556e-19)
(0.721798 0.112175 -5.88917e-20)
(0.845902 0.145322 1.44997e-19)
(0.954746 0.176356 -8.5412e-20)
(1.04607 0.203739 -2.26502e-21)
(1.11954 0.226612 9.75292e-20)
(1.17633 0.244721 -7.55751e-20)
(1.21848 0.258265 1.96018e-19)
(1.24848 0.267738 -9.77269e-20)
(1.26885 0.273773 -4.30189e-19)
(1.28191 0.277035 4.27672e-19)
(1.28966 0.278142 -1.92652e-19)
(1.29371 0.27761 1.53838e-19)
(1.29537 0.275953 2.66678e-19)
(1.29583 0.274105 1.09556e-19)
(0.0252113 -0.00253757 2.04976e-19)
(0.112808 -0.00361187 -4.22424e-19)
(0.230301 0.00945185 8.08142e-20)
(0.367287 0.0327309 -5.86476e-20)
(0.513539 0.0634114 -2.36643e-19)
(0.659203 0.0986217 -1.85739e-19)
(0.795764 0.13518 -3.65246e-20)
(0.916999 0.170213 -3.31172e-19)
(1.01938 0.201579 -2.01882e-20)
(1.10189 0.228001 -6.15441e-20)
(1.16547 0.249001 -1.67058e-19)
(1.21233 0.264724 -3.71233e-20)
(1.24529 0.275711 -1.27856e-19)
(1.26728 0.282708 -2.13362e-19)
(1.28101 0.286508 2.18476e-19)
(1.28879 0.287852 3.00917e-20)
(1.29248 0.287374 5.99675e-20)
(1.29351 0.285568 -2.51624e-19)
(1.29301 0.282931 -6.30477e-21)
(1.29195 0.280211 -3.88137e-19)
(0.0343217 -0.00269153 2.24649e-19)
(0.139771 -0.00156229 1.49863e-19)
(0.273741 0.0162345 -2.41708e-19)
(0.424385 0.0452396 3.77448e-19)
(0.580032 0.0814466 -4.07137e-20)
(0.729956 0.121085 1.41029e-19)
(0.865647 0.16043 4.88363e-20)
(0.981701 0.19648 1.73021e-19)
(1.0759 0.227307 -1.35486e-19)
(1.14865 0.25204 4.51611e-20)
(1.20217 0.270663 -4.33439e-20)
(1.23957 0.283731 -1.90608e-20)
(1.26424 0.292099 3.62602e-20)
(1.27935 0.296709 -6.6807e-20)
(1.28763 0.298454 -2.0526e-20)
(1.29126 0.298101 -6.2815e-20)
(1.29189 0.296262 -1.02093e-19)
(1.29074 0.293387 6.59186e-20)
(1.28872 0.289947 -9.04278e-20)
(1.28665 0.286536 3.90773e-19)
(0.0445118 -0.00227108 -1.12158e-19)
(0.168981 0.00221877 -3.1781e-19)
(0.319524 0.0256748 -4.23148e-20)
(0.482846 0.0609091 -1.15401e-20)
(0.645997 0.102622 -1.42422e-19)
(0.797782 0.146187 -2.3388e-19)
(0.930221 0.18751 7.65622e-20)
(1.03919 0.223678 -1.05209e-19)
(1.12403 0.25316 -1.17895e-19)
(1.18666 0.275609 6.56871e-20)
(1.23042 0.291506 -4.96416e-20)
(1.25916 0.301794 -1.00459e-19)
(1.27661 0.307586 -3.39097e-21)
(1.28601 0.30996 6.80471e-20)
(1.28995 0.309852 -6.94278e-20)
(1.2904 0.308013 9.63412e-20)
(1.28878 0.305006 2.59208e-20)
(1.28608 0.301223 6.53103e-20)
(1.28304 0.297113 1.27294e-19)
(1.2803 0.293131 -1.09044e-19)
(0.055723 -0.00115999 1.07121e-19)
(0.200129 0.00795864 -9.43785e-21)
(0.366987 0.0379607 4.81018e-20)
(0.541649 0.0797714 -6.52638e-20)
(0.710193 0.126765 5.38298e-21)
(0.861469 0.173586 2.26549e-19)
(0.988566 0.215997 -1.4882e-19)
(1.08901 0.251408 6.30602e-20)
(1.16388 0.278848 5.56162e-20)
(1.21649 0.298561 -1.56301e-19)
(1.25116 0.311522 1.46905e-19)
(1.27223 0.319015 1.3058e-21)
(1.28358 0.322345 -1.03553e-19)
(1.28835 0.322663 1.24825e-19)
(1.28892 0.320898 -4.95519e-20)
(1.287 0.317757 3.78934e-20)
(1.28376 0.313734 -4.23781e-20)
(1.28 0.309166 -1.69564e-20)
(1.27628 0.30448 -1.4841e-19)
(1.2731 0.300001 4.54671e-20)
(0.0678613 0.000752431 -3.61004e-20)
(0.232819 0.0158491 9.69261e-20)
(0.415377 0.053207 1.51199e-20)
(0.599744 0.101763 6.34093e-20)
(0.771467 0.153617 3.0268e-20)
(0.920023 0.202895 1.41895e-20)
(1.04007 0.245484 8.04403e-20)
(1.13106 0.279335 -9.75755e-21)
(1.1958 0.304159 3.54836e-20)
(1.23888 0.320822 5.7019e-20)
(1.26533 0.330755 2.75229e-20)
(1.27981 0.335517 1.97641e-20)
(1.28614 0.336535 8.01546e-20)
(1.28726 0.334978 -7.75948e-20)
(1.28528 0.331734 1.66573e-20)
(1.28162 0.327439 -1.56078e-20)
(1.27724 0.322518 2.41394e-20)
(1.27277 0.317251 2.02292e-20)
(1.26862 0.312051 4.22563e-20)
(1.26517 0.307113 1.77057e-21)
(0.0807975 0.00356614 2.14025e-20)
(0.266585 0.0260352 1.95504e-20)
(0.463886 0.0714475 -2.70706e-20)
(0.656101 0.126729 1.69168e-20)
(0.828802 0.182858 9.56111e-21)
(0.972691 0.233713 -2.9745e-20)
(1.08441 0.275593 9.8176e-21)
(1.16546 0.30718 1.7728e-21)
(1.22032 0.328947 1.69376e-20)
(1.25461 0.342368 -4.54269e-20)
(1.27386 0.349269 -1.42613e-22)
(1.2828 0.351414 1.25972e-20)
(1.2851 0.350285 -1.00389e-20)
(1.28341 0.347023 1.01568e-20)
(1.27953 0.342448 2.65178e-20)
(1.27464 0.337116 -1.50933e-20)
(1.26949 0.33138 4.19923e-21)
(1.26456 0.325471 1.6544e-20)
(1.26016 0.319793 -2.72753e-20)
(1.25656 0.314411 1.30932e-20)
(0.0943699 0.00736524 5.96305e-20)
(0.300902 0.0386057 -3.24415e-20)
(0.51168 0.0926312 3.82101e-20)
(0.709754 0.154434 -2.84345e-20)
(0.881349 0.214114 -1.27576e-20)
(1.01895 0.265638 3.85753e-21)
(1.1215 0.305984 -1.25255e-20)
(1.19255 0.33472 4.50543e-20)
(1.23806 0.353113 -3.75268e-20)
(1.26446 0.3632 8.80757e-21)
(1.27754 0.367131 -6.5632e-21)
(1.28195 0.366798 -4.27841e-20)
(1.28109 0.363684 4.15094e-20)
(1.27728 0.358867 1.58125e-20)
(1.27203 0.35308 -1.573e-20)
(1.26631 0.346797 3.694e-20)
(1.26067 0.340302 -5.39624e-22)
(1.25547 0.333789 -3.5854e-20)
(1.25094 0.327651 2.65646e-20)
(1.24728 0.321825 8.38273e-21)
(0.108387 0.0122134 -2.08962e-20)
(0.335209 0.0535869 6.05984e-20)
(0.557936 0.116623 7.00367e-20)
(0.759834 0.184568 -3.30522e-20)
(0.928439 0.246986 5.75089e-20)
(1.05851 0.298278 9.10383e-20)
(1.15143 0.336355 -5.01646e-21)
(1.21275 0.361773 -1.56443e-20)
(1.24966 0.376584 7.72667e-20)
(1.26915 0.383326 3.76859e-20)
(1.27708 0.384392 -6.84532e-21)
(1.27786 0.381731 5.62131e-20)
(1.27458 0.376783 -6.03109e-20)
(1.26922 0.370536 9.39272e-20)
(1.26304 0.363629 -1.56716e-20)
(1.25677 0.356458 4.49268e-20)
(1.25085 0.349241 8.1086e-21)
(1.24554 0.342143 3.2168e-20)
(1.24098 0.335554 -3.06169e-20)
(1.23734 0.329274 7.38238e-21)
(0.122634 0.0181495 -3.25239e-20)
(0.368918 0.070938 7.71378e-20)
(0.601865 0.14321 5.7323e-20)
(0.805593 0.216769 -8.69145e-21)
(0.969584 0.281054 8.93765e-20)
(1.09124 0.331261 -6.67878e-20)
(1.17445 0.366437 -5.2517e-21)
(1.22656 0.388184 5.89803e-20)
(1.25574 0.399302 1.87381e-20)
(1.26931 0.402748 2.62339e-20)
(1.27303 0.401078 -3.87489e-20)
(1.27099 0.396239 1.01092e-19)
(1.26592 0.389591 1.88929e-20)
(1.2595 0.382017 -8.95873e-20)
(1.25271 0.374062 1.30974e-19)
(1.24613 0.366044 -1.54571e-19)
(1.2401 0.358128 -7.10052e-20)
(1.23478 0.350458 1.17622e-20)
(1.23027 0.343418 6.89731e-20)
(1.22671 0.336671 -1.30097e-19)
(0.136876 0.0251848 -7.31543e-20)
(0.401445 0.0905503 -1.72608e-19)
(0.642744 0.172104 -1.49287e-19)
(0.846417 0.250627 -2.03312e-19)
(1.00446 0.315895 -1.15402e-19)
(1.11718 0.364233 -2.39347e-19)
(1.19087 0.395986 3.04119e-20)
(1.23448 0.413819 -1.27217e-19)