/*--------------------------------*- C++ -*----------------------------------*\
  =========                 |
  \\      /  F ield         | OpenFOAM: The Open Source CFD Toolbox
   \\    /   O peration     | Website:  https://openfoam.org
    \\  /    A nd           | Version:  6.0
     \\/     M anipulation  |
\*---------------------------------------------------------------------------*/
FoamFile
{
    version     2.0;
    format      ascii;
    class       surfaceScalarField;
    location    "18.1";
    object      phi;
}
// * * * * * * * * * * * * * * * * * * * * * * * * * * * * * * * * * * * * * //

dimensions      [0 3 -1 0 0 0 0];

internalField   nonuniform List<scalar> 
15760
(
-3.0298e-06
3.17613e-06
-1.46325e-07
-1.06828e-05
8.00095e-06
-3.47917e-07
-2.18378e-05
1.16364e-05
-4.81481e-07
-3.55911e-05
1.43168e-05
-5.63546e-07
-5.12251e-05
1.62415e-05
-6.07455e-07
-6.8184e-05
1.75828e-05
-6.23908e-07
-8.60516e-05
1.84888e-05
-6.21294e-07
-0.000104532
1.90862e-05
-6.06041e-07
-0.000123432
1.94831e-05
-5.82959e-07
-0.000142648
1.97717e-05
-5.55551e-07
-0.000162152
2.00301e-05
-5.26311e-07
-0.000181979
2.03238e-05
-4.96962e-07
-0.000202217
2.07068e-05
-4.68659e-07
-0.000222996
2.12218e-05
-4.42149e-07
-0.00024448
2.19011e-05
-4.17891e-07
-0.00026685
2.27666e-05
-3.96119e-07
-0.000290303
2.38298e-05
-3.76888e-07
-0.000315036
2.50927e-05
-3.60131e-07
-0.00034124
2.65505e-05
-3.4573e-07
2.8198e-05
-3.33569e-07
-0.000369105
-3.00786e-06
6.18398e-06
-1.06058e-05
1.55989e-05
-2.16759e-05
2.27065e-05
-3.53145e-05
2.79555e-05
-5.0802e-05
3.1729e-05
-6.75784e-05
3.43592e-05
-8.5222e-05
3.61325e-05
-0.00010343
3.72942e-05
-0.000122002
3.80551e-05
-0.000140826
3.85954e-05
-0.000159865
3.90689e-05
-0.000179146
3.96055e-05
-0.000198752
4.03129e-05
-0.000218809
4.12779e-05
-0.000239474
4.25664e-05
-0.000260932
4.42245e-05
-0.00028338
4.62778e-05
-0.000307019
4.87322e-05
-0.000332049
5.15799e-05
5.48108e-05
-0.000358661
-2.96646e-06
9.15044e-06
-1.04593e-05
2.30917e-05
-2.13665e-05
3.36138e-05
-3.47843e-05
4.13732e-05
-4.99883e-05
4.6933e-05
-6.64112e-05
5.07821e-05
-8.36205e-05
5.33417e-05
-0.0001013
5.49739e-05
-0.000119234
5.59895e-05
-0.000137295
5.66559e-05
-0.000155428
5.72021e-05
-0.000173646
5.78234e-05
-0.000192017
5.86837e-05
-0.000210656
5.99168e-05
-0.000229716
6.1627e-05
-0.000249381
6.38893e-05
-0.000269852
6.67483e-05
-0.000291338
7.02188e-05
-0.000314052
7.42933e-05
7.89581e-05
-0.000338199
-2.90873e-06
1.20592e-05
-1.02529e-05
3.04359e-05
-2.09281e-05
4.4289e-05
-3.40299e-05
5.44749e-05
-4.88281e-05
6.17312e-05
-6.47445e-05
6.66986e-05
-8.1332e-05
6.99292e-05
-9.82555e-05
7.18974e-05
-0.000115277
7.30114e-05
-0.000132245
7.36231e-05
-0.000149079
7.40363e-05
-0.000165768
7.45123e-05
-0.000182358
7.52741e-05
-0.000198949
7.65073e-05
-0.000215683
7.83612e-05
-0.000232741
8.09472e-05
-0.00025033
8.43375e-05
-0.000268675
8.85638e-05
-0.000288007
9.36251e-05
9.95073e-05
-0.000308556
-2.83875e-06
1.48979e-05
-9.999e-06
3.75961e-05
-2.03843e-05
5.46743e-05
-3.30896e-05
6.71802e-05
-4.7378e-05
7.60197e-05
-6.26592e-05
8.19798e-05
-7.8468e-05
8.57379e-05
-9.44463e-05
8.78757e-05
-0.000110328
8.88936e-05
-0.00012593
8.92246e-05
-0.000141139
8.92452e-05
-0.00015591
8.92831e-05
-0.000170259
8.96231e-05
-0.00018426
9.05086e-05
-0.000198041
9.21419e-05
-0.000211775
9.46821e-05
-0.000225679
9.82408e-05
-0.000239994
0.000102879
-0.000254984
0.000108615
0.000115439
-0.000270916
-2.76085e-06
1.76588e-05
-9.71053e-06
4.45458e-05
-1.97598e-05
6.47236e-05
-3.20032e-05
7.94236e-05
-4.56977e-05
8.97142e-05
-6.02403e-05
9.65225e-05
-7.5147e-05
0.000100645
-9.0034e-05
0.000102763
-0.000104604
0.000103463
-0.000118634
0.000103255
-0.000131972
0.000102583
-0.000144528
0.00010184
-0.00015628
0.000101374
-0.000167264
0.000101493
-0.000177585
0.000102462
-0.000187404
0.000104501
-0.000196941
0.000107779
-0.000206466
0.000112404
-0.000216282
0.000118431
0.000125871
-0.000226714
-2.67891e-06
2.03377e-05
-9.39875e-06
5.12657e-05
-1.90756e-05
7.44005e-05
-3.08043e-05
9.11522e-05
-4.38368e-05
0.000102747
-5.75596e-05
0.000110245
-7.14707e-05
0.000114556
-8.51609e-05
0.000116453
-9.82989e-05
0.000116601
-0.000110621
0.000115577
-0.000121926
0.000113888
-0.000132074
0.000111988
-0.000140988
0.000110289
-0.000148659
0.000109164
-0.000155151
0.000108954
-0.000160606
0.000109956
-0.000165244
0.000112416
-0.00016936
0.00011652
-0.000173314
0.000122385
0.000130069
-0.000177512
-2.59555e-06
2.29332e-05
-9.07074e-06
5.77409e-05
-1.83441e-05
8.36739e-05
-2.95112e-05
0.000102319
-4.18222e-05
0.000115058
-5.46563e-05
0.000123079
-6.74974e-05
0.000127397
-7.99139e-05
0.000128869
-9.15422e-05
0.000128229
-0.000102076
0.000126111
-0.000111264
0.000123075
-0.000118905
0.000119629
-0.000124859
0.000116242
-0.000129053
0.000113359
-0.000131498
0.000111399
-0.000132297
0.000110755
-0.000131658
0.000111778
-0.000129903
0.000114764
-0.000127458
0.00011994
0.00012745
-0.000124839
-2.51157e-06
2.54448e-05
-8.72742e-06
6.39567e-05
-1.75646e-05
9.25111e-05
-2.81204e-05
0.000112875
-3.96462e-05
0.000126583
-5.15191e-05
0.000134952
-6.32154e-05
0.000139093
-7.42869e-05
0.000139941
-8.43434e-05
0.000138286
-9.30407e-05
0.000134809
-0.000100074
0.000130109
-0.000105182
0.000124736
-0.000108149
0.000119209
-0.000108825
0.000114035
-0.000107145
0.000109719
-0.000103151
0.000106761
-9.70214e-05
0.000105648
-8.90879e-05
0.000106831
-7.98523e-05
0.000110705
0.000117573
-6.99749e-05
-2.42561e-06
2.78704e-05
-8.36239e-06
6.98935e-05
-1.67211e-05
0.00010087
-2.66006e-05
0.000122755
-3.7257e-05
0.00013724
-4.80714e-05
0.000145767
-5.85197e-05
0.000149541
-6.81466e-05
0.000149568
-7.6545e-05
0.000146684
-8.33408e-05
0.000141604
-8.81853e-05
0.000134954
-9.07546e-05
0.000127305
-9.07574e-05
0.000119212
-8.79531e-05
0.000111231
-8.21797e-05
0.000103945
-7.33909e-05
9.79721e-05
-6.17005e-05
9.39577e-05
-4.74286e-05
9.25589e-05
-3.11454e-05
9.44215e-05
0.000100116
-1.36884e-05
-2.33421e-06
3.02046e-05
-7.96192e-06
7.55212e-05
-1.57813e-05
0.000108689
-2.48916e-05
0.000131865
-3.45554e-05
0.000146904
-4.41629e-05
0.000155374
-5.31977e-05
0.000158576
-6.12082e-05
0.000157578
-6.77827e-05
0.000153259
-7.2532e-05
0.000146354
-7.50767e-05
0.000137498
-7.50435e-05
0.000127272
-7.20701e-05
0.000116239
-6.58221e-05
0.000104983
-5.60254e-05
9.41488e-05
-4.25148e-05
8.44615e-05
-2.52998e-05
7.67426e-05
-4.64517e-06
7.19043e-05
1.88364e-05
7.09399e-05
7.48462e-05
4.41061e-05
-2.23227e-06
3.24369e-05
-7.50627e-06
8.07952e-05
-1.46995e-05
0.000115882
-2.29071e-05
0.000140072
-3.13974e-05
0.000155394
-3.9572e-05
0.000163549
-4.69282e-05
0.000165933
-5.30274e-05
0.000163677
-5.74677e-05
0.000157699
-5.98619e-05
0.000148748
-5.98213e-05
0.000137458
-5.69457e-05
0.000124397
-5.08218e-05
0.000110115
-4.10348e-05
9.51962e-05
-2.71978e-05
8.03117e-05
-9.00589e-06
6.62696e-05
1.36786e-05
5.40582e-05
4.07065e-05
4.48764e-05
7.14781e-05
4.01683e-05
4.15693e-05
0.000104755
-2.11391e-06
3.45508e-05
-6.97216e-06
8.56534e-05
-1.34205e-05
0.000122331
-2.05417e-05
0.000147194
-2.76044e-05
0.000162457
-3.40188e-05
0.000169963
-3.92967e-05
0.000171211
-4.30177e-05
0.000167398
-4.47999e-05
0.000159481
-4.42762e-05
0.000148224
-4.10731e-05
0.000134255
-3.47954e-05
0.000118119
-2.50157e-05
0.000100335
-1.12749e-05
8.14553e-05
6.8999e-06
6.2137e-05
2.99473e-05
4.32223e-05
5.81799e-05
2.58256e-05
9.16311e-05
1.14252e-05
0.000129806
1.9935e-06
5.81529e-08
0.000171317
-1.97354e-06
3.65243e-05
-6.33595e-06
9.00158e-05
-1.18865e-05
0.000127881
-1.76821e-05
0.000152989
-2.298e-05
0.000167755
-2.71891e-05
0.000174172
-2.98285e-05
0.00017385
-3.04924e-05
0.000168062
-2.88217e-05
0.000157811
-2.44796e-05
0.000143882
-1.71299e-05
0.000126905
-6.41783e-06
0.000107407
8.04855e-06
8.58685e-05
2.6711e-05
6.27928e-05
5.00628e-05
3.87852e-05
7.86232e-05
1.46619e-05
0.000112862
-8.41329e-06
0.00015304
-2.87525e-05
0.000198884
-4.38513e-05
-5.00517e-05
0.000248994
-1.80677e-06
3.83311e-05
-5.57661e-06
9.37857e-05
-1.00427e-05
0.000132347
-1.42175e-05
0.000157164
-1.7328e-05
0.000170865
-1.87636e-05
0.000175608
-1.80332e-05
0.000173119
-1.47301e-05
0.000164759
-8.50695e-06
0.000151588
9.45767e-07
0.000134429
1.39175e-05
0.000113933
3.06958e-05
9.06286e-05
5.15858e-05
6.49785e-05
7.69336e-05
3.74451e-05
0.000107148
8.57075e-06
0.000142711
-2.09015e-05
0.00018415
-4.98516e-05
0.000231918
-7.65208e-05
0.000286072
-9.80048e-05
-0.000109406
0.000345426
-1.61094e-06
3.99421e-05
-4.67738e-06
9.68521e-05
-7.84211e-06
0.000135512
-1.00485e-05
0.00015937
-1.04685e-05
0.000171285
-8.44556e-06
0.000173585
-3.44985e-06
0.000168124
4.95418e-06
0.000156355
1.71296e-05
0.000139412
3.33812e-05
0.000118178
5.39645e-05
9.33501e-05
7.9095e-05
6.54981e-05
0.000108959
3.5114e-05
0.000143736
2.66837e-06
0.000183627
-3.132e-05
0.000228899
-6.61738e-05
0.000279923
-0.000100875
0.000337159
-0.000133757
0.000400972
-0.000161818
-0.0001791
0.000470666
-1.38486e-06
4.13269e-05
-3.62522e-06
9.90925e-05
-5.24436e-06
0.000137131
-5.08821e-06
0.000159214
-2.24343e-06
0.00016844
4.02547e-06
0.000167316
1.4323e-05
0.000157826
2.91532e-05
0.000141525
4.89365e-05
0.000119629
7.4015e-05
9.30992e-05
0.00010465
6.27155e-05
0.000141013
2.91347e-05
0.000183182
-7.05539e-06
0.000231139
-4.52882e-05
0.000284784
-8.49648e-05
0.000343983
-0.000125373
0.000408643
-0.000165535
0.000478822
-0.000203936
0.000554823
-0.00023782
-0.000260911
0.000636634
-1.12758e-06
4.24545e-05
-2.40751e-06
0.000100372
-2.21071e-06
0.000136935
7.45302e-07
0.000156258
7.49178e-06
0.000161694
1.8879e-05
0.000155929
3.5626e-05
0.000141079
5.83497e-05
0.000118801
8.75769e-05
9.04016e-05
0.000123741
5.6935e-05
0.000167168
1.92886e-05
0.00021805
-2.17474e-05
0.000276415
-6.54203e-05
0.00034209
-0.000110963
0.00041467
-0.000157545
0.000493514
-0.000204217
0.000577784
-0.000249805
0.000666569
-0.000292722
0.000759211
-0.000330461
-0.000358174
0.000856474
-8.36502e-07
4.3291e-05
-1.00641e-06
0.000100542
1.30648e-06
0.000134622
7.54451e-06
0.00015002
1.88892e-05
0.000150349
3.63403e-05
0.000138478
6.07681e-05
0.000116651
9.29427e-05
8.66268e-05
0.000133541
4.9803e-05
0.000183141
7.3356e-06
0.000242195
-3.97655e-05
0.000311
-9.05529e-05
0.000389648
-0.000144068
0.000477956
-0.000199271
0.000575383
-0.000254972
0.000680913
-0.000309747
0.000792931
-0.000361823
0.000909088
-0.000408879
0.00102646
-0.000447837
-0.000477468
0.00114576
-5.05081e-07
4.37961e-05
6.07589e-07
9.94296e-05
5.37582e-06
0.000129853
1.54317e-05
0.000139964
3.2136e-05
0.000133645
5.66662e-05
0.000113948
9.00706e-05
8.3247e-05
0.000133295
4.34021e-05
0.00018719
-4.09162e-06
0.000252497
-5.79718e-05
0.000329835
-0.000117103
0.00041967
-0.000180388
0.000522293
-0.000246691
0.000637785
-0.000314763
0.000765966
-0.000383153
0.000906294
-0.000450075
0.00105762
-0.000513151
0.00121737
-0.000568624
0.00137855
-0.000609023
-0.00061828
0.00151936
-1.21745e-07
4.39178e-05
2.47977e-06
9.68281e-05
1.00955e-05
0.000122238
2.45731e-05
0.000125487
4.74754e-05
0.000110742
8.01742e-05
8.12488e-05
0.000123902
3.95191e-05
0.000179774
-1.24698e-05
0.000248785
-7.31026e-05
0.000331797
-0.000140984
0.000429527
-0.000214833
0.000542539
-0.0002934
0.00067127
-0.000375422
0.000816096
-0.000459589
0.000977476
-0.000544534
0.00115625
-0.000628852
0.0013542
-0.000711094
0.00157527
-0.000789701
0.00182952
-0.000863269
-0.000927949
0.00213919
3.33618e-07
4.35842e-05
4.67758e-06
9.24841e-05
1.56014e-05
0.000111314
3.51882e-05
0.0001059
6.52157e-05
8.07148e-05
0.00010725
3.92148e-05
0.000162687
-1.59178e-05
0.000232759
-8.25424e-05
0.000318519
-0.000158863
0.000420811
-0.000243276
0.000540247
-0.000334269
0.000677208
-0.000430361
0.000831862
-0.000530076
0.00100423
-0.000631961
0.00119433
-0.000734631
0.00140234
-0.000836859
0.00162893
-0.000937685
0.00187577
-0.00103654
0.00214578
-0.00113328
-0.00122019
0.00243802
8.84996e-07
4.26992e-05
7.2815e-06
8.60876e-05
2.20535e-05
9.65419e-05
4.75301e-05
8.04234e-05
8.57024e-05
4.25425e-05
0.000138307
-1.33902e-05
0.00020685
-8.446e-05
0.000292583
-0.000168275
0.000396466
-0.000262746
0.00051912
-0.00036593
0.00066079
-0.000475939
0.000821333
-0.000590904
0.00100024
-0.000708987
0.0011967
-0.000828422
0.00140967
-0.000947596
0.00163796
-0.00106515
0.00188033
-0.00118006
0.00213555
-0.00129176
0.00240216
-0.00139989
-0.00149611
0.00267808
1.56085e-06
4.11383e-05
1.03822e-05
7.72663e-05
2.96253e-05
7.72989e-05
6.18613e-05
4.81875e-05
0.000109273
-4.86881e-06
0.000173713
-7.78306e-05
0.000256698
-0.000167445
0.00035935
-0.000270928
0.000482333
-0.000385729
0.000625786
-0.000509382
0.000789288
-0.000639441
0.000971864
-0.00077348
0.00117202
-0.000909147
0.00138784
-0.00104424
0.00161706
-0.00117681
0.00185715
-0.00130524
0.00210543
-0.00142834
0.002359
-0.00154532
0.00261486
-0.00165575
-0.00175271
0.00287146
2.39027e-06
3.87481e-05
1.40691e-05
6.55874e-05
3.84797e-05
5.28882e-05
7.84114e-05
8.25579e-06
0.000136186
-6.26431e-05
0.000213678
-0.000155323
0.000312264
-0.000266031
0.000432728
-0.000391393
0.000575178
-0.000528179
0.000738981
-0.000673185
0.000922762
-0.000823222
0.00112445
-0.000975172
0.00134141
-0.0011261
0.00157053
-0.00127336
0.00180846
-0.00141474
0.00205168
-0.00154847
0.00229667
-0.00167333
0.00253995
-0.0017886
0.0027782
-0.00189401
-0.00198472
0.00301022
3.39962e-06
3.53484e-05
1.84189e-05
5.05681e-05
4.87456e-05
2.25616e-05
9.73342e-05
-4.03328e-05
0.000166554
-0.000131863
0.000258156
-0.000246925
0.000373165
-0.00038104
0.000511765
-0.000529992
0.000673208
-0.000689622
0.000855803
-0.00085578
0.00105698
-0.0010244
0.00127343
-0.00119162
0.00150134
-0.00135401
0.0017366
-0.00150863
0.00197509
-0.00165322
0.00221282
-0.00178619
0.00244611
-0.00190663
0.00267172
-0.0020142
0.00288689
-0.00210918
-0.0021888
0.00309096
4.60993e-06
3.07385e-05
2.34864e-05
3.16916e-05
6.0496e-05
-1.4448e-05
0.00011867
-9.85069e-05
0.000200286
-0.000213479
0.000306763
-0.000353402
0.00043851
-0.000512787
0.000594802
-0.000686284
0.000773739
-0.00086856
0.000972326
-0.00105437
0.00118666
-0.00123873
0.00141223
-0.00141719
0.00164424
-0.00158602
0.00187795
-0.00174234
0.00210895
-0.00188422
0.00233337
-0.00201062
0.00254805
-0.0021213
0.00275054
-0.00221669
0.00293916
-0.0022978
-0.00236362
0.00311398
6.03497e-06
2.47035e-05
2.9297e-05
8.42961e-06
7.37334e-05
-5.88845e-05
0.000142319
-0.000167093
0.000237045
-0.000308205
0.000358734
-0.000475091
0.000506867
-0.00066092
0.000679496
-0.000858913
0.000873313
-0.00106238
0.00108389
-0.00126494
0.00130603
-0.00146087
0.00153424
-0.0016454
0.00176314
-0.00181492
0.00198787
-0.00196707
0.00220432
-0.00210067
0.00240932
-0.00221562
0.0026007
-0.00231267
0.00277717
-0.00239317
0.0029383
-0.00245892
-0.00251038
0.00308505
7.6805e-06
1.7023e-05
3.58433e-05
-1.97332e-05
8.83805e-05
-0.000111422
0.000168029
-0.000246741
0.000276238
-0.000416413
0.000412924
-0.000611777
0.00057631
-0.000824305
0.000762947
-0.00104555
0.000967971
-0.0012674
0.00118555
-0.00148252
0.00140946
-0.00168478
0.00163362
-0.00186957
0.00185263
-0.00203394
0.00206208
-0.00217651
0.0022587
-0.00229729
0.00244044
-0.00239737
0.00260636
-0.00247859
0.00275644
-0.00254325
0.00289137
-0.00259386
-0.0026319
0.0030129
9.54398e-06
7.47907e-06
4.3083e-05
-5.32722e-05
0.000104276
-0.000172615
0.000195386
-0.000337851
0.00031702
-0.000538047
0.000467846
-0.000762603
0.000644522
-0.00100098
0.00084192
-0.00124295
0.00105363
-0.00147912
0.00127268
-0.00170156
0.00149221
-0.00190431
0.00170616
-0.00208352
0.00190966
-0.00223744
0.00209927
-0.00236612
0.00227295
-0.00247097
0.00242996
-0.00255438
0.00257059
-0.00261922
0.0026959
-0.00266856
0.00280746
-0.00270541
-0.00273192
0.00290748
1.16145e-05
-4.13542e-06
5.09383e-05
-9.2596e-05
0.000121175
-0.000242851
0.000223829
-0.000440506
0.000358324
-0.000672541
0.000521746
-0.000926026
0.000708964
-0.0011882
0.000913135
-0.00144712
0.00112653
-0.00169251
0.00134143
-0.00191647
0.00155097
-0.00211384
0.00174966
-0.00228221
0.00193368
-0.00242147
0.00210091
-0.00253334
0.00225067
-0.00262074
0.00238348
-0.00268719
0.00250068
-0.00273641
0.00260409
-0.00277197
0.00269576
-0.00279709
-0.00281425
0.00277809
1.38726e-05
-1.8008e-05
5.92961e-05
-0.000138019
0.000138752
-0.000322307
0.00025266
-0.000554414
0.000398907
-0.000818789
0.00057272
-0.00109984
0.000767075
-0.00138255
0.000973578
-0.00165362
0.00118358
-0.00190251
0.00138921
-0.0021221
0.00158416
-0.00230879
0.00176404
-0.00246209
0.00192642
-0.00258385
0.0020706
-0.00267752
0.00219719
-0.00274733
0.00230775
-0.00279775
0.00240431
-0.00283298
0.00248913
-0.00285679
0.00256443
-0.00287238
-0.0028823
0.00263248
1.629e-05
-3.4298e-05
6.80087e-05
-0.000189738
0.000156608
-0.000410907
0.000281073
-0.000678878
0.000437424
-0.00097514
0.000618848
-0.00128126
0.000816502
-0.00158021
0.00102079
-0.00185791
0.0012227
-0.00210441
0.00141481
-0.00231421
0.00159191
-0.00248589
0.00175103
-0.00262121
0.00189125
-0.00272407
0.00201318
-0.00279946
0.00211852
-0.00285267
0.00220948
-0.00288871
0.00228851
-0.00291201
0.00235795
-0.00292624
0.00241995
-0.00293438
-0.00293886
0.0024765
1.88292e-05
-5.31271e-05
7.68958e-05
-0.000247805
0.000174285
-0.000508296
0.00030819
-0.000812783
0.000472508
-0.00113946
0.000658343
-0.0014671
0.000855296
-0.00177716
0.00105308
-0.0020557
0.00124292
-0.00229425
0.00141841
-0.00248971
0.00157578
-0.00264325
0.00171363
-0.00275906
0.00183244
-0.00284287
0.00193392
-0.00290094
0.00202047
-0.00293921
0.00209469
-0.00296294
0.00215912
-0.00297643
0.00221597
-0.00298309
0.00226716
-0.00298557
-0.00298604
0.00231435
2.14437e-05
-7.45708e-05
8.57487e-05
-0.00031211
0.000191279
-0.000613826
0.000333115
-0.000954619
0.000502868
-0.00130921
0.000689696
-0.00165392
0.000882072
-0.00196954
0.00106961
-0.00224324
0.00124436
-0.002469
0.00140133
-0.00264668
0.00153835
-0.00278028
0.00165554
-0.00287624
0.00175453
-0.00294186
0.00183781
-0.00298422
0.00190819
-0.00300959
0.00196835
-0.0030231
0.00202069
-0.00302876
0.00206719
-0.0030296
0.00210947
-0.00302785
-0.00302539
0.00214882
2.40787e-05
-9.86495e-05
9.43372e-05
-0.000382368
0.00020707
-0.000726559
0.000354981
-0.00110253
0.000527383
-0.00148161
0.000711787
-0.00183833
0.000896083
-0.00215383
0.00107039
-0.00241754
0.00122804
-0.00262665
0.00136569
-0.00278432
0.00148275
-0.00289735
0.00158063
-0.00297412
0.00166182
-0.00302305
0.00172928
-0.00305168
0.00178591
-0.00306622
0.0018343
-0.00307149
0.00187658
-0.00307104
0.00191443
-0.00306746
0.00194916
-0.00306258
-0.00305796
0.00198174
2.66724e-05
-0.000125322
0.000102419
-0.000458115
0.000221144
-0.000845283
0.000373014
-0.0012544
0.000545177
-0.00165378
0.000723943
-0.00201709
0.000897218
-0.00232711
0.00105615
-0.00257647
0.00119566
-0.00276617
0.00131408
-0.00290274
0.00141226
-0.00299552
0.00149258
-0.00305444
0.0015581
-0.00308858
0.00161195
-0.00310554
0.00165695
-0.00311121
0.00169541
-0.00310995
0.00172917
-0.0031048
0.0017596
-0.00309789
0.00178772
-0.00309069
-0.00308448
0.00181424
2.91583e-05
-0.00015448
0.00010975
-0.000538707
0.000233027
-0.00096856
0.000386577
-0.00140795
0.000555668
-0.00182287
0.000725955
-0.00218738
0.000885926
-0.00248708
0.00102815
-0.0027187
0.00114929
-0.0028873
0.00124923
-0.00300268
0.00132999
-0.00307629
0.00139465
-0.0031191
0.00144653
-0.00314046
0.00148871
-0.00314772
0.00152377
-0.00314627
0.00155373
-0.00313991
0.0015801
-0.00313117
0.00160397
-0.00312176
0.00162612
-0.00311284
-0.00310541
0.00164704
3.14679e-05
-0.000185948
0.0001161
-0.000623339
0.000242313
-0.00109477
0.000395206
-0.00156084
0.00055859
-0.00198625
0.000718035
-0.00234683
0.000863101
-0.00263214
0.000988029
-0.00284363
0.00109117
-0.00299044
0.00117379
-0.0030853
0.00123878
-0.00314128
0.00128961
-0.00316992
0.00132964
-0.00318049
0.00136175
-0.00317983
0.00138821
-0.00317274
0.00141072
-0.00316242
0.00143049
-0.00315094
0.00144838
-0.00313964
0.00146495
-0.00312941
-0.00312103
0.00148057
3.3534e-05
-0.000219482
0.000121261
-0.000711066
0.000248679
-0.00122219
0.000398633
-0.0017108
0.000553976
-0.00214159
0.000700745
-0.0024936
0.000829936
-0.00276134
0.000937554
-0.00295125
0.00102352
-0.00307641
0.00109019
-0.00315197
0.00114104
-0.00319213
0.00117969
-0.00320858
0.00120938
-0.00321018
0.00123269
-0.00320314
0.00125156
-0.0031916
0.00126737
-0.00317823
0.00128109
-0.00316466
0.00129336
-0.00315191
0.00130461
-0.00314066
-0.00313151
0.00131509
3.52971e-05
-0.000254779
0.000125064
-0.000800833
0.000251919
-0.00134905
0.000396796
-0.00185568
0.000542137
-0.00228694
0.000674921
-0.00262638
0.000787814
-0.00287423
0.000878548
-0.00304198
0.000948395
-0.00314625
0.00100054
-0.00320411
0.00103877
-0.00323036
0.00106669
-0.0032365
0.00108725
-0.00323075
0.00110273
-0.00321862
0.00111474
-0.00320361
0.00112438
-0.00318787
0.00113239
-0.00317267
0.00113929
-0.00315881
0.00114537
-0.00314675
-0.00313696
0.00115082
3.66946e-05
-0.000291474
0.000127365
-0.000891504
0.000251902
-0.00147358
0.000389774
-0.00199355
0.000523546
-0.00242071
0.000641517
-0.00274435
0.000738123
-0.00297084
0.000812694
-0.00311655
0.000867603
-0.00320116
0.000906589
-0.0032431
0.000933556
-0.00325733
0.000951913
-0.00325485
0.000964321
-0.00324315
0.000972701
-0.003227
0.000978366
-0.00320928
0.000982187
-0.00319169
0.000984739
-0.00317522
0.0009864
-0.00316047
0.000987409
-0.00314776
-0.00313744
0.000987882
3.76829e-05
-0.000329157
0.000128083
-0.000981904
0.000248633
-0.00159413
0.000377833
-0.00212275
0.000498866
-0.00254174
0.000601612
-0.0028471
0.000682268
-0.00305149
0.00074157
-0.00317585
0.000782735
-0.00324233
0.00080982
-0.00327018
0.000826669
-0.00327418
0.000836424
-0.00326461
0.000841407
-0.00324814
0.000843217
-0.00322881
0.000842903
-0.00320896
0.000841143
-0.00318993
0.000838376
-0.00317246
0.000834893
-0.00315698
0.000830874
-0.00314374
-0.00313296
0.000826401
3.82259e-05
-0.000367383
0.000127177
-0.00107086
0.000242198
-0.00170915
0.000361346
-0.0022419
0.000468837
-0.00264923
0.000556283
-0.00293454
0.00062155
-0.00311676
0.000666554
-0.00322086
0.000695112
-0.00327089
0.000711401
-0.00328647
0.000719085
-0.00328186
0.000720989
-0.00326651
0.000719097
-0.00324625
0.000714716
-0.00322443
0.000708672
-0.00320292
0.000701484
-0.00318274
0.00069349
-0.00316446
0.000684914
-0.00314841
0.000675894
-0.00313472
-0.00312356
0.000666491
3.82992e-05
-0.000405682
0.000124654
-0.00115721
0.000232768
-0.00181727
0.000340768
-0.0023499
0.000434236
-0.0027427
0.000506567
-0.00300687
0.000557144
-0.00316734
0.000588829
-0.00325254
0.000605819
-0.00328788
0.000612257
-0.00329291
0.000611547
-0.00328115
0.000606177
-0.00326114
0.000597816
-0.00323788
0.000587512
-0.00321412
0.000575905
-0.00319131
0.000563389
-0.00317022
0.000550223
-0.0031513
0.000536582
-0.00313477
0.000522579
-0.00312071
-0.00310924
0.000508259
3.78909e-05
-0.000443573
0.000120561
-0.00123988
0.000220573
-0.00191728
0.000316605
-0.00244593
0.000395839
-0.00282193
0.000453428
-0.00306446
0.000490083
-0.00320399
0.000509388
-0.00327184
0.000515731
-0.00329422
0.000513108
-0.00329029
0.000504616
-0.00327266
0.000492411
-0.00324894
0.000477872
-0.00322335
0.000461831
-0.00319808
0.000444773
-0.00317425
0.000426994
-0.00315244
0.000408691
-0.00313299
0.000390003
-0.00311608
0.000371027
-0.00310174
-0.00309001
0.000351801
3.70006e-05
-0.000480573
0.000114977
-0.00131786
0.000205888
-0.00200819
0.000289381
-0.00252942
0.00035439
-0.00288694
0.000397737
-0.00310781
0.000421259
-0.00322751
0.000429053
-0.00327964
0.000425549
-0.00329072
0.000414512
-0.00327925
0.000398715
-0.00325686
0.000379999
-0.00323022
0.000359492
-0.00320284
0.000337841
-0.00317643
0.000315407
-0.00315182
0.000292407
-0.00312944
0.000268989
-0.00310957
0.000245267
-0.00309236
0.000221327
-0.0030778
-0.0030659
0.000197209
3.56387e-05
-0.000516212
0.000108015
-0.00139023
0.000189017
-0.00208919
0.000259621
-0.00260003
0.000310583
-0.0029379
0.000340265
-0.00313749
0.000351428
-0.00323868
0.000348496
-0.00327671
0.000335823
-0.00327804
0.000316895
-0.00326032
0.000294159
-0.00323413
0.000269171
-0.00320523
0.000242841
-0.00317651
0.000215666
-0.00314925
0.000187907
-0.00312406
0.000159715
-0.00310125
0.000131199
-0.00308106
0.000102452
-0.00306361
7.3557e-05
-0.0030489
-0.0030369
4.4561e-05
3.38253e-05
-0.000550037
9.98041e-05
-0.00145621
0.000170277
-0.00215966
0.000227829
-0.00265758
0.000265051
-0.00297513
0.000281686
-0.00315412
0.000281224
-0.00323822
0.000268262
-0.00326374
0.00024699
-0.00325677
0.000220587
-0.00323392
0.000191189
-0.00320473
0.000160099
-0.00317414
0.000128044
-0.00314445
9.54008e-05
-0.00311661
6.23499e-05
-0.00309101
2.89864e-05
-0.00306789
-4.61595e-06
-0.00304746
-3.8378e-05
-0.00302985
-7.2216e-05
-0.00301506
-0.00300304
-0.000106071
3.15888e-05
-0.000581626
9.049e-05
-0.00151511
0.000149984
-0.00221916
0.00019448
-0.00270207
0.000218359
-0.00299901
0.000222578
-0.00315834
0.000211174
-0.00322681
0.000188794
-0.00324136
0.000159396
-0.00322737
0.000125846
-0.00320037
8.99907e-05
-0.00316887
5.29131e-05
-0.00313707
1.5195e-05
-0.00310674
-2.28841e-05
-0.00307853
-6.12083e-05
-0.00305269
-9.97299e-05
-0.00302937
-0.000138408
-0.00300878
-0.000177177
-0.00299108
-0.000215946
-0.00297629
-0.00296435
-0.000254638
2.89641e-05
-0.00061059
8.02268e-05
-0.00156638
0.00012845
-0.00226738
0.000160015
-0.00273364
0.000171011
-0.00301
0.000163438
-0.00315077
0.000141721
-0.0032051
0.000110451
-0.00321009
7.33194e-05
-0.00319024
3.2879e-05
-0.00315993
-9.28632e-06
-0.00312671
-5.22776e-05
-0.00309408
-9.56299e-05
-0.00306338
-0.000139136
-0.00303503
-0.000182729
-0.00300909
-0.000226405
-0.00298569
-0.000270157
-0.00296503
-0.000313933
-0.0029473
-0.000357629
-0.0029326
-0.00292084
-0.000401143
2.59917e-05
-0.000636582
6.91722e-05
-0.00160956
0.000105972
-0.00230418
0.000124835
-0.0027525
0.000123449
-0.00300862
0.000104689
-0.00313201
7.32328e-05
-0.00317364
3.35346e-05
-0.0031704
-1.10068e-05
-0.0031457
-5.8138e-05
-0.0031128
-0.00010651
-0.00307834
-0.000155377
-0.00304521
-0.000204363
-0.0030144
-0.00025331
-0.00298608
-0.000302189
-0.00296021
-0.000351034
-0.00293685
-0.000399873
-0.00291619
-0.000448675
-0.0028985
-0.000497322
-0.00288395
-0.00287249
-0.000545673
2.27161e-05
-0.000659298
5.74839e-05
-0.00164432
8.2832e-05
-0.00232953
8.93022e-05
-0.00275897
7.60604e-05
-0.00299537
4.66979e-05
-0.00310265
6.02441e-06
-0.00313297
-4.16989e-05
-0.00312267
-9.33776e-05
-0.00309402
-0.000147042
-0.00305913
-0.00020155
-0.00302383
-0.000256284
-0.00299047
-0.000310931
-0.00295975
-0.000365363
-0.00293165
-0.000419571
-0.00290601
-0.000473621
-0.0028828
-0.000527585
-0.00286222
-0.000581464
-0.00284462
-0.000635129
-0.00283029
-0.00281924
-0.000688377
1.91842e-05
-0.000678482
4.53167e-05
-0.00167046
5.92912e-05
-0.0023435
5.37451e-05
-0.00275343
2.91868e-05
-0.00297082
-1.02197e-05
-0.00306324
-5.96302e-05
-0.00308355
-0.00011502
-0.00306728
-0.0001736
-0.00303544
-0.000233667
-0.00299907
-0.000294264
-0.00296323
-0.000354878
-0.00292986
-0.000415241
-0.00289939
-0.000475234
-0.00287165
-0.00053485
-0.00284639
-0.000594173
-0.00282347
-0.000653325
-0.00280307
-0.000712356
-0.00278559
-0.000771135
-0.00277151
-0.00276101
-0.000829363
1.54452e-05
-0.000693927
3.282e-05
-0.00168783
3.5592e-05
-0.00234628
1.8457e-05
-0.00273629
-1.68712e-05
-0.00293549
-6.57851e-05
-0.00301433
-0.000123486
-0.00302585
-0.000186213
-0.00300456
-0.00025148
-0.00297017
-0.000317831
-0.00293272
-0.000384477
-0.00289659
-0.000450998
-0.00286334
-0.000517159
-0.00283323
-0.000582831
-0.00280598
-0.000647984
-0.00278124
-0.000712697
-0.00275876
-0.000777132
-0.00273864
-0.000841405
-0.00272132
-0.000905396
-0.00270752
-0.00269773
-0.000968671
1.15483e-05
-0.000705476
2.01361e-05
-0.00169642
1.19566e-05
-0.0023381
-1.62999e-05
-0.00270803
-6.18482e-05
-0.00288994
-0.000119751
-0.00295642
-0.000185317
-0.00296029
-0.000255067
-0.0029348
-0.00032681
-0.00289843
-0.000399319
-0.00286021
-0.000471965
-0.00282394
-0.000544416
-0.00279089
-0.00061647
-0.00276117
-0.000687984
-0.00273447
-0.000758881
-0.00271034
-0.000829196
-0.00268845
-0.000899099
-0.00266873
-0.000968782
-0.00265163
-0.00103816
-0.00263814
-0.00262921
-0.00110668
7.54267e-06
-0.000713018
7.39878e-06
-0.00169628
-1.14138e-05
-0.00231928
-5.02928e-05
-0.00266916
-0.00010551
-0.00283472
-0.000171896
-0.00289004
-0.000244913
-0.00288727
-0.000321373
-0.00285834
-0.000399365
-0.00282044
-0.000477882
-0.00278169
-0.000556443
-0.00274538
-0.000634816
-0.00271252
-0.000712847
-0.00268314
-0.000790393
-0.00265692
-0.000867325
-0.00263341
-0.000943602
-0.00261217
-0.00101937
-0.00259297
-0.00109491
-0.00257609
-0.00117021
-0.00256284
-0.00255451
-0.00124491
3.47606e-06
-0.000716494
-5.26846e-06
-0.00168753
-3.43389e-05
-0.00229021
-8.33175e-05
-0.00262018
-0.000147652
-0.00277039
-0.000222021
-0.00281567
-0.000302076
-0.00280722
-0.00038492
-0.0027755
-0.000468905
-0.00273645
-0.000553231
-0.00269736
-0.000637566
-0.00266104
-0.00072179
-0.00262829
-0.000805834
-0.0025991
-0.000889597
-0.00257316
-0.00097293
-0.00255007
-0.00105572
-0.00252938
-0.00113807
-0.00251062
-0.00122036
-0.0024938
-0.00130281
-0.00248039
-0.00247132
-0.001386
-6.0636e-07
-0.000715888
-1.7754e-05
-0.00167038
-5.66614e-05
-0.00225131
-0.000115199
-0.00256164
-0.000188098
-0.00269749
-0.000269954
-0.00273381
-0.000356625
-0.00272054
-0.000445496
-0.00268663
-0.000535166
-0.00264678
-0.000625023
-0.00260751
-0.000714888
-0.00257118
-0.000804775
-0.0025384
-0.000894755
-0.00250912
-0.000984859
-0.00248305
-0.00107503
-0.0024599
-0.00116517
-0.00243924
-0.00125527
-0.00242052
-0.00134569
-0.00240339
-0.00143699
-0.00238909
-0.0023764
-0.0015319
-4.66302e-06
-0.000711225
-2.99599e-05
-0.00164509
-7.8248e-05
-0.00220302
-0.000145794
-0.00249409
-0.00022671
-0.00261657
-0.000315555
-0.00264497
-0.000408408
-0.00262769
-0.000502911
-0.00259213
-0.000597885
-0.00255181
-0.000692878
-0.00251251
-0.00078784
-0.00247622
-0.000882923
-0.00244332
-0.000978378
-0.00241366
-0.0010745
-0.00238694
-0.00117156
-0.00236284
-0.00126977
-0.00234104
-0.00136924
-0.00232105
-0.00147053
-0.00230209
-0.00157591
-0.00228371
-0.00227732
-0.00167499
-8.64468e-06
-0.00070258
-4.17831e-05
-0.00161195
-9.89678e-05
-0.00214583
-0.000174969
-0.00241809