/*--------------------------------*- C++ -*----------------------------------*\
  =========                 |
  \\      /  F ield         | OpenFOAM: The Open Source CFD Toolbox
   \\    /   O peration     | Website:  https://openfoam.org
    \\  /    A nd           | Version:  6.0
     \\/     M anipulation  |
\*---------------------------------------------------------------------------*/
FoamFile
{
    version     2.0;
    format      ascii;
    class       volVectorField;
    location    "18.1";
    object      U;
}
// * * * * * * * * * * * * * * * * * * * * * * * * * * * * * * * * * * * * * //

dimensions      [0 1 -1 0 0 0 0];

internalField   nonuniform List<vector> 
8000
(
(-0.000524452 0.000655466 -3.61989e-21)
(-0.00284355 0.00161724 1.93497e-20)
(-0.00711099 0.00228891 -2.35354e-20)
(-0.0123411 0.00274021 1.79221e-20)
(-0.0180263 0.00302377 8.7278e-21)
(-0.023884 0.00318189 -2.62093e-20)
(-0.0297145 0.00324986 -2.31666e-21)
(-0.03539 0.00325687 -8.22324e-22)
(-0.0408417 0.00322692 -1.36068e-20)
(-0.0460433 0.00317968 -7.37254e-21)
(-0.0509987 0.00313121 5.49738e-21)
(-0.0557342 0.00309441 2.09038e-20)
(-0.0602904 0.00307942 -1.56382e-21)
(-0.0647175 0.0030939 2.24154e-21)
(-0.0690707 0.00314319 -2.10616e-20)
(-0.0734098 0.00323043 1.29789e-20)
(-0.077794 0.00335668 -1.86012e-20)
(-0.0822453 0.0035218 2.81511e-20)
(-0.0867362 0.00372528 -3.15627e-23)
(-0.0915186 0.00396083 6.08798e-21)
(-0.00061733 0.00184209 1.20217e-20)
(-0.00306471 0.00455588 -6.144e-20)
(-0.00740646 0.00645663 -4.24377e-20)
(-0.0126701 0.00773899 -2.88199e-20)
(-0.0183558 0.00854952 -3.7077e-20)
(-0.0241866 0.00900599 8.15726e-21)
(-0.0299664 0.00920715 -4.28026e-20)
(-0.0355706 0.00923512 -9.61493e-21)
(-0.0409324 0.00915785 3.03605e-21)
(-0.0460266 0.00903147 3.19926e-20)
(-0.0508584 0.00890213 -3.49036e-20)
(-0.0554547 0.00880732 4.85553e-20)
(-0.0598573 0.00877676 -3.63643e-20)
(-0.0641173 0.00883316 -4.31289e-20)
(-0.0682912 0.00899254 -5.94459e-20)
(-0.0724405 0.00926452 3.79585e-20)
(-0.0766267 0.00965264 -1.22874e-20)
(-0.0808732 0.0101568 -4.4737e-20)
(-0.0851522 0.0107758 4.22991e-20)
(-0.0897202 0.0114909 -3.14684e-20)
(-0.00079967 0.00300808 1.17532e-19)
(-0.00349977 0.00744436 6.08695e-20)
(-0.00798886 0.0105524 6.84557e-20)
(-0.0133196 0.0126484 5.69676e-21)
(-0.0190075 0.0139707 3.78363e-20)
(-0.0247859 0.0147112 4.72203e-20)
(-0.0304667 0.0150309 -8.58226e-20)
(-0.035931 0.0150639 -4.54486e-20)
(-0.0411157 0.0149216 -5.91978e-20)
(-0.0459986 0.0146961 6.31891e-20)
(-0.0505866 0.0144637 -4.82677e-20)
(-0.0549083 0.014287 -6.21115e-20)
(-0.0590072 0.0142158 -2.26195e-20)
(-0.0629364 0.014289 2.14873e-20)
(-0.0667551 0.0145343 -5.98062e-21)
(-0.0705284 0.0149691 8.61076e-21)
(-0.0743216 0.0156004 9.97551e-20)
(-0.078162 0.0164291 -1.3993e-20)
(-0.0820213 0.0174547 -1.01444e-19)
(-0.0861653 0.0186448 1.33839e-19)
(-0.00106908 0.00414116 4.0902e-20)
(-0.00414389 0.0102522 -5.77621e-20)
(-0.00885299 0.014532 -1.44903e-20)
(-0.0142851 0.017413 2.70966e-20)
(-0.0199783 0.0192224 7.69324e-20)
(-0.0256813 0.0202235 1.68434e-19)
(-0.0312179 0.020638 1.64588e-19)
(-0.0364775 0.0206503 1.36777e-20)
(-0.041403 0.020414 1.00937e-19)
(-0.045976 0.0200568 1.54504e-19)
(-0.0502064 0.019685 -1.23464e-19)
(-0.0541247 0.0193866 1.82723e-19)
(-0.0577768 0.019233 -4.13922e-20)
(-0.0612188 0.0192803 1.04333e-20)
(-0.0645137 0.0195704 4.32298e-20)
(-0.0677314 0.0201302 5.74608e-20)
(-0.0709442 0.0209724 -9.04134e-20)
(-0.0741847 0.022101 -7.54845e-20)
(-0.0774253 0.0235173 -1.33626e-19)
(-0.0809464 0.0251753 1.94621e-19)
(-0.00142222 0.00523075 -2.13684e-20)
(-0.00499006 0.0129522 -2.18743e-19)
(-0.0099908 0.0183552 -6.47017e-20)
(-0.0155591 0.0219822 -1.57669e-19)
(-0.0212622 0.024245 5.96027e-20)
(-0.0268694 0.0254757 -9.39972e-20)
(-0.0322203 0.0259534 3.23329e-20)
(-0.0372157 0.0259108 -1.99097e-19)
(-0.0418062 0.025542 1.0504e-19)
(-0.0459786 0.0250092 -1.25263e-19)
(-0.0497459 0.0244485 -1.11404e-19)
(-0.0531416 0.0239736 -1.24752e-19)
(-0.0562139 0.0236786 1.13245e-19)
(-0.0590223 0.0236397 -1.01692e-19)
(-0.0616346 0.0239151 1.41606e-19)
(-0.0641275 0.0245448 4.09375e-20)
(-0.0665822 0.0255504 1.01348e-19)
(-0.0690396 0.0269419 4.45019e-20)
(-0.0714747 0.0287261 -1.76168e-19)
(-0.0741888 0.0308421 2.86784e-19)
(-0.00185507 0.00626819 9.4222e-20)
(-0.00602916 0.015521 7.24049e-21)
(-0.011391 0.0219869 3.88123e-20)
(-0.0171295 0.0263115 1.3542e-19)
(-0.0228478 0.0289868 -2.07246e-20)
(-0.0283409 0.0304094 2.1991e-19)
(-0.0334682 0.0309128 9.76128e-20)
(-0.038145 0.0307749 8.20651e-21)
(-0.0423317 0.0302279 2.51003e-19)
(-0.046021 0.0294667 8.22517e-20)
(-0.0492301 0.0286561 3.90219e-20)
(-0.0519949 0.0279361 1.23842e-19)
(-0.0543663 0.027425 1.13526e-19)
(-0.0564073 0.027221 2.07276e-19)
(-0.0581909 0.0274028 -1.85269e-19)
(-0.0598019 0.0280279 2.61947e-19)
(-0.0613327 0.0291315 3.47515e-21)
(-0.0628362 0.0307349 -3.3491e-19)
(-0.0642932 0.0328547 4.34244e-19)
(-0.0660341 0.035416 1.79928e-19)
(-0.00236308 0.00724684 -5.55265e-20)
(-0.00725002 0.0179393 -1.00802e-19)
(-0.0130382 0.0253973 -2.09741e-19)
(-0.0189784 0.030363 -6.21548e-21)
(-0.0247159 0.0334036 3.57955e-20)
(-0.0300767 0.0349765 -2.67817e-19)
(-0.0349444 0.0354648 -1.98692e-19)
(-0.0392519 0.0351882 -2.84206e-20)
(-0.0429714 0.0344135 -2.51335e-19)
(-0.0461032 0.0333656 -1.74025e-19)
(-0.0486686 0.0322366 -5.07178e-20)
(-0.050706 0.0311921 -1.63319e-19)
(-0.0522682 0.0303754 -2.65746e-21)
(-0.0534213 0.0299098 -2.16913e-19)
(-0.0542436 0.0298987 9.12629e-20)
(-0.0548288 0.0304229 -1.0412e-19)
(-0.055283 0.0315381 7.97971e-20)
(-0.0556745 0.0332842 -1.0149e-19)
(-0.0559954 0.0356957 -2.90222e-19)
(-0.0566162 0.0386857 -8.81973e-20)
(-0.00294132 0.00816171 -2.04475e-20)
(-0.0086392 0.0201912 -2.22025e-20)
(-0.0149122 0.0285613 1.75861e-19)
(-0.0210799 0.0341048 -2.86187e-19)
(-0.0268359 0.0374599 4.19844e-20)
(-0.032043 0.0391394 -1.65317e-19)
(-0.0366135 0.0395721 7.8117e-20)
(-0.0405012 0.0391144 3.51133e-19)
(-0.0436929 0.0380634 -2.25222e-20)
(-0.0461974 0.0366705 -2.6196e-19)
(-0.048041 0.035152 4.75958e-20)
(-0.0492638 0.0336976 9.22635e-21)
(-0.0499201 0.0324757 -5.3798e-20)
(-0.0500775 0.0316368 5.42923e-21)
(-0.0498188 0.0313135 4.72634e-19)
(-0.0492471 0.031617 -6.72936e-20)
(-0.0484839 0.0326326 -1.31305e-19)
(-0.0476169 0.03443 -2.35656e-19)
(-0.0466569 0.0370733 2.404e-19)
(-0.0460298 0.0404688 1.0362e-19)
(-0.00358444 0.00900893 1.03206e-19)
(-0.0101806 0.0222634 -1.35036e-19)
(-0.0169868 0.0314575 1.90908e-19)
(-0.0233979 0.0375106 1.92175e-19)
(-0.0291628 0.0411271 1.77147e-19)
(-0.0341865 0.0428709 3.59208e-19)
(-0.0384148 0.0432113 2.32286e-19)
(-0.0418268 0.042536 -4.99151e-19)
(-0.0444262 0.0411675 2.5528e-19)
(-0.0462326 0.0393783 2.00324e-19)
(-0.0472775 0.0374048 -2.84485e-21)
(-0.0476031 0.0354572 2.24255e-19)
(-0.0472632 0.0337276 1.74843e-19)
(-0.0463258 0.0323944 -9.51072e-20)
(-0.0448765 0.0316232 3.2141e-19)
(-0.0430267 0.0315632 -3.98435e-19)
(-0.0409144 0.0323409 1.59494e-19)
(-0.0386507 0.0340705 2.05154e-19)
(-0.0362742 0.0368635 -4.78259e-20)
(-0.0342874 0.0406308 4.11854e-19)
(-0.00428646 0.00978506 2.0744e-19)
(-0.0118549 0.0241436 1.07539e-20)
(-0.0192281 0.0340665 -7.44439e-20)
(-0.0258839 0.0405569 -7.86242e-20)
(-0.0316329 0.0443817 -3.64107e-19)
(-0.0364283 0.0461515 5.1565e-20)
(-0.0402549 0.0463707 1.46082e-19)
(-0.043121 0.0454531 -7.02667e-20)
(-0.0450508 0.0437402 5.79613e-20)
(-0.0460771 0.0415198 -1.53673e-20)
(-0.046238 0.039042 -7.57115e-20)
(-0.0455777 0.0365321 7.188e-20)
(-0.044149 0.0342018 -3.12536e-19)
(-0.0420182 0.0322553 2.99609e-19)
(-0.0392711 0.0308934 -2.59531e-19)
(-0.0360255 0.0303097 8.01711e-20)
(-0.0324359 0.0306845 1.82443e-19)
(-0.0286396 0.0321959 -3.79488e-20)
(-0.0247134 0.0350282 -1.26292e-19)
(-0.0212662 0.0391168 -8.57795e-20)
(-0.00504053 0.0104863 -2.58411e-19)
(-0.0136386 0.025819 -1.69878e-20)
(-0.0215939 0.036369 5.44165e-20)
(-0.028475 0.0432214 1.39888e-19)
(-0.0341612 0.0472026 -1.97492e-19)
(-0.0386601 0.0489664 -1.72332e-19)
(-0.0420006 0.0490473 4.02234e-19)
(-0.044225 0.0478797 -2.22264e-19)
(-0.045382 0.0458179 -1.43375e-19)
(-0.0455206 0.0431579 -2.05723e-19)
(-0.0446882 0.0401561 1.36188e-19)
(-0.042932 0.0370453 -3.68575e-21)
(-0.040304 0.0340488 -2.54325e-19)
(-0.0368669 0.0313915 -4.16039e-19)
(-0.0327044 0.0293067 3.16956e-19)
(-0.0279376 0.0280358 -2.56812e-19)
(-0.022736 0.027824 3.64128e-19)
(-0.0172643 0.0289362 -1.01993e-19)
(-0.0116473 0.0316642 2.1454e-19)
(-0.00664065 0.036 -7.27372e-19)
(-0.00583853 0.0111081 -5.23391e-19)
(-0.0155035 0.0272753 3.43157e-19)
(-0.0240318 0.0383438 4.66666e-20)
(-0.031092 0.0454797 9.02672e-21)
(-0.0366387 0.0495675 -2.11546e-19)
(-0.0407398 0.0513006 3.11084e-19)
(-0.0434735 0.0512404 3.39551e-20)
(-0.0449207 0.0498365 -6.37887e-20)
(-0.0451593 0.0474506 -2.04742e-19)
(-0.0442585 0.04438 2.21316e-19)
(-0.0422784 0.040879 5.61099e-19)
(-0.0392724 0.0371783 -1.2396e-19)
(-0.0352932 0.0335026 2.8009e-19)
(-0.0304004 0.0300863 -3.30849e-19)
(-0.0246737 0.0271867 -3.17222e-19)
(-0.0182347 0.0250894 1.90751e-19)
(-0.0112646 0.0241105 3.15175e-19)
(-0.00395449 0.0246236 -1.02129e-18)
(0.00351642 0.0270717 1.19908e-19)
(0.0101938 0.0315507 1.62962e-19)
(-0.00667075 0.0116443 3.87579e-19)
(-0.0174159 0.0284957 1.27485e-19)
(-0.0264792 0.0399663 6.64014e-19)
(-0.0336385 0.0473037 3.41638e-20)
(-0.0389309 0.0514491 -7.38414e-20)
(-0.0424894 0.0531344 -3.51617e-19)
(-0.0444465 0.0529447 2.9902e-19)
(-0.0449261 0.051342 5.36463e-19)
(-0.0440394 0.0486907 3.57413e-19)
(-0.0418806 0.045284 2.5803e-19)
(-0.0385274 0.0413667 2.22438e-19)
(-0.0340447 0.0371575 -3.99446e-19)
(-0.0284903 0.0328695 -1.25123e-19)
(-0.0219242 0.0287316 -9.21367e-20)
(-0.0144232 0.0250085 9.8739e-19)
(-0.00610842 0.022016 -3.40687e-21)
(0.00283011 0.020135 -2.46056e-19)
(0.0121793 0.0198611 -7.76331e-20)
(0.0217072 0.0218367 7.062e-19)
(0.0301992 0.0263256 9.26288e-20)
(-0.00752567 0.0120881 -1.91151e-20)
(-0.0193363 0.0294605 -3.66604e-19)
(-0.0288623 0.041208 -5.45348e-19)
(-0.036001 0.0486593 -1.51734e-19)
(-0.0408777 0.0528128 8.37856e-20)
(-0.0436953 0.0544383 1.80435e-20)
(-0.044644 0.0541437 4.78455e-19)
(-0.0438942 0.0524018 -5.93393e-19)
(-0.0415943 0.0495781 -2.25712e-19)
(-0.0378679 0.0459588 -4.54873e-19)
(-0.0328166 0.0417746 -3.87426e-19)
(-0.0265237 0.0372244 -3.43039e-19)
(-0.0190605 0.0324978 8.57683e-20)
(-0.0104956 0.0278006 -1.11354e-19)
(-0.000909838 0.0233817 4.77086e-19)
(0.00957282 0.01956 -2.61531e-19)
(0.0207525 0.0167564 -8.19611e-19)
(0.0324007 0.0155813 -1.65357e-19)
(0.0442484 0.0169171 4.04462e-19)
(0.0547592 0.0212696 -3.52036e-19)
(-0.00839004 0.0124316 -6.18359e-20)
(-0.021219 0.0301482 4.48362e-19)
(-0.0310964 0.0420367 -5.71792e-19)
(-0.0380483 0.0495072 1.32167e-19)
(-0.0422939 0.0536159 -2.72206e-19)
(-0.044109 0.0551714 6.06322e-19)
(-0.0437437 0.0548047 -4.33342e-19)
(-0.0414169 0.0530004 4.95781e-19)
(-0.0373165 0.0501263 -4.70072e-19)
(-0.0315997 0.0464625 2.0057e-19)
(-0.0243979 0.0422261 -9.73399e-20)
(-0.0158214 0.0375936 -2.44387e-19)
(-0.0059671 0.0327244 -3.0195e-19)
(0.00507378 0.0277866 3.00869e-19)
(0.0172016 0.0229887 -2.5195e-19)
(0.0302763 0.0186156 -5.50792e-19)
(0.0440791 0.0150806 5.73396e-19)
(0.0583685 0.0130669 -7.31356e-19)
(0.0728753 0.0137073 3.29009e-19)
(0.0857021 0.0178133 8.25146e-21)
(-0.00924897 0.0126671 -5.60619e-19)
(-0.0230126 0.0305367 -6.05253e-19)
(-0.0330854 0.0424187 6.97507e-20)
(-0.0396319 0.0498047 -5.83611e-19)
(-0.0429694 0.0538098 -5.19285e-20)
(-0.0434488 0.0552828 -4.29289e-19)
(-0.0413802 0.0548795 -9.84829e-20)
(-0.0370313 0.0530988 -2.87826e-19)
(-0.03063 0.0503147 2.55883e-21)
(-0.0223695 0.0468068 -1.25942e-19)
(-0.0124159 0.0427843 8.93718e-21)
(-0.000915919 0.0384072 -3.62916e-19)
(0.0119942 0.0338073 3.99978e-19)
(0.026181 0.0291114 -5.67499e-19)
(0.0415018 0.0244714 2.01035e-19)
(0.0577747 0.0201027 7.60048e-21)
(0.0747362 0.0163477 -3.20058e-19)
(0.0921188 0.0138759 7.93559e-19)
(0.109708 0.0140194 -1.89446e-19)
(0.125275 0.0179052 -1.22677e-19)
(-0.0100862 0.0127877 6.2928e-19)
(-0.0246594 0.0306051 3.3976e-19)
(-0.0347215 0.0423217 3.16029e-19)
(-0.0405846 0.0495103 4.71767e-20)
(-0.0426687 0.0533461 4.27309e-19)
(-0.0413998 0.0547192 6.15911e-19)
(-0.0371475 0.0543125 5.04281e-19)
(-0.0302261 0.0526422 4.51375e-20)
(-0.0209025 0.0500945 3.69323e-19)
(-0.00940604 0.0469565 5.70673e-19)
(0.00405907 0.0434407 -1.48041e-19)
(0.019302 0.0397042 2.48456e-19)
(0.0361333 0.0358662 2.00632e-19)
(0.0543552 0.032025 2.04114e-19)
(0.0737513 0.0282812 1.20728e-18)
(0.094059 0.0247658 -4.52499e-19)
(0.114924 0.0216937 -2.76023e-20)
(0.136003 0.0195995 5.24593e-19)
(0.157188 0.019876 -2.97414e-19)
(0.176081 0.0238817 1.46882e-19)
(-0.0108841 0.012788 -5.08852e-19)
(-0.0260946 0.0303357 3.25795e-20)
(-0.0358828 0.0417187 -4.07261e-19)
(-0.0407184 0.0485901 -5.30071e-20)
(-0.0411275 0.0521856 2.9812e-19)
(-0.0376118 0.0534376 -8.87521e-19)
(-0.0305981 0.0530569 -6.64256e-22)
(-0.0204448 0.0515803 4.13053e-19)
(-0.00745506 0.0494112 3.88103e-19)
(0.00810629 0.0468531 -1.7087e-19)
(0.0259956 0.0441346 5.63506e-20)
(0.0459722 0.0414287 1.30699e-19)
(0.067782 0.0388669 -6.18917e-20)
(0.0911418 0.0365508 -6.94168e-19)
(0.115727 0.0345655 1.75752e-19)
(0.141145 0.0329884 4.83611e-19)
(0.166878 0.0319031 -6.89043e-19)
(0.19241 0.031612 3.36004e-19)
(0.217729 0.0333958 9.01707e-20)
(0.24065 0.038661 4.56078e-19)
(-0.0116233 0.0126643 -7.5102e-20)
(-0.027245 0.0297159 -3.56484e-19)
(-0.0364305 0.040592 1.64045e-19)
(-0.0398191 0.047025 7.67756e-22)
(-0.0380478 0.0503103 -7.14901e-19)
(-0.0316936 0.0514219 1.11564e-19)
(-0.0212394 0.0510983 -2.11901e-20)
(-0.00708488 0.0498975 1.44335e-19)
(0.0104317 0.048243 -6.60701e-19)
(0.031011 0.0464601 -4.63291e-20)
(0.054369 0.0448037 -1.55247e-19)
(0.0802133 0.0434792 1.38101e-19)
(0.10822 0.0426582 4.66243e-19)
(0.138009 0.0424905 -7.20889e-20)
(0.169122 0.043115 2.79336e-20)
(0.200981 0.0446565 1.8353e-19)
(0.232795 0.0471971 -4.53572e-20)
(0.263659 0.0509386 3.70236e-19)
(0.2934 0.0571674 -2.14933e-19)
(0.320452 0.0670558 -3.39324e-19)
(-0.0122818 0.0124144 6.9682e-20)
(-0.0280259 0.028739 1.70152e-20)
(-0.0362045 0.0389373 1.42939e-19)
(-0.0376415 0.0448184 3.50084e-19)
(-0.0330907 0.0477351 1.96455e-19)
(-0.0232067 0.0487009 2.04993e-20)
(-0.00852824 0.0484791 -2.34534e-19)
(0.010502 0.0476467 6.01188e-20)
(0.0335086 0.0466446 3.16239e-19)
(0.0601544 0.0458182 -5.35903e-19)
(0.0901123 0.0454478 4.04415e-19)
(0.123039 0.0457733 -3.04739e-19)
(0.158553 0.0470158 2.58638e-19)
(0.196208 0.0493991 -5.5789e-19)
(0.235468 0.0531748 6.13836e-19)
(0.275645 0.0586383 -6.56562e-19)
(0.315765 0.0661291 -1.70721e-19)
(0.354493 0.0762865 5.36016e-19)
(0.390653 0.0912108 -1.81049e-19)
(0.420882 0.111515 8.01198e-20)
(-0.0128332 0.0120371 -5.27226e-20)
(-0.0283375 0.0274046 4.97568e-19)
(-0.035018 0.036766 -2.08321e-21)
(-0.0339029 0.0420018 -3.08888e-19)
(-0.0258715 0.0445177 -2.07733e-19)
(-0.0116609 0.045363 3.80582e-19)
(0.00812827 0.0453207 -1.50743e-19)
(0.0330015 0.0449795 -1.89901e-20)
(0.0625331 0.0447895 3.14219e-19)
(0.0963311 0.045103 -3.90361e-19)
(0.134007 0.0462073 4.28138e-20)
(0.175155 0.04835 -5.0759e-19)
(0.219335 0.0517639 2.6733e-19)
(0.266075 0.0566952 -7.64999e-19)
(0.314872 0.0634405 1.2188e-18)
(0.365211 0.0723972 -2.23337e-19)
(0.416598 0.0841762 2.32947e-19)
(0.468839 0.100143 -6.04881e-19)
(0.522377 0.123343 4.05533e-21)
(0.569101 0.149995 6.85413e-19)
(-0.0132448 0.011531 -1.59697e-19)
(-0.0280611 0.0257184 1.37958e-19)
(-0.0326537 0.0341068 -5.08163e-19)
(-0.0282798 0.0386383 7.5163e-19)
(-0.0159574 0.0407651 -5.42665e-19)
(0.00348311 0.041566 2.80154e-20)
(0.0293637 0.0418361 -5.85247e-19)
(0.0611156 0.0421658 4.18459e-19)
(0.0982314 0.0429994 -5.97792e-20)
(0.140223 0.0446752 -3.6936e-19)
(0.18659 0.0474559 -2.15576e-19)
(0.236805 0.0515501 2.27793e-19)
(0.290306 0.0571318 1.50663e-19)
(0.346512 0.0643567 -6.66782e-19)
(0.404852 0.0733789 2.40725e-19)
(0.464809 0.0843631 -3.5509e-19)
(0.525987 0.0975038 4.30082e-20)
(0.588327 0.113217 -3.01556e-19)
(0.652609 0.132666 1.2323e-19)
(0.711656 0.152169 -4.51822e-19)
(-0.0134748 0.0108943 4.54641e-19)
(-0.0270553 0.0236921 -2.75382e-19)
(-0.0288605 0.0310066 2.26911e-19)
(-0.0204079 0.0348246 -2.86474e-19)
(-0.00287283 0.0366347 4.80169e-19)
(0.0228003 0.0375373 -8.38964e-21)
(0.0558273 0.0383292 -5.84694e-20)
(0.095524 0.0395889 -4.33586e-20)
(0.141246 0.041736 2.66861e-19)
(0.192342 0.0450698 4.53822e-19)
(0.248119 0.0497958 -2.68071e-19)
(0.307839 0.056044 2.60655e-19)
(0.370719 0.0638829 4.76139e-19)
(0.435958 0.0733292 -3.33856e-19)
(0.502774 0.0843536 -6.78052e-19)
(0.570455 0.0968778 1.23983e-18)
(0.638397 0.110758 -2.21407e-19)
(0.706195 0.125824 -7.18838e-20)
(0.774004 0.142381 7.73449e-19)
(0.836783 0.159708 -1.64028e-19)
(-0.0134709 0.0101251 -7.40071e-19)
(-0.0251546 0.0213445 -4.92656e-19)
(-0.0233554 0.0275309 -1.89121e-19)
(-0.0098887 0.0306901 3.64893e-19)
(0.013885 0.0323318 -8.23839e-19)
(0.0468735 0.0335669 4.26692e-19)
(0.0881386 0.0351792 5.40839e-20)
(0.136816 0.0377164 5.4708e-20)
(0.192046 0.0415489 -5.59018e-19)
(0.252918 0.0469064 -1.97419e-19)
(0.318453 0.0539025 -3.48036e-19)
(0.387602 0.0625522 3.36147e-19)
(0.459273 0.0727862 9.53917e-20)
(0.532369 0.0844622 1.86264e-20)
(0.605834 0.0973732 4.37952e-19)
(0.678711 0.111249 -4.43691e-19)
(0.750168 0.125749 -1.83847e-20)
(0.819543 0.140475 1.14461e-20)
(0.886489 0.155259 6.08992e-20)
(0.948283 0.171724 3.43003e-19)
(-0.0131694 0.00922176 2.35622e-19)
(-0.0221694 0.0187027 6.06834e-19)
(-0.0158279 0.0237656 4.86973e-19)
(0.00369767 0.0263962 -1.67876e-19)
(0.0348216 0.0281049 5.83957e-19)
(0.0762514 0.0299958 -4.92019e-20)
(0.126823 0.0328183 -6.93138e-20)
(0.185402 0.0370614 4.12658e-20)
(0.250806 0.0430129 5.6468e-19)
(0.321761 0.0507945 3.31831e-19)
(0.396897 0.0603877 9.6917e-20)
(0.474775 0.0716565 5.97959e-21)
(0.553941 0.0843689 -6.42871e-19)
(0.632987 0.0982171 5.58604e-19)
(0.710616 0.112836 9.57455e-20)
(0.785693 0.127819 -1.57754e-19)
(0.857281 0.142726 -6.835e-19)
(0.924667 0.157116 -5.75695e-20)
(0.987327 0.170525 2.69614e-19)
(1.04459 0.186077 -5.47677e-20)
(-0.0124948 0.00818551 -5.97779e-19)
(-0.0178894 0.0158065 2.50111e-19)
(-0.00594929 0.019819 -1.22121e-18)
(0.0207736 0.0221372 5.00224e-19)
(0.0604117 0.0242415 -3.98952e-19)
(0.111396 0.0272036 2.9414e-19)
(0.172238 0.0317068 -4.57024e-19)
(0.241414 0.0381419 4.19514e-20)
(0.317299 0.0466682 -2.35706e-20)
(0.398142 0.0572517 1.22963e-19)
(0.482101 0.0696981 1.77568e-19)
(0.56731 0.0836876 -3.35583e-19)
(0.651967 0.0988102 1.77747e-19)
(0.73442 0.114601 1.63196e-19)
(0.813247 0.13057 7.04587e-19)
(0.887301 0.146236 -3.0614e-19)
(0.955735 0.161135 -2.03152e-19)
(1.01801 0.174879 3.41503e-19)
(1.07375 0.186924 1.81782e-19)
(1.12362 0.201036 -3.42688e-19)
(-0.0113617 0.00702248 5.23536e-19)
(-0.0120887 0.0127122 5.048e-19)
(0.00661434 0.0158266 1.45677e-19)
(0.0417399 0.0181405 6.13556e-19)
(0.0910611 0.0210631 3.01473e-19)
(0.152628 0.0255958 -5.43505e-19)
(0.224498 0.032309 8.23284e-19)
(0.304623 0.0414414 -4.0517e-19)
(0.390809 0.0529662 4.04516e-19)
(0.480741 0.0666395 5.23435e-19)
(0.572068 0.0820496 -2.99145e-19)
(0.662531 0.0986711 5.68351e-20)
(0.750077 0.115919 3.16797e-19)
(0.83297 0.133202 2.23154e-19)
(0.909855 0.149959 5.13756e-19)
(0.979791 0.165699 -2.05704e-19)
(1.04223 0.180012 -2.54782e-20)
(1.09702 0.192615 3.23596e-19)
(1.14416 0.203061 -6.96622e-20)
(1.18507 0.215132 2.44483e-22)
(-0.00967668 0.0057467 -2.70239e-19)
(-0.00453467 0.00949812 -9.9326e-19)
(0.0221859 0.0119553 2.33926e-19)
(0.0669487 0.014669 -1.78094e-19)
(0.127065 0.0189214 -4.11187e-19)
(0.200069 0.0255893 -2.9366e-19)
(0.283414 0.035067 -1.81432e-19)
(0.374384 0.0473717 4.40602e-19)
(0.470111 0.0622243 -2.61679e-19)
(0.567677 0.0791187 -2.68036e-19)
(0.664272 0.0973971 -3.38964e-19)
(0.757363 0.11633 -5.59503e-20)
(0.84484 0.135191 -3.79798e-20)
(0.925106 0.153316 -7.83518e-19)
(0.997112 0.170149 3.79616e-19)
(1.06034 0.185264 -4.99281e-19)
(1.11473 0.198375 1.56572e-19)
(1.1606 0.209343 -1.19208e-18)
(1.19848 0.217933 3.59391e-19)
(1.23012 0.227551 4.53886e-19)
(-0.00734171 0.00438278 -6.78713e-20)
(0.00500268 0.00626975 4.84464e-19)
(0.0410587 0.00840733 3.10672e-20)
(0.0966743 0.0120206 7.47537e-20)
(0.168568 0.0181903 -1.5199e-19)
(0.253599 0.0275959 -2.51765e-21)
(0.34845 0.0403736 -3.91881e-21)
(0.449615 0.056238 -9.17631e-20)
(0.553502 0.074592 3.25473e-19)
(0.656637 0.0946291 1.25818e-19)
(0.75589 0.115444 5.71239e-19)
(0.848678 0.13614 -1.55725e-19)
(0.93309 0.155912 1.08711e-19)
(1.00793 0.174109 -1.40802e-20)
(1.07268 0.190262 3.00992e-19)
(1.1274 0.204086 1.84063e-19)
(1.17261 0.21547 4.43231e-19)
(1.20917 0.224443 -7.1566e-19)
(1.23806 0.231013 9.00128e-19)
(1.26114 0.238049 -2.85107e-19)
(-0.00425797 0.00296808 -6.3134e-19)
(0.0167387 0.00316305 -1.97148e-19)
(0.0634761 0.00542247 1.54044e-19)
(0.131083 0.0105249 9.7132e-20)
(0.215529 0.0192553 9.95954e-20)
(0.312816 0.0320011 1.00946e-19)
(0.418711 0.0485429 -2.52707e-19)
(0.528838 0.0682093 -1.04486e-19)
(0.638918 0.0900326 3.24194e-20)
(0.745073 0.112898 -3.09593e-19)
(0.844101 0.135692 -1.40028e-19)
(0.933657 0.157422 8.46123e-19)
(1.01231 0.177301 -2.18306e-19)
(1.07951 0.194785 -3.00797e-19)
(1.13541 0.209572 -1.42641e-19)
(1.18075 0.221577 9.88504e-20)
(1.21661 0.230885 1.20397e-19)
(1.24429 0.237698 -5.76956e-19)
(1.26511 0.242237 8.34623e-19)
(1.28093 0.246823 -7.23202e-19)
(-0.000329961 0.00155416 -7.13989e-20)
(0.0308617 0.000346166 2.04456e-20)
(0.0896101 0.003276 -2.61208e-20)
(0.170205 0.0105354 3.81437e-19)
(0.267687 0.0224961 2.10503e-20)
(0.377028 0.0391388 1.40117e-19)
(0.492963 0.0597834 -2.91171e-19)
(0.610259 0.0832993 -1.06161e-20)
(0.724096 0.108327 4.04527e-19)
(0.830457 0.13348 5.63771e-20)
(0.926387 0.157516 -3.52406e-19)
(1.0101 0.179455 -3.09674e-20)
(1.08089 0.198635 -2.89406e-19)
(1.13901 0.214709 2.88222e-19)
(1.18535 0.227604 4.00096e-19)
(1.22128 0.237456 -4.40966e-20)
(1.24835 0.244546 -5.36885e-20)
(1.26816 0.249218 1.63696e-19)
(1.28222 0.25185 -5.25896e-19)
(1.29228 0.254286 4.63311e-19)
(0.00452991 0.000207302 7.17627e-20)
(0.0475193 -0.0019816 -4.6279e-19)
(0.119541 0.00227316 1.23841e-19)
(0.213909 0.0124159 -3.84319e-19)
(0.324552 0.0282651 1.32168e-19)
(0.445257 0.0492655 -4.90877e-19)
(0.569697 0.074176 1.9803e-19)
(0.691902 0.101363 -6.30641e-20)
(0.806783 0.129102 -2.56953e-21)
(0.910528 0.155818 6.45207e-20)
(1.00078 0.18026 -2.34963e-19)
(1.07659 0.201583 -3.35427e-19)
(1.13816 0.219351 -6.87506e-20)
(1.18657 0.233481 -3.0863e-20)
(1.22343 0.244152 -7.82955e-20)
(1.25059 0.251719 -2.54965e-20)
(1.26991 0.256622 -7.63151e-20)
(1.28313 0.25931 -6.61506e-20)
(1.29181 0.260251 -1.96682e-19)
(1.29753 0.260905 3.11968e-19)
(0.0103965 -0.000991781 1.72483e-19)
(0.0668053 -0.00359355 -1.91576e-19)
(0.153238 0.00273905 4.12352e-19)
(0.261889 0.0165227 -1.78035e-19)
(0.385399 0.0368632 4.75855e-19)
(0.516283 0.0625368 6.82129e-21)
(0.647225 0.0916653 2.39036e-19)
(0.771772 0.122116 -6.4073e-20)
(0.884932 0.151879 2.67188e-19)
(0.983492 0.179321 1.92899e-20)
(1.06601 0.203321 6.35988e-19)
(1.13255 0.223288 -4.38954e-19)
(1.1843 0.239087 5.91737e-20)
(1.22311 0.250928 1.12875e-19)
(1.25113 0.259238 5.90664e-19)
(1.27056 0.26455 -2.12206e-19)
(1.2834 0.267421 -4.20456e-20)
(1.29137 0.268354 -2.22593e-19)
(1.29595 0.267858 -2.33955e-20)
(1.29854 0.267091 1.11337e-19)
(0.0173268 -0.00194924 -8.27415e-20)
(0.0887472 -0.00424198 2.39093e-19)
(0.190544 0.0050049 -2.4491e-19)
(0.313653 0.0231834 9.66867e-20)
(0.449291 0.0485166 -1.15703e-19)
(0.588707 0.0789933 4.24594e-19)
(0.723804 0.112065 -5.91867e-20)
(0.848015 0.145166 1.45682e-19)
(0.956873 0.176132 -8.5826e-20)
(1.04813 0.203432 -2.28255e-21)
(1.12149 0.226213 9.79715e-20)
(1.17812 0.244226 -7.59143e-20)
(1.22011 0.257679 1.96885e-19)
(1.24995 0.267069 -9.81619e-20)
(1.27017 0.273032 -4.31984e-19)
(1.28309 0.276234 4.29425e-19)
(1.29072 0.277292 -1.93405e-19)
(1.29467 0.276722 1.54435e-19)
(1.29625 0.275036 2.67657e-19)
(1.29664 0.27316 1.09953e-19)
(0.025355 -0.00256026 2.05916e-19)
(0.113295 -0.00366707 -4.24369e-19)
(0.231167 0.00939169 8.11823e-20)
(0.368533 0.0326758 -5.89211e-20)
(0.515121 0.0633581 -2.37773e-19)
(0.661042 0.0985563 -1.86625e-19)
(0.797762 0.135081 -3.67033e-20)
(0.919054 0.170058 -3.32739e-19)
(1.0214 0.201348 -2.02865e-20)
(1.10381 0.227681 -6.18323e-20)
(1.16726 0.248588 -1.67825e-19)
(1.21396 0.264219 -3.72964e-20)
(1.24677 0.275122 -1.28426e-19)
(1.26861 0.282045 -2.14277e-19)
(1.2822 0.285783 2.19389e-19)
(1.28987 0.287076 3.02e-20)
(1.29346 0.286559 6.01823e-20)
(1.29442 0.284723 -2.52607e-19)
(1.29384 0.282064 -6.33809e-21)
(1.29273 0.279323 -3.89568e-19)
(0.0344879 -0.00271209 2.25652e-19)
(0.140313 -0.00160758 1.5054e-19)
(0.274682 0.0161925 -2.42825e-19)
(0.425705 0.045208 3.79191e-19)
(0.581667 0.081417 -4.09086e-20)
(0.731809 0.121038 1.41686e-19)
(0.867612 0.160341 4.9065e-20)
(0.983677 0.196326 1.73821e-19)
(1.07781 0.227069 -1.36114e-19)
(1.15044 0.251711 4.53669e-20)
(1.20381 0.270242 -4.35388e-20)
(1.24105 0.283224 -1.91395e-20)
(1.26558 0.291515 3.64179e-20)
(1.28056 0.296061 -6.70893e-20)
(1.28873 0.297753 -2.06075e-20)
(1.29226 0.297359 -6.30685e-20)
(1.29281 0.295488 -1.02494e-19)
(1.2916 0.292589 6.61806e-20)
(1.28953 0.289131 -9.07654e-20)
(1.2874 0.285703 3.9224e-19)
(0.0447007 -0.00228797 -1.12648e-19)
(0.169578 0.00218702 -3.19227e-19)
(0.320533 0.0256551 -4.25051e-20)
(0.484226 0.0609041 -1.15993e-20)
(0.647664 0.102617 -1.43071e-19)
(0.799627 0.146158 -2.34951e-19)
(0.932132 0.18743 7.69103e-20)
(1.04107 0.223524 -1.05688e-19)
(1.12582 0.252918 -1.18424e-19)
(1.18832 0.275275 6.59794e-20)
(1.23193 0.291083 -4.986e-20)
(1.26052 0.301292 -1.00892e-19)
(1.27784 0.307016 -3.39915e-21)
(1.28713 0.309334 6.834e-20)
(1.29098 0.309182 -6.97164e-20)
(1.29134 0.307309 9.67412e-20)
(1.28966 0.304275 2.60319e-20)
(1.28691 0.300473 6.55737e-20)
(1.28382 0.296349 1.27787e-19)
(1.28103 0.292354 -1.09462e-19)
(0.0559344 -0.00117164 1.07585e-19)
(0.200776 0.00794392 -9.46857e-21)
(0.368053 0.0379669 4.83216e-20)
(0.543073 0.0797951 -6.55551e-20)
(0.711872 0.126785 5.41266e-21)
(0.863284 0.173574 2.27573e-19)
(0.990408 0.215925 -1.49488e-19)
(1.09079 0.251255 6.33443e-20)
(1.16555 0.278605 5.58665e-20)
(1.21803 0.298227 -1.56989e-19)
(1.25255 0.311104 1.47548e-19)
(1.27349 0.318525 1.31249e-21)
(1.28472 0.321795 -1.03995e-19)
(1.2894 0.322065 1.25355e-19)
(1.28989 0.320263 -4.97601e-20)
(1.2879 0.317093 3.80507e-20)
(1.28461 0.313049 -4.25545e-20)
(1.2808 0.308465 -1.703e-20)
(1.27704 0.303767 -1.48999e-19)
(1.27382 0.299276 4.56499e-20)
(0.0680944 0.000747588 -3.62501e-20)
(0.233511 0.0158546 9.73429e-20)
(0.416491 0.0532418 1.51874e-20)
(0.601196 0.101817 6.36868e-20)
(0.77314 0.153663 3.04031e-20)
(0.921793 0.2029 1.42532e-20)
(1.04183 0.24542 8.0795e-20)
(1.13274 0.279185 -9.79928e-21)
(1.19736 0.303918 3.56394e-20)
(1.2403 0.320494 5.72668e-20)
(1.26663 0.330348 2.76416e-20)
(1.28098 0.335045 1.98489e-20)
(1.28722 0.336011 8.04966e-20)
(1.28825 0.334412 -7.79262e-20)
(1.2862 0.331137 1.67277e-20)
(1.28249 0.326818 -1.5674e-20)
(1.27806 0.321878 2.424e-20)
(1.27355 0.316598 2.03133e-20)
(1.26936 0.311386 4.24291e-20)
(1.26588 0.306438 1.77552e-21)
(0.0810511 0.0035696 2.14917e-20)
(0.267317 0.0260637 1.96319e-20)
(0.465037 0.0715131 -2.71852e-20)
(0.657566 0.126814 1.69888e-20)
(0.830453 0.182927 9.60225e-21)
(0.974403 0.233733 -2.98736e-20)
(1.08609 0.275537 9.85979e-21)
(1.16704 0.307035 1.78133e-21)
(1.22177 0.328712 1.701e-20)
(1.25593 0.34205 -4.56224e-20)
(1.27507 0.348879 -1.43257e-22)
(1.2839 0.350965 1.26511e-20)
(1.28612 0.34979 -1.0082e-20)
(1.28435 0.346493 1.02001e-20)
(1.28041 0.34189 2.66309e-20)
(1.27548 0.336538 -1.51579e-20)
(1.27029 0.330785 4.21722e-21)
(1.26532 0.324864 1.66145e-20)
(1.26088 0.319175 -2.739e-20)
(1.25725 0.313784 1.31488e-20)
(0.0946423 0.00737837 5.98688e-20)
(0.301668 0.0386594 -3.25742e-20)
(0.512856 0.0927288 3.83686e-20)
(0.711218 0.154548 -2.85532e-20)
(0.882964 0.214206 -1.28113e-20)
(1.0206 0.265673 3.87427e-21)
(1.12309 0.305937 -1.25784e-20)
(1.19404 0.334583 4.52444e-20)
(1.23942 0.352888 -3.7686e-20)
(1.2657 0.362896 8.84524e-21)
(1.27868 0.366762 -6.59109e-21)
(1.283 0.366377 -4.2968e-20)
(1.28205 0.363222 4.16884e-20)
(1.27818 0.358374 1.58813e-20)
(1.27289 0.352562 -1.5798e-20)
(1.26712 0.346262 3.71009e-20)
(1.26145 0.339751 -5.41833e-22)
(1.25622 0.333226 -3.60105e-20)
(1.25165 0.327079 2.668e-20)
(1.24797 0.321243 8.42028e-21)
(0.108676 0.0122374 -2.09801e-20)
(0.336 0.0536675 6.08395e-20)
(0.559125 0.116754 7.03198e-20)
(0.761283 0.184712 -3.31881e-20)
(0.930007 0.2471 5.77441e-20)
(1.06008 0.298328 9.14144e-20)
(1.15293 0.336319 -5.03837e-21)
(1.21415 0.361646 -1.57111e-20)
(1.25093 0.376372 7.7591e-20)
(1.27031 0.383041 3.78456e-20)
(1.27814 0.384047 -6.87521e-21)
(1.27885 0.381339 5.64551e-20)
(1.2755 0.376355 -6.05735e-20)
(1.2701 0.37008 9.4339e-20)
(1.26387 0.363152 -1.57402e-20)
(1.25757 0.355964 4.51287e-20)
(1.25161 0.348732 8.14657e-21)
(1.24627 0.341623 3.23133e-20)
(1.24168 0.335024 -3.07543e-20)
(1.23801 0.328735 7.41877e-21)
(0.122937 0.0181853 -3.26546e-20)
(0.369728 0.0710464 7.74304e-20)
(0.603056 0.143372 5.75446e-20)
(0.807016 0.216941 -8.72617e-21)
(0.971097 0.281189 8.97339e-20)
(1.09274 0.331325 -6.70657e-20)
(1.17586 0.366412 -5.27552e-21)
(1.22786 0.388071 5.92221e-20)
(1.25694 0.399107 1.88139e-20)
(1.27041 0.402486 2.63447e-20)
(1.27404 0.400761 -3.89143e-20)
(1.27194 0.395879 1.01534e-19)
(1.26681 0.389199 1.89781e-20)
(1.26034 0.381599 -8.99837e-20)
(1.25352 0.373624 1.31568e-19)
(1.24691 0.36559 -1.55277e-19)
(1.24084 0.357661 -7.13367e-20)
(1.2355 0.349979 1.18172e-20)
(1.23096 0.342929 6.92947e-20)
(1.22738 0.336172 -1.30723e-19)
(0.137191 0.0252331 -7.34302e-20)
(0.402266 0.0906869 -1.7327e-19)
(0.643926 0.172298 -1.49872e-19)
(0.847804 0.250826 -2.04109e-19)
(1.00592 0.316049 -1.15864e-19)
(1.1186 0.364311 -2.40309e-19)
(1.19221 0.395975 3.05347e-20)
(1.23571 0.41372 -1.27743e-19)