/*--------------------------------*- C++ -*----------------------------------*\
  =========                 |
  \\      /  F ield         | OpenFOAM: The Open Source CFD Toolbox
   \\    /   O peration     | Website:  https://openfoam.org
    \\  /    A nd           | Version:  6.0
     \\/     M anipulation  |
\*---------------------------------------------------------------------------*/
FoamFile
{
    version     2.0;
    format      ascii;
    class       surfaceScalarField;
    location    "11.3";
    object      phi;
}
// * * * * * * * * * * * * * * * * * * * * * * * * * * * * * * * * * * * * * //

dimensions      [0 3 -1 0 0 0 0];

internalField   nonuniform List<scalar> 
15760
(
-3.87812e-06
3.98301e-06
-1.04892e-07
-1.35553e-05
9.94137e-06
-2.64165e-07
-2.76197e-05
1.44488e-05
-3.84465e-07
-4.49935e-05
1.78475e-05
-4.7361e-07
-6.48544e-05
2.03992e-05
-5.38326e-07
-8.65885e-05
2.23186e-05
-5.84516e-07
-0.000109754
2.37826e-05
-6.17217e-07
-0.000134052
2.49389e-05
-6.40592e-07
-0.000159306
2.59114e-05
-6.57961e-07
-0.000185438
2.68046e-05
-6.71874e-07
-0.00021246
2.77062e-05
-6.84218e-07
-0.000240453
2.86891e-05
-6.96303e-07
-0.000269557
2.98124e-05
-7.08965e-07
-0.000299956
3.11221e-05
-7.2267e-07
-0.000331869
3.26508e-05
-7.37605e-07
-0.000365534
3.44186e-05
-7.53729e-07
-0.000401195
3.64322e-05
-7.7081e-07
-0.000439091
3.86839e-05
-7.88484e-07
-0.000479441
4.11567e-05
-8.063e-07
4.38467e-05
-8.23884e-07
-0.000522464
-3.81032e-06
7.79334e-06
-1.33287e-05
1.94597e-05
-2.71633e-05
2.82835e-05
-4.42449e-05
3.4929e-05
-6.37523e-05
3.99066e-05
-8.5068e-05
4.36343e-05
-0.000107743
4.6458e-05
-0.000131471
4.86661e-05
-0.000156061
5.05015e-05
-0.000181426
5.21694e-05
-0.000207563
5.38433e-05
-0.000234542
5.56686e-05
-0.000262494
5.77644e-05
-0.000291596
6.02243e-05
-0.000322063
6.31169e-05
-0.00035413
6.64858e-05
-0.000388046
7.03487e-05
-0.000424056
7.4694e-05
-0.00046239
7.94905e-05
8.4731e-05
-0.000503275
-3.68113e-06
1.14745e-05
-1.28955e-05
2.86741e-05
-2.62892e-05
4.16772e-05
-4.28083e-05
5.14482e-05
-6.16342e-05
5.87325e-05
-8.21427e-05
6.41429e-05
-0.000103872
6.8187e-05
-0.000126495
7.12893e-05
-0.000149801
7.3808e-05
-0.000173679
7.60471e-05
-0.000198101
7.82655e-05
-0.000223115
8.0682e-05
-0.000248829
8.34787e-05
-0.000275407
8.68021e-05
-0.000303053
9.07629e-05
-0.000332003
9.54357e-05
-0.000362511
0.000100857
-0.000394836
0.000107019
-0.000429229
0.000113883
0.000121438
-0.000465936
-3.50028e-06
1.49748e-05
-1.2286e-05
3.74598e-05
-2.50553e-05
5.44465e-05
-4.07758e-05
6.71686e-05
-5.86322e-05
7.6589e-05
-7.79914e-05
8.35021e-05
-9.83724e-05
8.8568e-05
-0.000119423
9.23398e-05
-0.0001409
9.52855e-05
-0.000162658
9.78043e-05
-0.000184631
0.000100239
-0.000206832
0.000102883
-0.00022934
0.000105986
-0.000252291
0.000109753
-0.000275875
0.000114348
-0.000300326
0.000119886
-0.000325905
0.000126437
-0.000352896
0.00013401
-0.00038158
0.000142567
0.000152101
-0.000412243
-3.28102e-06
1.82558e-05
-1.15417e-05
4.57205e-05
-2.35412e-05
6.64459e-05
-3.82731e-05
8.19005e-05
-5.49271e-05
9.32431e-05
-7.28597e-05
0.000101435
-9.15676e-05
0.000107276
-0.000110666
0.000111439
-0.000129874
0.000114493
-0.000148998
0.000116928
-0.000167927
0.000119168
-0.000186625
0.00012158
-0.000205124
0.000124486
-0.000223528
0.000128157
-0.000242002
0.000132822
-0.000260771
0.000138654
-0.000280108
0.000145774
-0.000300326
0.000154229
-0.000321759
0.000164
0.000175093
-0.000344751
-3.03872e-06
2.12945e-05
-1.07104e-05
5.33922e-05
-2.18389e-05
7.75744e-05
-3.54463e-05
9.55079e-05
-5.07291e-05
0.000108526
-6.70336e-05
0.000117739
-8.3833e-05
0.000124075
-0.000100708
0.000128314
-0.000117331
0.000131116
-0.000133457
0.000133054
-0.000148915
0.000134626
-0.000163609
0.000136274
-0.000177514
0.00013839
-0.000190681
0.000141325
-0.00020324
0.000145381
-0.000215398
0.000150813
-0.00022744
0.000157816
-0.000239716
0.000166505
-0.000252629
0.000176913
0.000189077
-0.000266613
-2.78915e-06
2.40836e-05
-9.84148e-06
6.04445e-05
-2.00431e-05
8.7776e-05
-3.24455e-05
0.00010791
-4.62539e-05
0.000122334
-6.0807e-05
0.000132292
-7.55561e-05
0.000138824
-9.00469e-05
0.000142804
-0.000103905
0.000144975
-0.000116828
0.000145977
-0.000128577
0.000146376
-0.000138983
0.00014668
-0.000147949
0.000147356
-0.000155458
0.000148833
-0.000161584
0.000151507
-0.000166505
0.000155733
-0.000170504
0.000161815
-0.000173975
0.000169976
-0.00017741
0.000180347
0.000193039
-0.000181372
-2.54678e-06
2.66304e-05
-8.97995e-06
6.68777e-05
-1.824e-05
9.70361e-05
-2.94068e-05
0.000119077
-4.16967e-05
0.000134624
-5.4445e-05
0.00014504
-6.70862e-05
0.000151465
-7.91355e-05
0.000154854
-9.01743e-05
0.000156014
-9.98411e-05
0.000155644
-0.000107828
0.000154362
-0.000113882
0.000152735
-0.000117819
0.000151293
-0.000119533
0.000150548
-0.000119022
0.000150996
-0.000116407
0.000153118
-0.000111955
0.000157363
-0.000106097
0.000164118
-9.94289e-05
0.00017368
0.000186303
-9.26931e-05
-2.32319e-06
2.89536e-05
-8.1616e-06
7.27161e-05
-1.64974e-05
0.000105372
-2.64356e-05
0.000129015
-3.72062e-05
0.000145395
-4.81472e-05
0.000155981
-5.8684e-05
0.000162002
-6.83101e-05
0.00016448
-7.65707e-05
0.000164274
-8.30519e-05
0.000162125
-8.73764e-05
0.000158687
-8.92067e-05
0.000154565
-8.82574e-05
0.000150343
-8.43157e-05
0.000146606
-7.72728e-05
0.000143953
-6.71618e-05
0.000143007
-5.42017e-05
0.000144402
-3.88403e-05
0.000148757
-2.17867e-05
0.000156626
0.000168527
-4.01091e-06
-2.1258e-06
3.10794e-05
-7.40879e-06
7.79991e-05
-1.48557e-05
0.000112819
-2.35917e-05
0.000137751
-3.28619e-05
0.000154665
-4.20136e-05
0.000165133
-5.04733e-05
0.000170462
-5.7725e-05
0.000171731
-6.32908e-05
0.00016984
-6.67176e-05
0.000165552
-6.75691e-05
0.000159538
-6.54272e-05
0.000152423
-5.99031e-05
0.000144819
-5.06612e-05
0.000137364
-3.74587e-05
0.00013075
-2.02006e-05
0.000125749
9.89615e-07
0.000123212
2.5687e-05
0.000124059
5.30822e-05
0.000129231
0.000139681
8.19283e-05
-1.95724e-06
3.30366e-05
-6.728e-06
8.27699e-05
-1.33233e-05
0.000119414
-2.088e-05
0.000145308
-2.86585e-05
0.000162444
-3.60208e-05
0.000172495
-4.24044e-05
0.000176846
-4.72979e-05
0.000176625
-5.02178e-05
0.00017276
-5.06908e-05
0.000166024
-4.82413e-05
0.000157089
-4.23872e-05
0.000146569
-3.26464e-05
0.000135078
-1.85583e-05
0.000123276
2.73195e-07
0.000111919
2.41112e-05
0.000101911
5.29853e-05
9.43381e-05
8.65585e-05
9.04861e-05
0.000123964
9.18254e-05
9.9999e-05
0.000163646
-1.81527e-06
3.48519e-05
-6.10936e-06
8.7064e-05
-1.18744e-05
0.000125179
-1.82475e-05
0.000151681
-2.45002e-05
0.000168696
-3.0011e-05
0.000178006
-3.42361e-05
0.000181071
-3.66809e-05
0.00017907
-3.68738e-05
0.000172953
-3.43446e-05
0.000163495
-2.86059e-05
0.00015135
-1.91414e-05
0.000137105
-5.40373e-06
0.000121341
1.31731e-05
0.000104699
3.71362e-05
8.79558e-05
6.69412e-05
7.21056e-05
0.000102828
5.84513e-05
0.000144632
4.86817e-05
0.000191515
4.49431e-05
4.98961e-05
0.000241618
-1.69335e-06
3.65452e-05
-5.52836e-06
9.0899e-05
-1.04525e-05
0.000130103
-1.55874e-05
0.000156816
-2.02061e-05
0.000173315
-2.36996e-05
0.0001815
-2.55432e-05
0.000182914
-2.52654e-05
0.000178792
-2.24199e-05
0.000170107
-1.65607e-05
0.000157636
-7.21887e-06
0.000142008
6.1159e-06
0.00012377
2.40092e-05
0.000103447
4.70837e-05
8.16246e-05
7.59988e-05
5.90406e-05
0.00011139
3.67147e-05
0.000153738
1.6103e-05
0.00020314
-7.20109e-07
0.000258911
-1.08286e-05
-1.01651e-05
0.000318973
-1.58183e-06
3.81271e-05
-4.94913e-06
9.42663e-05
-8.97686e-06
0.000134131
-1.27503e-05
0.00016059
-1.55276e-05
0.000176092
-1.66996e-05
0.000182672
-1.57514e-05
0.000181966
-1.22303e-05
0.000175271
-5.717e-06
0.000163594
4.19863e-06
0.00014772
1.79417e-05
0.000128265
3.59753e-05
0.000105736
5.88227e-05
8.06e-05
8.7086e-05
5.33613e-05
0.000121451
2.46755e-05
0.000162658
-4.49256e-06
0.0002114
-3.26383e-05
0.000268082
-5.74021e-05
0.000332334
-7.50805e-05
-7.98746e-05
0.000402043
-1.46927e-06
3.95964e-05
-4.32876e-06
9.71257e-05
-7.35098e-06
0.000137153
-9.5591e-06
0.000162798
-1.01732e-05
0.000176706
-8.5609e-06
0.000181059
-4.19621e-06
0.000177602
3.37399e-06
0.0001677
1.45556e-05
0.000152413
2.97283e-05
0.000132548
4.9265e-05
0.000108729
7.35513e-05
8.145e-05
0.00010301
5.11411e-05
0.00013813
1.82417e-05
0.000179494
-1.66891e-05
0.0002278
-5.27981e-05
0.000283815
-8.8653e-05
0.000348205
-0.000121793
0.000421043
-0.000147918
-0.000159335
0.000500504
-1.3437e-06
4.09401e-05
-3.62124e-06
9.94033e-05
-5.47125e-06
0.000139003
-5.82503e-06
0.000163151
-3.83422e-06
0.000174716
1.18767e-06
0.000176038
9.81088e-06
0.000168978
2.2522e-05
0.000154989
3.97455e-05
0.000135189
6.1857e-05
0.000110436
8.91927e-05
8.13928e-05
0.000122058
4.85851e-05
0.000160739
1.24597e-05
0.00020553
-2.65497e-05
0.000256772
-6.79309e-05
0.000314908
-0.000110934
0.000380528
-0.000154273
0.000454333
-0.000195598
0.000536813
-0.000230398
-0.000249335
0.000626813
-1.1933e-06
4.21334e-05
-2.78003e-06
0.00010099
-3.23265e-06
0.000139456
-1.35823e-06
0.000161277
3.79445e-06
0.000169563
1.30037e-05
0.000166828
2.69246e-05
0.000155057
4.61208e-05
0.000135793
7.10806e-05
0.000110229
0.000102221
7.92963e-05
0.00013988
4.37331e-05
0.000184314
4.15179e-06
0.000235679
-3.89059e-05
0.000294042
-8.49123e-05
0.000359395
-0.000133285
0.000431726
-0.000183265
0.000511117
-0.000233664
0.000597859
-0.00028234
0.000692469
-0.000325008
-0.000351607
0.000794741
-1.00639e-06
4.31398e-05
-1.75837e-06
0.000101742
-5.30196e-07
0.000138228
4.02824e-06
0.000156719
1.30069e-05
0.000160584
2.7315e-05
0.00015252
4.77356e-05
0.000134637
7.49552e-05
0.000108573
0.000109575
7.56098e-05
0.000152103
3.67679e-05
0.000202938
-7.10198e-06
0.000262337
-5.52475e-05
0.000330383
-0.000106951
0.000406943
-0.000161473
0.000491655
-0.000217997
0.000583935
-0.000275544
0.000683073
-0.000332802
0.000788414
-0.000387681
0.000899646
-0.000436239
-0.000469519
0.00101756
-7.70721e-07
4.39105e-05
-5.07548e-07
0.000101479
2.74391e-06
0.000134976
1.05223e-05
0.00014894
2.40902e-05
0.000147016
4.4524e-05
0.000132086
7.27713e-05
0.00010639
0.00010968
7.16651e-05
0.000156001
2.92885e-05
0.000212378
-1.9609e-05
0.000279315
-7.40393e-05
0.000357139
-0.000133071
0.000445942
-0.000195754
0.000545522
-0.000261053
0.000655297
-0.000327772
0.000774228
-0.000394475
0.000900761
-0.000459335
0.00103285
-0.000519768
0.00116823
-0.000571619
-0.000609137
0.00130785
-4.7233e-07
4.43828e-05
1.02602e-06
9.99805e-05
6.70547e-06
0.000129297
1.8321e-05
0.000137325
3.73361e-05
0.000128001
6.50216e-05
0.000104401
0.000102513
6.88981e-05
0.000150835
2.3343e-05
0.0002109
-3.07764e-05
0.000283489
-9.21982e-05
0.000369224
-0.000159774
0.000468531
-0.000232378
0.000581609
-0.000308833
0.000708394
-0.000387838
0.000848513
-0.000467891
0.00100122
-0.000547178
0.00116521
-0.000623329
0.00133803
-0.000692588
0.00151349
-0.000747074
-0.00076822
0.00167257
-9.52993e-08
4.44781e-05
2.9022e-06
9.6983e-05
1.14814e-05
0.000120717
2.76356e-05
0.00012117
5.3049e-05
0.000102588
8.91991e-05
6.82507e-05
0.000137409
2.06883e-05
0.000198861
-3.81088e-05
0.000274584
-0.0001065
0.000365431
-0.000183045
0.000472044
-0.000266387
0.000594846
-0.00035518
0.000734043
-0.000448029
0.000889681
-0.000543476
0.00106178
-0.000639991
0.00125061
-0.000736004
0.00145718
-0.000829906
0.00168456
-0.000919968
0.00194188
-0.0010044
-0.00107693
0.00225059
3.81366e-07
4.40967e-05
5.19215e-06
9.21722e-05
1.72152e-05
0.000108694
3.8696e-05
9.96897e-05
7.15468e-05
6.97371e-05
0.000117444
2.23538e-05
0.000177865
-3.97328e-05
0.000254084
-0.000114328
0.000347141
-0.000199557
0.000457795
-0.000293699
0.000586497
-0.000395089
0.000733364
-0.000502047
0.000898209
-0.000612874
0.00108059
-0.000725861
0.00127996
-0.000839358
0.00149582
-0.00095186
0.00172804
-0.00106213
0.00197739
-0.00116932
0.00224601
-0.00127302
-0.00136498
0.00253406
9.7925e-07
4.31175e-05
7.96961e-06
8.51818e-05
2.40538e-05
9.26102e-05
5.17319e-05
7.20115e-05
9.31339e-05
2.83351e-05
0.0001501
-3.46121e-05
0.000224191
-0.000113824
0.000316656
-0.000206793
0.000428371
-0.000311271
0.00055978
-0.000425108
0.000710852
-0.000546161
0.000881071
-0.000672266
0.00106946
-0.000801264
0.00127466
-0.000931064
0.00149504
-0.00105973
0.00172877
-0.0011856
0.00197402
-0.00130737
0.00222893
-0.00142423
0.00249162
-0.00153571
-0.00163386
0.00276051
1.72191e-06
4.13956e-05
1.13103e-05
7.55934e-05
3.21406e-05
7.178e-05
6.69543e-05
3.71978e-05
0.000118064
-2.2775e-05
0.000187404
-0.000103952
0.0002765
-0.00020292
0.0003864
-0.000316693
0.000517587
-0.000442459
0.000669913
-0.000577434
0.000842562
-0.00071881
0.00103407
-0.000863778
0.00124241
-0.0010096
0.00146508
-0.00115373
0.00169924
-0.0012939
0.00194189
-0.00142824
0.0021899
-0.00155538
0.0024401
-0.00167444
0.00268936
-0.00178496
-0.0018809
0.0029364
2.63218e-06
3.87634e-05
1.52839e-05
6.29417e-05
4.15987e-05
4.54651e-05
8.45241e-05
-5.72758e-06
0.000146488
-8.47394e-05
0.000229403
-0.000186866
0.000334584
-0.000308101
0.000462644
-0.000444753
0.000613396
-0.00059321
0.000785796
-0.000749834
0.000977961
-0.000910976
0.00118726
-0.00107308
0.00141046
-0.00123281
0.00164394
-0.00138721
0.00188387
-0.00153383
0.00212642
-0.0016708
0.00236791
-0.00179687
0.00260485
-0.00191137
0.0028341
-0.00201422
-0.00210153
0.00305473
3.7302e-06
3.50332e-05
1.99465e-05
4.67255e-05
5.25141e-05
1.28975e-05
0.00010452
-5.77339e-05
0.0001784
-0.000158619
0.000275871
-0.000284337
0.000397805
-0.000430035
0.000544096
-0.000591044
0.000713574
-0.000762689
0.000904019
-0.000940278
0.00111227
-0.00111922
0.00133442
-0.00129523
0.00156613
-0.00146451
0.00180287
-0.00162395
0.00204023
-0.00177119
0.00227414
-0.0019047
0.00250102
-0.00202375
0.00271789
-0.00212824
0.0029224
-0.00221873
-0.00229337
0.00311424
5.03167e-06
3.00015e-05
2.53341e-05
2.6423e-05
6.49199e-05
-2.66882e-05
0.000126912
-0.000119726
0.000213592
-0.000245298
0.000326254
-0.000397
0.000465038
-0.000568819
0.000628796
-0.000754803
0.000815085
-0.000948978
0.00102029
-0.00114549
0.0012399
-0.00133883
0.00146885
-0.00152418
0.00170193
-0.0016976
0.00193417
-0.00185618
0.00216111
-0.00199813
0.00237907
-0.00212266
0.00258518
-0.00222986
0.00277746
-0.00232052
0.00295476
-0.00239603
-0.00245617
0.00311756
6.54659e-06
2.34549e-05
3.14576e-05
1.51196e-06
7.87848e-05
-7.40154e-05
0.000151539
-0.00019248
0.000251628
-0.000345387
0.00037964
-0.000525012
0.000534653
-0.000723831
0.000714168
-0.000934317
0.000914237
-0.00114905
0.00112978
-0.00136103
0.00135504
-0.00156409
0.0015841
-0.00175324
0.00181137
-0.00192487
0.00203198
-0.00207679
0.00224203
-0.00220819
0.00243873
-0.00231936
0.00262036
-0.00241148
0.00278618
-0.00248635
0.0029363
-0.00254614
-0.0025919
0.00307203
8.27838e-06
1.51766e-05
3.82986e-05
-2.85083e-05
9.40044e-05
-0.000129721
0.000178094
-0.00027657
0.000291829
-0.000459123
0.000434762
-0.000667945
0.000604575
-0.000893645
0.000797165
-0.00112691
0.00100698
-0.00135887
0.00122759
-0.00158164
0.00145232
-0.00178882
0.00167489
-0.0019758
0.0018899
-0.00213988
0.00209317
-0.00228006
0.00228185
-0.00239687
0.00245437
-0.00249189
0.00261033
-0.00256744
0.0027502
-0.00262622
0.00287513
-0.00267107
-0.00270389
0.00298711
1.02231e-05
4.95344e-06
4.58065e-05
-6.40916e-05
0.000110395
-0.00019431
0.000206121
-0.000372295
0.000333281
-0.000586282
0.00049004
-0.000824704
0.000672399
-0.001076
0.000874511
-0.00132902
0.00108931
-0.00157367
0.00130933
-0.00180166
0.00152748
-0.00200697
0.00173771
-0.00218604
0.00193541
-0.00233757
0.00211754
-0.00246219
0.00228258
-0.00256191
0.00243031
-0.00263962
0.00256151
-0.00269864
0.00267764
-0.00274236
0.00278057
-0.00277399
-0.00279596
0.00287264
1.23689e-05
-7.41543e-06
5.38964e-05
-0.000105619
0.000127693
-0.000268106
0.000235021
-0.000479624
0.000374861
-0.000726122
0.000543665
-0.000993508
0.000735559
-0.0012679
0.000942987
-0.00153645
0.00115766
-0.00178834
0.00137157
-0.00201557
0.00157783
-0.00221322
0.00177119
-0.0023794
0.00194828
-0.00251466
0.00210746
-0.00262138
0.00224862
-0.00270306
0.00237272
-0.00276372
0.00248148
-0.0028074
0.002577
-0.00283788
0.00266149
-0.00285848
-0.00287182
0.00273735
1.46949e-05
-2.21103e-05
6.24481e-05
-0.000153372
0.000145553
-0.000351211
0.000264065
-0.000598136
0.000415291
-0.000877348
0.000593717
-0.00117193
0.000791545
-0.00146573
0.000999743
-0.00174464
0.00120927
-0.00199787
0.00141219
-0.00221849
0.00160241
-0.00240344
0.00177595
-0.00255294
0.00193091
-0.00266962
0.00206711
-0.00275758
0.00218564
-0.0028216
0.00228842
-0.0028665
0.00237774
-0.00289671
0.00245598
-0.00291611
0.0025254
-0.00292791
-0.00293466
0.00258824
1.71712e-05
-3.92815e-05
7.13063e-05
-0.000207508
0.000163561
-0.000443466
0.000292424
-0.000726999
0.000453212
-0.00103814
0.000638302
-0.00135702
0.000838117
-0.00166554
0.00104256
-0.00194909
0.00124244
-0.00219775
0.00143051
-0.00240655
0.00160192
-0.00257485
0.00175424
-0.00270526
0.00188708
-0.00280246
0.00200154
-0.00287204
0.00209966
-0.00291972
0.00218392
-0.00295076
0.00225688
-0.00296967
0.00232092
-0.00298015
0.00237815
-0.00298514
-0.00298698
0.00243047
1.97581e-05
-5.90395e-05
8.0283e-05
-0.000268032
0.000181245
-0.000544428
0.000319209
-0.000864963
0.00048727
-0.0012062
0.000675711
-0.00154546
0.000873499
-0.00186333
0.00107004
-0.00214563
0.0012566
-0.00238431
0.00142712
-0.00257707
0.00157833
-0.00272606
0.00170938
-0.00283631
0.00182123
-0.00291431
0.00191598
-0.00296679
0.00199627
-0.00300001
0.00206484
-0.00301933
0.00212424
-0.00302907
0.00217667
-0.00303259
0.00222396
-0.00303243
-0.00303067
0.00226766
2.24068e-05
-8.14463e-05
8.91625e-05
-0.000334788
0.000198092
-0.000653357
0.000343526
-0.0010104
0.000516217
-0.00137889
0.000704547
-0.00173379
0.000896509
-0.00205529
0.00108162
-0.00233074
0.00125218
-0.00255487
0.00140366
-0.00272856
0.00153446
-0.00285685
0.00164517
-0.00294702
0.00173784
-0.00300698
0.00181524
-0.00304419
0.00188029
-0.00306506
0.00193572
-0.00307476
0.00198391
-0.00307725
0.00202676
-0.00307544
0.00206579
-0.00307147
-0.00306708
0.0021022
2.50602e-05
-0.000106507
9.77098e-05
-0.000407438
0.000213579
-0.000769226
0.00036453
-0.00116135
0.000538998
-0.00155336
0.000723825
-0.00191862
0.000906613
-0.00223808
0.00107759
-0.00250171
0.00123048
-0.00270777
0.00136247
-0.00286055
0.00147352
-0.0029679
0.00156545
-0.00303895
0.00164105
-0.00308259
0.00170345
-0.00310659
0.00175559
-0.0031172
0.00180003
-0.0031192
0.00183884
-0.00311606
0.00187363
-0.00311023
0.00190559
-0.00310344
-0.00309712
0.00193563
2.76549e-05
-0.000134161
0.000105681
-0.000485463
0.000227203
-0.000890749
0.00038148
-0.00131563
0.000554822
-0.0017267
0.000733023
-0.00209682
0.000903893
-0.00240895
0.00105886
-0.00265668
0.00119334
-0.00284225
0.00130621
-0.00297342
0.00139878
-0.00306047
0.00147376
-0.00311394
0.00153443
-0.00314325
0.00158396
-0.00315612
0.00162516
-0.0031584
0.0016603
-0.00315434
0.00169112
-0.00314688
0.00171892
-0.00313803
0.00174464
-0.00312915
-0.0031214
0.00176891
3.01233e-05
-0.000164285
0.000112833
-0.000568173
0.000238504
-0.00101642
0.000393787
-0.00147091
0.000563206
-0.00189612
0.00073207
-0.00226569
0.00088896
-0.00256584
0.00102685
-0.00279457
0.00114293
-0.00295833
0.0012376
-0.00306809
0.00131326
-0.00313612
0.00137321
-0.00317389
0.00142089
-0.00319094
0.00145939
-0.00319461
0.00149123
-0.00319023
0.00151835
-0.00318146
0.00154217
-0.00317071
0.00156373
-0.00315959
0.00158373
-0.00314914
-0.00314029
0.00160262
3.23968e-05
-0.000196682
0.00011894
-0.000654716
0.000247096
-0.00114458
0.000401045
-0.00162486
0.000563977
-0.00205905
0.000721299
-0.00242301
0.000862819
-0.00270736
0.00098326
-0.00291501
0.0010815
-0.00305657
0.00115923
-0.00314582
0.00121964
-0.00319653
0.00126636
-0.0032206
0.00130277
-0.00322735
0.00133172
-0.00322356
0.0013554
-0.00321392
0.00137544
-0.00320149
0.00139297
-0.00318824
0.00140877
-0.0031754
0.00142339
-0.00316376
-0.00315404
0.00143714
3.4409e-05
-0.000231091
0.000123802
-0.00074411
0.000252687
-0.00127346
0.000403043
-0.00177522
0.000557255
-0.00221326
0.000701365
-0.00256712
0.000826735
-0.00283273
0.00092988
-0.00301816
0.0010112
-0.00313789
0.00107342
-0.00320803
0.00112021
-0.00324332
0.00115527
-0.00325567
0.00118183
-0.0032539
0.00120239
-0.00324413
0.00121883
-0.00323036
0.00123245
-0.00321511
0.00124414
-0.00319993
0.00125451
-0.00318577
0.00126396
-0.0031732
-0.00316278
0.0012727
3.61019e-05
-0.000267192
0.000127264
-0.000835271
0.0002551
-0.0014013
0.000399774
-0.00191989
0.000543418
-0.0023569
0.000673166
-0.00269687
0.00078212
-0.00294168
0.000868516
-0.00310455
0.000934047
-0.00320342
0.000982172
-0.00325616
0.00101682
-0.00327797
0.00104159
-0.00328044
0.00105942
-0.00327173
0.00107249
-0.00325719
0.00108233
-0.0032402
0.00108998
-0.00322277
0.00109614
-0.0032061
0.00110128
-0.0031909
0.00110567
-0.0031776
-0.00316659
0.00110948
3.74151e-05
-0.000304608
0.00012919
-0.000927046
0.000254235
-0.00152634
0.000391365
-0.00205702
0.000522994
-0.00248853
0.00063769
-0.00281156
0.000730361
-0.00303435
0.000800807
-0.003175
0.000851754
-0.00325436
0.000887137
-0.00329154
0.00091093
-0.00330176
0.000926522
-0.00329604
0.000936507
-0.00328171
0.000942729
-0.00326342
0.000946432
-0.0032439
0.00094843
-0.00322476
0.000949258
-0.00320692
0.000949268
-0.00319091
0.000948678
-0.00317701
-0.00316551
0.000947598
3.83079e-05
-0.000342915
0.000129513
-0.00101825
0.000250123
-0.00164695
0.000378121
-0.00218502
0.000496679
-0.00260709
0.000596027
-0.00291091
0.00067284
-0.00311117
0.000728274
-0.00323043
0.000765827
-0.00329192
0.000789686
-0.0033154
0.000803716
-0.00331579
0.000811013
-0.00330333
0.000813824
-0.00328453
0.000813676
-0.00326327
0.000811557
-0.00324178
0.0008081
-0.00322131
0.000803714
-0.00320254
0.000798668
-0.00318586
0.000793131
-0.00317147
-0.00315956
0.00078718
3.8747e-05
-0.000381662
0.000128207
-0.00110771
0.000242879
-0.00176162
0.000360443
-0.00230258
0.000465228
-0.00271188
0.000549246
-0.00299493
0.000610822
-0.00317274
0.000652233
-0.00327184
0.000677509
-0.00331719
0.000690903
-0.0033288
0.000696066
-0.00332096
0.00069576
-0.00330303
0.000691895
-0.00328066
0.000685713
-0.00325709
0.000677988
-0.00323406
0.000669204
-0.00321252
0.000659675
-0.00319301
0.000649613
-0.0031758
0.000639146
-0.003161
-0.00314875
0.000628333
3.87115e-05
-0.000420374
0.000125288
-0.00119429
0.000232689
-0.00186902
0.000338804
-0.0024087
0.000429422
-0.00280249
0.000498364
-0.00306387
0.000545438
-0.00321982
0.000573804
-0.00330021
0.000587814
-0.0033312
0.000591643
-0.00333263
0.000588657
-0.00331797
0.000581278
-0.00329565
0.0005711
-0.00327048
0.000559119
-0.0032451
0.00054593
-0.00322087
0.000531902
-0.00319849
0.000517275
-0.00317838
0.000502215
-0.00316074
0.000486828
-0.00314562
-0.00313308
0.000471161
3.81922e-05
-0.000458566
0.000120813
-0.00127691
0.0002198
-0.00196801
0.000313718
-0.00250262
0.000390031
-0.00287881
0.00044432
-0.00311816
0.000477676
-0.00325317
0.000493924
-0.00331646
0.000497555
-0.00333483
0.000492565
-0.00332764
0.000481999
-0.00330741
0.000467944
-0.00328159
0.000451716
-0.00325426
0.000434096
-0.00322748
0.000415539
-0.00320231
0.000396319
-0.00317927
0.000376619
-0.00315868
0.000356573
-0.0031407
0.000336272
-0.00312532
-0.00311257
0.000315759
3.71917e-05
-0.000495758
0.000114871
-0.00135459
0.000204494
-0.00205763
0.00028571
-0.00258383
0.000347784
-0.00294088
0.000387952
-0.00315833
0.000408384
-0.00327361
0.000413363
-0.00332144
0.00040738
-0.00332885
0.00039418
-0.00331443
0.000376474
-0.0032897
0.000356038
-0.00326115
0.000333943
-0.00323216
0.000310796
-0.00320434
0.000286934
-0.00317845
0.000262555
-0.0031549
0.000237798
-0.00313393
0.000212774
-0.00311567
0.000187565
-0.00310011
-0.00308722
0.000162214
3.57229e-05
-0.000531481
0.000107579
-0.00142644
0.000187081
-0.00213714
0.000255301
-0.00265205
0.000303357
-0.00298894
0.000330001
-0.00318497
0.000338277
-0.00328188
0.000332749
-0.00331591
0.0003178
-0.0033139
0.000296878
-0.00329351
0.000272368
-0.00326519
0.000245765
-0.00323455
0.000217932
-0.00320433
0.000189331
-0.00317574
0.000160204
-0.00314932
0.000130689
-0.00312538
0.000100887
-0.00310413
7.08909e-05
-0.00308567
4.07797e-05
-0.00307
-0.00305704
1.06031e-05
3.38079e-05
-0.000565289
9.90707e-05
-0.00149171
0.000167876
-0.00220594
0.000222984
-0.00270716
0.000257361
-0.00302331
0.000271109
-0.00319872
0.000267952
-0.00327873
0.000252591
-0.00330055
0.000229216
-0.00329053
0.00020096
-0.00326526
0.000169899
-0.00323413
0.00013728
-0.00320193
0.000103792
-0.00317084
6.97844e-05
-0.00314173
3.542e-05
-0.00311496
7.84815e-07
-0.00309074
-3.40525e-05
-0.00306929
-6.90151e-05
-0.00305071
-0.000104019
-0.00303499
-0.00302205
-0.000139005
3.14765e-05
-0.000596765
8.94942e-05
-0.00154972
0.000147195
-0.00226364
0.000189226
-0.00274919
0.000210343
-0.00304443
0.000211827
-0.0032002
0.000197908
-0.00326481
0.000173299
-0.00327594
0.000141946
-0.00325917
0.000106661
-0.00322997
6.92342e-05
-0.0031967
3.07014e-05
-0.0031634
-8.38896e-06
-0.00313175
-4.77794e-05
-0.00310234
-8.73672e-05
-0.00307537
-0.000127113
-0.003051
-0.000166979
-0.00302942
-0.000206902
-0.00301079
-0.00024679
-0.0029951
-0.00298228
-0.000286565
2.8765e-05
-0.00062553
7.90038e-05
-0.00159996
0.000125345
-0.00230998
0.000154453
-0.0027783
0.000162785
-0.00305276
0.000152626
-0.00319004
0.000128558
-0.00324074
9.52107e-05
-0.00324259
5.62487e-05
-0.00322021
1.4172e-05
-0.0031879
-2.94878e-05
-0.00315304
-7.38724e-05
-0.00311902
-0.000118544
-0.00308708
-0.000163313
-0.00305757
-0.000208124
-0.00303056
-0.00025298
-0.00300614
-0.000297876
-0.00298453
-0.000342762
-0.0029659
-0.000387532
-0.00295033
-0.00293773
-0.000432084
2.57145e-05
-0.000651245
6.77566e-05
-0.001642
0.000102617
-0.00234484
0.000119055
-0.00279474
0.00011511
-0.00304882
9.39088e-05
-0.00316884
6.0249e-05
-0.00320708
1.86052e-05
-0.00320095
-2.76593e-05
-0.00317395
-7.63434e-05
-0.00313921
-0.000126145
-0.00310324
-0.000176352
-0.00306881
-0.00022661
-0.00303682
-0.000276777
-0.0030074
-0.000326832
-0.0029805
-0.000376815
-0.00295616
-0.000426757
-0.00293458
-0.000476629
-0.00291603
-0.000526309
-0.00290065
-0.00288838
-0.000575655
2.23698e-05
-0.000673615
5.59088e-05
-0.00167554
7.92861e-05
-0.00236822
8.33807e-05
-0.00279883
6.76895e-05
-0.00303313
3.60213e-05
-0.00313717
-6.72199e-06
-0.00316434
-5.62757e-05
-0.00315139
-0.000109586
-0.00312064
-0.000164732
-0.00308407
-0.000220613
-0.00304736
-0.000276641
-0.00301278
-0.000332519
-0.00298094
-0.000388131
-0.00295179
-0.000443476
-0.00292516
-0.000498626
-0.00290101
-0.000553656
-0.00287955
-0.000608567
-0.00286112
-0.000663228
-0.00284599
-0.00283418
-0.000717433
1.8778e-05
-0.000692393
4.36129e-05
-0.00170038
5.56073e-05
-0.00238022
4.77476e-05
-0.00279097
2.08498e-05
-0.00300623
-2.07354e-05
-0.00309559
-7.20956e-05
-0.00311298
-0.000129215
-0.00309427
-0.000189347
-0.00306051
-0.000250834
-0.00302258
-0.000312755
-0.00298544
-0.000374622
-0.00295091
-0.00043618
-0.00291938
-0.000497317
-0.00289065
-0.000558034
-0.00286444
-0.000618421
-0.00284063
-0.000678604
-0.00281937
-0.000738634
-0.00280109
-0.000798375
-0.00278625
-0.00277503
-0.000857527
1.4988e-05
-0.000707381
3.10157e-05
-0.00171641
3.18163e-05
-0.00238102
1.24381e-05
-0.00277159
-2.51213e-05
-0.00296867
-7.60959e-05
-0.00304461
-0.000135638
-0.00305343
-0.000200005
-0.00302991
-0.000266755
-0.00299376
-0.000334472
-0.00295486
-0.000402399
-0.00291751
-0.000470137
-0.00288318
-0.000537459
-0.00285206
-0.000604244
-0.00282387
-0.000670466
-0.00279822
-0.00073621
-0.00277488
-0.000801643
-0.00275394
-0.000866883
-0.00273585
-0.000931806
-0.00272133
-0.00271086
-0.00099597
1.10487e-05
-0.000718429
1.8257e-05
-0.00172361
8.1288e-06
-0.00237089
-2.22949e-05
-0.00274117
-6.99691e-05
-0.00292099
-0.000129823
-0.00298476
-0.000197133
-0.00298612
-0.000268445
-0.00295859
-0.000341607
-0.00292059
-0.000415434
-0.00288103
-0.000489322
-0.00284362
-0.000562956
-0.00280954
-0.000636143
-0.00277887
-0.000708742
-0.00275127
-0.00078068
-0.00272628
-0.000851996
-0.00270356
-0.000922867
-0.00268307
-0.000993488
-0.00266523
-0.00106377
-0.00265105
-0.00264148
-0.00113315
7.00884e-06
-0.000725438
5.46754e-06
-0.00172207
-1.52597e-05
-0.00235016
-5.62267e-05
-0.0027002
-0.000113469
-0.00286375
-0.000181704
-0.00291653
-0.000256378
-0.00291145
-0.000334328
-0.00288064
-0.000413683
-0.00284124
-0.000493473
-0.00280125
-0.00057324
-0.00276386
-0.000652764
-0.00273002
-0.000731902
-0.00269974
-0.000810509
-0.00267266
-0.000888459
-0.00264833
-0.000965714
-0.00262631
-0.00104243
-0.00260635
-0.00111888
-0.00258877
-0.00119507
-0.00257487
-0.00256592
-0.00127062
2.91551e-06
-0.000728354
-7.23187e-06
-0.00171193
-3.81745e-05
-0.00231922
-8.91603e-05
-0.00264922
-0.000155422
-0.00279749
-0.000231548
-0.0028404
-0.000313179
-0.00282982
-0.000397447
-0.00279638
-0.000482743
-0.00275594
-0.000568299
-0.00271569
-0.000653804
-0.00267835
-0.000739151
-0.00264467
-0.000824277
-0.00261461
-0.000909081
-0.00258786
-0.000993417
-0.002564
-0.00107717
-0.00254255
-0.00116045
-0.00252308
-0.00124365
-0.00250557
-0.00132699
-0.00249153
-0.00248185
-0.00141106
-1.18675e-06
-0.000727167
-1.97323e-05
-0.00169338
-6.04631e-05
-0.00227849
-0.000120927
-0.00258875
-0.000195662
-0.00272275
-0.000279187
-0.00275687
-0.00036736
-0.00274165
-0.000457593
-0.00270614
-0.000548525
-0.00266501
-0.000639571
-0.00262464
-0.00073057
-0.00258735
-0.00082155
-0.00255369
-0.000912585
-0.00252357
-0.00100371
-0.00249673
-0.00109488
-0.00247283
-0.00118598
-0.00245146
-0.00127701
-0.00243204
-0.00136835
-0.00241424
-0.00146056
-0.00239931
-0.00238601
-0.0015564
-5.25706e-06
-0.00072191
-3.19382e-05
-0.0016667
-8.19963e-05
-0.00222843
-0.000151389
-0.00251936
-0.000234053
-0.00264009
-0.000324487
-0.00266644
-0.000418772
-0.00264736
-0.000514581
-0.00261033
-0.000610767
-0.00256882
-0.000706906
-0.0025285
-0.000802964
-0.00249129
-0.000899103
-0.00245755
-0.000995584
-0.00242709
-0.0010927
-0.00239961
-0.00119074
-0.00237479
-0.00128991
-0.00235229
-0.00139032
-0.00233163
-0.00149255
-0.00231201
-0.0015989
-0.00229296
-0.00228612
-0.00169879
-9.24673e-06
-0.000712663
-4.37488e-05
-0.0016322
-0.000102647
-0.00216953
-0.000180417
-0.00244159
-0.000270477
-0.00255003
-0.000367339
-0.00256958
-0.000467302
-0.0025474