/*--------------------------------*- C++ -*----------------------------------*\
  =========                 |
  \\      /  F ield         | OpenFOAM: The Open Source CFD Toolbox
   \\    /   O peration     | Website:  https://openfoam.org
    \\  /    A nd           | Version:  6.0
     \\/     M anipulation  |
\*---------------------------------------------------------------------------*/
FoamFile
{
    version     2.0;
    format      ascii;
    class       volVectorField;
    location    "112";
    object      U;
}
// * * * * * * * * * * * * * * * * * * * * * * * * * * * * * * * * * * * * * //

dimensions      [0 1 -1 0 0 0 0];

internalField   nonuniform List<vector> 
12500
(
(0.00111535 -0.0553548 -1.59265e-21)
(0.00297767 -0.141239 2.15138e-20)
(0.00397378 -0.206653 -3.12288e-20)
(0.00369039 -0.254846 1.43715e-20)
(0.00216817 -0.288885 8.96042e-22)
(-0.000348767 -0.311635 -1.85572e-21)
(-0.00353411 -0.325635 -2.64438e-20)
(-0.00704488 -0.33302 1.45969e-20)
(-0.0105641 -0.335496 9.61042e-21)
(-0.0138239 -0.334363 9.86822e-21)
(-0.0166132 -0.330554 -1.67886e-20)
(-0.0187785 -0.324705 9.83315e-21)
(-0.0202179 -0.317212 -4.65839e-21)
(-0.0208753 -0.308299 7.90827e-21)
(-0.0207328 -0.298075 -2.03866e-20)
(-0.0198047 -0.286576 2.98715e-20)
(-0.0181306 -0.273808 -5.7697e-21)
(-0.0157707 -0.259774 -2.1218e-20)
(-0.0128019 -0.244498 1.08111e-20)
(-0.00931153 -0.228028 -1.04326e-20)
(-0.00537981 -0.21045 9.46338e-21)
(-0.00107654 -0.191877 1.28262e-20)
(0.00339583 -0.172443 1.31371e-21)
(0.00756927 -0.152278 -3.67182e-20)
(0.0121636 -0.131436 2.03306e-20)
(0.00268897 -0.055497 2.68156e-20)
(0.006476 -0.140884 -7.22775e-20)
(0.0081393 -0.205408 2.16025e-20)
(0.00773247 -0.2526 1.43624e-20)
(0.005585 -0.285732 -1.15575e-20)
(0.00213572 -0.307793 -6.53744e-20)
(-0.00214291 -0.321388 1.95751e-20)
(-0.00680565 -0.328667 -3.68917e-20)
(-0.0114694 -0.331324 4.44883e-20)
(-0.0158269 -0.330625 -5.96893e-20)
(-0.0196477 -0.327464 3.22462e-20)
(-0.0227722 -0.32243 1.02336e-20)
(-0.0251022 -0.315877 -2.64948e-20)
(-0.0265915 -0.307987 -1.20526e-20)
(-0.0272366 -0.298827 8.66094e-20)
(-0.0270685 -0.288401 -7.70314e-20)
(-0.0261455 -0.276678 1.82389e-20)
(-0.0245476 -0.263635 3.21039e-20)
(-0.0223716 -0.249267 -7.97965e-21)
(-0.019724 -0.233605 5.31987e-20)
(-0.0167034 -0.216718 9.66256e-21)
(-0.0133976 -0.19871 -2.64655e-21)
(-0.0100132 -0.179719 -6.74161e-20)
(-0.00697826 -0.159887 6.31844e-20)
(-0.00362726 -0.139254 -1.25499e-19)
(0.00422947 -0.0551868 8.46612e-20)
(0.00983829 -0.139479 2.95824e-20)
(0.0120564 -0.202765 -3.82712e-20)
(0.0114361 -0.248795 1.62412e-20)
(0.00860843 -0.280985 1.59487e-20)
(0.00420934 -0.302413 5.97674e-20)
(-0.00114478 -0.315711 -7.59051e-20)
(-0.00691092 -0.323023 -1.18901e-20)
(-0.0126447 -0.326012 -5.10413e-20)
(-0.0180041 -0.325901 -4.30101e-20)
(-0.0227426 -0.323535 5.656e-20)
(-0.0266974 -0.319455 -1.88445e-19)
(-0.0297761 -0.313968 -5.51759e-21)
(-0.0319441 -0.307213 -1.1403e-19)
(-0.0332137 -0.299216 -1.36021e-20)
(-0.0336341 -0.289941 1.66626e-20)
(-0.0332841 -0.279324 -8.95984e-20)
(-0.0322653 -0.267308 -5.63182e-20)
(-0.0306959 -0.25386 -6.75607e-20)
(-0.0287038 -0.23899 1.0668e-19)
(-0.0264082 -0.222752 3.99694e-20)
(-0.0239167 -0.205244 -1.72694e-19)
(-0.021439 -0.186612 -8.4385e-20)
(-0.0193638 -0.167014 -9.39602e-20)
(-0.0171027 -0.146498 2.69623e-19)
(0.00569708 -0.0544105 -3.57931e-21)
(0.012978 -0.13701 -6.77107e-20)
(0.0156192 -0.198731 -3.1138e-20)
(0.0146922 -0.243457 1.92172e-20)
(0.0111339 -0.274692 1.25892e-19)
(0.00577516 -0.295553 -5.77808e-20)
(-0.000629667 -0.308672 1.22226e-19)
(-0.00744618 -0.316161 1.16333e-19)
(-0.0141746 -0.319635 7.1535e-20)
(-0.0204426 -0.320265 -1.54045e-21)
(-0.0259907 -0.318842 1.45391e-19)
(-0.0306551 -0.315856 2.49907e-20)
(-0.0343503 -0.311564 1.11789e-19)
(-0.0370539 -0.30606 2.57572e-19)
(-0.0387944 -0.299328 -3.00027e-19)
(-0.0396401 -0.291291 4.52433e-19)
(-0.0396911 -0.281847 9.93333e-20)
(-0.0390714 -0.270903 -2.17296e-19)
(-0.0379228 -0.258397 -3.19486e-20)
(-0.036396 -0.244314 8.12466e-20)
(-0.034633 -0.228691 -3.9663e-20)
(-0.0327633 -0.211624 -2.28417e-20)
(-0.0310002 -0.193265 -2.30324e-20)
(-0.0296962 -0.1738 -9.45427e-20)
(-0.0283552 -0.1533 3.5543e-19)
(0.00705106 -0.0531611 4.24415e-20)
(0.0158097 -0.133481 -2.0734e-19)
(0.0187264 -0.193328 2.5197e-19)
(0.0173992 -0.236626 -1.01595e-19)
(0.0130677 -0.266906 1.20732e-19)
(0.0067489 -0.287279 9.79759e-20)
(-0.000673549 -0.300339 3.73865e-20)
(-0.00848239 -0.308146 2.4932e-22)
(-0.016129 -0.312256 2.13525e-19)
(-0.0232155 -0.313777 1.47616e-19)
(-0.0294723 -0.313442 -6.14465e-20)
(-0.0347356 -0.311687 -3.96575e-20)
(-0.0389269 -0.308722 1.6284e-19)
(-0.0420358 -0.304591 3.10411e-20)
(-0.0441064 -0.299236 8.28154e-20)
(-0.0452256 -0.292536 2.02327e-19)
(-0.0455147 -0.284348 -1.78154e-19)
(-0.045121 -0.27454 1.45801e-19)
(-0.0442108 -0.263016 -3.08881e-19)
(-0.0429596 -0.24973 2.60777e-19)
(-0.0415346 -0.234706 1.32862e-21)
(-0.0400893 -0.21803 -2.06765e-19)
(-0.0388421 -0.19987 8.61792e-20)
(-0.038115 -0.180437 1.93145e-19)
(-0.0375142 -0.159846 -3.01877e-19)
(0.00825082 -0.0514392 2.1593e-19)
(0.018251 -0.12891 -2.38184e-19)
(0.0212847 -0.186594 -4.04165e-20)
(0.0194686 -0.228359 4.81313e-20)
(0.0143323 -0.257695 -1.0725e-19)
(0.007066 -0.277659 -1.69208e-19)
(-0.00133029 -0.290778 -1.40393e-19)
(-0.0100665 -0.299039 -3.41832e-20)
(-0.0185527 -0.303925 -2.45829e-19)
(-0.02637 -0.306477 1.91808e-19)
(-0.0332411 -0.30737 -3.04781e-19)
(-0.0390029 -0.306983 1.52687e-19)
(-0.0435833 -0.305476 -5.40761e-20)
(-0.0469822 -0.302848 1.20038e-19)
(-0.0492575 -0.298993 -3.02131e-19)
(-0.0505134 -0.293745 1.43305e-19)
(-0.0508912 -0.286917 8.95834e-21)
(-0.0505614 -0.278332 6.52189e-20)
(-0.0497154 -0.267853 3.94738e-19)
(-0.0485553 -0.255405 8.4855e-20)
(-0.0472759 -0.240985 -9.99328e-21)
(-0.0460575 -0.224676 2.45153e-20)
(-0.0451267 -0.206653 1.66216e-19)
(-0.0447826 -0.187159 4.53355e-20)
(-0.0447394 -0.166365 1.62249e-19)
(0.00925735 -0.049254 -1.34869e-19)
(0.0202267 -0.123333 1.98579e-19)
(0.0232134 -0.178588 1.19454e-20)
(0.0208296 -0.218728 -2.44866e-19)
(0.0148731 -0.247134 5.12743e-19)
(0.0066882 -0.266766 -1.68225e-19)
(-0.00262406 -0.280052 2.44084e-19)
(-0.0122128 -0.288888 2.26078e-19)
(-0.0214547 -0.294677 -1.88184e-19)
(-0.0299151 -0.298389 -2.74658e-19)
(-0.037311 -0.300636 7.48935e-20)
(-0.0434802 -0.301745 -7.88595e-20)
(-0.0483554 -0.301827 -3.53849e-19)
(-0.0519446 -0.300835 4.2761e-19)
(-0.0543166 -0.298615 -2.05674e-19)
(-0.0555901 -0.294953 -1.4325e-19)
(-0.0559244 -0.289612 -1.58621e-21)
(-0.0555116 -0.282367 1.13333e-19)
(-0.0545687 -0.273034 4.86752e-20)
(-0.0533254 -0.261496 -1.908e-19)
(-0.0520072 -0.247723 2.11339e-19)
(-0.0508241 -0.231784 -3.77138e-19)
(-0.050015 -0.213861 2.27289e-19)
(-0.0498659 -0.194227 -1.78255e-19)
(-0.0502034 -0.173125 5.07623e-20)
(0.0100347 -0.0466247 1.88144e-19)
(0.021671 -0.116803 -1.50742e-19)
(0.0244488 -0.169387 -9.75277e-20)
(0.0214343 -0.207823 -1.72276e-19)
(0.0146629 -0.235315 -3.18352e-19)
(0.00560942 -0.254681 -2.37518e-19)
(-0.00454258 -0.268226 1.46438e-19)
(-0.0148946 -0.277739 -2.23945e-19)
(-0.024799 -0.284534 2.86643e-19)
(-0.0338102 -0.289509 -4.6784e-19)
(-0.041642 -0.293219 2.08425e-19)
(-0.0481329 -0.295938 4.42946e-19)
(-0.0532186 -0.297732 -6.22905e-19)
(-0.0569122 -0.298507 8.8558e-20)
(-0.0592899 -0.298066 1.15172e-19)
(-0.0604806 -0.296141 1.13493e-19)
(-0.0606584 -0.292443 -1.24002e-19)
(-0.0600348 -0.28669 -3.29958e-20)
(-0.058851 -0.278642 -8.68152e-20)
(-0.0573655 -0.268132 -7.6063e-20)
(-0.0558368 -0.255092 -4.0413e-19)
(-0.0545084 -0.239568 -2.58371e-20)
(-0.0536368 -0.221743 3.05667e-21)
(-0.0535067 -0.201916 -1.85229e-19)
(-0.0540616 -0.18041 1.9885e-19)
(0.0105519 -0.0435816 4.30876e-21)
(0.022532 -0.109398 6.20345e-20)
(0.0249478 -0.159092 6.35567e-20)
(0.0212615 -0.195751 3.92944e-20)
(0.0137066 -0.222338 3.19173e-19)
(0.00386044 -0.241491 2.99827e-19)
(-0.00703163 -0.255363 -2.4629e-19)
(-0.0180379 -0.265627 -7.29523e-20)
(-0.0284959 -0.273502 -6.67682e-20)
(-0.0379546 -0.279817 3.47159e-19)
(-0.0461272 -0.285069 1.23375e-19)
(-0.0528527 -0.289488 -1.83488e-19)
(-0.0580684 -0.293098 -1.53801e-19)
(-0.0617892 -0.295765 3.72908e-19)
(-0.0640942 -0.297245 -9.17895e-20)
(-0.0651184 -0.297221 -1.10153e-19)
(-0.0650456 -0.295344 -1.55354e-19)
(-0.0641032 -0.291269 -1.19614e-19)
(-0.0625542 -0.28469 -1.51289e-19)
(-0.0606858 -0.275377 -9.9708e-20)
(-0.0587916 -0.263209 4.14562e-19)
(-0.0571525 -0.248199 -2.01716e-19)
(-0.056049 -0.230514 1.35728e-19)
(-0.0557778 -0.210476 -3.5808e-19)
(-0.0564088 -0.188492 1.58599e-19)
(0.0107847 -0.0401671 -1.64507e-19)
(0.0227744 -0.101213 -4.34625e-20)
(0.024692 -0.147826 -3.50875e-19)
(0.0203204 -0.182641 -1.67836e-19)
(0.0120442 -0.208324 -3.36734e-19)
(0.0015118 -0.227293 -3.55462e-20)
(-0.00999184 -0.241534 1.82677e-19)
(-0.0215172 -0.252588 -1.09686e-19)
(-0.0323966 -0.261581 2.41518e-19)
(-0.0421798 -0.269272 -5.87464e-19)
(-0.0505819 -0.276108 -1.63225e-20)
(-0.0574438 -0.282281 1.04758e-19)
(-0.0627026 -0.287781 -1.33346e-19)
(-0.0663724 -0.292439 1.20953e-19)
(-0.0685312 -0.295971 -9.09169e-20)
(-0.0693148 -0.29801 -1.94812e-19)
(-0.0689116 -0.298147 3.56448e-19)
(-0.0675594 -0.295966 2.19561e-19)
(-0.0655394 -0.291082 -4.52036e-20)
(-0.0631661 -0.28319 1.41588e-19)
(-0.0607695 -0.272095 -2.80724e-19)
(-0.0586717 -0.257758 4.03612e-19)
(-0.0571838 -0.240315 -5.51513e-19)
(-0.0566297 -0.220094 1.16548e-19)
(-0.0572231 -0.197593 -2.23824e-19)
(0.0107177 -0.0364358 8.58536e-21)
(0.0223829 -0.0923693 -1.45327e-19)
(0.0236898 -0.135738 2.24267e-19)
(0.0186518 -0.168645 4.62005e-19)
(0.00975129 -0.19341 -5.99505e-21)
(-0.00132576 -0.212202 5.27284e-20)
(-0.0132784 -0.226817 -2.00045e-19)
(-0.0251546 -0.238662 9.60248e-20)
(-0.0362916 -0.248766 6.52185e-19)
(-0.0462462 -0.257824 -1.4897e-19)
(-0.054739 -0.266238 -1.7479e-19)
(-0.0616142 -0.274171 6.65043e-19)
(-0.0668089 -0.281588 2.14384e-19)
(-0.0703345 -0.288296 1.02262e-19)
(-0.0722647 -0.293977 1.02729e-19)
(-0.0727312 -0.298222 2.85511e-19)
(-0.0719216 -0.300562 -1.10221e-19)
(-0.0700779 -0.300504 2.82578e-19)
(-0.0674943 -0.297578 3.82608e-19)
(-0.0645091 -0.29138 -3.29062e-19)
(-0.0614889 -0.281624 4.82918e-19)
(-0.0588007 -0.268189 1.64731e-19)
(-0.0567924 -0.251158 -6.39024e-19)
(-0.0558311 -0.230842 9.14534e-19)
(-0.0563038 -0.207825 -7.86364e-19)
(0.0103461 -0.0324551 -4.00062e-19)
(0.0213649 -0.0830094 2.32242e-19)
(0.0219784 -0.122999 -1.55877e-19)
(0.0163288 -0.153938 -1.51083e-19)
(0.00693843 -0.177755 -1.60751e-19)
(-0.00450381 -0.196346 -1.77483e-19)
(-0.0167042 -0.211308 4.95595e-20)
(-0.0287238 -0.223902 4.65886e-19)
(-0.0399145 -0.235064 -1.02089e-19)
(-0.0498462 -0.245426 -2.62128e-19)
(-0.05825 -0.255355 -1.58897e-19)
(-0.0649756 -0.264993 -6.63157e-20)
(-0.0699617 -0.274292 1.87932e-19)
(-0.0732167 -0.283046 -1.23875e-19)
(-0.0748087 -0.290918 -4.01152e-19)
(-0.0748619 -0.297465 -4.38097e-19)
(-0.0735577 -0.302163 1.73402e-19)
(-0.0711364 -0.304449 -3.22484e-19)
(-0.0678985 -0.303753 2.69325e-19)
(-0.064201 -0.299561 -7.71094e-19)
(-0.0604455 -0.291467 5.84114e-19)
(-0.0570462 -0.279239 -7.64946e-19)
(-0.0543936 -0.262866 -1.1388e-20)
(-0.0529132 -0.24261 -2.51258e-19)
(-0.0532107 -0.219135 7.81156e-19)
(0.00967675 -0.0283032 6.10867e-19)
(0.0197513 -0.0732961 9.27779e-20)
(0.0196235 -0.109805 -6.06005e-20)
(0.0134543 -0.138715 -2.72425e-20)
(0.00374678 -0.161539 4.94093e-19)
(-0.00784176 -0.179881 1.60912e-19)
(-0.0200474 -0.195123 1.45608e-19)
(-0.0319587 -0.208384 -1.18515e-19)
(-0.0429517 -0.220502 4.58288e-19)
(-0.0526159 -0.232052 -2.28169e-19)
(-0.0606971 -0.24337 1.4814e-19)
(-0.0670549 -0.254586 3.70359e-19)
(-0.0716322 -0.265655 -2.12319e-19)
(-0.074437 -0.27637 2.25211e-19)
(-0.0755322 -0.28639 2.1173e-19)
(-0.0750338 -0.295254 7.34285e-20)
(-0.0731137 -0.302401 -1.76077e-19)
(-0.0700049 -0.3072 4.8516e-19)
(-0.0660073 -0.308987 -4.55342e-20)
(-0.06149 -0.307121 -4.90883e-20)
(-0.0568856 -0.301054 5.58559e-19)
(-0.0526562 -0.290402 -3.89941e-19)
(-0.0492387 -0.275013 6.47785e-19)
(-0.0471306 -0.255048 -5.29255e-19)
(-0.0472183 -0.231236 7.18742e-19)
(0.00872925 -0.0240675 -2.89695e-19)
(0.0175972 -0.0634088 6.63251e-20)
(0.0167177 -0.0963708 -6.87444e-20)
(0.0101575 -0.123195 -3.40708e-19)
(0.000342213 -0.144967 1.93949e-20)
(-0.0111353 -0.162983 1.93987e-19)
(-0.0230621 -0.178411 -7.99808e-19)
(-0.0345672 -0.192217 5.98286e-19)
(-0.0450592 -0.205144 -5.85746e-19)
(-0.0541534 -0.217711 -3.71571e-19)
(-0.0616151 -0.23023 3.30877e-19)
(-0.0673182 -0.242828 -7.14979e-19)
(-0.071215 -0.255466 6.00437e-19)
(-0.073317 -0.267958 -1.93393e-19)
(-0.0736861 -0.279976 -5.42486e-19)
(-0.0724319 -0.291061 1.33793e-19)
(-0.0697168 -0.300636 -1.27665e-19)
(-0.0657634 -0.308022 4.44259e-20)
(-0.0608648 -0.312471 -1.68507e-19)
(-0.0553946 -0.313215 -5.27138e-19)
(-0.0498102 -0.309543 1.21081e-19)
(-0.0446198 -0.300882 -5.73367e-21)
(-0.0403072 -0.286875 -5.00715e-19)
(-0.0374513 -0.267514 3.49004e-19)
(-0.037299 -0.243557 -3.22374e-19)
(0.0075357 -0.019841 1.15902e-19)
(0.0149808 -0.0535381 2.22135e-19)
(0.0133769 -0.0829248 3.1707e-19)
(0.00658829 -0.107615 1.63096e-19)
(-0.00309272 -0.128263 -1.6258e-19)
(-0.0141672 -0.145859 3.89573e-19)
(-0.0254919 -0.16135 2.90581e-19)
(-0.0362481 -0.175549 -1.07756e-19)
(-0.0458841 -0.189103 3.79895e-19)
(-0.0540458 -0.202474 -3.92274e-19)
(-0.060523 -0.21595 -1.15924e-19)
(-0.0652091 -0.229661 1.17658e-19)
(-0.0680709 -0.243586 2.2792e-19)
(-0.0691306 -0.257566 3.81821e-21)
(-0.068455 -0.271307 1.4085e-19)
(-0.0661536 -0.284376 2.604e-19)
(-0.062383 -0.296208 -4.39913e-19)
(-0.0573559 -0.306107 5.39493e-19)
(-0.0513553 -0.313264 1.6957e-19)
(-0.0447516 -0.316802 5.10061e-20)
(-0.0380195 -0.31584 -6.11794e-19)
(-0.0317082 -0.309584 8.56124e-20)
(-0.0263445 -0.297407 1.31398e-19)
(-0.02259 -0.279036 -2.93206e-20)
(-0.0221465 -0.255208 1.57514e-19)
(0.00613968 -0.0157185 8.14383e-21)
(0.0119998 -0.043879 -5.71698e-19)
(0.00973606 -0.0697047 -1.64174e-20)
(0.00291007 -0.0922222 -1.46877e-19)
(-0.00636791 -0.111672 -9.74864e-19)
(-0.0167189 -0.128741 8.46886e-19)
(-0.0270855 -0.144154 -6.05999e-19)
(-0.0367108 -0.158575 -3.21482e-20)
(-0.0450884 -0.172548 -2.88165e-19)
(-0.0518996 -0.186479 4.98324e-19)
(-0.0569625 -0.200631 -5.36701e-19)
(-0.0601942 -0.215134 -2.50346e-19)
(-0.0615828 -0.229989 3.81636e-21)
(-0.0611683 -0.245073 -5.32536e-19)
(-0.0590315 -0.260139 7.24094e-19)
(-0.0552907 -0.274804 -8.27332e-19)
(-0.0501047 -0.288544 5.08358e-21)
(-0.0436819 -0.300684 1.24577e-19)
(-0.0362956 -0.310401 -2.9841e-19)
(-0.0283086 -0.316739 2.81132e-19)
(-0.0202037 -0.31867 -3.9928e-19)
(-0.0125637 -0.315166 -2.4912e-19)
(-0.00594816 -0.30527 4.49402e-19)
(-0.00109077 -0.28833 -4.81102e-19)
(-0.000248482 -0.26498 8.35558e-22)
(0.00459428 -0.0117917 -4.60175e-19)
(0.00876817 -0.0346226 5.52428e-19)
(0.00594265 -0.0569475 -1.72858e-19)
(-0.000707284 -0.0772725 3.35172e-19)
(-0.00929476 -0.0954521 3.65093e-19)
(-0.0185819 -0.111882 -3.23554e-19)
(-0.0276104 -0.127072 -2.13711e-19)
(-0.0356929 -0.141533 -2.58739e-19)
(-0.0423734 -0.155709 2.37899e-19)
(-0.0473711 -0.169944 -1.68928e-20)
(-0.0505356 -0.184471 3.47109e-19)
(-0.0518122 -0.199416 3.4119e-19)
(-0.0512155 -0.214799 -4.03806e-19)
(-0.0488108 -0.230533 7.88555e-19)
(-0.0447026 -0.246425 -5.18128e-19)
(-0.0390289 -0.262158 -8.11447e-20)
(-0.0319626 -0.277278 9.76282e-19)
(-0.0237179 -0.291172 -4.52649e-19)
(-0.0145645 -0.30305 2.72557e-19)
(-0.00485669 -0.311943 5.18016e-19)
(0.00492196 -0.316724 -3.34104e-19)
(0.0141652 -0.316155 3.83061e-20)
(0.0222954 -0.308918 -2.1529e-20)
(0.0285363 -0.293862 -1.10794e-19)
(0.0299859 -0.271402 2.45655e-19)
(0.00295928 -0.0081443 1.0393e-19)
(0.00540996 -0.0259476 -3.48179e-19)
(0.00215073 -0.044881 1.91014e-19)
(-0.00409473 -0.0630172 -2.70336e-21)
(-0.0116942 -0.0798655 1.47214e-19)
(-0.0195671 -0.0955493 -2.5499e-19)
(-0.0268646 -0.110374 1.46974e-19)
(-0.0329754 -0.1247 4.02263e-19)
(-0.037497 -0.13887 -1.21541e-20)
(-0.0401894 -0.15316 -2.05616e-19)
(-0.040936 -0.167766 2.05908e-19)
(-0.0397132 -0.182803 -6.22806e-21)
(-0.0365666 -0.1983 -6.48838e-19)
(-0.0315932 -0.214202 2.41031e-19)
(-0.0249297 -0.230366 5.28293e-20)
(-0.0167456 -0.246544 -8.72222e-20)
(-0.0072406 -0.26237 -1.5268e-19)
(0.00335152 -0.277326 5.98682e-19)
(0.0147531 -0.290711 1.34285e-19)
(0.0266137 -0.301611 -2.98201e-19)
(0.0384532 -0.308886 -3.28923e-20)
(0.0496518 -0.311163 3.70348e-19)
(0.0596329 -0.306779 -1.7444e-19)
(0.0676296 -0.293993 6.71536e-20)
(0.0700439 -0.272863 4.52857e-20)
(0.00129767 -0.00484766 -2.08612e-19)
(0.00205388 -0.0180117 2.17307e-19)
(-0.00148565 -0.0337141 -1.23632e-19)
(-0.00709014 -0.0496952 -4.00061e-19)
(-0.0134026 -0.0651699 -3.72022e-19)
(-0.0195105 -0.0800155 -1.65074e-19)
(-0.0246828 -0.0943458 -1.38559e-19)
(-0.0283889 -0.108378 -4.10328e-19)
(-0.0302833 -0.122351 -1.66458e-19)
(-0.0301688 -0.13647 1.52184e-19)
(-0.0279645 -0.150887 -2.17408e-19)
(-0.0236803 -0.165695 -2.28936e-19)
(-0.0173957 -0.180921 -2.13005e-19)
(-0.00924441 -0.196528 3.79225e-19)
(0.00059792 -0.212411 -7.99503e-19)
(0.0119213 -0.228385 4.4351e-19)
(0.0244863 -0.244169 -7.52904e-19)
(0.0380254 -0.259358 -1.1119e-19)
(0.0522378 -0.27338 -3.88287e-19)
(0.066766 -0.285445 -8.30301e-20)
(0.0811331 -0.294501 -1.05124e-19)
(0.0947132 -0.299162 -3.28072e-19)
(0.106949 -0.297518 -2.4638e-20)
(0.11716 -0.287215 1.79317e-19)
(0.121079 -0.267809 -4.79708e-19)
(-0.000328043 -0.00195676 1.77914e-19)
(-0.00117312 -0.0109444 2.42977e-19)
(-0.00481819 -0.023627 8.65296e-19)
(-0.00954274 -0.0375222 -1.52935e-19)
(-0.0142745 -0.0516069 3.67578e-19)
(-0.0182753 -0.0655433 8.83702e-19)
(-0.0209367 -0.0792716 -2.42138e-19)
(-0.0218136 -0.0928746 3.29726e-19)
(-0.0206205 -0.106488 1.92888e-19)
(-0.0172054 -0.120245 3.50421e-19)
(-0.0115254 -0.134248 -6.97345e-20)
(-0.00362572 -0.148556 4.82447e-20)
(0.00637759 -0.163184 -1.17138e-19)
(0.0183115 -0.178095 6.55508e-19)
(0.0319566 -0.193205 8.63013e-20)
(0.0470559 -0.208374 5.87868e-19)
(0.0633213 -0.22339 -1.44281e-19)
(0.080438 -0.237952 5.12267e-19)
(0.0980663 -0.251631 6.38549e-20)
(0.115827 -0.263807 2.38855e-19)
(0.133239 -0.273607 -9.41359e-20)
(0.149674 -0.27978 -1.2448e-21)
(0.164603 -0.280348 5.03254e-19)
(0.177529 -0.27243 2.77959e-19)
(0.183672 -0.254985 -1.21545e-19)
(-0.00185952 0.000492128 -4.33132e-19)
(-0.00415152 -0.00484086 -4.59189e-19)
(-0.00770903 -0.0147643 -4.85392e-19)
(-0.0113157 -0.026681 1.7863e-19)
(-0.0141829 -0.0393899 -3.63143e-19)
(-0.0157482 -0.052373 -5.46882e-20)
(-0.0155291 -0.0654175 -1.44541e-19)
(-0.0131696 -0.0784827 -6.02354e-19)
(-0.00844779 -0.0916079 -9.39412e-20)
(-0.00126001 -0.104852 1.5504e-19)
(0.00839589 -0.118263 -4.85052e-19)
(0.0204367 -0.131862 6.72765e-19)
(0.0347076 -0.145636 -9.07601e-19)
(0.0509937 -0.159539 2.15217e-19)
(0.0690296 -0.173488 -5.45911e-19)
(0.0885077 -0.18736 -4.32171e-19)
(0.109085 -0.20099 -2.14144e-20)
(0.130391 -0.214155 -5.74171e-20)
(0.152034 -0.226546 5.31619e-20)
(0.173594 -0.237719 -2.16817e-19)
(0.194574 -0.247032 -1.42758e-19)
(0.214339 -0.253498 1.6352e-19)
(0.232382 -0.255303 -4.38385e-19)
(0.248486 -0.249257 1.35548e-19)
(0.257684 -0.233725 8.55626e-20)
(-0.00324572 0.00248253 -7.71381e-20)
(-0.00677401 0.00024116 -1.3363e-19)
(-0.0100339 -0.00722766 5.22114e-19)
(-0.0122864 -0.0173129 1.96331e-19)
(-0.0130161 -0.028694 2.62103e-19)
(-0.0118332 -0.0407087 -3.52225e-19)
(-0.00838289 -0.0530149 5.36041e-22)
(-0.00240132 -0.0654621 -2.883e-19)
(0.00626601 -0.0779997 5.35193e-19)
(0.01767 -0.0906161 1.74464e-19)
(0.0317681 -0.103303 1.93569e-19)
(0.0484356 -0.116039 -7.77918e-19)
(0.0674757 -0.128779 9.5118e-19)
(0.0886292 -0.141454 -2.86671e-19)
(0.111583 -0.153966 -1.99568e-19)
(0.135976 -0.166194 5.89764e-19)
(0.16141 -0.177985 2.51559e-19)
(0.187452 -0.189159 -6.34231e-19)
(0.213648 -0.199488 -2.44083e-19)
(0.239525 -0.208666 7.42167e-19)
(0.264555 -0.216272 -5.34256e-19)
(0.288079 -0.221645 3.13832e-19)
(0.309588 -0.223353 1.51816e-19)
(0.329198 -0.218225 -1.94138e-19)
(0.342272 -0.204141 -1.69586e-19)
(-0.00444519 0.0040172 -2.83372e-19)
(-0.00894877 0.00428239 4.57162e-19)
(-0.0116837 -0.00107316 1.97222e-19)
(-0.0123449 -0.00951112 -2.87097e-19)
(-0.0106722 -0.0196458 -4.61033e-20)
(-0.00644215 -0.0307065 -3.06035e-19)
(0.000572936 -0.0422458 -1.22789e-19)
(0.0105418 -0.0540189 1.38592e-19)
(0.023547 -0.0658952 -3.51525e-20)
(0.0395815 -0.0777966 2.62332e-19)
(0.0585526 -0.0896618 -2.27386e-19)
(0.0802888 -0.101426 6.30096e-19)
(0.104547 -0.113009 -7.73923e-19)
(0.131019 -0.124313 4.8374e-19)
(0.159343 -0.135219 5.86709e-19)
(0.189102 -0.145588 -8.3497e-19)
(0.219841 -0.155262 -2.43465e-19)
(0.251066 -0.164066 4.07722e-19)
(0.282254 -0.171804 -2.43594e-19)
(0.312868 -0.178247 2.17911e-19)
(0.342322 -0.183118 -5.18712e-19)
(0.369912 -0.186053 9.18885e-20)
(0.395071 -0.186112 2.93592e-19)
(0.418252 -0.180444 -4.37473e-19)
(0.435821 -0.166648 1.27953e-19)
(-0.00542732 0.00511609 -2.62467e-19)
(-0.0106011 0.00730014 8.54416e-19)
(-0.0125639 0.00368998 1.66101e-19)
(-0.0113906 -0.00331694 -4.52006e-19)
(-0.00705251 -0.0123167 3.26443e-19)
(0.000516306 -0.0224639 1.67384e-19)
(0.0114183 -0.0332296 2.68961e-19)
(0.0257245 -0.0442913 -1.76956e-20)
(0.0434402 -0.0554488 -2.8465e-20)
(0.064494 -0.0665655 -5.9505e-20)
(0.0887359 -0.0775314 -2.57508e-19)
(0.11594 -0.0882412 -5.76503e-21)
(0.14581 -0.0985824 5.99557e-19)
(0.177984 -0.108429 -9.6631e-19)
(0.212046 -0.117637 6.87406e-19)
(0.247525 -0.126048 1.39234e-19)
(0.283911 -0.133483 2.40185e-19)
(0.320655 -0.13975 -1.07861e-19)
(0.357173 -0.144638 1.0035e-18)
(0.392857 -0.147916 -6.01846e-19)
(0.427041 -0.149341 4.56004e-19)
(0.458915 -0.148681 9.39325e-20)
(0.487728 -0.145344 -2.91876e-19)
(0.514057 -0.136809 2.35755e-19)
(0.535895 -0.120793 3.28643e-19)
(-0.00617231 0.00581312 -7.63816e-20)
(-0.0116728 0.0093441 -3.00999e-19)
(-0.0125928 0.00709718 -5.19364e-19)
(-0.00932768 0.00128148 -2.98795e-19)
(-0.00205413 -0.00671885 -4.20358e-20)
(0.00914708 -0.0160132 -1.19698e-19)
(0.0242555 -0.0260139 -5.60206e-19)
(0.0432419 -0.0363371 9.34762e-20)
(0.0660281 -0.0467256 -6.34564e-19)
(0.0924697 -0.056993 -4.90043e-20)
(0.122349 -0.0669877 -6.09199e-19)
(0.155376 -0.076571 -2.14897e-19)
(0.191189 -0.0856037 1.21948e-19)
(0.229367 -0.0939387 -5.80987e-19)
(0.26943 -0.101416 6.48496e-21)
(0.310857 -0.107862 -4.83826e-19)
(0.353091 -0.113083 1.80929e-19)
(0.395552 -0.116866 -6.43059e-19)
(0.437642 -0.118968 -1.01168e-19)
(0.478749 -0.119106 -1.03725e-20)
(0.518212 -0.116958 -9.63758e-20)
(0.55521 -0.112181 -9.97165e-20)
(0.588809 -0.104049 -5.66629e-20)
(0.618973 -0.0900173 -1.7753e-19)
(0.643933 -0.0689035 -3.32234e-19)
(-0.00667005 0.0061522 1.39019e-19)
(-0.0121203 0.0104903 3.82361e-19)
(-0.0116978 0.00922405 4.63951e-19)
(-0.00606019 0.00434733 -3.7332e-19)
(0.00443721 -0.00280337 6.99385e-19)
(0.0195775 -0.0113172 -3.82156e-19)
(0.0392199 -0.020568 2.09118e-19)
(0.0632311 -0.0301271 3.28041e-19)
(0.0914411 -0.0396925 2.99282e-19)
(0.123621 -0.0490387 1.45826e-19)
(0.159472 -0.0579823 2.35724e-19)
(0.198622 -0.0663607 1.3792e-19)
(0.240632 -0.0740188 9.14241e-19)
(0.285 -0.0808017 -6.58354e-19)
(0.331178 -0.086549 7.42861e-19)
(0.378581 -0.0910921 -3.01364e-19)
(0.426613 -0.0942497 6.36317e-19)
(0.474681 -0.0958218 -3.84232e-20)
(0.522224 -0.0955776 -1.27835e-19)
(0.568739 -0.0932362 -1.83087e-20)
(0.613801 -0.0884414 4.32224e-19)
(0.657107 -0.0806762 -3.95985e-19)
(0.698733 -0.0688023 2.76631e-19)
(0.739459 -0.0506708 2.67232e-19)
(0.776205 -0.0301102 4.51556e-20)
(-0.00691781 0.00618283 9.6338e-20)
(-0.0119105 0.010834 -5.46265e-19)
(-0.00981088 0.0101798 -2.00233e-19)
(-0.00148666 0.00599069 1.85128e-19)
(0.0125525 -0.000462742 -5.72369e-19)
(0.0319629 -0.00826905 -1.13618e-19)
(0.0564845 -0.0167815 7.94242e-20)
(0.0858738 -0.0255415 3.15854e-19)
(0.119858 -0.0342157 -8.02079e-19)
(0.158107 -0.042551 6.08525e-20)
(0.200221 -0.0503435 -2.35911e-19)
(0.245726 -0.057419 -7.09408e-19)
(0.29408 -0.0636203 4.81717e-19)
(0.344679 -0.0688006 2.05719e-20)
(0.396882 -0.072819 -1.35581e-20)
(0.450023 -0.0755383 4.61176e-19)
(0.503444 -0.0768227 -8.0282e-19)
(0.55652 -0.0765354 6.18076e-19)
(0.608691 -0.0745354 -1.20833e-19)
(0.659499 -0.0706747 3.20559e-19)
(0.708626 -0.0647997 -5.37222e-19)
(0.755942 -0.0567305 2.80958e-19)
(0.801705 -0.0460734 -4.88153e-19)
(0.846649 -0.0322766 4.65037e-19)
(0.886844 -0.0195735 -1.572e-19)
(-0.00691727 0.00595596 6.47376e-19)
(-0.0110161 0.0104817 -1.09376e-19)
(-0.00686358 0.0100994 8.1452e-19)
(0.0045041 0.00636191 3.80596e-19)
(0.0224426 0.000464274 3.14104e-20)
(0.0464877 -0.00669601 1.68565e-19)
(0.0762583 -0.0144667 4.11703e-20)
(0.111391 -0.0223734 6.94638e-19)
(0.151494 -0.0300647 2.24778e-19)
(0.196115 -0.0372728 -2.96136e-20)
(0.244726 -0.0437868 6.24264e-20)
(0.296724 -0.0494343 2.35038e-19)
(0.351435 -0.0540713 1.92592e-19)
(0.408127 -0.0575757 4.01758e-19)
(0.466038 -0.0598437 -4.61836e-19)
(0.524402 -0.0607882 1.33731e-19)
(0.582476 -0.0603376 4.47736e-20)
(0.639578 -0.0584357 1.91793e-19)
(0.695117 -0.0550432 4.89099e-19)
(0.748624 -0.0501409 -3.2922e-19)
(0.799777 -0.0437411 1.35395e-20)
(0.848418 -0.0358977 -4.08664e-19)
(0.894637 -0.026629 3.62105e-19)
(0.938786 -0.01583 -3.35929e-19)
(0.977381 -0.00624823 4.53053e-20)
(-0.00667119 0.00552048 -5.39783e-19)
(-0.00940982 0.00954479 4.28754e-19)
(-0.0027823 0.00913541 -7.03403e-19)
(0.0120358 0.00564309 6.08913e-20)
(0.0342782 0.00018449 5.03231e-19)
(0.0633619 -0.00636721 -8.43595e-19)
(0.0987776 -0.0133669 6.73661e-19)
(0.140028 -0.0203379 -1.07358e-18)
(0.186578 -0.0269248 2.1459e-19)
(0.237825 -0.0328594 4.55393e-20)
(0.293086 -0.0379383 3.58952e-19)
(0.351592 -0.0420071 -1.1983e-18)
(0.412506 -0.044951 2.08518e-19)
(0.474945 -0.0466886 2.15812e-19)
(0.538006 -0.0471681 -1.26732e-19)
(0.600806 -0.0463649 -7.66353e-19)
(0.662516 -0.0442799 3.65896e-19)
(0.722395 -0.0409386 6.47181e-19)
(0.77982 -0.0363921 -6.62875e-19)
(0.834312 -0.0307205 4.67719e-19)
(0.885545 -0.0240416 -5.77852e-19)
(0.933343 -0.0165222 4.10192e-19)
(0.9777 -0.00832748 -1.03294e-19)
(1.0188 0.00058834 5.77911e-19)
(1.054 0.00865492 -6.45375e-19)
(-0.00618023 0.00492051 7.68762e-20)
(-0.00705991 0.00813287 6.29424e-20)
(0.00251524 0.00744952 1.54861e-19)
(0.021245 0.00403885 5.6039e-19)
(0.0482458 -0.00105983 -1.808e-20)
(0.0828108 -0.00700484 1.26694e-19)
(0.124289 -0.0131694 5.69383e-19)
(0.172026 -0.0190882 2.30699e-19)
(0.225316 -0.0244165 -7.62932e-20)
(0.283373 -0.0289023 6.49829e-19)
(0.345319 -0.0323668 -7.3755e-19)
(0.410188 -0.0346908 1.13017e-18)
(0.476955 -0.0358057 -4.45701e-19)
(0.544563 -0.0356859 7.97475e-19)
(0.611964 -0.0343435 -2.69202e-19)
(0.678166 -0.0318235 9.64446e-20)
(0.742266 -0.0281991 1.15655e-19)
(0.803491 -0.0235681 -2.07963e-19)
(0.861224 -0.0180511 1.78023e-19)
(0.915013 -0.011791 1.0999e-19)
(0.964578 -0.00495527 1.44556e-19)
(1.00979 0.0022581 2.88088e-19)
(1.05067 0.00965996 -3.33773e-20)
(1.08739 0.0173002 -1.28066e-19)
(1.11824 0.0243963 3.47492e-19)
(-0.00544007 0.00419389 -4.49732e-19)
(-0.00392594 0.00634972 4.9458e-20)
(0.0091218 0.00520593 -8.94346e-19)
(0.0322789 0.00176706 -2.1491e-19)
(0.0645399 -0.00300235 -4.06419e-19)
(0.10506 -0.00829787 -8.73813e-20)
(0.153026 -0.013522 -4.40652e-19)
(0.207595 -0.0182354 -2.64835e-19)
(0.267855 -0.0221208 3.5054e-19)
(0.332796 -0.0249608 -5.87542e-19)
(0.401309 -0.0266208 -1.63462e-19)
(0.472204 -0.0270358 4.51755e-21)
(0.544247 -0.0262002 -1.08568e-18)
(0.616206 -0.0241578 4.58107e-19)
(0.6869 -0.0209929 -6.58602e-19)
(0.755255 -0.0168213 -1.82476e-20)
(0.820337 -0.0117825 1.20148e-19)
(0.881395 -0.0060318 -2.04506e-19)
(0.93787 0.000264618 -1.73858e-19)
(0.989404 0.00693397 7.80183e-20)
(1.03583 0.0137984 8.39104e-20)
(1.07714 0.0206743 -5.47253e-19)
(1.11346 0.0274002 3.08198e-19)
(1.14507 0.0340407 1.40951e-19)
(1.17102 0.0402949 2.69239e-20)
(-0.0044396 0.00337176 4.59001e-19)
(4.34439e-05 0.00429084 -5.0768e-19)
(0.0171403 0.00256586 7.18675e-19)
(0.0452904 -0.000949489 1.13914e-19)
(0.0833513 -0.00536408 -3.49041e-20)
(0.130318 -0.00991691 -2.458e-19)
(0.185181 -0.0140519 3.75295e-20)
(0.246875 -0.0173718 3.78788e-19)
(0.314236 -0.0196068 -5.24624e-19)
(0.38599 -0.020595 5.51618e-19)
(0.460766 -0.0202672 -5.80303e-20)
(0.537129 -0.0186321 2.97122e-20)
(0.613635 -0.015763 7.09065e-19)
(0.688895 -0.011783 9.32996e-19)
(0.761632 -0.0068519 -3.67036e-19)
(0.830741 -0.00115238 6.27029e-19)
(0.895323 0.00512219 3.0397e-19)
(0.954713 0.0117778 -1.92978e-19)
(1.00848 0.0186275 5.73951e-19)
(1.05644 0.0254963 -3.29571e-20)
(1.09857 0.0322245 -5.25232e-19)
(1.13506 0.038667 5.35423e-19)
(1.1662 0.0447106 6.50774e-20)
(1.19241 0.050439 -3.09531e-19)
(1.21331 0.0558256 9.88202e-20)
(-0.00316003 0.00247929 -6.3672e-19)
(0.00491092 0.00204303 6.91548e-19)
(0.0266813 -0.000315588 -4.41677e-19)
(0.0604307 -0.0038897 -1.37872e-19)
(0.104854 -0.00786371 -3.13545e-19)
(0.158753 -0.0115284 5.58333e-19)
(0.220882 -0.0143838 -3.25001e-19)
(0.289904 -0.0160943 -1.49448e-19)
(0.364362 -0.0164596 -4.28306e-19)
(0.44268 -0.015397 1.20504e-20)
(0.5232 -0.0129248 -1.6869e-19)
(0.604242 -0.00914364 7.93339e-20)
(0.684173 -0.00421779 -8.48238e-19)
(0.761488 0.00164502 2.42649e-19)
(0.834877 0.0082129 -2.84424e-19)
(0.903275 0.0152476 -2.2294e-19)
(0.965897 0.0225192 6.80208e-20)
(1.02224 0.0298176 -3.12373e-19)
(1.07207 0.0369594 -1.23322e-19)
(1.11541 0.0437917 3.74915e-19)
(1.15248 0.0501931 1.48125e-19)
(1.18364 0.0560707 -6.3286e-19)
(1.20936 0.0613685 4.50793e-19)
(1.23023 0.0661928 -8.27321e-20)
(1.24625 0.0706486 -1.66716e-19)
(-0.00157511 0.00153715 -2.3052e-19)
(0.0107488 -0.000314302 -1.27936e-19)
(0.0378579 -0.00329059 -2.51688e-20)
(0.0778398 -0.00683857 1.91876e-19)
(0.129191 -0.0102258 2.0922e-19)
(0.190476 -0.0128071 1.82537e-19)
(0.260164 -0.014157 2.29306e-19)
(0.336596 -0.0140246 3.50905e-19)
(0.417977 -0.0123044 5.38175e-19)
(0.502404 -0.00901739 5.315e-19)
(0.587927 -0.00429042 2.7957e-19)
(0.672638 0.00166903 -7.59974e-20)
(0.754765 0.00859911 1.94608e-20)
(0.832756 0.0162102 -1.93324e-20)