/*--------------------------------*- C++ -*----------------------------------*\
  =========                 |
  \\      /  F ield         | OpenFOAM: The Open Source CFD Toolbox
   \\    /   O peration     | Website:  https://openfoam.org
    \\  /    A nd           | Version:  6.0
     \\/     M anipulation  |
\*---------------------------------------------------------------------------*/
FoamFile
{
    version     2.0;
    format      ascii;
    class       volVectorField;
    location    "18.4";
    object      U;
}
// * * * * * * * * * * * * * * * * * * * * * * * * * * * * * * * * * * * * * //

dimensions      [0 1 -1 0 0 0 0];

internalField   nonuniform List<vector> 
8000
(
(-0.000521941 0.000657509 -3.61063e-21)
(-0.00283069 0.00162558 1.93001e-20)
(-0.00707951 0.00230474 -2.3475e-20)
(-0.0122867 0.00276383 1.78761e-20)
(-0.0179465 0.00305497 8.70534e-21)
(-0.0237768 0.00322013 -2.61418e-20)
(-0.029578 0.00329447 -2.31068e-21)
(-0.0352227 0.00330712 -8.20169e-22)
(-0.0406417 0.00328212 -1.35715e-20)
(-0.0458084 0.00323919 -7.35331e-21)
(-0.0507266 0.00319446 5.48314e-21)
(-0.055422 0.00316091 2.08491e-20)
(-0.059935 0.00314877 -1.55994e-21)
(-0.0643155 0.00316576 2.23543e-21)
(-0.0686182 0.00321728 -2.10056e-20)
(-0.0729028 0.00330653 1.29442e-20)
(-0.0772283 0.00343464 -1.85507e-20)
(-0.0816168 0.00360149 2.80745e-20)
(-0.0860415 0.00380661 -3.14792e-23)
(-0.0907535 0.00404374 6.07023e-21)
(-0.000614612 0.0018385 1.19909e-20)
(-0.00305158 0.004551 -6.12824e-20)
(-0.00737495 0.00645394 -4.23286e-20)
(-0.0126161 0.00774013 -2.87457e-20)
(-0.018277 0.00855502 -3.69814e-20)
(-0.0240809 0.00901564 8.13641e-21)
(-0.0298324 0.00922031 -4.26919e-20)
(-0.0354068 0.00925087 -9.5899e-21)
(-0.040737 0.00917513 3.02843e-21)
(-0.0457978 0.00904914 3.19096e-20)
(-0.050594 0.00891904 -3.48125e-20)
(-0.0551521 0.00882232 4.84281e-20)
(-0.0595135 0.00878877 -3.62686e-20)
(-0.0637291 0.00884115 -4.30145e-20)
(-0.0678549 0.0089956 -5.92866e-20)
(-0.0719525 0.00926185 3.78577e-20)
(-0.0760827 0.00964359 -1.22534e-20)
(-0.0802694 0.0101409 -4.4614e-20)
(-0.0844852 0.0107528 4.21827e-20)
(-0.088986 0.0114606 -3.13774e-20)
(-0.000796444 0.0029991 1.1723e-19)
(-0.00348596 0.00742678 6.07129e-20)
(-0.00795731 0.0105319 6.82794e-20)
(-0.0132667 0.0126279 5.68203e-21)
(-0.0189312 0.0139515 3.77388e-20)
(-0.0246845 0.0146934 4.70985e-20)
(-0.0303391 0.015014 -8.56006e-20)
(-0.0357759 0.0150468 -4.53307e-20)
(-0.0409319 0.0149028 -5.90435e-20)
(-0.0457845 0.0146742 6.30247e-20)
(-0.0503405 0.0144369 -4.81416e-20)
(-0.054628 0.0142535 -6.19481e-20)
(-0.0586902 0.0141739 -2.25598e-20)
(-0.0625799 0.0142369 2.14306e-20)
(-0.0663559 0.0144704 -5.96382e-21)
(-0.070083 0.014892 8.5884e-21)
(-0.0738263 0.0155089 9.94841e-20)
(-0.077613 0.0163224 -1.39567e-20)
(-0.0814155 0.017332 -1.01164e-19)
(-0.0854989 0.0185059 1.33453e-19)
(-0.00106508 0.00412731 4.07963e-20)
(-0.00412905 0.010223 -5.76137e-20)
(-0.00882136 0.0144951 -1.44529e-20)
(-0.0142338 0.0173725 2.70265e-20)
(-0.0199058 0.0191803 7.67335e-20)
(-0.0255865 0.0201805 1.67998e-19)
(-0.0311 0.0205935 1.64162e-19)
(-0.0363359 0.0206033 1.36419e-20)
(-0.0412369 0.0203627 1.00674e-19)
(-0.0457844 0.0199994 1.54101e-19)
(-0.0499881 0.0196192 -1.23141e-19)
(-0.0538783 0.01931 1.82243e-19)
(-0.0575004 0.0191431 -4.12816e-20)
(-0.0609102 0.0191748 1.04065e-20)
(-0.0641702 0.0194468 4.31136e-20)
(-0.0673501 0.0199864 5.73045e-20)
(-0.0705217 0.0208066 -9.01698e-20)
(-0.0737178 0.0219116 -7.52784e-20)
(-0.0769113 0.0233034 -1.33256e-19)
(-0.0803814 0.0249362 1.94063e-19)
(-0.00141726 0.00521273 -2.13133e-20)
(-0.00497389 0.0129129 -2.18178e-19)
(-0.00995908 0.0183039 -6.45343e-20)
(-0.0155099 0.0219242 -1.57261e-19)
(-0.0211946 0.024183 5.94482e-20)
(-0.026783 0.0254107 -9.37534e-20)
(-0.0321149 0.0258851 3.22485e-20)
(-0.0370913 0.0258382 -1.98579e-19)
(-0.0416627 0.0254632 1.04766e-19)
(-0.0458157 0.024922 -1.24935e-19)
(-0.0495632 0.0243502 -1.11112e-19)
(-0.0529384 0.0238614 -1.24424e-19)
(-0.0559892 0.0235494 1.12946e-19)
(-0.0587748 0.0234901 -1.01422e-19)
(-0.0613625 0.0237421 1.41229e-19)
(-0.0638285 0.0243453 4.08268e-20)
(-0.0662534 0.0253219 1.01072e-19)
(-0.0686783 0.0266821 4.43782e-20)
(-0.0710786 0.028433 -1.75682e-19)
(-0.0737543 0.0305149 2.85964e-19)
(-0.00184903 0.00624687 9.39772e-20)
(-0.00601148 0.0154735 7.22231e-21)
(-0.0113591 0.0219238 3.87115e-20)
(-0.0170826 0.026239 1.35069e-19)
(-0.0227859 0.0289083 -2.06712e-20)
(-0.0282642 0.0303264 2.19338e-19)
(-0.0333772 0.0308253 9.73584e-20)
(-0.0380404 0.030682 8.18514e-21)
(-0.0422141 0.0301278 2.50348e-19)
(-0.0458912 0.0293568 8.20358e-20)
(-0.0490886 0.0285337 3.89193e-20)
(-0.0518419 0.0277977 1.23516e-19)
(-0.0542019 0.0272669 1.13226e-19)
(-0.0562311 0.0270393 2.06726e-19)
(-0.0580021 0.0271935 -1.84776e-19)
(-0.059599 0.027787 2.61242e-19)
(-0.0611138 0.0288554 3.46163e-21)
(-0.062599 0.0304202 -3.33998e-19)
(-0.064036 0.0324985 4.33052e-19)
(-0.0657533 0.0350166 1.79416e-19)
(-0.00235593 0.00722311 -5.53824e-20)
(-0.00723073 0.0178857 -1.00539e-19)
(-0.0130062 0.0253252 -2.09196e-19)
(-0.0189339 0.0302793 -6.1993e-21)
(-0.0246599 0.0333126 3.57018e-20)
(-0.0300102 0.03488 -2.6712e-19)
(-0.0348688 0.0353633 -1.98174e-19)
(-0.0391686 0.035081 -2.83467e-20)
(-0.0428819 0.0342989 -2.50679e-19)
(-0.0460092 0.0332411 -1.73569e-19)
(-0.0485716 0.0320993 -5.05848e-20)
(-0.0506074 0.0310383 -1.62889e-19)
(-0.0521692 0.0302009 -2.65114e-21)
(-0.0533228 0.0297101 -2.1634e-19)
(-0.0541458 0.0296688 9.10188e-20)
(-0.0547315 0.0301578 -1.03841e-19)
(-0.0551851 0.0312328 7.958e-20)
(-0.0555743 0.032934 -1.01219e-19)
(-0.0558917 0.0352964 -2.8943e-19)
(-0.0565055 0.038234 -8.79534e-20)
(-0.00293309 0.00813648 -2.03935e-20)
(-0.00861832 0.0201335 -2.21441e-20)
(-0.01488 0.028483 1.75403e-19)
(-0.0210378 0.0340136 -2.85441e-19)
(-0.0267859 0.0373604 4.1875e-20)
(-0.0319869 0.0390341 -1.64885e-19)
(-0.0365534 0.039462 7.79134e-20)
(-0.0404395 0.0389991 3.50215e-19)
(-0.0436318 0.0379416 -2.24639e-20)
(-0.0461398 0.03654 -2.61274e-19)
(-0.0479893 0.0350099 4.7471e-20)
(-0.0492209 0.0335401 9.20259e-21)
(-0.0498883 0.0322984 -5.36556e-20)
(-0.050059 0.0314347 5.41617e-21)
(-0.0498154 0.0310807 4.7138e-19)
(-0.0492597 0.0313473 -6.71153e-20)
(-0.0485124 0.0323197 -1.30954e-19)
(-0.0476605 0.0340673 -2.35019e-19)
(-0.0467147 0.0366543 2.39751e-19)
(-0.0460981 0.0399886 1.03337e-19)
(-0.0035752 0.00898302 1.02936e-19)
(-0.0101582 0.0222036 -1.34683e-19)
(-0.0169543 0.0313758 1.90409e-19)
(-0.0233581 0.0374151 1.91673e-19)
(-0.0291184 0.0410231 1.76684e-19)
(-0.0341403 0.0427614 3.5827e-19)
(-0.0383698 0.0430978 2.31679e-19)
(-0.041786 0.0424188 -4.97846e-19)
(-0.0443929 0.0410456 2.54613e-19)
(-0.0462105 0.0392502 1.998e-19)
(-0.0472703 0.0372677 -2.83785e-21)
(-0.0476146 0.0353078 2.23667e-19)
(-0.0472974 0.0335614 1.74384e-19)
(-0.0463864 0.0322059 -9.48571e-20)
(-0.0449666 0.0314062 3.20561e-19)
(-0.0431487 0.0313103 -3.97381e-19)
(-0.0410696 0.032044 1.59071e-19)
(-0.038839 0.0337209 2.04604e-19)
(-0.0364951 0.036452 -4.76935e-20)
(-0.0345368 0.0401497 4.10748e-19)
(-0.00427634 0.00975917 2.06895e-19)
(-0.0118312 0.0240833 1.07257e-20)
(-0.0191954 0.0339839 -7.4249e-20)
(-0.0258462 0.0404604 -7.8419e-20)
(-0.0315939 0.0442769 -3.63155e-19)
(-0.0363915 0.0460422 5.143e-20)
(-0.040224 0.0462589 1.457e-19)
(-0.0430998 0.0453396 -7.0083e-20)
(-0.0450436 0.043625 5.78099e-20)
(-0.0460884 0.0414018 -1.5327e-20)
(-0.0462726 0.0389192 -7.55135e-20)
(-0.0456408 0.0364018 7.16929e-20)
(-0.0442459 0.0340598 -3.11717e-19)
(-0.042154 0.0320964 2.98825e-19)
(-0.0394506 0.0307109 -2.5885e-19)
(-0.0362528 0.0300954 7.99603e-20)
(-0.0327136 0.0304285 1.81963e-19)
(-0.0289687 0.0318871 -3.78477e-20)
(-0.0250934 0.0346539 -1.25954e-19)
(-0.0216921 0.0386653 -8.55549e-20)
(-0.00502967 0.010461 -2.57731e-19)
(-0.0136137 0.0257597 -1.69442e-20)
(-0.0215611 0.0362877 5.42735e-20)
(-0.0284392 0.0431265 1.39522e-19)
(-0.0341271 0.0471003 -1.96975e-19)
(-0.0386319 0.0488608 -1.71881e-19)
(-0.0419828 0.0489413 4.01183e-19)
(-0.0442221 0.0477748 -2.21683e-19)
(-0.045399 0.0457148 -1.43001e-19)
(-0.045563 0.0430565 -2.05186e-19)
(-0.0447617 0.0400554 1.35833e-19)
(-0.0430429 0.0369433 -3.67508e-21)
(-0.0404589 0.0339424 -2.53662e-19)
(-0.0370726 0.0312761 -4.14955e-19)
(-0.0329674 0.0291757 3.16132e-19)
(-0.0282637 0.0278805 -2.56145e-19)
(-0.0231293 0.0276332 3.63179e-19)
(-0.0177269 0.028696 -1.01727e-19)
(-0.0121786 0.0313579 2.13965e-19)
(-0.00723405 0.0356104 -7.25514e-19)
(-0.00582706 0.0110837 -5.2201e-19)
(-0.0154777 0.0272182 3.42254e-19)
(-0.023999 0.0382654 4.65441e-20)
(-0.0310581 0.0453888 9.00301e-21)
(-0.0366092 0.0494703 -2.10993e-19)
(-0.0407197 0.0512019 3.1027e-19)
(-0.043468 0.0511435 3.38664e-20)
(-0.0449351 0.0497439 -6.3622e-20)
(-0.0451992 0.0473638 -2.04208e-19)
(-0.0443301 0.0443 2.20739e-19)
(-0.0423883 0.0408059 5.59639e-19)
(-0.0394281 0.0371115 -1.23636e-19)
(-0.0355024 0.0334401 2.79365e-19)
(-0.0306714 0.0300248 -3.29994e-19)
(-0.0250146 0.0271205 -3.16406e-19)
(-0.0186531 0.02501 1.90257e-19)
(-0.0117662 0.0240059 3.14358e-19)
(-0.00454255 0.0244774 -1.01865e-18)
(0.00284274 0.0268625 1.19598e-19)
(0.00944405 0.0312546 1.62557e-19)
(-0.00665879 0.0116212 3.86556e-19)
(-0.0173895 0.0284415 1.27149e-19)
(-0.0264467 0.0398923 6.62272e-19)
(-0.0336069 0.0472183 3.40746e-20)
(-0.0389062 0.0513591 -7.36482e-20)
(-0.0424776 0.0530448 -3.50698e-19)
(-0.0444533 0.0528595 2.98238e-19)
(-0.0449576 0.0512642 5.35063e-19)
(-0.0441018 0.0486229 3.56482e-19)
(-0.0419808 0.0452281 2.5736e-19)
(-0.038673 0.0413243 2.21863e-19)
(-0.0342439 0.0371293 -3.98411e-19)
(-0.0287521 0.0328554 -1.24799e-19)
(-0.0222581 0.0287298 -9.19019e-20)
(-0.014839 0.025015 9.8486e-19)
(-0.00661509 0.0220234 -3.39355e-21)
(0.00222504 0.0201314 -2.45431e-19)
(0.0114717 0.0198284 -7.74345e-20)
(0.0208984 0.0217489 7.04403e-19)
(0.029303 0.0261504 9.24141e-20)
(-0.00751335 0.0120664 -1.90646e-20)
(-0.0193095 0.0294098 -3.6564e-19)
(-0.0288305 0.0411392 -5.43917e-19)
(-0.035972 0.0485808 -1.51336e-19)
(-0.0408585 0.0527315 8.35662e-20)
(-0.0436925 0.0543595 1.7996e-20)
(-0.0446641 0.0540717 4.77206e-19)
(-0.0439439 0.0523403 -5.91844e-19)
(-0.0416806 0.0495305 -2.25123e-19)
(-0.0379985 0.045928 -4.53689e-19)
(-0.0329998 0.0417634 -3.8642e-19)
(-0.0267685 0.0372351 -3.42152e-19)
(-0.019377 0.0325321 8.55471e-20)
(-0.0108944 0.0278588 -1.1107e-19)
(-0.00140188 0.0234621 4.75875e-19)
(0.00897693 0.0196572 -2.6086e-19)
(0.0200439 0.0168598 -8.17546e-19)
(0.0315743 0.0156723 -1.64946e-19)
(0.0433065 0.0169656 4.03454e-19)
(0.0537212 0.0212342 -3.51196e-19)
(-0.00837746 0.0124113 -6.16729e-20)
(-0.0211923 0.0301014 4.47183e-19)
(-0.0310659 0.0419738 -5.70292e-19)
(-0.0380229 0.0494366 1.3182e-19)
(-0.0422814 0.0535443 -2.71494e-19)
(-0.0441168 0.0551043 6.04737e-19)
(-0.0437792 0.0547468 -4.32211e-19)
(-0.0414875 0.0529558 4.94488e-19)
(-0.03743 0.0500989 -4.68847e-19)
(-0.0317647 0.0464562 2.00049e-19)
(-0.0246234 0.0422446 -9.70861e-20)
(-0.0161175 0.0376407 -2.43755e-19)
(-0.00634468 0.0328034 -3.01175e-19)
(0.00460319 0.0279001 3.00098e-19)
(0.016626 0.0231374 -2.5131e-19)
(0.0295841 0.0187971 -5.49412e-19)
(0.0432603 0.0152867 5.71963e-19)
(0.0574175 0.01328 -7.29554e-19)
(0.0717954 0.0138948 3.28192e-19)
(0.0845195 0.0179241 8.21932e-21)
(-0.00923624 0.0126483 -5.59142e-19)
(-0.0229864 0.030494 -6.03664e-19)
(-0.0330571 0.0423622 6.95674e-20)
(-0.0396113 0.0497425 -5.82085e-19)
(-0.0429654 0.0537487 -5.17937e-20)
(-0.0434697 0.0552281 -4.28168e-19)
(-0.0414344 0.0548362 -9.82259e-20)
(-0.0371271 0.0530711 -2.87076e-19)
(-0.0307762 0.050307 2.55214e-21)
(-0.0225755 0.0468235 -1.25614e-19)
(-0.0126918 0.0428298 8.91557e-21)
(-0.00127268 0.0384864 -3.61977e-19)
(0.011545 0.033925 3.9895e-19)
(0.0256269 0.0292718 -5.66047e-19)
(0.0408302 0.0246779 2.00528e-19)
(0.0569732 0.0203558 7.58742e-21)
(0.0737944 0.0166426 -3.19274e-19)
(0.0910309 0.0141978 7.9163e-19)
(0.108478 0.0143349 -1.89e-19)
(0.123936 0.0181542 -1.22401e-19)
(-0.0100734 0.0127704 6.27624e-19)
(-0.0246342 0.0305666 3.38868e-19)
(-0.0346965 0.042272 3.15201e-19)
(-0.0405706 0.0494571 4.70534e-20)
(-0.0426757 0.0532959 4.26192e-19)
(-0.0414372 0.0546774 6.14302e-19)
(-0.0372248 0.0542838 5.02965e-19)
(-0.0303527 0.0526311 4.50201e-20)
(-0.0210883 0.0501056 3.6836e-19)
(-0.00966165 0.0469943 5.69187e-19)
(0.00372261 0.0435102 -1.47657e-19)
(0.0188729 0.0398108 2.47811e-19)
(0.0355991 0.0360156 2.0011e-19)
(0.0537031 0.0322228 2.03585e-19)
(0.0729683 0.0285326 1.20423e-18)
(0.0931325 0.0250742 -4.51359e-19)
(0.113843 0.0220579 -2.75395e-20)
(0.134763 0.0200087 5.23351e-19)
(0.155793 0.0202978 -2.96724e-19)
(0.174569 0.0242486 1.46553e-19)
(-0.0108715 0.0127722 -5.07515e-19)
(-0.0260712 0.0303017 3.24953e-20)
(-0.0358624 0.041676 -4.06198e-19)
(-0.0407131 0.0485462 -5.28692e-20)
(-0.0411486 0.0521468 2.97342e-19)
(-0.0376699 0.0534089 -8.85205e-19)
(-0.0307039 0.053043 -6.62523e-22)
(-0.020609 0.0515856 4.11975e-19)
(-0.00768883 0.0494402 3.8709e-19)
(0.00779132 0.0469104 -1.70424e-19)
(0.0255873 0.0442254 5.62041e-20)
(0.0454581 0.0415585 1.30359e-19)
(0.0671492 0.0390418 -6.17288e-20)
(0.0903775 0.0367774 -6.92392e-19)
(0.114819 0.0348503 1.75301e-19)
(0.14008 0.0333367 4.82424e-19)
(0.165647 0.0323172 -6.87374e-19)
(0.191008 0.0320856 3.35204e-19)
(0.216158 0.0338994 8.99716e-20)
(0.23895 0.0391207 4.55149e-19)
(-0.011611 0.01265 -7.49068e-20)
(-0.0272241 0.0296866 -3.55552e-19)
(-0.0364163 0.0405566 1.63616e-19)
(-0.0398251 0.0469908 7.65114e-22)
(-0.0380865 0.0502831 -7.13035e-19)
(-0.0317772 0.0514065 1.11273e-19)
(-0.0213798 0.0510992 -2.11346e-20)
(-0.00729421 0.0499188 1.43958e-19)
(0.010141 0.0482891 -6.58975e-19)
(0.0306265 0.0465354 -4.6209e-20)
(0.0538777 0.0449134 -1.54843e-19)
(0.0796024 0.0436288 1.37739e-19)
(0.107476 0.042854 4.65038e-19)
(0.137121 0.0427394 -7.1901e-20)
(0.168079 0.0434244 2.78625e-20)
(0.199771 0.0450339 1.83079e-19)
(0.23141 0.047648 -4.52405e-20)
(0.262093 0.0514626 3.6942e-19)
(0.291655 0.0577417 -2.14398e-19)
(0.318558 0.0676019 -3.38647e-19)
(-0.0122701 0.0124018 6.94995e-20)
(-0.0280085 0.0287145 1.69695e-20)
(-0.0361984 0.0389095 1.42566e-19)
(-0.0376617 0.0447941 3.49171e-19)
(-0.0331513 0.0477197 1.95943e-19)
(-0.0233212 0.0486989 2.04456e-20)
(-0.00871005 0.0484946 -2.33922e-19)
(0.0102394 0.0476835 5.99622e-20)
(0.033152 0.0467067 3.15412e-19)
(0.0596903 0.04591 -5.34502e-19)
(0.0895277 0.045574 4.03358e-19)
(0.122322 0.0459394 -3.03944e-19)
(0.157692 0.0472282 2.5797e-19)
(0.195193 0.0496651 -5.56461e-19)
(0.23429 0.0535028 6.12293e-19)
(0.274297 0.059038 -6.54927e-19)
(0.314243 0.0666109 -1.70318e-19)
(0.352791 0.0768601 5.34838e-19)
(0.388768 0.0918708 -1.80612e-19)
(0.418824 0.112194 8.00091e-20)
(-0.0128225 0.0120261 -5.25855e-20)
(-0.0283247 0.0273852 4.96274e-19)
(-0.0350222 0.0367461 -2.07808e-21)
(-0.0339406 0.0419876 -3.08085e-19)
(-0.0259585 0.0445143 -2.07192e-19)
(-0.0118122 0.0453743 3.79591e-19)
(0.00789784 0.0453503 -1.5035e-19)
(0.0326774 0.045031 -1.89406e-20)
(0.0621014 0.0448663 3.13397e-19)
(0.0957783 0.0452092 -3.89338e-19)
(0.133321 0.0463472 4.27027e-20)
(0.174325 0.0485289 -5.06265e-19)
(0.218353 0.0519879 2.66641e-19)
(0.264935 0.0569716 -7.63048e-19)
(0.313572 0.0637785 1.21576e-18)
(0.363753 0.0728077 -2.2277e-19)
(0.414988 0.0846737 2.32454e-19)
(0.46709 0.100746 -6.03572e-19)
(0.520504 0.124069 3.9649e-21)
(0.56713 0.150819 6.84511e-19)
(-0.0132353 0.0115218 -1.59283e-19)
(-0.0280543 0.0257042 1.37602e-19)
(-0.0326705 0.0340949 -5.06847e-19)
(-0.0283387 0.0386344 7.49681e-19)
(-0.0160758 0.0407735 -5.41256e-19)
(0.00328865 0.0415902 2.79421e-20)
(0.0290771 0.0418791 -5.83719e-19)
(0.0607218 0.0422306 4.17365e-19)
(0.0977161 0.0430889 -5.96227e-20)
(0.139573 0.044793 -3.68391e-19)
(0.185796 0.0476059 -2.15014e-19)
(0.235859 0.051737 2.27196e-19)
(0.289205 0.0573611 1.50277e-19)
(0.345256 0.0646351 -6.65103e-19)
(0.403447 0.0737144 2.40109e-19)
(0.463267 0.0847651 -3.54239e-19)
(0.524324 0.0979833 4.29119e-20)
(0.586569 0.113788 -3.00945e-19)
(0.650786 0.133344 1.2312e-19)
(0.709792 0.152938 -4.51128e-19)
(-0.013467 0.0108871 4.53465e-19)
(-0.027056 0.0236834 -2.74667e-19)
(-0.0288928 0.0310029 2.26322e-19)
(-0.0204922 0.0348309 -2.8573e-19)
(-0.00302807 0.0366545 4.78924e-19)
(0.0225561 0.0375736 -8.36831e-21)
(0.0554772 0.0383843 -5.83162e-20)
(0.0950526 0.0396651 -4.32444e-20)
(0.14064 0.0418359 2.66162e-19)
(0.19159 0.0451963 4.52632e-19)
(0.247215 0.0499523 -2.67369e-19)
(0.30678 0.0562347 2.59976e-19)
(0.369507 0.0641127 4.7492e-19)
(0.434601 0.073604 -3.33e-19)
(0.501287 0.0846802 -6.76417e-19)
(0.568857 0.0972637 1.23693e-18)
(0.636714 0.111211 -2.20878e-19)
(0.704459 0.126352 -7.1735e-20)
(0.772251 0.142995 7.72218e-19)
(0.835034 0.160399 -1.63662e-19)
(-0.0134655 0.0101198 -7.38165e-19)
(-0.0251646 0.0213414 -4.91389e-19)
(-0.0234062 0.0275354 -1.88634e-19)
(-0.0100027 0.0307062 3.63951e-19)
(0.0136873 0.0323624 -8.21708e-19)
(0.046573 0.0336141 4.25583e-19)
(0.0877181 0.0352448 5.39427e-20)
(0.136261 0.037802 5.4564e-20)
(0.191344 0.0416565 -5.57553e-19)
(0.252062 0.0470385 -1.96902e-19)
(0.317441 0.0540622 -3.4713e-19)
(0.386438 0.0627435 3.35276e-19)
(0.457967 0.0730138 9.51589e-20)
(0.530935 0.0847316 1.8594e-20)
(0.604297 0.0976905 4.36938e-19)
(0.677096 0.11162 -4.42632e-19)
(0.748507 0.12618 -1.83525e-20)
(0.817872 0.140972 1.13768e-20)
(0.884845 0.155827 6.07208e-20)
(0.946684 0.172364 3.42529e-19)
(-0.0131669 0.00921865 2.35016e-19)
(-0.0221907 0.0187054 6.05278e-19)
(-0.0159006 0.0237781 4.85725e-19)
(0.00354945 0.0264217 -1.67444e-19)
(0.0345759 0.0281454 5.82446e-19)
(0.0758885 0.0300525 -4.90747e-20)
(0.126326 0.0328922 -6.91334e-20)
(0.184758 0.0371539 4.11582e-20)
(0.250007 0.0431255 5.63202e-19)
(0.320804 0.0509294 3.30962e-19)
(0.395786 0.0605482 9.66617e-20)
(0.473522 0.0718467 5.95892e-21)
(0.552565 0.0845938 -6.41255e-19)
(0.631511 0.0984821 5.572e-19)
(0.709068 0.113147 9.55296e-20)
(0.784106 0.128182 -1.5737e-19)
(0.85569 0.143146 -6.8207e-19)
(0.923107 0.157595 -5.75049e-20)
(0.985831 0.171067 2.69143e-19)
(1.04318 0.186687 -5.47148e-20)
(-0.012496 0.00818461 -5.96256e-19)
(-0.017924 0.0158149 2.49474e-19)
(-0.00604723 0.0198393 -1.21809e-18)
(0.0205865 0.0221713 4.98939e-19)
(0.0601127 0.0242904 -3.97925e-19)
(0.110966 0.027268 2.93381e-19)
(0.171661 0.0317869 -4.55837e-19)
(0.24068 0.0382386 4.18426e-20)
(0.316405 0.0467831 -2.35085e-20)
(0.397093 0.0573873 1.22642e-19)
(0.480909 0.0698581 1.77112e-19)
(0.565995 0.0838767 -3.34724e-19)
(0.650553 0.0990339 1.77288e-19)
(0.732939 0.114865 1.62792e-19)
(0.811733 0.130881 7.02974e-19)
(0.885788 0.146598 -3.05409e-19)
(0.954256 0.161552 -2.02748e-19)
(1.0166 0.175354 3.40863e-19)
(1.07243 0.187455 1.81548e-19)
(1.12241 0.201633 -3.42091e-19)
(-0.0113673 0.00702382 5.22212e-19)
(-0.012139 0.0127261 5.03526e-19)
(0.00648758 0.0158541 1.45305e-19)
(0.0415095 0.0181821 6.1199e-19)
(0.0907041 0.0211189 3.00696e-19)
(0.152126 0.0256655 -5.42102e-19)
(0.223839 0.0323927 8.21151e-19)
(0.303802 0.0415397 -4.04119e-19)
(0.389829 0.0530812 4.03464e-19)
(0.479614 0.0667744 5.22081e-19)
(0.570817 0.082209 -2.98373e-19)
(0.661182 0.0988605 5.66861e-20)
(0.748663 0.116145 3.16008e-19)
(0.831525 0.13347 2.22616e-19)
(0.908416 0.150276 5.12596e-19)
(0.978389 0.166067 -2.05201e-19)
(1.0409 0.180436 -2.53841e-20)
(1.09577 0.193094 3.23016e-19)
(1.14302 0.203591 -6.95189e-20)
(1.18406 0.215726 2.55626e-22)
(-0.00968759 0.00575027 -2.69558e-19)
(-0.0046029 0.0095173 -9.90758e-19)
(0.0220269 0.011989 2.33335e-19)
(0.0666712 0.0147167 -1.77642e-19)
(0.126647 0.018982 -4.10135e-19)
(0.199494 0.025662 -2.929e-19)
(0.282674 0.0351517 -1.80962e-19)
(0.373481 0.0474695 4.39463e-19)
(0.469057 0.062338 -2.61002e-19)
(0.566494 0.0792526 -2.67337e-19)
(0.662988 0.097557 -3.38101e-19)
(0.756013 0.116523 -5.5808e-20)
(0.843461 0.135423 -3.78676e-20)
(0.923733 0.153593 -7.81654e-19)
(0.995778 0.170477 3.78776e-19)
(1.05907 0.185645 -4.98165e-19)
(1.11355 0.19881 1.56285e-19)
(1.15953 0.20983 -1.18987e-18)
(1.19752 0.218468 3.5871e-19)
(1.22928 0.228143 4.53189e-19)
(-0.00735888 0.00438849 -6.76987e-20)
(0.00491412 0.00629363 4.83257e-19)
(0.0408642 0.00844626 3.09888e-20)
(0.0963462 0.0120725 7.45656e-20)
(0.168086 0.0182534 -1.51607e-19)
(0.252951 0.027669 -2.50937e-21)
(0.347635 0.0404568 -3.90758e-21)
(0.448642 0.0563335 -9.15275e-20)
(0.552393 0.0747036 3.24635e-19)
(0.655421 0.0947628 1.25498e-19)
(0.754604 0.115607 5.69804e-19)
(0.84736 0.136339 -1.55339e-19)
(0.931777 0.156154 1.08451e-19)
(1.00665 0.1744 -1.40585e-20)
(1.07147 0.190604 3.00304e-19)
(1.12627 0.204481 1.83673e-19)
(1.17159 0.215916 4.42377e-19)
(1.20825 0.224938 -7.14331e-19)
(1.23725 0.23155 8.98562e-19)
(1.26043 0.238636 -2.84629e-19)
(-0.00428235 0.00297577 -6.29786e-19)
(0.0166276 0.00319088 -1.96655e-19)
(0.0632432 0.00546512 1.53664e-19)
(0.130702 0.010579 9.6891e-20)
(0.214982 0.0193184 9.93404e-20)
(0.312098 0.032072 1.00691e-19)
(0.417829 0.0486227 -2.5206e-19)
(0.527809 0.0683013 -1.04223e-19)
(0.637773 0.0901424 3.23353e-20)
(0.74385 0.113033 -3.08811e-19)
(0.842839 0.13586 -1.39684e-19)
(0.932396 0.157631 8.44063e-19)
(1.01109 0.177556 -2.17769e-19)
(1.07835 0.19509 -3.00104e-19)
(1.13434 0.209929 -1.42345e-19)
(1.17977 0.221984 9.8628e-20)
(1.21573 0.23134 1.2017e-19)
(1.24351 0.238196 -5.75893e-19)
(1.26443 0.242771 8.33174e-19)
(1.28033 0.247398 -7.21987e-19)
(-0.000362489 0.00156355 -7.12302e-20)
(0.0307259 0.000376938 2.03984e-20)
(0.0893368 0.00332061 -2.60542e-20)
(0.16977 0.0105892 3.80491e-19)
(0.267078 0.0225566 2.09934e-20)
(0.376246 0.0392052 1.39766e-19)
(0.492025 0.0598581 -2.90435e-19)
(0.609192 0.0833874 -1.05901e-20)
(0.722939 0.108436 4.03509e-19)
(0.829252 0.133618 5.62395e-20)
(0.925175 0.157692 -3.5154e-19)
(1.00891 0.179675 -3.08906e-20)
(1.07977 0.198904 -2.88741e-19)
(1.13796 0.215029 2.87545e-19)
(1.1844 0.227973 3.99221e-19)
(1.22043 0.237872 -4.40024e-20)
(1.24759 0.245004 -5.35893e-20)
(1.26749 0.249713 1.63389e-19)
(1.28162 0.252375 -5.24994e-19)
(1.29175 0.254844 4.62495e-19)
(0.00448834 0.00021804 7.15846e-20)
(0.0473571 -0.00194913 -4.61666e-19)
(0.119226 0.0023177 1.23542e-19)
(0.21342 0.012467 -3.83369e-19)
(0.323884 0.0283204 1.31839e-19)
(0.44442 0.0493254 -4.89654e-19)
(0.568716 0.0742447 1.97535e-19)
(0.690815 0.101448 -6.29041e-20)
(0.805634 0.129212 -2.56185e-21)
(0.909362 0.155962 6.43637e-20)
(0.999638 0.180445 -2.344e-19)
(1.0755 0.201815 -3.34641e-19)
(1.13714 0.219633 -6.85995e-20)
(1.18564 0.233811 -3.07955e-20)
(1.22259 0.244529 -7.81277e-20)
(1.24984 0.252138 -2.54449e-20)
(1.26924 0.257077 -7.61627e-20)
(1.28254 0.259795 -6.60231e-20)
(1.29128 0.26076 -1.96336e-19)
(1.29706 0.261439 3.11443e-19)
(0.010345 -0.000980173 1.72072e-19)
(0.0666154 -0.00356085 -1.91118e-19)
(0.15288 0.00278131 4.11359e-19)
(0.261348 0.0165686 -1.776e-19)
(0.384677 0.036911 4.7469e-19)
(0.515401 0.0625888 6.79932e-21)
(0.646218 0.0917276 2.38448e-19)
(0.770684 0.122198 -6.39101e-20)
(0.883811 0.15199 2.66538e-19)
(0.98238 0.179471 1.92489e-20)
(1.06494 0.203516 6.3449e-19)
(1.13155 0.223531 -4.37934e-19)
(1.18338 0.239379 5.90307e-20)
(1.22228 0.251266 1.12613e-19)
(1.25039 0.259617 5.89412e-19)
(1.2699 0.264966 -2.1176e-19)
(1.2828 0.267867 -4.19623e-20)
(1.29084 0.268825 -2.22185e-19)
(1.29548 0.268347 -2.33632e-20)
(1.29811 0.267599 1.11142e-19)
(0.0172648 -0.00193733 -8.2552e-20)
(0.0885287 -0.00421069 2.38533e-19)
(0.190144 0.00504254 -2.44321e-19)
(0.313063 0.0232216 9.64605e-20)
(0.448524 0.0485549 -1.15418e-19)
(0.587793 0.0790362 4.23565e-19)
(0.722786 0.112122 -5.90377e-20)
(0.846943 0.145246 1.45336e-19)
(0.955794 0.176246 -8.56169e-20)
(1.04708 0.203589 -2.27371e-21)
(1.1205 0.226416 9.77483e-20)
(1.17721 0.244478 -7.57432e-20)
(1.21929 0.257977 1.96448e-19)
(1.2492 0.267409 -9.79426e-20)
(1.2695 0.273409 -4.31079e-19)
(1.2825 0.276641 4.28542e-19)
(1.29019 0.277724 -1.93026e-19)
(1.29419 0.277174 1.54134e-19)
(1.2958 0.275502 2.67165e-19)
(1.29623 0.27364 1.09753e-19)
(0.0252819 -0.00254871 2.05441e-19)
(0.113047 -0.00363897 -4.23386e-19)
(0.230727 0.00942235 8.09963e-20)
(0.3679 0.032704 -5.87829e-20)
(0.514317 0.0633854 -2.37202e-19)
(0.660109 0.0985899 -1.86178e-19)
(0.796748 0.135132 -3.6613e-20)
(0.918011 0.170137 -3.31947e-19)
(1.02038 0.201466 -2.02369e-20)
(1.10284 0.227844 -6.16868e-20)
(1.16635 0.248799 -1.67438e-19)
(1.21314 0.264476 -3.7209e-20)
(1.24602 0.275421 -1.28139e-19)
(1.26794 0.282382 -2.13816e-19)
(1.2816 0.286151 2.18929e-19)
(1.28932 0.287471 3.01456e-20)
(1.29296 0.286973 6.00744e-20)
(1.29396 0.285153 -2.52112e-19)
(1.29342 0.282505 -6.32123e-21)
(1.29233 0.279774 -3.88849e-19)
(0.0344034 -0.00270163 2.25145e-19)
(0.140037 -0.00158452 1.50198e-19)
(0.274204 0.0162139 -2.42261e-19)
(0.425035 0.0452242 3.7831e-19)
(0.580837 0.0814323 -4.08101e-20)
(0.730869 0.121062 1.41354e-19)
(0.866615 0.160386 4.89495e-20)
(0.982674 0.196405 1.73417e-19)
(1.07684 0.22719 -1.35797e-19)
(1.14954 0.251878 4.5263e-20)
(1.20298 0.270456 -4.34404e-20)
(1.2403 0.283482 -1.90998e-20)
(1.2649 0.291812 3.63384e-20)
(1.27995 0.29639 -6.69471e-20)
(1.28818 0.298109 -2.05665e-20)
(1.29175 0.297736 -6.29409e-20)
(1.29234 0.295882 -1.02292e-19)
(1.29116 0.292994 6.60488e-20)
(1.28912 0.289546 -9.05957e-20)
(1.28702 0.286126 3.91502e-19)
(0.0446046 -0.00227937 -1.124e-19)
(0.169275 0.00220319 -3.18511e-19)
(0.32002 0.0256653 -4.24089e-20)
(0.483525 0.0609068 -1.15694e-20)
(0.646818 0.10262 -1.42743e-19)
(0.79869 0.146174 -2.3441e-19)
(0.931162 0.187471 7.67345e-20)
(1.04011 0.223602 -1.05446e-19)
(1.12492 0.253042 -1.18157e-19)
(1.18748 0.275445 6.58319e-20)
(1.23116 0.291298 -4.97498e-20)
(1.25983 0.301547 -1.00674e-19)
(1.27722 0.307306 -3.39511e-21)
(1.28656 0.309653 6.81923e-20)
(1.29046 0.309523 -6.95711e-20)
(1.29087 0.307667 9.65397e-20)
(1.28921 0.304646 2.59759e-20)
(1.28649 0.300854 6.54411e-20)
(1.28343 0.296738 1.27539e-19)
(1.28066 0.292749 -1.09252e-19)
(0.0558269 -0.00116571 1.0735e-19)
(0.200447 0.00795145 -9.45304e-21)
(0.367512 0.0379639 4.82105e-20)
(0.54235 0.0797832 -6.54079e-20)
(0.71102 0.126775 5.39765e-21)
(0.862363 0.17358 2.27056e-19)
(0.989473 0.215962 -1.49151e-19)
(1.08989 0.251334 6.32009e-20)
(1.1647 0.278729 5.57401e-20)
(1.21725 0.298397 -1.56642e-19)
(1.25184 0.311317 1.47223e-19)
(1.27285 0.318775 1.30912e-21)
(1.28414 0.322075 -1.03772e-19)
(1.28887 0.322369 1.25088e-19)
(1.2894 0.320586 -4.96552e-20)
(1.28744 0.31743 3.79715e-20)
(1.28418 0.313397 -4.24657e-20)
(1.28039 0.308822 -1.69929e-20)
(1.27665 0.30413 -1.48703e-19)
(1.27345 0.299645 4.5558e-20)
(0.0679759 0.000750058 -3.61744e-20)
(0.23316 0.0158519 9.71323e-20)
(0.415925 0.0532243 1.51533e-20)
(0.600459 0.10179 6.35466e-20)
(0.772291 0.15364 3.03348e-20)
(0.920895 0.202898 1.42211e-20)
(1.04094 0.245453 8.06159e-20)
(1.13189 0.279261 -9.7782e-21)
(1.19657 0.304041 3.55607e-20)
(1.23958 0.320661 5.71418e-20)
(1.26597 0.330555 2.75818e-20)
(1.28039 0.335285 1.98062e-20)
(1.28667 0.336278 8.03242e-20)
(1.28775 0.3347 -7.77592e-20)
(1.28573 0.33144 1.66922e-20)
(1.28205 0.327134 -1.56406e-20)
(1.27765 0.322204 2.41893e-20)
(1.27315 0.31693 2.02709e-20)
(1.26898 0.311724 4.23422e-20)
(1.26552 0.306781 1.77304e-21)
(0.0809222 0.00356785 2.14466e-20)
(0.266945 0.0260492 1.95907e-20)
(0.464452 0.0714799 -2.71273e-20)
(0.656822 0.126771 1.69524e-20)
(0.829615 0.182892 9.58147e-21)
(0.973534 0.233724 -2.98086e-20)
(1.08524 0.275566 9.83849e-21)
(1.16624 0.307109 1.77702e-21)
(1.22104 0.328832 1.69735e-20)
(1.25526 0.342212 -4.55237e-20)
(1.27446 0.349078 -1.42939e-22)
(1.28335 0.351193 1.2624e-20)
(1.2856 0.350042 -1.00602e-20)
(1.28387 0.346763 1.01783e-20)
(1.27996 0.342174 2.65739e-20)
(1.27505 0.336832 -1.51254e-20)
(1.26989 0.331087 4.20815e-21)
(1.26494 0.325173 1.65791e-20)
(1.26052 0.319489 -2.73323e-20)
(1.2569 0.314103 1.31209e-20)
(0.0945039 0.00737171 5.97484e-20)
(0.301279 0.0386322 -3.25071e-20)
(0.512259 0.0926794 3.82885e-20)
(0.710475 0.15449 -2.84932e-20)
(0.882144 0.21416 -1.27842e-20)
(1.01976 0.265655 3.86581e-21)
(1.12228 0.305962 -1.25517e-20)
(1.19328 0.334654 4.51484e-20)
(1.23873 0.353002 -3.76057e-20)
(1.26507 0.363051 8.82624e-21)
(1.2781 0.36695 -6.57702e-21)
(1.28247 0.366591 -4.28753e-20)
(1.28156 0.363457 4.15982e-20)
(1.27772 0.358625 1.58466e-20)
(1.27246 0.352826 -1.57637e-20)
(1.26671 0.346534 3.70199e-20)
(1.26105 0.340032 -5.4071e-22)
(1.25584 0.333512 -3.59318e-20)
(1.25129 0.32737 2.6622e-20)
(1.24762 0.321539 8.40141e-21)
(0.10853 0.0122252 -2.09377e-20)
(0.335598 0.0536266 6.07177e-20)
(0.558522 0.116688 7.01768e-20)
(0.760548 0.184639 -3.31195e-20)
(0.929212 0.247043 5.76253e-20)
(1.05929 0.298303 9.12245e-20)
(1.15217 0.336338 -5.0273e-21)
(1.21344 0.361711 -1.56774e-20)
(1.25029 0.37648 7.74274e-20)
(1.26972 0.383186 3.77651e-20)
(1.2776 0.384223 -6.86015e-21)
(1.27835 0.381539 5.63331e-20)
(1.27503 0.376573 -6.04412e-20)
(1.26966 0.370312 9.41316e-20)
(1.26345 0.363395 -1.57057e-20)
(1.25716 0.356215 4.50271e-20)
(1.25123 0.348991 8.12749e-21)
(1.2459 0.341888 3.22402e-20)
(1.24133 0.335294 -3.06852e-20)
(1.23767 0.329009 7.40048e-21)
(0.122783 0.0181672 -3.25886e-20)
(0.369316 0.0709914 7.72826e-20)
(0.602452 0.14329 5.74327e-20)
(0.806294 0.216854 -8.70864e-21)
(0.970329 0.281121 8.95535e-20)
(1.09198 0.331293 -6.69254e-20)
(1.17515 0.366425 -5.26354e-21)
(1.2272 0.388129 5.91001e-20)
(1.25633 0.399207 1.87757e-20)
(1.26985 0.40262 2.62888e-20)
(1.27353 0.400922 -3.88309e-20)
(1.27146 0.396062 1.01311e-19)
(1.26636 0.389398 1.89352e-20)
(1.25991 0.381812 -8.97841e-20)
(1.25311 0.373847 1.31269e-19)
(1.24651 0.365821 -1.54922e-19)
(1.24046 0.357899 -7.117e-20)
(1.23514 0.350223 1.17895e-20)
(1.23061 0.343178 6.9133e-20)
(1.22704 0.336426 -1.30409e-19)
(0.137031 0.0252086 -7.32908e-20)
(0.40185 0.0906176 -1.72935e-19)
(0.643326 0.1722 -1.49576e-19)
(0.8471 0.250725 -2.03707e-19)
(1.00518 0.315971 -1.1563e-19)
(1.11788 0.364272 -2.39823e-19)
(1.19153 0.395981 3.04727e-20)
(1.23508 0.413771 -1.27478e-19)
(1.25743 0.421125 -1.40056e-20)