/*--------------------------------*- C++ -*----------------------------------*\
  =========                 |
  \\      /  F ield         | OpenFOAM: The Open Source CFD Toolbox
   \\    /   O peration     | Website:  https://openfoam.org
    \\  /    A nd           | Version:  6.0
     \\/     M anipulation  |
\*---------------------------------------------------------------------------*/
FoamFile
{
    version     2.0;
    format      ascii;
    class       surfaceScalarField;
    location    "42";
    object      phi;
}
// * * * * * * * * * * * * * * * * * * * * * * * * * * * * * * * * * * * * * //

dimensions      [0 3 -1 0 0 0 0];

internalField   nonuniform List<scalar> 
7840
(
-2.43744e-06
3.04277e-06
-6.05329e-07
-8.6736e-06
7.57073e-06
-1.33457e-06
-1.78101e-05
1.08631e-05
-1.72651e-06
-2.90906e-05
1.31638e-05
-1.88332e-06
-4.18955e-05
1.46873e-05
-1.88242e-06
-5.57325e-05
1.56187e-05
-1.78174e-06
-7.02241e-05
1.61154e-05
-1.62373e-06
-8.50956e-05
1.63102e-05
-1.43874e-06
-0.000100162
1.63147e-05
-1.24788e-06
-0.000115319
1.62221e-05
-1.06528e-06
-0.000130529
1.61101e-05
-8.99877e-07
-0.000145815
1.60424e-05
-7.56836e-07
-0.000161247
1.60705e-05
-6.38528e-07
-0.000176936
1.62347e-05
-5.45263e-07
-0.000193025
1.65644e-05
-4.75768e-07
-0.000209676
1.70787e-05
-4.27481e-07
-0.000227067
1.77871e-05
-3.96679e-07
-0.000245377
1.86891e-05
-3.78664e-07
-0.000264786
1.97777e-05
-3.68443e-07
2.10463e-05
-3.60967e-07
-0.000285472
-2.43646e-06
5.47923e-06
-8.66659e-06
1.38009e-05
-1.77883e-05
1.99848e-05
-2.90412e-05
2.44167e-05
-4.1802e-05
2.74481e-05
-5.5574e-05
2.93907e-05
-6.9975e-05
3.05164e-05
-8.47248e-05
3.106e-05
-9.96334e-05
3.12233e-05
-0.00011459
3.11784e-05
-0.000129552
3.10719e-05
-0.000144536
3.10271e-05
-0.000159611
3.11457e-05
-0.000174886
3.15094e-05
-0.000190502
3.21803e-05
-0.000206625
3.32018e-05
-0.000223436
3.4598e-05
-0.000241121
3.63747e-05
-0.000259868
3.85246e-05
4.10401e-05
-0.000279862
-2.43626e-06
7.91549e-06
-8.65709e-06
2.00217e-05
-1.77517e-05
2.90794e-05
-2.89517e-05
3.56168e-05
-4.16259e-05
4.01223e-05
-5.52693e-05
4.30341e-05
-6.94905e-05
4.47375e-05
-8.39991e-05
4.55686e-05
-9.85939e-05
4.58181e-05
-0.000113152
4.5737e-05
-0.000127621
4.55409e-05
-0.000142008
4.54137e-05
-0.000156372
4.55096e-05
-0.000170818
4.59549e-05
-0.000185485
4.68481e-05
-0.000200544
4.82605e-05
-0.000216182
5.02356e-05
-0.000232596
5.27894e-05
-0.000249989
5.5917e-05
5.96121e-05
-0.000268561
-2.43739e-06
1.03529e-05
-8.64639e-06
2.62307e-05
-1.77027e-05
3.81356e-05
-2.88261e-05
4.67402e-05
-4.13743e-05
5.26705e-05
-5.48306e-05
5.64904e-05
-6.87908e-05
5.86977e-05
-8.29498e-05
5.97276e-05
-9.70901e-05
5.99584e-05
-0.000111072
5.97189e-05
-0.000124825
5.92939e-05
-0.000138341
5.89291e-05
-0.000151665
5.88339e-05
-0.000164893
5.91833e-05
-0.000178163
6.01178e-05
-0.000191645
6.1743e-05
-0.000205539
6.41289e-05
-0.000220057
6.73076e-05
-0.000235423
7.12828e-05
7.60526e-05
-0.000251863
-2.4404e-06
1.27933e-05
-8.63544e-06
3.24257e-05
-1.76426e-05
4.71428e-05
-2.8667e-05
5.77646e-05
-4.10529e-05
6.50564e-05
-5.42699e-05
6.97073e-05
-6.78978e-05
7.23256e-05
-8.16134e-05
7.34432e-05
-9.51785e-05
7.35235e-05
-0.00010843
7.29709e-05
-0.000121275
7.21386e-05
-0.000133681
7.13351e-05
-0.000145675
7.08279e-05
-0.000157338
7.08458e-05
-0.000168798
7.15785e-05
-0.00018023
7.3175e-05
-0.000191843
7.5741e-05
-0.00020387
7.93355e-05
-0.000216567
8.39794e-05
8.96816e-05
-0.000230196
-2.44541e-06
1.52387e-05
-8.62365e-06
3.8604e-05
-1.75697e-05
5.60889e-05
-2.84721e-05
6.8667e-05
-4.06606e-05
7.72449e-05
-5.35899e-05
8.26367e-05
-6.6823e-05
8.55588e-05
-8.00161e-05
8.66363e-05
-9.29065e-05
8.6414e-05
-0.000105304
8.53684e-05
-0.000117084
8.39189e-05
-0.000128186
8.24364e-05
-0.000138607
8.12492e-05
-0.000148406
8.06449e-05
-0.000157698
8.08709e-05
-0.000166654
8.21311e-05
-0.000175494
8.45808e-05
-0.000184479
8.832e-05
-0.0001939
9.34013e-05
9.9856e-05
-0.000204075
-2.45169e-06
1.76904e-05
-8.60742e-06
4.47597e-05
-1.74761e-05
6.49575e-05
-2.82286e-05
7.94194e-05
-4.01807e-05
8.9197e-05
-5.27732e-05
9.52292e-05
-6.55524e-05
9.8338e-05
-7.81536e-05
9.92374e-05
-9.02877e-05
9.85481e-05
-0.000101733
9.68135e-05
-0.000112329
9.45151e-05
-0.000121976
9.20838e-05
-0.000130636
8.9909e-05
-0.000138333
8.83421e-05
-0.00014516
8.76971e-05
-0.000151275
8.82463e-05
-0.000156906
9.02121e-05
-0.000162343
9.37565e-05
-0.000167927
9.89853e-05
0.000105972
-0.000174042
-2.45725e-06
2.01476e-05
-8.57889e-06
5.08813e-05
-1.73448e-05
7.37235e-05
-2.79086e-05
8.99832e-05
-3.9574e-05
0.000100862
-5.17702e-05
0.000107425
-6.40295e-05
0.000110597
-7.59678e-05
0.000111176
-8.72705e-05
0.000109851
-9.76823e-05
0.000107225
-0.000107003
0.000103836
-0.000115088
0.000100169
-0.00012185
9.66711e-05
-0.000127269
9.37608e-05
-0.000131398
9.18263e-05
-0.000134375
9.12228e-05
-0.000136424
9.22617e-05
-0.000137862
9.51945e-05
-0.00013909
0.000100213
0.000107463
-0.000140581
-2.45856e-06
2.26062e-05
-8.52493e-06
5.69477e-05
-1.7148e-05
8.23466e-05
-2.74652e-05
0.0001003
-3.87711e-05
0.000112168
-5.04877e-05
0.000119142
-6.21376e-05
0.000122247
-7.33222e-05
0.00012236
-8.37042e-05
0.000120233
-9.29972e-05
0.000116518
-0.00010096
0.000111798
-0.000107396
0.000106605
-0.000112163
0.000101438
-0.000115179
9.67775e-05
-0.000116445
9.30917e-05
-0.000116054
9.08321e-05
-0.000114215
9.04231e-05
-0.000111262
9.2241e-05
-0.000107658
9.66084e-05
0.000103797
-0.000103992
-2.45046e-06
2.50566e-05
-8.42685e-06
6.29241e-05
-1.68457e-05
9.07654e-05
-2.68297e-05
0.000110285
-3.76679e-05
0.000123006
-4.878e-05
0.000130254
-5.96854e-05
0.000133153
-6.99777e-05
0.000132653
-7.93043e-05
0.000129559
-8.7353e-05
0.000124567
-9.38449e-05
0.00011829
-9.85336e-05
0.000111294
-0.000101213
0.000104117
-0.00010173
9.7295e-05
-0.00010001
9.13718e-05
-9.60824e-05
8.69041e-05
-9.01114e-05
8.4452e-05
-8.24286e-05
8.45583e-05
-7.35575e-05
8.77373e-05
9.44641e-05
-6.42248e-05
-2.42645e-06
2.74831e-05
-8.26099e-06
6.87586e-05
-1.63865e-05
9.88909e-05
-2.59123e-05
0.00011981
-3.61243e-05
0.000133218
-4.6445e-05
0.000140575
-5.63975e-05
0.000143105
-6.55762e-05
0.000141831
-7.36232e-05
0.000137606
-8.02115e-05
0.000131155
-8.50344e-05
0.000123113
-8.78023e-05
0.000114062
-8.82477e-05
0.000104562
-8.61403e-05
9.51876e-05
-8.13139e-05
8.65454e-05
-7.37043e-05
7.92945e-05
-6.33991e-05
7.41469e-05
-5.06933e-05
7.18525e-05
-3.61498e-05
7.31938e-05
7.89637e-05
-2.06493e-05
-2.3792e-06
2.98623e-05
-8.00043e-06
7.43799e-05
-1.5711e-05
0.000106601
-2.46057e-05
0.000128705
-3.39686e-05
0.000142581
-4.32278e-05
0.000149834
-5.19155e-05
0.000151793
-5.96353e-05
0.000149551
-6.60358e-05
0.000144007
-7.07897e-05
0.000135909
-7.35794e-05
0.000125903
-7.40886e-05
0.000114571
-7.20029e-05
0.000102477
-6.70206e-05
9.02054e-05
-5.88789e-05
7.84036e-05
-4.73985e-05
6.7814e-05
-3.25498e-05
5.92982e-05
-1.45406e-05
5.38432e-05
6.07169e-06
5.25816e-05
5.67805e-05
2.82549e-05
-2.30149e-06
3.21638e-05
-7.61757e-06
7.96959e-05
-1.4756e-05
0.00011374
-2.27929e-05
0.000136742
-3.10078e-05
0.000150796
-3.88329e-05
0.000157659
-4.58114e-05
0.000158771
-5.15614e-05
0.000155301
-5.57476e-05
0.000148193
-5.80583e-05
0.00013822
-5.81861e-05
0.000126031
-5.5815e-05
0.0001122
-5.06128e-05
9.72743e-05
-4.22332e-05
8.18257e-05
-3.03336e-05
6.65041e-05
-1.46167e-05
5.20971e-05
5.09516e-06
3.95863e-05
2.87429e-05
3.01955e-05
5.5852e-05
2.54725e-05
2.73504e-05
8.52821e-05
-2.18726e-06
3.4351e-05
-7.08732e-06
8.4596e-05
-1.3461e-05
0.000120114
-2.03574e-05
0.000143638
-2.70425e-05
0.000157481
-3.2946e-05
0.000163563
-3.76163e-05
0.000163442
-4.06844e-05
0.000158369
-4.18349e-05
0.000149344
-4.07823e-05
0.000137167
-3.72507e-05
0.000122499
-3.09561e-05
0.000105905
-2.15918e-05
8.791e-05
-8.81847e-06
6.90524e-05
7.73477e-06
4.99509e-05
2.84464e-05
3.13855e-05
5.36384e-05
1.43943e-05
8.34495e-05
3.84275e-07
0.000117596
-8.67399e-06
-9.99738e-06
0.000154944
-2.03256e-06
3.63836e-05
-6.39009e-06
8.89535e-05
-1.17744e-05
0.000125498
-1.71933e-05
0.000149057
-2.18848e-05
0.000162173
-2.52605e-05
0.000166938
-2.68597e-05
0.000165041
-2.63135e-05
0.000157823
-2.33182e-05
0.000146348
-1.76142e-05
0.000131463
-8.96779e-06
0.000113853
2.84529e-06
9.4092e-05
1.80581e-05
7.26972e-05
3.69319e-05
5.01786e-05
5.97746e-05
2.71082e-05
8.69477e-05
4.21234e-06
0.000118841
-1.74988e-05
0.000155779
-3.6554e-05
0.000197775
-5.06699e-05
-5.61313e-05
0.000243909
-1.83604e-06
3.82196e-05
-5.51344e-06
9.26309e-05
-9.65718e-06
0.000129642
-1.32142e-05
0.000152614
-1.53729e-05
0.000164332
-1.55035e-05
0.000167069
-1.3111e-05
0.000162648
-7.8015e-06
0.000152513
7.40905e-07
0.000137806
1.27693e-05
0.000119435
2.84844e-05
9.81376e-05
4.80434e-05
7.4533e-05
7.15721e-05
4.91685e-05
9.9183e-05
2.25677e-05
0.000131004
-4.713e-06
0.000167217
-3.20007e-05
0.00020809
-5.83718e-05
0.00025398
-8.24437e-05
0.000305204
-0.000101894
-0.000112236
0.000361308
-1.5988e-06
3.98184e-05
-4.45164e-06
9.54838e-05
-7.08309e-06
0.000132273
-8.35444e-06
0.000153885
-7.37757e-06
0.000163355
-3.45085e-06
0.000163142
3.98873e-06
0.000155209
1.53976e-05
0.000141105
3.11438e-05
0.00012206
5.15142e-05
9.90645e-05
7.67136e-05
7.29382e-05
0.00010686
4.43868e-05
0.000141978
1.40508e-05
0.000181998
-1.74527e-05
0.000226773
-4.94883e-05
0.000276117
-8.13439e-05
0.000329873
-0.000112128
0.000388034
-0.000140605
0.000450893
-0.000164752
-0.000180026
0.000518683
-1.32315e-06
4.11416e-05
-3.20235e-06
9.7363e-05
-4.03287e-06
0.000133104
-2.56223e-06
0.000152415
2.2048e-06
0.000158588
1.10759e-05
0.000154271
2.47211e-05
0.000141564
4.37037e-05
0.000122122
6.84941e-05
9.72693e-05
9.94695e-05
6.80891e-05
0.000136902
3.55057e-05
0.000180937
3.52101e-07
0.000231561
-3.65739e-05
0.000288571
-7.44627e-05
0.000351536
-0.000112453
0.000419782
-0.00014959
0.000492423
-0.00018477
0.000568475
-0.000216657
0.000647245
-0.000243522
-0.000262703
0.000729922
-1.01055e-06
4.21521e-05
-1.76062e-06
9.8113e-05
-4.83537e-07
0.000131827
4.21674e-06
0.000147715
1.34737e-05
0.000149331
2.8235e-05
0.00013951
4.93157e-05
0.000120483
7.74284e-05
9.40092e-05
0.000113195
6.15025e-05
0.000157143
2.41411e-05
0.000209687
-1.70378e-05
0.000271097
-6.10578e-05
0.000341454
-0.000106931
0.000420583
-0.000153591
0.000507952
-0.000199822
0.000602546
-0.000244184
0.000702701
-0.000284924
0.000805908
-0.000319864
0.000908978
-0.000346592
-0.000366963
0.00101324
-6.59126e-07
4.28113e-05
-1.11561e-07
9.75655e-05
3.6055e-06
0.000128109
1.20609e-05
0.000139259
2.65549e-05
0.000134837
4.82043e-05
0.00011786
7.79976e-05
9.06895e-05
0.000116826
5.51812e-05
0.000165492
1.28363e-05
0.000224709
-3.50764e-05
0.000295089
-8.74176e-05
0.000377122
-0.000143091
0.000471157
-0.000200966
0.000577367
-0.000259801
0.00069569
-0.000318145
0.000825703
-0.000374197
0.000966315
-0.000425537
0.0011148
-0.000468346
0.00126352
-0.000495319
-0.000492834
0.00138939
-2.61989e-07
4.30733e-05
1.77538e-06
9.55281e-05
8.30404e-06
0.000121581
2.10918e-05
0.000126471
4.16291e-05
0.000114299
7.122e-05
8.82695e-05
0.000111037
5.08725e-05
0.000162148
4.07037e-06
0.000225522
-5.05377e-05
0.000302027
-0.000111582
0.000392427
-0.000177818
0.00049739
-0.000248053
0.000617516
-0.000321093
0.000753427
-0.000395712
0.000905922
-0.00047064
0.00107629
-0.00054457
0.00126691
-0.000616147
0.0014825
-0.000683937
0.00173416
-0.000746981
-0.000804138
0.00204546
1.96832e-07
4.28764e-05
3.95475e-06
9.17702e-05
1.37233e-05
0.000111812
3.14907e-05
0.000108704
5.89521e-05
8.6838e-05
9.76018e-05
4.96198e-05
0.000148781
-3.06993e-07
0.000213693
-6.08418e-05
0.000293396
-0.000130241
0.000388788
-0.000206974
0.000500599
-0.000289629
0.000629393
-0.000376847
0.000775607
-0.000467306
0.00093962
-0.000559726
0.00112189
-0.000652914
0.00132318
-0.000745855
0.00154484
-0.000837812
0.00178937
-0.000928462
0.00206034
-0.00101795
-0.00109954
0.00235574
7.38434e-07
4.2138e-05
6.49803e-06
8.60106e-05
2.00065e-05
9.83038e-05
4.34858e-05
8.52247e-05
7.88377e-05
5.14861e-05
0.00012773
7.27326e-07
0.000191627
-6.4204e-05
0.000271782
-0.000140996
0.000369207
-0.000227666
0.000484642
-0.000322409
0.000618525
-0.000423512
0.000770989
-0.000529311
0.000941879
-0.000638197
0.0011308
-0.00074865
0.0013372
-0.000859315
0.00156044
-0.000969086
0.00179983
-0.00107721
0.00205471
-0.00118334
0.00232408
-0.00128732
-0.00138077
0.00260531
1.39002e-06
4.0748e-05
9.49213e-06
7.79085e-05
2.73208e-05
8.04751e-05
5.73327e-05
5.52129e-05
0.000101621
7.19791e-06
0.000161982
-5.96336e-05
0.000239918
-0.00014214
0.000336598
-0.000237677
0.000452804
-0.000343872
0.000588876
-0.00045848
0.000744676
-0.000579312
0.000919589
-0.000704224
0.00111255
-0.000831156
0.00132209
-0.000958195
0.00154644
-0.00108366
0.00178352
-0.00120617
0.00203105
-0.00132474
0.00228646
-0.00143875
0.00254695
-0.00154782
-0.00164446
0.00281065
2.18112e-06
3.85669e-05
1.30282e-05
6.70614e-05
3.58345e-05
5.76688e-05
7.32742e-05
1.77731e-05
0.00012759
-4.71174e-05
0.000200624
-0.000132668
0.000293785
-0.000235301
0.00040797
-0.000351862
0.00054349
-0.000479391
0.000700006
-0.000614996
0.00087652
-0.000755825
0.0010714
-0.000899103
0.00128246
-0.00104221
0.00150706
-0.0011828
0.00174226
-0.00131885
0.00198486
-0.00144878
0.00223158
-0.00157145
0.00247899
-0.00168617
0.00272377
-0.00179259
-0.00188515
0.00296445
3.14008e-06
3.54268e-05
1.71899e-05
5.30116e-05
4.56917e-05
2.9167e-05
9.14946e-05
-2.80299e-05
0.000156912
-0.000112534
0.000243703
-0.00021946
0.000352994
-0.000344591
0.000485165
-0.000484033
0.000639772
-0.000633999
0.000815514
-0.000790738
0.00101027
-0.000950584
0.00122122
-0.00111005
0.001445
-0.00126599
0.0016779
-0.0014157
0.00191607
-0.00155702
0.00215568
-0.00168839
0.00239308
-0.00180885
0.00262487
-0.00191795
0.00284804
-0.00201577
-0.00209878
0.00306167
4.29079e-06
3.1136e-05
2.20418e-05
3.52606e-05
5.69882e-05
-5.7794e-06
0.000112077
-8.31188e-05
0.000189568
-0.000190025
0.000290954
-0.000320846
0.000416828
-0.000470465
0.000566765
-0.00063397
0.000739268
-0.000806503
0.000931816
-0.000983286
0.00114101
-0.00115977
0.00136279
-0.00133184
0.00159276
-0.00149596
0.00182643
-0.00164937
0.0020595
-0.00179009
0.00228808
-0.00191697
0.0025088
-0.00202957
0.0027189
-0.00212806
0.00291631
-0.00221317
-0.00228326
0.00310079
5.65029e-06
2.54857e-05
2.76212e-05
1.32897e-05
6.97528e-05
-4.7911e-05
0.000134971
-0.000148337
0.000225306
-0.00028036
0.000341738
-0.000437277
0.000484031
-0.000612759
0.000650646
-0.000800585
0.000838766
-0.000994622
0.00104448
-0.001189
0.00126308
-0.00137838
0.00148947
-0.00155822
0.00171851
-0.001725
0.00194541
-0.00187627
0.00216601
-0.00201069
0.0023769
-0.00212786
0.00257554
-0.00222822
0.00276028
-0.0023128
0.00293022
-0.00238311
-0.00243905
0.003086
7.22743e-06
1.82583e-05
3.39324e-05
-1.34152e-05
8.3935e-05
-9.79136e-05
0.000159974
-0.000224376
0.000263614
-0.000384001
0.000395028
-0.000568691
0.000552833
-0.000770563
0.000734081
-0.000981833
0.000934455
-0.001195
0.00114864
-0.00140318
0.00137081
-0.00160055
0.00159515
-0.00178257
0.00181632
-0.00194617
0.00202979
-0.00208975
0.00223206
-0.00221295
0.00242071
-0.00231651
0.00259437
-0.00240188
0.00275261
-0.00247104
0.00289573
-0.00252623
-0.00256853
0.00302521
9.02238e-06
9.2359e-06
4.09441e-05
-4.53369e-05
9.93994e-05
-0.000156369
0.000186721
-0.000311698
0.000303724
-0.000501003
0.000449441
-0.000714409
0.00062103
-0.000942152
0.00081393
-0.00117473
0.00102229
-0.00140335
0.00123955
-0.00162045
0.00145916
-0.00182016
0.00167511
-0.00199852
0.00188242
-0.00215348
0.00207736
-0.00228468
0.00225752
-0.00239312
0.00242175
-0.00248073
0.00256992
-0.00255005
0.00270275
-0.00260386
0.00282148
-0.00264496
-0.00267524
0.0029282
1.10265e-05
-1.79064e-06
4.85884e-05
-8.28988e-05
0.000115925
-0.000223705
0.000214693
-0.000410466
0.00034463
-0.000630941
0.000503299
-0.000873078
0.000686147
-0.001125
0.000886922
-0.00137551
0.00109838
-0.00161482
0.00131314
-0.0018352
0.0015244
-0.00203141
0.00172656
-0.00220068
0.00191553
-0.00234245
0.00208879
-0.00245794
0.00224525
-0.00254958
0.00238503
-0.00262051
0.00250912
-0.00267414
0.00261908
-0.00271382
0.00271679
-0.00274268
-0.00276304
0.00280459
1.32225e-05
-1.50132e-05
5.67614e-05
-0.000126438
0.000133207
-0.00030015
0.000243229
-0.000520488
0.00038514
-0.000772852
0.000554738
-0.00104268
0.000745624
-0.00131589
0.00094996
-0.00157984
0.00115947
-0.00182432
0.00136643
-0.00204216
0.00156443
-0.00222942
0.00174882
-0.00238506
0.00191676
-0.0025104
0.00206714
-0.00260832
0.00220017
-0.00268261
0.00231706
-0.0027374
0.00241963
-0.0027767
0.00250996
-0.00280416
0.00259021
-0.00282292
-0.0028355
0.00266267
1.5584e-05
-3.05972e-05
6.53237e-05
-0.000176177
0.000150866
-0.000385692
0.00027155
-0.000641172
0.000423932
-0.000925234
0.000601839
-0.00122058
0.000797049
-0.0015111
0.00100043
-0.00178322
0.00120317
-0.00202707
0.00139784
-0.00223683
0.00157894
-0.00241052
0.00174313
-0.00254926
0.00188907
-0.00265633
0.00201696
-0.00273621
0.00212815
-0.00279381
0.00222466
-0.00283391
0.00230875
-0.0028608
0.00238274
-0.00287815
0.00244876
-0.00288893
-0.00289562
0.00250887
1.80756e-05
-4.86728e-05
7.41027e-05
-0.000232204
0.000168457
-0.000480047
0.000298797
-0.000771513
0.000459646
-0.00108608
0.000642779
-0.00140372
0.000838359
-0.00170667
0.00103642
-0.00198128
0.00122823
-0.00221888
0.00140717
-0.00241577
0.0015691
-0.00257245
0.0017122
-0.00269236
0.00183652
-0.00278065
0.00194345
-0.00284314
0.00203515
-0.00288551
0.00211409
-0.00291285
0.00218273
-0.00292944
0.0022433
-0.00293872
0.00229776
-0.00294339
-0.00294571
0.00234785
2.06528e-05
-6.93256e-05
8.28964e-05
-0.000294448
0.000185488
-0.000582639
0.000324079
-0.000910103
0.000490971
-0.00125298
0.000675976
-0.00158872
0.00086802
-0.00189872
0.00105687
-0.00217014
0.00123446
-0.00239646
0.00139544
-0.00257676
0.00153725
-0.00271425
0.00165954
-0.00281465
0.00176363
-0.00288474
0.00185175
-0.00293126
0.00192654
-0.0029603
0.00199065
-0.00297696
0.00204648
-0.00298526
0.00209604
-0.00298829
0.00214102
-0.00298837
-0.00298748
0.00218279
2.32626e-05
-9.25882e-05
9.14797e-05
-0.000362665
0.000201444
-0.000692602
0.000346521
-0.00105518
0.000516741
-0.0014232
0.000700207
-0.00177219
0.000885116
-0.00208363
0.00106158
-0.0023466
0.00122266
-0.00255754
0.00136459
-0.00271869
0.00148638
-0.00283604
0.00158903
-0.00291731
0.00167479
-0.0029705
0.00174644
-0.00300291
0.00180683
-0.00302069
0.00185852
-0.00302865
0.00190369
-0.00303044
0.0019441
-0.0030287
0.00198111
-0.00302538
-0.00302214
0.00201577
2.58448e-05
-0.000118433
9.96131e-05
-0.000436433
0.000215808
-0.000808797
0.000365326
-0.0012047
0.000536019
-0.00159389
0.000714684
-0.00195085
0.000889376
-0.00225832
0.00105108
-0.0025083
0.00119436
-0.00270081
0.0013171
-0.00284144
0.00141976
-0.0029387
0.00150442
-0.00300197
0.00157396
-0.00304004
0.00163141
-0.00306036
0.00167957
-0.00306885
0.00172081
-0.00306989
0.00175702
-0.00306664
0.00178964
-0.00306132
0.00181973
-0.00305547
-0.00305049
0.00184809
2.83342e-05
-0.000146767
0.000107054
-0.000515153
0.000228099
-0.000929842
0.000379823
-0.00135642
0.00054815
-0.00176222
0.000719084
-0.00212179
0.00088111
-0.00242035
0.00102652
-0.00265371
0.00115154
-0.00282584
0.00125567
-0.00294556
0.00134057
-0.0030236
0.00140909
-0.0030705
0.00146446
-0.00309541
0.00150972
-0.00310562
0.00154748
-0.0031066
0.00157981
-0.00310222
0.00160829
-0.00309512
0.00163407
-0.0030871
0.00165797
-0.00307938
-0.00307307
0.00168056
3.06626e-05
-0.00017743
0.000113568
-0.000598058
0.000237892
-0.00105417
0.000389508
-0.00150804
0.000552791
-0.0019255
0.000713516
-0.00228251
0.000861102
-0.00256793
0.00098943
-0.00278204
0.00109643
-0.00293284
0.00118298
-0.00303211
0.00125172
-0.00309233
0.00130596
-0.00312473
0.00134901
-0.00313846
0.00138376
-0.00314038
0.00141255
-0.00313539
0.00143712
-0.00312679
0.00145875
-0.00311675
0.00147834
-0.00310669
0.00149652
-0.00309756
-0.00309023
0.00151367
3.27627e-05
0.000118942
0.000244848
0.000394066
0.000549902
0.000698456
0.000830475
0.000941562
0.00103123
0.00110153
0.00115573
0.00119738
0.00122969
0.0012553
0.0012762
0.00129384
0.00130924
0.00132307
0.00133582
0.00134775
3.27215e-05
0.000176858
0.000118828
0.000596439
0.000244678
0.00105165
0.0003939
0.00150486
0.000549818
0.00192194
0.000698529
0.00227884
0.000830762
0.00256435
0.000942094
0.00277869
0.00103201
0.00292979
0.00110255
0.00302937
0.00115697
0.00308988
0.0011988
0.00312253
0.00123128
0.00313646
0.00125702
0.00313855
0.00127805
0.0031337
0.0012958
0.00312522
0.00131129
0.00311528
0.00132522
0.00310531
0.00133806
0.00309625
0.00308899
0.00135006
3.0618e-05
0.00014624
0.000113437
0.000513621
0.00023768
0.000927409
0.000389266
0.00135328
0.000552596
0.00175861
0.000713453
0.00211798
0.000861242
0.00241657
0.000989818
0.00265012
0.00109708
0.00282252
0.0011839
0.00294256
0.00125288
0.0030209
0.00130734
0.00306807
0.00135058
0.00309322
0.0013855
0.00310363
0.00141443
0.00310477
0.00143913
0.00310052
0.00146087
0.00309354
0.00148057
0.00308561
0.00149884
0.00307798
0.00307175
0.00151609
2.8287e-05
0.000117953
0.000106908
0.000434999
0.000227848
0.000806469
0.000379506
0.00120162
0.000547841
0.00159028
0.000718873
0.00194695
0.000881079
0.00225436
0.00102673
0.00250447
0.00115203
0.00269722
0.00125644
0.00283815
0.00134162
0.00293572
0.0014104
0.00299929
0.00146599
0.00303762
0.00151145
0.00305818
0.00154938
0.00306685
0.00158186
0.00306804
0.00161047
0.00306493
0.00163637
0.00305971
0.00166038
0.00305396
0.00304907
0.00168307
2.5796e-05
9.21571e-05
9.9456e-05
0.000361339
0.000215524
0.000690401
0.00036494
0.0010522
0.000535597
0.00141962
0.000714316
0.00176823
0.000889154
0.00207952
0.00105108
0.00234254
0.00119464
0.00255367
0.00131768
0.0027151
0.00142065
0.00283276
0.0015056
0.00291434
0.0015754
0.00296782
0.00163309
0.00300049
0.00168145
0.00301848
0.00172287
0.00302662
0.00175924
0.00302856
0.00179199
0.00302695
0.00182222
0.00302374
0.0030206
0.00185069
2.32132e-05
6.89439e-05
9.13146e-05
0.000293238
0.000201132
0.000580584
0.000346073
0.000907262
0.000516212
0.00124948
0.000699679
0.00158476
0.000884689
0.00189451
0.00106134
0.00216588
0.00122269
0.00239232
0.00136493
0.00257285
0.00148705
0.00271064
0.00159003
0.00281136
0.00167609
0.00288175
0.00174802
0.00292856
0.00180865
0.00295785
0.00186056
0.00297472
0.00190593
0.0029832
0.0019465
0.00298638
0.00198366
0.00298658
0.0029858
0.00201845
2.06038e-05
4.83401e-05
8.27271e-05
0.000231115
0.000185157
0.000478154
0.000323581
0.000768838
0.000490344
0.00108272
0.000675296
0.00139981
0.000867382
0.00170243
0.00105638
0.00197689
0.0012342
0.00221451
0.00139549
0.00241156
0.00153763
0.0025685
0.00166029
0.00268871
0.00176472
0.00277732
0.00185317
0.00284011
0.00192826
0.00288276
0.00199263
0.00291034
0.00204869
0.00292714
0.00209846
0.0029366
0.00214361
0.00294143
0.00294387
0.00218555
1.80279e-05
3.03122e-05
7.39328e-05
0.00017521
0.000168114
0.000383973
0.000298262
0.00063869
0.000458938
0.000922041
0.000641959
0.00121679
0.000837516
0.00150687
0.00103566
0.00177874
0.00122766
0.00202251
0.00140687
0.00223235
0.00156914
0.00240623
0.00171261
0.00254524
0.00183732
0.00265261
0.00194463
0.00273281
0.00203668
0.00279071
0.00211594
0.00283108
0.00218486
0.00285822
0.00224569
0.00287578
0.00230037
0.00288674
0.00289358
0.00235065
1.55385e-05
1.47737e-05
6.51568e-05
0.000125591
0.000150519
0.000298611
0.00027099
0.000518219
0.000423162
0.000769869
0.000600899
0.00103906
0.000796016
0.00131175
0.000999405
0.00157535
0.00120227
0.00181964
0.00139716
0.00203745
0.00157858
0.00222481
0.00174315
0.00238067
0.00188949
0.00250627
0.00201779
0.0026045
0.00212939
0.00267911
0.00222628
0.0027342
0.00231073
0.00277378
0.00238503
0.00280148
0.00245132
0.00282045
0.00283322
0.00251168
1.31799e-05
1.59375e-06
5.66004e-05
8.21709e-05
0.000132863
0.000222348
0.000242658
0.000408424
0.000384327
0.0006282
0.000553704
0.000869678
0.000744428
0.00112103
0.000948691
0.00137109
0.00115824
0.0016101
0.00136535
0.00183034
0.00156362
0.00202655
0.00174835
0.00219594
0.00191671
0.00233792
0.00206752
0.00245368
0.00220101
0.00254562
0.00231834
0.00261686
0.00242133
0.00267079
0.00251205
0.00271076
0.00259264
0.00273987
0.00276045
0.00266541
1.09874e-05
-9.39365e-06
4.84357e-05
4.47226e-05
0.000115591
0.000155193
0.000214124
0.00030989
0.000343795
0.000498529
0.000502199
0.000711274
0.000684819
0.000938407
0.000885439
0.00117047
0.00109685
0.00139869
0.00131166
0.00161552
0.0015231
0.00181511
0.00172556
0.00199348
0.00191491
0.00214856
0.00208862
0.00227998
0.00224556
0.00238867
0.00238584
0.00247659
0.00251041
0.00254622
0.00262083
0.00260033
0.00271897
0.00264173
0.00267226
0.00280716
8.98687e-06
-1.83805e-05
4.08008e-05
1.29086e-05
9.90788e-05
9.69156e-05
0.000186163
0.000222807
0.000302884
0.000381808
0.000448303
0.000565855
0.000619608
0.000767102
0.000812274
0.000977802
0.00102048
0.00119048
0.0012377
0.0013983
0.00145739
0.00159542
0.00167355
0.00177733
0.00188117
0.00194094
0.00207653
0.00208462
0.00225717
0.00220803
0.00242193
0.00231183
0.00257065
0.0023975
0.00270401
0.00246697
0.00282326
0.00252248
0.00256507
0.00293046
7.1953e-06
-2.55758e-05
3.37983e-05
-1.36944e-05
8.36288e-05
4.70851e-05
0.000159431
0.000147005
0.000262782
0.000278457
0.000393874
0.000434763
0.00055135
0.000609626
0.000732297
0.000796855
0.000932431
0.000990349
0.00114647
0.00118427
0.0013686
0.00137329
0.00159303
0.00155289
0.00181442
0.00171955
0.00202824
0.00187081
0.00223095
0.00200532
0.00242011
0.00212266
0.00259435
0.00222327
0.00275319
0.00230813
0.00289691
0.00237876
0.00243501
0.00302696
5.62072e-06
-3.11965e-05
2.74942e-05
-3.55679e-05
6.94585e-05
5.12079e-06
0.000134443
8.20202e-05
0.000224485
0.000188414
0.00034058
0.000318668
0.000482516
0.00046769
0.000648776
0.000630594
0.000836578
0.000802548
0.00104204
0.000978804
0.00126049
0.00115484
0.00148684
0.00132654
0.00171597
0.00149041
0.00194311
0.00164368
0.00216406
0.00178436
0.00237542
0.00191131
0.00257463
0.00202406
0.00275999
0.00212277
0.00293058
0.00220817
0.00227856
0.00308703
4.26235e-06
-3.54589e-05
2.19178e-05
-5.32234e-05
5.66996e-05
-2.9661e-05
0.000111557
2.7163e-05
0.000188755
0.000111216
0.000289798
0.000217626
0.000415293
0.000342195
0.000564839
0.000481048
0.000736965
0.000630422
0.000929177
0.000786591
0.0011381
0.000945911
0.00135973
0.00110492
0.00158965
0.00126049
0.00182342
0.00140991
0.00205673
0.00155105
0.00228568
0.00168236
0.00250689
0.00180284
0.00271759
0.00191207
0.00291567
0.00201009
0.00209335
0.00310088
3.11079e-06
-3.85697e-05
1.70634e-05
-6.71759e-05
4.53993e-05
-5.79968e-05
9.09703e-05
-1.8408e-05
0.000156094
4.6092e-05
0.00024254
0.00013118
0.000351442
0.000233293
0.000483199
0.000349292
0.000637386
0.000476234
0.000812728
0.000611249
0.00100713
0.000751505
0.00121781
0.000894248
0.00144141
0.00103688
0.00167426
0.00117706
0.00191252
0.0013128
0.00215237
0.0014425
0.00239016
0.00156506
0.00262247
0.00167976
0.00284628
0.00178628
0.00187897
0.00306066
2.14867e-06
-4.07184e-05
1.28925e-05
-7.79198e-05
3.55267e-05
-8.0631e-05
7.27298e-05
-5.56112e-05
0.000126749
-7.92753e-06
0.000199435
5.84946e-05
0.000292202
0.000140525
0.000405961
0.000235533
0.000541035
0.00034116
0.000697108
0.000455177
0.000873203
0.000575411
0.00106771
0.000699737
0.00127848
0.000826113
0.0015029
0.000952642
0.00173804
0.00107766
0.00198074
0.0011998
0.0022277
0.0013181
0.00247552
0.00143194
0.00272086
0.00154094
0.00163758
0.00296225
1.35207e-06
-4.20704e-05
9.34052e-06
-8.59082e-05
2.69857e-05
-9.82762e-05
5.67513e-05
-8.53769e-05
0.000100737
-5.19131e-05
0.000160745
-1.51349e-06
0.000238284
6.29859e-05
0.000334532
0.000139285
0.00045028
0.000225412
0.000585882
0.000319575
0.00074122
0.000420073
0.0009157
0.000525257
0.00110828
0.000633532
0.00131753
0.000743396
0.00154168
0.000853507
0.00177871
0.000962775
0.00202634
0.00107047
0.00228203
0.00117625
0.00254298
0.00127998
0.00137327
0.00280729
6.92994e-07
-4.27634e-05
6.32483e-06
-9.15401e-05
1.96342e-05
-0.000111586
4.28531e-05
-0.000108596
7.78918e-05
-8.69518e-05
0.000126424
-5.00462e-05
0.000189921
-5.10467e-07
0.00026964
5.95661e-05
0.000366602
0.00012845
0.000481555
0.000204621
0.000614951
0.000286676
0.00076694
0.000373268
0.000937389
0.000463084
0.00112593
0.000554855
0.00133203
0.000647402
0.00155509
0.000739723
0.00179445
0.000831098
0.00204949
0.000921218
0.00231921
0.00101026
0.00109153
0.00260094
1.42573e-07
-4.2906e-05
3.75637e-06
-9.51539e-05
1.33075e-05
-0.000121137
3.07978e-05
-0.000126086
5.79326e-05
-0.000114087
9.62136e-05
-8.83272e-05
0.000146988
-5.12846e-05
0.000211462
-4.90846e-06
0.0002907
4.9212e-05
0.000385606
0.000109715
0.000496918
0.000175364
0.000625214
0.000244973
0.000770945
0.000317353
0.000934514
0.000391286
0.00111641
0.000465507
0.00131741
0.000538719
0.00153894
0.000609572
0.00178351
0.00067665
0.00205473
0.000739036
0.000795787
0.00235048
-3.25478e-07
-4.25805e-05
1.55097e-06
-9.70303e-05
7.8437e-06
-0.000127429
2.03375e-05
-0.00013858
4.05349e-05
-0.000134284
6.97484e-05
-0.000117541
0.000109156
-9.06921e-05
0.000159829
-5.55813e-05
0.000222739
-1.36987e-05
0.00029876
3.36951e-05
0.000388658
8.54662e-05
0.000493108
0.000140522
0.000612725
0.000197737
0.000748142
0.000255869
0.00090018
0.000313469
0.00107016
0.000368737
0.00126048
0.000419254
0.00147591
0.000461216
0.00172756
0.000487385
0.000484379
0.00203897
-7.31271e-07
-4.18492e-05
-3.59878e-07
-9.74017e-05
3.10503e-06
-0.000130894
1.12523e-05
-0.000146727
2.53963e-05
-0.000148428
4.66627e-05
-0.000138807
7.60457e-05
-0.000120075
0.000114439
-9.39746e-05
0.000162648
-6.19074e-05
0.000221386
-2.50434e-05
0.000291267
1.55855e-05
0.000372783
5.90061e-05
0.000466287
0.000104232
0.000571957
0.000150199
0.000689736
0.000195691
0.000819201
0.000239272
0.000959251
0.000279204
0.00110711
0.000313353
0.00125506
0.00033944
0.00035975
0.00137969
-1.08987e-06
-4.07594e-05
-2.02802e-06
-9.64636e-05
-1.01473e-06
-0.000131908
3.36883e-06
-0.000151111
1.22714e-05
-0.00015733
2.66503e-05
-0.000153186
4.73258e-05
-0.000140751
7.50134e-05
-0.000121662
0.000110335
-9.72292e-05
0.000153818
-6.8526e-05
0.000205874
-3.64709e-05
0.000266774
-1.89334e-06
0.000336595
3.44109e-05
0.00041516
7.16344e-05
0.00050193
0.00010892
0.000595878