/*--------------------------------*- C++ -*----------------------------------*\
  =========                 |
  \\      /  F ield         | OpenFOAM: The Open Source CFD Toolbox
   \\    /   O peration     | Website:  https://openfoam.org
    \\  /    A nd           | Version:  6.0
     \\/     M anipulation  |
\*---------------------------------------------------------------------------*/
FoamFile
{
    version     2.0;
    format      ascii;
    class       volScalarField;
    location    "32";
    object      p;
}
// * * * * * * * * * * * * * * * * * * * * * * * * * * * * * * * * * * * * * //

dimensions      [0 2 -2 0 0 0 0];

internalField   nonuniform List<scalar> 
4000
(
-0.447973
-0.434217
-0.422108
-0.408878
-0.39334
-0.375941
-0.357437
-0.338609
-0.320129
-0.302479
-0.285939
-0.270628
-0.256554
-0.243663
-0.231863
-0.221054
-0.211137
-0.201991
-0.193421
-0.185726
-0.455966
-0.441765
-0.428855
-0.414216
-0.396777
-0.377268
-0.356711
-0.336053
-0.316034
-0.297136
-0.279599
-0.263496
-0.24879
-0.235387
-0.22317
-0.212017
-0.201814
-0.19242
-0.183627
-0.175805
-0.462164
-0.447617
-0.433857
-0.41768
-0.39823
-0.376576
-0.35401
-0.331627
-0.310207
-0.290206
-0.271815
-0.255049
-0.239827
-0.22602
-0.213481
-0.202071
-0.191663
-0.182097
-0.173152
-0.165278
-0.4662
-0.451407
-0.436748
-0.418929
-0.397408
-0.373633
-0.349161
-0.325203
-0.302551
-0.281614
-0.262521
-0.245232
-0.229617
-0.215514
-0.202753
-0.191179
-0.180652
-0.170991
-0.161969
-0.154119
-0.467717
-0.452776
-0.43718
-0.417649
-0.394054
-0.368245
-0.34202
-0.316676
-0.292985
-0.271293
-0.251662
-0.233993
-0.218114
-0.20383
-0.190952
-0.179309
-0.16875
-0.159076
-0.150055
-0.142307
-0.46638
-0.451388
-0.43483
-0.413562
-0.387949
-0.36025
-0.332474
-0.305963
-0.281444
-0.25919
-0.239192
-0.221293
-0.205281
-0.190937
-0.178049
-0.166436
-0.155938
-0.146335
-0.137397
-0.129828
-0.461888
-0.446939
-0.429417
-0.406433
-0.37892
-0.349529
-0.320439
-0.293003
-0.267882
-0.245266
-0.225074
-0.207098
-0.191092
-0.176808
-0.164023
-0.152544
-0.142201
-0.132756
-0.123986
-0.116675
-0.45398
-0.439167
-0.420704
-0.396079
-0.366837
-0.335998
-0.305862
-0.277759
-0.252269
-0.229495
-0.209287
-0.191391
-0.175527
-0.16143
-0.148862
-0.137623
-0.127533
-0.118338
-0.109823
-0.102849
-0.442447
-0.427861
-0.40851
-0.382369
-0.351622
-0.319612
-0.288719
-0.260218
-0.234595
-0.211867
-0.191822
-0.174161
-0.15858
-0.144797
-0.132563
-0.121673
-0.111937
-0.103087
-0.0949183
-0.0883591
-0.427136
-0.412869
-0.392712
-0.365228
-0.33324
-0.300368
-0.269018
-0.24039
-0.214869
-0.19239
-0.172682
-0.155413
-0.140256
-0.126914
-0.115134
-0.104704
-0.0954264
-0.0870202
-0.0792929
-0.0732293
-0.407955
-0.394098
-0.373251
-0.344638
-0.311708
-0.278295
-0.246795
-0.218309
-0.193121
-0.171088
-0.151889
-0.135163
-0.120567
-0.107795
-0.096588
-0.0867307
-0.0780188
-0.0701609
-0.0629779
-0.0574976
-0.384875
-0.371521
-0.350127
-0.320635
-0.287085
-0.253463
-0.222115
-0.194032
-0.169399
-0.148
-0.129475
-0.113438
-0.099537
-0.0874598
-0.0769435
-0.0677719
-0.0597352
-0.0525355
-0.0460085
-0.0412065
-0.357934
-0.345176
-0.323403
-0.293311
-0.259476
-0.225976
-0.195075
-0.167645
-0.143773
-0.123186
-0.105488
-0.0902791
-0.0771988
-0.0659345
-0.0562231
-0.0478479
-0.0405957
-0.0341685
-0.0284161
-0.0243795
-0.327231
-0.315164
-0.293203
-0.262808
-0.229026
-0.195973
-0.165798
-0.139253
-0.116337
-0.0967231
-0.0799919
-0.0657351
-0.0535908
-0.0432488
-0.0344491
-0.0269766
-0.020619
-0.015084
-0.0102244
-0.00700938
-0.292932
-0.28165
-0.259706
-0.229315
-0.195923
-0.163626
-0.134438
-0.108992
-0.0872049
-0.0687082
-0.0530663
-0.0398687
-0.0287582
-0.0194322
-0.0116382
-0.00516754
0.000185929
0.00470477
0.00855707
0.0109046
-0.255257
-0.244853
-0.223143
-0.193065
-0.16039
-0.129138
-0.101178
-0.0770222
-0.0565172
-0.0392613
-0.0248103
-0.012758
-0.00275737
0.00548095
0.0121948
0.0175809
0.0218333
0.025218
0.0279252
0.0292401
-0.214483
-0.205048
-0.183791
-0.154332
-0.122682
-0.0927446
-0.0662283
-0.0435319
-0.0244396
-0.00852577
0.00465558
0.0155007
0.0243405
0.0314429
0.0370236
0.0412634
0.04434
0.0464654
0.0477669
0.0476129
-0.170934
-0.162554
-0.141971
-0.113425
-0.0830888
-0.0547094
-0.0298285
-0.00873699
0.00883479
0.0233301
0.0351916
0.0448011
0.0524664
0.0584236
0.0628547
0.0659193
0.0677552
0.0684031
0.0677654
0.0655807
-0.124974
-0.11773
-0.0980347
-0.0706805
-0.0419243
-0.015322
0.00775455
0.0271161
0.0430799
0.0561035
0.0666263
0.0750176
0.081563
0.086465
0.0898688
0.0919026
0.0925922
0.091589
0.0884431
0.0841585
-0.0770054
-0.0709707
-0.0523657
-0.0264618
0.000474972
0.0251055
0.0462286
0.06375
0.0780289
0.0895361
0.098713
0.105927
0.111462
0.115518
0.118254
0.119815
0.120104
0.118289
0.113677
0.109018
-0.0274537
-0.0226924
-0.00536646
0.0188528
0.0437573
0.0662455
0.0852844
0.100866
0.113384
0.123319
0.131115
0.137144
0.141702
0.14503
0.147368
0.148987
0.149864
0.149035
0.146239
0.149636
0.0232421
0.0266733
0.0425483
0.0648747
0.087563
0.107764
0.124607
0.13816
0.148844
0.157143
0.163494
0.168265
0.171751
0.174203
0.17588
0.177039
0.177671
0.177313
0.176842
0.182372
0.0746242
0.0766802
0.0909543
0.11121
0.13153
0.149326
0.163882
0.175334
0.184122
0.190726
0.195575
0.199027
0.201372
0.202861
0.203739
0.204224
0.204302
0.203684
0.203262
0.207701
0.126231
0.126879
0.139427
0.157468
0.175301
0.190604
0.202807
0.212102
0.218942
0.223798
0.227085
0.229144
0.230254
0.230652
0.230564
0.230187
0.229516
0.228332
0.227371
0.230338
0.177604
0.176824
0.187546
0.203263
0.218525
0.231277
0.241087
0.248194
0.253055
0.25613
0.257814
0.25843
0.258238
0.257456
0.256288
0.254898
0.253271
0.251214
0.249405
0.250998
0.228287
0.226073
0.2349
0.248218
0.260863
0.27104
0.278443
0.283354
0.286228
0.287508
0.28757
0.286714
0.285183
0.283173
0.280866
0.2784
0.275745
0.272729
0.269995
0.270271
0.277837
0.274197
0.281087
0.291972
0.301987
0.309598
0.314612
0.317344
0.318245
0.317742
0.316185
0.313856
0.310974
0.307718
0.304249
0.30068
0.296971
0.292978
0.289316
0.288345
0.325825
0.320783
0.325725
0.334177
0.341588
0.346671
0.34934
0.349938
0.348906
0.346652
0.343504
0.339722
0.335507
0.331019
0.326397
0.321738
0.316995
0.312049
0.307483
0.305327
0.371841
0.365433
0.368446
0.3745
0.379367
0.381994
0.382392
0.380923
0.378021
0.374071
0.369381
0.36419
0.35868
0.352993
0.347254
0.341538
0.335802
0.329948
0.324515
0.321235
0.415493
0.407773
0.408904
0.412632
0.415046
0.415317
0.413541
0.410098
0.405408
0.399838
0.393675
0.387137
0.380388
0.373558
0.366751
0.360032
0.353357
0.346651
0.340397
0.336055
0.456415
0.447449
0.446773
0.448278
0.448363
0.446406
0.442579
0.437273
0.4309
0.423804
0.416251
0.408444
0.40053
0.392622
0.384813
0.377155
0.369606
0.362109
0.355085
0.349748
0.494266
0.484135
0.481753
0.481168
0.479076
0.475042
0.469308
0.462273
0.454336
0.445823
0.436982
0.427997
0.419002
0.410097
0.401361
0.392835
0.384485
0.376263
0.368527
0.362266
0.528733
0.51753
0.513568
0.511054
0.506961
0.501026
0.493548
0.484933
0.475568
0.465762
0.455745
0.445686
0.435706
0.425892
0.416312
0.407001
0.397926
0.389049
0.380663
0.373556
0.559532
0.547362
0.541967
0.53771
0.531817
0.524175
0.515134
0.505105
0.494461
0.483497
0.472428
0.461408
0.450548
0.439923
0.42959
0.419578
0.409859
0.400401
0.391432
0.383566
0.58641
0.573391
0.56673
0.560938
0.553465
0.544328
0.533919
0.522653
0.510892
0.498917
0.486929
0.475071
0.463442
0.452109
0.441121
0.430498
0.420221
0.410259
0.400779
0.392245
0.609149
0.595407
0.587664
0.580564
0.571748
0.561342
0.549774
0.537461
0.524755
0.511923
0.499157
0.48659
0.474311
0.46238
0.450837
0.4397
0.428952
0.418565
0.408651
0.39955
0.627565
0.613234
0.604608
0.596442
0.586534
0.575099
0.562592
0.549429
0.535956
0.522431
0.509035
0.495893
0.483088
0.470673
0.458682
0.447129
0.436001
0.425272
0.415005
0.405441
0.641507
0.626728
0.61743
0.608454
0.597717
0.585501
0.572282
0.558476
0.544423
0.530373
0.5165
0.502923
0.48972
0.476939
0.464608
0.45274
0.441325
0.430337
0.419802
0.409887
0.650863
0.635783
0.626032
0.61651
0.605216
0.592476
0.578779
0.564541
0.550098
0.535696
0.521503
0.507634
0.494164
0.481137
0.468579
0.4565
0.444893
0.433731
0.423015
0.412864
0.655558
0.640327
0.630347
0.620552
0.608978
0.595975
0.582037
0.567583
0.552944
0.538365
0.524011
0.509996
0.496392
0.483242
0.470569
0.458385
0.446681
0.435432
0.424626
0.414355
0.655553
0.640322
0.630343
0.620547
0.608974
0.595971
0.582034
0.56758
0.552942
0.538362
0.524009
0.509994
0.49639
0.48324
0.470568
0.458383
0.44668
0.43543
0.424624
0.414354
0.650849
0.635769
0.626019
0.616498
0.605205
0.592466
0.57877
0.564532
0.55009
0.535688
0.521496
0.507628
0.494158
0.481131
0.468573
0.456495
0.444888
0.433726
0.423011
0.412859
0.641483
0.626705
0.617408
0.608434
0.597698
0.585484
0.572267
0.558462
0.54441
0.53036
0.516488
0.502912
0.48971
0.476929
0.464599
0.452732
0.441317
0.430329
0.419794
0.40988
0.627532
0.613202
0.604578
0.596414
0.586508
0.575075
0.56257
0.549409
0.535938
0.522414
0.509019
0.495878
0.483074
0.47066
0.458669
0.447117
0.435989
0.42526
0.414994
0.405431
0.609107
0.595367
0.587626
0.580529
0.571715
0.561312
0.549747
0.537435
0.524731
0.511901
0.499137
0.48657
0.474293
0.462363
0.450821
0.439684
0.428937
0.418551
0.408638
0.399537
0.586359
0.573342
0.566684
0.560895
0.553425
0.544291
0.533885
0.522622
0.510864
0.49889
0.486904
0.475048
0.46342
0.452089
0.441101
0.43048
0.420203
0.410242
0.400763
0.392229
0.559473
0.547305
0.541913
0.53766
0.531771
0.524133
0.515095
0.505069
0.494428
0.483466
0.472399
0.461381
0.450522
0.439899
0.429567
0.419556
0.409838
0.400382
0.391413
0.383547
0.528666
0.517465
0.513507
0.510997
0.506909
0.500978
0.493504
0.484893
0.475531
0.465726
0.455712
0.445655
0.435677
0.425865
0.416287
0.406976
0.397902
0.389026
0.380641
0.373535
0.494192
0.484063
0.481686
0.481105
0.479018
0.474989
0.469259
0.462228
0.454294
0.445784
0.436945
0.427962
0.41897
0.410067
0.401332
0.392808
0.384459
0.376238
0.368503
0.362243
0.456335
0.447371
0.4467
0.448209
0.4483
0.446348
0.442525
0.437224
0.430854
0.423761
0.416211
0.408406
0.400495
0.392589
0.384781
0.377125
0.369578
0.362081
0.355059
0.349723
0.415407
0.407689
0.408825
0.412558
0.414978
0.415254
0.413484
0.410044
0.405359
0.399792
0.393632
0.387096
0.38035
0.373522
0.366717
0.36
0.353326
0.346621
0.340368
0.336027
0.371749
0.365345
0.368362
0.374422
0.379295
0.381927
0.38233
0.380866
0.377968
0.374022
0.369335
0.364147
0.358639
0.352955
0.347217
0.341504
0.335769
0.329916
0.324485
0.321206
0.325729
0.32069
0.325637
0.334094
0.341512
0.346601
0.349276
0.349878
0.348851
0.3466
0.343456
0.339677
0.335464
0.330979
0.326359
0.321701
0.31696
0.312015
0.30745
0.305295
0.277737
0.274101
0.280996
0.291887
0.301909
0.309525
0.314545
0.317282
0.318188
0.317688
0.316135
0.313808
0.310929
0.307676
0.304208
0.300641
0.296935
0.292943
0.289282
0.288312
0.228185
0.225974
0.234806
0.248131
0.260782
0.270965
0.278374
0.28329
0.286168
0.287453
0.287518
0.286665
0.285137
0.283129
0.280824
0.27836
0.275707
0.272692
0.26996
0.270236
0.1775
0.176724
0.187451
0.203174
0.218442
0.231201
0.241016
0.248128
0.252994
0.256073
0.25776
0.258379
0.25819
0.257411
0.256245
0.254857
0.253232
0.251176
0.249368
0.250962
0.126128
0.126779
0.139332
0.157378
0.175218
0.190527
0.202735
0.212036
0.21888
0.22374
0.227031
0.229093
0.230205
0.230606
0.23052
0.230145
0.229476
0.228293
0.227333
0.230302
0.0745214
0.0765807
0.0908592
0.111121
0.131447
0.149249
0.163811
0.175268
0.184059
0.190667
0.19552
0.198975
0.201323
0.202814
0.203694
0.204181
0.204261
0.203644
0.203223
0.207664
0.0231411
0.0265756
0.0424546
0.0647863
0.0874806
0.107687
0.124536
0.138093
0.148782
0.157085
0.16344
0.168213
0.171702
0.174156
0.175835
0.176996
0.17763
0.177273
0.176803
0.182334
-0.0275517
-0.0227872
-0.00545757
0.0187665
0.0436766
0.0661704
0.0852145
0.1008
0.113323
0.123262
0.131061
0.137092
0.141653
0.144983
0.147323
0.148943
0.149822
0.148995
0.146199
0.149598
-0.0770991
-0.0710614
-0.0524531
-0.0265449
0.000396901
0.0250326
0.0461606
0.0636864
0.0779692
0.0894798
0.0986596
0.105876
0.111413
0.115472
0.118209
0.119771
0.120062
0.118247
0.113637
0.108979
-0.125063
-0.117816
-0.0981175
-0.0707596
-0.0419988
-0.0153918
0.00768916
0.0270548
0.0430221
0.0560488
0.0665744
0.074968
0.0815153
0.0864191
0.0898243
0.0918592
0.0925497
0.0915473
0.0884017
0.0841172
-0.171015
-0.162633
-0.142048
-0.113499
-0.0831589
-0.0547753
-0.0298905
-0.0087954
0.00877958
0.0232777
0.0351416
0.0447531
0.05242
0.0583787
0.0628109
0.0658764
0.067713
0.0683613
0.0677237
0.0655388
-0.214557
-0.205119
-0.183861
-0.1544
-0.122747
-0.0928059
-0.0662862
-0.0435867
-0.0244917
-0.00857544
0.00460793
0.0154548
0.0242959
0.0313995
0.036981
0.0412214
0.0442985
0.046424
0.0477255
0.0475715
-0.255322
-0.244916
-0.223205
-0.193126
-0.160448
-0.129194
-0.101231
-0.0770727
-0.0565654
-0.0393076
-0.024855
-0.0128015
-0.00279976
0.00543936
0.0121538
0.0175403
0.0217928
0.0251775
0.0278845
0.0291994
-0.292987
-0.281703
-0.259759
-0.229367
-0.195975
-0.163675
-0.134486
-0.109037
-0.0872488
-0.0687507
-0.0531076
-0.0399092
-0.028798
-0.0194715
-0.0116773
-0.00520656
0.000146805
0.00466538
0.00851732
0.0108646
-0.327277
-0.315207
-0.293247
-0.262852
-0.22907
-0.196016
-0.165839
-0.139293
-0.116376
-0.0967612
-0.0800294
-0.0657721
-0.0536276
-0.0432855
-0.0344859
-0.0270137
-0.0206565
-0.015122
-0.0102631
-0.0070485
-0.357968
-0.345208
-0.323436
-0.293345
-0.25951
-0.226011
-0.195109
-0.167678
-0.143807
-0.123219
-0.105521
-0.0903123
-0.0772322
-0.0659683
-0.0562574
-0.0478827
-0.0406313
-0.0342049
-0.0284534
-0.0244176
-0.384897
-0.371541
-0.350148
-0.320658
-0.28711
-0.253489
-0.222142
-0.19406
-0.169426
-0.148028
-0.129503
-0.113467
-0.0995667
-0.0874902
-0.0769748
-0.0678042
-0.0597686
-0.05257
-0.0460443
-0.0412433
-0.407964
-0.394105
-0.37326
-0.344649
-0.311723
-0.278312
-0.246813
-0.218328
-0.193142
-0.17111
-0.151912
-0.135187
-0.120592
-0.107822
-0.0966161
-0.0867602
-0.0780498
-0.0701934
-0.0630119
-0.057533
-0.427132
-0.412863
-0.392708
-0.365228
-0.333244
-0.300375
-0.269028
-0.240402
-0.214883
-0.192406
-0.1727
-0.155432
-0.140277
-0.126937
-0.115159
-0.104731
-0.0954548
-0.0870505
-0.079325
-0.073263
-0.442429
-0.427842
-0.408493
-0.382356
-0.351614
-0.319609
-0.28872
-0.260222
-0.234601
-0.211876
-0.191833
-0.174175
-0.158597
-0.144816
-0.132584
-0.121697
-0.111963
-0.103115
-0.0949484
-0.0883912
-0.453948
-0.439134
-0.420673
-0.396054
-0.366818
-0.335983
-0.305853
-0.277754
-0.252267
-0.229497
-0.209292
-0.191399
-0.175538
-0.161444
-0.148879
-0.137643
-0.127555
-0.118364
-0.109851
-0.102879
-0.461842
-0.446892
-0.429373
-0.406395
-0.378888
-0.349504
-0.32042
-0.292988
-0.267872
-0.245261
-0.225073
-0.207101
-0.191097
-0.176817
-0.164035
-0.15256
-0.14222
-0.132779
-0.124012
-0.116704
-0.466321
-0.451328
-0.434773
-0.41351
-0.387905
-0.360214
-0.332444
-0.305939
-0.281426
-0.259177
-0.239183
-0.221288
-0.205282
-0.190941
-0.178057
-0.166449
-0.155954
-0.146354
-0.13742
-0.129854
-0.467645
-0.452704
-0.43711
-0.417585
-0.393997
-0.368196
-0.341979
-0.316642
-0.292958
-0.271272
-0.251646
-0.233982
-0.218108
-0.203829
-0.190956
-0.179317
-0.168763
-0.159093
-0.150076
-0.142331
-0.466116
-0.451322
-0.436666
-0.418852
-0.397339
-0.373573
-0.349109
-0.325159
-0.302515
-0.281584
-0.262498
-0.245214
-0.229605
-0.215507
-0.202752
-0.191182
-0.18066
-0.171004
-0.161986
-0.154141
-0.462068
-0.447521
-0.433762
-0.417591
-0.398149
-0.376504
-0.353947
-0.331573
-0.310161
-0.290168
-0.271783
-0.255025
-0.239809
-0.226007
-0.213474
-0.20207
-0.191668
-0.182107
-0.173167
-0.165298
-0.455858
-0.441657
-0.428749
-0.414116
-0.396684
-0.377185
-0.356637
-0.335988
-0.315979
-0.297088
-0.27956
-0.263464
-0.248764
-0.235369
-0.223159
-0.212011
-0.201814
-0.192426
-0.183639
-0.175822
-0.447855
-0.434099
-0.421992
-0.408767
-0.393237
-0.375847
-0.357353
-0.338534
-0.320064
-0.302423
-0.285892
-0.270588
-0.256522
-0.243638
-0.231846
-0.221043
-0.211133
-0.201993
-0.19343
-0.18574
0.0903112
0.062668
0.0422616
0.0324556
0.0236633
0.0118446
-0.00139195
-0.0141771
-0.0262254
-0.0379425
-0.0495634
-0.0610599
-0.0723416
-0.0833694
-0.0941526
-0.104717
-0.115088
-0.125296
-0.135376
-0.145377
0.0330409
0.0191018
0.00681396
-0.000575653
-0.00604261
-0.0124206
-0.0198698
-0.027359
-0.0342999
-0.0407507
-0.0469374
-0.0529543
-0.0587745
-0.0643503
-0.0696613
-0.074708
-0.0794947
-0.08402
-0.0882777
-0.0922587
0.0180554
0.0118528
0.00617372
0.00149765
-0.00263763
-0.00687907
-0.011426
-0.0160878
-0.0206548
-0.0250821
-0.0294302
-0.0337554
-0.0380718
-0.0423708
-0.0466454
-0.050898
-0.0551364
-0.0593688
-0.0636023
-0.0678441
0.00887627
0.00498965
0.00107529
-0.00267272
-0.00626628
-0.00981631
-0.0133897
-0.0169717
-0.0205165
-0.023998
-0.0274185
-0.0307897
-0.0341177
-0.0374015
-0.0406381
-0.0438257
-0.046965
-0.0500571
-0.0531032
-0.0561043
0.00157641
-0.00157259
-0.00455758
-0.00725952
-0.00985142
-0.012448
-0.0150567
-0.0176492
-0.0202089
-0.0227345
-0.0252315
-0.027705
-0.0301587
-0.0325945
-0.0350142
-0.0374197
-0.0398132
-0.0421974
-0.0445746
-0.0469473
-0.00409317
-0.00663243
-0.00888836
-0.0108487
-0.0127413
-0.0146813
-0.0166575
-0.0186308
-0.0205844
-0.0225213
-0.0244483
-0.0263689
-0.0282832
-0.0301908
-0.0320919
-0.0339867
-0.0358758
-0.0377597
-0.0396387
-0.0415133
-0.00786323
-0.0098473
-0.011556
-0.0130342
-0.014478
-0.0159742
-0.0175081
-0.0190448
-0.02057
-0.0220862
-0.0235993
-0.0251116
-0.0266229
-0.0281325
-0.02964
-0.0311456
-0.0326497
-0.0341525
-0.0356545
-0.0371558
-0.0103239
-0.0118619
-0.0132053
-0.0143888
-0.0155496
-0.0167502
-0.0179813
-0.0192179
-0.0204489
-0.0216753
-0.0229011
-0.0241279
-0.0253556
-0.0265833
-0.0278106
-0.0290374
-0.0302639
-0.0314899
-0.0327156
-0.033941
-0.011999
-0.0131742
-0.0142585
-0.015248
-0.0162159
-0.0172041
-0.0182122
-0.0192266
-0.0202392
-0.0212494
-0.0222592
-0.0232699
-0.0242813
-0.025293
-0.0263045
-0.0273159
-0.028327
-0.0293379
-0.0303486
-0.031359
-0.0132685
-0.0141465
-0.0150288
-0.0158753
-0.0167018
-0.0175304
-0.018368
-0.0192108
-0.0200544
-0.0208971
-0.0217392
-0.0225815
-0.023424
-0.0242666
-0.0251091
-0.0259514
-0.0267933
-0.027635
-0.0284763
-0.0293174
-0.0143307
-0.0149747
-0.0156885
-0.0164121
-0.0171203
-0.0178185
-0.0185166
-0.0192182
-0.0199216
-0.0206252
-0.0213283
-0.0220311
-0.0227337
-0.0234362
-0.0241387
-0.0248409
-0.025543
-0.026245
-0.0269468
-0.0276485
-0.0152646
-0.0157327
-0.0163031
-0.0169116
-0.0175108
-0.0180945
-0.0186729
-0.0192528
-0.0198352
-0.0204186
-0.0210018
-0.0215848
-0.0221677
-0.0227509
-0.0233342
-0.0239179
-0.0245018
-0.0250861
-0.0256708
-0.026256
-0.0160593
-0.0163882
-0.0168318
-0.0173305
-0.0178265
-0.0183056
-0.0187765
-0.0192478
-0.0197218
-0.0201974
-0.0206736
-0.0211501
-0.0216271
-0.0221049
-0.0225837
-0.0230636
-0.0235448
-0.0240272
-0.0245109
-0.0249962
-0.016703
-0.0169051
-0.0172315
-0.0176285
-0.018029
-0.0184117
-0.0187839
-0.0191556
-0.0195304
-0.0199079
-0.0202868
-0.020667
-0.0210488
-0.0214325
-0.0218186
-0.0222073
-0.0225986
-0.0229927
-0.0233897
-0.0237897
-0.0171906
-0.0172451
-0.017441
-0.017729
-0.0180282
-0.0183083
-0.0185753
-0.0188414
-0.0191123
-0.019388
-0.0196677
-0.0199511
-0.0202386
-0.0205308
-0.0208281
-0.0211309
-0.0214393
-0.0217534
-0.0220732
-0.0223989
-0.0176596
-0.01758
-0.0176112
-0.0177337
-0.0178809
-0.0180208
-0.0181547
-0.0182929
-0.0184413
-0.0186012
-0.0187719
-0.0189531
-0.0191448
-0.0193475
-0.0195613
-0.0197862
-0.0200221
-0.0202687
-0.0205259
-0.0207933
-0.0176011
-0.0174207
-0.0171889
-0.0169889
-0.0168463
-0.0167521
-0.0166926
-0.0166615
-0.0166584
-0.016684
-0.0167381
-0.0168196
-0.0169267
-0.0170582
-0.0172127
-0.0173889
-0.0175854
-0.0178011
-0.0180345
-0.0182845
-0.0150519
-0.0145839
-0.0140864
-0.013691
-0.0134061
-0.0132038
-0.0130629
-0.0129748
-0.0129366
-0.0129461
-0.0130001
-0.013095
-0.0132273
-0.0133934
-0.0135905
-0.0138155
-0.014066
-0.0143393
-0.0146332
-0.0149454
-0.00349888
0.000191041
0.00147841
0.000827369
-0.00026634
-0.00110217
-0.00168855
-0.00221425
-0.00277988
-0.00338958
-0.00401759
-0.0046473
-0.00527525
-0.00590295
-0.00653129
-0.00715956
-0.00778643
-0.00841066
-0.00903137
-0.00964787
0.00850648
0.0207784
0.0245328
0.0219095
0.0180678
0.0152836
0.0134656
0.011964
0.0104392
0.00887007
0.00733113
0.0058667
0.00447923
0.00315596
0.00188679
0.00066725
-0.000504566
-0.0016305
-0.0027129
-0.00375436
0.126009
0.126543
0.127637
0.129283
0.13148
0.134241
0.137589
0.141544
0.146124
0.15133
0.15715
0.163524
0.170343
0.177369
0.184193
0.190013
0.193337
0.191145
0.176898
0.135677
0.116659
0.117052
0.117799
0.118919
0.120375
0.122188
0.124293
0.126716
0.129334
0.132169
0.134976
0.137749
0.140006
0.141652
0.141721
0.139853
0.134005
0.122891
0.101453
0.0640276
0.105587
0.105801
0.106181
0.10674
0.107443
0.108285
0.10919
0.11013
0.110973
0.111658
0.111957
0.111743
0.110624
0.108343
0.104242
0.0978332
0.088136
0.0745228
0.0563049
0.0338204
0.0934938
0.0935369
0.0935929
0.0936634
0.0937255
0.0937515
0.0936776
0.0934407
0.0929345
0.0920554
0.0906422
0.0885312
0.0854904
0.0812856
0.0756429
0.0683262
0.0591881
0.0481494
0.0351611
0.0194302
0.0810857
0.0810008
0.0808162
0.0805283
0.0801233
0.0795679
0.0788144
0.0777953
0.0764368
0.0746423
0.0723184
0.0693424
0.0656177
0.0610187
0.0554956
0.0489593
0.0414208
0.0327022
0.022549
0.0100833
0.068953
0.0687894
0.0684545
0.0679442
0.0672507
0.0663465
0.0651993
0.0637567
0.0619729
0.0597822
0.0571394
0.0539756
0.0502627
0.0459393
0.0410027
0.0353764
0.0290258
0.021736
0.0132595
0.00293777
0.057508
0.0573056
0.056896
0.0562758
0.0554413
0.0543739
0.0530545
0.0514492
0.0495328
0.0472661
0.0446296
0.0415845
0.0381213
0.0341977
0.0298058
0.0248763
0.0193751
0.0131582
0.00608672
-0.00226868
0.0469872
0.0467732
0.0463423
0.0456913
0.0448187
0.0437134
0.0423656
0.0407551
0.038869
0.0366838
0.0341897
0.0313608
0.0281913
0.0246495
0.0207318
0.0163966
0.0116415
0.00639729
0.000608125
-0.00599504
0.0374885
0.0372796
0.0368597
0.0362256
0.0353765
0.0343059
0.0330095
0.0314756
0.029698
0.0276617
0.0253615
0.02278
0.0199154
0.0167485
0.013286
0.00951012
0.00544055
0.00105373
-0.00364102
-0.00874367
0.0290169
0.0288216
0.0284295
0.0278369
0.027043
0.0260438
0.024838
0.0234192
0.0217854
0.0199277
0.0178454
0.0155281
0.0129792
0.0101887
0.00716947
0.00391528
0.000455395
-0.00320559
-0.00700233
-0.0108838
0.0215225
0.0213444
0.0209872
0.0204467
0.0197219
0.0188101
0.0177119
0.0164244
0.0149492
0.0132819
0.0114263
0.00937756
0.00714344
0.00471918
0.00211971
-0.000656758
-0.0035767
-0.00661841
-0.00967899
-0.0126119
0.0149298
0.0147695
0.0144483
0.0139621
0.0133098
0.0124894
0.0115036
0.0103514
0.00903707
0.00755934
0.00592488
0.00413288
0.00219474
0.000110143
-0.00210316
-0.00444392
-0.00687709
-0.00937517
-0.0118218
-0.0140328
0.00915709
0.00901272
0.0087244
0.00828798
0.0077029
0.00696871
0.00608962
0.00506709
0.00390701
0.00260981
0.00118292
-0.000373186
-0.00204545
-0.00383003
-0.00570365
-0.00765791
-0.00965389
-0.0116638
-0.0135762
-0.0152044
0.00413117
0.00399873
0.00373518
0.00333687
0.00280427
0.0021389
0.00134768
0.000435335
-0.000589041
-0.00172251
-0.00295688
-0.00429294
-0.00572085
-0.00723931
-0.00882396
-0.0104576
-0.0120865
-0.0136682
-0.0150912
-0.0161923
-0.000201386
-0.000328124
-0.000579296
-0.000958203
-0.00146318
-0.00209104
-0.00283163
-0.00367604
-0.00460881
-0.00562022
-0.00669438
-0.00782825
-0.00901276
-0.0102578
-0.0115548
-0.0129027
-0.0142421
-0.0155012
-0.0165132
-0.0170778
-0.00386695
-0.00399523
-0.00424855
-0.00463056
-0.00513891
-0.00577075
-0.006514
-0.0073583
-0.00828134
-0.00926529
-0.0102762
-0.0112925
-0.0122787
-0.0132359
-0.0141599
-0.0151027
-0.0160633
-0.0170219
-0.0177396
-0.0178754
-0.0068637
-0.00699917
-0.00726743
-0.00767275
-0.0082134
-0.00888894
-0.00968955
-0.010609
-0.0116262
-0.0127239
-0.0138576
-0.0149843
-0.0160183
-0.0168909
-0.0175057
-0.0178683
-0.0180233
-0.0181685
-0.0182901
-0.0179685
-0.00916698
-0.00931086
-0.0096013
-0.0100412
-0.0106319
-0.0113744
-0.0122679
-0.0133114
-0.014501
-0.0158294
-0.0172783
-0.0188111
-0.0203515
-0.0217628
-0.0228155
-0.0231977
-0.0225894
-0.0208938
-0.01851
-0.0162996
-0.0107368
-0.0108878
-0.0111998
-0.0116731
-0.0123134
-0.0131216
-0.0141084
-0.015277
-0.0166466
-0.0182234
-0.0200379
-0.0220954
-0.0244246
-0.0269731
-0.0296331
-0.0319806
-0.033217
-0.0317839
-0.0258339
-0.0141022
-0.011531
-0.011689
-0.012014
-0.0125083
-0.0131777
-0.0140275
-0.0150702
-0.0163188
-0.0177981
-0.0195353
-0.021579
-0.0239878
-0.026859
-0.0303114
-0.0345073
-0.0395478
-0.045239
-0.0501716
-0.0492623
-0.0264992
0.136579
0.137161
0.138461
0.140383
0.143071
0.146425
0.150688
0.155715
0.161887
0.168992
0.177619
0.187446
0.199415
0.213013
0.229822
0.248968
0.273303
0.301182
0.33804
0.380373
0.136543
0.137125
0.138424
0.140345
0.143032
0.146384
0.150645
0.15567
0.161839
0.168938
0.177557
0.187375
0.199328
0.212905
0.229676
0.248771
0.273015
0.300759
0.337385
0.379326
0.136469
0.137051
0.138349
0.140269
0.142954
0.146304
0.15056
0.15558
0.161741
0.16883
0.177435
0.187233
0.199153
0.212688
0.229385
0.248379
0.272441
0.299915
0.336079
0.377239
0.136359
0.136941
0.138238
0.140155
0.142837
0.146182
0.150433
0.155445
0.161595
0.168669
0.177251
0.18702
0.198892
0.212364
0.22895
0.247793
0.271584
0.298655
0.334127
0.374123
0.136212
0.136794
0.138089
0.140004
0.142681
0.146021
0.150264
0.155265
0.1614
0.168454
0.177008
0.186736
0.198546
0.211933
0.228373
0.247016
0.270447
0.296988
0.331539
0.369994
0.136029
0.13661
0.137903
0.139815
0.142487
0.14582
0.150053
0.155041
0.161158
0.168187
0.176705
0.186384
0.198116
0.211398
0.227658
0.246053
0.269038
0.294924
0.328326
0.364873
0.13581
0.13639
0.137681
0.139589
0.142255
0.14558
0.149802
0.154774
0.16087
0.167869
0.176344
0.185964
0.197605
0.210761
0.226809
0.244909
0.267363
0.292474
0.324503
0.358787
0.135555
0.136135
0.137423
0.139326
0.141985
0.145301
0.14951
0.154464
0.160535
0.1675
0.175926
0.185477
0.197015
0.210025
0.225829
0.243588
0.265432
0.289654
0.320085
0.35177
0.135264
0.135845
0.137129
0.139028
0.141679
0.144985
0.149178
0.154113
0.160156
0.167081
0.175454
0.184926
0.196348
0.209192
0.224725
0.242098
0.263255
0.286479
0.315092
0.343859
0.134939
0.13552
0.136801
0.138695
0.141337
0.144632
0.148808
0.15372
0.159733
0.166615
0.174927
0.184312
0.195608
0.208265
0.223502
0.240445
0.260844
0.282965
0.309545
0.335096
0.134579
0.13516
0.136438
0.138327
0.14096
0.144242
0.148401
0.153288
0.159267
0.166101
0.174349
0.183637
0.194797
0.207248
0.222166
0.238635
0.258214
0.279133
0.303468
0.325529
0.134185
0.134767
0.136042
0.137926
0.140549
0.143818
0.147957
0.152818
0.15876
0.165543
0.173721
0.182905
0.193918
0.206144
0.220724
0.236677
0.255378
0.274998
0.296889
0.315211
0.133757
0.134341
0.135613
0.137491
0.140104
0.143359
0.147477
0.15231
0.158214
0.164942
0.173046
0.182116
0.192976
0.204959
0.219182
0.234578
0.252354
0.270581
0.28984
0.304195
0.133297
0.133883
0.135152
0.137025
0.139627
0.142867
0.146964
0.151767
0.15763
0.164299
0.172325
0.181275
0.191973
0.203696
0.21755
0.232347
0.249161
0.2659
0.282356
0.292535
0.132804
0.133393
0.13466
0.136528
0.139118
0.142343
0.146416
0.151189
0.157009
0.163616
0.171559
0.180382
0.190911
0.202359
0.215831
0.229992
0.245817
0.260974
0.274481
0.28028
0.13228
0.132873
0.134138
0.136
0.138579
0.141788
0.145836
0.150576
0.15635
0.162892
0.170748
0.179437
0.18979
0.200947
0.214027
0.227515
0.242336
0.255815
0.266269
0.267469
0.131725
0.132323
0.133586
0.135444
0.138011
0.141203
0.145226
0.149931
0.155658
0.162132
0.169897
0.178446
0.188615
0.199469
0.212146
0.224929
0.238737
0.25044
0.257779
0.254133
0.13114
0.131745
0.13301
0.134864
0.137422
0.140601
0.144601
0.149277
0.15496
0.16137
0.16905
0.177462
0.187454
0.197999
0.210276
0.222321
0.235114
0.244905
0.249058
0.240175
0.130524
0.131139
0.132408
0.134263
0.136816
0.139987
0.143971
0.148625
0.154274
0.160633
0.168238
0.176525
0.18635
0.196592
0.208477
0.219758
0.231534
0.239253
0.240131
0.224938
0.129875
0.130492
0.131755
0.133601
0.136129
0.139273
0.143211
0.147812
0.153378
0.15964
0.167094
0.175197
0.184744
0.19462
0.205975
0.216479
0.227172
0.233002
0.23107
0.208708
0.129861
0.130478
0.13174
0.133586
0.136115
0.139258
0.143195
0.147796
0.153361
0.159622
0.167076
0.175178
0.184724
0.194598
0.205952
0.216455
0.227145
0.232974
0.231039
0.208675
0.130511
0.131125
0.132394
0.13425
0.136802
0.139972
0.143957
0.14861
0.154259
0.160616
0.168221
0.176507
0.186331
0.196572
0.208456
0.219735
0.231509
0.239226
0.240101
0.224905
0.131127
0.131732
0.132997
0.134851
0.137408
0.140587
0.144587
0.149262
0.154945
0.161355
0.169034
0.177445
0.187436
0.19798
0.210256
0.222299
0.23509
0.244879
0.249029
0.240142
0.131713
0.132311
0.133574
0.135431
0.137998
0.14119
0.145213
0.149918
0.155644
0.162117
0.169882
0.17843
0.188598
0.199451
0.212127
0.224908
0.238714
0.250416
0.257751
0.254101
0.132268
0.132862
0.134126
0.135988
0.138567
0.141776
0.145824
0.150563
0.156336
0.162878
0.170734
0.179422
0.189774
0.20093
0.214009
0.227496
0.242315
0.255792
0.266242
0.267438
0.132793
0.133383
0.13465
0.136517
0.139107
0.142332
0.146405
0.151177
0.156996
0.163603
0.171546
0.180368
0.190897
0.202344
0.215815
0.229974
0.245797
0.260952
0.274456
0.280251
0.133287
0.133873
0.135142
0.137015
0.139617
0.142857
0.146953
0.151756
0.157619
0.164287
0.172312
0.181261
0.191959
0.203681
0.217534
0.23233
0.249142
0.26588
0.282333
0.292507
0.133748
0.134332
0.135604
0.137482
0.140094
0.143349
0.147467
0.1523
0.158204
0.16493
0.173034
0.182104
0.192963
0.204945
0.219168
0.234562
0.252337
0.270562
0.289818
0.304168
0.134176
0.134759
0.136033
0.137917
0.14054
0.143809
0.147947
0.152808
0.158751
0.165533
0.173711
0.182893
0.193906
0.206132
0.22071
0.236662
0.255362
0.274981
0.296869
0.315186
0.134571
0.135152
0.13643
0.138319
0.140952
0.144234
0.148392
0.15328
0.159258
0.166092
0.174339
0.183627
0.194786
0.207236
0.222153
0.238622
0.258199
0.279116
0.303449
0.325506
0.134932
0.135512
0.136794
0.138688
0.14133
0.144624
0.148801
0.153712
0.159724
0.166606
0.174918
0.184303
0.195598
0.208254
0.223491
0.240432
0.260831
0.282951
0.309527
0.335075
0.135258
0.135838
0.137123
0.139022