/*--------------------------------*- C++ -*----------------------------------*\
  =========                 |
  \\      /  F ield         | OpenFOAM: The Open Source CFD Toolbox
   \\    /   O peration     | Website:  https://openfoam.org
    \\  /    A nd           | Version:  6.0
     \\/     M anipulation  |
\*---------------------------------------------------------------------------*/
FoamFile
{
    version     2.0;
    format      ascii;
    class       volScalarField;
    location    "32";
    object      p;
}
// * * * * * * * * * * * * * * * * * * * * * * * * * * * * * * * * * * * * * //

dimensions      [0 2 -2 0 0 0 0];

internalField   nonuniform List<scalar> 
8000
(
-0.251591
-0.252528
-0.253145
-0.253592
-0.253965
-0.254278
-0.254543
-0.254774
-0.254978
-0.255162
-0.255331
-0.25549
-0.255642
-0.255792
-0.255945
-0.256109
-0.256286
-0.256424
-0.256494
-0.257057
-0.251692
-0.252629
-0.253243
-0.253688
-0.254056
-0.254364
-0.254624
-0.254848
-0.255046
-0.255223
-0.255385
-0.255536
-0.255681
-0.255824
-0.255969
-0.256126
-0.256296
-0.256426
-0.256489
-0.257047
-0.2519
-0.252834
-0.253443
-0.25388
-0.254239
-0.254536
-0.254784
-0.254996
-0.25518
-0.255343
-0.25549
-0.255627
-0.255756
-0.255883
-0.256012
-0.256153
-0.25631
-0.256426
-0.256473
-0.257023
-0.252215
-0.253143
-0.253744
-0.254169
-0.254514
-0.254795
-0.255024
-0.255216
-0.255379
-0.255521
-0.255645
-0.255757
-0.255863
-0.255965
-0.256069
-0.256187
-0.256321
-0.256416
-0.25644
-0.256976
-0.252638
-0.253559
-0.254148
-0.254557
-0.254882
-0.255139
-0.255344
-0.255509
-0.255643
-0.255754
-0.255846
-0.255926
-0.255997
-0.256064
-0.256134
-0.256218
-0.25632
-0.256386
-0.256378
-0.256895
-0.253172
-0.254083
-0.254656
-0.255044
-0.255343
-0.255571
-0.255743
-0.255873
-0.25597
-0.256041
-0.256092
-0.256128
-0.256154
-0.256175
-0.256199
-0.256237
-0.256297
-0.256322
-0.256272
-0.256765
-0.253818
-0.254717
-0.255271
-0.255632
-0.255899
-0.256091
-0.256223
-0.256309
-0.256359
-0.256381
-0.25638
-0.256361
-0.25633
-0.256292
-0.256255
-0.256234
-0.256238
-0.25621
-0.256105
-0.256568
-0.254583
-0.255465
-0.255995
-0.256324
-0.256552
-0.2567
-0.256783
-0.256818
-0.256813
-0.256776
-0.256711
-0.256625
-0.256523
-0.25641
-0.256298
-0.256201
-0.256132
-0.256034
-0.255859
-0.256283
-0.255469
-0.256331
-0.256831
-0.257122
-0.257304
-0.2574
-0.257428
-0.257403
-0.257333
-0.257227
-0.257088
-0.256922
-0.256734
-0.256531
-0.256324
-0.256132
-0.255968
-0.25578
-0.255515
-0.25589
-0.256486
-0.257321
-0.257784
-0.258029
-0.258158
-0.258195
-0.25816
-0.258066
-0.257925
-0.25774
-0.257517
-0.257258
-0.25697
-0.256659
-0.256337
-0.256025
-0.255742
-0.255436
-0.255054
-0.255365
-0.257639
-0.258439
-0.258858
-0.259049
-0.259117
-0.259088
-0.258982
-0.258814
-0.258592
-0.258322
-0.258005
-0.257644
-0.257242
-0.256806
-0.256346
-0.255888
-0.255454
-0.254995
-0.254458
-0.254683
-0.258939
-0.259694
-0.260058
-0.260186
-0.260185
-0.260081
-0.259897
-0.259648
-0.259342
-0.258981
-0.258564
-0.258092
-0.257564
-0.256986
-0.256367
-0.255733
-0.255112
-0.254454
-0.253711
-0.253813
-0.260394
-0.261091
-0.26139
-0.261445
-0.261363
-0.261177
-0.260909
-0.260573
-0.260178
-0.259722
-0.259202
-0.258614
-0.257954
-0.257221
-0.256423
-0.255583
-0.254733
-0.253821
-0.2528
-0.252724
-0.262015
-0.262639
-0.262859
-0.262828
-0.262655
-0.262376
-0.262015
-0.261588
-0.2611
-0.260547
-0.259924
-0.259219
-0.258424
-0.25753
-0.256537
-0.255465
-0.254342
-0.253111
-0.251717
-0.251376
-0.263812
-0.264345
-0.264471
-0.26434
-0.264062
-0.263678
-0.263215
-0.262688
-0.262103
-0.261453
-0.260727
-0.259908
-0.25898
-0.257924
-0.256729
-0.255404
-0.253969
-0.252347
-0.250461
-0.249724
-0.265796
-0.266221
-0.266234
-0.265984
-0.265584
-0.265079
-0.264501
-0.263865
-0.263176
-0.262425
-0.261596
-0.260667
-0.259612
-0.2584
-0.257005
-0.255418
-0.253643
-0.25157
-0.249058
-0.24774
-0.267982
-0.268276
-0.268156
-0.267766
-0.267223
-0.266579
-0.265868
-0.265108
-0.264304
-0.263444
-0.262511
-0.261474
-0.2603
-0.258945
-0.257366
-0.255528
-0.253413
-0.250866
-0.247624
-0.245482
-0.270385
-0.270527
-0.270249
-0.269695
-0.268984
-0.268176
-0.26731
-0.266408
-0.265472
-0.264493
-0.263448
-0.262304
-0.261021
-0.259542
-0.257805
-0.255747
-0.253315
-0.2503
-0.246222
-0.242862
-0.273029
-0.272992
-0.27253
-0.271785
-0.270878
-0.269878
-0.268832
-0.267762
-0.266676
-0.265562
-0.2644
-0.263156
-0.261785
-0.260228
-0.258402
-0.256209
-0.25353
-0.250011
-0.24477
-0.239404
-0.275941
-0.275698
-0.275022
-0.274054
-0.272919
-0.271699
-0.270444
-0.269184
-0.267926
-0.266667
-0.265389
-0.264069
-0.262677
-0.261175
-0.259515
-0.257631
-0.255411
-0.252397
-0.247347
-0.241405
-0.279157
-0.278676
-0.277753
-0.27653
-0.275137
-0.273665
-0.272175
-0.2707
-0.269254
-0.26784
-0.266452
-0.265088
-0.263753
-0.262472
-0.261314
-0.26043
-0.260097
-0.260769
-0.264067
-0.27702
-0.282723
-0.281965
-0.28076
-0.279248
-0.277566
-0.275815
-0.274066
-0.272357
-0.270709
-0.269133
-0.267637
-0.266239
-0.264975
-0.263919
-0.263204
-0.263067
-0.263894
-0.266254
-0.271382
-0.284021
-0.28669
-0.285611
-0.284086
-0.282254
-0.280252
-0.278199
-0.276171
-0.274214
-0.272356
-0.270616
-0.269014
-0.267585
-0.266386
-0.265519
-0.265139
-0.265488
-0.266909
-0.269842
-0.274908
-0.284749
-0.291114
-0.289665
-0.28778
-0.285595
-0.283249
-0.280873
-0.278553
-0.27634
-0.274267
-0.27236
-0.270648
-0.269175
-0.268008
-0.26725
-0.267047
-0.267596
-0.269141
-0.271946
-0.27628
-0.283341
-0.296057
-0.294179
-0.291894
-0.289328
-0.286615
-0.283901
-0.281279
-0.278803
-0.276509
-0.274426
-0.272586
-0.271031
-0.269825
-0.269057
-0.268837
-0.269301
-0.270585
-0.272805
-0.276051
-0.280576
-0.301577
-0.299207
-0.296481
-0.293506
-0.290408
-0.287344
-0.28441
-0.281663
-0.279136
-0.276854
-0.274844
-0.273143
-0.271798
-0.270874
-0.270441
-0.270572
-0.271326
-0.27272
-0.274774
-0.27724
-0.307729
-0.304799
-0.301593
-0.298184
-0.294685
-0.291259
-0.288003
-0.284968
-0.28218
-0.279656
-0.277412
-0.275471
-0.273863
-0.272624
-0.271792
-0.271395
-0.271442
-0.271907
-0.272781
-0.273636
-0.314559
-0.311001
-0.307274
-0.303412
-0.299496
-0.295695
-0.292099
-0.288747
-0.285651
-0.282817
-0.280246
-0.277946
-0.275931
-0.274218
-0.272821
-0.271747
-0.270983
-0.270496
-0.270269
-0.269886
-0.3221
-0.317847
-0.313566
-0.309231
-0.304885
-0.300689
-0.296722
-0.293003
-0.289529
-0.286288
-0.283269
-0.280472
-0.277898
-0.275558
-0.273457
-0.271598
-0.269969
-0.268545
-0.267309
-0.26594
-0.330372
-0.32536
-0.320496
-0.315673
-0.310877
-0.306257
-0.301869
-0.297711
-0.293757
-0.289984
-0.286376
-0.282928
-0.279646
-0.276542
-0.273628
-0.270913
-0.268394
-0.266065
-0.263907
-0.261708
-0.339374
-0.333549
-0.328078
-0.322752
-0.317482
-0.312391
-0.30751
-0.302807
-0.298243
-0.293789
-0.289433
-0.285182
-0.281053
-0.277073
-0.273268
-0.269655
-0.266248
-0.263049
-0.260041
-0.257097
-0.349081
-0.342398
-0.336304
-0.33046
-0.324678
-0.31905
-0.313573
-0.308191
-0.30286
-0.297559
-0.292295
-0.287096
-0.282005
-0.277067
-0.272321
-0.267799
-0.263518
-0.259489
-0.255688
-0.25205
-0.359443
-0.351872
-0.345145
-0.33876
-0.332415
-0.326155
-0.319947
-0.313724
-0.307449
-0.301129
-0.294805
-0.288538
-0.282398
-0.276451
-0.270747
-0.265322
-0.260197
-0.255381
-0.250839
-0.246544
-0.370375
-0.361902
-0.354536
-0.347582
-0.340597
-0.333581
-0.326479
-0.319228
-0.311826
-0.304324
-0.296809
-0.289383
-0.282142
-0.275166
-0.268511
-0.262211
-0.256282
-0.250725
-0.245489
-0.240575
-0.381759
-0.372387
-0.364381
-0.356813
-0.349087
-0.34116
-0.332975
-0.324502
-0.315794
-0.306967
-0.298163
-0.289522
-0.28116
-0.273164
-0.265587
-0.258454
-0.251769
-0.245521
-0.23964
-0.23415
-0.393437
-0.383188
-0.374539
-0.366296
-0.357701
-0.348682
-0.339209
-0.32932
-0.319148
-0.308887
-0.298732
-0.288855
-0.279385
-0.270402
-0.261948
-0.254034
-0.246648
-0.239763
-0.233288
-0.227273
-0.405212
-0.394124
-0.384825
-0.375827
-0.366207
-0.355896
-0.344931
-0.33345
-0.32169
-0.309923
-0.298395
-0.287297
-0.276755
-0.266838
-0.257566
-0.248931
-0.240903
-0.233438
-0.226424
-0.219942
-0.416844
-0.404973
-0.395014
-0.385155
-0.374335
-0.362525
-0.349877
-0.33666
-0.323227
-0.309927
-0.297042
-0.284768
-0.273214
-0.262428
-0.252406
-0.243116
-0.234511
-0.226528
-0.219032
-0.212144
-0.428058
-0.415474
-0.404832
-0.39399
-0.381782
-0.368275
-0.35378
-0.338726
-0.323583
-0.308766
-0.294574
-0.281192
-0.268704
-0.257127
-0.24643
-0.236557
-0.227442
-0.219004
-0.211085
-0.203859
-0.438544
-0.425328
-0.413973
-0.40201
-0.388225
-0.372842
-0.356378
-0.339436
-0.322596
-0.306317
-0.290898
-0.276498
-0.263167
-0.250886
-0.239595
-0.229213
-0.21966
-0.210833
-0.202556
-0.195059
-0.447962
-0.434206
-0.422097
-0.408867
-0.39333
-0.375931
-0.357427
-0.338599
-0.320119
-0.30247
-0.285929
-0.270618
-0.256544
-0.243653
-0.231853
-0.221044
-0.211127
-0.201981
-0.193411
-0.185715
-0.455955
-0.441754
-0.428844
-0.414205
-0.396766
-0.377258
-0.356701
-0.336042
-0.316024
-0.297125
-0.279589
-0.263486
-0.248779
-0.235377
-0.22316
-0.212007
-0.201804
-0.19241
-0.183616
-0.175794
-0.462153
-0.447606
-0.433846
-0.417669
-0.398219
-0.376565
-0.353999
-0.331616
-0.310197
-0.290196
-0.271804
-0.255039
-0.239817
-0.226009
-0.213471
-0.202061
-0.191653
-0.182087
-0.173141
-0.165268
-0.466188
-0.451396
-0.436737
-0.418917
-0.397397
-0.373622
-0.34915
-0.325192
-0.302541
-0.281604
-0.262511
-0.245221
-0.229607
-0.215504
-0.202743
-0.191169
-0.180641
-0.17098
-0.161958
-0.154108
-0.467705
-0.452764
-0.437168
-0.417637
-0.394042
-0.368233
-0.342009
-0.316665
-0.292974
-0.271283
-0.251652
-0.233983
-0.218104
-0.20382
-0.190942
-0.179299
-0.16874
-0.159066
-0.150045
-0.142296
-0.466368
-0.451376
-0.434818
-0.413549
-0.387937
-0.360239
-0.332463
-0.305952
-0.281433
-0.25918
-0.239181
-0.221282
-0.205271
-0.190926
-0.178039
-0.166426
-0.155928
-0.146325
-0.137387
-0.129818
-0.461875
-0.446926
-0.429404
-0.406421
-0.378907
-0.349517
-0.320428
-0.292991
-0.267871
-0.245255
-0.225064
-0.207088
-0.191081
-0.176798
-0.164012
-0.152534
-0.142191
-0.132746
-0.123976
-0.116665
-0.453967
-0.439154
-0.420691
-0.396066
-0.366825
-0.335986
-0.30585
-0.277748
-0.252258
-0.229484
-0.209277
-0.19138
-0.175517
-0.161419
-0.148851
-0.137613
-0.127523
-0.118328
-0.109813
-0.102839
-0.442434
-0.427848
-0.408496
-0.382356
-0.351609
-0.3196
-0.288708
-0.260207
-0.234584
-0.211857
-0.191811
-0.174151
-0.15857
-0.144787
-0.132553
-0.121663
-0.111927
-0.103077
-0.0949085
-0.0883493
-0.427123
-0.412855
-0.392699
-0.365215
-0.333228
-0.300355
-0.269006
-0.240378
-0.214858
-0.19238
-0.172672
-0.155403
-0.140245
-0.126904
-0.115124
-0.104694
-0.0954166
-0.0870104
-0.0792831
-0.0732196
-0.407941
-0.394084
-0.373237
-0.344624
-0.311695
-0.278283
-0.246783
-0.218297
-0.19311
-0.171077
-0.151878
-0.135153
-0.120556
-0.107785
-0.0965781
-0.0867209
-0.0780091
-0.0701513
-0.0629683
-0.0574881
-0.384861
-0.371507
-0.350113
-0.320622
-0.287072
-0.253451
-0.222103
-0.194021
-0.169388
-0.147989
-0.129464
-0.113428
-0.0995269
-0.0874498
-0.0769337
-0.0677623
-0.0597257
-0.052526
-0.0459991
-0.0411971
-0.357919
-0.345161
-0.323389
-0.293298
-0.259463
-0.225964
-0.195063
-0.167633
-0.143762
-0.123175
-0.105477
-0.0902689
-0.0771888
-0.0659247
-0.0562135
-0.0478384
-0.0405863
-0.0341591
-0.0284068
-0.0243703
-0.327217
-0.31515
-0.29319
-0.262795
-0.229014
-0.195961
-0.165786
-0.139242
-0.116326
-0.0967125
-0.0799816
-0.0657251
-0.053581
-0.0432392
-0.0344396
-0.0269673
-0.0206098
-0.0150749
-0.0102153
-0.00700036
-0.292917
-0.281635
-0.259692
-0.229301
-0.195911
-0.163613
-0.134426
-0.108981
-0.0871941
-0.0686978
-0.0530562
-0.0398588
-0.0287486
-0.0194227
-0.0116289
-0.00515838
0.000194976
0.00471372
0.00856594
0.0109134
-0.255242
-0.244839
-0.223129
-0.193052
-0.160377
-0.129126
-0.101166
-0.0770112
-0.0565066
-0.039251
-0.0248004
-0.0127484
-0.00274793
0.00549019
0.0122039
0.0175899
0.0218421
0.0252267
0.0279338
0.0292487
-0.214468
-0.205034
-0.183778
-0.154319
-0.12267
-0.0927328
-0.066217
-0.0435211
-0.0244293
-0.00851576
0.00466527
0.0155102
0.0243497
0.0314519
0.0370324
0.0412721
0.0443486
0.0464738
0.0477753
0.0476213
-0.170919
-0.16254
-0.141957
-0.113412
-0.0830766
-0.0546978
-0.0298174
-0.00872644
0.00884492
0.0233399
0.0352011
0.0448103
0.0524753
0.0584324
0.0628633
0.0659277
0.0677635
0.0684113
0.0677736
0.0655888
-0.124961
-0.117717
-0.0980215
-0.070668
-0.0419124
-0.0153106
0.00776531
0.0271264
0.0430898
0.0561129
0.0666355
0.0750265
0.0815716
0.0864735
0.0898771
0.0919107
0.0926002
0.0915969
0.088451
0.0841664
-0.0769918
-0.0709573
-0.0523528
-0.0264495
0.000486592
0.0251165
0.0462391
0.06376
0.0780384
0.0895453
0.0987218
0.105936
0.11147
0.115526
0.118262
0.119822
0.120112
0.118296
0.113685
0.109026
-0.0274405
-0.0226794
-0.00535393
0.0188647
0.0437686
0.0662562
0.0852945
0.100875
0.113393
0.123328
0.131124
0.137152
0.14171
0.145038
0.147375
0.148994
0.149871
0.149042
0.146246
0.149643
0.0232549
0.0266859
0.0425604
0.0648862
0.0875739
0.107774
0.124616
0.138169
0.148853
0.157151
0.163502
0.168273
0.171758
0.174211
0.175887
0.177046
0.177678
0.17732
0.176849
0.182379
0.0746366
0.0766924
0.090966
0.111221
0.131541
0.149336
0.163892
0.175343
0.18413
0.190734
0.195583
0.199034
0.201379
0.202868
0.203746
0.204231
0.204309
0.20369
0.203268
0.207707
0.126243
0.126891
0.139438
0.157479
0.175311
0.190613
0.202816
0.212111
0.21895
0.223806
0.227092
0.229151
0.230261
0.230658
0.230571
0.230193
0.229522
0.228338
0.227377
0.230344
0.177615
0.176835
0.187557
0.203273
0.218535
0.231287
0.241095
0.248202
0.253062
0.256137
0.257821
0.258436
0.258244
0.257463
0.256294
0.254904
0.253277
0.25122
0.24941
0.251003
0.228297
0.226083
0.23491
0.248228
0.260872
0.271049
0.278451
0.283362
0.286235
0.287515
0.287576
0.286721
0.285189
0.283179
0.280872
0.278406
0.275751
0.272734
0.270001
0.270276
0.277847
0.274207
0.281097
0.291981
0.301996
0.309606
0.314619
0.317351
0.318252
0.317748
0.316191
0.313862
0.310979
0.307724
0.304254
0.300685
0.296977
0.292983
0.289321
0.28835
0.325835
0.320792
0.325734
0.334185
0.341596
0.346678
0.349347
0.349944
0.348913
0.346658
0.34351
0.339728
0.335513
0.331024
0.326402
0.321743
0.317
0.312054
0.307487
0.305331
0.37185
0.365442
0.368455
0.374508
0.379374
0.382001
0.382398
0.380929
0.378027
0.374076
0.369386
0.364195
0.358685
0.352998
0.347258
0.341543
0.335806
0.329952
0.324519
0.321239
0.415501
0.407781
0.408912
0.412639
0.415053
0.415323
0.413547
0.410103
0.405414
0.399844
0.39368
0.387141
0.380393
0.373562
0.366755
0.360036
0.353361
0.346654
0.340401
0.336059
0.456423
0.447457
0.44678
0.448285
0.448369
0.446411
0.442584
0.437279
0.430905
0.423808
0.416256
0.408448
0.400534
0.392626
0.384817
0.377158
0.36961
0.362112
0.355089
0.349751
0.494273
0.484142
0.48176
0.481174
0.479081
0.475047
0.469313
0.462278
0.45434
0.445827
0.436986
0.428001
0.419005
0.410101
0.401364
0.392839
0.384489
0.376266
0.36853
0.362269
0.528739
0.517536
0.513573
0.511059
0.506966
0.50103
0.493552
0.484937
0.475572
0.465765
0.455748
0.445689
0.435709
0.425896
0.416315
0.407003
0.397928
0.389052
0.380665
0.373559
0.559537
0.547367
0.541972
0.537715
0.531821
0.524179
0.515137
0.505108
0.494465
0.4835
0.472431
0.461411
0.45055
0.439926
0.429593
0.41958
0.409861
0.400404
0.391435
0.383568
0.586414
0.573396
0.566734
0.560942
0.553468
0.544331
0.533922
0.522656
0.510895
0.498919
0.486931
0.475073
0.463444
0.452112
0.441123
0.4305
0.420223
0.410261
0.400781
0.392247
0.609153
0.595411
0.587667
0.580567
0.57175
0.561345
0.549777
0.537463
0.524757
0.511925
0.499159
0.486592
0.474313
0.462382
0.450839
0.439701
0.428953
0.418567
0.408653
0.399551
0.627567
0.613236
0.60461
0.596445
0.586536
0.575101
0.562593
0.549431
0.535958
0.522433
0.509037
0.495895
0.48309
0.470675
0.458683
0.44713
0.436002
0.425273
0.415006
0.405442
0.641509
0.62673
0.617431
0.608456
0.597718
0.585503
0.572283
0.558477
0.544424
0.530374
0.516501
0.502924
0.489721
0.476939
0.464609
0.452741
0.441326
0.430338
0.419803
0.409887
0.650864
0.635784
0.626032
0.616511
0.605217
0.592477
0.578779
0.564542
0.550099
0.535696
0.521503
0.507635
0.494164
0.481137
0.468579
0.4565
0.444893
0.433731
0.423015
0.412864
0.655558
0.640327
0.630347
0.620551
0.608977
0.595974
0.582037
0.567582
0.552944
0.538365
0.524011
0.509996
0.496392
0.483241
0.470569
0.458385
0.446681
0.435432
0.424625
0.414355
0.655552
0.640321
0.630342
0.620547
0.608973
0.59597
0.582033
0.567579
0.552941
0.538362
0.524008
0.509993
0.496389
0.483239
0.470567
0.458382
0.446679
0.43543
0.424623
0.414353
0.650847
0.635768
0.626017
0.616497
0.605203
0.592465
0.578768
0.564531
0.550089
0.535687
0.521495
0.507626
0.494156
0.48113
0.468572
0.456494
0.444887
0.433725
0.42301
0.412858
0.64148
0.626703
0.617406
0.608432
0.597696
0.585482
0.572264
0.55846
0.544408
0.530358
0.516487
0.502911
0.489708
0.476927
0.464597
0.45273
0.441315
0.430328
0.419793
0.409878
0.627528
0.613198
0.604574
0.596411
0.586505
0.575072
0.562567
0.549406
0.535935
0.522411
0.509017
0.495876
0.483072
0.470658
0.458667
0.447115
0.435987
0.425259
0.414992
0.405429
0.609103
0.595362
0.587622
0.580525
0.571711
0.561308
0.549743
0.537432
0.524728
0.511898
0.499134
0.486568
0.47429
0.46236
0.450818
0.439682
0.428935
0.418549
0.408636
0.399535
0.586354
0.573337
0.566679
0.560891
0.553421
0.544287
0.533881
0.522618
0.51086
0.498887
0.486901
0.475044
0.463417
0.452086
0.441098
0.430477
0.4202
0.410239
0.40076
0.392227
0.559466
0.547299
0.541907
0.537655
0.531766
0.524128
0.51509
0.505064
0.494424
0.483462
0.472395
0.461377
0.450519
0.439895
0.429564
0.419553
0.409835
0.400378
0.39141
0.383544
0.528659
0.517458
0.5135
0.510991
0.506903
0.500972
0.493498
0.484888
0.475526
0.465722
0.455707
0.445651
0.435673
0.425861
0.416283
0.406972
0.397898
0.389023
0.380638
0.373532
0.494184
0.484056
0.481678
0.481098
0.479011
0.474983
0.469253
0.462222
0.454289
0.445778
0.43694
0.427958
0.418965
0.410062
0.401327
0.392804
0.384455
0.376234
0.368499
0.362239
0.456326
0.447363
0.446691
0.448202
0.448293
0.446341
0.442519
0.437218
0.430848
0.423755
0.416206
0.408401
0.400489
0.392584
0.384777
0.37712
0.369573
0.362077
0.355055
0.349718
0.415397
0.40768
0.408816
0.412549
0.41497
0.415247
0.413477
0.410038
0.405353
0.399786
0.393626
0.38709
0.380345
0.373516
0.366711
0.359994
0.353321
0.346616
0.340363
0.336023
0.371739
0.365334
0.368353
0.374413
0.379286
0.381919
0.382323
0.380859
0.377961
0.374015
0.369329
0.364141
0.358633
0.352949
0.347211
0.341498
0.335763
0.329911
0.324479
0.321201
0.325718
0.320679
0.325627
0.334085
0.341502
0.346592
0.349268
0.34987
0.348844
0.346593
0.343449
0.33967
0.335458
0.330972
0.326353
0.321695
0.316954
0.31201
0.307445
0.30529
0.277725
0.274089
0.280985
0.291876
0.301899
0.309515
0.314536
0.317273
0.31818
0.31768
0.316127
0.313801
0.310922
0.307669
0.304202
0.300635
0.296928
0.292936
0.289276
0.288306
0.228172
0.225962
0.234794
0.248119
0.260771
0.270955
0.278365
0.283281
0.286159
0.287444
0.28751
0.286658
0.285129
0.283122
0.280817
0.278353
0.2757
0.272686
0.269953
0.27023
0.177487
0.176711
0.187438
0.203162
0.218431
0.23119
0.241006
0.248118
0.252984
0.256064
0.257752
0.258371
0.258182
0.257403
0.256237
0.25485
0.253225
0.251169
0.249361
0.250955
0.126114
0.126765
0.139318
0.157366
0.175206
0.190515
0.202724
0.212025
0.21887
0.223731
0.227021
0.229084
0.230197
0.230597
0.230512
0.230137
0.229468
0.228285
0.227326
0.230295
0.0745066
0.0765661
0.0908451
0.111107
0.131434
0.149237
0.1638
0.175257
0.184049
0.190657
0.195511
0.198966
0.201314
0.202805
0.203685
0.204173
0.204253
0.203636
0.203215
0.207656
0.0231256
0.0265604
0.0424399
0.0647723
0.0874674
0.107675
0.124524
0.138082
0.148771
0.157074
0.163429
0.168203
0.171692
0.174147
0.175826
0.176987
0.177621
0.177264
0.176794
0.182326
-0.0275678
-0.022803
-0.00547288
0.0187519
0.0436628
0.0661573
0.085202
0.100789
0.113311
0.123251
0.13105
0.137082
0.141643
0.144973
0.147313
0.148934
0.149813
0.148986
0.14619
0.149589
-0.0771159
-0.0710779
-0.052469
-0.0265601
0.000382535
0.0250189
0.0461476
0.063674
0.0779572
0.0894683
0.0986485
0.105866
0.111403
0.115461
0.118199
0.119761
0.120052
0.118238
0.113627
0.108969
-0.12508
-0.117833
-0.0981339
-0.0707752
-0.0420137
-0.015406
0.00767567
0.0270418
0.0430097
0.0560369
0.0665628
0.0749568
0.0815044
0.0864084
0.0898138
0.0918489
0.0925396
0.0915373
0.0883918
0.0841073
-0.171033
-0.16265
-0.142065
-0.113515
-0.0831743
-0.05479
-0.0299045
-0.00880876
0.00876674
0.0232653
0.0351296
0.0447414
0.0524086
0.0583676
0.0628
0.0658657
0.0677024
0.0683509
0.0677134
0.0655286
-0.214575
-0.205137
-0.183879
-0.154417
-0.122763
-0.092821
-0.0663006
-0.0436005
-0.024505
-0.00858826
0.00459551
0.0154427
0.0242841
0.031388
0.0369697
0.0412103
0.0442876
0.0464133
0.0477149
0.047561
-0.255341
-0.244935
-0.223223
-0.193143
-0.160464
-0.129209
-0.101246
-0.0770869
-0.0565791
-0.0393208
-0.0248678
-0.0128139
-0.0028119
0.00542749
0.0121422
0.0175289
0.0217816
0.0251664
0.0278736
0.0291886
-0.293007
-0.281722
-0.259778
-0.229385
-0.195991
-0.163691
-0.134501
-0.109052
-0.0872629
-0.0687643
-0.0531208
-0.039922
-0.0288105
-0.0194837
-0.0116893
-0.00521831
0.000135265
0.00465402
0.00850613
0.0108535
-0.327296
-0.315226
-0.293265
-0.26287
-0.229087
-0.196032
-0.165855
-0.139308
-0.11639
-0.0967751
-0.0800429
-0.0657853
-0.0536404
-0.0432981
-0.0344982
-0.0270258
-0.0206683
-0.0151337
-0.0102745
-0.00705985
-0.357987
-0.345227
-0.323455
-0.293363
-0.259527
-0.226028
-0.195125
-0.167694
-0.143822
-0.123234
-0.105535
-0.0903257
-0.0772453
-0.0659811
-0.0562699
-0.0478951
-0.0406434
-0.0342168
-0.0284651
-0.0244292
-0.384917
-0.37156
-0.350167
-0.320677
-0.287127
-0.253506
-0.222158
-0.194075
-0.169441
-0.148042
-0.129517
-0.113481
-0.0995801
-0.0875033
-0.0769877
-0.0678169
-0.059781
-0.0525822
-0.0460563
-0.0412551
-0.407984
-0.394125
-0.373279
-0.344668
-0.31174
-0.278329
-0.24683
-0.218344
-0.193157
-0.171124
-0.151926
-0.135201
-0.120606
-0.107835
-0.0966292
-0.0867731
-0.0780624
-0.0702059
-0.0630242
-0.0575451
-0.427152
-0.412883
-0.392728
-0.365246
-0.333262
-0.300392
-0.269044
-0.240418
-0.214899
-0.192421
-0.172715
-0.155447
-0.14029
-0.126951
-0.115172
-0.104744
-0.0954676
-0.0870631
-0.0793375
-0.0732754
-0.442449
-0.427862
-0.408512
-0.382375
-0.351632
-0.319627
-0.288737
-0.260238
-0.234617
-0.211892
-0.191848
-0.174189
-0.158611
-0.144829
-0.132598
-0.12171
-0.111976
-0.103128
-0.0949611
-0.0884038
-0.453968
-0.439154
-0.420693
-0.396073
-0.366836
-0.336001
-0.30587
-0.27777
-0.252283
-0.229512
-0.209307
-0.191414
-0.175552
-0.161458
-0.148892
-0.137656
-0.127569
-0.118377
-0.109864
-0.102892
-0.461862
-0.446912
-0.429392
-0.406414
-0.378906
-0.349521
-0.320437
-0.293005
-0.267888
-0.245276
-0.225088
-0.207116
-0.191112
-0.176831
-0.164049
-0.152574
-0.142234
-0.132792
-0.124025
-0.116716
-0.466341
-0.451348
-0.434793
-0.413529
-0.387923
-0.360231
-0.332461
-0.305955
-0.281442
-0.259193
-0.239198
-0.221303
-0.205296
-0.190955
-0.178071
-0.166462
-0.155968
-0.146368
-0.137434
-0.129867
-0.467665
-0.452723
-0.437129
-0.417604
-0.394016
-0.368214
-0.341997
-0.316659
-0.292974
-0.271288
-0.251662
-0.233998
-0.218123
-0.203844
-0.19097
-0.179331
-0.168776
-0.159106
-0.150089
-0.142344
-0.466135
-0.451342
-0.436685
-0.418871
-0.397357
-0.373591
-0.349126
-0.325176
-0.302531
-0.2816
-0.262513
-0.245229
-0.22962
-0.215522
-0.202766
-0.191196
-0.180674
-0.171018
-0.162
-0.154154
-0.462087
-0.44754
-0.433781
-0.41761
-0.398167
-0.376522
-0.353965
-0.331589
-0.310178
-0.290184
-0.271799
-0.25504
-0.239824
-0.226022
-0.213489
-0.202084
-0.191682
-0.182121
-0.173181
-0.165312
-0.455877
-0.441676
-0.428768
-0.414134
-0.396703
-0.377203
-0.356655
-0.336005
-0.315995
-0.297104
-0.279575
-0.263479
-0.248779
-0.235384
-0.223173
-0.212025
-0.201828
-0.19244
-0.183653
-0.175836
-0.447874
-0.434117
-0.42201
-0.408785
-0.393255
-0.375864
-0.35737
-0.338551
-0.32008
-0.302439
-0.285907
-0.270603
-0.256537
-0.243653
-0.23186
-0.221058
-0.211147
-0.202007
-0.193444
-0.185754
-0.438445
-0.42523
-0.413876
-0.401917
-0.388139
-0.372764
-0.35631
-0.339377
-0.322547
-0.306277
-0.290867
-0.276475
-0.263152
-0.250879
-0.239596
-0.229222
-0.219676
-0.210856
-0.202586
-0.195096
-0.42795
-0.415367
-0.404727
-0.393888
-0.381686
-0.368187
-0.353701
-0.338657
-0.323524
-0.308716
-0.294534
-0.281161
-0.268682
-0.257114
-0.246425
-0.236559
-0.227453
-0.219022
-0.211112
-0.203892
-0.416728
-0.404858
-0.3949
-0.385044
-0.37423
-0.362428
-0.349789
-0.336581
-0.323158
-0.309868
-0.296993
-0.284728
-0.273184
-0.262407
-0.252394
-0.243113
-0.234516
-0.226542
-0.219054
-0.212174
-0.405089
-0.394002
-0.384705
-0.375709
-0.366094
-0.355789
-0.344833
-0.333361
-0.321611
-0.309854
-0.298336
-0.287249
-0.276717
-0.266809
-0.257547
-0.248921
-0.240902
-0.233447
-0.226442
-0.219969
-0.393308
-0.38306
-0.374412
-0.366172
-0.357581
-0.348567
-0.339102
-0.329222
-0.31906
-0.308808
-0.298664
-0.288797
-0.279337
-0.270364
-0.261921
-0.254017
-0.246641
-0.239765
-0.233301
-0.227296
-0.381625
-0.372254
-0.364249
-0.356684
-0.348961
-0.341039
-0.33286
-0.324395
-0.315696
-0.306879
-0.298085
-0.289454
-0.281103
-0.273117
-0.265551
-0.258429
-0.251754
-0.245517
-0.239647
-0.234167
-0.370236
-0.361765
-0.354401
-0.347448
-0.340466
-0.333454
-0.326357
-0.319114
-0.31172
-0.304226
-0.296721
-0.289306
-0.282075
-0.27511
-0.268466
-0.262177
-0.25626
-0.250714
-0.245489
-0.240587
-0.359301
-0.351732
-0.345006
-0.338623
-0.332279
-0.326023
-0.319819
-0.313602
-0.307334
-0.301022
-0.294707
-0.28845
-0.282321
-0.276384
-0.270691
-0.265278
-0.260165
-0.255362
-0.250831
-0.246548
-0.348936
-0.342255
-0.336162
-0.330319
-0.32454
-0.318914
-0.31344
-0.308063
-0.302738
-0.297444
-0.292188
-0.286998
-0.281917
-0.27699
-0.272255
-0.267745
-0.263476
-0.25946
-0.255672
-0.252047
-0.339226
-0.333403
-0.327933
-0.322609
-0.31734
-0.312251
-0.307373
-0.302673
-0.298114
-0.293666
-0.289317
-0.285073
-0.280954
-0.276984
-0.27319
-0.26959
-0.266195
-0.26301
-0.260015
-0.257085
-0.330223
-0.325213
-0.32035
-0.315528
-0.310733
-0.306114
-0.301728
-0.297571
-0.293621
-0.289852
-0.28625
-0.282809
-0.279535
-0.276441
-0.273538
-0.270835
-0.268329
-0.266014
-0.26387
-0.261685
-0.321949
-0.317698
-0.313419
-0.309085
-0.304739
-0.300543
-0.296577
-0.292859
-0.289387
-0.286149
-0.283135
-0.280342
-0.277776
-0.275444
-0.273354
-0.271507
-0.26989
-0.268481
-0.26726
-0.265906
-0.314406
-0.310851
-0.307126
-0.303264
-0.299349
-0.295547
-0.291951
-0.288599
-0.285504
-0.282671
-0.280103
-0.277807
-0.275798
-0.274092
-0.272705
-0.271641
-0.270891
-0.270418
-0.270206
-0.269839
-0.307575
-0.304648
-0.301443
-0.298035
-0.294535
-0.291108
-0.287852
-0.284816
-0.282027
-0.279503
-0.27726
-0.275322
-0.273718
-0.272485
-0.271661
-0.271274
-0.271334
-0.271813
-0.272704
-0.273576
-0.301422
-0.299055
-0.296331
-0.293356
-0.290257
-0.287191
-0.284256
-0.281507
-0.278977
-0.276694
-0.274684
-0.272984
-0.271642
-0.270723
-0.270297
-0.270437
-0.271202
-0.27261
-0.27468
-0.277166
-0.295901
-0.294027
-0.291744
-0.289177
-0.286463
-0.283747
-0.281121
-0.278642
-0.276346
-0.27426
-0.272418
-0.270863
-0.269658
-0.268893
-0.268679
-0.26915
-0.270444
-0.272678
-0.27594
-0.280485
-0.290959
-0.289513
-0.28763
-0.285445
-0.283096
-0.280717
-0.278393
-0.276176
-0.274098
-0.272188
-0.270473
-0.268998
-0.267831
-0.267074
-0.266875
-0.26743
-0.268984
-0.271802
-0.276151
-0.283234
-0.286536
-0.285461
-0.283937
-0.282103
-0.280099
-0.278041
-0.276008
-0.274046
-0.272182
-0.270437
-0.268831
-0.267399
-0.2662
-0.265332
-0.264955
-0.265308
-0.266736
-0.26968
-0.27476
-0.284623
-0.282573
-0.281818
-0.280613
-0.2791
-0.277413
-0.275658
-0.273902
-0.272186
-0.270531
-0.268949
-0.267448
-0.266046
-0.26478
-0.263722
-0.263009
-0.262874
-0.263706
-0.266075
-0.271216
-0.283877
-0.279012
-0.278534
-0.27761
-0.276384
-0.274986
-0.273509
-0.272011
-0.270528
-0.269074
-0.267652
-0.266259
-0.264889
-0.26355
-0.262268
-0.261109
-0.260225
-0.259895
-0.260571
-0.263878
-0.276851
-0.275803
-0.275563
-0.274885
-0.273913
-0.272773
-0.271545
-0.270282
-0.269012
-0.267746
-0.266477
-0.265192
-0.263866
-0.262469
-0.260964
-0.259301
-0.257415
-0.255194
-0.252177
-0.247128
-0.241179
-0.272901
-0.272866
-0.272401
-0.271651
-0.270737
-0.269729
-0.268673
-0.267593
-0.266496
-0.265373
-0.264203
-0.262951
-0.261575
-0.260013
-0.258183
-0.255987
-0.253303
-0.24978
-0.244539
-0.239163
-0.27027
-0.270411
-0.270129
-0.26957
-0.268851
-0.268034
-0.267158
-0.266244
-0.265297
-0.264307
-0.263253
-0.262101
-0.26081
-0.259325
-0.257583
-0.255521
-0.253085
-0.250066
-0.245991
-0.242622
-0.267881
-0.268172
-0.268047
-0.267651
-0.2671
-0.266445
-0.265723
-0.264952
-0.264136
-0.263265
-0.262321
-0.261275
-0.260093
-0.258731
-0.257146
-0.255305
-0.253186
-0.250636
-0.2474
-0.245251
-0.265711
-0.26613
-0.266138
-0.265881
-0.265471
-0.264957
-0.264367
-0.263719
-0.263018
-0.262255
-0.261415
-0.260477
-0.259412
-0.258194
-0.256793
-0.255202
-0.253423
-0.251349
-0.248846
-0.247523
-0.263743
-0.26427
-0.264389
-0.264249
-0.263962
-0.263567
-0.263093
-0.262554
-0.261957
-0.261295
-0.260558
-0.259729
-0.258792
-0.257729
-0.256528
-0.255199
-0.253761
-0.252141
-0.250264
-0.249524
-0.261964
-0.262579
-0.262791
-0.262751
-0.262569
-0.262279
-0.261907
-0.261468
-0.260968
-0.260404
-0.25977
-0.259055
-0.258251
-0.25735
-0.256352
-0.255276
-0.254151
-0.252922
-0.251538
-0.251195
-0.26036
-0.261046
-0.261336
-0.261382
-0.261291
-0.261094
-0.260815
-0.260468
-0.260061
-0.259594
-0.259064
-0.258467
-0.257799
-0.257059
-0.256256
-0.255413
-0.254562
-0.253652
-0.252642
-0.252564
-0.258922
-0.259663
-0.260018
-0.260137
-0.260126
-0.260012
-0.259818
-0.259559
-0.259242
-0.25887
-0.258444
-0.257963
-0.257428
-0.256844
-0.256221
-0.255584
-0.254962
-0.254307
-0.253574
-0.253674
-0.257636
-0.258422
-0.25883
-0.259012
-0.259071
-0.259033
-0.258917
-0.258739
-0.258508
-0.258228
-0.257903
-0.257534
-0.257125
-0.256683
-0.25622
-0.25576
-0.255326
-0.25487
-0.254343
-0.254565
-0.256495
-0.257315
-0.257767
-0.258003
-0.258124
-0.258153
-0.258108
-0.258006
-0.257855
-0.257663
-0.257432
-0.257166
-0.256873
-0.256557
-0.256232
-0.255918
-0.255636
-0.255334
-0.25496
-0.25527
-0.255489