/*--------------------------------*- C++ -*----------------------------------*\
  =========                 |
  \\      /  F ield         | OpenFOAM: The Open Source CFD Toolbox
   \\    /   O peration     | Website:  https://openfoam.org
    \\  /    A nd           | Version:  6.0
     \\/     M anipulation  |
\*---------------------------------------------------------------------------*/
FoamFile
{
    version     2.0;
    format      ascii;
    class       volVectorField;
    location    "62";
    object      U;
}
// * * * * * * * * * * * * * * * * * * * * * * * * * * * * * * * * * * * * * //

dimensions      [0 1 -1 0 0 0 0];

internalField   nonuniform List<vector> 
12500
(
(-0.00055452 -0.000737797 -9.12214e-22)
(-0.00317156 0.00483979 1.22049e-20)
(-0.00799936 0.0149886 -1.76464e-20)
(-0.0139437 0.027816 8.08567e-21)
(-0.0204342 0.0419483 4.96347e-22)
(-0.0271342 0.0564636 -1.01902e-21)
(-0.0337794 0.070787 -1.46305e-20)
(-0.0401671 0.0845981 8.02635e-21)
(-0.0461429 0.0977528 5.26484e-21)
(-0.0515884 0.11022 5.3602e-21)
(-0.0564131 0.122033 -9.02651e-21)
(-0.060551 0.133256 5.25004e-21)
(-0.0639581 0.143963 -2.4617e-21)
(-0.0666106 0.154227 4.15713e-21)
(-0.0685032 0.164114 -1.05845e-20)
(-0.0696479 0.173687 1.5319e-20)
(-0.0700719 0.183011 -2.95796e-21)
(-0.0698157 0.192153 -1.07303e-20)
(-0.0689305 0.201194 5.44503e-21)
(-0.0674785 0.210229 -5.17846e-21)
(-0.0655393 0.219373 4.64778e-21)
(-0.0632026 0.228766 6.16868e-21)
(-0.0604737 0.238572 5.92537e-22)
(-0.0572483 0.249005 -1.74932e-20)
(-0.054268 0.260343 9.18997e-21)
(-0.000512297 0.000483759 1.59568e-20)
(-0.00304333 0.00781983 -4.13061e-20)
(-0.00760496 0.0191872 1.22283e-20)
(-0.0131843 0.032829 8.11317e-21)
(-0.0192384 0.047463 -6.47618e-21)
(-0.0254411 0.0622292 -3.6557e-20)
(-0.0315408 0.0765958 1.08843e-20)
(-0.0373468 0.0902726 -2.03715e-20)
(-0.0427162 0.103138 2.43693e-20)
(-0.0475407 0.115179 -3.25042e-20)
(-0.051739 0.126446 1.73526e-20)
(-0.0552524 0.137021 5.48593e-21)
(-0.0580428 0.146996 -1.40232e-20)
(-0.0600905 0.156464 -6.21397e-21)
(-0.0613931 0.165511 4.51402e-20)
(-0.0619637 0.17422 -3.97608e-20)
(-0.0618298 0.182675 9.45886e-21)
(-0.0610312 0.190964 1.63676e-20)
(-0.059618 0.199183 -3.82566e-21)
(-0.057651 0.207447 2.63502e-20)
(-0.0552106 0.215888 4.66596e-21)
(-0.0523912 0.224663 -1.6278e-21)
(-0.0491912 0.233962 -3.28265e-20)
(-0.0454652 0.244031 3.01616e-20)
(-0.042062 0.255153 -5.70458e-20)
(-0.000533391 0.0015227 5.08201e-20)
(-0.00306972 0.0103526 1.69904e-20)
(-0.00742693 0.0227523 -2.20289e-20)
(-0.0126786 0.0370763 9.36417e-21)
(-0.0183129 0.0521202 8.94643e-21)
(-0.0240179 0.067077 3.35924e-20)
(-0.0295569 0.081451 -4.24695e-20)
(-0.0347538 0.0949767 -6.7109e-21)
(-0.039479 0.10755 -2.82035e-20)
(-0.0436362 0.119174 -2.35024e-20)
(-0.0471545 0.129913 3.05452e-20)
(-0.0499841 0.139864 -1.01397e-19)
(-0.0520937 0.149136 -2.96496e-21)
(-0.0534684 0.157837 -6.03386e-20)
(-0.0541091 0.166073 -7.00704e-21)
(-0.0540304 0.173946 8.68106e-21)
(-0.0532603 0.181556 -4.63104e-20)
(-0.0518381 0.189009 -2.88539e-20)
(-0.049813 0.196419 -3.41973e-20)
(-0.0472448 0.203917 5.36184e-20)
(-0.0442154 0.211654 1.95688e-20)
(-0.0408248 0.219806 -8.61307e-20)
(-0.0370693 0.22859 -4.14157e-20)
(-0.0327665 0.238295 -4.59885e-20)
(-0.0288575 0.249216 1.24022e-19)
(-0.000604132 0.00238063 -1.82666e-21)
(-0.00322514 0.0124388 -3.90757e-20)
(-0.00744381 0.0256799 -1.82776e-20)
(-0.0124177 0.0405482 1.12831e-20)
(-0.0176667 0.0559043 7.16453e-20)
(-0.0228937 0.0709856 -3.24478e-20)
(-0.0278783 0.0853263 6.86457e-20)
(-0.0324601 0.0986804 6.49961e-20)
(-0.0365242 0.110958 3.95855e-20)
(-0.0399874 0.122174 -6.77738e-22)
(-0.0427907 0.132403 7.92907e-20)
(-0.0448939 0.141755 1.35993e-20)
(-0.0462734 0.150352 6.00706e-20)
(-0.0469202 0.158317 1.37237e-19)
(-0.0468387 0.165773 -1.58788e-19)
(-0.0460458 0.172836 2.37826e-19)
(-0.0445701 0.179625 5.14092e-20)
(-0.0424509 0.186259 -1.13084e-19)
(-0.0397372 0.19287 -1.60946e-20)
(-0.0364887 0.199605 4.13104e-20)
(-0.032789 0.206632 -2.02622e-20)
(-0.0287459 0.214151 -1.18054e-20)
(-0.0243577 0.222411 -1.16362e-20)
(-0.0194108 0.23175 -4.74314e-20)
(-0.0149247 0.242484 1.66124e-19)
(-0.000711757 0.00306626 2.60592e-20)
(-0.00348466 0.0140945 -1.21516e-19)
(-0.00763284 0.0279869 1.4687e-19)
(-0.0123891 0.0432579 -5.85189e-20)
(-0.0173017 0.0588225 6.95409e-20)
(-0.0220879 0.0739555 5.62841e-20)
(-0.0265433 0.088215 2.1285e-20)
(-0.0305235 0.101371 5.52513e-22)
(-0.0339285 0.113343 1.19681e-19)
(-0.0366894 0.124155 8.22724e-20)
(-0.0387593 0.133889 -3.34248e-20)
(-0.0401089 0.142664 -2.12525e-20)
(-0.040723 0.150613 8.90403e-20)
(-0.040599 0.157872 1.68492e-20)
(-0.0397455 0.164575 4.4869e-20)
(-0.0381821 0.170855 1.07833e-19)
(-0.0359387 0.176842 -9.36789e-20)
(-0.0330551 0.182672 7.56763e-20)
(-0.0295806 0.188492 -1.61213e-19)
(-0.0255758 0.194464 1.35124e-19)
(-0.0211275 0.200775 7.29554e-22)
(-0.0163523 0.207649 -1.06701e-19)
(-0.011256 0.215371 4.34916e-20)
(-0.00559975 0.22434 9.77922e-20)
(-0.000470889 0.234903 -1.43088e-19)
(-0.000845248 0.00359473 1.33974e-19)
(-0.00382598 0.0153508 -1.41984e-19)
(-0.00797229 0.0297091 -2.32911e-20)
(-0.0125782 0.0452397 2.84354e-20)
(-0.017215 0.0609037 -6.20762e-20)
(-0.021612 0.0760075 -9.6867e-20)
(-0.0255792 0.0901296 -7.99532e-20)
(-0.0289877 0.103052 -1.92382e-20)
(-0.0317525 0.114701 -1.37598e-19)
(-0.0338188 0.125105 1.07899e-19)
(-0.0351526 0.134352 -1.68725e-19)
(-0.0357358 0.142567 8.4563e-20)
(-0.0355621 0.14989 -2.87887e-20)
(-0.0346358 0.156467 6.49899e-20)
(-0.0329704 0.162443 -1.62806e-19)
(-0.0305884 0.16796 7.77158e-20)
(-0.0275216 0.173163 5.30611e-21)
(-0.0238108 0.178201 3.47002e-20)
(-0.0195063 0.183233 2.08465e-19)
(-0.0146705 0.188438 4.52956e-20)
(-0.00939452 0.194024 -4.729e-21)
(-0.00380599 0.200237 1.29676e-20)
(0.00207687 0.207406 8.623e-20)
(0.00851042 0.215999 2.41426e-20)
(0.0143474 0.226408 7.98363e-20)
(-0.000996057 0.00398597 -8.35538e-20)
(-0.00423091 0.0162501 1.18328e-19)
(-0.00844325 0.0308981 7.23562e-21)
(-0.0129709 0.0465459 -1.43559e-19)
(-0.0174006 0.0621957 3.0003e-19)
(-0.0214704 0.0771821 -9.71824e-20)
(-0.0250029 0.0911009 1.40849e-19)
(-0.0278831 0.103743 1.28811e-19)
(-0.0300403 0.115042 -1.06673e-19)
(-0.0314337 0.125025 -1.54346e-19)
(-0.0320424 0.133785 4.20826e-20)
(-0.0318592 0.141448 -4.41223e-20)
(-0.0308874 0.14816 -1.95128e-19)
(-0.0291383 0.154073 2.35318e-19)
(-0.0266306 0.159338 -1.1252e-19)
(-0.0233902 0.16411 -7.75688e-20)
(-0.0194507 0.16854 5.195e-23)
(-0.0148545 0.17279 6.21298e-20)
(-0.00965322 0.177033 2.59208e-20)
(-0.003912 0.181463 -1.01523e-19)
(0.00227262 0.186308 1.14219e-19)
(0.00875988 0.191842 -2.00103e-19)
(0.0155138 0.198438 1.21476e-19)
(0.0227994 0.206647 -9.36963e-20)
(0.029413 0.216919 2.34731e-20)
(-0.00115854 0.00426374 1.19621e-19)
(-0.0046865 0.0168442 -9.18013e-20)
(-0.00903112 0.0316184 -5.83908e-20)
(-0.0135544 0.0472446 -1.02669e-19)
(-0.0178503 0.0627635 -1.87834e-19)
(-0.0216618 0.0775372 -1.38697e-19)
(-0.0248214 0.0911775 8.55988e-20)
(-0.0272262 0.103484 -1.29454e-19)
(-0.0288191 0.114392 1.64213e-19)
(-0.0295725 0.123931 -2.66436e-19)
(-0.0294781 0.132192 1.17887e-19)
(-0.0285399 0.139302 2.48368e-19)
(-0.0267706 0.145409 -3.47831e-19)
(-0.0241885 0.150666 4.94441e-20)
(-0.0208177 0.155231 6.38312e-20)
(-0.0166872 0.159264 6.20101e-20)
(-0.0118327 0.162926 -6.72393e-20)
(-0.00629766 0.166386 -1.7138e-20)
(-0.000135734 0.16983 -4.80666e-20)
(0.00658506 0.173468 -4.0754e-20)
(0.0137616 0.17755 -2.20357e-19)
(0.0212382 0.182379 -1.4582e-20)
(0.0289555 0.188376 2.15954e-21)
(0.0371768 0.196187 -9.98391e-20)
(0.044641 0.206339 1.01447e-19)
(-0.00133027 0.00445411 2.99679e-21)
(-0.00518577 0.0171909 3.73723e-20)
(-0.00972656 0.031944 3.85821e-20)
(-0.0143187 0.0474152 2.30278e-20)
(-0.0185551 0.0626858 1.89874e-19)
(-0.0221797 0.0771457 1.77248e-19)
(-0.0250319 0.0904239 -1.44262e-19)
(-0.0270198 0.102328 -4.30482e-20)
(-0.028098 0.112795 -3.85651e-20)
(-0.0282517 0.121855 1.98887e-19)
(-0.0274845 0.129595 7.04597e-20)
(-0.0258115 0.136139 -1.03771e-19)
(-0.0232541 0.141635 -8.67464e-20)
(-0.0198379 0.146236 2.09087e-19)
(-0.0155917 0.150101 -5.14236e-20)
(-0.0105475 0.153394 -6.18028e-20)
(-0.00474245 0.156281 -8.63014e-20)
(0.00177897 0.158939 -6.67053e-20)
(0.008962 0.161565 -8.4678e-20)
(0.0167356 0.164385 -5.54608e-20)
(0.0249895 0.167671 2.30371e-19)
(0.0335512 0.171757 -1.12902e-19)
(0.042333 0.177122 7.59714e-20)
(0.0515844 0.184514 -2.01838e-19)
(0.0599795 0.194556 8.04591e-20)
(-0.00151207 0.00458429 -1.06132e-19)
(-0.00572792 0.0173516 -2.71003e-20)
(-0.0105259 0.0319544 -2.14706e-19)
(-0.015257 0.0471455 -1.02068e-19)
(-0.0195051 0.0620513 -2.01974e-19)
(-0.023012 0.0760931 -2.08957e-20)
(-0.0256218 0.0889186 1.07791e-19)
(-0.0272513 0.100345 -6.48461e-20)
(-0.0278662 0.110311 1.404e-19)
(-0.0274633 0.118845 -3.39755e-19)
(-0.0260577 0.12603 -9.29139e-21)
(-0.0236749 0.131987 5.98865e-20)
(-0.0203448 0.136857 -7.57954e-20)
(-0.0160996 0.140791 6.8415e-20)
(-0.0109723 0.143948 -5.18956e-20)
(-0.00499737 0.14649 -1.10695e-19)
(0.00178742 0.148586 2.01786e-19)
(0.00933779 0.15042 1.24568e-19)
(0.0175988 0.152197 -2.57026e-20)
(0.0264972 0.154159 8.14156e-20)
(0.0359158 0.156601 -1.60871e-19)
(0.045664 0.159893 2.31922e-19)
(0.0556206 0.164574 -3.16738e-19)
(0.0660084 0.171514 6.56536e-20)
(0.0754224 0.181452 -1.23318e-19)
(-0.00170793 0.00468131 5.54595e-21)
(-0.00631809 0.017388 -9.2315e-20)
(-0.0114307 0.0317311 1.38121e-19)
(-0.0163649 0.0465272 2.82151e-19)
(-0.0206892 0.0609555 -4.14703e-21)
(-0.0241407 0.0744735 3.17498e-20)
(-0.0265666 0.0867514 -1.19108e-19)
(-0.0278912 0.0976175 5.65772e-20)
(-0.02809 0.107015 3.82703e-19)
(-0.0271709 0.114969 -8.69752e-20)
(-0.0251597 0.121558 -1.01352e-19)
(-0.0220916 0.126895 3.83514e-19)
(-0.0180048 0.131116 1.23613e-19)
(-0.0129372 0.134366 5.86857e-20)
(-0.00692567 0.136797 5.94219e-20)
(-5.90856e-06 0.138569 1.63376e-19)
(0.00778484 0.139852 -6.28445e-20)
(0.016404 0.140829 1.63705e-19)
(0.0257982 0.141714 2.2159e-19)
(0.0358936 0.142764 -1.89689e-19)
(0.0465673 0.144297 2.80732e-19)
(0.0576101 0.146724 9.90912e-20)
(0.0688631 0.150653 -3.78308e-19)
(0.0805077 0.15709 5.46031e-19)
(0.0910381 0.166916 -4.3721e-19)
(-0.0019246 0.00477085 -2.65159e-19)
(-0.00696656 0.0173594 1.45143e-19)
(-0.0124469 0.0313542 -9.6876e-20)
(-0.0176394 0.0456524 -9.2484e-20)
(-0.0220933 0.0594963 -9.83049e-20)
(-0.0255399 0.0723866 -1.06764e-19)
(-0.0278284 0.0840206 2.98401e-20)
(-0.0288897 0.0942413 2.76658e-19)
(-0.0287089 0.102997 -6.01546e-20)
(-0.027304 0.110311 -1.53701e-19)
(-0.0247112 0.116255 -9.28508e-20)
(-0.0209746 0.120937 -3.8267e-20)
(-0.0161401 0.124481 1.0982e-19)
(-0.010251 0.127023 -7.1296e-20)
(-0.00334686 0.128709 -2.30982e-19)
(0.00453614 0.12969 -2.53146e-19)
(0.0133627 0.13013 1.00461e-19)
(0.023094 0.130213 -1.86942e-19)
(0.0336804 0.130156 1.60044e-19)
(0.0450501 0.130228 -4.54029e-19)
(0.0570763 0.130771 3.47715e-19)
(0.0695321 0.132241 -4.59157e-19)
(0.0822175 0.135325 -8.53662e-21)
(0.0952579 0.141183 -1.54907e-19)
(0.107015 0.150872 4.47168e-19)
(-0.00217109 0.00487614 4.0534e-19)
(-0.00768737 0.0173204 5.87651e-20)
(-0.0135828 0.0308984 -3.83632e-20)
(-0.019077 0.044609 -1.66163e-20)
(-0.0236983 0.0577701 3.02618e-19)
(-0.0271728 0.0699335 9.74216e-20)
(-0.0293517 0.0808296 8.75915e-20)
(-0.0301728 0.0903196 -7.10008e-20)
(-0.0296301 0.0983593 2.71943e-19)
(-0.0277514 0.104971 -1.34106e-19)
(-0.0245827 0.110223 8.67584e-20)
(-0.0201768 0.114211 2.16614e-19)
(-0.0145864 0.117049 -1.23205e-19)
(-0.00785956 0.118863 1.31379e-19)
(-3.80811e-05 0.119785 1.23568e-19)
(0.00884247 0.119956 4.25706e-20)
(0.0187502 0.11953 -1.03842e-19)
(0.0296514 0.118684 2.85857e-19)
(0.0415033 0.117634 -2.68697e-20)
(0.054239 0.116657 -3.07055e-20)
(0.0677308 0.11612 3.38848e-19)
(0.0817357 0.116522 -2.40768e-19)
(0.0960108 0.118642 4.0424e-19)
(0.110611 0.123818 -3.35701e-19)
(0.123728 0.133321 4.22585e-19)
(-0.00245784 0.00501687 -1.93938e-19)
(-0.00849653 0.0173179 4.19802e-20)
(-0.0148466 0.0304301 -4.39807e-20)
(-0.0206704 0.0434777 -2.11188e-19)
(-0.0254766 0.0558681 1.23538e-20)
(-0.0289883 0.0672134 1.1835e-19)
(-0.0310603 0.077283 -4.82916e-19)
(-0.0316374 0.0859613 3.58615e-19)
(-0.0307227 0.0932142 -3.48561e-19)
(-0.0283538 0.0990656 -2.1937e-19)
(-0.0245857 0.103578 1.94769e-19)
(-0.0194794 0.106838 -4.19182e-19)
(-0.0130938 0.108949 3.51423e-19)
(-0.00548132 0.11002 -1.12288e-19)
(0.00331466 0.11017 -3.17304e-19)
(0.0132598 0.109524 7.83754e-20)
(0.0243263 0.108221 -7.40005e-20)
(0.0364876 0.106426 2.73568e-20)
(0.0497092 0.104347 -9.85985e-20)
(0.0639324 0.102262 -3.21716e-19)
(0.0790318 0.100555 7.2465e-20)
(0.0947511 0.0997736 -1.41037e-21)
(0.110804 0.100792 -3.27119e-19)
(0.127164 0.105156 2.29156e-19)
(0.141802 0.114396 -1.95882e-19)
(-0.00279578 0.00520823 7.80355e-20)
(-0.00940975 0.0173892 1.42414e-19)
(-0.0162434 0.0300042 1.99635e-19)
(-0.0224051 0.0423282 1.018e-19)
(-0.0273882 0.0538727 -1.00154e-19)
(-0.030917 0.0643192 2.38006e-19)
(-0.0328518 0.0734834 1.75153e-19)
(-0.0331459 0.0812772 -6.49919e-20)
(-0.0318118 0.0876803 2.26129e-19)
(-0.0288962 0.09272 -2.32388e-19)
(-0.024463 0.0964551 -6.82511e-20)
(-0.0185803 0.0989637 6.89133e-20)
(-0.0113129 0.100335 1.33797e-19)
(-0.00271693 0.100665 2.03686e-21)
(0.00716293 0.100054 8.34348e-20)
(0.0182936 0.0986069 1.54703e-19)
(0.0306517 0.0964443 -2.62609e-19)
(0.0442175 0.0937109 3.24882e-19)
(0.0589661 0.0905982 1.07355e-19)
(0.0748485 0.0873769 3.6924e-20)
(0.0917445 0.0844401 -3.88132e-19)
(0.109387 0.0823713 5.43754e-20)
(0.127448 0.0821487 8.51307e-20)
(0.145813 0.0855506 -2.07026e-20)
(0.162179 0.0944241 9.66062e-20)
(-0.00319517 0.00546005 5.1175e-21)
(-0.0104398 0.0175599 -3.65994e-19)
(-0.017772 0.0296617 -1.01055e-20)
(-0.0242557 0.0412164 -9.20535e-20)
(-0.029377 0.0518539 -6.01834e-19)
(-0.0328666 0.0613348 5.17678e-19)
(-0.0345937 0.0695274 -3.67316e-19)
(-0.0345216 0.0763762 -1.93789e-20)
(-0.0326724 0.0818784 -1.71639e-19)
(-0.0291019 0.0860675 2.95135e-19)
(-0.0238815 0.0890005 -3.16327e-19)
(-0.017086 0.0907479 -1.47121e-19)
(-0.00878496 0.0913871 2.12111e-21)
(0.000962245 0.0909979 -3.13948e-19)
(0.0121094 0.0896617 4.27248e-19)
(0.0246242 0.0874633 -4.92282e-19)
(0.038486 0.0844983 1.60939e-21)
(0.0536807 0.0808857 7.46737e-20)
(0.070191 0.0767915 -1.85851e-19)
(0.0879768 0.0724657 1.79775e-19)
(0.106924 0.0682948 -2.54486e-19)
(0.126756 0.0648853 -1.66917e-19)
(0.147106 0.0633101 3.09713e-19)
(0.167773 0.0656031 -3.37526e-19)
(0.186127 0.0739872 -5.20295e-21)
(-0.00366438 0.00577609 -3.08162e-19)
(-0.0115938 0.0178426 3.53588e-19)
(-0.0194212 0.0294278 -1.09615e-19)
(-0.0261823 0.040182 2.09155e-19)
(-0.0313668 0.049867 2.25214e-19)
(-0.0347185 0.0583312 -1.9797e-19)
(-0.0361197 0.0655022 -1.28909e-19)
(-0.0355451 0.0713615 -1.54797e-19)
(-0.0330268 0.0759276 1.41813e-19)
(-0.0286291 0.0792432 -1.01946e-20)
(-0.0224299 0.0813662 2.04304e-19)
(-0.014509 0.0823617 2.00246e-19)
(-0.00494001 0.0822969 -2.37367e-19)
(0.00621475 0.0812372 4.63403e-19)
(0.0189071 0.0792459 -3.06017e-19)
(0.0331034 0.0763861 -5.03493e-20)
(0.0487829 0.0727272 5.88437e-19)
(0.0659325 0.0683577 -2.72514e-19)
(0.0845373 0.0634096 1.71625e-19)
(0.104561 0.0580986 3.33675e-19)
(0.125892 0.0527847 -2.16221e-19)
(0.148245 0.0480721 2.31446e-20)
(0.171216 0.0451048 -1.51563e-20)
(0.19453 0.0461791 -8.61353e-20)
(0.215194 0.0539503 1.61531e-19)
(-0.00420853 0.00615367 6.99301e-20)
(-0.0128706 0.0182359 -2.21319e-19)
(-0.0211666 0.0293103 1.20592e-19)
(-0.028127 0.0392467 -1.86589e-21)
(-0.0332582 0.0479501 9.07817e-20)
(-0.0363252 0.0553646 -1.5529e-19)
(-0.0372275 0.0614823 8.88301e-20)
(-0.0359532 0.0663264 2.41187e-19)
(-0.0325445 0.0699401 -7.24997e-21)
(-0.027073 0.0723788 -1.21057e-19)
(-0.0196216 0.0737043 1.20606e-19)
(-0.0102741 0.0739791 -3.48505e-21)
(0.000892923 0.0732631 -3.80296e-19)
(0.0138142 0.0716103 1.4064e-19)
(0.028438 0.0690686 3.05963e-20)
(0.044726 0.0656812 -5.28462e-20)
(0.0626518 0.0614923 -9.51947e-20)
(0.0821954 0.0565587 3.65184e-19)
(0.103335 0.0509729 8.73136e-20)
(0.126027 0.0449047 -1.89323e-19)
(0.150154 0.0386654 -2.27782e-20)
(0.175416 0.0328221 2.56969e-19)
(0.201376 0.0285463 -1.20073e-19)
(0.227709 0.0283768 5.10791e-20)
(0.251055 0.0354416 3.27544e-20)
(-0.00482832 0.0065835 -1.39142e-19)
(-0.0142579 0.0187242 1.38992e-19)
(-0.0229679 0.0292995 -7.7766e-20)
(-0.0300115 0.0384131 -2.49181e-19)
(-0.034927 0.0461226 -2.29201e-19)
(-0.0375093 0.0524733 -9.96383e-20)
(-0.0376796 0.0575266 -8.33134e-20)
(-0.0354411 0.0613509 -2.4456e-19)
(-0.0308461 0.0640175 -9.87197e-20)
(-0.0239722 0.0655976 9.01211e-20)
(-0.0149065 0.06616 -1.27464e-19)
(-0.00373516 0.0657685 -1.33179e-19)
(0.00946246 0.0644793 -1.24226e-19)
(0.024617 0.062339 2.2354e-19)
(0.0416699 0.0593846 -4.69174e-19)
(0.0605731 0.0556441 2.65668e-19)
(0.0812857 0.0511408 -4.52557e-19)
(0.103769 0.045903 -6.89967e-20)
(0.12798 0.0399836 -2.45524e-19)
(0.153851 0.0334994 -5.6473e-20)
(0.181244 0.0266943 -6.93731e-20)
(0.209836 0.0200595 -2.2986e-19)
(0.239152 0.0147294 -2.41657e-20)
(0.26886 0.013429 1.38927e-19)
(0.29529 0.0197672 -3.54063e-19)
(-0.00551894 0.00705 1.18804e-19)
(-0.015731 0.0192784 1.55133e-19)
(-0.0247674 0.0293679 5.42726e-19)
(-0.0317361 0.037665 -9.46663e-20)
(-0.0362242 0.0443843 2.25835e-19)
(-0.0380651 0.0496769 5.35977e-19)
(-0.0372064 0.0536762 -1.45894e-19)
(-0.033668 0.0564988 1.96502e-19)
(-0.0275127 0.0582464 1.1379e-19)
(-0.0188234 0.0590091 2.05603e-19)
(-0.0076902 0.0588662 -4.03096e-20)
(0.00579811 0.0578861 2.80485e-20)
(0.0215582 0.0561253 -6.94566e-20)
(0.0395136 0.0536284 3.80876e-19)
(0.0595938 0.0504268 4.90139e-20)
(0.0817323 0.0465399 3.48241e-19)
(0.105862 0.0419778 -8.81447e-20)
(0.131911 0.0367474 3.14953e-19)
(0.159793 0.0308687 4.34159e-20)
(0.189399 0.0244066 1.57867e-19)
(0.220546 0.0175276 -6.7225e-20)
(0.252872 0.0106126 -1.08141e-20)
(0.285859 0.00468243 3.69766e-19)
(0.319214 0.00254991 2.24649e-19)
(0.349102 0.0082682 -9.21311e-20)
(-0.00626937 0.00753208 -2.86404e-19)
(-0.0172511 0.0198569 -2.89796e-19)
(-0.0264888 0.0294725 -3.02573e-19)
(-0.03318 0.0369678 1.10915e-19)
(-0.0369774 0.0427161 -2.22002e-19)
(-0.0377619 0.0469755 -3.29857e-20)
(-0.035512 0.0499531 -8.66807e-20)
(-0.0302669 0.0518149 -3.57072e-19)
(-0.0220998 0.0526955 -5.49576e-20)
(-0.0110998 0.0527059 9.05374e-20)
(0.00263936 0.0519385 -2.81898e-19)
(0.0190244 0.0504698 3.90246e-19)
(0.0379643 0.0483611 -5.26338e-19)
(0.0593696 0.0456591 1.25701e-19)
(0.0831492 0.0423961 -3.18811e-19)
(0.109206 0.0385902 -2.56739e-19)
(0.137433 0.0342473 -1.42418e-20)
(0.167705 0.029364 -3.78585e-20)
(0.199874 0.0239388 3.05832e-20)
(0.233758 0.0179955 -1.4325e-19)
(0.269108 0.0116267 -9.84554e-20)
(0.305501 0.00508471 1.19996e-19)
(0.342363 -0.000797533 -3.3083e-19)
(0.379476 -0.00325426 1.06797e-19)
(0.413095 0.00212798 7.4821e-20)
(-0.00706215 0.00800432 -5.04958e-20)
(-0.0187655 0.0204086 -8.3313e-20)
(-0.0280383 0.0295565 3.25942e-19)
(-0.0342027 0.0362711 1.20746e-19)
(-0.0369943 0.041081 1.59269e-19)
(-0.0363496 0.0443505 -2.12393e-19)
(-0.0322834 0.0463598 8.36129e-22)
(-0.0248564 0.0473249 -1.69983e-19)
(-0.0141547 0.0474139 3.13992e-19)
(-0.000275415 0.0467606 1.01601e-19)
(0.0166805 0.0454725 1.12598e-19)
(0.0366103 0.0436368 -4.49716e-19)
(0.0594082 0.0413226 5.5092e-19)
(0.0849619 0.0385832 -1.65185e-19)
(0.113147 0.0354569 -1.1692e-19)
(0.143823 0.0319675 3.48897e-19)
(0.176822 0.0281254 1.54184e-19)
(0.211948 0.023929 -3.89784e-19)
(0.248966 0.0193707 -1.6078e-19)
(0.287599 0.014451 4.8562e-19)
(0.327503 0.00920631 -3.68185e-19)
(0.368174 0.00376497 2.20788e-19)
(0.408955 -0.00128093 1.21329e-19)
(0.449713 -0.0033644 -1.55882e-19)
(0.487147 0.00218232 -1.45795e-19)
(-0.00787353 0.00843863 -1.85019e-19)
(-0.020208 0.0208757 2.88082e-19)
(-0.0293059 0.0295532 1.22638e-19)
(-0.0346475 0.0355117 -1.76952e-19)
(-0.0360673 0.0394271 -2.83818e-20)
(-0.0335661 0.0417664 -1.84398e-19)
(-0.0271997 0.0428809 -7.29488e-20)
(-0.0170551 0.0430355 8.17765e-20)
(-0.00323509 0.0424317 -2.09673e-20)
(0.0141501 0.0412263 1.52198e-19)
(0.0349855 0.0395434 -1.31666e-19)
(0.0591498 0.0374821 3.63923e-19)
(0.0865107 0.0351214 -4.47976e-19)
(0.116919 0.0325237 2.79105e-19)
(0.150202 0.0297367 3.43632e-19)
(0.186155 0.026795 -4.94323e-19)
(0.224535 0.023721 -1.49112e-19)
(0.265051 0.0205261 2.50885e-19)
(0.307364 0.0172131 -1.54076e-19)
(0.351077 0.0137831 1.47265e-19)
(0.395725 0.010248 -3.56043e-19)
(0.440692 0.00664503 5.97603e-20)
(0.485213 0.00331645 2.28178e-19)
(0.52921 0.00251704 -3.63772e-19)
(0.570216 0.00908865 9.56789e-20)
(-0.00867431 0.00880619 -1.70432e-19)
(-0.021501 0.0211976 5.35123e-19)
(-0.0301682 0.0293906 1.02675e-19)
(-0.0343449 0.0346181 -2.77019e-19)
(-0.0339792 0.0376919 1.98294e-19)
(-0.029144 0.0391755 1.00533e-19)
(-0.0199431 0.0394873 1.59417e-19)
(-0.00649542 0.0389385 -1.08219e-20)
(0.0110723 0.0377628 -1.69854e-20)
(0.0326278 0.0361395 -3.46676e-20)
(0.0580307 0.0342088 -1.49078e-19)
(0.087127 0.0320817 -4.06486e-21)
(0.119742 0.0298471 3.46186e-19)
(0.15567 0.0275764 -5.63286e-19)
(0.194672 0.0253272 4.00318e-19)
(0.236461 0.0231465 8.08391e-20)
(0.2807 0.0210726 1.42067e-19)
(0.326994 0.0191381 -7.16187e-20)
(0.374885 0.0173726 6.39809e-19)
(0.423845 0.0158086 -3.9451e-19)
(0.473265 0.0144836 3.13258e-19)
(0.522376 0.0134211 7.26417e-20)
(0.570227 0.012818 -2.26013e-19)
(0.616653 0.0147006 1.90421e-19)
(0.660183 0.0239723 2.8666e-19)
(-0.00943091 0.00907944 -4.91507e-20)
(-0.0225575 0.0213152 -1.88526e-19)
(-0.0304917 0.0289961 -3.21896e-19)
(-0.0331169 0.0335165 -1.82865e-19)
(-0.0305079 0.0358084 -2.5617e-20)
(-0.0228181 0.0365237 -7.1906e-20)
(-0.0102073 0.0361419 -3.32428e-19)
(0.00716469 0.0350168 5.54091e-20)
(0.0291363 0.0334118 -3.70443e-19)
(0.0555395 0.0315267 -2.83681e-20)
(0.0861916 0.0295157 -3.52582e-19)
(0.120886 0.0274997 -1.24703e-19)
(0.159384 0.0255744 7.10934e-20)
(0.201402 0.0238169 -3.38487e-19)
(0.246611 0.0222904 3.23222e-21)
(0.294625 0.0210489 -2.88459e-19)
(0.345002 0.0201422 1.10522e-19)
(0.397245 0.0196217 -3.98641e-19)
(0.450793 0.0195488 -6.73713e-20)
(0.505029 0.0200068 -8.92421e-21)
(0.559258 0.0211093 -6.59849e-20)
(0.612622 0.0229863 -6.7477e-20)
(0.664026 0.0259806 -3.38004e-20)
(0.71283 0.0322618 -1.32452e-19)
(0.75689 0.0460157 -2.74599e-19)
(-0.010107 0.00923416 9.04857e-20)
(-0.0232842 0.0211751 2.38561e-19)
(-0.030136 0.0283028 2.86433e-19)
(-0.0307806 0.0321373 -2.28459e-19)
(-0.0254312 0.0337124 4.23528e-19)
(-0.0143306 0.0337582 -2.29442e-19)
(0.00229517 0.0328082 1.24512e-19)
(0.0242328 0.0312535 1.93091e-19)
(0.0512703 0.0293833 1.74932e-19)
(0.0831842 0.0274143 8.4673e-20)
(0.119727 0.0255111 1.36637e-19)
(0.160614 0.0237996 7.9278e-20)
(0.205512 0.0223767 5.31322e-19)
(0.254034 0.0213171 -3.84839e-19)
(0.305735 0.0206793 4.37133e-19)
(0.360111 0.0205109 -1.80812e-19)
(0.416604 0.0208554 3.87548e-19)
(0.474616 0.0217595 -1.95376e-20)
(0.533517 0.0232855 -7.97017e-20)
(0.592669 0.0255287 -1.38578e-20)
(0.651444 0.0286412 2.95974e-19)
(0.709242 0.0328817 -2.84608e-19)
(0.765637 0.0389519 2.00863e-19)
(0.820724 0.0490226 2.14538e-19)
(0.868833 0.0622948 4.13448e-20)
(-0.0106647 0.00925083 6.25354e-20)
(-0.023584 0.0207332 -3.40629e-19)
(-0.0289567 0.0272546 -1.23715e-19)
(-0.0271514 0.0304218 1.12844e-19)
(-0.0185299 0.0313507 -3.47133e-19)
(-0.0034348 0.0308375 -6.81723e-20)
(0.0178287 0.0294611 4.72312e-20)
(0.0449768 0.0276437 1.85716e-19)
(0.0777255 0.0256945 -4.70318e-19)
(0.115771 0.0238422 3.54068e-20)
(0.15877 0.0222558 -1.36854e-19)
(0.206327 0.0210595 -4.12752e-19)
(0.257984 0.0203424 2.80726e-19)
(0.313215 0.0201661 1.15644e-20)
(0.371431 0.0205702 -7.86158e-21)
(0.431984 0.0215786 2.77414e-19)
(0.494185 0.0232041 -4.89274e-19)
(0.55732 0.0254555 3.84625e-19)
(0.62068 0.0283442 -7.20991e-20)
(0.683586 0.031892 2.18434e-19)
(0.74543 0.0361362 -3.608e-19)
(0.805704 0.0411363 2.02198e-19)
(0.864125 0.0471063 -3.57454e-19)
(0.92094 0.0549144 3.58569e-19)
(0.971426 0.0630749 -1.13986e-19)
(-0.0110661 0.00911589 4.19468e-19)
(-0.0233581 0.0199582 -6.82925e-20)
(-0.026808 0.0258114 5.0359e-19)
(-0.0220452 0.0283298 2.32893e-19)
(-0.00959005 0.0286899 1.85509e-20)
(0.0101029 0.0277411 1.01419e-19)
(0.0366323 0.0260982 2.45094e-20)
(0.0696217 0.0242062 4.11033e-19)
(0.108688 0.0223877 1.31921e-19)
(0.153413 0.020876 -1.74319e-20)
(0.203324 0.0198367 3.57097e-20)
(0.257877 0.0193828 1.36148e-19)
(0.31645 0.0195851 1.12601e-19)
(0.378345 0.0204792 2.38325e-19)
(0.442801 0.0220723 -2.71973e-19)
(0.509005 0.0243486 8.12693e-20)
(0.576122 0.0272746 2.50727e-20)
(0.643319 0.0308044 1.19084e-19)
(0.7098 0.0348843 3.17791e-19)
(0.774835 0.039456 -2.09131e-19)
(0.837795 0.0444543 1.51497e-20)
(0.898171 0.0497989 -2.84378e-19)
(0.95562 0.055438 2.63409e-19)
(1.01017 0.0617724 -2.48648e-19)
(1.05835 0.0684147 2.77089e-20)
(-0.0112739 0.00882238 -3.4988e-19)
(-0.0225083 0.0188338 2.67459e-19)
(-0.0235445 0.0239536 -4.35115e-19)
(-0.01528 0.0258452 3.75168e-20)
(0.00159582 0.025724 3.05471e-19)
(0.0265014 0.0244792 -5.08271e-19)
(0.0589178 0.0227499 4.02251e-19)
(0.0983477 0.0209948 -6.37003e-19)
(0.144274 0.0195408 1.26879e-19)
(0.196128 0.0186163 2.67765e-20)
(0.253264 0.0183731 2.11535e-19)
(0.314948 0.0189014 -7.02965e-19)
(0.380357 0.0202405 1.21387e-19)
(0.448593 0.022387 1.27506e-19)
(0.5187 0.0253021 -7.60217e-20)
(0.589695 0.0289187 -4.67383e-19)
(0.6606 0.0331475 2.20747e-19)
(0.730479 0.0378833 4.0657e-19)
(0.798473 0.0430103 -4.25196e-19)
(0.863831 0.0484049 3.05676e-19)
(0.925934 0.053935 -3.8996e-19)
(0.984306 0.0594527 2.81141e-19)
(1.03862 0.0648124 -7.48022e-20)
(1.08884 0.0702428 4.24661e-19)
(1.1327 0.0761778 -4.73207e-19)
(-0.0112525 0.00836985 5.00919e-20)
(-0.0209375 0.0173597 3.94864e-20)
(-0.0190219 0.0216849 9.6721e-20)
(-0.00667688 0.022981 3.44777e-19)
(0.0152275 0.0224813 -1.0717e-20)
(0.0459633 0.0210998 7.70451e-20)
(0.084867 0.0194877 3.41721e-19)
(0.131286 0.0181058 1.3759e-19)
(0.184529 0.0172738 -4.50519e-20)
(0.243829 0.017203 3.84181e-19)
(0.308325 0.0180178 -4.35729e-19)
(0.377053 0.0197711 6.67044e-19)
(0.448956 0.0224563 -2.63545e-19)
(0.522916 0.0260169 4.76025e-19)
(0.597778 0.0303568 -1.60433e-19)
(0.6724 0.0353491 5.82008e-20)
(0.745691 0.0408457 7.02883e-20)
(0.816655 0.0466861 -1.32822e-19)
(0.884426 0.0527045 1.11893e-19)
(0.948293 0.058735 7.10356e-20)
(1.00771 0.0646146 9.64058e-20)
(1.06232 0.0701804 1.99563e-19)
(1.11191 0.0752779 -1.95205e-20)
(1.15649 0.0800549 -9.02417e-20)
(1.19489 0.0854374 2.5626e-19)
(-0.0109672 0.00776392 -2.92948e-19)
(-0.0185505 0.0155516 3.0965e-20)
(-0.0130983 0.0190333 -5.56327e-19)
(0.00393861 0.0197822 -1.32827e-19)
(0.0314944 0.0190278 -2.48371e-19)
(0.0686708 0.0176933 -5.33303e-20)
(0.114626 0.0164281 -2.65507e-19)
(0.168509 0.0156808 -1.58216e-19)
(0.229408 0.0157494 2.09373e-19)
(0.296313 0.016812 -3.49006e-19)
(0.368097 0.0189489 -9.67444e-20)
(0.443532 0.0221589 3.19798e-21)
(0.521309 0.0263735 -6.47907e-19)
(0.600082 0.0314703 2.74441e-19)
(0.67852 0.0372866 -3.98448e-19)
(0.755357 0.0436325 -1.20109e-20)
(0.829446 0.0503043 7.66068e-20)
(0.8998 0.0570961 -1.26218e-19)
(0.96562 0.0638098 -1.09432e-19)
(1.02632 0.0702616 5.26832e-20)
(1.0815 0.0762874 5.79778e-20)
(1.131 0.0817423 -3.76075e-19)
(1.17478 0.086502 2.13311e-19)
(1.21304 0.0906852 1.03064e-19)
(1.24535 0.0954224 2.43264e-20)
(-0.0103843 0.00701546 2.99855e-19)
(-0.0152536 0.0134408 -3.19843e-19)
(-0.00563473 0.0160521 4.48322e-19)
(0.0167341 0.0163265 6.96022e-20)
(0.0505717 0.0154683 -2.13418e-20)
(0.0947788 0.0143934 -1.50551e-19)
(0.148293 0.0137322 2.26228e-20)
(0.21002 0.0139039 2.28202e-19)
(0.278772 0.0151662 -3.1442e-19)
(0.353245 0.0176444 3.29341e-19)
(0.432011 0.0213548 -3.44674e-20)
(0.51355 0.0262233 1.58316e-20)
(0.596299 0.0321045 4.25167e-19)
(0.678708 0.0387991 5.65159e-19)
(0.75931 0.0460736 -2.21219e-19)
(0.836783 0.053678 3.87901e-19)
(0.910002 0.0613627 1.94043e-19)
(0.978074 0.0688928 -1.20003e-19)
(1.04036 0.0760586 3.71831e-19)
(1.09646 0.0826828 -1.67867e-20)
(1.14622 0.0886242 -3.50515e-19)
(1.1897 0.0937766 3.6482e-19)
(1.22711 0.0980637 4.92651e-20)
(1.25881 0.101606 -2.19556e-19)
(1.28496 0.105552 6.87874e-20)
(-0.00947032 0.00613983 -4.17447e-19)
(-0.0109549 0.0110727 4.36073e-19)
(0.00350333 0.0128175 -2.76653e-19)
(0.0318666 0.0127227 -8.64147e-20)
(0.0726134 0.0119449 -1.93078e-19)
(0.124405 0.0113734 3.41238e-19)
(0.18591 0.0115998 -1.98041e-19)
(0.255734 0.0129927 -9.06026e-20)
(0.332362 0.0157461 -2.59102e-19)
(0.414148 0.0199097 6.82433e-21)
(0.499335 0.0254136 -1.00977e-19)
(0.586109 0.0320927 4.86388e-20)
(0.672669 0.0397113 -5.13001e-19)
(0.757314 0.047988 1.46175e-19)
(0.838515 0.0566211 -1.74469e-19)
(0.914979 0.0653106 -1.39388e-19)
(0.9857 0.073778 4.28601e-20)
(1.04997 0.0817805 -2.00001e-19)
(1.10739 0.0891207 -8.34149e-20)
(1.15782 0.0956501 2.44513e-19)
(1.20138 0.10127 1.0088e-19)
(1.23839 0.105926 -4.29162e-19)
(1.26928 0.109599 3.1153e-19)
(1.29463 0.112429 -5.8218e-20)
(1.3149 0.115465 -1.1811e-19)
(-0.00819141 0.00515608 -1.52294e-19)
(-0.00556418 0.00850515 -8.14358e-20)
(0.0144434 0.00942726 -1.6314e-20)
(0.0494776 0.00910803 1.18936e-19)
(0.0977435 0.00863183 1.29422e-19)
(0.157616 0.00883945 1.12736e-19)
(0.227441 0.0102597 1.40001e-19)
(0.305462 0.0131841 2.13611e-19)
(0.389787 0.0177168 3.25975e-19)
(0.478393 0.0238054 3.21911e-19)
(0.569184 0.0312719 1.69302e-19)
(0.66007 0.0398443 -4.54197e-20)
(0.74907 0.0491894 1.17453e-20)
(0.834406 0.058946 -1.41575e-20)
(0.914581 0.0687549 1.32856e-19)
(0.98844 0.0782848 -3.37837e-20)
(1.05519 0.0872511 3.84655e-19)
(1.1144 0.0954282 -1.72844e-19)
(1.16595 0.102654 1.75586e-21)
(1.21003 0.108829 1.16915e-19)
(1.24704 0.11391 -2.56399e-19)
(1.27752 0.117903 4.19548e-19)
(1.30215 0.120845 -3.37823e-19)
(1.32163 0.122905 6.0098e-20)
(1.33662 0.124973 -2.13147e-19)
(-0.00651317 0.00408649 3.26767e-19)
(0.00100562 0.00580739 2.20142e-19)
(0.0273027 0.00599771 -1.41064e-19)
(0.0696856 0.00564337 6.22996e-19)
(0.126046 0.00572913 -5.38923e-19)
(0.194417 0.00702102 1.13832e-19)