/*--------------------------------*- C++ -*----------------------------------*\
  =========                 |
  \\      /  F ield         | OpenFOAM: The Open Source CFD Toolbox
   \\    /   O peration     | Website:  https://openfoam.org
    \\  /    A nd           | Version:  6.0
     \\/     M anipulation  |
\*---------------------------------------------------------------------------*/
FoamFile
{
    version     2.0;
    format      ascii;
    class       volVectorField;
    location    "84";
    object      U;
}
// * * * * * * * * * * * * * * * * * * * * * * * * * * * * * * * * * * * * * //

dimensions      [0 1 -1 0 0 0 0];

internalField   nonuniform List<vector> 
12500
(
(-0.000935521 0.000171767 -1.00986e-21)
(-0.00506323 0.0124698 1.32868e-20)
(-0.0124304 0.0325953 -1.92011e-20)
(-0.0213336 0.0573721 8.79656e-21)
(-0.0309385 0.0845012 5.47789e-22)
(-0.0407815 0.112452 -1.12432e-21)
(-0.050499 0.140273 -1.59011e-20)
(-0.0598051 0.167421 8.72629e-21)
(-0.0684751 0.19361 5.702e-21)
(-0.0763313 0.218693 5.81962e-21)
(-0.0832388 0.242578 -9.78562e-21)
(-0.0891036 0.265181 5.69739e-21)
(-0.0938719 0.2864 -2.6695e-21)
(-0.0975273 0.306118 4.50335e-21)
(-0.100087 0.324214 -1.14786e-20)
(-0.101596 0.340579 1.66571e-20)
(-0.102121 0.355131 -3.23382e-21)
(-0.101746 0.367836 -1.165e-20)
(-0.10056 0.378714 5.89813e-21)
(-0.0986587 0.387845 -5.61523e-21)
(-0.0961468 0.395374 5.0515e-21)
(-0.0931268 0.401515 6.72143e-21)
(-0.0895486 0.406544 6.37032e-22)
(-0.0851644 0.410821 -1.90284e-20)
(-0.0810046 0.414812 1.00175e-20)
(-0.000880235 0.00208287 1.72467e-20)
(-0.00485455 0.0169509 -4.47471e-20)
(-0.011718 0.0387654 1.32926e-20)
(-0.0199437 0.0646291 8.79018e-21)
(-0.0287607 0.0924081 -7.02734e-21)
(-0.0377308 0.120667 -3.95549e-20)
(-0.0465147 0.148511 1.1796e-20)
(-0.0548473 0.175427 -2.19829e-20)
(-0.0625198 0.201154 2.63173e-20)
(-0.0693666 0.225571 -3.51189e-20)
(-0.0752616 0.248616 1.87772e-20)
(-0.0801171 0.270239 5.8736e-21)
(-0.083884 0.290378 -1.5156e-20)
(-0.0865497 0.308958 -6.7542e-21)
(-0.0881346 0.325893 4.88166e-20)
(-0.0886872 0.341111 -4.29949e-20)
(-0.088278 0.354558 1.01985e-20)
(-0.0869921 0.366222 1.77085e-20)
(-0.0849217 0.376134 -4.21021e-21)
(-0.0821613 0.38438 2.86274e-20)
(-0.0788161 0.391104 5.05737e-21)
(-0.0749915 0.396511 -1.71358e-21)
(-0.0706341 0.400875 -3.56337e-20)
(-0.0654473 0.40456 3.27752e-20)
(-0.0605048 0.408004 -6.20096e-20)
(-0.000912537 0.00363455 5.47304e-20)
(-0.00483582 0.0205711 1.83814e-20)
(-0.011235 0.0437352 -2.37057e-20)
(-0.0187783 0.0704541 1.00289e-20)
(-0.0267678 0.0987302 9.68711e-21)
(-0.0347975 0.127205 3.61953e-20)
(-0.0425583 0.155021 -4.56702e-20)
(-0.0498107 0.18169 -7.10422e-21)
(-0.056367 0.206964 -3.0237e-20)
(-0.0620785 0.230742 -2.51993e-20)
(-0.0668314 0.252987 3.29041e-20)
(-0.0705473 0.273681 -1.08879e-19)
(-0.0731831 0.292801 -3.09264e-21)
(-0.0747304 0.310309 -6.47422e-20)
(-0.0752125 0.326161 -7.52335e-21)
(-0.0746798 0.340316 9.37849e-21)
(-0.073204 0.352749 -4.97431e-20)
(-0.0708715 0.363465 -3.10254e-20)
(-0.0677747 0.372508 -3.68767e-20)
(-0.0640079 0.379966 5.78965e-20)
(-0.0596757 0.385976 2.12376e-20)
(-0.0548874 0.390734 -9.29935e-20)
(-0.0495913 0.394507 -4.48272e-20)
(-0.0434464 0.397668 -4.97953e-20)
(-0.0375437 0.400628 1.34396e-19)
(-0.00100591 0.00482108 -2.08094e-21)
(-0.00496233 0.0233133 -4.21214e-20)
(-0.0109538 0.0474726 -1.94637e-20)
(-0.017844 0.0748 1.19937e-20)
(-0.0250098 0.103406 7.69487e-20)
(-0.0320793 0.13199 -3.49316e-20)
(-0.0387758 0.159722 7.36476e-20)
(-0.0448889 0.186124 6.95512e-20)
(-0.0502552 0.210956 4.24019e-20)
(-0.0547466 0.234126 -7.80167e-22)
(-0.0582655 0.255619 8.48028e-20)
(-0.0607455 0.275445 1.44918e-20)
(-0.0621516 0.293613 6.41857e-20)
(-0.0624807 0.310125 1.46523e-19)
(-0.0617587 0.324972 -1.69595e-19)
(-0.0600373 0.338146 2.54093e-19)
(-0.0573884 0.349649 5.50824e-20)
(-0.0538981 0.359506 -1.2084e-19)
(-0.0496586 0.367767 -1.73703e-20)
(-0.0447633 0.374522 4.44103e-20)
(-0.0393164 0.379902 -2.17501e-20)
(-0.0334311 0.384089 -1.26684e-20)
(-0.0270629 0.387343 -1.25553e-20)
(-0.0198313 0.390046 -5.12274e-20)
(-0.0128212 0.392592 1.79302e-19)
(-0.00113476 0.00565381 2.78627e-20)
(-0.00518908 0.0251961 -1.30206e-19)
(-0.0108427 0.0499925 1.5718e-19)
(-0.0171399 0.0776705 -6.2664e-20)
(-0.0235259 0.106424 7.42214e-20)
(-0.0296607 0.134996 5.98306e-20)
(-0.0352989 0.162572 2.25815e-20)
(-0.0402596 0.188676 3.17773e-22)
(-0.0444063 0.213067 1.27032e-19)
(-0.0476338 0.235659 8.70859e-20)
(-0.0498638 0.256448 -3.56717e-20)
(-0.0510448 0.275467 -2.26213e-20)
(-0.0511524 0.292754 9.42081e-20)
(-0.0501899 0.308345 1.78676e-20)
(-0.0481868 0.322264 4.73396e-20)
(-0.0451959 0.334536 1.1437e-19)
(-0.0412888 0.345188 -9.98095e-20)
(-0.0365505 0.35426 8.09312e-20)
(-0.0310724 0.361816 -1.71892e-19)
(-0.0249468 0.367944 1.44427e-19)
(-0.0182773 0.372768 8.08451e-22)
(-0.0111819 0.376456 -1.14371e-19)
(-0.00362677 0.379258 4.67798e-20)
(0.00480066 0.381572 1.05389e-19)
(0.0130427 0.383776 -1.54101e-19)
(-0.00127638 0.0061597 1.42861e-19)
(-0.00547486 0.0262736 -1.51296e-19)
(-0.0108708 0.0513548 -2.5054e-20)
(-0.0166607 0.0791181 3.01136e-20)
(-0.0223462 0.107821 -6.60851e-20)
(-0.0276125 0.136239 -1.03149e-19)
(-0.0322421 0.163566 -8.4818e-20)
(-0.0360819 0.189322 -2.03921e-20)
(-0.0390219 0.21326 -1.46054e-19)
(-0.0409818 0.235291 1.13692e-19)
(-0.0419049 0.255415 -1.78527e-19)
(-0.0417567 0.273682 8.91425e-20)
(-0.040526 0.290154 -3.08152e-20)
(-0.0382242 0.304894 6.87515e-20)
(-0.0348857 0.317959 -1.72188e-19)
(-0.0305649 0.329399 8.17887e-20)
(-0.0253334 0.339268 5.38959e-21)
(-0.0192747 0.347623 3.67225e-20)
(-0.012479 0.354538 2.21412e-19)
(-0.00503768 0.360101 4.81501e-20)
(0.00294657 0.364432 -5.00035e-21)
(0.0113509 0.367685 1.38544e-20)
(0.0201945 0.3701 9.24166e-20)
(0.0299139 0.37209 2.58485e-20)
(0.0394958 0.374029 8.57349e-20)
(-0.00141268 0.00637795 -8.913e-20)
(-0.0057858 0.0266287 1.26104e-19)
(-0.0110112 0.0516582 7.62168e-21)
(-0.0164004 0.0792397 -1.52525e-19)
(-0.0214937 0.107681 3.17856e-19)
(-0.025993 0.135783 -1.03013e-19)
(-0.0297023 0.162745 1.48793e-19)
(-0.0324928 0.188079 1.36009e-19)
(-0.0342796 0.211527 -1.12703e-19)
(-0.0350071 0.232992 -1.62656e-19)
(-0.034641 0.252474 4.42655e-20)
(-0.0331664 0.270031 -4.62963e-20)
(-0.0305866 0.285742 -2.0517e-19)
(-0.0269237 0.299692 2.46917e-19)
(-0.0222181 0.311964 -1.18137e-19)
(-0.0165272 0.322634 -8.16929e-20)
(-0.00992283 0.331777 -3.51781e-22)
(-0.00248753 0.339468 6.50858e-20)
(0.00568998 0.345791 2.75365e-20)
(0.0145192 0.350839 -1.07614e-19)
(0.0238981 0.354727 1.21016e-19)
(0.0336992 0.357598 -2.13256e-19)
(0.043924 0.359683 1.29412e-19)
(0.0550236 0.361413 -1.00668e-19)
(0.0660403 0.363167 2.4592e-20)
(-0.0015314 0.00635749 1.26722e-19)
(-0.00609812 0.0263676 -9.71382e-20)
(-0.0112448 0.0510345 -6.17535e-20)
(-0.0163545 0.0781718 -1.0837e-19)
(-0.0209863 0.106131 -1.9829e-19)
(-0.0248481 0.133736 -1.46309e-19)
(-0.0277577 0.160192 8.9868e-20)
(-0.0296055 0.185001 -1.35763e-19)
(-0.0303286 0.207895 1.72168e-19)
(-0.0298947 0.228762 -2.78965e-19)
(-0.0282922 0.2476 1.23252e-19)
(-0.0255262 0.264467 2.59618e-19)
(-0.0216164 0.279452 -3.63327e-19)
(-0.0165971 0.292656 5.15658e-20)
(-0.0105165 0.304182 6.66066e-20)
(-0.00343605 0.314127 6.51257e-20)
(0.00457127 0.322586 -7.05816e-20)
(0.0134234 0.329651 -1.81202e-20)
(0.0230327 0.335416 -5.00998e-20)
(0.0333097 0.339981 -4.30773e-20)
(0.0441529 0.343459 -2.32979e-19)
(0.0554302 0.345987 -1.55269e-20)
(0.0671235 0.347789 2.28038e-21)
(0.0796872 0.349316 -1.06695e-19)
(0.0922235 0.350964 1.07886e-19)
(-0.00162692 0.00615367 2.95056e-21)
(-0.00640031 0.0256138 3.94393e-20)
(-0.0115632 0.0496412 4.05614e-20)
(-0.016524 0.0760835 2.45245e-20)
(-0.0208395 0.103335 1.99833e-19)
(-0.0242129 0.130247 1.85915e-19)
(-0.0264674 0.15603 -1.51389e-19)
(-0.0275066 0.180185 -4.47438e-20)
(-0.0272856 0.202428 -4.02377e-20)
(-0.025793 0.222637 2.07486e-19)
(-0.0230387 0.240798 7.31019e-20)
(-0.0190476 0.256966 -1.08221e-19)
(-0.0138567 0.271234 -9.01272e-20)
(-0.00751326 0.283714 2.174e-19)
(-7.47112e-05 0.29452 -5.33408e-20)
(0.00839223 0.303767 -6.40383e-20)
(0.0178125 0.311565 -8.98916e-20)
(0.028104 0.318022 -6.94202e-20)
(0.0391803 0.323242 -8.83949e-20)
(0.0509527 0.327335 -5.83949e-20)
(0.0633201 0.330416 2.4247e-19)
(0.0761466 0.33262 -1.18854e-19)
(0.0893929 0.334168 8.01849e-20)
(0.103504 0.335538 -2.14551e-19)
(0.117638 0.337157 8.48431e-20)
(-0.00170062 0.00582527 -1.11836e-19)
(-0.00669419 0.0245007 -2.82848e-20)
(-0.0119699 0.047653 -2.25539e-19)
(-0.016916 0.073168 -1.06781e-19)
(-0.0210673 0.099489 -2.11453e-19)
(-0.0241117 0.1255 -2.17533e-20)
(-0.0258703 0.150427 1.12556e-19)
(-0.0262537 0.173769 -6.73102e-20)
(-0.0252305 0.195235 1.45995e-19)
(-0.022807 0.21469 -3.52632e-19)
(-0.0190124 0.232109 -9.40197e-21)
(-0.0138906 0.247539 6.20443e-20)
(-0.00749528 0.26107 -7.84708e-20)
(0.000112715 0.272817 7.08223e-20)
(0.00886619 0.282903 -5.3363e-20)
(0.0186925 0.291453 -1.14136e-19)
(0.0295138 0.29859 2.08766e-19)
(0.041248 0.304433 1.2925e-19)
(0.0538098 0.309099 -2.62733e-20)
(0.0671121 0.312706 8.49207e-20)
(0.0810546 0.315376 -1.67873e-19)
(0.0954983 0.317248 2.43571e-19)
(0.110383 0.318547 -3.33261e-19)
(0.12613 0.319788 6.94104e-20)
(0.141935 0.321442 -1.30244e-19)
(-0.00176081 0.00543167 5.73485e-21)
(-0.00699501 0.0231657 -9.6284e-20)
(-0.012481 0.0452531 1.44637e-19)
(-0.0175452 0.0696332 2.94876e-19)
(-0.0216828 0.0948096 -4.10958e-21)
(-0.0245585 0.119709 3.30723e-20)
(-0.0259842 0.143582 -1.23521e-19)
(-0.0258724 0.165934 5.90916e-20)
(-0.024201 0.186471 3.95903e-19)
(-0.0209903 0.205047 -9.00497e-20)
(-0.0162863 0.221625 -1.04293e-19)
(-0.0101498 0.236243 3.94971e-19)
(-0.00265014 0.248984 1.26711e-19)
(0.00613869 0.259961 6.02589e-20)
(0.0161399 0.269297 6.06898e-20)
(0.027275 0.277124 1.67765e-19)
(0.0394635 0.283572 -6.50054e-20)
(0.0526239 0.288768 1.67991e-19)
(0.0666731 0.29284 2.28601e-19)
(0.0815267 0.295916 -1.96905e-19)
(0.097087 0.298128 2.92156e-19)
(0.113214 0.299625 1.03824e-19)
(0.129826 0.300648 -3.96916e-19)
(0.14731 0.301755 5.74364e-19)
(0.164864 0.303488 -4.57467e-19)
(-0.00182219 0.00503032 -2.77113e-19)
(-0.0073303 0.0217433 1.51889e-19)
(-0.0131239 0.0426248 -1.01123e-19)
(-0.018432 0.0656924 -9.67401e-20)
(-0.0226967 0.0895263 -1.02067e-19)
(-0.0255539 0.113109 -1.10802e-19)
(-0.0268023 0.135724 3.12887e-20)
(-0.0263516 0.156896 2.8616e-19)
(-0.0241856 0.176332 -6.26809e-20)
(-0.0203354 0.19388 -1.58615e-19)
(-0.0148607 0.209492 -9.53064e-20)
(-0.00783702 0.223196 -3.94326e-20)
(0.000652446 0.235064 1.11605e-19)
(0.0105221 0.245201 -7.30001e-20)
(0.0216864 0.253729 -2.36396e-19)
(0.0340618 0.260778 -2.59017e-19)
(0.0475666 0.266481 1.02625e-19)
(0.062121 0.270969 -1.91988e-19)
(0.0776464 0.274377 1.64303e-19)
(0.0940641 0.276843 -4.67401e-19)
(0.111282 0.278511 3.59509e-19)
(0.129162 0.279547 -4.76746e-19)
(0.147606 0.280217 -9.7914e-21)
(0.166947 0.281146 -1.63579e-19)
(0.186345 0.282967 4.65785e-19)
(-0.00190484 0.00467427 4.22848e-19)
(-0.00773747 0.0203593 6.09581e-20)
(-0.0139339 0.0399433 -3.96848e-20)
(-0.0195989 0.061555 -1.73773e-20)
(-0.0241131 0.0838712 3.13447e-19)
(-0.0270819 0.105944 1.0032e-19)
(-0.028288 0.127105 8.97965e-20)
(-0.0276368 0.146903 -7.31125e-20)
(-0.025115 0.165057 2.78898e-19)
(-0.0207617 0.181413 -1.37697e-19)
(-0.0146477 0.195916 8.91889e-20)
(-0.00686051 0.20858 2.20684e-19)
(0.00250511 0.219468 -1.2581e-19)
(0.0133538 0.228674 1.33218e-19)
(0.0255935 0.236312 1.2517e-19)
(0.0391369 0.242504 4.33482e-20)
(0.0539033 0.247381 -1.06111e-19)
(0.0698172 0.251075 2.90846e-19)
(0.0868081 0.253722 -2.77486e-20)
(0.104807 0.255466 -3.2539e-20)
(0.123733 0.256465 3.47897e-19)
(0.143454 0.256905 -2.4926e-19)
(0.163862 0.257094 4.19199e-19)
(0.185223 0.257742 -3.51068e-19)
(0.206589 0.259612 4.37326e-19)
(-0.00203274 0.00440995 -2.01414e-19)
(-0.00826017 0.0191254 4.30686e-20)
(-0.0149496 0.0373678 -4.52797e-20)
(-0.0210651 0.0574171 -2.18696e-19)
(-0.025924 0.0780694 1.28747e-20)
(-0.0291024 0.0984623 1.21572e-19)
(-0.0303682 0.117987 -4.96589e-19)
(-0.0296215 0.136228 3.67694e-19)
(-0.0268507 0.152922 -3.56994e-19)
(-0.0221011 0.16792 -2.24336e-19)
(-0.0154518 0.181162 1.98173e-19)
(-0.00699977 0.192652 -4.2542e-19)
(0.00315148 0.202442 3.5593e-19)
(0.0148995 0.210612 -1.13986e-19)
(0.0281478 0.217263 -3.21268e-19)
(0.0428086 0.222508 7.95574e-20)
(0.0588045 0.226467 -7.53566e-20)
(0.0760681 0.229266 2.8195e-20)
(0.0945412 0.231038 -1.00257e-19)
(0.114171 0.231927 -3.2804e-19)
(0.134892 0.232101 7.3835e-20)
(0.156588 0.231772 -2.19972e-21)
(0.179143 0.231297 -3.38716e-19)
(0.202745 0.231501 2.37022e-19)
(0.226257 0.233325 -2.02607e-19)
(-0.00223182 0.0042751 8.08097e-20)
(-0.00894363 0.0181337 1.46808e-19)
(-0.0162064 0.0350349 2.05949e-19)
(-0.0228394 0.0534537 1.04568e-19)
(-0.028101 0.0723297 -1.02989e-19)
(-0.0315436 0.0909023 2.4424e-19)
(-0.0329233 0.108634 1.7907e-19)
(-0.0321363 0.125155 -6.71366e-20)
(-0.0291727 0.140228 2.30254e-19)
(-0.0240821 0.153714 -2.36505e-19)
(-0.0169499 0.165553 -6.94893e-20)
(-0.00787941 0.175741 6.99708e-20)
(0.00302016 0.184318 1.34469e-19)
(0.0156425 0.191349 2.27196e-21)
(0.0298898 0.196922 8.34464e-20)
(0.0456771 0.201133 1.55611e-19)
(0.0629337 0.204088 -2.64273e-19)
(0.0816043 0.205898 3.27096e-19)
(0.101647 0.206686 1.08079e-19)
(0.123031 0.20659 3.79464e-20)
(0.145712 0.20578 -3.93881e-19)
(0.169594 0.204487 5.45768e-20)
(0.194561 0.203132 8.71447e-20)
(0.220711 0.202682 -2.21872e-20)
(0.246622 0.204311 9.96819e-20)
(-0.00252753 0.00429672 4.78235e-21)
(-0.00982895 0.017453 -3.7685e-19)
(-0.0177288 0.0330525 -1.08906e-20)
(-0.0249115 0.0498112 -9.46819e-20)
(-0.0305868 0.0668367 -6.17138e-19)
(-0.0342925 0.0834855 5.29692e-19)
(-0.0357784 0.0993026 -3.7521e-19)
(-0.0349394 0.113974 -2.02134e-20)
(-0.0317676 0.127295 -1.74146e-19)
(-0.0263158 0.139142 2.98505e-19)
(-0.0186732 0.149459 -3.19152e-19)
(-0.00894626 0.158239 -1.47906e-19)
(0.00275376 0.165508 1.57572e-21)
(0.0163205 0.171321 -3.13805e-19)
(0.0316589 0.175746 4.26802e-19)
(0.0486901 0.178863 -4.91539e-19)
(0.0673535 0.180757 1.63005e-21)
(0.0876087 0.18152 7.42969e-20)
(0.109434 0.181254 -1.86493e-19)
(0.13282 0.18008 1.81648e-19)
(0.157749 0.178161 -2.5654e-19)
(0.184145 0.175739 -1.70046e-19)
(0.211891 0.173295 3.17515e-19)
(0.240989 0.171965 -3.48331e-19)
(0.269632 0.173228 -5.46546e-21)
(-0.00294209 0.00448939 -3.16454e-19)
(-0.0109472 0.0171247 3.6316e-19)
(-0.0195236 0.0314949 -1.12832e-19)
(-0.0272441 0.0466014 2.14367e-19)
(-0.0332871 0.0617429 2.30594e-19)
(-0.0371875 0.076407 -2.02464e-19)
(-0.0386954 0.090232 -1.30562e-19)
(-0.0377082 0.102967 -1.56895e-19)
(-0.0342204 0.114445 1.43806e-19)
(-0.0282869 0.124566 -1.06865e-20)
(-0.0199975 0.133282 2.05717e-19)
(-0.00945833 0.140584 2.01014e-19)
(0.0032218 0.146491 -2.37399e-19)
(0.0179407 0.151045 4.62258e-19)
(0.0346101 0.154297 -3.05007e-19)
(0.05316 0.156307 -4.94657e-20)
(0.0735421 0.157138 5.85413e-19)
(0.0957309 0.156856 -2.71271e-19)
(0.119722 0.155537 1.71641e-19)
(0.145527 0.153274 3.34939e-19)
(0.173147 0.150207 -2.17263e-19)
(0.202514 0.146574 2.30542e-20)
(0.233504 0.142905 -1.59878e-20)
(0.266021 0.140521 -8.94935e-20)
(0.297788 0.141262 1.65808e-19)
(-0.00349163 0.00485397 7.15438e-20)
(-0.0123133 0.0171604 -2.25923e-19)
(-0.0215724 0.0303993 1.22916e-19)
(-0.0297666 0.0438966 -2.09135e-21)
(-0.036065 0.0571622 9.25302e-20)
(-0.0400133 0.0698269 -1.57759e-19)
(-0.04137 0.0816306 9.02226e-20)
(-0.0400384 0.0923917 2.4443e-19)
(-0.0360157 0.101989 -7.22209e-21)
(-0.0293573 0.110347 -1.21371e-19)
(-0.0201502 0.117432 1.20342e-19)
(-0.00849585 0.123238 -3.85511e-21)
(0.00550366 0.12778 -3.78597e-19)
(0.0217545 0.131087 1.39805e-19)
(0.0401776 0.133198 3.01499e-20)
(0.0607134 0.134152 -5.19362e-20)
(0.0833239 0.13399 -9.46341e-20)
(0.107993 0.132752 3.61964e-19)
(0.134726 0.130478 8.68141e-20)
(0.16354 0.127229 -1.88766e-19)
(0.194435 0.123109 -2.32968e-20)
(0.227335 0.118327 2.60208e-19)
(0.262084 0.113439 -1.21321e-19)
(0.298497 0.109946 5.30519e-20)
(0.333781 0.110092 3.38291e-20)
(-0.00418342 0.00537701 -1.41905e-19)
(-0.0139215 0.0175411 1.42142e-19)
(-0.0238269 0.0297639 -7.92681e-20)
(-0.0323708 0.0417263 -2.53753e-19)
(-0.0387389 0.0531645 -2.33259e-19)
(-0.0425022 0.0638619 -1.00444e-19)
(-0.0434359 0.0736664 -8.43159e-20)
(-0.0414522 0.0824707 -2.46547e-19)
(-0.0365515 0.0902023 -9.93852e-20)
(-0.028787 0.0968183 9.07697e-20)
(-0.0182401 0.1023 -1.27747e-19)
(-0.0050034 0.106649 -1.32722e-19)
(0.0108309 0.10988 -1.23408e-19)
(0.0291791 0.112015 2.21254e-19)
(0.0499716 0.11308 -4.64251e-19)
(0.0731553 0.1131 2.6263e-19)
(0.0986948 0.112094 -4.47064e-19)
(0.126571 0.110074 -6.82478e-20)
(0.156778 0.107053 -2.43737e-19)
(0.189313 0.10305 -5.65638e-20)
(0.224149 0.0981238 -6.93262e-20)
(0.261164 0.0924389 -2.32277e-19)
(0.300139 0.0865328 -2.58941e-20)
(0.340822 0.0820607 1.43618e-19)
(0.379929 0.081675 -3.65812e-19)
(-0.00501372 0.00603118 1.20848e-19)
(-0.0157416 0.0182177 1.57741e-19)
(-0.0262071 0.029548 5.51775e-19)
(-0.0349115 0.0400754 -9.59267e-20)
(-0.041086 0.0497718 2.29145e-19)
(-0.0443415 0.0585789 5.4253e-19)
(-0.0444774 0.0664563 -1.47577e-19)
(-0.0414182 0.0733743 1.98156e-19)
(-0.0351674 0.0793128 1.14299e-19)
(-0.0257745 0.0842629 2.0602e-19)
(-0.0133129 0.0882267 -3.99302e-20)
(0.00213514 0.0912158 2.81775e-20)
(0.0204875 0.0932478 -6.82892e-20)
(0.0416684 0.0943426 3.77011e-19)
(0.0656116 0.0945185 4.85339e-20)
(0.0922599 0.0937878 3.43363e-19)
(0.121565 0.0921537 -8.69601e-20)
(0.153481 0.0896088 3.11103e-19)
(0.187962 0.0861373 4.33984e-20)
(0.224953 0.0817254 1.57463e-19)
(0.264357 0.0763855 -6.78721e-20)
(0.305967 0.0702193 -1.27995e-20)
(0.349466 0.0637049 3.76264e-19)
(0.394563 0.0585949 2.33523e-19)
(0.437623 0.0579185 -9.45757e-20)
(-0.00596657 0.00677687 -2.90661e-19)
(-0.0177176 0.0191145 -2.94033e-19)
(-0.0286014 0.0296745 -3.06873e-19)
(-0.0372106 0.0388854 1.12508e-19)
(-0.0428507 0.0469564 -2.24755e-19)
(-0.0451867 0.0539896 -3.33306e-20)
(-0.0440503 0.0600573 -8.74682e-20)
(-0.0393811 0.0652085 -3.58762e-19)
(-0.0311869 0.0694771 -5.46887e-20)
(-0.0195137 0.0728902 9.03682e-20)
(-0.00442743 0.0754732 -2.80141e-19)
(0.0139971 0.0772509 3.87498e-19)
(0.0356826 0.0782473 -5.20963e-19)
(0.0605523 0.078483 1.24043e-19)
(0.088529 0.0779729 -3.144e-19)
(0.119533 0.0767226 -2.52946e-19)
(0.153477 0.0747257 -1.41052e-20)
(0.19026 0.0719618 -3.76207e-20)
(0.22976 0.0683978 2.99236e-20)
(0.271827 0.0639949 -1.42841e-19)
(0.316257 0.0587274 -9.89119e-20)
(0.362721 0.0526317 1.21917e-19)
(0.410768 0.0460873 -3.38128e-19)
(0.460092 0.0408661 1.10103e-19)
(0.506967 0.0403273 7.81331e-20)
(-0.00701368 0.00756509 -5.11216e-20)
(-0.0197698 0.020134 -8.41841e-20)
(-0.0308714 0.030035 3.30242e-19)
(-0.0390644 0.0380577 1.22125e-19)
(-0.0437566 0.0446428 1.60775e-19)
(-0.0446808 0.0500499 -2.1422e-19)
(-0.0417081 0.0544623 1.06971e-21)
(-0.0347983 0.0580069 -1.70304e-19)
(-0.0239661 0.0607714 3.14482e-19)
(-0.00925813 0.0628198 1.01205e-19)
(0.00926126 0.0642018 1.11361e-19)
(0.0315162 0.0649576 -4.46308e-19)
(0.0574215 0.0651195 5.44958e-19)
(0.0868818 0.0647119 -1.63373e-19)
(0.119787 0.0637502 -1.15354e-19)
(0.156008 0.0622381 3.4394e-19)
(0.195387 0.0601661 1.52228e-19)
(0.237733 0.0575097 -3.85232e-19)
(0.282813 0.0542291 -1.60302e-19)
(0.330345 0.0502741 4.84004e-19)
(0.379982 0.0455956 -3.70216e-19)
(0.43125 0.0401742 2.22771e-19)
(0.483538 0.034265 1.25311e-19)
(0.536533 0.029571 -1.61229e-19)
(0.586764 0.0297582 -1.52648e-19)
(-0.00811578 0.00834135 -1.86992e-19)
(-0.0217975 0.0211647 2.91419e-19)
(-0.0328581 0.0304978 1.24056e-19)
(-0.0402542 0.0374613 -1.78962e-19)
(-0.0435216 0.0427131 -2.87704e-20)
(-0.0424735 0.0466635 -1.85954e-19)
(-0.0370292 0.0496024 -7.33009e-20)
(-0.0271749 0.051731 8.19826e-20)
(-0.0129399 0.0531893 -2.13209e-20)
(0.00562002 0.0540775 1.51488e-19)
(0.0284298 0.0544694 -1.30786e-19)
(0.0553962 0.0544212 3.61145e-19)
(0.0864054 0.0539747 -4.4328e-19)
(0.121318 0.05316 2.76013e-19)
(0.159963 0.0519951 3.39169e-19)
(0.202127 0.0504862 -4.87917e-19)
(0.247553 0.0486261 -1.47668e-19)
(0.295925 0.0463941 2.48333e-19)
(0.346867 0.0437555 -1.53242e-19)
(0.399938 0.0406643 1.47768e-19)
(0.454624 0.0370682 -3.5843e-19)
(0.510288 0.0329137 5.9502e-20)
(0.566157 0.0283279 2.34699e-19)
(0.621892 0.024876 -3.78856e-19)
(0.674626 0.026571 9.88183e-20)
(-0.00922507 0.00905034 -1.72061e-19)
(-0.0236848 0.0220897 5.40591e-19)
(-0.0343898 0.0309182 1.03745e-19)
(-0.0405563 0.0369425 -2.7967e-19)
(-0.0418708 0.0410171 2.00081e-19)
(-0.0382391 0.0436921 1.01221e-19)
(-0.0296386 0.0453558 1.60028e-19)
(-0.0160925 0.0462791 -1.12158e-20)
(0.00234377 0.0466507 -1.72454e-20)
(0.0255899 0.0466048 -3.46123e-20)
(0.0535406 0.0462383 -1.48102e-19)
(0.0860614 0.045622 -3.65606e-21)
(0.122982 0.0448071 3.43343e-19)
(0.164087 0.043829 -5.5745e-19)
(0.209112 0.0427094 3.96112e-19)
(0.257731 0.041458 7.97705e-20)
(0.309553 0.0400735 1.40357e-19)
(0.364116 0.0385452 -7.16475e-20)
(0.420885 0.0368543 6.37813e-19)
(0.479249 0.0349776 -3.95038e-19)
(0.538519 0.0328893 3.15802e-19)
(0.597878 0.0305459 7.46432e-20)
(0.656362 0.0280049 -2.32505e-19)
(0.713539 0.0267495 1.97283e-19)
(0.76723 0.0311662 3.00657e-19)
(-0.0102886 0.00964063 -4.95529e-20)
(-0.0253075 0.0227963 -1.9045e-19)
(-0.0352905 0.0311498 -3.25164e-19)
(-0.0397515 0.0363387 -1.84534e-19)
(-0.0385473 0.0393873 -2.58992e-20)
(-0.0316879 0.0409706 -7.24654e-20)
(-0.0192217 0.0415656 -3.34015e-19)
(-0.00122295 0.0415056 5.57539e-20)
(0.022209 0.0410236 -3.70462e-19)
(0.0509473 0.040284 -2.81433e-20)
(0.08483 0.0394038 -3.51281e-19)
(0.123651 0.0384664 -1.24008e-19)
(0.167148 0.0375295 7.05167e-20)
(0.214999 0.0366313 -3.36127e-19)
(0.26681 0.0357945 3.20298e-21)
(0.322113 0.0350294 -2.8633e-19)
(0.380366 0.0343376 1.09786e-19)
(0.440953 0.033717 -3.97139e-19)
(0.503192 0.0331673 -6.76191e-20)
(0.566337 0.0326993 -9.43865e-21)
(0.629577 0.032342 -6.65609e-20)
(0.691987 0.0321303 -6.79418e-20)
(0.752474 0.0322275 -3.30204e-20)
(0.810311 0.0342891 -1.34978e-19)
(0.862672 0.042478 -2.85244e-19)
(-0.0112521 0.0100689 9.12787e-20)
(-0.026539 0.0231848 2.40918e-19)
(-0.035386 0.0310573 2.89235e-19)
(-0.0376315 0.0354934 -2.30606e-19)
(-0.0333172 0.0376559 4.27034e-19)
(-0.0225706 0.038328 -2.31196e-19)
(-0.00552612 0.0380628 1.25333e-19)
(0.0176718 0.0372481 1.93694e-19)
(0.0468564 0.0361545 1.75169e-19)
(0.0818256 0.0349721 8.45258e-20)
(0.122328 0.0338337 1.36458e-19)
(0.168049 0.0328306 7.89639e-20)
(0.218599 0.0320225 5.28766e-19)
(0.273509 0.0314446 -3.83151e-19)
(0.332225 0.0311132 4.34693e-19)
(0.394113 0.0310302 -1.80352e-19)
(0.458467 0.0311883 3.86148e-19)
(0.524522 0.0315782 -1.94194e-20)
(0.591473 0.0321973 -7.96273e-20)
(0.658502 0.0330634 -1.43086e-20)
(0.724798 0.0342322 2.99e-19)
(0.789581 0.0358267 -2.89048e-19)
(0.8522 0.038263 2.04508e-19)
(0.912524 0.0432904 2.20592e-19)
(0.964711 0.051406 4.29497e-20)
(-0.0120628 0.0103028 6.30731e-20)
(-0.0272559 0.0231764 -3.44141e-19)
(-0.0345096 0.0305278 -1.24971e-19)
(-0.0340013 0.0342705 1.13761e-19)
(-0.0259703 0.0356738 -3.50242e-19)
(-0.0106751 0.0356093 -6.87227e-20)
(0.0116454 0.0346931 4.7509e-20)
(0.0407525 0.0333573 1.86221e-19)
(0.0763826 0.0319032 -4.72019e-19)
(0.118224 0.03054 3.53371e-20)
(0.165898 0.0294103 -1.37014e-19)
(0.218939 0.028607 -4.12321e-19)
(0.276792 0.0281843 2.80555e-19)
(0.338803 0.028166 1.11532e-20)
(0.404229 0.0285514 -7.47542e-21)
(0.47225 0.029321 2.76593e-19)
(0.541985 0.0304424 -4.89146e-19)
(0.612525 0.0318764 3.84962e-19)
(0.682957 0.0335844 -7.19235e-20)
(0.752402 0.035536 2.20658e-19)
(0.820051 0.0377147 -3.64073e-19)
(0.885203 0.0401216 2.05253e-19)
(0.947339 0.0428573 -3.63027e-19)
(1.00645 0.046676 3.64963e-19)
(1.05835 0.0514798 -1.15887e-19)
(-0.0126724 0.0103226 4.23897e-19)
(-0.0273418 0.0227176 -6.91438e-20)
(-0.0325036 0.0294797 5.08953e-19)
(-0.0286793 0.032569 2.35187e-19)
(-0.0163158 0.0333282 1.85459e-20)
(0.00418197 0.0326978 1.02312e-19)
(0.0324483 0.0313423 2.46735e-20)
(0.0681215 0.0297271 4.13507e-19)
(0.110806 0.0281751 1.3243e-19)
(0.160041 0.026907 -1.74087e-20)
(0.215274 0.0260667 3.58454e-20)
(0.275852 0.02574 1.36598e-19)
(0.341007 0.0259658 1.12799e-19)
(0.409872 0.0267453 2.38278e-19)
(0.481491 0.0280493 -2.71898e-19)
(0.554846 0.0298243 8.14231e-20)
(0.628888 0.0319997 2.47631e-20)
(0.702578 0.0344943 1.19435e-19)
(0.774921 0.0372226 3.19916e-19)
(0.845005 0.0401003 -2.10218e-19)
(0.912042 0.0430465 1.56357e-20)
(0.975386 0.045979 -2.87728e-19)
(1.03456 0.0488371 2.67067e-19)
(1.08949 0.0519911 -2.51447e-19)
(1.13742 0.0560889 2.81644e-20)
(-0.0130383 0.0101216 -3.53751e-19)
(-0.0266893 0.0217833 2.70394e-19)
(-0.0292198 0.0278696 -4.39901e-19)
(-0.0214943 0.0303325 3.79629e-20)
(-0.0041766 0.0305572 3.08429e-19)
(0.0221642 0.029533 -5.12957e-19)
(0.0570095 0.0279573 4.05418e-19)
(0.09984 0.0263168 -6.41533e-19)
(0.150087 0.0249455 1.27816e-19)
(0.207096 0.0240644 2.68171e-20)
(0.270097 0.0238084 2.1231e-19)
(0.338198 0.0242439 -7.0553e-19)
(0.410391 0.025382 1.2172e-19)
(0.485565 0.0271886 1.27861e-19)
(0.562542 0.0295932 -7.63473e-20)
(0.640116 0.0324977 -4.69336e-19)
(0.717093 0.0357847 2.21574e-19)
(0.792346 0.0393264 4.09131e-19)
(0.864849 0.0429918 -4.28547e-19)
(0.93372 0.0466524 3.08379e-19)
(0.998247 0.0501856 -3.94059e-19)
(1.0579 0.0534711 2.84251e-19)
(1.11233 0.0563978 -7.55593e-20)
(1.16151 0.0591791 4.29158e-19)
(1.20388 0.0629232 -4.76353e-19)
(-0.0131236 0.00970428 5.07964e-20)
(-0.0251994 0.0203766 3.99823e-20)
(-0.0245181 0.0256944 9.81099e-20)
(-0.0122828 0.0275554 3.48884e-19)
(0.0106156 0.0273583 -1.07367e-20)
(0.0434227 0.0261214 7.80029e-20)
(0.0854352 0.0245591 3.45051e-19)
(0.135936 0.0231651 1.38807e-19)
(0.194138 0.022271 -4.52911e-20)
(0.259141 0.0220847 3.86986e-19)
(0.32991 0.0227171 -4.38497e-19)
(0.405278 0.0242004 6.7106e-19)
(0.483963 0.0265025 -2.64931e-19)
(0.564604 0.0295398 4.78838e-19)
(0.64581 0.0331889 -1.61287e-19)
(0.726217 0.0372987 5.85619e-20)
(0.804539 0.0417022 7.07874e-20)
(0.879626 0.0462274 -1.34037e-19)
(0.950501 0.0507073 1.12859e-19)
(1.01639 0.0549868 7.16696e-20)
(1.07674 0.0589273 9.74298e-20)
(1.13121 0.0624066 2.01769e-19)
(1.17965 0.0653188 -1.98016e-20)
(1.22219 0.067805 -9.12529e-20)
(1.25824 0.071181 2.57732e-19)
(-0.0128957 0.00908478 -2.97016e-19)
(-0.0227803 0.0185254 3.13759e-20)
(-0.0182646 0.0229908 -5.6376e-19)
(-0.000886526 0.0242842 -1.34635e-19)
(0.0282227 0.0237918 -2.51358e-19)
(0.0680969 0.0225412 -5.4062e-20)
(0.11781 0.0212463 -2.68446e-19)
(0.176402 0.0203911 -1.59696e-19)
(0.242813 0.0202881 2.11501e-19)
(0.315847 0.0211142 -3.52318e-19)
(0.394159 0.0229379 -9.75948e-20)
(0.476272 0.0257386 3.06711e-21)
(0.56062 0.0294245 -6.53224e-19)
(0.645602 0.0338487 2.76693e-19)
(0.729652 0.0388258 -4.01879e-19)
(0.811304 0.0441486 -1.21543e-20)
(0.889261 0.0496032 7.73959e-20)
(0.962437 0.0549832 -1.27525e-19)
(1.02999 0.0601009 -1.10554e-19)
(1.09135 0.0647949 5.3296e-20)
(1.14619 0.0689344 5.8642e-20)
(1.19443 0.0724197 -3.80233e-19)
(1.23618 0.075177 2.15652e-19)
(1.27177 0.0773265 1.03959e-19)
(1.30122 0.0801785 2.42028e-20)
(-0.0123252 0.00828391 3.04385e-19)
(-0.0193455 0.0162794 -3.24766e-19)
(-0.0103301 0.0198314 4.54792e-19)
(0.0128473 0.0206143 7.02846e-20)
(0.0487972 0.0199776 -2.16003e-20)
(0.0963086 0.0189378 -1.52747e-19)
(0.154188 0.0181887 2.28926e-20)
(0.221178 0.018185 2.3096e-19)
(0.295891 0.0191982 -3.18059e-19)
(0.376783 0.0213527 3.32861e-19)
(0.462161 0.0246523 -3.46944e-20)
(0.550226 0.0290036 1.58282e-20)
(0.639134 0.0342386 4.29907e-19)
(0.727085 0.0401364 5.71122e-19)
(0.812402 0.0464461 -2.23498e-19)
(0.893607 0.0529075 3.92213e-19)
(0.969484 0.0592708 1.96387e-19)
(1.03911 0.065311 -1.21428e-19)
(1.10189 0.0708394 3.76278e-19)
(1.1575 0.0757097 -1.69742e-20)
(1.20592 0.0798194 -3.54587e-19)
(1.24735 0.0831074 3.68968e-19)
(1.28217 0.0855448 4.96865e-20)
(1.31091 0.0872584 -2.21753e-19)
(1.33401 0.0894351 6.94235e-20)
(-0.0113838 0.00732707 -4.24318e-19)
(-0.014811 0.0137053 4.42939e-19)
(-0.000590114 0.0163192 -2.81044e-19)
(0.0290631 0.0166836 -8.79953e-20)
(0.0724753 0.0160869 -1.95883e-19)
(0.128149 0.0155133 3.45998e-19)
(0.194572 0.0156138 -2.00908e-19)
(0.270127 0.0167888 -9.18573e-20)
(0.353045 0.019244 -2.6275e-19)
(0.44139 0.0230245 6.87696e-21)
(0.533099 0.0280457 -1.02209e-19)
(0.626055 0.0341219 4.93112e-20)
(0.71818 0.0409957 -5.19418e-19)
(0.807543 0.0483679 1.47989e-19)
(0.89245 0.0559256 -1.76596e-19)
(0.971517 0.0633683 -1.41258e-19)
(1.04372 0.0704272 4.35324e-20)
(1.1084 0.0768807 -2.02476e-19)
(1.16525 0.0825611 -8.44179e-20)
(1.21429 0.0873573 2.47655e-19)
(1.25581 0.0912114 1.02096e-19)
(1.29029 0.094112 -4.34238e-19)
(1.31835 0.0960802 3.15014e-19)
(1.3407 0.0972632 -5.88228e-20)
(1.35802 0.0986628 -1.19127e-19)
(-0.0100421 0.00624241 -1.55198e-19)
(-0.00909486 0.0108821 -8.29586e-20)
(0.0110735 0.0125813 -1.67507e-20)
(0.0478906 0.0126635 1.20675e-19)
(0.099365 0.0123312 1.31488e-19)
(0.163663 0.0125118 1.14678e-19)
(0.23889 0.0137867 1.42119e-19)
(0.323013 0.0164732 2.16937e-19)
(0.413825 0.0206805 3.30842e-19)
(0.50897 0.0263468 3.26825e-19)
(0.606016 0.0332753 1.71772e-19)
(0.702566 0.0411719 -4.59621e-20)
(0.796382 0.049684 1.2098e-20)
(0.885502 0.0584379 -1.44115e-20)
(0.968329 0.0670726 1.34851e-19)
(1.04369 0.0752666 -3.43232e-20)
(1.11085 0.0827566 3.90178e-19)
(1.16949 0.0893479 -1.7521e-19)
(1.21966 0.0949156 1.72076e-21)
(1.26173 0.0994009 1.18438e-19)
(1.29627 0.102801 -2.59718e-19)
(1.32403 0.105159 4.24564e-19)
(1.34581 0.106546 -3.41727e-19)
(1.36246 0.107131 6.06911e-20)
(1.37474 0.107717 -2.15179e-19)
(-0.00826968 0.00505978 3.33112e-19)
(-0.00211728 0.00789873 2.24257e-19)
(0.0247691 0.0087626 -1.43797e-19)
(0.069437 0.00875001 6.34243e-19)
(0.129533 0.00894915 -5.48572e-19)
(0.202828 0.0102025 1.16172e-19)
(0.286981 0.0129897 -8.67616e-20)
(0.37948 0.0175115 -3.8209e-19)
(0.477643 0.0237479 -3.95076e-20)
(0.578686 0.0315018 -3.06484e-19)
(0.679842 0.0404445 6.59824e-21)
(0.778507 0.0501651 -3.16379e-19)