1.22 	3.45254e-18 	-6.98323e-18 	-0.123716 	-0.00613868 	-4.16907e-22
1.66 	3.45254e-18 	-6.96118e-18 	-0.239646 	-0.0209128 	-2.06682e-23
2.1 	3.45254e-18 	-6.93894e-18 	-0.261849 	-0.0200387 	-1.17449e-21
2.54 	3.45254e-18 	-8.30431e-18 	-0.331217 	0.0190895 	8.10609e-24
2.98 	3.45254e-18 	-8.28171e-18 	-0.355933 	0.0782635 	1.24183e-21
3.42 	3.45254e-18 	-6.87115e-18 	-0.409963 	0.104365 	1.40111e-21
3.86 	3.45254e-18 	-6.84819e-18 	-0.346282 	0.0670974 	2.94175e-22
4.3 	3.45254e-18 	-6.82504e-18 	-0.290281 	-0.00798053 	1.10485e-21
4.74 	3.45254e-18 	-5.41391e-18 	-0.185834 	-0.0716459 	-5.77454e-22
5.18 	3.45254e-18 	-2.61482e-18 	-0.129941 	-0.102115 	-2.41269e-22
5.62 	3.45254e-18 	-1.2033e-18 	-0.0490457 	-0.102473 	8.34165e-23
6.06 	3.45254e-18 	-1.17937e-18 	0.0162815 	-0.0794782 	1.49228e-22
6.5 	3.45254e-18 	-1.15524e-18 	0.101212 	-0.0407084 	-3.66629e-23
