/*--------------------------------*- C++ -*----------------------------------*\
  =========                 |
  \\      /  F ield         | OpenFOAM: The Open Source CFD Toolbox
   \\    /   O peration     | Website:  https://openfoam.org
    \\  /    A nd           | Version:  6.0
     \\/     M anipulation  |
\*---------------------------------------------------------------------------*/
FoamFile
{
    version     2.0;
    format      ascii;
    class       surfaceScalarField;
    location    "42";
    object      phi;
}
// * * * * * * * * * * * * * * * * * * * * * * * * * * * * * * * * * * * * * //

dimensions      [0 3 -1 0 0 0 0];

internalField   nonuniform List<scalar> 
24700
(
-1.21311e-06
6.28791e-06
-5.0748e-06
-4.42589e-06
1.60108e-05
-1.2798e-05
-9.26583e-06
2.34912e-05
-1.86512e-05
-1.54024e-05
2.91616e-05
-2.3025e-05
-2.25483e-05
3.33854e-05
-2.62395e-05
-3.04585e-05
3.64709e-05
-2.85607e-05
-3.89286e-05
3.86774e-05
-3.02073e-05
-4.77923e-05
4.02211e-05
-3.13574e-05
-5.69183e-05
4.128e-05
-3.2154e-05
-6.62077e-05
4.19997e-05
-3.27103e-05
-7.55911e-05
4.24974e-05
-3.3114e-05
-8.50257e-05
4.28665e-05
-3.3432e-05
-9.44927e-05
4.31806e-05
-3.37136e-05
-0.000103995
4.3496e-05
-3.39942e-05
-0.000113553
4.38554e-05
-3.42973e-05
-0.000123205
4.42896e-05
-3.46376e-05
-0.000133002
4.48196e-05
-3.50224e-05
-0.000143007
4.5458e-05
-3.54532e-05
-0.00015329
4.62107e-05
-3.59273e-05
-0.000163929
4.70772e-05
-3.64382e-05
-0.000175004
4.80519e-05
-3.69767e-05
-0.000186597
4.91249e-05
-3.75317e-05
-0.000198789
5.02819e-05
-3.80905e-05
-0.000211657
5.15048e-05
-3.86372e-05
5.27732e-05
-3.91537e-05
-0.000225276
-1.18247e-06
7.47038e-06
-4.32035e-06
1.91487e-05
-9.05277e-06
2.82236e-05
-1.50572e-05
3.51661e-05
-2.20518e-05
4.038e-05
-2.97949e-05
4.4214e-05
-3.8084e-05
4.69665e-05
-4.67531e-05
4.88902e-05
-5.56707e-05
5.01977e-05
-6.47369e-05
5.10658e-05
-7.38805e-05
5.1641e-05
-8.3057e-05
5.20431e-05
-9.22458e-05
5.23693e-05
-0.000101447
5.26977e-05
-0.000110682
5.30898e-05
-0.000119985
5.35931e-05
-0.000129409
5.42429e-05
-0.000139014
5.50637e-05
-0.000148874
5.60704e-05
-0.000159066
5.72695e-05
-0.000169674
5.86596e-05
-0.000180782
6.02327e-05
-0.000192474
6.19738e-05
-0.000204831
6.38625e-05
6.58772e-05
-0.000217935
-1.15268e-06
8.62306e-06
-4.21623e-06
2.22122e-05
-8.83955e-06
3.28469e-05
-1.47067e-05
4.10332e-05
-2.15397e-05
4.7213e-05
-2.90991e-05
5.17734e-05
-3.71828e-05
5.50502e-05
-4.56242e-05
5.73316e-05
-5.42897e-05
5.88632e-05
-6.30768e-05
5.98529e-05
-7.19112e-05
6.04754e-05
-8.07447e-05
6.08766e-05
-8.95529e-05
6.11775e-05
-9.83332e-05
6.14779e-05
-0.000107102
6.18587e-05
-0.000115894
6.23848e-05
-0.000124757
6.31066e-05
-0.000133755
6.40613e-05
-0.000142959
6.52746e-05
-0.000152451
6.67608e-05
-0.000162315
6.85242e-05
-0.000172642
7.05598e-05
-0.000183521
7.2853e-05
-0.000195041
7.5382e-05
7.81241e-05
-0.000207288
-1.12423e-06
9.74729e-06
-4.11502e-06
2.5203e-05
-8.62909e-06
3.7361e-05
-1.43553e-05
4.67595e-05
-2.10185e-05
5.38762e-05
-2.83801e-05
5.9135e-05
-3.62371e-05
6.29072e-05
-4.4421e-05
6.55154e-05
-5.2795e-05
6.72372e-05
-6.12522e-05
6.83102e-05
-6.97136e-05
6.89368e-05
-7.81255e-05
6.92885e-05
-8.64581e-05
6.95102e-05
-9.47034e-05
6.97231e-05
-0.000102873
7.00285e-05
-0.000110998
7.05094e-05
-0.000119124
7.12324e-05
-0.000127312
7.22494e-05
-0.000135635
7.35979e-05
-0.000144177
7.53024e-05
-0.000153027
7.73746e-05
-0.000162281
7.98141e-05
-0.000172037
8.26084e-05
-0.00018239
8.57358e-05
8.91732e-05
-0.00019344
-1.09764e-06
1.08449e-05
-4.01832e-06
2.81237e-05
-8.42438e-06
4.1767e-05
-1.4008e-05
5.2343e-05
-2.04953e-05
6.03635e-05
-2.76475e-05
6.62872e-05
-3.52601e-05
7.05198e-05
-4.31611e-05
7.34164e-05
-5.12094e-05
7.52855e-05
-5.92926e-05
7.63934e-05
-6.7325e-05
7.69692e-05
-7.52459e-05
7.72094e-05
-8.30179e-05
7.72822e-05
-9.06257e-05
7.73309e-05
-9.80745e-05
7.74773e-05
-0.000105389
7.78237e-05
-0.000112611
7.84545e-05
-0.000119799
7.94378e-05
-0.000127027
8.08258e-05
-0.00013438
8.26552e-05
-0.000141953
8.49477e-05
-0.00014985
8.77103e-05
-0.000158176
9.09348e-05
-0.000167041
9.46013e-05
9.86878e-05
-0.000176556
-1.07341e-06
1.19183e-05
-3.92757e-06
3.09778e-05
-8.22809e-06
4.60675e-05
-1.36688e-05
5.77838e-05
-1.99762e-05
6.66709e-05
-2.69103e-05
7.32213e-05
-3.42641e-05
7.78736e-05
-4.18616e-05
8.10139e-05
-4.95563e-05
8.29801e-05
-5.72288e-05
8.40659e-05
-6.47856e-05
8.45259e-05
-7.2157e-05
8.45808e-05
-7.92962e-05
8.44214e-05
-8.61784e-05
8.42132e-05
-9.27998e-05
8.40987e-05
-9.9177e-05
8.42008e-05
-0.000105346
8.46234e-05
-0.000111361
8.54531e-05
-0.000117295
8.67593e-05
-0.000123234
8.85943e-05
-0.000129279
9.09933e-05
-0.000135543
9.3974e-05
-0.000142144
9.75358e-05
-0.000149206
0.000101664
0.000106338
-0.000156857
-1.0519e-06
1.29702e-05
-3.84376e-06
3.37697e-05
-8.04201e-06
5.02658e-05
-1.33406e-05
6.30824e-05
-1.94654e-05
7.27957e-05
-2.61747e-05
7.99306e-05
-3.32584e-05
8.49572e-05
-4.0536e-05
8.82915e-05
-4.78548e-05
9.0299e-05
-5.50879e-05
9.1299e-05
-6.21323e-05
9.15704e-05
-6.8908e-05
9.13564e-05
-7.53567e-05
9.08702e-05
-8.14419e-05
9.02983e-05
-8.71481e-05
8.9805e-05
-9.24813e-05
8.95339e-05
-9.74684e-05
8.96105e-05
-0.000102158
9.01424e-05
-0.000106618
9.12195e-05
-0.000110937
9.29136e-05
-0.000115222
9.52779e-05
-0.000119593
9.83455e-05
-0.000124185
0.000102128
-0.000129141
0.000106619
0.000111806
-0.000134608
-1.03332e-06
1.40036e-05
-3.76725e-06
3.65036e-05
-7.86656e-06
5.43651e-05
-1.30239e-05
6.82397e-05
-1.89637e-05
7.87355e-05
-2.54423e-05
8.64092e-05
-3.22462e-05
9.17612e-05
-3.91905e-05
9.52358e-05
-4.61161e-05
9.72245e-05
-5.28877e-05
9.80706e-05
-5.93923e-05
9.8075e-05
-6.55381e-05
9.75022e-05
-7.12537e-05
9.65858e-05
-7.64883e-05
9.55329e-05
-8.12121e-05
9.45288e-05
-8.54171e-05
9.3739e-05
-8.91183e-05
9.33117e-05
-9.23539e-05
9.33781e-05
-9.51868e-05
9.40524e-05
-9.77039e-05
9.54307e-05
-0.000100016
9.75897e-05
-0.000102254
0.000100584
-0.00010457
0.000104444
-0.000107129
0.000109178
0.000114786
-0.000110108
-1.01758e-06
1.50211e-05
-3.69745e-06
3.91835e-05
-7.70017e-06
5.83678e-05
-1.27159e-05
7.32554e-05
-1.8467e-05
8.44867e-05
-2.47077e-05
9.26499e-05
-3.12219e-05
9.82753e-05
-3.782e-05
0.000101834
-4.43371e-05
0.000103742
-5.06295e-05
0.000104363
-5.6574e-05
0.000104019
-6.20659e-05
0.000102994
-6.70193e-05
0.000101539
-7.1367e-05
9.98807e-05
-7.50621e-05
9.82239e-05
-7.80793e-05
9.67562e-05
-8.04171e-05
9.56494e-05
-8.21e-05
9.5061e-05
-8.31807e-05
9.51331e-05
-8.37415e-05
9.59915e-05
-8.38951e-05
9.77433e-05
-8.37835e-05
0.000100472
-8.35762e-05
0.000104236
-8.34668e-05
0.000109069
0.000114987
-8.36684e-05
-1.00427e-06
1.60254e-05
-3.63261e-06
4.18118e-05
-7.53889e-06
6.22741e-05
-1.24095e-05
7.8126e-05
-1.79647e-05
9.00418e-05
-2.39569e-05
9.86421e-05
-3.01675e-05
0.000104486
-3.64038e-05
0.00010807
-4.24953e-05
0.000109833
-4.8291e-05
0.000110159
-5.36575e-05
0.000109386
-5.84775e-05
0.000107814
-6.26494e-05
0.000105711
-6.60883e-05
0.00010332
-6.87272e-05
0.000100863
-7.052e-05
9.8549e-05
-7.14444e-05
9.65738e-05
-7.15058e-05
9.51224e-05
-7.07416e-05
9.43688e-05
-6.92244e-05
9.44743e-05
-6.70651e-05
9.55839e-05
-6.44141e-05
9.78214e-05
-6.14608e-05
0.000101283
-5.84313e-05
0.000106039
0.000112139
-5.55836e-05
-9.92588e-07
1.7018e-05
-3.56964e-06
4.43889e-05
-7.37595e-06
6.60804e-05
-1.20931e-05
8.28432e-05
-1.74391e-05
9.53878e-05
-2.31649e-05
0.000104368
-2.90507e-05
0.000110372
-3.49016e-05
0.000113921
-4.05431e-05
0.000115475
-4.58184e-05
0.000115434
-5.05851e-05
0.000114153
-5.47138e-05
0.000111943
-5.80876e-05
0.000109085
-6.0603e-05
0.000105835
-6.21711e-05
0.000102431
-6.27217e-05
9.90995e-05
-6.22069e-05
9.60591e-05
-6.06076e-05
9.3523e-05
-5.79387e-05
9.17e-05
-5.42565e-05
9.07921e-05
-4.96641e-05
9.09915e-05
-4.43162e-05
9.24735e-05
-3.84216e-05
9.53883e-05
-3.22431e-05
9.98607e-05
0.00010599
-2.6094e-05
-9.81353e-07
1.79994e-05
-3.50413e-06
4.69117e-05
-7.20176e-06
6.97781e-05
-1.17501e-05
8.73915e-05
-1.68644e-05
0.000100502
-2.22952e-05
0.000109799
-2.78224e-05
0.000115899
-3.32505e-05
0.000119349
-3.84033e-05
0.000120627
-4.31198e-05
0.000120151
-4.72509e-05
0.000118284
-5.06573e-05
0.000115349
-5.3208e-05
0.000111636
-5.47813e-05
0.000107408
-5.5266e-05
0.000102916
-5.45653e-05
9.83988e-05
-5.26021e-05
9.40959e-05
-4.93262e-05
9.02471e-05
-4.47228e-05
8.70966e-05
-3.8823e-05
8.48923e-05
-3.17133e-05
8.38818e-05
-2.35457e-05
8.43059e-05
-1.45448e-05
8.63875e-05
-5.01334e-06
9.03292e-05
9.63081e-05
4.6689e-06
-9.69032e-07
1.89684e-05
-3.43042e-06
4.9373e-05
-7.00399e-06
7.33516e-05
-1.13586e-05
9.17462e-05
-1.62069e-05
0.00010535
-2.12991e-05
0.000114891
-2.64161e-05
0.000121016
-3.13635e-05
0.000124297
-3.59655e-05
0.000125229
-4.00598e-05
0.000124245
-4.34937e-05
0.000121718
-4.61207e-05
0.000117976
-4.77991e-05
0.000113314
-4.83912e-05
0.000108
-4.77645e-05
0.000102289
-4.57957e-05
9.643e-05
-4.23757e-05
9.06758e-05
-3.74182e-05
8.52896e-05
-3.08709e-05
8.05493e-05
-2.27291e-05
7.67505e-05
-1.30514e-05
7.42042e-05
-1.97612e-06
7.32306e-05
1.02638e-05
7.41476e-05
2.33262e-05
7.72668e-05
8.2881e-05
3.67532e-05
-9.53835e-07
1.99222e-05
-3.34189e-06
5.17611e-05
-6.76811e-06
7.67778e-05
-1.08931e-05
9.58711e-05
-1.5426e-05
0.000109883
-2.01169e-05
0.000119582
-2.47487e-05
0.000125648
-2.91294e-05
0.000128677
-3.30859e-05
0.000129186
-3.64576e-05
0.000127617
-3.90917e-05
0.000124352
-4.08391e-05
0.000119724
-4.15513e-05
0.000114026
-4.10793e-05
0.000107528
-3.92737e-05
0.000100483
-3.59865e-05
9.31429e-05
-3.10773e-05
8.57666e-05
-2.44211e-05
7.86334e-05
-1.59214e-05
7.20496e-05
-5.52734e-06
6.63565e-05
6.74439e-06
6.19325e-05
2.07848e-05
5.91902e-05
3.63656e-05
5.85667e-05
5.31114e-05
6.05211e-05
6.55157e-05
7.04767e-05
-9.33845e-07
2.08561e-05
-3.23135e-06
5.40586e-05
-6.47815e-06
8.00246e-05
-1.03247e-05
9.97176e-05
-1.44755e-05
0.000114034
-1.86799e-05
0.000123786
-2.27227e-05
0.000129691
-2.64156e-05
0.00013237
-2.95896e-05
0.00013236
-3.20886e-05
0.000130116
-3.37635e-05
0.000126027
-3.44671e-05
0.000120427
-3.40505e-05
0.00011361
-3.23598e-05
0.000105838
-2.92352e-05
9.73587e-05
-2.4511e-05
8.84187e-05
-1.80198e-05
7.92754e-05
-9.59975e-06
7.02133e-05
8.92564e-07
6.15573e-05
1.35625e-05
5.36865e-05
2.84502e-05
4.70448e-05
4.54951e-05
4.21453e-05
6.44943e-05
3.95675e-05
8.50534e-05
3.9962e-05
4.40329e-05
0.000106536
-9.07179e-07
2.17632e-05
-3.09156e-06
5.6243e-05
-6.11766e-06
8.30507e-05
-9.6232e-06
0.000103223
-1.33061e-05
0.000117717
-1.69134e-05
0.000127393
-2.02307e-05
0.000133008
-2.30731e-05
0.000135213
-2.52766e-05
0.000134563
-2.66912e-05
0.00013153
-2.71744e-05
0.00012651
-2.65859e-05
0.000119839
-2.47825e-05
0.000111806
-2.16138e-05
0.000102669
-1.69192e-05
9.26641e-05
-1.05261e-05
8.20255e-05
-2.25061e-06
7.1e-05
8.09749e-06
5.98652e-05
2.07043e-05
4.89505e-05
3.57325e-05
3.86583e-05
5.32902e-05
2.94871e-05
7.33867e-05
2.20487e-05
9.58728e-05
1.70814e-05
0.000120361
1.54733e-05
1.82605e-05
0.000146134
-8.72166e-07
2.26354e-05
-2.91578e-06
5.82866e-05
-5.67081e-06
8.58058e-05
-8.75892e-06
0.000106311
-1.18682e-05
0.000120826
-1.47407e-05
0.000130266
-1.71605e-05
0.000135428
-1.89441e-05
0.000136996
-1.99313e-05
0.000135551
-1.99783e-05
0.000131577
-1.89507e-05
0.000125482
-1.67185e-05
0.000117606
-1.31496e-05
0.000108237
-8.10597e-06
9.76253e-05
-1.43775e-06
8.59959e-05
7.02025e-06
7.35675e-05
1.74515e-05
6.05687e-05
3.00576e-05
4.72592e-05
4.50523e-05
3.39557e-05
6.2647e-05
2.10636e-05
8.30208e-05
9.11337e-06
0.00010627
-1.20053e-06
0.000132332
-8.98076e-06
0.00016087
-1.30644e-05
-1.19789e-05
0.000191109
-8.27487e-07
2.34629e-05
-2.69817e-06
6.01573e-05
-5.12329e-06
8.82309e-05
-7.7041e-06
0.000108892
-1.01146e-05
0.000123237
-1.20874e-05
0.000132239
-1.34013e-05
0.000136742
-1.38701e-05
0.000137465
-1.33344e-05
0.000135015
-1.16537e-05
0.000129896
-8.70073e-06
0.000122529
-4.35601e-06
0.000113262
1.49743e-06
0.000102384
8.97901e-06
9.01437e-05
1.82162e-05
7.67587e-05
2.93502e-05
6.24334e-05
4.25426e-05
4.73763e-05
5.79799e-05
3.18219e-05
7.58755e-05
1.60601e-05
9.64642e-05
4.74945e-07
0.000119981
-1.4403e-05
0.000146612
-2.78322e-05
0.000176414
-3.87823e-05
0.000209155
-4.58052e-05
-4.68886e-05
0.000244064
-7.72259e-07
2.42352e-05
-2.43414e-06
6.18192e-05
-4.46296e-06
9.02597e-05
-6.43418e-06
0.000110863
-8.00222e-06
0.000124805
-8.8848e-06
0.000133121
-8.84922e-06
0.000136706
-7.70108e-06
0.000136317
-5.27543e-06
0.000132589
-1.42989e-06
0.000126051
3.96063e-06
0.000117139
1.10082e-05
0.000106214
1.98158e-05
9.35764e-05
3.04812e-05
7.94783e-05
4.31015e-05
6.41384e-05
5.77795e-05
4.77555e-05
7.46311e-05
3.05247e-05
9.37951e-05
1.26579e-05
0.000115443
-5.58798e-06
0.000139787
-2.38688e-05
0.000167074
-4.16901e-05
0.000197559
-5.83167e-05
0.000231424
-7.26478e-05
0.00026861
-8.29911e-05
-8.67312e-05
0.000308453
-7.06018e-07
2.49412e-05
-2.12024e-06
6.32334e-05
-3.6798e-06
9.18193e-05
-4.92804e-06
0.000112112
-5.49328e-06
0.00012537
-5.07139e-06
0.000132699
-3.41088e-06
0.000135046
-3.01087e-07
0.000133207
4.43671e-06
0.000127851
1.09555e-05
0.000119532
1.93868e-05
0.000108708
2.98431e-05
9.57578e-05
4.242e-05
8.09996e-05
5.71969e-05
6.47014e-05
7.42401e-05
4.70953e-05
9.36052e-05
2.83903e-05
0.000115344
8.78557e-06
0.000139516
-1.15138e-05
0.000166201
-3.22726e-05
0.000195521
-5.31888e-05
0.000227659
-7.38288e-05
0.000262866
-9.35231e-05
0.000301418
-0.0001112
0.000343473
-0.000125046
-0.00013188
0.000388622
-6.28586e-07
2.55698e-05
-1.75381e-06
6.43586e-05
-2.7653e-06
9.28308e-05
-3.16715e-06
0.000112513
-2.55422e-06
0.000124757
-5.92684e-07
0.000130738
2.99629e-06
0.000131457
8.44906e-06
0.000127754
1.59684e-05
0.000120332
2.5729e-05
0.000109771
3.78807e-05
9.65558e-05
5.2549e-05
8.10895e-05
6.9834e-05
6.37146e-05
8.9809e-05
4.47264e-05
0.000112518
2.43867e-05
0.000137973
2.9354e-06
0.000166156
-1.93981e-05
0.000197026
-4.23837e-05
0.000230528
-6.57746e-05
0.000266621
-8.92816e-05
0.000305315
-0.000112523
0.000346722
-0.00013493
0.000391093
-0.000155571
0.00043878
-0.000172733
-0.000182875
0.000489775
-5.39812e-07
2.61096e-05
-1.33218e-06
6.5151e-05
-1.71097e-06
9.32095e-05
-1.13337e-06
0.000111936
8.47042e-07
0.000122777
4.60217e-06
0.000126983
1.04473e-05
0.000125611
1.86547e-05
0.000119547
2.94622e-05
0.000109525
4.30789e-05
9.61547e-05
5.96865e-05
7.99482e-05
7.94388e-05
6.13372e-05
0.000102458
4.06954e-05
0.000128829
1.83552e-05
0.000158593
-5.37758e-06
0.000191739
-3.02106e-05
0.000228195
-5.58542e-05
0.000267823
-8.20113e-05
0.000310417
-0.000108369
0.000355719
-0.000134583
0.000403453
-0.000160258
0.000453405
-0.000184881
0.00050554
-0.000207707
0.000560186
-0.000227379
-0.00024054
0.000617851
-4.39221e-07
2.65488e-05
-8.51614e-07
6.55634e-05
-5.06399e-07
9.28643e-05
1.19407e-06
0.000110235
4.74543e-06
0.000119226
1.0566e-05
0.000121162
1.90166e-05
0.000117161
3.04151e-05
0.000108149
4.50453e-05
9.48943e-05
6.31623e-05
7.80377e-05
8.49934e-05
5.81171e-05
0.000110736
3.55946e-05
0.000140553
1.08788e-05
0.000174563
-1.5655e-05
0.000212833
-4.36476e-05
0.000255361
-7.27389e-05
0.000302061
-0.000102554
0.000352741
-0.000132691
0.00040708
-0.000162707
0.000464608
-0.000192111
0.000524704
-0.000220354
0.000586638
-0.000246815
0.000649713
-0.000270781
0.00071365
-0.000291316
-0.000306633
0.000779744
-3.25625e-07
2.68744e-05
-3.06142e-07
6.55439e-05
8.63012e-07
9.16952e-05
3.84216e-06
0.000107256
9.18378e-06
0.000113884
1.73605e-05
0.000112986
2.87867e-05
0.000105735
4.38342e-05
9.31011e-05
6.28416e-05
7.58869e-05
8.61191e-05
5.47602e-05
0.000113949
3.02868e-05
0.000146585
2.95887e-06
0.000184244
-2.67796e-05
0.000227099
-5.85104e-05
0.000275271
-9.18201e-05
0.000328813
-0.00012628
0.000387686
-0.000161427
0.000451735
-0.00019674
0.000520642
-0.000231615
0.000593863
-0.000265332
0.000670538
-0.00029703
0.000749404
-0.000325681
0.00082873
-0.000350106
0.00090669
-0.000369276
-0.000385372
0.000985429
-1.96756e-07
2.70712e-05
3.1352e-07
6.50336e-05
2.41809e-06
8.95906e-05
6.84732e-06
0.000102827
1.42175e-05
0.000106514
2.50624e-05
0.000102141
3.98564e-05
9.09406e-05
5.90311e-05
7.39264e-05
8.29847e-05
5.19333e-05
0.000112086
2.56586e-05
0.000146677
-4.30347e-06
0.000187065
-3.743e-05
0.000233528
-7.32426e-05
0.000286301
-0.000111283
0.000345576
-0.000151094
0.000411492
-0.000192197
0.000484135
-0.000234071
0.000563524
-0.000276129
0.00064959
-0.000317681
0.000742138
-0.00035788
0.000840745
-0.000395636
0.000944537
-0.000429473
0.00105154
-0.000457105
0.00115683
-0.000474568
-0.000476803
0.00124826
-4.95224e-08
2.71207e-05
1.01987e-06
6.39642e-05
4.18622e-06
8.64243e-05
1.02565e-05
9.67567e-05
1.99168e-05
9.68534e-05
3.3767e-05
8.82905e-05
5.23455e-05
7.2362e-05
7.61458e-05
5.0126e-05
0.000105625
2.24543e-05
0.000141206
-9.92298e-06
0.000183281
-4.63778e-05
0.000232202
-8.63515e-05
0.000288287
-0.000129327
0.00035181
-0.000174806
0.000423009
-0.000222294
0.000502095
-0.000271283
0.000589267
-0.000321242
0.000684751
-0.000371613
0.000788868
-0.000421797
0.000902149
-0.000471162
0.00102555
-0.000519039
0.00116081
-0.00056473
0.00131126
-0.000607559
0.00148434
-0.000647643
-0.000689299
0.00169684
1.21875e-07
2.69988e-05
1.83186e-06
6.22543e-05
6.20533e-06
8.20508e-05
1.41312e-05
8.88308e-05
2.63699e-05
8.46147e-05
4.35904e-05
7.107e-05
6.6396e-05
4.95565e-05
9.53389e-05
2.11831e-05
0.000130927
-1.31341e-05
0.000173626
-5.26212e-05
0.000223852
-9.66041e-05
0.000281974
-0.000144473
0.000348304
-0.000195657
0.000423101
-0.000249603
0.000506573
-0.000305765
0.000598887
-0.000363597
0.0007002
-0.000422555
0.00081069
-0.000482103
0.000930628
-0.000541736
0.00106047
-0.000601003
0.00120099
-0.000659562
0.00135349
-0.00071723
0.00152001
-0.000774073
0.00170299
-0.000830625
-0.000886159
0.00189985
3.23135e-07
2.66757e-05
2.76974e-06
5.98077e-05
8.51703e-06
7.63035e-05
1.85395e-05
7.88083e-05
3.36741e-05
6.94801e-05
5.46593e-05
5.00848e-05
8.21594e-05
2.20564e-05
0.000116777
-1.34341e-05
0.000159054
-5.54115e-05
0.000209472
-0.000103039
0.000268442
-0.000155574
0.000336298
-0.000212329
0.000413289
-0.000272648
0.000499578
-0.000335892
0.000595244
-0.000401431
0.00070029
-0.000468644
0.000814665
-0.000536929
0.000938284
-0.000605723
0.00107107
-0.000674523
0.00121299
-0.000742924
0.00136409
-0.000810662
0.00152451
-0.000877653
0.00169442
-0.00094398
0.00187348
-0.00100968
-0.00107145
0.00205877
5.61342e-07
2.61144e-05
3.85709e-06
5.65119e-05
1.1168e-05
6.89926e-05
2.35554e-05
6.6421e-05
4.19324e-05
5.11031e-05
6.71031e-05
2.49141e-05
9.97836e-05
-1.06241e-05
0.00014061
-5.42603e-05
0.000190134
-0.000104936
0.000248818
-0.000161724
0.000317018
-0.000223774
0.000394974
-0.000290284
0.0004828
-0.000360474
0.000580479
-0.000433572
0.000687867
-0.000508819
0.000804695
-0.000585472
0.00093059
-0.000662824
0.00106509
-0.00074022
0.00120765
-0.000817088
0.0013577
-0.000892966
0.00151456
-0.000967531
0.00167752
-0.00104061
0.00184567
-0.00111213
0.00201776
-0.00118177
-0.00124545
0.00219176
8.43963e-07
2.52704e-05
5.11823e-06
5.22377e-05
1.42055e-05
5.99053e-05
2.92519e-05
5.13745e-05
5.12427e-05
2.91123e-05
8.10382e-05
-4.88138e-06
0.00011939
-4.89763e-05
0.000166943
-0.000101813
0.000224224
-0.000162217
0.000291626
-0.000229125
0.000369391
-0.000301539
0.000457597
-0.00037849
0.000556145
-0.000459022
0.000664756
-0.000542183
0.000782978
-0.000627041
0.000910194
-0.000712689
0.00104565
-0.000798275
0.00118845
-0.000883023
0.00133762
-0.000966256
0.00149207
-0.00104742
0.00165066
-0.00112611
0.0018121
-0.00120205
0.00197502
-0.00127505
0.00213791
-0.00134466
-0.00140695
0.00229941
1.17829e-06
2.40921e-05
6.57637e-06
4.68396e-05
1.76731e-05
4.88086e-05
3.56938e-05
3.33538e-05
6.16861e-05
3.12e-06
9.65511e-05
-3.97464e-05
0.000141052
-9.34769e-05
0.000195805
-0.000156566
0.000261263
-0.000227675
0.000337693
-0.000305555
0.000425155
-0.000389001
0.000523487
-0.000476823
0.0006323
-0.000567835
0.00075098
-0.000660863
0.000878705
-0.000754765
0.00101447
-0.00084845
0.0011571
-0.000940913
0.00130534
-0.00103126
0.0014578
-0.00111872
0.00161307
-0.0012027
0.00176968
-0.00128273
0.00192614
-0.00135851
0.00208095
-0.00142985
0.00223266
-0.00149638
-0.00155476
0.00238047
1.57089e-06
2.25212e-05
8.25171e-06
4.01587e-05
2.16072e-05
3.54531e-05
4.29307e-05
1.20303e-05
7.33167e-05
-2.72659e-05
0.000113683
-8.01124e-05
0.000164768
-0.000144562
0.000227113
-0.000218912
0.00030104
-0.000301601
0.000386618
-0.000391133
0.000483648
-0.000486032
0.000591654
-0.000584829
0.000709885
-0.000686066
0.000837335
-0.000788314
0.00097278
-0.000890209
0.00111481
-0.000990486
0.00126191
-0.00108801
0.00141247
-0.00118181
0.00156485
-0.00127111
0.00171746
-0.0013553
0.00186873
-0.001434
0.00201718
-0.00150696
0.00216144
-0.00157411
0.00230033
-0.00163526
-0.00168789
0.00243346
2.02717e-06
2.0494e-05
1.01599e-05
3.2026e-05
2.60331e-05
1.95799e-05
5.09911e-05
-1.29277e-05
8.61515e-05
-6.24263e-05
0.000132415
-0.000126375
0.000190449
-0.000202596
0.000260663
-0.000289126
0.000343173
-0.000384111
0.000437775
-0.000485736
0.000543937
-0.000592193
0.000660795
-0.000701687
0.000787184
-0.000812455
0.000921679
-0.000922809
0.00106265
-0.00103118
0.00120835
-0.00113618
0.00135694
-0.0012366
0.00150662
-0.00133149
0.00165564
-0.00142013
0.00180239
-0.00150205
0.0019454
-0.00157701
0.00208339
-0.00164495
0.00221528
-0.001706
0.00234027
-0.00176024
-0.001806
0.00245837
2.55108e-06
1.7943e-05
1.23107e-05
2.22664e-05
3.09627e-05
9.27964e-07
5.98779e-05
-4.18429e-05
0.000100164
-0.000102713
0.000152661
-0.000178872
0.000217907
-0.000267842
0.000296108
-0.000367327
0.000387098
-0.000475101
0.000490322
-0.00058896
0.000604839
-0.00070671
0.000729348
-0.000826195
0.00086224
-0.000945347
0.00100168
-0.00106225
0.00114568
-0.00117518
0.0012922
-0.00128271
0.00143927
-0.00138366
0.00158498
-0.00147721
0.00172766
-0.00156281
0.00186583
-0.00164022
0.00199829
-0.00170946
0.00212408
-0.00177074
0.00224253
-0.00182445
0.00235324
-0.00187096
-0.00190937
0.00245662
3.14495e-06
1.4798e-05
1.47077e-05
1.07036e-05
3.63927e-05
-2.0757e-05
6.95652e-05
-7.50155e-05
0.000115281
-0.000148429
0.000174261
-0.000237852
0.000246848
-0.00034043
0.000332965
-0.000453443
0.000432082
-0.000574219
0.00054322
-0.000700098
0.000664972
-0.000828462
0.00079557
-0.000956793
0.000932974
-0.00108275
0.00107498
-0.00120425
0.00121933
-0.00131954
0.00136384
-0.00142722
0.00150649
-0.00152631
0.00164549
-0.0016162
0.00177934
-0.00169666
0.00190687
-0.00176776
0.00202724
-0.00182982
0.00213989
-0.0018834
0.00224459
-0.00192915
0.00234136
-0.00196774
-0.00199889
0.00243089
3.80945e-06
1.09886e-05
1.73475e-05
-2.83448e-06
4.2304e-05
-4.57135e-05
7.99976e-05
-0.000112709
0.000131379
-0.00019981
0.000196983
-0.000303456
0.000276879
-0.000420325
0.000370622
-0.000547187
0.000477245
-0.000680842
0.00059528
-0.000818132
0.000722825
-0.000956007
0.000857653
-0.00109162
0.000997337
-0.00122244
0.0011394
-0.00134631
0.00128144
-0.00146157
0.00142126
-0.00156704
0.00155696
-0.00166201
0.00168699
-0.00174624
0.00181018
-0.00181986
0.00192575
-0.00188333
0.00203327
-0.00193734
0.00213263
-0.00198275
0.00222396
-0.00202048
0.00230767
-0.00205145
-0.00207587
0.00238465
4.54362e-06
6.44495e-06
2.02199e-05
-1.85107e-05
4.86614e-05
-7.4155e-05
9.1089e-05
-0.000155137
0.000148284
-0.000257005
0.000220523
-0.000375695
0.000307512
-0.000507314
0.000408361
-0.000648037
0.000521597
-0.000794077
0.000645226
-0.000941761
0.000776854
-0.00108764
0.000913838
-0.00122861
0.00105346
-0.00136206
0.00119309
-0.00148594
0.00133033
-0.00159881
0.00146312
-0.00169984
0.00158984
-0.00178873
0.00170929
-0.00186568
0.00182071
-0.00193128
0.00192375
-0.00198637
0.0020184
-0.00203199
0.00210492
-0.00206927
0.00218381
-0.00209937
0.00225572
-0.00212335
-0.00214183
0.00232168
5.34484e-06
1.10011e-06
2.33077e-05
-3.64736e-05
5.54132e-05
-0.00010626
0.000102724
-0.000202448
0.00016578
-0.000320061
0.000244511
-0.000454426
0.000338182
-0.000600985
0.000445382
-0.000755236
0.000564083
-0.000912779
0.000691762
-0.00106944
0.000825573
-0.00122145
0.000962546
-0.00136558
0.00109979
-0.0014993
0.00123468
-0.00162083
0.00136497
-0.0017291
0.00148889
-0.00182376
0.00160519
-0.00190503
0.00171311
-0.0019736
0.00181232
-0.0020305
0.00190291
-0.00207696
0.00198523
-0.00211431
0.00205987
-0.00214391
0.00212756
-0.00216706
0.00218912
-0.00218491
-0.00219832
0.0022456
6.2089e-06
-5.10879e-06
2.65872e-05
-5.6852e-05
6.24921e-05
-0.000142165
0.000114759
-0.000254715
0.000183605
-0.000388906
0.000268528
-0.000539349
0.000368268
-0.000700726
0.000480839
-0.000867807
0.000603642
-0.00103558
0.000733653
-0.00119945
0.000867654
-0.00135545
0.00100247
-0.0015004
0.0011352
-0.00163203
0.00126335
-0.00174898
0.00138499
-0.00185074
0.00149874
-0.00193751
0.0016038
-0.00201008
0.00169985
-0.00206966
0.00178703
-0.00211767
0.00186576
-0.00215568
0.0019367
-0.00218526
0.00200068
-0.00220789
0.00205854
-0.00222492
0.00211121
-0.00223757
-0.0022468
0.00215969
7.12989e-06
-1.22387e-05
3.00277e-05
-7.97497e-05
6.98156e-05
-0.000181953
0.000127025
-0.000311924
0.000201461
-0.000463343
0.000292108
-0.000629996
0.000397113
-0.000805731
0.000513882
-0.000984576
0.00063926
-0.00116096
0.000769794
-0.00132999
0.00090201
-0.00148766
0.00103268
-0.00163106
0.00115902
-0.00175837
0.00127886
-0.00186882
0.00139065
-0.00196253
0.00149348
-0.00204035
0.00158703
-0.00210364
0.00167143
-0.00215405
0.00174717
-0.0021934
0.00181497
-0.00222349
0.00187571
-0.002246
0.00193033
-0.00226251
0.00197976
-0.00227435
0.00202489
-0.0022827
-0.00228857
0.00206665
8.10015e-06
-2.03388e-05
3.35915e-05
-0.000105241
7.72867e-05
-0.000225648
0.000139328
-0.000373966
0.000219024
-0.000543039
0.000314764
-0.000725736
0.000424057
-0.000915024
0.000543696
-0.00110422
0.000670029
-0.00128729
0.000799274
-0.00145923
0.000927845
-0.00161623
0.00105261
-0.00175583
0.00117107
-0.00187684
0.00128146
-0.0019792
0.00138271
-0.00206377
0.0014744
-0.00213204
0.00155665
-0.00218589
0.00162998
-0.00222738
0.00169518
-0.0022586
0.00175317
-0.00228148
0.00180495
-0.00229779
0.00185151
-0.00230906
0.00189375
-0.0023166
0.00193253
-0.00232148
-0.00232468
0.00196865
9.11019e-06
-2.9449e-05
3.72348e-05
-0.000133366
8.47956e-05
-0.000273209
0.000151459
-0.000440629
0.00023595
-0.00062753
0.000336002
-0.000825787
0.000448462
-0.00102748
0.000569546
-0.0012253
0.00069519
-0.00141294
0.000821421
-0.00158546
0.000944694
-0.00173951
0.00106212
-0.00187326
0.00117161
-0.00198633
0.00127187
-0.00207946
0.00136234
-0.00215424
0.00144308
-0.00221277
0.00151459
-0.0022574
0.0015777
-0.00229049
0.0016334
-0.00231429
0.00168274
-0.00233082
0.00172676
-0.00234181
0.00176643
-0.00234873
0.00180259
-0.00235276
0.00183599
-0.00235489
-0.00235601
0.00186732
1.01487e-05
-3.95978e-05
4.09077e-05
-0.000164125
9.22217e-05
-0.000324523
0.000163193
-0.0005116
0.000251889
-0.000716226
0.000355342
-0.00092924
0.000469746
-0.00114189
0.000590809
-0.00134636
0.000714174
-0.0015363
0.000835829
-0.00170712
0.000952419
-0.0018561
0.00106143
-0.00198227
0.00116126
-0.00208616
0.00125113
-0.00216933
0.00133096
-0.00223408
0.00140124
-0.00228305
0.00146279
-0.00231895
0.00151666
-0.00234436
0.00156395
-0.00236158
0.00160576
-0.00237263
0.0016431
-0.00237916
0.00167688
-0.0023825
0.00170785
-0.00238373
0.00173667
-0.00238371
-0.00238323
0.00176389
1.12027e-05
-5.08005e-05
4.45548e-05
-0.000197477
9.94365e-05
-0.000379405
0.000174302
-0.000586465
0.000266498
-0.000808422
0.00037234
-0.00103508
0.000487409
-0.00125696
0.000607005
-0.00146596
0.000726621
-0.00165592
0.000842355
-0.00182285
0.000951183
-0.00196492
0.00105106
-0.00208215
0.00114091
-0.002176
0.00122046
-0.00224888
0.00129009
-0.00230371
0.00135062
-0.00234358
0.00140311
-0.00237145
0.00144874
-0.00238998
0.00148866
-0.0024015
0.00152394
-0.00240792
0.00155554
-0.00241076
0.00158426
-0.00241122
0.00161077
-0.00241024
0.00163561
-0.00240854
-0.00240681
0.0016592
1.22575e-05
-6.30579e-05
4.81169e-05
-0.000233336
0.000106307
-0.000437595
0.000184559
-0.000664717
0.000279455
-0.000903319
0.000386605
-0.00114223
0.000501052
-0.0013714
0.000617812
-0.00158272
0.000732378
-0.00177048
0.000841106
-0.00193158
0.000941404
-0.00206522
0.00103176
-0.00217251
0.00111162
-0.00225586
0.0011812
-0.00231846
0.00124126
-0.00236377
0.00129285
-0.00239518
0.00133721
-0.00241581
0.00137556
-0.00242833
0.00140905
-0.00243499
0.00143867
-0.00243754
0.0014653
-0.00243738
0.00148963
-0.00243555
0.00151223
-0.00243284
0.00153353
-0.00242984
-0.00242714
0.00155386
1.32971e-05
-7.63551e-05
5.15324e-05
-0.000271572
0.000112701
-0.000498764
0.000193747
-0.000745763
0.000290472
-0.00100004
0.000397817
-0.00124958
0.000510393
-0.00148398
0.000623072
-0.0016954
0.000731496
-0.00187891
0.000832397
-0.00203248
0.000923697
-0.00215652
0.00100443
-0.00225325
0.00107456
-0.00232599
0.0011347
-0.0023786
0.0011859
-0.00241497
0.00122942
-0.0024387
0.00126654
-0.00245293
0.00129849
-0.00246028
0.00132635
-0.00246284
0.00135104
-0.00246223
0.00137331
-0.00245965
0.00139376
-0.002456
0.00141286
-0.00245193
0.00143095
-0.00244793
-0.00244447
0.00144828
1.43049e-05
-9.06599e-05
5.47389e-05
-0.000312006
0.000118489
-0.000562514
0.000201669
-0.000828942
0.000299303
-0.00109768
0.000405738
-0.00135601
0.000515273
-0.00159351
0.000622784
-0.00180291
0.000724198
-0.00198032
0.000816717
-0.002125
0.000898815
-0.00223862
0.000970068
-0.0023245
0.00103088
-0.00238681
0.00108223
-0.00242995
0.00112536
-0.0024581
0.00116162
-0.00247496
0.00119232
-0.00248363
0.00121863
-0.00248659
0.00124154
-0.00248576
0.00126187
-0.00248256
0.00128027
-0.00247805
0.00129722
-0.00247296
0.00131312
-0.00246783
0.00132823
-0.00246305
-0.00245898
0.00134274
1.52633e-05
-0.000105923
5.76749e-05
-0.000354417
0.000123553
-0.000628392
0.000208152
-0.000913541
0.000305756
-0.00119528
0.000410215
-0.00146047
0.000515651
-0.00169895
0.000617089
-0.00190435
0.00071085
-0.00207408
0.000794671
-0.00220882
0.000867587
-0.00231154
0.000929671
-0.00238658
0.000981721
-0.00243886
0.00102496
-0.00247318
0.00106077
-0.00249391
0.00109055
-0.00250474
0.00111555
-0.00250863
0.00113686
-0.00250791
0.00115538
-0.00250427
0.0011718
-0.00249899
0.00118668
-0.00249293
0.00120043
-0.0024867
0.00121334
-0.00248074
0.00122563