/*--------------------------------*- C++ -*----------------------------------*\
  =========                 |
  \\      /  F ield         | OpenFOAM: The Open Source CFD Toolbox
   \\    /   O peration     | Website:  https://openfoam.org
    \\  /    A nd           | Version:  6.0
     \\/     M anipulation  |
\*---------------------------------------------------------------------------*/
FoamFile
{
    version     2.0;
    format      ascii;
    class       volVectorField;
    location    "85";
    object      U;
}
// * * * * * * * * * * * * * * * * * * * * * * * * * * * * * * * * * * * * * //

dimensions      [0 1 -1 0 0 0 0];

internalField   nonuniform List<vector> 
12500
(
(0.00055727 -0.053181 -1.14579e-21)
(0.000105301 -0.128854 1.46105e-20)
(-0.00280953 -0.180473 -2.10598e-20)
(-0.00754906 -0.213154 9.63949e-21)
(-0.0135856 -0.231295 6.13661e-22)
(-0.020476 -0.238599 -1.24931e-21)
(-0.0278138 -0.238058 -1.74806e-20)
(-0.0352522 -0.231993 9.60956e-21)
(-0.0425089 -0.222136 6.27355e-21)
(-0.049358 -0.209718 6.43588e-21)
(-0.0556197 -0.19557 -1.08877e-20)
(-0.061153 -0.180213 6.35885e-21)
(-0.0658487 -0.163944 -2.99553e-21)
(-0.0696264 -0.146903 5.05704e-21)
(-0.0724335 -0.12913 -1.29831e-20)
(-0.0742455 -0.110612 1.89934e-20)
(-0.0750683 -0.0913175 -3.70329e-21)
(-0.0749411 -0.07122 -1.33204e-20)
(-0.0739402 -0.0503212 6.71817e-21)
(-0.0721778 -0.0286618 -6.43633e-21)
(-0.0697813 -0.00633017 5.83642e-21)
(-0.0669011 0.0165351 7.898e-21)
(-0.0639264 0.0397455 7.4961e-22)
(-0.0615936 0.063086 -2.23197e-20)
(-0.0587469 0.0863899 1.17239e-20)
(0.0020513 -0.0522185 1.87267e-20)
(0.00337019 -0.126044 -4.87859e-20)
(0.0011397 -0.176047 1.45504e-20)
(-0.00357792 -0.207413 9.59428e-21)
(-0.0099972 -0.224577 -7.67658e-21)
(-0.0175105 -0.231239 -4.31613e-20)
(-0.0255979 -0.230367 1.28771e-20)
(-0.0338395 -0.224253 -2.40931e-20)
(-0.0419095 -0.214594 2.89476e-20)
(-0.0495585 -0.202594 -3.86984e-20)
(-0.0565965 -0.189058 2.08603e-20)
(-0.0628801 -0.174487 6.49474e-21)
(-0.068302 -0.159159 -1.69538e-20)
(-0.0727853 -0.143191 -7.70328e-21)
(-0.0762809 -0.126599 5.49496e-20)
(-0.0787676 -0.109336 -4.85675e-20)
(-0.0802535 -0.091331 1.14399e-20)
(-0.0807796 -0.0725096 2.00732e-20)
(-0.080424 -0.0528162 -5.02511e-21)
(-0.0793017 -0.0322285 3.29873e-20)
(-0.0775458 -0.0107683 5.77502e-21)
(-0.0753163 0.0114895 -1.64584e-21)
(-0.0730008 0.0344052 -4.10075e-20)
(-0.0713095 0.057791 3.80574e-20)
(-0.0691895 0.08153 -7.15972e-20)
(0.00347489 -0.0509429 5.88503e-20)
(0.00647074 -0.122554 1.99498e-20)
(0.00489873 -0.170773 -2.54614e-20)
(0.000227613 -0.200787 1.06902e-20)
(-0.00650965 -0.217013 1.05884e-20)
(-0.0145481 -0.223117 3.92723e-20)
(-0.0232605 -0.222017 -4.95236e-20)
(-0.0321587 -0.215958 -7.57274e-21)
(-0.0408775 -0.206593 -3.29082e-20)
(-0.0491472 -0.195094 -2.76124e-20)
(-0.0567708 -0.182242 3.63693e-20)
(-0.0636051 -0.168518 -1.2014e-19)
(-0.0695477 -0.15418 -3.32976e-21)
(-0.0745281 -0.13933 -7.18421e-20)
(-0.0785035 -0.12396 -8.43516e-21)
(-0.081458 -0.107997 1.0562e-20)
(-0.0834034 -0.0913313 -5.54711e-20)
(-0.0843828 -0.0738415 -3.46375e-20)
(-0.0844749 -0.0554153 -4.14391e-20)
(-0.0837951 -0.0359654 6.53236e-20)
(-0.0824792 -0.0154424 2.42115e-20)
(-0.0806919 0.00614927 -1.04057e-19)
(-0.0788116 0.0287287 -5.04564e-20)
(-0.0775196 0.0521463 -5.54554e-20)
(-0.0758966 0.0763366 1.5161e-19)
(0.00480368 -0.049383 -2.61846e-21)
(0.00935196 -0.118455 -4.54315e-20)
(0.00839243 -0.164749 -2.05164e-20)
(0.00377804 -0.193389 1.2455e-20)
(-0.00322433 -0.20873 8.27024e-20)
(-0.0117014 -0.214364 -3.79363e-20)
(-0.0209258 -0.213141 7.94889e-20)
(-0.0303466 -0.207239 7.51213e-20)
(-0.0395624 -0.198264 4.60661e-20)
(-0.0482865 -0.187348 -1.058e-21)
(-0.0563169 -0.175245 9.26321e-20)
(-0.0635133 -0.162417 1.57773e-20)
(-0.0697804 -0.149109 7.0454e-20)
(-0.0750568 -0.135407 1.61075e-19)
(-0.0793087 -0.121288 -1.86704e-19)
(-0.082528 -0.106652 2.79897e-19)
(-0.0847325 -0.0913592 6.08355e-20)
(-0.0859689 -0.0752449 -1.3267e-19)
(-0.0863175 -0.058143 -1.93707e-20)
(-0.0858936 -0.0399017 4.94867e-20)
(-0.0848344 -0.0203993 -2.35498e-20)
(-0.0833067 0.000436321 -1.3095e-20)
(-0.0816736 0.0225939 -1.3292e-20)
(-0.0805847 0.0459785 -5.51508e-20)
(-0.0792822 0.0705827 1.97252e-19)
(0.00601554 -0.0475669 2.92476e-20)
(0.0119629 -0.113814 -1.38135e-19)
(0.0115487 -0.158067 1.66529e-19)
(0.00698472 -0.185327 -6.68927e-20)
(-0.000244446 -0.19984 7.86877e-20)
(-0.00908791 -0.205099 6.32808e-20)
(-0.0187262 -0.203858 2.40005e-20)
(-0.0285506 -0.19822 -2.09445e-22)
(-0.0381278 -0.189729 1.35866e-19)
(-0.0471561 -0.179476 9.31646e-20)
(-0.0554304 -0.168186 -3.89879e-20)
(-0.0628147 -0.156302 -2.48551e-20)
(-0.0692227 -0.144057 1.01341e-19)
(-0.0746039 -0.131525 1.93286e-20)
(-0.078936 -0.11867 5.06849e-20)
(-0.0822216 -0.105376 1.23647e-19)
(-0.0844873 -0.0914736 -1.09002e-19)
(-0.0857864 -0.0767635 8.88693e-20)
(-0.0862032 -0.0610309 -1.86084e-19)
(-0.0858549 -0.0440637 1.56112e-19)
(-0.0848822 -0.0256684 5.79343e-22)
(-0.0834544 -0.00569396 -1.21761e-19)
(-0.0819154 0.0159286 5.11898e-20)
(-0.0808811 0.0391768 1.12999e-19)
(-0.0797829 0.0641137 -1.65592e-19)
(0.0070903 -0.0455203 1.48281e-19)
(0.0142562 -0.108692 -1.5755e-19)
(0.0142991 -0.15081 -2.68637e-20)
(0.00976168 -0.176697 3.1249e-20)
(0.00232826 -0.190449 -6.97055e-20)
(-0.00682496 -0.195428 -1.09537e-19)
(-0.0167951 -0.194278 -9.01044e-20)
(-0.0269219 -0.18901 -2.18457e-20)
(-0.0367432 -0.181102 -1.56426e-19)
(-0.0459445 -0.171594 1.20292e-19)
(-0.0543186 -0.161183 -1.91344e-19)
(-0.0617349 -0.150292 9.4964e-20)
(-0.0681166 -0.139141 -3.40695e-20)
(-0.0734253 -0.127798 7.40715e-20)
(-0.0776522 -0.116215 -1.85321e-19)
(-0.0808125 -0.104265 8.66236e-20)
(-0.0829449 -0.0917583 4.979e-21)
(-0.084113 -0.0784653 3.94109e-20)
(-0.084409 -0.0641301 2.3598e-19)
(-0.0839568 -0.0484864 4.95524e-20)
(-0.0829049 -0.0312732 -6.59458e-21)
(-0.0814297 -0.0122605 1.42782e-20)
(-0.0798557 0.00870826 9.71092e-20)
(-0.0787623 0.0317008 2.60209e-20)
(-0.0778015 0.0568616 8.73758e-20)
(0.0080094 -0.0432661 -9.26537e-20)
(0.0161884 -0.103144 1.31382e-19)
(0.0165797 -0.143052 7.74497e-21)
(0.0120281 -0.167582 -1.59602e-19)
(0.00439743 -0.180643 3.3113e-19)
(-0.00502446 -0.185443 -1.0825e-19)
(-0.0152611 -0.184493 1.55614e-19)
(-0.0256068 -0.179704 1.43499e-19)
(-0.0355745 -0.172478 -1.18985e-19)
(-0.0448386 -0.163804 -1.72285e-19)
(-0.0531905 -0.154342 4.66742e-20)
(-0.0605045 -0.144498 -4.88029e-20)
(-0.0667135 -0.134479 -2.17909e-19)
(-0.0717914 -0.124346 2.61012e-19)
(-0.0757428 -0.114045 -1.24787e-19)
(-0.0785978 -0.103439 -8.65257e-20)
(-0.0804092 -0.0923256 -1.39584e-21)
(-0.0812546 -0.0804502 6.70346e-20)
(-0.081239 -0.0675234 2.87807e-20)
(-0.0804988 -0.0532316 -1.12796e-19)
(-0.0791973 -0.0372528 1.2292e-19)
(-0.0775259 -0.019281 -2.19705e-19)
(-0.0757935 0.000931889 1.31468e-19)
(-0.0745404 0.0235581 -1.02666e-19)
(-0.0736722 0.0488288 2.8112e-20)
(0.00875556 -0.040824 1.28161e-19)
(0.0177193 -0.0972161 -9.88398e-20)
(0.0183325 -0.134856 -6.35621e-20)
(0.0137109 -0.158054 -1.1131e-19)
(0.00587662 -0.170499 -2.04619e-19)
(-0.00378658 -0.175218 -1.51848e-19)
(-0.0142393 -0.174579 9.25632e-20)
(-0.0247376 -0.170378 -1.40795e-19)
(-0.0347732 -0.163937 1.7934e-19)
(-0.0440112 -0.156188 -2.9087e-19)
(-0.0522419 -0.147755 1.28702e-19)
(-0.0593441 -0.13902 2.71909e-19)
(-0.0652589 -0.13018 -3.80043e-19)
(-0.0699713 -0.121288 5.36664e-20)
(-0.073499 -0.112288 6.90689e-20)
(-0.0758863 -0.103034 6.79208e-20)
(-0.0772019 -0.0933128 -7.46726e-20)
(-0.0775396 -0.0828522 -2.03511e-20)
(-0.0770216 -0.0713343 -5.09817e-20)
(-0.0758029 -0.0584049 -4.48306e-20)
(-0.0740703 -0.0436876 -2.34403e-19)
(-0.0720401 -0.0268057 -1.45972e-20)
(-0.0700125 -0.00741865 1.53318e-21)
(-0.0684877 0.01476 -1.06064e-19)
(-0.0676573 0.0400432 1.05774e-19)
(0.00931259 -0.0382107 2.6809e-21)
(0.0188129 -0.0909496 4.05917e-20)
(0.0195068 -0.126277 4.10851e-20)
(0.0147486 -0.148173 2.5666e-20)
(0.00669443 -0.160075 2.04224e-19)
(-0.00319282 -0.164811 1.90149e-19)
(-0.0138229 -0.164589 -1.55548e-19)
(-0.0244212 -0.161085 -4.52429e-20)
(-0.0344628 -0.155533 -4.14873e-20)
(-0.0436057 -0.148804 2.14719e-19)
(-0.0516391 -0.141484 7.5271e-20)
(-0.0584451 -0.133932 -1.12468e-19)
(-0.0639714 -0.126331 -9.30271e-20)
(-0.0682116 -0.118728 2.24825e-19)
(-0.0711944 -0.111062 -5.51162e-20)
(-0.0729766 -0.103183 -6.54579e-20)
(-0.0736418 -0.0948677 -9.18822e-20)
(-0.073301 -0.0858289 -7.01575e-20)
(-0.0720962 -0.0757236 -8.79063e-20)
(-0.070206 -0.0641613 -5.75954e-20)
(-0.0678485 -0.0507163 2.38881e-19)
(-0.0652761 -0.0349465 -1.15477e-19)
(-0.0627905 -0.0164203 7.73857e-20)
(-0.0608521 0.00526898 -2.02536e-19)
(-0.0599664 0.0304988 8.4203e-20)
(0.00966549 -0.0354411 -1.11304e-19)
(0.0194379 -0.0843806 -2.79534e-20)
(0.0200619 -0.117361 -2.26323e-19)
(0.0150948 -0.137989 -1.07057e-19)
(0.00680019 -0.14942 -2.1397e-19)
(-0.00329842 -0.154264 -2.23898e-20)
(-0.0140731 -0.15456 1.14578e-19)
(-0.0247273 -0.151855 -6.78619e-20)
(-0.0347249 -0.147292 1.49308e-19)
(-0.0437188 -0.141678 -3.60574e-19)
(-0.0514979 -0.135559 -9.53996e-21)
(-0.0579463 -0.129268 6.3538e-20)
(-0.0630159 -0.122978 -8.04427e-20)
(-0.0667063 -0.116727 7.21997e-20)
(-0.0690533 -0.11045 -5.3874e-20)
(-0.0701231 -0.103992 -1.14513e-19)
(-0.070011 -0.0971215 2.08543e-19)
(-0.0688437 -0.0895357 1.27438e-19)
(-0.066783 -0.0808673 -2.62846e-20)
(-0.0640335 -0.0706906 8.0899e-20)
(-0.0608509 -0.0585319 -1.60226e-19)
(-0.0575337 -0.0438869 2.29034e-19)
(-0.0543976 -0.0262332 -3.12023e-19)
(-0.0518669 -0.00504082 6.59815e-20)
(-0.0507817 0.0201062 -1.16979e-19)
(0.00980092 -0.03253 5.6644e-21)
(0.0195693 -0.0775438 -9.32622e-20)
(0.01997 -0.108153 1.43974e-19)
(0.0147226 -0.127546 2.94024e-19)
(0.00616974 -0.138571 -3.40048e-21)
(-0.00412488 -0.143606 3.30321e-20)
(-0.0150101 -0.144508 -1.24167e-19)
(-0.025677 -0.142694 5.99289e-20)
(-0.035584 -0.139209 3.99832e-19)
(-0.0443825 -0.134798 -9.10582e-20)
(-0.0518614 -0.129964 -1.05363e-19)
(-0.0579067 -0.125016 3.99749e-19)
(-0.062472 -0.120113 1.27092e-19)
(-0.0655595 -0.115288 6.02677e-20)
(-0.0672081 -0.110473 5.98648e-20)
(-0.0674888 -0.105507 1.67036e-19)
(-0.0665039 -0.10015 -6.42047e-20)
(-0.0643911 -0.0940832 1.62611e-19)
(-0.0613292 -0.0869132 2.19298e-19)
(-0.0575485 -0.078176 -1.8822e-19)
(-0.0533444 -0.0673474 2.74382e-19)
(-0.0490699 -0.0538578 9.22859e-20)
(-0.0450671 -0.0370907 -3.58657e-19)
(-0.0417347 -0.0163886 5.1087e-19)
(-0.040259 0.00867357 -4.08381e-19)
(0.00970801 -0.0294935 -2.67291e-19)
(0.0191905 -0.0704761 1.49881e-19)
(0.0192187 -0.0986958 -9.95117e-20)
(0.0136287 -0.116885 -9.62236e-20)
(0.00481085 -0.12756 -1.00641e-19)
(-0.00565313 -0.132852 -1.10729e-19)
(-0.016604 -0.134434 3.11228e-20)
(-0.0272312 -0.133584 2.86493e-19)
(-0.036994 -0.131251 -6.31874e-20)
(-0.045546 -0.128114 -1.59339e-19)
(-0.0526782 -0.124635 -9.53957e-20)
(-0.058278 -0.121101 -3.99175e-20)
(-0.0622994 -0.117658 1.09997e-19)
(-0.0647443 -0.114335 -7.32413e-20)
(-0.0656509 -0.111062 -2.35089e-19)
(-0.0650893 -0.107675 -2.54582e-19)
(-0.063163 -0.103927 1.00138e-19)
(-0.0600147 -0.0994822 -1.85498e-19)
(-0.0558343 -0.0939177 1.52816e-19)
(-0.0508732 -0.0867264 -4.37757e-19)
(-0.0454658 -0.0773257 3.29583e-19)
(-0.0400234 -0.0650717 -4.2952e-19)
(-0.0349275 -0.0492425 -5.9492e-21)
(-0.0305681 -0.0290422 -1.39483e-19)
(-0.0284837 -0.00406077 4.03227e-19)
(0.00937957 -0.0263517 4.06929e-19)
(0.0182958 -0.0632205 5.89854e-20)
(0.0178151 -0.0890398 -3.80351e-20)
(0.0118378 -0.106049 -1.74011e-20)
(0.00276765 -0.116417 3.08037e-19)
(-0.00781821 -0.122016 9.90408e-20)
(-0.0187688 -0.124328 8.8529e-20)
(-0.0292824 -0.124491 -7.21932e-20)
(-0.0388266 -0.123356 2.76543e-19)
(-0.0470616 -0.12154 -1.37631e-19)
(-0.0537828 -0.119464 8.91067e-20)
(-0.0588798 -0.117391 2.1864e-19)
(-0.0623067 -0.11546 -1.25334e-19)
(-0.0640632 -0.113698 1.30788e-19)
(-0.0641834 -0.112037 1.22217e-19)
(-0.0627324 -0.110316 4.25165e-20)
(-0.0598089 -0.108282 -1.00941e-19)
(-0.0555532 -0.105585 2.76342e-19)
(-0.0501587 -0.101773 -2.60219e-20)
(-0.043891 -0.0962888 -2.7671e-20)
(-0.037118 -0.0884823 3.13307e-19)
(-0.0303093 -0.0776188 -2.17575e-19)
(-0.0238971 -0.0628499 3.59839e-19)
(-0.0182862 -0.0432189 -2.9263e-19)
(-0.0153744 -0.0183376 3.67957e-19)
(0.00881353 -0.0231296 -1.91447e-19)
(0.016893 -0.0558295 4.13155e-20)
(0.015788 -0.0792437 -4.26721e-20)
(0.00940443 -0.0950919 -2.13358e-19)
(0.000123357 -0.105177 1.21124e-20)
(-0.0105065 -0.11111 1.18475e-19)
(-0.0213584 -0.114174 -4.87775e-19)
(-0.0316505 -0.115369 3.61639e-19)
(-0.040866 -0.115449 -3.52136e-19)
(-0.0486763 -0.114965 -2.22341e-19)
(-0.0548843 -0.1143 1.95381e-19)
(-0.0593834 -0.113699 -4.19113e-19)
(-0.0621288 -0.113294 3.49398e-19)
(-0.0631175 -0.113115 -1.12653e-19)
(-0.0623784 -0.113102 -3.12689e-19)
(-0.0599688 -0.113103 7.69803e-20)
(-0.0559782 -0.112868 -7.35286e-20)
(-0.0505383 -0.112039 2.5259e-20)
(-0.0438379 -0.110139 -9.5659e-20)
(-0.0361479 -0.106561 -2.95417e-19)
(-0.0278616 -0.100576 6.78735e-20)
(-0.0195026 -0.0913398 -3.65788e-21)
(-0.0115617 -0.0778473 -2.7625e-19)
(-0.00448748 -0.0589415 1.92082e-19)
(-0.000551797 -0.0342354 -1.64438e-19)
(0.00801448 -0.0198594 7.61599e-20)
(0.0150061 -0.048368 1.39437e-19)
(0.0131906 -0.0693796 1.97976e-19)
(0.00641518 -0.0840758 1.00387e-19)
(-0.00299941 -0.0938865 -9.99229e-20)
(-0.0135561 -0.100153 2.3726e-19)
(-0.0241683 -0.103963 1.75428e-19)
(-0.0340846 -0.106174 -6.58756e-20)
(-0.0428105 -0.107445 2.25946e-19)
(-0.0500332 -0.108264 -2.32181e-19)
(-0.0555664 -0.108975 -6.86108e-20)
(-0.0593101 -0.109806 6.89584e-20)
(-0.061222 -0.110885 1.30604e-19)
(-0.0612985 -0.112252 2.60733e-21)
(-0.0595641 -0.113862 7.93865e-20)
(-0.0560685 -0.115578 1.47422e-19)
(-0.0508907 -0.117167 -2.47968e-19)
(-0.0441502 -0.118275 3.02448e-19)
(-0.0360255 -0.118412 9.36157e-20)
(-0.0267842 -0.116928 2.78098e-20)
(-0.016835 -0.113017 -3.38448e-19)
(-0.0067477 -0.105707 4.70413e-20)
(0.00292417 -0.0937995 7.24957e-20)
(0.0116604 -0.0758801 -1.61211e-20)
(0.0167847 -0.0515056 8.05068e-20)
(0.00699508 -0.0165805 4.35164e-21)
(0.0126769 -0.0409149 -3.57899e-19)
(0.010101 -0.0595356 -1.12172e-20)
(0.00298737 -0.0730812 -9.04499e-20)
(-0.0064411 -0.0826056 -5.9458e-19)
(-0.0167615 -0.0891808 5.12046e-19)
(-0.0269421 -0.0936977 -3.63657e-19)
(-0.0362713 -0.0968744 -2.02755e-20)
(-0.0442829 -0.0992734 -1.69847e-19)
(-0.0506843 -0.101319 2.91046e-19)
(-0.055303 -0.10332 -3.11189e-19)
(-0.0580483 -0.105486 -1.43857e-19)
(-0.0588836 -0.107944 9.86989e-22)
(-0.0578077 -0.110745 -3.00898e-19)
(-0.0548446 -0.113864 4.07274e-19)
(-0.0500401 -0.117194 -4.6279e-19)
(-0.0434655 -0.120529 3.17715e-21)
(-0.0352298 -0.123539 6.87875e-20)
(-0.0254989 -0.12574 -1.64868e-19)
(-0.0145319 -0.126465 1.55314e-19)
(-0.00274321 -0.124836 -2.19623e-19)
(0.00926123 -0.119757 -1.36904e-19)
(0.0208664 -0.1098 2.46577e-19)
(0.0314603 -0.093223 -2.63714e-19)
(0.0379155 -0.0694289 2.78462e-23)
(0.00577703 -0.0133393 -2.97329e-19)
(0.00996639 -0.0335627 3.43984e-19)
(0.00662165 -0.0498167 -1.07435e-19)
(-0.000733604 -0.0622065 2.05113e-19)
(-0.0100107 -0.0714158 2.21961e-19)
(-0.0198817 -0.0782499 -1.95271e-19)
(-0.0293826 -0.0834056 -1.25933e-19)
(-0.0378499 -0.0874628 -1.52566e-19)
(-0.0448509 -0.0908885 1.39733e-19)
(-0.0501161 -0.094044 -1.08477e-20)
(-0.0534897 -0.097199 2.00212e-19)
(-0.054893 -0.100545 1.95194e-19)
(-0.0542987 -0.104207 -2.29078e-19)
(-0.0517129 -0.108249 4.43509e-19)
(-0.047165 -0.112669 -2.9005e-19)
(-0.0407042 -0.117395 -4.36565e-20)
(-0.032402 -0.122263 5.39495e-19)
(-0.0223638 -0.126988 -2.49659e-19)
(-0.0107481 -0.131122 1.49699e-19)
(0.00219561 -0.134008 2.83987e-19)
(0.0160532 -0.13474 -1.82775e-19)
(0.0301934 -0.132111 2.0921e-20)
(0.0439479 -0.124457 -1.19936e-20)
(0.0566099 -0.10963 -6.10048e-20)
(0.0645454 -0.086747 1.24586e-19)
(0.00439142 -0.0101881 6.65963e-20)
(0.00695379 -0.0264158 -2.13784e-19)
(0.00287675 -0.0403436 1.16035e-19)
(-0.00457939 -0.0515696 -2.06247e-21)
(-0.013494 -0.0604206 8.84103e-20)
(-0.0226517 -0.067443 -1.51406e-19)
(-0.0311682 -0.0731441 8.6835e-20)
(-0.0384342 -0.0779682 2.36154e-19)
(-0.0440543 -0.0822874 -7.26055e-21)
(-0.0477851 -0.0863986 -1.17777e-19)
(-0.0494893 -0.0905309 1.16282e-19)
(-0.049103 -0.0948544 -4.10727e-21)
(-0.0466121 -0.0994884 -3.63935e-19)
(-0.0420355 -0.104505 1.34285e-19)
(-0.0354163 -0.109926 2.88013e-20)
(-0.0268168 -0.115715 -4.70457e-20)
(-0.0163214 -0.12176 -8.39179e-20)
(-0.00404489 -0.127836 3.26788e-19)
(0.00985026 -0.133563 7.26718e-20)
(0.0251168 -0.13834 -1.62397e-19)
(0.0413431 -0.141283 -1.82477e-20)
(0.0578816 -0.141131 2.02227e-19)
(0.074025 -0.136011 -9.50142e-20)
(0.0889972 -0.123312 3.69447e-20)
(0.0986134 -0.101715 2.30353e-20)
(0.00287821 -0.00718242 -1.32703e-19)
(0.00373509 -0.0195865 1.33983e-19)
(-0.000991617 -0.0312494 -7.50639e-20)
(-0.00836541 -0.0413053 -2.40885e-19)
(-0.0166628 -0.0497464 -2.22616e-19)
(-0.0247965 -0.0568713 -9.62225e-20)
(-0.0319706 -0.0630057 -8.15135e-20)
(-0.0376358 -0.0684622 -2.38001e-19)
(-0.0414371 -0.0735186 -9.63266e-20)
(-0.0431588 -0.0784067 8.8013e-20)
(-0.0426844 -0.0833118 -1.23802e-19)
(-0.0399676 -0.0883775 -1.28363e-19)
(-0.0350115 -0.0937113 -1.18655e-19)
(-0.0278546 -0.0993867 2.09583e-19)
(-0.0185619 -0.105442 -4.39994e-19)
(-0.00722166 -0.111873 2.42814e-19)
(0.00605428 -0.118617 -4.09894e-19)
(0.0211242 -0.125518 -6.02099e-20)
(0.0378035 -0.132287 -2.10574e-19)
(0.0558331 -0.138422 -4.50477e-20)
(0.0747984 -0.143128 -5.69544e-20)
(0.094042 -0.145182 -1.78671e-19)
(0.112837 -0.142581 -1.40512e-20)
(0.130396 -0.13225 9.87457e-20)
(0.141991 -0.112292 -2.48451e-19)
(0.00128482 -0.00437774 1.12513e-19)
(0.000419478 -0.0131897 1.47796e-19)
(-0.00482909 -0.0226747 5.22305e-19)
(-0.0118985 -0.0315619 -9.10285e-20)
(-0.0192862 -0.0395387 2.18146e-19)
(-0.0260445 -0.0466728 5.19864e-19)
(-0.0314735 -0.0531178 -1.41542e-19)
(-0.0350885 -0.0590599 1.90985e-19)
(-0.0365774 -0.0646853 1.10305e-19)
(-0.0357547 -0.0701592 1.99355e-19)
(-0.0325271 -0.0756204 -3.8596e-20)
(-0.0268692 -0.0811807 2.75217e-20)
(-0.0188064 -0.0869283 -6.41819e-20)
(-0.00840317 -0.092929 3.61042e-19)
(0.00424354 -0.0992259 4.74011e-20)
(0.0190077 -0.105834 3.19505e-19)
(0.035734 -0.112729 -7.80344e-20)
(0.0542345 -0.119822 2.76807e-19)
(0.0742811 -0.126917 3.46971e-20)
(0.0955822 -0.133643 1.29207e-19)
(0.117708 -0.139356 -5.12026e-20)
(0.139992 -0.142976 -1.79908e-21)
(0.161703 -0.14252 2.7473e-19)
(0.182138 -0.134528 1.53837e-19)
(0.196139 -0.116439 -6.35222e-20)
(-0.00033607 -0.00182611 -2.7226e-19)
(-0.00287513 -0.00733605 -2.77667e-19)
(-0.00847514 -0.0147601 -2.91179e-19)
(-0.0149848 -0.0224939 1.06481e-19)
(-0.0211393 -0.029957 -2.14492e-19)
(-0.0261393 -0.0370066 -3.2061e-20)
(-0.0293871 -0.043637 -8.39311e-20)
(-0.0304662 -0.0499153 -3.45945e-19)
(-0.0291112 -0.0559389 -5.31002e-20)
(-0.0251695 -0.0618075 8.7302e-20)
(-0.0185751 -0.0676105 -2.70401e-19)
(-0.00932796 -0.0734238 3.73602e-19)
(0.00251829 -0.0793089 -4.99793e-19)
(0.0168655 -0.085314 1.17566e-19)
(0.0335759 -0.0914738 -2.96879e-19)
(0.0524738 -0.097807 -2.33873e-19)
(0.0733465 -0.104309 -1.15946e-20)
(0.0959422 -0.110936 -3.10209e-20)
(0.119968 -0.117573 2.8344e-20)
(0.145076 -0.123979 -1.1711e-19)
(0.170802 -0.1297 -7.73825e-20)
(0.196463 -0.133896 8.92728e-20)
(0.221329 -0.134787 -2.40046e-19)
(0.244889 -0.128721 7.45927e-20)
(0.261833 -0.112493 4.68383e-20)
(-0.00192947 0.000427722 -4.81472e-20)
(-0.00602741 -0.00212535 -7.98729e-20)
(-0.0117693 -0.00763859 3.12314e-19)
(-0.0174362 -0.0142539 1.1619e-19)
(-0.0220111 -0.0211656 1.53641e-19)
(-0.0248487 -0.028044 -2.04975e-19)
(-0.0254576 -0.0347394 8.39483e-22)
(-0.0234947 -0.0412089 -1.64373e-19)
(-0.0187449 -0.0474661 3.03612e-19)
(-0.0110941 -0.0535465 9.7859e-20)
(-0.000508365 -0.0594901 1.07185e-19)
(0.0129799 -0.0653333 -4.30224e-19)
(0.0292817 -0.071106 5.22026e-19)
(0.0482571 -0.0768308 -1.56473e-19)
(0.0697183 -0.0825221 -1.08073e-19)
(0.0934306 -0.0881856 3.1853e-19)
(0.119112 -0.0938145 1.35573e-19)
(0.146435 -0.0993825 -3.41102e-19)
(0.175024 -0.104825 -1.31934e-19)
(0.204454 -0.11 4.00112e-19)
(0.234204 -0.114632 -2.89599e-19)
(0.263556 -0.118174 1.70281e-19)
(0.291767 -0.119229 8.38939e-20)
(0.318598 -0.114245 -1.0715e-19)
(0.339073 -0.0994958 -9.14663e-20)
(-0.00344117 0.00234948 -1.76032e-19)
(-0.00891809 0.00236032 2.7426e-19)
(-0.0145567 -0.00142675 1.17477e-19)
(-0.0190758 -0.00698316 -1.69751e-19)
(-0.0217089 -0.0133229 -2.71513e-20)
(-0.0219672 -0.0199563 -1.77634e-19)
(-0.0194702 -0.0266066 -7.03496e-20)
(-0.0139528 -0.0331319 7.90542e-20)
(-0.00525649 -0.0394685 -2.0453e-20)
(0.00668812 -0.045591 1.46396e-19)
(0.0218746 -0.051491 -1.26037e-19)
(0.0402299 -0.0571652 3.47874e-19)
(0.0616204 -0.0626094 -4.23897e-19)
(0.0858555 -0.0678155 2.6389e-19)
(0.112689 -0.0727701 3.17968e-19)
(0.141819 -0.077453 -4.50857e-19)
(0.17289 -0.0818366 -1.31339e-19)
(0.205487 -0.0858821 2.19396e-19)
(0.239144 -0.0895324 -1.31308e-19)
(0.273339 -0.092693 1.18177e-19)
(0.307471 -0.0952056 -2.81605e-19)
(0.340756 -0.0967845 4.93663e-20)
(0.372391 -0.0965184 1.6179e-19)
(0.402433 -0.0912377 -2.43048e-19)
(0.426918 -0.0769229 6.65355e-20)
(-0.00482085 0.00391763 -1.62343e-19)
(-0.0114348 0.00606184 5.10206e-19)
(-0.0166927 0.00378293 9.85056e-20)
(-0.0197403 -0.000801019 -2.65812e-19)
(-0.0200586 -0.00656948 1.90677e-19)
(-0.0173154 -0.0129003 9.70975e-20)
(-0.0112451 -0.019409 1.54048e-19)
(-0.00166628 -0.0258665 -1.03978e-20)
(0.0115155 -0.0321395 -1.65353e-20)
(0.0283157 -0.0381472 -3.36194e-20)
(0.0486773 -0.043836 -1.42772e-19)
(0.0724758 -0.0491649 -2.58079e-21)
(0.0995224 -0.0540964 3.28649e-19)
(0.129566 -0.0585919 -5.26144e-19)
(0.162294 -0.0626074 3.72971e-19)
(0.197335 -0.066092 7.51501e-20)
(0.234255 -0.0689843 1.29317e-19)
(0.27256 -0.0712105 -5.86659e-20)
(0.311694 -0.0726791 5.42245e-19)
(0.351037 -0.0732711 -3.2602e-19)
(0.389875 -0.072838 2.4822e-19)
(0.4273 -0.0712095 5.20124e-20)
(0.46232 -0.0678238 -1.61132e-19)
(0.495102 -0.0599131 1.30756e-19)
(0.52333 -0.0435589 1.79263e-19)
(-0.00602459 0.00512453 -4.68647e-20)
(-0.0134761 0.00894681 -1.79591e-19)
(-0.0180447 0.00792864 -3.07531e-19)
(-0.0192803 0.00420399 -1.75229e-19)
(-0.0169023 -0.00101572 -2.45585e-20)
(-0.0107341 -0.00700409 -6.90785e-20)
(-0.000627984 -0.0132878 -3.20824e-19)
(0.0135065 -0.0195643 5.36019e-20)
(0.0316901 -0.0256398 -3.57292e-19)
(0.0538725 -0.0313847 -2.71877e-20)
(0.0799335 -0.0367057 -3.38218e-19)
(0.109683 -0.0415289 -1.1837e-19)
(0.142865 -0.0457888 6.67333e-20)
(0.179155 -0.0494211 -3.17154e-19)
(0.218169 -0.0523579 3.5248e-21)
(0.25946 -0.0545219 -2.62283e-19)
(0.302531 -0.0558218 9.78766e-20)
(0.346828 -0.0561446 -3.48204e-19)
(0.391753 -0.0553451 -5.51889e-20)
(0.436652 -0.0532294 -6.30141e-21)
(0.480786 -0.0495475 -5.27613e-20)
(0.523208 -0.0440026 -5.46003e-20)
(0.562751 -0.0359065 -3.07376e-20)
(0.598992 -0.0224887 -9.86999e-20)
(0.62981 -0.000963713 -1.81639e-19)
(-0.00701649 0.00597618 8.59599e-20)
(-0.0149533 0.0110109 2.27773e-19)
(-0.0184934 0.0109836 2.74268e-19)
(-0.0175584 0.00798202 -2.18863e-19)
(-0.0120933 0.00326882 4.07045e-19)
(-0.00207465 -0.0023521 -2.20694e-19)
(0.0125231 -0.00833802 1.20026e-19)
(0.0316912 -0.0143266 1.86397e-19)
(0.0553645 -0.0200739 1.68625e-19)
(0.0834127 -0.0254098 8.15068e-20)
(0.115635 -0.0302087 1.31111e-19)
(0.15176 -0.0343716 7.62352e-20)
(0.191444 -0.0378138 5.02024e-19)
(0.234275 -0.0404573 -3.60268e-19)
(0.279784 -0.042224 4.0467e-19)
(0.327446 -0.04303 -1.6425e-19)
(0.376699 -0.0427789 3.45534e-19)
(0.426959 -0.0413516 -2.07672e-20)
(0.477636 -0.0385914 -6.92881e-20)
(0.528161 -0.0342798 -1.07373e-20)
(0.578005 -0.0281051 2.37661e-19)
(0.626716 -0.0195781 -2.20464e-19)
(0.67415 -0.00756467 1.53249e-19)
(0.720875 0.0104098 1.51227e-19)
(0.763042 0.0314384 2.62045e-20)
(-0.0077692 0.00649069 5.95009e-20)
(-0.0157912 0.012277 -3.25004e-19)
(-0.0179312 0.0129582 -1.18346e-19)
(-0.0144449 0.0105272 1.08454e-19)
(-0.00548861 0.00626437 -3.3314e-19)
(0.00881029 0.00102633 -6.5477e-20)
(0.0283506 -0.00459337 4.54671e-20)
(0.0530138 -0.0101866 1.79099e-19)
(0.0826339 -0.0154706 -4.52956e-19)
(0.116982 -0.0202438 3.39444e-20)
(0.155756 -0.024358 -1.31581e-19)
(0.198578 -0.0276991 -3.92645e-19)
(0.244996 -0.0301756 2.65683e-19)
(0.294488 -0.0317101 1.08829e-20)
(0.346474 -0.0322339 -7.00882e-21)
(0.400336 -0.0316817 2.51279e-19)
(0.455431 -0.0299865 -4.37974e-19)
(0.511121 -0.0270746 3.37066e-19)
(0.566799 -0.0228584 -6.53365e-20)
(0.621928 -0.0172294 1.77572e-19)
(0.676078 -0.010056 -2.96116e-19)
(0.728975 -0.00116518 1.56888e-19)
(0.780693 0.00984527 -2.74752e-19)
(0.831875 0.023796 2.6507e-19)
(0.878233 0.0371939 -8.55873e-20)
(-0.00826311 0.00669578 3.99549e-19)
(-0.0159262 0.0127923 -6.51033e-20)
(-0.016259 0.0138991 4.81212e-19)
(-0.00981326 0.0118803 2.23134e-19)
(0.00305719 0.00800644 1.80826e-20)
(0.0220759 0.00316547 9.74302e-20)
(0.0470082 -0.00201572 2.36839e-20)
(0.077612 -0.00709736 3.95307e-19)
(0.113602 -0.0117694 1.26915e-19)
(0.154628 -0.0158103 -1.6479e-20)
(0.200259 -0.0190599 3.49948e-20)
(0.249983 -0.0214014 1.30816e-19)
(0.303211 -0.0227497 1.06516e-19)
(0.359281 -0.023044 2.20925e-19)
(0.417483 -0.0222423 -2.53098e-19)
(0.477075 -0.0203177 7.33943e-20)
(0.537315 -0.0172545 2.38979e-20)
(0.597486 -0.0130458 1.04965e-19)
(0.656932 -0.0076921 2.69648e-19)
(0.715086 -0.00120248 -1.8005e-19)
(0.771508 0.00639685 8.36637e-21)
(0.825901 0.0150494 -2.2866e-19)
(0.878186 0.024739 2.04476e-19)
(0.928638 0.0357606 -1.92164e-19)
(0.973613 0.0461153 2.32252e-20)
(-0.00848474 0.0066258 -3.33287e-19)
(-0.0153034 0.0126239 2.55133e-19)
(-0.0133822 0.0138863 -4.15632e-19)
(-0.00353552 0.0121273 3.57625e-20)
(0.0136977 0.00858722 2.92872e-19)
(0.0378905 0.00416654 -4.87626e-19)
(0.0686649 -0.000490579 3.86365e-19)
(0.105638 -0.00492677 -6.11669e-19)
(0.148382 -0.0088177 1.21682e-19)
(0.196394 -0.0119344 2.54657e-20)
(0.249086 -0.014118 2.00486e-19)
(0.305778 -0.0152627 -6.66816e-19)
(0.36571 -0.015305 1.15458e-19)
(0.428057 -0.0142164 1.19115e-19)
(0.491951 -0.0119971 -6.9926e-20)
(0.556517 -0.00867257 -4.22137e-19)
(0.620899 -0.00428913 2.00685e-19)
(0.684299 0.00108815 3.56926e-19)
(0.746009 0.00737665 -3.66801e-19)
(0.805434 0.0144742 2.59408e-19)
(0.862115 0.0222523 -3.23246e-19)
(0.915735 0.0305417 2.29838e-19)
(0.966126 0.0391714 -5.92576e-20)
(1.01338 0.0483055 3.31405e-19)
(1.05484 0.0571394 -3.67382e-19)
(-0.0084242 0.00631847 4.76047e-20)
(-0.0138726 0.0118535 3.74718e-20)
(-0.00920723 0.0130278 9.18454e-20)
(0.00452141 0.0113961 3.29173e-19)
(0.0265964 0.00815291 -1.04021e-20)
(0.0564354 0.00419577 7.35945e-20)
(0.0935024 0.000170915 3.27329e-19)
(0.137251 -0.00346124 1.31678e-19)
(0.18708 -0.00637657 -4.31051e-20)
(0.242302 -0.00835349 3.66444e-19)
(0.302132 -0.00924997 -4.13491e-19)
(0.36569 -0.00898776 6.30823e-19)
(0.432015 -0.00754129 -2.4763e-19)
(0.500094 -0.00492933 4.42225e-19)
(0.568894 -0.00120783 -1.48682e-19)
(0.637403 0.00353653 5.32472e-20)
(0.704668 0.0091922 6.38244e-20)
(0.769833 0.0156278 -1.1571e-19)
(0.832167 0.0226956 9.84927e-20)
(0.891089 0.030233 6.08987e-20)
(0.946174 0.038061 8.08442e-20)
(0.997148 0.0459778 1.63142e-19)
(1.04388 0.053783 -1.78335e-20)
(1.08644 0.0615952 -7.26889e-20)
(1.1232 0.0693882 1.99957e-19)
(-0.00807232 0.00581199 -2.78601e-19)
(-0.011584 0.0105715 2.95439e-20)
(-0.00363747 0.0114538 -5.29867e-19)
(0.0144968 0.00984972 -1.26514e-19)
(0.0419251 0.00689719 -2.37181e-19)
(0.0778983 0.00347719 -5.08313e-20)
(0.121702 0.000223177 -2.53753e-19)
(0.172596 -0.00241718 -1.51248e-19)
(0.229769 -0.00413666 1.9936e-19)
(0.29231 -0.00473884 -3.3231e-19)
(0.3592 -0.0041171 -9.19576e-20)
(0.429323 -0.00223908 2.34127e-21)
(0.501497 0.000865555 -6.05862e-19)
(0.574511 0.00511603 2.54922e-19)
(0.647173 0.0103908 -3.66039e-19)
(0.718359 0.0165375 -1.03009e-20)
(0.787055 0.0233828 6.71921e-20)
(0.852398 0.0307407 -1.13521e-19)
(0.913696 0.0384198 -9.65857e-20)
(0.970446 0.0462278 4.4167e-20)
(1.02233 0.0539744 4.78827e-20)
(1.0692 0.06147 -3.10625e-19)
(1.11104 0.0685406 1.74999e-19)
(1.14804 0.0752907 8.17799e-20)
(1.17938 0.0821325 1.75415e-20)
(-0.007418 0.00514291 2.84879e-19)
(-0.00838435 0.00887295 -3.03797e-19)
(0.00342819 0.00930952 4.26411e-19)
(0.0265344 0.00767832 6.66893e-20)
(0.0598569 0.00505163 -2.03862e-20)
(0.102461 0.00228104 -1.4299e-19)
(0.153424 -2.84274e-05 2.16782e-20)
(0.211776 -0.00145968 2.17109e-19)
(0.276453 -0.00174211 -2.98982e-19)
(0.346278 -0.000725446 3.12456e-19)
(0.419958 0.00164028 -3.25416e-20)
(0.496121 0.00532149 1.63634e-20)
(0.573352 0.0102164 3.97437e-19)
(0.650254 0.01617 5.21581e-19)
(0.725508 0.0229893 -2.04372e-19)
(0.797924 0.0304583 3.50256e-19)
(0.866492 0.0383511 1.70859e-19)
(0.930411 0.0464443 -1.07602e-19)
(0.989106 0.0545257 3.22742e-19)
(1.04222 0.0624011 -1.71723e-20)
(1.08962 0.0698976 -2.9682e-19)
(1.13134 0.0768639 3.04493e-19)
(1.16756 0.0831755 3.83342e-20)
(1.19861 0.0889426 -1.78236e-19)
(1.22429 0.094782 5.59652e-20)
(-0.00644607 0.00434479 -3.96038e-19)
(-0.00421481 0.00685316 4.14019e-19)
(0.0120954 0.00674934 -2.62608e-19)
(0.0407783 0.00509066 -8.17018e-20)
(0.0805563 0.00287436 -1.83579e-19)
(0.130281 0.000909106 3.24618e-19)
(0.188785 -0.000246101 -1.87938e-19)
(0.254821 -0.000225669 -8.58339e-20)
(0.327029 0.00118123 -2.44889e-19)
(0.403921 0.00405468 6.81534e-21)
(0.483906 0.00836489 -9.53439e-20)
(0.565342 0.0139925 4.4875e-20)
(0.646595 0.0207489 -4.76814e-19)
(0.72612 0.0283978 1.35882e-19)
(0.802523 0.0366753 -1.59308e-19)
(0.874626 0.0453103 -1.25362e-19)
(0.941502 0.0540407 3.84419e-20)
(1.00249 0.0626269 -1.75681e-19)
(1.05722 0.0708607 -7.03815e-20)
(1.10554 0.0785705 2.11737e-19)
(1.14755 0.085623 8.48807e-20)
(1.1835 0.0919204 -3.60924e-19)
(1.21379 0.0973984 2.58544e-19)
(1.23892 0.102187 -4.75137e-20)
(1.25908 0.106949 -9.58112e-20)
(-0.00513603 0.003448 -1.44024e-19)
(0.000990062 0.00460604 -7.69851e-20)
(0.0224719 0.00393192 -1.5227e-20)
(0.0573652 0.00230591 1.13096e-19)
(0.104166 0.000638399 1.22732e-19)
(0.161473 -0.000320811 1.0659e-19)
(0.227828 -7.96501e-05 1.32728e-19)