/*--------------------------------*- C++ -*----------------------------------*\
  =========                 |
  \\      /  F ield         | OpenFOAM: The Open Source CFD Toolbox
   \\    /   O peration     | Website:  https://openfoam.org
    \\  /    A nd           | Version:  6.0
     \\/     M anipulation  |
\*---------------------------------------------------------------------------*/
FoamFile
{
    version     2.0;
    format      ascii;
    class       volScalarField;
    location    "6";
    object      p;
}
// * * * * * * * * * * * * * * * * * * * * * * * * * * * * * * * * * * * * * //

dimensions      [0 2 -2 0 0 0 0];

internalField   nonuniform List<scalar> 
12500
(
-0.329697
-0.332557
-0.334405
-0.335809
-0.337111
-0.338385
-0.339688
-0.341062
-0.34253
-0.344102
-0.345778
-0.347557
-0.349432
-0.351395
-0.353441
-0.355563
-0.357753
-0.360006
-0.362316
-0.364687
-0.367139
-0.369629
-0.371896
-0.373985
-0.378245
-0.33011
-0.332909
-0.334724
-0.336106
-0.337392
-0.338654
-0.339946
-0.341311
-0.342772
-0.344337
-0.346007
-0.34778
-0.34965
-0.351608
-0.35365
-0.355766
-0.357952
-0.360202
-0.362508
-0.364876
-0.367326
-0.369817
-0.372086
-0.374171
-0.378433
-0.330945
-0.333624
-0.335371
-0.336711
-0.337964
-0.3392
-0.340472
-0.34182
-0.343266
-0.344818
-0.346476
-0.348238
-0.350098
-0.352047
-0.354079
-0.356187
-0.358365
-0.360607
-0.362908
-0.36527
-0.367717
-0.37021
-0.372484
-0.374563
-0.378825
-0.332171
-0.334674
-0.336321
-0.337599
-0.338804
-0.340002
-0.341242
-0.342564
-0.343987
-0.345518
-0.347158
-0.348903
-0.350746
-0.35268
-0.354697
-0.356792
-0.358956
-0.361186
-0.363476
-0.365829
-0.368268
-0.370761
-0.373041
-0.375109
-0.379368
-0.333741
-0.336021
-0.337541
-0.338737
-0.339878
-0.341024
-0.342222
-0.343507
-0.344898
-0.3464
-0.348013
-0.349732
-0.351551
-0.353462
-0.355458
-0.35753
-0.359674
-0.361885
-0.364156
-0.366493
-0.368919
-0.371406
-0.37369
-0.375739
-0.379986
-0.335602
-0.337618
-0.338987
-0.340084
-0.341146
-0.342227
-0.34337
-0.344607
-0.345954
-0.347416
-0.348992
-0.350676
-0.352461
-0.35434
-0.356303
-0.358344
-0.360458
-0.362638
-0.364882
-0.367192
-0.369595
-0.372069
-0.37435
-0.376371
-0.380591
-0.33769
-0.339414
-0.34061
-0.341592
-0.342561
-0.343564
-0.344639
-0.345816
-0.347107
-0.348517
-0.350043
-0.351679
-0.353418
-0.35525
-0.357169
-0.359166
-0.361237
-0.363376
-0.365579
-0.36785
-0.370217
-0.372665
-0.374933
-0.376915
-0.38109
-0.339938
-0.34135
-0.34236
-0.343215
-0.344077
-0.344988
-0.345982
-0.347084
-0.348304
-0.349647
-0.351108
-0.352682
-0.354359
-0.356132
-0.357991
-0.359929
-0.361942
-0.364023
-0.36617
-0.368388
-0.370703
-0.37311
-0.375353
-0.377283
-0.38139
-0.342279
-0.343373
-0.344188
-0.344904
-0.345647
-0.346453
-0.347351
-0.348363
-0.349497
-0.350756
-0.352136
-0.353629
-0.355228
-0.356923
-0.358705
-0.360567
-0.362504
-0.364511
-0.366585
-0.36873
-0.370976
-0.373325
-0.375528
-0.377394
-0.38141
-0.34465
-0.34543
-0.346047
-0.346617
-0.34723
-0.347918
-0.348705
-0.34961
-0.35064
-0.351797
-0.353077
-0.354471
-0.355972
-0.357569
-0.359255
-0.361022
-0.362863
-0.364776
-0.366758
-0.368814
-0.370972
-0.373242
-0.375389
-0.377178
-0.381085
-0.346994
-0.347475
-0.347896
-0.348315
-0.34879
-0.349347
-0.350009
-0.35079
-0.351698
-0.352733
-0.353892
-0.355166
-0.356548
-0.358028
-0.359597
-0.361247
-0.362973
-0.364772
-0.366641
-0.368586
-0.370637
-0.372811
-0.374884
-0.376585
-0.380365
-0.349263
-0.349469
-0.349702
-0.34997
-0.3503
-0.350715
-0.351236
-0.351876
-0.352643
-0.353536
-0.354553
-0.355687
-0.356929
-0.358269
-0.359699
-0.361212
-0.362802
-0.364465
-0.366202
-0.368016
-0.36994
-0.371997
-0.373979
-0.375582
-0.379224
-0.35142
-0.351384
-0.351442
-0.351559
-0.351739
-0.352003
-0.35237
-0.352853
-0.35346
-0.354192
-0.355047
-0.356019
-0.357099
-0.35828
-0.359551
-0.360905
-0.362338
-0.363846
-0.365429
-0.367093
-0.368868
-0.370788
-0.37266
-0.374155
-0.377652
-0.353441
-0.353202
-0.353102
-0.353072
-0.353099
-0.353203
-0.353404
-0.353715
-0.354146
-0.354699
-0.355373
-0.356164
-0.357064
-0.358064
-0.359157
-0.360335
-0.361592
-0.362925
-0.364335
-0.365828
-0.367435
-0.369195
-0.370936
-0.372308
-0.375657
-0.355314
-0.354915
-0.354675
-0.354505
-0.354379
-0.354318
-0.354342
-0.354468
-0.354708
-0.355066
-0.355543
-0.356137
-0.356841
-0.357646
-0.358546
-0.359531
-0.360597
-0.361739
-0.362957
-0.364258
-0.365674
-0.367251
-0.368832
-0.370059
-0.37325
-0.357042
-0.356526
-0.356168
-0.355865
-0.355586
-0.355355
-0.355196
-0.355128
-0.355165
-0.355316
-0.355584
-0.355969
-0.356465
-0.357065
-0.35776
-0.358542
-0.359405
-0.360342
-0.361354
-0.362445
-0.363647
-0.36501
-0.366393
-0.367434
-0.370443
-0.358641
-0.35805
-0.357593
-0.357165
-0.356736
-0.356333
-0.355985
-0.355716
-0.355543
-0.355479
-0.355531
-0.3557
-0.355982
-0.356371
-0.356857
-0.357432
-0.358086
-0.358812
-0.359605
-0.360468
-0.36143
-0.362542
-0.363675
-0.364465
-0.367236
-0.360137
-0.359511
-0.358973
-0.358427
-0.357851
-0.357276
-0.356737
-0.356263
-0.355876
-0.355595
-0.355428
-0.355379
-0.355447
-0.355626
-0.355905
-0.356274
-0.35672
-0.357233
-0.357801
-0.358421
-0.359116
-0.359933
-0.360748
-0.361186
-0.363619
-0.361571
-0.36094
-0.360336
-0.35968
-0.358958
-0.358213
-0.357483
-0.356803
-0.356204
-0.355706
-0.355322
-0.35506
-0.354919
-0.354894
-0.354974
-0.355144
-0.35539
-0.355693
-0.356035
-0.356402
-0.356802
-0.357274
-0.357689
-0.357641
-0.359572
-0.36299
-0.362378
-0.361719
-0.360955
-0.360092
-0.359177
-0.358258
-0.357377
-0.356568
-0.355859
-0.355265
-0.354798
-0.354458
-0.354239
-0.354131
-0.354116
-0.354173
-0.354275
-0.354394
-0.3545
-0.354581
-0.354657
-0.35458
-0.353884
-0.355086
-0.364452
-0.363871
-0.363161
-0.362292
-0.361288
-0.360207
-0.359102
-0.358024
-0.357013
-0.356101
-0.355307
-0.354646
-0.354119
-0.353721
-0.35344
-0.353254
-0.353135
-0.35305
-0.352953
-0.352796
-0.35254
-0.352175
-0.351521
-0.350016
-0.350213
-0.366018
-0.365468
-0.364706
-0.363731
-0.362587
-0.361341
-0.360056
-0.358788
-0.357583
-0.356478
-0.355497
-0.354654
-0.353954
-0.353392
-0.352952
-0.352611
-0.352334
-0.352074
-0.351775
-0.351363
-0.350768
-0.34994
-0.348659
-0.346231
-0.345135
-0.367751
-0.367222
-0.3664
-0.365314
-0.364028
-0.36262
-0.361159
-0.359709
-0.358321
-0.357035
-0.355878
-0.354868
-0.354009
-0.353297
-0.352714
-0.352234
-0.351815
-0.351403
-0.350922
-0.350277
-0.349356
-0.34806
-0.346119
-0.342665
-0.339931
-0.369715
-0.369184
-0.368288
-0.367083
-0.365653
-0.364083
-0.362452
-0.360827
-0.359266
-0.35781
-0.356491
-0.355326
-0.354322
-0.353473
-0.352764
-0.352164
-0.351631
-0.351104
-0.350498
-0.349696
-0.348543
-0.346858
-0.344231
-0.339472
-0.334475
-0.37197
-0.371404
-0.370414
-0.36908
-0.367499
-0.365767
-0.363969
-0.362178
-0.360452
-0.358838
-0.357367
-0.356059
-0.354921
-0.35395
-0.353129
-0.352435
-0.351828
-0.351258
-0.350655
-0.349925
-0.348936
-0.3475
-0.34508
-0.340149
-0.334155
-0.374568
-0.373926
-0.37282
-0.371342
-0.369603
-0.367706
-0.365743
-0.36379
-0.361908
-0.360144
-0.358531
-0.357089
-0.355826
-0.35474
-0.353821
-0.353049
-0.3524
-0.351847
-0.351367
-0.350947
-0.350611
-0.350441
-0.350552
-0.351671
-0.359173
-0.377557
-0.376792
-0.37554
-0.373901
-0.371993
-0.369927
-0.367799
-0.365688
-0.363654
-0.361746
-0.359997
-0.358425
-0.357041
-0.355844
-0.354826
-0.353976
-0.353281
-0.352735
-0.352345
-0.352143
-0.352213
-0.352712
-0.353868
-0.35633
-0.363801
-0.380975
-0.380035
-0.378605
-0.376786
-0.374696
-0.372454
-0.370158
-0.367888
-0.365705
-0.363656
-0.361772
-0.360072
-0.358564
-0.357249
-0.356121
-0.355174
-0.354404
-0.353815
-0.353429
-0.353293
-0.353493
-0.354171
-0.355501
-0.357786
-0.363271
-0.384849
-0.383681
-0.382041
-0.380019
-0.377732
-0.375304
-0.372835
-0.370404
-0.368071
-0.365879
-0.363857
-0.362022
-0.36038
-0.358931
-0.357669
-0.356589
-0.355691
-0.35498
-0.354479
-0.354227
-0.354289
-0.354754
-0.355712
-0.357243
-0.360701
-0.389202
-0.387754
-0.38587
-0.383622
-0.381121
-0.378495
-0.375845
-0.373247
-0.370757
-0.368416
-0.366248
-0.364265
-0.362469
-0.360858
-0.359423
-0.358158
-0.357059
-0.356131
-0.355387
-0.354851
-0.354558
-0.354549
-0.354851
-0.355433
-0.357074
-0.394048
-0.392269
-0.390108
-0.387611
-0.384878
-0.38204
-0.379198
-0.376425
-0.37377
-0.371269
-0.368938
-0.366783
-0.364803
-0.362989
-0.361328
-0.359812
-0.358431
-0.357186
-0.356079
-0.35512
-0.354321
-0.353693
-0.35323
-0.352859
-0.353014
-0.399399
-0.397241
-0.39477
-0.392002
-0.389018
-0.385954
-0.382909
-0.379948
-0.377114
-0.374433
-0.371914
-0.369557
-0.367349
-0.365278
-0.363328
-0.361484
-0.359735
-0.358075
-0.356503
-0.355018
-0.353621
-0.352307
-0.351062
-0.349807
-0.348778
-0.405262
-0.402681
-0.39987
-0.396809
-0.393557
-0.390253
-0.38699
-0.383825
-0.380792
-0.377905
-0.375164
-0.372557
-0.370067
-0.367675
-0.36536
-0.363107
-0.360904
-0.358744
-0.356624
-0.354542
-0.352497
-0.350484
-0.348488
-0.346443
-0.344485
-0.411642
-0.408597
-0.40542
-0.402046
-0.39851
-0.39495
-0.391453
-0.388064
-0.384803
-0.381674
-0.378663
-0.37575
-0.37291
-0.370121
-0.367361
-0.364617
-0.361879
-0.359145
-0.356416
-0.353695
-0.350984
-0.348283
-0.345589
-0.342846
-0.340147
-0.41854
-0.414995
-0.411429
-0.407726
-0.403891
-0.400059
-0.396308
-0.392667
-0.389143
-0.385722
-0.382381
-0.379091
-0.375823
-0.372554
-0.369266
-0.36595
-0.362607
-0.359241
-0.355861
-0.352479
-0.349103
-0.345744
-0.342404
-0.339042
-0.335736
-0.425955
-0.421877
-0.417903
-0.413858
-0.409711
-0.405589
-0.401558
-0.39763
-0.393794
-0.390021
-0.386277
-0.382527
-0.378744
-0.374907
-0.371008
-0.36705
-0.363042
-0.359001
-0.354947
-0.350898
-0.346873
-0.342887
-0.33895
-0.335033
-0.331207
-0.43388
-0.429242
-0.424845
-0.420447
-0.415973
-0.411541
-0.407199
-0.402938
-0.398727
-0.394526
-0.390294
-0.385993
-0.381602
-0.377112
-0.372527
-0.367864
-0.363146
-0.358403
-0.353664
-0.348956
-0.344303
-0.339725
-0.335235
-0.33081
-0.326518
-0.442301
-0.437079
-0.432248
-0.427488
-0.422673
-0.417906
-0.413211
-0.408558
-0.403899
-0.399183
-0.394365
-0.389416
-0.384325
-0.3791
-0.373762
-0.368344
-0.362886
-0.357428
-0.352007
-0.346656
-0.341402
-0.336265
-0.331259
-0.326364
-0.321643
-0.451194
-0.44537
-0.440098
-0.434969
-0.429796
-0.424659
-0.41956
-0.414444
-0.409248
-0.403917
-0.398411
-0.392715
-0.386836
-0.380803
-0.374658
-0.368453
-0.362238
-0.356064
-0.349974
-0.344002
-0.338175
-0.332511
-0.327022
-0.321687
-0.316562
-0.460523
-0.454085
-0.448369
-0.442864
-0.43731
-0.431762
-0.426194
-0.42053
-0.414698
-0.408645
-0.402345
-0.395806
-0.389059
-0.382159
-0.375168
-0.368154
-0.36118
-0.354301
-0.347562
-0.340996
-0.334626
-0.328466
-0.322523
-0.316774
-0.311267
-0.47024
-0.463182
-0.457022
-0.451132
-0.445169
-0.439157
-0.433043
-0.426734
-0.420155
-0.413268
-0.406071
-0.398601
-0.390919
-0.383106
-0.375246
-0.367418
-0.359694
-0.352129
-0.344767
-0.337637
-0.330755
-0.32413
-0.317762
-0.311622
-0.305754
-0.480278
-0.472602
-0.466001
-0.459714
-0.453307
-0.446767
-0.440017
-0.432953
-0.425513
-0.417681
-0.40949
-0.401013
-0.392345
-0.383591
-0.374852
-0.366219
-0.357763
-0.349539
-0.341585
-0.333922
-0.32656
-0.319499
-0.312733
-0.306225
-0.30002
-0.490558
-0.482273
-0.475236
-0.468537
-0.461639
-0.454495
-0.447007
-0.439074
-0.430655
-0.421772
-0.412503
-0.402959
-0.39327
-0.383562
-0.373951
-0.36453
-0.35537
-0.346519
-0.338005
-0.329843
-0.322032
-0.314566
-0.307429
-0.300578
-0.29406
-0.500981
-0.492104
-0.484638
-0.477504
-0.47006
-0.462224
-0.453888
-0.444967
-0.435456
-0.425429
-0.415011
-0.404358
-0.39363
-0.382973
-0.372507
-0.362327
-0.352496
-0.343053
-0.334016
-0.325388
-0.317161
-0.309319
-0.30184
-0.294669
-0.287866
-0.511432
-0.501987
-0.494097
-0.486502
-0.478448
-0.469822
-0.460522
-0.450494
-0.439787
-0.428535
-0.416918
-0.405133
-0.393366
-0.381777
-0.370487
-0.359584
-0.349121
-0.339124
-0.3296
-0.320542
-0.311931
-0.303744
-0.295951
-0.288486
-0.281427
-0.521777
-0.511799
-0.503491
-0.4954
-0.48666
-0.47714
-0.466758
-0.455512
-0.443519
-0.43098
-0.418132
-0.405211
-0.392423
-0.379932
-0.367857
-0.356272
-0.345219
-0.33471
-0.324738
-0.315285
-0.306323
-0.297823
-0.289745
-0.282013
-0.274728
-0.531869
-0.521397
-0.512675
-0.504046
-0.494539
-0.484017
-0.47244
-0.459876
-0.446524
-0.432657
-0.418569
-0.404526
-0.390748
-0.377397
-0.364582
-0.352364
-0.340765
-0.329786
-0.319406
-0.309594
-0.300315
-0.291533
-0.283201
-0.275229
-0.267751
-0.541546
-0.530625
-0.521492
-0.512277
-0.501915
-0.490283
-0.477405
-0.46344
-0.448677
-0.433465
-0.418146
-0.403012
-0.388289
-0.374131
-0.360629
-0.347827
-0.335732
-0.324326
-0.313577
-0.303445
-0.293884
-0.284854
-0.276298
-0.268114
-0.260476
-0.550633
-0.539314
-0.529769
-0.519916
-0.508608
-0.495764
-0.481494
-0.466064
-0.44986
-0.433307
-0.416789
-0.400613
-0.385001
-0.370092
-0.355961
-0.34263
-0.330087
-0.318301
-0.307226
-0.296811
-0.287005
-0.27776
-0.269011
-0.260647
-0.252883
-0.558945
-0.547285
-0.537325
-0.526775
-0.514435
-0.500285
-0.484549
-0.467612
-0.449965
-0.432098
-0.414428
-0.39727
-0.380835
-0.365243
-0.350544
-0.33674
-0.323802
-0.311683
-0.300324
-0.289667
-0.279652
-0.270228
-0.261319
-0.252804
-0.244949
-0.566291
-0.554348
-0.543969
-0.532664
-0.519207
-0.503673
-0.486418
-0.46796
-0.448889
-0.429756
-0.411
-0.392934
-0.37575
-0.359544
-0.344342
-0.330125
-0.316845
-0.304441
-0.292844
-0.281986
-0.271801
-0.262233
-0.253198
-0.244564
-0.236653
-0.572476
-0.56031
-0.549504
-0.537388
-0.522741
-0.505762
-0.48696
-0.466991
-0.446541
-0.426209
-0.406448
-0.387556
-0.369704
-0.352959
-0.337322
-0.322753
-0.309187
-0.296549
-0.284759
-0.273742
-0.263427
-0.253753
-0.244626
-0.235907
-0.227977
-0.577303
-0.564976
-0.553738
-0.540756
-0.52486
-0.506396
-0.486046
-0.464603
-0.44284
-0.421394
-0.400719
-0.381094
-0.362658
-0.345453
-0.329452
-0.314595
-0.3008
-0.287979
-0.276044
-0.264913
-0.254509
-0.244768
-0.235585
-0.226814
-0.218901
-0.580581
-0.568156
-0.556477
-0.542585
-0.525394
-0.505431
-0.483557
-0.460701
-0.437714
-0.415255
-0.393768
-0.373507
-0.35458
-0.336995
-0.320703
-0.305623
-0.291657
-0.278707
-0.266678
-0.255477
-0.245028
-0.235259
-0.226056
-0.21727
-0.20941
-0.582126
-0.569664
-0.557539
-0.5427
-0.524192
-0.502739
-0.479393
-0.455209
-0.431102
-0.407743
-0.385557
-0.364763
-0.345437
-0.327557
-0.311049
-0.295812
-0.281736
-0.268713
-0.256639
-0.245417
-0.234966
-0.225211
-0.216027
-0.20726
-0.199492
-0.581762
-0.569324
-0.556752
-0.540943
-0.521113
-0.498208
-0.473466
-0.448061
-0.422955
-0.398819
-0.376051
-0.354833
-0.335204
-0.317114
-0.300466
-0.285142
-0.271019
-0.25798
-0.245913
-0.234718
-0.22431
-0.214612
-0.205485
-0.196776
-0.189138
-0.579328
-0.566973
-0.553957
-0.53717
-0.516038
-0.491743
-0.465705
-0.439204
-0.413234
-0.388453
-0.365225
-0.343693
-0.323861
-0.305649
-0.288938
-0.273596
-0.25949
-0.246492
-0.234487
-0.22337
-0.213053
-0.203453
-0.194425
-0.185812
-0.178341
-0.574681
-0.562466
-0.549015
-0.531257
-0.508867
-0.483269
-0.456057
-0.4286
-0.401911
-0.376623
-0.353061
-0.331328
-0.311391
-0.293145
-0.276451
-0.261163
-0.247138
-0.234242
-0.222354
-0.211366
-0.201187
-0.191732
-0.182843
-0.174366
-0.1671
-0.567695
-0.555676
-0.541807
-0.523103
-0.499521
-0.47273
-0.444484
-0.416225
-0.388968
-0.363316
-0.339548
-0.317727
-0.297785
-0.279594
-0.262997
-0.247835
-0.233957
-0.221224
-0.20951
-0.198703
-0.188711
-0.179447
-0.17074
-0.16244
-0.155418
-0.558267
-0.546499
-0.532235
-0.512629
-0.487943
-0.460088
-0.430965
-0.402067
-0.3744
-0.348528
-0.324683
-0.302886
-0.283041
-0.264994
-0.248574
-0.233611
-0.219947
-0.207438
-0.195955
-0.185383
-0.17563
-0.166603
-0.158122
-0.15004
-0.1433
-0.546316
-0.534851
-0.520227
-0.49978
-0.474098
-0.445327
-0.415494
-0.386127
-0.358211
-0.332263
-0.308469
-0.286811
-0.267161
-0.249347
-0.233184
-0.218493
-0.205111
-0.192889
-0.181695
-0.171413
-0.161949
-0.153208
-0.144998
-0.137179
-0.130759
-0.531788
-0.520677
-0.505735
-0.484524
-0.457974
-0.428449
-0.398082
-0.368422
-0.340418
-0.314538
-0.290921
-0.269511
-0.250155
-0.232662
-0.216835
-0.20249
-0.189457
-0.177585
-0.166739
-0.156803
-0.147681
-0.139275
-0.131384
-0.123872
-0.11781
-0.514653
-0.503945
-0.488736
-0.466855
-0.439579
-0.409473
-0.378757
-0.348978
-0.321046
-0.295375
-0.272058
-0.251005
-0.232038
-0.214952
-0.199541
-0.185613
-0.172997
-0.161538
-0.1511
-0.141566
-0.13284
-0.12482
-0.117296
-0.110138
-0.104473
-0.494907
-0.48465
-0.469236
-0.446793
-0.418945
-0.38844
-0.35756
-0.327837
-0.300133
-0.274808
-0.251911
-0.231319
-0.212834
-0.196239
-0.18132
-0.167881
-0.155747
-0.144764
-0.134795
-0.12572
-0.117444
-0.109863
-0.102757
-0.0960025
-0.0907719
-0.472573
-0.462815
-0.447264
-0.424377
-0.396123
-0.365406
-0.334546
-0.305051
-0.277726
-0.25288
-0.230516
-0.210485
-0.192572
-0.176548
-0.162195
-0.149313
-0.137728
-0.127282
-0.11784
-0.109282
-0.101513
-0.0944247
-0.0877913
-0.081492
-0.0767336
-0.4477
-0.438486
-0.422873
-0.399674
-0.371185
-0.340443
-0.309787
-0.280686
-0.253886
-0.229642
-0.207919
-0.188544
-0.171286
-0.155909
-0.142192
-0.129934
-0.118959
-0.109112
-0.100256
-0.0922731
-0.0850677
-0.0785299
-0.0724269
-0.0666386
-0.0623928
-0.420363
-0.411736
-0.396144
-0.372769
-0.344221
-0.313641
-0.283367
-0.254819
-0.22868
-0.205156
-0.184176
-0.165544
-0.149019
-0.13436
-0.121343
-0.10977
-0.099465
-0.0902745
-0.0820623
-0.0747116
-0.0681286
-0.0622012
-0.0566919
-0.0514782
-0.0477933
-0.39066
-0.382662
-0.367177
-0.34377
-0.315339
-0.285103
-0.255384
-0.227538
-0.20219
-0.179494
-0.159348
-0.141539
-0.125818
-0.111939
-0.0996825
-0.0888496
-0.0792684
-0.0707877
-0.0632739
-0.0566125
-0.0507111
-0.0454571
-0.0406116
-0.0360484
-0.0329824
-0.358712
-0.351384
-0.336097
-0.312802
-0.284663
-0.25495
-0.225946
-0.198944
-0.174505
-0.152737
-0.133509
-0.116595
-0.101738
-0.088696
-0.0772486
-0.0672031
-0.0583916
-0.0506675
-0.0439017
-0.0379831
-0.0328216
-0.028307
-0.0242047
-0.0203805
-0.0179881
-0.324664
-0.318042
-0.303046
-0.280009
-0.252334
-0.223313
-0.195178
-0.16915
-0.145728
-0.124976
-0.106741
-0.0907825
-0.0768434
-0.0646823
-0.0540841
-0.0448622
-0.0368553
-0.0299239
-0.0239456
-0.0188154
-0.014448
-0.0107396
-0.00746719
-0.00447602
-0.00279256
-0.288677
-0.282799
-0.268185
-0.24555
-0.218504
-0.190337
-0.163212
-0.138277
-0.11597
-0.0963143
-0.079136
-0.0641858
-0.0512065
-0.0399604
-0.030239
-0.0218633
-0.0146813
-0.00856273
-0.00339527
0.000916006
0.00444783
0.00729198
0.00965289
0.0117159
0.0126289
-0.250934
-0.245831
-0.231692
-0.2096
-0.183341
-0.156176
-0.130193
-0.106459
-0.0853539
-0.0668647
-0.050798
-0.0368991
-0.0249116
-0.0146032
-0.00577304
0.00174812
0.00810171
0.0134055
0.0177569
0.0212357
0.0239061
0.0258442
0.0272142
0.0281901
0.0280861
-0.211629
-0.207331
-0.193757
-0.172345
-0.147021
-0.120998
-0.0962751
-0.07384
-0.054014
-0.0367514
-0.0218428
-0.00902887
0.00194458
0.0113042
0.0192427
0.0259189
0.0314617
0.035972
0.0395248
0.0421743
0.0439674
0.0449499
0.045164
0.0446304
0.042955
-0.170974
-0.167506
-0.154584
-0.133979
-0.10973
-0.0849768
-0.0616211
-0.0405712
-0.0220929
-0.00610954
0.00760178
0.0193039
0.0292492
0.0376596
0.0447215
0.0505859
0.0553708
0.0591602
0.0620013
0.0639157
0.064923
0.0649856
0.0638257
0.0610978
0.0573178
-0.129188
-0.126573
-0.114385
-0.0947093
-0.0716612
-0.0482925
-0.0264003
-0.00681214
0.0102584
0.024916
0.0373954
0.0479624
0.056868
0.064332
0.0705387
0.0756388
0.0797505
0.0829565
0.0853002
0.0868064
0.0875091
0.087273
0.0853388
0.0809483
0.0762362
-0.0865042
-0.0847591
-0.0733805
-0.0547448
-0.0330133
-0.0111313
0.00921325
0.0272726
0.0428827
0.0561732
0.0673887
0.0767966
0.0846469
0.0911579
0.0965148
0.100873
0.104361
0.10708
0.10911
0.110554
0.111571
0.112106
0.111193
0.108273
0.11101
-0.0431505
-0.0422911
-0.031793
-0.0142988
0.00601302
0.0263186
0.0450427
0.0615159
0.0756201
0.0875069
0.0974285
0.105653
0.112426
0.117966
0.122455
0.12605
0.128884
0.131067
0.132699
0.133912
0.134876
0.135562
0.135422
0.134914
0.139984
0.000631469
0.000594353
0.0101486
0.0264114
0.0452145
0.0638677
0.0809107
0.0957502
0.108311
0.118763
0.127364
0.13438
0.140054
0.144599
0.148196
0.150999
0.153144
0.154744
0.155907
0.156763
0.157459
0.157962
0.157882
0.157752
0.162267
0.0446002
0.0436603
0.0522159
0.0671696
0.084389
0.101328
0.116641
0.12981
0.140798
0.149791
0.157049
0.162835
0.167386
0.17091
0.173582
0.175553
0.176954
0.177898
0.17849
0.178854
0.179118
0.179258
0.178948
0.178616
0.182116
0.0885147
0.0866702
0.0941809
0.107761
0.123336
0.138513
0.152062
0.163534
0.172929
0.180446
0.186345
0.190883
0.194293
0.196772
0.19849
0.199592
0.200202
0.200425
0.20036
0.200116
0.199804
0.199389
0.198575
0.197761
0.200299
0.132136
0.129389
0.135818
0.147973
0.161859
0.17524
0.187003
0.196765
0.204558
0.21059
0.215121
0.218402
0.220657
0.222075
0.222817
0.223021
0.222801
0.222257
0.221477
0.220557
0.21959
0.218529
0.217103
0.215705
0.217314
0.175227
0.171586
0.176906
0.187599
0.199766
0.211334
0.221302
0.229351
0.235542
0.240091
0.243255
0.245277
0.246372
0.24672
0.246475
0.245762
0.24469
0.243349
0.241816
0.240179
0.238512
0.23676
0.234679
0.232669
0.233391
0.217557
0.213034
0.217228
0.226435
0.236869
0.246621
0.254799
0.261146
0.265746
0.268824
0.27063
0.271402
0.271342
0.270622
0.269386
0.267751
0.265818
0.263666
0.261366
0.258994
0.256612
0.25416
0.251421
0.248797
0.24867
0.258902
0.253512
0.256574
0.264286
0.272989
0.280935
0.287343
0.29201
0.295043
0.29667
0.297139
0.296676
0.295476
0.293699
0.29148
0.28893
0.286137
0.283176
0.280109
0.277003
0.273909
0.270765
0.267383
0.26416
0.26322
0.299043
0.292808
0.29474
0.300963
0.30795
0.314118
0.318788
0.321808
0.323308
0.323517
0.322678
0.321006
0.318688
0.315875
0.312692
0.309241
0.305603
0.301846
0.298024
0.294197
0.290406
0.286592
0.282591
0.278788
0.277069
0.33777
0.330715
0.331532
0.336285
0.341587
0.346017
0.348993
0.350412
0.350423
0.349256
0.347146
0.344302
0.340898
0.337078
0.332957
0.328629
0.324169
0.319637
0.315082
0.310556
0.306093
0.301636
0.297045
0.292686
0.29022
0.374882
0.367039
0.366763
0.370078
0.373741
0.376486
0.377825
0.377701
0.376277
0.373784
0.370451
0.366477
0.362027
0.357236
0.352212
0.347039
0.341788
0.33651
0.33125
0.326053
0.320949
0.315881
0.31073
0.305841
0.302662
0.410189
0.401591
0.400255
0.402178
0.40426
0.405387
0.405158
0.403557
0.400762
0.397003
0.392502
0.387449
0.382001
0.376283
0.370395
0.364417
0.358409
0.352421
0.34649
0.340656
0.334943
0.329299
0.323624
0.318233
0.314375
0.443509
0.434196
0.431844
0.432431
0.433004
0.43259
0.430872
0.427872
0.423778
0.41882
0.413213
0.40714
0.400746
0.394151
0.387447
0.380706
0.373985
0.367325
0.360762
0.354328
0.348043
0.341861
0.335697
0.329832
0.325332
0.474673
0.464688
0.46137
0.460692
0.459838
0.457974
0.454856
0.450542
0.44523
0.439148
0.432505
0.425474
0.418195
0.410778
0.403309
0.395855
0.388465
0.381178
0.374024
0.367031
0.360214
0.353532
0.346915
0.340607
0.335504
0.503523
0.492913
0.48869
0.486825
0.48464
0.481424
0.477005
0.471471
0.465028
0.457904
0.450299
0.442381
0.434281
0.426103
0.417926
0.40981
0.401802
0.393935
0.386235
0.378725
0.371417
0.364276
0.357244
0.350527
0.344862
0.529915
0.518731
0.51367
0.510708
0.507295
0.502836
0.497223
0.490569
0.483091
0.475011
0.466527
0.457796
0.448945
0.440069
0.431244
0.422524
0.41395
0.405553
0.397354
0.389373
0.381619
0.37406
0.36665
0.359558
0.353377
0.553715
0.542012
0.536187
0.532228
0.5277
0.522116
0.515422
0.507757
0.499343
0.490401
0.481122
0.471658
0.462129
0.452624
0.443214
0.433949
0.424866
0.415991
0.407344
0.398939
0.390782
0.38285
0.375102
0.367671
0.361021
0.574805
0.56264
0.556132
0.551282
0.545762
0.539176
0.531522
0.52296
0.513716
0.504009
0.494026
0.483912
0.473781
0.46372
0.453792
0.444044
0.434509
0.425212
0.416167
0.407387
0.398876
0.390614
0.382568
0.374836
0.367768
0.593079
0.580512
0.573409
0.567782
0.561397
0.553941
0.545454
0.536113
0.526149
0.51578
0.505186
0.494509
0.483857
0.473313
0.462936
0.452769
0.442844
0.433181
0.423793
0.414689
0.405871
0.397323
0.38902
0.381027
0.373595
0.608446
0.595542
0.587934
0.58165
0.574536
0.566346
0.557158
0.547161
0.536591
0.525664
0.514556
0.503405
0.492316
0.481365
0.470611
0.460093
0.44984
0.439869
0.430192
0.420816
0.411741
0.402954
0.394435
0.386222
0.378483
0.620831
0.607653
0.599637
0.592821
0.585118
0.576336
0.566581
0.556055
0.544997
0.53362
0.522098
0.510566
0.499123
0.487845
0.476787
0.465986
0.455468
0.44525
0.435341
0.425745
0.416463
0.407484
0.398792
0.390401
0.382413
0.630172
0.616788
0.608462
0.601244
0.593094
0.583865
0.573682
0.562758
0.551332
0.539616
0.527781
0.51596
0.504251
0.492727
0.481439
0.470425
0.459708
0.449303
0.439219
0.429458
0.420019
0.410896
0.402074
0.393548
0.385372
0.636422
0.622899
0.614367
0.606878
0.59843
0.588901
0.578432
0.567241
0.555567
0.543624
0.531581
0.519567
0.50768
0.495991
0.48455
0.473392
0.462542
0.452012
0.441811
0.431939
0.422397
0.413177
0.404267
0.395651
0.387349
0.63955
0.625959
0.617322
0.609698
0.6011
0.591421
0.580809
0.569484
0.557687
0.54563
0.533482
0.521372
0.509395
0.497623
0.486105
0.474876
0.463959
0.453367
0.443107
0.43318
0.423585
0.414317
0.405364
0.396703
0.388338
0.639542
0.62595
0.617314
0.60969
0.601093
0.591414
0.580802
0.569477
0.557681
0.545624
0.533476
0.521366
0.50939
0.497618
0.4861
0.474872
0.463954
0.453362
0.443102
0.433176
0.423581
0.414313
0.40536
0.396699
0.388334
0.636397
0.622874
0.614342
0.606855
0.598408
0.588879
0.578412
0.567221
0.555549
0.543606
0.531564
0.51955
0.507664
0.495975
0.484534
0.473377
0.462527
0.451998
0.441797
0.431926
0.422383
0.413164
0.404254
0.395639
0.387337
0.63013
0.616746
0.608422
0.601205
0.593057
0.583829
0.573648
0.562726
0.5513
0.539585
0.527752
0.515932
0.504224
0.492701
0.481414
0.4704
0.459684
0.449279
0.439196
0.429435
0.419998
0.410875
0.402053
0.393528
0.385352
0.620772
0.607595
0.599581
0.592767
0.585065
0.576286
0.566533
0.55601
0.544953
0.533578
0.522058
0.510526
0.499085
0.487809
0.476751
0.465951
0.455434
0.445217
0.435309
0.425714
0.416432
0.407454
0.398763
0.390372
0.382386
0.608371
0.595467
0.587861
0.58158
0.574469
0.566282
0.557096
0.547102
0.536535
0.52561
0.514504
0.503355
0.492267
0.481318
0.470565
0.460049
0.449797
0.439827
0.430151
0.420776
0.411702
0.402916
0.394398
0.386185
0.378448
0.592986
0.580421
0.57332
0.567696
0.561315
0.553863
0.545379
0.536041
0.52608
0.515714
0.505122
0.494447
0.483798
0.473255
0.46288
0.452715
0.442792
0.43313
0.423743
0.41464
0.405823
0.397277
0.388975
0.380982
0.373552
0.574695
0.562531
0.556027
0.55118
0.545665
0.539083
0.531434
0.522875
0.513634
0.503931
0.49395
0.483839
0.473711
0.463652
0.453726
0.443979
0.434447
0.425151
0.416108
0.40733
0.39882
0.390559
0.382514
0.374783
0.367717
0.553589
0.541887
0.536065
0.532111
0.527588
0.522009
0.51532
0.507659
0.499249
0.490311
0.481035
0.471574
0.462048
0.452546
0.443138
0.433875
0.424794
0.415921
0.407275
0.398872
0.390717
0.382786
0.37504
0.36761
0.360962
0.529772
0.51859
0.513532
0.510576
0.507169
0.502715
0.497107
0.490458
0.482984
0.474909
0.466428
0.457701
0.448853
0.43998
0.431158
0.42244
0.413869
0.405474
0.397277
0.389298
0.381545
0.373988
0.36658
0.35949
0.35331
0.503364
0.492755
0.488536
0.486677
0.484499
0.481289
0.476876
0.471347
0.464909
0.457789
0.450189
0.442275
0.434179
0.426004
0.417829
0.409717
0.401711
0.393847
0.386149
0.378641
0.371335
0.364196
0.357166
0.35045
0.344787
0.474497
0.464513
0.4612
0.460528
0.459682
0.457824
0.454713
0.450405
0.445098
0.439022
0.432383
0.425356
0.418081
0.410668
0.403203
0.395751
0.388365
0.38108
0.373929
0.366938
0.360123
0.353443
0.346828
0.340523
0.335422
0.443316
0.434005
0.431658
0.432252
0.432833
0.432427
0.430716
0.427722
0.423634
0.418682
0.41308
0.407011
0.400622
0.394031
0.387331
0.380593
0.373875
0.367218
0.360658
0.354227
0.347944
0.341764
0.335602
0.329739
0.325242
0.40998
0.401384
0.400054
0.401984
0.404074
0.405209
0.404988
0.403395
0.400606
0.396853
0.392357
0.38731
0.381866
0.376152
0.370269
0.364294
0.35829
0.352305
0.346377
0.340546
0.334835
0.329194
0.323522
0.318132
0.314277
0.374657
0.366815
0.366545
0.369868
0.37354
0.376294
0.377641
0.377525
0.376108
0.373622
0.370295
0.366326
0.361882
0.357096
0.352075
0.346907
0.341659
0.336385
0.331129
0.325935
0.320833
0.315768
0.31062
0.305733
0.302557
0.337528
0.330476
0.331298
0.33606
0.341372
0.345811
0.348796
0.350224
0.350242
0.349082
0.346979
0.34414
0.340742
0.336927
0.33281
0.328487
0.324031
0.319503
0.314952
0.310429
0.305969
0.301515
0.296926
0.29257
0.290108
0.298785
0.292552
0.29449
0.300723
0.30772
0.313898
0.318578
0.321607
0.323114
0.323331
0.322499
0.320834
0.318521
0.315714
0.312536
0.309089
0.305456
0.301702
0.297885
0.294061
0.290274
0.286463
0.282464
0.278664
0.276949
0.258628
0.25324
0.256308
0.264031
0.272744
0.280701
0.28712
0.291795
0.294837
0.296473
0.296949
0.296493
0.295298
0.293527
0.291314
0.288768
0.28598
0.283024
0.279961
0.276858
0.273768
0.270628
0.267249
0.264028
0.263093
0.217267
0.212746
0.216947
0.226164
0.23661
0.246373
0.254562
0.260919
0.265529
0.268615
0.270429
0.271207
0.271154
0.27044
0.269209
0.26758
0.265651
0.263504
0.261209
0.258841
0.256462
0.254014
0.251278
0.248658
0.248535
0.17492
0.171282
0.176609
0.187313
0.199492
0.211072
0.221052
0.229111
0.235312
0.23987
0.243042
0.245072
0.246173
0.246528
0.246288
0.245581
0.244514
0.243178
0.24165
0.240017
0.238354
0.236606
0.234529
0.232522
0.233248
0.131813
0.129069
0.135506
0.147672
0.161571
0.174965
0.18674
0.196513
0.204315
0.210357
0.214897
0.218186
0.220448
0.221872
0.222621
0.22283
0.222616
0.222077
0.221302
0.220387
0.219424
0.218367
0.216944
0.21555
0.217164
0.0881763
0.0863348
0.0938535
0.107445
0.123034
0.138223
0.151785
0.163269
0.172675
0.180202
0.186109
0.190656
0.194073
0.196559
0.198284
0.199392
0.200007
0.200236
0.200176
0.199937
0.199629
0.199219
0.198409
0.197599
0.200141
0.0442463
0.0433094
0.0518732
0.066839
0.0840721
0.101025
0.116352
0.129533
0.140532
0.149535
0.156802
0.162596
0.167156
0.170687
0.173365
0.175343
0.17675
0.1777
0.178297
0.178665
0.178935
0.179079
0.178773
0.178445
0.18195
0.000262077
0.000228022
0.00979076
0.0260661
0.0448835
0.0635511
0.0806078
0.0954602
0.108032
0.118495
0.127106
0.134131
0.139813
0.144366
0.147969
0.15078
0.15293
0.154536