/*--------------------------------*- C++ -*----------------------------------*\
  =========                 |
  \\      /  F ield         | OpenFOAM: The Open Source CFD Toolbox
   \\    /   O peration     | Website:  https://openfoam.org
    \\  /    A nd           | Version:  6.0
     \\/     M anipulation  |
\*---------------------------------------------------------------------------*/
FoamFile
{
    version     2.0;
    format      ascii;
    class       surfaceScalarField;
    location    "6";
    object      phi;
}
// * * * * * * * * * * * * * * * * * * * * * * * * * * * * * * * * * * * * * //

dimensions      [0 3 -1 0 0 0 0];

internalField   nonuniform List<scalar> 
24700
(
-5.24364e-06
4.97899e-06
2.64642e-07
-1.83056e-05
1.24167e-05
6.45282e-07
-3.73352e-05
1.81166e-05
9.1298e-07
-6.096e-05
2.25308e-05
1.09399e-06
-8.81406e-05
2.5971e-05
1.20956e-06
-0.00011809
2.86723e-05
1.27685e-06
-0.000150212
3.08132e-05
1.30932e-06
-0.00018406
3.25304e-05
1.31723e-06
-0.000219297
3.39295e-05
1.30814e-06
-0.000255678
3.50929e-05
1.28735e-06
-0.000293021
3.60845e-05
1.25845e-06
-0.000331199
3.69545e-05
1.22366e-06
-0.000370126
3.77424e-05
1.18429e-06
-0.000409746
3.84792e-05
1.141e-06
-0.00045003
3.91898e-05
1.09408e-06
-0.000490967
3.98943e-05
1.04361e-06
-0.000532566
4.06091e-05
9.89588e-07
-0.000574846
4.13475e-05
9.32025e-07
-0.000617837
4.212e-05
8.70986e-07
-0.000661578
4.29347e-05
8.06604e-07
-0.000706115
4.37975e-05
7.39084e-07
-0.000751495
4.47115e-05
6.68713e-07
-0.000797765
4.56742e-05
5.95637e-07
-0.000844966
4.66815e-05
5.20109e-07
4.77522e-05
4.4237e-07
-0.000893161
-5.11778e-06
1.00968e-05
-1.78916e-05
2.51905e-05
-3.65255e-05
3.67505e-05
-5.96811e-05
4.56864e-05
-8.63402e-05
5.26301e-05
-0.000115728
5.80598e-05
-0.000147254
6.23398e-05
-0.000180473
6.57495e-05
-0.000215049
6.85052e-05
-0.000250731
7.07748e-05
-0.000287336
7.26891e-05
-0.000324731
7.43497e-05
-0.000362825
7.58364e-05
-0.000401558
7.7212e-05
-0.000440894
7.85266e-05
-0.000480821
7.98204e-05
-0.000521338
8.11266e-05
-0.000562463
8.2472e-05
-0.000604221
8.38782e-05
-0.000646648
8.53621e-05
-0.000689787
8.69364e-05
-0.000733684
8.86084e-05
-0.000778384
9.03743e-05
-0.000823929
9.22267e-05
9.42019e-05
-0.000870379
-4.86953e-06
1.49663e-05
-1.70738e-05
3.73948e-05
-3.4924e-05
5.46007e-05
-5.71495e-05
6.79119e-05
-8.27739e-05
7.82546e-05
-0.000111046
8.63321e-05
-0.000141389
9.26825e-05
-0.000173359
9.77199e-05
-0.00020662
0.000101766
-0.000240915
0.00010507
-0.000276054
0.000107828
-0.000311895
0.000110191
-0.000348338
0.00011228
-0.000385313
0.000114187
-0.000422775
0.000115989
-0.0004607
0.000117745
-0.000499081
0.000119507
-0.000537924
0.000121316
-0.00057725
0.000123204
-0.000617087
0.000125199
-0.000657473
0.000127322
-0.00069845
0.000129586
-0.000740064
0.000131988
-0.000782356
0.000134519
0.00013723
-0.000825385
-4.50995e-06
1.94763e-05
-1.5886e-05
4.87709e-05
-3.25934e-05
7.13081e-05
-5.34591e-05
8.87776e-05
-7.75675e-05
0.000102363
-0.000104203
0.000112968
-0.000132806
0.000121286
-0.00016294
0.000127854
-0.000194267
0.000133092
-0.000226522
0.000137326
-0.000259506
0.000140812
-0.000293066
0.000143751
-0.000327087
0.0001463
-0.000361485
0.000148585
-0.000396201
0.000150705
-0.000431199
0.000152743
-0.000466458
0.000154766
-0.000501973
0.000156831
-0.000537754
0.000158984
-0.00057382
0.000161265
-0.000610203
0.000163705
-0.000646942
0.000166325
-0.000684082
0.000169128
-0.000721665
0.000172102
0.000175316
-0.000759751
-4.0549e-06
2.35312e-05
-1.43774e-05
5.90934e-05
-2.96248e-05
8.65555e-05
-4.87467e-05
0.000107899
-7.09049e-05
0.000124521
-9.54296e-05
0.000137492
-0.000121785
0.000147641
-0.000149545
0.000155614
-0.000178368
0.000161915
-0.000207985
0.000166943
-0.000238182
0.00017101
-0.000268793
0.000174362
-0.000299687
0.000177194
-0.000330764
0.000179661
-0.000361947
0.000181889
-0.000393184
0.000183979
-0.000424437
0.000186019
-0.000455688
0.000188082
-0.000486933
0.000190229
-0.000518182
0.000192514
-0.000549459
0.000194982
-0.000580801
0.000197667
-0.000612253
0.00020058
-0.000643864
0.000203713
0.00020715
-0.000675698
-3.52425e-06
2.70554e-05
-1.26097e-05
6.81788e-05
-2.61333e-05
0.000100079
-4.31863e-05
0.000124953
-6.30212e-05
0.000144356
-8.50228e-05
0.000159494
-0.000108685
0.000171304
-0.000133595
0.000180523
-0.000159411
0.000187731
-0.000185858
0.00019339
-0.000212711
0.000197862
-0.000239786
0.000201437
-0.000266935
0.000204343
-0.00029404
0.000206766
-0.000321006
0.000208855
-0.00034776
0.000210733
-0.000374248
0.000212508
-0.000400435
0.000214269
-0.000426303
0.000216098
-0.000451852
0.000218063
-0.000477097
0.000220227
-0.000502074
0.000222644
-0.000526833
0.000225338
-0.000551433
0.000228314
0.000231667
-0.000575951
-2.9407e-06
2.99961e-05
-1.0654e-05
7.58921e-05
-2.22528e-05
0.000111678
-3.69818e-05
0.000139682
-5.41932e-05
0.000161567
-7.33339e-05
0.000178634
-9.39335e-05
0.000191904
-0.000115594
0.000202183
-0.00013798
0.000210117
-0.00016081
0.000216219
-0.000183846
0.000220898
-0.000206891
0.000224482
-0.000229779
0.000227232
-0.000252372
0.000229359
-0.000274556
0.000231038
-0.000296238
0.000232415
-0.000317345
0.000233615
-0.000337824
0.000234748
-0.000357642
0.000235916
-0.000376787
0.000237208
-0.000395268
0.000238709
-0.000413121
0.000240496
-0.000430403
0.000242621
-0.000447193
0.000245104
0.000248063
-0.000463589
-2.32861e-06
3.23247e-05
-8.58794e-06
8.21514e-05
-1.81302e-05
0.00012122
-3.03583e-05
0.00015191
-4.47292e-05
0.000175938
-6.07566e-05
0.000194662
-7.801e-05
0.000209157
-9.61121e-05
0.000220286
-0.000114735
0.00022874
-0.000133594
0.000235078
-0.000152443
0.000239748
-0.000171071
0.00024311
-0.000189296
0.000245456
-0.00020696
0.000247023
-0.00022393
0.000248008
-0.000240093
0.000248578
-0.000255357
0.000248878
-0.000269651
0.000249041
-0.000282924
0.000249189
-0.000295153
0.000249437
-0.000306342
0.000249897
-0.000316524
0.000250679
-0.000325772
0.000251869
-0.000334189
0.00025352
0.000255782
-0.000341908
-1.71278e-06
3.40375e-05
-6.49122e-06
8.69299e-05
-1.39187e-05
0.000128648
-2.35531e-05
0.000161544
-3.49564e-05
0.000187342
-4.77115e-05
0.000207417
-6.14315e-05
0.000222877
-7.57639e-05
0.000234618
-9.03915e-05
0.000243368
-0.000105032
0.000249718
-0.000119433
0.000254149
-0.000133373
0.00025705
-0.000146655
0.000258738
-0.000159105
0.000259474
-0.000170572
0.000259475
-0.000180922
0.000258928
-0.000190044
0.000258001
-0.000197847
0.000256845
-0.000204265
0.000255607
-0.00020926
0.000254432
-0.000212828
0.000253465
-0.000215005
0.000252856
-0.000215877
0.000252741
-0.000215582
0.000253224
0.000254504
-0.000214304
-1.11723e-06
3.51548e-05
-4.44239e-06
9.0255e-05
-9.77074e-06
0.000133976
-1.68046e-05
0.000168578
-2.52069e-05
0.000195744
-3.46295e-05
0.000216839
-4.47308e-05
0.000232978
-5.51868e-05
0.000245074
-6.56958e-05
0.000253877
-7.59808e-05
0.000260003
-8.57893e-05
0.000263957
-9.48921e-05
0.000266153
-0.000103082
0.000266928
-0.000110171
0.000266563
-0.00011599
0.000265294
-0.000120389
0.000263327
-0.000123236
0.000260847
-0.00012442
0.000258029
-0.000123856
0.000255043
-0.00012149
0.000252066
-0.000117307
0.000249282
-0.000111344
0.000246893
-0.000103702
0.0002451
-9.45603e-05
0.000244082
0.000244116
-8.41723e-05
-5.64038e-07
3.57188e-05
-2.51494e-06
9.22059e-05
-5.83089e-06
0.000137292
-1.0342e-05
0.000173089
-1.58033e-05
0.000201205
-2.19323e-05
0.000222968
-2.84335e-05
0.00023948
-3.5014e-05
0.000251654
-4.13915e-05
0.000260254
-4.72999e-05
0.000265911
-5.24902e-05
0.000269148
-5.67315e-05
0.000270394
-5.98098e-05
0.000270006
-6.15274e-05
0.00026828
-6.17017e-05
0.000265469
-6.01653e-05
0.000261791
-5.67672e-05
0.000257449
-5.13755e-05
0.000252637
-4.38829e-05
0.000247551
-3.42146e-05
0.000242398
-2.23407e-05
0.000237408
-8.29223e-06
0.000232844
7.81494e-06
0.000228993
2.57581e-05
0.000226139
0.00022468
4.51939e-05
-7.24134e-08
3.57912e-05
-7.73971e-07
9.29075e-05
-2.22928e-06
0.000138747
-4.37408e-06
0.000175234
-7.0428e-06
0.000203874
-1.00128e-05
0.000225938
-1.30333e-05
0.0002425
-1.58439e-05
0.000254465
-1.81858e-05
0.000262596
-1.98081e-05
0.000267534
-2.04708e-05
0.00026981
-1.99464e-05
0.00026987
-1.80199e-05
0.00026808
-1.44877e-05
0.000264748
-9.15749e-06
0.000260138
-1.84765e-06
0.000254481
7.6113e-06
0.00024799
1.93737e-05
0.000240875
3.35727e-05
0.000233352
5.03096e-05
0.000225661
6.96387e-05
0.000218079
9.15435e-05
0.000210939
0.000115902
0.000204634
0.000142447
0.000199595
0.000196402
0.000170725
3.42147e-07
3.54491e-05
7.26765e-07
9.25229e-05
9.24783e-07
0.000138549
9.2113e-07
0.000175237
8.17755e-07
0.000203977
7.85878e-07
0.00022597
1.03481e-06
0.000242251
1.79187e-06
0.000253708
3.29011e-06
0.000261098
5.76096e-06
0.000265063
9.43021e-06
0.000266141
1.45163e-05
0.000264784
2.12301e-05
0.000261366
2.97753e-05
0.000256203
4.03497e-05
0.000249564
5.31457e-05
0.000241685
6.83495e-05
0.000232787
8.61387e-05
0.000223085
0.000106676
0.000212814
0.000130097
0.000202239
0.000156492
0.000191684
0.000185874
0.000181558
0.000218129
0.000172379
0.000252949
0.000164774
0.000159592
0.000289759
6.68458e-07
3.47806e-05
1.94733e-06
9.1244e-05
3.54828e-06
0.000136948
5.40579e-06
0.00017338
7.57634e-06
0.000201807
1.01902e-05
0.000223356
1.34205e-05
0.000239021
1.74627e-05
0.000249666
2.25227e-05
0.000256038
2.88094e-05
0.000258776
3.65301e-05
0.000258421
4.58892e-05
0.000255425
5.70876e-05
0.000250168
7.03241e-05
0.000242967
8.57963e-05
0.000234092
0.000103703
0.000223779
0.000124245
0.000212245
0.000147621
0.000199709
0.000174027
0.000186408
0.000203641
0.000172625
0.000236601
0.000158724
0.000272968
0.000145191
0.000312658
0.000132689
0.000355341
0.000122092
0.000114629
0.000400304
9.00073e-07
3.38805e-05
2.86351e-06
8.92806e-05
5.5889e-06
0.000134223
8.99039e-06
0.000169978
1.30986e-05
0.000197699
1.80153e-05
0.00021844
2.38838e-05
0.000233152
3.08715e-05
0.000242678
3.91574e-05
0.000247752
4.89265e-05
0.000249007
6.03649e-05
0.000246982
7.36591e-05
0.00024213
8.89956e-05
0.000234831
0.000106563
0.000225399
0.000126553
0.000214101
0.000149167
0.000201165
0.000174613
0.0001868
0.00020311
0.000171212
0.000234887
0.000154632
0.000270167
0.000137345
0.000309149
0.000119741
0.000351961
0.000102379
0.000398576
8.6074e-05
0.000448668
7.19993e-05
6.1907e-05
0.00050139
1.03556e-06
3.2845e-05
3.46811e-06
8.6848e-05
7.02839e-06
0.000130663
1.16401e-05
0.000165367
1.73285e-05
0.00019201
2.41799e-05
0.000211588
3.23173e-05
0.000225015
4.18845e-05
0.000233111
5.30371e-05
0.000236599
6.5937e-05
0.000236107
8.07489e-05
0.00023217
9.76397e-05
0.00022524
0.000116779
0.000215691
0.000138342
0.000203837
0.000162511
0.000189932
0.000189481
0.000174195
0.000219463
0.000156817
0.000252691
0.000137984
0.000289417
0.000117905
0.000329911
9.68516e-05
0.000374435
7.52172e-05
0.0004232
5.36147e-05
0.000476262
3.30117e-05
0.000533337
1.49239e-05
1.78237e-06
0.000593462
1.07861e-06
3.17664e-05
3.77165e-06
8.4155e-05
7.8845e-06
0.00012655
1.33791e-05
0.000159872
2.02953e-05
0.000185094
2.87187e-05
0.000203165
3.87622e-05
0.000214972
5.05543e-05
0.000221319
6.42325e-05
0.000222921
7.994e-05
0.0002204
9.78231e-05
0.000214287
0.000118032
0.000205031
0.000140719
0.000193004
0.000166046
0.00017851
0.000194181
0.000161797
0.000225311
0.000143065
0.000259641
0.000122487
0.000297407
0.000100219
0.000338874
7.64382e-05
0.000384342
5.13835e-05
0.000434129
2.54304e-05
0.000488526
-7.83034e-07
0.000547696
-2.61581e-05
0.000611435
-4.88155e-05
-6.54886e-05
0.000678706
1.03801e-06
3.07283e-05
3.80242e-06
8.13906e-05
8.21142e-06
0.000122141
1.42915e-05
0.000153792
2.21167e-05
0.000177269
3.17873e-05
0.000193494
4.34182e-05
0.000203341
5.71328e-05
0.000207604
7.30599e-05
0.000206994
9.1332e-05
0.000202128
0.000112085
0.000193534
0.000135456
0.000181659
0.00016159
0.00016687
0.000190634
0.000149466
0.000222746
0.000129684
0.000258099
0.000107712
0.000296886
8.37003e-05
0.000339326
5.77785e-05
0.000385678
3.00859e-05
0.000436244
8.17515e-07
0.000491366
-2.96912e-05
0.000551394
-6.08108e-05
0.000616588
-9.13524e-05
0.000686863
-0.000119091
-0.000139803
0.000761178
9.27401e-07
2.98009e-05
3.60564e-06
7.87123e-05
8.09833e-06
0.000117648
1.45198e-05
0.00014737
2.29971e-05
0.000168792
3.36606e-05
0.000182831
4.66413e-05
0.00019036
6.20707e-05
0.000192175
8.00812e-05
0.000188983
0.000100807
0.000181402
0.000124384
0.000169957
0.000150952
0.000155092
0.000180651
0.000137171
0.000213627
0.00011649
0.00025003
9.32813e-05
0.000290018
6.77244e-05
0.000333761
3.99571e-05
0.000381449
1.00905e-05
0.000433301
-2.17657e-05
0.000489576
-5.54578e-05
0.000550586
-9.0701e-05
0.000616681
-0.000126906
0.00068818
-0.000162851
0.000765126
-0.000196037
-0.000221246
0.000846569
7.64777e-07
2.90362e-05
3.24169e-06
7.62354e-05
7.66578e-06
0.000113224
1.42592e-05
0.000140777
2.32191e-05
0.000159832
3.4722e-05
0.000171328
4.89307e-05
0.000176151
6.60001e-05
0.000175105
8.60821e-05
0.000168902
0.000109328
0.000158156
0.00013589
0.000143395
0.000165922
0.00012506
0.000199578
0.000103516
0.00023701
7.90583e-05
0.000278367
5.19238e-05
0.000323795
2.22962e-05
0.000373435
-9.68243e-06
0.000427424
-4.38991e-05
0.000485908
-8.02491e-05
0.000549048
-0.000118598
0.000617046
-0.000158699
0.000690159
-0.000200019
0.000768674
-0.000241366
0.000852728
-0.000280091
-0.000310087
0.000941568
5.71702e-07
2.84645e-05
2.78317e-06
7.40239e-05
7.05964e-06
0.000108948
1.37472e-05
0.000134089
2.31288e-05
0.00015045
3.54432e-05
0.000159014
5.09014e-05
0.000160693
6.96991e-05
0.000156308
9.20248e-05
0.000146576
0.000118065
0.000132116
0.000148005
0.000113454
0.000182031
9.10344e-05
0.000220322
6.52246e-05
0.00026305
3.63301e-05
0.000310371
4.60212e-06
0.000362421
-2.97529e-05
0.000419302
-6.65633e-05
0.000481083
-0.000105681
0.000547799
-0.000146965
0.000619456
-0.000190255
0.000696058
-0.000235301
0.000777645
-0.000281606
0.000864329
-0.00032805
0.000956233
-0.000371995
-0.000406714
0.00105286
3.72115e-07
2.80923e-05
2.31081e-06
7.20852e-05
6.44262e-06
0.000104816
1.32498e-05
0.000127282
2.31148e-05
0.000140585
3.63542e-05
0.000145774
5.32438e-05
0.000143803
7.40374e-05
0.000135514
9.89781e-05
0.000121635
0.000128304
0.00010279
0.000162252
7.95071e-05
0.00020105
5.22359e-05
0.000244919
2.1356e-05
0.000294056
-1.28073e-05
0.00034863
-4.99716e-05
0.000408762
-8.98848e-05
0.000474513
-0.000132314
0.000545868
-0.000177036
0.000622722
-0.000223819
0.000704879
-0.000272412
0.000792067
-0.000322488
0.000883985
-0.000373525
0.000980388
-0.000424452
0.00108115
-0.000472758
-0.000511533
0.00118597
1.90806e-07
2.79015e-05
1.90824e-06
7.03678e-05
5.98355e-06
0.000100741
1.30433e-05
0.000120223
2.35812e-05
0.000130047
3.80053e-05
0.00013135
5.6672e-05
0.000125137
7.99089e-05
0.000112277
0.000108029
9.35153e-05
0.000141336
6.94828e-05
0.000180125
4.07174e-05
0.000224681
7.68044e-06
0.000275263
-2.9226e-05
0.000332097
-6.96418e-05
0.000395359
-0.000113233
0.000465151
-0.000159677
0.000541485
-0.000208648
0.00062425
-0.000259801
0.000713193
-0.000312762
0.000807893
-0.000367112
0.000907755
-0.000422351
0.00101205
-0.000477817
0.00111999
-0.000532397
0.0012309
-0.000583665
-0.000625161
0.00134453
5.1645e-08
2.78499e-05
1.65612e-06
6.87633e-05
5.84555e-06
9.65511e-05
1.33948e-05
0.000112673
2.49177e-05
0.000118524
4.09254e-05
0.000115342
6.18669e-05
0.000104195
8.81555e-05
8.59887e-05
0.000120183
6.14877e-05
0.000158325
3.13406e-05
0.00020294
-3.8969e-06
0.000254358
-4.37376e-05
0.000312873
-8.77411e-05
0.000378724
-0.000135494
0.000452079
-0.000186588
0.000533009
-0.000240607
0.000621468
-0.000297106
0.000717261
-0.000355593
0.000820012
-0.000415513
0.00092912
-0.00047622
0.00104371
-0.00053694
0.00116259
-0.000596703
0.0012843
-0.000654101
0.0014072
-0.000706565
-0.000749031
0.00153107
-2.42287e-08
2.78741e-05
1.62624e-06
6.71129e-05
6.17413e-06
9.20032e-05
1.45426e-05
0.000104305
2.74705e-05
0.000105596
4.55798e-05
9.72332e-05
6.94197e-05
8.03555e-05
9.94941e-05
5.59143e-05
0.000136275
2.47071e-05
0.000180204
-1.25883e-05
0.000231687
-5.53806e-05
0.000291086
-0.000103136
0.000358699
-0.000155354
0.000434745
-0.00021154
0.000519351
-0.000271194
0.000612528
-0.000333785
0.000714164
-0.000398742
0.000824007
-0.000465437
0.000941657
-0.000533163
0.00106654
-0.000601106
0.00119789
-0.000668286
0.00133462
-0.00073343
0.00147498
-0.000794461
0.00161515
-0.000846738
-0.000879487
0.0017456
-2.04997e-08
2.78946e-05
1.87561e-06
6.52167e-05
7.08607e-06
8.67928e-05
1.66779e-05
9.4713e-05
3.15161e-05
9.0758e-05
5.23353e-05
7.64139e-05
7.97855e-05
5.29053e-05
0.000114457
2.12425e-05
0.000156892
-1.77272e-05
0.000207577
-6.32739e-05
0.000266941
-0.000114744
0.000335332
-0.000171527
0.000413004
-0.000233026
0.000500102
-0.000298638
0.000596645
-0.000367737
0.000702523
-0.000439662
0.000817497
-0.000513716
0.000941223
-0.000589163
0.00107329
-0.000665229
0.0012133
-0.000741113
0.00136101
-0.000815998
0.00151662
-0.000889039
0.00168141
-0.00095925
0.00185995
-0.00102528
-0.00108335
0.00206381
7.51085e-08
2.78195e-05
2.44616e-06
6.28457e-05
8.66621e-06
8.05727e-05
1.99378e-05
8.34414e-05
3.72478e-05
7.34479e-05
6.14394e-05
5.22224e-05
9.32551e-05
2.10896e-05
0.000133357
-1.88599e-05
0.000182333
-6.67025e-05
0.000240682
-0.000121623
0.000308805
-0.000182868
0.000386983
-0.000249705
0.000475355
-0.000321399
0.000573909
-0.000397192
0.000682468
-0.000476296
0.000800695
-0.000557889
0.000928107
-0.000641128
0.0010641
-0.000725158
0.00120801
-0.000809138
0.00135917
-0.00089227
0.00151701
-0.000973841
0.00168123
-0.00105326
0.00185205
-0.00113007
0.00203049
-0.00120371
-0.00126921
0.00221635
2.6774e-07
2.75518e-05
3.35875e-06
5.97547e-05
1.09592e-05
7.29722e-05
2.43948e-05
7.00058e-05
4.47643e-05
5.30785e-05
7.30074e-05
2.39792e-05
0.000109942
-1.58446e-05
0.000156275
-6.51933e-05
0.000212601
-0.000123029
0.000279385
-0.000188407
0.000356937
-0.00026042
0.000445396
-0.000338164
0.000544706
-0.000420709
0.000654608
-0.000507094
0.000774637
-0.000596324
0.000904131
-0.000687383
0.00104226
-0.000779257
0.00118806
-0.000870955
0.00134047
-0.000961547
0.0014984
-0.0010502
0.00166078
-0.00113622
0.0018266
-0.00121908
0.00199495
-0.00129842
0.00216496
-0.00137372
-0.00143985
0.0023356
5.57736e-07
2.6994e-05
4.61766e-06
5.56948e-05
1.39756e-05
6.36143e-05
3.00639e-05
5.39175e-05
5.40776e-05
2.90648e-05
8.70327e-05
-8.97587e-06
0.000129794
-5.86055e-05
0.000183075
-0.000118475
0.000247429
-0.000187382
0.000323218
-0.000264196
0.000410593
-0.000347795
0.000509467
-0.000437038
0.000619505
-0.000530747
0.000740116
-0.000627705
0.000870466
-0.000726674
0.00100951
-0.000826423
0.001156
-0.000925755
0.0013086
-0.00102355
0.00146585
-0.00111879
0.00162627
-0.00121063
0.0017884
-0.00129836
0.00195082
-0.00138149
0.00211211
-0.00145971
0.00227095
-0.00153256
-0.00159564
0.00242673
9.41239e-07
2.60528e-05
6.21291e-06
5.04231e-05
1.76965e-05
5.21307e-05
3.69112e-05
3.47028e-05
6.51256e-05
8.50399e-07
0.000103404
-4.72541e-05
0.000152618
-0.00010782
0.000213441
-0.000179297
0.000286316
-0.000260258
0.000371435
-0.000349315
0.000468705
-0.000445064
0.000577732
-0.000546065
0.000697818
-0.000650833
0.000827975
-0.000757861
0.000966951
-0.00086565
0.00111328
-0.000972752
0.00126534
-0.00107781
0.00142141
-0.00117962
0.00157974
-0.00127713
0.00173862
-0.00136951
0.0018964
-0.00145613
0.00205152
-0.00153662
0.00220255
-0.00161074
0.00234823
-0.00167825
-0.00173573
0.00248833
1.41176e-06
2.4641e-05
8.12488e-06
4.371e-05
2.20825e-05
3.81731e-05
4.48665e-05
1.19188e-05
7.77907e-05
-3.20738e-05
0.000121929
-9.13928e-05
0.000178114
-0.000164005
0.000246911
-0.000248094
0.000328587
-0.000341934
0.000423078
-0.000443805
0.000529963
-0.00055195
0.000648465
-0.000664567
0.000777459
-0.000779827
0.000915514
-0.000895916
0.00106095
-0.00101108
0.0012119
-0.00112371
0.00136642
-0.00123233
0.00152253
-0.00133573
0.00167833
-0.00143292
0.00183202
-0.0015232
0.00198201
-0.00160611
0.00212686
-0.00168147
0.00226538
-0.00174926
0.00239665
-0.00180952
-0.00185989
0.00252081
1.96185e-06
2.26792e-05
1.03291e-05
3.53427e-05
2.70819e-05
2.14203e-05
5.3837e-05
-1.48363e-05
9.19176e-05
-7.01545e-05
0.000142361
-0.000141837
0.0002059
-0.000227543
0.000282921
-0.000325116
0.000373432
-0.000432445
0.000477029
-0.000547402
0.000592886
-0.000667807
0.000719775
-0.000791455
0.000856103
-0.000916156
0.000999992
-0.0010398
0.00114936
-0.00116045
0.00130202
-0.00127637
0.00145581
-0.00138612
0.00160863
-0.00148855
0.00175859
-0.00158288
0.00190401
-0.00166863
0.00204351
-0.00174562
0.002176
-0.00181395
0.00230065
-0.00187392
0.00241699
-0.00192586
-0.00196837
0.00252547
2.58448e-06
2.00947e-05
1.28005e-05
2.51267e-05
3.26389e-05
1.5819e-06
6.37186e-05
-4.59159e-05
0.000107329
-0.000113765
0.000164415
-0.000198922
0.000235537
-0.000298666
0.000320826
-0.000410405
0.000419942
-0.000531562
0.000532061
-0.00065952
0.000655882
-0.000791629
0.000789685
-0.000925258
0.000931406
-0.00105788
0.00107875
-0.00118715
0.00122931
-0.00131101
0.00138071
-0.00142776
0.00153067
-0.00153608
0.00167719
-0.00163507
0.00181853
-0.00172422
0.0019533
-0.0018034
0.00208049
-0.0018728
0.0021994
-0.00193286
0.00230969
-0.00198421
0.00241132
-0.00202749
-0.0020621
0.00250504
3.27392e-06
1.68208e-05
1.55157e-05
1.28849e-05
3.86977e-05
-2.16001e-05
7.44021e-05
-8.16203e-05
0.000123833
-0.000163196
0.000187776
-0.000262866
0.000266543
-0.000377433
0.00035992
-0.000503781
0.000467135
-0.000638777
0.000586869
-0.000779255
0.000717306
-0.000922065
0.00085622
-0.00106417
0.00100111
-0.00120277
0.00114935
-0.00133539
0.00129833
-0.00145999
0.00144559
-0.00157503
0.00158899
-0.00167948
0.00172669
-0.00177278
0.00185731
-0.00185484
0.00197985
-0.00192594
0.00209373
-0.00198668
0.00219873
-0.00203785
0.00229492
-0.0020804
0.00238268
-0.00211525
-0.0021424
0.00246298
4.026e-06
1.27948e-05
1.84541e-05
-1.54325e-06
4.52039e-05
-4.83499e-05
8.57749e-05
-0.000122191
0.000141225
-0.000218646
0.000212107
-0.000333747
0.000298396
-0.000463721
0.000399443
-0.000604828
0.000513971
-0.000753304
0.000640112
-0.000905396
0.000775515
-0.00105747
0.000917486
-0.00120614
0.00106316
-0.00134845
0.00120971
-0.00148193
0.00135445
-0.00160474
0.00149506
-0.00171564
0.00162961
-0.00181402
0.00175664
-0.00189981
0.00187518
-0.00197338
0.00198471
-0.00203547
0.00208509
-0.00208706
0.00217654
-0.0021293
0.00225952
-0.00216338
0.00233469
-0.00219042
-0.00221088
0.00240318
4.83781e-06
7.95696e-06
2.15968e-05
-1.83022e-05
5.21026e-05
-7.88558e-05
9.77182e-05
-0.000167807
0.000159286
-0.000280214
0.00023704
-0.000411501
0.00033053
-0.000557211
0.000438592
-0.00071289
0.000559376
-0.000874089
0.000690446
-0.00103647
0.000828939
-0.00119596
0.000971766
-0.00134897
0.00111583
-0.00149251
0.00125822
-0.00162432
0.00139639
-0.00174291
0.00152826
-0.00184752
0.0016523
-0.00193806
0.00176749
-0.002015
0.00187334
-0.00207923
0.00196979
-0.00213192
0.00205713
-0.00217441
0.00213594
-0.00220811
0.00220696
-0.0022344
0.00227105
-0.00225452
-0.00226921
0.00232939
5.7069e-06
2.25007e-06
2.49245e-05
-3.75199e-05
5.93353e-05
-0.000113267
0.000110102
-0.000218574
0.000177773
-0.000347885
0.000262175
-0.000495903
0.000362344
-0.00065738
0.000476528
-0.000827075
0.000602272
-0.000999832
0.000736581
-0.00117078
0.000876149
-0.00133553
0.00101761
-0.00149043
0.00115777
-0.00163267
0.00129383
-0.00176038
0.00142351
-0.00187259
0.00154513
-0.00196914
0.00165762
-0.00205055
0.00176047
-0.00211785
0.00185366
-0.00217241
0.00193755
-0.0022158
0.00201278
-0.00224964
0.00208019
-0.00227552
0.00214069
-0.0022949
0.00219527
-0.0023091
-0.00231899
0.00224504
6.63041e-06
-4.38034e-06
2.84153e-05
-5.93048e-05
6.68349e-05
-0.000151686
0.00012278
-0.000274519
0.000196418
-0.000421523
0.000287077
-0.000586562
0.000393201
-0.000763504
0.000512401
-0.000946274
0.000641613
-0.00112904
0.000777338
-0.0013065
0.000915932
-0.00147412
0.0010539
-0.00162839
0.00118812
-0.00176689
0.00131606
-0.00188832
0.00143585
-0.00199238
0.00154629
-0.00207957
0.00164681
-0.00215107
0.0017374
-0.00220844
0.00181846
-0.00225348
0.0018907
-0.00228805
0.00195502
-0.00231396
0.00201241
-0.00233291
0.00206388
-0.00234637
0.0021104
-0.00235562
-0.0023616
0.00215302
7.60422e-06
-1.19846e-05
3.20419e-05
-8.37424e-05
7.45228e-05
-0.000194167
0.000135584
-0.00033558
0.000214923
-0.000500863
0.000311284
-0.000682922
0.000422451
-0.000874672
0.00054538
-0.0010692
0.000676433
-0.0012601
0.000811704
-0.00144177
0.000947351
-0.00160977
0.00107991
-0.00176095
0.0012065
-0.00189349
0.001325
-0.00200682
0.00143401
-0.00210139
0.00153288
-0.00217844
0.00162153
-0.00223972
0.00170039
-0.0022873
0.00177021
-0.0023233
0.00183195
-0.00234979
0.00188667
-0.00236868
0.00193542
-0.00238166
0.00197921
-0.00239016
0.00201898
-0.00239539
-0.00239826
0.00205564
8.62227e-06
-2.06068e-05
3.57704e-05
-0.000110891
8.23064e-05
-0.000240703
0.000148327
-0.000401601
0.000232968
-0.000585504
0.000334312
-0.000784266
0.000449448
-0.000989808
0.000574687
-0.00119444
0.000705897
-0.00139131
0.00083889
-0.00157476
0.000969789
-0.00174067
0.00109533
-0.00188648
0.00121301
-0.00201118
0.0013212
-0.00211501
0.00141905
-0.00219924
0.00150642
-0.0022658
0.0015837
-0.002317
0.00165166
-0.00235526
0.00171133
-0.00238296
0.0017638
-0.00240226
0.0018102
-0.00241508
0.00185159
-0.00242305
0.00188891
-0.00242749
0.00192302
-0.0024295
-0.00242991
0.00195468
9.67621e-06
-3.0283e-05
3.95593e-05
-0.000140774
9.00792e-05
-0.000291223
0.000160801
-0.000472323
0.000250214
-0.000674917
0.00035568
-0.000889732
0.000473582
-0.00110771
0.00059964
-0.0013205
0.000729337
-0.00152101
0.000858359
-0.00170378
0.000982961
-0.00186527
0.00110022
-0.00200374
0.00120813
-0.00211909
0.0013056
-0.00221248
0.00139232
-0.00228597
0.00146864
-0.00234212
0.00153531
-0.00238367
0.00159339
-0.00241334
0.00164404
-0.00243361
0.00168844
-0.00244667
0.00172772
-0.00245435
0.00176286
-0.00245819
0.00179473
-0.00245936
0.00182405
-0.00245882
-0.00245732
0.00185146
1.07553e-05
-4.10383e-05
4.336e-05
-0.000173378
9.77224e-05
-0.000345585
0.000172786
-0.000547387
0.000266318
-0.000768448
0.000374924
-0.000998339
0.000494304
-0.00122709
0.000619678
-0.00144587
0.000746283
-0.00164761
0.000869843
-0.00182734
0.000986898
-0.00198233
0.00109498
-0.00211183
0.00119266
-0.00221676
0.00127937
-0.0022992
0.00135534
-0.00236194
0.00142129
-0.00240807
0.00147829
-0.00244067
0.00152754
-0.0024626
0.0015703
-0.00247637
0.00160774
-0.00248411
0.00164092
-0.00248753
0.00167075
-0.00248801
0.00169797
-0.00248658
0.0017232
-0.00248405
-0.00248106
0.00174694
1.18467e-05
-5.2885e-05
4.71177e-05
-0.000208649
0.000105108
-0.000403576
0.000184055
-0.000626334
0.000280944
-0.000865337
0.00039162
-0.00110901
0.000511157
-0.00134663
0.000634392
-0.00156911
0.000756477
-0.0017697
0.000873332
-0.0019442
0.000981912
-0.00209091
0.0010803
-0.00221021
0.00116762
-0.00230407
0.00124386
-0.00237544
0.00130967
-0.00242775
0.0013661
-0.00246449
0.00141439
-0.00248896
0.00145586
-0.00250407
0.00149176
-0.00251227
0.0015232
-0.00251555
0.00155115
-0.00251549
0.00157641
-0.00251327
0.00159962
-0.00250979
0.00162127
-0.00250571
-0.00250155
0.00164176
1.29355e-05
-6.58205e-05
5.07729e-05
-0.000246487
0.000112105
-0.000464908
0.000194385
-0.000708614
0.000293782
-0.000964735
0.000405403
-0.00122063
0.000523787
-0.00146501
0.000643534
-0.00168886
0.000759869
-0.00188603
0.000869049
-0.00205338
0.000968544
-0.0021904
0.00105702
-0.00229868
0.00113415
-0.00238121
0.00120042
-0.00244172
0.00125682
-0.00248415
0.00130461
-0.00251229
0.00134517
-0.00252952
0.00137982
-0.00253872
0.00140976
-0.0025422
0.00143601
-0.00254181
0.00145944
-0.00253891
0.00148072
-0.00253455
0.00150039
-0.00252945
0.00151885
-0.00252416
-0.0025191
0.00153639
1.40055e-05
-7.9826e-05
5.42636e-05
-0.000286745
0.000118579
-0.000529224
0.000203564
-0.000793598
0.000304557
-0.00106573
0.000415982
-0.00133206
0.000531966
-0.00158099
0.00064702
-0.00180391
0.000756597
-0.00199561
0.000857409
-0.00215419
0.000947498
-0.00228049
0.00102611
-0.0023773
0.00109345
-0.00244855
0.00115039
-0.00249865
0.00119818
-0.00253193
0.00123823
-0.00255234
0.00127195
-0.00256324
0.00130062
-0.00256739
0.00132536
-0.00256694
0.00134709
-0.00256353
0.00136654
-0.00255837
0.00138429
-0.0025523
0.00140077
-0.00254594
0.00141631
-0.0025397
-0.00253391
0.00143112
1.50397e-05
-9.48656e-05
5.7527e-05
-0.000329232
0.000124405
-0.000596102
0.0002114
-0.000880593
0.00031304
-0.00116737
0.000423151
-0.00144217
0.000535582
-0.00169343
0.000644916
-0.00191324
0.000746963
-0.00209766
0.000838971
-0.0022462
0.000919583
-0.0023611
0.000988601
-0.00244631
0.00104668
-0.00250663
0.001095
-0.00254697
0.00113499
-0.00257193
0.00116814
-0.00258549
0.00119582
-0.00259092
0.00121924
-0.00259081
0.0012394
-0.00258711
0.00125713
-0.00258125
0.00127303
-0.00257427
0.00128758
-0.00256685
0.00130113
-0.00255949
0.00131394
-0.00255251
-0.00254613
0.00132616
1.60205e-05
-0.000110886
6.05023e-05
-0.000373714
0.000129465
-0.000665065
0.00021773
-0.000968858
0.00031906
-0.0012687
0.000426791
-0.0015499
0.000534647
-0.00180128
0.000637422
-0.00201602
0.000731392
-0.00219163
0.000814395
-0.0023292
0.000885661
-0.00243237
0.000945496
-0.00250615
0.000994926
-0.00255606
0.00103536
-0.00258741
0.00106834
-0.0026049
0.00109533
-0.00261248
0.00111766
-0.00261325
0.00113643
-0.00260958
0.00115253
-0.00260321
0.00116665
-0.00259537
0.00117931
-0.00258693
0.00119091
-0.00257845
0.00120171
-0.0025703
0.00121192
-0.00256272
-0.00255586
0.00122165
1.69305e-05
-0.000127817
6.31319e-05
-0.000419915
0.000133656
-0.000735589
0.000222423
-0.00105763
0.000322502
-0.00136878
0.000426872
-0.00165427
0.000529273
-0.00190368
0.000624844
-0.00211159
0.000710403
-0.00227718
0.000784391
-0.00240319
0.000846595
-0.00249457
0.000897757
-0.00255731
0.000939191
-0.00259749
0.000972458
-0.00262067
0.000999127
-0.00263157
0.00102063
-0.00263398
0.00103819
-0.00263081
0.0010528
-0.00262418
0.00106522
-0.00261563
0.00107604
-0.0026062
0.0010857
-0.00259659
0.0010945
-0.00258725
0.00110268
-0.00257847
0.00111037
-0.00257041
-0.00256316
0.00111766
1.77532e-05
-0.00014557
6.53638e-05
-0.000467526
0.00013689
-0.000807116
0.000225385
-0.00114612
0.000323316
-0.00146671
0.000423442
-0.0017544
0.000519667
-0.00199991
0.000607573
-0.0021995