/*--------------------------------*- C++ -*----------------------------------*\
  =========                 |
  \\      /  F ield         | OpenFOAM: The Open Source CFD Toolbox
   \\    /   O peration     | Website:  https://openfoam.org
    \\  /    A nd           | Version:  6.0
     \\/     M anipulation  |
\*---------------------------------------------------------------------------*/
FoamFile
{
    version     2.0;
    format      ascii;
    class       surfaceScalarField;
    location    "39";
    object      phi;
}
// * * * * * * * * * * * * * * * * * * * * * * * * * * * * * * * * * * * * * //

dimensions      [0 3 -1 0 0 0 0];

internalField   nonuniform List<scalar> 
24700
(
-1.27206e-06
-1.57796e-06
2.85002e-06
-4.62785e-06
-4.17152e-06
7.52732e-06
-9.67231e-06
-6.34444e-06
1.13889e-05
-1.60596e-05
-8.18092e-06
1.45682e-05
-2.34919e-05
-9.74631e-06
1.71787e-05
-3.17178e-05
-1.10956e-05
1.93215e-05
-4.05284e-05
-1.22747e-05
2.10854e-05
-4.9755e-05
-1.3321e-05
2.25476e-05
-5.92649e-05
-1.42642e-05
2.37741e-05
-6.89584e-05
-1.51273e-05
2.48208e-05
-7.87656e-05
-1.59268e-05
2.5734e-05
-8.86433e-05
-1.66736e-05
2.65513e-05
-9.85721e-05
-1.73737e-05
2.73026e-05
-0.000108554
-1.80295e-05
2.80111e-05
-0.000118609
-1.86398e-05
2.86945e-05
-0.000128772
-1.92018e-05
2.93655e-05
-0.000139094
-1.97111e-05
3.00327e-05
-0.000149633
-2.01627e-05
3.07019e-05
-0.000160458
-2.05516e-05
3.13762e-05
-0.000171641
-2.08735e-05
3.20565e-05
-0.000183258
-2.1125e-05
3.27427e-05
-0.000195388
-2.13039e-05
3.34332e-05
-0.000208104
-2.14095e-05
3.41258e-05
-0.000221479
-2.14409e-05
3.48165e-05
-2.13951e-05
3.55003e-05
-0.000235585
-1.29703e-06
-2.80929e-07
-4.71292e-06
-7.55627e-07
-9.84158e-06
-1.21577e-06
-1.63287e-05
-1.69379e-06
-2.38701e-05
-2.20486e-06
-3.22092e-05
-2.75653e-06
-4.11335e-05
-3.35048e-06
-5.04708e-05
-3.98368e-06
-6.00859e-05
-4.6491e-06
-6.9877e-05
-5.33627e-06
-7.97721e-05
-6.03164e-06
-8.97266e-05
-6.71913e-06
-9.97196e-05
-7.38074e-06
-0.000109752
-7.99726e-06
-0.000119843
-8.54908e-06
-0.000130027
-9.01705e-06
-0.000140355
-9.38324e-06
-0.000150886
-9.63169e-06
-0.000161689
-9.74905e-06
-0.000172837
-9.72505e-06
-0.00018441
-9.55282e-06
-0.000196484
-9.2293e-06
-0.000209138
-8.75529e-06
-0.000222447
-8.13257e-06
-7.36052e-06
-0.000236481
-1.32121e-06
1.04028e-06
-4.79391e-06
2.71708e-06
-9.99996e-06
3.99028e-06
-1.65756e-05
4.88186e-06
-2.42093e-05
5.4288e-06
-3.26383e-05
5.67248e-06
-4.16451e-05
5.65632e-06
-5.10532e-05
5.42449e-06
-6.07236e-05
5.02124e-06
-7.05505e-05
4.49068e-06
-8.04588e-05
3.8766e-06
-9.04002e-05
3.22228e-06
-0.000100351
2.57012e-06
-0.000110309
1.96106e-06
-0.000120292
1.43392e-06
-0.000130334
1.02462e-06
-0.000140483
7.65408e-07
-0.000150798
6.84057e-07
-0.000161351
8.0323e-07
-0.000172216
1.13998e-06
-0.000183474
1.70541e-06
-0.000195208
2.50423e-06
-0.000207498
3.53475e-06
-0.000220423
4.79263e-06
6.27635e-06
-0.00023406
-1.34437e-06
2.38466e-06
-4.86997e-06
6.24269e-06
-1.01457e-05
9.266e-06
-1.67975e-05
1.15337e-05
-2.45057e-05
1.31369e-05
-3.30006e-05
1.41674e-05
-4.20588e-05
1.47146e-05
-5.14985e-05
1.48642e-05
-6.11753e-05
1.4698e-05
-7.09784e-05
1.42938e-05
-8.08277e-05
1.37258e-05
-9.06699e-05
1.30645e-05
-0.000100477
1.23769e-05
-0.000110242
1.17261e-05
-0.000119979
1.11708e-05
-0.000129718
1.07646e-05
-0.000139508
1.0555e-05
-0.000149407
1.05831e-05
-0.000159486
1.08821e-05
-0.000169823
1.14773e-05
-0.000180503
1.23855e-05
-0.000191613
1.36142e-05
-0.00020324
1.51619e-05
-0.00021547
1.70223e-05
1.91921e-05
-0.000228386
-1.36636e-06
3.75102e-06
-4.94036e-06
9.81669e-06
-1.02772e-05
1.46028e-05
-1.6992e-05
1.82485e-05
-2.47561e-05
2.09011e-05
-3.32927e-05
2.2704e-05
-4.23716e-05
2.37935e-05
-5.18047e-05
2.42973e-05
-6.14413e-05
2.43346e-05
-7.11645e-05
2.4017e-05
-8.08873e-05
2.34486e-05
-9.055e-05
2.27272e-05
-0.000100118
2.19447e-05
-0.000109578
2.11865e-05
-0.000118939
2.0532e-05
-0.000128228
2.00534e-05
-0.000137488
1.98151e-05
-0.000146778
1.9873e-05
-0.000156169
2.02729e-05
-0.000165742
2.10504e-05
-0.000175587
2.22301e-05
-0.000185797
2.38241e-05
-0.000196468
2.58328e-05
-0.000207695
2.82492e-05
3.10685e-05
-0.000219571
-1.38699e-06
5.13802e-06
-5.00423e-06
1.34339e-05
-1.03926e-05
1.99912e-05
-1.7156e-05
2.50119e-05
-2.49568e-05
2.87019e-05
-3.35104e-05
3.12576e-05
-4.25796e-05
3.28627e-05
-5.19695e-05
3.36871e-05
-6.15223e-05
3.38874e-05
-7.11135e-05
3.36082e-05
-8.06483e-05
3.29835e-05
-9.0059e-05
3.21379e-05
-9.93021e-05
3.11878e-05
-0.000108357
3.02416e-05
-0.000117225
2.93997e-05
-0.000125926
2.87543e-05
-0.000134499
2.83882e-05
-0.000143
2.83741e-05
-0.0001515
2.87732e-05
-0.000160084
2.9634e-05
-0.000168846
3.09916e-05
-0.000177887
3.28659e-05
-0.000187316
3.52613e-05
-0.000197239
3.81723e-05
4.15941e-05
-0.000207765
-1.40598e-06
6.54401e-06
-5.06039e-06
1.70884e-05
-1.04894e-05
2.54202e-05
-1.72855e-05
3.18081e-05
-2.51023e-05
3.65186e-05
-3.36472e-05
3.98026e-05
-4.26763e-05
4.18917e-05
-5.19873e-05
4.29981e-05
-6.14149e-05
4.33151e-05
-7.08266e-05
4.30198e-05
-8.01183e-05
4.22752e-05
-8.92126e-05
4.12321e-05
-9.80558e-05
4.00311e-05
-0.000106617
3.88031e-05
-0.000114888
3.76704e-05
-0.000122879
3.67458e-05
-0.000130624
3.61326e-05
-0.000138173
3.59228e-05
-0.000145595
3.61957e-05
-0.000152978
3.70166e-05
-0.000160421
3.84348e-05
-0.000168037
4.04819e-05
-0.000175945
4.317e-05
-0.000184271
4.64983e-05
5.04639e-05
-0.000193141
-1.42289e-06
7.96691e-06
-5.10708e-06
2.07725e-05
-1.05637e-05
3.08768e-05
-1.73744e-05
3.86188e-05
-2.51838e-05
4.4328e-05
-3.36924e-05
4.83112e-05
-4.26494e-05
5.08487e-05
-5.18456e-05
5.21943e-05
-6.11082e-05
5.25777e-05
-7.02958e-05
5.22074e-05
-7.92946e-05
5.12741e-05
-8.80162e-05
4.99537e-05
-9.63949e-05
4.84098e-05
-0.000104388
4.67958e-05
-0.000111973
4.52555e-05
-0.000119151
4.39237e-05
-0.000125943
4.29252e-05
-0.000132394
4.2374e-05
-0.00013857
4.23714e-05
-0.000144557
4.30036e-05
-0.000150462
4.43393e-05
-0.000156407
4.64268e-05
-0.000162528
4.92913e-05
-0.000168971
5.29415e-05
5.73799e-05
-0.000175887
-1.43705e-06
9.40396e-06
-5.1417e-06
2.44772e-05
-1.06101e-05
3.63453e-05
-1.74134e-05
4.5422e-05
-2.51883e-05
5.21029e-05
-3.3629e-05
5.67519e-05
-4.24784e-05
5.96982e-05
-5.15214e-05
6.12373e-05
-6.05778e-05
6.16341e-05
-6.94976e-05
6.11272e-05
-7.81568e-05
5.99333e-05
-8.64551e-05
5.82519e-05
-9.43136e-05
5.62683e-05
-0.000101675
5.41567e-05
-0.000108501
5.20822e-05
-0.000114779
5.02014e-05
-0.000120516
4.86625e-05
-0.000125746
4.76039e-05
-0.000130527
4.71525e-05
-0.000134944
4.74204e-05
-0.000139107
4.8502e-05
-0.000143149
5.04694e-05
-0.000147226
5.33684e-05
-0.000151509
5.72236e-05
6.20499e-05
-0.000156179
-1.44749e-06
1.08515e-05
-5.16066e-06
2.81904e-05
-1.06211e-05
4.18057e-05
-1.739e-05
5.2191e-05
-2.50974e-05
5.98103e-05
-3.3432e-05
6.50865e-05
-4.21322e-05
6.83984e-05
-5.09775e-05
7.00826e-05
-5.97815e-05
7.0438e-05
-6.83862e-05
6.97319e-05
-7.66579e-05
6.82051e-05
-8.44841e-05
6.60781e-05
-9.17715e-05
6.35557e-05
-9.84462e-05
6.08314e-05
-0.000104454
5.80898e-05
-0.000109761
5.5509e-05
-0.00011436
5.32608e-05
-0.000118266
5.15102e-05
-0.000121527
5.04133e-05
-0.00012422
5.0114e-05
-0.000126458
5.07397e-05
-0.000128384
5.2395e-05
-0.000130171
5.5156e-05
-0.000132022
5.90743e-05
6.41857e-05
-0.000134158
-1.45293e-06
1.23044e-05
-5.1593e-06
3.18967e-05
-1.05866e-05
4.7233e-05
-1.72874e-05
5.88917e-05
-2.48859e-05
6.74089e-05
-3.30672e-05
7.32678e-05
-4.15663e-05
7.68974e-05
-5.01589e-05
7.86752e-05
-5.86539e-05
7.89331e-05
-6.6887e-05
7.7965e-05
-7.47155e-05
7.60336e-05
-8.20153e-05
7.33779e-05
-8.86789e-05
7.02194e-05
-9.46151e-05
6.67676e-05
-9.97499e-05
6.32246e-05
-0.000104029
5.97878e-05
-0.00010742
5.66523e-05
-0.000109921
5.40105e-05
-0.000111558
5.20508e-05
-0.000112399
5.09546e-05
-0.000112549
5.08903e-05
-0.000112161
5.20062e-05
-0.000111426
5.44217e-05
-0.000110582
5.82297e-05
6.3502e-05
-0.000109898
-1.45179e-06
1.37562e-05
-5.1319e-06
3.55769e-05
-1.04946e-05
5.25957e-05
-1.70848e-05
6.54819e-05
-2.45225e-05
7.48466e-05
-3.24903e-05
8.12356e-05
-4.07217e-05
8.51288e-05
-4.89906e-05
8.69441e-05
-5.71033e-05
8.70457e-05
-6.48906e-05
8.57523e-05
-7.22033e-05
8.33462e-05
-7.89073e-05
8.00819e-05
-8.48819e-05
7.6194e-05
-9.00189e-05
7.19046e-05
-9.42235e-05
6.74292e-05
-9.74175e-05
6.29818e-05
-9.9543e-05
5.87778e-05
-0.000100569
5.50368e-05
-0.0001005
5.19811e-05
-9.93789e-05
4.98339e-05
-9.73023e-05
4.88137e-05
-9.4421e-05
4.91249e-05
-9.09459e-05
5.09466e-05
-8.71493e-05
5.44331e-05
5.97136e-05
-8.33609e-05
-1.44226e-06
1.51984e-05
-5.07187e-06
3.92065e-05
-1.03309e-05
5.78548e-05
-1.67577e-05
7.19087e-05
-2.39692e-05
8.20581e-05
-3.16471e-05
8.89135e-05
-3.95248e-05
9.30065e-05
-4.73768e-05
9.4796e-05
-5.50085e-05
9.46774e-05
-6.22491e-05
9.2993e-05
-6.89451e-05
9.00422e-05
-7.49553e-05
8.60922e-05
-8.01485e-05
8.13871e-05
-8.44012e-05
7.61573e-05
-8.75989e-05
7.0627e-05
-8.96386e-05
6.50214e-05
-9.04335e-05
5.95727e-05
-8.99204e-05
5.45238e-05
-8.80697e-05
5.01303e-05
-8.4896e-05
4.66602e-05
-8.04716e-05
4.43893e-05
-7.49383e-05
4.35916e-05
-6.85176e-05
4.45259e-05
-6.15185e-05
4.7434e-05
5.25344e-05
-5.43392e-05
-1.42239e-06
1.66208e-05
-4.97212e-06
4.27562e-05
-1.008e-05
6.29627e-05
-1.62788e-05
7.81075e-05
-2.31831e-05
8.89625e-05
-3.04748e-05
9.62052e-05
-3.78888e-05
0.00010042
-4.52013e-05
0.000102109
-5.22198e-05
0.000101696
-5.87745e-05
9.95476e-05
-6.47109e-05
9.59786e-05
-6.98848e-05
9.12661e-05
-7.4158e-05
8.56603e-05
-7.73961e-05
7.93954e-05
-7.94679e-05
7.26988e-05
-8.02476e-05
6.58011e-05
-7.9619e-05
5.89441e-05
-7.74836e-05
5.23884e-05
-7.37717e-05
4.64183e-05
-6.84573e-05
4.13459e-05
-6.15766e-05
3.75087e-05
-5.32476e-05
3.52626e-05
-4.36901e-05
3.49684e-05
-3.32445e-05
3.69884e-05
4.16751e-05
-2.23852e-05
-1.39029e-06
1.80111e-05
-4.82554e-06
4.61915e-05
-9.7262e-06
6.78634e-05
-1.56195e-05
8.40008e-05
-2.21183e-05
9.54613e-05
-2.89047e-05
0.000102992
-3.5716e-05
0.000107232
-4.23314e-05
0.000108724
-4.85622e-05
0.000107927
-5.42419e-05
0.000105227
-5.9219e-05
0.000100956
-6.33505e-05
9.53975e-05
-6.64968e-05
8.88066e-05
-6.85183e-05
8.14168e-05
-6.92734e-05
7.34539e-05
-6.86188e-05
6.51465e-05
-6.64128e-05
5.67382e-05
-6.25223e-05
4.84978e-05
-5.6834e-05
4.073e-05
-4.92723e-05
3.37842e-05
-3.98227e-05
2.80591e-05
-2.85609e-05
2.40008e-05
-1.56855e-05
2.2093e-05
-1.55509e-06
2.2858e-05
2.68422e-05
1.32778e-05
-1.34428e-06
1.93554e-05
-4.62561e-06
4.94728e-05
-9.2543e-06
7.24921e-05
-1.47518e-05
8.94983e-05
-2.07283e-05
0.000101438
-2.68658e-05
0.000109129
-3.29033e-05
0.000113269
-3.86234e-05
0.000114444
-4.38417e-05
0.000113145
-4.83971e-05
0.000109783
-5.21437e-05
0.000104702
-5.49441e-05
9.8198e-05
-5.66635e-05
9.0526e-05
-5.71647e-05
8.1918e-05
-5.63044e-05
7.25936e-05
-5.39319e-05
6.2774e-05
-4.98889e-05
5.26952e-05
-4.40146e-05
4.26235e-05
-3.61552e-05
3.28706e-05
-2.61816e-05
2.38105e-05
-1.40161e-05
1.58937e-05
3.28813e-07
9.65583e-06
1.67024e-05
5.71937e-06
3.47535e-05
4.80696e-06
7.7362e-06
5.38595e-05
-1.28312e-06
2.06385e-05
-4.36698e-06
5.25567e-05
-8.65123e-06
7.67763e-05
-1.36501e-05
9.44972e-05
-1.89694e-05
0.000106757
-2.4289e-05
0.000114449
-2.93479e-05
0.000118328
-3.39305e-05
0.000119027
-3.78561e-05
0.000117071
-4.09687e-05
0.000112895
-4.31298e-05
0.000106863
-4.42108e-05
9.9279e-05
-4.40869e-05
9.04021e-05
-4.26315e-05
8.04626e-05
-3.97108e-05
6.96729e-05
-3.51796e-05
5.82428e-05
-2.88788e-05
4.63944e-05
-2.06354e-05
3.43801e-05
-1.02677e-05
2.2503e-05
2.40051e-06
1.11423e-05
1.75142e-05
7.79939e-07
3.51429e-05
-7.97282e-06
5.52161e-05
-1.43538e-05
7.74296e-05
-1.74065e-05
-1.59521e-05
0.000101118
-1.20615e-06
2.18447e-05
-4.04602e-06
5.53966e-05
-7.90694e-06
8.06372e-05
-1.22932e-05
9.88835e-05
-1.68032e-05
0.000111267
-2.11115e-05
0.000118757
-2.49535e-05
0.00012217
-2.81121e-05
0.000122185
-3.04069e-05
0.000119365
-3.16853e-05
0.000114174
-3.18146e-05
0.000106993
-3.06758e-05
9.81402e-05
-2.81575e-05
8.78839e-05
-2.41502e-05
7.64553e-05
-1.85405e-05
6.40632e-05
-1.12048e-05
5.0907e-05
-2.0034e-06
3.7193e-05
9.22428e-06
2.31524e-05
2.26618e-05
9.06556e-06
3.85101e-05
-4.70612e-06
5.69693e-05
-1.76792e-05
7.81966e-05
-2.92001e-05
0.000102233
-3.83903e-05
0.000128877
-4.405e-05
-4.45496e-05
0.000157474
-1.11342e-06
2.29581e-05
-3.66113e-06
5.79443e-05
-7.01504e-06
8.39911e-05
-1.06657e-05
0.000102534
-1.41996e-05
0.000114801
-1.72809e-05
0.000121838
-1.96366e-05
0.000124526
-2.10423e-05
0.000123591
-2.13129e-05
0.000119636
-2.02933e-05
0.000113154
-1.78525e-05
0.000104552
-1.3878e-05
9.41656e-05
-8.27099e-06
8.22769e-05
-9.42007e-07
6.91263e-05
8.19438e-06
5.49268e-05
1.92257e-05
3.98757e-05
3.22496e-05
2.41691e-05
4.73829e-05
8.01914e-06
6.47714e-05
-8.32298e-06
8.45975e-05
-2.45322e-05
0.000107077
-4.01586e-05
0.000132434
-5.45569e-05
0.000160834
-6.6791e-05
0.000192241
-7.54568e-05
-7.84196e-05
0.000226111
-1.00561e-06
2.39637e-05
-3.21267e-06
6.01513e-05
-5.97292e-06
8.67514e-05
-8.75793e-06
0.000105319
-1.11365e-05
0.000117179
-1.27567e-05
0.000123459
-1.33297e-05
0.000125099
-1.26169e-05
0.000122878
-1.04201e-05
0.000117439
-6.5739e-06
0.000109308
-9.40548e-07
9.89185e-05
6.59372e-06
8.66314e-05
1.61212e-05
7.27494e-05
2.7715e-05
5.75326e-05
4.14313e-05
4.12104e-05
5.73137e-05
2.39932e-05
7.53994e-05
6.08345e-06
9.57295e-05
-1.23109e-05
0.000118364
-3.09577e-05
0.000143403
-4.95706e-05
0.000171002
-6.77582e-05
0.000201386
-8.49408e-05
0.000234815
-0.00010022
0.000271465
-0.000112106
-0.000117998
0.000311043
-8.83961e-07
2.48477e-05
-2.70252e-06
6.19699e-05
-4.78088e-06
8.88298e-05
-6.56519e-06
0.000107103
-7.60006e-06
0.000118214
-7.50978e-06
0.000123368
-5.98208e-06
0.000123571
-2.7551e-06
0.000119651
2.39211e-06
0.000112292
9.64617e-06
0.000102054
1.91631e-05
8.94016e-05
3.107e-05
7.47245e-05
4.54651e-05
5.83543e-05
6.24162e-05
4.05814e-05
8.19597e-05
2.1667e-05
0.000104099
1.85433e-06
0.000128804
-1.86222e-05
0.000156021
-3.9528e-05
0.000185681
-6.06173e-05
0.000217725
-8.16146e-05
0.000252145
-0.000102178
0.000289032
-0.000121828
0.000328625
-0.000139813
0.00037129
-0.000154771
-0.000163837
0.00041713
-7.49905e-07
2.55976e-05
-2.13321e-06
6.33532e-05
-3.44053e-06
9.01371e-05
-4.08527e-06
0.000107748
-3.58038e-06
0.000117709
-1.51861e-06
0.000121307
2.44443e-06
0.000119608
8.60353e-06
0.000113492
1.72131e-05
0.000103682
2.8493e-05
9.07739e-05
4.26312e-05
7.52635e-05
5.97833e-05
5.75724e-05
8.00705e-05
3.80671e-05
0.000103574
1.70774e-05
0.000130331
-5.08989e-06
0.000160324
-2.8138e-05
0.000193473
-5.17712e-05
0.000229632
-7.56873e-05
0.000268587
-9.95723e-05
0.000310067
-0.000123095
0.000353784
-0.000145895
0.000399503
-0.000167547
0.000447179
-0.00018749
0.000497154
-0.000204746
-0.000216719
0.000550035
-6.04701e-07
2.62023e-05
-1.50663e-06
6.42551e-05
-1.95244e-06
9.05829e-05
-1.31474e-06
0.000107111
9.32896e-07
0.000115462
5.23725e-06
0.000117002
1.19834e-05
0.000112862
2.15085e-05
0.000103967
3.41107e-05
9.10801e-05
5.00548e-05
7.48298e-05
6.95738e-05
5.57445e-05
9.28676e-05
3.42785e-05
0.000120099
1.08356e-05
0.000151387
-1.42105e-05
0.000186796
-4.04988e-05
0.000226323
-6.7665e-05
0.000269881
-9.53288e-05
0.000317275
-0.000123082
0.000368184
-0.000150481
0.000422129
-0.000177041
0.000478477
-0.000202243
0.000536472
-0.000225543
0.000595389
-0.000246406
0.000654941
-0.000264299
-0.000278328
0.000716551
-4.4893e-07
2.66512e-05
-8.22583e-07
6.46288e-05
-3.13304e-07
9.00736e-05
1.75542e-06
0.000105042
5.95709e-06
0.00011126
1.27856e-05
0.000110174
2.26747e-05
0.000102973
3.60115e-05
9.06303e-05
5.31467e-05
7.39449e-05
7.43988e-05
5.35777e-05
0.000100056
3.00875e-05
0.000130374
3.96044e-06
0.000165573
-2.43635e-05
0.00020583
-5.44676e-05
0.000251269
-8.59379e-05
0.000301948
-0.000118344
0.000357836
-0.000151217
0.000418788
-0.000184034
0.000484494
-0.000216186
0.000554411
-0.000246958
0.000627671
-0.000275503
0.000702975
-0.000300846
0.000778521
-0.000321952
0.000852396
-0.000338174
-0.000352832
0.0009269
-2.82029e-07
2.69333e-05
-7.73571e-08
6.44241e-05
1.48675e-06
8.85095e-05
5.14418e-06
0.000101384
1.15228e-05
0.000104882
2.11703e-05
0.000100526
3.45752e-05
8.95678e-05
5.21806e-05
7.30249e-05
7.43939e-05
5.17315e-05
0.000101591
2.63802e-05
0.000134119
-2.44038e-06
0.000172293
-3.42129e-05
0.000216393
-6.84637e-05
0.000266664
-0.000104739
0.000323309
-0.000142583
0.000386485
-0.00018152
0.000456298
-0.00022103
0.000532793
-0.000260529
0.000615934
-0.000299326
0.00070555
-0.000336574
0.000801236
-0.000371189
0.0009021
-0.00040171
0.00100607
-0.000425924
0.00110803
-0.000440136
-0.00044027
0.00119547
-1.02406e-07
2.70357e-05
7.36607e-07
6.35851e-05
3.46534e-06
8.57808e-05
8.88279e-06
9.59669e-05
1.76776e-05
9.60868e-05
3.04567e-05
8.77471e-05
4.77671e-05
7.22574e-05
7.011e-05
5.06821e-05
9.7949e-05
2.38924e-05
0.000131714
-7.38502e-06
0.000171802
-4.25283e-05
0.000218575
-8.09856e-05
0.000272359
-0.000122248
0.000333445
-0.000165825
0.000402093
-0.000211231
0.000478542
-0.000257969
0.000563031
-0.00030552
0.000655838
-0.000353336
0.000757349
-0.000400837
0.000868179
-0.000447404
0.000989381
-0.000492392
0.00112281
-0.000535135
0.00127193
-0.000575045
0.00144431
-0.000612521
-0.000652912
0.00165696
9.45493e-08
2.69411e-05
1.63431e-06
6.20454e-05
5.65255e-06
8.17626e-05
1.30202e-05
8.85993e-05
2.44919e-05
8.46151e-05
4.07373e-05
7.15017e-05
6.23629e-05
5.06319e-05
8.99252e-05
2.31197e-05
0.000123937
-1.01195e-05
0.000164869
-4.8317e-05
0.000213147
-9.08066e-05
0.000269151
-0.000136989
0.00033321
-0.000186306
0.000405606
-0.000238221
0.000486578
-0.000292203
0.000576337
-0.000347728
0.000675093
-0.000404275
0.000783093
-0.000461336
0.000900689
-0.000518433
0.00102844
-0.000575153
0.00116724
-0.000631192
0.00131852
-0.000686417
0.00148445
-0.000740978
0.00166752
-0.00079559
-0.000850142
0.00186475
3.13803e-07
2.66273e-05
2.63352e-06
5.97257e-05
8.08489e-06
7.63112e-05
1.76161e-05
7.9068e-05
3.20513e-05
7.01799e-05
5.21236e-05
5.14294e-05
7.8496e-05
2.42595e-05
0.000111772
-1.01565e-05
0.000152499
-5.08467e-05
0.000201165
-9.69828e-05
0.000258192
-0.000147833
0.00032393
-0.000202728
0.000398655
-0.000261031
0.000482561
-0.000322127
0.000575771
-0.000385413
0.000678342
-0.000450299
0.000790285
-0.000516218
0.000911593
-0.000582644
0.00104227
-0.000649115
0.00118239
-0.000715271
0.0013321
-0.000780896
0.00149164
-0.000845958
0.00166126
-0.000910604
0.00184064
-0.000974969
-0.0010361
0.0020266
5.62211e-07
2.60651e-05
3.75687e-06
5.6531e-05
1.08071e-05
6.9261e-05
2.27416e-05
6.71336e-05
4.04547e-05
5.24667e-05
6.47402e-05
2.71438e-05
9.63099e-05
-7.3102e-06
0.0001358
-4.96462e-05
0.000183767
-9.88138e-05
0.000240682
-0.000153898
0.000306919
-0.000214071
0.000382743
-0.000278552
0.000468302
-0.00034659
0.000563624
-0.000417448
0.000668615
-0.000490405
0.000783074
-0.000564758
0.000906697
-0.000639842
0.0010391
-0.000715047
0.00117983
-0.000789848
0.00132839
-0.000863828
0.0014842
-0.000936709
0.00164661
-0.00100836
0.00181476
-0.00107876
0.00198742
-0.00114762
-0.00121103
0.00216235
8.47546e-07
2.52176e-05
5.02951e-06
5.2349e-05
1.38678e-05
6.04226e-05
2.84717e-05
5.25297e-05
4.98033e-05
3.11352e-05
7.87095e-05
-1.76238e-06
0.000115936
-4.45367e-05
0.000162127
-9.58376e-05
0.000217818
-0.000154504
0.000283417
-0.000219497
0.000359191
-0.000289845
0.000445253
-0.000364614
0.00054155
-0.000442886
0.000647857
-0.000523756
0.000763788
-0.000606335
0.000888798
-0.000689768
0.0010222
-0.000773248
0.0011632
-0.000856045
0.00131088
-0.000937529
0.00146424
-0.00101719
0.00162217
-0.00109464
0.00178346
-0.00116965
0.00194674
-0.00124204
0.0021105
-0.00131138
-0.00137377
0.00227323
1.17789e-06
2.40397e-05
6.477e-06
4.70499e-05
1.73153e-05
4.95843e-05
3.48787e-05
3.49663e-05
6.01894e-05
5.8244e-06
9.41338e-05
-3.57067e-05
0.000137469
-8.78717e-05
0.000190815
-0.000149183
0.000254637
-0.000218327
0.000329226
-0.000294086
0.000414678
-0.000375297
0.000510877
-0.000460813
0.000617492
-0.0005495
0.000733975
-0.000640239
0.000859577
-0.000731938
0.00099337
-0.000823561
0.00113427
-0.000914148
0.00128107
-0.00100285
0.00143247
-0.00108893
0.0015871
-0.00117181
0.00174352
-0.00125106
0.00190026
-0.00132639
0.00205582
-0.00139759
0.00220872
-0.00146428
-0.0015231
0.00235805
1.56097e-06
2.24787e-05
8.12314e-06
4.04878e-05
2.11926e-05
3.65149e-05
4.20232e-05
1.41357e-05
7.16837e-05
-2.38361e-05
0.000111078
-7.51007e-05
0.000160941
-0.000137735
0.000221825
-0.000210067
0.00029407
-0.000290572
0.00037778
-0.000377797
0.000472806
-0.000470322
0.000578729
-0.000566736
0.000694869
-0.00066564
0.000820296
-0.000765666
0.000953864
-0.000865507
0.00109425
-0.000963946
0.00123999
-0.00105989
0.00138955
-0.00115241
0.00154135
-0.00124073
0.0016938
-0.00132427
0.00184536
-0.00140262
0.00199454
-0.00147557
0.00213992
-0.00154297
0.00228028
-0.00160464
-0.00165796
0.00241515
2.00358e-06
2.04752e-05
9.98791e-06
3.25034e-05
2.55337e-05
2.09691e-05
4.99477e-05
-1.02784e-05
8.43238e-05
-5.82122e-05
0.000129552
-0.000120328
0.000186302
-0.000194486
0.000255001
-0.000278766
0.000335796
-0.000371367
0.000428531
-0.000470533
0.000532734
-0.000574525
0.000647612
-0.000681615
0.000772081
-0.000790109
0.000904797
-0.000898382
0.00104421
-0.00100492
0.00118864
-0.00110837
0.00133632
-0.00120757
0.00148548
-0.00130157
0.00163441
-0.00138965
0.00178149
-0.00147134
0.00192523
-0.00154637
0.00206433
-0.00161466
0.00219764
-0.00167629
0.0023243
-0.0017313
-0.00177792
0.00244426
2.5111e-06
1.79641e-05
1.20858e-05
2.29288e-05
3.03595e-05
2.69539e-06
5.86698e-05
-3.85886e-05
9.81051e-05
-9.76474e-05
0.000149499
-0.000171722
0.000213402
-0.000258389
0.000290048
-0.000355411
0.000379315
-0.000460633
0.000480708
-0.000571926
0.00059336
-0.000687177
0.000716051
-0.000804306
0.000847259
-0.000921317
0.000985227
-0.00103635
0.00112805
-0.00114774
0.00127374
-0.00125407
0.00142035
-0.00135419
0.00156603
-0.00144725
0.00170908
-0.0015327
0.00184801
-0.00161027
0.00198157
-0.00167992
0.00210875
-0.00174184
0.00222882
-0.00179636
0.00234131
-0.00184379
-0.00188315
0.00244654
3.08719e-06
1.48769e-05
1.44246e-05
1.15914e-05
3.56756e-05
-1.85556e-05
6.8178e-05
-7.1091e-05
0.000112974
-0.000142444
0.000170789
-0.000229537
0.000241986
-0.000329586
0.000326529
-0.000439954
0.000423948
-0.000558052
0.000533334
-0.000681313
0.000653368
-0.00080721
0.000782368
-0.000933306
0.000918379
-0.00105733
0.00105927
-0.00117724
0.00120285
-0.00129132
0.00134698
-0.00139819
0.00148964
-0.00149684
0.00162904
-0.00158665
0.00176366
-0.00166732
0.00189229
-0.0017389
0.00201401
-0.00180165
0.00212824
-0.00185607
0.00223464
-0.00190275
0.00233317
-0.00194233
-0.00197445
0.00242448
3.73361e-06
1.11433e-05
1.70046e-05
-1.67962e-06
4.14704e-05
-4.30214e-05
7.84292e-05
-0.00010805
0.000128827
-0.000192842
0.000193214
-0.000293924
0.000271692
-0.000408064
0.000363872
-0.000532134
0.000468859
-0.000663038
0.000585268
-0.000797723
0.000711292
-0.000933233
0.000844789
-0.0010668
0.000983413
-0.00119595
0.00112475
-0.00131858
0.00126643
-0.00143301
0.00140629
-0.00153805
0.00154241
-0.00163296
0.00167321
-0.00171745
0.00179748
-0.0017916
0.00191439
-0.0018558
0.00202342
-0.00191069
0.0021244
-0.00195705
0.00221742
-0.00199577
0.0023028
-0.00202772
-0.00205306
0.00238141
4.45019e-06
6.69308e-06
1.98187e-05
-1.70481e-05
4.77146e-05
-7.09174e-05
8.93478e-05
-0.000149683
0.000145506
-0.000249
0.00021649
-0.000364908
0.000302058
-0.000493632
0.000401388
-0.000631464
0.000513089
-0.00077474
0.000635263
-0.000919897
0.000765608
-0.00106358
0.000901566
-0.00120276
0.00104048
-0.00133487
0.00117977
-0.00145786
0.00131705
-0.00157029
0.00145026
-0.00167126
0.00157773
-0.00176044
0.00169823
-0.00183795
0.00181094
-0.00190431
0.00191543
-0.00196029
0.00201164
-0.00200689
0.00209976
-0.00204517
0.00218023
-0.00207625
0.00225367
-0.00210116
-0.00212046
0.00232108
5.23486e-06
1.45821e-06
2.28517e-05
-3.46649e-05
5.43613e-05
-0.000102427
0.000100826
-0.000196148
0.000162804
-0.000310977
0.000240266
-0.00044237
0.000332539
-0.000585905
0.000438296
-0.000737221
0.000555604
-0.000892047
0.000682035
-0.00104633
0.000814834
-0.00119638
0.000951102
-0.00133903
0.001088
-0.00147176
0.00122291
-0.00159277
0.00135358
-0.00170096
0.00147823
-0.0017959
0.00159554
-0.00187774
0.00170468
-0.0019471
0.00180529
-0.00200492
0.00189736
-0.00205237
0.0019812
-0.00209073
0.00205734
-0.00212131
0.00212647
-0.00214537
0.00218938
-0.00216407
-0.00217821
0.00224712
6.08369e-06
-4.62548e-06
2.60812e-05
-5.46624e-05
6.13464e-05
-0.000137692
0.000112726
-0.000247528
0.000180469
-0.00037872
0.000264129
-0.00052603
0.000362525
-0.000684301
0.000473763
-0.00084846
0.000595347
-0.00101363
0.000724347
-0.00117533
0.000857624
-0.00132965
0.000992059
-0.00147346
0.00112477
-0.00160447
0.00125326
-0.00172127
0.00137557
-0.00182327
0.00149028
-0.00191061
0.0015965
-0.00198397
0.00169388
-0.00204448
0.00178247
-0.0020935
0.00186263
-0.00213253
0.001935
-0.00216309
0.00200033
-0.00218664
0.00205947
-0.00220451
0.00211331
-0.0022179
-0.00222777
0.00216287
6.99089e-06
-1.16164e-05
2.94773e-05
-7.71488e-05
6.85894e-05
-0.000176804
0.000124882
-0.000303821
0.000198209
-0.000452046
0.000287623
-0.000615445
0.000391366
-0.000788044
0.000506942
-0.000964036
0.000631302
-0.00113799
0.000761078
-0.0013051
0.000892859
-0.00146143
0.00102345
-0.00160405
0.00115007
-0.00173109
0.00127051
-0.00184171
0.00138318
-0.00193595
0.00148712
-0.00201455
0.00158193
-0.00207877
0.00166766
-0.00213021
0.00174476
-0.00217059
0.0018139
-0.00220167
0.00187593
-0.00222512
0.00193175
-0.00224246
0.00198228
-0.00225505
0.00202842
-0.00226404
-0.00227045
0.0020711
7.94883e-06
-1.95652e-05
3.30029e-05
-0.000102203
7.59947e-05
-0.000219796
0.000137105
-0.000364931
0.000215703
-0.000530644
0.000310265
-0.000710007
0.000418402
-0.000896181
0.000537015
-0.00108265
0.000662547
-0.00126352
0.000791291
-0.00143385
0.000919704
-0.00158985
0.00104466
-0.00172901
0.00116365
-0.00185008
0.00127484
-0.0019529
0.00137712
-0.00203822
0.00146999
-0.00210742
0.0015535
-0.00216229
0.00162813
-0.00220483
0.00169459
-0.00223706
0.0017538
-0.00226088
0.00180672
-0.00227804
0.00185432
-0.00229006
0.00189751
-0.00229824
0.00193715
-0.00230368
-0.00230735
0.00197405
8.94805e-06
-2.85132e-05
3.66145e-05
-0.000129869
8.34536e-05
-0.000266635
0.000149184
-0.000430661
0.000232609
-0.000614069
0.00033156
-0.000808958
0.000442994
-0.00100762
0.000563234
-0.00120289
0.000688302
-0.00138859
0.000814283
-0.00155983
0.000937649
-0.00171321
0.0010555
-0.00184687
0.00116571
-0.00196028
0.00126691
-0.0020541
0.00135848
-0.00212979
0.00144041
-0.00218935
0.00151314
-0.00223503
0.00157746
-0.00226915
0.00163432
-0.00229391
0.00168474
-0.0023113
0.00172975
-0.00232305
0.00177032
-0.00233063
0.00180729
-0.00233522
0.00184144
-0.00233782
-0.00233936
0.00187345
9.9773e-06
-3.84905e-05
4.02623e-05
-0.000160154
9.0846e-05
-0.000317219
0.000160898
-0.000500713
0.000248577
-0.000701749
0.000351026
-0.000911407
0.000464553
-0.00112114
0.000584964
-0.0013233
0.000707975
-0.0015116
0.00082961
-0.00168146
0.000946511
-0.00183011
0.00105613
-0.00195649
0.00115681
-0.00206096
0.00124769
-0.00214499
0.00132865
-0.00221075
0.00140009
-0.00226079
0.00146279
-0.00229773
0.00151776
-0.00232412
0.00156609
-0.00234223
0.00160884
-0.00235406
0.00164705
-0.00236126
0.0016816
-0.00236518
0.00171328
-0.0023669
0.00174274
-0.00236728
-0.00236716
0.00177055
1.10236e-05
-4.95141e-05
4.38915e-05
-0.000193022
9.80442e-05
-0.000371372
0.000172018
-0.000574687
0.000263264
-0.000792995
0.000368215
-0.00101636
0.000482566
-0.00123549
0.000601704
-0.00144244
0.000721176
-0.00163107
0.000837095
-0.00179738
0.000946411
-0.00193943
0.00104703
-0.00205711
0.00113781
-0.00215173
0.00121841
-0.00222559
0.00128914
-0.00228148
0.00135077
-0.00232241
0.00140432
-0.00235128
0.00145094
-0.00237074
0.00149176
-0.00238306
0.00152788
-0.00239017
0.00156023
-0.00239361
0.00158962
-0.00239458
0.00161675
-0.00239402
0.00164215
-0.00239269
-0.00239128
0.00166626
1.20724e-05
-6.15865e-05
4.74431e-05
-0.000228393
0.000104915
-0.000428844
0.000182316
-0.000652087
0.000276345
-0.000887024
0.00038273
-0.00112274
0.000496622
-0.00134938
0.000613112
-0.00155893
0.000727726
-0.00174569
0.00083681
-0.00190647
0.000937733
-0.00204035
0.00102892
-0.0021483
0.00110975
-0.00223256
0.00118037
-0.00229621
0.00124147
-0.00234258
0.00129409
-0.00237503
0.0013394
-0.0023966
0.00137863
-0.00240997
0.00141292
-0.00241735
0.00144327
-0.00242052
0.00147055
-0.00242089
0.00149547
-0.0024195
0.00151861
-0.00241716
0.00154042
-0.00241449
-0.00241209
0.00156123
1.31079e-05
-7.46943e-05
5.08556e-05
-0.000266141
0.000111327
-0.000489315
0.000191575
-0.000732336
0.000287526
-0.000982974
0.000394241
-0.00122946
0.000506425
-0.00146157
0.000619009
-0.00167151
0.000727647
-0.00185433
0.000829044
-0.00200786
0.000921066
-0.00213238
0.00100268
-0.00222991
0.00107378
-0.00230366
0.00113492
-0.00235735
0.0011871
-0.00239477
0.00123155
-0.00241947
0.00126953
-0.00243458
0.00130225
-0.0024427
0.00133082
-0.00244591
0.00135614
-0.00244585
0.00137899
-0.00244373
0.00139997
-0.00244048
0.00141955
-0.00243675
0.00143811
-0.00243305
-0.00242987
0.00145588
1.41133e-05
-8.88076e-05
5.40667e-05
-0.000306094
0.00011715
-0.000552398
0.000199595
-0.000814781
0.000296557
-0.00107994
0.000402499
-0.0013354
0.000511799
-0.00157087
0.000619373
-0.00177909
0.00072114
-0.00195609
0.000814259
-0.00210098
0.000897141
-0.00221526
0.000969291
-0.00230206
0.00103105
-0.00236542
0.00108334
-0.00240963
0.00112737
-0.0024388
0.00116447
-0.00245657
0.00119593
-0.00246605
0.00122293
-0.0024697
0.00124647
-0.00246944
0.00126736
-0.00246674
0.00128627
-0.00246264
0.0013037
-0.00245791
0.00132005
-0.0024531
0.0013356
-0.00244859
-0.00244479
0.00135052
1.50714e-05
-0.000103879
5.70149e-05
-0.000348038
0.000122263
-0.000617647
0.000206201
-0.000898719
0.000303242
-0.00117698
0.000407342
-0.0014395
0.000512689
-0.00167622
0.000614327
-0.00188072
0.000708552
-0.00205032
0.000793046
-0.00218548
0.000866776
-0.00228899
0.000929748
-0.00236503
0.000982701
-0.00241838
0.00102681
-0.00245374
0.00106345
-0.00247543
0.00109397
-0.0024871
0.00111966
-0.00249173
0.00114158
-0.00249162
0.00116065
-0.00248851