/*--------------------------------*- C++ -*----------------------------------*\
  =========                 |
  \\      /  F ield         | OpenFOAM: The Open Source CFD Toolbox
   \\    /   O peration     | Website:  https://openfoam.org
    \\  /    A nd           | Version:  6.0
     \\/     M anipulation  |
\*---------------------------------------------------------------------------*/
FoamFile
{
    version     2.0;
    format      ascii;
    class       volVectorField;
    location    "39";
    object      U;
}
// * * * * * * * * * * * * * * * * * * * * * * * * * * * * * * * * * * * * * //

dimensions      [0 1 -1 0 0 0 0];

internalField   nonuniform List<vector> 
12500
(
(-0.000236241 -0.0011138 -7.71705e-22)
(-0.00146019 -0.00295549 1.10246e-20)
(-0.00387075 -0.00450528 -1.60813e-20)
(-0.00696869 -0.00581003 7.42347e-21)
(-0.0104812 -0.00691051 4.47965e-22)
(-0.0142364 -0.00784325 -9.24986e-22)
(-0.0180971 -0.00863992 -1.36965e-20)
(-0.0219606 -0.00932766 7.54876e-21)
(-0.0257556 -0.00992942 5.00695e-21)
(-0.0294348 -0.0104642 5.1018e-21)
(-0.0329703 -0.0109473 -8.6583e-21)
(-0.0363496 -0.0113907 5.04974e-21)
(-0.0395723 -0.0118035 -2.38314e-21)
(-0.0426471 -0.0121922 4.04886e-21)
(-0.0455901 -0.0125611 -1.03462e-20)
(-0.0484222 -0.0129131 1.49768e-20)
(-0.0511681 -0.0132497 -2.86106e-21)
(-0.0538545 -0.0135716 -1.06192e-20)
(-0.0565087 -0.0138786 5.44388e-21)
(-0.059158 -0.0141704 -5.20031e-21)
(-0.061833 -0.0144466 4.65877e-21)
(-0.0645634 -0.0147067 6.16372e-21)
(-0.0673375 -0.0149499 6.24745e-22)
(-0.0700867 -0.0151737 -1.76604e-20)
(-0.073096 -0.0153804 9.89437e-21)
(-0.000236847 -0.000479201 1.4042e-20)
(-0.00147532 -0.00130965 -3.76192e-20)
(-0.00391818 -0.00208644 1.11635e-20)
(-0.00705563 -0.00281506 7.49864e-21)
(-0.0106096 -0.00350285 -6.0081e-21)
(-0.0144052 -0.00415744 -3.42864e-20)
(-0.0183032 -0.00478429 1.02372e-20)
(-0.0221997 -0.00538721 -1.94e-20)
(-0.0260223 -0.00596857 2.32906e-20)
(-0.0297235 -0.00652927 -3.11884e-20)
(-0.0332751 -0.00706877 1.66982e-20)
(-0.0366646 -0.00758522 5.40605e-21)
(-0.0398916 -0.00807566 -1.36565e-20)
(-0.0429653 -0.00853631 -6.04723e-21)
(-0.045902 -0.00896284 4.43325e-20)
(-0.0487233 -0.00935079 -3.92806e-20)
(-0.0514543 -0.00969583 9.4078e-21)
(-0.0541224 -0.00999408 1.62945e-20)
(-0.0567558 -0.0102424 -3.72816e-21)
(-0.0593826 -0.0104384 2.63131e-20)
(-0.0620341 -0.0105812 4.7863e-21)
(-0.0647411 -0.0106709 -1.71529e-21)
(-0.0674919 -0.0107071 -3.3281e-20)
(-0.0702169 -0.0106866 3.06417e-20)
(-0.0732059 -0.0106221 -6.20562e-20)
(-0.000278441 0.000165923 4.50109e-20)
(-0.00159647 0.000359987 1.55291e-20)
(-0.0041206 0.00036316 -2.04701e-20)
(-0.00733245 0.000213302 8.83863e-21)
(-0.0109502 -6.22366e-05 8.32671e-21)
(-0.0147976 -0.000441306 3.17346e-20)
(-0.0187344 -0.000902551 -4.04729e-20)
(-0.0226566 -0.00142603 -6.59838e-21)
(-0.026492 -0.00199324 -2.72921e-20)
(-0.0301932 -0.00258682 -2.28573e-20)
(-0.0337325 -0.00319022 2.96064e-20)
(-0.0370978 -0.00378764 -9.93228e-20)
(-0.0402895 -0.00436399 -3.10295e-21)
(-0.0433173 -0.00490501 -5.98522e-20)
(-0.0461982 -0.00539746 -7.0553e-21)
(-0.0489549 -0.00582939 8.53536e-21)
(-0.0516134 -0.0061904 -4.66777e-20)
(-0.0542026 -0.0064719 -2.92365e-20)
(-0.0567516 -0.00666731 -3.46581e-20)
(-0.0592903 -0.00677222 5.43674e-20)
(-0.0618514 -0.00678485 1.9888e-20)
(-0.0644676 -0.00670592 -8.84685e-20)
(-0.0671279 -0.00653527 -4.26352e-20)
(-0.0697612 -0.00626886 -4.76687e-20)
(-0.0726634 -0.00593014 1.36588e-19)
(-0.000361965 0.000819112 -1.4193e-21)
(-0.00182554 0.00204649 -3.58946e-20)
(-0.00448006 0.00283258 -1.73184e-20)
(-0.00780081 0.00326041 1.0795e-20)
(-0.0115041 0.00339324 6.7684e-20)
(-0.0154137 0.00328377 -3.0687e-20)
(-0.0193901 0.00298071 6.56884e-20)
(-0.0233302 0.00252807 6.27969e-20)
(-0.0271627 0.00196535 3.83667e-20)
(-0.0308416 0.00132833 -5.84133e-22)
(-0.03434 0.000649595 7.78097e-20)
(-0.0376469 -4.09988e-05 1.35015e-20)
(-0.0407636 -0.000716105 5.96615e-20)
(-0.0437008 -0.0013508 1.37418e-19)
(-0.0464768 -0.00192267 -1.59722e-19)
(-0.0491152 -0.00241194 2.40555e-19)
(-0.051644 -0.00280174 5.23964e-20)
(-0.0540933 -0.00307832 -1.15778e-19)
(-0.0564945 -0.00323125 -1.64464e-20)
(-0.0588794 -0.00325357 4.22112e-20)
(-0.0612831 -0.00314239 -2.11549e-20)
(-0.063741 -0.00289865 -1.26492e-20)
(-0.0662435 -0.00252229 -1.23487e-20)
(-0.0687177 -0.00200797 -4.9813e-20)
(-0.0714671 -0.00139051 1.85536e-19)
(-0.000488217 0.00147779 2.34194e-20)
(-0.002164 0.0037426 -1.12958e-19)
(-0.00499788 0.00531042 1.37896e-19)
(-0.00846136 0.00631118 -5.52423e-20)
(-0.0122709 0.00684518 6.64716e-20)
(-0.0162522 0.0069964 5.44979e-20)
(-0.0202679 0.00684125 2.07857e-20)
(-0.0242172 0.00644799 1.00253e-21)
(-0.0280308 0.00587719 1.17941e-19)
(-0.0316646 0.00518298 8.18992e-20)
(-0.0350935 0.00441398 -3.29581e-20)
(-0.0383078 0.00361409 -2.12753e-20)
(-0.0413101 0.00282303 8.99564e-20)
(-0.0441125 0.00207657 1.69861e-20)
(-0.0467347 0.00140667 4.616e-20)
(-0.0492019 0.000841343 1.10766e-19)
(-0.0515438 0.000404494 -9.58793e-20)
(-0.0537928 0.000115668 7.75302e-20)
(-0.0559826 -1.01566e-05 -1.67304e-19)
(-0.0581479 3.71769e-05 1.40766e-19)
(-0.060327 0.00026231 9.00064e-22)
(-0.0625588 0.000664511 -1.12438e-19)
(-0.064836 0.00124421 4.53438e-20)
(-0.0670838 0.00200862 1.02988e-19)
(-0.0696151 0.00291095 -1.61011e-19)
(-0.000657826 0.00213922 1.21072e-19)
(-0.00261277 0.0054407 -1.3346e-19)
(-0.00567438 0.00778483 -2.16477e-20)
(-0.00931333 0.00935017 2.74361e-20)
(-0.0132486 0.0102751 -5.96318e-20)
(-0.0173097 0.0106754 -9.3487e-20)
(-0.0213632 0.0106555 -7.81005e-20)
(-0.0253117 0.0103079 -1.89171e-20)
(-0.0290896 0.00971406 -1.35592e-19)
(-0.0326551 0.00894634 1.08347e-19)
(-0.0359856 0.00806921 -1.68922e-19)
(-0.0390732 0.00714054 8.56464e-20)
(-0.0419222 0.00621241 -2.85309e-20)
(-0.0445462 0.00533167 6.62223e-20)
(-0.0469664 0.00454013 -1.66921e-19)
(-0.0492099 0.00387462 8.10433e-20)
(-0.0513084 0.0033668 6.03744e-21)
(-0.0532968 0.00304284 3.61133e-20)
(-0.0552119 0.00292322 2.18441e-19)
(-0.0570917 0.00302227 4.84201e-20)
(-0.0589785 0.00334728 -4.4588e-21)
(-0.060916 0.0038985 1.38677e-20)
(-0.0628999 0.00467743 9.15307e-20)
(-0.0648538 0.00569405 2.6084e-20)
(-0.0671022 0.00688893 9.09109e-20)
(-0.000871214 0.00280056 -7.54425e-20)
(-0.00317206 0.00713281 1.11201e-19)
(-0.00650865 0.0102435 7.01253e-21)
(-0.0103541 0.0123616 -1.37612e-19)
(-0.0144326 0.0136644 2.91016e-19)
(-0.0185796 0.0143 -9.46284e-20)
(-0.0226675 0.0144009 1.38806e-19)
(-0.0266041 0.0140835 1.27622e-19)
(-0.0303281 0.0134502 -1.06058e-19)
(-0.0338014 0.0125908 -1.54983e-19)
(-0.0370042 0.0115856 4.25753e-20)
(-0.0399311 0.010506 -4.50474e-20)
(-0.0425882 0.00941648 -1.99893e-19)
(-0.0449907 0.00837497 2.43514e-19)
(-0.0471614 0.00743355 -1.17093e-19)
(-0.0491294 0.00663843 -8.09408e-20)
(-0.0509285 0.00602985 7.32402e-22)
(-0.0525965 0.00564172 6.6381e-20)
(-0.0541734 0.00550121 2.74205e-20)
(-0.0557014 0.0056282 -1.07639e-19)
(-0.0572278 0.00603388 1.23006e-19)
(-0.0588018 0.00672068 -2.14088e-19)
(-0.0604238 0.00769225 1.30903e-19)
(-0.062016 0.00896264 -1.00338e-19)
(-0.0639169 0.0104592 2.79594e-20)
(-0.00112854 0.00345879 1.0967e-19)
(-0.00384119 0.00881048 -8.75864e-20)
(-0.00749817 0.0126738 -5.61471e-20)
(-0.0115788 0.0153295 -9.97714e-20)
(-0.0158154 0.0169947 -1.83542e-19)
(-0.0200518 0.0178501 -1.36401e-19)
(-0.0241682 0.018056 8.54381e-20)
(-0.0280793 0.0177528 -1.30051e-19)
(-0.0317295 0.0170626 1.65818e-19)
(-0.0350852 0.0160929 -2.71001e-19)
(-0.0381303 0.0149385 1.20843e-19)
(-0.040862 0.0136843 2.56141e-19)
(-0.0432885 0.0124067 -3.61069e-19)
(-0.0454268 0.0111749 5.17066e-20)
(-0.0473012 0.0100512 6.74582e-20)
(-0.0489424 0.00909205 6.53951e-20)
(-0.0503867 0.00834708 -7.04756e-20)
(-0.0516746 0.0078592 -1.7388e-20)
(-0.0528499 0.00766384 -5.19298e-20)
(-0.0539593 0.00778813 -4.34018e-20)
(-0.055056 0.00824903 -2.38443e-19)
(-0.0561963 0.00905278 -1.61015e-20)
(-0.0573862 0.0102068 2.59394e-21)
(-0.0585477 0.0117312 -1.08262e-19)
(-0.060037 0.0135396 1.18204e-19)
(-0.00142965 0.00411062 3.17121e-21)
(-0.00461843 0.0104647 3.58504e-20)
(-0.00863848 0.0150621 3.75744e-20)
(-0.0129796 0.018237 2.19652e-20)
(-0.0173855 0.0202471 1.86755e-19)
(-0.0217112 0.0213057 1.76408e-19)
(-0.0258469 0.0216007 -1.4416e-19)
(-0.0297158 0.0212956 -4.40766e-20)
(-0.0332694 0.0205319 -3.93333e-20)
(-0.03648 0.0194334 2.0381e-19)
(-0.0393355 0.0181091 7.34352e-20)
(-0.0418364 0.0166565 -1.07324e-19)
(-0.0439929 0.0151634 -9.11207e-20)
(-0.0458239 0.0137097 2.20256e-19)
(-0.0473551 0.0123685 -5.44745e-20)
(-0.0486187 0.0112065 -6.61966e-20)
(-0.0496529 0.010284 -9.25952e-20)
(-0.0505011 0.00965413 -7.22312e-20)
(-0.0512108 0.00936246 -9.23605e-20)
(-0.051834 0.00944558 -6.04913e-20)
(-0.0524304 0.00992856 2.51849e-19)
(-0.0530648 0.0108239 -1.24208e-19)
(-0.0537505 0.0121453 8.37617e-20)
(-0.0544106 0.0139215 -2.22943e-19)
(-0.0554232 0.0160523 9.54286e-20)
(-0.00177396 0.00475242 -9.84505e-20)
(-0.00550068 0.0120856 -2.66335e-20)
(-0.00992273 0.0173942 -2.09544e-19)
(-0.0145453 0.021067 -1.01085e-19)
(-0.0191271 0.0234027 -2.00807e-19)
(-0.0235371 0.0246473 -2.10713e-20)
(-0.0276779 0.0250158 1.08818e-19)
(-0.0314835 0.024694 -6.66028e-20)
(-0.0349138 0.0238419 1.44217e-19)
(-0.0379479 0.0225983 -3.51902e-19)
(-0.0405788 0.0210854 -1.02328e-20)
(-0.0428106 0.0194122 6.28398e-20)
(-0.044656 0.0176769 -7.9993e-20)
(-0.0461353 0.01597 7.29963e-20)
(-0.0472756 0.0143746 -5.598e-20)
(-0.0481101 0.0129682 -1.20244e-19)
(-0.0486786 0.0118223 2.19859e-19)
(-0.049027 0.011002 1.36636e-19)
(-0.0492064 0.0105647 -2.84101e-20)
(-0.0492742 0.0105594 9.04884e-20)
(-0.0492975 0.0110222 -1.78903e-19)
(-0.049351 0.0119752 2.58182e-19)
(-0.0494573 0.0134419 -3.53198e-19)
(-0.0495425 0.0154635 7.28384e-20)
(-0.0500126 0.0179266 -1.46343e-19)
(-0.00216038 0.00538014 5.3486e-21)
(-0.00648323 0.0136626 -9.09046e-20)
(-0.0113413 0.0196545 1.35717e-19)
(-0.0162606 0.0238009 2.80158e-19)
(-0.0210188 0.0264418 -4.62789e-21)
(-0.0255019 0.0278553 3.21085e-20)
(-0.0296276 0.0282831 -1.21986e-19)
(-0.0333424 0.0279322 5.73974e-20)
(-0.0366167 0.0269797 3.97462e-19)
(-0.0394375 0.0255785 -9.05689e-20)
(-0.0418037 0.0238623 -1.07379e-19)
(-0.0437237 0.0219502 4.07321e-19)
(-0.0452128 0.0199499 1.33446e-19)
(-0.046293 0.0179607 6.37107e-20)
(-0.0469921 0.0160757 6.54078e-20)
(-0.0473442 0.0143827 1.78712e-19)
(-0.0473898 0.0129649 -6.88264e-20)
(-0.0471767 0.0119004 1.82386e-19)
(-0.0467593 0.0112612 2.47291e-19)
(-0.0462003 0.0111109 -2.11313e-19)
(-0.0455748 0.011501 3.14497e-19)
(-0.0449689 0.0124672 1.12303e-19)
(-0.0444164 0.0140477 -4.26997e-19)
(-0.0438491 0.0163021 6.18361e-19)
(-0.0437083 0.0191051 -5.30765e-19)
(-0.00258716 0.00598919 -2.50515e-19)
(-0.00755945 0.0151836 1.41855e-19)
(-0.0128811 0.0218264 -9.5875e-20)
(-0.0181054 0.0264191 -9.16896e-20)
(-0.023033 0.0293434 -9.95842e-20)
(-0.0275701 0.0309093 -1.08691e-19)
(-0.0316522 0.0313842 2.99773e-20)
(-0.0352407 0.0309952 2.86337e-19)
(-0.038318 0.0299351 -6.16186e-20)
(-0.0408806 0.0283693 -1.61164e-19)
(-0.0429344 0.0264415 -9.88144e-20)
(-0.0444926 0.024279 -4.05749e-20)
(-0.0455738 0.0219971 1.20425e-19)
(-0.0462015 0.0197029 -7.71724e-20)
(-0.0464042 0.0174976 -2.52543e-19)
(-0.0462162 0.0154788 -2.79382e-19)
(-0.0456781 0.0137412 1.11686e-19)
(-0.0448386 0.0123766 -2.08312e-19)
(-0.0437549 0.0114731 1.81215e-19)
(-0.0424941 0.0111128 -5.12904e-19)
(-0.04114 0.0113664 3.94704e-19)
(-0.0397912 0.012289 -5.2278e-19)
(-0.0384947 0.0139403 -9.68827e-21)
(-0.0371915 0.0164057 -1.76342e-19)
(-0.0363681 0.0195516 5.48827e-19)
(-0.00305176 0.00657436 3.84418e-19)
(-0.00872049 0.0166354 5.85315e-20)
(-0.0145259 0.0238911 -3.87294e-20)
(-0.0200548 0.0289001 -1.64578e-20)
(-0.0251354 0.0320851 3.08129e-19)
(-0.0296977 0.0337879 1.00828e-19)
(-0.0336975 0.0343004 9.1923e-20)
(-0.0371134 0.0338686 -7.4251e-20)
(-0.0399418 0.0326997 2.8771e-19)
(-0.04219 0.0309698 -1.42062e-19)
(-0.0438724 0.0288307 9.20475e-20)
(-0.0450079 0.026416 2.3501e-19)
(-0.045619 0.0238465 -1.3372e-19)
(-0.0457311 0.0212347 1.45276e-19)
(-0.0453733 0.0186882 1.37604e-19)
(-0.0445797 0.0163124 4.72181e-20)
(-0.0433903 0.0142126 -1.16555e-19)
(-0.0418538 0.0124941 3.23247e-19)
(-0.0400286 0.0112625 -3.0126e-20)
(-0.037986 0.0106207 -3.47003e-20)
(-0.0358177 0.0106637 3.89252e-19)
(-0.0336358 0.0114725 -2.77228e-19)
(-0.031503 0.0131369 4.67746e-19)
(-0.0293727 0.0157793 -3.88246e-19)
(-0.0277897 0.0192634 5.2881e-19)
(-0.00355076 0.00712988 -1.85678e-19)
(-0.00995506 0.0180036 4.2787e-20)
(-0.0162549 0.0258287 -4.4873e-20)
(-0.022078 0.0312205 -2.13939e-19)
(-0.0272845 0.0346426 1.24729e-20)
(-0.0318313 0.0364676 1.23305e-19)
(-0.0356974 0.037011 -5.04248e-19)
(-0.038881 0.0365368 3.78307e-19)
(-0.0413941 0.0352649 -3.70005e-19)
(-0.043257 0.0333805 -2.3436e-19)
(-0.0444935 0.0310414 2.11043e-19)
(-0.0451297 0.0283857 -4.58375e-19)
(-0.0451929 0.025537 3.87425e-19)
(-0.0447111 0.0226105 -1.23599e-19)
(-0.0437146 0.0197175 -3.53981e-19)
(-0.0422368 0.0169686 8.76686e-20)
(-0.040317 0.0144771 -8.25264e-20)
(-0.0380026 0.0123606 3.11236e-20)
(-0.0353522 0.0107416 -1.11736e-19)
(-0.0324394 0.0097462 -3.7127e-19)
(-0.0293633 0.00949744 8.33613e-20)
(-0.0262497 0.0101096 -1.08628e-22)
(-0.0231787 0.0117134 -3.84339e-19)
(-0.02012 0.0144831 2.70498e-19)
(-0.017693 0.018289 -2.47353e-19)
(-0.00407974 0.0076494 7.51577e-20)
(-0.0112492 0.0192724 1.43768e-19)
(-0.0180437 0.0276172 2.0268e-19)
(-0.0241388 0.0333547 1.04974e-19)
(-0.0294312 0.0369887 -1.03584e-19)
(-0.0339079 0.038922 2.48573e-19)
(-0.0375737 0.0394928 1.84983e-19)
(-0.0404485 0.0389817 -6.76335e-20)
(-0.0425623 0.0376203 2.42814e-19)
(-0.0439494 0.0356012 -2.50845e-19)
(-0.0446451 0.0330867 -7.38486e-20)
(-0.0446841 0.0302167 7.52462e-20)
(-0.0440996 0.0271157 1.49634e-19)
(-0.0429239 0.0238985 1.78978e-21)
(-0.041189 0.0206764 9.52675e-20)
(-0.0389285 0.0175616 1.76268e-19)
(-0.0361806 0.0146717 -3.00881e-19)
(-0.0329912 0.0121331 3.74885e-19)
(-0.0294174 0.010083 1.26706e-19)
(-0.0255338 0.00867026 4.46895e-20)
(-0.021445 0.00804898 -4.57321e-19)
(-0.0172903 0.0083733 6.4896e-20)
(-0.0131677 0.00982721 1.007e-19)
(-0.00906655 0.0126565 -2.41174e-20)
(-0.00570091 0.0167522 1.21466e-19)
(-0.00463325 0.0081262 5.9386e-21)
(-0.0125864 0.0204251 -3.70388e-19)
(-0.0198634 0.0292332 -9.27201e-21)
(-0.0261952 0.035275 -9.47249e-20)
(-0.031519 0.0390938 -6.26601e-19)
(-0.0358549 0.0411217 5.44222e-19)
(-0.039236 0.0417187 -3.89352e-19)
(-0.0417059 0.0411812 -1.96601e-20)
(-0.0433142 0.0397513 -1.85747e-19)
(-0.0441112 0.0376279 3.2257e-19)
(-0.0441452 0.0349765 -3.48601e-19)
(-0.0434611 0.0319372 -1.63824e-19)
(-0.0421001 0.0286326 3.50835e-21)
(-0.0401001 0.0251746 -3.56759e-19)
(-0.0374967 0.0216706 4.8821e-19)
(-0.0343254 0.0182301 -5.67085e-19)
(-0.0306241 0.0149696 1.14349e-21)
(-0.0264373 0.0120188 8.73423e-20)
(-0.0218203 0.00952467 -2.18856e-19)
(-0.0168468 0.00765488 2.12627e-19)
(-0.0116249 0.00659429 -3.02349e-19)
(-0.00630535 0.00654127 -1.99977e-19)
(-0.00100385 0.00774557 3.73149e-19)
(0.00426954 0.010548 -4.07618e-19)
(0.00868225 0.014882 -8.28945e-21)
(-0.00520483 0.00855337 -3.01983e-19)
(-0.0139472 0.0214443 3.59731e-19)
(-0.0216812 0.0306521 -1.11793e-19)
(-0.0281996 0.0369521 2.16762e-19)
(-0.033484 0.0409258 2.35226e-19)
(-0.0375902 0.0430337 -2.08404e-19)
(-0.0405817 0.0436572 -1.38995e-19)
(-0.0425277 0.0431076 -1.67213e-19)
(-0.0434987 0.0416369 1.53782e-19)
(-0.0435626 0.0394498 -1.02719e-20)
(-0.0427822 0.036714 2.26068e-19)
(-0.0412144 0.0335688 2.23651e-19)
(-0.0389105 0.0301335 -2.6805e-19)
(-0.0359164 0.0265143 5.28111e-19)
(-0.0322738 0.0228119 -3.51199e-19)
(-0.0280227 0.0191278 -6.04095e-20)
(-0.0232032 0.0155719 6.87642e-19)
(-0.0178602 0.0122692 -3.19193e-19)
(-0.0120477 0.0093683 2.03712e-19)
(-0.00583783 0.0070477 3.98634e-19)
(0.000660055 0.00551696 -2.59176e-19)
(0.00728597 0.00501777 2.73905e-20)
(0.0139099 0.00587493 -1.78253e-20)
(0.0205036 0.00855117 -1.06602e-19)
(0.0260904 0.0130503 2.11958e-19)
(-0.00578712 0.00892415 6.90171e-20)
(-0.0153101 0.0223129 -2.28174e-19)
(-0.0234605 0.031849 1.25621e-19)
(-0.0300991 0.0383554 -1.53427e-21)
(-0.0352554 0.0424501 9.58032e-20)
(-0.0390228 0.0446216 -1.65842e-19)
(-0.0414971 0.045272 9.53891e-20)
(-0.0427741 0.0447269 2.61049e-19)
(-0.0429467 0.0432482 -7.95695e-21)
(-0.0421013 0.0410463 -1.34579e-19)
(-0.0403167 0.038291 1.3587e-19)
(-0.0376634 0.0351207 -3.15021e-21)
(-0.0342048 0.031651 -4.33258e-19)
(-0.0299975 0.0279814 1.612e-19)
(-0.025093 0.0242034 3.57479e-20)
(-0.0195393 0.0204072 -6.30286e-20)
(-0.0133833 0.0166895 -1.12577e-19)
(-0.00667397 0.0131627 4.32815e-19)
(0.000532548 0.00996554 1.05729e-19)
(0.00816442 0.00727436 -2.27035e-19)
(0.0161121 0.00531003 -2.72798e-20)
(0.0242094 0.00434742 3.13518e-19)
(0.0323171 0.00478715 -1.46711e-19)
(0.0403994 0.00723912 6.30129e-20)
(0.0473114 0.0118125 4.48478e-20)
(-0.00637203 0.00923224 -1.38295e-19)
(-0.0166511 0.0230144 1.42691e-19)
(-0.0251612 0.0327994 -8.10527e-20)
(-0.0318359 0.039454 -2.61949e-19)
(-0.0367556 0.0436312 -2.42658e-19)
(-0.0400529 0.0458468 -1.0813e-19)
(-0.0418572 0.0465228 -8.9961e-20)
(-0.0422919 0.0459993 -2.67502e-19)
(-0.0414726 0.044548 -1.08528e-19)
(-0.039505 0.0423855 9.93154e-20)
(-0.0364845 0.0396848 -1.42442e-19)
(-0.0324968 0.0365844 -1.51011e-19)
(-0.0276191 0.0331969 -1.42149e-19)
(-0.0219218 0.0296161 2.5889e-19)
(-0.0154699 0.0259241 -5.45456e-19)
(-0.00832443 0.022198 3.12201e-19)
(-0.000544913 0.0185176 -5.35407e-19)
(0.00780838 0.014975 -8.26827e-20)
(0.0166708 0.0116872 -2.9522e-19)
(0.0259656 0.00881116 -6.90501e-20)
(0.0355805 0.0065576 -8.44205e-20)
(0.0453447 0.00521118 -2.82314e-19)
(0.0551172 0.00523288 -3.08795e-20)
(0.0648753 0.00739497 1.73207e-19)
(0.073294 0.0119482 -4.74308e-19)
(-0.00695094 0.00947217 1.1865e-19)
(-0.0179445 0.0235337 1.61158e-19)
(-0.0267398 0.0334803 5.68734e-19)
(-0.0333474 0.0402183 -1.00559e-19)
(-0.0379006 0.0444342 2.40761e-19)
(-0.0405728 0.0466701 5.76922e-19)
(-0.0415273 0.0473675 -1.58064e-19)
(-0.0409155 0.0468809 2.1502e-19)
(-0.0388759 0.0454924 1.26031e-19)
(-0.0355336 0.0434258 2.29339e-19)
(-0.0310006 0.0408585 -4.61545e-20)
(-0.0253785 0.0379313 3.12616e-20)
(-0.0187599 0.0347567 -8.11747e-20)
(-0.0112314 0.0314253 4.40673e-19)
(-0.00287504 0.0280125 5.65823e-20)
(0.00622915 0.0245841 4.10874e-19)
(0.0160017 0.0212032 -1.05293e-19)
(0.0263616 0.0179379 3.77406e-19)
(0.0372246 0.0148744 5.29975e-20)
(0.0484981 0.0121332 1.92481e-19)
(0.0600587 0.00988738 -8.31806e-20)
(0.0717264 0.00839336 -1.46848e-20)
(0.0833647 0.00813231 4.59682e-19)
(0.0949994 0.0100292 2.82891e-19)
(0.105141 0.0145002 -1.24091e-19)
(-0.00751492 0.00963957 -2.87751e-19)
(-0.0191631 0.023858 -3.02915e-19)
(-0.0281497 0.0338713 -3.18935e-19)
(-0.0345659 0.0406214 1.17625e-19)
(-0.0385996 0.0448264 -2.37755e-19)
(-0.0404657 0.0470542 -3.5631e-20)
(-0.0403618 0.0477651 -9.44439e-20)
(-0.038467 0.0473278 -3.93646e-19)
(-0.0349423 0.0460351 -6.17331e-20)
(-0.0299314 0.0441193 1.01865e-19)
(-0.0235629 0.0417643 -3.20812e-19)
(-0.0159538 0.0391159 4.46259e-19)
(-0.0072131 0.03629 -6.07921e-19)
(0.00255527 0.0333789 1.46775e-19)
(0.0132487 0.0304568 -3.74312e-19)
(0.0247634 0.0275843 -3.04413e-19)
(0.0369919 0.0248133 -1.73303e-20)
(0.0498216 0.0221921 -4.6145e-20)
(0.0631337 0.0197748 3.6575e-20)
(0.0768017 0.0176354 -1.75061e-19)
(0.0906727 0.0158843 -1.21353e-19)
(0.104542 0.0147023 1.49342e-19)
(0.118273 0.01452 -4.13677e-19)
(0.131989 0.0163585 1.34674e-19)
(0.144107 0.0207832 1.00518e-19)
(-0.00805493 0.00973137 -5.10921e-20)
(-0.0202779 0.0239773 -8.80784e-20)
(-0.0293411 0.0339559 3.4434e-19)
(-0.0354186 0.0406409 1.2896e-19)
(-0.0387545 0.0447806 1.71742e-19)
(-0.0396056 0.0469675 -2.30697e-19)
(-0.0382038 0.0476801 3.58928e-22)
(-0.0347556 0.0473008 -1.886e-19)
(-0.0294433 0.0461337 3.5019e-19)
(-0.0224284 0.04442 1.14778e-19)
(-0.0138551 0.0423522 1.29214e-19)
(-0.00385519 0.0400839 -5.1587e-19)
(0.00744674 0.0377385 6.38264e-19)
(0.0199286 0.0354156 -1.92367e-19)
(0.0334658 0.0331958 -1.38007e-19)
(0.0479275 0.0311444 4.14228e-19)
(0.0631723 0.0293135 1.85182e-19)
(0.0790454 0.0277446 -4.69859e-19)
(0.0953779 0.026472 -1.96416e-19)
(0.111986 0.0255297 5.94087e-19)
(0.12866 0.0249572 -4.54644e-19)
(0.145135 0.024818 2.73867e-19)
(0.161245 0.0253939 1.53229e-19)
(0.177255 0.0276767 -1.97428e-19)
(0.19165 0.0322961 -1.9925e-19)
(-0.00856182 0.00974587 -1.88015e-19)
(-0.0212586 0.0238848 3.03188e-19)
(-0.0302603 0.0337223 1.30071e-19)
(-0.0358264 0.0402608 -1.8911e-19)
(-0.0382581 0.0442773 -3.04571e-20)
(-0.0378551 0.0463878 -2.00735e-19)
(-0.0348834 0.047088 -8.04298e-20)
(-0.0295758 0.0467733 9.06653e-20)
(-0.0221354 0.0457584 -2.27391e-20)
(-0.0127402 0.0442943 1.72686e-19)
(-0.00154872 0.0425829 -1.50563e-19)
(0.0112934 0.0407875 4.18105e-19)
(0.0256469 0.0390426 -5.19998e-19)
(0.0413724 0.0374602 3.25334e-19)
(0.0583242 0.036135 4.05308e-19)
(0.0763435 0.0351478 -5.87386e-19)
(0.0952529 0.0345672 -1.79174e-19)
(0.11485 0.0344496 3.02631e-19)
(0.134903 0.0348376 -1.87229e-19)
(0.155148 0.0357582 1.81065e-19)
(0.175277 0.0372088 -4.39779e-19)
(0.194912 0.0391343 7.34103e-20)
(0.213775 0.0415842 2.87579e-19)
(0.232279 0.0453583 -4.63377e-19)
(0.249288 0.0509705 1.30525e-19)
(-0.00902632 0.00968263 -1.74021e-19)
(-0.0220729 0.0235771 5.66017e-19)
(-0.0308491 0.0331643 1.09448e-19)
(-0.0357023 0.0394731 -2.97696e-19)
(-0.036993 0.0433079 2.14529e-19)
(-0.0350638 0.0453068 1.09505e-19)
(-0.030215 0.0459811 1.7591e-19)
(-0.0227054 0.0457381 -1.15786e-20)
(-0.012758 0.0449022 -1.84323e-20)
(-0.000566759 0.0437335 -3.88145e-20)
(0.013696 0.042443 -1.70441e-19)
(0.0298717 0.0412044 -5.78611e-21)
(0.0478073 0.0401644 4.01169e-19)
(0.0673478 0.0394498 -6.59935e-19)
(0.0883285 0.0391743 4.70988e-19)
(0.110567 0.0394434 9.55803e-20)
(0.133855 0.0403575 1.6943e-19)
(0.157947 0.0420139 -8.74518e-20)
(0.182547 0.044507 7.78166e-19)
(0.2073 0.0479241 -4.83112e-19)
(0.231757 0.0523191 3.87105e-19)
(0.255322 0.0576421 9.13275e-20)
(0.277417 0.0638337 -2.84671e-19)
(0.298399 0.0715691 2.41604e-19)
(0.317885 0.0808157 3.89138e-19)
(-0.00943871 0.0095422 -5.06717e-20)
(-0.0226856 0.0230537 -1.9963e-19)
(-0.0310431 0.0322817 -3.43615e-19)
(-0.0349503 0.0382793 -1.97165e-19)
(-0.0348287 0.0418767 -2.77465e-20)
(-0.0310654 0.043733 -7.87859e-20)
(-0.023995 0.0443733 -3.66859e-19)
(-0.0139026 0.0442147 6.10317e-20)
(-0.0010316 0.0435899 -4.16082e-19)
(0.0144075 0.042766 -3.24108e-20)
(0.0322279 0.0419614 -4.02267e-19)
(0.0522568 0.0413581 -1.43801e-19)
(0.074327 0.0411123 8.27918e-20)
(0.0982687 0.0413639 -3.95397e-19)
(0.123902 0.0422434 3.60368e-21)
(0.15103 0.0438805 -3.42501e-19)
(0.179431 0.0464112 1.32553e-19)
(0.208844 0.0499875 -4.80657e-19)
(0.238964 0.0547881 -8.25531e-20)
(0.269406 0.0610318 -1.15524e-20)
(0.299662 0.0689727 -8.18777e-20)
(0.328984 0.0788643 -8.42268e-20)
(0.356408 0.0911279 -4.242e-20)
(0.381403 0.107002 -1.69703e-19)
(0.402706 0.125009 -3.7607e-19)
(-0.00978848 0.00932588 9.22945e-20)
(-0.0230579 0.0223175 2.53174e-19)
(-0.0307706 0.0310806 3.0647e-19)
(-0.0334629 0.036691 -2.4656e-19)
(-0.0316204 0.0400033 4.60119e-19)
(-0.0256759 0.0416956 -2.51262e-19)
(-0.0159999 0.0423047 1.37125e-19)
(-0.00290543 0.0422555 2.1479e-19)
(0.0133417 0.0418859 1.96345e-19)
(0.0325116 0.0414675 9.58623e-20)
(0.0543987 0.0412222 1.55549e-19)
(0.0788117 0.0413352 9.07712e-20)
(0.105564 0.0419663 6.15498e-19)
(0.134467 0.0432587 -4.48717e-19)
(0.165324 0.045348 5.13843e-19)
(0.197928 0.0483713 -2.1413e-19)
(0.232057 0.052477 4.63402e-19)
(0.26748 0.0578397 -2.21115e-20)
(0.303957 0.0646811 -9.64375e-20)
(0.341249 0.0733012 -1.78612e-20)
(0.379128 0.0841174 3.68292e-19)
(0.417428 0.0977705 -3.62351e-19)
(0.456372 0.115549 2.54129e-19)
(0.496679 0.139217 2.84094e-19)
(0.535127 0.162507 6.07101e-20)
(-0.0100635 0.00903514 6.3887e-20)
(-0.0231457 0.0213734 -3.62457e-19)
(-0.0299512 0.0295732 -1.32491e-19)
(-0.0311205 0.0347306 1.21702e-19)
(-0.0272072 0.0377228 -3.77388e-19)
(-0.0186929 0.0392452 -7.4918e-20)
(-0.00598671 0.0398438 5.21774e-20)
(0.010567 0.0399483 2.07072e-19)
(0.0306752 0.0398987 -5.26696e-19)
(0.0540818 0.0399668 4.02022e-20)
(0.080554 0.0403729 -1.5523e-19)
(0.109871 0.0412984 -4.73338e-19)
(0.141815 0.0428967 3.236e-19)
(0.176163 0.0453017 1.38798e-20)
(0.212688 0.0486349 -9.74028e-21)
(0.251154 0.0530129 3.28984e-19)
(0.291322 0.0585548 -5.83334e-19)
(0.332962 0.0653903 4.63058e-19)
(0.375865 0.0736709 -8.58245e-20)
(0.41987 0.0835793 2.71877e-19)
(0.464894 0.0953354 -4.48558e-19)
(0.510998 0.109226 2.58491e-19)
(0.55867 0.125811 -4.65942e-19)
(0.608824 0.145567 4.8444e-19)
(0.656633 0.16214 -1.53479e-19)
(-0.0102495 0.00867135 4.30412e-19)
(-0.0228988 0.0202284 -7.29199e-20)
(-0.0284941 0.0277774 5.4013e-19)
(-0.0277893 0.0324312 2.51558e-19)
(-0.0214119 0.035087 2.02426e-20)
(-0.0098963 0.0364553 1.11073e-19)
(0.00630488 0.0370883 2.6917e-20)
(0.0268097 0.0374172 4.56919e-19)
(0.0512892 0.0377803 1.47784e-19)
(0.0794498 0.0384446 -1.98999e-20)
(0.111017 0.0396222 4.00549e-20)
(0.145724 0.0414828 1.54668e-19)
(0.183299 0.0441633 1.29467e-19)
(0.223463 0.0477744 2.77743e-19)
(0.26593 0.0524072 -3.17463e-19)
(0.310403 0.0581371 9.61096e-20)
(0.356589 0.065028 2.92503e-20)
(0.404202 0.0731349 1.4304e-19)
(0.452991 0.0825047 3.88822e-19)
(0.50275 0.0931734 -2.5407e-19)
(0.553348 0.105153 2.19388e-20)
(0.60475 0.118419 -3.62975e-19)
(0.657145 0.13303 3.45193e-19)
(0.710971 0.149175 -3.37026e-19)
(0.761356 0.162754 3.18525e-20)
(-0.0103293 0.00823568 -3.59131e-19)
(-0.0222596 0.0188912 2.84875e-19)
(-0.0262975 0.0257168 -4.66878e-19)
(-0.0233225 0.0298361 4.05461e-20)
(-0.0140427 0.0321631 3.32499e-19)
(0.000948142 0.0334203 -5.56905e-19)
(0.0211463 0.0341629 4.43919e-19)
(0.0461221 0.0348194 -7.07561e-19)
(0.0754974 0.0357214 1.4163e-19)
(0.108924 0.0371253 3.0375e-20)
(0.146065 0.0392277 2.4053e-19)
(0.186583 0.0421775 -8.02178e-19)
(0.230126 0.0460841 1.39008e-19)
(0.276329 0.0510235 1.47639e-19)
(0.324813 0.0570426 -8.87753e-20)
(0.375187 0.0641628 -5.5208e-19)
(0.427061 0.0723814 2.60677e-19)
(0.480058 0.0816721 4.89193e-19)
(0.533827 0.0919829 -5.17828e-19)
(0.58806 0.10323 3.76788e-19)
(0.642506 0.115286 -4.90743e-19)
(0.696967 0.127962 3.57748e-19)
(0.751345 0.141092 -1.00481e-19)
(0.805705 0.154858 5.75998e-19)
(0.855904 0.167081 -6.71687e-19)
(-0.0102821 0.00772908 5.14717e-20)
(-0.0211623 0.0173726 4.20902e-20)
(-0.023249 0.0234206 1.03859e-19)
(-0.0175608 0.0269989 3.72685e-19)
(-0.00489597 0.0290334 -1.17059e-20)
(0.0140832 0.0302547 8.42334e-20)
(0.0388106 0.0312167 3.76628e-19)
(0.0687938 0.0323399 1.5266e-19)
(0.103587 0.0339432 -5.04876e-20)
(0.142763 0.0362647 4.3167e-19)
(0.185897 0.0394768 -4.93299e-19)
(0.232548 0.0436973 7.59554e-19)
(0.282255 0.0489968 -3.02356e-19)
(0.334532 0.0554046 5.50377e-19)
(0.388878 0.062913 -1.86407e-19)
(0.444776 0.0714805 6.81737e-20)
(0.501717 0.0810338 8.2836e-20)
(0.559204 0.0914693 -1.6066e-19)
(0.616774 0.102652 1.34795e-19)
(0.674007 0.114412 8.69535e-20)
(0.730538 0.126541 1.20579e-19)
(0.786047 0.138779 2.57463e-19)
(0.840263 0.150874 -2.12462e-20)
(0.893072 0.162993 -1.18466e-19)
(0.941389 0.174434 3.66995e-19)
(-0.0100836 0.00715243 -3.00917e-19)
(-0.0195331 0.0156852 3.30014e-20)
(-0.0192256 0.0209237 -5.97391e-19)
(-0.0103352 0.0239831 -1.43592e-19)
(0.00623841 0.025794 -2.70257e-19)
(0.0297515 0.0270904 -5.83052e-20)
(0.0595595 0.0284188 -2.92406e-19)
(0.0950864 0.0301849 -1.75486e-19)
(0.135792 0.0326869 2.33387e-19)
(0.181143 0.0361349 -3.91127e-19)
(0.230591 0.040666 -1.0905e-19)
(0.283561 0.0463546 4.27687e-21)
(0.339444 0.0532204 -7.4193e-19)
(0.397609 0.0612343 3.16423e-19)
(0.457401 0.0703243 -4.63375e-19)
(0.518165 0.0803802 -1.45093e-20)
(0.579259 0.0912584 9.20945e-20)
(0.640074 0.102785 -1.49695e-19)
(0.700045 0.114761 -1.31657e-19)
(0.758672 0.126961 6.6296e-20)
(0.81552 0.139136 7.46309e-20)
(0.870217 0.151012 -4.84234e-19)
(0.922443 0.162321 2.76963e-19)
(0.972029 0.173199 1.41584e-19)
(1.01695 0.183988 4.09363e-20)
(-0.00970545 0.00650707 3.08046e-19)
(-0.0172904 0.0138452 -3.41093e-19)
(-0.0140965 0.0182677 4.81481e-19)
(-0.00147074 0.020862 7.52322e-20)
(0.0195706 0.0225542 -2.3234e-20)
(0.0481854 0.0240747 -1.64651e-19)
(0.0836283 0.0259542 2.48933e-20)
(0.125213 0.0285749 2.52604e-19)
(0.172273 0.0322031 -3.49965e-19)
(0.22413 0.0370087 3.68951e-19)
(0.280079 0.0430798 -3.90904e-20)
(0.33937 0.0504333 1.73396e-20)
(0.401223 0.0590241 4.84953e-19)
(0.46483 0.0687533 6.52016e-19)
(0.529378 0.0794764 -2.55889e-19)
(0.594068 0.0910116 4.5631e-19)
(0.658142 0.103148 2.32941e-19)
(0.720901 0.115653 -1.42606e-19)
(0.781725 0.128279 4.54709e-19)
(0.840083 0.140773 -1.66893e-20)
(0.895542 0.152877 -4.40894e-19)
(0.947758 0.164334 4.67945e-19)
(0.996462 0.1749 6.87491e-20)
(1.04154 0.184683 -2.93622e-19)
(1.08186 0.194704 9.30346e-20)
(-0.00911558 0.00579541 -4.28923e-19)
(-0.0143457 0.0118726 4.65068e-19)
(-0.00772481 0.0155016 -2.97183e-19)
(0.00920838 0.0177196 -9.343e-20)
(0.0353026 0.019436 -2.09989e-19)
(0.0695946 0.0213677 3.73282e-19)
(0.11121 0.0240195 -2.17753e-19)
(0.159316 0.0277371 -1.00197e-19)
(0.213083 0.0327411 -2.88072e-19)
(0.271648 0.0391454 7.50489e-21)
(0.334107 0.0469728 -1.13562e-19)
(0.399509 0.0561665 5.54649e-20)
(0.466874 0.0666029 -5.85948e-19)
(0.535211 0.0781024 1.67492e-19)
(0.603552 0.0904429 -2.02945e-19)
(0.670977 0.103372 -1.64292e-19)
(0.736648 0.116618 5.08299e-20)
(0.799827 0.129904 -2.41755e-19)
(0.859898 0.142958 -1.04871e-19)
(0.916374 0.155518 3.01524e-19)
(0.968897 0.167344 1.29111e-19)
(1.01723 0.178218 -5.49306e-19)
(1.06123 0.187947 4.06407e-19)
(1.10091 0.196632 -7.72907e-20)
(1.13584 0.205659 -1.62416e-19)
(-0.00827876 0.0050217 -1.56572e-19)
(-0.010606 0.00979356 -8.68989e-20)
(2.82255e-05 0.0126834 -1.75385e-20)
(0.0218729 0.0146512 1.28575e-19)
(0.0536192 0.0165734 1.40709e-19)
(0.0941537 0.0191411 1.23192e-19)
(0.142437 0.0228183 1.53886e-19)
(0.19745 0.0278985 2.35958e-19)
(0.258153 0.0345384 3.62064e-19)
(0.32346 0.0427772 3.59554e-19)