/*--------------------------------*- C++ -*----------------------------------*\
  =========                 |
  \\      /  F ield         | OpenFOAM: The Open Source CFD Toolbox
   \\    /   O peration     | Website:  https://openfoam.org
    \\  /    A nd           | Version:  6.0
     \\/     M anipulation  |
\*---------------------------------------------------------------------------*/
FoamFile
{
    version     2.0;
    format      ascii;
    class       volVectorField;
    location    "90";
    object      U;
}
// * * * * * * * * * * * * * * * * * * * * * * * * * * * * * * * * * * * * * //

dimensions      [0 1 -1 0 0 0 0];

internalField   nonuniform List<vector> 
4000
(
(-0.000702446 0.0506375 -5.6258e-21)
(-0.00171615 0.129362 3.01302e-20)
(-0.00310195 0.189648 -3.65149e-20)
(-0.0053113 0.23437 2.77589e-20)
(-0.00825661 0.26636 1.3461e-20)
(-0.011637 0.288358 -4.04968e-20)
(-0.0150898 0.302789 -3.56475e-21)
(-0.0182751 0.311649 -1.25154e-21)
(-0.0209235 0.316463 -2.11165e-20)
(-0.0228563 0.318331 -1.14841e-20)
(-0.0239841 0.318 8.50585e-21)
(-0.0242947 0.315949 3.25382e-20)
(-0.0238344 0.312473 -2.30616e-21)
(-0.0226879 0.307748 3.65235e-21)
(-0.0209609 0.301874 -3.32791e-20)
(-0.0187669 0.294909 2.06233e-20)
(-0.0162163 0.286878 -2.97658e-20)
(-0.0133643 0.277782 4.52526e-20)
(-0.0101634 0.267562 -5.37496e-23)
(-0.00694039 0.256063 9.82159e-21)
(-0.00237621 0.0498259 1.88698e-20)
(-0.00533947 0.128339 -9.68221e-20)
(-0.00712288 0.189209 -6.6562e-20)
(-0.00879829 0.234815 -4.48788e-20)
(-0.0106485 0.267657 -5.77321e-20)
(-0.0126151 0.290268 1.24889e-20)
(-0.014515 0.304982 -6.66041e-20)
(-0.0161279 0.313782 -1.49975e-20)
(-0.017254 0.318237 4.55931e-21)
(-0.0177454 0.319516 4.96814e-20)
(-0.0175154 0.318448 -5.46756e-20)
(-0.0165349 0.315589 7.63626e-20)
(-0.0148216 0.311298 -5.7529e-20)
(-0.0124255 0.305799 -6.86753e-20)
(-0.00941598 0.299223 -9.54418e-20)
(-0.00587115 0.291644 6.05751e-20)
(-0.00187012 0.283087 -2.04144e-20)
(0.0025318 0.273543 -7.32792e-20)
(0.00733563 0.262936 6.92082e-20)
(0.0123713 0.251074 -5.11877e-20)
(-0.00397311 0.0483867 1.87382e-19)
(-0.00892019 0.125817 9.5993e-20)
(-0.0112642 0.186737 1.07778e-19)
(-0.0125828 0.232955 8.94914e-21)
(-0.0134767 0.266572 5.9315e-20)
(-0.0141093 0.289865 7.33681e-20)
(-0.0144715 0.305024 -1.34525e-19)
(-0.0144662 0.313974 -7.106e-20)
(-0.0139701 0.318294 -9.31619e-20)
(-0.0128742 0.3192 9.89295e-20)
(-0.0111025 0.317583 -7.60014e-20)
(-0.00861648 0.314062 -9.8786e-20)
(-0.0054111 0.309056 -3.64821e-20)
(-0.00150721 0.302832 3.43498e-20)
(0.00305694 0.295556 -1.01131e-20)
(0.00823386 0.287321 1.33721e-20)
(0.0139721 0.278167 1.63323e-19)
(0.0202182 0.268086 -2.24589e-20)
(0.0269247 0.256995 -1.6852e-19)
(0.0340414 0.244687 2.18919e-19)
(-0.0054376 0.046409 6.58895e-20)
(-0.0123283 0.12195 -9.14497e-20)
(-0.0153624 0.182378 -2.24436e-20)
(-0.0164963 0.228886 4.34078e-20)
(-0.0165854 0.263145 1.21521e-19)
(-0.0159854 0.287128 2.6458e-19)
(-0.0148486 0.302838 2.58489e-19)
(-0.0131999 0.312106 2.17908e-20)
(-0.0109979 0.316486 1.58879e-19)
(-0.00818067 0.317211 2.43982e-19)
(-0.00469193 0.315215 -1.9593e-19)
(-0.000492406 0.311169 2.89971e-19)
(0.00443735 0.305538 -6.77769e-20)
(0.0100985 0.298636 1.61246e-20)
(0.0164775 0.290661 7.07689e-20)
(0.0235518 0.281734 9.53156e-20)
(0.0312935 0.271916 -1.48954e-19)
(0.0396528 0.261214 -1.26245e-19)
(0.0485353 0.249553 -2.25387e-19)
(0.0579643 0.236734 3.21693e-19)
(-0.00672734 0.0439897 -3.45694e-20)
(-0.0154568 0.116919 -3.49932e-19)
(-0.0192749 0.176313 -1.0259e-19)
(-0.0203851 0.22275 -2.49325e-19)
(-0.0198272 0.257451 9.4729e-20)
(-0.0181129 0.282065 -1.47985e-19)
(-0.0155375 0.298372 5.12973e-20)
(-0.0122424 0.308074 -3.13984e-19)
(-0.00827053 0.312666 1.66076e-19)
(-0.00361449 0.313374 -1.98122e-19)
(0.00175311 0.311152 -1.76942e-19)
(0.0078625 0.306706 -1.99765e-19)
(0.0147381 0.300543 1.8222e-19)
(0.0223945 0.293014 -1.65507e-19)
(0.0308356 0.284352 2.30679e-19)
(0.0400571 0.274709 6.79575e-20)
(0.0500493 0.264176 1.69714e-19)
(0.0607683 0.252785 7.56098e-20)
(0.0720758 0.240485 -2.99211e-19)
(0.0840147 0.22711 4.7728e-19)
(-0.00781448 0.0412318 1.52824e-19)
(-0.0182259 0.110924 1.16097e-20)
(-0.0228879 0.16876 6.20927e-20)
(-0.0241198 0.214727 2.15219e-19)
(-0.0230735 0.24961 -3.2458e-20)
(-0.0203758 0.274722 3.47567e-19)
(-0.0164422 0.291602 1.54238e-19)
(-0.0115208 0.301792 1.28079e-20)
(-0.00573858 0.306701 3.97267e-19)
(0.000851901 0.307519 1.30915e-19)
(0.00824053 0.305201 6.23378e-20)
(0.0164386 0.300473 1.98133e-19)
(0.0254655 0.293871 1.83204e-19)
(0.0353404 0.285776 3.37979e-19)
(0.0460764 0.276456 -3.0242e-19)
(0.0576804 0.266094 4.35384e-19)
(0.0701549 0.254816 9.68161e-21)
(0.0834623 0.242692 -5.65095e-19)
(0.0974264 0.229707 7.40218e-19)
(0.112049 0.215754 3.02395e-19)
(-0.00868629 0.0382409 -9.04661e-20)
(-0.020587 0.104184 -1.62585e-19)
(-0.0261221 0.159964 -3.34484e-19)
(-0.0276028 0.205037 -9.39217e-21)
(-0.0262223 0.239782 5.65743e-20)
(-0.0226809 0.265188 -4.23412e-19)
(-0.0174876 0.282539 -3.13602e-19)
(-0.010984 0.293202 -4.46492e-20)
(-0.00337788 0.298475 -3.97445e-19)
(0.00521507 0.29949 -2.76237e-19)
(0.0147401 0.297179 -8.06399e-20)
(0.0251807 0.292271 -2.61278e-19)
(0.0365416 0.28532 -3.39344e-21)
(0.0488372 0.276731 -3.51747e-19)
(0.0620825 0.266798 1.50734e-19)
(0.0762886 0.255737 -1.71427e-19)
(0.0914636 0.243709 1.35568e-19)
(0.107576 0.230832 -1.67735e-19)
(0.12442 0.217146 -4.94357e-19)
(0.14189 0.202621 -1.47038e-19)
(-0.00934534 0.0351229 -3.28827e-20)
(-0.0225239 0.0969244 -3.54054e-20)
(-0.0289363 0.150193 2.80503e-19)
(-0.0307732 0.193934 -4.5495e-19)
(-0.0292041 0.228172 6.70649e-20)
(-0.0249622 0.253595 -2.60732e-19)
(-0.0186227 0.271241 1.23359e-19)
(-0.0106048 0.282288 5.53422e-19)
(-0.00119097 0.287907 -3.49759e-20)
(0.00943941 0.289151 -4.1462e-19)
(0.021182 0.286912 7.57109e-20)
(0.0339848 0.281906 1.39178e-20)
(0.0478298 0.274688 -8.8352e-20)
(0.0627191 0.265679 6.10814e-21)
(0.0786623 0.255192 7.74874e-19)
(0.0956694 0.24347 -1.09003e-19)
(0.113749 0.230709 -2.19437e-19)
(0.132875 0.21708 -4.01414e-19)
(0.152822 0.2027 4.0871e-19)
(0.173312 0.187644 1.72694e-19)
(-0.00980944 0.031982 1.66516e-19)
(-0.024054 0.0893766 -2.16853e-19)
(-0.0313293 0.139733 3.05877e-19)
(-0.0336088 0.181704 3.05388e-19)
(-0.0319826 0.215027 2.8071e-19)
(-0.0271807 0.24013 5.66617e-19)
(-0.0198179 0.257817 3.65449e-19)
(-0.0103743 0.269084 -7.84333e-19)
(0.000801405 0.274961 4.01364e-19)
(0.0134683 0.276408 3.15924e-19)
(0.0274699 0.274259 -3.62593e-21)
(0.0427137 0.269202 3.57554e-19)
(0.0591528 0.261782 2.82853e-19)
(0.0767708 0.252419 -1.52451e-19)
(0.095568 0.241439 5.2743e-19)
(0.11555 0.229102 -6.55184e-19)
(0.136725 0.215637 2.66194e-19)
(0.159072 0.201269 3.47065e-19)
(0.182358 0.186215 -8.27064e-20)
(0.20607 0.17069 6.85293e-19)
(-0.0101109 0.0289179 3.34918e-19)
(-0.0252266 0.0817694 1.60908e-20)
(-0.0333377 0.128876 -1.1937e-19)
(-0.0361231 0.168655 -1.25248e-19)
(-0.0345501 0.200634 -5.74294e-19)
(-0.0293164 0.225028 8.10904e-20)
(-0.0210534 0.242439 2.29221e-19)
(-0.010285 0.253688 -1.0945e-19)
(0.00258382 0.259664 9.02767e-20)
(0.017255 0.261225 -2.41428e-20)
(0.0335204 0.259134 -1.19223e-19)
(0.0512448 0.254034 1.12304e-19)
(0.0703494 0.246445 -5.01624e-19)
(0.0907968 0.236779 4.79551e-19)
(0.112577 0.225358 -4.23021e-19)
(0.135692 0.212452 1.30076e-19)
(0.160149 0.198308 3.03867e-19)
(0.185941 0.183207 -6.17446e-20)
(0.212844 0.167491 -2.14149e-19)
(0.240038 0.151571 -1.41526e-19)
(-0.0102955 0.0260234 -4.14842e-19)
(-0.0261195 0.0743218 -2.54286e-20)
(-0.0350301 0.117915 8.66204e-20)
(-0.0383567 0.15511 2.19724e-19)
(-0.0369155 0.185311 -3.10982e-19)
(-0.0313519 0.208576 -2.69633e-19)
(-0.0222952 0.225344 6.27571e-19)
(-0.0102979 0.236278 -3.46445e-19)
(0.00418993 0.242131 -2.23183e-19)
(0.02082 0.243656 -3.20995e-19)
(0.0393365 0.241536 2.13296e-19)
(0.0595633 0.236358 -4.59042e-21)
(0.0813909 0.228605 -4.00808e-19)
(0.104762 0.218664 -6.66798e-19)
(0.129659 0.206843 5.08908e-19)
(0.156086 0.193403 -4.20798e-19)
(0.184056 0.178601 5.99721e-19)
(0.213578 0.162761 -1.67005e-19)
(0.244458 0.146379 3.7077e-19)
(0.275503 0.130138 -1.19024e-18)
(-0.0104194 0.0233811 -8.35643e-19)
(-0.0268317 0.067234 5.4529e-19)
(-0.0364952 0.107129 7.44097e-20)
(-0.0403615 0.141394 1.40596e-20)
(-0.0390835 0.1694 -3.30226e-19)
(-0.0332444 0.19111 4.84663e-19)
(-0.0234582 0.20684 5.33037e-20)
(-0.0102927 0.21712 -9.94108e-20)
(0.00576922 0.222583 -3.15632e-19)
(0.024339 0.223874 3.4241e-19)
(0.0451211 0.221594 8.71734e-19)
(0.0679058 0.216267 -1.92923e-19)
(0.0925586 0.208327 4.38675e-19)
(0.119009 0.198124 -5.25335e-19)
(0.147236 0.185939 -5.09966e-19)
(0.177254 0.17201 3.07148e-19)
(0.209086 0.156579 5.22075e-19)
(0.242754 0.140004 -1.69482e-18)
(0.278115 0.122953 1.95297e-19)
(0.31354 0.106489 2.63405e-19)
(-0.0105459 0.0210599 6.17985e-19)
(-0.0274721 0.0606784 1.99643e-19)
(-0.0378243 0.0967711 1.04289e-18)
(-0.042177 0.127824 5.23174e-20)
(-0.0410242 0.153258 -1.14828e-19)
(-0.0348867 0.173007 -5.43313e-19)
(-0.0243551 0.187304 4.62839e-19)
(-0.0100008 0.19658 8.23888e-19)
(0.00767398 0.20136 5.49997e-19)
(0.0282544 0.202195 3.94764e-19)
(0.0514189 0.199601 3.40974e-19)
(0.076936 0.194036 -6.19458e-19)
(0.104657 0.185878 -1.98364e-19)
(0.134507 0.175432 -1.44685e-19)
(0.166468 0.16294 1.57134e-18)
(0.200563 0.148601 -5.53857e-22)
(0.236818 0.132629 -4.01655e-19)
(0.27525 0.115385 -1.36995e-19)
(0.315774 0.097733 1.16953e-18)
(0.356292 0.0812358 1.44155e-19)
(-0.0107392 0.0191097 -3.24307e-20)
(-0.0281445 0.0547891 -5.78723e-19)
(-0.0390886 0.0870575 -8.54705e-19)
(-0.0438006 0.11469 -2.35138e-19)
(-0.0426359 0.13724 1.29375e-19)
(-0.0360607 0.15467 2.86675e-20)
(-0.0246384 0.167176 7.33995e-19)
(-0.00893216 0.175117 -9.10232e-19)
(0.0105521 0.178936 -3.45409e-19)
(0.033391 0.179097 -6.95787e-19)
(0.0592546 0.176042 -5.95006e-19)
(0.0879057 0.170159 -5.27655e-19)
(0.119193 0.161772 1.31724e-19)
(0.153042 0.151137 -1.72383e-19)
(0.189434 0.138449 7.52728e-19)
(0.228385 0.123867 -4.11642e-19)
(0.269892 0.107557 -1.32203e-18)
(0.313915 0.0898587 -2.78922e-19)
(0.360406 0.0718348 6.64147e-19)
(0.406847 0.055694 -5.62649e-19)
(-0.0110565 0.0175569 -9.85053e-20)
(-0.0289288 0.0496513 7.00729e-19)
(-0.040313 0.0781526 -8.90549e-19)
(-0.0451558 0.102244 2.06875e-19)
(-0.0437075 0.121686 -4.18675e-19)
(-0.0363931 0.136517 9.28762e-19)
(-0.0237473 0.146942 -6.61573e-19)
(-0.0063131 0.153277 7.55318e-19)
(0.0154174 0.155905 -7.12913e-19)
(0.041032 0.155219 3.05433e-19)
(0.07021 0.151594 -1.47575e-19)
(0.102722 0.145359 -3.71682e-19)
(0.138417 0.136785 -4.63174e-19)
(0.17721 0.126081 4.65475e-19)
(0.219058 0.113402 -3.93253e-19)
(0.263923 0.0988655 -8.74891e-19)
(0.311711 0.0825887 9.17506e-19)
(0.362237 0.0648651 -1.18379e-18)
(0.415429 0.0469352 5.42003e-19)
(0.468547 0.0318243 2.12779e-20)
(-0.0115392 0.016399 -8.75901e-19)
(-0.0298619 0.0452927 -9.4181e-19)
(-0.0414518 0.0701565 1.09094e-19)
(-0.0460647 0.0906816 -8.97781e-19)
(-0.0438894 0.106895 -7.64997e-20)
(-0.0353265 0.118956 -6.55396e-19)
(-0.0208811 0.127109 -1.49291e-19)
(-0.00106544 0.131661 -4.34296e-19)
(0.0236583 0.132952 6.20175e-21)
(0.0529041 0.131326 -1.88748e-19)
(0.08637 0.127101 1.50808e-20)
(0.123831 0.120556 -5.49349e-19)
(0.16512 0.111917 6.12794e-19)
(0.210105 0.101357 -8.69309e-19)
(0.258656 0.0889988 3.14249e-19)
(0.310605 0.074931 1.54153e-20)
(0.365679 0.0592321 -5.06586e-19)
(0.423436 0.0421288 1.27997e-18)
(0.483675 0.024976 -3.02554e-19)
(0.543844 0.0118438 -1.93798e-19)
(-0.0122036 0.0156016 9.78782e-19)
(-0.0309211 0.0416768 5.27487e-19)
(-0.0423711 0.0630957 4.88167e-19)
(-0.0462332 0.0801277 7.2855e-20)
(-0.0426855 0.0931069 6.56116e-19)
(-0.0321216 0.102349 9.3957e-19)
(-0.0150195 0.108165 7.63213e-19)
(0.00814599 0.110875 6.88768e-20)
(0.036949 0.110801 5.56213e-19)
(0.0710298 0.108248 8.58209e-19)
(0.110092 0.103495 -2.22103e-19)
(0.153885 0.0967807 3.74296e-19)
(0.202174 0.0882976 3.01775e-19)
(0.254706 0.078191 3.08749e-19)
(0.311173 0.0665644 1.86424e-18)
(0.371176 0.0534908 -7.011e-19)
(0.434164 0.0390257 -4.291e-20)
(0.499354 0.023316 8.40328e-19)
(0.566284 0.00770459 -4.80355e-19)
(0.633146 -0.00237931 2.29407e-19)
(-0.0130336 0.0150983 -7.87711e-19)
(-0.0320136 0.0387025 4.89811e-20)
(-0.0428432 0.056917 -6.2427e-19)
(-0.0452562 0.0706211 -7.98065e-20)
(-0.0394731 0.0804783 4.53345e-19)
(-0.0259016 0.086981 -1.34646e-18)
(-0.00500044 0.0905293 1.22599e-22)
(0.0227862 0.0914742 6.22784e-19)
(0.0570557 0.0901332 5.8216e-19)
(0.0974477 0.0867916 -2.56761e-19)
(0.143625 0.0816983 8.49064e-20)
(0.195242 0.0750621 1.96502e-19)
(0.251908 0.06705 -9.23312e-20)
(0.313145 0.0577883 -1.0582e-18)
(0.378358 0.0473688 2.67048e-19)
(0.446813 0.0358579 7.55005e-19)
(0.517604 0.0232989 -1.08298e-18)
(0.58958 0.00975064 5.28519e-19)
(0.66193 -0.00362291 1.44501e-19)
(0.734051 -0.00970641 7.12519e-19)
(-0.013978 0.0147954 -1.14426e-19)
(-0.0329754 0.0362109 -5.48781e-19)
(-0.0425561 0.05149 2.51943e-19)
(-0.042642 0.0621092 5.07114e-22)
(-0.0335515 0.0690634 -1.08888e-18)
(-0.0157325 0.0730309 1.70676e-19)
(0.0103532 0.0745115 -3.13784e-20)
(0.044264 0.0738994 2.16851e-19)
(0.0855779 0.0715204 -9.91538e-19)
(0.13387 0.067648 -6.93954e-20)
(0.188678 0.06251 -2.33684e-19)
(0.249459 0.0562914 2.06968e-19)
(0.315549 0.0491374 7.05505e-19)
(0.386135 0.0411581 -1.08494e-19)
(0.460235 0.0324359 4.32857e-20)
(0.536704 0.0230335 2.82829e-19)
(0.614238 0.012987 -7.09823e-20)
(0.691332 0.00228269 5.91577e-19)
(0.766876 -0.00814835 -3.34528e-19)
(0.841285 -0.00962656 -5.22431e-19)
(-0.0149519 0.0145808 1.07297e-19)
(-0.0335812 0.0340009 2.68585e-20)
(-0.0411352 0.0466189 2.19463e-19)
(-0.0378521 0.0544538 5.35255e-19)
(-0.024206 0.0588117 2.98783e-19)
(-0.000722276 0.0605544 3.04415e-20)
(0.0320916 0.0602834 -3.53721e-19)
(0.0737388 0.0584411 9.10081e-20)
(0.123699 0.0553666 4.74698e-19)
(0.181383 0.0513257 -8.0463e-19)
(0.246085 0.0465258 6.08e-19)
(0.31694 0.0411259 -4.5866e-19)
(0.392899 0.035244 3.91764e-19)
(0.472724 0.0289671 -8.48229e-19)
(0.555004 0.0223612 9.40042e-19)
(0.638188 0.0154831 -1.00865e-18)
(0.720621 0.00837204 -2.65679e-19)
(0.800535 0.0010309 8.38553e-19)
(0.876686 -0.00557786 -2.80653e-19)
(0.948592 -0.00325377 1.2574e-19)
(-0.0158448 0.0143379 -8.08265e-20)
(-0.0335613 0.0318515 7.62355e-19)
(-0.0381718 0.0420673 -4.0261e-21)
(-0.0303448 0.047452 -4.71727e-19)
(-0.0107714 0.0495852 -3.15202e-19)
(0.0198923 0.0494981 5.77628e-19)
(0.0610237 0.0478875 -2.28544e-19)
(0.11198 0.0452406 -2.88955e-20)
(0.172027 0.0419076 4.72724e-19)
(0.24028 0.0381416 -5.88432e-19)
(0.315654 0.0341208 6.50326e-20)
(0.396839 0.0299643 -7.66665e-19)
(0.482309 0.025744 4.05138e-19)
(0.570362 0.021499 -1.16144e-18)
(0.659182 0.0172519 1.85513e-18)
(0.746928 0.0130278 -3.41744e-19)
(0.83182 0.00887368 3.54135e-19)
(0.912256 0.00493891 -9.16844e-19)
(0.987471 0.00230731 1.21494e-20)
(1.05198 0.00209862 9.49952e-19)
(-0.0165308 0.0139594 -2.44592e-19)
(-0.0326223 0.0295501 2.11034e-19)
(-0.0332506 0.0375909 -7.76769e-19)
(-0.0196097 0.0408735 1.14743e-18)
(0.00732522 0.0411981 -8.26973e-19)
(0.0466937 0.0397415 4.21852e-20)
(0.0976602 0.0372805 -8.87603e-19)
(0.15931 0.0343357 6.33629e-19)
(0.230555 0.0312563 -9.14194e-20)
(0.310064 0.0282674 -5.60015e-19)
(0.396235 0.025498 -3.26908e-19)
(0.487213 0.0230015 3.43639e-19)
(0.580949 0.0207734 2.28386e-19)
(0.675294 0.0187701 -1.01107e-18)
(0.768114 0.0169287 3.65076e-19)
(0.857414 0.0151861 -5.37482e-19)
(0.941449 0.0134977 6.75018e-20)
(1.01884 0.0118807 -4.44641e-19)
(1.08883 0.010596 1.58971e-19)
(1.14966 0.0106355 -6.30523e-19)
(-0.0168803 0.0133603 6.96615e-19)
(-0.0304664 0.0269202 -4.21598e-19)
(-0.0259702 0.0329765 3.46978e-19)
(-0.00518732 0.0345085 -4.37142e-19)
(0.0305477 0.0334735 7.32835e-19)
(0.0800739 0.0311613 -1.39138e-20)
(0.142215 0.0284043 -8.93295e-20)
(0.215634 0.025735 -6.65909e-20)
(0.298724 0.0234778 4.04994e-19)
(0.389558 0.0218019 6.87956e-19)
(0.485907 0.0207556 -4.08032e-19)
(0.585319 0.0202931 3.95513e-19)
(0.685245 0.0203017 7.22275e-19)
(0.783191 0.0206281 -5.06653e-19)
(0.876871 0.0211057 -1.02055e-18)
(0.964338 0.0215774 1.85873e-18)
(1.04408 0.021912 -3.3186e-19)
(1.11509 0.022035 -1.03448e-19)
(1.17687 0.021866 1.08433e-18)
(1.22974 0.0230125 -2.44557e-19)
(-0.0167693 0.0124864 -1.1343e-18)
(-0.0268059 0.0238435 -7.54907e-19)
(-0.0159544 0.0280782 -2.89629e-19)
(0.0133265 0.0282164 5.58475e-19)
(0.0592559 0.0263028 -1.25956e-18)
(0.120251 0.0236992 6.50976e-19)
(0.194641 0.021259 8.22849e-20)
(0.280493 0.019491 8.18158e-20)
(0.375513 0.0186568 -8.53195e-19)
(0.477053 0.0188283 -3.02231e-19)
(0.582194 0.0199309 -5.31295e-19)
(0.687915 0.0217834 5.11508e-19)
(0.791284 0.0241382 1.43789e-19)
(0.889659 0.0267216 2.66279e-20)
(0.980844 0.0292686 6.52527e-19)
(1.0632 0.031551 -6.6529e-19)
(1.13568 0.0333938 -2.58733e-20)
(1.19784 0.0347027 2.32792e-20)
(1.24971 0.0353323 9.58383e-20)
(1.29268 0.0370065 4.6181e-19)
(-0.0160844 0.0113175 3.61263e-19)
(-0.0213707 0.0202742 9.30257e-19)
(-0.00285528 0.0228445 7.46567e-19)
(0.036284 0.0219651 -2.57187e-19)
(0.0937162 0.0196945 8.93767e-19)
(0.16729 0.0174159 -7.44409e-20)
(0.25466 0.0159549 -1.06441e-19)
(0.353111 0.0157452 6.21993e-20)
(0.459518 0.0169304 8.63912e-19)
(0.570426 0.0194311 5.06779e-19)
(0.682253 0.0230041 1.47702e-19)
(0.791533 0.0273024 9.56732e-21)
(0.895175 0.0319346 -9.73801e-19)
(0.990664 0.0365181 8.46082e-19)
(1.07618 0.0407212 1.41326e-19)
(1.15066 0.0442906 -2.37206e-19)
(1.21371 0.0470618 -9.9265e-19)
(1.26558 0.048973 -7.61085e-20)
(1.30692 0.0499233 3.77742e-19)
(1.33975 0.0515195 -7.07328e-20)
(-0.0147237 0.00986447 -9.17306e-19)
(-0.0139107 0.0162422 3.83854e-19)
(0.013645 0.0173312 -1.87364e-18)
(0.0639846 0.0158521 7.67393e-19)
(0.134102 0.0137992 -6.12341e-19)
(0.2211 0.0125137 4.52709e-19)
(0.321762 0.0127274 -7.0239e-19)
(0.432415 0.014728 6.39371e-20)
(0.548993 0.0184713 -3.59135e-20)
(0.667245 0.0236678 1.88092e-19)
(0.783051 0.0298677 2.71031e-19)
(0.892744 0.0365475 -5.11879e-19)
(0.993381 0.0431893 2.71401e-19)
(1.08289 0.0493423 2.46417e-19)
(1.16012 0.0546628 1.04202e-18)
(1.22475 0.0589305 -4.57709e-19)
(1.27719 0.0620458 -2.9031e-19)
(1.31836 0.0640205 4.83191e-19)
(1.3495 0.0648647 2.41213e-19)
(1.37281 0.0659053 -4.79727e-19)
(-0.0125941 0.00816462 8.03754e-19)
(-0.00419575 0.0118477 7.75144e-19)
(0.0338297 0.0117 2.23284e-19)
(0.0966647 0.0101047 9.42878e-19)
(0.180472 0.00890593 4.64522e-19)
(0.281408 0.00932354 -8.35953e-19)
(0.395181 0.0119086 1.26856e-18)
(0.517022 0.0167147 -6.246e-19)
(0.641897 0.023434 6.2288e-19)
(0.764879 0.0315158 8.03908e-19)
(0.881564 0.0402888 -4.58609e-19)
(0.988425 0.0490746 8.74724e-20)
(1.08301 0.0572784 4.79602e-19)
(1.16401 0.0644464 3.34218e-19)
(1.23112 0.0702897 7.56013e-19)
(1.2849 0.0746793 -3.09257e-19)
(1.3265 0.0776213 -4.34485e-20)
(1.35744 0.0792252 4.51518e-19)
(1.37938 0.0796151 -1.0023e-19)
(1.39454 0.0798302 -1.20417e-21)
(-0.00960814 0.006275 -4.14932e-19)
(0.00798271 0.00725097 -1.52537e-18)
(0.057937 0.00620484 3.59561e-19)
(0.134473 0.00506077 -2.73725e-19)
(0.232736 0.00541383 -6.33618e-19)
(0.347717 0.00826213 -4.52865e-19)
(0.473866 0.0138697 -2.80333e-19)
(0.60525 0.0219587 6.8031e-19)
(0.735964 0.0318891 -4.03908e-19)
(0.860659 0.0428252 -4.13047e-19)
(0.975013 0.0538955 -5.18801e-19)
(1.07602 0.0643248 -8.56235e-20)
(1.16206 0.0735185 -6.11624e-20)
(1.23279 0.0810978 -1.16997e-18)
(1.28887 0.0868933 5.5511e-19)
(1.33167 0.0909106 -7.31865e-19)
(1.363 0.093283 2.18518e-19)
(1.38478 0.0942233 -1.67097e-18)
(1.39892 0.0939512 5.05958e-19)
(1.40748 0.0932544 6.14979e-19)
(-0.00568162 0.00426736 -1.04372e-19)
(0.0228075 0.00265898 7.43936e-19)
(0.0861417 0.00117106 4.76483e-20)
(0.177439 0.00113732 1.15155e-19)
(0.29061 0.00378609 -2.34617e-19)
(0.419263 0.00977165 -3.59362e-21)
(0.55647 0.0189511 -6.05757e-21)
(0.695177 0.0306235 -1.41506e-19)
(0.828846 0.0437755 5.02293e-19)
(0.952088 0.057303 1.93443e-19)
(1.06108 0.0701994 8.70939e-19)
(1.15373 0.0816814 -2.36893e-19)
(1.22947 0.0912451 1.62628e-19)
(1.28904 0.0986601 -1.87319e-20)
(1.33401 0.103924 4.43939e-19)
(1.36646 0.107198 2.65658e-19)
(1.38861 0.108742 6.25017e-19)
(1.40263 0.108857 -1.00135e-18)
(1.41047 0.107828 1.24152e-18)
(1.41399 0.106258 -3.91883e-19)
(-0.000734004 0.00222484 -9.68582e-19)
(0.0404269 -0.00168588 -3.03111e-19)
(0.118534 -0.00302778 2.36406e-19)
(0.225437 -0.00120636 1.4937e-19)
(0.353582 0.00449913 1.53591e-19)
(0.495012 0.0142584 1.5627e-19)
(0.641393 0.0274015 -3.9084e-19)
(0.784747 0.0427379 -1.60656e-19)
(0.918286 0.058885 5.07041e-20)
(1.03704 0.0745362 -4.74319e-19)
(1.13811 0.0886503 -2.11579e-19)
(1.22057 0.100541 1.27676e-18)
(1.28509 0.109881 -3.30197e-19)
(1.3334 0.116642 -4.45115e-19)
(1.36787 0.121011 -2.0446e-19)
(1.39105 0.123302 1.45064e-19)
(1.40541 0.123884 1.68474e-19)
(1.41314 0.123121 -8.04386e-19)
(1.41611 0.121329 1.1477e-18)
(1.41592 0.118991 -9.91603e-19)
(0.00530854 0.000240565 -1.09003e-19)
(0.0609422 -0.0055156 3.11164e-20)
(0.155097 -0.0059918 -4.03537e-20)
(0.278163 -0.0015046 5.87868e-19)
(0.420901 0.00799499 3.2764e-20)
(0.573676 0.0220421 2.16575e-19)
(0.72687 0.0393386 -4.50185e-19)
(0.87193 0.0581831 -1.60435e-20)
(1.0023 0.076883 6.21927e-19)
(1.11391 0.0940398 8.51748e-20)
(1.20512 0.108699 -5.35125e-19)
(1.27637 0.120375 -4.67556e-20)
(1.32947 0.128979 -4.27871e-19)
(1.36708 0.134713 4.29381e-19)
(1.39209 0.13795 5.82587e-19)
(1.40735 0.139135 -6.37428e-20)
(1.41534 0.138715 -7.48196e-20)
(1.41817 0.137088 2.28481e-19)
(1.4175 0.134579 -7.20085e-19)
(1.41469 0.131599 6.40035e-19)
(0.0125078 -0.0015827 1.10443e-19)
(0.0843947 -0.00854436 -7.09744e-19)
(0.195687 -0.00731437 1.89601e-19)
(0.335121 0.00068326 -5.9235e-19)
(0.49159 0.0146433 2.0393e-19)
(0.653791 0.0333231 -7.57987e-19)
(0.811098 0.0547359 3.05564e-19)
(0.954872 0.0767083 -9.74705e-20)
(1.07932 0.0973513 -4.05389e-21)
(1.18169 0.115314 9.76045e-20)
(1.26184 0.129853 -3.54474e-19)
(1.32155 0.14076 -5.00485e-19)
(1.36368 0.148227 -1.00137e-19)
(1.39155 0.152681 -4.48705e-20)
(1.4084 0.154659 -1.13331e-19)
(1.41711 0.154703 -3.62881e-20)
(1.42009 0.153305 -1.0828e-19)
(1.41921 0.150869 -9.30191e-20)
(1.4159 0.147712 -2.70472e-19)
(1.41129 0.144205 4.25644e-19)
(0.0209074 -0.00313289 2.6345e-19)
(0.110752 -0.0104757 -2.93162e-19)
(0.240025 -0.00659955 6.32695e-19)
(0.395628 0.00574678 -2.73998e-19)
(0.564489 0.0247147 7.32989e-19)
(0.733798 0.0481692 1.11513e-20)
(0.892363 0.0734336 3.67751e-19)
(1.03203 0.0979666 -9.89999e-20)
(1.14827 0.119838 4.07046e-19)
(1.23996 0.137893 2.77064e-20)
(1.30852 0.151704 9.53155e-19)
(1.35696 0.161394 -6.54744e-19)
(1.38899 0.167437 8.9527e-20)
(1.40834 0.170465 1.67869e-19)
(1.41837 0.171141 8.5254e-19)
(1.42186 0.170068 -3.05509e-19)
(1.42098 0.167748 -5.9506e-20)
(1.41736 0.164569 -3.08543e-19)
(1.4122 0.160838 -3.03418e-20)
(1.40639 0.156896 1.53018e-19)
(0.0305263 -0.00428972 -1.25454e-19)
(0.139899 -0.0110108 3.64348e-19)
(0.287691 -0.00347834 -3.75782e-19)
(0.458833 0.0140038 1.47631e-19)
(0.638317 0.0383667 -1.78368e-19)
(0.812154 0.0665188 6.52524e-19)
(0.969155 0.095165 -9.15707e-20)
(1.10223 0.121557 2.2109e-19)
(1.20856 0.1439 -1.31127e-19)
(1.28877 0.161375 -3.7481e-21)
(1.3458 0.173943 1.45676e-19)
(1.38371 0.182079 -1.1199e-19)
(1.40676 0.186517 2.89126e-19)
(1.41889 0.188058 -1.44198e-19)
(1.42337 0.187446 -6.21328e-19)
(1.42278 0.185309 6.1417e-19)
(1.41902 0.182135 -2.7267e-19)
(1.41345 0.178279 2.17258e-19)
(1.407 0.174036 3.70933e-19)
(1.40042 0.16972 1.52151e-19)
(0.0413534 -0.00492701 3.12744e-19)
(0.171631 -0.00985739 -6.45467e-19)
(0.338128 0.00237561 1.23366e-19)
(0.523757 0.0256848 -9.00376e-20)
(0.711746 0.055639 -3.64918e-19)
(0.887425 0.088197 -2.85827e-19)
(1.04025 0.119589 -5.65628e-20)
(1.16474 0.147062 -5.05811e-19)
(1.26003 0.169136 -3.05617e-20)
(1.32856 0.185434 -9.30593e-20)
(1.37459 0.196351 -2.50516e-19)
(1.40295 0.2027 -5.59847e-20)
(1.41826 0.20544 -1.89268e-19)
(1.42442 0.205491 -3.11301e-19)
(1.42451 0.203638 3.15796e-19)
(1.42082 0.200502 4.14949e-20)
(1.41495 0.196538 8.25929e-20)
(1.40799 0.192057 -3.55953e-19)
(1.4007 0.18735 -9.94691e-21)
(1.39362 0.182696 -5.40955e-19)
(0.0533439 -0.00491611 3.40618e-19)
(0.20565 -0.00674112 2.281e-19)
(0.390662 0.0112315 -3.70209e-19)
(0.589333 0.0409238 5.78077e-19)
(0.783474 0.0764598 -6.2926e-20)
(0.958354 0.112939 2.15861e-19)
(1.10472 0.146325 7.46205e-20)
(1.21914 0.17408 2.62285e-19)
(1.30286 0.195197 -2.05353e-19)
(1.35998 0.20982 6.7591e-20)
(1.39584 0.218782 -6.46788e-20)
(1.41582 0.223203 -2.76376e-20)
(1.42461 0.224215 5.32198e-20)
(1.42596 0.22281 -9.70646e-20)
(1.42265 0.219777 -2.91343e-20)
(1.41664 0.215704 -8.97278e-20)
(1.40925 0.211002 -1.44562e-19)
(1.40134 0.205936 9.3699e-20)
(1.39351 0.200797 -1.25913e-19)
(1.38614 0.195815 5.46565e-19)
(0.0664166 -0.00413024 -1.69244e-19)
(0.241573 -0.00141657 -4.8241e-19)
(0.444525 0.0232889 -6.44613e-20)
(0.654459 0.059754 -1.8191e-20)
(0.852284 0.100657 -2.172e-19)
(1.02391 0.140414 -3.56327e-19)
(1.16198 0.174977 1.15906e-19)
(1.26539 0.202239 -1.59161e-19)
(1.33747 0.221794 -1.76874e-19)
(1.3838 0.234346 9.79078e-20)
(1.41055 0.241145 -7.36588e-20)
(1.42333 0.243567 -1.47649e-19)
(1.42676 0.242865 -4.03546e-21)
(1.4243 0.240057 9.96825e-20)
(1.4184 0.235905 -1.00253e-19)
(1.4107 0.23095 1.39016e-19)
(1.40225 0.225547 3.78357e-20)
(1.39372 0.219921 9.32099e-20)
(1.38555 0.214365 1.79033e-19)
(1.37803 0.209048 -1.53255e-19)
(0.0804554 -0.00244909 1.61304e-19)
(0.278941 0.00632157 -1.32888e-20)
(0.498885 0.0386676 7.35159e-20)
(0.718058 0.0821078 -9.91234e-20)
(0.917116 0.127974 8.76922e-21)
(1.08333 0.17025 3.43667e-19)
(1.21173 0.205152 -2.25025e-19)
(1.30367 0.231204 9.48378e-20)
(1.36445 0.248689 8.32757e-20)
(1.40087 0.258873 -2.32421e-19)
(1.41961 0.263382 2.17409e-19)
(1.42636 0.263788 1.88904e-21)
(1.42547 0.261412 -1.51352e-19)
(1.42006 0.257259 1.81899e-19)
(1.41223 0.252043 -7.18407e-20)
(1.40331 0.246246 5.46573e-20)
(1.39415 0.240165 -6.12005e-20)
(1.38523 0.23399 -2.48529e-20)
(1.37689 0.228023 -2.1017e-19)
(1.36932 0.222351 6.47221e-20)
(0.0953101 0.000234125 -5.3755e-20)
(0.317226 0.0166219 1.45797e-19)
(0.552866 0.0573927 2.29926e-20)
(0.779089 0.107817 9.57618e-20)
(0.977047 0.158082 4.58195e-20)
(1.13606 0.202052 2.15078e-20)
(1.25386 0.236483 1.20845e-19)
(1.33431 0.260693 -1.46037e-20)
(1.38443 0.2757 5.2833e-20)
(1.41195 0.283311 8.44854e-20)
(1.42383 0.285466 4.05148e-20)
(1.4256 0.283875 2.89713e-20)
(1.4213 0.279878 1.17132e-19)
(1.41366 0.274436 -1.13449e-19)
(1.40443 0.2682 2.42038e-20)
(1.39468 0.261587 -2.26345e-20)
(1.38506 0.254839 3.4863e-20)
(1.37593 0.248116 2.91528e-20)
(1.36752 0.241732 6.03532e-20)
(1.35997 0.235676 2.28557e-21)
(0.110792 0.00400709 3.18968e-20)
(0.355848 0.0295697 2.91783e-20)
(0.605593 0.0793993 -4.05636e-20)
(0.836619 0.136629 2.53653e-20)
(1.03136 0.190604 1.43118e-20)
(1.18176 0.235416 -4.46135e-20)
(1.28848 0.268619 1.46258e-20)
(1.35776 0.290445 2.72465e-21)
(1.39806 0.302662 2.50761e-20)
(1.41776 0.307568 -6.71835e-20)
(1.42386 0.307355 -1.73061e-22)
(1.42163 0.30381 1.84993e-20)
(1.4147 0.298249 -1.47604e-20)
(1.40541 0.291568 1.48637e-20)
(1.3952 0.284345 3.86579e-20)
(1.38491 0.276931 -2.19788e-20)
(1.37503 0.269518 6.14706e-21)
(1.36582 0.262241 2.39485e-20)
(1.35744 0.25543 -3.92564e-20)
(1.34997 0.248953 1.89507e-20)
(0.107972 -0.00341185 7.4147e-20)
(0.335992 -0.0263284 -4.08327e-20)
(0.56389 -0.0715937 4.83103e-20)
(0.774198 -0.12439 -3.60017e-20)
(0.953049 -0.175266 -1.62048e-20)
(1.09354 -0.218671 4.92642e-21)
(1.19564 -0.25196 -1.59127e-20)
(1.26409 -0.274898 5.74126e-20)
(1.30579 -0.288768 -4.76997e-20)
(1.3279 -0.295495 1.07497e-20)
(1.33664 -0.297043 -8.39798e-21)
(1.33686 -0.295101 -5.41394e-20)
(1.33205 -0.290967 5.24535e-20)
(1.32455 -0.285564 2.00857e-20)
(1.31586 -0.279511 -1.92446e-20)
(1.30689 -0.273199 4.58457e-20)
(1.29819 -0.266852 -7.0021e-22)
(1.29007 -0.260623 -4.38801e-20)
(1.28273 -0.254829 3.19165e-20)
(1.27629 -0.24937 1.03999e-20)
(0.0940543 0.000330632 -2.63678e-20)
(0.301081 -0.0139273 7.32624e-20)
(0.515709 -0.0506757 8.57301e-20)
(0.720748 -0.0969481 -4.12491e-20)
(0.90146 -0.144099 7.16307e-20)
(1.0489 -0.186473 1.15365e-19)
(1.16062 -0.220773 -6.20709e-21)
(1.2392 -0.245949 -2.00433e-20)
(1.29015 -0.262566 1.0091e-19)
(1.31987 -0.272046 4.94863e-20)
(1.33442 -0.276072 -8.97977e-21)
(1.33879 -0.276219 7.42177e-20)
(1.33678 -0.273784 -7.82165e-20)
(1.33107 -0.269741 1.25384e-19)
(1.32346 -0.264778 -2.02649e-20)
(1.31508 -0.259352 6.08922e-20)
(1.30665 -0.253743 1.15034e-20)
(1.2986 -0.248133 4.23906e-20)
(1.2912 -0.242834 -3.98111e-20)
(1.28465 -0.237849 1.09989e-20)
(0.0807365 0.00309222 -3.98751e-20)
(0.266623 -0.00391953 8.88888e-20)
(0.46667 -0.0327513 6.67223e-20)
(0.664455 -0.0723609 -1.06397e-20)
(0.845023 -0.115147 1.10868e-19)
(0.997945 -0.155656 -8.51181e-20)
(1.11857 -0.190191 -8.55171e-21)
(1.20735 -0.217024 7.79214e-20)
(1.26816 -0.236036 2.67331e-20)
(1.30641 -0.248113 3.52478e-20)
(1.32777 -0.254594 -5.11691e-20)
(1.33724 -0.256881 1.43048e-19)
(1.33883 -0.256224 2.69187e-20)
(1.33553 -0.253619 -1.23137e-19)
(1.32945 -0.249808 1.87376e-19)
(1.32199 -0.245312 -2.194e-19)
(1.31405 -0.240468 -1.02177e-19)
(1.30622 -0.235493 1.82862e-20)
(1.29886 -0.230697 9.6938e-20)
(1.29226 -0.226176 -1.82763e-19)
(0.0681764 0.00495876 -8.47687e-20)
(0.233127 0.00379363 -2.00247e-19)
(0.417569 -0.0178495 -1.76207e-19)
(0.606226 -0.0508343 -2.43248e-19)
(0.784512 -0.0887496 -1.43456e-19)
(0.941108 -0.1266 -3.0437e-19)
(1.06955 -0.160552 3.85689e-20)
(1.16823 -0.18837 -1.71982e-19)
(1.23924 -0.209322 -1.79515e-20)
(1.28683 -0.22375 2.86868e-20)
(1.316 -0.232602 -6.44885e-20)
(1.33156 -0.23705 8.96779e-20)
(1.33765 -0.23824 1.54749e-19)
(1.33751 -0.237158 -2.14307e-19)
(1.33354 -0.234577 3.99586e-20)
(1.32742 -0.23107 1.03363e-19)
(1.32028 -0.227033 1.73548e-19)
(1.31286 -0.222723 -1.49713e-19)
(1.30568 -0.218449 -7.10048e-21)
(1.2991 -0.214382 1.69754e-19)
(0.0565068 0.00602968 -1.56086e-19)
(0.201055 0.00936181 4.33654e-19)