/*--------------------------------*- C++ -*----------------------------------*\
  =========                 |
  \\      /  F ield         | OpenFOAM: The Open Source CFD Toolbox
   \\    /   O peration     | Website:  https://openfoam.org
    \\  /    A nd           | Version:  6.0
     \\/     M anipulation  |
\*---------------------------------------------------------------------------*/
FoamFile
{
    version     2.0;
    format      ascii;
    class       surfaceScalarField;
    location    "22.4";
    object      phi;
}
// * * * * * * * * * * * * * * * * * * * * * * * * * * * * * * * * * * * * * //

dimensions      [0 3 -1 0 0 0 0];

internalField   nonuniform List<scalar> 
15760
(
-2.85941e-06
2.65998e-06
1.99429e-07
-1.01074e-05
6.75761e-06
4.90358e-07
-2.06855e-05
9.8779e-06
7.002e-07
-3.37292e-05
1.21964e-05
8.47283e-07
-4.85445e-05
1.38689e-05
9.46405e-07
-6.45875e-05
1.50333e-05
1.00974e-06
-8.14456e-05
1.5811e-05
1.04713e-06
-9.88197e-05
1.63076e-05
1.06641e-06
-0.000116509
1.66155e-05
1.07369e-06
-0.000134397
1.68144e-05
1.07363e-06
-0.00015244
1.69734e-05
1.06971e-06
-0.000170656
1.71517e-05
1.06448e-06
-0.000189114
1.73986e-05
1.05974e-06
-0.000207926
1.77546e-05
1.05668e-06
-0.000227233
1.82511e-05
1.05608e-06
-0.000247202
1.89106e-05
1.05831e-06
-0.000268012
1.9747e-05
1.06346e-06
-0.000289849
2.07654e-05
1.07131e-06
-0.000312895
2.19647e-05
1.08151e-06
2.33438e-05
1.09368e-06
-0.000337333
-2.84752e-06
5.50749e-06
-1.00632e-05
1.39733e-05
-2.05884e-05
2.04031e-05
-3.35567e-05
2.51647e-05
-4.82712e-05
2.85834e-05
-6.41844e-05
3.09465e-05
-8.08787e-05
3.25053e-05
-9.80495e-05
3.34784e-05
-0.000115489
3.40554e-05
-0.000133075
3.44003e-05
-0.000150757
3.46549e-05
-0.000168545
3.49399e-05
-0.000186504
3.53573e-05
-0.00020474
3.59904e-05
-0.000223393
3.69046e-05
-0.00024263
3.81472e-05
-0.00026263
3.97479e-05
-0.000283584
4.17189e-05
-0.000305678
4.40588e-05
4.67653e-05
-0.0003291
-2.82284e-06
8.33034e-06
-9.97169e-06
2.11222e-05
-2.0388e-05
3.08194e-05
-3.32026e-05
3.79793e-05
-4.77136e-05
4.30944e-05
-6.33665e-05
4.65994e-05
-7.97349e-05
4.88737e-05
-9.6503e-05
5.02465e-05
-0.000113451
5.10035e-05
-0.000130442
5.13917e-05
-0.000147413
5.1625e-05
-0.00016436
5.18871e-05
-0.000181336
5.23337e-05
-0.00019844
5.3094e-05
-0.000215806
5.42705e-05
-0.000233598
5.59399e-05
-0.000252003
5.81519e-05
-0.000271213
6.09294e-05
-0.000291429
6.42743e-05
6.81843e-05
-0.000312848
-2.78735e-06
1.11177e-05
-9.83868e-06
2.81735e-05
-2.00956e-05
4.10763e-05
-3.26851e-05
5.05689e-05
-4.6899e-05
5.73083e-05
-6.21733e-05
6.18737e-05
-7.80691e-05
6.47695e-05
-9.42553e-05
6.64327e-05
-0.000110494
6.7242e-05
-0.000126628
6.75259e-05
-0.000142572
6.75695e-05
-0.000158305
6.76198e-05
-0.00017386
6.78887e-05
-0.000189321
6.85549e-05
-0.000204814
6.97638e-05
-0.000220502
7.16275e-05
-0.000236572
7.42227e-05
-0.000253233
7.75899e-05
-0.000270699
8.17401e-05
8.66741e-05
-0.000289189
-2.74355e-06
1.38612e-05
-9.67148e-06
3.51014e-05
-1.97249e-05
5.11296e-05
-3.20266e-05
6.28706e-05
-4.58612e-05
7.11429e-05
-6.06538e-05
7.66664e-05
-7.59509e-05
8.00665e-05
-9.14022e-05
8.1884e-05
-0.000106747
8.25867e-05
-0.000121802
8.25813e-05
-0.000136455
8.22224e-05
-0.000150656
8.18202e-05
-0.000164412
8.1645e-05
-0.000177787
8.19297e-05
-0.000190893
8.28694e-05
-0.000203885
8.46204e-05
-0.00021696
8.72969e-05
-0.000230337
9.09676e-05
-0.000244259
9.56621e-05
0.000101391
-0.000258976
-2.69394e-06
1.65552e-05
-9.47722e-06
4.18847e-05
-1.92891e-05
6.09416e-05
-3.12484e-05
7.48298e-05
-4.46324e-05
8.45269e-05
-5.88556e-05
9.08896e-05
-7.34488e-05
9.46597e-05
-8.8041e-05
9.64762e-05
-0.000102345
9.68909e-05
-0.000116147
9.63837e-05
-0.000129301
9.53755e-05
-0.000141719
9.42382e-05
-0.000153376
9.33021e-05
-0.000164304
9.28584e-05
-0.000174595
9.31604e-05
-0.000184395
9.44199e-05
-0.000193901
9.68025e-05
-0.000203354
0.000100421
-0.000213031
0.000105339
0.000111589
-0.000223229
-2.64047e-06
1.91956e-05
-9.26103e-06
4.85053e-05
-1.87974e-05
7.04779e-05
-3.03643e-05
8.63968e-05
-4.32337e-05
9.73962e-05
-5.68107e-05
0.000104467
-7.06117e-05
0.000108461
-8.4245e-05
0.000110109
-9.73961e-05
0.000110042
-0.000109817
0.000108805
-0.000121321
0.000106879
-0.000131778
0.000104695
-0.000141119
0.000102643
-0.000149336
0.000101075
-0.000156486
0.000100311
-0.000162697
0.000100631
-0.000168167
0.000102272
-0.000173157
0.000105411
-0.00017799
0.000110171
0.000116627
-0.000183028
-2.58399e-06
2.17796e-05
-9.02423e-06
5.49455e-05
-1.82505e-05
7.97042e-05
-2.93746e-05
9.75209e-05
-4.16651e-05
0.000109687
-5.4521e-05
0.000117323
-6.74477e-05
0.000121387
-8.00354e-05
0.000122697
-9.19436e-05
0.00012195
-0.00010289
0.000119751
-0.000112644
0.000116633
-0.000121027
0.000113078
-0.000127915
0.000109531
-0.000133248
0.000106408
-0.000137037
0.0001041
-0.000139377
0.000102972
-0.000140454
0.00010335
-0.000140551
0.000105508
-0.000140041
0.000109662
0.000115966
-0.00013938
-2.52382e-06
2.43035e-05
-8.76296e-06
6.11846e-05
-1.76386e-05
8.85798e-05
-2.82601e-05
0.000108142
-3.9896e-05
0.000121323
-5.19438e-05
0.00012937
-6.39028e-05
0.000133346
-7.53508e-05
0.000134145
-8.59259e-05
0.000132525
-9.5314e-05
0.000129139
-0.000103243
0.000124562
-0.00010948
0.000119316
-0.000113841
0.000113892
-0.000116199
0.000108766
-0.000116502
0.000104403
-0.000114793
0.000101263
-0.000111232
9.97881e-05
-0.000106108
0.000100384
-9.98549e-05
0.000103409
0.000109154
-9.30436e-05
-2.45758e-06
2.6761e-05
-8.46743e-06
6.71945e-05
-1.69386e-05
9.7051e-05
-2.69788e-05
0.000118183
-3.78592e-05
0.000132203
-4.89806e-05
0.000140492
-5.98433e-05
0.000144209
-7.002e-05
0.000144322
-7.9136e-05
0.000141641
-8.68532e-05
0.000136856
-9.28622e-05
0.000130571
-9.68806e-05
0.000123334
-9.86585e-05
0.00011567
-9.79931e-05
0.0001081
-9.47517e-05
0.000101162
-8.89019e-05
9.54134e-05
-8.05481e-05
9.14343e-05
-6.99681e-05
8.98036e-05
-5.76483e-05
9.10887e-05
9.58069e-05
-4.43008e-05
-2.38129e-06
2.91423e-05
-8.12221e-06
7.29354e-05
-1.61152e-05
0.000105044
-2.54652e-05
0.000127533
-3.54477e-05
0.000142185
-4.54714e-05
0.000150516
-5.5044e-05
0.000153782
-6.37426e-05
0.000153021
-7.11899e-05
0.000149089
-7.70364e-05
0.000142703
-8.09478e-05
0.000134482
-8.26007e-05
0.000124987
-8.16858e-05
0.000114755
-7.79215e-05
0.000104336
-7.10804e-05
9.43205e-05
-6.10297e-05
8.53628e-05
-4.7785e-05
7.81896e-05
-3.15749e-05
7.35935e-05
-1.29158e-05
7.24297e-05
7.55684e-05
7.32272e-06
-2.2899e-06
3.14322e-05
-7.70751e-06
7.8353e-05
-1.51224e-05
0.000112459
-2.3633e-05
0.000136043
-3.25185e-05
0.000151071
-4.11971e-05
0.000159194
-4.91888e-05
0.000161773
-5.60827e-05
0.000159915
-6.15113e-05
0.000154517
-6.51281e-05
0.00014632
-6.65926e-05
0.000135947
-6.55595e-05
0.000123954
-6.16773e-05
0.000110873
-5.45969e-05
9.72556e-05
-4.39957e-05
8.37193e-05
-2.96229e-05
7.09899e-05
-1.13683e-05
5.9935e-05
1.064e-05
5.15851e-05
3.59043e-05
4.71655e-05
4.80689e-05
6.34037e-05
-2.17796e-06
3.36102e-05
-7.20144e-06
8.33765e-05
-1.3908e-05
0.000119166
-2.13822e-05
0.000143517
-2.89017e-05
0.00015859
-3.58914e-05
0.000166184
-4.18834e-05
0.000167765
-4.64835e-05
0.000164515
-4.9342e-05
0.000157376
-5.0131e-05
0.000147109
-4.85245e-05
0.00013434
-4.41834e-05
0.000119613
-3.6746e-05
0.000103435
-2.58267e-05
8.63363e-05
-1.10312e-05
6.89239e-05
8.00479e-06
5.19539e-05
3.15409e-05
3.63989e-05
5.96074e-05
2.35185e-05
9.18053e-05
1.49677e-05
1.28626e-05
0.000127012
-2.04065e-06
3.56508e-05
-6.58277e-06
8.79186e-05
-1.24189e-05
0.000125002
-1.86077e-05
0.000149706
-2.44142e-05
0.000164397
-2.92605e-05
0.00017103
-3.2684e-05
0.000171189
-3.43024e-05
0.000166133
-3.37859e-05
0.000156859
-3.08338e-05
0.000144156
-2.51536e-05
0.00012866
-1.64431e-05
0.000110902
-4.37365e-06
9.1366e-05
1.14221e-05
7.05406e-05
3.13531e-05
4.89929e-05
5.58504e-05
2.74566e-05
8.5307e-05
6.94232e-06
0.00011995
-1.11244e-05
0.000159582
-2.46645e-05
-3.0655e-05
0.0002031
-1.87447e-06
3.75253e-05
-5.83338e-06
9.18775e-05
-1.06065e-05
0.000129775
-1.52091e-05
0.000154309
-1.88759e-05
0.000168064
-2.10091e-05
0.000173163
-2.11341e-05
0.000171314
-1.88662e-05
0.000163865
-1.38843e-05
0.000151877
-5.91068e-06
0.000136183
5.306e-06
0.000117443
2.00075e-05
9.62008e-05
3.84442e-05
7.29293e-05
6.08955e-05
4.80892e-05
8.76912e-05
2.21972e-05
0.000119223
-4.07531e-06
0.000155926
-2.97607e-05
0.000198192
-5.33904e-05
0.000246115
-7.2587e-05
-8.33554e-05
0.000298815
-1.67768e-06
3.9203e-05
-4.93952e-06
9.51394e-05
-8.42967e-06
0.000133265
-1.10968e-05
0.000156976
-1.21221e-05
0.000169089
-1.0862e-05
0.000171903
-6.80361e-06
0.000167255
4.67935e-07
0.000156593
1.12914e-05
0.000141054
2.59435e-05
0.000121531
4.4648e-05
9.87388e-05
6.75837e-05
7.32651e-05
9.48946e-05
4.56184e-05
0.000126708
1.62762e-05
0.000163161
-1.42564e-05
0.000204445
-4.53589e-05
0.000250837
-7.6153e-05
0.000302717
-0.00010527
0.00036044
-0.000130311
-0.000146497
0.000423582
-1.44992e-06
4.06529e-05
-3.89093e-06
9.75804e-05
-5.8536e-06
0.000135228
-6.19299e-06
0.000157315
-4.00754e-06
0.000166904
1.42331e-06
0.000166472
1.06859e-05
0.000157993
2.42636e-05
0.000143016
4.25536e-05
0.000122764
6.5873e-05
9.82113e-05
9.44571e-05
7.01547e-05
0.000128452
3.92706e-05
0.000167905
6.16452e-06
0.000212768
-2.8586e-05
0.000262899
-6.4388e-05
0.000318111
-0.000100571
0.000378234
-0.000136275
0.000443231
-0.000170267
0.000513351
-0.000200431
-0.000221917
0.000588771
-1.19098e-06
4.18439e-05
-2.67745e-06
9.90669e-05
-2.8444e-06
0.000135395
-4.23219e-07
0.000154894
5.60193e-06
0.000160878
1.60636e-05
0.000156011
3.16607e-05
0.000142396
5.29887e-05
0.000121688
8.05519e-05
9.52005e-05
0.000114763
6.40004e-05
0.000155928
2.89898e-05
0.000204223
-9.02522e-06
0.000259666
-4.92777e-05
0.000322071
-9.09916e-05
0.000391023
-0.00013334
0.000465853
-0.0001754
0.000545664
-0.000216086
0.000629439
-0.000254043
0.000716386
-0.000287378
-0.000312896
0.000807365
-8.9894e-07
4.27428e-05
-1.2835e-06
9.94514e-05
6.41216e-07
0.00013347
6.29842e-06
0.000149237
1.685e-05
0.000150327
3.32747e-05
0.000139586
5.64209e-05
0.000119249
8.70366e-05
9.10721e-05
0.000125779
5.64577e-05
0.00017321
1.65696e-05
0.000229774
-2.75737e-05
0.000295766
-7.50171e-05
0.000371285
-0.000124797
0.000456167
-0.000175874
0.00054989
-0.000227062
0.000651444
-0.000276954
0.000759181
-0.000323823
0.000870621
-0.000365483
0.000982563
-0.000399321
-0.000425975
0.00109564
-5.67933e-07
4.33108e-05
3.18198e-07
9.85653e-05
4.66771e-06
0.00012912
1.4088e-05
0.000139817
2.99161e-05
0.000134499
5.33054e-05
0.000116197
8.52811e-05
8.72737e-05
0.000126769
4.95839e-05
0.000178605
4.62201e-06
0.000241526
-4.63509e-05
0.000316155
-0.000102203
0.000402984
-0.000161846
0.000502344
-0.000224157
0.000614373
-0.000287903
0.000738963
-0.000351652
0.000875643
-0.000413635
0.0010233
-0.00047148
0.00117927
-0.000521448
0.00133615
-0.000556201
-0.000560733
0.0014709
-1.87077e-07
4.34978e-05
2.17076e-06
9.62075e-05
9.32918e-06
0.000121962
2.3106e-05
0.00012604
4.50362e-05
0.000112568
7.64655e-05
8.47674e-05
0.000118605
4.51346e-05
0.000172553
-4.36417e-06
0.0002393
-6.21254e-05
0.00031972
-0.000126771
0.00041456
-0.000197043
0.00052444
-0.000271727
0.000649885
-0.000349602
0.000791391
-0.000429408
0.000949579
-0.000509841
0.0011255
-0.000589558
0.00132119
-0.000667172
0.00154095
-0.000741204
0.00179518
-0.000810436
-0.00087197
0.00210642
2.63059e-07
4.32348e-05
4.33961e-06
9.21309e-05
1.47579e-05
0.000111544
3.35665e-05
0.000107231
6.25126e-05
8.36224e-05
0.000103136
4.41444e-05
0.000156813
-8.54306e-06
0.000224772
-7.23225e-05
0.000308073
-0.000145427
0.000407593
-0.000226292
0.000524008
-0.000313457
0.000657788
-0.000405507
0.000809229
-0.000501043
0.000978523
-0.000598702
0.00116588
-0.000697199
0.00137174
-0.000795413
0.00159706
-0.000892496
0.00184385
-0.000987998
0.00211531
-0.00108189
-0.00116668
0.00241001
8.05916e-07
4.24289e-05
6.90364e-06
8.60332e-05
2.11112e-05
9.73362e-05
4.57196e-05
8.26229e-05
8.26883e-05
4.66538e-05
0.00013373
-6.89758e-06
0.000200339
-7.51521e-05
0.000283776
-0.000155759
0.000385033
-0.000246683
0.000504789
-0.000346048
0.000643386
-0.000452054
0.00080081
-0.000562931
0.000976717
-0.00067695
0.00117048
-0.000792466
0.00138127
-0.000907988
0.00160813
-0.00102227
0.00185007
-0.00113443
0.00210606
-0.00124399
0.00237484
-0.00135067
-0.00144597
0.00265413
1.46963e-06
4.09592e-05
9.9528e-06
7.755e-05
2.85617e-05
7.87273e-05
5.9828e-05
5.13566e-05
0.000105904
5.78116e-07
0.000168626
-6.96195e-05
0.000249511
-0.000156038
0.000349713
-0.000255961
0.000469953
-0.000366923
0.000610468
-0.000486563
0.000770969
-0.000612555
0.000950645
-0.000742606
0.00114819
-0.000874499
0.00136189
-0.00100617
0.00158969
-0.00113578
0.00182925
-0.00126183
0.00207803
-0.00138322
0.00233328
-0.00149923
0.00259205
-0.00160944
-0.00170659
0.00285267
2.28325e-06
3.8676e-05
1.35767e-05
6.62565e-05
3.72739e-05
5.50301e-05
7.61256e-05
1.25049e-05
0.000132429
-5.57249e-05
0.000208054
-0.000145245
0.000304399
-0.000252383
0.000422308
-0.00037387
0.000561983
-0.000506598
0.000722929
-0.000647509
0.000903939
-0.000793565
0.00110314
-0.000941806
0.00131808
-0.00108944
0.00154587
-0.00123395
0.0017833
-0.00137321
0.00202699
-0.00150553
0.00227351
-0.00162973
0.00251936
-0.00174509
0.00276122
-0.0018513
-0.00194314
0.00299777
3.27348e-06
3.54025e-05
1.78537e-05
5.16763e-05
4.73806e-05
2.55032e-05
9.47753e-05
-3.48898e-05
0.000162393
-0.000123343
0.000251999
-0.000234851
0.000364671
-0.000365054
0.000500685
-0.000509884
0.000659434
-0.000665348
0.0008394
-0.000827475
0.00103821
-0.000992374
0.00125276
-0.00115636
0.00147944
-0.00131611
0.00171429
-0.0014688
0.00195329
-0.00161221
0.00219251
-0.00174475
0.00242826
-0.00186548
0.00265719
-0.00197402
0.00287644
-0.00207055
-0.00215192
0.00308523
4.4619e-06
3.09406e-05
2.28407e-05
3.32975e-05
5.89611e-05
-1.06172e-05
0.00011583
-9.17589e-05
0.000195729
-0.000203242
0.000300117
-0.000339239
0.000429494
-0.000494431
0.00058327
-0.00066366
0.000759724
-0.000841802
0.000956067
-0.00102382
0.00116861
-0.00120492
0.00139303
-0.00138079
0.0016247
-0.00154778
0.00185896
-0.00170306
0.00209143
-0.00184468
0.00231822
-0.00197154
0.00253606
-0.00208332
0.00274234
-0.00218031
0.0029352
-0.00226341
-0.00233131
0.00311459
5.8631e-06
2.50775e-05
2.85667e-05
1.05939e-05
7.20257e-05
-5.40762e-05
0.000139206
-0.00015894
0.000232126
-0.000296162
0.000351687
-0.000458799
0.000497498
-0.000640242
0.000667792
-0.000833954
0.000859473
-0.00103348
0.00106833
-0.00123267
0.00128938
-0.00142596
0.00151727
-0.00160868
0.00174672
-0.00177723
0.00197288
-0.00192922
0.0021916
-0.0020634
0.0023996
-0.00217954
0.00259452
-0.00227823
0.00277491
-0.0023607
0.00294013
-0.00242863
-0.0024822
0.00309101
7.48372e-06
1.75938e-05
3.50277e-05
-1.69501e-05
8.65059e-05
-0.000105554
0.000164667
-0.000237101
0.000271022
-0.000402516
0.000405604
-0.000593381
0.000566809
-0.000801448
0.000751407
-0.00101855
0.000954764
-0.00123684
0.00117126
-0.00144917
0.00139483
-0.00164953
0.0016195
-0.00183334
0.00183986
-0.0019976
0.00205144
-0.00214081
0.00225086
-0.00226283
0.00243591
-0.00236458
0.00260544
-0.00244776
0.00275926
-0.00251452
0.00289788
-0.00256726
-0.00260727
0.00302296
9.32212e-06
8.27167e-06
4.21852e-05
-4.98132e-05
0.00010225
-0.000165619
0.000191819
-0.000326671
0.000311598
-0.000522295
0.000460417
-0.000742201
0.00063515
-0.000976181
0.000830908
-0.00121431
0.00104151
-0.00144744
0.00126015
-0.00166781
0.00148009
-0.00186947
0.00169526
-0.00204852
0.00190074
-0.00220308
0.00209294
-0.00233301
0.00226967
-0.00243956
0.00243
-0.00252491
0.00257404
-0.0025918
0.00270271
-0.00264319
0.00281743
-0.00268198
-0.00271022
0.00292038
1.13683e-05
-3.09666e-06
4.99654e-05
-8.84102e-05
0.000119021
-0.000234674
0.000220114
-0.000427764
0.00035281
-0.00065499
0.0005144
-0.000903792
0.000699998
-0.00116178
0.000903006
-0.00141732
0.00111589
-0.00166033
0.00133105
-0.00188298
0.00154164
-0.00208006
0.00174211
-0.00224898
0.00192851
-0.00238948
0.00209854
-0.00250304
0.00225135
-0.00259236
0.00238727
-0.00266084
0.00250751
-0.00271204
0.00261378
-0.00274946
0.00270807
-0.00277627
-0.0027949
0.00279276
1.36038e-05
-1.67005e-05
5.82589e-05
-0.000133065
0.000136503
-0.000312918
0.00024887
-0.000540132
0.000393433
-0.000799553
0.000565661
-0.00107602
0.000758788
-0.00135491
0.000964644
-0.00162317
0.00117472
-0.00187041
0.0013812
-0.00208945
0.00157771
-0.00227656
0.00175973
-0.00243101
0.00192467
-0.00255442
0.00207163
-0.00265
0.00220108
-0.00272181
0.00231441
-0.00277417
0.00241358
-0.00281121
0.00250077
-0.00283665
0.00257817
-0.00285367
-0.00286482
0.00264809
1.60012e-05
-3.27016e-05
6.69215e-05
-0.000183986
0.000154304
-0.000400301
0.00027729
-0.000663118
0.00043213
-0.000954393
0.000612274
-0.00125616
0.000809132
-0.00155176
0.00101329
-0.00182733
0.0012158
-0.00207292
0.00140923
-0.00228288
0.00158822
-0.00245556
0.00174966
-0.00259245
0.00189243
-0.00269718
0.00201698
-0.00277455
0.00212486
-0.00282969
0.00221821
-0.00286752
0.0022994
-0.0028924
0.00237077
-0.00290802
0.00243446
-0.00291736
-0.00292286
0.0024925
1.85238e-05
-5.12255e-05
7.5776e-05
-0.000241238
0.000171972
-0.000496496
0.000304504
-0.00079565
0.000467533
-0.00111742
0.000652435
-0.00144106
0.000849034
-0.00174836
0.00104716
-0.00202546
0.00123804
-0.0022638
0.00141517
-0.00246001
0.00157462
-0.002615
0.00171479
-0.00273263
0.00183601
-0.0028184
0.00193984
-0.00287839
0.0020286
-0.00291844
0.00210482
-0.00294374
0.00217102
-0.0029586
0.00222943
-0.00296643
0.00228197
-0.0029699
-0.00297123
0.00233035
2.11262e-05
-7.23516e-05
8.46165e-05
-0.000304728
0.000189006
-0.000600886
0.000329615
-0.000936259
0.00049834
-0.00128615
0.0006846
-0.00162733
0.000877041
-0.0019408
0.00106533
-0.00221375
0.00124144
-0.00243991
0.00140023
-0.00261881
0.00153937
-0.00275414
0.00165878
-0.00285203
0.00175995
-0.00291957
0.0018453
-0.00296373
0.00191753
-0.00299068
0.00197935
-0.00300556
0.00203314
-0.00301238
0.00208091
-0.0030142
0.00212429
-0.00301328
-0.00301156
0.00216461
2.37541e-05
-9.61057e-05
9.32145e-05
-0.000374189
0.000204887
-0.000712559
0.000351752
-0.00108312
0.000523411
-0.00145781
0.000707606
-0.00181152
0.000892339
-0.00212554
0.00106771
-0.00238912
0.00122693
-0.00259913
0.00136647
-0.00275835
0.00148558
-0.00287325
0.0015855
-0.00295195
0.00166862
-0.0030027
0.00173784
-0.00303295
0.00179604
-0.00304888
0.00184579
-0.00305531
0.00188926
-0.00305585
0.00192815
-0.0030531
0.0019638
-0.00304893
-0.00304496
0.0019972
2.63463e-05
-0.000122452
0.000101328
-0.000449171
0.000219101
-0.000830331
0.000370129
-0.00123415
0.00054184
-0.00162952
0.000720731
-0.00199041
0.00089475
-0.00229956
0.00105496
-0.00254933
0.00119614
-0.00274031
0.00131643
-0.00287864
0.00141652
-0.00297334
0.00149867
-0.0030341
0.00156587
-0.0030699
0.00162122
-0.00308829
0.00166752
-0.00309517
0.00170712
-0.00309491
0.00174187
-0.0030906
0.00177318
-0.00308441
0.00180208
-0.00307783
-0.00307219
0.00182932
2.88367e-05
-0.000151289
0.000108715
-0.000529048
0.000231168
-0.000952785
0.000384094
-0.00138708
0.000553018
-0.00179844
0.00072372
-0.00216111
0.000884671
-0.00246051
0.00102832
-0.00269298
0.00115114
-0.00286313
0.00125286
-0.00298036
0.00133536
-0.00305584
0.00140163
-0.00310037
0.00145496
-0.00312323
0.0014984
-0.00313174
0.00153456
-0.00313133
0.00156548
-0.00312583
0.00159269
-0.00311782
0.00161732
-0.00310903
0.00164014
-0.00310066
-0.00309375
0.0016617
3.1157e-05
-0.000182446
0.00011514
-0.000613032
0.000240675
-0.00107832
0.000393168
-0.00153957
0.000556645
-0.00196192
0.000716744
-0.00232121
0.000862955
-0.00260672
0.000989364
-0.00281939
0.00109415
-0.00296791
0.00117842
-0.00306463
0.00124496
-0.00312238
0.0012972
-0.0031526
0.00133847
-0.00316449
0.00137165
-0.00316492
0.00139905
-0.00315873
0.00142238
-0.00314916
0.00144289
-0.00313832
0.00146144
-0.00312758
0.00147862
-0.00311785
-0.00310995
0.00149482
3.32396e-05
-0.000215685
0.000120395
-0.000700187
0.00024729
-0.00120521
0.000397061
-0.00168934
0.000552727
-0.00211758
0.000700335
-0.00246882
0.000830771
-0.00273716
0.000939871
-0.00292849
0.00102739
-0.00305543
0.00109556
-0.00313281
0.00114779
-0.00317461
0.00118767
-0.00319248
0.00121842
-0.00319524
0.00124266
-0.00318916
0.00126233
-0.00317841
0.00127887
-0.00316569
0.00129324
-0.00315269
0.00130611
-0.00314045
0.00131793
-0.00312966
-0.00312097
0.00132895
3.50245e-05
-0.00025071
0.000124307
-0.00078947
0.000250798
-0.00133171
0.000395693
-0.00183424
0.000541549
-0.00226344
0.000675306
-0.00260258
0.00078949
-0.00285134
0.000881666
-0.00302066
0.00095296
-0.00312673
0.00100646
-0.0031863
0.00104591
-0.00321406
0.00107488
-0.00322146
0.00109637
-0.00321673
0.00111266
-0.00320544
0.00112538
-0.00319113
0.00113566
-0.00317598
0.00114427
-0.0031613
0.00115172
-0.0031479
0.00115833
-0.00313628
-0.00312692
0.00116429
3.64487e-05
-0.000287159
0.000126729
-0.00087975
0.000251058
-0.00145603
0.000389128
-0.00197231
0.000523569
-0.00239788
0.000642599
-0.00272161
0.0007405
-0.00294924
0.000816444
-0.00309661
0.000872684
-0.00318297
0.000912883
-0.0032265
0.00094092
-0.0032421
0.000960207
-0.00324074
0.000973424
-0.00322995
0.000982518
-0.00321454
0.000988825
-0.00319744
0.000993235
-0.00318039
0.000996335
-0.0031644
0.000998516
-0.00315008
0.00100002
-0.00313778
-0.00312787
0.00100097
3.74674e-05
-0.000324626
0.000127574
-0.000969857
0.000248064
-0.00157652
0.000377619
-0.00210186
0.000499437
-0.0025197
0.000603288
-0.00282546
0.000685213
-0.00303117
0.000745803
-0.0031572
0.00078818
-0.00322534
0.000816349
-0.00325467
0.000834145
-0.00325989
0.000844722
-0.00325132
0.000850426
-0.00323565
0.000852879
-0.00321699
0.000853152
-0.00319771
0.000851937
-0.00317917
0.000849685
-0.00316215
0.000846693
-0.00314709
0.000843145
-0.00313423
-0.00312385
0.000839125
3.80436e-05
-0.00036267
0.000126799
-0.00105861
0.000241896
-0.00169162
0.000361529
-0.0022215
0.000469887
-0.00262806
0.000558453
-0.00291402
0.000624941
-0.00309765
0.000671142
-0.0032034
0.000700799
-0.003255
0.000718059
-0.00327193
0.000726586
-0.00326842
0.000729225
-0.00325396
0.000727985
-0.00323441
0.000724193
-0.0032132
0.000718693
-0.00319221
0.000712017
-0.0031725
0.000704509
-0.00315464
0.0006964
-0.00313898
0.000687832
-0.00312567
-0.00311488
0.000678864
3.81522e-05
-0.000400822
0.000124406
-0.00114487
0.000232717
-0.00179993
0.000341307
-0.00233008
0.000435693
-0.00272244
0.000509135
-0.00298746
0.000560873
-0.00314939
0.000593664
-0.00323619
0.000611651
-0.00327299
0.000618961
-0.00327924
0.00061901
-0.00326847
0.000614306
-0.00324926
0.000606541
-0.00322665
0.000596784
-0.00320344
0.000585687
-0.00318112
0.000573656
-0.00316047
0.000560954
-0.00314194
0.000547761
-0.00312579
0.00053419
-0.00311209
-0.00310098
0.000520288
3.77799e-05
-0.000438602
0.000120438
-0.00122752
0.000220753
-0.00190025
0.000317454
-0.00242679
0.000397635
-0.00280262
0.000456308
-0.00304614
0.000494058
-0.00318714
0.000514381
-0.00325651
0.00052163
-0.00328024
0.000519796
-0.00327741
0.000511994
-0.00326067
0.000500399
-0.00323766
0.000486414
-0.00321266
0.000470886
-0.00318791
0.000454312
-0.00316454
0.000436995
-0.00314315
0.000419136
-0.00312408
0.000400879
-0.00310753
0.000382319
-0.00309353
-0.00308215
0.000363496
3.69255e-05
-0.000475527
0.000114973
-0.00130557
0.000206277
-0.00199155
0.000290497
-0.00251101
0.00035646
-0.00286859
0.000400853
-0.00309053
0.000425402
-0.00321169
0.000434133
-0.00326524
0.000431455
-0.00327756
0.000421138
-0.00326709
0.000405974
-0.0032455
0.000387825
-0.00321951
0.000367837
-0.00319268
0.000346672
-0.00316675
0.0003247
-0.00314257
0.000302143
-0.00312059
0.000279153
-0.00310109
0.000255845
-0.00308422
0.000232306
-0.00307
-0.00305842
0.000208576
3.55987e-05
-0.000511126
0.00010812
-0.00137809
0.000189589
-0.00207302
0.000260958
-0.00258237
0.000312869
-0.0029205
0.000343553
-0.00312121
0.000355674
-0.00322381
0.000353606
-0.00326318
0.000341691
-0.00326564
0.000323425
-0.00324883
0.000301277
-0.00322335
0.00027682
-0.00319506
0.000250982
-0.00316684
0.00022427
-0.00314004
0.000196954
-0.00311525
0.000169189
-0.00309283
0.000141084
-0.00307299
0.000112738
-0.00305588
8.42301e-05
-0.00304149
-0.0030298
5.56088e-05
3.38189e-05
-0.000544945
0.000100009
-0.00144428
0.000171006
-0.00214402
0.000229347
-0.00264072
0.0002675
-0.00295865
0.000285088
-0.0031388
0.000285521
-0.00322424
0.000273358
-0.00325101
0.000252786
-0.00324507
0.000226998
-0.00322304
0.000198149
-0.00319451
0.000167561
-0.00316447
0.000135976
-0.00313525
0.000103777
-0.00310784
7.11525e-05
-0.00308263
3.82005e-05
-0.00305987
4.99653e-06
-0.00303978
-2.83794e-05
-0.0030225
-6.18431e-05
-0.00300802
-0.00299631
-9.53366e-05
3.16138e-05
-0.000576559
9.07832e-05
-0.00150345
0.000150846
-0.00220408
0.000196141
-0.00268601
0.000220926
-0.00298344
0.000226049
-0.00314393
0.000215481
-0.00321368
0.000193842
-0.00322937
0.000165094
-0.00321632
0.00013212
-0.00319006
9.67834e-05
-0.00315917
6.01846e-05
-0.00312787
2.29163e-05
-0.00309798
-1.47345e-05
-0.00307019
-5.26471e-05
-0.00304472
-9.0771e-05
-0.00302175
-0.000129064
-0.00300149
-0.00016746
-0.0029841
-0.000205867
-0.00296962
-0.00295797
-0.00024421
2.90182e-05
-0.000605577
8.05972e-05
-0.00155503
0.000129422
-0.0022529
0.000161786
-0.00271837
0.000173657
-0.00299531
0.000166939
-0.00313721
0.000146004
-0.00319274
0.000115426
-0.0031988
7.89023e-05
-0.0031798
3.90043e-05
-0.00315016
-2.66711e-06
-0.0031175
-4.51995e-05
-0.00308534
-8.81183e-05
-0.00305507
-0.00013121
-0.00302709
-0.000174405
-0.00300152
-0.000217697
-0.00297846
-0.000261075
-0.00295811
-0.00030449
-0.00294069
-0.000347837
-0.00292627
-0.00291479
-0.000391014
2.60721e-05
-0.000631649
6.96086e-05
-0.00159857
0.000107032
-0.00229033
0.000126685
-0.00273803
0.000126142
-0.00299476
0.000108191
-0.00311926
7.74672e-05
-0.00316202
3.84164e-05
-0.00315975
-5.5522e-06
-0.00313583
-5.21684e-05
-0.00310355
-0.000100067
-0.0030696
-0.000148492
-0.00303691
-0.000197059
-0.0030065
-0.000245605
-0.00297855
-0.000294098
-0.00295303
-0.00034257
-0.00292999
-0.000391047
-0.00290963
-0.000439499
-0.00289224
-0.000487808
-0.00287796
-0.00286676
-0.000535833
2.28198e-05
-0.000654469
5.79756e-05
-0.00163372
8.39597e-05
-0.00231631
9.12066e-05
-0.00274527
7.87728e-05
-0.00298233
5.01752e-05
-0.00309066
1.01902e-05
-0.00312203
-3.69238e-05
-0.00311263
-8.806e-05
-0.00308469
-0.000141232
-0.00305038
-0.000195285
-0.00301555
-0.000249591
-0.00298261
-0.000303832
-0.00295226
-0.000357874
-0.00292451
-0.000411708
-0.00289919
-0.000465395
-0.0028763
-0.000519008
-0.00285602
-0.000572547
-0.0028387
-0.000625883
-0.00282463
-0.00281383
-0.000678816
1.93084e-05
-0.000673777
4.58535e-05
-0.00166027
6.04695e-05
-0.00233093
5.5682e-05
-0.00274049
3.18967e-05
-0.00295855
-6.7863e-06
-0.00305198
-5.55477e-05
-0.00307327
-0.000110361
-0.00305782
-0.000168425
-0.00302663
-0.00022802
-0.00299078
-0.000288177
-0.00295539
-0.000348376
-0.00292241
-0.000408343
-0.00289229
-0.000467957
-0.00286489
-0.000527208
-0.00283994
-0.000586179
-0.00281733
-0.000644989
-0.00279721
-0.00070369
-0.00278
-0.000762149
-0.00276617
-0.00275591
-0.000820071
1.5587e-05
-0.000689364
3.33927e-05
-0.00167807
3.68058e-05
-0.00233434
2.04079e-05
-0.00272409
-1.41819e-05
-0.00292396
-6.24107e-05
-0.00300375
-0.000119497
-0.00301618
-0.000181678
-0.00299564
-0.000246451
-0.00296186
-0.000312347
-0.00292489
-0.000378567
-0.00288917
-0.000444684
-0.00285629
-0.000510458
-0.00282652
-0.00057576
-0.00279959
-0.000640557
-0.00277515
-0.000704928
-0.00275296
-0.00076903
-0.00273311
-0.000832981
-0.00271605
-0.000896662
-0.00270249
-0.00269293
-0.00095964
1.17049e-05
-0.000701069
2.07364e-05
-0.00168711
1.31925e-05
-0.0023268
-1.43503e-05
-0.00269655
-5.91939e-05
-0.00287911
-0.000116447
-0.00294649
-0.000181431
-0.0029512
-0.00025066
-0.00292641
-0.000321929
-0.00289059
-0.000393999
-0.00285282
-0.000466231
-0.00281694
-0.000538287
-0.00278423
-0.000609964
-0.00275484
-0.000681116
-0.00272844
-0.000751665
-0.0027046
-0.000821644
-0.00268298
-0.000891223
-0.00266353
-0.000960593
-0.00264668
-0.00102967
-0.00263341
-0.0026247
-0.0010979
7.71147e-06
-0.00070878
8.01904e-06
-0.00168741
-1.01671e-05
-0.00230861
-4.83571e-05
-0.00265836
-0.000102902
-0.00282457
-0.000168671
-0.00288073
-0.000241135
-0.00287874
-0.000317098
-0.00285044
-0.000394634
-0.00281305
-0.000472726
-0.00277472
-0.000550884
-0.00273878
-0.000628871
-0.00270625
-0.000706532
-0.00267718
-0.000783723
-0.00265125
-0.000860313
-0.00262801
-0.000936261
-0.00260703
-0.00101171
-0.00258808
-0.00108694
-0.00257144
-0.00116194
-0.00255841
-0.00255028
-0.00123636
3.65458e-06
-0.000712435
-4.63489e-06
-0.00167912
-3.30912e-05
-0.00228015
-8.14059e-05
-0.00261004
-0.000145099
-0.00276087
-0.000218882
-0.00280694
-0.000298411
-0.00279921
-0.000380777
-0.00276808
-0.000464324
-0.00272951
-0.000548238
-0.00269081
-0.000632181
-0.00265484
-0.000716028
-0.0026224
-0.00079971
-0.0025935
-0.000883122
-0.00256784
-0.000966118
-0.00254501
-0.00104858
-0.00252457
-0.00113061
-0.00250605
-0.00121259
-0.00248946
-0.00129474
-0.00247626
-0.00246739
-0.00137764
-4.20405e-07
-0.000712015
-1.7113e-05
-0.00166243
-5.54206e-05
-0.00224185
-0.00011332
-0.00255214
-0.000185607
-0.00268859
-0.000266905
-0.00272565
-0.000353074
-0.00271304
-0.000441487
-0.00267966
-0.000530734
-0.00264026
-0.000620194
-0.00260135
-0.000709677
-0.00256535
-0.000799197
-0.00253288
-0.000888821
-0.00250387
-0.00097858
-0.00247808
-0.00106842
-0.00245517
-0.00115823
-0.00243476
-0.00124801
-0.00241627
-0.00133811
-0.00239936
-0.0014291
-0.00238527
-0.00237279
-0.0015237
-4.47168e-06
-0.000707543
-2.93163e-05
-0.00163759
-7.70207e-05
-0.00219414
-0.000143953
-0.00248521
-0.000224286
-0.00260825
-0.0003126
-0.00263733
-0.000404973
-0.00262066
-0.000499038
-0.0025856
-0.000593603
-0.00254569
-0.000688212
-0.00250674
-0.000782805
-0.00247076
-0.000877532
-0.00243815
-0.000972641
-0.00240876
-0.00106842
-0.00238229
-0.00116515
-0.00235844
-0.00126303
-0.00233688
-0.00136218
-0.00231712
-0.00146316
-0.00229839
-0.0015682
-0.00228022
-0.00227398
-0.00166701
-8.44984e-06
-0.000699093
-4.11413e-05
-0.0016049
-9.77595e-05
-0.00213752
-0.000173172
-0.0024098
-0.000261009
-0.00252042
-0.000355852