/*--------------------------------*- C++ -*----------------------------------*\
  =========                 |
  \\      /  F ield         | OpenFOAM: The Open Source CFD Toolbox
   \\    /   O peration     | Website:  https://openfoam.org
    \\  /    A nd           | Version:  6.0
     \\/     M anipulation  |
\*---------------------------------------------------------------------------*/
FoamFile
{
    version     2.0;
    format      ascii;
    class       volVectorField;
    location    "22.4";
    object      U;
}
// * * * * * * * * * * * * * * * * * * * * * * * * * * * * * * * * * * * * * //

dimensions      [0 1 -1 0 0 0 0];

internalField   nonuniform List<vector> 
8000
(
(-0.000490573 0.000483136 -3.50101e-21)
(-0.00268032 0.00120264 1.87137e-20)
(-0.0067232 0.00170646 -2.27611e-20)
(-0.011683 0.00204449 1.73322e-20)
(-0.0170732 0.00225452 8.44028e-21)
(-0.0226194 0.00236717 -2.53454e-20)
(-0.0281261 0.00240861 -2.24026e-21)
(-0.033467 0.00240095 -7.95135e-22)
(-0.0385721 0.0023628 -1.31564e-20)
(-0.0434124 0.00230981 -7.12786e-21)
(-0.0479889 0.00225507 5.31564e-21)
(-0.0523237 0.00220943 2.02093e-20)
(-0.056454 0.00218164 -1.51341e-21)
(-0.0604259 0.00217858 2.16519e-21)
(-0.0642913 0.00220527 -2.03555e-20)
(-0.0681091 0.0022649 1.25422e-20)
(-0.071938 0.00235898 -1.79704e-20)
(-0.0757848 0.00248837 2.71939e-20)
(-0.0795917 0.00265402 -3.04512e-23)
(-0.0837279 0.00284833 5.87292e-21)
(-0.00057464 0.00160446 1.16261e-20)
(-0.00288499 0.00398879 -5.94138e-20)
(-0.00700408 0.00566246 -4.10365e-20)
(-0.0120048 0.00678931 -2.78686e-20)
(-0.0174066 0.0074942 -3.58515e-20)
(-0.0229395 0.00787846 7.89018e-21)
(-0.0284116 0.00802819 -4.13863e-20)
(-0.0336992 0.00801583 -9.29576e-21)
(-0.0387343 0.00790193 2.93733e-21)
(-0.0434893 0.00773707 3.09336e-20)
(-0.0479662 0.00756334 -3.37433e-20)
(-0.0521881 0.00741536 4.69379e-20)
(-0.0561931 0.00732108 -3.51493e-20)
(-0.0600284 0.00730229 -4.16822e-20)
(-0.0637472 0.00737499 -5.74408e-20)
(-0.0674097 0.00754936 3.6684e-20)
(-0.0710767 0.00783027 -1.18638e-20)
(-0.0747564 0.00822039 -4.32e-20)
(-0.0783906 0.00872256 4.08467e-20)
(-0.0823513 0.00931352 -3.03458e-20)
(-0.000744745 0.00271097 1.13646e-19)
(-0.00329852 0.00673742 5.88561e-20)
(-0.00757066 0.00956307 6.61905e-20)
(-0.0126528 0.0114637 5.50762e-21)
(-0.018077 0.0126501 3.65837e-20)
(-0.0235825 0.0132933 4.56614e-20)
(-0.0289846 0.0135386 -8.29758e-20)
(-0.0341652 0.0135078 -4.39414e-20)
(-0.03906 0.013303 -5.72265e-20)
(-0.0436446 0.0130095 6.1091e-20)
(-0.047923 0.0126982 -4.66605e-20)
(-0.0519202 0.0124278 -6.00327e-20)
(-0.055676 0.012246 -2.18582e-20)
(-0.0592397 0.0121903 2.07663e-20)
(-0.0626669 0.0122885 -5.77293e-21)
(-0.0660207 0.0125588 8.32602e-21)
(-0.0693657 0.0130104 9.63537e-20)
(-0.0727136 0.0136486 -1.3532e-20)
(-0.0760054 0.014479 -9.79471e-20)
(-0.0796194 0.0154624 1.29114e-19)
(-0.000999263 0.00379295 3.95385e-20)
(-0.00391728 0.00942374 -5.58539e-20)
(-0.00841841 0.0133716 -1.40111e-20)
(-0.0136224 0.0160214 2.61921e-20)
(-0.01908 0.0176675 7.43754e-20)
(-0.0245448 0.0185493 1.62841e-19)
(-0.029843 0.0188696 1.59117e-19)
(-0.0348649 0.0187986 1.32182e-20)
(-0.0395523 0.0184787 9.75744e-20)
(-0.0438849 0.0180294 1.4935e-19)
(-0.0478701 0.0175503 -1.19338e-19)
(-0.0515352 0.0171246 1.76614e-19)
(-0.0549225 0.0168204 -3.99881e-20)
(-0.0580842 0.0166921 1.00892e-20)
(-0.0610794 0.0167812 4.17623e-20)
(-0.0639758 0.0171156 5.54952e-20)
(-0.0668437 0.0177103 -8.73362e-20)
(-0.0696999 0.0185749 -7.28881e-20)
(-0.0724856 0.0197196 -1.28988e-19)
(-0.0755892 0.0210891 1.87757e-19)
(-0.00133584 0.00484179 -2.06575e-20)
(-0.00473573 0.012025 -2.11458e-19)
(-0.00954006 0.0170541 -6.25471e-20)
(-0.0149051 0.020419 -1.52421e-19)
(-0.0204072 0.0224957 5.76134e-20)
(-0.0258185 0.0235889 -9.0867e-20)
(-0.0309806 0.0239572 3.12475e-20)
(-0.0357948 0.0238173 -1.92454e-19)
(-0.0402112 0.0233505 1.01528e-19)
(-0.044215 0.0227092 -1.21077e-19)
(-0.0478175 0.0220215 -1.07676e-19)
(-0.0510491 0.0213952 -1.2056e-19)
(-0.0539552 0.0209201 1.09434e-19)
(-0.0565912 0.0206691 -9.82523e-20)
(-0.0590207 0.0206996 1.36815e-19)
(-0.0613173 0.0210517 3.9539e-20)
(-0.0635592 0.0217492 9.78679e-20)
(-0.0657709 0.0228087 4.29477e-20)
(-0.0678947 0.0242477 -1.70057e-19)
(-0.0703344 0.0259945 2.76787e-19)
(-0.00175153 0.00585004 9.10596e-20)
(-0.0057464 0.0145208 7.00703e-21)
(-0.010925 0.0205797 3.75131e-20)
(-0.0164884 0.0246176 1.30898e-19)
(-0.0220443 0.0270887 -2.00408e-20)
(-0.0273892 0.0283611 2.12563e-19)
(-0.0323837 0.0287458 9.43429e-20)
(-0.0369434 0.0285034 7.93096e-21)
(-0.0410287 0.0278521 2.42594e-19)
(-0.0446316 0.0269757 7.94888e-20)
(-0.047768 0.0260299 3.7708e-20)
(-0.0504719 0.0251471 1.19678e-19)
(-0.0527914 0.0244395 1.09697e-19)
(-0.0547858 0.024001 2.00259e-19)
(-0.0565236 0.0239075 -1.78994e-19)
(-0.0580857 0.0242154 2.53005e-19)
(-0.0595602 0.024961 3.31195e-21)
(-0.0609818 0.0261721 -3.23361e-19)
(-0.062297 0.0278779 4.1917e-19)
(-0.0639314 0.0299911 1.73704e-19)
(-0.00224285 0.00681143 -5.36632e-20)
(-0.00693974 0.0168931 -9.74087e-20)
(-0.0125588 0.0239205 -2.0271e-19)
(-0.0183532 0.028582 -6.00846e-21)
(-0.023969 0.0314066 3.45892e-20)
(-0.0292321 0.0328222 -2.58851e-19)
(-0.0340264 0.0331891 -1.92038e-19)
(-0.0382852 0.0328087 -2.74711e-20)
(-0.0419812 0.031933 -2.42908e-19)
(-0.0451149 0.0307747 -1.68181e-19)
(-0.0477072 0.0295154 -4.90141e-20)
(-0.0497955 0.0283118 -1.57821e-19)
(-0.0514309 0.0272993 -2.57332e-21)
(-0.0526758 0.0265945 -2.09582e-19)
(-0.0536041 0.0262956 8.81579e-20)
(-0.0543045 0.0264799 -1.0058e-19)
(-0.0548773 0.0272021 7.70423e-20)
(-0.0553707 0.0285072 -9.80543e-20)
(-0.0557388 0.0304429 -2.80166e-19)
(-0.0564389 0.0329086 -8.51384e-20)
(-0.0028058 0.00772058 -1.97493e-20)
(-0.00830379 0.0191257 -2.1448e-20)
(-0.0144217 0.0270517 1.69956e-19)
(-0.0204729 0.0322811 -2.76569e-19)
(-0.0261482 0.0354146 4.05738e-20)
(-0.0313084 0.0369363 -1.5976e-19)
(-0.0358655 0.0372518 7.54984e-20)
(-0.0397739 0.0366993 3.39341e-19)
(-0.0430213 0.0355608 -2.17687e-20)
(-0.0456179 0.0340746 -2.5315e-19)
(-0.0475905 0.0324458 4.59977e-20)
(-0.0489798 0.0308534 8.91934e-21)
(-0.049839 0.029456 -5.19737e-20)
(-0.0502333 0.0283947 5.25949e-21)
(-0.050241 0.0277936 4.56607e-19)
(-0.0499592 0.0277568 -6.50168e-20)
(-0.049502 0.0283645 -1.26825e-19)
(-0.0489342 0.0296883 -2.27525e-19)
(-0.0482231 0.0318046 2.32105e-19)
(-0.0478707 0.0346041 1.00096e-19)
(-0.00343574 0.00857251 9.97262e-20)
(-0.00982365 0.0212031 -1.30474e-19)
(-0.0164881 0.0299498 1.84466e-19)
(-0.0228108 0.0356864 1.85699e-19)
(-0.0285342 0.0390825 1.71185e-19)
(-0.0335602 0.0406742 3.47132e-19)
(-0.0378336 0.0409086 2.24479e-19)
(-0.0413339 0.0401558 -4.82371e-19)
(-0.0440664 0.0387233 2.46696e-19)
(-0.0460531 0.0368706 1.93584e-19)
(-0.0473275 0.0348219 -2.74991e-21)
(-0.0479336 0.032776 2.167e-19)
(-0.0479259 0.0309129 1.68942e-19)
(-0.047371 0.0293988 -9.18986e-20)
(-0.0463505 0.0283868 3.10527e-19)
(-0.0449693 0.0280138 -3.84934e-19)
(-0.0433564 0.0283951 1.54071e-19)
(-0.0415962 0.0296411 1.98123e-19)
(-0.0396757 0.031872 -4.61587e-20)
(-0.0381602 0.0349789 3.98043e-19)
(-0.00412718 0.00936219 2.00394e-19)
(-0.0114808 0.0231102 1.03926e-20)
(-0.0187249 0.0325919 -7.19267e-20)
(-0.0253183 0.0387711 -7.59772e-20)
(-0.0310626 0.0423828 -3.51846e-19)
(-0.0359066 0.0440122 4.98234e-20)
(-0.0398333 0.044143 1.41168e-19)
(-0.0428515 0.0431724 -6.79003e-20)
(-0.0449876 0.041428 5.60111e-20)
(-0.0462776 0.039185 -1.48504e-20)
(-0.0467632 0.0366817 -7.31638e-20)
(-0.0464921 0.0341312 6.94676e-20)
(-0.0455196 0.0317316 -3.0201e-19)
(-0.043912 0.0296722 2.89529e-19)
(-0.0417523 0.0281367 -2.50779e-19)
(-0.039152 0.0273002 7.74636e-20)
(-0.0362544 0.0273232 1.76269e-19)
(-0.0331662 0.0283709 -3.66678e-20)
(-0.0299017 0.0306291 -1.21951e-19)
(-0.0271137 0.0340048 -8.29336e-20)
(-0.00487346 0.0100839 -2.49622e-19)
(-0.0132525 0.0248304 -1.64286e-20)
(-0.0210903 0.0349541 5.2571e-20)
(-0.027933 0.0415072 1.3517e-19)
(-0.0336486 0.0452886 -1.9083e-19)
(-0.0382389 0.0469287 -1.66528e-19)
(-0.0417307 0.0469439 3.88697e-19)
(-0.0441666 0.0457535 -2.14783e-19)
(-0.0455979 0.0436995 -1.38553e-19)
(-0.0460777 0.0410668 -1.98808e-19)
(-0.0456583 0.0381008 1.31612e-19)
(-0.0443923 0.0350225 -3.55463e-21)
(-0.0423359 0.0320412 -2.45783e-19)
(-0.0395542 0.0293645 -4.02073e-19)
(-0.0361295 0.0272046 3.06321e-19)
(-0.032177 0.0257771 -2.48196e-19)
(-0.0278538 0.0252974 3.51884e-19)
(-0.0232893 0.0260038 -9.85801e-20)
(-0.0185313 0.0281769 2.07165e-19)
(-0.0143536 0.0317652 -7.03529e-19)
(-0.00566645 0.010731 -5.05553e-19)
(-0.0151108 0.0263452 3.315e-19)
(-0.0235331 0.0370098 4.50845e-20)
(-0.0305771 0.0438647 8.72109e-21)
(-0.0361848 0.0477707 -2.04414e-19)
(-0.0404174 0.049401 3.00601e-19)
(-0.0433503 0.049301 3.28126e-20)
(-0.0450648 0.0479079 -6.16415e-20)
(-0.0456413 0.045573 -1.97864e-19)
(-0.0451539 0.0425845 2.13881e-19)
(-0.0436689 0.0391879 5.42276e-19)
(-0.0412464 0.0356034 -1.19796e-19)
(-0.0379457 0.0320422 2.70722e-19)
(-0.0338307 0.028721 -3.19794e-19)
(-0.0289817 0.0258729 -3.06652e-19)
(-0.0235154 0.0237511 1.84368e-19)
(-0.0175999 0.02263 3.0461e-19)
(-0.0113857 0.0228396 -9.8707e-19)
(-0.00495762 0.0247917 1.15905e-19)
(0.000747817 0.0285142 1.57644e-19)
(-0.00649624 0.0112958 3.74361e-19)
(-0.0170222 0.0276337 1.23151e-19)
(-0.0259914 0.0387292 6.41545e-19)
(-0.0331563 0.045809 3.30164e-20)
(-0.0385402 0.0497946 -7.1352e-20)
(-0.0422691 0.0514007 -3.39783e-19)
(-0.0444721 0.051199 2.88951e-19)
(-0.0452731 0.0496414 5.1843e-19)
(-0.044786 0.0470848 3.45409e-19)
(-0.0431105 0.0438156 2.49382e-19)
(-0.0403312 0.0400724 2.15001e-19)
(-0.036521 0.0360662 -3.86071e-19)
(-0.0317459 0.0319989 -1.20935e-19)
(-0.0260724 0.0280827 -8.90834e-20)
(-0.0195798 0.0245574 9.54568e-19)
(-0.0123855 0.0217014 -3.25437e-21)
(-0.00466585 0.0198429 -2.37913e-19)
(0.00341157 0.019414 -7.5e-20)
(0.011729 0.0209986 6.82715e-19)
(0.019139 0.0247548 8.95277e-20)
(-0.00735105 0.0117695 -1.84564e-20)
(-0.0189472 0.0286729 -3.54163e-19)
(-0.0283928 0.0400789 -5.26902e-19)
(-0.0355597 0.0473003 -1.46621e-19)
(-0.0405594 0.0513191 8.09625e-20)
(-0.0435873 0.0528905 1.74327e-20)
(-0.0448299 0.0526119 4.62368e-19)
(-0.0444575 0.0509481 -5.73444e-19)
(-0.0426211 0.0482597 -2.18128e-19)
(-0.0394502 0.0448291 -4.3961e-19)
(-0.0350537 0.0408837 -3.74442e-19)
(-0.0295235 0.0366181 -3.31576e-19)
(-0.0229404 0.0322145 8.29061e-20)
(-0.0153807 0.0278651 -1.0766e-19)
(-0.00692929 0.0237958 4.61316e-19)
(0.00229247 0.0202869 -2.52821e-19)
(0.0120992 0.0176982 -7.92673e-19)
(0.0223123 0.0165569 -1.59925e-19)
(0.0327974 0.0176526 3.91243e-19)
(0.0421499 0.0213332 -3.41001e-19)
(-0.00821731 0.0121432 -5.97302e-20)
(-0.0208403 0.0294383 4.33178e-19)
(-0.0306538 0.0410227 -5.52474e-19)
(-0.0376594 0.0482944 1.27696e-19)
(-0.0420627 0.0522957 -2.63048e-19)
(-0.0441318 0.0538232 5.8594e-19)
(-0.0441131 0.0534993 -4.18783e-19)
(-0.0422254 0.0518032 4.79134e-19)
(-0.0386594 0.0490997 -4.54301e-19)
(-0.033578 0.0456679 1.93849e-19)
(-0.0271201 0.0417246 -9.40721e-20)
(-0.0194049 0.0374456 -2.36219e-19)
(-0.0105388 0.0329871 -2.91899e-19)
(-0.000621016 0.0285086 2.9087e-19)
(0.0102441 0.0242002 -2.43619e-19)
(0.0219192 0.0203111 -5.32752e-19)
(0.0342009 0.0171906 5.5465e-19)
(0.0469017 0.0154229 -7.07674e-19)
(0.0599043 0.0160107 3.18289e-19)
(0.0715229 0.0195409 8.20507e-21)
(-0.00907988 0.0124082 -5.41588e-19)
(-0.0226504 0.0299054 -5.84794e-19)
(-0.03268 0.0415238 6.73886e-20)
(-0.0393104 0.0487447 -5.63986e-19)
(-0.0428458 0.0526716 -5.02049e-20)
(-0.0436294 0.0541429 -4.14874e-19)
(-0.0419683 0.0538079 -9.51796e-20)
(-0.0381298 0.0521616 -2.78177e-19)
(-0.0323449 0.0495771 2.46723e-21)
(-0.0248126 0.0463349 -1.21722e-19)
(-0.0157059 0.0426464 8.64674e-21)
(-0.0051802 0.0386741 -3.50781e-19)
(0.00661997 0.0345506 3.8666e-19)
(0.0195537 0.0303995 -5.4864e-19)
(0.0334749 0.0263608 1.9442e-19)
(0.048205 0.0226208 7.40878e-21)
(0.0634983 0.0194614 -3.09747e-19)
(0.079144 0.0174457 7.68133e-19)
(0.0950904 0.0177399 -1.83535e-19)
(0.109407 0.0211711 -1.19124e-19)
(-0.00992228 0.0125573 6.07972e-19)
(-0.0243199 0.0300521 3.28291e-19)
(-0.0343653 0.0415475 3.05385e-19)
(-0.0403492 0.0486069 4.55915e-20)
(-0.042679 0.0523949 4.1296e-19)
(-0.0417739 0.0537929 5.95244e-19)
(-0.0380006 0.0534784 4.87381e-19)
(-0.0316736 0.0519654 4.36181e-20)
(-0.0230629 0.0496402 3.56941e-19)
(-0.0124032 0.0467923 5.51545e-19)
(9.50323e-05 0.043638 -1.43082e-19)
(0.0142338 0.0403392 2.40135e-19)
(0.0298173 0.0370192 1.93899e-19)
(0.0466427 0.0337777 1.97271e-19)
(0.0644923 0.0307099 1.16749e-18)
(0.0831093 0.0279265 -4.37617e-19)
(0.102159 0.0255914 -2.67641e-20)
(0.121357 0.0241347 5.08139e-19)
(0.140755 0.024754 -2.88237e-19)
(0.158335 0.0284312 1.42592e-19)
(-0.0107268 0.0125846 -4.91675e-19)
(-0.0257848 0.0298597 3.15111e-20)
(-0.0355897 0.0410651 -3.93622e-19)
(-0.0405913 0.0478446 -5.12392e-20)
(-0.0413039 0.0514239 2.8815e-19)
(-0.0382229 0.0527275 -8.5781e-19)
(-0.0317728 0.0524619 -6.2868e-22)
(-0.0223122 0.0511625 3.99216e-19)
(-0.0101476 0.0492337 3.75096e-19)
(0.00445223 0.0469822 -1.65145e-19)
(0.0212386 0.0446416 5.44607e-20)
(0.0399667 0.0423909 1.26317e-19)
(0.0603789 0.0403678 -5.98004e-20)
(0.0821915 0.0386789 -6.71112e-19)
(0.105083 0.0374096 1.69903e-19)
(0.128668 0.0366256 4.68023e-19)
(0.152451 0.0363722 -6.67069e-19)
(0.175969 0.0368573 3.25438e-19)
(0.199357 0.0391469 8.74954e-20)
(0.220853 0.0441928 4.4367e-19)
(-0.0114742 0.0124865 -7.26104e-20)
(-0.0269725 0.0293152 -3.44536e-19)
(-0.0362167 0.040058 1.58539e-19)
(-0.0398266 0.0464372 7.25968e-22)
(-0.0384281 0.0497383 -6.91005e-19)
(-0.0325927 0.050928 1.07832e-19)
(-0.0228008 0.050741 -2.04778e-20)
(-0.0094527 0.0497347 1.39502e-19)
(0.00711161 0.0483341 -6.38563e-19)
(0.0265905 0.0468682 -4.47704e-20)
(0.0486983 0.0455976 -1.50041e-19)
(0.0731424 0.0447346 1.33461e-19)
(0.0996008 0.0444586 4.50667e-19)
(0.127699 0.0449275 -6.96664e-20)
(0.156988 0.0462859 2.70055e-20)
(0.186898 0.0486573 1.77629e-19)
(0.21666 0.0521019 -4.38361e-20)
(0.245406 0.0567501 3.59279e-19)
(0.273075 0.0636739 -2.0792e-19)
(0.298513 0.0734952 -3.29991e-19)
(-0.0121427 0.012261 6.73431e-20)
(-0.0277997 0.0284117 1.64203e-20)
(-0.0360887 0.0385208 1.38163e-19)
(-0.0378141 0.0443861 3.384e-19)
(-0.0337187 0.0473503 1.89894e-19)
(-0.0244519 0.0484196 1.98138e-20)
(-0.0105497 0.0483542 -2.26699e-19)
(0.0075459 0.0477305 5.81153e-20)
(0.0294602 0.0469916 3.05641e-19)
(0.0548574 0.0464869 -5.17932e-19)
(0.0834144 0.0465028 3.90846e-19)
(0.114796 0.0472872 -2.94519e-19)
(0.14863 0.0490712 2.50011e-19)
(0.184487 0.0520902 -5.39382e-19)
(0.221845 0.056609 5.93732e-19)
(0.260037 0.062936 -6.35214e-19)
(0.298101 0.0714183 -1.65396e-19)
(0.334716 0.0826825 5.2025e-19)
(0.368728 0.0986844 -1.75306e-19)
(0.397056 0.119409 7.87613e-20)
(-0.0127064 0.011907 -5.09731e-20)
(-0.0281683 0.0271489 4.81027e-19)
(-0.0350222 0.0364643 -2.01917e-21)
(-0.0342757 0.0417212 -2.98612e-19)
(-0.0267971 0.0443147 -2.00829e-19)
(-0.0133174 0.0452867 3.67915e-19)
(0.00556646 0.0454173 -1.45725e-19)
(0.0293635 0.0452949 -1.83583e-20)
(0.0576531 0.0453717 3.03691e-19)
(0.0900516 0.0460046 -3.77278e-19)
(0.126183 0.0474871 4.13792e-20)
(0.165661 0.0500757 -4.90579e-19)
(0.208071 0.0540146 2.58438e-19)
(0.252972 0.0595643 -7.39757e-19)
(0.299899 0.0670406 1.17927e-18)
(0.348381 0.0768653 -2.15971e-19)
(0.397971 0.0896854 2.26348e-19)
(0.448544 0.106922 -5.87434e-19)
(0.50059 0.131594 2.99252e-21)
(0.54617 0.159415 6.72453e-19)
(-0.0131332 0.0114237 -1.54436e-19)
(-0.0279617 0.0255327 1.33436e-19)
(-0.0328034 0.0339166 -4.91366e-19)
(-0.028893 0.0385037 7.26757e-19)
(-0.0172363 0.0407351 -5.24686e-19)
(0.0013437 0.0416822 2.70761e-20)
(0.0261757 0.0421369 -5.65751e-19)
(0.0566992 0.0426896 4.04497e-19)
(0.092419 0.0437868 -5.77889e-20)
(0.132865 0.0457713 -3.56978e-19)
(0.177562 0.0489122 -2.08354e-19)
(0.226017 0.0534269 2.20137e-19)
(0.277708 0.0594997 1.45677e-19)
(0.332106 0.0672994 -6.45043e-19)
(0.388696 0.0769952 2.32766e-19)
(0.447025 0.0887688 -3.4396e-19)
(0.506767 0.102835 4.17186e-20)
(0.567948 0.119645 -2.93368e-19)
(0.631431 0.140368 1.21536e-19)
(0.689951 0.16095 -4.4214e-19)
(-0.0133825 0.0108096 4.39654e-19)
(-0.0270412 0.0235752 -2.66262e-19)
(-0.0291853 0.0309238 2.194e-19)
(-0.0213067 0.0348284 -2.76986e-19)
(-0.00456637 0.0367657 4.64302e-19)
(0.0201018 0.0378286 -8.12892e-21)
(0.0519252 0.0388108 -5.65193e-20)
(0.0902356 0.0402909 -4.19048e-20)
(0.134411 0.0426911 2.57937e-19)
(0.183831 0.0463155 4.38611e-19)
(0.237845 0.0513764 -2.59098e-19)
(0.295762 0.0580123 2.51941e-19)
(0.356859 0.0663017 4.60434e-19)
(0.420398 0.0762715 -3.22835e-19)
(0.485667 0.0879025 -6.5676e-19)
(0.552021 0.101125 1.20183e-18)
(0.618927 0.115799 -2.14506e-19)
(0.686049 0.131761 -6.99107e-20)
(0.753613 0.149341 7.5641e-19)
(0.816369 0.167587 -1.59171e-19)
(-0.0134033 0.0100631 -7.15821e-19)
(-0.0252442 0.0212951 -4.76529e-19)
(-0.0238889 0.027551 -1.82931e-19)
(-0.0111227 0.0308227 3.52912e-19)
(0.011712 0.0326085 -7.967e-19)
(0.0435385 0.0340116 4.12565e-19)
(0.0834382 0.0358131 5.22841e-20)
(0.130574 0.0385612 5.28646e-20)
(0.184122 0.04263 -5.40348e-19)
(0.24322 0.0482552 -1.90825e-19)
(0.306946 0.0555585 -3.36436e-19)
(0.374319 0.0645642 3.24979e-19)
(0.444316 0.0752127 9.23651e-20)
(0.515912 0.0873708 1.81626e-20)
(0.588123 0.100838 4.24675e-19)
(0.660051 0.115346 -4.29894e-19)
(0.730921 0.130551 -1.79473e-20)
(0.800108 0.146046 1.0603e-20)
(0.867306 0.16168 5.86103e-20)
(0.929565 0.178982 3.36316e-19)
(-0.013133 0.00918316 2.27927e-19)
(-0.0223839 0.0187198 5.87052e-19)
(-0.016607 0.023883 4.71109e-19)
(0.0020761 0.0266465 -1.6238e-19)
(0.0321033 0.0285094 5.64725e-19)
(0.0722061 0.0305686 -4.75786e-20)
(0.121252 0.0335719 -6.70186e-20)
(0.178147 0.0380105 3.98957e-20)
(0.241765 0.0441777 5.45846e-19)
(0.310897 0.0522035 3.20734e-19)
(0.384248 0.0620797 9.36569e-20)
(0.460459 0.0736813 5.72701e-21)
(0.538155 0.0867864 -6.22044e-19)
(0.615998 0.101095 5.40493e-19)
(0.692748 0.116244 9.2915e-20)
(0.767317 0.131827 -1.52768e-19)
(0.838792 0.147391 -6.64537e-19)
(0.906468 0.16248 -5.6611e-20)
(0.969816 0.176626 2.63197e-19)
(1.02799 0.192975 -5.39722e-20)
(-0.0124976 0.00817089 -5.78465e-19)
(-0.0182526 0.0158885 2.4203e-19)
(-0.00701356 0.0200272 -1.18159e-18)
(0.0187109 0.0224916 4.83895e-19)
(0.0570853 0.0247528 -3.85895e-19)
(0.106576 0.0278764 2.84491e-19)
(0.165742 0.0325457 -4.41926e-19)
(0.233121 0.0391568 4.05696e-20)
(0.307162 0.0478778 -2.27767e-20)
(0.3862 0.0586863 1.18864e-19)
(0.468483 0.0714012 1.71724e-19)
(0.552229 0.0857153 -3.24575e-19)
(0.63571 0.101228 1.71855e-19)
(0.717335 0.11748 1.57976e-19)
(0.795716 0.133981 6.83498e-19)
(0.869722 0.150239 -2.96637e-19)
(0.938496 0.165778 -1.97761e-19)
(1.00147 0.180187 3.32881e-19)
(1.05823 0.192896 1.78419e-19)
(1.10932 0.207781 -3.34563e-19)
(-0.0114129 0.00703233 5.06766e-19)
(-0.0126267 0.0128568 4.88652e-19)
(0.00522403 0.0161172 1.40949e-19)
(0.0391841 0.0185836 5.9368e-19)
(0.0870707 0.0216579 2.91617e-19)
(0.146986 0.0263382 -5.25683e-19)
(0.217053 0.0331982 7.96168e-19)
(0.295311 0.042486 -3.91802e-19)
(0.379659 0.0541884 3.91124e-19)
(0.467883 0.068077 5.06155e-19)
(0.55773 0.0837557 -2.89272e-19)
(0.64702 0.100712 5.49352e-20)
(0.733761 0.118369 3.06641e-19)
(0.816247 0.136134 2.16197e-19)
(0.893129 0.153441 4.98576e-19)
(0.963444 0.169783 -1.99192e-19)
(1.02661 0.184731 -2.43125e-20)
(1.08239 0.197976 3.15734e-19)
(1.13074 0.209031 -6.77584e-20)
(1.17302 0.22184 3.71148e-22)
(-0.00978646 0.0057811 -2.61615e-19)
(-0.00527464 0.00970155 -9.61574e-19)
(0.0204291 0.0123179 2.26424e-19)
(0.0638524 0.0151824 -1.72366e-19)
(0.122366 0.0195738 -3.97845e-19)
(0.193578 0.0263697 -2.84003e-19)
(0.275032 0.0359728 -1.75449e-19)
(0.36412 0.0484152 4.26122e-19)
(0.458088 0.0634367 -2.53069e-19)
(0.554129 0.0805502 -2.59139e-19)
(0.649522 0.0991147 -3.27922e-19)
(0.741798 0.118411 -5.4132e-20)
(0.828877 0.137715 -3.65762e-20)
(0.909159 0.156357 -7.59346e-19)
(0.981564 0.173765 3.68603e-19)
(1.04551 0.189492 -4.84665e-19)
(1.10089 0.203227 1.52696e-19)
(1.14793 0.214806 -1.16233e-18)
(1.18708 0.223952 3.50234e-19)
(1.22006 0.234244 4.44197e-19)
(-0.00752101 0.00444111 -6.56839e-20)
(0.00403319 0.00652629 4.69195e-19)
(0.0388972 0.00882871 3.00745e-20)
(0.0929976 0.012583 7.23726e-20)
(0.163133 0.0188724 -1.47137e-19)
(0.24626 0.0283827 -2.4098e-21)
(0.339181 0.0412653 -3.77065e-21)
(0.438518 0.0572567 -8.87615e-20)
(0.540804 0.0757832 3.14815e-19)
(0.642672 0.0960596 1.21749e-19)
(0.741063 0.117195 5.52857e-19)
(0.833427 0.138297 -1.50779e-19)
(0.917844 0.158555 1.05355e-19)
(0.993076 0.177303 -1.37749e-20)
(1.05854 0.194049 2.92025e-19)
(1.11422 0.208483 1.78919e-19)
(1.16055 0.220465 4.31771e-19)
(1.19831 0.230002 -6.97725e-19)
(1.22841 0.237066 8.78758e-19)
(1.2527 0.244689 -2.78553e-19)
(-0.00451805 0.00304877 -6.11712e-19)
(0.015513 0.00346453 -1.90914e-19)
(0.0608763 0.00588629 1.49244e-19)
(0.126797 0.0111122 9.40856e-20)
(0.209349 0.0199376 9.63614e-20)
(0.304662 0.0327637 9.77129e-20)
(0.408647 0.049395 -2.44509e-19)
(0.51707 0.0691884 -1.01133e-19)
(0.62578 0.0912028 3.13596e-20)
(0.730985 0.114344 -2.99609e-19)
(0.829521 0.137505 -1.35599e-19)
(0.919036 0.159689 8.19604e-19)
(0.998054 0.180095 -2.11407e-19)
(1.06594 0.198154 -2.9178e-19)
(1.12277 0.213536 -1.38728e-19)
(1.16918 0.226128 9.59454e-20)
(1.20618 0.235989 1.17339e-19)
(1.23499 0.243303 -5.6258e-19)
(1.2569 0.248266 8.14802e-19)
(1.27374 0.253339 -7.06503e-19)
(-0.000682032 0.00165451 -6.92758e-20)
(0.0293551 0.000681693 1.98522e-20)
(0.0865448 0.00376266 -2.52757e-20)
(0.165294 0.0111209 3.69484e-19)
(0.260778 0.0231484 2.03253e-20)
(0.368123 0.0398495 1.3567e-19)
(0.482232 0.0605767 -2.81829e-19)
(0.598018 0.0842331 -1.02812e-20)
(0.710772 0.109486 3.91567e-19)
(0.81653 0.134962 5.46079e-20)
(0.912334 0.159417 -3.41307e-19)
(0.996341 0.181857 -2.99766e-20)
(1.06778 0.201593 -2.80763e-19)
(1.12677 0.218248 2.7946e-19)
(1.17415 0.231718 3.88615e-19)
(1.21116 0.242115 -4.28553e-20)
(1.2393 0.249697 -5.23468e-20)
(1.26012 0.254798 1.59548e-19)
(1.2751 0.257782 -5.13499e-19)
(1.286 0.260606 4.52162e-19)
(0.00407513 0.00032339 6.95119e-20)
(0.0457107 -0.00162574 -4.48598e-19)
(0.115992 0.00276001 1.2007e-19)
(0.208375 0.0129709 -3.72313e-19)
(0.316953 0.0288581 1.28007e-19)
(0.435697 0.0499009 -4.75397e-19)
(0.558457 0.074899 1.91751e-19)
(0.679402 0.102255 -6.10327e-20)
(0.79352 0.130265 -2.47123e-21)
(0.897011 0.157358 6.25037e-20)
(0.987467 0.182269 -2.27729e-19)
(1.06384 0.204127 -3.25268e-19)
(1.12624 0.222462 -6.6768e-20)
(1.17563 0.237158 -2.99763e-20)
(1.21352 0.248367 -7.60856e-20)
(1.24169 0.256421 -2.48086e-20)
(1.26197 0.261748 -7.42795e-20)
(1.27606 0.26479 -6.44377e-20)
(1.28549 0.266015 -1.91943e-19)
(1.29189 0.266969 3.04711e-19)
(0.0098292 -0.000865138 1.67306e-19)
(0.064678 -0.0032337 -1.85793e-19)
(0.149196 0.003201 3.99816e-19)
(0.255749 0.0170181 -1.72542e-19)
(0.377173 0.0373701 4.61138e-19)
(0.506187 0.0630793 6.54266e-21)
(0.635652 0.0923136 2.31587e-19)
(0.759226 0.122974 -6.20022e-20)
(0.871951 0.153062 2.58885e-19)
(0.970574 0.180934 1.87487e-20)
(1.05356 0.205444 6.16692e-19)
(1.12086 0.225963 -4.25772e-19)
(1.17353 0.242321 5.73421e-20)
(1.21332 0.254695 1.0949e-19)
(1.24233 0.26349 5.74132e-19)
(1.26267 0.269225 -2.063e-19)
(1.27632 0.272451 -4.09319e-20)
(1.28501 0.27367 -2.17021e-19)
(1.29021 0.273398 -2.29171e-20)
(1.29333 0.272858 1.08654e-19)
(0.0166386 -0.00181843 -8.03577e-20)
(0.0862903 -0.00389678 2.32048e-19)
(0.186014 0.00541533 -2.37484e-19)
(0.306945 0.0235908 9.38371e-20)
(0.440524 0.0489144 -1.12104e-19)
(0.578214 0.0794313 4.1157e-19)
(0.712078 0.112641 -5.72977e-20)
(0.835619 0.146001 1.41275e-19)
(0.94435 0.177348 -8.31635e-20)
(1.03594 0.205124 -2.16714e-21)
(1.10996 0.228439 9.50885e-20)
(1.16745 0.247004 -7.36893e-20)
(1.21039 0.26099 1.91183e-19)
(1.24116 0.270868 -9.53022e-20)
(1.26226 0.277257 -4.20001e-19)
(1.27598 0.280817 4.17674e-19)
(1.2843 0.282166 -1.88307e-19)
(1.28883 0.281824 1.5038e-19)
(1.2909 0.280312 2.60921e-19)
(1.29171 0.278607 1.07204e-19)
(0.0245394 -0.00243272 1.99936e-19)
(0.110505 -0.00335682 -4.11994e-19)
(0.226166 0.00972353 7.884e-20)
(0.361311 0.0329688 -5.71798e-20)
(0.505915 0.0636289 -2.30566e-19)
(0.6503 0.0988846 -1.80956e-19)
(0.786054 0.13559 -3.55604e-20)
(0.906971 0.170882 -3.22661e-19)
(1.00946 0.202603 -1.9646e-20)
(1.09241 0.229446 -5.99661e-20)
(1.15663 0.250896 -1.62836e-19)
(1.20424 0.267061 -3.61745e-20)
(1.23795 0.278459 -1.24689e-19)
(1.26066 0.285817 -2.08208e-19)
(1.27502 0.289922 2.13292e-19)
(1.28335 0.291514 2.94451e-20)
(1.28751 0.291232 5.86813e-20)
(1.28894 0.289576 -2.45922e-19)
(1.28876 0.287053 -6.13162e-21)
(1.288 0.284442 -3.79668e-19)
(0.0335405 -0.00259616 2.19278e-19)
(0.137193 -0.00135354 1.46233e-19)
(0.269238 0.0164195 -2.35713e-19)
(0.418039 0.0453639 3.68086e-19)
(0.572136 0.0815483 -3.96668e-20)
(0.720963 0.121256 1.3748e-19)
(0.856073 0.160789 4.75982e-20)
(0.972032 0.197144 1.68662e-19)
(1.06652 0.228361 -1.32067e-19)
(1.13983 0.253531 4.40268e-20)
(1.19404 0.272599 -4.22686e-20)
(1.23217 0.286086 -1.86152e-20)
(1.25754 0.294826 3.53772e-20)
(1.27328 0.299752 -6.52084e-20)
(1.28211 0.301756 -2.00523e-20)
(1.2862 0.301609 -6.135e-20)
(1.28721 0.299928 -9.97574e-20)
(1.28639 0.297173 6.44007e-20)
(1.28465 0.293823 -8.84213e-20)
(1.28282 0.290496 3.82071e-19)
(0.0436199 -0.0021926 -1.0953e-19)
(0.166139 0.00236348 -3.10211e-19)
(0.314687 0.025753 -4.12918e-20)
(0.476196 0.0609046 -1.12219e-20)
(0.637926 0.102602 -1.38931e-19)
(0.78881 0.146269 -2.28097e-19)
(0.920886 0.187825 7.46718e-20)
(1.02995 0.224338 -1.02607e-19)
(1.11522 0.254236 -1.15002e-19)
(1.17848 0.277127 6.40756e-20)
(1.22293 0.293452 -4.8432e-20)
(1.25236 0.304128 -9.8029e-20)
(1.27044 0.310253 -3.32715e-21)
(1.28038 0.312901 6.64015e-20)
(1.28479 0.313011 -6.77725e-20)
(1.28562 0.311341 9.40516e-20)
(1.28432 0.308463 2.52927e-20)
(1.28189 0.304778 6.37831e-20)
(1.27908 0.300743 1.24383e-19)
(1.27655 0.296828 -1.06565e-19)
(0.0547212 -0.00110607 1.04635e-19)
(0.197037 0.00802221 -9.27386e-21)
(0.361857 0.0379144 4.69223e-20)
(0.534768 0.0796269 -6.36987e-20)
(0.702043 0.126621 5.22622e-21)
(0.852617 0.173582 2.21014e-19)
(0.979548 0.216271 -1.45202e-19)
(1.08024 0.252061 6.15083e-20)
(1.15563 0.279932 5.42406e-20)
(1.2089 0.300081 -1.52503e-19)
(1.24423 0.313447 1.43335e-19)
(1.26593 0.321294 1.26829e-21)
(1.27784 0.324917 -1.01054e-19)
(1.28308 0.32547 1.21821e-19)
(1.28404 0.32389 -4.83584e-20)
(1.28244 0.32089 3.6987e-20)
(1.27947 0.316975 -4.13667e-20)
(1.27593 0.312489 -1.65373e-20)
(1.27241 0.307866 -1.4493e-19)
(1.26942 0.303445 4.43845e-20)
(0.0667528 0.000774128 -3.52981e-20)
(0.2295 0.0158158 9.4692e-20)
(0.410005 0.0530217 1.47578e-20)
(0.592709 0.101472 6.19173e-20)
(0.763327 0.153351 2.95382e-20)
(0.911373 0.202811 1.38455e-20)
(1.03142 0.245718 7.85121e-20)
(1.12277 0.279973 -9.53153e-21)
(1.18809 0.305234 3.46256e-20)
(1.23181 0.322319 5.56464e-20)
(1.2589 0.332628 2.68587e-20)
(1.27394 0.337709 1.92852e-20)
(1.28075 0.338985 7.82161e-20)
(1.28227 0.337631 -7.57139e-20)
(1.28061 0.334544 1.62552e-20)
(1.27723 0.330369 -1.5222e-20)
(1.27308 0.325541 2.35588e-20)
(1.26881 0.320345 1.97405e-20)
(1.26483 0.3152 4.12365e-20)
(1.26155 0.310314 1.73989e-21)
(0.079588 0.00354826 2.09246e-20)
(0.263066 0.0258911 1.91127e-20)
(0.458324 0.0711123 -2.64546e-20)
(0.648987 0.126288 1.65301e-20)
(0.820752 0.182471 9.33804e-21)
(0.964305 0.233551 -2.90483e-20)
(1.07616 0.275784 9.5871e-21)
(1.15766 0.307793 1.72704e-21)
(1.21311 0.329993 1.65375e-20)
(1.24801 0.343816 -4.43425e-20)
(1.26784 0.351065 -1.3748e-22)
(1.27728 0.353495 1.22923e-20)
(1.28 0.352592 -9.79514e-21)
(1.27864 0.349507 9.9112e-21)
(1.27504 0.345067 2.58674e-20)
(1.27039 0.33984 -1.47183e-20)
(1.26545 0.334185 4.09699e-21)
(1.26069 0.328341 1.61295e-20)
(1.25644 0.322715 -2.65958e-20)
(1.253 0.317382 1.27653e-20)
(0.0930673 0.007301 5.83514e-20)
(0.297215 0.0383395 -3.17286e-20)
(0.505986 0.0921392 3.73572e-20)
(0.702631 0.153843 -2.7795e-20)
(0.873455 0.213612 -1.24657e-20)
(1.01088 0.2654 3.76771e-21)
(1.11367 0.306128 -1.22357e-20)
(1.18521 0.335295 4.40079e-20)
(1.2313 0.354111 -3.66458e-20)
(1.25828 0.364577 8.59872e-21)
(1.27189 0.368827 -6.40831e-21)
(1.27673 0.368749 -4.17446e-20)
(1.27622 0.365835 4.04922e-20)
(1.2727 0.361172 1.54167e-20)
(1.2677 0.355505 -1.53384e-20)
(1.26218 0.349316 3.60053e-20)
(1.25672 0.342896 -5.29297e-22)
(1.25168 0.336443 -3.4932e-20)
(1.2473 0.330355 2.58798e-20)
(1.24378 0.324578 8.15647e-21)
(0.107002 0.0120969 -2.04465e-20)
(0.331386 0.0531901 5.93012e-20)
(0.552165 0.115972 6.85109e-20)
(0.752768 0.183831 -3.23178e-20)
(0.920756 0.246374 5.62352e-20)
(1.05077 0.297967 8.89876e-20)
(1.14401 0.336446 -4.89752e-21)
(1.20585 0.362297 -1.52738e-20)
(1.24332 0.377516 7.54668e-20)
(1.26334 0.384613 3.67942e-20)
(1.27173 0.385969 -6.67437e-21)
(1.27289 0.383538 5.48447e-20)
(1.26992 0.378768 -5.88083e-20)
(1.26482 0.372659 9.15671e-20)
(1.25885 0.36586 -1.52759e-20)
(1.25276 0.358775 4.37486e-20)
(1.247 0.351629 7.88129e-21)
(1.24183 0.34459 3.13058e-20)
(1.23741 0.338051 -2.98015e-20)
(1.2339 0.33182 7.16604e-21)
(0.121176 0.0179758 -3.18215e-20)
(0.364997 0.0704052 7.55595e-20)
(0.596071 0.142398 5.61257e-20)
(0.798639 0.215891 -8.50237e-21)
(0.962154 0.280338 8.74269e-20)
(1.08386 0.330876 -6.52712e-20)
(1.16744 0.366469 -5.11103e-21)
(1.22006 0.388645 5.7644e-20)
(1.24977 0.400154 1.83162e-20)
(1.26383 0.40393 2.56135e-20)
(1.26795 0.402525 -3.78177e-20)
(1.26624 0.397893 9.85839e-20)
(1.26144 0.391405 1.83996e-20)
(1.25524 0.383957 -8.73085e-20)
(1.24864 0.376102 1.27522e-19)
(1.24222 0.368166 -1.50449e-19)
(1.23633 0.360319 -6.9046e-20)
(1.23116 0.352707 1.14458e-20)
(1.22677 0.345717 6.70566e-20)
(1.22334 0.339021 -1.26356e-19)
(0.13536 0.0249501 -7.16662e-20)
(0.397463 0.0898792 -1.69038e-19)
(0.636978 0.171137 -1.46133e-19)
(0.839624 0.249616 -1.98986e-19)
(0.997318 0.31508 -1.12883e-19)
(1.11016 0.363775 -2.34071e-19)
(1.18425 0.395953 2.97391e-20)
(1.22836 0.414206 -1.24287e-19)