/*--------------------------------*- C++ -*----------------------------------*\
  =========                 |
  \\      /  F ield         | OpenFOAM: The Open Source CFD Toolbox
   \\    /   O peration     | Website:  https://openfoam.org
    \\  /    A nd           | Version:  6.0
     \\/     M anipulation  |
\*---------------------------------------------------------------------------*/
FoamFile
{
    version     2.0;
    format      ascii;
    class       volScalarField;
    location    "20";
    object      p;
}
// * * * * * * * * * * * * * * * * * * * * * * * * * * * * * * * * * * * * * //

dimensions      [0 2 -2 0 0 0 0];

internalField   nonuniform List<scalar> 
4000
(
-0.270008
-0.271067
-0.271755
-0.272249
-0.272661
-0.273008
-0.273305
-0.273566
-0.2738
-0.274015
-0.274216
-0.274408
-0.274596
-0.274783
-0.274976
-0.275182
-0.275404
-0.275621
-0.27582
-0.276268
-0.270137
-0.271189
-0.271872
-0.272361
-0.272766
-0.273106
-0.273396
-0.27365
-0.273877
-0.274085
-0.274278
-0.274461
-0.27464
-0.274819
-0.275004
-0.275201
-0.275416
-0.275625
-0.275817
-0.27626
-0.270396
-0.271436
-0.272107
-0.272585
-0.272979
-0.273306
-0.273582
-0.273822
-0.274034
-0.274226
-0.274403
-0.274569
-0.274731
-0.274892
-0.275059
-0.275239
-0.275438
-0.275632
-0.275807
-0.276243
-0.270784
-0.271805
-0.272461
-0.272922
-0.273298
-0.273605
-0.273861
-0.274078
-0.274268
-0.274435
-0.274587
-0.274727
-0.274862
-0.274995
-0.275134
-0.275288
-0.275461
-0.27563
-0.275781
-0.276204
-0.271298
-0.272296
-0.27293
-0.27337
-0.273721
-0.274002
-0.274229
-0.274416
-0.274574
-0.274708
-0.274825
-0.274929
-0.275025
-0.27512
-0.27522
-0.275335
-0.275472
-0.275607
-0.275724
-0.276129
-0.271937
-0.272907
-0.273515
-0.273927
-0.274247
-0.274494
-0.274684
-0.274833
-0.274949
-0.27504
-0.275111
-0.275167
-0.275213
-0.275256
-0.275304
-0.275367
-0.275455
-0.275545
-0.275616
-0.275998
-0.272698
-0.273637
-0.274215
-0.274592
-0.274874
-0.275079
-0.275225
-0.275325
-0.275391
-0.275428
-0.275441
-0.275436
-0.275419
-0.275396
-0.275375
-0.275372
-0.275396
-0.275424
-0.275438
-0.27579
-0.273582
-0.274486
-0.275028
-0.275365
-0.275601
-0.275757
-0.275849
-0.275893
-0.275897
-0.275869
-0.275813
-0.275734
-0.275638
-0.275532
-0.275427
-0.275337
-0.275279
-0.275229
-0.275169
-0.275485
-0.274589
-0.275454
-0.275955
-0.276246
-0.276429
-0.276527
-0.276557
-0.276535
-0.276469
-0.276365
-0.276228
-0.276061
-0.275871
-0.275665
-0.275455
-0.275258
-0.275095
-0.274944
-0.27479
-0.27506
-0.275723
-0.276545
-0.276998
-0.277235
-0.277357
-0.277389
-0.27735
-0.277254
-0.277109
-0.276921
-0.276691
-0.276425
-0.276125
-0.2758
-0.275463
-0.275135
-0.274838
-0.274557
-0.274281
-0.274492
-0.276988
-0.27776
-0.278159
-0.278334
-0.278388
-0.278347
-0.27823
-0.278053
-0.277822
-0.277542
-0.277212
-0.276835
-0.276412
-0.275951
-0.275464
-0.274976
-0.274513
-0.274063
-0.273626
-0.273755
-0.278392
-0.279106
-0.279441
-0.279546
-0.279523
-0.2794
-0.2792
-0.278936
-0.278614
-0.278237
-0.277802
-0.277307
-0.276751
-0.276139
-0.275481
-0.274801
-0.274132
-0.273464
-0.27281
-0.272819
-0.279941
-0.280587
-0.280849
-0.280874
-0.280764
-0.280552
-0.28026
-0.279905
-0.279489
-0.279014
-0.278471
-0.277856
-0.277162
-0.276388
-0.275539
-0.274638
-0.273719
-0.27277
-0.271818
-0.271646
-0.281645
-0.282211
-0.282388
-0.28232
-0.282112
-0.281801
-0.281412
-0.280959
-0.280448
-0.279874
-0.279226
-0.278493
-0.277661
-0.276719
-0.275667
-0.274518
-0.273302
-0.271999
-0.270639
-0.270185
-0.283517
-0.283987
-0.284064
-0.283889
-0.283569
-0.283147
-0.282651
-0.282096
-0.281485
-0.280812
-0.280062
-0.279216
-0.278251
-0.277146
-0.275883
-0.274466
-0.272911
-0.271174
-0.269264
-0.268376
-0.285567
-0.285926
-0.285885
-0.285586
-0.285138
-0.28459
-0.283973
-0.283305
-0.282589
-0.281816
-0.280965
-0.280011
-0.278922
-0.27766
-0.276192
-0.274498
-0.272571
-0.270328
-0.267711
-0.266173
-0.287813
-0.288041
-0.287862
-0.287418
-0.286821
-0.286127
-0.285373
-0.284578
-0.283745
-0.282864
-0.28191
-0.280852
-0.279646
-0.278242
-0.276583
-0.274621
-0.27232
-0.269536
-0.266083
-0.263617
-0.290275
-0.290349
-0.29001
-0.289396
-0.288625
-0.287762
-0.286848
-0.285906
-0.28494
-0.283938
-0.282875
-0.281711
-0.280397
-0.278867
-0.27704
-0.274836
-0.272176
-0.268846
-0.264428
-0.260612
-0.292978
-0.292874
-0.292347
-0.291536
-0.290563
-0.289502
-0.288403
-0.28729
-0.286171
-0.285033
-0.283852
-0.282587
-0.281184
-0.27957
-0.277644
-0.275285
-0.272339
-0.268436
-0.262732
-0.256776
-0.295954
-0.295644
-0.2949
-0.29386
-0.292654
-0.291367
-0.290054
-0.288746
-0.287453
-0.286166
-0.284865
-0.28352
-0.282089
-0.280519
-0.278742
-0.276669
-0.274157
-0.270726
-0.265137
-0.258471
-0.299243
-0.298694
-0.297699
-0.2964
-0.29493
-0.293387
-0.291834
-0.290307
-0.288821
-0.287374
-0.285958
-0.284558
-0.283168
-0.281794
-0.280482
-0.279346
-0.278622
-0.2787
-0.281035
-0.292468
-0.302895
-0.302067
-0.300786
-0.299193
-0.297428
-0.295602
-0.293786
-0.292021
-0.290328
-0.288714
-0.28718
-0.285733
-0.284394
-0.283216
-0.282308
-0.28187
-0.282245
-0.283947
-0.288096
-0.299234
-0.306963
-0.305811
-0.304205
-0.302286
-0.300199
-0.298066
-0.295968
-0.293952
-0.292043
-0.290257
-0.288604
-0.287107
-0.285808
-0.284785
-0.284169
-0.28417
-0.285092
-0.287334
-0.291457
-0.299906
-0.311508
-0.309978
-0.308007
-0.305732
-0.303296
-0.300838
-0.298444
-0.296168
-0.294038
-0.292073
-0.290294
-0.288728
-0.287427
-0.286472
-0.285986
-0.286137
-0.28714
-0.289229
-0.292647
-0.298453
-0.31659
-0.314623
-0.312245
-0.309584
-0.306779
-0.30398
-0.301281
-0.298736
-0.296376
-0.29422
-0.292289
-0.290611
-0.289232
-0.288221
-0.28767
-0.28769
-0.2884
-0.289899
-0.292272
-0.295695
-0.322269
-0.319798
-0.316973
-0.313898
-0.310705
-0.307553
-0.304539
-0.301715
-0.299107
-0.296731
-0.294602
-0.29274
-0.291178
-0.289963
-0.289151
-0.288801
-0.288962
-0.289649
-0.290884
-0.292408
-0.328597
-0.325554
-0.322241
-0.318729
-0.315131
-0.311614
-0.308271
-0.305147
-0.30226
-0.299615
-0.297215
-0.29507
-0.293196
-0.291617
-0.290362
-0.289455
-0.288903
-0.288685
-0.288803
-0.288851
-0.335619
-0.331935
-0.328094
-0.324125
-0.320107
-0.316208
-0.312515
-0.309058
-0.305838
-0.302848
-0.300078
-0.297525
-0.295193
-0.293092
-0.291236
-0.28963
-0.28827
-0.287131
-0.286208
-0.285125
-0.343367
-0.338974
-0.334572
-0.330126
-0.325672
-0.32137
-0.317291
-0.313444
-0.309813
-0.306374
-0.303108
-0.300004
-0.297062
-0.294291
-0.2917
-0.289297
-0.28708
-0.285036
-0.283159
-0.281168
-0.351857
-0.346693
-0.3417
-0.336761
-0.331851
-0.327112
-0.322592
-0.318274
-0.314122
-0.310102
-0.306192
-0.302385
-0.298686
-0.295114
-0.291687
-0.288422
-0.285328
-0.28241
-0.279658
-0.276891
-0.361085
-0.355095
-0.349489
-0.344042
-0.338647
-0.333421
-0.328379
-0.323477
-0.318667
-0.313911
-0.309198
-0.304534
-0.299947
-0.295468
-0.291134
-0.286973
-0.283006
-0.279246
-0.275683
-0.272211
-0.371022
-0.364164
-0.357929
-0.351956
-0.346037
-0.340248
-0.334573
-0.328946
-0.323313
-0.317652
-0.311975
-0.306318
-0.300732
-0.295273
-0.289991
-0.284925
-0.280102
-0.275539
-0.271217
-0.267082
-0.381612
-0.373858
-0.366985
-0.360463
-0.35396
-0.347507
-0.341057
-0.334533
-0.327897
-0.321159
-0.31437
-0.307604
-0.300942
-0.29446
-0.288219
-0.282261
-0.276613
-0.271287
-0.266251
-0.261485
-0.392768
-0.384105
-0.376589
-0.369484
-0.362316
-0.355067
-0.347669
-0.340057
-0.332232
-0.324257
-0.316232
-0.308275
-0.300493
-0.292976
-0.285788
-0.278968
-0.272534
-0.266489
-0.260786
-0.255424
-0.404363
-0.394798
-0.386636
-0.378901
-0.370959
-0.36275
-0.354209
-0.345311
-0.336121
-0.32677
-0.31742
-0.308223
-0.29931
-0.290773
-0.282671
-0.275032
-0.267861
-0.261146
-0.25482
-0.248904
-0.416234
-0.405791
-0.396978
-0.388546
-0.379695
-0.370338
-0.360447
-0.350069
-0.339359
-0.328531
-0.317801
-0.307354
-0.297328
-0.287809
-0.278842
-0.270437
-0.262583
-0.255251
-0.248352
-0.24193
-0.428176
-0.416895
-0.407425
-0.398209
-0.388285
-0.377576
-0.366127
-0.354097
-0.34175
-0.329382
-0.31726
-0.305583
-0.294487
-0.284042
-0.274269
-0.265159
-0.256681
-0.248789
-0.241369
-0.234499
-0.439944
-0.427883
-0.41774
-0.40763
-0.396453
-0.38418
-0.370984
-0.357164
-0.343104
-0.329179
-0.315687
-0.302832
-0.290731
-0.279428
-0.268919
-0.25917
-0.250131
-0.241738
-0.233853
-0.226595
-0.451253
-0.438484
-0.427645
-0.416513
-0.403889
-0.389854
-0.374751
-0.359047
-0.343247
-0.327789
-0.312985
-0.299027
-0.286
-0.273919
-0.26275
-0.252433
-0.242901
-0.234069
-0.225778
-0.218198
-0.461788
-0.448394
-0.436823
-0.424526
-0.410266
-0.394292
-0.377168
-0.359539
-0.34202
-0.325091
-0.309063
-0.294095
-0.280236
-0.267465
-0.255716
-0.244907
-0.234953
-0.225748
-0.217114
-0.20928
-0.461962
-0.448567
-0.436994
-0.424694
-0.410429
-0.394451
-0.377321
-0.359686
-0.342162
-0.325228
-0.309195
-0.294223
-0.28036
-0.267585
-0.255833
-0.245021
-0.235063
-0.225856
-0.217218
-0.209382
-0.45143
-0.43866
-0.427818
-0.416684
-0.404057
-0.390016
-0.374908
-0.359199
-0.343394
-0.32793
-0.313122
-0.299159
-0.286129
-0.274044
-0.262871
-0.252551
-0.243016
-0.234181
-0.225887
-0.218304
-0.440122
-0.42806
-0.417916
-0.407804
-0.396623
-0.384346
-0.371145
-0.35732
-0.343255
-0.329325
-0.315828
-0.30297
-0.290864
-0.279557
-0.269045
-0.259292
-0.250251
-0.241854
-0.233965
-0.226705
-0.428356
-0.417074
-0.407602
-0.398384
-0.388458
-0.377745
-0.366291
-0.354257
-0.341905
-0.329533
-0.317406
-0.305725
-0.294625
-0.284176
-0.2744
-0.265286
-0.256805
-0.248909
-0.241486
-0.234613
-0.416415
-0.40597
-0.397156
-0.388723
-0.379869
-0.370509
-0.360614
-0.350232
-0.339519
-0.328686
-0.317952
-0.307501
-0.29747
-0.287948
-0.278977
-0.270569
-0.262711
-0.255376
-0.248473
-0.242049
-0.404545
-0.394978
-0.386814
-0.379078
-0.371134
-0.362923
-0.354379
-0.345478
-0.336283
-0.326929
-0.317575
-0.308374
-0.299457
-0.290917
-0.282811
-0.275169
-0.267994
-0.261277
-0.254947
-0.249027
-0.392949
-0.384285
-0.376768
-0.369662
-0.362492
-0.355241
-0.34784
-0.340226
-0.332398
-0.324419
-0.316391
-0.308431
-0.300645
-0.293125
-0.285933
-0.27911
-0.272673
-0.266625
-0.260918
-0.255552
-0.381793
-0.374038
-0.367164
-0.36064
-0.354136
-0.347682
-0.34123
-0.334703
-0.328065
-0.321325
-0.314533
-0.307764
-0.3011
-0.294615
-0.28837
-0.282409
-0.276757
-0.271428
-0.266389
-0.26162
-0.371202
-0.364343
-0.358107
-0.352133
-0.346212
-0.340423
-0.334747
-0.329118
-0.323483
-0.317821
-0.312142
-0.306482
-0.300894
-0.295432
-0.290148
-0.285079
-0.280253
-0.275686
-0.271361
-0.267222
-0.361264
-0.355273
-0.349666
-0.344218
-0.338822
-0.333595
-0.328552
-0.32365
-0.318839
-0.314083
-0.309368
-0.304703
-0.300114
-0.295633
-0.291297
-0.287133
-0.283163
-0.2794
-0.275834
-0.272358
-0.352036
-0.34687
-0.341876
-0.336936
-0.332025
-0.327286
-0.322766
-0.318448
-0.314296
-0.310276
-0.306366
-0.302558
-0.298859
-0.295285
-0.291856
-0.288589
-0.285493
-0.282571
-0.279816
-0.277045
-0.343545
-0.339151
-0.334747
-0.3303
-0.325846
-0.321544
-0.317465
-0.313618
-0.309988
-0.30655
-0.303285
-0.300181
-0.297239
-0.294468
-0.291876
-0.289471
-0.287251
-0.285205
-0.283325
-0.28133
-0.335797
-0.332111
-0.328268
-0.324298
-0.32028
-0.316381
-0.312689
-0.309232
-0.306014
-0.303026
-0.300258
-0.297706
-0.295375
-0.293275
-0.291418
-0.289811
-0.288449
-0.287308
-0.286382
-0.285296
-0.328774
-0.325729
-0.322414
-0.318901
-0.315303
-0.311786
-0.308444
-0.305322
-0.302437
-0.299795
-0.297398
-0.295255
-0.293382
-0.291805
-0.290551
-0.289643
-0.28909
-0.288871
-0.288986
-0.28903
-0.322445
-0.319972
-0.317145
-0.31407
-0.310876
-0.307725
-0.304712
-0.30189
-0.299285
-0.296913
-0.294787
-0.292929
-0.29137
-0.290157
-0.289346
-0.288997
-0.289158
-0.289843
-0.291076
-0.292596
-0.316766
-0.314796
-0.312417
-0.309754
-0.306949
-0.304151
-0.301455
-0.298913
-0.296556
-0.294404
-0.292477
-0.290803
-0.289428
-0.288421
-0.287872
-0.287894
-0.288604
-0.290102
-0.292473
-0.295892
-0.311683
-0.31015
-0.308177
-0.305901
-0.303466
-0.30101
-0.298619
-0.296346
-0.29422
-0.29226
-0.290485
-0.288924
-0.287628
-0.286677
-0.286195
-0.286348
-0.287352
-0.289442
-0.292859
-0.298659
-0.307137
-0.305981
-0.304374
-0.302455
-0.300369
-0.298238
-0.296143
-0.294131
-0.292227
-0.290446
-0.288799
-0.287307
-0.286013
-0.284995
-0.284384
-0.284387
-0.285312
-0.287555
-0.291678
-0.300122
-0.303066
-0.302235
-0.300953
-0.29936
-0.297597
-0.295773
-0.293961
-0.292201
-0.290514
-0.288905
-0.287377
-0.285936
-0.284603
-0.283431
-0.282527
-0.282094
-0.282472
-0.284176
-0.288325
-0.299459
-0.299411
-0.298859
-0.297863
-0.296564
-0.295096
-0.293557
-0.292008
-0.290487
-0.289007
-0.287567
-0.286157
-0.284764
-0.28338
-0.282012
-0.280705
-0.279574
-0.278855
-0.278936
-0.281273
-0.292704
-0.296117
-0.295805
-0.29506
-0.294022
-0.292818
-0.291535
-0.290227
-0.288925
-0.287638
-0.286359
-0.285065
-0.283727
-0.282302
-0.280738
-0.278967
-0.2769
-0.274393
-0.270968
-0.265384
-0.258724
-0.293135
-0.293029
-0.292502
-0.291693
-0.290723
-0.289667
-0.288573
-0.287467
-0.286355
-0.285224
-0.28405
-0.282793
-0.281397
-0.279789
-0.27787
-0.275516
-0.272575
-0.268677
-0.262976
-0.257024
-0.290425
-0.290498
-0.290159
-0.289547
-0.28878
-0.287921
-0.287013
-0.286079
-0.28512
-0.284126
-0.28307
-0.281915
-0.280607
-0.279083
-0.277263
-0.275064
-0.272408
-0.269081
-0.264664
-0.260849
-0.287954
-0.288181
-0.288004
-0.287562
-0.286969
-0.286281
-0.285533
-0.284745
-0.28392
-0.283046
-0.282101
-0.28105
-0.279851
-0.278453
-0.276799
-0.274842
-0.272544
-0.269762
-0.266307
-0.263839
-0.285698
-0.286057
-0.286018
-0.285722
-0.285278
-0.284736
-0.284125
-0.283465
-0.282756
-0.28199
-0.281147
-0.280201
-0.279118
-0.277863
-0.2764
-0.274709
-0.272785
-0.270541
-0.267921
-0.26638
-0.283636
-0.284108
-0.284187
-0.284016
-0.283701
-0.283284
-0.282794
-0.282246
-0.281643
-0.280977
-0.280235
-0.279395
-0.278437
-0.277337
-0.276078
-0.274664
-0.27311
-0.271373
-0.269459
-0.268566
-0.281753
-0.282321
-0.282501
-0.282437
-0.282233
-0.281928
-0.281545
-0.281099
-0.280595
-0.280027
-0.279386
-0.278659
-0.277833
-0.276896
-0.275847
-0.274701
-0.273486
-0.272182
-0.270816
-0.270359
-0.280036
-0.280686
-0.280952
-0.28098
-0.280875
-0.280668
-0.280382
-0.280033
-0.279624
-0.279154
-0.278618
-0.278009
-0.27732
-0.276549
-0.275703
-0.274805
-0.273886
-0.272935
-0.271978
-0.271802
-0.278475
-0.279194
-0.279533
-0.279642
-0.279623
-0.279505
-0.27931
-0.279051
-0.278736
-0.278365
-0.277935
-0.277445
-0.276894
-0.276284
-0.275629
-0.27495
-0.274281
-0.273611
-0.272953
-0.272958
-0.27706
-0.277837
-0.27824
-0.278419
-0.278477
-0.27844
-0.278329
-0.278156
-0.277931
-0.277656
-0.277331
-0.276958
-0.276539
-0.276081
-0.275596
-0.275108
-0.274645
-0.274192
-0.273752
-0.273877
-0.275784
-0.276611
-0.277069
-0.27731
-0.277436
-0.277472
-0.277437
-0.277345
-0.277205
-0.277021
-0.276796
-0.276533
-0.276236
-0.275913
-0.275578
-0.27525
-0.274953
-0.274669
-0.27439
-0.274597
-0.274639
-0.275511
-0.276016
-0.27631
-0.276497
-0.276598
-0.276632
-0.276614
-0.276552
-0.276452
-0.276319
-0.276155
-0.275967
-0.275763
-0.275553
-0.275357
-0.275193
-0.27504
-0.274882
-0.275149
-0.273623
-0.274533
-0.275079
-0.27542
-0.275659
-0.275818
-0.275913
-0.275961
-0.275969
-0.275944
-0.27589
-0.275814
-0.27572
-0.275615
-0.275511
-0.275421
-0.275362
-0.27531
-0.275247
-0.275559
-0.272731
-0.273676
-0.274257
-0.274638
-0.274922
-0.27513
-0.275279
-0.275383
-0.275451
-0.27549
-0.275506
-0.275503
-0.275487
-0.275465
-0.275445
-0.275441
-0.275464
-0.275491
-0.275501
-0.275851
-0.271962
-0.272938
-0.27355
-0.273964
-0.274286
-0.274536
-0.274729
-0.27488
-0.274999
-0.275092
-0.275164
-0.275222
-0.275269
-0.275313
-0.275361
-0.275424
-0.275511
-0.275598
-0.275667
-0.276045
-0.271318
-0.27232
-0.272957
-0.273399
-0.273752
-0.274035
-0.274264
-0.274454
-0.274613
-0.274749
-0.274867
-0.274972
-0.27507
-0.275165
-0.275265
-0.275379
-0.275515
-0.275649
-0.275763
-0.276165
-0.270798
-0.271823
-0.272481
-0.272944
-0.273321
-0.273631
-0.273888
-0.274107
-0.274297
-0.274466
-0.274619
-0.27476
-0.274895
-0.275029
-0.275168
-0.275321
-0.275493
-0.275662
-0.275811
-0.276231
-0.270406
-0.271448
-0.272121
-0.272601
-0.272995
-0.273324
-0.273601
-0.273842
-0.274055
-0.274248
-0.274425
-0.274592
-0.274755
-0.274916
-0.275083
-0.275262
-0.27546
-0.275653
-0.275827
-0.276261
-0.270142
-0.271197
-0.27188
-0.27237
-0.272776
-0.273117
-0.273408
-0.273662
-0.27389
-0.274098
-0.274291
-0.274475
-0.274654
-0.274833
-0.275018
-0.275215
-0.275429
-0.275638
-0.275828
-0.276271
-0.270009
-0.271069
-0.271757
-0.272252
-0.272664
-0.273011
-0.273308
-0.273569
-0.273804
-0.274019
-0.274221
-0.274413
-0.2746
-0.274788
-0.274981
-0.275186
-0.275409
-0.275625
-0.275824
-0.276271
-0.287986
-0.314168
-0.357355
-0.291659
-0.181742
-0.11206
-0.0544904
-0.00986401
0.00864428
0.0226307
0.0239861
0.0246525
0.0223612
0.0201062
0.0171554
0.0141536
0.0109532
0.00829765
0.00491249
0.00260374
-0.288101
-0.314437
-0.357923
-0.292228
-0.181998
-0.11215
-0.0545951
-0.00994997
0.00855052
0.0225439
0.0239168
0.0245996
0.0223255
0.0200842
0.0171422
0.0141464
0.0109485
0.00829453
0.00491096
0.00260131
-0.288317
-0.314865
-0.358873
-0.293267
-0.182561
-0.112436
-0.0548896
-0.0101585
0.00836423
0.0223894
0.0238011
0.0245121
0.0222654
0.0200441
0.017115
0.0141281
0.0109345
0.00828423
0.00490473
0.00259537
-0.288604
-0.315411
-0.360137
-0.294727
-0.183424
-0.112915
-0.05537
-0.0104901
0.00808628
0.0221665
0.0236387
0.0243895
0.0221809
0.019986
0.0170739
0.0140987
0.0109111
0.0082667
0.00489383
0.00258592
-0.288926
-0.31602
-0.361628
-0.296544
-0.184574
-0.113584
-0.0560295
-0.010945
0.00771806
0.021874
0.0234292
0.0242314
0.0220721
0.0199098
0.0170189
0.0140581
0.0108784
0.00824189
0.00487834
0.00257292
-0.289241
-0.316626
-0.363243
-0.298644
-0.185996
-0.114438
-0.0568593
-0.0115227
0.00726148
0.0215106
0.0231719
0.0240369
0.0219388
0.0198157
0.0169503
0.0140063
0.0108365
0.00820978
0.00485836
0.00255638
-0.289504
-0.317163
-0.364876
-0.30095
-0.187674
-0.115471
-0.0578484
-0.0122219
0.00671905
0.0210751
0.0228659
0.0238052
0.0217809
0.0197036
0.0168681
0.0139435
0.0107854
0.00817037
0.00483404
0.0025363
-0.289675
-0.317566
-0.366429
-0.303389
-0.189592
-0.116673
-0.0589844
-0.0130402
0.00609384
0.0205669
0.0225108
0.0235356
0.0215984
0.0195736
0.0167724
0.0138696
0.0107252
0.00812369
0.00480556
0.00251271
-0.28972
-0.31778
-0.367814
-0.305896
-0.191731
-0.118034
-0.0602537
-0.0139739
0.00538954
0.0199857
0.0221062
0.0232276
0.0213913
0.019426
0.0166636
0.0137848
0.0106561
0.00806978
0.00477311
0.00248568
-0.289615
-0.317758
-0.368959
-0.308417
-0.194078
-0.119546
-0.0616419
-0.0150181
0.00461048
0.0193324
0.0216519
0.0228808
0.0211597
0.0192611
0.0165419
0.0136894
0.0105782
0.00800875
0.00473693
0.00245527
-0.289347
-0.317467
-0.369809
-0.310909
-0.196618
-0.121196
-0.063134
-0.0161662
0.00376164
0.0186086
0.0211484
0.0224953
0.020904
0.0190792
0.0164078
0.0135836
0.0104918
0.00794073
0.00469724
0.0024216
-0.288915
-0.316885
-0.370328
-0.313342
-0.19934
-0.122975
-0.0647155
-0.0174108
0.0028485
0.0178167
0.0205966
0.0220717
0.0206246
0.018881
0.0162616
0.0134676
0.0103972
0.0078659
0.00465429
0.00238482
-0.288327
-0.316002
-0.370492
-0.315696
-0.202238
-0.124877
-0.0663739
-0.0187445
0.00187647
0.0169602
0.0199977
0.0216108
0.0203222
0.0186671
0.0161041
0.0133421
0.0102946
0.00778448
0.00460833
0.00234509
-0.2876
-0.314815
-0.370286
-0.317961
-0.205312
-0.126898
-0.0680985
-0.0201595
0.000851331
0.0160431
0.0193535
0.0211138
0.0199975
0.0184383
0.0159358
0.0132074
0.0101844
0.00769673
0.00455963
0.0023026
-0.286752
-0.313324
-0.369693
-0.320108
-0.208541
-0.129027
-0.0698688
-0.0216409
-0.000217051
0.0150714
0.0186665
0.0205819
0.0196512
0.0181954
0.0157573
0.0130639
0.0100668
0.00760283
0.00450839
0.00225756
-0.285791
-0.311532
-0.368694
-0.322074
-0.211859
-0.13122
-0.071643
-0.0231605
-0.00131233
0.0140552
0.0179406
0.0200171
0.0192841
0.017939
0.015569
0.0129119
0.00994201
0.0075029
0.00445475
0.00221014
-0.284756
-0.309475
-0.367342
-0.323902
-0.215258
-0.133466
-0.0734283
-0.0247184
-0.00243767
0.0129993
0.0171809
0.019425
0.0188997
0.0176715
0.0153725
0.0127529
0.00981102
0.00739781
0.00439902
0.00216067
-0.283679
-0.307195
-0.365763
-0.326021
-0.219171
-0.136048
-0.0754677
-0.0264547
-0.00367195
0.0118758
0.0163832
0.0188119
0.018505
0.0173988
0.0151727
0.0125914
0.00967723
0.00729047
0.00434248
0.00210988
-0.282006
-0.304395
-0.363512
-0.328571
-0.224155
-0.139385
-0.077982
-0.0284994
-0.00506049
0.0106478
0.0155248
0.0181592
0.0180917
0.0171188
0.0149699
0.0124276
0.00954112
0.00718088
0.00428637
0.00205783
-0.278001
-0.300318
-0.35884
-0.328587
-0.227884
-0.142021
-0.079522
-0.0299695
-0.00605556
0.00950856
0.0146219
0.0174015
0.0175971
0.0167861
0.0147311
0.012227
0.00937648
0.00704556
0.00422354
0.00199981
-0.243783
-0.270692
-0.320142
-0.30973
-0.233106
-0.147012
-0.0786142
-0.0320849
-0.00779344
0.0045052
0.00954903
0.0124543
0.0141582
0.0144437
0.0130529
0.0107524
0.00817397
0.00603643
0.00378379
0.00162413
-0.207539
-0.239175
-0.264999
-0.26431
-0.215368
-0.141826
-0.0771987
-0.0349587
-0.0127679
-0.0033359
0.000943108
0.00421464
0.00745866
0.00952404
0.00961712
0.00810191
0.00590037
0.00411152
0.0026349
0.000986872
-0.184889
-0.206724
-0.218931
-0.215354
-0.182931
-0.128867
-0.0762333
-0.0393489
-0.019187
-0.0103573
-0.00601164
-0.00231226
0.0015681
0.00475808
0.00629355
0.00583476
0.00409469
0.00251744
0.00168921
0.00084418
-0.152583
-0.173858
-0.179651
-0.173433
-0.151577
-0.115192
-0.0760396
-0.0452043
-0.0260881
-0.0161597
-0.0107749
-0.00671108
-0.00288848
0.000657065
0.00323011
0.003876
0.00269288
0.00124483
0.000791181
0.000580994
-0.125587
-0.144307
-0.148297
-0.142357
-0.12765
-0.103901
-0.0757629
-0.0503303
-0.0316407
-0.020067
-0.0135994
-0.00956928
-0.00630095
-0.00297428
0.000156843
0.00179614
0.00130806
3.96276e-05
-0.000231203
3.20627e-05
-0.103541
-0.119823
-0.124016
-0.120069
-0.110185
-0.0942194
-0.0736504
-0.0525276
-0.0346328
-0.0223032
-0.0155045
-0.0118784
-0.00918643
-0.00618298
-0.00277834
-0.00031433
3.56579e-05
-0.000893629
-0.00097475
-0.000155612
-0.0866024
-0.100522
-0.105347
-0.103509
-0.0967503
-0.0852775
-0.069569
-0.0520117
-0.0358875
-0.0241685
-0.0176764
-0.0142737
-0.0116565
-0.00871151
-0.00521958
-0.00220705
-0.00104584
-0.00150559
-0.00144391
-0.000386078
-0.0736413
-0.0855794
-0.0907232
-0.0903592
-0.0856135
-0.0768553
-0.0644308
-0.0501108
-0.0365728
-0.026278
-0.020063
-0.0163281
-0.0133212
-0.0103437
-0.00704072
-0.0038607
-0.00207314
-0.00200522
-0.00183488
-0.000662582
-0.0636819
-0.0739259
-0.0789551
-0.0794253
-0.076053
-0.0691932
-0.0593261
-0.0480295
-0.0371795
-0.0282237
-0.0219309
-0.017631
-0.0143019
-0.0114585
-0.00852444
-0.00542095
-0.00315941
-0.0025186
-0.00213852
-0.000840522
-0.0558944
-0.0646543
-0.0693014
-0.0702262
-0.0678827
-0.0625788
-0.0549255
-0.046199
-0.0374324
-0.0293713
-0.0229944
-0.0184661
-0.0151409
-0.012469
-0.00979431
-0.0067867
-0.00417531
-0.00296893
-0.00229567
-0.00092711
-0.049667
-0.057139
-0.0613508
-0.0625606
-0.061041
-0.0571122
-0.0513107
-0.0444197
-0.0370069
-0.0297047
-0.0236523
-0.0192987
-0.0160508
-0.0133494
-0.0107193
-0.00780761
-0.00502983
-0.00336859
-0.00239986
-0.000992017
-0.044587
-0.0509941
-0.0548312
-0.0562415
-0.0554216
-0.0526531
-0.0481875
-0.0424691
-0.0360866
-0.0297164
-0.0242766
-0.020132
-0.0168161
-0.0139569
-0.0113177
-0.00856056
-0.00577867
-0.00378608
-0.0025113
-0.00102676
-0.0403741
-0.0459473
-0.0494886
-0.0510789
-0.0508461
-0.0489049
-0.0453158
-0.0404998
-0.0351263
-0.0297029
-0.024787
-0.0207264
-0.0173287
-0.0143908
-0.0117757
-0.0091609
-0.00642689
-0.00418985
-0.00261309
-0.00102942
-0.0368208
-0.0417728
-0.0451203
-0.0468891
-0.0470696
-0.0456614
-0.0427611
-0.0387957
-0.0343018
-0.0295831
-0.0250349
-0.0210809
-0.0177193
-0.0147856
-0.0121646
-0.0096122
-0.00693128
-0.00454086
-0.00271312
-0.00102577
-0.033741
-0.0382999
-0.0415626
-0.043473
-0.043922
-0.0429301
-0.0406529
-0.037395
-0.0335244
-0.0293052
-0.025105
-0.0213382
-0.0180614
-0.0151278
-0.0124608
-0.00992255
-0.00730465
-0.00484428
-0.00282386
-0.00102514
-0.031018
-0.0354084
-0.0386794
-0.0407043
-0.0413715
-0.0407441
-0.0389596
-0.0362047
-0.0327813
-0.0289814
-0.025123
-0.0215399
-0.0183236
-0.0153839
-0.0126783
-0.0101418
-0.00758229
-0.0050998
-0.00293522
-0.00102665
-0.0285471
-0.0330193
-0.0363856
-0.0385276
-0.0393851
-0.039039
-0.0376019
-0.0352154
-0.0321523
-0.0286983
-0.0251129
-0.0216682
-0.0184991
-0.0155706
-0.0128474
-0.0103025
-0.00778097
-0.00529894
-0.0030351
-0.00103134
-0.0263596
-0.0311249
-0.0346519
-0.036902
-0.0379052
-0.0377625
-0.0365781
-0.0344717
-0.0316798
-0.0284706
-0.0250772
-0.0217387
-0.0186155
-0.0157071
-0.0129745
-0.010414
-0.00791325
-0.0054424
-0.00311683
-0.00103851
-0.024575
-0.0297759
-0.033464
-0.0357846
-0.0368929
-0.0369044
-0.035901
-0.0339818
-0.0313611
-0.0283049
-0.0250393
-0.0217784
-0.0186898
-0.0157957
-0.013057
-0.0104831
-0.0079938
-0.00553554
-0.00317462
-0.00104499
-0.0234635
-0.0290594
-0.0328397
-0.0351855
-0.0363563
-0.0364639
-0.0355608
-0.0337339
-0.0311952
-0.0282154
-0.0250167
-0.0217967
-0.018725
-0.0158377
-0.0130965
-0.0105159
-0.00803227
-0.00558169
-0.00320425
-0.00104817
-0.167023
-0.17699
-0.187059
-0.197318
-0.207867
-0.218815
-0.230282
-0.242394
-0.255275
-0.269037
-0.283736
-0.299357
-0.315681
-0.332293
-0.348271
-0.36256
-0.373219
-0.379556
-0.379264
-0.377098
-0.10741
-0.110986
-0.114267
-0.117238
-0.119879
-0.122169
-0.124083
-0.125596
-0.126686
-0.127337
-0.127542
-0.127329
-0.126758
-0.125988
-0.125224
-0.124911
-0.125409
-0.127624
-0.131819
-0.140165
-0.0810439
-0.0853249
-0.08964
-0.0939995
-0.0984146
-0.102897
-0.10746
-0.112114
-0.116874
-0.121749
-0.126746
-0.131867
-0.137095
-0.142401
-0.147713
-0.152934
-0.157885
-0.162399
-0.166172
-0.16905
-0.0667891
-0.0697013
-0.0725744
-0.0754096
-0.0782074
-0.0809686
-0.0836932
-0.0863813
-0.0890325
-0.0916468
-0.0942243
-0.0967665
-0.0992774
-0.101766
-0.104249
-0.106755
-0.109335
-0.112063
-0.115094
-0.118661
-0.0557178
-0.0580526
-0.0603911
-0.0627358
-0.0650893
-0.0674539
-0.0698323
-0.0722269
-0.0746403
-0.0770749
-0.0795331
-0.0820169
-0.0845276
-0.0870652
-0.089629
-0.0922123
-0.0948126
-0.097408
-0.100019
-0.102608
-0.048786
-0.0506072
-0.0524263
-0.054244
-0.0560608
-0.0578776
-0.059695
-0.0615138
-0.063335
-0.0651593
-0.0669878
-0.0688216
-0.070662
-0.0725103
-0.0743694
-0.0762403
-0.078133
-0.0800463
-0.0820287
-0.0840841
-0.0431996
-0.0446483
-0.0460982
-0.0475499
-0.0490038
-0.0504606
-0.051921
-0.0533854
-0.0548546
-0.0563291
-0.0578097
-0.0592968
-0.0607911
-0.0622929
-0.0638034
-0.0653215
-0.0668518
-0.0683878
-0.0699594
-0.0715483
-0.0390175
-0.0401894
-0.0413617
-0.0425345
-0.0437081
-0.0448826
-0.0460583
-0.0472356
-0.0484147
-0.0495958
-0.0507794
-0.0519657
-0.0531552
-0.054348
-0.055545
-0.0567457
-0.0579538
-0.059165
-0.0604029
-0.0616522
-0.0356428
-0.0366012
-0.0375596
-0.0385183
-0.0394774
-0.0404371
-0.0413975
-0.0423588
-0.0433211
-0.0442847
-0.0452497
-0.0462163
-0.0471847
-0.0481549
-0.0491274
-0.0501015
-0.0510799
-0.0520588
-0.0530556
-0.0540562
-0.0329589
-0.0337498
-0.0345405
-0.0353313
-0.036122
-0.0369129
-0.0377041
-0.0384955
-0.0392873
-0.0400797
-0.0408727
-0.0416663
-0.0424607
-0.0432558
-0.044052
-0.0448489
-0.0456481
-0.0464468
-0.0472583
-0.0480713
-0.0307597
-0.0314134
-0.0320671
-0.0327209
-0.0333749
-0.034029
-0.0346834
-0.0353381
-0.0359932
-0.0366487
-0.0373046
-0.037961
-0.0386179
-0.0392753
-0.0399333
-0.0405915
-0.0412511
-0.0419102
-0.0425783
-0.0432477
-0.0289267
-0.0294665
-0.0300068
-0.0305477
-0.0310891
-0.0316312
-0.0321738
-0.0327172
-0.0332611
-0.0338057
-0.0343509
-0.0348966
-0.0354428
-0.0359894
-0.0365365
-0.0370837
-0.0376319
-0.0381795
-0.0387337
-0.0392895
-0.0273001
-0.0277437
-0.0281887
-0.0286352
-0.0290832
-0.0295326
-0.0299834
-0.0304357
-0.0308893
-0.0313441
-0.0318001
-0.0322572
-0.0327153
-0.0331741
-0.0336337
-0.0340937
-0.0345547
-0.0350155
-0.0354814
-0.0359496
-0.0257866
-0.0261501
-0.0265165
-0.0268857
-0.0272576
-0.0276323
-0.0280095
-0.0283892
-0.0287711
-0.0291552
-0.0295413
-0.0299291
-0.0303184
-0.0307091
-0.0311009
-0.0314935
-0.0318872
-0.0322811
-0.032679
-0.0330797
-0.0241473
-0.0244443
-0.0247465
-0.0250539
-0.0253661
-0.025683
-0.0260043
-0.0263298
-0.0266591
-0.026992
-0.0273281
-0.0276671
-0.0280087
-0.0283526
-0.0286984
-0.0290458
-0.0293947
-0.0297446
-0.0300979
-0.0304549
-0.0223482
-0.0225968
-0.0228539
-0.023119
-0.0233917
-0.0236713
-0.0239574
-0.0242494
-0.0245468
-0.0248491
-0.0251557
-0.0254661
-0.0257798
-0.0260963
-0.0264151
-0.0267358
-0.0270582
-0.0273816
-0.0277077
-0.0280376
-0.0197511
-0.0199935
-0.0202483
-0.0205143
-0.0207905
-0.0210758
-0.0213693
-0.02167
-0.0219771
-0.0222896
-0.0226069
-0.0229281
-0.0232525
-0.0235796
-0.0239086
-0.0242391
-0.0245705
-0.0249024
-0.0252357
-0.025572
-0.0164354
-0.0167411
-0.0170591
-0.0173877
-0.0177253
-0.0180708
-0.0184228
-0.0187803
-0.019142
-0.0195072
-0.019875
-0.0202445
-0.020615
-0.0209859
-0.0213565
-0.0217265
-0.0220952
-0.0224625
-0.0228285
-0.0231951
-0.0114488
-0.0120146
-0.0125743
-0.0131275
-0.0136739
-0.0142132
-0.0147451
-0.0152694
-0.0157861
-0.0162948
-0.0167957
-0.0172885
-0.0177733
-0.01825
-0.0187186
-0.0191792
-0.0196317
-0.0200764
-0.0205134
-0.0209448
-0.00599287
-0.0069148
-0.0078026
-0.00865814
-0.0094832
-0.0102795
-0.0110485
-0.0117918
-0.0125107
-0.0132065
-0.0138805
-0.0145337
-0.0151673
-0.0157822
-0.0163794
-0.0169597
-0.0175239
-0.018073
-0.0186075
-0.0191294
-0.00593548
-0.00686018
-0.00775058
-0.00860857
-0.00943594
-0.0102344
-0.0110055
-0.0117507
-0.0124714
-0.013169
-0.0138446
-0.0144994
-0.0151345
-0.0157507
-0.0163492
-0.0169308
-0.0174962
-0.0180463
-0.0185819
-0.0191048
-0.0114137
-0.0119807
-0.0125416
-0.0130959
-0.0136435
-0.0141838
-0.0147168
-0.0152421
-0.0157597
-0.0162695
-0.0167712
-0.0172649
-0.0177506
-0.0182281
-0.0186976
-0.0191589
-0.0196122
-0.0200577
-0.0204955
-0.0209275
-0.0164259
-0.0167314
-0.0170491
-0.0173775
-0.0177151
-0.0180605
-0.0184125
-0.0187699
-0.0191317
-0.019497
-0.0198648
-0.0202344
-0.0206051
-0.0209761
-0.021347
-0.0217171
-0.0220861
-0.0224535
-0.0228197
-0.0231865
-0.019755