/*--------------------------------*- C++ -*----------------------------------*\
  =========                 |
  \\      /  F ield         | OpenFOAM: The Open Source CFD Toolbox
   \\    /   O peration     | Website:  https://openfoam.org
    \\  /    A nd           | Version:  6.0
     \\/     M anipulation  |
\*---------------------------------------------------------------------------*/
FoamFile
{
    version     2.0;
    format      ascii;
    class       volVectorField;
    location    "20";
    object      U;
}
// * * * * * * * * * * * * * * * * * * * * * * * * * * * * * * * * * * * * * //

dimensions      [0 1 -1 0 0 0 0];

internalField   nonuniform List<vector> 
4000
(
(-0.000508905 0.000599208 -3.56459e-21)
(-0.00276757 0.00149729 1.90538e-20)
(-0.00692882 0.00213959 -2.31751e-20)
(-0.0120299 0.00258495 1.76475e-20)
(-0.0175726 0.00287802 8.5939e-21)
(-0.023278 0.0030552 -2.58069e-20)
(-0.0289477 0.00314756 -2.28105e-21)
(-0.0344546 0.00318132 -8.09615e-22)
(-0.0397288 0.00317847 -1.33965e-20)
(-0.0447425 0.00315741 -7.25812e-21)
(-0.0494979 0.00313339 5.41257e-21)
(-0.0540191 0.00311886 2.05788e-20)
(-0.0583448 0.00312377 -1.54058e-21)
(-0.0625231 0.00315573 2.2054e-21)
(-0.0666077 0.00322018 -2.07298e-20)
(-0.0706572 0.0033204 1.27733e-20)
(-0.0747303 0.0034577 -1.83033e-20)
(-0.0788454 0.00363229 2.76987e-20)
(-0.0829698 0.00384402 -3.10488e-23)
(-0.0873822 0.00408628 5.98462e-21)
(-0.000598235 0.00175438 1.18376e-20)
(-0.00298205 0.00436226 -6.04966e-20)
(-0.00721788 0.00620445 -4.17851e-20)
(-0.0123547 0.00745935 -2.83767e-20)
(-0.0179017 0.00826223 -3.65056e-20)
(-0.0235849 0.00872266 8.03322e-21)
(-0.0292099 0.00893349 -4.21417e-20)
(-0.0346523 0.00897258 -9.4657e-21)
(-0.0398443 0.00890491 2.99043e-21)
(-0.0447596 0.00878456 3.14981e-20)
(-0.0494014 0.00865633 -3.43607e-20)
(-0.0537947 0.00855689 4.77977e-20)
(-0.0579791 0.0085156 -3.57944e-20)
(-0.0620038 0.00855508 -4.24491e-20)
(-0.0659236 0.00869164 -5.85013e-20)
(-0.0697989 0.00893538 3.73594e-20)
(-0.0736902 0.00929064 -1.20863e-20)
(-0.0776176 0.00975846 -4.40093e-20)
(-0.0815478 0.0103391 4.1611e-20)
(-0.0857636 0.0110129 -3.09328e-20)
(-0.000775369 0.00289096 1.15722e-19)
(-0.00340813 0.00718137 5.99314e-20)
(-0.00779369 0.0102029 6.74e-20)
(-0.0130037 0.0122508 5.6085e-21)
(-0.0185614 0.013549 3.72523e-20)
(-0.024203 0.0142792 4.64936e-20)
(-0.0297417 0.0145949 -8.44936e-20)
(-0.0350587 0.0146247 -4.47445e-20)
(-0.0400905 0.0144759 -5.82752e-20)
(-0.0448132 0.014238 6.22081e-20)
(-0.0492324 0.0139854 -4.75153e-20)
(-0.0533746 0.0137793 -6.11361e-20)
(-0.0572813 0.0136688 -2.22616e-20)
(-0.0610036 0.0136927 2.11486e-20)
(-0.0645987 0.013879 -5.88158e-21)
(-0.0681304 0.0142458 8.47774e-21)
(-0.0716629 0.0148015 9.81469e-20)
(-0.0752199 0.0155489 -1.3776e-20)
(-0.0787677 0.0164894 -9.9784e-20)
(-0.0825968 0.0175903 1.3157e-19)
(-0.00103822 0.00399806 4.02662e-20)
(-0.00404139 0.00992719 -5.68733e-20)
(-0.00865118 0.0140948 -1.42667e-20)
(-0.0139719 0.0169086 2.66744e-20)
(-0.0195478 0.0186789 7.57389e-20)
(-0.0251299 0.0196571 1.65823e-19)
(-0.0305431 0.0200556 1.62032e-19)
(-0.0356771 0.0200525 1.34621e-20)
(-0.0404742 0.0197963 9.93635e-20)
(-0.0449149 0.0194113 1.5209e-19)
(-0.0490076 0.0190013 -1.2153e-19)
(-0.0527812 0.0186522 1.79858e-19)
(-0.0562795 0.0184344 -4.073e-20)
(-0.0595565 0.0184037 1.02729e-20)
(-0.062673 0.0186019 4.25372e-20)
(-0.0656975 0.0190569 5.65303e-20)
(-0.0687004 0.0197829 -8.89597e-20)
(-0.0717106 0.0207863 -7.42548e-20)
(-0.0746949 0.0220717 -1.31424e-19)
(-0.0779566 0.0235924 1.91326e-19)
(-0.00138386 0.00506617 -2.10371e-20)
(-0.00487537 0.012575 -2.15345e-19)
(-0.00978248 0.0178434 -6.36958e-20)
(-0.0152512 0.0213864 -1.55219e-19)
(-0.0208533 0.0235972 5.86736e-20)
(-0.0263597 0.0247943 -9.25343e-20)
(-0.0316109 0.0252465 3.18243e-20)
(-0.036508 0.0251793 -1.95989e-19)
(-0.0410013 0.0247809 1.03395e-19)
(-0.0450766 0.0242091 -1.23302e-19)
(-0.0487459 0.0235968 -1.09656e-19)
(-0.052041 0.0230551 -1.22783e-19)
(-0.0550084 0.0226765 1.11454e-19)
(-0.0577056 0.022536 -1.00072e-19)
(-0.0601979 0.0226916 1.39349e-19)
(-0.0625599 0.0231841 4.02762e-20)
(-0.0648704 0.0240364 9.96997e-20)
(-0.0671662 0.0252614 4.37646e-20)
(-0.0694163 0.0268696 -1.73266e-19)
(-0.0719423 0.0288002 2.81957e-19)
(-0.00180876 0.00608736 9.27462e-20)
(-0.00590166 0.0151031 7.13251e-21)
(-0.0111764 0.021416 3.82055e-20)
(-0.0168289 0.0256426 1.33308e-19)
(-0.0224649 0.0282554 -2.04057e-20)
(-0.0278803 0.0296365 2.16474e-19)
(-0.0329352 0.0301082 9.60815e-20)
(-0.0375451 0.0299403 8.07738e-21)
(-0.0416704 0.0293583 2.47062e-19)
(-0.0453034 0.0285522 8.09545e-20)
(-0.0484605 0.0276827 3.84044e-20)
(-0.0511763 0.0268865 1.21886e-19)
(-0.0535003 0.0262792 1.11725e-19)
(-0.0554933 0.0259574 2.0397e-19)
(-0.0572258 0.0259986 -1.82312e-19)
(-0.0587799 0.0264602 2.5772e-19)
(-0.060245 0.0273786 3.39253e-21)
(-0.0616687 0.0287777 -3.2944e-19)
(-0.0630254 0.0306785 4.27093e-19)
(-0.0646626 0.0330064 1.76911e-19)
(-0.00230886 0.00705527 -5.46575e-20)
(-0.00710978 0.0174931 -9.92164e-20)
(-0.0128179 0.024784 -2.06455e-19)
(-0.0186865 0.0296411 -6.11822e-21)
(-0.0243616 0.0326119 3.52299e-20)
(-0.0296695 0.0341383 -2.63621e-19)
(-0.0344941 0.0345923 -1.95576e-19)
(-0.0387686 0.0342844 -2.79764e-20)
(-0.0424654 0.0334746 -2.47385e-19)
(-0.0455851 0.032382 -1.71282e-19)
(-0.0481485 0.0311939 -4.99178e-20)
(-0.0501933 0.0300719 -1.60735e-19)
(-0.0517713 0.0291555 -2.61895e-21)
(-0.0529465 0.0285651 -2.13461e-19)
(-0.0537945 0.0284017 8.9797e-20)
(-0.0544057 0.0287449 -1.02449e-19)
(-0.0548824 0.0296503 7.84913e-20)
(-0.0552864 0.03116 -9.98647e-20)
(-0.055602 0.0333125 -2.85457e-19)
(-0.0562133 0.0360216 -8.67374e-20)
(-0.00287966 0.00796481 -2.01203e-20)
(-0.00848693 0.0197292 -2.18487e-20)
(-0.0146869 0.0279228 1.73099e-19)
(-0.0207974 0.0333508 -2.81686e-19)
(-0.0265113 0.0366318 4.13248e-20)
(-0.0316906 0.0382633 -1.62713e-19)
(-0.0362478 0.0386627 7.68907e-20)
(-0.0401371 0.0381771 3.45603e-19)
(-0.0433459 0.0370963 -2.21702e-20)
(-0.0458836 0.0356657 -2.57823e-19)
(-0.0477768 0.0340961 4.68465e-20)
(-0.0490657 0.032572 9.08279e-21)
(-0.0498037 0.0312574 -5.29369e-20)
(-0.0500569 0.030298 5.35264e-21)
(-0.0499055 0.0298225 4.65074e-19)
(-0.0494487 0.0299389 -6.62214e-20)
(-0.048803 0.0307305 -1.29187e-19)
(-0.0480482 0.0322673 -2.31806e-19)
(-0.0471848 0.0346163 2.36475e-19)
(-0.0466479 0.0376849 1.01928e-19)
(-0.00351614 0.00881167 1.01579e-19)
(-0.0100176 0.0217973 -1.32902e-19)
(-0.0167573 0.0308102 1.87894e-19)
(-0.0231252 0.0367446 1.89142e-19)
(-0.0288675 0.040286 1.74355e-19)
(-0.0338879 0.0419836 3.5355e-19)
(-0.0381321 0.0422953 2.28625e-19)
(-0.0415796 0.0416 -4.91278e-19)
(-0.0442351 0.0402126 2.5125e-19)
(-0.0461194 0.0383995 1.97157e-19)
(-0.0472649 0.036391 -2.80002e-21)
(-0.0477146 0.0343918 2.207e-19)
(-0.0475223 0.0325879 1.72063e-19)
(-0.0467551 0.0311517 -9.3597e-20)
(-0.0454961 0.0302427 3.16275e-19)
(-0.0438525 0.030004 -3.92064e-19)
(-0.0419565 0.0305571 1.56931e-19)
(-0.0399087 0.0320134 2.01827e-19)
(-0.0377344 0.0344849 -4.70314e-20)
(-0.035939 0.037882 4.05222e-19)
(-0.00421256 0.00959167 2.04143e-19)
(-0.0116828 0.0236836 1.05833e-20)
(-0.0189957 0.0334254 -7.32658e-20)
(-0.0256212 0.0397975 -7.73854e-20)
(-0.031366 0.0435493 -3.5836e-19)
(-0.0361813 0.0452778 5.07479e-20)
(-0.0400515 0.0454765 1.43776e-19)
(-0.0429853 0.0445506 -6.9155e-20)
(-0.0450083 0.0428346 5.70448e-20)
(-0.0461548 0.0406102 -1.51256e-20)
(-0.0464648 0.0381215 -7.45139e-20)
(-0.0459841 0.0355878 7.07452e-20)
(-0.0447665 0.0332137 -3.07579e-19)
(-0.0428781 0.031196 2.94863e-19)
(-0.0404028 0.0297267 -2.55404e-19)
(-0.0374542 0.0289902 7.88949e-20)
(-0.0341798 0.0291572 1.79527e-19)
(-0.0307043 0.0303982 -3.73422e-20)
(-0.0270855 0.0328934 -1.2424e-19)
(-0.0239278 0.036574 -8.44223e-20)
(-0.00496219 0.0103002 -2.54294e-19)
(-0.0134594 0.0253739 -1.67246e-20)
(-0.02136 0.035747 5.35513e-20)
(-0.0282228 0.0424847 1.37674e-19)
(-0.0339219 0.0463981 -1.94367e-19)
(-0.0384624 0.0481279 -1.69608e-19)
(-0.0418724 0.048199 3.95877e-19)
(-0.0441946 0.0470379 -2.18751e-19)
(-0.0454793 0.0449927 -1.41109e-19)
(-0.0457776 0.0423537 -2.02472e-19)
(-0.0451394 0.0393715 1.34036e-19)
(-0.0436147 0.0362732 -3.62525e-21)
(-0.0412571 0.0332746 -2.50306e-19)
(-0.0381306 0.0305917 -4.09462e-19)
(-0.0343175 0.0284469 3.11948e-19)
(-0.0299353 0.0270685 -2.5275e-19)
(-0.0251453 0.0266867 3.58353e-19)
(-0.0200971 0.0275515 -1.0038e-19)
(-0.0148897 0.0299432 2.1104e-19)
(-0.0102624 0.0338421 -7.16065e-19)
(-0.00575691 0.0109316 -5.15025e-19)
(-0.0153194 0.0268519 3.37688e-19)
(-0.0237986 0.0377513 4.59251e-20)
(-0.0308515 0.0447793 8.88296e-21)
(-0.0364272 0.0488065 -2.08197e-19)
(-0.0405903 0.0505151 3.0616e-19)
(-0.0434179 0.0504576 3.3419e-20)
(-0.0449915 0.0490769 -6.27801e-20)
(-0.0453902 0.0467294 -2.01506e-19)
(-0.0446861 0.0437076 2.17819e-19)
(-0.0429424 0.0402611 5.52243e-19)
(-0.0402159 0.0366152 -1.22001e-19)
(-0.0365624 0.0329874 2.75682e-19)
(-0.0320435 0.029603 -3.25646e-19)
(-0.026739 0.0267063 -3.12247e-19)
(-0.0207671 0.0245663 1.87745e-19)
(-0.0143005 0.023478 3.10193e-19)
(-0.00751226 0.0237907 -1.00517e-18)
(-0.000547057 0.0259246 1.18024e-19)
(0.00567337 0.029951 1.6047e-19)
(-0.00658696 0.0114792 3.81377e-19)
(-0.0172294 0.0280989 1.25446e-19)
(-0.0262492 0.0394113 6.5346e-19)
(-0.0334124 0.04665 3.36235e-20)
(-0.0387493 0.050744 -7.26717e-20)
(-0.0423898 0.0524155 -3.46053e-19)
(-0.0444648 0.0522419 2.94287e-19)
(-0.0450986 0.0506795 5.27979e-19)
(-0.0444038 0.0480888 3.51766e-19)
(-0.0424777 0.0447592 2.53959e-19)
(-0.0394016 0.0409323 2.18937e-19)
(-0.0352444 0.0368224 -3.93153e-19)
(-0.030068 0.0326367 -1.23152e-19)
(-0.0239357 0.0285953 -9.07013e-20)
(-0.0169253 0.0249494 9.71952e-19)
(-0.00915515 0.0219953 -3.33395e-21)
(-0.000806702 0.020087 -2.42226e-19)
(0.00792812 0.0196853 -7.63999e-20)
(0.0168616 0.0213941 6.9517e-19)
(0.0248348 0.0254325 9.12465e-20)
(-0.00744075 0.0119352 -1.88093e-20)
(-0.0191499 0.0290938 -3.60761e-19)
(-0.0286391 0.0406964 -5.36681e-19)
(-0.0357932 0.0480601 -1.49329e-19)
(-0.0407308 0.0521729 8.24566e-20)
(-0.0436511 0.0537959 1.77567e-20)
(-0.0447426 0.0535306 4.70885e-19)
(-0.0441759 0.0518454 -5.84006e-19)
(-0.042101 0.0491029 -2.22142e-19)
(-0.0386448 0.0455871 -4.47688e-19)
(-0.0339126 0.0415268 -3.81315e-19)
(-0.0279921 0.0371183 -3.37644e-19)
(-0.0209595 0.0325471 8.44215e-20)
(-0.0128873 0.0280116 -1.09617e-19)
(-0.00385832 0.0237482 4.69676e-19)
(0.00600549 0.0200556 -2.57434e-19)
(0.0165133 0.0173231 -8.06957e-19)
(0.0274603 0.0161157 -1.62815e-19)
(0.0386322 0.0172581 3.9826e-19)
(0.0485784 0.0211827 -3.46858e-19)
(-0.00830494 0.0122913 -6.08484e-20)
(-0.0210357 0.0298137 4.41218e-19)
(-0.0308843 0.0415726 -5.62703e-19)
(-0.0378648 0.0489683 1.30065e-19)
(-0.0421894 0.0530478 -2.67895e-19)
(-0.0441301 0.0546122 5.96722e-19)
(-0.0439351 0.0542875 -4.26485e-19)
(-0.0418237 0.0525545 4.87941e-19)
(-0.0379852 0.0497794 -4.62642e-19)
(-0.0325803 0.0462415 1.97405e-19)
(-0.0257439 0.0421572 -9.58004e-20)
(-0.0175914 0.0377025 -2.40541e-19)
(-0.00822417 0.0330348 -2.97221e-19)
(0.00226215 0.0283172 2.96167e-19)
(0.0137656 0.0237482 -2.48036e-19)
(0.026148 0.0195938 -5.42327e-19)
(0.0391999 0.0162339 5.64601e-19)
(0.052706 0.0142981 -7.20266e-19)
(0.0664608 0.0148406 3.23977e-19)
(0.0786898 0.0185618 8.13175e-21)
(-0.00916461 0.0125395 -5.5166e-19)
(-0.0228354 0.0302356 -5.95619e-19)
(-0.0328899 0.0420048 6.86398e-20)
(-0.0394806 0.04933 -5.74364e-19)
(-0.0429183 0.0533182 -5.11128e-20)
(-0.0435497 0.0548116 -4.22496e-19)
(-0.0416834 0.0544617 -9.69253e-20)
(-0.0375873 0.0527648 -2.83275e-19)
(-0.0314909 0.0500942 2.51915e-21)
(-0.0235907 0.0467294 -1.23951e-19)
(-0.0140564 0.0428804 8.80274e-21)
(-0.00303928 0.0387083 -3.57199e-19)
(0.00932004 0.034345 3.93712e-19)
(0.0228842 0.029915 -5.58629e-19)
(0.0375088 0.0255636 1.9793e-19)
(0.0530137 0.0214908 7.51443e-21)
(0.0691459 0.0180073 -3.15233e-19)
(0.085666 0.0157253 7.81672e-19)
(0.102429 0.015878 -1.86695e-19)
(0.117368 0.019438 -1.20992e-19)
(-0.0100035 0.0126726 6.1924e-19)
(-0.0244918 0.0303381 3.34356e-19)
(-0.034549 0.0419599 3.11013e-19)
(-0.0404757 0.0491027 4.64303e-20)
(-0.0426851 0.0529343 4.20545e-19)
(-0.0415996 0.0543391 6.06167e-19)
(-0.0375873 0.0539963 4.96307e-19)
(-0.0309627 0.0524203 4.44238e-20)
(-0.0219946 0.0499971 3.63483e-19)
(-0.0109152 0.0470144 5.6165e-19)
(0.00206798 0.0436866 -1.45701e-19)
(0.0167603 0.0401728 2.44533e-19)
(0.0329688 0.0365941 1.97457e-19)
(0.0504933 0.033049 2.00889e-19)
(0.0691165 0.0296349 1.18859e-18)
(0.0885786 0.026472 -4.45514e-19)
(0.108536 0.0237489 -2.72136e-20)
(0.128677 0.0219438 5.16926e-19)
(0.148959 0.022335 -2.93145e-19)
(0.167184 0.0260797 1.44863e-19)
(-0.010804 0.0126851 -5.0075e-19)
(-0.0259405 0.0301032 3.20716e-20)
(-0.035741 0.0414101 -4.00823e-19)
(-0.0406638 0.0482515 -5.21727e-20)
(-0.0412286 0.051856 2.93412e-19)
(-0.0379336 0.0531509 -8.73496e-19)
(-0.0312043 0.0528438 -6.5026e-22)
(-0.0213994 0.0514703 4.06522e-19)
(-0.00882384 0.0494338 3.8196e-19)
(0.0062553 0.047039 -1.68168e-19)
(0.0235917 0.0445169 5.54593e-20)
(0.0429426 0.0420434 1.28631e-19)
(0.0640519 0.0397526 -6.09036e-20)
(0.0866361 0.0377488 -6.83321e-19)
(0.110372 0.0361165 1.72999e-19)
(0.13487 0.0349271 4.76316e-19)
(0.159626 0.0342448 -6.78774e-19)
(0.184151 0.034322 3.31075e-19)
(0.208493 0.0363145 8.89349e-20)
(0.230679 0.041379 4.50321e-19)
(-0.0115468 0.0125735 -7.39221e-20)
(-0.027109 0.029518 -3.50843e-19)
(-0.0363283 0.0403375 1.61447e-19)
(-0.0398329 0.0467567 7.50424e-22)
(-0.0382536 0.0500645 -7.03615e-19)
(-0.0321641 0.0512299 1.09803e-19)
(-0.022046 0.0509888 -2.08538e-20)
(-0.0082993 0.0498983 1.42051e-19)
(0.00873678 0.0483822 -6.50242e-19)
(0.0287617 0.0467673 -4.55953e-20)
(0.0514904 0.0453112 -1.52792e-19)
(0.0766303 0.0442227 1.35908e-19)
(0.103859 0.043677 4.58902e-19)
(0.132798 0.043828 -7.09459e-20)
(0.162995 0.0448171 2.74978e-20)
(0.193876 0.0467687 1.80767e-19)
(0.224661 0.0497541 -4.46422e-20)
(0.254465 0.0539385 3.65173e-19)
(0.28316 0.0604857 -2.11647e-19)
(0.309372 0.0702599 -3.35075e-19)
(-0.0122102 0.0123354 6.85772e-20)
(-0.027913 0.0285759 1.67368e-20)
(-0.0361521 0.0387372 1.40682e-19)
(-0.0377399 0.044621 3.44563e-19)
(-0.0334241 0.0475735 1.93355e-19)
(-0.0238561 0.0486037 2.01747e-20)
(-0.00957299 0.0484724 -2.30829e-19)
(0.00898283 0.0477557 5.9172e-20)
(0.0314363 0.0468955 3.1123e-19)
(0.0574511 0.0462387 -5.27409e-19)
(0.0867019 0.0460686 3.98003e-19)
(0.11885 0.046629 -2.99913e-19)
(0.153518 0.0481457 2.54571e-19)
(0.190269 0.0508484 -5.49177e-19)
(0.228574 0.0549954 6.04396e-19)
(0.267755 0.0608885 -6.4655e-19)
(0.306847 0.0688718 -1.68239e-19)
(0.34452 0.0795785 5.28724e-19)
(0.379604 0.0950261 -1.78366e-19)
(0.408848 0.11548 7.94618e-20)
(-0.012768 0.0119698 -5.18941e-20)
(-0.0282537 0.0272763 4.89743e-19)
(-0.0350272 0.0366204 -2.05213e-21)
(-0.0341044 0.0418751 -3.04029e-19)
(-0.0263582 0.0444397 -2.04465e-19)
(-0.0125224 0.0453588 3.7459e-19)
(0.00680475 0.0454133 -1.48369e-19)
(0.0311305 0.0451915 -1.86908e-20)
(0.060032 0.0451439 3.0924e-19)
(0.0931214 0.045625 -3.84171e-19)
(0.130017 0.0469252 4.21372e-20)
(0.170322 0.0492961 -4.99553e-19)
(0.213611 0.0529764 2.63137e-19)
(0.259426 0.0582193 -7.53114e-19)
(0.307285 0.065331 1.20024e-18)
(0.356696 0.0747211 -2.19875e-19)
(0.407187 0.0870189 2.29896e-19)
(0.4586 0.103618 -5.96795e-19)
(0.511402 0.12755 3.52447e-21)
(0.557555 0.154783 6.79666e-19)
(-0.0131878 0.0114755 -1.57202e-19)
(-0.0280135 0.025625 1.35814e-19)
(-0.0327378 0.0340154 -5.0021e-19)
(-0.028605 0.0385812 7.39854e-19)
(-0.0166258 0.0407682 -5.34153e-19)
(0.00237344 0.0416508 2.75718e-20)
(0.0277185 0.0420219 -5.76016e-19)
(0.0588451 0.0424716 4.1185e-19)
(0.0952521 0.0434449 -5.88356e-20)
(0.136461 0.0452822 -3.635e-19)
(0.181984 0.0482492 -2.12163e-19)
(0.231311 0.0525589 2.24173e-19)
(0.283901 0.0583903 1.48313e-19)
(0.3392 0.0659056 -6.56553e-19)
(0.396664 0.0752664 2.36974e-19)
(0.45581 0.0866459 -3.4988e-19)
(0.516276 0.100249 4.24108e-20)
(0.578047 0.116508 -2.97776e-19)
(0.641943 0.136591 1.22508e-19)
(0.700736 0.156632 -4.47458e-19)
(-0.0134282 0.0108508 4.47537e-19)
(-0.0270522 0.0236337 -2.71064e-19)
(-0.0290351 0.0309685 2.23355e-19)
(-0.0208799 0.0348349 -2.81982e-19)
(-0.00375384 0.0367149 4.72654e-19)
(0.0214044 0.0377046 -8.26339e-21)
(0.0538171 0.0385989 -5.75449e-20)
(0.0928083 0.0399761 -4.26692e-20)
(0.137746 0.0422566 2.62635e-19)
(0.187992 0.0457422 4.46623e-19)
(0.242879 0.0506414 -2.63824e-19)
(0.301691 0.0570887 2.56537e-19)
(0.363675 0.0651572 4.68734e-19)
(0.428064 0.0748688 -3.28658e-19)
(0.49411 0.0861993 -6.68069e-19)
(0.561134 0.0990742 1.22206e-18)
(0.628568 0.113352 -2.18174e-19)
(0.696042 0.128866 -7.0969e-20)
(0.763745 0.145932 7.65734e-19)
(0.826529 0.163719 -1.61773e-19)
(-0.0134377 0.0100937 -7.28566e-19)
(-0.0252056 0.0213208 -4.85008e-19)
(-0.0236376 0.0275447 -1.86185e-19)
(-0.0105325 0.0307642 3.59213e-19)
(0.012759 0.032483 -8.10977e-19)
(0.0451532 0.0338079 4.19998e-19)
(0.0857222 0.0355209 5.32314e-20)
(0.133616 0.0381697 5.38364e-20)
(0.187993 0.0421264 -5.50173e-19)
(0.247968 0.0476237 -1.94295e-19)
(0.312591 0.054779 -3.42549e-19)
(0.380848 0.0636118 3.3087e-19)
(0.451681 0.0740577 9.39712e-20)
(0.524029 0.085979 1.84182e-20)
(0.596875 0.0991715 4.31747e-19)
(0.669288 0.113366 -4.37225e-19)
(0.740465 0.12822 -1.81848e-20)
(0.809763 0.143332 1.10341e-20)
(0.876854 0.158541 5.98162e-20)
(0.9389 0.175427 3.40012e-19)
(-0.0131529 0.0092028 2.31969e-19)
(-0.0222853 0.0187136 5.97447e-19)
(-0.0162363 0.0238291 4.79446e-19)
(0.00285575 0.0265295 -1.65269e-19)
(0.0334179 0.0283195 5.7484e-19)
(0.0741703 0.0302994 -4.84336e-20)
(0.123965 0.0332175 -6.82254e-20)
(0.18169 0.0375637 4.06168e-20)
(0.24619 0.0436286 5.55756e-19)
(0.316225 0.0515377 3.26576e-19)
(0.390463 0.0612777 9.53734e-20)
(0.467506 0.0727182 5.85705e-21)
(0.54594 0.0856319 -6.33058e-19)
(0.624391 0.0997147 5.50073e-19)
(0.701592 0.114603 9.44244e-20)
(0.776429 0.12989 -1.55413e-19)
(0.847978 0.145128 -6.74707e-19)
(0.915527 0.159869 -5.71523e-20)
(0.978551 0.173648 2.66683e-19)
(1.03629 0.189601 -5.44245e-20)
(-0.0124991 0.00817924 -5.88603e-19)
(-0.0180823 0.0158511 2.46272e-19)
(-0.00650388 0.0199292 -1.2024e-18)
(0.0197068 0.0223235 4.92477e-19)
(0.0586992 0.0245098 -3.92757e-19)
(0.108923 0.0275568 2.89561e-19)
(0.168913 0.0321476 -4.49863e-19)
(0.237179 0.0386755 4.12959e-20)
(0.312133 0.0473042 -2.3195e-20)
(0.392067 0.0580054 1.21023e-19)
(0.475186 0.0705914 1.74807e-19)
(0.559666 0.0847485 -3.30383e-19)
(0.643741 0.100071 1.74963e-19)
(0.725791 0.116097 1.60739e-19)
(0.804409 0.132337 6.9473e-19)
(0.878456 0.148303 -3.01683e-19)
(0.947078 0.163526 -2.00662e-19)
(1.00972 0.177605 3.37541e-19)
(1.06599 0.189983 1.80293e-19)
(1.11649 0.204484 -3.3898e-19)
(-0.0113913 0.00702905 5.15562e-19)
(-0.0123716 0.0127893 4.97124e-19)
(0.00589315 0.0159793 1.43433e-19)
(0.0404224 0.0183723 6.04118e-19)
(0.0890122 0.021374 2.96794e-19)
(0.149739 0.0259841 -5.35048e-19)
(0.220696 0.0327747 8.10418e-19)
(0.299877 0.0419892 -3.98829e-19)
(0.385137 0.0536076 3.98168e-19)
(0.474211 0.0673936 5.15254e-19)
(0.5648 0.0829433 -2.94474e-19)
(0.654683 0.0997377 5.5935e-20)
(0.741837 0.117196 3.12011e-19)
(0.82454 0.134725 2.19886e-19)
(0.90144 0.151762 5.06668e-19)
(0.971582 0.167807 -2.02643e-19)
(1.0344 0.182441 -2.49155e-20)
(1.0897 0.195367 3.20002e-19)
(1.13747 0.206118 -6.87809e-20)
(1.17908 0.21856 3.09042e-22)
(-0.00973663 0.00576601 -2.66137e-19)
(-0.0049211 0.00960562 -9.78194e-19)
(0.021278 0.0121451 2.30361e-19)
(0.0653571 0.014937 -1.75372e-19)
(0.124658 0.0192619 -4.0485e-19)
(0.196753 0.0259971 -2.89077e-19)
(0.279141 0.0355412 -1.78594e-19)
(0.369162 0.0479189 4.33732e-19)
(0.464006 0.0628606 -2.57595e-19)
(0.560809 0.0798696 -2.63819e-19)
(0.656809 0.0982965 -3.33743e-19)
(0.749502 0.117417 -5.50902e-20)
(0.836793 0.136505 -3.73076e-20)
(0.917082 0.154893 -7.72174e-19)
(0.989304 0.172018 3.74483e-19)
(1.05291 0.187444 -4.92462e-19)
(1.10781 0.200869 1.54798e-19)
(1.15428 0.212145 -1.17844e-18)
(1.19281 0.221013 3.55185e-19)
(1.22513 0.230969 4.49522e-19)
(-0.00743746 0.00441438 -6.68316e-20)
(0.00449899 0.00640451 4.77198e-19)
(0.0399451 0.00862746 3.05953e-20)
(0.0947888 0.0123139 7.36213e-20)
(0.16579 0.0185463 -1.49682e-19)
(0.249857 0.0280073 -2.46738e-21)
(0.343734 0.040841 -3.84995e-21)
(0.443979 0.056773 -9.03406e-20)
(0.547065 0.0752179 3.20418e-19)
(0.64957 0.0953799 1.2389e-19)
(0.748401 0.116361 5.62555e-19)
(0.840989 0.137265 -1.53389e-19)
(0.925418 0.157286 1.07134e-19)
(1.00047 0.175763 -1.39435e-20)
(1.06559 0.192217 2.96799e-19)
(1.1208 0.206349 1.81675e-19)
(1.1666 0.218034 4.37961e-19)
(1.20376 0.22729 -7.07441e-19)
(1.23327 0.234107 8.90403e-19)
(1.25696 0.241437 -2.82132e-19)
(-0.00439511 0.00301107 -6.2199e-19)
(0.0161045 0.00332069 -1.94182e-19)
(0.0621401 0.00566429 1.51758e-19)
(0.128889 0.0108311 9.56818e-20)
(0.212375 0.0196117 9.80593e-20)
(0.308665 0.0324006 9.94093e-20)
(0.413598 0.0489907 -2.48812e-19)
(0.522871 0.0687248 -1.02897e-19)
(0.632268 0.0906485 3.19143e-20)
(0.737955 0.113657 -3.04868e-19)
(0.836748 0.13664 -1.37941e-19)
(0.926298 0.158603 8.3363e-19)
(1.00515 0.17875 -2.15054e-19)
(1.07271 0.196526 -2.96575e-19)
(1.12909 0.211614 -1.40829e-19)
(1.17497 0.223915 9.74936e-20)
(1.21141 0.233501 1.18995e-19)
(1.23967 0.240565 -5.70379e-19)
(1.26104 0.245316 8.25618e-19)
(1.27738 0.250145 -7.15637e-19)
(-0.000514054 0.00160706 -7.03852e-20)
(0.0300848 0.000520943 2.01621e-20)
(0.0880386 0.00352934 -2.57193e-20)
(0.167696 0.0108407 3.75746e-19)
(0.264167 0.0228374 2.0707e-20)
(0.372502 0.0395124 1.38003e-19)
(0.48752 0.060202 -2.86732e-19)
(0.604061 0.0837925 -1.04584e-20)
(0.717362 0.108938 3.98384e-19)
(0.823432 0.134258 5.55432e-20)
(0.919312 0.158509 -3.47165e-19)
(1.00318 0.180704 -3.05011e-20)
(1.07431 0.200166 -2.85359e-19)
(1.13288 0.216535 2.84109e-19)
(1.17976 0.22972 3.94749e-19)
(1.21624 0.239846 -4.35201e-20)
(1.24385 0.247182 -5.30747e-20)
(1.26417 0.252069 1.61799e-19)
(1.27869 0.254877 -5.20278e-19)
(1.28917 0.257506 4.58245e-19)
(0.00429354 0.000268051 7.06909e-20)
(0.0465893 -0.00179679 -4.56026e-19)
(0.117725 0.00252634 1.22043e-19)
(0.211087 0.0127056 -3.78602e-19)
(0.320686 0.0285765 1.30188e-19)
(0.440404 0.0496012 -4.83513e-19)
(0.564003 0.0745595 1.95046e-19)
(0.685582 0.101836 -6.20996e-20)
(0.80009 0.129716 -2.52309e-21)
(0.90372 0.156626 6.35694e-20)
(0.994089 0.181308 -2.31551e-19)
(1.07019 0.202903 -3.30654e-19)
(1.13219 0.220958 -6.78272e-20)
(1.1811 0.235374 -3.04504e-20)
(1.21849 0.246316 -7.72688e-20)
(1.24616 0.254127 -2.51793e-20)
(1.26596 0.259242 -7.5377e-20)
(1.27963 0.262107 -6.53642e-20)
(1.28869 0.26319 -1.94531e-19)
(1.29475 0.263993 3.08695e-19)
(0.010103 -0.000925859 1.70013e-19)
(0.0657141 -0.00340711 -1.88818e-19)
(0.151173 0.00297924 4.06376e-19)
(0.258763 0.016782 -1.75418e-19)
(0.38122 0.0371311 4.68846e-19)
(0.511165 0.0628259 6.68905e-21)
(0.64137 0.0920116 2.35495e-19)
(0.765438 0.122572 -6.30904e-20)
(0.878391 0.152503 2.63258e-19)
(0.976994 0.180166 1.90386e-20)
(1.05976 0.204426 6.26905e-19)
(1.12669 0.224673 -4.32759e-19)
(1.17891 0.240755 5.83085e-20)
(1.21822 0.252864 1.11286e-19)
(1.24675 0.261418 5.82995e-19)
(1.26664 0.266942 -2.0947e-19)
(1.27989 0.269991 -4.15329e-20)
(1.28822 0.271066 -2.20059e-19)
(1.29311 0.270681 -2.31881e-20)
(1.29597 0.270027 1.10124e-19)
(0.016972 -0.00188142 -8.16029e-20)
(0.0874895 -0.00406341 2.3573e-19)
(0.188234 0.00521857 -2.41369e-19)
(0.310242 0.023398 9.53268e-20)
(0.444844 0.0487293 -1.1399e-19)
(0.583395 0.07923 4.18395e-19)
(0.717879 0.112376 -5.82889e-20)
(0.841764 0.145611 1.43594e-19)
(0.950571 0.176773 -8.45638e-20)
(1.042 0.204316 -2.22867e-21)
(1.11571 0.227369 9.66165e-20)
(1.17278 0.245662 -7.48728e-20)
(1.21525 0.259384 1.94221e-19)
(1.24557 0.269019 -9.68251e-20)
(1.26623 0.275196 -4.26437e-19)
(1.27956 0.278577 4.24e-19)
(1.28754 0.279781 -1.91067e-19)
(1.29178 0.279324 1.52579e-19)
(1.2936 0.277724 2.64599e-19)
(1.29421 0.275932 1.0871e-19)
(0.0249357 -0.00249432 2.0306e-19)
(0.111869 -0.00350667 -4.18461e-19)
(0.228621 0.00956516 8.0064e-20)
(0.364865 0.0328323 -5.80901e-20)
(0.510457 0.0635068 -2.34339e-19)
(0.655611 0.098738 -1.83928e-19)
(0.791854 0.135358 -3.61596e-20)
(0.912969 0.170498 -3.27961e-19)
(1.0154 0.202009 -1.99855e-20)
(1.09809 0.228602 -6.09515e-20)
(1.16194 0.249785 -1.65477e-19)
(1.2091 0.265685 -3.67672e-20)
(1.24237 0.276837 -1.26677e-19)
(1.26465 0.283979 -2.11456e-19)
(1.27863 0.287901 2.16568e-19)
(1.28663 0.289344 2.98603e-20)
(1.29051 0.288944 5.95079e-20)
(1.29171 0.287197 -2.4955e-19)
(1.29133 0.284605 -6.23767e-21)
(1.2904 0.281928 -3.85091e-19)
(0.0340021 -0.00265228 2.22607e-19)
(0.138721 -0.0014761 1.48483e-19)
(0.271914 0.0163125 -2.39431e-19)
(0.421817 0.0452952 3.73893e-19)
(0.576844 0.0814955 -4.03164e-20)
(0.726332 0.121164 1.39685e-19)
(0.861796 0.160588 4.83684e-20)
(0.977819 0.196763 1.71379e-19)
(1.07214 0.227749 -1.34199e-19)
(1.14513 0.252659 4.47366e-20)
(1.19892 0.271462 -4.29418e-20)
(1.23662 0.284698 -1.88966e-20)
(1.26157 0.293215 3.59327e-20)
(1.27694 0.297952 -6.62178e-20)
(1.28544 0.2998 -2.03539e-20)
(1.28925 0.299529 -6.22812e-20)
(1.29004 0.297753 -1.01245e-19)
(1.28902 0.294925 6.53662e-20)
(1.28711 0.291521 -8.97078e-20)
(1.28514 0.288143 3.87647e-19)
(0.0441475 -0.0022388 -1.11158e-19)
(0.167826 0.00227883 -3.14921e-19)
(0.317564 0.0257097 -4.19265e-20)
(0.480158 0.0609128 -1.14193e-20)
(0.642742 0.102622 -1.41098e-19)
(0.79417 0.146231 -2.3169e-19)
(0.92647 0.187651 7.58488e-20)
(1.03548 0.223959 -1.04228e-19)
(1.12051 0.253611 -1.16809e-19)
(1.18339 0.276238 6.50842e-20)
(1.22743 0.292308 -4.91902e-20)
(1.25645 0.302752 -9.95574e-20)
(1.27415 0.308677 -3.37108e-21)
(1.28377 0.311161 6.74378e-20)
(1.2879 0.31114 -6.8822e-20)
(1.28851 0.309368 9.55024e-20)
(1.28701 0.306412 2.56891e-20)
(1.28442 0.302668 6.47549e-20)
(1.28148 0.298587 1.26247e-19)
(1.27882 0.294632 -1.08154e-19)
(0.0553146 -0.00113776 1.06175e-19)
(0.198874 0.0079858 -9.37528e-21)
(0.364911 0.0379453 4.76537e-20)
(0.538871 0.0797189 -6.46695e-20)
(0.70691 0.126715 5.32294e-21)
(0.857909 0.173596 2.24455e-19)
(0.984946 0.216122 -1.47453e-19)
(1.0855 0.251687 6.24766e-20)
(1.16058 0.279301 5.51005e-20)
(1.21346 0.29919 -1.54881e-19)
(1.24839 0.312314 1.45575e-19)
(1.26972 0.319949 1.29186e-21)
(1.2813 0.323397 -1.02631e-19)
(1.28626 0.323808 1.23718e-19)
(1.28699 0.322117 -4.91151e-20)
(1.28519 0.319032 3.75625e-20)
(1.28206 0.315052 -4.2008e-20)
(1.27839 0.310517 -1.68024e-20)
(1.27475 0.305855 -1.47158e-19)
(1.27165 0.301399 4.5078e-20)
(0.0674102 0.000761561 -3.57953e-20)
(0.231474 0.0158371 9.60767e-20)
(0.413205 0.0531357 1.49822e-20)
(0.596906 0.101652 6.28432e-20)
(0.768191 0.153519 2.99917e-20)
(0.916548 0.202873 1.40593e-20)
(1.0366 0.245592 7.97131e-20)
(1.12774 0.279607 -9.67211e-21)
(1.19272 0.304608 3.51623e-20)
(1.23606 0.321441 5.65068e-20)
(1.26277 0.331525 2.72766e-20)
(1.27747 0.336415 1.95872e-20)
(1.284 0.337537 7.94406e-20)
(1.28528 0.33606 -7.69027e-20)
(1.28343 0.332879 1.651e-20)
(1.27988 0.328632 -1.54679e-20)
(1.2756 0.323747 2.39276e-20)
(1.2712 0.318509 2.00516e-20)
(1.26712 0.31333 4.18892e-20)
(1.26374 0.308412 1.75981e-21)
(0.0803061 0.00355921 2.12207e-20)
(0.26516 0.0259784 1.9384e-20)
(0.46164 0.0713158 -2.68367e-20)
(0.653234 0.126558 1.67701e-20)
(0.825565 0.182711 9.47684e-21)
(0.969324 0.23366 -2.94816e-20)
(1.08111 0.275683 9.73091e-21)
(1.16234 0.307442 1.75543e-21)
(1.21744 0.329384 1.6788e-20)
(1.25198 0.342967 -4.50226e-20)
(1.27146 0.350008 -1.41034e-22)
(1.28061 0.352266 1.24848e-20)
(1.28307 0.351228 -9.94897e-21)
(1.28152 0.348037 1.00663e-20)
(1.27775 0.343515 2.62801e-20)
(1.27296 0.338225 -1.4957e-20)
(1.26789 0.332521 4.16163e-21)
(1.26303 0.326638 1.63946e-20)
(1.25869 0.32098 -2.70312e-20)
(1.25515 0.315618 1.29751e-20)
(0.0803353 -0.00355924 5.72013e-20)
(0.265235 -0.0259794 -3.1446e-20)
(0.461747 -0.0713174 3.71308e-20)
(0.65336 -0.126557 -2.76595e-20)
(0.825696 -0.182705 -1.25266e-20)
(0.96945 -0.233645 3.85475e-21)
(1.08122 -0.27566 -1.24114e-20)
(1.16244 -0.307408 4.48967e-20)
(1.21752 -0.329342 -3.76016e-20)
(1.25205 -0.342917 8.5998e-21)
(1.27152 -0.349951 -6.6352e-21)
(1.28065 -0.352205 -4.36661e-20)
(1.28311 -0.351164 4.25603e-20)
(1.28155 -0.347969 1.6525e-20)
(1.27778 -0.343446 -1.59321e-20)
(1.27298 -0.338155 3.83153e-20)
(1.26791 -0.33245 -4.4436e-22)
(1.26305 -0.326566 -3.74381e-20)
(1.25871 -0.320907 2.75123e-20)
(1.25517 -0.315544 9.18415e-21)
(0.067438 -0.000760623 -2.05006e-20)
(0.231547 -0.0158359 5.55533e-20)
(0.413312 -0.0531347 6.49869e-20)
(0.597035 -0.101649 -3.14465e-20)
(0.768328 -0.153512 5.43543e-20)
(0.916682 -0.202859 8.8278e-20)
(1.03673 -0.245569 -4.98381e-21)
(1.12785 -0.279574 -1.58947e-20)
(1.19281 -0.304566 7.86566e-20)
(1.23614 -0.321391 3.89142e-20)
(1.26283 -0.331468 -7.32285e-21)
(1.27752 -0.336352 5.93596e-20)
(1.28404 -0.33747 -6.38418e-20)
(1.28532 -0.335991 1.02159e-19)
(1.28346 -0.332807 -1.67136e-20)
(1.27991 -0.328558 5.09906e-20)
(1.27562 -0.323672 1.00142e-20)
(1.27122 -0.318433 3.65457e-20)
(1.26714 -0.313253 -3.43299e-20)
(1.26376 -0.308335 9.51293e-21)
(0.0553408 0.00113956 -3.04175e-20)
(0.198944 -0.00798241 6.65187e-20)
(0.365016 -0.0379417 4.9614e-20)
(0.539001 -0.079714 -7.92525e-21)
(0.707051 -0.126707 8.3085e-20)
(0.858052 -0.173581 -6.55796e-20)
(0.98508 -0.216099 -6.92494e-21)
(1.08562 -0.251655 5.92028e-20)
(1.16069 -0.27926 1.97407e-20)
(1.21355 -0.29914 2.75837e-20)
(1.24847 -0.312256 -4.06896e-20)
(1.26978 -0.319886 1.13569e-19)
(1.28135 -0.323328 2.21079e-20)
(1.2863 -0.323736 -1.00364e-19)
(1.28702 -0.322042 1.54582e-19)
(1.28522 -0.318955 -1.83149e-19)
(1.28208 -0.314973 -8.72262e-20)
(1.27841 -0.310437 1.48371e-20)
(1.27477 -0.305775 8.41833e-20)
(1.27166 -0.301317 -1.59473e-19)
(0.0441719 0.00224135 -6.38024e-20)
(0.167893 -0.00227349 -1.49847e-19)
(0.317667 -0.0257036 -1.32092e-19)
(0.480287 -0.0609057 -1.80624e-19)
(0.642887 -0.102612 -1.07417e-19)