/*--------------------------------*- C++ -*----------------------------------*\
  =========                 |
  \\      /  F ield         | OpenFOAM: The Open Source CFD Toolbox
   \\    /   O peration     | Website:  https://openfoam.org
    \\  /    A nd           | Version:  6.0
     \\/     M anipulation  |
\*---------------------------------------------------------------------------*/
FoamFile
{
    version     2.0;
    format      ascii;
    class       surfaceScalarField;
    location    "10.9";
    object      phi;
}
// * * * * * * * * * * * * * * * * * * * * * * * * * * * * * * * * * * * * * //

dimensions      [0 3 -1 0 0 0 0];

internalField   nonuniform List<scalar> 
15760
(
-4.01665e-06
4.12651e-06
-1.09861e-07
-1.40254e-05
1.02776e-05
-2.68856e-07
-2.85658e-05
1.49222e-05
-3.81767e-07
-4.6529e-05
1.84222e-05
-4.58941e-07
-6.70712e-05
2.10512e-05
-5.09035e-07
-8.95631e-05
2.30312e-05
-5.39329e-07
-0.000113552
2.45444e-05
-5.55769e-07
-0.00013873
2.57415e-05
-5.63072e-07
-0.000164914
2.67486e-05
-5.64858e-07
-0.000192022
2.76717e-05
-5.63803e-07
-0.00022006
2.85997e-05
-5.61799e-07
-0.000249106
2.96066e-05
-5.60103e-07
-0.000279299
3.07523e-05
-5.59477e-07
-0.000310822
3.20836e-05
-5.60318e-07
-0.000343894
3.36341e-05
-5.62747e-07
-0.000378752
3.54245e-05
-5.66675e-07
-0.000415642
3.74624e-05
-5.7185e-07
-0.000454804
3.97401e-05
-5.77908e-07
-0.00049646
4.22404e-05
-5.84402e-07
4.49609e-05
-5.90942e-07
-0.00054083
-3.9417e-06
8.06821e-06
-1.37756e-05
2.01115e-05
-2.80646e-05
2.92112e-05
-4.57098e-05
3.60674e-05
-6.58699e-05
4.12112e-05
-8.79127e-05
4.5074e-05
-0.000111379
4.80103e-05
-0.000135951
5.03142e-05
-0.000161435
5.22325e-05
-0.000187737
5.39733e-05
-0.000214849
5.57122e-05
-0.000242839
5.75967e-05
-0.000271834
5.97475e-05
-0.000302011
6.22602e-05
-0.000333582
6.52049e-05
-0.000366785
6.86271e-05
-0.000401868
7.25458e-05
-0.000439078
7.695e-05
-0.000478645
8.18079e-05
8.71157e-05
-0.0005208
-3.79838e-06
1.18666e-05
-1.32966e-05
2.96098e-05
-2.71014e-05
4.30159e-05
-4.4133e-05
5.3099e-05
-6.35543e-05
6.06326e-05
-8.4728e-05
6.62477e-05
-0.000107182
7.04639e-05
-0.000130581
7.37134e-05
-0.000154708
7.63596e-05
-0.000179445
7.87107e-05
-0.000204762
8.10284e-05
-0.000230699
8.35343e-05
-0.000257365
8.64131e-05
-0.000284918
8.98139e-05
-0.000313563
9.38498e-05
-0.000343535
9.85982e-05
-0.000375087
0.000104098
-0.00040848
0.000110343
-0.000443965
0.000117293
0.000124943
-0.000481792
-3.59734e-06
1.54639e-05
-1.26216e-05
3.8634e-05
-2.57396e-05
5.6134e-05
-4.18983e-05
6.92577e-05
-6.02673e-05
7.90016e-05
-8.02017e-05
8.61821e-05
-0.000101211
9.14736e-05
-0.000122936
9.54384e-05
-0.000145128
9.8551e-05
-0.000167632
0.000101215
-0.000190381
0.000103778
-0.000213382
0.000106535
-0.000236708
0.000109739
-0.000260493
0.000113599
-0.000284925
0.000118282
-0.000310233
0.000123907
-0.000336682
0.000130546
-0.000364552
0.000138213
-0.000394128
0.000146869
0.000156514
-0.000425699
-3.35312e-06
1.88171e-05
-1.17958e-05
4.70766e-05
-2.40662e-05
6.84045e-05
-3.91433e-05
8.43348e-05
-5.62053e-05
9.60636e-05
-7.45993e-05
0.000104576
-9.38141e-05
0.000110688
-0.000113459
0.000115083
-0.000133244
0.000118337
-0.000152973
0.000120944
-0.000172528
0.000123332
-0.000191867
0.000125873
-0.000211018
0.00012889
-0.000230079
0.00013266
-0.000249212
0.000137414
-0.000268636
0.000143331
-0.000288626
0.000150536
-0.000309493
0.00015908
-0.000331572
0.000168948
0.000180153
-0.000355212
-3.0827e-06
2.18998e-05
-1.08723e-05
5.48662e-05
-2.21828e-05
7.97151e-05
-3.60285e-05
9.81804e-05
-5.15985e-05
0.000111634
-6.82322e-05
0.00012121
-8.53969e-05
0.000127853
-0.000102667
0.000132353
-0.00011971
0.00013538
-0.000136274
0.000137508
-0.000152184
0.000139242
-0.000167336
0.000141025
-0.000181699
0.000143254
-0.000195321
0.000146282
-0.000208323
0.000150416
-0.000220909
0.000155917
-0.00023336
0.000162987
-0.000246026
0.000171746
-0.00025931
0.000182232
0.000194497
-0.000273653
-2.80366e-06
2.47034e-05
-9.90609e-06
6.19686e-05
-2.01951e-05
9.0004e-05
-3.2721e-05
0.000110706
-4.66859e-05
0.000125598
-6.14245e-05
0.000135948
-7.63839e-05
0.000142812
-9.1105e-05
0.000147074
-0.000105209
0.000149484
-0.000118387
0.000150686
-0.000130396
0.000151251
-0.000141061
0.00015169
-0.000150278
0.00015247
-0.000158022
0.000154026
-0.000164363
0.000156757
-0.000169469
0.000161024
-0.000173621
0.000167139
-0.00017721
0.000175335
-0.00018073
0.000185752
0.00019852
-0.000184753
-2.5324e-06
2.72358e-05
-8.94844e-06
6.83847e-05
-1.8201e-05
9.92566e-05
-2.93751e-05
0.00012188
-4.16881e-05
0.000137911
-5.44742e-05
0.000148735
-6.71655e-05
0.000155504
-7.92737e-05
0.000159183
-9.03768e-05
0.000160587
-0.000100109
0.000160418
-0.000108157
0.000159299
-0.000114264
0.000157797
-0.000118237
0.000156444
-0.000119964
0.000155754
-0.000119435
0.000156228
-0.000116763
0.000158352
-0.00011221
0.000162585
-0.000106202
0.000169328
-9.93389e-05
0.000178889
0.000191553
-9.23725e-05
-2.28238e-06
2.95182e-05
-8.04121e-06
7.41435e-05
-1.62801e-05
0.000107495
-2.61148e-05
0.000131715
-3.67801e-05
0.000148577
-4.76152e-05
0.00015957
-5.80451e-05
0.000165933
-6.75614e-05
0.000168699
-7.57068e-05
0.000168732
-8.20646e-05
0.000166776
-8.62539e-05
0.000163489
-8.79327e-05
0.000159475
-8.68097e-05
0.000155321
-8.26653e-05
0.000151609
-7.53823e-05
0.000148945
-6.4985e-05
0.000147954
-5.16841e-05
0.000149284
-3.5923e-05
0.000153566
-1.84128e-05
0.000161379
0.000173277
-1.36741e-07
-2.06279e-06
3.1581e-05
-7.21247e-06
7.92932e-05
-1.44842e-05
0.000114767
-2.30179e-05
0.000140249
-3.20666e-05
0.000157625
-4.09811e-05
0.000168484
-4.91888e-05
0.000174141
-5.61735e-05
0.000175683
-6.14563e-05
0.000174015
-6.45826e-05
0.000169903
-6.51141e-05
0.00016402
-6.26297e-05
0.000156991
-5.67362e-05
0.000149427
-4.70921e-05
0.000141965
-3.34466e-05
0.000135299
-1.5695e-05
0.000130203
6.04868e-06
0.00012754
3.13665e-05
0.000128249
5.94481e-05
0.000133298
0.000143695
8.90307e-05
-1.87772e-06
3.34587e-05
-6.47353e-06
8.3889e-05
-1.2831e-05
0.000121125
-2.01047e-05
0.000147523
-2.75648e-05
0.000165086
-3.45782e-05
0.000175498
-4.05852e-05
0.000180148
-4.5075e-05
0.000180173
-4.75647e-05
0.000176505
-4.75809e-05
0.000169919
-4.46477e-05
0.000161087
-3.82818e-05
0.000150625
-2.79986e-05
0.000139144
-1.33334e-05
0.0001273
6.11709e-06
0.000115849
3.06253e-05
0.000105695
6.0232e-05
9.79337e-05
9.46096e-05
9.38711e-05
0.000132893
9.50145e-05
0.00010308
0.000173508
-1.72597e-06
3.51847e-05
-5.81805e-06
8.79811e-05
-1.13021e-05
0.000126609
-1.7334e-05
0.000153554
-2.31959e-05
0.000170948
-2.82726e-05
0.000180574
-3.20236e-05
0.000183899
-3.39562e-05
0.000182106
-3.36004e-05
0.000176149
-3.04871e-05
0.000166805
-2.41298e-05
0.00015473
-1.4013e-05
0.000140508
4.11268e-07
0.00012472
1.9711e-05
0.000108
4.44385e-05
9.11213e-05
7.50578e-05
7.50752e-05
0.000111821
6.11705e-05
0.000154576
5.11164e-05
0.000202487
4.7103e-05
5.1886e-05
0.000253681
-1.60152e-06
3.67862e-05
-5.22326e-06
9.16028e-05
-9.84463e-06
0.00013123
-1.46053e-05
0.000158315
-1.87892e-05
0.000175131
-2.17937e-05
0.000183579
-2.3098e-05
0.000185203
-2.22331e-05
0.000181241
-1.87546e-05
0.00017267
-1.22183e-05
0.000160269
-2.15704e-06
0.000144668
1.19377e-05
0.000126413
3.06303e-05
0.000106027
5.45437e-05
8.4087e-05
8.43399e-05
6.13251e-05
0.000120661
3.87543e-05
0.000164
1.78318e-05
0.000214466
6.49918e-07
0.000271386
-9.81684e-06
-9.39291e-06
0.000332665
-1.49456e-06
3.82808e-05
-4.65296e-06
9.47612e-05
-8.37758e-06
0.000134955
-1.17696e-05
0.000161707
-1.40972e-05
0.000177459
-1.47571e-05
0.000184239
-1.32383e-05
0.000183685
-9.09043e-06
0.000177093
-1.89621e-06
0.000165476
8.75315e-06
0.00014962
2.32812e-05
0.00013014
4.21491e-05
0.000107546
6.58788e-05
8.22973e-05
9.50711e-05
5.48947e-05
0.000130413
2.59834e-05
0.000172648
-3.48104e-06
0.000222478
-3.19981e-05
0.000280323
-5.71949e-05
0.000345825
-7.53191e-05
-8.04322e-05
0.000416864
-1.39278e-06
3.96735e-05
-4.0617e-06
9.74301e-05
-6.79986e-06
0.000137693
-8.64294e-06
0.00016355
-8.81908e-06
0.000177635
-6.7012e-06
0.000182121
-1.76631e-06
0.00017875
6.43692e-06
0.00016889
1.83135e-05
0.0001536
3.42429e-05
0.00013369
5.45977e-05
0.000109786
7.97635e-05
8.23797e-05
0.000110163
5.18981e-05
0.000146283
1.87744e-05
0.000188708
-1.64416e-05
0.000238135
-5.29084e-05
0.000295338
-8.92013e-05
0.000360995
-0.000122851
0.000435189
-0.000149513
-0.000161341
0.000516098
-1.2827e-06
4.09562e-05
-3.39879e-06
9.95462e-05
-4.99906e-06
0.000139293
-5.02292e-06
0.000163574
-2.62765e-06
0.00017524
2.86965e-06
0.000176624
1.20373e-05
0.000169582
2.53615e-05
0.000155566
4.32672e-05
0.000135694
6.6132e-05
0.000110825
9.42943e-05
8.16234e-05
0.000128062
4.86123e-05
0.000167724
1.22361e-05
0.000213576
-2.70774e-05
0.000265958
-6.88243e-05
0.000325315
-0.000112266
0.000392239
-0.000156125
0.000467435
-0.000198047
0.000551402
-0.000233481
-0.000252933
0.000642994
-1.15044e-06
4.21067e-05
-2.61131e-06
0.000101007
-2.85798e-06
0.00013954
-7.00592e-07
0.000161417
4.80951e-06
0.00016973
1.44491e-05
0.000166984
2.88733e-05
0.000155158
4.86469e-05
0.000135792
7.42609e-05
0.00011008
0.000106136
7.89505e-05
0.000144617
4.31427e-05
0.000189962
3.26656e-06
0.000242337
-4.01391e-05
0.000301812
-8.65516e-05
0.000368382
-0.000135395
0.000442037
-0.00018592
0.000522858
-0.000236946
0.000611138
-0.000286326
0.000707393
-0.000329736
-0.000356969
0.000811429
-9.81989e-07
4.30887e-05
-1.64517e-06
0.00010167
-2.57508e-07
0.000138152
4.53337e-06
0.000156626
1.38184e-05
0.000160445
2.8508e-05
0.000152294
4.93871e-05
0.000134279
7.71458e-05
0.000108034
0.000112389
7.48362e-05
0.000155633
3.5707e-05
0.000207281
-8.50559e-06
0.000267599
-5.70513e-05
0.000336676
-0.000109216
0.000414388
-0.000164264
0.000500376
-0.000221383
0.00059406
-0.000279604
0.000694733
-0.00033762
0.000801744
-0.000393337
0.000914779
-0.000442772
-0.000476801
0.00103461
-7.62799e-07
4.38515e-05
-4.44427e-07
0.000101352
2.92423e-06
0.000134783
1.08894e-05
0.000148661
2.47184e-05
0.000146616
4.54917e-05
0.000131521
7.41616e-05
0.000105609
0.000111581
7.06145e-05
0.000158507
2.791e-05
0.000215589
-2.13756e-05
0.00028334
-7.62561e-05
0.00036209
-0.000135802
0.00045194
-0.000199065
0.000552689
-0.000265013
0.00066376
-0.000332454
0.000784114
-0.000399958
0.000912202
-0.000465708
0.00104599
-0.000527123
0.00118323
-0.000580011
-0.000618385
0.00132481
-4.76976e-07
4.43284e-05
1.05067e-06
9.98243e-05
6.81505e-06
0.000129019
1.85836e-05
0.000136892
3.78286e-05
0.000127371
6.58278e-05
0.000103522
0.000103724
6.77131e-05
0.000152547
2.17909e-05
0.000213217
-3.27599e-05
0.00028652
-9.46784e-05
0.00037308
-0.000162816
0.000473325
-0.000236047
0.000587452
-0.000313192
0.000715389
-0.00039295
0.000856754
-0.000473819
0.00101078
-0.000553988
0.00117617
-0.000631098
0.00135046
-0.000701409
0.00152749
-0.000757036
-0.000779231
0.00168833
-1.07342e-07
4.44358e-05
2.9041e-06
9.68128e-05
1.15501e-05
0.000120373
2.78404e-05
0.000120602
5.34716e-05
0.00010174
8.99311e-05
6.70622e-05
0.00013855
1.90942e-05
0.000200517
-4.01766e-05
0.000276868
-0.00010911
0.000368453
-0.000186264
0.000475915
-0.000270278
0.000599666
-0.000359798
0.000739897
-0.000453423
0.000896631
-0.000549684
0.00106986
-0.000647044
0.00125979
-0.000743922
0.0014674
-0.000838705
0.00169565
-0.00092966
0.00195358
-0.00101497
-0.00108815
0.00226249
3.67518e-07
4.40683e-05
5.1886e-06
9.19918e-05
1.72759e-05
0.000108286
3.88947e-05
9.89829e-05
7.19721e-05
6.86622e-05
0.000118196
2.08383e-05
0.000179053
-4.17628e-05
0.000255823
-0.000116946
0.000349544
-0.000202832
0.000460973
-0.000297693
0.000590547
-0.000399852
0.000738366
-0.000507617
0.000904212
-0.000619269
0.00108761
-0.000733085
0.00128796
-0.000847396
0.00150472
-0.000960677
0.00173769
-0.00107167
0.00198755
-0.00117953
0.00225638
-0.0012838
-0.00137617
0.00254441
9.68781e-07
4.30995e-05
7.97689e-06
8.49836e-05
2.41377e-05
9.21249e-05
5.1973e-05
7.11476e-05
9.36291e-05
2.70061e-05
0.000150958
-3.64905e-05
0.000225528
-0.000116333
0.000318589
-0.000210007
0.000431012
-0.000315254
0.000563226
-0.000429908
0.000715179
-0.000551805
0.000886323
-0.000678761
0.00107565
-0.000808592
0.00128174
-0.000939182
0.00150292
-0.00106857
0.00173733
-0.00119508
0.00198305
-0.00131739
0.00223819
-0.00143467
0.00250083
-0.00154644
-0.00164478
0.00276944
1.71894e-06
4.13805e-05
1.13416e-05
7.53609e-05
3.22731e-05
7.11935e-05
6.72768e-05
3.61439e-05
0.000118682
-2.43989e-05
0.000188432
-0.00010624
0.000278056
-0.000205957
0.000388597
-0.000320548
0.000520525
-0.000447182
0.000673665
-0.000583048
0.00084717
-0.000725311
0.00103954
-0.000871129
0.00124869
-0.00101774
0.00147207
-0.00116256
0.00170681
-0.00130331
0.00194984
-0.00143812
0.00219803
-0.00156558
0.00244817
-0.00168481
0.0026971
-0.00179538
-0.00189127
0.00294359
2.6394e-06
3.87411e-05
1.53482e-05
6.26521e-05
4.17971e-05
4.47447e-05
8.49537e-05
-7.01279e-06
0.000147261
-8.67059e-05
0.000230635
-0.000189615
0.00033639
-0.000311712
0.000465125
-0.000449283
0.000616626
-0.000598683
0.000789814
-0.000756237
0.000982764
-0.00091826
0.00119279
-0.00108116
0.00141663
-0.00124157
0.00165059
-0.00139652
0.00189082
-0.00154354
0.00213346
-0.00168076
0.00237481
-0.00180693
0.0026114
-0.00192139
0.00284009
-0.00202407
-0.00211114
0.00305996
3.74886e-06
3.49923e-05
2.00483e-05
4.63527e-05
5.27867e-05
1.20063e-05
0.000105069
-5.92948e-05
0.000179339
-0.000160976
0.000277314
-0.00028759
0.000399855
-0.000434253
0.00054683
-0.000596258
0.000717034
-0.000768886
0.000908198
-0.0009474
0.00111711
-0.00112717
0.00133982
-0.00130387
0.00157194
-0.00147369
0.0018089
-0.00163348
0.00204627
-0.00178092
0.00227997
-0.00191447
0.00250645
-0.0020334
0.00272272
-0.00213766
0.00292649
-0.00222784
-0.00230212
0.00311746
5.06184e-06
2.99304e-05
2.54741e-05
2.59404e-05
6.52677e-05
-2.77873e-05
0.000127579
-0.000121606
0.00021469
-0.000248087
0.00032789
-0.00040079
0.000467293
-0.000573656
0.000631716
-0.000760681
0.000818667
-0.000955837
0.00102448
-0.00115321
0.00124459
-0.00134728
0.00147388
-0.00153317
0.00170712
-0.00170693
0.00193931
-0.00186567
0.002166
-0.00200761
0.0023835
-0.00213197
0.002589
-0.0022389
0.00278054
-0.00232921
0.002957
-0.0024043
-0.00246403
0.00311891
6.58756e-06
2.33429e-05
3.16338e-05
8.94125e-07
7.92033e-05
-7.53568e-05
0.000152313
-0.000194716
0.000252866
-0.00034864
0.000381431
-0.000529355
0.00053705
-0.000729275
0.000717177
-0.000940808
0.000917809
-0.00115647
0.00113381
-0.00136921
0.00135937
-0.00157284
0.00158855
-0.00176234
0.00181573
-0.00193411
0.00203605
-0.00208599
0.00224564
-0.00221719
0.00244171
-0.00232805
0.00262261
-0.00241979
0.00278763
-0.00249423
0.00293691
-0.00255358
-0.00259893
0.00307181
8.32905e-06
1.50138e-05
3.85073e-05
-2.92841e-05
9.4485e-05
-0.000131335
0.000178959
-0.000279189
0.000293176
-0.000462858
0.000436657
-0.000672835
0.000607036
-0.000899655
0.000800155
-0.00113393
0.0010104
-0.00136672
0.0012313
-0.00159011
0.00145612
-0.00179767
0.00167859
-0.0019848
0.0018933
-0.00214882
0.0020961
-0.00228879
0.00228416
-0.00240526
0.00245598
-0.00249987
0.00261116
-0.00257497
0.00275025
-0.00263331
0.0028744
-0.00267773
-0.00271018
0.00298565
1.02823e-05
4.73149e-06
4.60432e-05
-6.5045e-05
0.000110928
-0.000196219
0.000207057
-0.000375318
0.0003347
-0.000590502
0.00049198
-0.000830115
0.000674839
-0.00108251
0.000877368
-0.00133646
0.00109245
-0.0015818
0.00131257
-0.00181022
0.00153062
-0.00201572
0.00174056
-0.00219475
0.0019378
-0.00234606
0.00211934
-0.00247033
0.0022837
-0.00256962
0.0024307
-0.00264687
0.00256116
-0.00270543
0.00267657
-0.00274873
0.00277882
-0.00277998
-0.00280162
0.00287026
1.24355e-05
-7.70398e-06
5.41565e-05
-0.000106766
0.000128265
-0.000270327
0.000236004
-0.000483057
0.000376313
-0.00073081
0.000545589
-0.000999392
0.000737893
-0.00127482
0.000945608
-0.00154417
0.0011604
-0.00179659
0.00137424
-0.00202406
0.00158023
-0.00222171
0.00177316
-0.00238768
0.00194969
-0.00252259
0.00210823
-0.00262887
0.00224869
-0.00271008
0.0023721
-0.00277028
0.00248019
-0.00281352
0.00257508
-0.00284362
0.002659
-0.00286389
-0.00287697
0.00273434
1.47679e-05
-2.24719e-05
6.27268e-05
-0.000154725
0.000146153
-0.000353754
0.00026507
-0.000601974
0.000416733
-0.000882473
0.000595562
-0.00117822
0.000793694
-0.00147295
0.00100204
-0.00175252
0.00121153
-0.00200608
0.00141423
-0.00222676
0.00160406
-0.00241154
0.00177707
-0.0025607
0.00193143
-0.00267694
0.00206698
-0.00276442
0.00218486
-0.00282797
0.00228702
-0.00287243
0.00237575
-0.00290226
0.00245346
-0.00292133
0.0025224
-0.00293284
-0.00293937
0.00258481
1.72495e-05
-3.97214e-05
7.15985e-05
-0.000209074
0.000164176
-0.000446332
0.000293425
-0.000731224
0.000454602
-0.00104365
0.000640012
-0.00136363
0.000840014
-0.00167295
0.00104447
-0.00195697
0.00124418
-0.0022058
0.00143191
-0.00241448
0.00160284
-0.00258247
0.0017546
-0.00271246
0.00188683
-0.00280917
0.00200068
-0.00287827
0.00209821
-0.0029255
0.00218193
-0.00295614
0.00225439
-0.00297472
0.00231798
-0.00298492
0.00237482
-0.00298968
-0.00299133
0.00242678
1.98407e-05
-5.95621e-05
8.05832e-05
-0.000269817
0.00018186
-0.000547608
0.000320181
-0.000869545
0.000488569
-0.00121204
0.000677235
-0.0015523
0.000875093
-0.00187081
0.00107152
-0.0021534
0.0012578
-0.00239207
0.0014279
-0.00258458
0.00157859
-0.00273316
0.00170908
-0.00284294
0.00182035
-0.00292045
0.00191455
-0.00297247
0.00199433
-0.00300528
0.00206243
-0.00302425
0.00212141
-0.0030337
0.00217347
-0.00303698
0.00222043
-0.00303664
-0.00303472
0.00226382
2.24924e-05
-8.20544e-05
8.9465e-05
-0.000336789
0.000198693
-0.000656837
0.000344443
-0.00101529
0.000517389
-0.00138498
0.000705846
-0.00174075
0.000897769
-0.00206273
0.00108267
-0.0023383
0.00125287
-0.00256227
0.00140389
-0.0027356
0.00153415
-0.00286343
0.00164432
-0.00295311
0.00173647
-0.0030126
0.00181338
-0.00304938
0.00187799
-0.00306989
0.00193303
-0.00307929
0.00198086
-0.00308153
0.0020234
-0.00307952
0.00206215
-0.00307539
-0.00307087
0.00209829
2.51473e-05
-0.000107202
9.80083e-05
-0.00040965
0.000214154
-0.000772982
0.000365369
-0.00116651
0.000540014
-0.00155963
0.000724874
-0.00192561
0.000907526
-0.00224539
0.00107821
-0.00250899
0.00123069
-0.00271476
0.00136221
-0.00286711
0.00147275
-0.00297397
0.00156417
-0.00304453
0.00163931
-0.00308773
0.00170128
-0.00311135
0.00175304
-0.00312165
0.00179715
-0.00312339
0.00183566
-0.00312004
0.00187018
-0.00311404
0.0019019
-0.00310711
-0.00310067
0.0019317
2.7742e-05
-0.000134944
0.000105969
-0.000487877
0.000227736
-0.000894749
0.000382221
-0.001321
0.000555662
-0.00173307
0.000733808
-0.00210376
0.000904466
-0.00241604
0.00105909
-0.00266361
0.00119314
-0.00284881
0.00130553
-0.00297951
0.00139762
-0.00306606
0.00147216
-0.00311907
0.00153241
-0.00314799
0.00158158
-0.00316052
0.00162245
-0.00316252
0.00165731
-0.00315824
0.00168787
-0.00315061
0.00171544
-0.00314161
0.00174093
-0.0031326
-0.00312473
0.00176499
3.02087e-05
-0.000165152
0.000113104
-0.000570772
0.000238983
-0.00102063
0.000394415
-0.00147643
0.000563858
-0.00190251
0.000732592
-0.00227249
0.000889211
-0.00257266
0.00102673
-0.00280113
0.00114237
-0.00296445
0.00123659
-0.00307372
0.00131181
-0.00314128
0.00137136
-0.00317862
0.00141869
-0.00319531
0.00145687
-0.0031987
0.00148843
-0.00319408
0.0015153
-0.00318511
0.0015389
-0.00317421
0.00156025
-0.00316295
0.00158004
-0.00315239
-0.00314343
0.00159874
3.24788e-05
-0.000197631
0.000119189
-0.000657483
0.000247513
-0.00114895
0.00040155
-0.00163046
0.000564437
-0.0020654
0.000721568
-0.00242963
0.000862777
-0.00271387
0.000982827
-0.00292118
0.00108064
-0.00306227
0.00115796
-0.00315104
0.00121798
-0.0032013
0.00126434
-0.00322499
0.00130044
-0.00323141
0.00132911
-0.00322737
0.00135256
-0.00321752
0.00137237
-0.00320493
0.0013897
-0.00319153
0.00140531
-0.00317857
0.00141974
-0.00316682
-0.003157
0.00143331
3.44859e-05
-0.000232117
0.000124024
-0.000747021
0.000253034
-0.00127796
0.00040342
-0.00178085
0.000557526
-0.0022195
0.0007014
-0.0025735
0.000826435
-0.00283891
0.000929191
-0.00302393
0.00101011
-0.00314319
0.00107194
-0.00321287
0.00111838
-0.00324774
0.00115314
-0.00325974
0.00117942
-0.00325769
0.00119975
-0.0032477
0.00121597
-0.00323375
0.00122939
-0.00321835
0.0012409
-0.00320304
0.00125109
-0.00318876
0.00126036
-0.00317609
-0.00316557
0.00126893
3.61724e-05
-0.00026829
0.000127455
-0.000838303
0.000255372
-0.00140588
0.000400023
-0.0019255
0.000543513
-0.00236299
0.000672991
-0.00270298
0.0007816
-0.00294751
0.000867619
-0.00310995
0.000932776
-0.00320834
0.000980555
-0.00326065
0.00101489
-0.00328208
0.00103939
-0.00328425
0.00105698
-0.00327528
0.00106983
-0.00326055
0.00107948
-0.00324339
0.00108695
-0.00322582
0.00109294
-0.00320903
0.00109791
-0.00319372
0.00110214
-0.00318032
-0.00316922
0.00110579
3.7478e-05
-0.000305767
0.000129347
-0.000930172
0.000254431
-0.00153096
0.00039149
-0.00206256
0.000522926
-0.00249443
0.000637332
-0.00281738
0.000729658
-0.00303984
0.000799745
-0.00318004
0.000850348
-0.00325895
0.00088542
-0.00329572
0.000908938
-0.0033056
0.000924288
-0.0032996
0.000934059
-0.00328505
0.000940089
-0.00326658
0.000943613
-0.00324692
0.000945443
-0.00322765
0.000946109
-0.0032097
0.000945962
-0.00319358
0.000945217
-0.00317958
-0.00316798
0.000943984
3.8362e-05
-0.000344129
0.000129635
-0.00102145
0.000250245
-0.00165157
0.000378131
-0.00219045
0.000496466
-0.00261276
0.000595514
-0.00291643
0.000671991
-0.00311632
0.000727087
-0.00323513
0.000764326
-0.00329619
0.000787905
-0.0033193
0.000801689
-0.00331938
0.00080877
-0.00330668
0.000811388
-0.00328767
0.000811064
-0.00326625
0.00080878
-0.00324463
0.000805165
-0.00322404
0.000800627
-0.00320516
0.000795432
-0.00318838
0.000789748
-0.00317389
-0.00316189
0.000783652
3.87917e-05
-0.000382921
0.000128292
-0.00111095
0.000242928
-0.00176621
0.000360347
-0.00230787
0.00046489
-0.00271731
0.000548605
-0.00300015
0.000609858
-0.00317757
0.000650956
-0.00327623
0.000675946
-0.00332118
0.000689088
-0.00333244
0.00069403
-0.00332432
0.000693528
-0.00330617
0.000689487
-0.00328363
0.000683141
-0.00325991
0.000675262
-0.00323675
0.000666329
-0.0032151
0.000656657
-0.00319549
0.000646452
-0.00317818
0.000635846
-0.00316329
-0.00315094
0.000624896
3.87463e-05
-0.000421667
0.000125338
-0.00119754
0.000232671
-0.00187354
0.000338615
-0.00241381
0.000428978
-0.00280767
0.000497622
-0.00306879
0.000544388
-0.00322434
0.000572464
-0.00330431
0.000586214
-0.00333493
0.000589815
-0.00333604
0.000586629
-0.00332114
0.000579071
-0.00329862
0.00056873
-0.00327329
0.000556596
-0.00324777
0.000543262
-0.00322342
0.000529093
-0.00320093
0.000514329
-0.00318072
0.000499134
-0.00316298
0.000483615
-0.00314777
-0.00313514
0.000467817
3.82171e-05
-0.000459884
0.000120829
-0.00128015
0.00021972
-0.00197243
0.000313447
-0.00250754
0.0003895
-0.00288372
0.000443498
-0.00312279
0.000476565
-0.0032574
0.000492546
-0.00332029
0.00049594
-0.00333832
0.000490742
-0.00333084
0.000479993
-0.00331039
0.000465773
-0.00328439
0.000449393
-0.00325691
0.00043163
-0.00323001
0.000412935
-0.00320472
0.00039358
-0.00318158
0.00037375
-0.00316089
0.000353576
-0.00314281
0.000333149
-0.00312734
-0.0031145
0.000312511
3.72067e-05
-0.000497091
0.000114855
-0.0013578
0.00020436
-0.00206194
0.000285371
-0.00258855
0.000347184
-0.00294554
0.000387072
-0.00316268
0.000407233
-0.00327757
0.000411965
-0.00332502
0.000405766
-0.00333212
0.000392375
-0.00331745
0.0003745
-0.00329252
0.000353911
-0.00326381
0.000331672
-0.00323467
0.00030839
-0.00320673
0.000284396
-0.00318073
0.000259889
-0.00315707
0.000235008
-0.00313601
0.000209862
-0.00311766
0.000184532
-0.00310201
-0.00308903
0.000159063
3.57283e-05
-0.000532819
0.000107534
-0.0014296
0.000186899
-0.0021413
0.000254905
-0.00265655
0.000302703
-0.00299334
0.00032908
-0.00318905
0.000337103
-0.00328559
0.000331348
-0.00331927
0.000316199
-0.00331697
0.000295101
-0.00329635
0.000270434
-0.00326785
0.000243687
-0.00323706
0.000215718
-0.0032067
0.000186987
-0.003178
0.000157735
-0.00315148
0.000128098
-0.00312744
9.81779e-05
-0.00310609
6.80649e-05
-0.00308755
3.78396e-05
-0.00307179
-0.00305875
7.55151e-06
3.38042e-05
-0.000566624
9.89995e-05
-0.0014948
0.000167653
-0.00220996
0.000222543
-0.00271144
0.000256669
-0.00302746
0.000270162
-0.00320255
0.00026677
-0.0032822
0.000251197
-0.00330369
0.000227638
-0.00329341
0.000199219
-0.00326793
0.00016801
-0.00323664
0.000135254
-0.0032043
0.000101638
-0.00317309
6.75063e-05
-0.00314387
3.30223e-05
-0.00311699
-1.72932e-06
-0.00309268
-3.66803e-05
-0.00307114
-7.1754e-05
-0.00305248
-0.000106867
-0.00303667
-0.00302365
-0.000141958
3.14645e-05
-0.000598088
8.94e-05
-0.00155273
0.000146939
-0.0022675
0.00018875
-0.00275326
0.000209623
-0.00304833
0.000210867
-0.00320379
0.000196727
-0.00326806
0.000171923
-0.00327889
0.000140398
-0.00326189
0.00010496
-0.0032325
6.73939e-05
-0.00319907
2.87313e-05
-0.00316564
-1.04822e-05
-0.00313387
-4.99908e-05
-0.00310436
-8.96932e-05
-0.00307729
-0.00012955
-0.00305283
-0.000169525
-0.00303116
-0.000209554
-0.00301245
-0.000249545
-0.00299668
-0.00298378
-0.00028942
2.87453e-05
-0.000626833
7.88899e-05
-0.00160288
0.000125062
-0.00231367
0.000153952
-0.00278215
0.000162048
-0.00305643
0.000151662
-0.00319341
0.000127388
-0.00324378
9.3859e-05
-0.00324536
5.47363e-05
-0.00322276
1.25154e-05
-0.00319027
-3.12768e-05
-0.00315528
-7.57854e-05
-0.00312113
-0.000120575
-0.00308908
-0.000165457
-0.00305948
-0.000210379
-0.00303237
-0.000255341
-0.00300787
-0.000300341
-0.00298616
-0.000345327
-0.00296746
-0.000390196
-0.00295181
-0.00293913
-0.000434842
2.5688e-05
-0.000652521
6.76261e-05
-0.00164482
0.000102313
-0.00234835
0.000118535
-0.00279837
0.000114365
-0.00305226
9.29499e-05
-0.00317199
5.90973e-05
-0.00320993
1.72832e-05
-0.00320355
-2.91326e-05
-0.00317635
-7.79533e-05
-0.00314145
-0.000127881
-0.00310535
-0.000178207
-0.00307081
-0.000228579
-0.00303871
-0.000278855
-0.0030092
-0.000329015
-0.00298221
-0.000379099
-0.00295778
-0.000429141
-0.00293612
-0.000479109
-0.00291749
-0.000528883
-0.00290204
-0.0028897
-0.000578319
2.23372e-05
-0.000674859
5.57648e-05
-0.00167824
7.89659e-05
-0.00237155
8.28503e-05
-0.00280225
6.69438e-05
-0.00303635
3.50737e-05
-0.00314012
-7.85048e-06
-0.00316701
-5.75643e-05
-0.00315383
-0.000111017
-0.0031229
-0.000166293
-0.00308618
-0.000222296
-0.00304935
-0.000278438
-0.00301466
-0.000334425
-0.00298272
-0.000390142
-0.00295348
-0.000445588
-0.00292676
-0.000500836
-0.00290253
-0.000555961
-0.002881
-0.000610965
-0.00286249
-0.000665714
-0.00284729
-0.00283541
-0.000720006
1.87404e-05
-0.000693599
4.34581e-05
-0.00170296
5.52761e-05
-0.00238337
4.72121e-05
-0.00279419
2.01091e-05
-0.00300925
-2.16666e-05
-0.00309834
-7.31969e-05
-0.00311547
-0.000130467
-0.00309656
-0.000190735
-0.00306263
-0.000252346
-0.00302457
-0.000314384
-0.00298731
-0.000376361
-0.00295269
-0.000438024
-0.00292106
-0.000499263
-0.00289224
-0.000560077
-0.00286595
-0.000620558
-0.00284205
-0.000680832
-0.00282072
-0.000740951
-0.00280237
-0.000800777
-0.00278746
-0.00277617
-0.00086001
1.4946e-05
-0.000708545
3.08527e-05
-0.00171887
3.14782e-05
-0.002384
1.19025e-05
-0.00277461
-2.58523e-05
-0.0029715
-7.70067e-05
-0.00304719
-0.000136709
-0.00305577
-0.00020122
-0.00303205
-0.000268098
-0.00299575
-0.000335934
-0.00295673
-0.000403974
-0.00291927
-0.000471818
-0.00288484
-0.000539242
-0.00285364
-0.000606125
-0.00282536
-0.000672441
-0.00279963
-0.000738275
-0.00277622
-0.000803796
-0.0027552
-0.000869121
-0.00273704
-0.000934126
-0.00272246
-0.00271193
-0.000998368
1.10032e-05
-0.000719548
1.80881e-05
-0.00172595
7.78739e-06
-0.0023737
-2.28266e-05
-0.002744
-7.06866e-05
-0.00292364
-0.000130711
-0.00298717
-0.000198172
-0.00298831
-0.00026962
-0.00296061
-0.000342905
-0.00292246
-0.000416847
-0.00288279
-0.000490843
-0.00284528
-0.000564581
-0.00281111
-0.000637866
-0.00278035
-0.00071056
-0.00275267
-0.000782589
-0.0027276
-0.000853992
-0.00270481
-0.000924947
-0.00268425
-0.00099565
-0.00266634
-0.00106601
-0.0026521
-0.00264247
-0.00113547
6.96052e-06
-0.000726509
5.29472e-06
-0.00172429
-1.56015e-05
-0.0023528
-5.67514e-05
-0.00270285
-0.00011417
-0.00286622
-0.000182566
-0.00291877
-0.000257383
-0.00291349
-0.000335462
-0.00288253
-0.000414936
-0.00284299
-0.000494836
-0.00280289
-0.000574708
-0.0027654
-0.000654333
-0.00273148
-0.000733566
-0.00270112
-0.000812266
-0.00267397
-0.000890304
-0.00264957
-0.000967644
-0.00262747
-0.00104444
-0.00260745
-0.00112097
-0.00258981
-0.00119723
-0.00257584
-0.00256684
-0.00127286
2.86508e-06
-0.000729374
-7.40679e-06
-0.00171402
-3.85141e-05
-0.00232169
-8.96753e-05
-0.00265169
-0.000156105
-0.00279979
-0.000232383
-0.00284249
-0.00031415
-0.00283173
-0.000398541
-0.00279813
-0.000483951
-0.00275758
-0.000569613
-0.00271723
-0.00065522
-0.0026798
-0.000740664
-0.00264604
-0.000825883
-0.0026159
-0.000910777
-0.00258907
-0.000995199
-0.00256514
-0.00107904
-0.00254364
-0.0011624
-0.00252409
-0.00124567
-0.00250653
-0.00132909
-0.00249243
-0.00248269
-0.00141324
-1.23868e-06
-0.000728135
-1.99078e-05
-0.00169535
-6.07984e-05
-0.0022808
-0.00012143
-0.00259106
-0.000196325
-0.00272489
-0.000279994
-0.00275882
-0.000368296
-0.00274342
-0.000458647
-0.00270778
-0.000549688
-0.00266654
-0.000640836
-0.00262608
-0.000731933
-0.0025887
-0.000823006
-0.00255496
-0.000914133
-0.00252477
-0.00100535
-0.00249786
-0.0010966
-0.00247389
-0.00118778
-0.00245246
-0.00127889
-0.00243298
-0.00137031
-0.00241512
-0.0014626
-0.00240013
-0.00238677
-0.00155852
-5.30993e-06
-0.000722825
-3.21129e-05
-0.00166854
-8.23257e-05
-0.00223059
-0.000151879
-0.0025215
-0.000234694
-0.00264208
-0.000325265
-0.00266825
-0.000419673
-0.00264902
-0.000515594
-0.00261186
-0.000611885
-0.00257025
-0.000708123
-0.00252984
-0.000804274
-0.00249255
-0.000900504
-0.00245873
-0.000997072
-0.00242821
-0.00109428
-0.00240065
-0.0011924
-0.00237577
-0.00129165
-0.00235321
-0.00139214
-0.00233249
-0.00149445
-0.00231281
-0.00160088
-0.0022937
-0.00228682
-0.00170083
-9.30006e-06
-0.000713525
-4.39217e-05
-0.00163392
-0.000102969
-0.00217154
-0.000180892
-0.00244358
-0.000271096
-0.00255187
-0.000368088
-0.00257126
-0.000468169