1.45 	0 	0 	-0.290665
2.35 	0 	0 	0.014742
