/*--------------------------------*- C++ -*----------------------------------*\
  =========                 |
  \\      /  F ield         | OpenFOAM: The Open Source CFD Toolbox
   \\    /   O peration     | Website:  https://openfoam.org
    \\  /    A nd           | Version:  6.0
     \\/     M anipulation  |
\*---------------------------------------------------------------------------*/
FoamFile
{
    version     2.0;
    format      ascii;
    class       volScalarField;
    location    "14";
    object      p;
}
// * * * * * * * * * * * * * * * * * * * * * * * * * * * * * * * * * * * * * //

dimensions      [0 2 -2 0 0 0 0];

internalField   nonuniform List<scalar> 
4000
(
-0.493255
-0.479121
-0.466472
-0.452357
-0.43557
-0.416657
-0.396508
-0.376013
-0.355921
-0.336755
-0.318806
-0.302194
-0.286919
-0.272915
-0.260081
-0.248306
-0.237486
-0.227491
-0.218121
-0.209676
-0.501079
-0.486515
-0.473012
-0.457377
-0.43856
-0.41743
-0.395156
-0.372799
-0.351168
-0.330772
-0.311859
-0.294493
-0.278626
-0.264152
-0.250942
-0.238864
-0.227797
-0.217593
-0.208036
-0.199504
-0.506972
-0.492078
-0.477665
-0.460382
-0.43944
-0.416078
-0.391748
-0.367656
-0.344639
-0.323172
-0.303443
-0.285457
-0.269117
-0.25428
-0.240789
-0.228495
-0.217263
-0.206924
-0.197251
-0.188705
-0.510562
-0.495435
-0.480064
-0.461035
-0.437925
-0.412379
-0.386119
-0.360461
-0.336241
-0.313878
-0.293493
-0.275029
-0.258341
-0.243252
-0.229581
-0.217163
-0.20585
-0.195452
-0.185738
-0.177254
-0.511493
-0.496229
-0.47986
-0.459027
-0.433766
-0.406146
-0.378133
-0.351115
-0.325897
-0.302828
-0.281955
-0.263159
-0.246253
-0.231028
-0.217282
-0.204835
-0.19353
-0.183155
-0.173477
-0.165131
-0.509432
-0.494126
-0.476739
-0.454089
-0.426756
-0.397231
-0.367685
-0.33954
-0.313546
-0.28997
-0.268781
-0.249807
-0.232817
-0.217576
-0.203864
-0.191489
-0.180282
-0.170015
-0.160455
-0.152325
-0.504083
-0.488828
-0.470425
-0.445998
-0.416731
-0.385521
-0.354698
-0.325681
-0.299144
-0.275265
-0.25394
-0.234942
-0.218006
-0.202872
-0.189306
-0.177107
-0.166094
-0.156022
-0.146665
-0.13883
-0.495196
-0.480082
-0.460693
-0.434581
-0.403576
-0.370945
-0.339127
-0.309507
-0.282666
-0.258691
-0.23741
-0.218545
-0.201803
-0.186904
-0.1736
-0.161682
-0.150962
-0.141176
-0.13211
-0.124649
-0.48257
-0.467688
-0.447377
-0.419723
-0.387224
-0.353467
-0.320956
-0.291008
-0.264105
-0.240242
-0.219184
-0.200611
-0.184205
-0.169668
-0.156743
-0.145217
-0.13489
-0.125486
-0.116801
-0.109793
-0.466064
-0.451506
-0.430366
-0.401362
-0.367652
-0.333091
-0.300198
-0.2702
-0.243474
-0.219928
-0.199269
-0.181146
-0.165215
-0.15117
-0.138745
-0.127721
-0.117894
-0.108971
-0.100764
-0.0942879
-0.445601
-0.431459
-0.409615
-0.379493
-0.344889
-0.309859
-0.276897
-0.247123
-0.220805
-0.197775
-0.177689
-0.160168
-0.144852
-0.131426
-0.119621
-0.109214
-0.0999928
-0.0916565
-0.0840306
-0.0781754
-0.421167
-0.407533
-0.385142
-0.354169
-0.319005
-0.283848
-0.251126
-0.221839
-0.196153
-0.173828
-0.15448
-0.137707
-0.12314
-0.110459
-0.0993916
-0.0897144
-0.0812097
-0.0735702
-0.0666382
-0.0614994
-0.392812
-0.379783
-0.357023
-0.325491
-0.290115
-0.25517
-0.222985
-0.194437
-0.169592
-0.148149
-0.129692
-0.113806
-0.100115
-0.0882971
-0.0780815
-0.0692448
-0.061566
-0.0547382
-0.0486194
-0.0442836
-0.360653
-0.348325
-0.325397
-0.293616
-0.258377
-0.223972
-0.192606
-0.16503
-0.141218
-0.120819
-0.103393
-0.0885171
-0.0758163
-0.0649711
-0.0557143
-0.0478245
-0.0410817
-0.0351858
-0.0299981
-0.0265188
-0.324868
-0.313337
-0.290457
-0.258744
-0.223984
-0.190432
-0.160148
-0.133756
-0.11115
-0.0919382
-0.075665
-0.0619058
-0.0502922
-0.0405127
-0.0323082
-0.0254641
-0.0197672
-0.0149273
-0.0107844
-0.00820491
-0.285694
-0.275055
-0.252445
-0.221119
-0.18717
-0.154763
-0.1258
-0.100783
-0.0795347
-0.0616311
-0.0466103
-0.0340527
-0.023601
-0.0149579
-0.0078794
-0.0021635
0.00239055
0.00605594
0.00901555
0.010526
-0.243418
-0.233764
-0.211653
-0.181025
-0.148199
-0.117205
-0.0897775
-0.0663025
-0.0465405
-0.0300446
-0.0163529
-0.00505671
0.00418387
0.011644
0.0175445
0.0220712
0.025408
0.0277722
0.0292812
0.0292715
-0.198378
-0.189797
-0.168411
-0.13878
-0.107366
-0.0780275
-0.0523258
-0.0305357
-0.0123649
0.00264931
0.0149646
0.0249736
0.0329922
0.0392625
0.0439709
0.0472816
0.0493376
0.0501787
0.0496901
0.0475872
-0.150949
-0.143524
-0.123081
-0.0947282
-0.0649925
-0.0375273
-0.0137171
0.00626609
0.0227611
0.0362437
0.047167
0.0559102
0.0627658
0.0679414
0.0715857
0.0738317
0.0747066
0.0738497
0.0707892
0.0665471
-0.101542
-0.0953481
-0.0760541
-0.0492401
-0.0214214
0.00397852
0.0257514
0.0438205
0.0585659
0.0704753
0.0800027
0.0875251
0.093332
0.0976296
0.10058
0.102332
0.102789
0.101091
0.0965349
0.0919452
-0.0505938
-0.0456952
-0.0277412
-0.00270032
0.0229906
0.0461579
0.0657658
0.081824
0.0947464
0.10503
0.113129
0.119424
0.12422
0.127761
0.130293
0.132094
0.133136
0.13243
0.129715
0.133331
0.00145081
0.00499612
0.0214371
0.0444975
0.0678793
0.0886724
0.106007
0.119969
0.130998
0.139593
0.146201
0.151199
0.154887
0.157523
0.159369
0.160689
0.161471
0.161237
0.160893
0.166671
0.0541272
0.0562736
0.0710512
0.0919553
0.112879
0.131184
0.146158
0.157954
0.16703
0.17388
0.178942
0.182582
0.185096
0.186738
0.18776
0.188384
0.18859
0.188084
0.18778
0.192437
0.106969
0.107683
0.120673
0.139278
0.157629
0.173362
0.185912
0.19549
0.202564
0.207618
0.211075
0.213284
0.214529
0.215051
0.215081
0.214817
0.214254
0.213168
0.21231
0.215458
0.159511
0.158773
0.169877
0.186078
0.201776
0.214884
0.224974
0.232306
0.237349
0.240576
0.24239
0.243119
0.243029
0.242341
0.241263
0.239961
0.238418
0.236438
0.234711
0.236453
0.211295
0.209101
0.218251
0.231977
0.24498
0.255442
0.263064
0.268144
0.271152
0.27254
0.272693
0.271915
0.270454
0.268509
0.266264
0.263861
0.261267
0.258305
0.255635
0.25603
0.261877
0.258235
0.265391
0.276611
0.286912
0.294741
0.299916
0.302766
0.303755
0.303319
0.301816
0.299531
0.296689
0.29347
0.290037
0.286506
0.282835
0.278876
0.275257
0.27438
0.310825
0.305758
0.310913
0.319631
0.327261
0.332501
0.335277
0.335944
0.334959
0.332733
0.329605
0.325836
0.321631
0.317154
0.312544
0.3079
0.303172
0.298241
0.293699
0.291613
0.357726
0.351273
0.354449
0.360707
0.365729
0.368457
0.368911
0.367468
0.364572
0.360615
0.355913
0.350706
0.345179
0.339479
0.333728
0.328006
0.322265
0.316407
0.310982
0.30775
0.402189
0.394405
0.395653
0.399525
0.402038
0.402358
0.400593
0.397134
0.392415
0.386806
0.3806
0.374019
0.36723
0.360362
0.353523
0.346778
0.340081
0.333354
0.327091
0.322777
0.443848
0.4348
0.434198
0.435794
0.435926
0.43397
0.430112
0.424755
0.418319
0.411154
0.403532
0.395658
0.38768
0.379715
0.371855
0.364152
0.356565
0.349032
0.341985
0.336658
0.48236
0.472131
0.469784
0.469243
0.467151
0.463077
0.457274
0.450155
0.442125
0.433516
0.424582
0.415508
0.40643
0.397449
0.388644
0.380058
0.371654
0.363383
0.355611
0.349343
0.517414
0.506098
0.502136
0.499623
0.495489
0.489476
0.481897
0.473169
0.463685
0.453759
0.443627
0.43346
0.423379
0.413473
0.403809
0.394423
0.385281
0.376344
0.36791
0.360782
0.548725
0.53643
0.531004
0.526712
0.520741
0.512989
0.503817
0.493648
0.482863
0.47176
0.460557
0.449412
0.438435
0.427703
0.417274
0.407174
0.397377
0.387849
0.378821
0.370921
0.576042
0.562886
0.556168
0.550309
0.542727
0.533451
0.522888
0.511461
0.499539
0.487406
0.475269
0.463271
0.451512
0.44006
0.428963
0.418243
0.407878
0.397837
0.388289
0.379711
0.599146
0.585258
0.577436
0.570242
0.561291
0.550724
0.538981
0.526488
0.513604
0.500601
0.487673
0.474953
0.462533
0.450473
0.438812
0.427569
0.416725
0.406252
0.396263
0.387107
0.617853
0.603369
0.594647
0.586365
0.576302
0.564687
0.551988
0.538632
0.524968
0.51126
0.497691
0.484387
0.471432
0.458879
0.446763
0.435096
0.423866
0.413044
0.402697
0.393071
0.632014
0.617077
0.607669
0.598561
0.587653
0.575244
0.561821
0.54781
0.533557
0.519315
0.505261
0.491514
0.478155
0.46523
0.452768
0.440782
0.42926
0.418175
0.407554
0.397572
0.641517
0.626274
0.616404
0.60674
0.595265
0.582323
0.568413
0.553963
0.539314
0.524713
0.510334
0.496291
0.482659
0.469484
0.456792
0.444591
0.432874
0.421612
0.410808
0.400585
0.646286
0.63089
0.620787
0.610844
0.599084
0.585873
0.57172
0.557049
0.542201
0.52742
0.512877
0.498686
0.484918
0.471618
0.458809
0.446501
0.434685
0.423335
0.412438
0.402095
0.646283
0.630887
0.620785
0.610841
0.599081
0.585871
0.571718
0.557047
0.542199
0.527418
0.512875
0.498684
0.484916
0.471616
0.458807
0.446499
0.434684
0.423333
0.412437
0.402094
0.641509
0.626266
0.616397
0.606733
0.595258
0.582316
0.568407
0.553957
0.539308
0.524707
0.510328
0.496286
0.482654
0.46948
0.456787
0.444586
0.432869
0.421607
0.410803
0.400581
0.632001
0.617063
0.607656
0.598549
0.587642
0.575234
0.561811
0.5478
0.533547
0.519305
0.505251
0.491506
0.478146
0.465221
0.45276
0.440774
0.429252
0.418167
0.407547
0.397565
0.617834
0.60335
0.594629
0.586348
0.576286
0.564672
0.551974
0.538617
0.524955
0.511247
0.497678
0.484375
0.47142
0.458868
0.446751
0.435085
0.423855
0.413034
0.402686
0.393061
0.599122
0.585234
0.577413
0.57022
0.56127
0.550704
0.538962
0.52647
0.513587
0.500584
0.487656
0.474937
0.462517
0.450458
0.438797
0.427554
0.41671
0.406238
0.396249
0.387094
0.576012
0.562857
0.55614
0.550282
0.542701
0.533427
0.522865
0.511438
0.499517
0.487386
0.475249
0.463251
0.451493
0.440042
0.428945
0.418226
0.407861
0.39782
0.388273
0.379694
0.548689
0.536395
0.530971
0.52668
0.520711
0.51296
0.50379
0.493622
0.482838
0.471735
0.460533
0.449389
0.438412
0.427681
0.417252
0.407153
0.397357
0.387829
0.378801
0.370902
0.517373
0.506058
0.502097
0.499586
0.495454
0.489443
0.481865
0.473138
0.463655
0.453731
0.4436
0.433433
0.423353
0.413448
0.403785
0.394399
0.385257
0.376321
0.367887
0.36076
0.482313
0.472085
0.46974
0.4692
0.46711
0.463038
0.457238
0.45012
0.442091
0.433484
0.42455
0.415477
0.4064
0.39742
0.388616
0.380031
0.371627
0.363357
0.355585
0.349318
0.443795
0.434748
0.434147
0.435746
0.435881
0.433927
0.430071
0.424716
0.418281
0.411117
0.403497
0.395623
0.387647
0.379683
0.371823
0.364121
0.356535
0.349002
0.341956
0.33663
0.40213
0.394347
0.395597
0.399472
0.401988
0.40231
0.400547
0.39709
0.392373
0.386765
0.380561
0.373981
0.367193
0.360326
0.353488
0.346744
0.340047
0.33332
0.327058
0.322746
0.357661
0.351209
0.354388
0.360648
0.365674
0.368404
0.368861
0.367419
0.364525
0.36057
0.355869
0.350664
0.345138
0.339439
0.333689
0.327968
0.322228
0.316371
0.310946
0.307715
0.310753
0.305687
0.310846
0.319567
0.3272
0.332443
0.335222
0.335892
0.334908
0.332684
0.329557
0.32579
0.321587
0.31711
0.312502
0.307858
0.303132
0.298201
0.29366
0.291575
0.261799
0.258158
0.265317
0.276541
0.286846
0.294678
0.299855
0.302708
0.3037
0.303266
0.301764
0.299481
0.29664
0.293423
0.289991
0.286461
0.282791
0.278832
0.275214
0.274339
0.211211
0.209018
0.218171
0.231901
0.244908
0.255373
0.262999
0.268081
0.271092
0.272483
0.272637
0.271861
0.270401
0.268457
0.266214
0.263813
0.261219
0.258259
0.255589
0.255985
0.159419
0.158684
0.169791
0.185996
0.201698
0.21481
0.224904
0.232238
0.237285
0.240514
0.242329
0.24306
0.242972
0.242286
0.241209
0.239908
0.238367
0.236387
0.234662
0.236405
0.106871
0.107586
0.12058
0.13919
0.157545
0.173282
0.185836
0.195418
0.202494
0.207551
0.21101
0.213221
0.214468
0.214991
0.215023
0.214761
0.214199
0.213113
0.212257
0.215406
0.0540224
0.0561702
0.0709518
0.0918608
0.11279
0.131099
0.146077
0.157877
0.166955
0.173808
0.178873
0.182514
0.18503
0.186675
0.187698
0.188323
0.188531
0.188025
0.187723
0.192382
0.00133918
0.004886
0.021331
0.0443967
0.0677839
0.0885818
0.10592
0.119886
0.130919
0.139516
0.146127
0.151127
0.154817
0.157455
0.159303
0.160624
0.161407
0.161175
0.160831
0.166612
-0.0507123
-0.0458121
-0.0278539
-0.0028074
0.0228891
0.0460616
0.065674
0.0817361
0.0946619
0.104948
0.11305
0.119348
0.124146
0.127688
0.130222
0.132025
0.133069
0.132363
0.129649
0.133267
-0.101668
-0.0954719
-0.0761734
-0.0493535
-0.0215289
0.00387644
0.0256541
0.0437274
0.0584763
0.0703889
0.0799191
0.0874439
0.093253
0.0975525
0.100504
0.102259
0.102716
0.10102
0.0964636
0.0918742
-0.151081
-0.143655
-0.123207
-0.094848
-0.065106
-0.0376352
-0.0138199
0.00616764
0.0226664
0.0361523
0.0470786
0.0558243
0.0626822
0.0678597
0.0715058
0.0737533
0.0746293
0.0737734
0.0707134
0.0664714
-0.198517
-0.189934
-0.168543
-0.138906
-0.107485
-0.0781411
-0.0524341
-0.0306394
-0.0124646
0.0025531
0.0148714
0.0248831
0.0329041
0.0391765
0.0438866
0.0471989
0.0492562
0.0500984
0.0496107
0.0475081
-0.243563
-0.233908
-0.211792
-0.181158
-0.148324
-0.117324
-0.0898912
-0.0664114
-0.0466452
-0.0301457
-0.0164507
-0.00515176
0.00409131
0.0115536
0.017456
0.0219844
0.0253227
0.0276883
0.0291984
0.0291893
-0.285846
-0.275205
-0.25259
-0.221258
-0.187301
-0.154887
-0.125919
-0.100897
-0.0796444
-0.0617369
-0.0467128
-0.0341522
-0.0236979
-0.0150525
-0.00797192
-0.0022542
0.00230147
0.00596834
0.0089293
0.0104407
-0.325027
-0.313493
-0.290608
-0.258888
-0.224121
-0.190562
-0.160273
-0.133875
-0.111265
-0.0920487
-0.075772
-0.0620097
-0.0503933
-0.0406114
-0.0324047
-0.0255586
-0.0198599
-0.0150185
-0.0108741
-0.0082935
-0.360817
-0.348487
-0.325554
-0.293766
-0.258519
-0.224107
-0.192736
-0.165154
-0.141337
-0.120934
-0.103505
-0.0886252
-0.0759215
-0.0650738
-0.0558146
-0.0479227
-0.0411781
-0.0352805
-0.0300912
-0.0266106
-0.392982
-0.379951
-0.357186
-0.325647
-0.290263
-0.255311
-0.22312
-0.194566
-0.169715
-0.148268
-0.129808
-0.113918
-0.100224
-0.0884037
-0.0781857
-0.0693468
-0.061666
-0.0548363
-0.0487158
-0.0443787
-0.421341
-0.407706
-0.38531
-0.354329
-0.319158
-0.283994
-0.251265
-0.221972
-0.196281
-0.173952
-0.1546
-0.137823
-0.123254
-0.11057
-0.0994995
-0.08982
-0.0813132
-0.0736717
-0.0667379
-0.0615977
-0.445781
-0.431636
-0.409788
-0.379659
-0.345047
-0.31001
-0.277041
-0.247261
-0.220938
-0.197903
-0.177813
-0.160288
-0.144969
-0.13154
-0.119732
-0.109323
-0.1001
-0.0917614
-0.0841336
-0.0782769
-0.466248
-0.451688
-0.430543
-0.401532
-0.367815
-0.333246
-0.300346
-0.270343
-0.24361
-0.22006
-0.199397
-0.18127
-0.165336
-0.151288
-0.13886
-0.127834
-0.118004
-0.109079
-0.10087
-0.0943926
-0.482757
-0.467873
-0.447558
-0.419897
-0.38739
-0.353626
-0.321108
-0.291154
-0.264246
-0.240378
-0.219315
-0.200739
-0.184329
-0.169789
-0.156862
-0.145333
-0.135004
-0.125598
-0.116911
-0.109901
-0.495386
-0.48027
-0.460878
-0.434759
-0.403747
-0.371108
-0.339283
-0.309657
-0.282811
-0.258831
-0.237545
-0.218677
-0.201931
-0.187029
-0.173722
-0.161801
-0.151079
-0.141291
-0.132223
-0.12476
-0.504276
-0.489019
-0.470612
-0.446179
-0.416905
-0.385688
-0.354858
-0.325834
-0.299292
-0.275408
-0.254079
-0.235077
-0.218137
-0.203001
-0.189432
-0.177229
-0.166215
-0.156141
-0.146781
-0.138945
-0.509627
-0.494319
-0.476928
-0.454273
-0.426933
-0.397401
-0.367848
-0.339696
-0.313697
-0.290116
-0.268923
-0.249945
-0.232952
-0.217708
-0.203992
-0.191615
-0.180406
-0.170137
-0.160574
-0.152443
-0.511689
-0.496424
-0.480051
-0.459213
-0.433945
-0.406319
-0.378299
-0.351274
-0.326051
-0.302978
-0.2821
-0.2633
-0.246391
-0.231163
-0.217414
-0.204965
-0.193657
-0.18328
-0.1736
-0.165252
-0.510759
-0.49563
-0.480256
-0.461222
-0.438106
-0.412554
-0.386287
-0.360623
-0.336398
-0.314031
-0.293641
-0.275173
-0.258482
-0.24339
-0.229716
-0.217295
-0.20598
-0.19558
-0.185864
-0.177378
-0.507169
-0.492273
-0.477857
-0.46057
-0.439623
-0.416255
-0.391919
-0.36782
-0.344798
-0.323326
-0.303593
-0.285604
-0.269261
-0.254421
-0.240927
-0.228631
-0.217397
-0.207055
-0.19738
-0.188833
-0.501275
-0.48671
-0.473204
-0.457565
-0.438744
-0.417608
-0.395328
-0.372965
-0.351329
-0.330929
-0.312012
-0.294642
-0.278772
-0.264295
-0.251083
-0.239002
-0.227934
-0.217727
-0.208168
-0.199635
-0.493451
-0.479314
-0.466663
-0.452545
-0.435753
-0.416836
-0.396681
-0.376181
-0.356085
-0.336914
-0.318961
-0.302346
-0.287068
-0.273061
-0.260224
-0.248448
-0.237626
-0.227629
-0.218256
-0.20981
0.0741968
0.0456441
0.0247265
0.0148987
0.00614949
-0.0057654
-0.0191815
-0.032135
-0.0443134
-0.0561389
-0.0678615
-0.0794541
-0.09082
-0.101915
-0.112743
-0.123329
-0.133694
-0.143863
-0.153867
-0.163747
0.01756
0.00370582
-0.00835117
-0.0157402
-0.0213184
-0.0277961
-0.0353258
-0.0429002
-0.0499374
-0.0564926
-0.0627912
-0.0689302
-0.0748854
-0.0806105
-0.0860863
-0.0913159
-0.096306
-0.101059
-0.105571
-0.109838
0.00449251
-0.00153105
-0.00678885
-0.0113211
-0.0155121
-0.0198047
-0.0243366
-0.0289541
-0.0334828
-0.0378826
-0.042206
-0.0465041
-0.0507906
-0.0550583
-0.0593009
-0.0635206
-0.0677249
-0.0719216
-0.0761177
-0.0803199
-0.00279176
-0.00647937
-0.00995828
-0.0135079
-0.017097
-0.020656
-0.0241798
-0.0276775
-0.0311388
-0.0345488
-0.0379044
-0.0412114
-0.0444745
-0.0476939
-0.0508681
-0.0539963
-0.0570792
-0.0601185
-0.0631159
-0.066073
-0.00817967
-0.0111408
-0.0137178
-0.0161919
-0.0187196
-0.021274
-0.0237964
-0.0262713
-0.0287095
-0.0311214
-0.0335098
-0.0358754
-0.0382197
-0.0405453
-0.042855
-0.0451514
-0.0474369
-0.049714
-0.0519855
-0.0542538
-0.0120893
-0.0144553
-0.0163464
-0.0180768
-0.0198703
-0.0217343
-0.0236038
-0.0254456
-0.0272635
-0.02907
-0.0308711
-0.0326666
-0.0344555
-0.0362374
-0.0380132
-0.0397836
-0.0415494
-0.0433111
-0.0450691
-0.0468241
-0.0142829
-0.0160934
-0.0174513
-0.0186925
-0.0200151
-0.021415
-0.0228291
-0.0242254
-0.0256064
-0.026983
-0.0283606
-0.029739
-0.0311167
-0.0324928
-0.0338677
-0.0352416
-0.0366152
-0.0379888
-0.0393625
-0.040737
-0.0150871
-0.0164963
-0.0175504
-0.0185131
-0.0195415
-0.0206369
-0.0217506
-0.0228555
-0.0239511
-0.0250453
-0.0261425
-0.0272427
-0.0283446
-0.0294471
-0.03055
-0.0316535
-0.0327577
-0.0338625
-0.034968
-0.0360743
-0.0151838
-0.0162121
-0.0170598
-0.0178771
-0.0187357
-0.0196304
-0.0205355
-0.0214369
-0.0223341
-0.0232307
-0.0241291
-0.0250292
-0.0259304
-0.0268319
-0.0277336
-0.0286355
-0.0295376
-0.0304399
-0.0313425
-0.0322453
-0.0151625
-0.0158725
-0.0165529
-0.017268
-0.018011
-0.0187614
-0.0195094
-0.0202543
-0.0209981
-0.0217421
-0.0224865
-0.0232311
-0.0239755
-0.0247197
-0.0254636
-0.0262072
-0.0269507
-0.027694
-0.0284371
-0.0291803
-0.0152035
-0.015704
-0.016249
-0.0168561
-0.0174835
-0.0181048
-0.0187172
-0.0193262
-0.0199356
-0.0205459
-0.0211565
-0.0217669
-0.022377
-0.022987
-0.0235971
-0.0242072
-0.0248175
-0.025428
-0.0260388
-0.02665
-0.0152534
-0.015614
-0.0160421
-0.0165356
-0.0170452
-0.0175455
-0.0180365
-0.0185252
-0.0190156
-0.0195081
-0.0200018
-0.0204962
-0.0209915
-0.0214878
-0.0219853
-0.022484
-0.0229839
-0.0234852
-0.0239878
-0.0244917
-0.015219
-0.0154466
-0.0157525
-0.016133
-0.0165331
-0.0169244
-0.0173071
-0.0176893
-0.0180755
-0.0184658
-0.0188596
-0.0192561
-0.0196553
-0.0200575
-0.0204627
-0.0208709
-0.021282
-0.0216961
-0.0221129
-0.0225324
-0.0149383
-0.0150033
-0.0151619
-0.0154303
-0.0157361
-0.0160366
-0.0163283
-0.0166211
-0.0169213
-0.0172298
-0.0175451
-0.0178663
-0.0181929
-0.018525
-0.0188625
-0.0192051
-0.0195527
-0.0199049
-0.0202615
-0.0206221
-0.0139949
-0.0138532
-0.013855
-0.0140401
-0.0142937
-0.0145436
-0.0147809
-0.0150201
-0.015271
-0.0155348
-0.0158093
-0.0160923
-0.0163831
-0.0166813
-0.0169866
-0.0172986
-0.0176167
-0.0179404
-0.0182691
-0.0186023
-0.011892
-0.0113485
-0.0111834
-0.0114079
-0.0117519
-0.0120646
-0.0123353
-0.0125986
-0.0128759
-0.0131693
-0.0134737
-0.0137849
-0.0141016
-0.0144238
-0.0147512
-0.0150834
-0.0154197
-0.0157596
-0.0161025
-0.0164479
-0.00902826
-0.0075007
-0.00700677
-0.00743161
-0.00809025
-0.00863074
-0.00904166
-0.00941228
-0.00979596
-0.0101983
-0.0106076
-0.0110156
-0.0114203
-0.0118228
-0.0122242
-0.0126244
-0.0130231
-0.01342
-0.0138146
-0.014207
-0.00769946
-0.00471768
-0.00369739
-0.0043056
-0.00529386
-0.00605097
-0.00656936
-0.00700998
-0.00746603
-0.00794696
-0.00843303
-0.0089106
-0.00937738
-0.00983588
-0.0102883
-0.0107352
-0.0111765
-0.011612
-0.0120418
-0.012466
-0.00848582
-0.00432823
-0.00290982
-0.00358457
-0.00469095
-0.00547863
-0.00596995
-0.00637602
-0.00680867
-0.00727442
-0.00774739
-0.00821147
-0.00866465
-0.00911012
-0.0095503
-0.00998574
-0.0104162
-0.0108414
-0.0112613
-0.0116759
-0.0102171
-0.00459632
-0.00264152
-0.00335011
-0.00456491
-0.00536665
-0.00580972
-0.00616168
-0.00655489
-0.00699241
-0.0074415
-0.00788324
-0.00831565
-0.00874242
-0.00916599
-0.00958666
-0.0100039
-0.0104172
-0.0108265
-0.0112316
0.116288
0.116802
0.117853
0.119432
0.12154
0.124191
0.127405
0.131203
0.135603
0.140606
0.146197
0.152319
0.158856
0.165575
0.17205
0.17748
0.180324
0.177537
0.162462
0.120133
0.10727
0.107645
0.108353
0.109414
0.11079
0.112504
0.114488
0.116773
0.119228
0.121882
0.12448
0.127025
0.12902
0.130382
0.13012
0.127884
0.121594
0.109956
0.0878151
0.0493358
0.0966254
0.0968226
0.0971701
0.0976798
0.0983183
0.0990788
0.0998859
0.100711
0.101423
0.101958
0.10209
0.101687
0.100362
0.0978454
0.0934906
0.0867864
0.0767621
0.0627385
0.0440106
0.0207816
0.0850372
0.0850661
0.0850977
0.0851319
0.0851468
0.0851125
0.0849677
0.0846462
0.0840457
0.0830581
0.0815276
0.0792837
0.0761023
0.0717382
0.0659288
0.0584202
0.0490764
0.0377791
0.0244562
0.00816674
0.0731937
0.0730991
0.072899
0.0725882
0.0721539
0.0715607
0.0707635
0.0696925
0.068278
0.0664202
0.0640315
0.0609844
0.05719
0.0525143
0.0469155
0.0402886
0.0326488
0.0237855
0.0134285
0.000602508
0.0616655
0.061497
0.0611553
0.060635
0.0599291
0.059009
0.0578442
0.0563813
0.0545781
0.0523673
0.0497089
0.0465319
0.0428147
0.0384917
0.0335663
0.0279498
0.021604
0.0142782
0.00569552
-0.00487901
0.0508445
0.0506418
0.0502333
0.049615
0.0487835
0.0477198
0.0464063
0.0448089
0.042905
0.0406559
0.0380453
0.0350348
0.0316199
0.0277581
0.0234479
0.0186173
0.0132318
0.00711696
6.3145e-05
-0.00855621
0.0409482
0.0407379
0.040315
0.0396762
0.0388199
0.0377353
0.0364133
0.0348343
0.0329874
0.03085
0.0284147
0.025657
0.0225744
0.0191367
0.0153444
0.0111561
0.0065704
0.00150417
-0.00413174
-0.0107057
0.0320582
0.0318559
0.0314496
0.0308359
0.0300141
0.028978
0.0277239
0.0262408
0.0245239
0.0225592
0.0203433
0.0178599
0.0151094
0.0120735
0.00876068
0.00515251
0.00127007
-0.00290629
-0.00734241
-0.0120772
0.0241662
0.0239792
0.0236044
0.0230381
0.0222795
0.021325
0.0201741
0.0188213
0.0172657
0.0154993
0.0135222
0.0113246
0.00891122
0.00627351
0.0034271
0.000369629
-0.00286088
-0.00624452
-0.00968028
-0.0130488
0.0172138
0.0170445
0.016706
0.0161939
0.0155079
0.0146458
0.0136099
0.0123985
0.0110149
0.00945539
0.00772463
0.00581778
0.0037438
0.00149938
-0.000895051
-0.00343291
-0.00606493
-0.00875114
-0.011365
-0.0137384
0.0111225
0.0109704
0.0106665
0.0102065
0.0095905
0.00881775
0.0078932
0.00681805
0.00559966
0.00423878
0.00274502
0.00111848
-0.000627464
-0.00249317
-0.00445721
-0.00651324
-0.00861116
-0.0107035
-0.012643
-0.0142203
0.00581238
0.00567498
0.00540024
0.00498421
0.0044277
0.00373128
0.00290184
0.00194306
0.00086555
-0.000325747
-0.00161594
-0.00299854
-0.00445323
-0.00597395
-0.00753595
-0.00913491
-0.0107293
-0.0122811
-0.0136403
-0.0145629
0.00121414
0.00108765
0.000833917
0.000449798
-6.35944e-05
-0.000704366
-0.00146498
-0.00233987
-0.00331691
-0.00438776
-0.00553376
-0.00674123
-0.00798079
-0.00923158
-0.0104528
-0.0116231
-0.0126967
-0.0136508
-0.0143806
-0.0146935
-0.00272412
-0.00284429
-0.00308665
-0.00345335
-0.00394356
-0.00455437
-0.00527899
-0.00611086
-0.00703846
-0.00805182
-0.00913176
-0.0102603
-0.011402
-0.0125197
-0.0135457
-0.0144104
-0.0150085
-0.0152585
-0.0150527
-0.0142854
-0.00603221
-0.00615103
-0.00639196
-0.00675622
-0.00724401
-0.00785184
-0.00857534
-0.0094076
-0.0103404
-0.0113637
-0.0124621
-0.013618
-0.0147987
-0.0159626
-0.0170268
-0.0178727
-0.0182817
-0.0179584
-0.0164661
-0.0133367
-0.00871684
-0.0088391
-0.0090871
-0.009462
-0.00996523
-0.0105941
-0.0113473
-0.0122192
-0.013207
-0.0143019
-0.0154978
-0.0167789
-0.0181263
-0.0195016
-0.0208352
-0.0219923
-0.0226854
-0.0223575
-0.0198804
-0.0132397
-0.0107655
-0.0108942
-0.0111543
-0.0115481
-0.0120777
-0.0127432
-0.0135457
-0.0144839
-0.0155595
-0.0167701
-0.0181185
-0.0195983
-0.0212068
-0.0229143
-0.0246701
-0.026326
-0.0275724
-0.027683
-0.025044
-0.0159952
-0.0121541
-0.0122891
-0.0125615
-0.0129748
-0.0135317
-0.0142355
-0.0150893
-0.0160974
-0.0172647
-0.0185983
-0.0201066
-0.0217991
-0.023686
-0.025764
-0.0280034
-0.0302678
-0.0322073
-0.0329194
-0.0304451
-0.0204428
-0.0128565
-0.0129952
-0.0132755
-0.013701
-0.0142752
-0.0150032
-0.0158899
-0.016943
-0.0181701
-0.0195842
-0.0211975
-0.0230292
-0.0250951
-0.027415
-0.0299879
-0.032771
-0.0355519
-0.0376216
-0.0367803
-0.0265966
0.126522
0.127085
0.128345
0.130206
0.132813
0.136067
0.140209
0.145096
0.151108
0.158036
0.166467
0.176086
0.187832
0.201205
0.217786
0.23672
0.260874
0.288627
0.325459
0.367912
0.126486
0.127049
0.128308
0.130169
0.132775
0.136027
0.140167
0.145052
0.15106
0.157983
0.166406
0.176015
0.187745
0.201096
0.217639
0.236523
0.260583
0.2882
0.324797
0.366855
0.126415
0.126978
0.128236
0.130095
0.132699
0.135948
0.140084
0.144963
0.150964
0.157876
0.166284
0.175873
0.18757
0.200879
0.217346
0.236127
0.260004
0.287348
0.323476
0.364744
0.126308
0.12687
0.128127
0.129984
0.132585
0.135829
0.139959
0.144831
0.15082
0.157716
0.166102
0.175661
0.187309
0.200553
0.216908
0.235537
0.259138
0.286076
0.321503
0.361593
0.126165
0.126728
0.127982
0.129837
0.132433
0.135672
0.139793
0.144654
0.150628
0.157504
0.16586
0.175378
0.186963
0.200122
0.216328
0.234755
0.25799
0.284393
0.318886
0.357418
0.125988
0.12655
0.127802
0.129653
0.132244
0.135476
0.139587
0.144434
0.150389
0.15724
0.165559
0.175027
0.186533
0.199586
0.215609
0.233785
0.256567
0.282309
0.315636
0.352239
0.125775
0.126337
0.127586
0.129434
0.132018
0.135241
0.139341
0.144172
0.150105
0.156925
0.165201
0.174609
0.186022
0.198947
0.214754
0.232632
0.254876
0.279835
0.311769
0.346084
0.125528
0.126089
0.127336
0.129179
0.131756
0.13497
0.139055
0.143867
0.149775
0.15656
0.164786
0.174124
0.185431
0.198208
0.213768
0.231302
0.252925
0.276987
0.307299
0.338985
0.125246
0.125808
0.127051
0.128889
0.131458
0.134661
0.138731
0.143522
0.149402
0.156146
0.164317
0.173574
0.184764
0.197372
0.212657
0.229801
0.250726
0.273779
0.302246
0.330981
0.124931
0.125492
0.126733
0.128565
0.131125
0.134316
0.138369
0.143137
0.148985
0.155684
0.163794
0.172963
0.184023
0.196442
0.211425
0.228135
0.248291
0.27023
0.296632
0.322113
0.124582
0.125144
0.126381
0.128208
0.130758
0.133936
0.13797
0.142713
0.148526
0.155177
0.16322
0.17229
0.183212
0.195422
0.21008
0.226311
0.245633
0.266358
0.290481
0.31243
0.1242
0.124763
0.125997
0.127818
0.130358
0.133522
0.137536
0.142251
0.148027
0.154624
0.162597
0.171559
0.182333
0.194314
0.208629
0.224337
0.242767
0.26218
0.283819
0.301984
0.123786
0.124351
0.125581
0.127396
0.129925
0.133075
0.137067
0.141753
0.147489
0.154029
0.161926
0.170773
0.181389
0.193124
0.207077
0.22222
0.239711
0.257715
0.276679
0.290828
0.123341
0.123907
0.125134
0.126943
0.129461
0.132595
0.136564
0.14122
0.146914
0.153394
0.16121
0.169934
0.180386
0.191857
0.205434
0.21997
0.236483
0.252982
0.269096
0.279017
0.122864
0.123433
0.124657
0.126461
0.128966
0.132084
0.136029
0.140652
0.146302
0.152718
0.16045
0.169044
0.179324
0.190514
0.203703
0.217594
0.233102
0.247998
0.261113
0.266598
0.122356
0.122929
0.124151
0.125948
0.128441
0.131543
0.135462
0.14005
0.145653
0.152002
0.159644
0.168101
0.178201
0.189096
0.201886
0.215094
0.229582
0.242778
0.252787
0.253612
0.121819
0.122396
0.123616
0.125409
0.127888
0.130973
0.134865
0.139418
0.144971
0.15125
0.158799
0.167113
0.177026
0.187611
0.199992
0.212484
0.225942
0.237337
0.244176
0.240087
0.121252
0.121837
0.123057
0.124846
0.127316
0.130385
0.134254
0.138775
0.144283
0.150496
0.157958
0.16613
0.175862
0.186132
0.198108
0.209849
0.222276
0.231728
0.235326
0.225923
0.120657
0.12125
0.122474
0.124263
0.126726
0.129786
0.133638
0.138135
0.143607
0.149765
0.157149
0.165192
0.174753
0.184714
0.196289
0.207254
0.218647
0.225992
0.226256
0.210435
0.120029
0.120624
0.121842
0.123621
0.126059
0.129091
0.132894
0.137338
0.142724
0.148783
0.156013
0.163869
0.173147
0.182735
0.193773
0.203945
0.214236
0.219655
0.217063
0.193924
0.120025
0.12062
0.121837
0.123616
0.126054
0.129085
0.132888
0.137331
0.142715
0.148773
0.156002
0.163856
0.173132
0.182717
0.193752
0.203921
0.214207
0.21962
0.217021
0.193872
0.120653
0.121246
0.12247
0.124259
0.126722
0.129781
0.133632
0.138128
0.143599
0.149755
0.157138
0.16518
0.174738
0.184697
0.19627
0.207231
0.21862
0.22596
0.226217
0.210386
0.121249
0.121833
0.123054
0.124842
0.127311
0.13038
0.134248
0.138769
0.144276
0.150487
0.157947
0.166119
0.175848
0.186117
0.198089
0.209827
0.222251
0.231698
0.235289
0.225877
0.121816
0.122393
0.123613
0.125405
0.127884
0.130968
0.134859
0.139412
0.144964
0.151242
0.158789
0.167102
0.177013
0.187596
0.199975
0.212463
0.225918
0.237308
0.244141
0.240044
0.122353
0.122925
0.124147
0.125945
0.128437
0.131538
0.135457
0.140045
0.145646
0.151994
0.159635
0.168091
0.178189
0.189082
0.20187
0.215075
0.229559
0.242751
0.252754
0.253571
0.122861
0.12343
0.124654
0.126457
0.128962
0.13208
0.136024
0.140647
0.146295
0.152711
0.160441
0.169034
0.179313
0.190501
0.203688
0.217576
0.233081
0.247973
0.261083
0.266561
0.123338
0.123904
0.125131
0.12694
0.129457
0.132591
0.13656
0.141215
0.146908
0.153387
0.161202
0.169925
0.180375
0.191844
0.205419
0.219953
0.236463
0.252958
0.269067
0.278983
0.123784
0.124348
0.125578
0.127393
0.129922
0.133071
0.137063
0.141748
0.147484
0.154023
0.161919
0.170765
0.18138
0.193113
0.207064
0.222205
0.239693
0.257693
0.276653
0.290796
0.124198
0.124761
0.125994
0.127815
0.130355
0.133519
0.137532
0.142247
0.148022
0.154619
0.16259
0.171552
0.182324
0.194304
0.208617
0.224323
0.24275
0.26216
0.283795
0.301954
0.12458
0.125142
0.126379
0.128205
0.130755
0.133933
0.137967
0.142709
0.148522
0.155171
0.163214
0.172283
0.183203
0.195412
0.210069
0.226298
0.245617
0.266339
0.290459
0.312404
0.124929
0.12549
0.126731
0.128563
0.131122
0.134313
0.138366
0.143133
0.148981
0.155679
0.163789
0.172956
0.184016
0.196434
0.211415
0.228123
0.248277
0.270214
0.296613