/*--------------------------------*- C++ -*----------------------------------*\
  =========                 |
  \\      /  F ield         | OpenFOAM: The Open Source CFD Toolbox
   \\    /   O peration     | Website:  https://openfoam.org
    \\  /    A nd           | Version:  6.0
     \\/     M anipulation  |
\*---------------------------------------------------------------------------*/
FoamFile
{
    version     2.0;
    format      ascii;
    class       volVectorField;
    location    "14";
    object      U;
}
// * * * * * * * * * * * * * * * * * * * * * * * * * * * * * * * * * * * * * //

dimensions      [0 1 -1 0 0 0 0];

internalField   nonuniform List<vector> 
4000
(
(0.097058 0.00749504 6.18967e-20)
(0.308462 0.0391369 -3.37032e-20)
(0.523289 0.0935964 3.97165e-20)
(0.724198 0.155564 -2.95611e-20)
(0.897273 0.215023 -1.32662e-20)
(1.03516 0.265977 4.0165e-21)
(1.13714 0.305524 -1.30244e-20)
(1.20715 0.333372 4.68434e-20)
(1.25144 0.350901 -3.90207e-20)
(1.27666 0.360222 9.16101e-21)
(1.2887 0.363515 -6.82473e-21)
(1.29223 0.36267 -4.44976e-20)
(1.29065 0.359159 4.3175e-20)
(1.28625 0.354034 1.645e-20)
(1.28053 0.348008 -1.63593e-20)
(1.2744 0.341538 3.84254e-20)
(1.26841 0.334892 -5.61397e-22)
(1.2629 0.328256 -3.72917e-20)
(1.25807 0.322016 2.76226e-20)
(1.25413 0.31609 8.72504e-21)
(0.11124 0.0124503 -2.1694e-20)
(0.343025 0.054383 6.28898e-20)
(0.569675 0.11791 7.27255e-20)
(0.774132 0.185989 -3.4341e-20)
(0.943903 0.248111 5.97376e-20)
(1.074 0.298761 9.45922e-20)
(1.16621 0.335998 -5.22358e-21)
(1.22646 0.360526 -1.62709e-20)
(1.2622 0.374505 8.03098e-20)
(1.28061 0.380531 3.91804e-20)
(1.28761 0.381013 -7.12253e-21)
(1.28763 0.377893 5.84683e-20)
(1.28373 0.37259 -6.27476e-20)
(1.27787 0.366068 9.77451e-20)
(1.27127 0.358945 -1.63065e-20)
(1.26464 0.3516 4.67857e-20)
(1.2584 0.34424 8.45481e-21)
(1.2528 0.337023 3.34982e-20)
(1.24797 0.330333 -3.18754e-20)
(1.24405 0.323951 7.7149e-21)
(0.125627 0.0185031 -3.37666e-20)
(0.376916 0.0720089 7.9918e-20)
(0.613622 0.144815 5.9427e-20)
(0.81963 0.218467 -9.01988e-21)
(0.984505 0.282383 9.27554e-20)
(1.10599 0.331886 -6.94112e-20)
(1.18839 0.366195 -5.46909e-21)
(1.23943 0.387063 6.12524e-20)
(1.26753 0.397386 1.94493e-20)
(1.28012 0.400166 2.72694e-20)
(1.28302 0.397963 -4.02921e-20)
(1.28033 0.392709 1.05194e-19)
(1.27472 0.38574 1.96793e-20)
(1.26785 0.377915 -9.32581e-20)
(1.26069 0.36976 1.36459e-19)
(1.25379 0.361577 -1.61071e-19)
(1.24746 0.353522 -7.40421e-20)
(1.24188 0.345735 1.22707e-20)
(1.23711 0.338592 7.19111e-20)
(1.2333 0.331741 -1.3581e-19)
(0.139982 0.0256621 -7.57769e-20)
(0.40955 0.0918994 -1.78895e-19)
(0.654417 0.174019 -1.54842e-19)
(0.860098 0.252587 -2.10859e-19)
(1.01878 0.317416 -1.19767e-19)
(1.13117 0.364999 -2.4842e-19)
(1.20401 0.395872 3.15707e-20)
(1.24658 0.412845 -1.32154e-19)
(1.26798 0.419482 -1.45374e-20)
(1.27574 0.419106 2.17638e-20)
(1.27539 0.414354 -4.79196e-20)
(1.27066 0.407101 6.00776e-20)
(1.26386 0.398575 1.07072e-19)
(1.25635 0.389525 -1.50368e-19)
(1.24889 0.380385 2.43806e-20)
(1.2419 0.37139 7.01309e-20)
(1.23561 0.362653 1.17512e-19)
(1.23014 0.3543 -1.01351e-19)
(1.2255 0.346701 -4.90315e-21)
(1.22185 0.339368 1.1944e-19)
(0.154061 0.033906 -1.42808e-19)
(0.440364 0.113874 3.92051e-19)
(0.691429 0.205169 -6.90046e-20)
(0.89508 0.287908 9.18963e-20)
(1.04659 0.352787 -8.99549e-20)
(1.14971 0.397769 2.76504e-19)
(1.21347 0.424806 -4.39129e-20)
(1.24841 0.43774 2.60566e-20)
(1.26408 0.440723 -1.34435e-20)
(1.26789 0.43731 4.30681e-20)
(1.26505 0.43015 2.78897e-20)
(1.25887 0.421024 3.5508e-20)
(1.25132 0.411036 -1.00572e-19)
(1.24347 0.400823 1.4764e-19)
(1.23593 0.390735 -1.12318e-19)
(1.22899 0.380949 2.15686e-20)
(1.22284 0.371538 -7.22739e-20)
(1.21757 0.362623 1.56468e-20)
(1.21313 0.354564 1.77406e-20)
(1.2097 0.346739 -1.63565e-19)
(0.167617 0.0431832 1.01649e-20)
(0.468832 0.137694 -1.97355e-19)
(0.724127 0.237863 1.09168e-19)
(0.924254 0.323971 -3.80919e-19)
(1.0679 0.388083 1.84688e-19)
(1.16184 0.429879 -3.16928e-19)
(1.21715 0.452785 -2.48074e-19)
(1.24538 0.46162 -9.49528e-21)
(1.25625 0.461029 -8.43721e-20)
(1.25697 0.454717 -2.63575e-19)
(1.25231 0.445288 -3.32338e-20)
(1.24518 0.434404 -2.54071e-19)
(1.23722 0.423037 4.58114e-20)
(1.22929 0.411715 -3.68498e-20)
(1.22183 0.40071 2.16936e-20)
(1.21508 0.390148 -1.72619e-19)
(1.20918 0.380071 8.30072e-21)
(1.20417 0.3706 3.42232e-20)
(1.2 0.362077 -8.10877e-20)
(1.19684 0.353759 7.05288e-20)
(0.180408 0.0534115 -8.08951e-20)
(0.494481 0.163063 3.60701e-19)
(0.752085 0.271662 2.88232e-21)
(0.947422 0.36031 -3.12769e-19)
(1.08279 0.422901 2.368e-19)
(1.16786 0.461031 9.9803e-20)
(1.21549 0.479609 2.01251e-20)
(1.23792 0.484352 -1.69025e-19)
(1.24489 0.480303 2.74617e-19)
(1.24326 0.471241 -1.61826e-19)
(1.23736 0.459683 5.80111e-20)
(1.22972 0.447148 2.74593e-19)
(1.22166 0.434474 -2.47672e-19)
(1.21387 0.42209 2.72818e-19)
(1.20665 0.410197 -1.77027e-19)
(1.2002 0.398874 -3.46492e-20)
(1.19463 0.388143 4.22994e-20)
(1.18996 0.378121 5.39859e-20)
(1.1861 0.369137 7.47019e-20)
(1.18329 0.360328 4.48373e-20)
(0.192203 0.0644804 3.23383e-20)
(0.516904 0.189644 -3.24242e-19)
(0.774984 0.3061 5.74509e-20)
(0.964503 0.396458 7.54889e-19)
(1.09142 0.456856 -6.94992e-20)
(1.16812 0.490942 2.10184e-19)
(1.20889 0.505082 1.3135e-19)
(1.22643 0.505798 2.17186e-20)
(1.23034 0.498436 -1.53251e-19)
(1.22703 0.486782 2.51422e-19)
(1.22041 0.473227 -2.99752e-20)
(1.21261 0.45914 3.84324e-19)
(1.20473 0.44523 1.48878e-19)
(1.19725 0.431828 9.38044e-20)
(1.19042 0.419074 -1.95436e-19)
(1.18437 0.40701 4.12915e-20)
(1.17921 0.395637 1.52794e-19)
(1.17494 0.385076 4.00815e-20)
(1.17147 0.375633 -1.86584e-19)
(1.16907 0.366348 -4.6805e-20)
(0.202791 0.076253 -1.80214e-19)
(0.535763 0.217062 5.81193e-19)
(0.792609 0.340698 -3.1643e-19)
(0.975514 0.431956 -2.91762e-19)
(1.09403 0.489576 -2.54312e-19)
(1.16296 0.51934 -2.14952e-19)
(1.19774 0.529012 -2.65803e-19)
(1.21128 0.525815 3.33738e-19)
(1.21288 0.515306 -2.38968e-19)
(1.2085 0.50122 -1.94498e-20)
(1.20159 0.4858 -1.81415e-21)
(1.19397 0.470256 -4.59714e-20)
(1.18647 0.455174 -1.19079e-19)
(1.17948 0.440799 -1.33489e-19)
(1.17316 0.427215 -7.15795e-21)
(1.16762 0.41443 -2.98991e-20)
(1.16294 0.402433 -7.42424e-20)
(1.15914 0.391347 -2.31927e-20)
(1.15612 0.381455 2.5205e-20)
(1.15419 0.371718 -1.60501e-19)
(0.211985 0.0885692 3.15403e-19)
(0.550797 0.244917 3.26384e-19)
(0.804847 0.374973 -2.02867e-19)
(0.980559 0.466361 1.24923e-19)
(1.0909 0.520711 2.16618e-19)
(1.15275 0.54597 -4.5254e-20)
(1.18241 0.551214 5.3383e-20)
(1.19278 0.544255 6.06962e-20)
(1.19276 0.530781 1.01023e-19)
(1.18784 0.514426 -1.189e-19)
(1.18104 0.497266 5.81265e-20)
(1.17386 0.480358 -4.03906e-20)
(1.16697 0.464169 1.80728e-19)
(1.16062 0.448867 7.97351e-20)
(1.15493 0.434487 -1.80851e-19)
(1.14998 0.421008 9.99846e-20)
(1.14587 0.408408 4.99152e-20)
(1.14261 0.396816 -9.2083e-20)
(1.14009 0.38649 2.50682e-19)
(1.1387 0.376336 -1.8475e-19)
(0.219624 0.10125 -2.31902e-19)
(0.561821 0.272793 -3.01325e-19)
(0.811677 0.408445 2.11487e-19)
(0.979817 0.499245 -1.94993e-19)
(1.08234 0.54993 -1.76251e-20)
(1.13787 0.570589 -2.1544e-19)
(1.16326 0.571503 1.78469e-19)
(1.17123 0.560967 3.31334e-19)
(1.17023 0.544721 -4.61218e-19)
(1.16523 0.526261 2.38347e-20)
(1.15887 0.507485 1.84211e-20)
(1.15239 0.489302 -9.32577e-20)
(1.14628 0.472071 6.42578e-20)
(1.14072 0.455892 -2.75284e-20)
(1.13578 0.440754 1.84136e-19)
(1.13152 0.426612 -1.98697e-19)
(1.12805 0.413436 -6.93578e-20)
(1.12539 0.401359 1.81165e-19)
(1.12344 0.390618 -2.72159e-19)
(1.12266 0.380091 1.71936e-19)
(0.22558 0.114102 4.81981e-19)
(0.56873 0.300267 4.26796e-19)
(0.813165 0.440649 -7.16177e-20)
(0.97353 0.530209 -9.1725e-21)
(1.06871 0.576924 -2.1801e-19)
(1.1187 0.592968 9.27664e-20)
(1.14064 0.589703 4.58537e-19)
(1.14693 0.575801 -4.03205e-19)
(1.14549 0.556982 2.56119e-19)
(1.14081 0.53658 -2.27525e-20)
(1.13518 0.516312 1.57697e-19)
(1.12962 0.496942 -3.89253e-20)
(1.12447 0.478736 9.52137e-20)
(1.11984 0.461731 1.23873e-19)
(1.11576 0.445878 -6.87689e-20)
(1.11228 0.431108 8.47293e-20)
(1.10953 0.417385 -1.20821e-19)
(1.10754 0.404843 3.09252e-19)
(1.10623 0.393706 -1.94118e-19)
(1.10613 0.382857 1.39772e-19)
(0.229759 0.12692 -2.35452e-19)
(0.571492 0.32692 -4.39258e-19)
(0.809451 0.471141 -3.03473e-19)
(0.961992 0.558877 -2.19919e-20)
(1.05037 0.60141 7.26714e-20)
(1.09561 0.612894 -3.98233e-20)
(1.11487 0.605646 -2.60212e-19)
(1.12012 0.588606 -1.14185e-19)
(1.11873 0.567423 -2.09229e-19)
(1.11473 0.545241 -1.03024e-19)
(1.11009 0.5236 5.1659e-20)
(1.10563 0.503133 -2.46554e-19)
(1.1016 0.484019 -5.80649e-20)
(1.09804 0.466241 -5.73197e-20)
(1.09494 0.449718 -1.82684e-19)
(1.09235 0.434359 8.08407e-20)
(1.09039 0.420117 1.50125e-21)
(1.08912 0.407129 7.58912e-20)
(1.08854 0.395605 -3.18025e-20)
(1.08919 0.384484 -1.14013e-19)
(0.232101 0.139495 5.44174e-19)
(0.570148 0.352344 4.73486e-19)
(0.800744 0.499502 5.87712e-19)
(0.945541 0.584906 -6.10609e-20)
(1.02772 0.623128 -2.13095e-19)
(1.06897 0.630174 6.31381e-19)
(1.08627 0.619173 -3.14261e-19)
(1.09106 0.599242 3.48627e-19)
(1.09014 0.575904 -6.41612e-20)
(1.08713 0.552106 2.14031e-19)
(1.08369 0.529211 2.40364e-20)
(1.08051 0.507732 1.02358e-19)
(1.07774 0.487777 -2.29609e-20)
(1.07538 0.469282 1.03016e-19)
(1.07338 0.452136 -8.3111e-20)
(1.07177 0.436226 5.7781e-21)
(1.07069 0.421496 4.22112e-20)
(1.07023 0.408072 6.74185e-20)
(1.07043 0.396166 -9.79637e-21)
(1.07187 0.384828 3.52664e-20)
(0.232583 0.151618 -1.67067e-19)
(0.564803 0.376149 -4.6886e-19)
(0.787313 0.525348 -2.85141e-19)
(0.924549 0.607986 -4.98487e-19)
(1.00115 0.641848 5.35279e-19)
(1.03915 0.644633 -3.76307e-19)
(1.05515 0.630141 2.38313e-19)
(1.05998 0.607576 -8.35366e-20)
(1.05991 0.582299 -1.00671e-19)
(1.05813 0.557045 -7.10184e-20)
(1.05609 0.533013 3.7104e-20)
(1.05432 0.510609 4.66438e-20)
(1.05294 0.489875 3.55801e-20)
(1.0519 0.470715 -5.14358e-20)
(1.05113 0.452989 -3.36823e-20)
(1.05064 0.436568 1.10359e-19)
(1.05052 0.421378 -1.62501e-20)
(1.05092 0.407528 -3.77104e-20)
(1.05197 0.395249 4.92527e-21)
(1.05423 0.383773 -2.53275e-21)
(0.231214 0.163083 7.36821e-19)
(0.555623 0.397971 3.45473e-19)
(0.769474 0.548331 3.23182e-19)
(0.899418 0.627844 -1.91208e-19)
(0.971085 0.657369 2.31464e-20)
(1.00652 0.656115 2.70833e-19)
(1.02181 0.63842 3.51131e-20)
(1.02714 0.613491 7.19014e-20)
(1.02821 0.586491 7.80851e-20)
(1.02788 0.559945 3.77405e-21)
(1.02737 0.534894 3.73269e-20)
(1.02714 0.511646 -9.72465e-21)
(1.02726 0.490194 -2.20878e-20)
(1.02766 0.470411 -5.06737e-20)
(1.02825 0.45214 1.57431e-20)
(1.02899 0.435237 4.08219e-21)
(1.02995 0.419607 -6.30524e-21)
(1.03131 0.405332 3.15271e-21)
(1.03325 0.392686 1.42706e-20)
(1.03637 0.381171 -6.62255e-21)
(0.228039 0.173692 -5.25798e-19)
(0.542828 0.417476 -4.53924e-19)
(0.74759 0.56814 2.16498e-19)
(0.870569 0.644243 -2.65564e-19)
(0.937927 0.669516 -2.00397e-20)
(0.971443 0.664492 3.33351e-20)
(0.986549 0.643902 -4.09801e-20)
(0.992749 0.616885 -3.55604e-20)
(0.995228 0.588385 -6.81497e-20)
(0.996504 0.560712 -4.3678e-20)
(0.997647 0.534761 -1.74265e-20)
(0.999034 0.510753 -1.32201e-20)
(1.00073 0.488637 7.9418e-21)
(1.00267 0.468264 -6.91007e-21)
(1.00474 0.449469 7.69307e-21)
(1.00687 0.432097 -2.76973e-20)
(1.00906 0.416031 -2.95102e-20)
(1.01147 0.401298 -3.36347e-20)
(1.01444 0.388203 5.86152e-22)
(1.0187 0.37666 5.45717e-20)
(0.223134 0.183261 4.8635e-19)
(0.526685 0.434366 1.81668e-20)
(0.722054 0.58451 -4.72435e-20)
(0.838445 0.656983 5.5473e-20)
(0.902101 0.678149 1.79895e-19)
(0.934288 0.669655 -1.32849e-19)
(0.949671 0.646497 4.79654e-20)
(0.957061 0.61768 -6.93994e-20)
(0.961149 0.587905 8.112e-21)
(0.964158 0.559276 -1.37901e-20)
(0.967021 0.532547 -2.91184e-20)
(0.970068 0.507861 -2.73228e-20)
(0.973375 0.485128 2.72031e-20)
(0.976907 0.464184 -1.33159e-20)
(0.980573 0.444863 -1.31189e-19)
(0.984251 0.427018 1.25293e-19)
(0.98786 0.41051 -8.00764e-20)
(0.99157 0.395233 -5.24046e-20)
(0.995963 0.381417 6.08147e-20)
(1.00184 0.369607 -7.67727e-20)
(0.216604 0.191621 -1.02569e-19)
(0.507501 0.448382 1.09699e-19)
(0.693291 0.597216 7.03222e-20)
(0.803498 0.665904 -1.05881e-19)
(0.864032 0.683156 4.68129e-20)
(0.895418 0.671523 -8.19932e-20)
(0.911477 0.646139 -1.38848e-20)
(0.920319 0.615818 7.41601e-21)
(0.92617 0.585006 -6.59326e-21)
(0.930992 0.555601 -8.16705e-20)
(0.935601 0.528224 1.41189e-20)
(0.940298 0.502942 -2.01179e-21)
(0.945182 0.479622 9.90004e-20)
(0.950273 0.458082 -2.63856e-19)
(0.955539 0.438156 2.45495e-19)
(0.960857 0.419727 1.32456e-19)
(0.96609 0.402652 -3.05232e-20)
(0.971491 0.38661 2.03896e-20)
(0.977937 0.371611 2.357e-19)
(0.985725 0.359181 -9.77164e-20)
(0.208577 0.198623 -3.0816e-20)
(0.485616 0.459305 7.57133e-20)
(0.661746 0.606078 -8.09547e-20)
(0.76619 0.670881 1.08036e-19)
(0.824144 0.684456 -1.99327e-20)
(0.855202 0.670039 7.75167e-22)
(0.872274 0.642786 1.59199e-20)
(0.882779 0.61127 -5.21877e-20)
(0.890508 0.579673 5.27476e-20)
(0.897187 0.549697 3.9682e-20)
(0.90353 0.521835 2.30511e-20)
(0.909808 0.496076 1.63075e-21)
(0.916139 0.472227 8.90282e-20)
(0.922597 0.450057 -9.15309e-20)
(0.929217 0.42936 1.07555e-19)
(0.935929 0.410004 -2.2353e-19)
(0.942645 0.391794 2.51646e-19)
(0.949808 0.374107 -2.16755e-19)
(0.958387 0.356688 -1.42981e-19)
(0.967267 0.342965 2.48283e-19)
(0.199209 0.204138 3.72147e-20)
(0.461394 0.466956 -6.1972e-21)
(0.627877 0.610958 5.17485e-21)
(0.726989 0.671826 -2.54902e-20)
(0.782865 0.681993 -2.12382e-21)
(0.814011 0.665167 7.35044e-21)
(0.832381 0.636411 -1.30743e-19)
(0.84472 0.60402 8.68982e-20)
(0.854411 0.571911 9.03412e-20)
(0.862974 0.541603 -1.30073e-19)
(0.871027 0.51348 1.56728e-19)
(0.878807 0.487461 -5.90149e-20)
(0.886419 0.463303 1.20066e-19)
(0.893939 0.440713 -1.90849e-19)
(0.901416 0.419402 3.98207e-19)
(0.90881 0.399121 -8.8689e-20)
(0.916146 0.379465 -2.44054e-20)
(0.924093 0.359192 2.64658e-19)
(0.93343 0.336388 -1.28474e-19)
(0.939223 0.313554 5.93708e-20)
(0.188668 0.208061 -3.7981e-20)
(0.435221 0.4712 2.2724e-20)
(0.592154 0.611759 -2.96038e-20)
(0.686362 0.668685 2.75655e-20)
(0.74062 0.675739 -1.64567e-20)
(0.772215 0.656891 -1.41692e-19)
(0.792121 0.627004 2.15254e-19)
(0.80643 0.594061 1.55115e-20)
(0.818153 0.561721 -2.35406e-20)
(0.828628 0.531334 5.26639e-21)
(0.838395 0.503198 7.47216e-20)
(0.847659 0.477196 1.29463e-19)
(0.856502 0.453078 7.68728e-20)
(0.864959 0.430566 -1.8386e-19)
(0.873017 0.409411 -5.40862e-20)
(0.880614 0.389422 -7.3439e-21)
(0.887851 0.370338 3.5799e-20)
(0.895317 0.351476 5.41661e-21)
(0.902967 0.332132 3.98142e-19)
(0.906176 0.31442 -2.77571e-19)
(0.177136 0.210306 1.20792e-19)
(0.40749 0.47194 -7.20742e-21)
(0.555046 0.608422 -1.01586e-19)
(0.644772 0.661433 3.10944e-19)
(0.69783 0.665691 7.05776e-20)
(0.730183 0.645212 -2.00138e-19)
(0.751819 0.614564 1.90726e-19)
(0.768203 0.581392 -4.55529e-20)
(0.78201 0.549096 1.72019e-19)
(0.794421 0.518875 8.097e-20)
(0.805922 0.490951 -3.76956e-19)
(0.816707 0.465177 -4.30089e-20)
(0.826861 0.441294 5.28825e-19)
(0.836418 0.419033 -6.4806e-19)
(0.845359 0.398155 5.99332e-19)
(0.853613 0.378463 2.08586e-19)
(0.861245 0.359682 -7.39222e-19)
(0.868654 0.341243 3.58692e-19)
(0.875668 0.322842 -7.28624e-20)
(0.878814 0.306854 8.58196e-20)
(0.164807 0.21081 -2.54529e-19)
(0.378603 0.469117 -2.64539e-19)
(0.517023 0.600929 1.80417e-19)
(0.602678 0.650082 -2.33184e-19)
(0.654906 0.65187 -6.50903e-19)
(0.688277 0.63015 -2.48214e-20)
(0.711794 0.599108 -1.94321e-19)
(0.73033 0.566022 7.20514e-21)
(0.746253 0.534044 -3.89961e-19)
(0.760612 0.504237 -3.97e-19)
(0.77385 0.476759 -2.72246e-19)
(0.786155 0.451444 -1.15413e-20)
(0.797621 0.428039 -6.70772e-19)
(0.808297 0.406293 -7.09725e-21)
(0.818186 0.385996 3.27794e-19)
(0.827256 0.366985 -3.25595e-19)
(0.835583 0.349047 -2.52338e-19)
(0.843492 0.331749 2.43001e-19)
(0.850804 0.31491 -1.73988e-19)
(0.854675 0.300407 3.34209e-20)
(0.151881 0.209535 2.12223e-19)
(0.348963 0.462712 1.64593e-19)
(0.478545 0.589297 -8.13828e-21)
(0.560524 0.634672 -1.42877e-19)
(0.612249 0.634321 3.37375e-19)
(0.64685 0.611747 5.51156e-19)
(0.672362 0.580664 -5.79498e-20)
(0.693099 0.547969 8.73427e-21)
(0.711156 0.516571 1.06079e-19)
(0.727473 0.487406 2.4603e-19)
(0.742462 0.460582 3.58109e-19)
(0.756317 0.43592 -2.91274e-19)
(0.769146 0.413172 2.85758e-19)
(0.781015 0.392098 -9.96414e-20)
(0.791949 0.372502 3.34302e-19)
(0.801946 0.354232 -1.30331e-19)
(0.811111 0.337098 -3.24936e-19)
(0.819771 0.320761 1.94646e-19)
(0.827774 0.305153 -2.79126e-19)
(0.832642 0.291856 -3.16656e-19)
(0.13856 0.206464 1.00336e-19)
(0.318967 0.452744 1.79486e-19)
(0.440063 0.573579 -1.88326e-19)
(0.518743 0.615271 6.64442e-21)
(0.570247 0.613115 3.24464e-20)
(0.606243 0.59006 2.66655e-19)
(0.633824 0.559279 -3.92683e-19)
(0.656782 0.527267 3.72756e-19)
(0.67697 0.496697 -3.6882e-20)
(0.695235 0.468391 1.01756e-19)
(0.711973 0.442415 1.65358e-19)
(0.727388 0.418581 -3.15459e-19)
(0.741608 0.396648 1.502e-19)
(0.754724 0.376392 1.43043e-19)
(0.766787 0.357627 5.29383e-20)
(0.777824 0.340212 -2.71043e-19)
(0.787968 0.323969 9.12854e-19)
(0.79754 0.308609 -5.11783e-19)
(0.806386 0.294099 9.28311e-19)
(0.812306 0.281747 -6.03748e-20)
(0.125045 0.2016 7.46516e-20)
(0.289005 0.439265 4.29315e-19)
(0.402012 0.553864 1.54032e-19)
(0.477749 0.591981 3.17384e-19)
(0.529269 0.588345 8.39095e-20)
(0.566782 0.565174 -5.10422e-19)
(0.596469 0.53502 7.92451e-19)
(0.621642 0.503966 4.11685e-19)
(0.643936 0.474458 1.75069e-20)
(0.664126 0.447213 5.33274e-19)
(0.682595 0.422261 8.71717e-20)
(0.699562 0.39941 5.57519e-20)
(0.71518 0.378427 3.18692e-19)
(0.729561 0.359096 -1.19539e-19)
(0.742784 0.341243 -1.25133e-19)
(0.754906 0.32473 7.42517e-19)
(0.766083 0.30939 -6.1954e-19)
(0.776628 0.294973 2.40278e-20)
(0.786378 0.281462 7.84397e-19)
(0.793376 0.269931 -8.07945e-22)
(0.111537 0.19497 -9.26391e-19)
(0.259452 0.42236 -1.53021e-19)
(0.364809 0.530272 -2.10154e-19)
(0.437937 0.564928 -1.61457e-19)
(0.489669 0.560131 -4.11439e-19)
(0.528776 0.537189 1.40809e-19)
(0.560574 0.507972 -1.9777e-19)
(0.587927 0.478137 5.83934e-20)
(0.612282 0.449909 -2.86332e-19)
(0.634352 0.423912 -2.69715e-19)
(0.654516 0.400147 5.74674e-20)
(0.673012 0.378419 -4.37709e-19)
(0.690014 0.358505 3.50545e-19)
(0.705659 0.3402 -1.26676e-19)
(0.720049 0.323336 3.9558e-19)
(0.733268 0.307779 -8.53723e-19)
(0.745489 0.293371 -1.62263e-19)
(0.75701 0.279889 -3.06411e-19)
(0.767664 0.267322 -8.22073e-19)
(0.775727 0.25654 -1.32485e-19)
(0.098228 0.186616 1.5052e-19)
(0.230669 0.402147 -1.68858e-20)
(0.328852 0.502954 -2.35042e-19)
(0.39968 0.53427 8.31436e-20)
(0.451779 0.528618 -1.68095e-19)
(0.492518 0.506233 -2.0539e-21)
(0.526396 0.478242 2.28457e-19)
(0.55587 0.449869 -3.41462e-19)
(0.582217 0.423125 1.32839e-19)
(0.606103 0.39855 -7.69551e-20)
(0.627908 0.37612 2.11665e-20)
(0.647888 0.355644 -3.81925e-19)
(0.66624 0.336906 -4.6419e-19)
(0.683122 0.319714 -1.76473e-20)
(0.698657 0.303906 5.16996e-19)
(0.712954 0.289353 2.39677e-20)
(0.726197 0.275904 6.53778e-19)
(0.738666 0.263365 -9.53158e-19)
(0.7502 0.25172 5.06745e-19)
(0.759302 0.241662 8.73625e-19)
(0.085305 0.176602 -1.33399e-19)
(0.202999 0.378774 7.16475e-20)
(0.294512 0.472092 4.66485e-19)
(0.36333 0.500188 1.15446e-19)
(0.41591 0.493973 -1.55359e-19)
(0.458282 0.472452 1.22819e-19)
(0.494179 0.445958 4.82804e-19)
(0.525687 0.419273 -3.92124e-19)
(0.553938 0.394202 3.63666e-20)
(0.579558 0.371208 -1.4305e-19)
(0.602932 0.350251 5.17102e-19)
(0.624333 0.331144 3.69377e-19)
(0.64398 0.313683 -5.36474e-20)
(0.662052 0.297685 -5.60079e-19)
(0.678691 0.282998 2.99145e-20)
(0.694025 0.269497 -6.90444e-20)
(0.708245 0.257044 3.29173e-19)
(0.721614 0.245464 5.35154e-19)
(0.733988 0.234736 4.67075e-19)
(0.744087 0.225403 -7.8089e-19)
(0.0729448 0.165008 -8.40042e-20)
(0.176762 0.352415 3.58143e-19)
(0.262138 0.437894 -3.4871e-19)
(0.329212 0.46289 4.85943e-19)
(0.382352 0.456385 -2.63645e-19)
(0.426323 0.436015 1.89814e-19)
(0.464147 0.411268 4.80783e-19)
(0.497581 0.386479 -5.78682e-19)
(0.527627 0.363255 2.63643e-19)
(0.554881 0.341991 3.33536e-19)
(0.579734 0.322633 -4.53034e-19)
(0.602477 0.305003 -3.18289e-20)
(0.623348 0.288909 -3.62965e-19)
(0.642545 0.274182 5.82711e-19)
(0.660228 0.260678 -3.15708e-19)
(0.676541 0.248279 3.39018e-19)
(0.69168 0.236858 -6.11223e-20)
(0.705889 0.226263 2.09637e-19)
(0.71905 0.216463 4.78735e-20)
(0.730096 0.207871 -1.22215e-19)
(0.0613136 0.151931 -2.58374e-19)
(0.152257 0.323271 -5.93179e-19)
(0.232053 0.400595 1.56094e-19)
(0.297626 0.422607 -5.0053e-19)
(0.351371 0.416066 -4.74305e-19)
(0.396873 0.397111 -3.4108e-19)
(0.436509 0.374338 2.65701e-19)
(0.471737 0.351636 2.04245e-19)
(0.503452 0.330418 -1.31933e-21)
(0.532223 0.311019 -1.78051e-19)
(0.55845 0.293376 -3.21486e-19)
(0.582441 0.277322 2.89695e-19)
(0.604451 0.262681 -9.98027e-20)
(0.624694 0.249295 -4.93085e-19)
(0.643347 0.237034 3.20765e-19)
(0.660569 0.225786 -2.40967e-19)
(0.676555 0.215437 -9.81104e-20)
(0.691536 0.205853 -2.74669e-19)
(0.705425 0.196999 -2.48445e-19)
(0.717355 0.189177 6.43295e-20)
(0.0505652 0.137483 2.25621e-19)
(0.129759 0.291568 1.16715e-19)
(0.20455 0.360455 1.78801e-19)
(0.268845 0.379592 -6.10945e-19)
(0.32321 0.373249 6.5408e-19)
(0.370146 0.355946 2.61516e-21)
(0.411453 0.335356 5.19184e-21)
(0.448325 0.314911 -3.98373e-19)
(0.481565 0.295844 3.71858e-19)
(0.511722 0.278431 -2.58864e-19)
(0.539203 0.262608 7.7804e-20)
(0.564334 0.248221 -3.46582e-19)
(0.587385 0.23511 -1.64842e-19)
(0.608585 0.223132 -7.86271e-20)
(0.628124 0.212169 5.93172e-19)
(0.646174 0.202119 -2.91103e-19)
(0.662929 0.19288 -2.62685e-19)
(0.678607 0.184339 2.69966e-19)
(0.693158 0.176452 -2.2163e-19)
(0.705902 0.169435 1.72716e-19)
(0.0408397 0.121791 4.80895e-19)
(0.109514 0.257554 -2.90469e-19)
(0.179893 0.317755 4.34407e-20)
(0.243116 0.334118 5.08516e-19)
(0.298085 0.328181 2.02016e-19)
(0.346334 0.312744 2.50335e-19)
(0.389149 0.294521 2.49186e-19)
(0.427498 0.276488 5.28354e-19)
(0.462104 0.259699 -1.21036e-19)
(0.493502 0.244381 2.89075e-19)
(0.522107 0.230472 4.19887e-19)
(0.548259 0.217833 1.54629e-19)
(0.572242 0.206322 2.7988e-19)
(0.594298 0.195813 1.01503e-19)
(0.614631 0.186199 5.95817e-20)
(0.63342 0.177391 -4.32505e-20)
(0.650859 0.169301 3.46821e-19)
(0.667155 0.161832 2.13678e-19)
(0.682297 0.154936 -1.94314e-19)
(0.695775 0.14876 1.83236e-19)
(0.0322625 0.104993 -3.19537e-19)
(0.091743 0.221494 3.58925e-20)
(0.158316 0.272794 -9.22778e-20)
(0.220654 0.286475 -2.8044e-19)
(0.276188 0.281131 -1.48406e-19)
(0.325605 0.267747 -2.6992e-19)
(0.369747 0.252051 1.25593e-19)
(0.40939 0.236563 -4.85243e-19)
(0.445191 0.222164 2.86586e-19)
(0.477674 0.209038 -3.96218e-19)
(0.507262 0.197126 -2.45927e-19)
(0.534306 0.186307 -3.25424e-19)
(0.559104 0.176458 7.45397e-20)
(0.581908 0.167471 -7.35842e-20)
(0.602933 0.159253 8.77875e-20)
(0.622366 0.151727 4.72e-20)
(0.6404 0.14482 9.37759e-20)
(0.657232 0.138449 -7.85713e-19)
(0.672889 0.132568 3.90919e-19)
(0.687013 0.127271 -2.34411e-19)
(0.0249431 0.0872401 1.05754e-19)
(0.0766369 0.183673 2.13512e-19)
(0.140023 0.225892 -1.39286e-19)
(0.201647 0.23697 3.44063e-19)
(0.257684 0.232377 -5.51028e-20)
(0.308105 0.221206 3.98267e-19)
(0.353378 0.208175 7.70691e-20)
(0.394119 0.195346 -8.07932e-20)
(0.430932 0.183433 2.94147e-19)
(0.464334 0.17258 2.24764e-19)
(0.494754 0.162736 8.33904e-20)
(0.522554 0.153798 1.09587e-19)
(0.548042 0.145665 5.49303e-20)
(0.571479 0.138247 -2.3323e-19)
(0.593089 0.131466 -3.24205e-20)
(0.613066 0.125258 2.43343e-19)
(0.631602 0.119563 -1.66313e-19)
(0.648884 0.114316 -7.81245e-21)
(0.664978 0.109471 -3.47994e-19)
(0.679652 0.105086 7.00803e-19)
(0.0189743 0.0686916 2.83855e-19)
(0.0643566 0.144391 -3.40651e-19)
(0.125182 0.17738 1.59847e-19)
(0.186251 0.185924 -2.26004e-19)
(0.242714 0.182213 1.99478e-19)
(0.293957 0.173387 -3.46265e-19)
(0.340151 0.163134 -2.53593e-19)
(0.381783 0.153058 1.89829e-20)
(0.419417 0.14371 -3.45564e-19)
(0.453563 0.135198 -2.15629e-19)
(0.484658 0.12748 -3.7323e-19)
(0.51307 0.120475 -1.24467e-20)
(0.539117 0.114102 -1.44878e-19)
(0.563067 0.108291 3.66725e-19)
(0.585151 0.102981 2.52647e-19)
(0.605568 0.0981211 -8.48846e-20)
(0.624508 0.0936648 -7.66958e-20)
(0.642153 0.0895619 -3.44413e-21)
(0.658601 0.0857729 9.48646e-21)
(0.673724 0.0823299 1.38511e-19)
(0.0144312 0.0495159 -7.10066e-20)
(0.0550319 0.10396 -2.43096e-19)
(0.113931 0.127604 -1.51582e-19)
(0.174593 0.133667 -9.48606e-20)
(0.231388 0.130942 -1.96581e-19)
(0.28326 0.124563 3.36878e-19)
(0.330153 0.117176 -3.6128e-20)
(0.372461 0.109927 -8.10995e-20)
(0.410717 0.103206 3.29179e-21)
(0.445428 0.097088 2.38226e-19)
(0.477033 0.0915422 -2.26299e-19)
(0.505909 0.0865098 2.21346e-19)
(0.532379 0.0819328 1.03878e-19)
(0.556717 0.07776 -1.89338e-19)
(0.57916 0.0739478 4.13993e-20)
(0.59991 0.0704594 1.21707e-19)
(0.619156 0.0672619 4.2335e-20)
(0.637075 0.0643195 -2.94528e-20)
(0.65379 0.061602 -2.55891e-19)
(0.669256 0.0591253 2.03736e-19)
(0.0113707 0.0298876 6.40708e-20)
(0.0487609 0.0627001 7.7754e-20)
(0.106373 0.0769169 2.18638e-20)
(0.166769 0.0805383 -1.64667e-20)
(0.223791 0.0788733 4.6953e-20)
(0.276087 0.0750169 7.18114e-20)
(0.323451 0.0705599 2.72332e-20)
(0.366213 0.0661895 3.32299e-20)
(0.404888 0.0621393 -7.06568e-20)
(0.439977 0.0584539 1.32398e-19)
(0.471925 0.0551135 -3.12761e-20)
(0.501113 0.0520828 -2.52972e-21)
(0.527866 0.0493268 3.17475e-20)
(0.552465 0.0468145 3.57971e-20)
(0.575148 0.0445196 -9.61849e-20)
(0.596122 0.04242 6.32907e-20)
(0.615572 0.0404959 4.15058e-20)
(0.633675 0.038726 3.54401e-20)
(0.65057 0.0370913 7.59624e-20)
(0.666266 0.0355986 3.14339e-20)
(0.00983113 0.00998583 -1.31215e-20)
(0.0456094 0.0209406 2.72695e-20)
(0.102577 0.0256814 -3.81575e-20)
(0.162842 0.0268846 2.39813e-20)
(0.219979 0.0263247 1.40784e-20)
(0.272489 0.0250348 6.30892e-21)
(0.320089 0.0235457 1.48935e-20)
(0.36308 0.0220861 -4.26981e-20)
(0.401964 0.0207338 2.72372e-20)
(0.437244 0.0195036 9.52001e-21)
(0.469364 0.0183886 -5.58673e-22)
(0.498708 0.0173771 5.84917e-20)
(0.525604 0.0164573 -1.77517e-20)
(0.550334 0.015619 -1.70028e-20)
(0.573138 0.0148533 -1.63407e-20)
(0.594224 0.0141528 2.53414e-21)
(0.613776 0.0135109 -2.18342e-20)
(0.631971 0.0129207 4.1717e-21)
(0.648957 0.0123755 8.20652e-22)
(0.664769 0.0118772 -2.77043e-21)
(0.00983157 -0.0100073 8.33362e-21)
(0.0456104 -0.0209858 -4.43527e-20)
(0.102578 -0.0257375 5.28738e-20)
(0.162843 -0.0269444 -3.97383e-20)
(0.219981 -0.0263844 -1.8548e-20)
(0.272491 -0.0250928 5.55352e-20)
(0.320091 -0.0236014 4.62763e-21)
(0.363082 -0.0221394 1.28852e-21)
(0.401966 -0.0207849 2.59465e-20)
(0.437245 -0.0195524 1.34117e-20)
(0.469365 -0.0184353 -1.05967e-20)
(0.498709 -0.0174218 -3.71657e-20)
(0.525606 -0.0165002 3.5356e-21)
(0.550335 -0.0156601 -3.23758e-21)
(0.573139 -0.0148926 3.46507e-20)
(0.594225 -0.0141906 -2.08508e-20)
(0.613777 -0.0135472 2.85914e-20)
(0.631972 -0.0129555 -4.28551e-20)
(0.648958 -0.0124089 5.01838e-23)
(0.66477 -0.0119093 -9.01756e-21)
(0.0113721 -0.0299091 -2.76835e-20)
(0.0487638 -0.0627453 1.39641e-19)
(0.106377 -0.0769731 9.40974e-20)
(0.166773 -0.0805981 6.2265e-20)
(0.223796 -0.078933 7.77311e-20)
(0.276092 -0.0750748 -1.88933e-20)
(0.323455 -0.0706155 8.61436e-20)
(0.366218 -0.0662428 1.76229e-20)
(0.404892 -0.0621903 -7.71644e-21)
(0.439981 -0.0585027 -6.14857e-20)
(0.471929 -0.0551602 6.3756e-20)
(0.501117 -0.0521275 -8.65785e-20)
(0.52787 -0.0493696 6.29029e-20)
(0.552469 -0.0468555 7.20443e-20)
(0.575152 -0.0445589 9.52756e-20)
(0.596126 -0.0424577 -6.26211e-20)
(0.615576 -0.0405321 1.76647e-20)
(0.633678 -0.0387607 6.60767e-20)
(0.650574 -0.0371246 -6.24929e-20)
(0.66627 -0.0356305 4.7127e-20)
(0.0144334 -0.0495374 -2.67549e-19)
(0.0550366 -0.104005 -1.34356e-19)
(0.113937 -0.12766 -1.49419e-19)
(0.1746 -0.133727 -1.17705e-20)
(0.231395 -0.131001 -8.05969e-20)
(0.283267 -0.124621 -9.88078e-20)
(0.33016 -0.117232 1.74572e-19)
(0.372468 -0.10998 8.89353e-20)
(0.410724 -0.103256 1.0951e-19)
(0.445435 -0.0971367 -1.19017e-19)
(0.47704 -0.0915888 8.81795e-20)
(0.505916 -0.0865544 1.07542e-19)
(0.532386 -0.0819755 3.78896e-20)
(0.556724 -0.0778009 -3.60151e-20)
(0.579166 -0.0739869 7.71848e-21)
(0.599917 -0.070497 -1.55599e-20)
(0.619162 -0.0672979 -1.52075e-19)
(0.637081 -0.064354 2.35984e-20)
(0.653796 -0.0616351 1.47699e-19)
(0.669262 -0.0591571 -1.98369e-19)
(0.0189775 -0.0687132 -8.79422e-20)
(0.0643633 -0.144437 1.30479e-19)
(0.12519 -0.177436 3.01645e-20)
(0.186261 -0.185984 -5.63206e-20)
(0.242724 -0.182273 -1.59337e-19)
(0.293967 -0.173445 -3.41377e-19)
(0.340161 -0.163189 -3.24854e-19)
(0.381793 -0.153111 -2.33274e-20)
(0.419427 -0.14376 -1.88892e-19)
(0.453573 -0.135247 -2.82453e-19)
(0.484667 -0.127526 2.1902e-19)
(0.51308 -0.120519 -3.23003e-19)
(0.539126 -0.114145 6.41129e-20)
(0.563076 -0.108332 -2.05915e-20)
(0.58516 -0.10302 -6.76114e-20)
(0.605577 -0.0981585 -8.5395e-20)
(0.624517 -0.0937006 1.38609e-19)
(0.642162 -0.0895962 1.10699e-19)
(0.658609 -0.0858058 1.902e-19)
(0.673733 -0.0823614 -2.84633e-19)
(0.0249472 -0.0872618 4.77422e-20)
(0.0766456 -0.183719 4.63406e-19)
(0.140034 -0.225948 1.32653e-19)
(0.201659 -0.23703 3.20743e-19)
(0.257697 -0.232437 -1.19854e-19)
(0.308118 -0.221264 1.84434e-19)
(0.353391 -0.208231 -5.79102e-20)
(0.394132 -0.195399 3.73893e-19)
(0.430945 -0.183484 -1.92318e-19)
(0.464347 -0.172629 2.26658e-19)
(0.494767 -0.162782 1.96719e-19)
(0.522567 -0.153842 2.10259e-19)
(0.548054 -0.145708 -1.88106e-19)
(0.571491 -0.138287 1.61331e-19)
(0.593101 -0.131504 -2.2428e-19)
(0.613078 -0.125295 -6.16322e-20)
(0.631613 -0.119599 -1.47539e-19)
(0.648895 -0.11435 -6.26207e-20)
(0.664989 -0.109504 2.48344e-19)
(0.679663 -0.105118 -4.11096e-19)
(0.0322675 -0.105015 -1.91579e-19)
(0.0917537 -0.22154 -2.24966e-20)
(0.15833 -0.272851 -7.63209e-20)
(0.220669 -0.286535 -2.68426e-19)
(0.276204 -0.28119 4.57759e-20)
(0.325621 -0.267804 -4.20161e-19)
(0.369763 -0.252106 -1.76452e-19)
(0.409406 -0.236616 -1.36274e-20)
(0.445207 -0.222214 -4.43789e-19)
(0.477689 -0.209086 -1.3766e-19)