1.275 	2.15223e-18 	-2.76991e-20 	-0.12811 	-0.0319822 	-2.63452e-22
1.825 	2.15223e-18 	-1.39322e-20 	-0.264574 	-0.0491395 	3.57202e-21
2.375 	2.15223e-18 	-2.66896e-23 	-0.259256 	0.0744531 	-1.54636e-21
