/*--------------------------------*- C++ -*----------------------------------*\
  =========                 |
  \\      /  F ield         | OpenFOAM: The Open Source CFD Toolbox
   \\    /   O peration     | Website:  https://openfoam.org
    \\  /    A nd           | Version:  6.0
     \\/     M anipulation  |
\*---------------------------------------------------------------------------*/
FoamFile
{
    version     2.0;
    format      ascii;
    class       volScalarField;
    location    "52";
    object      p;
}
// * * * * * * * * * * * * * * * * * * * * * * * * * * * * * * * * * * * * * //

dimensions      [0 2 -2 0 0 0 0];

internalField   nonuniform List<scalar> 
8000
(
-0.246057
-0.24692
-0.247492
-0.247908
-0.248255
-0.248545
-0.24879
-0.249002
-0.249188
-0.249356
-0.24951
-0.249655
-0.249796
-0.249936
-0.25008
-0.250237
-0.250409
-0.25055
-0.250634
-0.251147
-0.246337
-0.247183
-0.247742
-0.248149
-0.248487
-0.248768
-0.249005
-0.24921
-0.24939
-0.249553
-0.249704
-0.249847
-0.249988
-0.250129
-0.250276
-0.250439
-0.250619
-0.250771
-0.25087
-0.251398
-0.246705
-0.247533
-0.248079
-0.248473
-0.248797
-0.249064
-0.249287
-0.249478
-0.249646
-0.249796
-0.249936
-0.250068
-0.2502
-0.250334
-0.250476
-0.250636
-0.250817
-0.250974
-0.251079
-0.251619
-0.247158
-0.24797
-0.248501
-0.248878
-0.249183
-0.249431
-0.249633
-0.249804
-0.24995
-0.25008
-0.250199
-0.250312
-0.250425
-0.250542
-0.25067
-0.250818
-0.250991
-0.251144
-0.251247
-0.251793
-0.247695
-0.248492
-0.249006
-0.249363
-0.249645
-0.249867
-0.250042
-0.250183
-0.2503
-0.2504
-0.250489
-0.250573
-0.250656
-0.250746
-0.250847
-0.250973
-0.251127
-0.251267
-0.251356
-0.251903
-0.248318
-0.2491
-0.249595
-0.249928
-0.250181
-0.250371
-0.250511
-0.250615
-0.250694
-0.250754
-0.250802
-0.250844
-0.250886
-0.250935
-0.250997
-0.251086
-0.25121
-0.251323
-0.251389
-0.251929
-0.249027
-0.249796
-0.250269
-0.250574
-0.250793
-0.250943
-0.251041
-0.251099
-0.251129
-0.251139
-0.251134
-0.251122
-0.251109
-0.251102
-0.25111
-0.251147
-0.251224
-0.251296
-0.251323
-0.25185
-0.249829
-0.250583
-0.251032
-0.251304
-0.251482
-0.251586
-0.251632
-0.251636
-0.251608
-0.251556
-0.251487
-0.251407
-0.251323
-0.251243
-0.251178
-0.251144
-0.251155
-0.251168
-0.251139
-0.251642
-0.250728
-0.251467
-0.251888
-0.25212
-0.252251
-0.252301
-0.252289
-0.25223
-0.252134
-0.25201
-0.251863
-0.251701
-0.251529
-0.251358
-0.251199
-0.251072
-0.250993
-0.250923
-0.250816
-0.251283
-0.251734
-0.252454
-0.252841
-0.253029
-0.253105
-0.253095
-0.253016
-0.252886
-0.252714
-0.252507
-0.252271
-0.252012
-0.251737
-0.251454
-0.251177
-0.25093
-0.250733
-0.250548
-0.250333
-0.250748
-0.252858
-0.253553
-0.2539
-0.254035
-0.25405
-0.253971
-0.253819
-0.25361
-0.253354
-0.253057
-0.252722
-0.252355
-0.251959
-0.251545
-0.251126
-0.250727
-0.250377
-0.250038
-0.249674
-0.250011
-0.254112
-0.254773
-0.255071
-0.255145
-0.25509
-0.254936
-0.254704
-0.254411
-0.254065
-0.253672
-0.253232
-0.252746
-0.252217
-0.251653
-0.251065
-0.250482
-0.249935
-0.249392
-0.248822
-0.249042
-0.255508
-0.256124
-0.256363
-0.256366
-0.256232
-0.255994
-0.255676
-0.255294
-0.254855
-0.254363
-0.253813
-0.253204
-0.252534
-0.251804
-0.251024
-0.250222
-0.249432
-0.248621
-0.247766
-0.247808
-0.257062
-0.257618
-0.257785
-0.257705
-0.257482
-0.257151
-0.256739
-0.256263
-0.255729
-0.255136
-0.254478
-0.253745
-0.25293
-0.252027
-0.251037
-0.249984
-0.2489
-0.247746
-0.2465
-0.246269
-0.258787
-0.259266
-0.259346
-0.259169
-0.258842
-0.258408
-0.257894
-0.257318
-0.256686
-0.255993
-0.255228
-0.254375
-0.253418
-0.25234
-0.251131
-0.249802
-0.248377
-0.2468
-0.245026
-0.244376
-0.260699
-0.261081
-0.261056
-0.260764
-0.260318
-0.259766
-0.259138
-0.258454
-0.257718
-0.256923
-0.256054
-0.255087
-0.253996
-0.25275
-0.251324
-0.249708
-0.247908
-0.245832
-0.243379
-0.242106
-0.262815
-0.263079
-0.262926
-0.2625
-0.261914
-0.261225
-0.260467
-0.259661
-0.258812
-0.257911
-0.256937
-0.255861
-0.254646
-0.253248
-0.251621
-0.24973
-0.247553
-0.244948
-0.241689
-0.239526
-0.265154
-0.265275
-0.264971
-0.264385
-0.263637
-0.262787
-0.261878
-0.260933
-0.259956
-0.258938
-0.257854
-0.256672
-0.255346
-0.253819
-0.252022
-0.249888
-0.247359
-0.244229
-0.240046
-0.236577
-0.26774
-0.267691
-0.267209
-0.266436
-0.265496
-0.26446
-0.263375
-0.262267
-0.261144
-0.259995
-0.258798
-0.257518
-0.256106
-0.254497
-0.252604
-0.25032
-0.247517
-0.243837
-0.238411
-0.232843
-0.270602
-0.270354
-0.269664
-0.268673
-0.26751
-0.266258
-0.26497
-0.263675
-0.262386
-0.261095
-0.259786
-0.258433
-0.257002
-0.255449
-0.25372
-0.251741
-0.24939
-0.246198
-0.240928
-0.234737
-0.273777
-0.273296
-0.272363
-0.271122
-0.269706
-0.268208
-0.266689
-0.265185
-0.263711
-0.262269
-0.260854
-0.25946
-0.258088
-0.25676
-0.255538
-0.254567
-0.25412
-0.254642
-0.257764
-0.27053
-0.277309
-0.276556
-0.275345
-0.273821
-0.272119
-0.270347
-0.268573
-0.266839
-0.265167
-0.263567
-0.262047
-0.260621
-0.259323
-0.258223
-0.25745
-0.257239
-0.257971
-0.260218
-0.265227
-0.277765
-0.281249
-0.280179
-0.278652
-0.27681
-0.274795
-0.272724
-0.270676
-0.268699
-0.26682
-0.265059
-0.263434
-0.261979
-0.26075
-0.259842
-0.259411
-0.259695
-0.261039
-0.263885
-0.26886
-0.278627
-0.285653
-0.284214
-0.282331
-0.280141
-0.277785
-0.275396
-0.27306
-0.27083
-0.268739
-0.266814
-0.265082
-0.263585
-0.262389
-0.261594
-0.261347
-0.261842
-0.263325
-0.266063
-0.270327
-0.277338
-0.29058
-0.288714
-0.286434
-0.283866
-0.281147
-0.278423
-0.275789
-0.2733
-0.270991
-0.268892
-0.267033
-0.265457
-0.264226
-0.263426
-0.263169
-0.263588
-0.264823
-0.266991
-0.270184
-0.274672
-0.296088
-0.293731
-0.291012
-0.288038
-0.284937
-0.281867
-0.278925
-0.276168
-0.273628
-0.271333
-0.269307
-0.267587
-0.266221
-0.26527
-0.264806
-0.264903
-0.265619
-0.266974
-0.268989
-0.271427
-0.30223
-0.299315
-0.296117
-0.292712
-0.289213
-0.285784
-0.282523
-0.279481
-0.276683
-0.274148
-0.271892
-0.269936
-0.26831
-0.26705
-0.266194
-0.265771
-0.26579
-0.266227
-0.267074
-0.267908
-0.309051
-0.305509
-0.301792
-0.297936
-0.294023
-0.290222
-0.286624
-0.283267
-0.280165
-0.277323
-0.274743
-0.272432
-0.270404
-0.268676
-0.267263
-0.26617
-0.265388
-0.264882
-0.264637
-0.26424
-0.316584
-0.312347
-0.308078
-0.303751
-0.29941
-0.295216
-0.29125
-0.28753
-0.284053
-0.280808
-0.277785
-0.27498
-0.272399
-0.27005
-0.26794
-0.266071
-0.26443
-0.262997
-0.261751
-0.260374
-0.324849
-0.319854
-0.315002
-0.310189
-0.3054
-0.300785
-0.296401
-0.292244
-0.288291
-0.284519
-0.28091
-0.277461
-0.274177
-0.271071
-0.268154
-0.265435
-0.262914
-0.260581
-0.258421
-0.25622
-0.333842
-0.328035
-0.322578
-0.317263
-0.312001
-0.306919
-0.302044
-0.297347
-0.292789
-0.288341
-0.28399
-0.279742
-0.275618
-0.271641
-0.267838
-0.264229
-0.260824
-0.257629
-0.254624
-0.251684
-0.343542
-0.336878
-0.330798
-0.324965
-0.319195
-0.313578
-0.308111
-0.30274
-0.297419
-0.292129
-0.286875
-0.281686
-0.276605
-0.271675
-0.266938
-0.262423
-0.25815
-0.25413
-0.250338
-0.246709
-0.353897
-0.346345
-0.339633
-0.333262
-0.326929
-0.320683
-0.31449
-0.308282
-0.302024
-0.29572
-0.289411
-0.283159
-0.277034
-0.2711
-0.265409
-0.259996
-0.254883
-0.25008
-0.24555
-0.241269
-0.364823
-0.35637
-0.34902
-0.34208
-0.335111
-0.328112
-0.321029
-0.3138
-0.306419
-0.298938
-0.291445
-0.284038
-0.276816
-0.269857
-0.263218
-0.256934
-0.251021
-0.245479
-0.240259
-0.235362
-0.376203
-0.366852
-0.358861
-0.35131
-0.343603
-0.335697
-0.327536
-0.31909
-0.310409
-0.301608
-0.29283
-0.284212
-0.275872
-0.267897
-0.260339
-0.253224
-0.246557
-0.240326
-0.234464
-0.228993
-0.38788
-0.377651
-0.369018
-0.360794
-0.352221
-0.343228
-0.333786
-0.323929
-0.313789
-0.303558
-0.293432
-0.283582
-0.274136
-0.265176
-0.256743
-0.248849
-0.241483
-0.234617
-0.228163
-0.222168
-0.399657
-0.388589
-0.379308
-0.370329
-0.360736
-0.350457
-0.339528
-0.328084
-0.31636
-0.304627
-0.293131
-0.282062
-0.271546
-0.261652
-0.252403
-0.243789
-0.235783
-0.228338
-0.221345
-0.214884
-0.411297
-0.399445
-0.389503
-0.379667
-0.368878
-0.357107
-0.344499
-0.331324
-0.317931
-0.304667
-0.291816
-0.279571
-0.268045
-0.257283
-0.247285
-0.238017
-0.229433
-0.221471
-0.213996
-0.207129
-0.422523
-0.409957
-0.399334
-0.388519
-0.376346
-0.362882
-0.348432
-0.333423
-0.318323
-0.303544
-0.289386
-0.276034
-0.263574
-0.252022
-0.241349
-0.231497
-0.222404
-0.213987
-0.20609
-0.198883
-0.433027
-0.419829
-0.408493
-0.39656
-0.382816
-0.367481
-0.351066
-0.334172
-0.317375
-0.301135
-0.28575
-0.27138
-0.258076
-0.24582
-0.234552
-0.224192
-0.21466
-0.205854
-0.197598
-0.19012
-0.442471
-0.42873
-0.416643
-0.403447
-0.387955
-0.370607
-0.352156
-0.333376
-0.314941
-0.29733
-0.280823
-0.265541
-0.251494
-0.238626
-0.226849
-0.21606
-0.206164
-0.197037
-0.188488
-0.18081
-0.450496
-0.436308
-0.423422
-0.408821
-0.391431
-0.371978
-0.351474
-0.330865
-0.31089
-0.292029
-0.274524
-0.258449
-0.243768
-0.230389
-0.218193
-0.207059
-0.196876
-0.187501
-0.178726
-0.170921
-0.456734
-0.442199
-0.428463
-0.412328
-0.39293
-0.371333
-0.348822
-0.326487
-0.305109
-0.285144
-0.266783
-0.250043
-0.234845
-0.221059
-0.20854
-0.197148
-0.186759
-0.17721
-0.168282
-0.160423
-0.460817
-0.446034
-0.431401
-0.413627
-0.392161
-0.368444
-0.344025
-0.320114
-0.297501
-0.276597
-0.257532
-0.240267
-0.224674
-0.21059
-0.197848
-0.18629
-0.17578
-0.166135
-0.157128
-0.149292
-0.462388
-0.447456
-0.431887
-0.412403
-0.388864
-0.363112
-0.336939
-0.311639
-0.287984
-0.266322
-0.246717
-0.229069
-0.21321
-0.198944
-0.186082
-0.174454
-0.16391
-0.15425
-0.145243
-0.137506
-0.461113
-0.446128
-0.429598
-0.408378
-0.382822
-0.355178
-0.32745
-0.300979
-0.276493
-0.254266
-0.234289
-0.216409
-0.200415
-0.186086
-0.173212
-0.161613
-0.151127
-0.141537
-0.132611
-0.125051
-0.456688
-0.441745
-0.424252
-0.401317
-0.373859
-0.34452
-0.315474
-0.288073
-0.262981
-0.240388
-0.220215
-0.202256
-0.186263
-0.171992
-0.159219
-0.147751
-0.137419
-0.127985
-0.119225
-0.111921
-0.448855
-0.434045
-0.415611
-0.391034
-0.361845
-0.331053
-0.300956
-0.272884
-0.247418
-0.224663
-0.204471
-0.186587
-0.170735
-0.156648
-0.144089
-0.132859
-0.122778
-0.113592
-0.105085
-0.0981161
-0.437401
-0.422816
-0.403493
-0.377399
-0.3467
-0.314733
-0.283874
-0.255398
-0.229794
-0.207081
-0.187047
-0.169396
-0.153824
-0.140048
-0.127821
-0.116938
-0.107208
-0.0983641
-0.0902012
-0.0836457
-0.422172
-0.407904
-0.387775
-0.360334
-0.32839
-0.295554
-0.264232
-0.235623
-0.210117
-0.187648
-0.167948
-0.150685
-0.135533
-0.122197
-0.110421
-0.0999945
-0.0907207
-0.0823187
-0.0745954
-0.0685336
-0.403075
-0.389216
-0.368395
-0.339821
-0.306929
-0.273546
-0.242067
-0.213594
-0.188416
-0.166389
-0.147194
-0.130471
-0.115877
-0.103107
-0.0919013
-0.0820455
-0.0733352
-0.0654793
-0.0582983
-0.0528179
-0.380082
-0.366723
-0.345352
-0.315895
-0.282376
-0.248778
-0.217444
-0.189369
-0.164739
-0.143342
-0.124817
-0.10878
-0.0948774
-0.082799
-0.0722816
-0.0631091
-0.0550717
-0.0478718
-0.0413447
-0.0365407
-0.353226
-0.340462
-0.31871
-0.288647
-0.254835
-0.221352
-0.190458
-0.16303
-0.139157
-0.118567
-0.100865
-0.0856518
-0.0725673
-0.0612991
-0.0515839
-0.0432053
-0.0359502
-0.0295206
-0.0237661
-0.019726
-0.322608
-0.310533
-0.288589
-0.258216
-0.224452
-0.191407
-0.161232
-0.134684
-0.111761
-0.0921401
-0.0754011
-0.0611366
-0.0489849
-0.0386361
-0.02983
-0.0223518
-0.015989
-0.0104497
-0.00558612
-0.00236627
-0.288391
-0.277099
-0.255168
-0.224792
-0.191411
-0.159113
-0.12992
-0.104465
-0.0826666
-0.0641582
-0.0485047
-0.035296
-0.0241751
-0.0148393
-0.00703647
-0.000557689
0.00480306
0.00932821
0.0131861
0.0155393
-0.250795
-0.240379
-0.218676
-0.188608
-0.155934
-0.124676
-0.0967042
-0.0725336
-0.0520127
-0.0347409
-0.0202746
-0.0082079
0.00180622
0.010057
0.0167823
0.0221788
0.0264406
0.0298335
0.0325478
0.0338695
-0.210095
-0.200646
-0.179392
-0.149935
-0.118279
-0.0883284
-0.0617941
-0.0390776
-0.0199649
-0.00403115
0.00916904
0.0200318
0.0288879
0.0360055
0.0416
0.0458524
0.0489404
0.0510759
0.0523862
0.0522406
-0.166614
-0.158218
-0.137632
-0.109082
-0.078733
-0.0503336
-0.0254289
-0.00431241
0.0132841
0.0278031
0.0396869
0.0493171
0.0570014
0.0629764
0.0674236
0.0705028
0.072352
0.0730119
0.0723849
0.0702098
-0.120716
-0.113454
-0.093751
-0.0663857
-0.0376095
-0.010981
0.0121247
0.0315159
0.0475084
0.0605592
0.0711075
0.0795225
0.0860897
0.0910119
0.0944342
0.0964847
0.0971896
0.0962007
0.0930673
0.0887911
-0.0728018
-0.0667468
-0.0481295
-0.022208
0.00475513
0.0294176
0.0505748
0.0681301
0.0824415
0.0939792
0.103185
0.110425
0.115984
0.120063
0.12282
0.1244
0.124707
0.122909
0.118312
0.11366
-0.0232968
-0.0185132
-0.00117024
0.0230727
0.0480096
0.070535
0.0896125
0.105232
0.117785
0.127754
0.135581
0.141639
0.146224
0.149577
0.151937
0.153578
0.154475
0.153666
0.150886
0.154297
0.0273608
0.0308162
0.0467126
0.0690683
0.0917944
0.112037
0.128923
0.142517
0.15324
0.161575
0.16796
0.172762
0.176276
0.178756
0.180457
0.181639
0.182292
0.181954
0.1815
0.187046
0.0787136
0.0807954
0.0950951
0.115385
0.135748
0.15359
0.168192
0.179688
0.188517
0.19516
0.200045
0.203529
0.205905
0.207422
0.208326
0.208836
0.208937
0.208339
0.207935
0.212391
0.130301
0.130976
0.143553
0.161633
0.179512
0.194865
0.207116
0.216458
0.223342
0.228239
0.231563
0.233657
0.234799
0.235226
0.235166
0.234814
0.234167
0.233004
0.232062
0.235047
0.181662
0.18091
0.191665
0.207425
0.222737
0.235542
0.245403
0.252558
0.257465
0.260582
0.262305
0.262957
0.262798
0.262048
0.260907
0.259544
0.257942
0.255907
0.254116
0.255727
0.232343
0.230159
0.239021
0.252386
0.265083
0.275315
0.282771
0.287732
0.290653
0.291977
0.292078
0.29126
0.289763
0.287785
0.285507
0.283068
0.280438
0.277444
0.27473
0.275025
0.281901
0.278292
0.28522
0.296153
0.306223
0.313889
0.318958
0.321741
0.322691
0.322231
0.320716
0.318424
0.315577
0.312354
0.308914
0.305372
0.301689
0.297719
0.294077
0.293127
0.329907
0.324896
0.329877
0.338378
0.345846
0.350986
0.353711
0.35436
0.353377
0.351168
0.348061
0.344318
0.340138
0.335682
0.33109
0.326459
0.321741
0.316818
0.312272
0.310138
0.375949
0.369573
0.372626
0.378731
0.383654
0.386339
0.386792
0.385375
0.382522
0.378617
0.373969
0.368816
0.363341
0.357687
0.351978
0.34629
0.340579
0.334749
0.329337
0.326078
0.419637
0.411948
0.41312
0.416899
0.41937
0.419698
0.417978
0.414586
0.409945
0.40442
0.398297
0.391797
0.385084
0.378286
0.371509
0.364818
0.358169
0.351485
0.345252
0.340933
0.460604
0.451669
0.451034
0.452589
0.45273
0.450829
0.447057
0.441802
0.435476
0.428424
0.420913
0.413143
0.405264
0.397388
0.389609
0.381978
0.374455
0.36698
0.359978
0.354663
0.498509
0.488408
0.486066
0.48553
0.483493
0.479514
0.473833
0.466848
0.458957
0.450487
0.441686
0.432738
0.423777
0.414904
0.406197
0.397699
0.389374
0.381174
0.373459
0.36722
0.533038
0.521864
0.51794
0.515474
0.511434
0.505552
0.498125
0.489558
0.480238
0.470474
0.460495
0.450473
0.440526
0.430744
0.421192
0.411907
0.402857
0.394002
0.385637
0.378552
0.563906
0.551765
0.546407
0.542195
0.536352
0.528761
0.519768
0.509785
0.499185
0.488261
0.477229
0.466244
0.455416
0.444822
0.434517
0.42453
0.414835
0.405399
0.39645
0.388605
0.590863
0.577871
0.571244
0.565495
0.558068
0.548978
0.538615
0.527393
0.515674
0.503736
0.491784
0.47996
0.468362
0.457058
0.446096
0.435499
0.425244
0.415304
0.405843
0.39733
0.613688
0.599971
0.59226
0.585198
0.576425
0.566063
0.554538
0.542265
0.529597
0.516802
0.50407
0.491534
0.479285
0.467382
0.455865
0.444751
0.434025
0.423659
0.413764
0.404682
0.632197
0.617889
0.609291
0.60116
0.59129
0.579895
0.567427
0.554302
0.540865
0.527373
0.514009
0.500897
0.48812
0.475731
0.463764
0.452233
0.441126
0.430416
0.420168
0.410622
0.646239
0.631482
0.622207
0.613261
0.602558
0.590378
0.577193
0.563421
0.549401
0.535382
0.521538
0.507989
0.494812
0.482055
0.469747
0.4579
0.446505
0.435535
0.425017
0.415119
0.655702
0.640642
0.63091
0.621413
0.610147
0.597437
0.58377
0.569563
0.555149
0.540774
0.526608
0.512765
0.499318
0.486314
0.473777
0.461718
0.450129
0.438984
0.428285
0.418148
0.66051
0.645296
0.635331
0.625554
0.614003
0.601024
0.587113
0.572684
0.558071
0.543517
0.529187
0.515195
0.501612
0.488482
0.475829
0.463662
0.451976
0.440742
0.429951
0.419694
0.660625
0.645408
0.635438
0.625655
0.614098
0.601114
0.587198
0.572765
0.558148
0.54359
0.529258
0.515263
0.501677
0.488545
0.47589
0.463722
0.452034
0.4408
0.430007
0.419748
0.656046
0.640978
0.631232
0.621717
0.610433
0.597707
0.584025
0.569805
0.55538
0.540995
0.52682
0.512969
0.499515
0.486504
0.473962
0.461898
0.450304
0.439155
0.428452
0.418311
0.646812
0.632042
0.622743
0.613767
0.603034
0.590826
0.577617
0.563824
0.549785
0.535749
0.521891
0.508329
0.49514
0.482372
0.470055
0.4582
0.446797
0.435821
0.425297
0.415389
0.632996
0.618672
0.61004
0.601867
0.591955
0.580522
0.56802
0.554864
0.541401
0.527887
0.514502
0.501372
0.488578
0.476175
0.464195
0.452652
0.441534
0.430816
0.420558
0.411
0.614713
0.600974
0.593219
0.586105
0.577278
0.566867
0.555298
0.542987
0.530286
0.517461
0.504702
0.492143
0.479873
0.467951
0.456417
0.445288
0.434549
0.424171
0.414265
0.405167
0.592111
0.579093
0.572413
0.566599
0.559107
0.549958
0.539542
0.528273
0.516512
0.504539
0.492555
0.480702
0.469078
0.457752
0.44677
0.436154
0.425883
0.415928
0.406454
0.397922
0.565375
0.553202
0.547782
0.543495
0.537576
0.529914
0.520859
0.510821
0.500173
0.489206
0.478137
0.467119
0.456261
0.445639
0.43531
0.425302
0.415587
0.406135
0.397171
0.389303
0.534722
0.523513
0.519519
0.516966
0.512839
0.506876
0.499378
0.490749
0.481374
0.47156
0.461539
0.451478
0.441497
0.431684
0.422105
0.412795
0.403722
0.394849
0.386465
0.379355
0.500406
0.490265
0.487845
0.487212
0.485076
0.481007
0.475246
0.46819
0.460238
0.451713
0.442863
0.433872
0.424873
0.415965
0.407227
0.398701
0.390351
0.38213
0.374395
0.368127
0.462709
0.45373
0.453009
0.454456
0.45449
0.452489
0.448627
0.443295
0.4369
0.429787
0.422222
0.414405
0.406483
0.398569
0.390755
0.383093
0.375543
0.368044
0.36102
0.355673
0.421945
0.414208
0.415286
0.418948
0.421301
0.42152
0.419703
0.416226
0.411509
0.405918
0.399737
0.393185
0.386425
0.379585
0.37277
0.366045
0.359365
0.352656
0.346399
0.342046
0.378453
0.372026
0.374979
0.380958
0.385753
0.38832
0.388669
0.387159
0.384225
0.380248
0.375536
0.370327
0.364801
0.359103
0.353352
0.347628
0.341883
0.336025
0.330587
0.327292
0.332601
0.327535
0.33241
0.340777
0.348108
0.353122
0.355735
0.356285
0.355215
0.352929
0.349754
0.34595
0.341716
0.337212
0.332576
0.327905
0.323151
0.318198
0.313625
0.311452
0.284777
0.281111
0.287927
0.298718
0.308644
0.316176
0.321125
0.323804
0.324661
0.32412
0.322532
0.320176
0.317271
0.313997
0.31051
0.306926
0.303205
0.299201
0.29553
0.294539
0.235394
0.23315
0.241896
0.255111
0.267656
0.277747
0.285078
0.289928
0.292751
0.293989
0.294015
0.293129
0.291571
0.289539
0.287211
0.284728
0.282057
0.279028
0.276283
0.276535
0.184878
0.184065
0.194699
0.210304
0.225458
0.238115
0.247844
0.254883
0.259688
0.262715
0.264359
0.26494
0.264719
0.263911
0.26272
0.261309
0.259664
0.257592
0.255769
0.257335
0.133673
0.134285
0.146738
0.164658
0.182373
0.197572
0.209687
0.218909
0.225686
0.23049
0.233732
0.235752
0.236829
0.237198
0.237085
0.236684
0.235992
0.234791
0.233815
0.236752
0.0822314
0.0842492
0.0984223
0.118549
0.138742
0.156426
0.170887
0.182258
0.190978
0.197524
0.202325
0.205734
0.208043
0.209501
0.21035
0.210811
0.210866
0.21023
0.209791
0.214195
0.0310133
0.0344037
0.0501722
0.0723614
0.0949143
0.114995
0.131735
0.145201
0.155812
0.164049
0.170348
0.175073
0.17852
0.180939
0.182586
0.183719
0.184327
0.183951
0.183463
0.188954
-0.0195216
-0.0148035
0.00241106
0.0264857
0.0512466
0.0736066
0.0925358
0.108025
0.120464
0.130333
0.138073
0.144053
0.148571
0.151863
0.15417
0.155762
0.156615
0.155769
0.152964
0.156329
-0.0689167
-0.0629273
-0.0444378
-0.0186851
0.00810029
0.0325951
0.053602
0.0710251
0.085221
0.096658
0.105775
0.112939
0.11843
0.12245
0.125155
0.12669
0.126958
0.12513
0.120517
0.115855
-0.116735
-0.109538
-0.0899611
-0.0627638
-0.0341659
-0.00770615
0.0152478
0.0345057
0.050382
0.0633316
0.0737919
0.0821302
0.0886308
0.0934955
0.0968686
0.0988775
0.0995476
0.0985322
0.0953851
0.091108
-0.16255
-0.154218
-0.133757
-0.105373
-0.0752013
-0.0469708
-0.0222183
-0.00123544
0.0162447
0.0306625
0.0424585
0.0520126
0.0596312
0.0655496
0.0699487
0.0729875
0.0748029
0.0754355
0.0747901
0.072611
-0.205963
-0.196578
-0.175444
-0.146151
-0.114671
-0.0848876
-0.0585049
-0.0359218
-0.0169251
-0.00109201
0.012021
0.0228083
0.0315993
0.0386608
0.0442074
0.0484193
0.0514733
0.0535798
0.0548669
0.0547103
-0.246611
-0.236258
-0.214671
-0.184761
-0.15226
-0.121168
-0.0933459
-0.0693077
-0.0489018
-0.0317297
-0.0173497
-0.00535757
0.00459213
0.0127874
0.0194651
0.0248211
0.0290484
0.0324116
0.0351004
0.0364059
-0.28417
-0.27294
-0.25112
-0.220897
-0.187683
-0.155548
-0.126503
-0.101178
-0.0794931
-0.0610829
-0.0455142
-0.0323789
-0.0213213
-0.0120401
-0.00428415
0.00215448
0.00748084
0.011976
0.0158079
0.0181432
-0.318368
-0.306353
-0.284513
-0.254286
-0.220683
-0.187796
-0.157766
-0.131345
-0.108534
-0.0890086
-0.0723526
-0.0581597
-0.0460698
-0.0357742
-0.0270139
-0.019575
-0.0132461
-0.00773633
-0.00289861
0.000303373
-0.348981
-0.336276
-0.314622
-0.284696
-0.251038
-0.217707
-0.186953
-0.159649
-0.135885
-0.115387
-0.0977657
-0.0826221
-0.0695973
-0.0583805
-0.0487096
-0.0403689
-0.0331465
-0.0267456
-0.0210163
-0.0169937
-0.375849
-0.362548
-0.341267
-0.311938
-0.278565
-0.245111
-0.213912
-0.185956
-0.16143
-0.140123
-0.121675
-0.105704
-0.0918589
-0.0798296
-0.0693543
-0.0602179
-0.0522115
-0.0450387
-0.0385356
-0.0337487
-0.398872
-0.385067
-0.364329
-0.335872
-0.303116
-0.26987
-0.238518
-0.210159
-0.18508
-0.163138
-0.144016
-0.127356
-0.112816
-0.100092
-0.0889261
-0.0791039
-0.0704224
-0.0625915
-0.0554326
-0.0499681
-0.418012
-0.403797
-0.383744
-0.356408
-0.324589
-0.29188
-0.260677
-0.232176
-0.206763
-0.184374
-0.164743
-0.147538
-0.132436
-0.119142
-0.107402
-0.0970069
-0.0877589
-0.0793791
-0.0716754
-0.0656277
-0.433299
-0.418767
-0.399511
-0.37351
-0.342924
-0.311074
-0.280325
-0.251948
-0.226431
-0.203792
-0.183821
-0.166224
-0.150697
-0.136959
-0.124765
-0.113908
-0.1042
-0.0953756
-0.0872291
-0.0806852
-0.444826
-0.430067
-0.411692
-0.387197
-0.358108
-0.327421
-0.297424
-0.269442
-0.244055
-0.221367
-0.201232
-0.183397
-0.167584
-0.15353
-0.140999
-0.129792
-0.119728
-0.110557
-0.102063
-0.0951024
-0.452746
-0.437851
-0.42041
-0.397545
-0.370173
-0.340926
-0.311969
-0.284649
-0.259627
-0.237094
-0.216971
-0.199053
-0.183094
-0.168851
-0.1561
-0.14465
-0.134331
-0.124907
-0.116155
-0.108856
-0.457269
-0.44233
-0.425846
-0.404684
-0.3792
-0.351635
-0.323984
-0.297582
-0.273157
-0.250982
-0.231047
-0.213202
-0.197235
-0.182927
-0.170069
-0.158482
-0.148004
-0.138418
-0.129496
-0.121936
-0.458652
-0.443765
-0.428235
-0.408798
-0.385318
-0.359631
-0.333522
-0.30828
-0.284675
-0.263056
-0.243484
-0.225863
-0.210024
-0.195772
-0.182919
-0.171297
-0.160755
-0.151094
-0.142084
-0.134342
-0.457197
-0.442459
-0.42786
-0.410122
-0.388701
-0.365035
-0.340667
-0.316802
-0.294229
-0.273357
-0.254317
-0.23707
-0.221488
-0.207412
-0.194671
-0.183112
-0.172597
-0.162944
-0.153929
-0.146082
-0.453237
-0.438746
-0.425039
-0.408931
-0.389567
-0.368007
-0.345533
-0.323232
-0.301882
-0.281938
-0.263592
-0.246862
-0.231667
-0.217879
-0.205354
-0.193953
-0.183552
-0.173988
-0.165044
-0.157168
-0.447128
-0.432982
-0.420121
-0.405541
-0.388173
-0.368743
-0.348264
-0.327675
-0.307717
-0.288866
-0.271367
-0.25529
-0.240603
-0.227213
-0.215003
-0.203852
-0.193648
-0.184251
-0.175452
-0.167622
-0.439235
-0.425534
-0.41347
-0.400288
-0.384808
-0.367472
-0.349032
-0.330261
-0.31183
-0.294218
-0.277705
-0.262412
-0.248349
-0.235461
-0.22366
-0.212846
-0.20292
-0.193763
-0.18518
-0.17747
-0.429924
-0.416764
-0.40545
-0.393527
-0.379787
-0.364453
-0.348037
-0.331139
-0.314335
-0.298082
-0.282681
-0.268289
-0.254959
-0.242673
-0.231371
-0.220975
-0.211405
-0.202558
-0.194261
-0.186742
-0.419553
-0.407024
-0.396421
-0.385612
-0.373438
-0.359966
-0.345505
-0.330481
-0.315362
-0.300559
-0.286373
-0.272988
-0.260491
-0.248899
-0.238182
-0.228284
-0.219142
-0.210675
-0.202726
-0.195469
-0.408457
-0.39664
-0.386718
-0.376887
-0.366093
-0.354307
-0.34168
-0.328479
-0.315056
-0.301758
-0.288867
-0.276579
-0.265005
-0.254192
-0.244138
-0.234813
-0.22617
-0.218147
-0.21061
-0.203682
-0.396946
-0.385909
-0.376648
-0.367674
-0.358073
-0.347776
-0.33682
-0.325343
-0.313579
-0.301802
-0.290256
-0.279132
-0.268557
-0.2586
-0.249286
-0.240603
-0.232525
-0.225009
-0.217942
-0.211408
-0.385292
-0.375092
-0.366478
-0.358259
-0.349678
-0.340666
-0.331193
-0.321295
-0.311109
-0.300824
-0.290639
-0.280723
-0.271207
-0.262172
-0.253662
-0.245688
-0.238238
-0.231288
-0.224748
-0.218668
-0.373733
-0.364408
-0.356436
-0.348891
-0.341177
-0.333252
-0.325059
-0.316569
-0.307835
-0.298973
-0.290126
-0.281433
-0.273013
-0.264951
-0.257304
-0.250096
-0.243333
-0.237005
-0.231044
-0.225475
-0.362465
-0.354035
-0.346703
-0.339771
-0.332798
-0.325781
-0.318667
-0.311394
-0.303957
-0.29641
-0.28884
-0.28135
-0.274036
-0.26698
-0.260239
-0.25385
-0.247827
-0.242174
-0.236841
-0.231831
-0.351644
-0.344112
-0.337417
-0.331056
-0.324723
-0.318463
-0.312242
-0.305992
-0.299677
-0.293303
-0.286913
-0.28057
-0.274345
-0.268302
-0.262497
-0.256966
-0.251731
-0.246801
-0.242144
-0.237735
-0.341389
-0.33474
-0.328677
-0.322856
-0.317089
-0.311464
-0.305974
-0.300565
-0.29519
-0.28983
-0.284492
-0.279206
-0.274016
-0.268969
-0.264106
-0.259459
-0.255049
-0.250889
-0.246953
-0.243181
-0.331782
-0.325985
-0.320543
-0.315243
-0.30999
-0.304905
-0.300015
-0.295286
-0.290679
-0.286163
-0.281727
-0.277379
-0.27314
-0.269037
-0.265098
-0.261344
-0.257789
-0.254438
-0.251273
-0.248174
-0.322873
-0.317885
-0.313048
-0.308251
-0.303476
-0.298866
-0.294474
-0.290294
-0.286299
-0.282464
-0.278773
-0.275223
-0.27182
-0.26858
-0.265518
-0.262643
-0.259957
-0.257455
-0.255118
-0.252741
-0.314687
-0.310451
-0.306196
-0.301889
-0.297567
-0.293386
-0.289422
-0.285688
-0.282177
-0.278877
-0.275776
-0.272871
-0.27017
-0.267682
-0.265418
-0.263382
-0.261566
-0.259949
-0.258511
-0.256943
-0.307222
-0.303677
-0.299974
-0.296141
-0.292254
-0.288475
-0.284889
-0.281528
-0.278403
-0.275514
-0.272862
-0.270455
-0.268306
-0.266437
-0.264864
-0.263596
-0.262628
-0.261926
-0.261473
-0.260871
-0.300458
-0.297537
-0.294354
-0.290977
-0.287511
-0.284113
-0.280875
-0.27784
-0.27503
-0.272457
-0.270136
-0.268088
-0.266344
-0.264942
-0.263922
-0.263318
-0.263142
-0.263372
-0.263999
-0.264617
-0.29436
-0.291995
-0.289294
-0.286353
-0.283294
-0.280265
-0.277357
-0.274618
-0.272076
-0.269752
-0.26767
-0.265864
-0.264383
-0.263291
-0.262662
-0.262573
-0.263087
-0.264228
-0.266013
-0.268225
-0.28888
-0.287005
-0.284746
-0.282218
-0.27955
-0.276878
-0.274289
-0.271829
-0.269529
-0.267412
-0.265505
-0.263848
-0.262506
-0.261567
-0.261144
-0.261376
-0.262406
-0.264354
-0.267311
-0.271565
-0.283959
-0.282515
-0.280659
-0.278517
-0.276221
-0.273894
-0.271614
-0.269425
-0.267353
-0.265418
-0.263646
-0.262075
-0.260772
-0.259841
-0.25943
-0.259737
-0.261013
-0.263529
-0.267556
-0.274326
-0.279539
-0.278471
-0.276978
-0.275193
-0.273247
-0.271248
-0.269267
-0.26734
-0.26549
-0.263728
-0.262071
-0.260548
-0.259216
-0.258175
-0.257581
-0.25768
-0.258819
-0.261443
-0.266187
-0.275713
-0.27556
-0.274819
-0.273652
-0.272192
-0.270569
-0.268878
-0.26718
-0.265506
-0.263871
-0.262278
-0.260732
-0.259244
-0.257849
-0.256618
-0.255686
-0.255291
-0.255822
-0.257854
-0.262644
-0.274936
-0.271964
-0.27151
-0.270631
-0.269463
-0.268133
-0.266725
-0.265289
-0.263852
-0.262422
-0.260995
-0.25956
-0.25811
-0.256646
-0.255193
-0.253817
-0.25267
-0.252034
-0.252361
-0.255293
-0.267837
-0.268703
-0.268501
-0.267875
-0.266966
-0.265896
-0.26474
-0.26354
-0.262319
-0.261079
-0.259809
-0.258486
-0.257084
-0.255568
-0.253898
-0.252023
-0.249881
-0.247362
-0.244005
-0.238564
-0.232296
-0.265736
-0.265755
-0.26535
-0.264665
-0.263824
-0.262887
-0.261895
-0.260864
-0.259794
-0.258671
-0.257466
-0.256144
-0.254656
-0.252939
-0.250912
-0.248478
-0.245525
-0.241702
-0.236115
-0.230476
-0.263033
-0.263246
-0.26303
-0.26254
-0.261893
-0.261145
-0.26033
-0.259463
-0.258543
-0.257553
-0.256467
-0.25525
-0.253856
-0.25223
-0.250308
-0.248031
-0.245354
-0.242067
-0.237685
-0.234101
-0.260571
-0.260952
-0.260899
-0.260573
-0.260092
-0.259504
-0.25884
-0.258112
-0.257319
-0.256448
-0.255475
-0.254368
-0.253092
-0.251602
-0.249855
-0.247822
-0.245488
-0.242701
-0.239192
-0.236863
-0.258335
-0.258859
-0.258945
-0.258757
-0.258416
-0.257963
-0.257426
-0.256817
-0.256135
-0.25537
-0.254502
-0.253508
-0.252358
-0.251024
-0.249479
-0.247719
-0.245751
-0.243467
-0.240724
-0.239244
-0.256314
-0.256958
-0.25716
-0.257089
-0.256866
-0.256528
-0.2561
-0.255595
-0.255013
-0.254346
-0.253581
-0.2527
-0.251685
-0.250519
-0.24919
-0.247712
-0.246108
-0.244302
-0.242215
-0.241332
-0.2545
-0.255242
-0.255539
-0.255566
-0.255444
-0.255206
-0.254874
-0.254462
-0.253973
-0.253402
-0.252739
-0.251976
-0.2511
-0.250106
-0.248994
-0.247786
-0.246515
-0.24512
-0.24355
-0.243072
-0.252886
-0.253705
-0.25408
-0.25419
-0.254154
-0.254003
-0.253758
-0.253432
-0.253031
-0.252554
-0.251995
-0.251351
-0.250616
-0.249792
-0.248886
-0.247925
-0.246941
-0.245883
-0.244706
-0.244495
-0.251464
-0.252341
-0.252779
-0.252958
-0.252996
-0.252922
-0.252756
-0.252512
-0.252197
-0.251812
-0.251356
-0.250829
-0.250232
-0.24957
-0.248852
-0.248108
-0.247365
-0.246573
-0.245688
-0.245655
-0.250226
-0.251143
-0.251631
-0.251868
-0.251971
-0.251966
-0.251872
-0.251704
-0.251471
-0.251175
-0.250819
-0.250405
-0.249937
-0.249421
-0.248871
-0.24831
-0.247763
-0.24718
-0.246511
-0.246598
-0.249162
-0.250106
-0.250632
-0.250917
-0.251075
-0.251132
-0.251104
-0.251007
-0.25085
-0.250638
-0.250375
-0.250066
-0.249715
-0.249329
-0.248922
-0.248513
-0.248124
-0.247701
-0.247196
-0.247366
-0.248263
-0.249221
-0.249776
-0.2501
-0.250306
-0.250416