/*--------------------------------*- C++ -*----------------------------------*\
  =========                 |
  \\      /  F ield         | OpenFOAM: The Open Source CFD Toolbox
   \\    /   O peration     | Website:  https://openfoam.org
    \\  /    A nd           | Version:  6.0
     \\/     M anipulation  |
\*---------------------------------------------------------------------------*/
FoamFile
{
    version     2.0;
    format      ascii;
    class       surfaceScalarField;
    location    "52";
    object      phi;
}
// * * * * * * * * * * * * * * * * * * * * * * * * * * * * * * * * * * * * * //

dimensions      [0 3 -1 0 0 0 0];

internalField   nonuniform List<scalar> 
15760
(
-2.34411e-06
6.61087e-06
-4.26676e-06
-8.35764e-06
1.68127e-05
-1.07991e-05
-1.71768e-05
2.46523e-05
-1.58332e-05
-2.80667e-05
3.0587e-05
-1.96971e-05
-4.04217e-05
3.50122e-05
-2.26572e-05
-5.37577e-05
3.82733e-05
-2.49373e-05
-6.77023e-05
4.06668e-05
-2.67221e-05
-8.19837e-05
4.24422e-05
-2.81608e-05
-9.64194e-05
4.3807e-05
-2.93713e-05
-0.000110906
4.49302e-05
-3.04441e-05
-0.000125407
4.59477e-05
-3.14461e-05
-0.000139948
4.69658e-05
-3.24248e-05
-0.000154602
4.80654e-05
-3.34116e-05
-0.000169483
4.93051e-05
-3.44246e-05
-0.000184735
5.07242e-05
-3.54718e-05
-0.000200526
5.23447e-05
-3.65533e-05
-0.000217037
5.41734e-05
-3.76627e-05
-0.000234452
5.62034e-05
-3.87888e-05
-0.000252952
5.84154e-05
-3.99145e-05
6.07882e-05
-4.10208e-05
-0.00027272
-2.29259e-06
8.90346e-06
-8.1807e-06
2.27008e-05
-1.68178e-05
3.32894e-05
-2.74797e-05
4.12489e-05
-3.95663e-05
4.70988e-05
-5.25955e-05
5.13026e-05
-6.61942e-05
5.42654e-05
-8.00872e-05
5.63352e-05
-9.40874e-05
5.78071e-05
-0.000108085
5.89281e-05
-0.00012204
5.99023e-05
-0.00013597
6.08955e-05
-0.000149943
6.20392e-05
-0.000164072
6.34342e-05
-0.000178501
6.51528e-05
-0.000193398
6.72418e-05
-0.000208948
6.97237e-05
-0.000225343
7.25979e-05
-0.000242773
7.58452e-05
7.94432e-05
-0.000261428
-2.24637e-06
1.11498e-05
-8.01602e-06
2.84704e-05
-1.64727e-05
4.17461e-05
-2.68971e-05
5.16733e-05
-3.869e-05
5.88917e-05
-5.13667e-05
6.39794e-05
-6.45484e-05
6.7447e-05
-7.79515e-05
6.97383e-05
-9.13785e-05
7.12341e-05
-0.000104708
7.2258e-05
-0.000117888
7.30824e-05
-0.000130926
7.39332e-05
-0.000143882
7.49947e-05
-0.00015686
7.64128e-05
-0.000170005
7.82972e-05
-0.000183486
8.07237e-05
-0.000197498
8.37351e-05
-0.000212242
8.7342e-05
-0.000227926
9.15289e-05
9.62743e-05
-0.000244757
-2.20722e-06
1.33571e-05
-7.86889e-06
3.41321e-05
-1.61515e-05
5.00287e-05
-2.63351e-05
6.18568e-05
-3.78169e-05
7.03735e-05
-5.01057e-05
7.62682e-05
-6.28124e-05
8.01538e-05
-7.56405e-05
8.25665e-05
-8.83767e-05
8.39703e-05
-0.000100883
8.47639e-05
-0.000113087
8.5287e-05
-0.000124981
8.58271e-05
-0.00013661
8.6624e-05
-0.000148071
8.78728e-05
-0.0001595
8.97265e-05
-0.000171073
9.22968e-05
-0.000182992
9.56542e-05
-0.000195478
9.98278e-05
-0.000208761
0.000104812
0.00011059
-0.000223076
-2.17674e-06
1.55338e-05
-7.74378e-06
3.96991e-05
-1.58625e-05
5.81474e-05
-2.58073e-05
7.18016e-05
-3.69682e-05
8.15344e-05
-4.88442e-05
8.81442e-05
-6.10329e-05
9.23425e-05
-7.32208e-05
9.47543e-05
-8.51738e-05
9.59233e-05
-9.67302e-05
9.63202e-05
-0.000107795
9.63514e-05
-0.000118334
9.63663e-05
-0.000128372
9.66627e-05
-0.00013799
9.74906e-05
-0.000147317
9.90537e-05
-0.000156529
0.000101509
-0.00016584
0.000104965
-0.000175493
0.000109481
-0.000185751
0.00011507
0.000121728
-0.000196889
-2.15596e-06
1.76897e-05
-7.64307e-06
4.51863e-05
-1.56098e-05
6.61141e-05
-2.53205e-05
8.15123e-05
-3.61557e-05
9.23696e-05
-4.76026e-05
9.95911e-05
-5.92437e-05
0.000103984
-7.07454e-05
0.000106256
-8.18496e-05
0.000107027
-9.23657e-05
0.000106836
-0.000102167
0.000106153
-0.000111189
0.000105388
-0.000119427
0.0001049
-0.000126936
0.000105
-0.000133831
0.000105949
-0.000140285
0.000107962
-0.000146521
0.000111202
-0.000152811
0.000115771
-0.00015946
0.000121718
0.000129066
-0.000166797
-2.14486e-06
1.98346e-05
-7.56551e-06
5.06069e-05
-1.539e-05
7.39386e-05
-2.48695e-05
9.09918e-05
-3.53736e-05
0.000102874
-4.63778e-05
0.000110595
-5.74491e-05
0.000115055
-6.82335e-05
0.00011704
-7.84459e-05
0.00011724
-8.78637e-05
0.000116254
-9.63229e-05
0.000114612
-0.000103719
0.000112784
-0.000110006
0.000111188
-0.000115207
0.0001102
-0.000119409
0.000110151
-0.000122774
0.000111327
-0.000125533
0.000113961
-0.000127985
0.000118223
-0.000130488
0.000124221
0.000132023
-0.000133446
-2.14193e-06
2.19765e-05
-7.5048e-06
5.59698e-05
-1.51895e-05
8.16233e-05
-2.44316e-05
0.000100234
-3.45902e-05
0.000113032
-4.51306e-05
0.000121136
-5.56066e-05
0.000125531
-6.56449e-05
0.000127079
-7.49343e-05
0.000126529
-8.32179e-05
0.000124538
-9.029e-05
0.000121685
-9.59981e-05
0.000118492
-0.000100248
0.000115438
-0.000103011
0.000112963
-0.000104336
0.000111477
-0.00010436
0.00011135
-0.000103311
0.000112912
-0.000101515
0.000116427
-9.93908e-05
0.000122098
0.000130071
-9.74387e-05
-2.14383e-06
2.41204e-05
-7.44846e-06
6.12744e-05
-1.49815e-05
8.91564e-05
-2.3962e-05
0.000109214
-3.37398e-05
0.00012281
-4.37735e-05
0.000131169
-5.36075e-05
0.000135365
-6.28541e-05
0.000136325
-7.11792e-05
0.000134854
-7.82933e-05
0.000131652
-8.39478e-05
0.000127339
-8.79376e-05
0.000122482
-9.01082e-05
0.000117608
-9.03689e-05
0.000113224
-8.87099e-05
0.000109818
-8.52221e-05
0.000107863
-8.0115e-05
0.000107805
-7.37322e-05
0.000110044
-6.65589e-05
0.000114924
0.000122728
-5.92161e-05
-2.14528e-06
2.62656e-05
-7.37737e-06
6.65065e-05
-1.47255e-05
9.65045e-05
-2.33911e-05
0.00011788
-3.27174e-05
0.000132137
-4.21602e-05
0.000140612
-5.1261e-05
0.000144466
-5.96243e-05
0.000144689
-6.69005e-05
0.000142131
-7.27736e-05
0.000137525
-7.69562e-05
0.000131522
-7.91902e-05
0.000124716
-7.92555e-05
0.000117674
-7.69856e-05
0.000110954
-7.22924e-05
0.000105124
-6.51962e-05
0.000100766
-5.58608e-05
9.84691e-05
-4.46263e-05
9.88094e-05
-3.20406e-05
0.000102339
0.000109559
-1.88713e-05
-2.13927e-06
2.84049e-05
-7.26626e-06
7.16335e-05
-1.43671e-05
0.000103605
-2.26246e-05
0.000126137
-3.13767e-05
0.000140889
-4.00813e-05
0.000149317
-4.82833e-05
0.000152668
-5.55884e-05
0.000151994
-6.16419e-05
0.000148184
-6.61127e-05
0.000141996
-6.8685e-05
0.000134094
-6.90557e-05
0.000125087
-6.69408e-05
0.000115559
-6.20924e-05
0.000106106
-5.43267e-05
9.73587e-05
-4.3566e-05
9.00057e-05
-2.98915e-05
8.47947e-05
-1.3605e-05
8.25228e-05
4.70392e-06
8.40297e-05
9.01607e-05
2.41022e-05
-2.1176e-06
3.05225e-05
-7.08535e-06
7.66012e-05
-1.38413e-05
0.000110361
-2.15467e-05
0.000133843
-2.95346e-05
0.000148877
-3.72668e-05
0.000157049
-4.42975e-05
0.000159698
-5.02424e-05
0.000157939
-5.47535e-05
0.000152695
-5.75004e-05
0.000144743
-5.81563e-05
0.00013475
-5.63909e-05
0.000123321
-5.18716e-05
0.000111039
-4.42759e-05
9.85099e-05
-3.33195e-05
8.64022e-05
-1.88037e-05
7.549e-05
-6.87158e-07
6.66781e-05
2.08201e-05
6.10156e-05
4.51323e-05
5.97175e-05
6.41411e-05
7.11519e-05
-2.07177e-06
3.25943e-05
-6.80294e-06
8.13324e-05
-1.3077e-05
0.000116635
-2.00283e-05
0.000140794
-2.69806e-05
0.000155829
-3.33987e-05
0.000163467
-3.88474e-05
0.000165147
-4.29575e-05
0.000162049
-4.5399e-05
0.000155137
-4.5858e-05
0.000145202
-4.40197e-05
0.000132912
-3.95546e-05
0.000118856
-3.21122e-05
0.000103597
-2.13242e-05
8.77219e-05
-6.82343e-06
7.19015e-05
1.17115e-05
5.6955e-05
3.44766e-05
4.3913e-05
6.14161e-05
3.40761e-05
9.20283e-05
2.91053e-05
3.10759e-05
0.000125093
-1.99409e-06
3.45884e-05
-6.38878e-06
8.57271e-05
-1.20038e-05
0.00012225
-1.79368e-05
0.000146727
-2.34934e-05
0.000161386
-2.81331e-05
0.000168107
-3.14259e-05
0.00016844
-3.30166e-05
0.00016364
-3.25964e-05
0.000154716
-2.98805e-05
0.000142486
-2.45874e-05
0.000127619
-1.64226e-05
0.000110691
-5.06307e-06
9.22375e-05
9.85153e-06
7.28073e-05
2.87171e-05
5.30359e-05
5.19388e-05
3.37333e-05
7.98623e-05
1.59895e-05
0.000112637
1.30109e-06
0.000149957
-8.21433e-06
-9.5637e-06
0.000190597
-1.87869e-06
3.64671e-05
-5.81719e-06
8.96656e-05
-1.05583e-05
0.000126991
-1.51483e-05
0.000151317
-1.88587e-05
0.000165096
-2.11283e-05
0.000170376
-2.15173e-05
0.000168829
-1.96714e-05
0.000161794
-1.52955e-05
0.00015034
-8.13288e-06
0.000135323
2.05189e-06
0.000117434
1.54901e-05
9.72529e-05
3.24265e-05
7.53011e-05
5.31394e-05
5.20944e-05
7.79583e-05
2.8217e-05
0.000107271
4.42093e-06
0.000141492
-1.8232e-05
0.000180966
-3.81729e-05
0.000225692
-5.29397e-05
-5.85263e-05
0.000274654
-1.7222e-06
3.81893e-05
-5.06919e-06
9.30126e-05
-8.68901e-06
0.000130611
-1.15562e-05
0.000154184
-1.28863e-05
0.000166426
-1.20734e-05
0.000169564
-8.64196e-06
0.000165397
-2.21282e-06
0.000155365
7.52e-06
0.000140608
2.0804e-05
0.000122039
3.78381e-05
0.0001004
5.87818e-05
7.63092e-05
8.37668e-05
5.03161e-05
0.000112915
2.29458e-05
0.000146371
-5.23819e-06
0.000184334
-3.35422e-05
0.000227097
-6.09952e-05
0.00027504
-8.61161e-05
0.000328481
-0.00010638
-0.000116927
0.000386882
-1.52359e-06
3.97129e-05
-4.13239e-06
9.56214e-05
-6.35668e-06
0.000132836
-7.07456e-06
0.000154902
-5.41814e-06
0.00016477
-7.05605e-07
0.000164851
7.60881e-06
0.000157083
1.99676e-05
0.000143006
3.67284e-05
0.000123847
5.81705e-05
0.000100597
8.44942e-05
7.40759e-05
0.000115815
4.49886e-05
0.000152156
1.39745e-05
0.000193452
-1.83497e-05
0.000239558
-5.13445e-05
0.000290298
-8.42818e-05
0.000345533
-0.00011623
0.000405279
-0.000145862
0.000469843
-0.000170945
-0.000186495
0.00053941
-1.28321e-06
4.09961e-05
-2.99812e-06
9.73363e-05
-3.52987e-06
0.000133367
-1.63231e-06
0.000153005
3.67664e-06
0.000159461
1.31896e-05
0.000155338
2.75626e-05
0.00014271
4.73465e-05
0.000123222
7.3002e-05
9.81915e-05
0.000104898
6.87009e-05
0.0001433
3.56736e-05
0.000188348
-5.87362e-08
0.000240022
-3.76995e-05
0.000298111
-7.64393e-05
0.00036218
-0.000115413
0.000431553
-0.000153654
0.000505348
-0.000190026
0.000582605
-0.000223118
0.000662665
-0.000251006
-0.000270537
0.000746708
-1.0008e-06
4.19969e-05
-1.65591e-06
9.79914e-05
-1.74838e-07
0.000131886
4.84181e-06
0.000147988
1.45214e-05
0.000149781
2.9802e-05
0.000140057
5.14881e-05
0.000121024
8.02828e-05
9.44271e-05
0.0001168
6.16747e-05
0.000161558
2.39427e-05
0.000214964
-1.77328e-05
0.000277281
-6.23755e-05
0.000348579
-0.000108997
0.000428669
-0.00015653
0.000517008
-0.000203752
0.000612566
-0.000249213
0.000713676
-0.000291136
0.000817849
-0.000327291
0.000921961
-0.000355117
-0.000375951
0.00102737
-6.7316e-07
4.267e-05
-8.65385e-08
9.74048e-05
3.7575e-06
0.000128042
1.24396e-05
0.000139306
2.7261e-05
0.00013496
4.93338e-05
0.000117985
7.96404e-05
9.07173e-05
0.000119065
5.50028e-05
0.000168403
1.2336e-05
0.000228363
-3.60164e-05
0.000299544
-8.89145e-05
0.000382429
-0.00014526
0.00047735
-0.000203918
0.000584462
-0.000263642
0.000703683
-0.000322973
0.00083457
-0.000380099
0.000976019
-0.000432586
0.00112532
-0.000476594
0.00127497
-0.000504764
-0.000503066
0.00140208
-2.92575e-07
4.29626e-05
1.74334e-06
9.53689e-05
8.34251e-06
0.000121443
2.12917e-05
0.000126357
4.20884e-05
0.000114163
7.2037e-05
8.80359e-05
0.000112308
5.04464e-05
0.000163965
3.34605e-06
0.000227971
-5.16705e-05
0.000305188
-0.000113233
0.000396367
-0.000180094
0.000502162
-0.000251054
0.000623153
-0.00032491
0.000759933
-0.000400422
0.000913267
-0.000476307
0.00108441
-0.000551238
0.00127566
-0.000623841
0.00149172
-0.000692654
0.00174361
-0.000756652
-0.000814396
0.00205494
1.57154e-07
4.28054e-05
3.88923e-06
9.16368e-05
1.36936e-05
0.000111639
3.15828e-05
0.000108468
5.9264e-05
8.64819e-05
9.82368e-05
4.90631e-05
0.000149843
-1.16011e-06
0.000215284
-6.20948e-05
0.000295612
-0.000131998
0.000391716
-0.000209337
0.000504311
-0.000292689
0.000633942
-0.000380685
0.000781018
-0.000471985
0.000945885
-0.00056529
0.00112896
-0.000659385
0.00133095
-0.000753228
0.00155317
-0.000846056
0.00179803
-0.000937516
0.0020691
-0.00102773
-0.00110982
0.00236452
6.96734e-07
4.21087e-05
6.42165e-06
8.59119e-05
1.99522e-05
9.81081e-05
4.35385e-05
8.48813e-05
7.90984e-05
5.0922e-05
0.000128308
-1.46374e-07
0.000192634
-6.5486e-05
0.000273327
-0.000142788
0.000371393
-0.000230065
0.000487559
-0.000325502
0.000622243
-0.000427373
0.000775551
-0.000533993
0.000947296
-0.000643731
0.00113705
-0.000755041
0.0013442
-0.00086654
0.00156807
-0.000977092
0.00180793
-0.00108592
0.00206306
-0.00119265
0.00233243
-0.0012971
-0.00139087
0.00261349
1.3524e-06
4.07563e-05
9.42475e-06
7.78395e-05
2.72806e-05
8.02523e-05
5.74068e-05
5.47551e-05
0.000101914
6.41432e-06
0.00016261
-6.08419e-05
0.000240998
-0.000143874
0.000338245
-0.000240035
0.00045512
-0.00034694
0.000591944
-0.000462326
0.000748554
-0.000583983
0.0009243
-0.00070974
0.00111808
-0.000837508
0.00132838
-0.000965344
0.00155338
-0.00109154
0.00179097
-0.00121468
0.00203882
-0.00133377
0.00229434
-0.00144817
0.00255471
-0.00155747
-0.00165425
0.00281809
2.15228e-06
3.8604e-05
1.29855e-05
6.70063e-05
3.58393e-05
5.73985e-05
7.3418e-05
1.71764e-05
0.000127982
-4.81501e-05
0.000201385
-0.000134245
0.000295035
-0.000237524
0.000409821
-0.00035482
0.000546034
-0.000483153
0.000703312
-0.000619604
0.00088062
-0.000761291
0.00107629
-0.000905405
0.00128808
-0.0010493
0.00151332
-0.00119058
0.00174901
-0.00132723
0.00199195
-0.00145762
0.00223879
-0.00158061
0.00248612
-0.0016955
0.00273061
-0.00180196
-0.00189446
0.00297082
3.12308e-06
3.5481e-05
1.71826e-05
5.29468e-05
4.57628e-05
2.88183e-05
9.17413e-05
-2.88021e-05
0.000157448
-0.000113857
0.000244651
-0.000221447
0.000354469
-0.000347342
0.000487269
-0.000487621
0.000642581
-0.000638465
0.000819068
-0.000796091
0.00101457
-0.000956792
0.00122621
-0.00111705
0.0014506
-0.00127368
0.00168396
-0.00142395
0.00192243
-0.0015657
0.00216216
-0.00169735
0.00239948
-0.00181793
0.002631
-0.00192702
0.00285373
-0.00202469
-0.0021075
0.00306677
4.2871e-06
3.11938e-05
2.20757e-05
3.51583e-05
5.71375e-05
-6.24359e-06
0.000112445
-8.41093e-05
0.000190271
-0.000191683
0.00029211
-0.000323286
0.000418543
-0.000473776
0.000569123
-0.000638201
0.000742318
-0.00081166
0.000935561
-0.000989334
0.0011454
-0.00116663
0.00136775
-0.0013394
0.00159815
-0.00150408
0.00183209
-0.00165789
0.00206525
-0.00179886
0.00229373
-0.00192583
0.00251418
-0.00203838
0.00272386
-0.0021367
0.00292073
-0.00222156
-0.00229135
0.00310457
5.66003e-06
2.55338e-05
2.76978e-05
1.31205e-05
6.99838e-05
-4.85296e-05
0.000135465
-0.00014959
0.000226178
-0.000282396
0.000343098
-0.000440206
0.00048597
-0.000616648
0.00065322
-0.000805451
0.000841987
-0.00100043
0.00104831
-0.00119566
0.00126744
-0.00138576
0.00149423
-0.00156618
0.00172351
-0.00173336
0.00195048
-0.00188486
0.00217097
-0.00201935
0.00238158
-0.00213645
0.00257982
-0.00223662
0.00276405
-0.00232093
0.0029334
-0.00239091
-0.00244651
0.00308856
7.24981e-06
1.8284e-05
3.405e-05
-1.36797e-05
8.42448e-05
-9.87244e-05
0.000160587
-0.000225932
0.000264642
-0.000386452
0.000396569
-0.000572132
0.000554952
-0.000775031
0.000736803
-0.000987301
0.000937753
-0.00120138
0.00115244
-0.00141034
0.00137498
-0.00160831
0.00159955
-0.00179075
0.00182078
-0.00195459
0.00203414
-0.00209822
0.00223614
-0.00222135
0.00242439
-0.0023247
0.00259757
-0.0024098
0.00275527
-0.00247863
0.00289782
-0.00253346
-0.00257542
0.00302674
9.05612e-06
9.22788e-06
4.10992e-05
-4.57228e-05
9.9781e-05
-0.000157406
0.000187441
-0.000313592
0.000304886
-0.000503896
0.000451124
-0.00071837
0.000623271
-0.000947179
0.000816716
-0.00118075
0.00102555
-0.00141021
0.00124319
-0.00162797
0.00146301
-0.00182814
0.00167902
-0.00200676
0.00188623
-0.00216179
0.00208091
-0.00229291
0.00226071
-0.00240114
0.00242448
-0.00248848
0.00257216
-0.00255747
0.00270446
-0.00261093
0.00282269
-0.00265169
-0.00268166
0.00292893
1.10703e-05
-1.84238e-06
4.87767e-05
-8.34293e-05
0.000116369
-0.000224998
0.000215503
-0.000412726
0.000345897
-0.00063429
0.000505078
-0.000877551
0.000688442
-0.00113054
0.000889685
-0.00138199
0.00110151
-0.00162204
0.0013165
-0.00184296
0.00152783
-0.00203947
0.0017299
-0.00220883
0.00191865
-0.00235054
0.00209157
-0.00246583
0.00224761
-0.00255719
0.00238693
-0.00262779
0.00251054
-0.00268108
0.00262004
-0.00272043
0.00271732
-0.00274897
-0.00276907
0.00280473
1.3275e-05
-1.51173e-05
5.69784e-05
-0.000127133
0.000133703
-0.000301723
0.000244109
-0.000523132
0.000386479
-0.000776659
0.000556563
-0.00104764
0.000747907
-0.00132189
0.000952617
-0.0015867
0.00116237
-0.0018318
0.00136943
-0.00205001
0.00156738
-0.00223742
0.00175157
-0.00239302
0.00191921
-0.00251818
0.0020692
-0.00261582
0.0022018
-0.0026898
0.00231826
-0.00274425
0.00242041
-0.00278322
0.00251035
-0.00281037
0.00259024
-0.00282886
-0.00284122
0.00266239
1.56441e-05
-3.07614e-05
6.5565e-05
-0.000177054
0.000151404
-0.000387563
0.000272481
-0.000644208
0.00042531
-0.000929489
0.000603662
-0.00122599
0.000799255
-0.00151748
0.00100291
-0.00179035
0.00120579
-0.00203468
0.00140043
-0.00224466
0.00158137
-0.00241836
0.0017453
-0.00255695
0.00189089
-0.00266376
0.0020184
-0.00274333
0.00212919
-0.00280059
0.00222531
-0.00284037
0.00230905
-0.00286697
0.00238272
-0.00288404
0.00244844
-0.00289459
-0.00290108
0.00250831
1.81424e-05
-4.89038e-05
7.43641e-05
-0.000233275
0.000169027
-0.000482226
0.000299758
-0.00077494
0.000461029
-0.00109076
0.000644553
-0.00140951
0.000840435
-0.00171336
0.00103867
-0.00198859
0.0012305
-0.00222651
0.00140934
-0.00242349
0.00157104
-0.00258006
0.00171383
-0.00269974
0.00183781
-0.00278774
0.00194437
-0.0028499
0.00203572
-0.00289194
0.00211433
-0.00291898
0.00218267
-0.0029353
0.00224298
-0.00294435
0.00229721
-0.00294882
-0.00295097
0.0023471
2.07254e-05
-6.96292e-05
8.31738e-05
-0.000295724
0.00018608
-0.000585131
0.000325049
-0.00091391
0.000492327
-0.00125804
0.00067766
-0.00159484
0.000869921
-0.00190562
0.00105886
-0.00217752
0.00123638
-0.00240404
0.00139719
-0.0025843
0.00153873
-0.0027216
0.00166071
-0.00282172
0.00176446
-0.00289149
0.00185226
-0.00293769
0.00192674
-0.00296643
0.00199058
-0.00298281
0.00204616
-0.00299088
0.00209551
-0.00299371
0.0021403
-0.00299361
-0.00299257
0.00218191
2.33402e-05
-9.29694e-05
9.17689e-05
-0.000364152
0.000202045
-0.000695407
0.000347481
-0.00105935
0.000518042
-0.0014286
0.000701767
-0.00177857
0.000886814
-0.00209067
0.00106328
-0.00235398
0.00122423
-0.00256499
0.00136595
-0.00272602
0.00148746
-0.00284311
0.00158981
-0.00292407
0.00167526
-0.00297694
0.00174663
-0.00300905
0.00180675
-0.00302655
0.00185821
-0.00303427
0.00190318
-0.00303585
0.00194342
-0.00303394
0.00198027
-0.00303047
-0.00302709
0.00201479
2.59266e-05
-0.000118896
9.99097e-05
-0.000438135
0.000216409
-0.000811907
0.000366258
-0.00120919
0.00053724
-0.00159958
0.000716098
-0.00195743
0.000890854
-0.00226543
0.00105249
-0.00251562
0.0011956
-0.0027081
0.00131811
-0.00284852
0.00142049
-0.0029455
0.00150487
-0.00300845
0.00157414
-0.00304621
0.00163134
-0.00306626
0.00167929
-0.00307449
0.00172033
-0.00307532
0.00175637
-0.00307189
0.00178884
-0.00306641
0.00181881
-0.00306043
-0.00305532
0.00184704
2.8419e-05
-0.000147315
0.000107353
-0.00051707
0.000228689
-0.000933242
0.00038071
-0.00136122
0.000549273
-0.00176814
0.000720335
-0.00212849
0.000882363
-0.00242746
0.00102766
-0.00266092
0.00115249
-0.00283293
0.00125637
-0.00295241
0.00134101
-0.00303014
0.00140929
-0.00307673
0.00146442
-0.00310134
0.00150947
-0.0031113
0.00154704
-0.00311206
0.00157921
-0.00310749
0.00160755
-0.00310023
0.0016332
-0.00309206
0.00165698
-0.00308422
-0.0030778
0.00167946
3.07494e-05
-0.000178064
0.000113866
-0.000600186
0.000238462
-0.00105784
0.000390337
-0.00151309
0.000553802
-0.00193161
0.000714596
-0.00228928
0.000862135
-0.00257499
0.000990321
-0.00278911
0.00109711
-0.00293973
0.00118343
-0.00303872
0.00125193
-0.00309863
0.00130594
-0.00313074
0.00134879
-0.00314419
0.00138336
-0.00314588
0.00141199
-0.00314069
0.00143642
-0.00313192
0.00145793
-0.00312174
0.00147741
-0.00311154
0.00149548
-0.00310229
-0.00309485
0.00151253
3.28504e-05
-0.000210915
0.000119233
-0.000686569
0.000245389
-0.00118399
0.000394826
-0.00166253
0.000550794
-0.00208758
0.000699367
-0.00243786
0.000831301
-0.00270693
0.000942226
-0.00290003
0.00103169
-0.00302919
0.00110176
-0.0031088
0.00115575
-0.00315262
0.0011972
-0.00317219
0.00122934
-0.00317633
0.00125479
-0.00317133
0.00127556
-0.00316146
0.00129308
-0.00314944
0.00130836
-0.00313702
0.00132209
-0.00312528
0.00133474
-0.00311494
-0.00310667
0.00134657
3.46612e-05
-0.000245576
0.000123282
-0.00077519
0.000249239
-0.00130995
0.000394073
-0.00180736
0.000540503
-0.00223401
0.000675428
-0.00257278
0.000791209
-0.00282271
0.000885197
-0.00299402
0.000958332
-0.00310232
0.00101357
-0.00316404
0.0010546
-0.00319365
0.00108497
-0.00320256
0.00110768
-0.00319904
0.00112505
-0.0031887
0.00113875
-0.00317515
0.00114993
-0.00316063
0.00115939
-0.00314648
0.00116765
-0.00313354
0.00117505
-0.00312234
-0.0031134
0.00118178
3.61184e-05
-0.000281694
0.000125858
-0.00086493
0.000249861
-0.00143395
0.00038812
-0.00194562
0.000523358
-0.00236924
0.000643699
-0.00269312
0.000743238
-0.00292225
0.000820939
-0.00307172
0.000878897
-0.00316028
0.000920681
-0.00320582
0.000950129
-0.00322309
0.000970656
-0.00322308
0.000984968
-0.00321335
0.000995041
-0.00319878
0.00100224
-0.00318236
0.00100749
-0.00316587
0.00101139
-0.00315038
0.00101435
-0.00313649
0.00101661
-0.0031246
-0.00311509
0.0010183
3.71761e-05
-0.00031887
0.000126871
-0.000954624
0.000247236
-0.00155432
0.0003772
-0.00207559
0.000499991
-0.00249203
0.000605244
-0.00279838
0.000688801
-0.00300581
0.000751068
-0.00313399
0.000795035
-0.00320425
0.000824641
-0.00323543
0.000843705
-0.00324216
0.000855397
-0.00323478
0.000862091
-0.00322005
0.000865444
-0.00320213
0.000866552
-0.00318347
0.000866129
-0.00316545
0.000864639
-0.00314889
0.00086239
-0.00313424
0.000859573
-0.00312178
-0.00311179
0.000856273
3.7796e-05
-0.000356666
0.000126271
-0.0010431
0.000241432
-0.00166948
0.000361662
-0.00219582
0.000471124
-0.0026015
0.000561138
-0.00288839
0.000629223
-0.00307389
0.000677005
-0.00318177
0.000708126
-0.00323537
0.00072669
-0.00325399
0.000736364
-0.00325183
0.000740016
-0.00323843
0.000739686
-0.00321972
0.000736732
-0.00319918
0.00073202
-0.00317875
0.000726099
-0.00315953
0.000719324
-0.00314211
0.000711933
-0.00312685
0.000704072
-0.00311392
-0.00310352
0.000695802
3.79516e-05
-0.000394618
0.000124054
-0.0011292
0.000232602
-0.00177803
0.000341944
-0.00230516
0.000437526
-0.00269708
0.000512428
-0.00296329
0.000565705
-0.00312717
0.000599976
-0.00321604
0.000619308
-0.0032547
0.000627808
-0.00326249
0.000628903
-0.00325293
0.000625131
-0.00323466
0.000618213
-0.0032128
0.000609246
-0.00319021
0.000598901
-0.00316841
0.000587595
-0.00314822
0.000575601
-0.00313012
0.000563104
-0.00311436
0.000550219
-0.00310104
-0.0030903
0.000536995
3.76285e-05
-0.000432247
0.00012026
-0.00121183
0.000220965
-0.00187873
0.000318542
-0.00240274
0.000399975
-0.00277851
0.000460095
-0.00302341
0.000499315
-0.00316639
0.000521018
-0.00323774
0.000529506
-0.00326319
0.000528762
-0.00326175
0.000521923
-0.00324609
0.000511195
-0.00322393
0.000498008
-0.00319961
0.000483232
-0.00317543
0.00046738
-0.00315256
0.000450764
-0.00313161
0.000433592
-0.00311295
0.00041601
-0.00309677
0.000398116
-0.00308314
-0.00307213
0.000379951
3.6824e-05
-0.000469071
0.000114962
-0.00128997
0.000206787
-0.00197056
0.000291977
-0.00248793
0.000359224
-0.00284576
0.000405031
-0.00306922
0.000430974
-0.00319233
0.000440991
-0.00324776
0.000439456
-0.00326166
0.000430146
-0.00325244
0.000415878
-0.00323182
0.000398544
-0.00320659
0.000379315
-0.00318038
0.000358871
-0.00315499
0.000337596
-0.00313128
0.000315719
-0.00310973
0.000293396
-0.00309062
0.000270745
-0.00307412
0.000247853
-0.00306025
-0.00304904
0.000224762
3.55467e-05
-0.000504617
0.000108267
-0.00136269
0.000190367
-0.00205266
0.000262774
-0.00256033
0.000315976
-0.00289896
0.00034803
-0.00310127
0.000361469
-0.00320577
0.000360599
-0.00324689
0.000349745
-0.0032508
0.000332417
-0.00323511
0.000311109
-0.00321051
0.000287425
-0.00318291
0.000262314
-0.00315527
0.000236298
-0.00312897
0.000209657
-0.00310464
0.000182552
-0.00308263
0.000155097
-0.00306317
0.000127389
-0.00304641
9.95106e-05
-0.00303237
-0.00302104
7.15083e-05
3.38149e-05
-0.000538432
0.0001003
-0.00142918
0.00017202
-0.00212438
0.000231444
-0.00261976
0.000270879
-0.0029384
0.000289785
-0.00312018
0.000291461
-0.00320745
0.000280418
-0.00323585
0.000260835
-0.00323122
0.000235926
-0.0032102
0.000207874
-0.00318246
0.000178025
-0.00315306
0.000147139
-0.00312439
0.000115614
-0.00309745
8.36458e-05
-0.00307267
5.13364e-05
-0.00305032
1.87639e-05
-0.00303059
-1.39908e-05
-0.00301366
-4.68436e-05
-0.00299952
-0.00298815
-7.97368e-05
3.16555e-05
-0.000570088
9.12053e-05
-0.00148873
0.000152062
-0.00218523
0.000198468
-0.00266616
0.000224513
-0.00296444
0.000230898
-0.00312657
0.000221503
-0.00319805
0.000200912
-0.00321526
0.000173093
-0.0032034
0.00014095
-0.00317806
0.000106373
-0.00314788
7.04842e-05
-0.00311717
3.3893e-05
-0.00308779
-3.10346e-06
-0.00306045
-4.03778e-05
-0.0030354
-7.78761e-05
-0.00301282
-0.000115554
-0.00299292
-0.000153346
-0.00297587
-0.00019116
-0.00296171
-0.00295038
-0.000228922
2.91025e-05
-0.00059919
8.11353e-05
-0.00154076
0.000130808
-0.00223491
0.000164294
-0.00269965
0.000177396
-0.00297754
0.000171883
-0.00312105
0.000152055
-0.00317822
0.000122463
-0.00318566
8.68159e-05
-0.00316775
4.77084e-05
-0.00313895
6.76575e-06
-0.00310694
-3.50804e-05
-0.00307533
-7.73422e-05
-0.00304553
-0.000119797
-0.003018
-0.000162371
-0.00299283
-0.000205054
-0.00297014
-0.000247834
-0.00295014
-0.000290661
-0.00293304
-0.000333432
-0.00291894
-0.00290777
-0.000376046
2.61955e-05
-0.000625386
7.02476e-05
-0.00158481
0.000108559
-0.00227322
0.000129333
-0.00272042
0.000129984
-0.00297819
0.000113182
-0.00310425
8.35046e-05
-0.00314854
4.53855e-05
-0.00314754
2.2489e-06
-0.00312462
-4.3611e-05
-0.00309309
-9.08072e-05
-0.00305975
-0.000138567
-0.00302757
-0.000186494
-0.00299761
-0.00023442
-0.00297007
-0.000282309
-0.00294494
-0.000330186
-0.00292226
-0.000378081
-0.00290224
-0.000425962
-0.00288516
-0.000473711
-0.00287119
-0.00286029
-0.000521191
2.29786e-05
-0.000648364
5.87007e-05
-0.00162053
8.55992e-05
-0.00230012
9.39566e-05
-0.00272878
8.26769e-05
-0.00296691
5.51745e-05
-0.00307675
1.61805e-05
-0.00310955
-3.00501e-05
-0.00310131
-8.03926e-05
-0.00307427
-0.000132838
-0.00304065
-0.000186211
-0.00300637
-0.00023987
-0.00297391
-0.000293487
-0.00294399
-0.000346925
-0.00291663
-0.000400169
-0.00289169
-0.000453278
-0.00286915
-0.000506323
-0.0028492
-0.000559306
-0.00283218
-0.000612098
-0.00281839
-0.00280789
-0.000664501
1.94986e-05
-0.000667863
4.66505e-05
-0.00164768
6.21962e-05
-0.00231566
5.85014e-05
-0.00272509
3.58285e-05
-0.00294424
-1.81105e-06
-0.00303911
-4.96317e-05
-0.00306173
-0.000103604
-0.00304734
-0.000160908
-0.00301697
-0.000219801
-0.00298175
-0.000279298
-0.00294688
-0.000338865
-0.00291434
-0.000398225
-0.00288463
-0.000457249
-0.00285761
-0.000515925
-0.00283302
-0.000574333
-0.00281074
-0.00063259
-0.00279094
-0.000690749
-0.00277402
-0.000748678
-0.00276047
-0.00275048
-0.000806086
1.58044e-05
-0.000683667
3.42481e-05
-0.00166613
3.85969e-05
-0.00232001
2.32685e-05
-0.00270976
-1.02514e-05
-0.00291072
-5.74855e-05
-0.00299188
-0.000113677
-0.00300554
-0.000175054
-0.00298596
-0.000239097
-0.00295293
-0.000304314
-0.00291654
-0.000369891
-0.0028813
-0.000435391
-0.00284884
-0.000500572
-0.00281945
-0.000565298
-0.00279288
-0.000629534
-0.00276878
-0.000693356
-0.00274692
-0.000756921
-0.00272737
-0.000820344
-0.0027106
-0.000883509
-0.0026973
-0.002688
-0.000945987
1.19456e-05
-0.000695613
2.16378e-05
-0.00167582
1.5028e-05
-0.0023134
-1.14724e-05
-0.00268326
-5.52884e-05
-0.0028669
-0.000111593
-0.00293557
-0.000175723
-0.00294141
-0.000244183
-0.0029175
-0.000314747
-0.00288236
-0.000386159
-0.00284512
-0.000457764
-0.00280969
-0.000529218
-0.00277738
-0.000600313
-0.00274835
-0.000670902
-0.00272229
-0.000740904
-0.00269878
-0.000810349
-0.00267747
-0.000879404
-0.00265832
-0.00094826
-0.00264174
-0.00101683
-0.00262873
-0.00262025
-0.00108458
7.9716e-06
-0.000703584
8.9553e-06
-0.0016768
-8.30473e-06
-0.00229614
-4.54823e-05
-0.00264608
-9.90411e-05
-0.00281335
-0.000163904
-0.00287071
-0.000235553
-0.00286976
-0.000310777
-0.00284228
-0.000387633
-0.00280551
-0.000465085
-0.00276767
-0.000542632
-0.00273215
-0.000620031
-0.00269999
-0.000697122
-0.00267126
-0.00077376
-0.00264566
-0.000849814
-0.00262273
-0.000925241
-0.00260205
-0.00100018
-0.00258338
-0.00107491
-0.00256701
-0.00114942
-0.00255422
-0.00254632
-0.00122335
3.93045e-06
-0.000707515
-3.67395e-06
-0.0016692
-3.1217e-05
-0.0022686
-7.85509e-05
-0.00259875
-0.000141298
-0.0027506
-0.000214216
-0.00279779
-0.000292964
-0.00279101
-0.000374621
-0.00276062
-0.00045751
-0.00272262
-0.000540802
-0.00268438
-0.00062415
-0.0026488
-0.000707422
-0.00261671
-0.000790545
-0.00258814
-0.000873415
-0.00256279
-0.000955883
-0.00254026
-0.00103784
-0.0025201
-0.00111936
-0.00250185
-0.00120084
-0.00248553
-0.0012825
-0.00247256
-0.00246391
-0.00136491
-1.32207e-07
-0.000707383
-1.61363e-05
-0.0016532
-5.35476e-05
-0.00223119
-0.000110499
-0.00254179
-0.00018188
-0.00267922
-0.000262349
-0.00271732
-0.000347771
-0.00270559
-0.000435501
-0.00267289
-0.000524112
-0.00263401
-0.000612968
-0.00259552
-0.000701873
-0.00255989
-0.000790831
-0.00252776
-0.000879909
-0.00249906
-0.000969135
-0.00247356
-0.00105845
-0.00245094
-0.00114776
-0.00243079
-0.00123704
-0.00241257
-0.00132664
-0.00239592
-0.00141714
-0.00238207
-0.00236982
-0.00151123
-4.17429e-06
-0.000703208
-2.83318e-05
-0.00162904
-7.51596e-05
-0.00218436
-0.000141177
-0.00247578
-0.000220641
-0.00259975
-0.000308163
-0.0026298
-0.000399818
-0.00261393
-0.000493225
-0.00257948
-0.000587177
-0.00254006
-0.000681201
-0.0025015
-0.000775233
-0.00246586
-0.000869415
-0.00243357
-0.000963992
-0.00240448
-0.00105925
-0.0023783
-0.00115547
-0.00235472
-0.00125285
-0.00233342
-0.0013515
-0.00231392
-0.00145199
-0.00229544
-0.00155652
-0.00227753
-0.00227147
-0.00165487
-8.14617e-06
-0.000695062
-4.01557e-05
-0.00159703
-9.59193e-05
-0.0021286
-0.00017045