1.275 	2.15223e-18 	-2.76991e-20 	-0.148113 	0.00476545 	-2.70719e-22
1.825 	2.15223e-18 	-1.39322e-20 	-0.299959 	0.00188761 	3.78828e-21
2.375 	2.15223e-18 	-2.66896e-23 	-0.437339 	-0.000227337 	-1.98097e-21
