# Probe 0 (5.5 0.5 0)
# Probe 1 (5.5 -0.5 0)
#       Probe             0             1
#        Time
         0.01      -1.17815      -1.17598
         0.02    0.00504405    0.00297131
         0.03    -0.0296318    -0.0296319
         0.04    -0.0238341    -0.0238109
         0.05    -0.0193211    -0.0193082
         0.06    -0.0157719    -0.0157598
         0.07    -0.0129385    -0.0129276
         0.08    -0.0106672    -0.0106577
         0.09   -0.00883598   -0.00882729
          0.1    -0.0073509   -0.00734502
         0.11   -0.00614036   -0.00613483
         0.12   -0.00514837   -0.00514457
         0.13   -0.00433293   -0.00432924
         0.14   -0.00365844   -0.00365577
         0.15   -0.00309883   -0.00309816
         0.16   -0.00263267   -0.00263163
         0.17   -0.00224218   -0.00224161
         0.18   -0.00191416   -0.00191337
         0.19     -0.001637   -0.00163648
          0.2   -0.00140235   -0.00140158
         0.21   -0.00119819   -0.00120023
         0.22   -0.00102192   -0.00102238
         0.23  -0.000872479  -0.000874027
         0.24  -0.000746395  -0.000745986
         0.25  -0.000637486  -0.000635233
         0.26  -0.000543237  -0.000541274
         0.27  -0.000460859  -0.000459112
         0.28  -0.000389436  -0.000390485
         0.29  -0.000325187  -0.000326223
          0.3  -0.000267991  -0.000268958
         0.31  -0.000216848  -0.000217795
         0.32   -0.00016162  -0.000161442
         0.33  -0.000120288  -0.000120199
         0.34  -8.27776e-05  -8.26189e-05
         0.35  -4.85211e-05  -4.83203e-05
         0.36  -1.69976e-05  -1.67919e-05
         0.37   9.42529e-06   1.03371e-05
         0.38   3.60825e-05   3.70387e-05
         0.39   6.10442e-05   6.20437e-05
          0.4    8.4293e-05   8.53325e-05
         0.41   0.000106536   0.000106723
         0.42   0.000126953    0.00012722
         0.43   0.000145765   0.000146563
         0.44    0.00016996    0.00017071
         0.45   0.000187612   0.000188332
         0.46   0.000203704   0.000204849
         0.47   0.000219558   0.000220743
         0.48   0.000234645   0.000235868
         0.49   0.000249026   0.000250287
          0.5   0.000262761    0.00026366
         0.51   0.000275886   0.000276859
         0.52   0.000288491   0.000289519
         0.53   0.000300611   0.000301704
         0.54   0.000312266   0.000313401
         0.55   0.000323509   0.000324708
         0.56   0.000334451   0.000334754
         0.57   0.000344954   0.000345296
         0.58   0.000355149   0.000355537
         0.59   0.000365089   0.000365433
          0.6   0.000374671    0.00037512
         0.61   0.000384078   0.000384472
         0.62   0.000393153   0.000393655
         0.63   0.000402119   0.000402519
         0.64   0.000410788   0.000411255
         0.65   0.000419339   0.000419736
         0.66   0.000427648   0.000428094
         0.67   0.000435841   0.000436273
         0.68   0.000443834   0.000444276
         0.69   0.000451687   0.000452171
          0.7   0.000459435   0.000459909
         0.71   0.000467414   0.000468042
         0.72   0.000474943   0.000475616
         0.73   0.000482374   0.000483044
         0.74   0.000489704   0.000490411
         0.75   0.000496933   0.000497625
         0.76   0.000504074   0.000504802
         0.77   0.000511135   0.000511839
         0.78   0.000518121   0.000518869
         0.79   0.000525037   0.000525769
          0.8   0.000531888   0.000532671
         0.81   0.000538679   0.000539451
         0.82   0.000545417   0.000546242
         0.83   0.000552084   0.000552899
         0.84   0.000558737   0.000559615
         0.85   0.000565333   0.000566203
         0.86   0.000571891   0.000572825
         0.87   0.000578412   0.000579341
         0.88   0.000584903   0.000585898
         0.89   0.000591363   0.000592355
          0.9     0.0005978   0.000598859
         0.91   0.000604211   0.000605269
         0.92   0.000610604   0.000611731
         0.93   0.000616978   0.000618106
         0.94   0.000623339   0.000624537
         0.95   0.000629687   0.000630888
         0.96   0.000636029     0.0006373
         0.97   0.000642364    0.00064364
         0.98   0.000648702   0.000650074
         0.99   0.000655045   0.000656404
            1   0.000661403   0.000662833
         1.01   0.000670147   0.000671542
         1.02    0.00067166   0.000673218
         1.03   0.000679524      0.000681
         1.04   0.000685381   0.000687011
         1.05   0.000695779   0.000697395
         1.06   0.000698393   0.000700017
         1.07    0.00070796   0.000709694
         1.08   0.000712987   0.000714751
         1.09   0.000719784   0.000721531
          1.1   0.000726507   0.000728298
         1.11   0.000733344   0.000735133
         1.12    0.00074028   0.000742114
         1.13   0.000747339   0.000749193
         1.14   0.000754469   0.000756343
         1.15   0.000762036   0.000763943
         1.16   0.000769137   0.000771057
         1.17   0.000776626   0.000778568
         1.18   0.000784291   0.000786262
         1.19     0.0007921   0.000794078
          1.2   0.000800069   0.000802095
         1.21   0.000808189   0.000810235
         1.22   0.000816474   0.000818549
         1.23   0.000825008   0.000827151
         1.24   0.000833669    0.00083584
         1.25   0.000842537    0.00084475
         1.26   0.000851606   0.000853845
         1.27   0.000860177   0.000862646
         1.28   0.000869696   0.000872195
         1.29   0.000879525   0.000882032
          1.3   0.000889537   0.000892061
         1.31   0.000899802   0.000902341
         1.32    0.00091033   0.000912886
         1.33   0.000920438   0.000923387
         1.34   0.000931554   0.000934476
         1.35   0.000942939   0.000945883
         1.36   0.000954734   0.000957385
         1.37   0.000968611   0.000971295
         1.38   0.000980985   0.000983675
         1.39   0.000993809   0.000996523
          1.4    0.00100674    0.00100948
         1.41       0.00102    0.00102275
         1.42    0.00103399    0.00103671
         1.43    0.00104802    0.00105076
         1.44    0.00106238    0.00106515
         1.45    0.00107669    0.00107939
         1.46    0.00109195    0.00109466
         1.47    0.00110749     0.0011102
         1.48    0.00112344    0.00112616
         1.49    0.00113978    0.00114251
          1.5    0.00115656    0.00115931
         1.51    0.00117377    0.00117651
         1.52    0.00119141    0.00119417
         1.53     0.0012095    0.00121226
         1.54    0.00122804    0.00123081
         1.55    0.00124704     0.0012498
         1.56    0.00126649    0.00126926
         1.57     0.0012864    0.00128917
         1.58    0.00130678    0.00130956
         1.59    0.00132764    0.00133041
          1.6    0.00134896    0.00135173
         1.61    0.00137076    0.00137353
         1.62    0.00139304    0.00139581
         1.63     0.0014158    0.00141857
         1.64    0.00143904    0.00144181
         1.65    0.00146277    0.00146553
         1.66    0.00148698    0.00148974
         1.67    0.00151167    0.00151442
         1.68    0.00153684    0.00153959
         1.69    0.00156249    0.00156524
          1.7    0.00158863    0.00159137
         1.71    0.00161524    0.00161797
         1.72    0.00164233    0.00164505
         1.73    0.00166989    0.00167261
         1.74    0.00169792    0.00170063
         1.75    0.00172643    0.00172912
         1.76    0.00175539    0.00175808
         1.77    0.00178482    0.00178749
         1.78     0.0018147    0.00181736
         1.79    0.00184504    0.00184769
          1.8    0.00187582    0.00187846
         1.81    0.00190705    0.00190968
         1.82    0.00193872    0.00194133
         1.83    0.00197082    0.00197342
         1.84    0.00200335    0.00200593
         1.85     0.0020363    0.00203887
         1.86    0.00206967    0.00207222
         1.87    0.00210345    0.00210599
         1.88    0.00213763    0.00214015
         1.89    0.00217222    0.00217472
          1.9     0.0022072    0.00220969
         1.91    0.00224256    0.00224503
         1.92    0.00227831    0.00228076
         1.93    0.00231443    0.00231687
         1.94    0.00235092    0.00235334
         1.95    0.00238777    0.00239017
         1.96    0.00242497    0.00242735
         1.97    0.00246252    0.00246489
         1.98    0.00250042    0.00250276
         1.99    0.00253864    0.00254097
            2     0.0025772     0.0025795
         2.01    0.00261608    0.00261836
         2.02    0.00265526    0.00265752
         2.03    0.00269475    0.00269699
         2.04    0.00273454    0.00273677
         2.05    0.00277463    0.00277683
         2.06      0.002815    0.00281718
         2.07    0.00285565    0.00285781
         2.08    0.00289657    0.00289871
         2.09    0.00293775    0.00293988
          2.1     0.0029792     0.0029813
         2.11     0.0030209    0.00302298
         2.12    0.00306301    0.00306487
         2.13    0.00310522    0.00310706
         2.14    0.00314757    0.00314938
         2.15     0.0031902    0.00319201
         2.16    0.00323304    0.00323482
         2.17    0.00327609    0.00327786
         2.18    0.00331935    0.00332109
         2.19     0.0033628    0.00336453
          2.2    0.00340646    0.00340816
         2.21    0.00344749    0.00344923
         2.22     0.0034973    0.00349891
         2.23    0.00353799    0.00353974
         2.24    0.00358096    0.00358256
         2.25    0.00362992    0.00363148
         2.26    0.00367224    0.00367392
         2.27    0.00371597    0.00371755
         2.28    0.00376099    0.00376253
         2.29    0.00380685    0.00380838
          2.3    0.00385288    0.00385442
         2.31    0.00389882    0.00390035
         2.32    0.00394457    0.00394607
         2.33    0.00399016    0.00399162
         2.34    0.00403568    0.00403712
         2.35    0.00408131    0.00408273
         2.36    0.00412715    0.00412857
         2.37    0.00417324    0.00417464
         2.38    0.00421952     0.0042209
         2.39     0.0042659    0.00426727
          2.4    0.00430922    0.00431057
         2.41    0.00435838     0.0043598
         2.42     0.0044069    0.00440822
         2.43     0.0044506    0.00445186
         2.44    0.00449968    0.00450104
         2.45    0.00454769    0.00454892
         2.46    0.00458943     0.0045907
         2.47    0.00463974    0.00464106
         2.48    0.00468887    0.00469007
         2.49    0.00473145    0.00473266
          2.5    0.00478175    0.00478303
         2.51    0.00482763    0.00482878
         2.52    0.00487739    0.00487863
         2.53    0.00492112    0.00492225
         2.54    0.00497152    0.00497273
         2.55    0.00501685    0.00501796
         2.56      0.005067    0.00506819
         2.57    0.00511142     0.0051125
         2.58    0.00516183      0.005163
         2.59    0.00520718    0.00520824
          2.6    0.00525736    0.00525849
         2.61    0.00530237    0.00530341
         2.62    0.00535263    0.00535374
         2.63    0.00539824    0.00539925
         2.64    0.00544832    0.00544941
         2.65     0.0054939    0.00549489
         2.66    0.00554389    0.00554495
         2.67    0.00559275     0.0055937
         2.68    0.00563601    0.00563701
         2.69    0.00568649    0.00568755
          2.7    0.00573626     0.0057372
         2.71    0.00578459     0.0057855
         2.72    0.00582836     0.0058293
         2.73    0.00587829    0.00587933
         2.74    0.00592795    0.00592888
         2.75    0.00597667    0.00597754
         2.76    0.00602436    0.00602526
         2.77    0.00607167    0.00607257
         2.78    0.00611931    0.00612019
         2.79    0.00616721    0.00616813
          2.8     0.0062158    0.00621659
         2.81    0.00626427    0.00626504
         2.82    0.00631263    0.00631339
         2.83    0.00636097    0.00636172
         2.84    0.00640928    0.00641002
         2.85    0.00645759    0.00645831
         2.86    0.00650605    0.00650675
         2.87    0.00655441     0.0065551
         2.88     0.0066032    0.00660385
         2.89     0.0066515    0.00665217
          2.9    0.00669996    0.00670059
         2.91    0.00675065    0.00675129
         2.92    0.00679614    0.00679684
         2.93      0.006844    0.00684459
         2.94    0.00689631    0.00689682
         2.95    0.00694111     0.0069418
         2.96    0.00699235    0.00699285
         2.97    0.00703731    0.00703794
         2.98    0.00709108    0.00709138
         2.99    0.00713522    0.00713563
            3    0.00718778    0.00718805
         3.01    0.00723177    0.00723212
         3.02    0.00728606    0.00728632
         3.03    0.00732943    0.00732977
         3.04    0.00738329     0.0073835
         3.05    0.00742659    0.00742687
         3.06    0.00748134    0.00748153
         3.07     0.0075242    0.00752444
         3.08    0.00757912    0.00757929
         3.09    0.00762482    0.00762501
          3.1    0.00767405    0.00767422
         3.11    0.00772292    0.00772307
         3.12    0.00777193    0.00777208
         3.13    0.00782097     0.0078211
         3.14    0.00787004    0.00787016
         3.15    0.00791915    0.00791925
         3.16    0.00796829    0.00796838
         3.17    0.00801748    0.00801755
         3.18     0.0080667    0.00806676
         3.19    0.00811597    0.00811601
          3.2    0.00816526     0.0081653
         3.21     0.0082146    0.00821463
         3.22    0.00826398      0.008264
         3.23    0.00831341    0.00831341
         3.24    0.00836288    0.00836287
         3.25     0.0084124    0.00841237
         3.26    0.00846196    0.00846192
         3.27    0.00851157    0.00851152
         3.28    0.00856122    0.00856117
         3.29    0.00861093    0.00861086
          3.3    0.00866068     0.0086606
         3.31    0.00871049     0.0087104
         3.32    0.00876034    0.00876024
         3.33    0.00881026    0.00881014
         3.34    0.00886022    0.00886011
         3.35    0.00891025    0.00891011
         3.36    0.00896032    0.00896018
         3.37    0.00901046     0.0090103
         3.38    0.00906064    0.00906048
         3.39    0.00911089    0.00911071
          3.4    0.00916119    0.00916101
         3.41    0.00921156    0.00921137
         3.42    0.00926199    0.00926179
         3.43    0.00931248    0.00931226
         3.44    0.00936303    0.00936281
         3.45    0.00941365    0.00941341
         3.46    0.00946433    0.00946409
         3.47    0.00951508    0.00951482
         3.48    0.00956589    0.00956563
         3.49    0.00961677     0.0096165
          3.5    0.00966772    0.00966745
         3.51    0.00971874    0.00971844
         3.52    0.00976982    0.00976953
         3.53    0.00982098    0.00982067
         3.54     0.0098722    0.00987189
         3.55     0.0099235    0.00992317
         3.56    0.00997487    0.00997454
         3.57     0.0100263      0.010026
         3.58     0.0100778     0.0100775
         3.59     0.0101294     0.0101291
          3.6     0.0101811     0.0101807
         3.61     0.0102328     0.0102325
         3.62     0.0102847     0.0102843
         3.63     0.0103366     0.0103362
         3.64     0.0103885     0.0103881
         3.65     0.0104406     0.0104402
         3.66     0.0104927     0.0104923
         3.67     0.0105449     0.0105445
         3.68     0.0105972     0.0105968
         3.69     0.0106496     0.0106491
          3.7      0.010702     0.0107016
         3.71     0.0107546     0.0107541
         3.72     0.0108072     0.0108067
         3.73     0.0108599     0.0108594
         3.74     0.0109127     0.0109122
         3.75     0.0109655      0.010965
         3.76     0.0110185      0.011018
         3.77     0.0110715      0.011071
         3.78     0.0111246     0.0111241
         3.79     0.0111778     0.0111773
          3.8     0.0112311     0.0112306
         3.81     0.0112845     0.0112839
         3.82     0.0113379     0.0113374
         3.83     0.0113915     0.0113909
         3.84     0.0114451     0.0114445
         3.85     0.0114988     0.0114982
         3.86     0.0115526      0.011552
         3.87     0.0116065     0.0116059
         3.88     0.0116605     0.0116599
         3.89     0.0117145     0.0117139
          3.9     0.0117687      0.011768
         3.91     0.0118229     0.0118223
         3.92     0.0118772     0.0118766
         3.93     0.0119316      0.011931
         3.94     0.0119861     0.0119855
         3.95     0.0120407       0.01204
         3.96     0.0120953     0.0120947
         3.97     0.0121501     0.0121494
         3.98     0.0122049     0.0122043
         3.99     0.0122599     0.0122592
            4     0.0123149     0.0123142
         4.01       0.01237     0.0123693
         4.02     0.0124252     0.0124245
         4.03     0.0124805     0.0124798
         4.04     0.0125358     0.0125351
         4.05     0.0125913     0.0125906
         4.06     0.0126468     0.0126461
         4.07     0.0127024     0.0127017
         4.08     0.0127581     0.0127574
         4.09     0.0128139     0.0128132
          4.1     0.0128698     0.0128691
         4.11     0.0129255     0.0129249
         4.12     0.0129815     0.0129809
         4.13     0.0130377      0.013037
         4.14     0.0130939     0.0130932
         4.15     0.0131502     0.0131495
         4.16     0.0132065     0.0132059
         4.17      0.013263     0.0132623
         4.18     0.0133195     0.0133188
         4.19     0.0133761     0.0133754
          4.2     0.0134328     0.0134321
         4.21     0.0134896     0.0134889
         4.22     0.0135464     0.0135457
         4.23     0.0136033     0.0136026
         4.24     0.0136603     0.0136596
         4.25     0.0137174     0.0137167
         4.26     0.0137746     0.0137738
         4.27     0.0138318     0.0138311
         4.28     0.0138891     0.0138884
         4.29     0.0139465     0.0139457
          4.3     0.0140039     0.0140032
         4.31     0.0140614     0.0140607
         4.32      0.014119     0.0141182
         4.33     0.0141767     0.0141759
         4.34     0.0142344     0.0142336
         4.35     0.0142922     0.0142914
         4.36     0.0143501     0.0143493
         4.37      0.014408     0.0144072
         4.38      0.014466     0.0144652
         4.39      0.014524     0.0145232
          4.4     0.0145821     0.0145813
         4.41     0.0146403     0.0146395
         4.42     0.0146986     0.0146977
         4.43     0.0147568      0.014756
         4.44     0.0148152     0.0148144
         4.45     0.0148736     0.0148728
         4.46     0.0149321     0.0149312
         4.47     0.0149906     0.0149898
         4.48     0.0150492     0.0150483
         4.49     0.0151078     0.0151069
          4.5     0.0151665     0.0151656
         4.51     0.0152252     0.0152243
         4.52      0.015284     0.0152831
         4.53     0.0153428     0.0153419
         4.54     0.0154017     0.0154008
         4.55     0.0154606     0.0154597
         4.56     0.0155196     0.0155187
         4.57     0.0155786     0.0155777
         4.58     0.0156376     0.0156367
         4.59     0.0156967     0.0156958
          4.6     0.0157558     0.0157549
         4.61     0.0158149      0.015814
         4.62     0.0158741     0.0158732
         4.63     0.0159334     0.0159324
         4.64     0.0159926     0.0159917
         4.65     0.0160519      0.016051
         4.66     0.0161112     0.0161103
         4.67     0.0161705     0.0161696
         4.68     0.0162299      0.016229
         4.69     0.0162893     0.0162884
          4.7     0.0163487     0.0163478
         4.71     0.0164081     0.0164072
         4.72     0.0164676     0.0164666
         4.73     0.0165271     0.0165261
         4.74     0.0165866     0.0165856
         4.75     0.0166461     0.0166451
         4.76     0.0167056     0.0167046
         4.77     0.0167651     0.0167641
         4.78     0.0168247     0.0168237
         4.79     0.0168842     0.0168832
          4.8     0.0169438     0.0169428
         4.81     0.0170033     0.0170023
         4.82     0.0170629     0.0170619
         4.83     0.0171224     0.0171214
         4.84      0.017182      0.017181
         4.85     0.0172416     0.0172406
         4.86     0.0173011     0.0173001
         4.87     0.0173607     0.0173597
         4.88     0.0174202     0.0174192
         4.89     0.0174798     0.0174788
          4.9     0.0175393     0.0175383
         4.91     0.0175988     0.0175978
         4.92     0.0176583     0.0176573
         4.93     0.0177178     0.0177168
         4.94     0.0177773     0.0177763
         4.95     0.0178368     0.0178357
         4.96     0.0178962     0.0178952
         4.97     0.0179556     0.0179546
         4.98      0.018015     0.0180139
         4.99     0.0180744     0.0180733
            5     0.0181337     0.0181326
         5.01      0.018193     0.0181919
         5.02     0.0182523     0.0182512
         5.03     0.0183115     0.0183104
         5.04     0.0183707     0.0183696
         5.05     0.0184299     0.0184288
         5.06      0.018489     0.0184879
         5.07     0.0185481      0.018547
         5.08     0.0186071      0.018606
         5.09     0.0186661      0.018665
          5.1      0.018725     0.0187239
         5.11     0.0187839     0.0187828
         5.12     0.0188429     0.0188418
         5.13     0.0189017     0.0189006
         5.14     0.0189605     0.0189593
         5.15     0.0190191      0.019018
         5.16     0.0190778     0.0190766
         5.17     0.0191363     0.0191352
         5.18     0.0191948     0.0191937
         5.19     0.0192532     0.0192521
          5.2     0.0193116     0.0193104
         5.21     0.0193699     0.0193687
         5.22     0.0194281     0.0194269
         5.23     0.0194863     0.0194851
         5.24     0.0195444     0.0195432
         5.25     0.0196023     0.0196012
         5.26     0.0196603     0.0196591
         5.27     0.0197181     0.0197169
         5.28     0.0197759     0.0197747
         5.29     0.0198335     0.0198323
          5.3     0.0198911     0.0198899
         5.31     0.0199486     0.0199474
         5.32     0.0200061     0.0200048
         5.33     0.0200634     0.0200622
         5.34     0.0201206     0.0201194
         5.35     0.0201778     0.0201765
         5.36     0.0202348     0.0202336
         5.37     0.0202918     0.0202905
         5.38     0.0203486     0.0203474
         5.39     0.0204054     0.0204041
          5.4      0.020462     0.0204608
         5.41     0.0205186     0.0205173
         5.42      0.020575     0.0205737
         5.43     0.0206313       0.02063
         5.44     0.0206875     0.0206863
         5.45     0.0207436     0.0207424
         5.46     0.0207996     0.0207983
         5.47     0.0208557     0.0208544
         5.48     0.0209115     0.0209101
         5.49     0.0209671     0.0209658
          5.5     0.0210226     0.0210213
         5.51      0.021078     0.0210766
         5.52     0.0211332     0.0211319
         5.53     0.0211884      0.021187
         5.54     0.0212434      0.021242
         5.55     0.0212982     0.0212969
         5.56      0.021353     0.0213516
         5.57     0.0214076     0.0214062
         5.58      0.021462     0.0214607
         5.59     0.0215164      0.021515
          5.6     0.0215706     0.0215692
         5.61     0.0216246     0.0216232
         5.62     0.0216785     0.0216771
         5.63     0.0217323     0.0217308
         5.64     0.0217859     0.0217845
         5.65     0.0218393     0.0218379
         5.66     0.0218927     0.0218912
         5.67     0.0219458     0.0219444
         5.68     0.0219988     0.0219974
         5.69     0.0220517     0.0220502
          5.7     0.0221044     0.0221029
         5.71      0.022157     0.0221555
         5.72     0.0222093     0.0222078
         5.73     0.0222616     0.0222601
         5.74     0.0223136     0.0223121
         5.75     0.0223657     0.0223642
         5.76     0.0224175      0.022416
         5.77      0.022469     0.0224675
         5.78     0.0225205     0.0225189
         5.79     0.0225717     0.0225702
          5.8     0.0226228     0.0226212
         5.81     0.0226737     0.0226721
         5.82     0.0227244     0.0227228
         5.83     0.0227749     0.0227734
         5.84     0.0228253     0.0228238
         5.85     0.0228755      0.022874
         5.86     0.0229256      0.022924
         5.87     0.0229755     0.0229739
         5.88     0.0230252     0.0230236
         5.89     0.0230747     0.0230731
          5.9      0.023124     0.0231224
         5.91     0.0231732     0.0231716
         5.92     0.0232222     0.0232206
         5.93      0.023271     0.0232694
         5.94     0.0233196      0.023318
         5.95     0.0233681     0.0233665
         5.96     0.0234164     0.0234147
         5.97     0.0234645     0.0234628
         5.98     0.0235124     0.0235107
         5.99     0.0235601     0.0235584
            6     0.0236076     0.0236059
         6.01      0.023655     0.0236533
         6.02     0.0237021     0.0237004
         6.03     0.0237491     0.0237474
         6.04     0.0237959     0.0237942
         6.05     0.0238425     0.0238408
         6.06     0.0238889     0.0238872
         6.07     0.0239351     0.0239334
         6.08     0.0239812     0.0239794
         6.09      0.024027     0.0240253
          6.1     0.0240727     0.0240709
         6.11     0.0241181     0.0241164
         6.12     0.0241634     0.0241616
         6.13     0.0242085     0.0242067
         6.14     0.0242533     0.0242515
         6.15      0.024298     0.0242962
         6.16     0.0243425     0.0243407
         6.17     0.0243868      0.024385
         6.18     0.0244309     0.0244291
         6.19     0.0244748      0.024473
          6.2     0.0245185     0.0245167
         6.21      0.024562     0.0245602
         6.22     0.0246054     0.0246035
         6.23     0.0246485     0.0246466
         6.24     0.0246914     0.0246896
         6.25     0.0247342     0.0247323
         6.26     0.0247767     0.0247748
         6.27      0.024819     0.0248172
         6.28     0.0248612     0.0248593
         6.29     0.0249031     0.0249012
          6.3     0.0249449      0.024943
         6.31     0.0249864     0.0249845
         6.32     0.0250278     0.0250259
         6.33      0.025069      0.025067
         6.34     0.0251099      0.025108
         6.35     0.0251507     0.0251488
         6.36     0.0251913     0.0251893
         6.37     0.0252316     0.0252297
         6.38     0.0252718     0.0252699
         6.39     0.0253118     0.0253099
          6.4     0.0253516     0.0253497
         6.41     0.0253912     0.0253892
         6.42     0.0254306     0.0254286
         6.43     0.0254698     0.0254678
         6.44     0.0255088     0.0255068
         6.45     0.0255476     0.0255457
         6.46     0.0255862     0.0255843
         6.47     0.0256247     0.0256227
         6.48     0.0256629     0.0256609
         6.49     0.0257009      0.025699
          6.5     0.0257388     0.0257368
         6.51     0.0257764     0.0257744
         6.52     0.0258138     0.0258118
         6.53      0.025851     0.0258491
         6.54     0.0258881     0.0258861
         6.55     0.0259249     0.0259229
         6.56     0.0259615     0.0259595
         6.57     0.0259979      0.025996
         6.58     0.0260342     0.0260322
         6.59     0.0260702     0.0260682
          6.6      0.026106     0.0261041
         6.61     0.0261417     0.0261397
         6.62     0.0261771     0.0261751
         6.63     0.0262123     0.0262104
         6.64     0.0262474     0.0262455
         6.65     0.0262823     0.0262803
         6.66     0.0263169      0.026315
         6.67     0.0263514     0.0263495
         6.68     0.0263857     0.0263838
         6.69     0.0264198     0.0264179
          6.7     0.0264537     0.0264518
         6.71     0.0264874     0.0264856
         6.72      0.026521     0.0265191
         6.73     0.0265543     0.0265525
         6.74     0.0265875     0.0265856
         6.75     0.0266205     0.0266186
         6.76     0.0266533     0.0266514
         6.77     0.0266859     0.0266841
         6.78     0.0267184     0.0267165
         6.79     0.0267506     0.0267488
          6.8     0.0267827     0.0267809
         6.81     0.0268146     0.0268128
         6.82     0.0268464     0.0268446
         6.83     0.0268779     0.0268761
         6.84     0.0269093     0.0269075
         6.85     0.0269405     0.0269387
         6.86     0.0269715     0.0269698
         6.87     0.0270024     0.0270007
         6.88     0.0270331     0.0270314
         6.89     0.0270636     0.0270619
          6.9      0.027094     0.0270923
         6.91     0.0271242     0.0271225
         6.92     0.0271542     0.0271526
         6.93     0.0271841     0.0271825
         6.94     0.0272138     0.0272122
         6.95     0.0272433     0.0272418
         6.96     0.0272727     0.0272712
         6.97      0.027302     0.0273004
         6.98      0.027331     0.0273295
         6.99     0.0273599     0.0273585
            7     0.0273887     0.0273872
         7.01     0.0274173     0.0274159
         7.02     0.0274458     0.0274444
         7.03     0.0274741     0.0274727
         7.04     0.0275023     0.0275009
         7.05     0.0275303     0.0275289
         7.06     0.0275581     0.0275568
         7.07     0.0275859     0.0275846
         7.08     0.0276134     0.0276122
         7.09     0.0276409     0.0276396
          7.1     0.0276682      0.027667
         7.11     0.0276953     0.0276941