# Probe 0 (5.5 0.5 0)
# Probe 1 (5.5 -0.5 0)
#       Probe             0             1
#        Time
         0.01             (0.994643 -0.0030066 5.66145e-20)             (0.994642 0.0030068 6.05582e-20)
         0.02             (0.994662 -0.00278565 -2.445e-22)             (0.994661 0.00278318 -1.6478e-22)
         0.03             (0.994516 -0.00267115 1.43876e-21)             (0.994516 0.00266817 1.50217e-21)
         0.04             (0.994399 -0.00256297 1.15824e-21)             (0.994398 0.00256015 1.20557e-21)
         0.05             (0.994298 -0.00246359 9.38639e-22)             (0.994298 0.0024608 9.77199e-22)
         0.06             (0.99421 -0.00237324 7.66185e-22)             (0.99421 0.00237057 7.97105e-22)
         0.07             (0.994132 -0.00229189 6.28358e-22)             (0.994132 0.00228925 6.53642e-22)
         0.08             (0.994063 -0.00221918 5.17914e-22)             (0.994063 0.00221657 5.38662e-22)
         0.09             (0.994 -0.00215462 4.28883e-22)             (0.994 0.00215205 4.45988e-22)
          0.1             (0.993943 -0.00209763 3.56728e-22)             (0.993943 0.00209515 3.70925e-22)
         0.11             (0.99389 -0.00204762 2.97914e-22)             (0.99389 0.00204523 3.09693e-22)
         0.12             (0.99384 -0.00200398 2.49734e-22)             (0.99384 0.00200168 2.59589e-22)
         0.13             (0.993793 -0.00196613 2.10169e-22)             (0.993793 0.00196389 2.18333e-22)
         0.14             (0.993749 -0.0019335 1.77466e-22)             (0.993749 0.00193132 1.84245e-22)
         0.15             (0.993706 -0.00190555 1.50335e-22)             (0.993706 0.00190343 1.55978e-22)
         0.16             (0.993665 -0.0018818 1.27782e-22)             (0.993665 0.00187974 1.32345e-22)
         0.17             (0.993626 -0.0018618 1.08919e-22)             (0.993626 0.00185979 1.12575e-22)
         0.18             (0.993587 -0.00184515 9.30989e-23)             (0.993587 0.00184318 9.59211e-23)
         0.19             (0.99355 -0.00183147 7.97525e-23)             (0.99355 0.00182953 8.18594e-23)
          0.2             (0.993513 -0.00182044 6.84744e-23)             (0.993513 0.00181853 6.99142e-23)
         0.21             (0.993477 -0.00181176 5.86325e-23)             (0.993477 0.00180989 5.97231e-23)
         0.22             (0.993441 -0.00180517 5.00903e-23)             (0.993441 0.00180332 5.07222e-23)
         0.23             (0.993406 -0.0018004 4.29626e-23)             (0.993406 0.00179859 4.31489e-23)
         0.24             (0.993371 -0.00179726 3.69763e-23)             (0.993371 0.00179547 3.65981e-23)
         0.25             (0.993337 -0.00179556 3.17856e-23)             (0.993337 0.00179378 3.09158e-23)
         0.26             (0.993303 -0.00179514 2.73271e-23)             (0.993303 0.00179337 2.6076e-23)
         0.27             (0.993269 -0.00179585 2.34393e-23)             (0.993269 0.00179409 2.18348e-23)
         0.28             (0.993235 -0.00179757 2.0091e-23)             (0.993235 0.00179583 1.82651e-23)
         0.29             (0.993201 -0.00180018 1.70731e-23)             (0.993201 0.00179846 1.49347e-23)
          0.3             (0.993168 -0.00180358 1.43923e-23)             (0.993168 0.00180187 1.19608e-23)
         0.31             (0.993134 -0.00180767 1.20002e-23)             (0.993134 0.00180598 9.29871e-24)
         0.32             (0.993101 -0.00181234 9.38975e-24)             (0.993101 0.00181068 6.37493e-24)
         0.33             (0.993067 -0.00181757 7.46394e-24)             (0.993067 0.00181594 4.22162e-24)
         0.34             (0.993034 -0.00182328 5.72082e-24)             (0.993034 0.00182169 2.25345e-24)
         0.35             (0.993001 -0.00182944 4.12993e-24)             (0.993001 0.00182787 4.55632e-25)
         0.36             (0.992968 -0.00183598 2.66751e-24)             (0.992968 0.00183445 -1.19974e-24)
         0.37             (0.992934 -0.00184287 1.50029e-24)             (0.992934 0.00184136 -2.66087e-24)
         0.38             (0.992901 -0.00185007 2.69134e-25)             (0.992901 0.00184859 -4.06977e-24)
         0.39             (0.992868 -0.00185755 -8.83545e-25)             (0.992868 0.00185609 -5.39013e-24)
          0.4             (0.992834 -0.00186529 -1.95609e-24)             (0.992834 0.00186386 -6.62139e-24)
         0.41             (0.992801 -0.00187326 -2.97818e-24)             (0.992801 0.00187186 -7.76695e-24)
         0.42             (0.992767 -0.00188143 -3.91849e-24)             (0.992767 0.00188007 -8.85364e-24)
         0.43             (0.992733 -0.00188978 -4.74783e-24)             (0.992733 0.00188845 -9.92002e-24)
         0.44             (0.9927 -0.0018983 -5.90115e-24)             (0.9927 0.001897 -1.11589e-23)
         0.45             (0.992666 -0.00190697 -6.7188e-24)             (0.992666 0.00190571 -1.20897e-23)
         0.46             (0.992632 -0.0019158 -7.46359e-24)             (0.992632 0.00191457 -1.29783e-23)
         0.47             (0.992598 -0.00192475 -8.19629e-24)             (0.992598 0.00192356 -1.38209e-23)
         0.48             (0.992564 -0.00193383 -8.89305e-24)             (0.992564 0.00193267 -1.46235e-23)
         0.49             (0.992529 -0.00194303 -9.55683e-24)             (0.992529 0.0019419 -1.53894e-23)
          0.5             (0.992495 -0.00195234 -1.01849e-23)             (0.992495 0.00195125 -1.60842e-23)
         0.51             (0.992461 -0.00196176 -1.07888e-23)             (0.992461 0.0019607 -1.67864e-23)
         0.52             (0.992426 -0.00197127 -1.1369e-23)             (0.992426 0.00197025 -1.74608e-23)
         0.53             (0.992391 -0.00198087 -1.19261e-23)             (0.992392 0.00197989 -1.81103e-23)
         0.54             (0.992357 -0.00199056 -1.24617e-23)             (0.992357 0.00198961 -1.87346e-23)
         0.55             (0.992322 -0.00200034 -1.29776e-23)             (0.992322 0.00199942 -1.93383e-23)
         0.56             (0.992287 -0.00201019 -1.34749e-23)             (0.992287 0.00200932 -1.98809e-23)
         0.57             (0.992252 -0.00202012 -1.39558e-23)             (0.992252 0.00201929 -2.04453e-23)
         0.58             (0.992216 -0.00203012 -1.44221e-23)             (0.992216 0.00202934 -2.09944e-23)
         0.59             (0.992181 -0.0020402 -1.48761e-23)             (0.992181 0.00203947 -2.15253e-23)
          0.6             (0.992145 -0.00205035 -1.5314e-23)             (0.992145 0.00204966 -2.2045e-23)
         0.61             (0.99211 -0.00206056 -1.57434e-23)             (0.99211 0.00205993 -2.25477e-23)
         0.62             (0.992074 -0.00207085 -1.61572e-23)             (0.992074 0.00207026 -2.30419e-23)
         0.63             (0.992038 -0.0020812 -1.65661e-23)             (0.992038 0.00208066 -2.3519e-23)
         0.64             (0.992002 -0.00209162 -1.69607e-23)             (0.992002 0.00209113 -2.39894e-23)
         0.65             (0.991966 -0.00210211 -1.73496e-23)             (0.991966 0.00210166 -2.44462e-23)
         0.66             (0.991929 -0.00211266 -1.77273e-23)             (0.991929 0.00211226 -2.48977e-23)
         0.67             (0.991893 -0.00212327 -1.80995e-23)             (0.991893 0.00212292 -2.53384e-23)
         0.68             (0.991856 -0.00213395 -1.84621e-23)             (0.991856 0.00213365 -2.57723e-23)
         0.69             (0.991819 -0.00214469 -1.88177e-23)             (0.991819 0.00214444 -2.61987e-23)
          0.7             (0.991782 -0.0021555 -1.91689e-23)             (0.991782 0.00215529 -2.66182e-23)
         0.71             (0.991745 -0.00216636 -1.95325e-23)             (0.991745 0.0021662 -2.70776e-23)
         0.72             (0.991708 -0.00217729 -1.9873e-23)             (0.991708 0.00217716 -2.74885e-23)
         0.73             (0.99167 -0.00218829 -2.02093e-23)             (0.991671 0.0021882 -2.78921e-23)
         0.74             (0.991633 -0.00219934 -2.05403e-23)             (0.991633 0.00219929 -2.82924e-23)
         0.75             (0.991595 -0.00221046 -2.08668e-23)             (0.991595 0.00221045 -2.86846e-23)
         0.76             (0.991557 -0.00222165 -2.11886e-23)             (0.991557 0.00222168 -2.9075e-23)
         0.77             (0.991519 -0.00223289 -2.15069e-23)             (0.991519 0.00223297 -2.9458e-23)
         0.78             (0.991481 -0.0022442 -2.18212e-23)             (0.991481 0.00224432 -2.9841e-23)
         0.79             (0.991442 -0.00225558 -2.21325e-23)             (0.991443 0.00225574 -3.02171e-23)
          0.8             (0.991404 -0.00226702 -2.24403e-23)             (0.991404 0.00226722 -3.05937e-23)
         0.81             (0.991365 -0.00227852 -2.27455e-23)             (0.991365 0.00227877 -3.09639e-23)
         0.82             (0.991326 -0.00229009 -2.30477e-23)             (0.991326 0.00229038 -3.1335e-23)
         0.83             (0.991287 -0.00230173 -2.3347e-23)             (0.991287 0.00230206 -3.16989e-23)
         0.84             (0.991248 -0.00231343 -2.36449e-23)             (0.991248 0.00231381 -3.20664e-23)
         0.85             (0.991209 -0.00232519 -2.39406e-23)             (0.991209 0.00232562 -3.2427e-23)
         0.86             (0.991169 -0.00233703 -2.42339e-23)             (0.991169 0.0023375 -3.27897e-23)
         0.87             (0.991129 -0.00234893 -2.45259e-23)             (0.99113 0.00234944 -3.31468e-23)
         0.88             (0.991089 -0.0023609 -2.4816e-23)             (0.99109 0.00236146 -3.35063e-23)
         0.89             (0.991049 -0.00237293 -2.51049e-23)             (0.99105 0.00237354 -3.38604e-23)
          0.9             (0.991009 -0.00238504 -2.53923e-23)             (0.991009 0.00238569 -3.42173e-23)
         0.91             (0.990969 -0.00239721 -2.56788e-23)             (0.990969 0.00239791 -3.45692e-23)
         0.92             (0.990928 -0.00240946 -2.59642e-23)             (0.990928 0.00241021 -3.4924e-23)
         0.93             (0.990887 -0.00242178 -2.62488e-23)             (0.990887 0.00242257 -3.52741e-23)
         0.94             (0.990846 -0.00243416 -2.65327e-23)             (0.990846 0.002435 -3.56275e-23)
         0.95             (0.990805 -0.00244662 -2.68161e-23)             (0.990805 0.00244751 -3.59764e-23)
         0.96             (0.990764 -0.00245915 -2.7099e-23)             (0.990764 0.00246008 -3.63288e-23)
         0.97             (0.990722 -0.00247175 -2.73818e-23)             (0.990722 0.00247274 -3.66772e-23)
         0.98             (0.99068 -0.00248443 -2.76646e-23)             (0.990681 0.00248546 -3.70306e-23)
         0.99             (0.990638 -0.00249718 -2.79478e-23)             (0.990639 0.00249826 -3.73786e-23)
            1             (0.990596 -0.00251001 -2.82317e-23)             (0.990597 0.00251113 -3.77317e-23)
         1.01             (0.990554 -0.00252291 -2.86382e-23)             (0.990554 0.00252408 -3.81941e-23)
         1.02             (0.990512 -0.00253589 -2.86731e-23)             (0.990512 0.00253711 -3.83189e-23)
         1.03             (0.990469 -0.00254894 -2.90349e-23)             (0.990469 0.00255021 -3.8736e-23)
         1.04             (0.990426 -0.00256207 -2.92908e-23)             (0.990426 0.00256339 -3.90713e-23)
         1.05             (0.990383 -0.00257528 -2.97841e-23)             (0.990383 0.00257665 -3.96122e-23)
         1.06             (0.99034 -0.00258857 -2.98748e-23)             (0.99034 0.00258999 -3.97826e-23)
         1.07             (0.990296 -0.00260194 -3.03218e-23)             (0.990297 0.00260341 -4.02932e-23)
         1.08             (0.990253 -0.00261538 -3.05369e-23)             (0.990253 0.0026169 -4.058e-23)
         1.09             (0.990209 -0.00262891 -3.08423e-23)             (0.990209 0.00263048 -4.09505e-23)
          1.1             (0.990165 -0.00264252 -3.11435e-23)             (0.990165 0.00264414 -4.13209e-23)
         1.11             (0.99012 -0.00265621 -3.14505e-23)             (0.990121 0.00265789 -4.16944e-23)
         1.12             (0.990076 -0.00266998 -3.17621e-23)             (0.990076 0.00267171 -4.20757e-23)
         1.13             (0.990031 -0.00268383 -3.20799e-23)             (0.990032 0.00268562 -4.2462e-23)
         1.14             (0.989986 -0.00269776 -3.24008e-23)             (0.989987 0.00269961 -4.28518e-23)
         1.15             (0.989941 -0.00271178 -3.27446e-23)             (0.989942 0.00271369 -4.3263e-23)
         1.16             (0.989896 -0.00272588 -3.30625e-23)             (0.989897 0.00272785 -4.36527e-23)
         1.17             (0.989851 -0.00274007 -3.34011e-23)             (0.989851 0.0027421 -4.40608e-23)
         1.18             (0.989805 -0.00275435 -3.37477e-23)             (0.989805 0.00275643 -4.44786e-23)
         1.19             (0.989759 -0.0027687 -3.41011e-23)             (0.98976 0.00277085 -4.49027e-23)
          1.2             (0.989713 -0.00278315 -3.44621e-23)             (0.989713 0.00278536 -4.53373e-23)
         1.21             (0.989667 -0.00279768 -3.48306e-23)             (0.989667 0.00279995 -4.57782e-23)
         1.22             (0.98962 -0.0028123 -3.52066e-23)             (0.989621 0.00281463 -4.62282e-23)
         1.23             (0.989573 -0.002827 -3.55949e-23)             (0.989574 0.0028294 -4.66931e-23)
         1.24             (0.989526 -0.0028418 -3.59888e-23)             (0.989527 0.00284425 -4.71626e-23)
         1.25             (0.989479 -0.00285668 -3.63929e-23)             (0.98948 0.0028592 -4.76437e-23)
         1.26             (0.989432 -0.00287165 -3.68054e-23)             (0.989433 0.00287423 -4.81348e-23)
         1.27             (0.989384 -0.00288671 -3.71943e-23)             (0.989385 0.00288935 -4.8604e-23)
         1.28             (0.989337 -0.00290186 -3.76287e-23)             (0.989337 0.00290455 -4.91194e-23)
         1.29             (0.989289 -0.0029171 -3.80785e-23)             (0.989289 0.00291985 -4.96491e-23)
          1.3             (0.98924 -0.00293244 -3.85365e-23)             (0.989241 0.00293524 -5.01891e-23)
         1.31             (0.989192 -0.00294786 -3.90066e-23)             (0.989193 0.00295072 -5.07422e-23)
         1.32             (0.989143 -0.00296337 -3.94892e-23)             (0.989144 0.0029663 -5.13091e-23)
         1.33             (0.989094 -0.00297898 -3.99543e-23)             (0.989095 0.00298197 -5.18689e-23)
         1.34             (0.989045 -0.00299468 -4.04649e-23)             (0.989046 0.00299774 -5.24638e-23)
         1.35             (0.988996 -0.00301047 -4.09881e-23)             (0.988997 0.0030136 -5.30751e-23)
         1.36             (0.988947 -0.00302635 -4.15553e-23)             (0.988948 0.00302955 -5.36715e-23)
         1.37             (0.988897 -0.00304232 -4.21967e-23)             (0.988898 0.00304559 -5.44137e-23)
         1.38             (0.988847 -0.00305839 -4.27673e-23)             (0.988848 0.00306173 -5.50754e-23)
         1.39             (0.988797 -0.00307455 -4.33587e-23)             (0.988798 0.00307796 -5.57633e-23)
          1.4             (0.988747 -0.00309081 -4.39553e-23)             (0.988748 0.00309428 -5.64552e-23)
         1.41             (0.988696 -0.00310716 -4.45677e-23)             (0.988697 0.0031107 -5.71631e-23)
         1.42             (0.988646 -0.00312361 -4.52061e-23)             (0.988647 0.00312722 -5.79173e-23)
         1.43             (0.988595 -0.00314015 -4.58561e-23)             (0.988596 0.00314383 -5.8665e-23)
         1.44             (0.988544 -0.0031568 -4.65207e-23)             (0.988545 0.00316054 -5.94309e-23)
         1.45             (0.988492 -0.00317353 -4.71661e-23)             (0.988493 0.00317734 -6.02015e-23)
         1.46             (0.988441 -0.00319036 -4.78746e-23)             (0.988442 0.00319425 -6.10131e-23)
         1.47             (0.988389 -0.00320729 -4.85953e-23)             (0.98839 0.00321125 -6.1839e-23)
         1.48             (0.988337 -0.00322432 -4.93359e-23)             (0.988338 0.00322835 -6.26867e-23)
         1.49             (0.988285 -0.00324144 -5.00944e-23)             (0.988286 0.00324555 -6.35549e-23)
          1.5             (0.988232 -0.00325867 -5.08746e-23)             (0.988234 0.00326285 -6.44461e-23)
         1.51             (0.98818 -0.00327599 -5.16743e-23)             (0.988181 0.00328025 -6.53588e-23)
         1.52             (0.988127 -0.00329342 -5.24954e-23)             (0.988128 0.00329775 -6.62948e-23)
         1.53             (0.988074 -0.00331094 -5.33372e-23)             (0.988075 0.00331535 -6.72534e-23)
         1.54             (0.988021 -0.00332857 -5.42007e-23)             (0.988022 0.00333305 -6.82356e-23)
         1.55             (0.987967 -0.00334629 -5.50856e-23)             (0.987969 0.00335085 -6.92412e-23)
         1.56             (0.987914 -0.00336412 -5.59924e-23)             (0.987915 0.00336875 -7.02707e-23)
         1.57             (0.98786 -0.00338205 -5.69212e-23)             (0.987862 0.00338676 -7.13242e-23)
         1.58             (0.987806 -0.00340008 -5.78723e-23)             (0.987808 0.00340486 -7.24019e-23)
         1.59             (0.987752 -0.00341821 -5.88456e-23)             (0.987753 0.00342307 -7.3504e-23)
          1.6             (0.987698 -0.00343645 -5.98415e-23)             (0.987699 0.00344138 -7.46307e-23)
         1.61             (0.987643 -0.00345479 -6.08601e-23)             (0.987644 0.0034598 -7.57821e-23)
         1.62             (0.987588 -0.00347323 -6.19014e-23)             (0.98759 0.00347831 -7.69583e-23)
         1.63             (0.987533 -0.00349177 -6.29656e-23)             (0.987535 0.00349694 -7.81594e-23)
         1.64             (0.987478 -0.00351042 -6.40527e-23)             (0.98748 0.00351566 -7.93854e-23)
         1.65             (0.987423 -0.00352918 -6.51628e-23)             (0.987424 0.0035345 -8.06365e-23)
         1.66             (0.987367 -0.00354804 -6.62959e-23)             (0.987369 0.00355343 -8.19127e-23)
         1.67             (0.987311 -0.003567 -6.74519e-23)             (0.987313 0.00357248 -8.32139e-23)
         1.68             (0.987255 -0.00358608 -6.86309e-23)             (0.987257 0.00359163 -8.45401e-23)
         1.69             (0.987199 -0.00360526 -6.98327e-23)             (0.987201 0.00361088 -8.58912e-23)
          1.7             (0.987143 -0.00362454 -7.10574e-23)             (0.987145 0.00363025 -8.72672e-23)
         1.71             (0.987087 -0.00364393 -7.23049e-23)             (0.987088 0.00364972 -8.86681e-23)
         1.72             (0.98703 -0.00366344 -7.3575e-23)             (0.987032 0.0036693 -9.00937e-23)
         1.73             (0.986973 -0.00368305 -7.48676e-23)             (0.986975 0.00368899 -9.15438e-23)
         1.74             (0.986916 -0.00370277 -7.61826e-23)             (0.986918 0.00370878 -9.30183e-23)
         1.75             (0.986859 -0.0037226 -7.75199e-23)             (0.986861 0.00372869 -9.45172e-23)
         1.76             (0.986801 -0.00374254 -7.88792e-23)             (0.986803 0.00374871 -9.60401e-23)
         1.77             (0.986744 -0.00376259 -8.02605e-23)             (0.986746 0.00376884 -9.7587e-23)
         1.78             (0.986686 -0.00378276 -8.16635e-23)             (0.986688 0.00378909 -9.91575e-23)
         1.79             (0.986628 -0.00380303 -8.3088e-23)             (0.98663 0.00380944 -1.00752e-22)
          1.8             (0.98657 -0.00382342 -8.45338e-23)             (0.986572 0.00382991 -1.02369e-22)
         1.81             (0.986512 -0.00384393 -8.60006e-23)             (0.986514 0.0038505 -1.04009e-22)
         1.82             (0.986453 -0.00386455 -8.74883e-23)             (0.986455 0.00387119 -1.05673e-22)
         1.83             (0.986395 -0.00388528 -8.89966e-23)             (0.986397 0.00389201 -1.07358e-22)
         1.84             (0.986336 -0.00390613 -9.05253e-23)             (0.986338 0.00391294 -1.09066e-22)
         1.85             (0.986277 -0.0039271 -9.20741e-23)             (0.986279 0.00393399 -1.10796e-22)
         1.86             (0.986218 -0.00394819 -9.36427e-23)             (0.98622 0.00395515 -1.12548e-22)
         1.87             (0.986158 -0.00396939 -9.52308e-23)             (0.98616 0.00397644 -1.14321e-22)
         1.88             (0.986099 -0.00399071 -9.68382e-23)             (0.986101 0.00399784 -1.16114e-22)
         1.89             (0.986039 -0.00401216 -9.84644e-23)             (0.986041 0.00401937 -1.1793e-22)
          1.9             (0.985979 -0.00403373 -1.00109e-22)             (0.985981 0.00404101 -1.19765e-22)
         1.91             (0.985919 -0.00405541 -1.01773e-22)             (0.985921 0.00406278 -1.2162e-22)
         1.92             (0.985859 -0.00407723 -1.03454e-22)             (0.985861 0.00408468 -1.23495e-22)
         1.93             (0.985799 -0.00409916 -1.05153e-22)             (0.985801 0.00410669 -1.2539e-22)
         1.94             (0.985738 -0.00412122 -1.0687e-22)             (0.98574 0.00412884 -1.27304e-22)
         1.95             (0.985677 -0.00414341 -1.08604e-22)             (0.98568 0.0041511 -1.29237e-22)
         1.96             (0.985616 -0.00416573 -1.10354e-22)             (0.985619 0.0041735 -1.31188e-22)
         1.97             (0.985555 -0.00418817 -1.12121e-22)             (0.985558 0.00419603 -1.33157e-22)
         1.98             (0.985494 -0.00421074 -1.13904e-22)             (0.985497 0.00421868 -1.35144e-22)
         1.99             (0.985433 -0.00423345 -1.15703e-22)             (0.985435 0.00424147 -1.37148e-22)
            2             (0.985371 -0.00425628 -1.17518e-22)             (0.985374 0.00426438 -1.39169e-22)
         2.01             (0.98531 -0.00427925 -1.19348e-22)             (0.985312 0.00428743 -1.41208e-22)
         2.02             (0.985248 -0.00430235 -1.21192e-22)             (0.98525 0.00431062 -1.43262e-22)
         2.03             (0.985186 -0.00432559 -1.23051e-22)             (0.985188 0.00433394 -1.45332e-22)
         2.04             (0.985123 -0.00434897 -1.24924e-22)             (0.985126 0.00435739 -1.47418e-22)
         2.05             (0.985061 -0.00437248 -1.26811e-22)             (0.985064 0.00438099 -1.49519e-22)
         2.06             (0.984999 -0.00439613 -1.28712e-22)             (0.985001 0.00440472 -1.51635e-22)
         2.07             (0.984936 -0.00441992 -1.30625e-22)             (0.984939 0.0044286 -1.53766e-22)
         2.08             (0.984873 -0.00444386 -1.32552e-22)             (0.984876 0.00445262 -1.55911e-22)
         2.09             (0.98481 -0.00446793 -1.34491e-22)             (0.984813 0.00447678 -1.58069e-22)
          2.1             (0.984747 -0.00449215 -1.36442e-22)             (0.98475 0.00450108 -1.60242e-22)
         2.11             (0.984683 -0.00451652 -1.38405e-22)             (0.984686 0.00452553 -1.62427e-22)
         2.12             (0.98462 -0.00454103 -1.40406e-22)             (0.984623 0.00455014 -1.64611e-22)
         2.13             (0.984556 -0.00456569 -1.42393e-22)             (0.984559 0.00457489 -1.66824e-22)
         2.14             (0.984492 -0.0045905 -1.44387e-22)             (0.984495 0.0045998 -1.69043e-22)
         2.15             (0.984428 -0.00461547 -1.46393e-22)             (0.984431 0.00462485 -1.71279e-22)
         2.16             (0.984364 -0.00464058 -1.4841e-22)             (0.984367 0.00465006 -1.73524e-22)
         2.17             (0.9843 -0.00466585 -1.50437e-22)             (0.984303 0.00467543 -1.75781e-22)
         2.18             (0.984235 -0.00469128 -1.52473e-22)             (0.984239 0.00470095 -1.78048e-22)
         2.19             (0.984171 -0.00471686 -1.54519e-22)             (0.984174 0.00472663 -1.80326e-22)
          2.2             (0.984106 -0.0047426 -1.56574e-22)             (0.984109 0.00475247 -1.82614e-22)
         2.21             (0.984041 -0.00476851 -1.58493e-22)             (0.984044 0.00477847 -1.8478e-22)
         2.22             (0.983976 -0.00479457 -1.60864e-22)             (0.983979 0.00480463 -1.8736e-22)
         2.23             (0.98391 -0.0048208 -1.62764e-22)             (0.983914 0.00483096 -1.89517e-22)
         2.24             (0.983845 -0.0048472 -1.64781e-22)             (0.983848 0.00485745 -1.91769e-22)
         2.25             (0.983779 -0.00487377 -1.67105e-22)             (0.983783 0.00488411 -1.94315e-22)
         2.26             (0.983713 -0.0049005 -1.69086e-22)             (0.983717 0.00491095 -1.96551e-22)
         2.27             (0.983647 -0.00492741 -1.7114e-22)             (0.983651 0.00493795 -1.98844e-22)
         2.28             (0.983581 -0.00495449 -1.73259e-22)             (0.983585 0.00496513 -2.01203e-22)
         2.29             (0.983515 -0.00498175 -1.75421e-22)             (0.983518 0.00499248 -2.03605e-22)
          2.3             (0.983448 -0.00500918 -1.77591e-22)             (0.983452 0.00502001 -2.06016e-22)
         2.31             (0.983382 -0.00503679 -1.79755e-22)             (0.983385 0.00504772 -2.08423e-22)
         2.32             (0.983315 -0.00506458 -1.8191e-22)             (0.983318 0.00507561 -2.1082e-22)
         2.33             (0.983248 -0.00509255 -1.84054e-22)             (0.983251 0.00510368 -2.1321e-22)
         2.34             (0.98318 -0.00512071 -1.86196e-22)             (0.983184 0.00513193 -2.15598e-22)
         2.35             (0.983113 -0.00514905 -1.88342e-22)             (0.983117 0.00516038 -2.17991e-22)
         2.36             (0.983046 -0.00517759 -1.90499e-22)             (0.983049 0.00518901 -2.20397e-22)
         2.37             (0.982978 -0.00520631 -1.92667e-22)             (0.982981 0.00521783 -2.22814e-22)
         2.38             (0.98291 -0.00523523 -1.94845e-22)             (0.982914 0.00524685 -2.25241e-22)
         2.39             (0.982842 -0.00526434 -1.97027e-22)             (0.982845 0.00527606 -2.27674e-22)
          2.4             (0.982773 -0.00529364 -1.99052e-22)             (0.982777 0.00530546 -2.29959e-22)
         2.41             (0.982705 -0.00532315 -2.01377e-22)             (0.982709 0.00533507 -2.3253e-22)
         2.42             (0.982636 -0.00535285 -2.03668e-22)             (0.98264 0.00536487 -2.35063e-22)
         2.43             (0.982568 -0.00538276 -2.0571e-22)             (0.982571 0.00539488 -2.37366e-22)
         2.44             (0.982499 -0.00541287 -2.0803e-22)             (0.982502 0.00542509 -2.39936e-22)
         2.45             (0.982429 -0.00544319 -2.10293e-22)             (0.982433 0.00545551 -2.42444e-22)
         2.46             (0.98236 -0.00547372 -2.12234e-22)             (0.982364 0.00548614 -2.4466e-22)
         2.47             (0.98229 -0.00550446 -2.14615e-22)             (0.982294 0.00551698 -2.47288e-22)
         2.48             (0.982221 -0.00553541 -2.16935e-22)             (0.982225 0.00554804 -2.49851e-22)
         2.49             (0.982151 -0.00556658 -2.18917e-22)             (0.982155 0.00557931 -2.52107e-22)
          2.5             (0.982081 -0.00559796 -2.21297e-22)             (0.982085 0.0056108 -2.54737e-22)
         2.51             (0.98201 -0.00562957 -2.23448e-22)             (0.982015 0.0056425 -2.57145e-22)
         2.52             (0.98194 -0.0056614 -2.25799e-22)             (0.981944 0.00567443 -2.5975e-22)
         2.53             (0.981869 -0.00569345 -2.27839e-22)             (0.981873 0.00570659 -2.62057e-22)
         2.54             (0.981798 -0.00572573 -2.30222e-22)             (0.981803 0.00573897 -2.64694e-22)
         2.55             (0.981727 -0.00575824 -2.32344e-22)             (0.981732 0.00577158 -2.67078e-22)
         2.56             (0.981656 -0.00579097 -2.34714e-22)             (0.98166 0.00580443 -2.69703e-22)
         2.57             (0.981585 -0.00582395 -2.36788e-22)             (0.981589 0.0058375 -2.72045e-22)
         2.58             (0.981513 -0.00585715 -2.39171e-22)             (0.981517 0.00587082 -2.74683e-22)
         2.59             (0.981441 -0.0058906 -2.41292e-22)             (0.981445 0.00590437 -2.7707e-22)
          2.6             (0.981369 -0.00592429 -2.43662e-22)             (0.981373 0.00593816 -2.79697e-22)
         2.61             (0.981297 -0.00595822 -2.45765e-22)             (0.981301 0.0059722 -2.8207e-22)
         2.62             (0.981224 -0.0059924 -2.48139e-22)             (0.981229 0.00600648 -2.84701e-22)
         2.63             (0.981152 -0.00602682 -2.50272e-22)             (0.981156 0.00604101 -2.87102e-22)
         2.64             (0.981079 -0.00606149 -2.52636e-22)             (0.981083 0.00607579 -2.89726e-22)
         2.65             (0.981006 -0.00609642 -2.54767e-22)             (0.98101 0.00611083 -2.92127e-22)
         2.66             (0.980932 -0.0061316 -2.57125e-22)             (0.980937 0.00614612 -2.94747e-22)
         2.67             (0.980859 -0.00616704 -2.59427e-22)             (0.980864 0.00618167 -2.97302e-22)
         2.68             (0.980785 -0.00620274 -2.61436e-22)             (0.98079 0.00621748 -2.99601e-22)
         2.69             (0.980711 -0.00623871 -2.63819e-22)             (0.980716 0.00625355 -3.02245e-22)
          2.7             (0.980637 -0.00627493 -2.66166e-22)             (0.980642 0.00628988 -3.04845e-22)
         2.71             (0.980563 -0.00631143 -2.68439e-22)             (0.980568 0.00632649 -3.07381e-22)
         2.72             (0.980488 -0.0063482 -2.70474e-22)             (0.980493 0.00636337 -3.09704e-22)
         2.73             (0.980414 -0.00638523 -2.72828e-22)             (0.980419 0.00640051 -3.12325e-22)
         2.74             (0.980339 -0.00642255 -2.75168e-22)             (0.980344 0.00643794 -3.14922e-22)
         2.75             (0.980264 -0.00646014 -2.77459e-22)             (0.980269 0.00647564 -3.17477e-22)
         2.76             (0.980188 -0.00649801 -2.79698e-22)             (0.980193 0.00651362 -3.19985e-22)