1.275 	2.15223e-18 	-2.76991e-20 	-0.464892
1.825 	2.15223e-18 	-1.39322e-20 	-0.464153
2.375 	2.15223e-18 	1.38775e-18 	-0.324294
2.925 	2.15223e-18 	2.78958e-18 	-0.142024
3.475 	2.15223e-18 	4.53849e-18 	-0.1997
4.025 	2.15223e-18 	6.28755e-18 	-0.163248
4.575 	2.15223e-18 	6.30203e-18 	-0.0948964
5.125 	2.15223e-18 	6.31666e-18 	-0.081263
5.675 	2.15223e-18 	6.33144e-18 	-0.151768
6.225 	2.15223e-18 	4.61166e-18 	-0.141181
