/*--------------------------------*- C++ -*----------------------------------*\
  =========                 |
  \\      /  F ield         | OpenFOAM: The Open Source CFD Toolbox
   \\    /   O peration     | Website:  https://openfoam.org
    \\  /    A nd           | Version:  6.0
     \\/     M anipulation  |
\*---------------------------------------------------------------------------*/
FoamFile
{
    version     2.0;
    format      ascii;
    class       volVectorField;
    location    "66";
    object      U;
}
// * * * * * * * * * * * * * * * * * * * * * * * * * * * * * * * * * * * * * //

dimensions      [0 1 -1 0 0 0 0];

internalField   nonuniform List<vector> 
4000
(
(0.106585 0.00794404 6.85669e-20)
(0.335462 0.0410147 -3.74062e-20)
(0.564941 0.0970531 4.41141e-20)
(0.776207 0.159691 -3.28315e-20)
(0.954831 0.218514 -1.47031e-20)
(1.09405 0.267657 4.47989e-21)
(1.19436 0.304637 -1.43886e-20)
(1.26102 0.329632 5.1645e-20)
(1.30134 0.344398 -4.29284e-20)
(1.32266 0.351271 1.00747e-20)
(1.33123 0.352524 -7.50071e-21)
(1.33183 0.350046 -4.85718e-20)
(1.32783 0.345252 4.70361e-20)
(1.32142 0.339125 1.78336e-20)
(1.31401 0.332308 -1.77067e-20)
(1.30641 0.3252 4.14549e-20)
(1.29912 0.318028 -6.57288e-22)
(1.29242 0.310951 -3.99546e-20)
(1.28649 0.30434 2.94838e-20)
(1.28146 0.298051 9.24468e-21)
(0.121349 0.0132802 -2.40446e-20)
(0.370959 0.0572238 6.96184e-20)
(0.611844 0.122572 8.05707e-20)
(0.825735 0.191268 -3.80576e-20)
(1.00001 0.25255 6.61304e-20)
(1.1306 0.301186 1.04532e-19)
(1.22067 0.335747 -5.79986e-21)
(1.27746 0.357431 -1.78946e-20)
(1.30941 0.36875 8.82443e-20)
(1.32425 0.372485 4.2967e-20)
(1.32816 0.371098 -7.74321e-21)
(1.32561 0.3665 6.38523e-20)
(1.31959 0.360039 -6.81942e-20)
(1.31196 0.352606 1.06214e-19)
(1.30384 0.344753 -1.76638e-20)
(1.29588 0.336808 5.04685e-20)
(1.28844 0.328941 9.02081e-21)
(1.28173 0.321294 3.58326e-20)
(1.27585 0.314235 -3.40841e-20)
(1.27091 0.307485 8.28002e-21)
(0.136238 0.019749 -3.74177e-20)
(0.405535 0.0758537 8.80929e-20)
(0.655947 0.150686 6.55804e-20)
(0.870458 0.224871 -9.95302e-21)
(1.03889 0.287743 1.02282e-19)
(1.1602 0.335059 -7.6692e-20)
(1.24015 0.366623 -5.88413e-21)
(1.28776 0.384688 6.73273e-20)
(1.3123 0.392469 2.13348e-20)
(1.32166 0.393112 2.98665e-20)
(1.32183 0.389192 -4.40518e-20)
(1.31687 0.382589 1.14778e-19)
(1.3094 0.374561 2.13264e-20)
(1.30095 0.365893 -1.01279e-19)
(1.29242 0.357049 1.47777e-19)
(1.28429 0.348288 -1.7396e-19)
(1.27684 0.339737 -7.9549e-20)
(1.27022 0.33152 1.33847e-20)
(1.26445 0.324006 7.68903e-20)
(1.25966 0.316777 -1.45102e-19)
(0.151007 0.0273511 -8.34929e-20)
(0.438605 0.0967685 -1.97369e-19)
(0.696559 0.181082 -1.71115e-19)
(0.90984 0.260074 -2.32565e-19)
(1.07127 0.323667 -1.32083e-19)
(1.18295 0.368923 -2.73522e-19)
(1.25319 0.397017 3.47833e-20)
(1.29244 0.411252 -1.45019e-19)
(1.31055 0.415473 -1.59509e-20)
(1.3154 0.413104 2.38413e-20)
(1.31263 0.406768 -5.23364e-20)
(1.30591 0.398273 6.54776e-20)
(1.29745 0.388764 1.16369e-19)
(1.28852 0.378918 -1.63463e-19)
(1.27981 0.369115 2.63837e-20)
(1.27168 0.359555 7.56801e-20)
(1.26433 0.350323 1.26453e-19)
(1.25787 0.341538 -1.09067e-19)
(1.25229 0.333562 -5.18982e-21)
(1.2477 0.325837 1.2768e-19)
(0.165407 0.0360566 -1.57092e-19)
(0.46961 0.119768 4.31964e-19)
(0.733085 0.213387 -7.59395e-20)
(0.943481 0.296428 1.01241e-19)
(1.09703 0.359895 -9.8817e-20)
(1.19908 0.402444 3.03993e-19)
(1.26017 0.4267 -4.82268e-20)
(1.29196 0.436978 2.86554e-20)
(1.30463 0.437671 -1.46327e-20)
(1.30586 0.432397 4.71515e-20)
(1.30088 0.423767 3.04883e-20)
(1.29293 0.413484 3.87328e-20)
(1.28389 0.402569 -1.09505e-19)
(1.27475 0.391593 1.60463e-19)
(1.26605 0.380858 -1.21932e-19)
(1.25805 0.37051 2.33e-20)
(1.2509 0.360602 -7.81694e-20)
(1.24469 0.35125 1.67249e-20)
(1.23935 0.342805 1.88832e-20)
(1.23503 0.334573 -1.75089e-19)
(0.179188 0.045805 1.09e-20)
(0.498038 0.144593 -2.17126e-19)
(0.765029 0.247184 1.20345e-19)
(0.971112 0.333467 -4.18915e-19)
(1.11623 0.396013 2.03159e-19)
(1.20884 0.435301 -3.47936e-19)
(1.26152 0.45545 -2.7199e-19)
(1.2868 0.461722 -1.04111e-20)
(1.29496 0.458963 -9.24212e-20)
(1.29337 0.450909 -2.88318e-19)
(1.28681 0.440107 -3.63207e-20)
(1.27811 0.428132 -2.77256e-19)
(1.26881 0.415879 5.00267e-20)
(1.2597 0.403815 -4.01333e-20)
(1.25116 0.392171 2.36174e-20)
(1.24341 0.381046 -1.86943e-19)
(1.23657 0.370467 9.28938e-21)
(1.23066 0.360551 3.71529e-20)
(1.22562 0.351634 -8.7061e-20)
(1.22163 0.342892 7.57453e-20)
(0.192107 0.0565055 -8.88375e-20)
(0.523432 0.170934 3.96311e-19)
(0.792003 0.282021 3.33824e-21)
(0.992585 0.370717 -3.43292e-19)
(1.12896 0.431615 2.59951e-19)
(1.21255 0.467192 1.09422e-19)
(1.25764 0.483056 2.21273e-20)
(1.27735 0.485336 -1.85085e-19)
(1.28188 0.479235 3.00655e-19)
(1.27821 0.468536 -1.77126e-19)
(1.27063 0.455683 6.33949e-20)
(1.26158 0.44211 2.99983e-19)
(1.2523 0.42858 -2.70467e-19)
(1.24341 0.415467 2.9716e-19)
(1.23519 0.402937 -1.93021e-19)
(1.2278 0.391047 -3.77282e-20)
(1.22133 0.379806 4.56858e-20)
(1.21581 0.369333 5.82359e-20)
(1.21113 0.359943 8.0586e-20)
(1.20753 0.350696 4.82611e-20)
(0.203938 0.0680394 3.53041e-20)
(0.545404 0.198437 -3.5556e-19)
(0.813727 0.317424 6.3203e-20)
(1.00786 0.407709 8.28016e-19)
(1.13543 0.466311 -7.62396e-20)
(1.21057 0.497826 2.30237e-19)
(1.24893 0.509312 1.43911e-19)
(1.26399 0.507667 2.37277e-20)
(1.26572 0.498362 -1.67838e-19)
(1.2606 0.485161 2.75349e-19)
(1.25248 0.470378 -3.26966e-20)
(1.24342 0.455293 4.20836e-19)
(1.23442 0.440547 1.62701e-19)
(1.22593 0.426423 1.02293e-19)
(1.21816 0.413031 -2.13377e-19)
(1.21122 0.400393 4.53338e-20)
(1.20522 0.388503 1.66157e-19)
(1.20014 0.377483 4.33598e-20)
(1.19588 0.367625 -2.02146e-19)
(1.19274 0.357887 -5.05702e-20)
(0.214473 0.080262 -1.97488e-19)
(0.56364 0.226716 6.36844e-19)
(0.830023 0.352904 -3.46814e-19)
(1.01699 0.44398 -3.1972e-19)
(1.13588 0.499728 -2.78679e-19)
(1.20324 0.526926 -2.35515e-19)
(1.23577 0.534016 -2.91248e-19)
(1.24707 0.528558 3.65752e-19)
(1.24673 0.516206 -2.62121e-19)
(1.24074 0.500653 -2.12803e-20)
(1.23251 0.484057 -1.7902e-21)
(1.22374 0.467547 -5.04808e-20)
(1.21523 0.451643 -1.30767e-19)
(1.2073 0.436549 -1.46511e-19)
(1.2001 0.422324 -7.8321e-21)
(1.19371 0.40896 -3.26789e-20)
(1.18824 0.396437 -8.12186e-20)
(1.18368 0.384885 -2.53963e-20)
(1.17991 0.374569 2.71224e-20)
(1.17728 0.364365 -1.74348e-19)
(0.223529 0.0930066 3.44688e-19)
(0.5779 0.255362 3.57432e-19)
(0.84081 0.387975 -2.22178e-19)
(1.0201 0.479085 1.36898e-19)
(1.13062 0.53151 2.3732e-19)
(1.19095 0.554228 -4.9723e-20)
(1.21853 0.556969 5.84159e-20)
(1.22689 0.547851 6.67091e-20)
(1.22515 0.532624 1.11117e-19)
(1.21881 0.514871 -1.30802e-19)
(1.21082 0.49658 6.39023e-20)
(1.20261 0.478728 -4.48548e-20)
(1.19479 0.461727 1.98916e-19)
(1.18757 0.445708 8.79291e-20)
(1.18105 0.430682 -1.99303e-19)
(1.17532 0.416618 1.10268e-19)
(1.17046 0.403486 5.45948e-20)
(1.16647 0.39142 -1.01496e-19)
(1.16325 0.380662 2.74343e-19)
(1.1612 0.370029 -2.02788e-19)
(0.230956 0.106088 -2.53347e-19)
(0.588026 0.283952 -3.29631e-19)
(0.846098 0.422153 2.31723e-19)
(1.01741 0.512596 -2.13587e-19)
(1.11998 0.561326 -1.90971e-20)
(1.17406 0.579485 -2.36682e-19)
(1.19756 0.577982 1.95665e-19)
(1.20374 0.565384 3.65142e-19)
(1.20121 0.547467 -5.08205e-19)
(1.19496 0.527668 2.61021e-20)
(1.18753 0.507798 2.01718e-20)
(1.18012 0.48869 -1.03194e-19)
(1.17316 0.470654 7.07212e-20)
(1.16679 0.453756 -3.04322e-20)
(1.16108 0.437969 2.04835e-19)
(1.15608 0.423236 -2.20738e-19)
(1.15191 0.409522 -7.73662e-20)
(1.14856 0.396965 2.00359e-19)
(1.14596 0.385785 -3.01887e-19)
(1.14457 0.374769 1.90334e-19)
(0.236631 0.119309 5.26986e-19)
(0.593932 0.312059 4.67557e-19)
(0.845978 0.454974 -7.83781e-20)
(1.00917 0.544111 -1.00887e-20)
(1.1043 0.588863 -2.39067e-19)
(1.15295 0.602461 1.01576e-19)
(1.17318 0.596869 5.05476e-19)
(1.17789 0.580996 -4.44812e-19)
(1.17511 0.560584 2.84022e-19)
(1.16932 0.538894 -2.56862e-20)
(1.16275 0.517561 1.75743e-19)
(1.15633 0.497282 -4.23251e-20)
(1.15041 0.478276 1.06325e-19)
(1.14503 0.460552 1.39227e-19)
(1.14023 0.444046 -7.61024e-20)
(1.13607 0.428679 9.53342e-20)
(1.13266 0.414413 -1.36799e-19)
(1.13002 0.401387 3.48319e-19)
(1.1281 0.389804 -2.19211e-19)
(1.12744 0.378458 1.574e-19)
(0.24047 0.132459 -2.58133e-19)
(0.595611 0.339261 -4.81946e-19)
(0.840616 0.485991 -3.32833e-19)
(0.995693 0.573257 -2.44715e-20)
(1.08399 0.613836 7.99399e-20)
(1.12799 0.622941 -4.40858e-20)
(1.14573 0.613456 -2.87158e-19)
(1.14959 0.594534 -1.26843e-19)
(1.14702 0.571825 -2.33432e-19)
(1.14204 0.548402 -1.17274e-19)
(1.13656 0.525722 5.84971e-20)
(1.13134 0.504358 -2.78374e-19)
(1.12659 0.484448 -6.6589e-20)
(1.12234 0.465952 -6.61914e-20)
(1.11858 0.448773 -2.09206e-19)
(1.11535 0.432811 9.30929e-20)
(1.11277 0.418022 7.57099e-22)
(1.11091 0.404544 8.70896e-20)
(1.10976 0.392569 -3.69534e-20)
(1.10989 0.380945 -1.32635e-19)
(0.242421 0.145328 5.96574e-19)
(0.59312 0.365149 5.19239e-19)
(0.830239 0.51479 6.46974e-19)
(0.97733 0.599691 -6.70903e-20)
(1.05941 0.635985 -2.36653e-19)
(1.09955 0.640725 6.98538e-19)
(1.11551 0.62758 -3.50425e-19)
(1.11908 0.605849 3.90519e-19)
(1.11713 0.581048 -7.26135e-20)
(1.11326 0.556049 2.41692e-19)
(1.10907 0.532138 2.68931e-20)
(1.1052 0.509774 1.18556e-19)
(1.10178 0.489027 -2.68629e-20)
(1.09879 0.469814 1.20587e-19)
(1.09618 0.452009 -1.00045e-19)
(1.09399 0.435494 5.65463e-21)
(1.09233 0.420212 5.0341e-20)
(1.09131 0.406293 8.10167e-20)
(1.09099 0.39393 -1.27091e-20)
(1.09197 0.382085 4.41563e-20)
(0.242468 0.157704 -1.83517e-19)
(0.586584 0.389334 -5.16896e-19)
(0.815132 0.540988 -3.14603e-19)
(0.954463 0.623106 -5.51038e-19)
(1.03098 0.655079 5.94297e-19)
(1.06799 0.655636 -4.22044e-19)
(1.08282 0.639091 2.68573e-19)
(1.0866 0.614806 -9.30196e-20)
(1.08563 0.588123 -1.15764e-19)
(1.08309 0.561705 -8.17625e-20)
(1.08038 0.536679 4.26328e-20)
(1.078 0.513399 5.71645e-20)
(1.07604 0.491878 4.66997e-20)
(1.07443 0.472 -6.29727e-20)
(1.0731 0.453616 -4.50975e-20)
(1.07206 0.436587 1.46485e-19)
(1.07141 0.420841 -1.72214e-20)
(1.07131 0.406491 -5.56658e-20)
(1.07187 0.39375 4.48362e-21)
(1.0737 0.381766 -8.48224e-21)
(0.240631 0.169379 8.14892e-19)
(0.576185 0.411453 3.83291e-19)
(0.795627 0.564238 3.57958e-19)
(0.927499 0.643228 -2.13146e-19)
(0.99911 0.670914 2.69236e-20)
(1.03369 0.667519 3.03641e-19)
(1.04797 0.64786 4.09537e-20)
(1.05238 0.621286 8.68498e-20)
(1.05268 0.592934 9.57308e-20)
(1.05168 0.565258 8.61848e-21)
(1.05059 0.539231 5.10455e-20)
(1.04981 0.515118 -9.47493e-21)
(1.0494 0.492883 -2.59091e-20)
(1.04929 0.472384 -7.44911e-20)
(1.04938 0.453455 2.02765e-20)
(1.04962 0.435942 4.35325e-21)
(1.0501 0.419753 -5.84212e-21)
(1.05098 0.404974 4.24062e-21)
(1.05248 0.391862 6.47105e-21)
(1.05523 0.379846 2.21705e-21)
(0.236961 0.180156 -5.85102e-19)
(0.562158 0.431176 -5.05953e-19)
(0.772098 0.584236 2.43705e-19)
(0.896869 0.659823 -3.01081e-19)
(0.964212 0.683318 -2.20059e-20)
(0.997001 0.67624 4.25097e-20)
(1.01124 0.653775 -4.78603e-20)
(1.01666 0.625186 -3.89696e-20)
(1.01847 0.595384 -8.57677e-20)
(1.01917 0.566613 -5.36709e-20)
(1.0198 0.539704 -1.29882e-20)
(1.0207 0.514842 -3.396e-20)
(1.02192 0.491948 1.29338e-20)
(1.0234 0.470862 -1.29458e-20)
(1.02503 0.451409 9.71393e-21)
(1.02671 0.433427 -1.57934e-20)
(1.02845 0.4168 -2.23311e-20)
(1.03043 0.401558 -2.73265e-20)
(1.03301 0.387993 7.65549e-22)
(1.03695 0.375959 4.65515e-20)
(0.231542 0.189851 5.4765e-19)
(0.544781 0.448207 1.75694e-20)
(0.744948 0.600718 -5.10947e-20)
(0.863017 0.672695 6.07154e-20)
(0.926708 0.692151 2.1248e-19)
(0.958289 0.681694 -1.5319e-19)
(0.972943 0.656747 6.67959e-20)
(0.97967 0.626426 -8.97745e-20)
(0.98319 0.595398 2.2216e-20)
(0.985703 0.565701 -2.13067e-20)
(0.988111 0.538033 -1.95489e-20)
(0.990728 0.512503 -2.12664e-20)
(0.993618 0.488998 1.98284e-20)
(0.996744 0.467344 -1.16785e-20)
(1.00001 0.447365 -1.14278e-19)
(1.00329 0.42891 1.08088e-19)
(1.00651 0.411839 -7.20926e-20)
(1.00983 0.396045 -4.84962e-20)
(1.01389 0.381745 5.48533e-20)
(1.01952 0.369448 -6.96743e-20)
(0.224486 0.198297 -1.14784e-19)
(0.524372 0.462292 1.21912e-19)
(0.71461 0.613465 8.68856e-20)
(0.8264 0.681685 -1.31441e-19)
(0.887022 0.697303 6.29675e-20)
(0.917919 0.683798 -1.08603e-19)
(0.933373 0.656711 -1.34081e-20)
(0.941661 0.624952 1.89123e-21)
(0.947033 0.592932 -9.76389e-21)
(0.951429 0.562489 -6.97204e-20)
(0.955643 0.534192 7.25821e-21)
(0.95996 0.508077 -7.06916e-21)
(0.964474 0.483991 8.77323e-20)
(0.969206 0.461741 -2.42224e-19)
(0.974119 0.441155 2.25945e-19)
(0.979088 0.422113 1.23925e-19)
(0.983973 0.404467 -3.03282e-20)
(0.989038 0.387887 1.87901e-20)
(0.995213 0.37237 2.23541e-19)
(1.00282 0.359444 -9.25124e-20)
(0.215928 0.205344 -3.58836e-20)
(0.501279 0.473215 9.00593e-20)
(0.681534 0.622301 -1.02323e-19)
(0.787483 0.686673 1.37557e-19)
(0.84558 0.698692 -1.10501e-20)
(0.876259 0.682497 -1.82986e-20)
(0.89284 0.653623 9.99677e-21)
(0.90289 0.620733 -4.10534e-20)
(0.910218 0.587974 4.26043e-20)
(0.916536 0.556991 3.46245e-20)
(0.922536 0.52823 2.23177e-20)
(0.928481 0.50165 5.83076e-22)
(0.934482 0.477043 8.41288e-20)
(0.940616 0.454165 -8.77103e-20)
(0.946918 0.432803 1.02841e-19)
(0.953313 0.412822 -2.13187e-19)
(0.959712 0.394022 2.42597e-19)
(0.966578 0.375752 -2.0948e-19)
(0.974929 0.357744 -1.37818e-19)
(0.983624 0.343493 2.4163e-19)
(0.206028 0.210868 5.27715e-20)
(0.475877 0.480803 3.16423e-21)
(0.646186 0.627092 1.62889e-20)
(0.746734 0.687572 -1.20678e-20)
(0.802809 0.696266 -1.19402e-20)
(0.833677 0.677755 9.11249e-21)
(0.851661 0.647461 -1.13102e-19)
(0.863634 0.613758 7.52233e-20)
(0.872998 0.580533 8.17993e-20)
(0.881258 0.549249 -1.20605e-19)
(0.889018 0.52025 1.48611e-19)
(0.896505 0.493429 -5.55544e-20)
(0.903822 0.468527 1.16019e-19)
(0.911047 0.44524 -1.84405e-19)
(0.918225 0.423272 3.86582e-19)
(0.925318 0.402367 -8.54057e-20)
(0.932349 0.382109 -2.36901e-20)
(0.940014 0.361219 2.60622e-19)
(0.949109 0.337728 -1.26174e-19)
(0.954551 0.31422 6.00297e-20)
(0.194959 0.214764 -2.04401e-20)
(0.448554 0.484925 -1.81907e-20)
(0.609037 0.627745 -2.7945e-20)
(0.704623 0.684331 1.44399e-20)
(0.759136 0.69 -1.1747e-20)
(0.790546 0.669558 -1.31109e-19)
(0.810161 0.638213 1.97963e-19)
(0.824185 0.604021 1.49869e-20)
(0.835647 0.570609 -2.23276e-20)
(0.845873 0.53928 5.18596e-21)
(0.855393 0.510295 7.22265e-20)
(0.864405 0.483514 1.26266e-19)
(0.872989 0.458673 7.49552e-20)
(0.881179 0.435485 -1.79911e-19)
(0.88896 0.413698 -5.37558e-20)
(0.896271 0.393116 -6.35277e-21)
(0.903218 0.373475 3.59471e-20)
(0.910414 0.354073 5.67505e-21)
(0.917806 0.334188 3.96617e-19)
(0.920646 0.315979 -2.76608e-19)
(0.182909 0.216947 9.18182e-20)
(0.419712 0.485488 6.29314e-21)
(0.570561 0.624207 -9.53176e-20)
(0.661614 0.67693 2.75387e-19)
(0.714978 0.67989 7.16232e-20)
(0.747234 0.657909 -1.90026e-19)
(0.768664 0.625882 1.83356e-19)
(0.784838 0.591521 -4.57344e-20)
(0.798444 0.558199 1.68503e-19)
(0.810657 0.527071 8.10946e-20)
(0.821955 0.498327 -3.68872e-19)
(0.832526 0.471796 -4.18086e-20)
(0.842456 0.447212 5.22178e-19)
(0.85178 0.424294 -6.41341e-19)
(0.860474 0.402799 5.93894e-19)
(0.868469 0.382526 2.07927e-19)
(0.875832 0.363194 -7.35909e-19)
(0.882979 0.344216 3.58041e-19)
(0.889732 0.325283 -7.26206e-20)
(0.892533 0.308837 8.6187e-20)
(0.170074 0.21736 -2.28421e-19)
(0.389755 0.482438 -2.39856e-19)
(0.531228 0.616461 1.63949e-19)
(0.618165 0.665382 -2.1774e-19)
(0.670749 0.665961 -6.21283e-19)
(0.704102 0.642831 -2.64652e-20)
(0.727493 0.610486 -1.8741e-19)
(0.745885 0.576271 5.40387e-21)
(0.761663 0.543314 -3.8322e-19)
(0.775872 0.512636 -3.9104e-19)
(0.788947 0.484368 -2.70132e-19)
(0.801075 0.458325 -1.18129e-20)
(0.812349 0.434244 -6.65958e-19)
(0.822821 0.411867 -8.42871e-21)
(0.832492 0.39098 3.26838e-19)
(0.841331 0.371418 -3.24486e-19)
(0.849416 0.352962 -2.52717e-19)
(0.857086 0.335166 2.4384e-19)
(0.864155 0.317842 -1.74255e-19)
(0.867712 0.302912 3.38924e-20)
(0.156657 0.215965 1.98143e-19)
(0.35909 0.47576 1.53648e-19)
(0.491502 0.60453 -9.29392e-21)
(0.574723 0.649729 -1.41252e-19)
(0.626849 0.648259 3.24485e-19)
(0.661505 0.624364 5.38706e-19)
(0.686962 0.592055 -5.73536e-20)
(0.707617 0.558291 7.29826e-21)
(0.725581 0.525959 1.0306e-19)
(0.741792 0.495961 2.4296e-19)
(0.756658 0.468379 3.55383e-19)
(0.770372 0.443018 -2.90164e-19)
(0.783042 0.41962 2.84166e-19)
(0.794737 0.397941 -9.98593e-20)
(0.805481 0.377779 3.34092e-19)
(0.815274 0.358981 -1.30281e-19)
(0.824223 0.341349 -3.26387e-19)
(0.832667 0.324539 1.95439e-19)
(0.840453 0.308478 -2.80831e-19)
(0.845039 0.294787 -3.19304e-19)
(0.142863 0.212747 9.91431e-20)
(0.328116 0.465477 1.74968e-19)
(0.451834 0.588471 -1.83328e-19)
(0.531718 0.630044 4.73452e-21)
(0.583665 0.626858 3.15143e-20)
(0.619783 0.602571 2.64559e-19)
(0.647374 0.570638 -3.89013e-19)
(0.670306 0.537615 3.69491e-19)
(0.690449 0.506158 -3.7092e-20)
(0.70865 0.477058 1.011e-19)
(0.725302 0.450357 1.65337e-19)
(0.74061 0.425855 -3.1548e-19)
(0.754704 0.403301 1.4971e-19)
(0.767676 0.382467 1.43055e-19)
(0.779579 0.363163 5.31251e-20)
(0.79044 0.345245 -2.72333e-19)
(0.800397 0.328531 9.17246e-19)
(0.80978 0.312724 -5.15205e-19)
(0.818432 0.29779 9.35009e-19)
(0.824099 0.285067 -6.05015e-20)
(0.128897 0.207714 7.54149e-20)
(0.297225 0.451644 4.2299e-19)
(0.412661 0.568373 1.53118e-19)
(0.489566 0.60643 3.12727e-19)
(0.541567 0.601853 8.36657e-20)
(0.579262 0.577536 -5.07337e-19)
(0.609019 0.546303 7.89167e-19)
(0.634218 0.514298 4.116e-19)
(0.656512 0.483949 1.7903e-20)
(0.676676 0.455949 5.33875e-19)
(0.695094 0.430307 8.79889e-20)
(0.711988 0.406819 5.57506e-20)
(0.72751 0.385244 3.19739e-19)
(0.741778 0.365363 -1.20288e-19)
(0.754868 0.346997 -1.25722e-19)
(0.766842 0.330005 7.47393e-19)
(0.777859 0.314219 -6.2383e-19)
(0.788242 0.299378 2.37674e-20)
(0.797822 0.285468 7.9133e-19)
(0.804595 0.273587 -7.58877e-22)
(0.114958 0.20089 -9.16394e-19)
(0.266794 0.43435 -1.48711e-19)
(0.374399 0.544361 -2.06918e-19)
(0.448661 0.579016 -1.59827e-19)
(0.500908 0.573366 -4.09773e-19)
(0.540252 0.549364 1.40052e-19)
(0.572174 0.519139 -1.98133e-19)
(0.599601 0.48841 5.92086e-20)
(0.623996 0.459388 -2.86914e-19)
(0.646077 0.432676 -2.6967e-19)
(0.666225 0.408256 5.8599e-20)
(0.684678 0.385924 -4.39427e-19)
(0.701615 0.365449 3.52738e-19)
(0.717175 0.346621 -1.27736e-19)
(0.73146 0.329271 3.98351e-19)
(0.744557 0.313261 -8.59796e-19)
(0.756645 0.298429 -1.63531e-19)
(0.768028 0.284548 -3.09152e-19)
(0.778536 0.271605 -8.30267e-19)
(0.786401 0.260491 -1.34356e-19)
(0.101241 0.192324 1.48371e-19)
(0.237185 0.413716 -1.58591e-20)
(0.337445 0.516589 -2.34398e-19)
(0.409377 0.547961 8.31327e-20)
(0.462021 0.541543 -1.68336e-19)
(0.503046 0.518182 -2.06411e-21)
(0.537097 0.489254 2.28789e-19)
(0.566688 0.460044 -3.42481e-19)
(0.593114 0.432554 1.32988e-19)
(0.617045 0.407304 -7.73299e-20)
(0.638866 0.384255 2.15884e-20)
(0.658833 0.363207 -3.84153e-19)
(0.677148 0.343939 -4.67195e-19)
(0.693971 0.326253 -1.79122e-20)
(0.709428 0.309986 5.21039e-19)
(0.723629 0.295004 2.40921e-20)
(0.736764 0.281156 6.60032e-19)
(0.749118 0.26824 -9.62927e-19)
(0.760528 0.25624 5.11833e-19)
(0.769456 0.245869 8.84704e-19)
(0.0879348 0.182079 -1.33314e-19)
(0.208739 0.389892 7.14515e-20)
(0.302173 0.48524 4.66813e-19)
(0.372063 0.51345 1.1599e-19)
(0.425216 0.506553 -1.55621e-19)
(0.467918 0.48414 1.23374e-19)
(0.504032 0.456778 4.85174e-19)
(0.535697 0.429313 -3.94205e-19)
(0.564063 0.403543 3.66335e-20)
(0.58976 0.379915 -1.44114e-19)
(0.613179 0.358376 5.20946e-19)
(0.634596 0.338731 3.72552e-19)
(0.654232 0.32077 -5.39574e-20)
(0.67227 0.304308 -5.65069e-19)
(0.688856 0.289189 3.00021e-20)
(0.704118 0.275285 -6.99991e-20)
(0.718253 0.262455 3.32497e-19)
(0.73153 0.25052 5.41133e-19)
(0.7438 0.23946 4.72776e-19)
(0.753749 0.22983 -7.91001e-19)
(0.075216 0.170238 -8.4323e-20)
(0.18178 0.363055 3.59553e-19)
(0.26893 0.450526 -3.49726e-19)
(0.337046 0.475692 4.88683e-19)
(0.390783 0.468589 -2.64861e-19)
(0.435123 0.447408 1.91169e-19)
(0.473205 0.421862 4.84036e-19)
(0.506832 0.396348 -5.8321e-19)
(0.537025 0.372473 2.65864e-19)
(0.564387 0.350616 3.36498e-19)
(0.589312 0.330714 -4.56947e-19)
(0.612097 0.31258 -3.19587e-20)
(0.632983 0.296018 -3.66414e-19)
(0.65217 0.280856 5.88515e-19)
(0.669822 0.266947 -3.19016e-19)
(0.686086 0.25417 3.4257e-19)
(0.70116 0.242396 -6.17821e-20)
(0.715297 0.231468 2.12184e-19)
(0.728374 0.221357 4.85838e-20)
(0.739291 0.212485 -1.2388e-19)
(0.0632516 0.156898 -2.60182e-19)
(0.156605 0.333408 -5.96531e-19)
(0.238038 0.412683 1.56853e-19)
(0.304625 0.434919 -5.03825e-19)
(0.358987 0.427864 -4.77951e-19)
(0.404894 0.408177 -3.44006e-19)
(0.444824 0.384674 2.67929e-19)
(0.480278 0.361303 2.06016e-19)
(0.51217 0.339481 -1.27409e-21)
(0.541076 0.31953 -1.79631e-19)
(0.567401 0.30138 -3.24787e-19)
(0.591458 0.284857 2.92795e-19)
(0.613505 0.26978 -1.00708e-19)
(0.633761 0.255989 -4.98316e-19)
(0.652405 0.24335 3.24426e-19)
(0.669598 0.23175 -2.43626e-19)
(0.68554 0.221071 -9.92434e-20)
(0.700467 0.211179 -2.7806e-19)
(0.714289 0.202033 -2.51581e-19)
(0.726111 0.193949 6.51932e-20)
(0.0521958 0.142174 2.27086e-19)
(0.133489 0.301179 1.17341e-19)
(0.209791 0.371973 1.80133e-19)
(0.275073 0.391387 -6.16401e-19)
(0.330071 0.384612 6.59936e-19)
(0.377444 0.366656 2.34905e-21)
(0.419078 0.345403 5.12773e-21)
(0.456207 0.324345 -4.02325e-19)
(0.48965 0.304721 3.75691e-19)
(0.519967 0.286799 -2.6163e-19)
(0.547571 0.270507 7.84995e-20)
(0.57279 0.255686 -3.50404e-19)
(0.5959 0.242171 -1.66815e-19)
(0.617132 0.229818 -7.96663e-20)
(0.636682 0.218505 6.00178e-19)
(0.654721 0.208128 -2.94512e-19)
(0.671451 0.198585 -2.66004e-19)
(0.687092 0.189757 2.73386e-19)
(0.701591 0.1816 -2.24561e-19)
(0.714246 0.174338 1.75231e-19)
(0.0421893 0.126191 4.8549e-19)
(0.11268 0.266616 -2.93382e-19)
(0.184453 0.328678 4.37461e-20)
(0.248635 0.345371 5.13569e-19)
(0.304252 0.339083 2.04326e-19)
(0.352966 0.323072 2.5305e-19)
(0.396137 0.304251 2.51914e-19)
(0.43477 0.285661 5.34228e-19)
(0.469604 0.268362 -1.22316e-19)
(0.501185 0.252578 2.92379e-19)
(0.529934 0.238239 4.24759e-19)
(0.556195 0.225202 1.56481e-19)
(0.580256 0.21332 2.83235e-19)
(0.602364 0.202465 1.02775e-19)
(0.622724 0.19253 6.02934e-20)
(0.64152 0.183421 -4.37305e-20)
(0.65895 0.17505 3.51384e-19)
(0.675224 0.167317 2.16637e-19)
(0.690329 0.160172 -1.96911e-19)
(0.703735 0.15377 1.85999e-19)
(0.0333576 0.109091 -3.22815e-19)
(0.094397 0.229987 3.60835e-20)
(0.162257 0.283101 -9.32531e-20)
(0.225528 0.297162 -2.83615e-19)
(0.281721 0.291547 -1.49953e-19)
(0.331628 0.277666 -2.73026e-19)
(0.376152 0.261439 1.27217e-19)
(0.416103 0.245449 -4.90976e-19)
(0.452155 0.230589 2.90125e-19)
(0.484841 0.217039 -4.00963e-19)
(0.514592 0.204736 -2.48885e-19)
(0.541764 0.193553 -3.29452e-19)
(0.566658 0.183367 7.54902e-20)
(0.58953 0.174065 -7.44769e-20)
(0.610598 0.165554 8.89398e-20)
(0.630054 0.157755 4.78906e-20)
(0.648093 0.150591 9.51559e-20)
(0.664916 0.143979 -7.96521e-19)
(0.68055 0.137871 3.96443e-19)
(0.694618 0.132365 -2.37882e-19)
(0.0258106 0.091024 1.07029e-19)
(0.0788318 0.191579 2.16067e-19)
(0.143407 0.23556 -1.41001e-19)
(0.205939 0.24707 3.48259e-19)
(0.262645 0.242284 -5.57149e-20)
(0.313576 0.230693 4.03247e-19)
(0.359254 0.217197 7.81533e-20)
(0.400324 0.203922 -8.18223e-20)
(0.437409 0.191596 2.97942e-19)
(0.471033 0.180362 2.27646e-19)
(0.501633 0.170166 8.44958e-20)
(0.529577 0.160902 1.10976e-19)
(0.555176 0.152465 5.56328e-20)
(0.578696 0.144763 -2.36358e-19)
(0.600364 0.137717 -3.28688e-20)
(0.620377 0.131262 2.46664e-19)
(0.638931 0.125336 -1.68583e-19)
(0.656216 0.11987 -7.90931e-21)
(0.672298 0.11482 -3.53035e-19)
(0.686931 0.110245 7.11739e-19)
(0.0196414 0.072151 2.87616e-19)
(0.0661454 0.151692 -3.44925e-19)
(0.128072 0.186389 1.6195e-19)
(0.190025 0.195414 -2.28891e-19)
(0.247163 0.19159 2.02157e-19)
(0.298934 0.182421 -3.50841e-19)
(0.345552 0.171769 -2.56931e-19)
(0.387532 0.161302 1.92754e-20)
(0.425456 0.151589 -3.50139e-19)
(0.459841 0.142741 -2.18482e-19)
(0.491131 0.13471 -3.7817e-19)
(0.519702 0.127415 -1.26469e-20)
(0.545873 0.120773 -1.4689e-19)
(0.569919 0.11471 3.71703e-19)
(0.592073 0.109164 2.56137e-19)
(0.612539 0.104084 -8.60418e-20)
(0.631508 0.0994204 -7.77808e-20)
(0.649166 0.0951227 -3.50913e-21)
(0.665612 0.0911502 9.60272e-21)
(0.680707 0.0875363 1.40696e-19)
(0.0149255 0.0526408 -7.19254e-20)
(0.0564682 0.110637 -2.46447e-19)
(0.116389 0.135935 -1.53669e-19)
(0.177913 0.142529 -9.61684e-20)
(0.235387 0.139769 -1.99302e-19)
(0.2878 0.133125 3.41474e-19)
(0.335134 0.125405 -3.66814e-20)
(0.377808 0.117821 -8.22047e-20)
(0.416368 0.110784 3.30692e-21)
(0.451332 0.104373 2.4147e-19)
(0.483146 0.0985557 -2.29407e-19)
(0.512193 0.0932703 2.24383e-19)
(0.538799 0.0884575 1.05294e-19)
(0.563245 0.0840644 -1.91986e-19)
(0.585769 0.080046 4.19861e-20)
(0.606577 0.0763643 1.23452e-19)
(0.62586 0.0729851 4.29621e-20)
(0.643802 0.0698716 -2.98672e-20)
(0.660524 0.0669924 -2.59724e-19)
(0.675971 0.0643642 2.06994e-19)
(0.0117203 0.0326685 6.49978e-20)
(0.0498987 0.0687389 7.88502e-20)
(0.108463 0.0845528 2.21571e-20)
(0.169698 0.0887537 -1.67069e-20)
(0.227401 0.0871343 4.7621e-20)
(0.28025 0.0830892 7.28276e-20)
(0.328069 0.0783653 2.76135e-20)
(0.37121 0.0737168 3.37056e-20)
(0.410202 0.0694005 -7.16606e-20)
(0.445556 0.0654665 1.34265e-19)
(0.477724 0.0618948 -3.17207e-20)
(0.507093 0.0586486 -2.56116e-21)
(0.533994 0.0556914 3.2194e-20)
(0.558709 0.0529908 3.63028e-20)
(0.581482 0.0505194 -9.75853e-20)
(0.602522 0.0482539 6.42029e-20)
(0.622018 0.0461736 4.21053e-20)
(0.64015 0.0442562 3.59586e-20)
(0.657059 0.0424818 7.71137e-20)
(0.672746 0.0408574 3.19476e-20)
(0.0100646 0.0124139 -1.33204e-20)
(0.0465035 0.0263253 2.76872e-20)
(0.104364 0.032605 -3.87392e-20)
(0.165446 0.0344373 2.43471e-20)
(0.223263 0.0340029 1.42889e-20)
(0.276334 0.0326023 6.39418e-21)
(0.3244 0.0309133 1.51137e-20)
(0.367781 0.0292327 -4.33232e-20)
(0.406993 0.0276642 2.76311e-20)
(0.442547 0.0262301 9.65723e-21)
(0.474897 0.0249249 -5.65498e-22)
(0.50443 0.0237358 5.9339e-20)
(0.531481 0.0226498 -1.80075e-20)
(0.556335 0.0216556 -1.72482e-20)
(0.579236 0.0207433 -1.6582e-20)
(0.600394 0.0199046 2.57224e-21)
(0.619999 0.0191322 -2.21642e-20)
(0.638229 0.0184183 4.23484e-21)
(0.655234 0.0177556 8.33314e-22)
(0.671043 0.0171457 -2.81481e-21)
(0.0099782 -0.00794043 8.46473e-21)
(0.0463165 -0.0162696 -4.50558e-20)
(0.104126 -0.0195417 5.37081e-20)
(0.165187 -0.0200697 -4.03632e-20)
(0.223001 -0.0193029 -1.88338e-20)
(0.276077 -0.0180432 5.6395e-20)
(0.324151 -0.0166839 4.69677e-21)
(0.367541 -0.0153854 1.30475e-21)
(0.406761 -0.0141966 2.63363e-20)
(0.442323 -0.0131224 1.36112e-20)
(0.474679 -0.0121541 -1.07549e-20)
(0.50422 -0.0112799 -3.77142e-20)
(0.531276 -0.0104891 3.58639e-21)
(0.556135 -0.00977219 -3.28783e-21)
(0.579041 -0.00912116 3.51688e-20)
(0.600204 -0.0085293 -2.11648e-20)
(0.619813 -0.00799061 2.90284e-20)
(0.638047 -0.00749859 -4.35139e-20)
(0.655056 -0.00704728 5.09558e-23)
(0.670871 -0.00663905 -9.16867e-21)
(0.0114617 -0.0282112 -2.81329e-20)
(0.0493386 -0.0587112 1.41944e-19)
(0.107751 -0.0715196 9.56424e-20)
(0.168924 -0.0744148 6.32618e-20)
(0.226617 -0.0724606 7.8966e-20)
(0.279481 -0.0685541 -1.91857e-20)
(0.327323 -0.0641582 8.74825e-20)
(0.37049 -0.0598904 1.78862e-20)
(0.409507 -0.0559526 -7.83941e-21)
(0.444884 -0.0523774 -6.24128e-20)
(0.477073 -0.0491416 6.47164e-20)
(0.506461 -0.0462096 -8.78814e-20)
(0.533379 -0.0435468 6.38504e-20)
(0.55811 -0.0411229 7.31321e-20)
(0.580899 -0.0389122 9.67249e-20)
(0.601953 -0.0368931 -6.35664e-20)
(0.621462 -0.035046 1.7946e-20)
(0.639606 -0.0333503 6.71142e-20)
(0.656527 -0.031787 -6.34747e-20)
(0.672228 -0.0303639 4.79156e-20)
(0.0144968 -0.0482157 -2.72081e-19)
(0.0555384 -0.100666 -1.36604e-19)
(0.115206 -0.122962 -1.51911e-19)
(0.176627 -0.128247 -1.1966e-20)
(0.234083 -0.125148 -8.19196e-20)
(0.286521 -0.118638 -1.00351e-19)
(0.333894 -0.111243 1.77383e-19)
(0.37661 -0.104036 9.0316e-20)
(0.415212 -0.0973754 1.11201e-19)
(0.450213 -0.0913216 -1.20832e-19)
(0.482062 -0.0858379 8.95243e-20)
(0.511141 -0.080865 1.09183e-19)
(0.537777 -0.0763452 3.84768e-20)
(0.562249 -0.0722275 -3.65627e-20)
(0.584798 -0.0684686 7.84205e-21)
(0.60563 -0.0650323 -1.57903e-20)
(0.624935 -0.0618856 -1.54441e-19)
(0.642897 -0.058993 2.39512e-20)
(0.659638 -0.0563245 1.50051e-19)
(0.675108 -0.053897 -2.01722e-19)
(0.0190461 -0.0677742 -8.95004e-20)
(0.0648516 -0.141804 1.32667e-19)
(0.126423 -0.173506 3.06481e-20)
(0.188231 -0.181218 -5.7333e-20)
(0.245344 -0.177048 -1.62022e-19)
(0.297148 -0.168006 -3.46946e-19)
(0.343821 -0.157673 -3.30076e-19)
(0.385861 -0.14758 -2.36986e-20)
(0.423842 -0.138239 -1.91847e-19)
(0.45828 -0.129744 -2.86842e-19)
(0.489618 -0.122045 2.2238e-19)
(0.518233 -0.11506 -3.2797e-19)
(0.544445 -0.108708 6.51082e-20)
(0.568529 -0.102919 -2.09058e-20)
(0.590718 -0.097631 -6.86594e-20)
(0.611216 -0.0927945 -8.67353e-20)
(0.630215 -0.0883626 1.40769e-19)
(0.647902 -0.084285 1.12454e-19)
(0.664373 -0.0805224 1.93266e-19)
(0.6795 -0.0771081 -2.89487e-19)
(0.0250537 -0.0867112 4.85782e-20)
(0.0771818 -0.181803 4.71526e-19)
(0.141301 -0.222796 1.34938e-19)
(0.203645 -0.232987 3.26192e-19)
(0.260318 -0.227846 -1.21947e-19)
(0.31129 -0.216374 1.87457e-19)
(0.357038 -0.20319 -5.88818e-20)
(0.398184 -0.190282 3.79878e-19)
(0.435342 -0.178323 -1.95396e-19)
(0.469033 -0.16744 2.30214e-19)
(0.499695 -0.157571 1.99775e-19)
(0.527695 -0.148613 2.13514e-19)
(0.553346 -0.140464 -1.91008e-19)
(0.576914 -0.133033 1.63833e-19)
(0.598627 -0.126243 -2.27751e-19)
(0.618682 -0.12003 -6.26006e-20)
(0.637274 -0.114333 -1.49877e-19)
(0.654594 -0.109087 -6.36358e-20)
(0.67071 -0.104246 2.52358e-19)
(0.685384 -0.0998689 -4.18186e-19)
(0.0324453 -0.104858 -1.95033e-19)
(0.092401 -0.220349 -2.28677e-20)
(0.159704 -0.270486 -7.76827e-20)
(0.222744 -0.283221 -2.731e-19)
(0.278894 -0.277238 4.65019e-20)
(0.32885 -0.263465 -4.2723e-19)
(0.373458 -0.247542 -1.79367e-19)
(0.4135 -0.231912 -1.38506e-20)
(0.449641 -0.217413 -4.50868e-19)
(0.482409 -0.204207 -1.39801e-19)
(0.512234 -0.192227 -6.38724e-20)