/*--------------------------------*- C++ -*----------------------------------*\
  =========                 |
  \\      /  F ield         | OpenFOAM: The Open Source CFD Toolbox
   \\    /   O peration     | Website:  https://openfoam.org
    \\  /    A nd           | Version:  6.0
     \\/     M anipulation  |
\*---------------------------------------------------------------------------*/
FoamFile
{
    version     2.0;
    format      ascii;
    class       surfaceScalarField;
    location    "58";
    object      phi;
}
// * * * * * * * * * * * * * * * * * * * * * * * * * * * * * * * * * * * * * //

dimensions      [0 3 -1 0 0 0 0];

internalField   nonuniform List<scalar> 
7840
(
-2.29917e-06
8.32961e-06
-6.03044e-06
-8.19368e-06
1.9184e-05
-1.32894e-05
-1.68193e-05
2.58054e-05
-1.71797e-05
-2.74344e-05
2.93349e-05
-1.87198e-05
-3.94241e-05
3.06694e-05
-1.86797e-05
-5.22948e-05
3.05029e-05
-1.76321e-05
-6.56654e-05
2.93637e-05
-1.59932e-05
-7.92567e-05
2.76487e-05
-1.40574e-05
-9.28814e-05
2.56517e-05
-1.20271e-05
-0.000106434
2.35891e-05
-1.00367e-05
-0.000119881
2.16188e-05
-8.17191e-06
-0.000133252
1.98555e-05
-6.48446e-06
-0.000146631
1.83815e-05
-5.0027e-06
-0.000160145
1.72541e-05
-3.73934e-06
-0.00017396
1.65106e-05
-2.69635e-06
-0.000188262
1.61705e-05
-1.86794e-06
-0.000203257
1.62367e-05
-1.2415e-06
-0.000219155
1.66962e-05
-7.98841e-07
-0.000236162
1.753e-05
-5.22659e-07
1.87201e-05
-3.97561e-07
-0.000254484
-2.29375e-06
1.06234e-05
-8.17989e-06
2.50701e-05
-1.67983e-05
3.44238e-05
-2.74082e-05
3.99449e-05
-3.93927e-05
4.26539e-05
-5.22541e-05
4.33642e-05
-6.56053e-05
4.27149e-05
-7.91601e-05
4.12035e-05
-9.27234e-05
3.92151e-05
-0.000106182
3.70477e-05
-0.000119495
3.49324e-05
-0.000132688
3.30485e-05
-0.000145842
3.15347e-05
-0.000159084
3.04962e-05
-0.000172582
3.0009e-05
-0.000186534
3.01221e-05
-0.000201155
3.08579e-05
-0.000216671
3.22125e-05
-0.00023331
3.41682e-05
3.67077e-05
-0.000251297
-2.29394e-06
1.29173e-05
-8.17889e-06
3.09551e-05
-1.67916e-05
4.30365e-05
-2.73865e-05
5.05398e-05
-3.93399e-05
5.46073e-05
-5.21451e-05
5.61695e-05
-6.54039e-05
5.59737e-05
-7.88171e-05
5.46167e-05
-9.21753e-05
5.25732e-05
-0.00010535
5.02227e-05
-0.000118288
4.78698e-05
-0.000131
4.57606e-05
-0.000143559
4.40936e-05
-0.000156089
4.30264e-05
-0.00016876
4.26799e-05
-0.000181777
4.31393e-05
-0.000195372
4.44533e-05
-0.000209794
4.66338e-05
-0.000225296
4.96702e-05
5.35503e-05
-0.000242138
-2.29864e-06
1.52159e-05
-8.18619e-06
3.68426e-05
-1.67899e-05
5.16402e-05
-2.73549e-05
6.11048e-05
-3.9247e-05
6.64994e-05
-5.19466e-05
6.88691e-05
-6.50401e-05
6.90673e-05
-7.821e-05
6.77866e-05
-9.12261e-05
6.55894e-05
-0.000103938
6.29348e-05
-0.00011627
6.02015e-05
-0.000128213
5.77039e-05
-0.000139824
5.57041e-05
-0.000151216
5.44186e-05
-0.000162557
5.4021e-05
-0.00017406
5.46424e-05
-0.000185975
5.63682e-05
-0.000198577
5.92363e-05
-0.00021216
6.32523e-05
6.84167e-05
-0.000227026
-2.30648e-06
1.75224e-05
-8.19649e-06
4.27326e-05
-1.67824e-05
6.02261e-05
-2.72968e-05
7.16192e-05
-3.90925e-05
7.82951e-05
-5.16349e-05
8.14115e-05
-6.44918e-05
8.19242e-05
-7.73233e-05
8.0618e-05
-8.98728e-05
7.81389e-05
-0.000101961
7.5023e-05
-0.000113481
7.17213e-05
-0.000124395
6.86178e-05
-0.000134733
6.60421e-05
-0.00014459
6.42761e-05
-0.000154126
6.35562e-05
-0.000163555
6.40719e-05
-0.000173147
6.596e-05
-0.00018321
6.92993e-05
-0.000194084
7.4126e-05
8.04652e-05
-0.000206132
-2.31564e-06
1.98381e-05
-8.2026e-06
4.86196e-05
-1.67542e-05
6.87777e-05
-2.71888e-05
8.20538e-05
-3.88459e-05
8.99522e-05
-5.11751e-05
9.37407e-05
-6.37244e-05
9.44735e-05
-7.61288e-05
9.30224e-05
-8.81013e-05
9.01114e-05
-9.94269e-05
8.63487e-05
-0.00010996
8.22542e-05
-0.000119622
7.82804e-05
-0.000128407
7.48269e-05
-0.000136379
7.22477e-05
-0.000143676
7.08531e-05
-0.00015051
7.09064e-05
-0.000157165
7.2615e-05
-0.000163986
7.61202e-05
-0.00017137
8.15104e-05
8.88543e-05
-0.00017976
-2.32337e-06
2.21615e-05
-8.19429e-06
5.44905e-05
-1.66842e-05
7.72677e-05
-2.69976e-05
9.23672e-05
-3.84614e-05
0.000101416
-5.05112e-05
0.00010579
-6.26761e-05
0.000106638
-7.4566e-05
0.000104912
-8.5861e-05
0.000101406
-9.63061e-05
9.67937e-05
-0.000105709
9.16568e-05
-0.000113941
8.65127e-05
-0.000120944
8.18304e-05
-0.000126738
7.80408e-05
-0.000131424
7.55393e-05
-0.000135198
7.46807e-05
-0.00013835
7.57671e-05
-0.000141261
7.90314e-05
-0.000144398
8.46467e-05
9.27556e-05
-0.000148299
-2.32577e-06
2.44872e-05
-8.15747e-06
6.03223e-05
-1.65434e-05
8.56536e-05
-2.66753e-05
0.000102499
-3.78709e-05
0.000112612
-4.95552e-05
0.000117475
-6.12421e-05
0.000118325
-7.25187e-05
0.000116189
-8.30334e-05
0.000111921
-9.24891e-05
0.00010625
-0.000100642
9.98095e-05
-0.000107303
9.31743e-05
-0.000112351
8.68779e-05
-0.000115739
8.14289e-05
-0.000117516
7.73159e-05
-0.000117839
7.50036e-05
-0.000116989
7.49171e-05
-0.000115377
7.74194e-05
-0.000113545
8.28145e-05
9.13679e-05
-0.000112157
-2.3177e-06
2.68049e-05
-8.07365e-06
6.60782e-05
-1.62928e-05
9.38727e-05
-2.61569e-05
0.000112363
-3.69786e-05
0.000123433
-4.81777e-05
0.000128674
-5.92585e-05
0.000129406
-6.97914e-05
0.000126722
-7.93977e-05
0.000121527
-8.77412e-05
0.000114593
-9.45249e-05
0.000106593
-9.94953e-05
9.81447e-05
-0.000102453
8.98352e-05
-0.000103269
8.22455e-05
-0.000101914
7.59603e-05
-9.84789e-05
7.15689e-05
-9.32118e-05
6.96499e-05
-8.65365e-05
7.07442e-05
-7.90723e-05
7.53503e-05
8.39321e-05
-7.16365e-05
-2.29286e-06
2.90978e-05
-7.92032e-06
7.17057e-05
-1.58845e-05
0.000101837
-2.536e-05
0.000121839
-3.56587e-05
0.000133732
-4.62013e-05
0.000139217
-5.64908e-05
0.000139696
-6.60889e-05
0.00013632
-7.4599e-05
0.000130037
-8.16536e-05
0.000121648
-8.69086e-05
0.000111848
-9.00454e-05
0.000101281
-9.07817e-05
9.05715e-05
-8.88925e-05
8.03563e-05
-8.42419e-05
7.13097e-05
-7.68253e-05
6.41524e-05
-6.68187e-05
5.96433e-05
-5.46289e-05
5.85544e-05
-4.09417e-05
6.16631e-05
6.97447e-05
-2.67542e-05
-2.2443e-06
3.13421e-05
-7.67225e-06
7.71336e-05
-1.52635e-05
0.000109428
-2.41868e-05
0.000130762
-3.37571e-05
0.000143302
-4.34017e-05
0.000148861
-5.26296e-05
0.000148924
-6.10047e-05
0.000144695
-6.81246e-05
0.000137157
-7.36041e-05
0.000127127
-7.70655e-05
0.00011531
-7.81359e-05
0.000102352
-7.64549e-05
8.88905e-05
-7.16948e-05
7.55961e-05
-6.35962e-05
6.32111e-05
-5.20228e-05
5.2579e-05
-3.70335e-05
4.46539e-05
-1.89689e-05
4.04897e-05
1.4502e-06
4.1244e-05
4.81653e-05
2.30296e-05
-2.16524e-06
3.35073e-05
-7.30389e-06
8.22723e-05
-1.43718e-05
0.000116496
-2.25309e-05
0.000138921
-3.10998e-05
0.000151871
-3.95154e-05
0.000157277
-4.72986e-05
0.000156707
-5.40249e-05
0.000151421
-5.92997e-05
0.000142432
-6.2738e-05
0.000130565
-6.39494e-05
0.000116521
-6.25294e-05
0.000100932
-5.80594e-05
8.44206e-05
-5.01213e-05
6.76579e-05
-3.83294e-05
5.14193e-05
-2.23914e-05
3.6641e-05
-2.20085e-06
2.44633e-05
2.20343e-05
1.62545e-05
4.96209e-05
1.36574e-05
1.861e-05
7.91762e-05
-2.05009e-06
3.55574e-05
-6.79247e-06
8.70147e-05
-1.31545e-05
0.000122858
-2.02864e-05
0.000146053
-2.7506e-05
0.000159091
-3.42577e-05
0.000164028
-4.00755e-05
0.000162525
-4.45517e-05
0.000155897
-4.73104e-05
0.000145191
-4.79846e-05
0.00013124
-4.61968e-05
0.000114733
-4.15438e-05
9.62787e-05
-3.35869e-05
7.64638e-05
-2.18543e-05
5.59253e-05
-5.861e-06
3.5426e-05
1.48381e-05
1.59419e-05
4.05474e-05
-1.24595e-06
7.12653e-05
-1.44634e-05
0.000106426
-2.15034e-05
-1.9482e-05
0.000144518
-1.8955e-06
3.74529e-05
-6.12117e-06
9.12403e-05
-1.15664e-05
0.000128303
-1.73586e-05
0.000151845
-2.28049e-05
0.000164537
-2.73479e-05
0.000168571
-3.05276e-05
0.000165704
-3.195e-05
0.00015732
-3.12609e-05
0.000144502
-2.81229e-05
0.000128102
-2.21947e-05
0.000108805
-1.31114e-05
8.71954e-05
-4.66321e-07
6.38187e-05
1.62022e-05
3.92568e-05
3.74114e-05
1.42167e-05
6.37062e-05
-1.03529e-05
9.55745e-05
-3.31143e-05
0.000133273
-5.21617e-05
0.000176491
-6.47222e-05
-6.6726e-05
0.000223735
-1.70116e-06
3.91541e-05
-5.28146e-06
9.48206e-05
-9.5765e-06
0.000132598
-1.3674e-05
0.000155943
-1.68526e-05
0.000167716
-1.85358e-05
0.000170255
-1.82526e-05
0.000165421
-1.56081e-05
0.000154675
-1.02593e-05
0.000139153
-1.89637e-06
0.000119739
9.77507e-06
9.71336e-05
2.50523e-05
7.19182e-05
4.42564e-05
4.46146e-05
6.77569e-05
1.57563e-05
9.59957e-05
-1.40221e-05
0.000129497
-4.38546e-05
0.000168834
-7.24509e-05
0.000214494
-9.78215e-05
0.000266538
-0.000116767
-0.000123925
0.000323737
-1.46976e-06
4.06239e-05
-4.27337e-06
9.76243e-05
-7.16983e-06
0.000135495
-9.18386e-06
0.000157957
-9.54174e-06
0.000168074
-7.62175e-06
0.000168335
-2.91513e-06
0.000160714
5.00197e-06
0.000146758
1.64873e-05
0.000127668
3.18448e-05
0.000104381
5.13334e-05
7.7645e-05
7.51767e-05
4.80749e-05
0.000103576
1.62151e-05
0.000136734
-1.7402e-05
0.000174891
-5.2179e-05
0.00021837
-8.73335e-05
0.000267613
-0.000121693
0.000323155
-0.000153364
0.000385423
-0.000179034
-0.000192242
0.00045374
-1.20616e-06
4.183e-05
-3.10293e-06
9.9521e-05
-4.34314e-06
0.000136735
-3.86028e-06
0.000157474
-7.98762e-07
0.000165012
5.54013e-06
0.000161996
1.57383e-05
0.000150516
3.02868e-05
0.00013221
4.95988e-05
0.000108356
7.40135e-05
7.99665e-05
0.000103793
4.78657e-05
0.000139115
1.27527e-05
0.00018007
-2.47397e-05
0.000226662
-6.39941e-05
0.000278833
-0.00010435
0.000336513
-0.000145014
0.000399706
-0.000184886
0.000468587
-0.000222245
0.000543581
-0.000254029
-0.000273448
0.000624788
-9.15319e-07
4.27453e-05
-1.77637e-06
0.000100382
-1.09458e-06
0.000136053
2.31927e-06
0.00015406
9.4349e-06
0.000157896
2.10629e-05
0.000150368
3.78972e-05
0.000133682
6.05387e-05
0.000109568
8.95044e-05
7.93899e-05
0.000125222
4.42489e-05
0.000168015
5.07266e-06
0.000218079
-3.7311e-05
0.000275451
-8.21118e-05
0.00033998
-0.000128523
0.000411303
-0.000175672
0.000488847
-0.000222558
0.00057189
-0.000267929
0.000659682
-0.000310038
0.000751754
-0.000346101
-0.0003708
0.000849105
-5.99611e-07
4.33449e-05
-2.92004e-07
0.000100074
2.59144e-06
0.00013317
9.39528e-06
0.000147256
2.12357e-05
0.000146056
3.9069e-05
0.000132534
6.37368e-05
0.000109014
9.59892e-05
7.73157e-05
0.00013649
3.88891e-05
0.000185806
-5.06741e-06
0.000244386
-5.35075e-05
0.000312526
-0.000105451
0.000390324
-0.000159909
0.000477616
-0.000215815
0.000573897
-0.000271954
0.00067822
-0.00032688
0.000789086
-0.000378795
0.000904344
-0.000425296
0.00102135
-0.000463109
-0.000490641
0.00114119
-2.55826e-07
4.36008e-05
1.36842e-06
9.84502e-05
6.76068e-06
0.000127778
1.74524e-05
0.000136564
3.47357e-05
0.000128773
5.97403e-05
0.00010753
9.34813e-05
7.52732e-05
0.000136881
3.39162e-05
0.00019077
-1.5e-05
0.000255878
-7.01754e-05
0.000332812
-0.000130442
0.000422037
-0.000194675
0.000523844
-0.000261716
0.000638327
-0.000330299
0.000765333
-0.00039896
0.000904367
-0.000465914
0.00105437
-0.000528795
0.0012129
-0.000583826
0.00137319
-0.000623406
-0.000631808
0.00151436
1.26366e-07
4.34744e-05
3.2453e-06
9.53313e-05
1.15005e-05
0.000119522
2.66385e-05
0.000121426
5.01503e-05
0.000105261
8.33563e-05
7.43237e-05
0.000127451
3.1178e-05
0.000183522
-2.21539e-05
0.000252539
-8.40175e-05
0.000335348
-0.000152985
0.000432652
-0.000227745
0.000545007
-0.00030703
0.000672849
-0.000389559
0.000816559
-0.000474009
0.000976615
-0.000559015
0.00115388
-0.000643179
0.00135015
-0.000725065
0.00156945
-0.000803129
0.00182205
-0.000875998
-0.000940136
0.00213037
5.67963e-07
4.29065e-05
5.40775e-06
9.04915e-05
1.69488e-05
0.000107981
3.71745e-05
0.000101201
6.77894e-05
7.46461e-05
0.000110304
3.18085e-05
0.000166074
-2.45919e-05
0.000236299
-9.23784e-05
0.000322003
-0.000169722
0.00042401
-0.000254991
0.000542917
-0.000346653
0.000679095
-0.000443208
0.000832709
-0.000543173
0.00100379
-0.000645091
0.00119236
-0.000747584
0.00139862
-0.000849438
0.00162327
-0.000949714
0.00186801
-0.00104787
0.00213579
-0.00114378
-0.00123002
0.00242568
1.09569e-06
4.18108e-05
7.94365e-06
8.36436e-05
2.32785e-05
9.26465e-05
4.93329e-05
7.51463e-05
8.80248e-05
3.59542e-05
0.000141034
-2.12011e-05
0.000209822
-9.33791e-05
0.000295604
-0.00017816
0.000399311
-0.000273429
0.000521542
-0.000377222
0.000662525
-0.000487636
0.00082211
-0.000602794
0.000999792
-0.000720855
0.00119476
-0.000840062
0.001406
-0.000958816
0.00163233
-0.00107578
0.00187258
-0.00118996
0.00212552
-0.00130081
0.00238975
-0.00140801
-0.00150342
0.00266314
1.74186e-06
4.00689e-05
1.09548e-05
7.44307e-05
3.06831e-05
7.29182e-05
6.34069e-05
4.24225e-05
0.000111237
-1.18756e-05
0.000175969
-8.59332e-05
0.000259072
-0.000176482
0.000361632
-0.00028072
0.000484281
-0.000396079
0.000627138
-0.000520079
0.000789769
-0.000650267
0.000971196
-0.00078422
0.00116994
-0.000919595
0.00138408
-0.00105421
0.0016114
-0.00118613
0.00184941
-0.00131379
0.00209546
-0.001436
0.00234669
-0.00155204
0.00260015
-0.00166148
-0.00175751
0.00285424
2.53968e-06
3.75292e-05
1.45426e-05
6.24278e-05
3.93482e-05
4.81126e-05
7.96605e-05
2.11015e-06
0.000137732
-6.99468e-05
0.00021538
-0.000163582
0.000313935
-0.000275037
0.000434143
-0.000400928
0.000576083
-0.000538019
0.000739106
-0.000683102
0.00092183
-0.000832991
0.00112219
-0.000984584
0.00133757
-0.00113497
0.00156489
-0.00128153
0.00180083
-0.00142207
0.00204193
-0.00155489
0.00228471
-0.00167878
0.00252573
-0.00179307
0.00276175
-0.00189749
-0.00198728
0.00299152
3.51906e-06
3.40102e-05
1.87946e-05
4.71522e-05
4.94221e-05
1.74851e-05
9.82775e-05
-4.67452e-05
0.000167664
-0.000139333
0.000259276
-0.000255194
0.000374093
-0.000389854
0.000512264
-0.0005391
0.000673019
-0.000698774
0.000854655
-0.000864737
0.0010546
-0.00103294
0.00126958
-0.00119956
0.0014958
-0.00136119
0.00172922
-0.00151494
0.00196572
-0.00165858
0.0022014
-0.00179057
0.00243263
-0.00191001
0.00265619
-0.00201663
0.00286938
-0.00211068
-0.00218945
0.00307155
4.70328e-06
2.93069e-05
2.37726e-05
2.8083e-05
6.09918e-05
-1.97342e-05
0.000119319
-0.000105073
0.000200969
-0.000220983
0.000307307
-0.000361532
0.0004387
-0.000521247
0.000594393
-0.000694793
0.000772472
-0.000876853
0.000969942
-0.00106221
0.00118292
-0.00124592
0.00140693
-0.00142357
0.00163722
-0.00159148
0.00186911
-0.00174682
0.00209823
-0.0018877
0.00232078
-0.00201311
0.00253362
-0.00212286
0.00273436
-0.00221737
0.00292133
-0.00229766
-0.00236274
0.00309463
6.10701e-06
2.31999e-05
2.95053e-05
4.68464e-06
7.40662e-05
-6.42951e-05
0.000142696
-0.000173703
0.000237325
-0.000315612
0.000358729
-0.000482935
0.000506349
-0.000668868
0.000678219
-0.000866663
0.000871029
-0.00106966
0.00108036
-0.00127154
0.00130107
-0.00146663
0.0015277
-0.0016502
0.00175492
-0.00181871
0.00197794
-0.00196984
0.0021927
-0.00210246
0.00239608
-0.00221649
0.00258591
-0.00231269
0.00276096
-0.00239242
0.00292078
-0.00245748
-0.00250831
0.00306634
7.73556e-06
1.54643e-05
3.59849e-05
-2.35647e-05
8.85675e-05
-0.000116878
0.000168155
-0.00025329
0.000276142
-0.000423599
0.000412401
-0.000619194
0.000575126
-0.000831593
0.000760863
-0.0010524
0.000964763
-0.00127356
0.00118103
-0.00148781
0.00140348
-0.00168908
0.00162611
-0.00187283
0.00184357
-0.00203617
0.00205149
-0.00217776
0.00224666
-0.00229763
0.00242706
-0.00239689
0.00259175
-0.00247738
0.00274071
-0.00254138
0.00287464
-0.0025914
-0.00262892
0.00299525
9.58514e-06
5.87919e-06
4.31659e-05
-5.71454e-05
0.00010433
-0.000178042
0.00019528
-0.00034424
0.00031657
-0.000544889
0.000466836
-0.000769459
0.000642721
-0.00100748
0.000839108
-0.00124879
0.00104962
-0.00148408
0.00126734
-0.00170552
0.00148546
-0.0019072
0.00169799
-0.00208536
0.00190012
-0.0022383
0.00208843
-0.00236607
0.00226093
-0.00247013
0.00241686
-0.00255283
0.00255654
-0.00261705
0.00268101
-0.00266585
0.0027918
-0.0027022
-0.00272826
0.00289114
1.16433e-05
-5.76408e-06
5.0967e-05
-9.64691e-05
0.000121104
-0.000248179
0.000223502
-0.000446637
0.000357539
-0.000678926
0.000520283
-0.000932203
0.000706603
-0.0011938
0.000909691
-0.00145187
0.00112186
-0.00169625
0.00133548
-0.00191913
0.00154371
-0.00211544
0.00174115
-0.0022828
0.00192401
-0.00242116
0.00209018
-0.00253224
0.00223901
-0.00261895
0.002371
-0.00268482
0.00248747
-0.00273353
0.00259025
-0.00276862
0.00268135
-0.0027933
-0.00281007
0.00276316
1.38892e-05
-1.96532e-05
5.92716e-05
-0.000141852
0.000138559
-0.000327467
0.000252119
-0.000560197
0.000397806
-0.000824613
0.000570842
-0.00110524
0.000764227
-0.00138718
0.000969619
-0.00165727
0.00117843
-0.00190506
0.00138286
-0.00212356
0.00157666
-0.00230923
0.00175547
-0.00246162
0.00191691
-0.00258259
0.00206026
-0.00267559
0.00218614
-0.00274484
0.00229608
-0.00279476
0.00239211
-0.00282955
0.00247645
-0.00285296
0.00255132
-0.00286817
-0.00287772
0.00261897
1.62935e-05
-3.59467e-05
6.79299e-05
-0.000193488
0.000156294
-0.000415831
0.000280325
-0.000684228
0.000436028
-0.000980316
0.000616602
-0.00128581
0.000813252
-0.00158383
0.00101645
-0.00186046
0.00121724
-0.00210586
0.00140829
-0.00231461
0.0015844
-0.00248535
0.00174266
-0.00261987
0.00188213
-0.00272206
0.00200344
-0.0027969
0.00210824
-0.00284964
0.00219875
-0.00288527
0.00227738
-0.00290818
0.00234647
-0.00292205
0.00240814
-0.00292984
-0.00293398
0.00246439
1.88185e-05
-5.47652e-05
7.6761e-05
-0.00025143
0.00017385
-0.00051292
0.000307246
-0.000817624
0.000470846
-0.00114392
0.00065579
-0.00147076
0.000851744
-0.00177979
0.00104849
-0.00205721
0.00123733
-0.00229469
0.00141191
-0.00248918
0.00156847
-0.00264192
0.00170564
-0.00275705
0.00182389
-0.00284031
0.0019249
-0.00289791
0.00201106
-0.0029358
0.00208495
-0.00295916
0.00214908
-0.00297231
0.00220567
-0.00297864
0.00225662
-0.00298078
-0.00298093
0.00230357
2.14176e-05
-7.61828e-05
8.55567e-05
-0.000315569
0.000190727
-0.00061809
0.00033199
-0.000958887
0.00050098
-0.00131291
0.000686909
-0.00165669
0.000878325
-0.0019712
0.00106492
-0.0022438
0.0012388
-0.00246857
0.00139501
-0.0026454
0.0015314
-0.00277831
0.00164807
-0.00287371
0.00174664
-0.00293888
0.00182959
-0.00298086
0.00189968
-0.00300589
0.0019596
-0.00301908
0.00201172
-0.00302443
0.00205803
-0.00302495
0.00210013
-0.00302288
-0.00302011
0.00213931
2.40363e-05
-0.000100219
9.40882e-05
-0.000385621
0.000206408
-0.00073041
0.000353699
-0.00110618
0.000525317
-0.00148452
0.000708843
-0.00184021
0.000892249
-0.00215461
0.00106572
-0.00241728
0.00122265
-0.0026255
0.00135969
-0.00278244
0.00147627
-0.00289489
0.00157376
-0.00297121
0.00165466
-0.00301977
0.00172187
-0.00304808
0.00177831
-0.00306232
0.00182652
-0.00306729
0.00186864
-0.00306655
0.00190636
-0.00306267
0.00194096
-0.00305748
-0.00305258
0.00197343
2.66133e-05
-0.000126832
0.000102115
-0.000461123
0.000220383
-0.000848677
0.000371604
-0.0012574
0.000542985
-0.00165591
0.000720923
-0.00201815
0.000893399
-0.00232709
0.00105162
-0.0025755
0.00119054
-0.00276442
0.00130849
-0.00290039
0.00140631
-0.00299271
0.00148636
-0.00305125
0.00155168
-0.00308509
0.00160536
-0.00310177
0.00165022
-0.00310717
0.00168856
-0.00310563
0.00172221
-0.00310021
0.00175256
-0.00309301
0.0017806
-0.00308553
-0.00307905
0.00180706
2.90826e-05
-0.000155915
0.000109396
-0.000541437
0.000232183
-0.000971464
0.000385071
-0.00141029
0.000553408
-0.00182424
0.000722935
-0.00218768
0.000882213
-0.00248636
0.00102386
-0.00271714
0.00114453
-0.00288509
0.00124412
-0.00299998
0.00132463
-0.00307321
0.0013891
-0.00311573
0.00144084
-0.00313683
0.00148291
-0.00314384
0.00151788
-0.00314214
0.00154777
-0.00313552
0.00157407
-0.00312651
0.0015979
-0.00311683
0.00162001
-0.00310764
-0.00309996
0.00164092
3.13764e-05
-0.000187291
0.000115702
-0.000625762
0.000241404
-0.00109717
0.000393644
-0.00156253
0.00055632
-0.00198692
0.000715088
-0.00234644
0.000859568
-0.00263084
0.000984029
-0.00284161
0.00108682
-0.00298789
0.00116919
-0.00308235
0.00123401
-0.00313803
0.00128472
-0.00316643
0.00132466
-0.00317677
0.0013567
-0.00317589
0.00138312
-0.00316856
0.00140559
-0.00315799
0.00142534
-0.00314626
0.00144321
-0.0031347
0.00145979
-0.00312421
-0.0031156
0.00147543
3.34285e-05
0.000120827
0.000247729
0.000397054
0.00055175
0.000697931
0.000826642
0.000933898
0.00101961
0.00108611
0.00113685
0.00117543
0.00120508
0.00122836
0.00124721
0.00126302
0.00127674
0.00128904
0.00130033
0.00131088
3.30711e-05
0.000182218
0.000119833
0.000611447
0.00024624
0.00107499
0.000395558
0.00153457
0.000550907
0.00195562
0.000698374
0.00231413
0.000828836
0.00259932
0.000938087
0.00281202
0.00102583
0.00296078
0.00109426
0.00305782
0.00114675
0.00311587
0.00118686
0.00314635
0.00121784
0.00315841
0.00124227
0.00315894
0.00126215
0.00315279
0.00127888
0.0031432
0.00129346
0.00313232
0.00130655
0.0031215
0.0013186
0.00311168
0.00310369
0.00132987
3.09905e-05
0.000151227
0.000114565
0.000527872
0.000239562
0.000949994
0.000391518
0.00138261
0.000554567
0.00179257
0.000714411
0.00215429
0.000860547
0.00245318
0.000987034
0.00268553
0.001092
0.00285581
0.00117651
0.00297331
0.00124331
0.00304908
0.00129579
0.00309386
0.00133729
0.00311691
0.00137069
0.00312554
0.00139829
0.00312519
0.00142182
0.00311967
0.00144253
0.00311161
0.00146129
0.00310274
0.00147871
0.00309426
0.00308725
0.00149515
2.86753e-05
0.000122552
0.000108138
0.000448409
0.000230017
0.000828115
0.000382327
0.0012303
0.000550709
0.00162419
0.000721027
0.00198397
0.000881782
0.00229243
0.00102541
0.0025419
0.00114834
0.00273288
0.00125026
0.00287139
0.001333
0.00296633
0.00139952
0.00302734
0.00145309
0.00306335
0.00149676
0.00308187
0.00153313
0.00308882
0.00156425
0.00308855
0.00159166
0.00308419
0.0016165
0.00307791
0.00163955
0.00307121
0.00306544
0.00166135
2.61927e-05
9.63593e-05
0.000100762
0.00037384
0.000217934
0.000710943
0.000368279
0.00107996
0.00053934
0.00145313
0.000717709
0.0018056
0.000891389
0.00211875
0.00105145
0.00238184
0.00119265
0.00259169
0.00131307
0.00275097
0.00141336
0.00286604
0.00149575
0.00294495
0.0015632
0.0029959
0.00161878
0.00302629
0.00166529
0.0030423
0.0017051
0.00304875
0.00174006
0.00304924
0.00177158
0.00304639
0.0018007
0.00304209
0.00303797
0.00182817
2.36107e-05
7.27486e-05
9.26683e-05
0.000304782
0.00020373
0.000599882
0.00034986
0.000933829
0.00052077
0.00128222
0.000704305
0.00162206
0.000888539
0.00193451
0.0010636
0.00220678
0.0012227
0.00243259
0.00136228
0.00261139
0.00148153
0.00274679
0.00158165
0.00284484
0.001665
0.00291255
0.00173446
0.00295684
0.00179288
0.00298387
0.00184286
0.00299877
0.00188653
0.00300556
0.00192564
0.00300728
0.0019615
0.00300623
0.00300434
0.00199513
2.09954e-05
5.17532e-05
8.41015e-05
0.000241676
0.000187883
0.0004961
0.000327725
0.000793987
0.000495619
0.00111433
0.000681087
0.0014366
0.000872863
0.00174274
0.00106066
0.00201897
0.00123649
0.00225676
0.00139518
0.0024527
0.00153435
0.00260762
0.00165389
0.00272529
0.00175526
0.00281117
0.00184083
0.00287127
0.0019133
0.0029114
0.00197534
0.00293673
0.00202934
0.00295155
0.00207733
0.0029593
0.00212093
0.00296264
0.00296379
0.00216148
1.8408e-05
3.33452e-05
7.53022e-05
0.000184782
0.000170907
0.000400495
0.00030266
0.000662234
0.000464796
0.00095219
0.00064879
0.0012526
0.00084456
0.00154697
0.00104201
0.00182152
0.0012324
0.00206637
0.00140924
0.00227586
0.00156857
0.00244829
0.00170877
0.00258509
0.00183011
0.00268984
0.00193413
0.00276726
0.00202309
0.00282244
0.00209954
0.00286028
0.00216597
0.00288513
0.0022246
0.00290066
0.00227737
0.00290987
0.00291519
0.00232597
1.59024e-05
1.74427e-05
6.64979e-05
0.000134187
0.000153321
0.000313672
0.000275534
0.000540021
0.000429445
0.000798279
0.000608588
0.00107346
0.000804466
0.00135109
0.00100775
0.00161824
0.00120955
0.00186457
0.00140247
0.00208295
0.00158115
0.00226961
0.00174244
0.00242379
0.00188521
0.00254707
0.00200986
0.0026426
0.00211791
0.00271439
0.00221146
0.00276673
0.00229287
0.00280372
0.00236447
0.00282907
0.00242839
0.00284595
0.00285691
0.00248666
1.35243e-05
3.91845e-06
5.78936e-05
8.98172e-05
0.000135619
0.000235947
0.00024724
0.000428401
0.000390863
0.000654656
0.000562025
0.000902298
0.000754045
0.00115907
0.000958842
0.00141344
0.00116798
0.00165543
0.0013737
0.00187723
0.00156964
0.00207367
0.0017513
0.00224213
0.00191605
0.00238232
0.00206298
0.00249568
0.00219249
0.00258488
0.00230597
0.00265325
0.00240533
0.00270436
0.00249274
0.00274166
0.00257037
0.00276831
0.00278675
0.00264053
1.13098e-05
-7.39132e-06
4.96642e-05
5.14628e-05
0.000118251
0.000167359
0.000218639
0.000328013
0.000350408
0.000522887
0.0005109
0.000741806
0.000695296
0.000974671
0.000897084
0.00121166
0.00110881
0.0014437
0.00132295
0.00166309
0.0015327
0.00186392
0.00173252
0.00204231
0.00191849
0.00219635
0.00208826
0.0023259
0.00224097
0.00243217
0.00237693
0.0025173
0.00249728
0.002584
0.00260374
0.00263521
0.00269824
0.00267381
0.00270184
0.00278316
9.28535e-06
-1.66767e-05
4.19499e-05
1.87983e-05
0.0001016
0.00010771
0.000190513
0.000239099
0.000309398
0.000404002
0.000457114
0.00059409
0.000630589
0.000801197
0.000825004
0.00101724
0.00103426
0.00123444
0.00125163
0.00144573
0.00147043
0.00164512
0.00168464
0.00182809
0.00188938
0.00199162
0.00208104
0.00213424
0.00225744
0.00225578
0.00241759
0.00235714
0.00256161
0.00243999
0.00269035
0.00250646
0.00280523
0.00255892
0.00259868
0.00290839
7.46772e-06
-2.41444e-05
3.48536e-05
-8.5876e-06
8.59676e-05
5.65958e-05
0.000163526
0.000161541
0.000269029
0.000298499
0.000402527
0.000460592
0.000562452
0.000641272
0.000745629
0.000834064
0.000947493
0.00103258
0.0011625
0.00123072
0.00138466
0.00142297
0.00160805
0.0016047
0.00182732
0.00177235
0.00203802
0.00192354
0.00223678
0.00205702
0.00242137
0.00217255
0.00259064
0.00227072
0.00274436
0.00235274
0.00288302
0.00242027
0.00247348
0.00300821
5.86388e-06
-3.00083e-05
2.84394e-05
-3.11632e-05
7.15722e-05
1.34631e-05
0.000138193
9.49206e-05
0.000230305
0.000206386
0.000348814
0.000342083
0.000493351
0.000496735
0.000662187
0.000665228
0.000852281
0.000842485
0.00105949
0.00102351
0.00127889
0.00120357
0.0015052
0.00137838
0.00173322
0.00154433
0.00195812
0.00169863
0.0021758
0.00183934
0.00238298
0.00196537
0.00257731
0.00207639
0.00275733
0.00217273
0.00292235
0.00225524
0.00232264
0.0030732
4.47134e-06
-3.44796e-05
2.27333e-05
-4.94251e-05
5.85416e-05
-2.23453e-05
0.000114871
3.85908e-05
0.00019399
0.000127268
0.000297357
0.000238717
0.00042548
0.000368611
0.000577796
0.000512913
0.000752619
0.000667662
0.000947208
0.000828923
0.00115794
0.000992841
0.00138055
0.00115577
0.00161047
0.00131441
0.00184311
0.00146599
0.00207414
0.0016083
0.00229971
0.0017398
0.00251655
0.00185955
0.00272209
0.00196719
0.00291444
0.00206289
0.00214357
0.00309351
3.27876e-06
-3.77584e-05
1.7725e-05
-6.38713e-05
4.69182e-05
-5.15385e-05
9.37572e-05
-8.24825e-06
0.000160591
6.04346e-05
0.000249183
0.000150124
0.000360618
0.000257177
0.000495184
0.000378346
0.000652294
0.000510551
0.000830463
0.000650754
0.00102736
0.000795944
0.00123994
0.000943187
0.00146464
0.00108972
0.00169757
0.00123306
0.00193477
0.0013711
0.00217236
0.00150221
0.0024067
0.00162521
0.00263446
0.00173943
0.00285279
0.00184456
0.00193548
0.00306088
2.26708e-06
-4.00254e-05
1.33729e-05
-7.49771e-05
3.66677e-05
-7.48333e-05
7.48961e-05
-4.64767e-05
0.00013036
4.97044e-06
0.000204938
7.55467e-05
0.000300032
0.000162082
0.000416494
0.000261885
0.000554535
0.000372511
0.000713675
0.000491614
0.000892734
0.000616885
0.00108987
0.000746047
0.00130269
0.000876901
0.00152835
0.0010074
0.0017637
0.00113575
0.00200543
0.00126047
0.00225015
0.0013805
0.00249443
0.00149515
0.00273495
0.00160404
0.00170007
0.00297036
1.41153e-06
-4.1437e-05
9.61141e-06
-8.3177e-05
2.76949e-05
-9.29168e-05
5.82096e-05
-7.69913e-05
0.000103329
-4.01492e-05
0.000164909
1.3967e-05
0.000244478
8.25132e-05
0.000343193
0.00016317
0.000461781
0.000253922
0.000600483
0.000352912
0.000759021
0.000458347
0.000936602
0.000568465
0.00113196
0.000681545
0.00134341
0.000795952
0.00156895
0.000910213
0.00180631
0.00102311
0.00205302
0.00113379
0.00230637
0.00124181
0.00256346
0.00134694
0.00144102
0.00282251
6.84534e-07
-4.21215e-05
6.36063e-06
-8.88531e-05
1.9865e-05
-0.000106421
4.35307e-05
-0.000100657
7.93581e-05
-7.59766e-05
0.000129092
-3.57673e-05
0.000194248
1.7358e-05
0.000276094
8.13231e-05
0.000375625
0.000154391
0.000493521
0.000235016
0.000630122
0.000321747
0.000785421
0.000413166
0.000959092
0.000507875
0.00115054
0.000604508
0.00135897
0.000701781
0.0015835
0.000798584
0.00182319
0.000894091
0.00207711
0.000987885
0.00234403
0.00108002
0.00116362
0.00262143
5.90455e-08
-4.21805e-05
3.53823e-06
-9.23323e-05
1.30279e-05
-0.000115911
3.06472e-05
-0.000118276
5.82045e-05
-0.000103534
9.72857e-05
-7.48484e-05
0.000149298
-3.46546e-05
0.000215484
1.51373e-05
0.000296909
7.29657e-05
0.000394448
0.000137478
0.000508769
0.000207426
0.000640341
0.000281594
0.000789466
0.00035875
0.000956354
0.00043762
0.00114125
0.000516881
0.00134466
0.000595179
0.00156763
0.00067112
0.00181228
0.000743236
0.00208185
0.00081045
0.000870872
0.0023746
-4.88077e-07
-4.16924e-05
1.07047e-06
-9.38908e-05
7.04241e-06
-0.000121883
1.93455e-05
-0.000130579
3.95953e-05
-0.000123784
6.91961e-05
-0.000104449
0.000109397
-7.48559e-05
0.000161319
-3.67847e-05
0.00022596
8.32543e-06
0.000304188
5.92491e-05
0.000396744
0.000114871
0.000504238
0.0001741
0.000627189
0.000235799
0.000766099
0.000298709
0.000921617
0.000361363
0.00109485
0.000421951
0.0012879
0.000478063
0.00150521
0.000525933
0.00175731
0.000558347
0.000561292
0.00206689
-9.72837e-07
-4.07196e-05
-1.09803e-06
-9.37656e-05
1.79645e-06
-0.000124777
9.44667e-06
-0.00013823
2.32865e-05
-0.000137624
4.45381e-05
-0.000125701
7.4271e-05
-0.000104589
0.000113436
-7.59496e-05
0.000162876
-4.11147e-05
0.000223325
-1.19969e-06
0.000295394
4.28016e-05
0.000379555
8.99383e-05
0.00047612
0.000139233
0.000585211
0.000189619
0.000706703
0.000239871
0.000840114
0.000288539
0.000984318
0.000333859
0.0011366
0.000373655
0.00128945
0.000405493
0.000430885
0.00141986
-1.40559e-06
-3.9314e-05
-3.00456e-06
-9.21667e-05
-2.78851e-06
-0.000124993
8.20607e-07
-0.000141839
9.09507e-06
-0.000145898
2.30885e-05
-0.000139694
4.36964e-05
-0.000125197
7.16917e-05
-0.000103945
0.00010774
-7.71627e-05
0.000152396
-4.58555e-05
0.000206087
-1.08902e-05
0.000269086
2.69394e-05
0.000341461
6.68587e-05
0.000423012
0.000108068
0.00051318
0.000149704
0.000610916
0.000190803
0.000714526