/*--------------------------------*- C++ -*----------------------------------*\
  =========                 |
  \\      /  F ield         | OpenFOAM: The Open Source CFD Toolbox
   \\    /   O peration     | Website:  https://openfoam.org
    \\  /    A nd           | Version:  6.0
     \\/     M anipulation  |
\*---------------------------------------------------------------------------*/
FoamFile
{
    version     2.0;
    format      ascii;
    class       volVectorField;
    location    "58";
    object      U;
}
// * * * * * * * * * * * * * * * * * * * * * * * * * * * * * * * * * * * * * //

dimensions      [0 1 -1 0 0 0 0];

internalField   nonuniform List<vector> 
4000
(
(-0.000438603 0.002865 -3.45601e-21)
(-0.00227151 0.00645332 1.84812e-20)
(-0.00560032 0.00849059 -2.24678e-20)
(-0.00965848 0.00942441 1.71063e-20)
(-0.0140361 0.00959658 8.32563e-21)
(-0.0184956 0.00926543 -2.5013e-20)
(-0.0228663 0.00862343 -2.20742e-21)
(-0.0270384 0.00781111 -7.77525e-22)
(-0.0309522 0.00692897 -1.29818e-20)
(-0.034586 0.00604755 -7.02989e-21)
(-0.0379462 0.00521539 5.24285e-21)
(-0.0410598 0.0044651 1.99e-20)
(-0.043969 0.00381784 -1.48743e-21)
(-0.0467249 0.00328638 2.1395e-21)
(-0.0493846 0.00287719 -2.00521e-20)
(-0.0520137 0.00259151 1.2358e-20)
(-0.0546788 0.00242581 -1.7693e-20)
(-0.0573794 0.00237363 2.67907e-20)
(-0.0600246 0.00242937 -3.05297e-23)
(-0.0630886 0.00257599 5.77178e-21)
(-0.000603625 0.00376235 1.14997e-20)
(-0.00265718 0.00871123 -5.88273e-20)
(-0.00612413 0.011708 -4.06161e-20)
(-0.0102605 0.0132779 -2.75542e-20)
(-0.0146726 0.0138287 -3.54619e-20)
(-0.0191345 0.0136759 7.75996e-21)
(-0.0234841 0.0130631 -4.0924e-20)
(-0.0276172 0.0121759 -9.18617e-21)
(-0.0314782 0.0111536 2.89653e-21)
(-0.035048 0.0101004 3.05266e-20)
(-0.0383349 0.00909367 -3.33379e-20)
(-0.0413679 0.0081904 4.6384e-20)
(-0.0441908 0.00743202 -3.47469e-20)
(-0.046857 0.00684752 -4.12033e-20)
(-0.0494262 0.00645561 -5.67631e-20)
(-0.0519674 0.0062655 3.62559e-20)
(-0.0545513 0.00627755 -1.17635e-20)
(-0.057179 0.00648788 -4.27003e-20)
(-0.0597567 0.00689429 4.03536e-20)
(-0.0627796 0.00745926 -2.99399e-20)
(-0.000841082 0.00464868 1.12767e-19)
(-0.00322797 0.0109432 5.83232e-20)
(-0.00691572 0.0148892 6.55942e-20)
(-0.0111847 0.0170881 5.46463e-21)
(-0.0156601 0.0180116 3.62477e-20)
(-0.0201308 0.0180313 4.5116e-20)
(-0.0244455 0.0174409 -8.2267e-20)
(-0.0285079 0.01647 -4.34899e-20)
(-0.032268 0.0152966 -5.6735e-20)
(-0.0357106 0.0140584 6.04095e-20)
(-0.0388472 0.0128617 -4.61817e-20)
(-0.0417094 0.0117888 -5.95257e-20)
(-0.0443437 0.0109025 -2.17638e-20)
(-0.046807 0.0102494 2.05897e-20)
(-0.0491633 0.00986214 -5.71464e-21)
(-0.0514869 0.00975962 8.20823e-21)
(-0.0538551 0.00994773 9.54697e-20)
(-0.056273 0.0104268 -1.34704e-20)
(-0.0586437 0.0112 -9.7134e-20)
(-0.0614882 0.0122086 1.27773e-19)
(-0.00115039 0.00552167 3.93546e-20)
(-0.00398138 0.0131402 -5.5362e-20)
(-0.00796968 0.018018 -1.38659e-20)
(-0.0124224 0.0208312 2.6095e-20)
(-0.0169869 0.0221142 7.38783e-20)
(-0.0214697 0.0222931 1.61595e-19)
(-0.0257332 0.0217103 1.5792e-19)
(-0.0296912 0.0206384 1.31883e-20)
(-0.033301 0.0192931 9.68396e-20)
(-0.0365524 0.0178451 1.48256e-19)
(-0.0394607 0.0164305 -1.18363e-19)
(-0.0420609 0.0151572 1.75274e-19)
(-0.0444033 0.014111 -3.98707e-20)
(-0.0465488 0.0133582 9.98046e-21)
(-0.048567 0.0129478 4.1495e-20)
(-0.0505397 0.0129112 5.52095e-20)
(-0.0525533 0.0132622 -8.69493e-20)
(-0.0546196 0.0140082 -7.2657e-20)
(-0.0566386 0.015161 -1.28477e-19)
(-0.0591627 0.0166397 1.86735e-19)
(-0.00153094 0.00637857 -2.05547e-20)
(-0.00491424 0.0152925 -2.10339e-19)
(-0.00927886 0.021077 -6.21987e-20)
(-0.013962 0.0244827 -1.51535e-19)
(-0.0186368 0.0261055 5.73714e-20)
(-0.0231311 0.026424 -9.03206e-20)
(-0.0273241 0.0258277 3.1215e-20)
(-0.0311418 0.0246305 -1.91371e-19)
(-0.0345503 0.0230842 1.01078e-19)
(-0.0375457 0.0213923 -1.20388e-19)
(-0.0401476 0.0197199 -1.07044e-19)
(-0.0423946 0.0182018 -1.20038e-19)
(-0.044341 0.0169484 1.089e-19)
(-0.0460526 0.0160482 -9.79968e-20)
(-0.0476056 0.01557 1.36307e-19)
(-0.0490908 0.0155613 3.94364e-20)
(-0.0506066 0.0160481 9.77155e-20)
(-0.0521741 0.0170485 4.28017e-20)
(-0.0536913 0.0185879 -1.70013e-19)
(-0.0557484 0.0205631 2.76564e-19)
(-0.00198193 0.00721605 9.08427e-20)
(-0.00602209 0.0173885 6.88235e-21)
(-0.0108332 0.0240473 3.7396e-20)
(-0.0157872 0.0280174 1.3036e-19)
(-0.0205876 0.029955 -1.98213e-20)
(-0.0250873 0.0303893 2.11738e-19)
(-0.0291857 0.0297543 9.41178e-20)
(-0.0328237 0.0284029 7.93922e-21)
(-0.0359779 0.0266213 2.4184e-19)
(-0.0386513 0.0246438 7.92924e-20)
(-0.0408683 0.0226642 3.76787e-20)
(-0.0426712 0.0208446 1.19356e-19)
(-0.0441179 0.0193215 1.09485e-19)
(-0.0452792 0.0182088 2.00009e-19)
(-0.0462382 0.0175991 -1.78788e-19)
(-0.0470961 0.0175611 2.53071e-19)
(-0.0479662 0.0181385 3.6061e-21)
(-0.0488822 0.0193664 -3.23741e-19)
(-0.0497421 0.0212904 4.2021e-19)
(-0.0511818 0.0237864 1.74499e-19)
(-0.00250211 0.00803002 -5.3524e-20)
(-0.00729843 0.0194152 -9.72963e-20)
(-0.0126186 0.0269083 -2.02239e-19)
(-0.0178753 0.0314092 -5.99371e-21)
(-0.0228079 0.0336329 3.46315e-20)
(-0.0272992 0.0341569 -2.58184e-19)
(-0.0312721 0.0334569 -1.91565e-19)
(-0.0346856 0.0319215 -2.7373e-20)
(-0.0375282 0.0298682 -2.42359e-19)
(-0.0398112 0.0275599 -1.67891e-19)
(-0.0415637 0.0252176 -4.89243e-20)
(-0.0428312 0.0230302 -1.57644e-19)
(-0.0436744 0.0211615 -2.55789e-21)
(-0.0441686 0.0197538 -2.096e-19)
(-0.0444036 0.0189283 8.81695e-20)
(-0.0444918 0.0187815 -1.00599e-19)
(-0.0445638 0.019382 7.73522e-20)
(-0.0446697 0.0207908 -9.82138e-20)
(-0.0447106 0.023084 -2.8135e-19)
(-0.0453789 0.0261198 -8.54575e-20)
(-0.00308942 0.00881528 -1.98182e-20)
(-0.00873376 0.0213572 -2.15224e-20)
(-0.0146151 0.0296369 1.69705e-19)
(-0.020195 0.0346303 -2.76365e-19)
(-0.0252548 0.0371096 4.05176e-20)
(-0.0297125 0.0376978 -1.59786e-19)
(-0.0335189 0.0369086 7.536e-20)
(-0.0366539 0.0351624 3.39213e-19)
(-0.0391205 0.0328043 -2.17353e-20)
(-0.0409389 0.0301218 -2.53253e-19)
(-0.0421433 0.0273603 4.58227e-20)
(-0.0427818 0.024734 8.91623e-21)
(-0.0429167 0.0224343 -5.22341e-20)
(-0.0426259 0.0206339 5.0509e-21)
(-0.0420051 0.0194877 4.57976e-19)
(-0.0411782 0.0191275 -6.49981e-20)
(-0.0402946 0.0196568 -1.27539e-19)
(-0.0394251 0.0211744 -2.29254e-19)
(-0.0384787 0.0238021 2.33679e-19)
(-0.0382189 0.027387 1.00966e-19)
(-0.00374065 0.0095652 9.96691e-20)
(-0.0103146 0.0231961 -1.30528e-19)
(-0.0167957 0.0322069 1.84513e-19)
(-0.0227041 0.0376503 1.85837e-19)
(-0.0278705 0.0403544 1.7125e-19)
(-0.0322536 0.0409844 3.47223e-19)
(-0.0358373 0.0400879 2.24604e-19)
(-0.0386257 0.0381125 -4.82826e-19)
(-0.0406389 0.0354255 2.4704e-19)
(-0.0419076 0.0323344 1.93995e-19)
(-0.0424715 0.0291045 -2.88904e-21)
(-0.0423804 0.0259717 2.17451e-19)
(-0.041697 0.0231531 1.69674e-19)
(-0.0404997 0.0208528 -9.21318e-20)
(-0.0388881 0.0192635 3.12149e-19)
(-0.0369961 0.0185603 -3.86923e-19)
(-0.0349936 0.0188935 1.55188e-19)
(-0.0329758 0.0204159 1.9969e-19)
(-0.0308658 0.0233168 -4.64966e-20)
(-0.0295182 0.0274444 4.02813e-19)
(-0.00445091 0.0102714 2.00732e-19)
(-0.0120226 0.0249098 1.04708e-20)
(-0.0191245 0.0345878 -7.19897e-20)
(-0.0253474 0.0404353 -7.59647e-20)
(-0.0305793 0.0433343 -3.52305e-19)
(-0.0348258 0.0439893 5.00055e-20)
(-0.0381087 0.0429772 1.41407e-19)
(-0.0404608 0.0407674 -6.81787e-20)
(-0.0419223 0.0377439 5.62434e-20)
(-0.0425367 0.0342278 -1.47616e-20)
(-0.04235 0.0304979 -7.33931e-20)
(-0.041414 0.026806 6.98803e-20)
(-0.03979 0.0233907 -3.03453e-19)
(-0.0375551 0.0204852 2.91101e-19)
(-0.0348093 0.0183218 -2.52399e-19)
(-0.0316948 0.0171258 7.7867e-20)
(-0.0284016 0.0171073 1.77898e-19)
(-0.0250526 0.018494 -3.67535e-20)
(-0.0215926 0.0215717 -1.23004e-19)
(-0.0189939 0.0262123 -8.3967e-20)
(-0.00521327 0.0109237 -2.50324e-19)
(-0.0138332 0.0264726 -1.64656e-20)
(-0.0215559 0.0367444 5.27349e-20)
(-0.0280554 0.0429462 1.35564e-19)
(-0.0332856 0.0460119 -1.91323e-19)
(-0.0373053 0.046682 -1.67001e-19)
(-0.0401796 0.0455587 3.89906e-19)
(-0.0419745 0.0431279 -2.15484e-19)
(-0.0427542 0.0397838 -1.39073e-19)
(-0.0425778 0.0358544 -1.99719e-19)
(-0.0415002 0.0316237 1.32269e-19)
(-0.0395756 0.0273516 -3.37277e-21)
(-0.0368643 0.0232898 -2.47125e-19)
(-0.0334395 0.0196946 -4.04783e-19)
(-0.0293992 0.0168352 3.08486e-19)
(-0.0248901 0.0149902 -2.50444e-19)
(-0.0201207 0.0144412 3.55106e-19)
(-0.0152434 0.0155144 -9.93666e-20)
(-0.010232 0.018632 2.10141e-19)
(-0.00621209 0.0237238 -7.12486e-19)
(-0.00601838 0.0115102 -5.07709e-19)
(-0.0157157 0.0278548 3.32864e-19)
(-0.0240334 0.0386364 4.52055e-20)
(-0.030743 0.0451376 8.77964e-21)
(-0.0358722 0.0483426 -2.05235e-19)
(-0.0395395 0.0490254 3.01833e-19)
(-0.0418581 0.0478097 3.28738e-20)
(-0.0429321 0.045193 -6.18691e-20)
(-0.0428541 0.0415742 -1.99035e-19)
(-0.0417028 0.0372808 2.15064e-19)
(-0.0395453 0.0325939 5.45691e-19)
(-0.0364415 0.0277709 -1.20456e-19)
(-0.0324518 0.0230652 2.72769e-19)
(-0.0276459 0.018745 -3.22337e-19)
(-0.0221174 0.0151063 -3.09433e-19)
(-0.016014 0.0124774 1.85899e-19)
(-0.00955969 0.0112171 3.07776e-19)
(-0.0029355 0.0117729 -9.97729e-19)
(0.00385138 0.0147515 1.16879e-19)
(0.00947748 0.0201938 1.59279e-19)
(-0.0068544 0.0120176 3.76123e-19)
(-0.0176323 0.0290237 1.24051e-19)
(-0.02649 0.0402182 6.44699e-19)
(-0.0333095 0.0469572 3.32308e-20)
(-0.0382003 0.0502733 -7.16857e-20)
(-0.0413456 0.0509721 -3.41568e-19)
(-0.0429121 0.0496961 2.9041e-19)
(-0.043046 0.0469514 5.21612e-19)
(-0.0418727 0.0431371 3.47526e-19)
(-0.0394953 0.0385744 2.51315e-19)
(-0.0359981 0.0335337 2.16886e-19)
(-0.0314519 0.0282592 -3.88882e-19)
(-0.0259219 0.0229926 -1.21781e-19)
(-0.0194774 0.0179969 -8.9971e-20)
(-0.0122088 0.013578 9.63256e-19)
(-0.00426247 0.0100978 -3.09401e-21)
(0.00412529 0.00798572 -2.40438e-19)
(0.0127484 0.00782409 -7.60331e-20)
(0.0215693 0.0104572 6.89995e-19)
(0.0290163 0.0161088 8.92508e-20)
(-0.00770717 0.0124323 -1.83684e-20)
(-0.0195393 0.0299449 -3.5595e-19)
(-0.0288483 0.0414409 -5.29642e-19)
(-0.0356391 0.0483462 -1.47464e-19)
(-0.0401096 0.0517409 8.1512e-20)
(-0.0425122 0.0524614 1.74922e-20)
(-0.0430704 0.0511676 4.65354e-19)
(-0.0419763 0.0483727 -5.77054e-19)
(-0.0393919 0.044474 -2.19568e-19)
(-0.0354495 0.0397838 -4.42767e-19)
(-0.030257 0.0345566 -3.77239e-19)
(-0.0239032 0.0290153 -3.34429e-19)
(-0.0164666 0.0233768 8.36479e-20)
(-0.00802461 0.0178799 -1.08725e-19)
(0.00132974 0.012815 4.65824e-19)
(0.0114479 0.00854925 -2.55158e-19)
(0.0220823 0.00555555 -8.00782e-19)
(0.0330069 0.00454264 -1.61633e-19)
(0.0441698 0.0066368 3.95329e-19)
(0.0537068 0.0123318 -3.44799e-19)
(-0.00856068 0.0127415 -5.99761e-20)
(-0.021387 0.0305842 4.36031e-19)
(-0.0310213 0.0422536 -5.56015e-19)
(-0.0376016 0.0492415 1.28417e-19)
(-0.0414199 0.0526743 -2.64787e-19)
(-0.0428001 0.0534194 5.90107e-19)
(-0.0420249 0.0521544 -4.21823e-19)
(-0.0393344 0.0494002 4.82689e-19)
(-0.0349297 0.0455538 -4.57988e-19)
(-0.0289768 0.040919 1.9544e-19)
(-0.021613 0.0357348 -9.48175e-20)
(-0.0129547 0.0302 -2.38459e-19)
(-0.00310542 0.0244988 -2.94813e-19)
(0.00783527 0.0188302 2.93678e-19)
(0.0197569 0.0134424 -2.46031e-19)
(0.0324973 0.00866767 -5.38067e-19)
(0.04579 0.00497212 5.60224e-19)
(0.0593906 0.00314508 -7.14479e-19)
(0.0732679 0.00460686 3.21661e-19)
(0.0852516 0.0102046 1.01087e-20)
(-0.00939779 0.0129341 -5.45661e-19)
(-0.0231211 0.0309105 -5.89036e-19)
(-0.032913 0.0426077 6.781e-20)
(-0.0390531 0.0495795 -5.6817e-19)
(-0.0419308 0.0529984 -5.0737e-20)
(-0.0419435 0.0537634 -4.18006e-19)
(-0.0394333 0.0525711 -9.59724e-20)
(-0.0346881 0.0499524 -2.80639e-19)
(-0.0279493 0.0463077 2.24482e-21)
(-0.019419 0.0419383 -1.2297e-19)
(-0.00926947 0.0370732 8.68809e-21)
(0.00234626 0.0318924 -3.54285e-19)
(0.0152855 0.0265501 3.90469e-19)
(0.0294069 0.0212004 -5.54291e-19)
(0.0445592 0.0160312 1.96358e-19)
(0.0605421 0.0113018 7.42401e-21)
(0.0770473 0.00740421 -3.12564e-19)
(0.0937981 0.00511548 7.7491e-19)
(0.110835 0.00609521 -1.84764e-19)
(0.125747 0.0115829 -1.2058e-19)
(-0.0102009 0.013002 6.12843e-19)
(-0.0246829 0.0308977 3.30805e-19)
(-0.0344182 0.0424604 3.07692e-19)
(-0.0398343 0.0493023 4.589e-20)
(-0.0414211 0.0526423 4.16132e-19)
(-0.0396492 0.0534115 5.99976e-19)
(-0.0349191 0.052327 4.91603e-19)
(-0.0275651 0.0499333 4.39064e-20)
(-0.0178674 0.0466395 3.6023e-19)
(-0.00606479 0.0427525 5.56912e-19)
(0.00763181 0.0385025 -1.44657e-19)
(0.0230252 0.0340645 2.42589e-19)
(0.0399196 0.0295771 1.9594e-19)
(0.0581108 0.0251622 1.99354e-19)
(0.0773757 0.0209509 1.17933e-18)
(0.0974396 0.0171125 -4.42023e-19)
(0.11791 0.0139044 -2.68766e-20)
(0.138429 0.0119607 5.11739e-19)
(0.159151 0.0130313 -2.89998e-19)
(0.177636 0.0187034 1.44042e-19)
(-0.0109523 0.0129409 -4.95914e-19)
(-0.0260092 0.0305275 3.18977e-20)
(-0.0354204 0.0417795 -3.96965e-19)
(-0.0397676 0.0483655 -5.16613e-20)
(-0.0396435 0.0515504 2.90698e-19)
(-0.0355916 0.0522979 -8.65319e-19)
(-0.0280681 0.0513467 -6.17384e-22)
(-0.0174513 0.0492571 4.02858e-19)
(-0.00405796 0.0464527 3.78882e-19)
(0.0118375 0.0432541 -1.66663e-19)
(0.0299839 0.039906 5.50598e-20)
(0.0501345 0.0365968 1.2769e-19)
(0.0720291 0.0334747 -6.0447e-20)
(0.0953798 0.0306608 -6.78173e-19)
(0.119859 0.0282646 1.71716e-19)
(0.145069 0.0263942 4.72084e-19)
(0.170466 0.0251651 -6.72468e-19)
(0.195516 0.0249609 3.27751e-19)
(0.220463 0.0274293 8.77475e-20)
(0.243276 0.0343696 4.45508e-19)
(-0.0116339 0.0127495 -7.33398e-20)
(-0.0270302 0.0297903 -3.47527e-19)
(-0.0357883 0.0405475 1.59837e-19)
(-0.0386516 0.046746 6.75007e-22)
(-0.0363182 0.0496954 -6.97091e-19)
(-0.0294042 0.050392 1.08711e-19)
(-0.01842 0.0495954 -2.0686e-20)
(-0.00378499 0.0478824 1.40884e-19)
(0.0141489 0.0456935 -6.45033e-19)
(0.0350724 0.0433687 -4.52959e-20)
(0.0586936 0.041177 -1.51693e-19)
(0.0847138 0.039337 1.34912e-19)
(0.112804 0.038034 4.5553e-19)
(0.142582 0.0374331 -7.0449e-20)
(0.17359 0.0376911 2.73049e-20)
(0.205251 0.0389545 1.79066e-19)
(0.236767 0.041324 -4.43404e-20)
(0.267216 0.0450546 3.60294e-19)
(0.296659 0.0517776 -2.09877e-19)
(0.323916 0.063253 -3.29566e-19)
(-0.0122262 0.0124296 6.79652e-20)
(-0.027667 0.0286854 1.65114e-20)
(-0.0353706 0.0387652 1.39401e-19)
(-0.0362534 0.0444491 3.41415e-19)
(-0.0311236 0.047091 1.91603e-19)
(-0.0206707 0.0477174 2.00304e-20)
(-0.00545935 0.0471062 -2.28922e-19)
(0.0140487 0.0458484 5.86357e-20)
(0.0374645 0.0443988 3.08804e-19)
(0.0644403 0.0431151 -5.23408e-19)
(0.0946412 0.0422893 3.95066e-19)
(0.127718 0.0421724 -2.97725e-19)
(0.163286 0.0429963 2.52655e-19)
(0.200897 0.0449962 -5.44903e-19)
(0.240018 0.0484353 5.99292e-19)
(0.279968 0.0536206 -6.40853e-19)
(0.319779 0.0608974 -1.66437e-19)
(0.35811 0.0709291 5.21699e-19)
(0.393961 0.0860717 -1.76559e-19)
(0.424575 0.107578 7.91813e-20)
(-0.0127063 0.0119841 -5.14822e-20)
(-0.0278267 0.0272205 4.85576e-19)
(-0.0339902 0.0364524 -2.06231e-21)
(-0.0323023 0.0415142 -3.01377e-19)
(-0.0236889 0.0438011 -2.02762e-19)
(-0.00891746 0.0443667 3.71417e-19)
(0.0113875 0.0440024 -1.47123e-19)
(0.0367135 0.0433068 -1.85425e-20)
(0.0666214 0.0427404 3.06859e-19)
(0.100709 0.0426654 -3.8123e-19)
(0.13858 0.0433786 4.18297e-20)
(0.179823 0.0451366 -4.95814e-19)
(0.223997 0.0481808 2.61082e-19)
(0.270628 0.0527654 -7.46947e-19)
(0.319219 0.0591943 1.18955e-18)
(0.369263 0.0678699 -2.18059e-19)
(0.420275 0.0794048 2.26871e-19)
(0.472072 0.0951705 -5.89251e-19)
(0.52511 0.118233 4.07106e-21)
(0.57153 0.144788 6.67014e-19)
(-0.0130452 0.0114159 -1.56027e-19)
(-0.0273978 0.0254097 1.34759e-19)
(-0.031438 0.0336487 -4.96079e-19)
(-0.0264839 0.0380164 7.33694e-19)
(-0.0135908 0.0399448 -5.29711e-19)
(0.0063849 0.0405098 2.73332e-20)
(0.0327443 0.0405093 -5.7137e-19)
(0.0649021 0.0405398 4.08555e-19)
(0.102338 0.0410524 -5.83531e-20)
(0.144554 0.0423935 -3.60697e-19)
(0.191043 0.0448329 -2.10528e-19)
(0.241274 0.0485867 2.22542e-19)
(0.294684 0.0538358 1.47106e-19)
(0.350694 0.0607419 -6.50717e-19)
(0.408739 0.0694647 2.35006e-19)
(0.468311 0.0801725 -3.46275e-19)
(0.529026 0.0930624 4.19389e-20)
(0.590841 0.108554 -2.9361e-19)
(0.654541 0.127798 1.19924e-19)
(0.713062 0.147052 -4.39811e-19)
(-0.0132046 0.0107263 4.44109e-19)
(-0.0262455 0.0232726 -2.68847e-19)
(-0.0274702 0.0304123 2.21501e-19)
(-0.0184402 0.0340662 -2.79624e-19)
(-0.00035899 0.0356956 4.68766e-19)
(0.0258084 0.0363921 -8.23186e-21)
(0.0592598 0.0369506 -5.71004e-20)
(0.0992966 0.0379517 -4.23399e-20)
(0.145263 0.0398198 2.60574e-19)
(0.196498 0.0428594 4.43168e-19)
(0.252305 0.0472819 -2.61713e-19)
(0.311944 0.0532233 2.54507e-19)
(0.374633 0.0607575 4.6471e-19)
(0.439578 0.0699067 -3.25795e-19)
(0.506005 0.0806464 -6.61074e-19)
(0.573213 0.092902 1.20844e-18)
(0.640614 0.106533 -2.15787e-19)
(0.707822 0.121373 -6.99487e-20)
(0.775 0.137724 7.52308e-19)
(0.837134 0.154753 -1.59779e-19)
(-0.0131353 0.00991538 -7.2315e-19)
(-0.0242093 0.0208338 -4.81282e-19)
(-0.0218087 0.0268187 -1.84732e-19)
(-0.00777611 0.0298067 3.56358e-19)
(0.0165086 0.0312758 -8.04437e-19)
(0.0499379 0.0323234 4.16593e-19)
(0.0915593 0.0337277 5.28033e-20)
(0.140497 0.0360355 5.34212e-20)
(0.195879 0.0396194 -5.45777e-19)
(0.256792 0.0447128 -1.92695e-19)
(0.322253 0.0514335 -3.39654e-19)
(0.391215 0.0598015 3.28058e-19)
(0.462592 0.0697524 9.29638e-20)
(0.535295 0.0811491 1.81536e-20)
(0.608284 0.093789 4.26591e-19)
(0.680615 0.107406 -4.32389e-19)
(0.751477 0.121663 -1.78821e-20)
(0.820225 0.136164 1.1257e-20)
(0.886532 0.150752 5.93036e-20)
(0.94765 0.166915 3.33364e-19)
(-0.012775 0.00898244 2.30285e-19)
(-0.0211031 0.0181244 5.9295e-19)
(-0.0141456 0.0229613 4.75766e-19)
(0.00592717 0.0254108 -1.63966e-19)
(0.0375187 0.0269489 5.70236e-19)
(0.0793266 0.0286629 -4.80366e-20)
(0.130176 0.0312938 -6.76791e-20)
(0.188924 0.0353275 4.03067e-20)
(0.25438 0.0410518 5.51282e-19)
(0.325268 0.0485904 3.23939e-19)
(0.400221 0.0579287 9.46395e-20)
(0.477805 0.0689348 5.90968e-21)
(0.556579 0.0813816 -6.26722e-19)
(0.635147 0.0949666 5.44653e-19)
(0.712232 0.10933 9.31805e-20)
(0.786718 0.124069 -1.53694e-19)
(0.857689 0.138749 -6.647e-19)
(0.924449 0.152928 -5.58595e-20)
(0.986499 0.166167 2.6184e-19)
(1.04311 0.181442 -5.33169e-20)
(-0.0120493 0.00792814 -5.84403e-19)
(-0.0167181 0.0151851 2.44466e-19)
(-0.0041536 0.0189527 -1.1933e-18)
(0.023092 0.0210801 4.88652e-19)
(0.0631481 0.0230127 -3.89684e-19)
(0.114441 0.0258034 2.87285e-19)
(0.175474 0.0301248 -4.46262e-19)
(0.244721 0.0363629 4.09911e-20)
(0.320551 0.0446757 -2.2999e-20)
(0.401219 0.0550305 1.19993e-19)
(0.484888 0.0672361 1.73151e-19)
(0.569705 0.0809773 -3.27209e-19)
(0.653886 0.0958495 1.73392e-19)
(0.735799 0.111393 1.59034e-19)
(0.814044 0.127126 6.85548e-19)
(0.887495 0.142569 -2.98072e-19)
(0.955327 0.157266 -1.97247e-19)
(1.01702 0.170826 3.31561e-19)
(1.07221 0.182731 1.7598e-19)
(1.1215 0.196611 -3.32698e-19)
(-0.0108723 0.00675735 5.11975e-19)
(-0.0108291 0.0120712 4.93568e-19)
(0.00850071 0.0149292 1.42348e-19)
(0.0441191 0.0170453 5.99541e-19)
(0.0938031 0.0197941 2.94479e-19)
(0.155603 0.0241572 -5.30842e-19)
(0.227573 0.0306932 8.03922e-19)
(0.307665 0.0396346 -3.95582e-19)
(0.39369 0.0509531 3.94786e-19)
(0.483339 0.0644057 5.10592e-19)
(0.574279 0.0795845 -2.91775e-19)
(0.664269 0.0959694 5.54529e-20)
(0.751281 0.112982 3.08605e-19)
(0.833602 0.130037 2.1719e-19)
(0.909902 0.146581 4.99456e-19)
(0.979259 0.162125 -2.00271e-19)
(1.04115 0.176268 -2.50146e-20)
(1.09541 0.188722 3.1358e-19)
(1.14209 0.199064 -6.76656e-20)
(1.18253 0.210958 1.85285e-22)
(-0.00915006 0.00548237 -2.64318e-19)
(-0.00320282 0.00885842 -9.71254e-19)
(0.02414 0.0110553 2.28679e-19)
(0.06936 0.0135678 -1.74074e-19)
(0.129778 0.0176443 -4.01755e-19)
(0.202934 0.0241417 -2.86768e-19)
(0.286283 0.0334421 -1.77104e-19)
(0.377116 0.0455564 4.30149e-19)
(0.472576 0.0602042 -2.55408e-19)
(0.569765 0.0768814 -2.61578e-19)
(0.665893 0.0949354 -3.30439e-19)
(0.758456 0.113643 -5.45231e-20)
(0.845371 0.132285 -3.71861e-20)
(0.925067 0.150206 -7.62238e-19)
(0.996518 0.166853 3.6878e-19)
(1.05922 0.181808 -4.85022e-19)
(1.11313 0.194784 1.51549e-19)
(1.15857 0.205643 -1.15481e-18)
(1.19607 0.214164 3.48203e-19)
(1.22734 0.223659 4.38952e-19)
(-0.00678364 0.00412599 -6.63531e-20)
(0.00639097 0.00564854 4.7391e-19)
(0.0430568 0.00752909 3.03788e-20)
(0.099087 0.0109409 7.3087e-20)
(0.171216 0.0169327 -1.48577e-19)
(0.256311 0.0261643 -2.44832e-21)
(0.351069 0.0387602 -3.76611e-21)
(0.451996 0.0544302 -8.95017e-20)
(0.555522 0.072577 3.17627e-19)
(0.6582 0.0923983 1.22703e-19)
(0.756932 0.112996 5.5659e-19)
(0.849167 0.13348 -1.51664e-19)
(0.933022 0.153054 1.05728e-19)
(1.00732 0.171074 -1.35628e-20)
(1.07157 0.187075 2.92511e-19)
(1.12584 0.200775 1.78518e-19)
(1.17066 0.212063 4.29049e-19)
(1.20687 0.220965 -6.92517e-19)
(1.23546 0.227499 8.69935e-19)
(1.25825 0.234462 -2.75593e-19)
(-0.00367358 0.00272395 -6.17883e-19)
(0.0181679 0.00257371 -1.92805e-19)
(0.0654936 0.00458485 1.50728e-19)
(0.133464 0.00948786 9.50161e-20)
(0.218071 0.0180376 9.73186e-20)
(0.315333 0.0306031 9.861e-20)
(0.421038 0.0469553 -2.46839e-19)
(0.530833 0.06642 -1.01892e-19)
(0.640474 0.0880321 3.17128e-20)
(0.746118 0.110684 -3.01806e-19)
(0.8446 0.13327 -1.36298e-19)
(0.933609 0.154806 8.23502e-19)
(1.01174 0.174512 -2.1253e-19)
(1.07846 0.191851 -2.92205e-19)
(1.13394 0.206522 -1.38152e-19)
(1.17891 0.218439 9.59563e-20)
(1.21445 0.227688 1.16321e-19)
(1.24185 0.234465 -5.57692e-19)
(1.26244 0.238994 8.05471e-19)
(1.27803 0.243546 -6.97826e-19)
(0.000275902 0.00132652 -6.99502e-20)
(0.0323158 -0.000201527 2.00382e-20)
(0.0916211 0.00249227 -2.55257e-20)
(0.17252 0.00955498 3.73069e-19)
(0.270083 0.0213308 2.05273e-20)
(0.379308 0.0377844 1.36901e-19)
(0.494962 0.058229 -2.84414e-19)
(0.611847 0.0815349 -1.03194e-20)
(0.725189 0.106349 3.9461e-19)
(0.831013 0.131293 5.48661e-20)
(0.926403 0.155135 -3.43212e-19)
(1.0096 0.176903 -3.01436e-20)
(1.07993 0.19594 -2.81067e-19)
(1.13764 0.211903 2.80122e-19)
(1.18363 0.224716 3.87942e-19)
(1.21927 0.234515 -4.26978e-20)
(1.24608 0.241576 -5.18939e-20)
(1.26567 0.24624 1.57935e-19)
(1.27954 0.248883 -5.06841e-19)
(1.28942 0.251312 4.46595e-19)
(0.00515225 -9.79631e-07 7.02106e-20)
(0.0489818 -0.00248099 -4.52993e-19)
(0.121518 0.00155144 1.21246e-19)
(0.216123 0.0114996 -3.75897e-19)
(0.326762 0.0271577 1.29248e-19)
(0.447262 0.047958 -4.79733e-19)
(0.571341 0.0726576 1.93415e-19)
(0.693077 0.0996281 -6.15714e-20)
(0.807433 0.127154 -2.50102e-21)
(0.910644 0.153671 6.28046e-20)
(1.00039 0.177939 -2.28698e-19)
(1.07574 0.199117 -3.26027e-19)
(1.13691 0.216774 -6.66391e-20)
(1.18499 0.230825 -2.99167e-20)
(1.22157 0.241447 -7.58272e-20)
(1.24849 0.248989 -2.46293e-20)
(1.26761 0.253888 -7.37676e-20)
(1.28066 0.256587 -6.39041e-20)
(1.28917 0.257554 -1.89468e-19)
(1.29474 0.25822 2.99951e-19)
(0.0110298 -0.00117855 1.6894e-19)
(0.0682589 -0.00404056 -1.87573e-19)
(0.155153 0.00208308 4.03603e-19)
(0.263966 0.0156725 -1.74173e-19)
(0.387387 0.0358135 4.65419e-19)
(0.517985 0.0612753 6.66265e-21)
(0.648501 0.0901829 2.33498e-19)
(0.772544 0.120414 -6.25291e-20)
(0.885177 0.14997 2.6046e-19)
(0.98323 0.177229 1.86628e-20)
(1.06529 0.201079 6.1854e-19)
(1.13144 0.220931 -4.26645e-19)
(1.18286 0.23665 5.76173e-20)
(1.2214 0.248441 1.09651e-19)
(1.2492 0.256728 5.71507e-19)
(1.26844 0.262038 -2.05196e-19)
(1.28111 0.264923 -4.06128e-20)
(1.28894 0.265881 -2.14139e-19)
(1.29338 0.265419 -2.22383e-20)
(1.29583 0.264677 1.06948e-19)
(0.0179651 -0.00211294 -8.1087e-20)
(0.0901736 -0.00463472 2.34196e-19)
(0.19237 0.00441486 -2.3971e-19)
(0.315561 0.022397 9.46743e-20)
(0.451028 0.0475207 -1.13113e-19)
(0.590088 0.0777741 4.15076e-19)
(0.724715 0.110619 -5.78098e-20)
(0.848411 0.143501 1.42084e-19)
(0.956763 0.174273 -8.37213e-20)
(1.04756 0.201411 -2.20361e-21)
(1.12052 0.224068 9.52132e-20)
(1.17683 0.241996 -7.36686e-20)
(1.21856 0.255397 1.90901e-19)
(1.24818 0.264762 -9.52355e-20)
(1.26822 0.270723 -4.17472e-19)
(1.281 0.273938 4.1462e-19)
(1.28849 0.275022 -1.86364e-19)
(1.2923 0.274485 1.48678e-19)
(1.29374 0.272839 2.5712e-19)
(1.294 0.270996 1.05377e-19)
(0.0259915 -0.00269988 2.01769e-19)
(0.114676 -0.00400555 -4.15732e-19)
(0.232877 0.00886486 7.95215e-20)
(0.370243 0.0319478 -5.76958e-20)
(0.516585 0.0624099 -2.3258e-19)
(0.662097 0.0973755 -1.82375e-19)
(0.798325 0.133671 -3.5865e-20)
(0.919113 0.168438 -3.24624e-19)
(1.021 0.199551 -1.97044e-20)
(1.103 0.225747 -6.01971e-20)
(1.16612 0.246558 -1.63182e-19)
(1.21256 0.26213 -3.63021e-20)
(1.24515 0.273004 -1.24594e-19)
(1.26683 0.279923 -2.07312e-19)
(1.28028 0.283673 2.11876e-19)
(1.28781 0.284992 2.8874e-20)
(1.29128 0.284507 5.74995e-20)
(1.29211 0.282708 -2.4294e-19)
(1.2914 0.280092 -6.30555e-21)
(1.29017 0.277388 -3.72995e-19)
(0.0351153 -0.00282723 2.21185e-19)
(0.14163 -0.00189355 1.47499e-19)
(0.276252 0.0157238 -2.37768e-19)
(0.427196 0.0445313 3.71214e-19)
(0.582847 0.0805096 -4.00356e-20)
(0.732544 0.119892 1.38489e-19)
(0.867854 0.158968 4.79126e-20)
(0.983447 0.194758 1.69479e-19)
(1.07716 0.225346 -1.32696e-19)
(1.14946 0.249877 4.40987e-20)
(1.20255 0.268338 -4.23128e-20)
(1.23959 0.281285 -1.84772e-20)
(1.26395 0.289567 3.52714e-20)
(1.2788 0.294123 -6.47913e-20)
(1.28684 0.295837 -1.97882e-20)
(1.29025 0.295474 -6.06003e-20)
(1.29069 0.293639 -9.83896e-20)
(1.28935 0.29078 6.35984e-20)
(1.28716 0.287366 -8.67225e-20)
(1.28493 0.283979 3.74823e-19)
(0.0453116 -0.00237888 -1.10436e-19)
(0.170813 0.00195015 -3.12795e-19)
(0.321941 0.0252378 -4.16022e-20)
(0.485482 0.0602702 -1.13479e-20)
(0.648558 0.101744 -1.3998e-19)
(0.800059 0.145045 -2.29655e-19)
(0.932091 0.1861 7.50603e-20)
(1.0406 0.222016 -1.03114e-19)
(1.125 0.25128 -1.15333e-19)
(1.18721 0.273552 6.41337e-20)
(1.23061 0.289314 -4.8408e-20)
(1.25904 0.299507 -9.76675e-20)
(1.27622 0.305236 -3.09933e-21)
(1.28539 0.307574 6.61173e-20)
(1.28913 0.307451 -6.70584e-20)
(1.28939 0.305612 9.31373e-20)
(1.28759 0.302616 2.51374e-20)
(1.28473 0.298854 6.29278e-20)
(1.28153 0.294774 1.22086e-19)
(1.27863 0.290821 -1.04463e-19)
(0.0565211 -0.00123929 1.05471e-19)
(0.201913 0.00775114 -9.30838e-21)
(0.369285 0.0375926 4.73173e-20)
(0.544086 0.0791951 -6.41838e-20)
(0.712489 0.12594 5.3202e-21)
(0.86344 0.172493 2.22379e-19)
(0.990123 0.214642 -1.46002e-19)
(1.09013 0.249817 6.17218e-20)
(1.16459 0.277061 5.43489e-20)
(1.21684 0.296622 -1.52556e-19)
(1.25119 0.309473 1.43143e-19)
(1.272 0.316894 1.27771e-21)
(1.28313 0.320179 -1.00412e-19)
(1.2877 0.320475 1.20949e-19)
(1.28809 0.318705 -4.78312e-20)
(1.286 0.31557 3.65379e-20)
(1.2826 0.311564 -4.09292e-20)
(1.27868 0.307021 -1.63926e-20)
(1.27481 0.302366 -1.42148e-19)
(1.27149 0.297918 4.34617e-20)
(0.0686495 0.00070152 -3.55441e-20)
(0.234537 0.0156997 9.54058e-20)
(0.417533 0.0529017 1.4881e-20)
(0.601966 0.101243 6.23416e-20)
(0.773494 0.152842 2.97195e-20)
(0.921704 0.201852 1.39328e-20)
(1.04135 0.244189 7.88471e-20)
(1.13193 0.277822 -9.57624e-21)
(1.19631 0.302474 3.4658e-20)
(1.23907 0.31901 5.56013e-20)
(1.26527 0.328855 2.67542e-20)
(1.27952 0.333563 1.91666e-20)
(1.28565 0.334551 7.76307e-20)
(1.2866 0.332982 -7.50985e-20)
(1.28445 0.329739 1.60906e-20)
(1.28064 0.325456 -1.49681e-20)
(1.27611 0.320554 2.32604e-20)
(1.27149 0.315313 1.94476e-20)
(1.2672 0.310145 4.04151e-20)
(1.26362 0.30524 1.69978e-21)
(0.0815678 0.00354289 2.1077e-20)
(0.26822 0.0259398 1.92407e-20)
(0.465884 0.0711986 -2.66279e-20)
(0.6581 0.126259 1.66344e-20)
(0.830568 0.182128 9.38009e-21)
(0.974103 0.232721 -2.91916e-20)
(1.08544 0.274363 9.61177e-21)
(1.16613 0.305755 1.74371e-21)
(1.22066 0.327373 1.65306e-20)
(1.25469 0.340688 -4.42776e-20)
(1.27371 0.347521 -1.19223e-22)
(1.28246 0.349625 1.22028e-20)
(1.28459 0.348476 -9.7233e-21)
(1.28274 0.34521 9.8387e-21)
(1.27871 0.34064 2.55532e-20)
(1.27368 0.335323 -1.4492e-20)
(1.2684 0.329607 4.06255e-21)
(1.26333 0.323725 1.58071e-20)
(1.25879 0.318079 -2.60122e-20)
(1.25508 0.312731 1.24994e-20)
(0.0794621 -0.00352145 5.46993e-20)
(0.262348 -0.0257499 -3.00455e-20)
(0.456882 -0.0707769 3.54411e-20)
(0.646876 -0.125762 -2.63807e-20)
(0.818147 -0.181811 -1.19165e-20)
(0.961419 -0.232833 3.67796e-21)
(1.07319 -0.275079 -1.17747e-20)
(1.15473 -0.307153 4.25302e-20)
(1.21029 -0.329448 -3.55393e-20)
(1.24533 -0.343375 8.1086e-21)
(1.26529 -0.350725 -6.26667e-21)
(1.27483 -0.353246 -4.09379e-20)
(1.27761 -0.352424 3.98192e-20)
(1.27629 -0.349408 1.53887e-20)
(1.27271 -0.345031 -1.47997e-20)
(1.26805 -0.339862 3.54988e-20)
(1.26309 -0.334264 -4.50042e-22)
(1.25831 -0.328477 -3.44704e-20)
(1.25403 -0.322907 2.5243e-20)
(1.25055 -0.317632 8.37826e-21)
(0.0666933 -0.000749341 -1.96205e-20)
(0.228938 -0.0156934 5.30203e-20)
(0.408756 -0.052718 6.19724e-20)
(0.590774 -0.100976 -2.99623e-20)
(0.760841 -0.152702 5.1754e-20)
(0.908531 -0.202075 8.39032e-20)
(1.02842 -0.244965 -4.73321e-21)
(1.11976 -0.279261 -1.50167e-20)
(1.18515 -0.3046 7.43862e-20)
(1.229 -0.321781 3.67203e-20)
(1.25621 -0.332191 -6.8443e-21)
(1.27136 -0.337367 5.57561e-20)
(1.27826 -0.33873 -5.96303e-20)
(1.27982 -0.337453 9.54693e-20)
(1.27819 -0.334435 -1.55603e-20)
(1.2748 -0.330324 4.73285e-20)
(1.27064 -0.325557 9.2198e-21)
(1.26633 -0.320423 3.36617e-20)
(1.26233 -0.315339 -3.16061e-20)
(1.25901 -0.310514 8.78086e-21)
(0.0547265 0.00113336 -2.90471e-20)
(0.196636 -0.00790884 6.34513e-20)
(0.36082 -0.0376329 4.72686e-20)
(0.533044 -0.0791548 -7.53269e-21)
(0.69972 -0.125982 7.89707e-20)
(0.849863 -0.172829 -6.23042e-20)
(0.97655 -0.215469 -6.47309e-21)
(1.07716 -0.251271 5.61118e-20)
(1.15259 -0.279198 1.87294e-20)
(1.20595 -0.299431 2.60274e-20)
(1.24141 -0.312893 -3.82879e-20)
(1.26322 -0.320837 1.06732e-19)
(1.27522 -0.324552 2.06283e-20)
(1.28052 -0.325189 -9.37913e-20)
(1.28151 -0.323685 1.44102e-19)
(1.27991 -0.320756 -1.7028e-19)
(1.27693 -0.31691 -8.07397e-20)
(1.27336 -0.312491 1.3913e-20)
(1.26981 -0.307934 7.7614e-20)
(1.26677 -0.303577 -1.46708e-19)
(0.0436871 0.00222669 -6.09014e-20)
(0.165899 -0.00224889 -1.42901e-19)
(0.313873 -0.0254825 -1.25925e-19)
(0.474711 -0.0604484 -1.71843e-19)
(0.635809 -0.101969 -1.02104e-19)
(0.786193 -0.145499 -2.1676e-19)