1.275 	2.15223e-18 	-2.76991e-20 	-0.272648
1.825 	2.15223e-18 	-1.39322e-20 	-0.256893
2.375 	2.15223e-18 	-2.66896e-23 	-0.302291
