/*--------------------------------*- C++ -*----------------------------------*\
  =========                 |
  \\      /  F ield         | OpenFOAM: The Open Source CFD Toolbox
   \\    /   O peration     | Website:  https://openfoam.org
    \\  /    A nd           | Version:  6.0
     \\/     M anipulation  |
\*---------------------------------------------------------------------------*/
FoamFile
{
    version     2.0;
    format      ascii;
    class       volScalarField;
    location    "50";
    object      p;
}
// * * * * * * * * * * * * * * * * * * * * * * * * * * * * * * * * * * * * * //

dimensions      [0 2 -2 0 0 0 0];

internalField   nonuniform List<scalar> 
4000
(
-0.243124
-0.244002
-0.244583
-0.245006
-0.245358
-0.245652
-0.245901
-0.246115
-0.246303
-0.246472
-0.246627
-0.246772
-0.246912
-0.24705
-0.247191
-0.247344
-0.24751
-0.247644
-0.247719
-0.24823
-0.243371
-0.24425
-0.24483
-0.245252
-0.245603
-0.245896
-0.246144
-0.246358
-0.246547
-0.246717
-0.246874
-0.247021
-0.247164
-0.247307
-0.247453
-0.247613
-0.247789
-0.247932
-0.248017
-0.248545
-0.243711
-0.244591
-0.24517
-0.245587
-0.245932
-0.246219
-0.246459
-0.246667
-0.246849
-0.247012
-0.247163
-0.247305
-0.247443
-0.247582
-0.247726
-0.247885
-0.248061
-0.248207
-0.248295
-0.248837
-0.244148
-0.245028
-0.245601
-0.24601
-0.246345
-0.246619
-0.246846
-0.247039
-0.247207
-0.247356
-0.247491
-0.247619
-0.247743
-0.247869
-0.248001
-0.24815
-0.248319
-0.24846
-0.248542
-0.249093
-0.244682
-0.245561
-0.246127
-0.246523
-0.246841
-0.247096
-0.247303
-0.247474
-0.247619
-0.247745
-0.247856
-0.247959
-0.248059
-0.24816
-0.248269
-0.248398
-0.24855
-0.248677
-0.248743
-0.249298
-0.245317
-0.246193
-0.246748
-0.247126
-0.247422
-0.247652
-0.247831
-0.247972
-0.248085
-0.248177
-0.248254
-0.248321
-0.248384
-0.248448
-0.248522
-0.248617
-0.24874
-0.248841
-0.24888
-0.249434
-0.246057
-0.246927
-0.247467
-0.247823
-0.24809
-0.248287
-0.24843
-0.248532
-0.248603
-0.248652
-0.248682
-0.248701
-0.248713
-0.248726
-0.248749
-0.248795
-0.248874
-0.248934
-0.248932
-0.249477
-0.246907
-0.247768
-0.248288
-0.248615
-0.248847
-0.249004
-0.249102
-0.249156
-0.249177
-0.24917
-0.249141
-0.249098
-0.249045
-0.24899
-0.248942
-0.248921
-0.248936
-0.248938
-0.248877
-0.249403
-0.247873
-0.248721
-0.249215
-0.249507
-0.249696
-0.249805
-0.249851
-0.249848
-0.249807
-0.249734
-0.249635
-0.249514
-0.249379
-0.249237
-0.249099
-0.248986
-0.248915
-0.248833
-0.248691
-0.249185
-0.248965
-0.249791
-0.250253
-0.250502
-0.250641
-0.250694
-0.250679
-0.250611
-0.2505
-0.250351
-0.250169
-0.249957
-0.249722
-0.249473
-0.24922
-0.248989
-0.248801
-0.248605
-0.248351
-0.248795
-0.25019
-0.250987
-0.251407
-0.251605
-0.251686
-0.251675
-0.251591
-0.251451
-0.251262
-0.251029
-0.250753
-0.250437
-0.250086
-0.249708
-0.249315
-0.248934
-0.248593
-0.248243
-0.247833
-0.248201
-0.25156
-0.252314
-0.252683
-0.25282
-0.252834
-0.252751
-0.252592
-0.252373
-0.2521
-0.251775
-0.251398
-0.250968
-0.250488
-0.249961
-0.249401
-0.248836
-0.248298
-0.247741
-0.247118
-0.24737
-0.253082
-0.253781
-0.254086
-0.254152
-0.254088
-0.253924
-0.253683
-0.253379
-0.253018
-0.252598
-0.252115
-0.251565
-0.250945
-0.250254
-0.249502
-0.248716
-0.247934
-0.247107
-0.24619
-0.246262
-0.254769
-0.255395
-0.255622
-0.255604
-0.255451
-0.255197
-0.254865
-0.254471
-0.254018
-0.253501
-0.252912
-0.25224
-0.251474
-0.250609
-0.249646
-0.248607
-0.247529
-0.246357
-0.245042
-0.244837
-0.256629
-0.257164
-0.257297
-0.25718
-0.256923
-0.256566
-0.256135
-0.255644
-0.255094
-0.254479
-0.253784
-0.252992
-0.252084
-0.251042
-0.249857
-0.248539
-0.247118
-0.245521
-0.243673
-0.243045
-0.258674
-0.259097
-0.259117
-0.258883
-0.258506
-0.258031
-0.257486
-0.256888
-0.256236
-0.255519
-0.254719
-0.253812
-0.252767
-0.251555
-0.250148
-0.248539
-0.24674
-0.244645
-0.242118
-0.240865
-0.260915
-0.261205
-0.261091
-0.260718
-0.260199
-0.259586
-0.258911
-0.258191
-0.257425
-0.256601
-0.255694
-0.254675
-0.253503
-0.252134
-0.250521
-0.248633
-0.246454
-0.243832
-0.240507
-0.238362
-0.263368
-0.263502
-0.26323
-0.262692
-0.262007
-0.261231
-0.260404
-0.259542
-0.258646
-0.257702
-0.256684
-0.255555
-0.254267
-0.252763
-0.250974
-0.248838
-0.246304
-0.243162
-0.238925
-0.235476
-0.266054
-0.266006
-0.265548
-0.264819
-0.263937
-0.262972
-0.261965
-0.260937
-0.259892
-0.258814
-0.257678
-0.256445
-0.255066
-0.253475
-0.251585
-0.249294
-0.246481
-0.242789
-0.237321
-0.231771
-0.268998
-0.268742
-0.268069
-0.267116
-0.266008
-0.264821
-0.263606
-0.262387
-0.261171
-0.259947
-0.258694
-0.257384
-0.255981
-0.254441
-0.252709
-0.250716
-0.248344
-0.245128
-0.239809
-0.233619
-0.272236
-0.27174
-0.27082
-0.269612
-0.268244
-0.266805
-0.265354
-0.26392
-0.262514
-0.261133
-0.25977
-0.258413
-0.257065
-0.255744
-0.254515
-0.253523
-0.253043
-0.253521
-0.256587
-0.269262
-0.275814
-0.275041
-0.273838
-0.272341
-0.270682
-0.268963
-0.26725
-0.26558
-0.26397
-0.262425
-0.26095
-0.259558
-0.258279
-0.257182
-0.256399
-0.256161
-0.256854
-0.259049
-0.263992
-0.276437
-0.279782
-0.27869
-0.277168
-0.275349
-0.273369
-0.271345
-0.269351
-0.267431
-0.265606
-0.263894
-0.26231
-0.260883
-0.259667
-0.258759
-0.258313
-0.258569
-0.25987
-0.262659
-0.267565
-0.277247
-0.284199
-0.282739
-0.280858
-0.278686
-0.27636
-0.274011
-0.271722
-0.269541
-0.267499
-0.265615
-0.263916
-0.262442
-0.261255
-0.260456
-0.26019
-0.260652
-0.262088
-0.264767
-0.268958
-0.275886
-0.289126
-0.287241
-0.284961
-0.282407
-0.279714
-0.277025
-0.27443
-0.271983
-0.269715
-0.267651
-0.265819
-0.264259
-0.263031
-0.262222
-0.261942
-0.262325
-0.263511
-0.265618
-0.268737
-0.273145
-0.294623
-0.29225
-0.289532
-0.28657
-0.28349
-0.280449
-0.27754
-0.274817
-0.272311
-0.270043
-0.268038
-0.266328
-0.26496
-0.263995
-0.263504
-0.263562
-0.264227
-0.265521
-0.267463
-0.269825
-0.300747
-0.29782
-0.294622
-0.291228
-0.287746
-0.284341
-0.281108
-0.278093
-0.275322
-0.272808
-0.270564
-0.268612
-0.266979
-0.265701
-0.264815
-0.264351
-0.264319
-0.264696
-0.265472
-0.266235
-0.307544
-0.303993
-0.300279
-0.296431
-0.292534
-0.288752
-0.285175
-0.28184
-0.278758
-0.27593
-0.273356
-0.271044
-0.269004
-0.267254
-0.265808
-0.264674
-0.263842
-0.263279
-0.262967
-0.262502
-0.315048
-0.310807
-0.306541
-0.302223
-0.297895
-0.293717
-0.289767
-0.286063
-0.282599
-0.279361
-0.276339
-0.273528
-0.270931
-0.268557
-0.266415
-0.264505
-0.262817
-0.261329
-0.260022
-0.258583
-0.32328
-0.318285
-0.313438
-0.308633
-0.303856
-0.299253
-0.294881
-0.290734
-0.286789
-0.283019
-0.279406
-0.275946
-0.272644
-0.269513
-0.266564
-0.263806
-0.26124
-0.258858
-0.256642
-0.254385
-0.332238
-0.326433
-0.320983
-0.315676
-0.310425
-0.305351
-0.300485
-0.295794
-0.291238
-0.286787
-0.282429
-0.278168
-0.274025
-0.270023
-0.26619
-0.262545
-0.259099
-0.255859
-0.252805
-0.249815
-0.341898
-0.33524
-0.329168
-0.323344
-0.317582
-0.311971
-0.306509
-0.30114
-0.295818
-0.290523
-0.28526
-0.280057
-0.274957
-0.270004
-0.265238
-0.260691
-0.256382
-0.252323
-0.248488
-0.244815
-0.352209
-0.344666
-0.337964
-0.331601
-0.325276
-0.319034
-0.312843
-0.306634
-0.300373
-0.294062
-0.287744
-0.281479
-0.275337
-0.269382
-0.263666
-0.258226
-0.253082
-0.248244
-0.243678
-0.239359
-0.363088
-0.354646
-0.347307
-0.340376
-0.333412
-0.326417
-0.319334
-0.312103
-0.304719
-0.297232
-0.289729
-0.282312
-0.275075
-0.268098
-0.261439
-0.255131
-0.249192
-0.243621
-0.238371
-0.233442
-0.374417
-0.365079
-0.3571
-0.349557
-0.341855
-0.333952
-0.325792
-0.317343
-0.30866
-0.299855
-0.29107
-0.282443
-0.274092
-0.266103
-0.258528
-0.251395
-0.244707
-0.238453
-0.232565
-0.227069
-0.386038
-0.375824
-0.367204
-0.358989
-0.350421
-0.341431
-0.33199
-0.322133
-0.311993
-0.30176
-0.291631
-0.281776
-0.272322
-0.263352
-0.254908
-0.247
-0.239617
-0.232733
-0.226258
-0.220244
-0.397755
-0.386705
-0.377438
-0.368468
-0.358881
-0.348606
-0.337681
-0.32624
-0.314519
-0.302788
-0.291293
-0.280223
-0.269704
-0.259804
-0.250548
-0.241924
-0.233906
-0.226448
-0.21944
-0.212963
-0.409332
-0.3975
-0.387573
-0.377747
-0.366965
-0.3552
-0.3426
-0.329432
-0.316047
-0.30279
-0.289944
-0.277702
-0.266178
-0.255415
-0.245413
-0.23614
-0.227549
-0.219578
-0.212092
-0.205215
-0.420492
-0.407948
-0.397341
-0.386536
-0.374374
-0.36092
-0.346483
-0.331486
-0.316399
-0.301632
-0.287485
-0.27414
-0.261686
-0.250137
-0.239465
-0.229612
-0.220516
-0.212094
-0.204191
-0.196978
-0.430928
-0.417753
-0.406435
-0.394515
-0.380784
-0.365465
-0.349068
-0.332193
-0.315415
-0.299192
-0.283823
-0.269465
-0.256171
-0.243922
-0.232659
-0.222303
-0.212772
-0.203965
-0.195707
-0.188226
-0.425822
-0.412687
-0.401422
-0.389592
-0.375993
-0.360837
-0.344623
-0.327935
-0.311342
-0.295295
-0.280091
-0.265886
-0.252734
-0.240618
-0.229479
-0.219239
-0.209817
-0.201115
-0.192956
-0.18557
-0.415359
-0.402857
-0.392299
-0.381572
-0.369525
-0.356218
-0.341949
-0.327132
-0.312225
-0.297632
-0.28365
-0.270461
-0.258152
-0.24674
-0.236196
-0.226464
-0.217483
-0.20917
-0.201371
-0.194257
-0.404187
-0.3924
-0.382518
-0.372759
-0.362076
-0.350441
-0.337993
-0.324991
-0.311778
-0.298691
-0.28601
-0.273925
-0.262548
-0.251925
-0.242055
-0.232907
-0.224436
-0.216578
-0.209202
-0.202428
-0.392614
-0.381612
-0.372387
-0.363474
-0.35397
-0.343806
-0.333015
-0.321725
-0.310165
-0.298597
-0.287263
-0.276348
-0.265978
-0.256221
-0.247101
-0.238606
-0.230711
-0.223373
-0.216479
-0.210111
-0.380913
-0.37075
-0.36217
-0.354004
-0.345505
-0.336608
-0.327283
-0.317559
-0.307565
-0.297485
-0.28751
-0.277807
-0.268502
-0.259676
-0.25137
-0.243595
-0.23634
-0.229579
-0.223224
-0.217325
-0.36932
-0.360033
-0.352094
-0.344594
-0.336949
-0.329123
-0.321058
-0.312724
-0.304169
-0.295503
-0.286863
-0.278383
-0.270177
-0.262331
-0.254897
-0.2479
-0.241344
-0.235219
-0.229456
-0.22408
-0.358029
-0.349638
-0.342337
-0.335444
-0.328529
-0.321595
-0.31459
-0.307454
-0.300179
-0.292814
-0.285443
-0.278162
-0.271065
-0.26423
-0.257711
-0.251542
-0.245739
-0.240302
-0.235182
-0.230379
-0.347194
-0.339703
-0.333038
-0.32671
-0.320425
-0.314232
-0.308102
-0.301969
-0.295797
-0.28959
-0.283386
-0.277246
-0.271235
-0.265416
-0.259838
-0.254538
-0.249534
-0.244835
-0.240405
-0.236218
-0.336932
-0.330324
-0.324291
-0.3185
-0.312772
-0.3072
-0.301784
-0.296472
-0.29122
-0.286007
-0.28084
-0.275745
-0.270764
-0.265939
-0.261308
-0.256901
-0.252734
-0.248818
-0.245126
-0.241591
-0.327324
-0.321569
-0.316156
-0.310882
-0.305661
-0.300619
-0.295786
-0.291135
-0.286628
-0.282239
-0.277956
-0.273785
-0.269745
-0.26586
-0.262154
-0.258646
-0.255344
-0.252252
-0.249348
-0.246504
-0.318418
-0.313472
-0.308664
-0.303891
-0.299142
-0.294564
-0.290215
-0.286094
-0.28218
-0.27845
-0.274891
-0.271499
-0.268282
-0.265252
-0.262421
-0.259795
-0.257372
-0.255143
-0.253086
-0.250983
-0.310238
-0.306045
-0.301818
-0.297533
-0.293231
-0.289074
-0.285139
-0.281448
-0.277998
-0.274781
-0.27179
-0.269024
-0.266491
-0.264202
-0.262163
-0.260377
-0.258831
-0.2575
-0.256362
-0.25509
-0.302781
-0.299279
-0.295604
-0.29179
-0.287919
-0.284154
-0.280587
-0.277254
-0.274171
-0.271345
-0.268781
-0.266491
-0.264493
-0.262806
-0.261448
-0.260428
-0.259734
-0.259331
-0.2592
-0.258921
-0.296028
-0.29315
-0.289993
-0.286633
-0.283177
-0.279787
-0.276556
-0.273535
-0.27075
-0.268222
-0.265968
-0.264017
-0.262402
-0.261165
-0.260348
-0.259984
-0.260084
-0.260624
-0.261593
-0.262568
-0.289944
-0.287622
-0.284945
-0.282017
-0.278962
-0.275933
-0.273022
-0.270284
-0.267753
-0.265457
-0.263423
-0.261694
-0.260322
-0.259375
-0.258933
-0.259073
-0.25986
-0.261318
-0.263464
-0.266075
-0.284481
-0.282649
-0.280413
-0.277893
-0.275223
-0.272542
-0.26994
-0.26747
-0.265168
-0.263062
-0.261186
-0.259587
-0.258335
-0.257522
-0.257268
-0.257715
-0.25901
-0.261278
-0.264611
-0.269309
-0.279585
-0.278183
-0.276346
-0.274206
-0.271901
-0.269556
-0.267254
-0.265043
-0.262957
-0.26102
-0.259263
-0.257733
-0.256503
-0.255679
-0.255417
-0.255923
-0.257453
-0.260284
-0.264695
-0.271955
-0.275199
-0.27417
-0.272692
-0.270903
-0.268939
-0.266914
-0.264901
-0.262942
-0.261065
-0.259289
-0.257634
-0.256138
-0.254862
-0.25391
-0.253449
-0.253728
-0.255104
-0.258034
-0.263164
-0.273213
-0.271265
-0.27056
-0.269401
-0.26793
-0.266282
-0.264555
-0.262815
-0.261099
-0.259427
-0.257808
-0.256253
-0.254779
-0.253425
-0.25227
-0.251453
-0.251221
-0.251973
-0.254298
-0.259482
-0.272336
-0.26773
-0.267305
-0.266427
-0.265241
-0.263878
-0.262424
-0.260937
-0.259449
-0.257972
-0.256509
-0.255054
-0.253606
-0.252171
-0.250779
-0.249501
-0.248497
-0.248056
-0.248647
-0.25196
-0.265068
-0.264545
-0.264363
-0.263731
-0.262795
-0.261685
-0.260475
-0.259216
-0.257935
-0.256639
-0.255323
-0.253971
-0.25256
-0.25106
-0.249435
-0.247639
-0.245609
-0.243238
-0.240065
-0.234882
-0.228837
-0.261671
-0.261699
-0.261278
-0.260561
-0.25967
-0.258674
-0.257615
-0.256517
-0.255384
-0.254206
-0.252963
-0.251622
-0.250138
-0.248453
-0.246487
-0.244146
-0.241312
-0.237639
-0.232272
-0.226784
-0.259077
-0.259284
-0.259045
-0.258513
-0.257812
-0.256999
-0.256113
-0.255172
-0.254182
-0.253132
-0.252
-0.250754
-0.249354
-0.247746
-0.24587
-0.243665
-0.241083
-0.237921
-0.233733
-0.230248
-0.256736
-0.257096
-0.25701
-0.256638
-0.256097
-0.25544
-0.2547
-0.253896
-0.25303
-0.252093
-0.251067
-0.249924
-0.248631
-0.247148
-0.245432
-0.243453
-0.241192
-0.238507
-0.235168
-0.232895
-0.254631
-0.255118
-0.255162
-0.254922
-0.254518
-0.253994
-0.25338
-0.252692
-0.251936
-0.251102
-0.250178
-0.249141
-0.247966
-0.246628
-0.245101
-0.243378
-0.241465
-0.239264
-0.236667
-0.235209
-0.252747
-0.253337
-0.253488
-0.253361
-0.253074
-0.252664
-0.252159
-0.251575
-0.250918
-0.250182
-0.249358
-0.248431
-0.247385
-0.246206
-0.244884
-0.243429
-0.241863
-0.240122
-0.238155
-0.237269
-0.251069
-0.251742
-0.251981
-0.25195
-0.251762
-0.251452
-0.251044
-0.250556
-0.249993
-0.249353
-0.248632
-0.24782
-0.24691
-0.245896
-0.244781
-0.243584
-0.242336
-0.240989
-0.239515
-0.239015
-0.249588
-0.250323
-0.250634
-0.250683
-0.250582
-0.25036
-0.250042
-0.249644
-0.249172
-0.248629
-0.248011
-0.247318
-0.246546
-0.245698
-0.244781
-0.243822
-0.242849
-0.241824
-0.240719
-0.240475
-0.248289
-0.24907
-0.24944
-0.249557
-0.249531
-0.24939
-0.249155
-0.248841
-0.248459
-0.248011
-0.247499
-0.246924
-0.246289
-0.245599
-0.244865
-0.244114
-0.243373
-0.242604
-0.241773
-0.241699
-0.247161
-0.247975
-0.248391
-0.248566
-0.248607
-0.248538
-0.248379
-0.248147
-0.247851
-0.247496
-0.247087
-0.246627
-0.24612
-0.245576
-0.245006
-0.244433
-0.243882
-0.243312
-0.242684
-0.242728
-0.246191
-0.247027
-0.247479
-0.247705
-0.247804
-0.2478
-0.247712
-0.247555
-0.247341
-0.247075
-0.246763
-0.24641
-0.246022
-0.245607
-0.245178
-0.244756
-0.244358
-0.243942
-0.243467
-0.243597
-0.245367
-0.246216
-0.246699
-0.246966
-0.247116
-0.24717
-0.247147
-0.24706
-0.246921
-0.246737
-0.246514
-0.246258
-0.245975
-0.245674
-0.245365
-0.245066
-0.244791
-0.244497
-0.24414
-0.244335
-0.244678
-0.245535
-0.246041
-0.246344
-0.246538
-0.246644
-0.246678
-0.246654
-0.246583
-0.246473
-0.246329
-0.246158
-0.245967
-0.245762
-0.245553
-0.245356
-0.245181
-0.244982
-0.244718
-0.244967
-0.244113
-0.244976
-0.2455
-0.245832
-0.246065
-0.246216
-0.246299
-0.246331
-0.24632
-0.246274
-0.2462
-0.246103
-0.245989
-0.245865
-0.24574
-0.245625
-0.24553
-0.245408
-0.24522
-0.245516
-0.243664
-0.24453
-0.24507
-0.245427
-0.245691
-0.24588
-0.246007
-0.246086
-0.246126
-0.246136
-0.24612
-0.246085
-0.246037
-0.245981
-0.245923
-0.245877
-0.245847
-0.245787
-0.245661
-0.245998
-0.243325
-0.244193
-0.244745
-0.245122
-0.245413
-0.245633
-0.245796
-0.245915
-0.245999
-0.246054
-0.246088
-0.246105
-0.24611
-0.246109
-0.246108
-0.246116
-0.246139
-0.246131
-0.246057
-0.246431
-0.243089
-0.243959
-0.244521
-0.244914
-0.245227
-0.245473
-0.245665
-0.245816
-0.245935
-0.246029
-0.246102
-0.246161
-0.24621
-0.246254
-0.246297
-0.246351
-0.246417
-0.246451
-0.246421
-0.246828
-0.242954
-0.243826
-0.244395
-0.244801
-0.24513
-0.245396
-0.245611
-0.245788
-0.245935
-0.246058
-0.246163
-0.246255
-0.246338
-0.246418
-0.246497
-0.246587
-0.246688
-0.246756
-0.246763
-0.247201
-0.242915
-0.24379
-0.244364
-0.244779
-0.24512
-0.245401
-0.245633
-0.245829
-0.245996
-0.246142
-0.246271
-0.246388
-0.246498
-0.246604
-0.246712
-0.246829
-0.246959
-0.247055
-0.247091
-0.247556
-0.242973
-0.243849
-0.244428
-0.244848
-0.245197
-0.245487
-0.24573
-0.245938
-0.246119
-0.24628
-0.246425
-0.24656
-0.246689
-0.246815
-0.246943
-0.247082
-0.247233
-0.24735
-0.247409
-0.247899
-0.265973
-0.257008
-0.277791
-0.291544
-0.26276
-0.191833
-0.128744
-0.0931315
-0.0625551
-0.0303183
-0.0133378
-0.00216557
0.000323185
0.00234885
0.00216347
0.00466648
0.00775717
0.00473836
0.002305
0.000681437
-0.266759
-0.257987
-0.275805
-0.285557
-0.256958
-0.190857
-0.132223
-0.0980144
-0.0664275
-0.0317098
-0.013013
-0.000489335
0.0027266
0.00420962
0.00348105
0.00509493
0.00741607
0.00412331
0.00131833
0.00011681
-0.267643
-0.259026
-0.273902
-0.279751
-0.251406
-0.190055
-0.135711
-0.102694
-0.0700793
-0.0330075
-0.0126928
0.00117641
0.00514348
0.00612607
0.00486132
0.0055648
0.00707017
0.0035148
0.000362949
-0.000419388
-0.268608
-0.260123
-0.272117
-0.274207
-0.246185
-0.18945
-0.139185
-0.107144
-0.0734955
-0.0342118
-0.0123781
0.00281593
0.00754746
0.00807691
0.00628852
0.00606735
0.00671977
0.00291481
-0.000555279
-0.000922808
-0.269631
-0.261268
-0.270475
-0.268995
-0.241356
-0.189057
-0.142623
-0.111346
-0.076672
-0.035329
-0.012072
0.00441158
0.00991078
0.0100381
0.0077443
0.00659203
0.00636487
0.00232509
-0.00143177
-0.00139035
-0.270682
-0.262451
-0.268993
-0.264162
-0.23696
-0.188881
-0.146004
-0.115296
-0.0796138
-0.0363694
-0.0117802
0.00594438
0.0122052
0.0119838
0.00920839
0.0071269
0.00600532
0.0017473
-0.00226296
-0.00182006
-0.271727
-0.263656
-0.26768
-0.259741
-0.233018
-0.188918
-0.14931
-0.118992
-0.0823322
-0.0373466
-0.0115103
0.00739488
0.0144034
0.0138875
0.0106596
0.00765934
0.00564088
0.00118296
-0.00304629
-0.0022111
-0.272731
-0.264868
-0.26654
-0.255745
-0.229529
-0.189153
-0.152525
-0.122439
-0.0848431
-0.038276
-0.0112714
0.00874415
0.0164799
0.0157234
0.0120767
0.00817676
0.00527139
0.000633577
-0.00378004
-0.00256364
-0.273655
-0.266067
-0.265569
-0.252174
-0.226481
-0.189564
-0.155631
-0.125646
-0.087164
-0.0391733
-0.0110736
0.00997466
0.0184122
0.0174676
0.0134393
0.00866731
0.00489684
0.000100642
-0.00446316
-0.00287866
-0.27446
-0.267233
-0.264758
-0.249014
-0.223847
-0.190126
-0.158617
-0.128621
-0.0893135
-0.0400537
-0.0109271
0.0110711
0.0201816
0.0190991
0.0147288
0.0091205
0.00451747
-0.00041432
-0.00509511
-0.00315785
-0.275111
-0.268345
-0.264096
-0.246243
-0.221595
-0.190811
-0.161471
-0.131375
-0.0913088
-0.0409311
-0.0108417
0.0120212
0.0217736
0.0206006
0.015929
0.00952774
0.00413389
-0.000909771
-0.00567577
-0.00340339
-0.275573
-0.26938
-0.263567
-0.243831
-0.219689
-0.191593
-0.164187
-0.133919
-0.0931666
-0.0418173
-0.0108261
0.0128156
0.0231784
0.0219589
0.0170269
0.00988267
0.00374706
-0.00138417
-0.00620531
-0.00361781
-0.275818
-0.270317
-0.263154
-0.241748
-0.218092
-0.192447
-0.166759
-0.136265
-0.0949029
-0.0427232
-0.0108882
0.0134486
0.0243904
0.0231652
0.0180127
0.0101814
0.00335841
-0.00183598
-0.00668416
-0.00380387
-0.275825
-0.27113
-0.262836
-0.239958
-0.216767
-0.193355
-0.169189
-0.138425
-0.0965322
-0.0436577
-0.0110344
0.013917
0.0254082
0.0242148
0.0188802
0.0104225
0.00296976
-0.00226375
-0.0071129
-0.00396446
-0.27557
-0.271789
-0.262587
-0.238421
-0.215675
-0.194295
-0.171478
-0.140411
-0.0980579
-0.0446197
-0.0112641
0.014222
0.0262342
0.0251068
0.0196263
0.0106066
0.00258323
-0.0026662
-0.00749212
-0.00410249
-0.275031
-0.27225
-0.26237
-0.237088
-0.214769
-0.195247
-0.173622
-0.14222
-0.0994661
-0.0455928
-0.0115675
0.0143717
0.0268749
0.0258432
0.0202503
0.0107363
0.00220101
-0.00304234
-0.00782261
-0.00422071
-0.274233
-0.27253
-0.262179
-0.235935
-0.21403
-0.196201
-0.175623
-0.143865
-0.100784
-0.0465876
-0.0119523
0.0143751
0.0273414
0.0264306
0.0207566
0.0108158
0.00182597
-0.00339091
-0.00810701
-0.0043212
-0.273224
-0.272794
-0.262117
-0.235044
-0.21353
-0.197211
-0.177559
-0.145474
-0.102214
-0.0477549
-0.0125106
0.0142092
0.0276434
0.0268832
0.0211606
0.0108545
0.00146379
-0.00370878
-0.008351
-0.00440587
-0.271398
-0.272815
-0.262151
-0.234384
-0.213212
-0.198331
-0.179583
-0.147238
-0.103929
-0.049262
-0.013329
0.0138075
0.0277679
0.0272107
0.0214732
0.0108667
0.00112012
-0.00399486
-0.00855045
-0.00448125
-0.266695
-0.270708
-0.261247
-0.23293
-0.212063
-0.199093
-0.181384
-0.148578
-0.104841
-0.0503241
-0.0138764
0.0132856
0.0276924
0.0273642
0.0216104
0.0108322
0.00077153
-0.00427229
-0.00865736
-0.00456344
-0.225515
-0.244561
-0.249497
-0.218579
-0.198121
-0.198758
-0.188139
-0.151487
-0.102713
-0.0513248
-0.0138466
0.0103246
0.0261724
0.0271281
0.0211078
0.0103261
-0.0013255
-0.00589833
-0.00859226
-0.00507059
-0.182365
-0.213657
-0.221097
-0.199049
-0.185303
-0.190232
-0.179842
-0.139851
-0.0905782
-0.0466348
-0.0150389
0.00357216
0.0164629
0.017965
0.0133609
0.00575622
-0.00288927
-0.00556397
-0.00623383
-0.00374014
-0.161616
-0.184094
-0.192915
-0.182214
-0.170157
-0.166168
-0.153333
-0.12046
-0.079732
-0.0450058
-0.0203575
-0.00554038
0.00469267
0.00836288
0.00669849
0.00279627
-0.00205698
-0.00385575
-0.0037407
-0.00232162
-0.133958
-0.156665
-0.165559
-0.160238
-0.147437
-0.13759
-0.127537
-0.106367
-0.0759305
-0.04713
-0.0257219
-0.0122263
-0.0030732
0.00196379
0.00225333
0.000437276
-0.00211851
-0.00330135
-0.00286192
-0.00156622
-0.111555
-0.132119
-0.140277
-0.136934
-0.125877
-0.117054
-0.111036
-0.0971503
-0.0729948
-0.0479189
-0.0290717
-0.0170706
-0.00904559
-0.00382682
-0.00223461
-0.00254305
-0.00325412
-0.00336094
-0.00229711
-0.00095017
-0.0927338
-0.110879
-0.118265
-0.116931
-0.110226
-0.104238
-0.0990821
-0.087872
-0.068613
-0.0479328
-0.0319209
-0.0212439
-0.0138272
-0.00840854
-0.00559892
-0.00461252
-0.00407329
-0.00332746
-0.0020161
-0.000734899
-0.0778499
-0.0934294
-0.10067
-0.101735
-0.0986462
-0.0939267
-0.0882454
-0.0789653
-0.0644765
-0.0480377
-0.0341823
-0.0241662
-0.0169077
-0.0113814
-0.0079153
-0.00623024
-0.00504463
-0.0037826
-0.00224271
-0.000765721
-0.0662425
-0.0797179
-0.0870568
-0.0896836
-0.0883756
-0.0843633
-0.079071
-0.0717994
-0.0608412
-0.0474163
-0.0351068
-0.0257589
-0.0189473
-0.0137152
-0.0100474
-0.00784737
-0.00612491
-0.00438784
-0.00250924
-0.00080201
-0.0572915
-0.069041
-0.0761653
-0.0793633
-0.0790367
-0.0761308
-0.0718523
-0.0659078
-0.0570237
-0.0458652
-0.0352431
-0.0269483
-0.0207386
-0.0157464
-0.0118426
-0.00912894
-0.00697715
-0.00490648
-0.00280217
-0.000913157
-0.0503101
-0.0605424
-0.0671531
-0.0705371
-0.0710469
-0.0692696
-0.0658028
-0.0605965
-0.0532026
-0.0441569
-0.0352979
-0.0279618
-0.0221054
-0.0171905
-0.013137
-0.0101234
-0.00771007
-0.00543228
-0.00313949
-0.00101757
-0.0447394
-0.0536415
-0.0596987
-0.0631879
-0.0643198
-0.0633098
-0.0604346
-0.0559518
-0.0499343
-0.0426704
-0.035178
-0.028509
-0.0229303
-0.0181928
-0.0141797
-0.0110015
-0.00836225
-0.00589011
-0.00341047
-0.00109033
-0.0402029
-0.0479956
-0.0535681
-0.0570786
-0.0585651
-0.0580734
-0.0558205
-0.0521566
-0.0472465
-0.041216
-0.0347166
-0.0286719
-0.0234789
-0.0189905
-0.0150378
-0.0117078
-0.00886124
-0.00622935
-0.00362784
-0.00117458
-0.0364324
-0.0433393
-0.0484999
-0.0519624
-0.0536677
-0.053627
-0.0520013
-0.0490366
-0.0448895
-0.0397357
-0.0340976
-0.0286968
-0.023879
-0.0195711
-0.0156528
-0.0122295
-0.00924879
-0.00651293
-0.00382813
-0.00125732
-0.0332265
-0.0394546
-0.0442923
-0.0477086
-0.049601
-0.0499482
-0.0488192
-0.0463721
-0.0428083
-0.0383855
-0.0334944
-0.0286302
-0.0240945
-0.019929
-0.0160858
-0.0126473
-0.00958328
-0.00675753
-0.0039905
-0.00131963
-0.0304098
-0.0361838
-0.040818
-0.04423
-0.0462821
-0.0469123
-0.0461419
-0.0441174
-0.0410646
-0.0372378
-0.0329117
-0.0284541
-0.024164
-0.0201605
-0.0164197
-0.0129877
-0.00985352
-0.00694427
-0.0041126
-0.00136982
-0.0278792
-0.0334305
-0.0379934
-0.0414361
-0.0436048
-0.0444313
-0.0439428
-0.042285
-0.0396519
-0.0362641
-0.0323518
-0.0282315
-0.0241783
-0.0203268
-0.0166652
-0.0132379
-0.0100544
-0.00708787
-0.00421266
-0.00141121
-0.0255421
-0.0311424
-0.0357532
-0.0392435
-0.0414933
-0.0424679
-0.0422093
-0.040843
-0.0385232
-0.0354582
-0.0318695
-0.0280308
-0.024171
-0.0204293
-0.0168242
-0.0134139
-0.0102089
-0.00720332
-0.00428895
-0.00143805
-0.023442
-0.0293224
-0.0340663
-0.0376066
-0.0399127
-0.0409993
-0.0409134
-0.0397585
-0.0376683
-0.0348474
-0.0315033
-0.0278692
-0.0241441
-0.0204813
-0.0169274
-0.0135421
-0.0103258
-0.00728492
-0.0043366
-0.00145579
-0.0217022
-0.0280213
-0.0329245
-0.0365028
-0.0388433
-0.0400044
-0.0400336
-0.0390236
-0.037095
-0.0344401
-0.0312518
-0.0277452
-0.0241117
-0.0205099
-0.0169958
-0.0136253
-0.0103972
-0.00733046
-0.00436219
-0.00146809
-0.0206034
-0.0273262
-0.0323383
-0.0359344
-0.0382908
-0.0394891
-0.0395779
-0.0386464
-0.0368046
-0.0342318
-0.0311163
-0.0276721
-0.0240909
-0.0205245
-0.0170298
-0.0136621
-0.0104262
-0.00734857
-0.00437293
-0.0014718
-0.148591
-0.158549
-0.168631
-0.178929
-0.189546
-0.200597
-0.212207
-0.224507
-0.237624
-0.251668
-0.266689
-0.282649
-0.299296
-0.31615
-0.332222
-0.346354
-0.356604
-0.362195
-0.361104
-0.357916
-0.0894125
-0.0927595
-0.0957909
-0.0984889
-0.100833
-0.102799
-0.104362
-0.105496
-0.106179
-0.106395
-0.106143
-0.105456
-0.104406
-0.103167
-0.101968
-0.101268
-0.101457
-0.103421
-0.107436
-0.1156
-0.0657591
-0.069991
-0.0742529
-0.078555
-0.0829081
-0.0873235
-0.091813
-0.0963885
-0.101061
-0.105841
-0.110731
-0.115731
-0.12082
-0.125963
-0.131078
-0.136063
-0.140727
-0.144898
-0.148255
-0.15064
-0.0530612
-0.0559431
-0.0587794
-0.0615706
-0.0643168
-0.0670179
-0.0696732
-0.0722821
-0.0748435
-0.0773565
-0.0798206
-0.0822369
-0.0846091
-0.0869462
-0.0892652
-0.091596
-0.0939877
-0.0965143
-0.0993186
-0.102617
-0.0437415
-0.0461012
-0.0484619
-0.050826
-0.0531958
-0.0555734
-0.0579611
-0.0603611
-0.0627757
-0.0652069
-0.0676567
-0.0701264
-0.072617
-0.0751273
-0.0776555
-0.0801938
-0.0827368
-0.0852592
-0.087769
-0.0902023
-0.0381796
-0.0400473
-0.0419112
-0.0437719
-0.0456298
-0.0474856
-0.0493397
-0.0511929
-0.0530457
-0.0548989
-0.0567533
-0.0586096
-0.0604692
-0.0623328
-0.0642033
-0.0660814
-0.0679761
-0.069885
-0.0718493
-0.0738569
-0.0337752
-0.0352833
-0.0367916
-0.0383005
-0.0398106
-0.0413222
-0.0428359
-0.0443523
-0.0458719
-0.0473951
-0.0489226
-0.0504547
-0.0519921
-0.0535348
-0.0550839
-0.056638
-0.0582012
-0.059766
-0.061357
-0.0629443
-0.0305594
-0.0317943
-0.0330289
-0.0342631
-0.0354973
-0.0367315
-0.037966
-0.0392009
-0.0404364
-0.0416728
-0.0429104
-0.0441492
-0.0453897
-0.046632
-0.0478769
-0.0491236
-0.0503757
-0.0516279
-0.0529009
-0.0541708
-0.0280047
-0.0290268
-0.0300485
-0.03107
-0.0320914
-0.0331126
-0.0341339
-0.0351553
-0.0361769
-0.0371988
-0.0382211
-0.039244
-0.0402674
-0.0412915
-0.0423165
-0.0433418
-0.0443696
-0.0453957
-0.0464352
-0.0474676
-0.0260047
-0.0268588
-0.0277126
-0.028566
-0.029419
-0.0302719
-0.0311245
-0.0319769
-0.0328291
-0.0336812
-0.0345331
-0.035385
-0.0362368
-0.0370884
-0.0379401
-0.0387913
-0.0396436
-0.0404939
-0.0413533
-0.0422064
-0.024379
-0.0250952
-0.0258114
-0.0265275
-0.0272435
-0.0279596
-0.0286756
-0.0293917
-0.0301077
-0.0308237
-0.0315396
-0.0322555
-0.0329712
-0.0336867
-0.0344021
-0.035117
-0.0358323
-0.0365458
-0.0372657
-0.0379811
-0.023027
-0.0236285
-0.0242305
-0.0248331
-0.0254363
-0.02604
-0.0266442
-0.0272489
-0.027854
-0.0284595
-0.0290652
-0.0296712
-0.0302773
-0.0308834
-0.0314894
-0.0320951
-0.032701
-0.0333055
-0.0339146
-0.0345213
-0.0218021
-0.022306
-0.0228116
-0.0233188
-0.0238275
-0.0243378
-0.0248495
-0.0253627
-0.0258771
-0.0263927
-0.0269094
-0.0274271
-0.0279455
-0.0284645
-0.0289839
-0.0295036
-0.0300238
-0.0305434
-0.0310665
-0.0315895
-0.0206249
-0.021047
-0.0214722
-0.0219004
-0.0223316
-0.0227657
-0.0232026
-0.0236421
-0.0240839
-0.024528
-0.0249741
-0.0254219
-0.0258713
-0.026322
-0.0267737
-0.0272262
-0.0276795
-0.0281329
-0.028589
-0.029047
-0.0192553
-0.0196084
-0.0199672
-0.0203314
-0.0207009
-0.0210754
-0.0214546
-0.0218383
-0.0222261
-0.0226177
-0.0230128
-0.023411
-0.0238119
-0.0242152
-0.0246205
-0.0250275
-0.025436
-0.0258456
-0.0262577
-0.0266734
-0.0176691
-0.0179716
-0.0182831
-0.0186031
-0.0189311
-0.0192666
-0.019609
-0.0199577
-0.0203122
-0.020672
-0.0210363
-0.0214048
-0.0217768
-0.0221519
-0.0225296
-0.0229093
-0.0232907
-0.0236735
-0.0240582
-0.0244474
-0.0152021
-0.0154972
-0.0158053
-0.0161252
-0.016456
-0.0167965
-0.0171457
-0.0175027
-0.0178664
-0.0182361
-0.018611
-0.0189901
-0.0193729
-0.0197586
-0.0201466
-0.0205363
-0.0209272
-0.021319
-0.0217115
-0.0221083
-0.0119612
-0.0123199
-0.0126915
-0.0130743
-0.0134669
-0.0138679
-0.0142759
-0.0146899
-0.0151088
-0.0155315
-0.0159571
-0.016385
-0.0168142
-0.0172442
-0.0176743
-0.018104
-0.0185327
-0.0189604
-0.0193863
-0.0198145
-0.00696028
-0.00758302
-0.0082001
-0.00881109
-0.00941564
-0.0100134
-0.0106042
-0.0111878
-0.011764
-0.0123327
-0.0128937
-0.013447
-0.0139925
-0.0145303
-0.0150602
-0.0155824
-0.0160968
-0.0166037
-0.0171024
-0.0175974
-0.0014542
-0.00243813
-0.00338792
-0.00430545
-0.00519255
-0.00605091
-0.00688211
-0.00768766
-0.00846894
-0.00922727
-0.00996387
-0.0106799
-0.0113764
-0.0120544
-0.0127148
-0.0133586
-0.0139864
-0.0145995
-0.0151974
-0.0157847
-0.00168328
-0.00266791
-0.00361837
-0.00453656
-0.00542429
-0.00628323
-0.00711499
-0.00792106
-0.00870282
-0.0094616
-0.0101986
-0.010915
-0.0116118
-0.0122901
-0.0129507
-0.0135947
-0.0142226
-0.0148358
-0.0154337
-0.016021
-0.00718971
-0.00781337
-0.00843136
-0.00904323
-0.00964862
-0.0102472
-0.0108388
-0.0114231
-0.0119999
-0.0125692
-0.0131308
-0.0136847
-0.0142308
-0.014769
-0.0152993
-0.0158219
-0.0163365
-0.0168437
-0.0173427
-0.0178377
-0.0121942
-0.0125541
-0.0129269
-0.0133109
-0.0137046
-0.0141066
-0.0145157
-0.0149307
-0.0153505
-0.0157742
-0.0162008
-0.0166294