/*--------------------------------*- C++ -*----------------------------------*\
  =========                 |
  \\      /  F ield         | OpenFOAM: The Open Source CFD Toolbox
   \\    /   O peration     | Website:  https://openfoam.org
    \\  /    A nd           | Version:  6.0
     \\/     M anipulation  |
\*---------------------------------------------------------------------------*/
FoamFile
{
    version     2.0;
    format      ascii;
    class       volVectorField;
    location    "50";
    object      U;
}
// * * * * * * * * * * * * * * * * * * * * * * * * * * * * * * * * * * * * * //

dimensions      [0 1 -1 0 0 0 0];

internalField   nonuniform List<vector> 
4000
(
(-0.000417586 0.00100622 -3.20856e-21)
(-0.00227271 0.00229024 1.71526e-20)
(-0.00570258 0.00302203 -2.08588e-20)
(-0.009915 0.00335511 1.58828e-20)
(-0.0144897 0.00340748 7.73315e-21)
(-0.0191845 0.0032696 -2.32252e-20)
(-0.023826 0.00301093 -2.05182e-21)
(-0.0283017 0.00268398 -7.2643e-22)
(-0.0325499 0.00232794 -1.20545e-20)
(-0.0365466 0.00197177 -6.52957e-21)
(-0.0402949 0.00163657 4.86985e-21)
(-0.0438184 0.00133748 1.85032e-20)
(-0.0471543 0.00108491 -1.38538e-21)
(-0.0503483 0.000885473 1.98396e-21)
(-0.0534515 0.000742587 -1.86373e-20)
(-0.0565231 0.000656699 1.14838e-20)
(-0.0596232 0.000625547 -1.64485e-20)
(-0.0627406 0.000645758 2.48949e-20)
(-0.0657717 0.000714566 -2.79927e-23)
(-0.0692164 0.000817089 5.36758e-21)
(-0.000514272 0.00194442 1.06614e-20)
(-0.00251002 0.00464568 -5.44981e-20)
(-0.00603839 0.00638062 -3.76364e-20)
(-0.0103141 0.00738824 -2.55518e-20)
(-0.0149228 0.00785634 -3.28752e-20)
(-0.0196277 0.00793468 7.22286e-21)
(-0.024259 0.00774488 -3.79465e-20)
(-0.0287076 0.00738447 -8.52098e-21)
(-0.032914 0.00693104 2.69155e-21)
(-0.036856 0.00644613 2.83441e-20)
(-0.0405386 0.00597824 -3.09278e-20)
(-0.0439865 0.00556524 4.30229e-20)
(-0.0472385 0.00523594 -3.22198e-20)
(-0.050342 0.00501135 -3.82058e-20)
(-0.0533499 0.00490538 -5.26415e-20)
(-0.0563239 0.00492501 3.36219e-20)
(-0.0593267 0.00507084 -1.08814e-20)
(-0.0623487 0.00534165 -3.95829e-20)
(-0.0652853 0.00573803 3.74218e-20)
(-0.0686437 0.00622405 -2.77561e-20)
(-0.000686144 0.00287756 1.04307e-19)
(-0.00293723 0.00698634 5.39972e-20)
(-0.00664596 0.00971471 6.07276e-20)
(-0.0110375 0.0113872 5.05487e-21)
(-0.0157073 0.0122613 3.35632e-20)
(-0.0204268 0.0125457 4.18574e-20)
(-0.0250332 0.0124138 -7.61401e-20)
(-0.0294229 0.0120077 -4.02995e-20)
(-0.0335406 0.0114433 -5.2508e-20)
(-0.0373675 0.0108146 5.60107e-20)
(-0.0409112 0.0101978 -4.27905e-20)
(-0.0441991 0.00965391 -5.50806e-20)
(-0.0472728 0.00923095 -2.00798e-20)
(-0.0501825 0.00896522 1.90521e-20)
(-0.0529845 0.00888222 -5.2919e-21)
(-0.0557447 0.00899656 7.62628e-21)
(-0.0585304 0.00931269 8.83667e-20)
(-0.0613358 0.00983242 -1.24367e-20)
(-0.0640552 0.0105608 -8.98434e-20)
(-0.0672059 0.0114405 1.18278e-19)
(-0.000933147 0.00380184 3.63164e-20)
(-0.00355344 0.00930032 -5.1249e-20)
(-0.00752288 0.0130044 -1.28506e-20)
(-0.0120812 0.0153245 2.40659e-20)
(-0.0168372 0.0165873 6.8284e-20)
(-0.0215745 0.0170603 1.49464e-19)
(-0.0261402 0.0169676 1.46051e-19)
(-0.0304386 0.0164956 1.2151e-20)
(-0.0344206 0.0157976 8.95587e-20)
(-0.0380721 0.0150001 1.37086e-19)
(-0.0414046 0.0142071 -1.09507e-19)
(-0.0444491 0.0135035 1.62092e-19)
(-0.0472505 0.0129574 -3.67465e-20)
(-0.0498633 0.0126219 9.25223e-21)
(-0.0523487 0.012536 3.83362e-20)
(-0.054778 0.0127236 5.09588e-20)
(-0.057226 0.0131948 -8.02189e-20)
(-0.0596926 0.0139561 -6.69659e-20)
(-0.062071 0.0150188 -1.18465e-19)
(-0.0648928 0.0163039 1.72292e-19)
(-0.00125511 0.00471349 -1.89722e-20)
(-0.00435697 0.0115757 -1.94198e-19)
(-0.00866497 0.0162298 -5.74414e-20)
(-0.0134379 0.0191728 -1.39972e-19)
(-0.0183026 0.0208006 5.29311e-20)
(-0.0230585 0.0214382 -8.34427e-20)
(-0.027566 0.02136 2.87356e-20)
(-0.0317399 0.020795 -1.76746e-19)
(-0.0355392 0.0199333 9.32729e-20)
(-0.0389557 0.0189333 -1.11189e-19)
(-0.0420057 0.0179266 -9.88743e-20)
(-0.0447244 0.0170227 -1.10751e-19)
(-0.047161 0.0163113 1.00512e-19)
(-0.0493747 0.0158642 -9.02995e-20)
(-0.0514327 0.0157362 1.25697e-19)
(-0.0534139 0.0159634 3.63365e-20)
(-0.0554025 0.0165641 8.9965e-20)
(-0.0574066 0.0175522 3.94452e-20)
(-0.0593196 0.0189483 -1.56374e-19)
(-0.0616915 0.0206516 2.54527e-19)
(-0.00165164 0.00560867 8.36774e-20)
(-0.00534493 0.0138002 6.41355e-21)
(-0.0100654 0.0193709 3.44718e-20)
(-0.0150964 0.0229056 1.20261e-19)
(-0.0200878 0.0248691 -1.83778e-20)
(-0.0248593 0.025643 1.95314e-19)
(-0.0292883 0.0255499 8.67252e-20)
(-0.0333027 0.0248602 7.29837e-21)
(-0.0368713 0.0237992 2.22953e-19)
(-0.0399934 0.0225559 7.30634e-20)
(-0.0426907 0.0212895 3.46763e-20)
(-0.0450027 0.0201342 1.09994e-19)
(-0.0469832 0.0192028 1.0084e-19)
(-0.0486967 0.0185883 1.84122e-19)
(-0.0502171 0.0183643 -1.64575e-19)
(-0.0516324 0.018583 2.32715e-19)
(-0.0530385 0.019275 3.11966e-21)
(-0.0544549 0.0204653 -2.97479e-19)
(-0.0557764 0.0221887 3.85753e-19)
(-0.0575783 0.0243231 1.60086e-19)
(-0.00212204 0.00648329 -4.93065e-20)
(-0.00651263 0.0159609 -8.95469e-20)
(-0.0117136 0.0224074 -1.86326e-19)
(-0.0170395 0.0264968 -5.52687e-21)
(-0.022169 0.0287627 3.18301e-20)
(-0.0269472 0.0296416 -2.37936e-19)
(-0.0312721 0.0295026 -1.76529e-19)
(-0.0350881 0.0286547 -2.52454e-20)
(-0.0383758 0.0273563 -2.23298e-19)
(-0.0411429 0.0258252 -1.54623e-19)
(-0.0434171 0.024247 -4.50606e-20)
(-0.0452424 0.0227807 -1.45118e-19)
(-0.0466769 0.0215634 -2.36379e-21)
(-0.0477901 0.0207115 -1.92772e-19)
(-0.0486631 0.0203217 8.10861e-20)
(-0.0493938 0.020467 -9.25132e-20)
(-0.0500925 0.0211958 7.09397e-20)
(-0.0507929 0.0225507 -9.02431e-20)
(-0.0513948 0.0245874 -2.57966e-19)
(-0.0525068 0.0271643 -7.83942e-20)
(-0.00266495 0.00733266 -1.81745e-20)
(-0.00785283 0.0180436 -1.97452e-20)
(-0.0135938 0.0253177 1.56256e-19)
(-0.0192418 0.0299201 -2.54343e-19)
(-0.0245112 0.0324527 3.73033e-20)
(-0.0292777 0.0334053 -1.46975e-19)
(-0.033465 0.0331904 6.94139e-20)
(-0.0370365 0.0321527 3.12128e-19)
(-0.0399875 0.0305805 -2.00195e-20)
(-0.0423352 0.0287177 -2.3289e-19)
(-0.0441137 0.026774 4.22643e-20)
(-0.0453712 0.0249325 8.2047e-21)
(-0.0461693 0.0233547 -4.78717e-20)
(-0.0465822 0.022183 4.78369e-21)
(-0.0466972 0.0215411 4.20338e-19)
(-0.046623 0.0215293 -5.97935e-20)
(-0.0464863 0.022221 -1.16842e-19)
(-0.0463385 0.0236853 -2.09719e-19)
(-0.0460884 0.0260091 2.13881e-19)
(-0.0463898 0.0290357 9.2388e-20)
(-0.00327811 0.00815106 9.16907e-20)
(-0.00935478 0.020032 -1.19999e-19)
(-0.0156835 0.0280783 1.69662e-19)
(-0.0216676 0.0331481 1.70854e-19)
(-0.027065 0.0359111 1.57491e-19)
(-0.0317882 0.0369083 3.19365e-19)
(-0.035791 0.0365923 2.06541e-19)
(-0.0390603 0.0353398 -4.43876e-19)
(-0.0416083 0.0334645 2.27033e-19)
(-0.0434633 0.0312327 1.78184e-19)
(-0.0446664 0.0288749 -2.56955e-21)
(-0.0452699 0.0265956 1.99523e-19)
(-0.0453379 0.0245798 1.55582e-19)
(-0.0449474 0.0229974 -8.45902e-20)
(-0.0441913 0.022003 2.86047e-19)
(-0.0431885 0.0217305 -3.54583e-19)
(-0.0420833 0.0222885 1.42013e-19)
(-0.0409485 0.0237844 1.82646e-19)
(-0.0397073 0.0263518 -4.25547e-20)
(-0.0390754 0.029827 3.67929e-19)
(-0.00395786 0.00893134 1.84332e-19)
(-0.0110032 0.021907 9.59555e-21)
(-0.0179518 0.0306623 -6.61619e-20)
(-0.0242686 0.0361508 -6.98812e-20)
(-0.0297635 0.0391091 -3.23809e-19)
(-0.0343925 0.0401266 4.5892e-20)
(-0.038145 0.0396929 1.29935e-19)
(-0.0410356 0.0382119 -6.25486e-20)
(-0.0430962 0.0360181 5.15944e-20)
(-0.0443689 0.0333947 -1.3639e-20)
(-0.0449025 0.030588 -6.73639e-20)
(-0.0447534 0.0278197 6.40127e-20)
(-0.0439873 0.0252955 -2.78167e-19)
(-0.0426823 0.0232115 2.66722e-19)
(-0.0409347 0.0217558 -2.31089e-19)
(-0.0388724 0.0211028 7.13564e-20)
(-0.0366576 0.0214065 1.62564e-19)
(-0.0343874 0.0228293 -3.37588e-20)
(-0.0320056 0.0255729 -1.12435e-19)
(-0.0303121 0.0294813 -7.66678e-20)
(-0.00469869 0.00966456 -2.29716e-19)
(-0.0127771 0.0236456 -1.51565e-20)
(-0.0203581 0.0330389 4.83968e-20)
(-0.026982 0.0388944 1.24477e-19)
(-0.0325198 0.0420146 -1.75705e-19)
(-0.0369778 0.0430354 -1.53351e-19)
(-0.0403871 0.0424793 3.57956e-19)
(-0.0427943 0.0407727 -1.97813e-19)
(-0.0442551 0.0382656 -1.27617e-19)
(-0.0448279 0.0352521 -1.83142e-19)
(-0.0445716 0.0319877 1.21248e-19)
(-0.0435472 0.0287045 -3.23108e-21)
(-0.0418219 0.0256232 -2.26439e-19)
(-0.0394733 0.0229621 -3.70529e-19)
(-0.0365987 0.0209419 2.82313e-19)
(-0.0333323 0.0197813 -2.28873e-19)
(-0.0298533 0.0196908 3.24503e-19)
(-0.0262846 0.0209069 -9.08938e-20)
(-0.0225966 0.0237296 1.91376e-19)
(-0.0197034 0.0280346 -6.50421e-19)
(-0.00549276 0.0103399 -4.65492e-19)
(-0.014649 0.0252212 3.053e-19)
(-0.0228507 0.0351721 4.14984e-20)
(-0.0297285 0.0413394 8.04373e-21)
(-0.0352239 0.0445906 -1.88334e-19)
(-0.0394008 0.0456056 2.76966e-19)
(-0.0423373 0.0449366 3.01945e-20)
(-0.0441171 0.0430282 -5.67759e-20)
(-0.0448241 0.0402407 -1.8239e-19)
(-0.0445367 0.0368725 1.97112e-19)
(-0.043327 0.0331809 4.99799e-19)
(-0.0412632 0.0293999 -1.10387e-19)
(-0.038415 0.0257559 2.4956e-19)
(-0.0348596 0.022481 -2.94796e-19)
(-0.0306929 0.0198221 -2.82744e-19)
(-0.0260526 0.0180412 1.69973e-19)
(-0.0211327 0.017412 2.80994e-19)
(-0.0160806 0.0182652 -9.10563e-19)
(-0.0108972 0.0210375 1.06858e-19)
(-0.00664834 0.0256736 1.45556e-19)
(-0.00632967 0.0109448 3.44756e-19)
(-0.0165845 0.0266031 1.13605e-19)
(-0.0253665 0.0370206 5.91277e-19)
(-0.0324121 0.0434397 3.04669e-20)
(-0.0377428 0.0467921 -6.57551e-20)
(-0.0414861 0.0477999 -3.13235e-19)
(-0.0437729 0.0470424 2.66357e-19)
(-0.0447289 0.0449795 4.78053e-19)
(-0.0444705 0.0419768 3.18432e-19)
(-0.0431007 0.0383318 2.30019e-19)
(-0.0407094 0.0342964 1.9833e-19)
(-0.0373768 0.030097 -3.55922e-19)
(-0.0331786 0.0259541 -1.11451e-19)
(-0.0281941 0.0221 -8.21545e-20)
(-0.0225185 0.0187945 8.80127e-19)
(-0.0162909 0.0163324 -2.98436e-21)
(-0.00971676 0.0150481 -2.19426e-19)
(-0.00296432 0.0153809 -6.91816e-20)
(0.00393797 0.0179485 6.29551e-19)
(0.00972862 0.0228172 8.20046e-20)
(-0.00719634 0.0114657 -1.68912e-20)
(-0.0185417 0.0277578 -3.26361e-19)
(-0.0278304 0.0385381 -4.85705e-19)
(-0.0349196 0.0451424 -1.35228e-19)
(-0.0399191 0.0485649 7.4714e-20)
(-0.043026 0.0495696 1.60722e-20)
(-0.0444281 0.0487613 4.26482e-19)
(-0.0442972 0.046613 -5.28881e-19)
(-0.0427867 0.0434942 -2.01188e-19)
(-0.0400291 0.0396977 -4.05455e-19)
(-0.0361379 0.0354646 -3.453e-19)
(-0.0312118 0.031006 -3.05818e-19)
(-0.0253403 0.0265242 7.64711e-20)
(-0.0186116 0.0222354 -9.92945e-20)
(-0.0111253 0.0183914 4.25356e-19)
(-0.00302426 0.0152969 -2.33128e-19)
(0.00547594 0.013328 -7.30863e-19)
(0.0141921 0.0130305 -1.4739e-19)
(0.0230831 0.015243 3.60665e-19)
(0.0306506 0.0202205 -3.15085e-19)
(-0.00807724 0.0118887 -5.49924e-20)
(-0.0204721 0.0286504 3.99598e-19)
(-0.0301562 0.0396753 -5.09685e-19)
(-0.0371212 0.0463884 1.17745e-19)
(-0.0415726 0.0498458 -2.42721e-19)
(-0.0437811 0.0508529 5.40816e-19)
(-0.0439949 0.05004 -3.86497e-19)
(-0.0424345 0.0478937 4.42135e-19)
(-0.0392932 0.0447871 -4.19334e-19)
(-0.0347375 0.0410093 1.78846e-19)
(-0.0289109 0.0367894 -8.68131e-20)
(-0.0219391 0.0323194 -2.17985e-19)
(-0.0139367 0.0277753 -2.69293e-19)
(-0.00501339 0.0233418 2.6827e-19)
(0.00471361 0.0192386 -2.24642e-19)
(0.0150878 0.0157463 -4.91093e-19)
(0.0258767 0.0132413 5.11276e-19)
(0.036886 0.0123419 -6.52035e-19)
(0.0480943 0.0141244 2.93428e-19)
(0.0577469 0.019097 8.63122e-21)
(-0.00895495 0.0122007 -4.99778e-19)
(-0.0223208 0.0292468 -5.3979e-19)
(-0.0322468 0.0403822 6.21511e-20)
(-0.0388712 0.0471161 -5.208e-19)
(-0.0425008 0.0505654 -4.64757e-20)
(-0.0434827 0.0515773 -3.83073e-19)
(-0.0421267 0.0508085 -8.79129e-20)
(-0.0387029 0.0487609 -2.56947e-19)
(-0.033446 0.0458152 2.1442e-21)
(-0.0265591 0.0422603 -1.12471e-19)
(-0.0182211 0.0383187 7.90193e-21)
(-0.00859402 0.0341667 -3.23816e-19)
(0.00216936 0.0299549 3.56708e-19)
(0.0139189 0.02583 -5.06163e-19)
(0.0264977 0.0219612 1.7924e-19)
(0.039712 0.0185687 6.75924e-21)
(0.0532908 0.015969 -2.85305e-19)
(0.0670178 0.0147753 7.07374e-19)
(0.0809401 0.0162589 -1.68804e-19)
(0.0930897 0.0212073 -1.10258e-19)
(-0.00981067 0.012391 5.61362e-19)
(-0.0240271 0.0295166 3.03157e-19)
(-0.0339944 0.0406121 2.82018e-19)
(-0.0400072 0.0472658 4.20855e-20)
(-0.0424783 0.0506541 3.81471e-19)
(-0.0418325 0.0516662 5.49852e-19)
(-0.0384403 0.0509864 4.50368e-19)
(-0.0326205 0.0491351 4.01757e-20)
(-0.024648 0.0465052 3.29712e-19)
(-0.0147631 0.0433938 5.09492e-19)
(-0.00318313 0.0400263 -1.32217e-19)
(0.00988637 0.0365762 2.21769e-19)
(0.024241 0.0331812 1.79096e-19)
(0.0396695 0.0299602 1.8213e-19)
(0.0559454 0.0270328 1.07658e-18)
(0.0728006 0.0245398 -4.03472e-19)
(0.0898807 0.0226785 -2.45934e-20)
(0.106901 0.021935 4.67517e-19)
(0.124019 0.0236416 -2.65075e-19)
(0.139222 0.0288044 1.31834e-19)
(-0.0106248 0.0124515 -4.54324e-19)
(-0.0255246 0.0294349 2.92892e-20)
(-0.0352792 0.0403259 -3.6396e-19)
(-0.0403486 0.0467869 -4.73632e-20)
(-0.0412551 0.050052 2.6648e-19)
(-0.038501 0.0510521 -7.93023e-19)
(-0.0325161 0.0504995 -4.4448e-22)
(-0.0236646 0.0489356 3.68972e-19)
(-0.0122587 0.046771 3.46768e-19)
(0.00142555 0.0443193 -1.52589e-19)
(0.0171324 0.041822 5.03068e-20)
(0.0346088 0.0394681 1.16726e-19)
(0.0535893 0.0374071 -5.52745e-20)
(0.0737822 0.0357607 -6.19353e-19)
(0.0948589 0.0346326 1.56819e-19)
(0.116427 0.0341104 4.31161e-19)
(0.137977 0.0342606 -6.14254e-19)
(0.15905 0.0353341 2.99546e-19)
(0.179899 0.0385342 8.03439e-20)
(0.198833 0.0449041 4.09196e-19)
(-0.0113769 0.0123777 -6.72979e-20)
(-0.0267404 0.0289848 -3.18638e-19)
(-0.0359674 0.0394972 1.46522e-19)
(-0.0396925 0.0456463 5.52327e-22)
(-0.0385511 0.0487215 -6.39125e-19)
(-0.0331226 0.0496937 9.9686e-20)
(-0.0238936 0.0493025 -1.8918e-20)
(-0.0112708 0.0481107 1.29016e-19)
(0.0043993 0.0465493 -5.90504e-19)
(0.0228086 0.0449542 -4.13076e-20)
(0.0436647 0.0435941 -1.38599e-19)
(0.066669 0.0426912 1.23433e-19)
(0.0914936 0.0424365 4.16236e-19)
(0.117759 0.0430018 -6.43676e-20)
(0.145011 0.0445484 2.48816e-20)
(0.172677 0.0472163 1.63775e-19)
(0.199973 0.0510765 -4.03976e-20)
(0.226039 0.0562784 3.29994e-19)
(0.250934 0.0639913 -1.91653e-19)
(0.273701 0.0749104 -3.0332e-19)
(-0.0120452 0.0121678 6.22966e-20)
(-0.0275927 0.0281582 1.50702e-20)
(-0.0359069 0.0381158 1.2785e-19)
(-0.0378081 0.0438359 3.13132e-19)
(-0.0340493 0.0466599 1.75676e-19)
(-0.0252877 0.0475955 1.83421e-20)
(-0.012066 0.0474063 -2.09792e-19)
(0.00516779 0.0466736 5.37722e-20)
(0.0260336 0.0458465 2.82713e-19)
(0.0501917 0.0452818 -4.79065e-19)
(0.0773165 0.045275 3.61447e-19)
(0.107072 0.0460854 -2.72269e-19)
(0.139088 0.0479581 2.3099e-19)
(0.172938 0.0511466 -4.98091e-19)
(0.208103 0.0559377 5.47813e-19)
(0.243916 0.062665 -5.85919e-19)
(0.279405 0.0717004 -1.52324e-19)
(0.313239 0.0837056 4.78619e-19)
(0.344334 0.100686 -1.61508e-19)
(0.369975 0.122466 7.3236e-20)
(-0.0126048 0.0118227 -4.72491e-20)
(-0.0279873 0.0269564 4.45572e-19)
(-0.0349219 0.0361907 -1.92046e-21)
(-0.0344301 0.0413796 -2.76504e-19)
(-0.0273891 0.0439109 -1.86015e-19)
(-0.0145371 0.0448248 3.40675e-19)
(0.00352336 0.044903 -1.34939e-19)
(0.0262972 0.0447381 -1.70128e-20)
(0.0533622 0.0447882 2.81015e-19)
(0.0843363 0.0454178 -3.4917e-19)
(0.11885 0.0469308 3.82393e-20)
(0.156528 0.0495966 -4.53709e-19)
(0.196971 0.0536767 2.38875e-19)
(0.239761 0.059454 -6.83566e-19)
(0.284461 0.0672737 1.0892e-18)
(0.330631 0.0775962 -1.99344e-19)
(0.377864 0.0911227 2.08996e-19)
(0.426099 0.10936 -5.42636e-19)
(0.475878 0.135295 2.21662e-21)
(0.519768 0.163992 6.27087e-19)
(-0.0130262 0.0113438 -1.43324e-19)
(-0.0278134 0.0253885 1.2387e-19)
(-0.0328083 0.0337516 -4.55516e-19)
(-0.0292538 0.0383368 6.73592e-19)
(-0.0181618 0.040572 -4.86232e-19)
(-0.000360136 0.0415236 2.50358e-20)
(0.0234769 0.0419831 -5.24027e-19)
(0.0527892 0.0425441 3.74589e-19)
(0.0870867 0.0436584 -5.35655e-20)
(0.125911 0.0456768 -3.30441e-19)
(0.168806 0.048879 -1.92731e-19)
(0.215304 0.0534962 2.03628e-19)
(0.264922 0.05973 1.34677e-19)
(0.317172 0.0677706 -5.96339e-19)
(0.371593 0.0778132 2.15218e-19)
(0.427792 0.0900705 -3.17888e-19)
(0.485513 0.104796 3.83749e-20)
(0.544883 0.122501 -2.71805e-19)
(0.606846 0.144347 1.14371e-19)
(0.664186 0.165698 -4.12081e-19)
(-0.0132716 0.0107327 4.07928e-19)
(-0.0269396 0.0234712 -2.46806e-19)
(-0.0293296 0.0308486 2.03357e-19)
(-0.0219333 0.0348041 -2.56691e-19)
(-0.00591297 0.0367966 4.30458e-19)
(0.0177966 0.0379106 -7.65262e-21)
(0.0484255 0.0389375 -5.2384e-20)
(0.0853135 0.040458 -3.88298e-20)
(0.127855 0.0428997 2.38868e-19)
(0.175454 0.0465749 4.05999e-19)
(0.227497 0.0517071 -2.39862e-19)
(0.283339 0.0584492 2.33092e-19)
(0.342311 0.0668965 4.25856e-19)
(0.403741 0.077095 -2.98647e-19)
(0.466983 0.0890461 -6.07602e-19)
(0.531467 0.1027 1.11204e-18)
(0.596737 0.117934 -1.98496e-19)
(0.662541 0.134611 -6.49345e-20)
(0.729191 0.153086 7.04677e-19)
(0.791243 0.171935 -1.47202e-19)
(-0.0132939 0.0099905 -6.64734e-19)
(-0.0252107 0.0212286 -4.42472e-19)
(-0.0242166 0.0275521 -1.69845e-19)
(-0.0120855 0.0309138 3.27522e-19)
(0.00984561 0.0327904 -7.39041e-19)
(0.0405063 0.0342739 3.82478e-19)
(0.0789893 0.0361419 4.84434e-20)
(0.124478 0.0389445 4.88834e-20)
(0.17618 0.0430615 -5.00577e-19)
(0.233278 0.0487384 -1.76759e-19)
(0.294905 0.0561097 -3.11472e-19)
(0.360148 0.0652154 3.00758e-19)
(0.428055 0.0760133 8.54567e-20)
(0.497679 0.088388 1.67374e-20)
(0.568112 0.102155 3.93225e-19)
(0.638528 0.11706 -3.97907e-19)
(0.708216 0.132765 -1.67084e-20)
(0.776607 0.148864 9.42514e-21)
(0.843454 0.165249 5.38198e-20)
(0.90554 0.18311 3.14531e-19)
(-0.0130339 0.00911834 2.11769e-19)
(-0.0224473 0.0186923 5.45415e-19)
(-0.0171708 0.0239522 4.37685e-19)
(0.000698609 0.0268313 -1.50757e-19)
(0.0296137 0.028805 5.23938e-19)
(0.0683223 0.0309574 -4.4094e-20)
(0.115717 0.0340325 -6.21611e-20)
(0.170743 0.038524 3.69682e-20)
(0.232324 0.0447333 5.05791e-19)
(0.299321 0.0528028 2.97045e-19)
(0.370516 0.0627401 8.66959e-20)
(0.444634 0.0744385 5.29308e-21)
(0.520386 0.0876943 -5.75853e-19)
(0.596514 0.102224 5.00264e-19)
(0.671849 0.11768 8.61308e-20)
(0.745359 0.13366 -1.41411e-19)
(0.816172 0.149712 -6.16642e-19)
(0.883599 0.165366 -5.29614e-20)
(0.947135 0.180187 2.45e-19)
(1.00568 0.19712 -5.07616e-20)
(-0.0124211 0.00811875 -5.3813e-19)
(-0.0184479 0.0159046 2.25121e-19)
(-0.00787226 0.0201608 -1.09834e-18)
(0.0168365 0.0227541 4.49473e-19)
(0.0538704 0.0251315 -3.58352e-19)
(0.101728 0.0283459 2.64174e-19)
(0.159011 0.0330781 -4.1001e-19)
(0.22432 0.0397293 3.76493e-20)
(0.296181 0.0484795 -2.10709e-20)
(0.37302 0.059323 1.10079e-19)
(0.453184 0.0720987 1.59041e-19)
(0.534987 0.0865199 -3.00644e-19)
(0.61679 0.102206 1.59082e-19)
(0.697072 0.118711 1.46286e-19)
(0.774496 0.135554 6.33548e-19)
(0.847957 0.152245 -2.74778e-19)
(0.916605 0.168299 -1.83745e-19)
(0.979852 0.183282 3.09528e-19)
(1.03725 0.196634 1.66783e-19)
(1.08917 0.21216 -3.11508e-19)
(-0.0113735 0.00699806 4.71911e-19)
(-0.0129935 0.012922 4.55037e-19)
(0.0040078 0.0163137 1.31006e-19)
(0.0367307 0.0189109 5.52002e-19)
(0.0830364 0.0220939 2.70916e-19)
(0.141079 0.0268497 -4.88137e-19)
(0.209052 0.0337531 7.39007e-19)
(0.285082 0.043062 -3.6359e-19)
(0.367176 0.0547807 3.62711e-19)
(0.453232 0.068703 4.69198e-19)
(0.541109 0.0844567 -2.68072e-19)
(0.628724 0.101552 5.08984e-20)
(0.714161 0.119428 2.84133e-19)
(0.795761 0.137505 2.00371e-19)
(0.872192 0.155217 4.624e-19)
(0.94248 0.172049 -1.84497e-19)
(1.006 0.187556 -2.23131e-20)
(1.06248 0.201403 2.93745e-19)
(1.1118 0.213089 -6.29072e-20)
(1.15518 0.226581 4.2749e-22)
(-0.00980043 0.00576928 -2.43736e-19)
(-0.0058554 0.00982063 -8.95717e-19)
(0.0187917 0.0125751 2.10785e-19)
(0.0607422 0.0155622 -1.604e-19)
(0.117432 0.0200433 -3.69916e-19)
(0.186548 0.0268894 -2.63674e-19)
(0.265733 0.0365097 -1.62834e-19)
(0.352501 0.0489538 3.95615e-19)
(0.44423 0.0639855 -2.34889e-19)
(0.53824 0.0811457 -2.40265e-19)
(0.631923 0.0998195 -3.04097e-19)
(0.722894 0.119309 -5.02252e-20)
(0.809118 0.138903 -3.38685e-20)
(0.889007 0.157932 -7.04054e-19)
(0.961456 0.175818 3.42006e-19)
(1.02584 0.192097 -4.49653e-19)
(1.08195 0.206432 1.42006e-19)
(1.12998 0.218633 -1.08086e-18)
(1.17026 0.228392 3.2557e-19)
(1.20445 0.239372 4.14283e-19)
(-0.00760566 0.00445497 -6.11261e-20)
(0.00319486 0.00670111 4.37642e-19)
(0.0367767 0.00914175 2.80079e-20)
(0.0891608 0.0130006 6.74319e-20)
(0.157238 0.0193509 -1.37067e-19)
(0.238074 0.0288788 -2.15262e-21)
(0.328609 0.0417511 -3.41735e-21)
(0.425614 0.0577301 -8.23901e-20)
(0.525775 0.076274 2.92294e-19)
(0.625854 0.0966289 1.13086e-19)
(0.722891 0.11793 5.12897e-19)
(0.814386 0.139299 -1.40007e-19)
(0.898426 0.15993 9.77522e-20)
(0.973736 0.179148 -1.28238e-20)
(1.03967 0.19644 2.70905e-19)
(1.09612 0.211472 1.66116e-19)
(1.14345 0.224075 4.01263e-19)
(1.18232 0.234228 -6.48687e-19)
(1.21358 0.241872 8.17479e-19)
(1.23903 0.250143 -2.5935e-19)
(-0.00469099 0.00308967 -5.71417e-19)
(0.014374 0.00369282 -1.78006e-19)
(0.058215 0.00624505 1.39366e-19)
(0.122176 0.0115482 8.78039e-20)
(0.202454 0.0203979 8.95971e-20)
(0.295328 0.0332058 9.09889e-20)
(0.396879 0.0498027 -2.27377e-19)
(0.503052 0.0695812 -9.40053e-20)
(0.60985 0.0916379 2.91956e-20)
(0.713599 0.11491 -2.78177e-19)
(0.811199 0.13831 -1.25783e-19)
(0.900303 0.160849 7.60774e-19)
(0.979394 0.181712 -1.96168e-19)
(1.04776 0.200311 -2.70847e-19)
(1.10537 0.216289 -1.28862e-19)
(1.15277 0.2295 8.90678e-20)
(1.19086 0.239975 1.09046e-19)
(1.2208 0.247871 -5.22967e-19)
(1.24379 0.253362 7.57663e-19)
(1.26165 0.259011 -6.5729e-19)
(-0.000960713 0.00172171 -6.49818e-20)
(0.0278745 0.00095619 1.86593e-20)
(0.0832921 0.00415093 -2.35134e-20)
(0.159846 0.0115503 3.4487e-19)
(0.252873 0.0235602 1.87798e-20)
(0.357689 0.0402084 1.26443e-19)
(0.469399 0.0608864 -2.62356e-19)
(0.583106 0.0845417 -9.53965e-21)
(0.694249 0.109882 3.64096e-19)
(0.798945 0.135559 5.07005e-20)
(0.894252 0.16034 -3.17117e-19)
(0.978281 0.183219 -2.77563e-20)
(1.05017 0.203486 -2.60693e-19)
(1.10994 0.220732 2.59518e-19)
(1.15829 0.234819 3.60902e-19)
(1.19637 0.245825 -3.98053e-20)
(1.2256 0.253985 -4.86515e-20)
(1.24746 0.259613 1.48203e-19)
(1.26338 0.263061 -4.77316e-19)
(1.27512 0.266373 4.20146e-19)
(0.00367381 0.000413956 6.48822e-20)
(0.0438511 -0.00131751 -4.19573e-19)
(0.112107 0.00315524 1.12372e-19)
(0.202077 0.0133636 -3.47616e-19)
(0.308059 0.029189 1.19427e-19)
(0.424252 0.0501502 -4.43358e-19)
(0.544733 0.0750984 1.78665e-19)
(0.663855 0.102486 -5.67751e-20)
(0.776724 0.130647 -2.25891e-21)
(0.879571 0.158025 5.80747e-20)
(0.969947 0.183348 -2.1184e-19)
(1.04671 0.20572 -3.02308e-19)
(1.10984 0.224639 -6.19982e-20)
(1.16018 0.239948 -2.78266e-20)
(1.19912 0.251765 -7.06736e-20)
(1.22836 0.260393 -2.3038e-20)
(1.24964 0.266243 -6.89896e-20)
(1.26463 0.269746 -5.98642e-20)
(1.27485 0.271365 -1.78323e-19)
(1.28192 0.27272 2.83044e-19)
(0.00928934 -0.00075626 1.56792e-19)
(0.0624075 -0.00290919 -1.74012e-19)
(0.144651 0.00357501 3.74235e-19)
(0.248602 0.0173396 -1.61285e-19)
(0.367345 0.0375876 4.3093e-19)
(0.493861 0.0631975 5.95622e-21)
(0.621245 0.0923991 2.16105e-19)
(0.743317 0.123144 -5.76435e-20)
(0.855185 0.15346 2.41119e-19)
(0.953568 0.181703 1.7436e-20)
(1.03684 0.206703 5.73739e-19)
(1.1048 0.227792 -3.96096e-19)
(1.15838 0.244759 5.33819e-20)
(1.1992 0.257742 1.01826e-19)
(1.22924 0.267112 5.33333e-19)
(1.25056 0.273369 -1.91607e-19)
(1.26509 0.277053 -3.80215e-20)
(1.27454 0.278664 -2.01371e-19)
(1.28037 0.278721 -2.11965e-20)
(1.28402 0.278504 1.00801e-19)
(0.0159457 -0.00169828 -7.55502e-20)
(0.0835835 -0.0035778 2.17773e-19)
(0.180794 0.00573562 -2.22341e-19)
(0.298971 0.0238052 8.80606e-20)
(0.429846 0.0489886 -1.04688e-19)
(0.565165 0.0794035 3.84736e-19)
(0.697213 0.112617 -5.33682e-20)
(0.81961 0.14613 1.31911e-19)
(0.927875 0.177789 -7.75234e-20)
(1.01958 0.206017 -1.89001e-21)
(1.09417 0.229883 8.86139e-20)
(1.15251 0.249051 -6.85392e-20)
(1.19644 0.263647 1.77835e-19)
(1.22823 0.274104 -8.86098e-20)
(1.2503 0.281021 -3.90074e-19)
(1.26488 0.285042 3.8779e-19)
(1.27393 0.286784 -1.74734e-19)
(1.27908 0.286769 1.39482e-19)
(1.28165 0.285529 2.41891e-19)
(1.28289 0.284083 9.92408e-20)
(0.023681 -0.00231014 1.87859e-19)
(0.107344 -0.00306869 -3.86962e-19)
(0.220275 0.00995502 7.41062e-20)
(0.352559 0.0330408 -5.36496e-20)
(0.4945 0.0635348 -2.1581e-19)
(0.636707 0.0987031 -1.69228e-19)
(0.770957 0.135466 -3.31981e-20)
(0.891099 0.17099 -3.01351e-19)
(0.993481 0.203107 -1.82067e-20)
(1.07684 0.23047 -5.58945e-20)
(1.14183 0.252511 -1.51721e-19)
(1.19038 0.269288 -3.37217e-20)
(1.22509 0.281274 -1.16054e-19)
(1.24875 0.289169 -1.93512e-19)
(1.26397 0.293744 1.98066e-19)
(1.27304 0.295736 2.72226e-20)
(1.27781 0.295787 5.42244e-20)
(1.27974 0.294404 -2.27948e-19)
(1.27996 0.292106 -5.78014e-21)
(1.27954 0.289706 -3.51134e-19)
(0.0325068 -0.00248152 2.06449e-19)
(0.133572 -0.00112404 1.37539e-19)
(0.262696 0.0165264 -2.21289e-19)
(0.408581 0.0452612 3.45529e-19)
(0.560119 0.0812671 -3.71399e-20)
(0.707013 0.12092 1.28795e-19)
(0.840955 0.160579 4.45329e-20)
(0.956492 0.197249 1.57649e-19)
(1.05118 0.228936 -1.23412e-19)
(1.12512 0.254677 4.10331e-20)
(1.18021 0.274355 -3.94229e-20)
(1.21931 0.288442 -1.73324e-20)
(1.24563 0.297735 3.29084e-20)
(1.26224 0.303148 -6.05749e-20)
(1.2718 0.305564 -1.8559e-20)
(1.27651 0.305759 -5.6814e-20)
(1.27802 0.304359 -9.23417e-20)
(1.2776 0.301832 5.96501e-20)
(1.27618 0.298673 -8.16435e-20)
(1.27463 0.295522 3.52741e-19)
(0.0424038 -0.00209748 -1.03258e-19)
(0.16206 0.00250527 -2.92022e-19)
(0.307531 0.0257008 -3.88248e-20)
(0.466123 0.0605995 -1.04541e-20)
(0.625453 0.102122 -1.3047e-19)
(0.774687 0.145784 -2.13932e-19)
(0.90593 0.187542 6.99492e-20)
(1.01488 0.22445 -9.60816e-20)
(1.1006 0.25488 -1.07568e-19)
(1.16463 0.278374 5.9827e-20)
(1.21001 0.295309 -4.51962e-20)
(1.24039 0.306559 -9.1276e-20)
(1.25934 0.313192 -2.97568e-21)
(1.27004 0.316273 6.17707e-20)
(1.27507 0.316742 -6.27947e-20)
(1.27642 0.315366 8.71901e-20)
(1.27553 0.312726 2.34873e-20)
(1.27343 0.309236 5.90092e-20)
(1.27089 0.305364 1.14758e-19)
(1.26859 0.301601 -9.82446e-20)
(0.0533195 -0.00104295 9.87017e-20)
(0.192515 0.00804713 -8.8887e-21)
(0.354143 0.0376713 4.40883e-20)
(0.524187 0.0790977 -5.99293e-20)
(0.689265 0.125936 4.86808e-21)
(0.838489 0.172954 2.07394e-19)
(0.964903 0.215926 -1.36239e-19)
(1.06576 0.252183 5.7549e-20)
(1.14176 0.280632 5.06564e-20)
(1.19589 0.301398 -1.42462e-19)
(1.23215 0.315359 1.3369e-19)
(1.25473 0.323743 1.15653e-21)
(1.26742 0.327828 -9.39028e-20)
(1.27331 0.328764 1.13129e-19)
(1.2748 0.327496 -4.47827e-20)
(1.27363 0.324748 3.42258e-20)
(1.27099 0.321039 -3.83218e-20)
(1.26773 0.316724 -1.53167e-20)
(1.26445 0.312245 -1.3349e-19)
(1.26166 0.307959 4.07975e-20)
(0.0651661 0.000792386 -3.33807e-20)
(0.224558 0.0156958 8.93483e-20)
(0.401798 0.0525604 1.38923e-20)
(0.581734 0.100703 5.8311e-20)
(0.750391 0.152462 2.77491e-20)
(0.897386 0.202049 1.30026e-20)
(1.0172 0.245317 7.368e-20)
(1.10893 0.2801 -8.97473e-21)
(1.17497 0.305969 3.23794e-20)
(1.21958 0.32367 5.19824e-20)
(1.24756 0.334549 2.50203e-20)
(1.2634 0.340127 1.79246e-20)
(1.2709 0.341817 7.2624e-20)
(1.27298 0.340801 -7.0267e-20)
(1.27177 0.337986 1.50608e-20)
(1.26874 0.334033 -1.40152e-20)
(1.26488 0.329386 2.17853e-20)
(1.26084 0.324343 1.82181e-20)
(1.25707 0.31933 3.79066e-20)
(1.25398 0.314569 1.61931e-21)
(0.0778209 0.00350884 1.97844e-20)
(0.257739 0.0256007 1.80635e-20)
(0.449704 0.0704109 -2.49718e-20)
(0.637739 0.125272 1.55956e-20)
(0.807795 0.181382 8.78477e-21)
(0.950581 0.232665 -2.73277e-20)
(1.06245 0.275331 9.00058e-21)
(1.14447 0.307914 1.61666e-21)
(1.20072 0.330739 1.54813e-20)
(1.2365 0.345164 -4.14371e-20)
(1.25716 0.352951 -1.09197e-22)
(1.26731 0.355835 1.14235e-20)
(1.27062 0.355305 -9.10142e-21)
(1.26974 0.352518 9.20614e-21)
(1.26652 0.348319 2.39134e-20)
(1.26217 0.343289 -1.35613e-20)
(1.25747 0.337799 3.8004e-21)
(1.25293 0.332097 1.47974e-20)
(1.24886 0.326593 -2.43675e-20)
(1.2456 0.321381 1.17002e-20)
(0.0770695 -0.0035026 5.26849e-20)
(0.255684 -0.0255432 -2.89261e-20)
(0.446594 -0.0702891 3.41031e-20)
(0.633902 -0.125147 -2.53777e-20)
(0.803593 -0.181347 -1.14617e-20)
(0.946337 -0.232807 3.54444e-21)
(1.0584 -0.275711 -1.13288e-20)
(1.14076 -0.308558 4.09188e-20)
(1.19739 -0.331641 -3.42077e-20)
(1.23355 -0.346298 7.81432e-21)
(1.25455 -0.35428 -6.03224e-21)
(1.265 -0.357321 -3.94513e-20)
(1.26855 -0.356912 3.83871e-20)
(1.26786 -0.354218 1.48485e-20)
(1.2648 -0.350089 -1.42857e-20)
(1.26058 -0.345112 3.42908e-20)
(1.256 -0.339662 -4.24871e-22)
(1.25155 -0.33399 -3.33503e-20)
(1.24758 -0.32851 2.44417e-20)
(1.2444 -0.323321 8.13195e-21)
(0.0644638 -0.0008109 -1.89156e-20)
(0.222588 -0.0157017 5.09596e-20)
(0.398748 -0.0525179 5.95441e-20)
(0.577886 -0.100651 -2.87945e-20)
(0.746081 -0.152477 4.97049e-20)
(0.892942 -0.202217 8.06052e-20)
(1.01289 -0.245704 -4.5685e-21)
(1.10491 -0.280743 -1.44607e-20)
(1.17135 -0.306875 7.15193e-20)
(1.21637 -0.324822 3.53239e-20)
(1.24472 -0.335915 -6.60016e-21)
(1.2609 -0.34167 5.36952e-20)
(1.26867 -0.343501 -5.75094e-20)
(1.27098 -0.342593 9.20605e-20)
(1.26995 -0.339861 -1.50177e-20)
(1.26708 -0.33597 4.57366e-20)
(1.26335 -0.33137 8.93893e-21)
(1.25942 -0.326363 3.26061e-20)
(1.25575 -0.321376 -3.06151e-20)
(1.25276 -0.316641 8.51201e-21)
(0.0526711 0.00100336 -2.79376e-20)
(0.190648 -0.00811043 6.09068e-20)
(0.351186 -0.0377046 4.53283e-20)
(0.520369 -0.0791187 -7.21828e-21)
(0.684888 -0.126005 7.57184e-20)
(0.833874 -0.17315 -5.9888e-20)
(0.960332 -0.216317 -6.22685e-21)
(1.06144 -0.252817 5.38282e-20)
(1.13782 -0.281529 1.79114e-20)
(1.19236 -0.302551 2.50249e-20)
(1.22903 -0.316744 -3.68607e-20)
(1.25199 -0.325327 1.02704e-19)
(1.265 -0.329574 1.99035e-20)
(1.27116 -0.330638 -9.0444e-20)
(1.27287 -0.329469 1.39092e-19)
(1.27188 -0.326797 -1.64521e-19)
(1.2694 -0.323145 -7.81596e-20)
(1.26627 -0.318872 1.34101e-20)
(1.26309 -0.314425 7.52473e-20)
(1.26041 -0.310169 -1.42315e-19)
(0.0418129 0.00204081 -5.85012e-20)
(0.160313 -0.00261854 -1.37158e-19)
(0.3047 -0.025804 -1.20865e-19)
(0.46238 -0.0606923 -1.64686e-19)