/*--------------------------------*- C++ -*----------------------------------*\
  =========                 |
  \\      /  F ield         | OpenFOAM: The Open Source CFD Toolbox
   \\    /   O peration     | Website:  https://openfoam.org
    \\  /    A nd           | Version:  6.0
     \\/     M anipulation  |
\*---------------------------------------------------------------------------*/
FoamFile
{
    version     2.0;
    format      ascii;
    class       surfaceScalarField;
    location    "39";
    object      phi;
}
// * * * * * * * * * * * * * * * * * * * * * * * * * * * * * * * * * * * * * //

dimensions      [0 3 -1 0 0 0 0];

internalField   nonuniform List<scalar> 
7840
(
3.45759e-05
-0.00024475
0.000123011
-0.000772629
0.00024876
-0.00130577
0.000393437
-0.0018019
0.000539803
-0.00222769
0.000674771
-0.00256606
0.000790682
-0.00281592
0.000884854
-0.00298739
0.000958198
-0.00309597
0.00101365
-0.003158
0.00105486
-0.00318791
0.0010854
-0.0031971
0.00110826
-0.00319382
0.00112576
-0.00318369
0.00113957
-0.00317032
0.00115086
-0.00315596
0.00116041
-0.00314195
0.00116875
-0.00312915
0.00117623
-0.00311808
-0.00310926
0.00118304
3.6035e-05
-0.000280785
0.000125603
-0.000862197
0.000249425
-0.00142959
0.000387563
-0.00194004
0.000522775
-0.00236291
0.000643187
-0.00268647
0.000742866
-0.0029156
0.000820749
-0.00306527
0.000878901
-0.00315412
0.00092087
-0.00319996
0.000950485
-0.00321752
0.000971158
-0.00321777
0.000985595
-0.00320826
0.000995779
-0.00319387
0.00100308
-0.00317762
0.00100842
-0.00316129
0.0010124
-0.00314594
0.00101543
-0.00313218
0.00101777
-0.00312041
-0.00311102
0.00101953
3.70957e-05
-0.000317881
0.000126633
-0.000951734
0.000246844
-0.00154981
0.000376722
-0.00206991
0.000499518
-0.0024857
0.000604861
-0.00279181
0.000688564
-0.0029993
0.000751004
-0.00312771
0.000795147
-0.00319826
0.000824917
-0.00322973
0.000844126
-0.00323673
0.000855944
-0.00322959
0.000862748
-0.00321506
0.000866197
-0.00319732
0.000867391
-0.00317882
0.000867048
-0.00316095
0.000865634
-0.00314452
0.000863457
-0.00313001
0.00086071
-0.00311767
-0.00310779
0.000857478
3.77193e-05
-0.0003556
0.000126052
-0.00104007
0.000241086
-0.00166484
0.00036126
-0.00219009
0.000470751
-0.00259519
0.000560867
-0.00288193
0.000629098
-0.00306753
0.000677043
-0.00317565
0.000708323
-0.00322954
0.000727032
-0.00324844
0.000736834
-0.00324653
0.000740595
-0.00323335
0.000740361
-0.00321483
0.000737492
-0.00319445
0.000732859
-0.00317419
0.000727011
-0.0031551
0.000720306
-0.00313782
0.000712983
-0.00312268
0.000705187
-0.00310987
-0.00309958
0.000696981
3.78793e-05
-0.000393479
0.000123855
-0.00112604
0.000232301
-0.00177329
0.000341613
-0.0022994
0.000437243
-0.00269082
0.000512255
-0.00295694
0.000565674
-0.00312095
0.000600096
-0.00321008
0.000619572
-0.00324902
0.0006282
-0.00325707
0.000629406
-0.00324774
0.000625731
-0.00322967
0.000618899
-0.00320799
0.000610009
-0.00318556
0.000599736
-0.00316391
0.000588498
-0.00314387
0.00057657
-0.00312589
0.000564136
-0.00311025
0.000551313
-0.00309705
-0.00308642
0.000538149
3.75609e-05
-0.00043104
0.000120082
-0.00120856
0.000220708
-0.00187391
0.000318276
-0.00239697
0.000399772
-0.00277232
0.000460004
-0.00301717
0.000499361
-0.00316031
0.000521203
-0.00323192
0.00052982
-0.00325763
0.000529191
-0.00325644
0.000522451
-0.003241
0.00051181
-0.00321903
0.0004987
-0.00319488
0.000483994
-0.00317086
0.000468209
-0.00314813
0.000451656
-0.00312731
0.000434546
-0.00310878
0.000417024
-0.00309273
0.000399189
-0.00307921
-0.00306831
0.00038108
3.67616e-05
-0.000467802
0.000114805
-0.00128661
0.000206572
-0.00196568
0.000291771
-0.00248217
0.00035909
-0.00283964
0.00040501
-0.00306309
0.000431083
-0.00318638
0.000441227
-0.00324206
0.000439809
-0.00325622
0.000430602
-0.00324724
0.000416423
-0.00322682
0.000399168
-0.00320178
0.00038001
-0.00317573
0.000359631
-0.00315048
0.000338419
-0.00312691
0.000316601
-0.0031055
0.000294336
-0.00308651
0.000271741
-0.00307013
0.000248905
-0.00305638
-0.00304527
0.000225867
3.54896e-05
-0.000503291
0.00010813
-0.00135925
0.00019019
-0.00204774
0.000262621
-0.0025546
0.000315902
-0.00289292
0.000348067
-0.00309526
0.000361628
-0.00319994
0.000360876
-0.00324131
0.000350128
-0.00324547
0.000332892
-0.00323
0.000311666
-0.0032056
0.000288055
-0.00317816
0.000263009
-0.00315068
0.000237055
-0.00312453
0.000210473
-0.00310033
0.000183424
-0.00307845
0.000156023
-0.00305911
0.000128368
-0.00304248
0.000100542
-0.00302855
-0.00301732
7.25903e-05
3.37633e-05
-0.000537055
0.000100182
-0.00142567
0.000171878
-0.00211944
0.000231338
-0.00261406
0.000270855
-0.00293244
0.00028987
-0.00311427
0.000291661
-0.00320173
0.000280726
-0.00323038
0.00026124
-0.00322598
0.000236417
-0.00320518
0.00020844
-0.00317762
0.000178658
-0.00314838
0.000147834
-0.00311986
0.000116368
-0.00309306
8.44545e-05
-0.00306842
5.21981e-05
-0.00304619
1.96771e-05
-0.00302659
-1.30274e-05
-0.00300978
-4.58312e-05
-0.00299575
-0.00298447
-7.86769e-05
3.16093e-05
-0.000568664
9.11058e-05
-0.00148516
0.000151953
-0.00218028
0.000198403
-0.00266051
0.000224533
-0.00295857
0.000231023
-0.00312076
0.000221736
-0.00319245
0.000201245
-0.00320989
0.000173516
-0.00319825
0.000141451
-0.00317311
0.000106945
-0.00314311
7.112e-05
-0.00311256
3.45878e-05
-0.00308332
-2.35331e-06
-0.00305612
-3.95751e-05
-0.0030312
-7.70232e-05
-0.00300874
-0.000114653
-0.00298896
-0.000152397
-0.00297203
-0.000190166
-0.00295798
-0.00294676
-0.000227883
2.90616e-05
-0.000597726
8.10529e-05
-0.00153715
0.000130728
-0.00222996
0.000164265
-0.00269404
0.000177453
-0.00297175
0.000172041
-0.00311535
0.000152314
-0.00317272
0.000122815
-0.00318039
8.72517e-05
-0.00316269
4.82182e-05
-0.00313408
7.34226e-06
-0.00310224
-3.44428e-05
-0.00307077
-7.66478e-05
-0.00304112
-0.00011905
-0.00301372
-0.000161574
-0.00298867
-0.000204208
-0.00296611
-0.000246942
-0.00294623
-0.000289725
-0.00292925
-0.000332452
-0.00291525
-0.00290418
-0.000375025
2.61599e-05
-0.000623885
7.01811e-05
-0.00158117
0.000108504
-0.00226828
0.000129335
-0.00271487
0.000130071
-0.00297249
0.000113367
-0.00309865
8.37846e-05
-0.00314314
4.5753e-05
-0.00314235
2.69479e-06
-0.00311963
-4.30948e-05
-0.00308829
-9.02271e-05
-0.0030551
-0.000137927
-0.00302307
-0.0001858
-0.00299325
-0.000233674
-0.00296584
-0.000281514
-0.00294083
-0.000329346
-0.00291828
-0.000377196
-0.00289838
-0.000425035
-0.00288141
-0.000472744
-0.00286754
-0.00285674
-0.000520184
2.2948e-05
-0.000646833
5.86488e-05
-0.00161687
8.55674e-05
-0.0022952
9.39852e-05
-0.00272329
8.27904e-05
-0.0029613
5.5381e-05
-0.00307124
1.64772e-05
-0.00310423
-2.96707e-05
-0.00309621
-7.99389e-05
-0.00306936
-0.000132317
-0.00303591
-0.000185628
-0.00300179
-0.000239229
-0.00296947
-0.000292792
-0.00293968
-0.000346179
-0.00291245
-0.000399375
-0.00288764
-0.00045244
-0.00286521
-0.000505443
-0.00284537
-0.000558386
-0.00282847
-0.000611139
-0.00281479
-0.00280438
-0.000663505
1.94727e-05
-0.000666306
4.6612e-05
-0.00164401
6.21846e-05
-0.00231077
5.85529e-05
-0.00271966
3.59636e-05
-0.00293871
-1.58668e-06
-0.00303369
-4.93216e-05
-0.0030565
-0.000103216
-0.00304231
-0.000160448
-0.00301213
-0.000219276
-0.00297708
-0.000278712
-0.00294236
-0.000338222
-0.00290996
-0.000397528
-0.00288038
-0.000456501
-0.00285348
-0.00051513
-0.00282901
-0.000573494
-0.00280685
-0.000631711
-0.00278716
-0.00068983
-0.00277035
-0.000747722
-0.0027569
-0.00274701
-0.000805095
1.5783e-05
-0.000682089
3.42217e-05
-0.00166245
3.86031e-05
-0.00231515
2.33396e-05
-0.0027044
-1.00984e-05
-0.00290527
-5.72468e-05
-0.00298654
-0.000113357
-0.00300039
-0.000174659
-0.00298101
-0.000238632
-0.00294816
-0.000303786
-0.00291193
-0.000369303
-0.00287684
-0.000434746
-0.00284452
-0.000499873
-0.00281525
-0.000564547
-0.00278881
-0.000628736
-0.00276482
-0.000692514
-0.00274307
-0.000756038
-0.00272363
-0.000819423
-0.00270696
-0.000882552
-0.00269377
-0.00268456
-0.000944997
1.19285e-05
-0.000694018
2.16224e-05
-0.00167215
1.50498e-05
-0.00230858
-1.13848e-05
-0.00267796
-5.51207e-05
-0.00286153
-0.000111343
-0.00293032
-0.000175394
-0.00293634
-0.000243783
-0.00291262
-0.00031428
-0.00287766
-0.000385629
-0.00284058
-0.000457174
-0.0028053
-0.000528572
-0.00277312
-0.000599612
-0.00274421
-0.000670148
-0.00271827
-0.000740101
-0.00269487
-0.000809501
-0.00267367
-0.000878515
-0.00265462
-0.000947332
-0.00263815
-0.00101587
-0.00262523
-0.00261684
-0.00108359
7.95839e-06
-0.000701976
8.94957e-06
-0.00167314
-8.2695e-06
-0.00229136
-4.53807e-05
-0.00264085
-9.88615e-05
-0.00280805
-0.000163645
-0.00286553
-0.000235218
-0.00286476
-0.000310373
-0.00283747
-0.000387164
-0.00280087
-0.000464554
-0.00276319
-0.000542042
-0.00272781
-0.000619383
-0.00269578
-0.000696419
-0.00266718
-0.000773003
-0.00264169
-0.000849005
-0.00261887
-0.000924383
-0.00259829
-0.000999278
-0.00257973
-0.00107397
-0.00256346
-0.00114844
-0.00255076
-0.00254295
-0.00122234
3.92086e-06
-0.000705897
-3.67103e-06
-0.00166555
-3.11702e-05
-0.00226386
-7.84379e-05
-0.00259358
-0.000141109
-0.00274538
-0.00021395
-0.00279269
-0.000292626
-0.00278609
-0.000374215
-0.00275588
-0.00045704
-0.00271804
-0.000540272
-0.00267996
-0.00062356
-0.00264452
-0.000706775
-0.00261256
-0.00078984
-0.00258411
-0.000872654
-0.00255887
-0.000955067
-0.00253645
-0.00103697
-0.00251639
-0.00111844
-0.00249825
-0.00119988
-0.00248202
-0.0012815
-0.00246914
-0.00246059
-0.00136386
-1.38493e-07
-0.000705758
-1.61258e-05
-0.00164956
-5.3491e-05
-0.0022265
-0.000110376
-0.0025367
-0.000181683
-0.00267407
-0.000262079
-0.0027123
-0.000347431
-0.00270074
-0.000435095
-0.00266821
-0.000523644
-0.00262949
-0.00061244
-0.00259116
-0.000701286
-0.00255567
-0.000790186
-0.00252366
-0.000879206
-0.00249509
-0.000968373
-0.00246971
-0.00105763
-0.00244719
-0.00114688
-0.00242715
-0.0012361
-0.00240902
-0.00132565
-0.00239247
-0.00141609
-0.00237871
-0.00236655
-0.00151013
-4.17759e-06
-0.000701581
-2.83146e-05
-0.00162542
-7.50948e-05
-0.00217972
-0.000141047
-0.00247075
-0.000220439
-0.00259468
-0.00030789
-0.00262484
-0.000399478
-0.00260915
-0.000492822
-0.00257487
-0.000586712
-0.0025356
-0.000680678
-0.0024972
-0.000774652
-0.0024617
-0.000868776
-0.00242954
-0.000963296
-0.00240057
-0.0010585
-0.0023745
-0.00115465
-0.00235103
-0.00125197
-0.00232984
-0.00135055
-0.00231044
-0.00145096
-0.00229206
-0.00155542
-0.00227425
-0.00226824
-0.00165373
-8.14681e-06
-0.000693434
-4.01329e-05
-0.00159344
-9.58478e-05
-0.002124
-0.000170314
-0.00239628
-0.000257249
-0.00250775
-0.000351265
-0.00253083
-0.000448649
-0.00251176
-0.000547256
-0.00247626
-0.000646058
-0.0024368
-0.000744698
-0.00239856
-0.000843177
-0.00236322
-0.000941687
-0.00233103
-0.00104055
-0.00230171
-0.00114021
-0.00227484
-0.00124129
-0.00224996
-0.00134461
-0.00222652
-0.00145103
-0.00220401
-0.00156097
-0.00218212
-0.00167538
-0.00215985
-0.00213024
-0.00181338
-1.20348e-05
-0.000681399
-5.15472e-05
-0.00155392
-0.000115708
-0.00205984
-0.000198142
-0.00231385
-0.000292093
-0.0024138
-0.000392198
-0.00243072
-0.000494951
-0.00240901
-0.000598416
-0.0023728
-0.000701714
-0.0023335
-0.000804564
-0.00229571
-0.000906973
-0.00226081
-0.00100908
-0.00222893
-0.00111106
-0.00219973
-0.00121313
-0.00217277
-0.00131554
-0.00214755
-0.00141847
-0.00212358
-0.00152201
-0.00210048
-0.00162636
-0.00207776
-0.00173224
-0.00205397
-0.00202566
-0.00183681
-1.58026e-05
-0.000665597
-6.24835e-05
-0.00150724
-0.00013459
-0.00198773
-0.000224455
-0.00222398
-0.000324918
-0.00231333
-0.000430663
-0.00232498
-0.000538382
-0.00230129
-0.000646331
-0.00226485
-0.00075376
-0.00222608
-0.000860454
-0.00218901
-0.000966444
-0.00215482
-0.00107185
-0.00212352
-0.00117681
-0.00209477
-0.00128147
-0.00206812
-0.0013859
-0.00204312
-0.00149011
-0.00201937
-0.00159409
-0.0019965
-0.00169777
-0.00197408
-0.00180048
-0.00195127
-0.00192725
-0.0018989
-1.94281e-05
-0.000646169
-7.29001e-05
-0.00145377
-0.000152453
-0.00190818
-0.000249229
-0.0021272
-0.000355723
-0.00220684
-0.000466684
-0.00221402
-0.000578995
-0.00218898
-0.000691081
-0.00215276
-0.000802302
-0.00211485
-0.000912488
-0.00207883
-0.00102167
-0.00204564
-0.00112995
-0.00201524
-0.00123742
-0.0019873
-0.00134414
-0.0019614
-0.00145011
-0.00193715
-0.00155525
-0.00191422
-0.00165944
-0.00189232
-0.00176238
-0.00187113
-0.00186343
-0.00185022
-0.00182915
-0.00196152
-2.28933e-05
-0.000623275
-8.27663e-05
-0.0013939
-0.000169271
-0.00182168
-0.000272457
-0.00202402
-0.000384528
-0.00209477
-0.000500313
-0.00209823
-0.000616874
-0.00207242
-0.000732796
-0.00203684
-0.000847534
-0.00200012
-0.000960965
-0.0019654
-0.00107313
-0.00193347
-0.00118412
-0.00190426
-0.00129399
-0.00187742
-0.00140278
-0.00185261
-0.00151047
-0.00182946
-0.00161698
-0.00180771
-0.00172218
-0.00178712
-0.00182581
-0.0017675
-0.00192749
-0.00174854
-0.00173002
-0.00202662
-2.6184e-05
-0.000597091
-9.20606e-05
-0.00132802
-0.00018503
-0.00172871
-0.000294146
-0.0019149
-0.000411365
-0.00197755
-0.000531607
-0.00197799
-0.000652106
-0.00195192
-0.000771589
-0.00191736
-0.000889601
-0.0018821
-0.00100606
-0.00184894
-0.00112103
-0.0018185
-0.00123459
-0.0017907
-0.0013468
-0.00176521
-0.0014577
-0.00174171
-0.00156727
-0.0017199
-0.00167545
-0.00169953
-0.00178213
-0.00168043
-0.00188718
-0.00166245
-0.00199039
-0.00164534
-0.00162893
-0.00209148
-2.92893e-05
-0.000567802
-0.000100768
-0.00125654
-0.000199726
-0.00162975
-0.000314312
-0.00180032
-0.000436275
-0.00185559
-0.00056063
-0.00185363
-0.000684775
-0.00182777
-0.000807572
-0.00179456
-0.000928645
-0.00176103
-0.00104796
-0.00172962
-0.00116558
-0.00170088
-0.00128162
-0.00167466
-0.00139614
-0.00165069
-0.00150919
-0.00162866
-0.00162077
-0.00160831
-0.00173087
-0.00158943
-0.00183942
-0.00157188
-0.00194638
-0.0015555
-0.00205164
-0.00154007
-0.00152551
-0.00215506
-3.22004e-05
-0.000535602
-0.00010888
-0.00117986
-0.000213361
-0.00152527
-0.000332973
-0.0016807
-0.000459294
-0.00172927
-0.000587439
-0.00172549
-0.00071496
-0.00170025
-0.000840839
-0.00166868
-0.000964776
-0.00163709
-0.00108678
-0.00160763
-0.00120693
-0.00158072
-0.00132537
-0.00155623
-0.00144216
-0.0015339
-0.00155738
-0.00151344
-0.00167106
-0.00149463
-0.00178321
-0.00147728
-0.00189383
-0.00146125
-0.00200292
-0.00144641
-0.00211046
-0.00143254
-0.00141961
-0.00221636
-3.49105e-05
-0.000500691
-0.000116389
-0.00109838
-0.000225939
-0.00141572
-0.00035015
-0.00155649
-0.000480461
-0.00159896
-0.000612086
-0.00159386
-0.000742721
-0.00156962
-0.000871461
-0.00153994
-0.000998074
-0.00151048
-0.0011226
-0.0014831
-0.00124517
-0.00145815
-0.0013659
-0.0014355
-0.00148491
-0.00141489
-0.00160228
-0.00139607
-0.00171808
-0.00137884
-0.00183234
-0.00136302
-0.00194511
-0.00134848
-0.00205642
-0.0013351
-0.00216629
-0.00132268
-0.0013112
-0.00227469
-3.7414e-05
-0.000463277
-0.000123291
-0.00101251
-0.000237463
-0.00130155
-0.00036586
-0.0014281
-0.000499805
-0.00146501
-0.000634611
-0.00145906
-0.000768108
-0.00143612
-0.000899491
-0.00140856
-0.00102859
-0.00138138
-0.00115548
-0.0013562
-0.00128032
-0.00133331
-0.00140325
-0.00131257
-0.00152439
-0.00129374
-0.00164386
-0.0012766
-0.00176174
-0.00126096
-0.0018781
-0.00124666
-0.001993
-0.00123358
-0.00210651
-0.00122159
-0.00221867
-0.00121051
-0.00120037
-0.0023295
-3.9706e-05
-0.000423571
-0.000129581
-0.000922631
-0.000247939
-0.00118319
-0.000380119
-0.00129591
-0.000517353
-0.00132778
-0.000655048
-0.00132136
-0.000791156
-0.00130001
-0.000924964
-0.00127475
-0.00105636
-0.00124999
-0.00118545
-0.00122711
-0.00131241
-0.00120636
-0.0014374
-0.00118758
-0.00156056
-0.00117058
-0.00168203
-0.00115513
-0.00180191
-0.00114108
-0.00192029
-0.00112828
-0.00203725
-0.00111662
-0.00215287
-0.00110596
-0.00226723
-0.00109616
-0.00108726
-0.00238034
-4.17822e-05
-0.000381789
-0.000135257
-0.000829156
-0.000257369
-0.00106108
-0.000392939
-0.00116034
-0.000533122
-0.00118759
-0.000673419
-0.00118107
-0.000811889
-0.00116154
-0.000947901
-0.00113874
-0.00108139
-0.0011165
-0.0012125
-0.00109601
-0.00134141
-0.00107744
-0.00146831
-0.00106068
-0.00159337
-0.00104552
-0.00171671
-0.00103179
-0.00183847
-0.00101932
-0.00195874
-0.001008
-0.00207764
-0.000997719
-0.00219525
-0.000988356
-0.00231164
-0.000979766
-0.000972014
-0.00242689
-4.36388e-05
-0.00033815
-0.000140316
-0.000732479
-0.000265755
-0.000935639
-0.000404327
-0.00102177
-0.000547128
-0.00104479
-0.000689738
-0.00103846
-0.00083032
-0.00102096
-0.000968309
-0.00100075
-0.00110369
-0.000981119
-0.00123662
-0.000963073
-0.00136731
-0.000946751
-0.00149596
-0.000932032
-0.00162274
-0.000918745
-0.0017478
-0.000906727
-0.00187129
-0.000895842
-0.00199331
-0.000885979
-0.00211398
-0.000877045
-0.00223341
-0.000868929
-0.00235167
-0.000861505
-0.000854843
-0.00246884
-4.52721e-05
-0.000292878
-0.000144752
-0.000632999
-0.000273099
-0.000807293
-0.00041429
-0.000880581
-0.000559377
-0.000899707
-0.000704017
-0.000893816
-0.000846455
-0.000878524
-0.000986192
-0.000861014
-0.00112324
-0.000844068
-0.0012578
-0.000828518
-0.00139008
-0.000814473
-0.00152029
-0.000801822
-0.00164861
-0.000790417
-0.00177522
-0.000780118
-0.00190026
-0.000770806
-0.00202385
-0.000762386
-0.00214612
-0.000754774
-0.00226718
-0.000747874
-0.0023871
-0.000741576
-0.000735954
-0.00250599
-4.6679e-05
-0.000246199
-0.000148564
-0.000531114
-0.000279398
-0.000676459
-0.000422831
-0.000737148
-0.000569876
-0.000752662
-0.000716258
-0.000747434
-0.000860296
-0.000734486
-0.00100154
-0.000719767
-0.00114004
-0.000705565
-0.00127601
-0.000692553
-0.00140967
-0.000680813
-0.00154124
-0.00067025
-0.00167092
-0.000660737
-0.00179888
-0.000652157
-0.00192528
-0.000644411
-0.00205025
-0.000637418
-0.00217391
-0.000631108
-0.00229639
-0.000625397
-0.00241777
-0.000620194
-0.000615572
-0.00253815
-4.78563e-05
-0.000198343
-0.000151747
-0.000427224
-0.000284652
-0.000543554
-0.00042995
-0.00059185
-0.000578627
-0.000603984
-0.000726464
-0.000599598
-0.000871841
-0.000589108
-0.00101435
-0.000577254
-0.00115408
-0.000565843
-0.00129123
-0.000555401
-0.00142606
-0.000545988
-0.00155878
-0.000537525
-0.00168961
-0.00052991
-0.00181871
-0.00052305
-0.00194626
-0.000516864
-0.00207239
-0.000511286
-0.00219724
-0.000506261
-0.00232092
-0.000501718
-0.00244353
-0.000497586
-0.000493929
-0.00256517
-4.88015e-05
-0.000149541
-0.000154298
-0.000321728
-0.000288859
-0.000408993
-0.000435647
-0.000445062
-0.000585629
-0.000454002
-0.000734632
-0.000450595
-0.000881086
-0.000442655
-0.00102462
-0.000433721
-0.00116533
-0.000425136
-0.00130344
-0.000417288
-0.00143921
-0.000410219
-0.00157286
-0.000403867
-0.00170462
-0.000398156
-0.00183465
-0.000393015
-0.00196314
-0.000388383
-0.00209021
-0.000384211
-0.00221602
-0.000380456
-0.00234067
-0.000377065
-0.00246427
-0.000373985
-0.000371269
-0.00258693
-4.95125e-05
-0.000100029
-0.000156214
-0.000215026
-0.000292016
-0.000273191
-0.000439921
-0.000297157
-0.000590883
-0.00030304
-0.000740762
-0.000300716
-0.000888025
-0.000295392
-0.00103233
-0.000289419
-0.00117378
-0.000283687
-0.00131261
-0.000278451
-0.00144909
-0.000273737
-0.00158346
-0.000269503
-0.00171592
-0.000265699
-0.00184665
-0.000262275
-0.00197584
-0.000259194
-0.00210363
-0.00025642
-0.00223016
-0.000253926
-0.00235555
-0.000251676
-0.00247991
-0.000249634
-0.000247837
-0.00260334
-4.99874e-05
-5.00414e-05
-0.000157493
-0.000107521
-0.000294122
-0.000136561
-0.000442772
-0.000148507
-0.000594386
-0.000151425
-0.00074485
-0.000150252
-0.000892654
-0.000147587
-0.00103747
-0.000144603
-0.00117942
-0.000141741
-0.00131874
-0.000139128
-0.0014557
-0.000136777
-0.00159054
-0.000134666
-0.00172347
-0.000132769
-0.00185468
-0.000131064
-0.00198434
-0.00012953
-0.00211261
-0.00012815
-0.00223963
-0.000126909
-0.00236551
-0.000125791
-0.00249037
-0.000124777
-0.000123887
-0.00261432
-5.0225e-05
1.83648e-07
-0.000158132
3.86364e-07
-0.000295176
4.81725e-07
-0.000444198
5.14757e-07
-0.000596139
5.16332e-07
-0.000746896
5.04426e-07
-0.000894971
4.87972e-07
-0.00104004
4.70747e-07
-0.00118224
4.5408e-07
-0.00132181
4.3833e-07
-0.00145901
4.23532e-07
-0.00159408
4.09634e-07
-0.00172725
3.9657e-07
-0.0018587
3.84279e-07
-0.0019886
3.72704e-07
-0.00211711
3.61798e-07
-0.00224437
3.51517e-07
-0.0023705
3.41805e-07
-0.00249561
3.32585e-07
3.23871e-07
-0.00261983
-5.02251e-05
5.04088e-05
-0.000158133
0.000108294
-0.000295176
0.000137525
-0.000444199
0.000149537
-0.000596141
0.000152458
-0.000746897
0.000151261
-0.000894973
0.000148564
-0.00104005
0.000145545
-0.00118224
0.00014265
-0.00132181
0.000140005
-0.00145901
0.000137624
-0.00159409
0.000135485
-0.00172725
0.000133563
-0.0018587
0.000131833
-0.0019886
0.000130275
-0.00211712
0.000128874
-0.00224438
0.000127613
-0.00237051
0.000126475
-0.00249562
0.000125443
0.000124535
-0.00261983
-4.99876e-05
0.000100396
-0.000157494
0.0002158
-0.000294124
0.000274156
-0.000442775
0.000298188
-0.000594391
0.000304074
-0.000744856
0.000301726
-0.000892661
0.000296369
-0.00103748
0.000290362
-0.00117942
0.000284597
-0.00131875
0.000279329
-0.00145571
0.000274585
-0.00159055
0.000270323
-0.00172348
0.000266493
-0.00185469
0.000263045
-0.00198435
0.00025994
-0.00211263
0.000257145
-0.00223964
0.00025463
-0.00236553
0.00025236
-0.00249038
0.0002503
0.000248485
-0.00261433
-4.95129e-05
0.000149909
-0.000156216
0.000322503
-0.000292019
0.000409959
-0.000439927
0.000446095
-0.00059089
0.000455038
-0.000740771
0.000451607
-0.000888036
0.000443634
-0.00103234
0.000434665
-0.00117379
0.000426047
-0.00131263
0.000418168
-0.00144911
0.000411068
-0.00158348
0.000404689
-0.00171594
0.000398951
-0.00184668
0.000393785
-0.00197587
0.00038913
-0.00210366
0.000384936
-0.00223019
0.00038116
-0.00235558
0.00037775
-0.00247993
0.000374652
0.000371918
-0.00260336
-4.88022e-05
0.000198712
-0.0001543
0.000428001
-0.000288863
0.000544523
-0.000435654
0.000592886
-0.00058564
0.000605023
-0.000734645
0.000600612
-0.000881101
0.00059009
-0.00102464
0.000578201
-0.00116535
0.000566756
-0.00130346
0.000556282
-0.00143923
0.000546839
-0.00157289
0.000538348
-0.00170465
0.000530708
-0.00183468
0.000523823
-0.00196317
0.000517613
-0.00209024
0.000512013
-0.00221605
0.000506967
-0.0023407
0.000502404
-0.00246431
0.000498254
0.000494579
-0.00258697
-4.78571e-05
0.000246569
-0.00015175
0.000531893
-0.000284658
0.000677431
-0.000429959
0.000738187
-0.00057864
0.000753704
-0.00072648
0.000748452
-0.000871861
0.00073547
-0.00101438
0.000720717
-0.0011541
0.000706481
-0.00129126
0.000693438
-0.00142609
0.000681667
-0.00155881
0.000671076
-0.00168964
0.000661536
-0.00181875
0.000652932
-0.0019463
0.000645162
-0.00207244
0.000638147
-0.00219728
0.000631816
-0.00232097
0.000626085
-0.00244358
0.000620864
0.000616223
-0.00256522
-4.66799e-05
0.000293249
-0.000148568
0.000633781
-0.000279406
0.000808269
-0.000422843
0.000881624
-0.000569892
0.000900754
-0.000716278
0.000894838
-0.00086032
0.000879512
-0.00100157
0.000861967
-0.00114008
0.000844987
-0.00127604
0.000829405
-0.00140971
0.00081533
-0.00154128
0.000802651
-0.00167097
0.00079122
-0.00179893
0.000780896
-0.00192533
0.00077156
-0.0020503
0.000763117
-0.00217397
0.000755485
-0.00229644
0.000748564
-0.00241783
0.000742247
0.000736607
-0.00253821
-4.52732e-05
0.000338522
-0.000144757
0.000733264
-0.000273107
0.00093662
-0.000414304
0.00102282
-0.000559396
0.00104585
-0.000704041
0.00103948
-0.000846483
0.00102195
-0.000986224
0.00100171
-0.00112328
0.000982043
-0.00125784
0.000963964
-0.00139012
0.000947612
-0.00152033
0.000932865
-0.00164867
0.000919551
-0.00177528
0.000907508
-0.00190032
0.000896599
-0.00202391
0.000886713
-0.00214618
0.000877758
-0.00226724
0.000869622
-0.00238717
0.000862178
0.000855498
-0.00250606
-4.364e-05
0.000382162
-0.00014032
0.000829945
-0.000265765
0.00106207
-0.000404343
0.0011614
-0.000547149
0.00118865
-0.000689766
0.0011821
-0.000830352
0.00116254
-0.000968347
0.0011397
-0.00110373
0.00111743
-0.00123667
0.0010969
-0.00136736
0.00107831
-0.00149602
0.00106152
-0.0016228
0.00104633
-0.00174787
0.00103258
-0.00187135
0.00102009
-0.00199338
0.00100874
-0.00211406
0.000998435
-0.00223349
0.000989051
-0.00235175
0.000980442
0.000972671
-0.00246893
-4.17835e-05
0.000423945
-0.000135263
0.000923424
-0.00025738
0.00118418
-0.000392957
0.00129698
-0.000533147
0.00132884
-0.000673449
0.0013224
-0.000811926
0.00130102
-0.000947943
0.00127572
-0.00108144
0.00125092
-0.00121255
0.00122801
-0.00134147
0.00120723
-0.00146838
0.00118842
-0.00159344
0.00117139
-0.00171678
0.00115592
-0.00183854
0.00114185
-0.00195882
0.00112902
-0.00207772
0.00111734
-0.00219534
0.00110666
-0.00231173
0.00109684
0.00108792
-0.00242698
-3.97073e-05
0.000463653
-0.000129587
0.0010133
-0.000247951
0.00130255
-0.000380139
0.00142916
-0.00051738
0.00146608
-0.000655082
0.0014601
-0.000791197
0.00143713
-0.000925012
0.00140953
-0.00105641
0.00138232
-0.00118551
0.00135711
-0.00131247
0.00133419
-0.00143747
0.00131342
-0.00156064
0.00129456
-0.00168211
0.0012774
-0.00180199
0.00126173
-0.00192038
0.0012474
-0.00203734
0.0012343
-0.00215297
0.00122229
-0.00226733
0.0012112
0.00120104
-0.00238045
-3.74154e-05
0.000501068
-0.000123297
0.00109919
-0.000237476
0.00141673
-0.000365882
0.00155757
-0.000499835
0.00160004
-0.000634649
0.00159492
-0.000768154
0.00157064
-0.000899543
0.00154092
-0.00102865
0.00151143
-0.00115555
0.00148401
-0.00128039
0.00145903
-0.00140332
0.00143635
-0.00152447
0.00141571
-0.00164395
0.00139687
-0.00176183
0.00137961
-0.0018782
0.00136377
-0.00199311
0.00134921
-0.00210662
0.00133581
-0.00221879
0.00132336
0.00131187
-0.00232962
-3.4912e-05
0.00053598
-0.000116396
0.00118067
-0.000225953
0.00152628
-0.000350173
0.00168179
-0.000480493
0.00173036
-0.000612127
0.00172655
-0.00074277
0.00170128
-0.000871518
0.00166967
-0.000998138
0.00163805
-0.00112267
0.00160855
-0.00124525
0.00158161
-0.00136599
0.00155709
-0.001485
0.00153473
-0.00160238
0.00151425
-0.00171818
0.00149541
-0.00183246
0.00147804
-0.00194523
0.00146199
-0.00205654
0.00144712
-0.00216642
0.00143323
0.00142028
-0.00227482
-3.22018e-05
0.000568182
-0.000108887
0.00125735
-0.000213376
0.00163077
-0.000332998
0.00180141
-0.000459329
0.00185669
-0.000587483
0.00185471
-0.000715013
0.00182881
-0.000840901
0.00179556
-0.000964846
0.00176199
-0.00108685
0.00173055
-0.00120702
0.00170177
-0.00132546
0.00167553
-0.00144226
0.00165153
-0.00155749
0.00162947
-0.00167117
0.0016091
-0.00178333
0.0015902
-0.00189396
0.00157262
-0.00200306
0.00155622
-0.00211059
0.00154077
0.00152619
-0.00221651
-2.92906e-05
0.000597472
-0.000100775
0.00132884
-0.000199742
0.00172974
-0.000314338
0.00191601
-0.000436311
0.00197866
-0.000560677
0.00197907
-0.000684832
0.00195297
-0.000807639
0.00191837
-0.000928721
0.00188308
-0.00104804
0.00184987
-0.00116568
0.00181941
-0.00128172
0.00179157
-0.00139625
0.00176606
-0.0015093
0.00174253
-0.0016209
0.00172069
-0.001731
0.0017003
-0.00183956
0.00168118
-0.00194652
0.00166318
-0.00205179
0.00164604
0.00162961
-0.00215521
-2.61851e-05
0.000623657
-9.20674e-05
0.00139472
-0.000185046
0.00182272
-0.000294174
0.00202513
-0.000411404
0.00209589
-0.000531657
0.00209932
-0.000652166
0.00207347
-0.000771659
0.00203786
-0.000889681
0.0020011
-0.00100615
0.00196634
-0.00112113
0.00193439
-0.0012347
0.00190514
-0.00134692
0.00187828
-0.00145783
0.00185344
-0.0015674
0.00183027
-0.00167559
0.00180849
-0.00178228
0.00178788
-0.00188734
0.00176823
-0.00199055
0.00174925
0.00173071
-0.00209165
-2.28941e-05
0.000646552
-8.27729e-05
0.0014546
-0.000169287
0.00190923
-0.000272485
0.00212833
-0.000384568
0.00220797
-0.000500365
0.00221512
-0.000616938
0.00219005
-0.000732871
0.00215379
-0.000847619
0.00211585
-0.000961061
0.00207979
-0.00107324
0.00204656
-0.00118423
0.00201614
-0.00129411
0.00198816
-0.00140292
0.00196224
-0.00151061
0.00193797
-0.00161714
0.00191501
-0.00172234
0.00189308
-0.00182598
0.00187187
-0.00192767
0.00185093
0.00182985
-0.00202681
-1.94286e-05
0.00066598
-7.29063e-05
0.00150808
-0.000152469
0.00198879
-0.000249258
0.00222512
-0.000355764
0.00231448
-0.000466739
0.0023261
-0.000579061
0.00230237
-0.00069116
0.00226589
-0.000802391
0.00222708
-0.000912589
0.00218998
-0.00102178
0.00215576
-0.00113008
0.00212443
-0.00123755
0.00209564
-0.00134428
0.00206897
-0.00145026
0.00204395
-0.00155542
0.00202017
-0.00165961
0.00199727
-0.00176256
0.00197483
-0.00186362
0.00195199
0.00192795
-0.00196172
-1.58027e-05
0.000681783
-6.24891e-05
0.00155476
-0.000134606
0.00206091
-0.000224484
0.002315
-0.00032496
0.00241496
-0.000430719
0.00243185
-0.000538451
0.0024101
-0.000646412
0.00237385
-0.000753854
0.00233452
-0.00086056
0.00229669
-0.00096656
0.00226176
-0.00107198
0.00222984
-0.00117696
0.00220062
-0.00128162
0.00217363
-0.00138606
0.00214839
-0.00149029
0.00212439
-0.00159428
0.00210126
-0.00169797
0.00207852
-0.00180069
0.00205471
0.00202637
-0.00189912
-1.20344e-05
0.000693817
-5.15518e-05
0.00159428
-0.000115723
0.00212508
-0.00019817
0.00239745
-0.000292136
0.00250892
-0.000392256
0.00253197
-0.000495022
0.00251287
-0.0005985
0.00247733
-0.000701811
0.00243783
-0.000804673
0.00239955
-0.000907094
0.00236418
-0.00100921
0.00233196
-0.0011112
0.00230261
-0.00121329
0.00227572
-0.00131571
0.0022508
-0.00141866
0.00222734
-0.0015222
0.00220481
-0.00162657
0.00218289
-0.00173246
0.0021606
0.00213096
-0.00183704
-8.14589e-06
0.000701963
-4.01364e-05
0.00162627
-9.58616e-05
0.00218081
-0.000170342
0.00247193
-0.000257292
0.00259587
-0.000351323
0.00262601
-0.000448721
0.00261027
-0.000547342
0.00257595
-0.000646157
0.00253665
-0.00074481
0.0024982
-0.000843302
0.00246267
-0.000941825
0.00243048
-0.0010407
0.00240149
-0.00114037
0.00237539
-0.00124147
0.0023519
-0.0013448
0.00233068
-0.00145125
0.00231125
-0.00156121
0.00229285
-0.00167563
0.00227502
0.002269
-0.00181367
-4.17598e-06
0.000706139
-2.83167e-05
0.00165041
-7.5107e-05
0.0022276
-0.000141074
0.00253789
-0.000220481
0.00267528
-0.000307948
0.00271347
-0.000399551
0.00270187
-0.000492909
0.00266931
-0.000586813
0.00263055
-0.000680792
0.00259218
-0.00077478
0.00255666
-0.000868918
0.00252462
-0.000963453
0.00249602
-0.00105867
0.00247061
-0.00115484
0.00244807