/*--------------------------------*- C++ -*----------------------------------*\
  =========                 |
  \\      /  F ield         | OpenFOAM: The Open Source CFD Toolbox
   \\    /   O peration     | Website:  https://openfoam.org
    \\  /    A nd           | Version:  6.0
     \\/     M anipulation  |
\*---------------------------------------------------------------------------*/
FoamFile
{
    version     2.0;
    format      ascii;
    class       volVectorField;
    location    "39";
    object      U;
}
// * * * * * * * * * * * * * * * * * * * * * * * * * * * * * * * * * * * * * //

dimensions      [0 1 -1 0 0 0 0];

internalField   nonuniform List<vector> 
4000
(
(0.0907708 0.00717995 5.53016e-20)
(0.290642 0.0378221 -3.0027e-20)
(0.495753 0.0911455 3.53143e-20)
(0.689731 0.152579 -2.62575e-20)
(0.859047 0.212413 -1.1751e-20)
(0.996022 0.264588 3.55316e-21)
(1.09915 0.305933 -1.15108e-20)
(1.17149 0.335828 4.13582e-20)
(1.21858 0.355377 -3.438e-20)
(1.24655 0.366512 8.05792e-21)
(1.26104 0.371333 -6.00728e-21)
(1.26664 0.371721 -3.89291e-20)
(1.26673 0.369179 3.77035e-20)
(1.2637 0.36481 1.43003e-20)
(1.2591 0.359376 -1.42258e-20)
(1.2539 0.353378 3.33035e-20)
(1.24871 0.347116 -5.15716e-22)
(1.24392 0.340799 -3.21804e-20)
(1.23976 0.33483 2.38045e-20)
(1.23646 0.329169 7.44876e-21)
(0.104539 0.0118816 -1.93764e-20)
(0.324525 0.0524339 5.61963e-20)
(0.541723 0.114682 6.48458e-20)
(0.739886 0.182295 -3.05416e-20)
(0.906647 0.244972 5.31407e-20)
(1.03646 0.297028 8.39234e-20)
(1.13019 0.336176 -4.6044e-21)
(1.19289 0.36277 -1.43163e-20)
(1.23132 0.378708 7.08259e-20)
(1.25226 0.386438 3.4458e-20)
(1.26144 0.388321 -6.19904e-21)
(1.26326 0.386312 5.11494e-20)
(1.26081 0.381876 -5.4626e-20)
(1.25613 0.376031 8.49833e-20)
(1.2505 0.369446 -1.41543e-20)
(1.2447 0.362537 4.03248e-20)
(1.23919 0.355541 7.18603e-21)
(1.23425 0.348633 2.87067e-20)
(1.23004 0.342209 -2.73418e-20)
(1.22674 0.336095 6.51588e-21)
(0.118566 0.0176561 -3.01438e-20)
(0.35791 0.0693975 7.17691e-20)
(0.585521 0.140811 5.32406e-20)
(0.785886 0.214092 -8.03846e-21)
(0.948432 0.278745 8.26214e-20)
(1.07014 0.329813 -6.15099e-20)
(1.15431 0.366113 -4.69844e-21)
(1.20781 0.389037 5.42419e-20)
(1.23844 0.401241 1.72345e-20)
(1.25333 0.405614 2.3979e-20)
(1.25816 0.404694 -3.53281e-20)
(1.25702 0.400446 9.17502e-20)
(1.25267 0.394262 1.69959e-20)
(1.24683 0.387056 -8.09194e-20)
(1.24054 0.379399 1.17651e-19)
(1.23438 0.37163 -1.38499e-19)
(1.22872 0.363929 -6.3218e-20)
(1.22376 0.356446 1.05634e-20)
(1.21958 0.34957 6.12523e-20)
(1.21634 0.342992 -1.14944e-19)
(0.132625 0.024518 -6.80944e-20)
(0.390219 0.0886134 -1.60463e-19)
(0.626415 0.169256 -1.38554e-19)
(0.827095 0.247566 -1.88441e-19)
(0.984051 0.313307 -1.06676e-19)
(1.09705 0.36259 -2.20902e-19)
(1.17181 0.395501 2.80638e-20)
(1.21677 0.414496 -1.16716e-19)
(1.24052 0.422928 -1.27636e-20)
(1.25033 0.424037 1.91373e-20)
(1.25167 0.420462 -4.18757e-20)
(1.24829 0.414129 5.20298e-20)
(1.24259 0.406323 9.24045e-20)
(1.23599 0.397848 -1.29973e-19)
(1.22931 0.389181 2.06497e-20)
(1.223 0.380587 5.97806e-20)
(1.21733 0.372199 9.98008e-20)
(1.21244 0.36415 -8.60874e-20)
(1.20836 0.356821 -4.10319e-21)
(1.20526 0.349769 1.00413e-19)
(0.146474 0.0324524 -1.28485e-19)
(0.420884 0.109916 3.51892e-19)
(0.663753 0.199679 -6.20761e-20)
(0.863015 0.282285 8.20448e-20)
(1.01331 0.348238 -8.02725e-20)
(1.11732 0.395024 2.46098e-19)
(1.18305 0.42412 -3.89551e-20)
(1.22028 0.439026 2.32299e-20)
(1.23809 0.443713 -1.15369e-20)
(1.24373 0.441682 3.77906e-20)
(1.24237 0.435608 2.43585e-20)
(1.23737 0.42733 3.04915e-20)
(1.23078 0.418013 -8.6824e-20)
(1.22375 0.408345 1.26554e-19)
(1.21691 0.398713 -9.60348e-20)
(1.2106 0.389321 1.79555e-20)
(1.20504 0.380258 -6.11928e-20)
(1.20031 0.37165 1.28995e-20)
(1.1964 0.363866 1.44711e-20)
(1.19348 0.356331 -1.35823e-19)
(0.15987 0.0414141 9.38492e-21)
(0.449374 0.133079 -1.77255e-19)
(0.696979 0.231688 9.77615e-20)
(0.893284 0.317795 -3.40883e-19)
(1.03613 0.383123 1.64896e-19)
(1.13117 0.426802 -2.82305e-19)
(1.18845 0.451764 -2.19853e-19)
(1.2188 0.462507 -8.36804e-21)
(1.23161 0.463528 -7.42428e-20)
(1.23393 0.458505 -2.30066e-19)
(1.23057 0.450085 -2.85443e-20)
(1.22447 0.439991 -2.18926e-19)
(1.21737 0.429257 3.97494e-20)
(1.21018 0.418459 -3.12591e-20)
(1.20337 0.407901 1.82743e-20)
(1.19721 0.397731 -1.44595e-19)
(1.19185 0.388004 7.98871e-21)
(1.18736 0.378843 2.91083e-20)
(1.18368 0.370601 -6.62404e-20)
(1.18102 0.362582 5.79003e-20)
(0.17257 0.0513275 -7.29181e-20)
(0.475206 0.157822 3.2432e-19)
(0.725638 0.264855 2.27553e-21)
(0.917669 0.353631 -2.80385e-19)
(1.05258 0.417562 2.11251e-19)
(1.13887 0.457626 8.85026e-20)
(1.1884 0.478238 1.80094e-20)
(1.21279 0.484818 -1.48313e-19)
(1.22149 0.482292 2.4078e-19)
(1.22127 0.474436 -1.40112e-19)
(1.21651 0.463819 5.10673e-20)
(1.20977 0.452029 2.35362e-19)
(1.20248 0.439961 -2.10564e-19)
(1.19535 0.428087 2.30664e-19)
(1.18874 0.416636 -1.49413e-19)
(1.18284 0.405705 -2.93494e-20)
(1.17778 0.395327 3.5202e-20)
(1.17359 0.385621 4.38847e-20)
(1.17021 0.376922 6.01308e-20)
(1.16787 0.368422 3.63227e-20)
(0.184343 0.0620884 2.91446e-20)
(0.497957 0.183815 -2.91849e-19)
(0.749383 0.298721 5.18008e-20)
(0.936055 0.389329 6.76025e-19)
(1.06279 0.451168 -6.24243e-20)
(1.14075 0.487218 1.86424e-19)
(1.18332 0.503354 1.15994e-19)
(1.20265 0.505831 1.94134e-20)
(1.20809 0.499907 -1.33299e-19)
(1.20603 0.489384 2.18225e-19)
(1.20039 0.476716 -2.48491e-20)
(1.1934 0.463338 3.27125e-19)
(1.1862 0.450014 1.24868e-19)
(1.17933 0.437113 7.75169e-20)
(1.17306 0.424799 -1.61428e-19)
(1.16753 0.413128 3.39987e-20)
(1.16284 0.402112 1.24226e-19)
(1.15904 0.39187 3.1358e-20)
(1.15602 0.382719 -1.48982e-19)
(1.15405 0.373752 -3.695e-20)
(0.194976 0.0735656 -1.62399e-19)
(0.517272 0.210694 5.2304e-19)
(0.767973 0.33281 -2.84597e-19)
(0.94843 0.424434 -2.61421e-19)
(1.06696 0.483573 -2.27101e-19)
(1.13716 0.515309 -1.90795e-19)
(1.17361 0.526928 -2.34075e-19)
(1.18876 0.525414 2.92088e-19)
(1.19171 0.516264 -2.06949e-19)
(1.18842 0.503244 -1.64698e-20)
(1.18238 0.488663 -1.96567e-21)
(1.17547 0.4738 -3.91043e-20)
(1.16859 0.459289 -9.94847e-20)
(1.16216 0.445409 -1.09658e-19)
(1.15636 0.432264 -5.8533e-21)
(1.1513 0.419876 -2.42243e-20)
(1.14707 0.408239 -5.83784e-20)
(1.14371 0.397477 -1.74147e-20)
(1.14111 0.387881 2.04993e-20)
(1.13959 0.378469 -1.21912e-19)
(0.204275 0.0856044 2.84252e-19)
(0.532875 0.238066 2.93515e-19)
(0.781269 0.366644 -1.81994e-19)
(0.954875 0.4585 1.12137e-19)
(1.06536 0.514427 1.92621e-19)
(1.12846 0.541649 -3.90438e-20)
(1.15965 0.548781 4.73905e-20)
(1.17146 0.543428 5.21714e-20)
(1.17263 0.531238 8.64316e-20)
(1.16865 0.515892 -1.00468e-19)
(1.16261 0.499533 4.92919e-20)
(1.15607 0.483282 -3.26646e-20)
(1.14974 0.467653 1.47331e-19)
(1.1439 0.452842 6.21191e-20)
(1.13869 0.438902 -1.43874e-19)
(1.13419 0.425823 7.77272e-20)
(1.13051 0.413587 3.88625e-20)
(1.12765 0.402321 -6.81159e-20)
(1.12553 0.392295 1.85666e-19)
(1.12452 0.382471 -1.3517e-19)
(0.212077 0.0980302 -2.08978e-19)
(0.544563 0.265519 -2.70802e-19)
(0.789226 0.399744 1.88692e-19)
(0.95555 0.491101 -1.74205e-19)
(1.05831 0.543401 -1.65514e-20)
(1.11502 0.565997 -1.8791e-19)
(1.14181 0.568735 1.56734e-19)
(1.15105 0.559729 2.82864e-19)
(1.15108 0.544699 -3.92966e-19)
(1.1469 0.527196 2.0279e-20)
(1.1412 0.509189 1.48515e-20)
(1.13528 0.491645 -7.57515e-20)
(1.12969 0.474965 5.38686e-20)
(1.1246 0.459274 -2.15386e-20)
(1.12009 0.444577 1.38926e-19)
(1.11626 0.430837 -1.49586e-19)
(1.11319 0.418027 -4.88275e-20)
(1.11091 0.406279 1.30653e-19)
(1.10934 0.395841 -1.87055e-19)
(1.1089 0.385648 1.18231e-19)
(0.218247 0.110653 4.33111e-19)
(0.552212 0.292634 3.81852e-19)
(0.791887 0.431647 -6.43311e-20)
(0.950679 0.521837 -8.03442e-21)
(1.04615 0.570187 -1.9255e-19)
(1.09724 0.588131 8.20883e-20)
(1.12042 0.586621 3.93818e-19)
(1.12783 0.574174 -3.4459e-19)
(1.12728 0.556509 2.1284e-19)
(1.12332 0.537019 -1.79012e-20)
(1.11827 0.517491 1.26325e-19)
(1.1132 0.498745 -3.37798e-20)
(1.10851 0.481083 7.38633e-20)
(1.10431 0.464564 9.1137e-20)
(1.10064 0.449151 -5.38822e-20)
(1.09756 0.434785 5.95391e-20)
(1.09518 0.42143 -7.77679e-20)
(1.09354 0.409219 2.01038e-19)
(1.09259 0.398387 -1.19133e-19)
(1.0928 0.387875 8.49787e-20)
(0.222684 0.123271 -2.09618e-19)
(0.555775 0.318994 -3.90891e-19)
(0.789377 0.461906 -2.69635e-19)
(0.940545 0.550332 -1.82793e-20)
(1.02923 0.594502 6.33158e-20)
(1.07547 0.60784 -3.4822e-20)
(1.09584 0.602274 -2.23916e-19)
(1.10205 0.586618 -9.5446e-20)
(1.10144 0.56653 -1.70221e-19)
(1.09805 0.545221 -7.68466e-20)
(1.09392 0.524296 3.92515e-20)
(1.0899 0.504439 -1.85447e-19)
(1.08628 0.485862 -3.88824e-20)
(1.08311 0.468568 -3.60848e-20)
(1.08038 0.452485 -1.18416e-19)
(1.07815 0.43753 5.18861e-20)
(1.07654 0.423658 5.35248e-21)
(1.07561 0.411001 4.25726e-20)
(1.07535 0.399785 -1.80911e-20)
(1.07629 0.389002 -5.07155e-20)
(0.225322 0.135678 4.84374e-19)
(0.555276 0.344191 4.21638e-19)
(0.781887 0.490102 5.16335e-19)
(0.925473 0.576241 -5.38204e-20)
(1.00796 0.616089 -1.80206e-19)
(1.0501 0.624932 5.40153e-19)
(1.06837 0.615541 -2.60665e-19)
(1.07399 0.596924 2.83778e-19)
(1.07374 0.574629 -4.98477e-20)
(1.07125 0.551667 1.66501e-19)
(1.06826 0.529466 1.93229e-20)
(1.06546 0.508586 6.89441e-20)
(1.06306 0.489161 -1.47033e-20)
(1.06104 0.471147 6.24065e-20)
(1.05938 0.454439 -3.92e-20)
(1.05811 0.438933 8.87965e-21)
(1.05735 0.424573 2.06372e-20)
(1.05719 0.411482 2.64604e-20)
(1.05769 0.399885 1.18944e-21)
(1.0594 0.388884 3.30626e-21)
(0.226129 0.147665 -1.47918e-19)
(0.550807 0.367834 -4.11188e-19)
(0.769672 0.515848 -2.49349e-19)
(0.905828 0.599253 -4.31372e-19)
(0.982715 0.634717 4.55821e-19)
(1.0215 0.639236 -3.09425e-19)
(1.03833 0.62628 1.91679e-19)
(1.04388 0.604964 -6.97283e-20)
(1.04437 0.580679 -7.44059e-20)
(1.04304 0.556229 -5.09689e-20)
(1.04137 0.532872 2.72564e-20)
(1.03995 0.511054 2.37017e-20)
(1.03889 0.490845 8.09627e-21)
(1.03817 0.47216 -2.35836e-20)
(1.0377 0.454872 -9.83221e-22)
(1.03751 0.438853 6.93702e-21)
(1.03768 0.424033 -1.66067e-20)
(1.03837 0.410516 2.29963e-20)
(1.03969 0.398546 9.00515e-21)
(1.04219 0.387402 2.41841e-20)
(0.225111 0.159027 6.41475e-19)
(0.542521 0.389558 2.98435e-19)
(0.753038 0.538792 2.79473e-19)
(0.882005 0.619092 -1.61954e-19)
(0.953917 0.650184 1.77658e-20)
(0.990034 0.650598 2.23409e-19)
(1.00603 0.634365 2.52475e-20)
(1.01196 0.610621 4.41528e-20)
(1.01351 0.584568 4.3602e-20)
(1.01355 0.558795 -7.40968e-21)
(1.01337 0.5344 6.55907e-21)
(1.01343 0.511728 -1.16245e-20)
(1.01384 0.490792 -1.48296e-20)
(1.01451 0.47148 1.25654e-20)
(1.01538 0.453644 5.5974e-21)
(1.01639 0.437141 4.5987e-21)
(1.01762 0.421879 -8.57446e-21)
(1.01923 0.407938 -1.66913e-21)
(1.02142 0.395598 4.52887e-20)
(1.02476 0.384408 -4.39676e-20)
(0.222305 0.169567 -4.51168e-19)
(0.530626 0.409026 -3.87751e-19)
(0.732336 0.558623 1.79655e-19)
(0.854421 0.63552 -2.15036e-19)
(0.921978 0.662316 -1.77456e-20)
(0.956073 0.658889 1.63824e-20)
(0.971776 0.639688 -2.93859e-20)
(0.978472 0.613796 -3.0357e-20)
(0.981343 0.586199 -3.33483e-20)
(0.982935 0.559271 -2.34864e-20)
(0.984352 0.533957 -2.98664e-20)
(0.985991 0.510514 3.85719e-20)
(0.98793 0.488907 -3.75187e-21)
(0.990108 0.469001 1.07604e-20)
(0.992422 0.450635 4.32848e-21)
(0.994787 0.43366 -6.63362e-20)
(0.997215 0.417962 -5.65555e-20)
(0.999863 0.403562 -6.06511e-20)
(1.00305 0.390772 -1.37134e-21)
(1.00749 0.379543 9.32422e-20)
(0.21778 0.179099 4.05804e-19)
(0.515379 0.425938 2.01938e-20)
(0.707954 0.575069 -4.30517e-20)
(0.823513 0.648335 4.88692e-20)
(0.887317 0.670972 1.27607e-19)
(0.919982 0.664001 -1.00819e-19)
(0.935857 0.64216 1.1834e-20)
(0.943652 0.61441 -3.0738e-20)
(0.948059 0.585497 -2.28817e-20)
(0.951328 0.557585 3.0612e-21)
(0.95442 0.531476 -5.39775e-20)
(0.957681 0.507343 -4.48185e-20)
(0.961195 0.485111 4.97597e-20)
(0.964932 0.464629 -1.78694e-20)
(0.968802 0.445733 -1.9351e-19)
(0.972687 0.428282 1.9051e-19)
(0.976508 0.41214 -1.12884e-19)
(0.980425 0.397201 -7.12631e-20)
(0.985002 0.383696 9.10484e-20)
(0.99101 0.372196 -1.12112e-19)
(0.211637 0.187455 -8.67614e-20)
(0.497078 0.440029 9.43363e-20)
(0.680308 0.587903 4.41085e-20)
(0.789732 0.657372 -6.46714e-20)
(0.850358 0.676039 1.88856e-20)
(0.882128 0.665854 -3.42018e-20)
(0.898581 0.641716 -1.54304e-20)
(0.907747 0.612405 1.98997e-20)
(0.913852 0.582414 4.48619e-22)
(0.918885 0.5537 -1.15114e-19)
(0.923682 0.526925 3.07481e-20)
(0.928559 0.502184 1.00625e-20)
(0.933618 0.479358 1.36963e-19)
(0.938884 0.458274 -3.46679e-19)
(0.944323 0.438771 3.22892e-19)
(0.949816 0.420736 1.71181e-19)
(0.955231 0.404027 -3.373e-20)
(0.960807 0.388334 2.81936e-20)
(0.967395 0.373669 3.0745e-19)
(0.975278 0.361553 -1.28354e-19)
(0.203999 0.194482 -2.36595e-20)
(0.476056 0.451078 5.48999e-20)
(0.649839 0.596941 -4.65632e-20)
(0.753538 0.662506 6.00276e-20)
(0.811528 0.677432 -3.85369e-20)
(0.84288 0.664388 3.81449e-20)
(0.860258 0.638311 2.93665e-20)
(0.871013 0.607751 -7.90206e-20)
(0.878938 0.576936 7.89904e-20)
(0.885784 0.547623 5.47489e-20)
(0.892279 0.520345 2.70153e-20)
(0.898707 0.495113 4.70243e-21)
(0.905188 0.47175 1.09146e-19)
(0.911795 0.450031 -1.09651e-19)
(0.918565 0.429757 1.30959e-19)
(0.92543 0.410797 -2.74707e-19)
(0.932304 0.392963 3.06648e-19)
(0.939615 0.375647 -2.63276e-19)
(0.94831 0.3586 -1.78638e-19)
(0.957299 0.345202 3.04065e-19)
(0.195017 0.200051 1.24885e-20)
(0.452672 0.458901 -2.26828e-20)
(0.617001 0.60204 -1.44557e-20)
(0.715395 0.663645 -5.16334e-20)
(0.771252 0.675098 1.64616e-20)
(0.802609 0.659568 4.63699e-21)
(0.821206 0.63192 -1.74658e-19)
(0.833728 0.600431 1.16454e-19)
(0.843565 0.569065 1.15302e-19)
(0.852253 0.539392 -1.60433e-19)
(0.860427 0.511831 1.86994e-19)
(0.868329 0.486322 -7.17729e-20)
(0.876069 0.462637 1.40104e-19)
(0.883721 0.440489 -2.24061e-19)
(0.891334 0.419594 4.65992e-19)
(0.89887 0.399706 -1.05754e-19)
(0.906353 0.38043 -2.92379e-20)
(0.914436 0.36055 3.05764e-19)
(0.923897 0.338176 -1.49001e-19)
(0.929906 0.315746 6.50725e-20)
(0.184854 0.204055 -6.95345e-20)
(0.427305 0.463361 9.40476e-20)
(0.58226 0.6031 -3.36534e-20)
(0.675772 0.660732 5.35787e-20)
(0.729958 0.669005 -2.60541e-20)
(0.761686 0.651376 -1.70818e-19)
(0.781747 0.622529 2.6241e-19)
(0.79618 0.590436 1.77499e-20)
(0.808002 0.5588 -2.79221e-20)
(0.818565 0.529019 4.88717e-21)
(0.828422 0.501422 8.48008e-20)
(0.837784 0.475911 1.45963e-19)
(0.846734 0.452247 8.79161e-20)
(0.855306 0.430158 -2.08705e-19)
(0.863489 0.409398 -5.93876e-20)
(0.87122 0.389779 -1.11042e-20)
(0.878594 0.371042 3.87399e-20)
(0.886188 0.352519 4.99984e-21)
(0.893965 0.333512 4.45878e-19)
(0.897389 0.316096 -3.11427e-19)
(0.173691 0.206404 1.75291e-19)
(0.400345 0.464353 -3.08291e-20)
(0.546084 0.600059 -1.1803e-19)
(0.635131 0.653742 3.90998e-19)
(0.688064 0.659147 7.2964e-20)
(0.720481 0.639811 -2.30853e-19)
(0.742206 0.610138 2.15355e-19)
(0.758661 0.577764 -4.80887e-20)
(0.772524 0.546133 1.90548e-19)
(0.78499 0.516488 8.65445e-20)
(0.796552 0.489079 -4.21035e-19)
(0.80741 0.463775 -4.91483e-20)
(0.817649 0.440327 5.85431e-19)
(0.827302 0.418472 -7.16472e-19)
(0.836351 0.397974 6.62779e-19)
(0.844725 0.378639 2.29349e-19)
(0.852484 0.360197 -8.1674e-19)
(0.860019 0.342089 3.9413e-19)
(0.867164 0.324011 -8.1356e-20)
(0.870506 0.308288 9.47087e-20)
(0.161717 0.207036 -3.09827e-19)
(0.372191 0.461817 -3.18841e-19)
(0.508939 0.592895 2.1804e-19)
(0.593928 0.642682 -2.71883e-19)
(0.645984 0.645545 -7.39882e-19)
(0.679355 0.624893 -2.33793e-20)
(0.702902 0.59476 -2.19121e-19)
(0.721461 0.562422 1.18121e-20)
(0.737402 0.531071 -4.27873e-19)
(0.751785 0.501808 -4.35402e-19)
(0.765058 0.474818 -2.95258e-19)
(0.777413 0.449951 -1.21284e-20)
(0.788943 0.42696 -7.3254e-19)
(0.799697 0.405599 -5.06619e-21)
(0.809676 0.38566 3.57009e-19)
(0.818849 0.366983 -3.55319e-19)
(0.827287 0.349359 -2.73504e-19)
(0.835309 0.332362 2.63264e-19)
(0.842742 0.315813 -1.89052e-19)
(0.84679 0.301556 3.64564e-20)
(0.14913 0.205908 2.45247e-19)
(0.343244 0.455731 1.90608e-19)
(0.471286 0.581621 -6.55933e-21)
(0.552609 0.627589 -1.53143e-19)
(0.604118 0.628242 3.77837e-19)
(0.638661 0.606661 6.03953e-19)
(0.664149 0.576424 -6.23144e-20)
(0.684866 0.544427 1.20286e-20)
(0.702907 0.513616 1.1878e-19)
(0.719219 0.484965 2.68242e-19)
(0.734219 0.458603 3.88206e-19)
(0.748101 0.434364 -3.13485e-19)
(0.760974 0.412007 3.10639e-19)
(0.772902 0.391297 -1.06016e-19)
(0.78391 0.37204 3.61536e-19)
(0.793994 0.354085 -1.40586e-19)
(0.803254 0.337246 -3.48565e-19)
(0.812013 0.32119 2.10342e-19)
(0.820124 0.305848 -2.99367e-19)
(0.825147 0.292774 -3.40731e-19)
(0.136131 0.203001 1.06463e-19)
(0.313898 0.446108 1.95166e-19)
(0.433574 0.566288 -2.05648e-19)
(0.511607 0.608532 1.00776e-20)
(0.562853 0.607306 3.5325e-20)
(0.598739 0.585172 2.84259e-19)
(0.626249 0.555175 -4.2106e-19)
(0.649149 0.523811 4.00519e-19)
(0.669288 0.493789 -3.81367e-20)
(0.687523 0.465965 1.09727e-19)
(0.704248 0.440423 1.76415e-19)
(0.719669 0.416987 -3.36257e-19)
(0.733914 0.395422 1.61682e-19)
(0.74707 0.375507 1.5344e-19)
(0.759189 0.35706 5.6553e-20)
(0.770296 0.339939 -2.90174e-19)
(0.780519 0.323971 9.77565e-19)
(0.790175 0.308871 -5.46792e-19)
(0.799113 0.294606 9.94565e-19)
(0.805169 0.282461 -6.44751e-20)
(0.122919 0.198319 7.64038e-20)
(0.284541 0.432997 4.58607e-19)
(0.39624 0.546981 1.62225e-19)
(0.471335 0.585606 3.40273e-19)
(0.522562 0.58283 8.82567e-20)
(0.559917 0.560507 -5.42584e-19)
(0.589491 0.531076 8.41061e-19)
(0.614571 0.500623 4.35318e-19)
(0.636788 0.471624 1.81822e-20)
(0.656922 0.444828 5.64317e-19)
(0.675356 0.420282 9.07804e-20)
(0.69231 0.397803 5.91983e-20)
(0.707934 0.377164 3.37824e-19)
(0.722338 0.358152 -1.26134e-19)
(0.7356 0.340595 -1.33539e-19)
(0.747775 0.324357 7.87764e-19)
(0.759016 0.309273 -6.58819e-19)
(0.769628 0.295097 2.55573e-20)
(0.779456 0.281811 8.33928e-19)
(0.786572 0.270471 -7.84665e-22)
(0.109694 0.191883 -9.81879e-19)
(0.25555 0.416482 -1.67229e-19)
(0.359699 0.523818 -2.25183e-19)
(0.432191 0.55894 -1.71658e-19)
(0.483596 0.554931 -4.3447e-19)
(0.522503 0.532767 1.48781e-19)
(0.55415 0.504213 -2.07966e-19)
(0.581379 0.474931 5.95748e-20)
(0.605631 0.447174 -3.01002e-19)
(0.627622 0.421593 -2.85605e-19)
(0.647732 0.398205 5.87709e-20)
(0.666196 0.376823 -4.61866e-19)
(0.683186 0.357229 3.68447e-19)
(0.698838 0.33922 -1.33109e-19)
(0.71325 0.322631 4.1829e-19)
(0.726507 0.307328 -9.02504e-19)
(0.738776 0.293157 -1.71235e-19)
(0.750349 0.279898 -3.23982e-19)
(0.761067 0.267539 -8.71094e-19)
(0.769232 0.256935 -1.40363e-19)
(0.0966468 0.183736 1.60355e-19)
(0.227284 0.396677 -1.93317e-20)
(0.324349 0.496946 -2.46362e-19)
(0.394547 0.528685 8.69436e-20)
(0.446289 0.523752 -1.75812e-19)
(0.486791 0.502076 -2.34961e-21)
(0.520485 0.47469 2.39801e-19)
(0.549806 0.446823 -3.57729e-19)
(0.576027 0.420512 1.39865e-19)
(0.599814 0.39632 -8.08297e-20)
(0.621546 0.374237 2.17595e-20)
(0.641477 0.354081 -4.0069e-19)
(0.6598 0.335639 -4.87927e-19)
(0.676673 0.318719 -1.84572e-20)
(0.692215 0.303165 5.44067e-19)
(0.706535 0.288846 2.55925e-20)
(0.719811 0.275617 6.8932e-19)
(0.73232 0.263282 -1.00462e-18)
(0.743905 0.251827 5.34925e-19)
(0.753093 0.241934 9.21659e-19)
(0.0839643 0.173939 -1.39148e-19)
(0.200085 0.373726 7.47648e-20)
(0.290563 0.466546 4.86256e-19)
(0.358756 0.495024 1.19973e-19)
(0.410952 0.489458 -1.62001e-19)
(0.453055 0.468579 1.27767e-19)
(0.488738 0.442633 5.03258e-19)
(0.520068 0.416408 -4.08239e-19)
(0.548172 0.391732 3.79729e-20)
(0.573675 0.369089 -1.49138e-19)
(0.596958 0.34845 5.39683e-19)
(0.618295 0.329635 3.85757e-19)
(0.637898 0.312444 -5.59077e-20)
(0.655945 0.296697 -5.86461e-19)
(0.672578 0.282242 3.09376e-20)
(0.68792 0.268956 -7.25e-20)
(0.702161 0.256702 3.45187e-19)
(0.715558 0.24531 5.62073e-19)
(0.727971 0.234756 4.91442e-19)
(0.738142 0.225573 -8.20912e-19)
(0.0718228 0.162571 -8.69011e-20)
(0.174275 0.347802 3.71009e-19)
(0.25869 0.432824 -3.62017e-19)
(0.325143 0.45816 5.03072e-19)
(0.377877 0.452238 -2.73883e-19)
(0.421549 0.432443 1.96166e-19)
(0.459134 0.408189 4.9891e-19)
(0.492367 0.383814 -5.99949e-19)
(0.522248 0.360947 2.73424e-19)
(0.549368 0.34 3.46456e-19)
(0.574115 0.320931 -4.71255e-19)
(0.596779 0.303566 -3.37082e-20)
(0.617593 0.287718 -3.78866e-19)
(0.636752 0.273218 6.07476e-19)
(0.654415 0.259925 -3.2986e-19)
(0.670725 0.247721 3.54427e-19)
(0.685872 0.236481 -6.43299e-20)
(0.700097 0.226055 2.19258e-19)
(0.713287 0.216413 4.99698e-20)
(0.724392 0.207959 -1.2817e-19)
(0.0603882 0.149727 -2.66005e-19)
(0.150153 0.319105 -6.12747e-19)
(0.229054 0.396014 1.61298e-19)
(0.29401 0.418324 -5.17395e-19)
(0.347329 0.4123 -4.901e-19)
(0.392507 0.393855 -3.52395e-19)
(0.431881 0.371522 2.74779e-19)
(0.46689 0.349189 2.11448e-19)
(0.498422 0.32829 -1.53903e-21)
(0.527044 0.309175 -1.84633e-19)
(0.553152 0.291791 -3.33058e-19)
(0.577049 0.275976 3.00647e-19)
(0.59899 0.261555 -1.03516e-19)
(0.619184 0.248373 -5.13031e-19)
(0.637806 0.236301 3.34395e-19)
(0.655013 0.225228 -2.51234e-19)
(0.670997 0.215041 -1.02501e-19)
(0.685984 0.20561 -2.86941e-19)
(0.699893 0.196897 -2.60241e-19)
(0.71187 0.1892 6.7292e-20)
(0.0498144 0.135519 2.32406e-19)
(0.127993 0.287858 1.20542e-19)
(0.201947 0.356372 1.84388e-19)
(0.265631 0.375768 -6.28754e-19)
(0.319552 0.369876 6.73696e-19)
(0.366143 0.353021 3.24529e-21)
(0.407167 0.332816 5.52842e-21)
(0.443804 0.312697 -4.11307e-19)
(0.476847 0.293911 3.84258e-19)
(0.506842 0.276749 -2.67339e-19)
(0.534192 0.261156 8.09152e-20)
(0.559218 0.24698 -3.59263e-19)
(0.582188 0.234064 -1.71101e-19)
(0.603328 0.222267 -8.18602e-20)
(0.622826 0.211471 6.16745e-19)
(0.640851 0.201576 -3.02901e-19)
(0.657595 0.192482 -2.73552e-19)
(0.673271 0.184076 2.81804e-19)
(0.687832 0.176313 -2.31484e-19)
(0.700612 0.169408 1.80446e-19)
(0.0402416 0.120071 4.93133e-19)
(0.108044 0.254307 -2.97805e-19)
(0.177637 0.314178 4.46603e-20)
(0.240252 0.330761 5.2232e-19)
(0.294762 0.325214 2.07312e-19)
(0.342648 0.310163 2.57424e-19)
(0.385164 0.292272 2.56384e-19)
(0.423263 0.27452 5.44234e-19)
(0.45766 0.257975 -1.24865e-19)
(0.488884 0.242876 2.98194e-19)
(0.517347 0.229167 4.33768e-19)
(0.543384 0.216711 1.59941e-19)
(0.567277 0.20537 2.89944e-19)
(0.589264 0.195018 1.05319e-19)
(0.609546 0.18555 6.21057e-20)
(0.628301 0.176877 -4.49656e-20)
(0.645721 0.168913 3.60939e-19)
(0.662008 0.161561 2.22808e-19)
(0.677153 0.154773 -2.02465e-19)
(0.690657 0.148695 1.91013e-19)
(0.0317951 0.103522 -3.27309e-19)
(0.0905259 0.218717 3.70163e-20)
(0.156356 0.269731 -9.46495e-20)
(0.21809 0.283594 -2.87517e-19)
(0.273153 0.278577 -1.52572e-19)
(0.322192 0.265518 -2.77246e-19)
(0.366021 0.250103 1.28792e-19)
(0.405402 0.234853 -4.99096e-19)
(0.440983 0.220661 2.94856e-19)
(0.473282 0.207721 -4.08192e-19)
(0.502719 0.195978 -2.5375e-19)
(0.52964 0.185315 -3.36139e-19)
(0.554339 0.175611 7.70338e-20)
(0.577066 0.166758 -7.60679e-20)
(0.598032 0.158664 9.11842e-20)
(0.617425 0.151254 4.91409e-20)
(0.635432 0.144453 9.76957e-20)
(0.652248 0.138182 -8.17036e-19)
(0.667902 0.132393 4.06814e-19)
(0.682044 0.127179 -2.43924e-19)
(0.0245849 0.0860203 1.08081e-19)
(0.0756304 0.181371 2.18376e-19)
(0.138309 0.223348 -1.42566e-19)
(0.199332 0.234573 3.52115e-19)
(0.25489 0.230245 -5.669e-20)
(0.30492 0.219339 4.08191e-19)
(0.349868 0.206538 7.88899e-20)
(0.390337 0.193904 -8.30438e-20)
(0.426922 0.182161 3.02212e-19)
(0.460132 0.171462 2.31367e-19)
(0.490393 0.161757 8.5886e-20)
(0.518062 0.152948 1.13061e-19)
(0.543444 0.144934 5.67696e-20)
(0.566798 0.137625 -2.4108e-19)
(0.588344 0.130947 -3.36622e-20)
(0.608274 0.124834 2.52237e-19)
(0.626777 0.119227 -1.72431e-19)
(0.644038 0.114063 -7.90667e-21)
(0.660123 0.109294 -3.61857e-19)
(0.674809 0.104978 7.29233e-19)
(0.0187035 0.0677263 2.8967e-19)
(0.0635188 0.142567 -3.48134e-19)
(0.123666 0.17536 1.63278e-19)
(0.184138 0.184014 -2.31288e-19)
(0.240113 0.180509 2.04003e-19)
(0.290955 0.171889 -3.54593e-19)
(0.336815 0.161815 -2.5993e-19)
(0.378167 0.151892 1.94861e-20)
(0.415566 0.142677 -3.54909e-19)
(0.449514 0.134286 -2.21731e-19)
(0.480444 0.126677 -3.84419e-19)
(0.50872 0.119773 -1.30187e-20)
(0.534655 0.113494 -1.49595e-19)
(0.558516 0.10777 3.78708e-19)
(0.580531 0.10254 2.61383e-19)
(0.600896 0.0977549 -8.7712e-20)
(0.619799 0.0933678 -7.935e-20)
(0.637419 0.0893295 -3.51879e-21)
(0.653853 0.0856009 9.78988e-21)
(0.668982 0.0822124 1.43956e-19)
(0.0142265 0.0488071 -7.24451e-20)
(0.0543217 0.102617 -2.48072e-19)
(0.112564 0.126111 -1.54784e-19)
(0.172632 0.132249 -9.69233e-20)
(0.228933 0.12967 -2.01035e-19)
(0.280397 0.12344 3.44851e-19)
(0.326949 0.116182 -3.68474e-20)
(0.368972 0.109043 -8.31213e-20)
(0.406987 0.102419 3.39645e-21)
(0.441495 0.0963885 2.44829e-19)
(0.472931 0.0909224 -2.32798e-19)
(0.501666 0.0859636 2.27947e-19)
(0.528021 0.0814547 1.07159e-19)
(0.552266 0.077345 -1.95485e-19)
(0.574635 0.0735913 4.27592e-20)
(0.59533 0.0701573 1.26014e-19)
(0.614535 0.0670102 4.40058e-20)
(0.632426 0.0641149 -3.03945e-20)
(0.649124 0.0614413 -2.65716e-19)
(0.664591 0.0590045 2.11658e-19)
(0.0112109 0.0294366 6.5325e-20)
(0.0481372 0.0618408 7.93587e-20)
(0.105108 0.0759547 2.23283e-20)
(0.164911 0.0796162 -1.68436e-20)
(0.221436 0.0780383 4.79393e-20)
(0.273319 0.074272 7.3417e-20)
(0.320338 0.0698946 2.78474e-20)
(0.362811 0.0655928 3.39984e-20)
(0.401241 0.0616029 -7.25607e-20)
(0.436124 0.0579719 1.35957e-19)
(0.467899 0.0546813 -3.21642e-20)
(0.496943 0.0516966 -2.6208e-21)
(0.523579 0.0489831 3.27339e-20)
(0.548082 0.0465103 3.6931e-20)
(0.57069 0.0442521 -9.94436e-20)
(0.591605 0.0421865 6.5356e-20)
(0.611012 0.040294 4.2933e-20)
(0.629084 0.0385537 3.66915e-20)
(0.645961 0.0369465 7.88224e-20)
(0.661655 0.0354789 3.26698e-20)
(0.0096949 0.0097936 -1.33766e-20)
(0.0450316 0.0205661 2.7806e-20)
(0.101367 0.0252507 -3.89328e-20)
(0.161039 0.0264597 2.44758e-20)
(0.217678 0.0259283 1.43952e-20)
(0.269772 0.024671 6.46381e-21)
(0.317026 0.023212 1.52497e-20)
(0.359725 0.0217791 -4.3751e-20)
(0.398362 0.0204506 2.79188e-20)
(0.433434 0.0192419 9.75492e-21)
(0.46538 0.0181468 -5.94856e-22)
(0.494579 0.0171536 6.02118e-20)
(0.521355 0.0162509 -1.82583e-20)
(0.545988 0.0154285 -1.75188e-20)
(0.568715 0.0146775 -1.68733e-20)
(0.589741 0.0139907 2.61356e-21)
(0.60925 0.0133616 -2.26172e-20)
(0.627413 0.0127833 4.30708e-21)
(0.644378 0.0122493 8.5182e-22)
(0.660187 0.0117613 -2.87492e-21)
(0.00969784 -0.00994051 8.49691e-21)
(0.0450377 -0.0208751 -4.52277e-20)
(0.101374 -0.025636 5.39483e-20)
(0.161047 -0.0268715 -4.0563e-20)
(0.217687 -0.0263413 -1.89616e-20)
(0.269781 -0.0250745 5.67797e-20)
(0.317034 -0.0236024 4.74201e-21)
(0.359733 -0.0221557 1.33447e-21)
(0.39837 -0.0208139 2.66356e-20)
(0.433442 -0.0195926 1.3794e-20)
(0.465387 -0.0184856 -1.08738e-20)
(0.494586 -0.0174813 -3.82603e-20)
(0.521363 -0.0165682 3.60854e-21)
(0.545995 -0.0157359 -3.36341e-21)
(0.568722 -0.0149756 3.57855e-20)
(0.589748 -0.0142801 -2.15552e-20)
(0.609256 -0.0136428 2.96128e-20)
(0.627419 -0.0130568 -4.44045e-20)
(0.644385 -0.0125154 5.19181e-23)
(0.660194 -0.0120204 -9.36536e-21)
(0.0112197 -0.0295834 -2.82261e-20)
(0.0481556 -0.0621496 1.42436e-19)
(0.105132 -0.0763397 9.6049e-20)
(0.164937 -0.0800276 6.36127e-20)
(0.221462 -0.0784509 7.95007e-20)
(0.273345 -0.0746751 -1.92571e-20)
(0.320363 -0.0702846 8.82428e-20)
(0.362836 -0.0659689 1.81203e-20)
(0.401265 -0.0619657 -7.84271e-21)
(0.436148 -0.0583221 -6.30988e-20)
(0.467922 -0.0550196 6.55605e-20)
(0.496966 -0.0520238 -8.91162e-20)
(0.523601 -0.0492999 6.48273e-20)
(0.548104 -0.0468173 7.43562e-20)
(0.570711 -0.0445498 9.8504e-20)
(0.591626 -0.0424755 -6.46652e-20)
(0.611033 -0.0405747 1.83505e-20)
(0.629105 -0.0388266 6.85559e-20)
(0.645981 -0.0372121 -6.48352e-20)
(0.661674 -0.0357374 4.89251e-20)
(0.0142412 -0.0489535 -2.72918e-19)
(0.0543523 -0.102925 -1.37165e-19)
(0.112603 -0.126496 -1.52596e-19)
(0.172674 -0.13266 -1.20435e-20)
(0.228977 -0.130082 -8.23806e-20)
(0.28044 -0.123842 -1.01068e-19)
(0.326992 -0.116571 1.78743e-19)
(0.369013 -0.109419 9.12005e-20)
(0.407028 -0.102781 1.12549e-19)
(0.441535 -0.0967378 -1.22234e-19)
(0.472969 -0.0912598 9.06731e-20)
(0.501704 -0.0862899 1.10827e-19)
(0.528058 -0.0817705 3.91013e-20)
(0.552302 -0.077651 -3.71664e-20)
(0.574671 -0.073888 8.06216e-21)
(0.595365 -0.0704453 -1.60098e-20)
(0.614569 -0.0672899 -1.57565e-19)
(0.63246 -0.0643869 2.43515e-20)
(0.649157 -0.0617059 1.53334e-19)
(0.664623 -0.0592621 -2.06026e-19)
(0.0187241 -0.0678723 -8.98776e-20)
(0.0635618 -0.142875 1.33111e-19)
(0.12372 -0.175744 3.08494e-20)
(0.184197 -0.184424 -5.76163e-20)
(0.240173 -0.180919 -1.63025e-19)
(0.291015 -0.17229 -3.49573e-19)
(0.336874 -0.162203 -3.32997e-19)
(0.378225 -0.152266 -2.40558e-20)
(0.415622 -0.143038 -1.9404e-19)
(0.44957 -0.134633 -2.90426e-19)
(0.480498 -0.127013 2.25481e-19)
(0.508773 -0.120098 -3.32582e-19)
(0.534707 -0.113809 6.63923e-20)
(0.558567 -0.108074 -2.11136e-20)
(0.580581 -0.102835 -6.99769e-20)
(0.600945 -0.0980414 -8.85841e-20)
(0.619847 -0.0936461 1.43589e-19)
(0.637466 -0.0896 1.149e-19)
(0.653899 -0.0858639 1.9767e-19)
(0.669027 -0.0824685 -2.95823e-19)
(0.0246112 -0.0861656 4.87382e-20)
(0.0756857 -0.181677 4.73819e-19)
(0.138379 -0.22373 1.35771e-19)
(0.199409 -0.234981 3.28377e-19)
(0.254968 -0.230654 -1.22759e-19)
(0.304997 -0.219738 1.89092e-19)
(0.349944 -0.206924 -5.95878e-20)
(0.390411 -0.194276 3.84012e-19)
(0.426994 -0.18252 -1.97724e-19)
(0.460203 -0.171808 2.3315e-19)
(0.490462 -0.162091 2.0256e-19)
(0.518131 -0.153271 2.16929e-19)
(0.543511 -0.145246 -1.94193e-19)
(0.566863 -0.137928 1.66887e-19)
(0.588408 -0.13124 -2.32017e-19)
(0.608337 -0.125119 -6.38982e-20)
(0.626839 -0.119504 -1.532e-19)
(0.644099 -0.114331 -6.51151e-20)
(0.660182 -0.109555 2.58233e-19)
(0.674866 -0.105232 -4.27662e-19)
(0.0318274 -0.103666 -1.96228e-19)
(0.0905935 -0.219022 -2.27414e-20)
(0.156442 -0.270112 -7.82474e-20)
(0.218183 -0.284 -2.75089e-19)
(0.273248 -0.278984 4.67293e-20)
(0.322286 -0.265915 -4.31204e-19)
(0.366114 -0.250487 -1.81499e-19)
(0.405493 -0.235223 -1.40691e-20)
(0.441071 -0.221017 -4.56926e-19)