/*--------------------------------*- C++ -*----------------------------------*\
  =========                 |
  \\      /  F ield         | OpenFOAM: The Open Source CFD Toolbox
   \\    /   O peration     | Website:  https://openfoam.org
    \\  /    A nd           | Version:  6.0
     \\/     M anipulation  |
\*---------------------------------------------------------------------------*/
FoamFile
{
    version     2.0;
    format      ascii;
    class       volScalarField;
    location    "43";
    object      p;
}
// * * * * * * * * * * * * * * * * * * * * * * * * * * * * * * * * * * * * * //

dimensions      [0 2 -2 0 0 0 0];

internalField   nonuniform List<scalar> 
12500
(
-0.24296
-0.243704
-0.244219
-0.244612
-0.244948
-0.245234
-0.24548
-0.245693
-0.245882
-0.246051
-0.246205
-0.246346
-0.246478
-0.246603
-0.246723
-0.246842
-0.246961
-0.247083
-0.247209
-0.247342
-0.247487
-0.247646
-0.247782
-0.247876
-0.248293
-0.243136
-0.243868
-0.244375
-0.244761
-0.245091
-0.245372
-0.245612
-0.24582
-0.246004
-0.246169
-0.246318
-0.246456
-0.246584
-0.246707
-0.246826
-0.246943
-0.247062
-0.247183
-0.24731
-0.247445
-0.247593
-0.247756
-0.247898
-0.247998
-0.248423
-0.243373
-0.244092
-0.24459
-0.244968
-0.24529
-0.245563
-0.245794
-0.245995
-0.246171
-0.246327
-0.246469
-0.246599
-0.246721
-0.246837
-0.246949
-0.247061
-0.247175
-0.247292
-0.247416
-0.247549
-0.247696
-0.24786
-0.248005
-0.248108
-0.248537
-0.243668
-0.244376
-0.244864
-0.245233
-0.245544
-0.245806
-0.246027
-0.246216
-0.24638
-0.246525
-0.246656
-0.246774
-0.246885
-0.24699
-0.247091
-0.247193
-0.247297
-0.247406
-0.247522
-0.247648
-0.247791
-0.247952
-0.248095
-0.248198
-0.24863
-0.244022
-0.244718
-0.245195
-0.245553
-0.245853
-0.246101
-0.246308
-0.246482
-0.246632
-0.246761
-0.246876
-0.246979
-0.247073
-0.247162
-0.247248
-0.247335
-0.247424
-0.247519
-0.247622
-0.247737
-0.247871
-0.248024
-0.248163
-0.24826
-0.248694
-0.244434
-0.245118
-0.245584
-0.245929
-0.246214
-0.246447
-0.246637
-0.246793
-0.246924
-0.247034
-0.247128
-0.24721
-0.247284
-0.247352
-0.247417
-0.247483
-0.247552
-0.247627
-0.247712
-0.24781
-0.247929
-0.24807
-0.248199
-0.248287
-0.248719
-0.244902
-0.245575
-0.24603
-0.246361
-0.24663
-0.246844
-0.247013
-0.247148
-0.247255
-0.247341
-0.247411
-0.247468
-0.247515
-0.247557
-0.247595
-0.247634
-0.247676
-0.247725
-0.247785
-0.24786
-0.247957
-0.24808
-0.248194
-0.248267
-0.248696
-0.24543
-0.246092
-0.246533
-0.246849
-0.247099
-0.247291
-0.247437
-0.247546
-0.247626
-0.247683
-0.247723
-0.247749
-0.247765
-0.247774
-0.247779
-0.247784
-0.247792
-0.247808
-0.247835
-0.247879
-0.247948
-0.248046
-0.248139
-0.24819
-0.248613
-0.246016
-0.246668
-0.247096
-0.247393
-0.247622
-0.24779
-0.247908
-0.247987
-0.248036
-0.248061
-0.248066
-0.248056
-0.248034
-0.248003
-0.247968
-0.247931
-0.247898
-0.247871
-0.247857
-0.247862
-0.247894
-0.247959
-0.248022
-0.248046
-0.24846
-0.246665
-0.247306
-0.247719
-0.247997
-0.248201
-0.248341
-0.248428
-0.248474
-0.248487
-0.248474
-0.248439
-0.248387
-0.248321
-0.248245
-0.248162
-0.248076
-0.247992
-0.247914
-0.247849
-0.247803
-0.247788
-0.247811
-0.247836
-0.247824
-0.248224
-0.247378
-0.248009
-0.248405
-0.24866
-0.248837
-0.248946
-0.248998
-0.249007
-0.24898
-0.248924
-0.248845
-0.248746
-0.24863
-0.248501
-0.248363
-0.248219
-0.248075
-0.247935
-0.247808
-0.247701
-0.247626
-0.247595
-0.247569
-0.247511
-0.247894
-0.248161
-0.248779
-0.249156
-0.249386
-0.249532
-0.249606
-0.249621
-0.249588
-0.249517
-0.249415
-0.249286
-0.249135
-0.248964
-0.248776
-0.248575
-0.248365
-0.248151
-0.247939
-0.247736
-0.247553
-0.247405
-0.247305
-0.247215
-0.247097
-0.247458
-0.249018
-0.249622
-0.249977
-0.250178
-0.25029
-0.250326
-0.250298
-0.25022
-0.250102
-0.249949
-0.249767
-0.249559
-0.249328
-0.249076
-0.248806
-0.248521
-0.248226
-0.24793
-0.247639
-0.247365
-0.247126
-0.246939
-0.246766
-0.246571
-0.246901
-0.249954
-0.25054
-0.25087
-0.251039
-0.251113
-0.251106
-0.251032
-0.250906
-0.250736
-0.25053
-0.250292
-0.250025
-0.249729
-0.249408
-0.249062
-0.248695
-0.248312
-0.247919
-0.247525
-0.247143
-0.246794
-0.246497
-0.246218
-0.245923
-0.24621
-0.250977
-0.251541
-0.251841
-0.251973
-0.252004
-0.25195
-0.251827
-0.251648
-0.251425
-0.251163
-0.250866
-0.250536
-0.250174
-0.24978
-0.249355
-0.2489
-0.248419
-0.247919
-0.247407
-0.246899
-0.246416
-0.245984
-0.245569
-0.245141
-0.245366
-0.252093
-0.252629
-0.252893
-0.252984
-0.252967
-0.252861
-0.252684
-0.252449
-0.252169
-0.251848
-0.251491
-0.251098
-0.250668
-0.2502
-0.249694
-0.249148
-0.248564
-0.247946
-0.247303
-0.246649
-0.246008
-0.245409
-0.24482
-0.244217
-0.244351
-0.253308
-0.25381
-0.254033
-0.254075
-0.254005
-0.253842
-0.253605
-0.253311
-0.252971
-0.25259
-0.252171
-0.251714
-0.251216
-0.250675
-0.250087
-0.249448
-0.248758
-0.248017
-0.247231
-0.246412
-0.245587
-0.244786
-0.243976
-0.243139
-0.243138
-0.254632
-0.25509
-0.255265
-0.255252
-0.255121
-0.254894
-0.254593
-0.254235
-0.253831
-0.253387
-0.252905
-0.252384
-0.25182
-0.251207
-0.25054
-0.24981
-0.249013
-0.248146
-0.247209
-0.24621
-0.245175
-0.244133
-0.243048
-0.241902
-0.241699
-0.256071
-0.256477
-0.256595
-0.256518
-0.256318
-0.256021
-0.255648
-0.25522
-0.254748
-0.254237
-0.253691
-0.253106
-0.252476
-0.251794
-0.25105
-0.250234
-0.249334
-0.248341
-0.24725
-0.246061
-0.244793
-0.243474
-0.242053
-0.240503
-0.240002
-0.257633
-0.257978
-0.258029
-0.25788
-0.257602
-0.257224
-0.256772
-0.256266
-0.255719
-0.255138
-0.254524
-0.253873
-0.253178
-0.252429
-0.251613
-0.250714
-0.249717
-0.248605
-0.247363
-0.24598
-0.244464
-0.242833
-0.241015
-0.238947
-0.238015
-0.259329
-0.259601
-0.259575
-0.259343
-0.258976
-0.258507
-0.257966
-0.257373
-0.256744
-0.256085
-0.255397
-0.254676
-0.253915
-0.2531
-0.252215
-0.251241
-0.250156
-0.248935
-0.247552
-0.245983
-0.244217
-0.242255
-0.239987
-0.237282
-0.235741
-0.261169
-0.261356
-0.261242
-0.260914
-0.260445
-0.259874
-0.259231
-0.258541
-0.257819
-0.257073
-0.256305
-0.255509
-0.254677
-0.253796
-0.252845
-0.251803
-0.250643
-0.249332
-0.247831
-0.246101
-0.244109
-0.24183
-0.239105
-0.235673
-0.233301
-0.263164
-0.263254
-0.263038
-0.262602
-0.262018
-0.26133
-0.260573
-0.259772
-0.258946
-0.258103
-0.257244
-0.256366
-0.25546
-0.25451
-0.253498
-0.2524
-0.251183
-0.24981
-0.248234
-0.246393
-0.244229
-0.241683
-0.238532
-0.234279
-0.23069
-0.26533
-0.265309
-0.264977
-0.264417
-0.263704
-0.262884
-0.261998
-0.261073
-0.26013
-0.259177
-0.258218
-0.25725
-0.256265
-0.255249
-0.254184
-0.253047
-0.25181
-0.250432
-0.248861
-0.247019
-0.244808
-0.242101
-0.238502
-0.233055
-0.22738
-0.267683
-0.267536
-0.267073
-0.266374
-0.265514
-0.264548
-0.263517
-0.262454
-0.26138
-0.260306
-0.259237
-0.258173
-0.257106
-0.256028
-0.254926
-0.253787
-0.252594
-0.251326
-0.249956
-0.248438
-0.246707
-0.244618
-0.241612
-0.236307
-0.229915
-0.270244
-0.269953
-0.269342
-0.268487
-0.267465
-0.266335
-0.265145
-0.26393
-0.262713
-0.261507
-0.26032
-0.259153
-0.258005
-0.256872
-0.255753
-0.254649
-0.25357
-0.252539
-0.251601
-0.250845
-0.250438
-0.250655
-0.251907
-0.255941
-0.269171
-0.273034
-0.272581
-0.271804
-0.270776
-0.269574
-0.268266
-0.266902
-0.265522
-0.264151
-0.262804
-0.261493
-0.26022
-0.258991
-0.257809
-0.256684
-0.255634
-0.25469
-0.253911
-0.25339
-0.25328
-0.253831
-0.255412
-0.258535
-0.264657
-0.278476
-0.276081
-0.275442
-0.27448
-0.273262
-0.271863
-0.270361
-0.268811
-0.267255
-0.26572
-0.264227
-0.262786
-0.261407
-0.260099
-0.258872
-0.257747
-0.256753
-0.255942
-0.25539
-0.255212
-0.255577
-0.25673
-0.258998
-0.262762
-0.268813
-0.280335
-0.279411
-0.278563
-0.277395
-0.275967
-0.274357
-0.272647
-0.270899
-0.269157
-0.267452
-0.265807
-0.264235
-0.262749
-0.261361
-0.26009
-0.258962
-0.258015
-0.257308
-0.256924
-0.256977
-0.257619
-0.259048
-0.261504
-0.265217
-0.270534
-0.279619
-0.283055
-0.281968
-0.280572
-0.278918
-0.27708
-0.275149
-0.273193
-0.271259
-0.26938
-0.267579
-0.265874
-0.264278
-0.262809
-0.261486
-0.260339
-0.25941
-0.258756
-0.258454
-0.2586
-0.259312
-0.260727
-0.26299
-0.266208
-0.270461
-0.27717
-0.287041
-0.285686
-0.284039
-0.28214
-0.280059
-0.277897
-0.275725
-0.273593
-0.271535
-0.269575
-0.267733
-0.266022
-0.264461
-0.26307
-0.261877
-0.260921
-0.260252
-0.259931
-0.260029
-0.260626
-0.2618
-0.263621
-0.266114
-0.269222
-0.273819
-0.2914
-0.289741
-0.28782
-0.285659
-0.283323
-0.28092
-0.278525
-0.276189
-0.273947
-0.271824
-0.269838
-0.268001
-0.26633
-0.264843
-0.263563
-0.262523
-0.261758
-0.261313
-0.261233
-0.261562
-0.262334
-0.263567
-0.26524
-0.267237
-0.270052
-0.296157
-0.29416
-0.291941
-0.289502
-0.286899
-0.284245
-0.28162
-0.279076
-0.276645
-0.27435
-0.272206
-0.270224
-0.268416
-0.266793
-0.265374
-0.26418
-0.263234
-0.262564
-0.262191
-0.262135
-0.2624
-0.262974
-0.263817
-0.264799
-0.266178
-0.301338
-0.298966
-0.296425
-0.293693
-0.290811
-0.287899
-0.285038
-0.282277
-0.279648
-0.277167
-0.274846
-0.272691
-0.270706
-0.268898
-0.267276
-0.265853
-0.26464
-0.26365
-0.262891
-0.262365
-0.262061
-0.261956
-0.262007
-0.262091
-0.262339
-0.306962
-0.304178
-0.301294
-0.298254
-0.295082
-0.291904
-0.2888
-0.285814
-0.282971
-0.280284
-0.277757
-0.275388
-0.273176
-0.271122
-0.269226
-0.267494
-0.26593
-0.264538
-0.263318
-0.262264
-0.261361
-0.260587
-0.259905
-0.259208
-0.258572
-0.313044
-0.309811
-0.306563
-0.303203
-0.299734
-0.296281
-0.292923
-0.289697
-0.286621
-0.283697
-0.280923
-0.278289
-0.27579
-0.273418
-0.271173
-0.269052
-0.267059
-0.265194
-0.263456
-0.261838
-0.260328
-0.258909
-0.257557
-0.256181
-0.254844
-0.319593
-0.315876
-0.312245
-0.308555
-0.304779
-0.301043
-0.297418
-0.293931
-0.29059
-0.287389
-0.284315
-0.281355
-0.278497
-0.275731
-0.273056
-0.270472
-0.26798
-0.265585
-0.263287
-0.261085
-0.258972
-0.256941
-0.254976
-0.253004
-0.251091
-0.326609
-0.322377
-0.318347
-0.314318
-0.310227
-0.306195
-0.302283
-0.298507
-0.294861
-0.291329
-0.287892
-0.284532
-0.281236
-0.277996
-0.274815
-0.271695
-0.268646
-0.265676
-0.262792
-0.259999
-0.257297
-0.254685
-0.252157
-0.249651
-0.247243
-0.334083
-0.329309
-0.324868
-0.320493
-0.316077
-0.311733
-0.307508
-0.303403
-0.299399
-0.295471
-0.291596
-0.287754
-0.283937
-0.280143
-0.276382
-0.272667
-0.269013
-0.265438
-0.261953
-0.258572
-0.255298
-0.252137
-0.249086
-0.246093
-0.243241
-0.341998
-0.336658
-0.331797
-0.32707
-0.322318
-0.31764
-0.313068
-0.308583
-0.304156
-0.299755
-0.295355
-0.290945
-0.286522
-0.282099
-0.277695
-0.273334
-0.269042
-0.264842
-0.260755
-0.256794
-0.25297
-0.249289
-0.245749
-0.242304
-0.239041
-0.350323
-0.3444
-0.339114
-0.33403
-0.328926
-0.323886
-0.318919
-0.313992
-0.309064
-0.304102
-0.299088
-0.29402
-0.288912
-0.283791
-0.278691
-0.273648
-0.268696
-0.263866
-0.25918
-0.254657
-0.250306
-0.246132
-0.242133
-0.238265
-0.234615
-0.359014
-0.352499
-0.346786
-0.341339
-0.335865
-0.330423
-0.325005
-0.319559
-0.314041
-0.308423
-0.3027
-0.296889
-0.291024
-0.285148
-0.279312
-0.273563
-0.267943
-0.262486
-0.257217
-0.252151
-0.247297
-0.242658
-0.238228
-0.233961
-0.229945
-0.368013
-0.360903
-0.354766
-0.348948
-0.343077
-0.337187
-0.331247
-0.325196
-0.31899
-0.312618
-0.306095
-0.299462
-0.292776
-0.286103
-0.279505
-0.273041
-0.266756
-0.260685
-0.254851
-0.249268
-0.243937
-0.23886
-0.234024
-0.229381
-0.225019
-0.377248
-0.369548
-0.362992
-0.356792
-0.350492
-0.344094
-0.337551
-0.330797
-0.323802
-0.316577
-0.309168
-0.301645
-0.294092
-0.286592
-0.279222
-0.272044
-0.265107
-0.258442
-0.252069
-0.245994
-0.240215
-0.234727
-0.229512
-0.224514
-0.219831
-0.38663
-0.378354
-0.371384
-0.36479
-0.358017
-0.351042
-0.343803
-0.336244
-0.328356
-0.320187
-0.311817
-0.303351
-0.294898
-0.286558
-0.278417
-0.27054
-0.262971
-0.255739
-0.248855
-0.242318
-0.23612
-0.230248
-0.22468
-0.219352
-0.214371
-0.396052
-0.387222
-0.379847
-0.372838
-0.365543
-0.35791
-0.349877
-0.341407
-0.332528
-0.323331
-0.31394
-0.304494
-0.295124
-0.285946
-0.277049
-0.268495
-0.260324
-0.252555
-0.245191
-0.238223
-0.231635
-0.225409
-0.219516
-0.213882
-0.208631
-0.405394
-0.396039
-0.388268
-0.38082
-0.372941
-0.364562
-0.355633
-0.346148
-0.336188
-0.325895
-0.31544
-0.304993
-0.294708
-0.284707
-0.275078
-0.265879
-0.257139
-0.248867
-0.241057
-0.233691
-0.226745
-0.220195
-0.214004
-0.208089
-0.202597
-0.414518
-0.404675
-0.396516
-0.388597
-0.380068
-0.37085
-0.36092
-0.350325
-0.339207
-0.327767
-0.316223
-0.304774
-0.293589
-0.282793
-0.272467
-0.26266
-0.25339
-0.244653
-0.236433
-0.228702
-0.22143
-0.214586
-0.208126
-0.201958
-0.196255
-0.423273
-0.412986
-0.404446
-0.396018
-0.386765
-0.376613
-0.365584
-0.353795
-0.341459
-0.328842
-0.316203
-0.303768
-0.291713
-0.280159
-0.269179
-0.258807
-0.249048
-0.239886
-0.231293
-0.223234
-0.215669
-0.208563
-0.201864
-0.19547
-0.189589
-0.431495
-0.420815
-0.411898
-0.40292
-0.392865
-0.381685
-0.369469
-0.356417
-0.342825
-0.329019
-0.315299
-0.30191
-0.289027
-0.276763
-0.265178
-0.254289
-0.244086
-0.234541
-0.225615
-0.217263
-0.20944
-0.202105
-0.195197
-0.188608
-0.18258
-0.439011
-0.427992
-0.418702
-0.409126
-0.398192
-0.385897
-0.372419
-0.358056
-0.343189
-0.328206
-0.313438
-0.29914
-0.285483
-0.272565
-0.260428
-0.249073
-0.238475
-0.228591
-0.219372
-0.210766
-0.202721
-0.195191
-0.188107
-0.18135
-0.17521
-0.445638
-0.43434
-0.424676
-0.414454
-0.402566
-0.389081
-0.374285
-0.358584
-0.342448
-0.326318
-0.310552
-0.295405
-0.281037
-0.267527
-0.254897
-0.24313
-0.232186
-0.222009
-0.212541
-0.20372
-0.195489
-0.187799
-0.180571
-0.17368
-0.167461
-0.451192
-0.439675
-0.429638
-0.41872
-0.40581
-0.391074
-0.374924
-0.357884
-0.340507
-0.323282
-0.306582
-0.290656
-0.275647
-0.261612
-0.248551
-0.23643
-0.225192
-0.214771
-0.205096
-0.196102
-0.187725
-0.179911
-0.172573
-0.165579
-0.159316
-0.455485
-0.443812
-0.4334
-0.421742
-0.407753
-0.391722
-0.374206
-0.355847
-0.337279
-0.319028
-0.301473
-0.284849
-0.269276
-0.254787
-0.241362
-0.228946
-0.217468
-0.206851
-0.197017
-0.187892
-0.179408
-0.171509
-0.164096
-0.157031
-0.15076
-0.458334
-0.446568
-0.43578
-0.42334
-0.408228
-0.390882
-0.372012
-0.35238
-0.332692
-0.3135
-0.295179
-0.277944
-0.261889
-0.247023
-0.233301
-0.220652
-0.208991
-0.19823
-0.188284
-0.179072
-0.170523
-0.162576
-0.155124
-0.148025
-0.14178
-0.45956
-0.447765
-0.436601
-0.423345
-0.407085
-0.388425
-0.368237
-0.347402
-0.326682
-0.306647
-0.287659
-0.269908
-0.253459
-0.238292
-0.224344
-0.211526
-0.19974
-0.188889
-0.178879
-0.169626
-0.161055
-0.153101
-0.145647
-0.138548
-0.132367
-0.458995
-0.447234
-0.435694
-0.421603
-0.404185
-0.384237
-0.362794
-0.340843
-0.319198
-0.29843
-0.278882
-0.260714
-0.243959
-0.228574
-0.214472
-0.20155
-0.189699
-0.178812
-0.16879
-0.159543
-0.150995
-0.143075
-0.135657
-0.128595
-0.122513
-0.456483
-0.444816
-0.432908
-0.417971
-0.39941
-0.378222
-0.355609
-0.332651
-0.310199
-0.288817
-0.268822
-0.250339
-0.233371
-0.217849
-0.203669
-0.19071
-0.178855
-0.167988
-0.158007
-0.148815
-0.140334
-0.132491
-0.12515
-0.118162
-0.112217
-0.451883
-0.440372
-0.428105
-0.412328
-0.392658
-0.370305
-0.346625
-0.322785
-0.299656
-0.277787
-0.25746
-0.238767
-0.221681
-0.206107
-0.191923
-0.178996
-0.167199
-0.156411
-0.146523
-0.137437
-0.129071
-0.121348
-0.114124
-0.10725
-0.101478
-0.445076
-0.433777
-0.42117
-0.404573
-0.38385
-0.360426
-0.335803
-0.311219
-0.287551
-0.265325
-0.244787
-0.225991
-0.208881
-0.193339
-0.179228
-0.166403
-0.154728
-0.144078
-0.134338
-0.125409
-0.117206
-0.109649
-0.102584
-0.0958649
-0.0903015
-0.43596
-0.424929
-0.412006
-0.394628
-0.372928
-0.348547
-0.323121
-0.29794
-0.273879
-0.25143
-0.2308
-0.212008
-0.194969
-0.179545
-0.165583
-0.15293
-0.141442
-0.130989
-0.121455
-0.112734
-0.104744
-0.0974005
-0.0905382
-0.084015
-0.0786983
-0.424458
-0.413749
-0.400542
-0.382436
-0.359856
-0.334649
-0.308572
-0.28295
-0.258643
-0.236106
-0.215504
-0.196823
-0.17995
-0.164728
-0.150993
-0.138582
-0.127346
-0.117152
-0.107879
-0.0994221
-0.0916951
-0.0846122
-0.0779985
-0.0717148
-0.066682
-0.410518
-0.400182
-0.38673
-0.367967
-0.344619
-0.318734
-0.292166
-0.266263
-0.24186
-0.219369
-0.198915
-0.180449
-0.163834
-0.148899
-0.135466
-0.123367
-0.11245
-0.102575
-0.0936222
-0.0854831
-0.0780717
-0.071299
-0.0649813
-0.0589825
-0.0542713
-0.39411
-0.384198
-0.370551
-0.351213
-0.327226
-0.30082
-0.273929
-0.247907
-0.223556
-0.201244
-0.181054
-0.162905
-0.14664
-0.132073
-0.119017
-0.107301
-0.0967654
-0.0872724
-0.0786972
-0.0709319
-0.0638897
-0.0574784
-0.0515065
-0.0458403
-0.0414882
-0.375234
-0.365794
-0.352007
-0.332192
-0.307707
-0.280945
-0.253901
-0.227924
-0.203771
-0.181766
-0.161951
-0.144218
-0.12839
-0.11427
-0.101666
-0.0903985
-0.08031
-0.071259
-0.0631204
-0.0557855
-0.0491673
-0.0431708
-0.0375975
-0.0323144
-0.0283591
-0.353914
-0.344991
-0.331128
-0.310946
-0.286112
-0.259165
-0.232141
-0.206366
-0.182553
-0.160978
-0.141646
-0.124422
-0.109116
-0.0955187
-0.0834341
-0.0726818
-0.063102
-0.0545529
-0.0469091
-0.0400619
-0.0339241
-0.0283986
-0.0232805
-0.0184354
-0.0149173
-0.330199
-0.321838
-0.307969
-0.287538
-0.262513
-0.235554
-0.208718
-0.1833
-0.159963
-0.138935
-0.120186
-0.103561
-0.0888526
-0.0758492
-0.0643499
-0.0541741
-0.0451619
-0.0371723
-0.0300804
-0.0237782
-0.0181787
-0.0131834
-0.00858241
-0.00423743
-0.00120462
-0.304165
-0.296407
-0.282608
-0.262053
-0.236998
-0.2102
-0.183718
-0.158805
-0.136072
-0.1157
-0.0976284
-0.081682
-0.0676446
-0.0552992
-0.0444446
-0.0349011
-0.0265108
-0.0191346
-0.0126493
-0.00694852
-0.00194617
0.00245692
0.0064721
0.0102434
0.0127341
-0.275911
-0.268796
-0.255146
-0.234598
-0.209676
-0.183208
-0.157238
-0.132972
-0.110962
-0.0913473
-0.074039
-0.0588449
-0.0455419
-0.0339112
-0.023753
-0.0148905
-0.00716927
-0.000454191
0.00537441
0.01042
0.0147669
0.0185125
0.0218646
0.0249763
0.0268702
-0.245558
-0.239123
-0.225706
-0.205299
-0.18067
-0.154696
-0.129391
-0.105901
-0.0847259
-0.0659615
-0.0494934
-0.0351165
-0.0226031
-0.0117348
-0.00231493
0.00582818
0.0128433
0.0188595
0.0239905
0.0283343
0.0319711
0.0349926
0.0375968
0.0399567
0.0412137
-0.21325
-0.20753
-0.19443
-0.174297
-0.150121
-0.124798
-0.1003
-0.077709
-0.0574691
-0.039638
-0.0240782
-0.0105745
0.0011036
0.0111722
0.0198228
0.0272206
0.0335063
0.0388008
0.0432083
0.0468179
0.0497016
0.0519403
0.0537151
0.0552267
0.0557795
-0.179148
-0.174175
-0.161476
-0.141751
-0.118179
-0.0936585
-0.0700995
-0.0485193
-0.0293066
-0.012483
0.0021089
0.0146926
0.0254991
0.0347411
0.0426038
0.049244
0.0547929
0.0593599
0.0630357
0.0658947
0.0679975
0.06941
0.0702753
0.0707818
0.0703926
-0.143431
-0.139235
-0.127022
-0.107833
-0.0850123
-0.0614324
-0.0389351
-0.0184675
-0.000364634
0.0153858
0.0289586
0.0405836
0.0504916
0.0588911
0.0659605
0.0718476
0.0766723
0.0805285
0.083486
0.0855954
0.0868995
0.0874357
0.0872337
0.0863377
0.0844899
-0.106295
-0.1029
-0.091254
-0.0727263
-0.0507944
-0.0282851
-0.00696146
0.0123015
0.0292208
0.04384
0.0563492
0.0669835
0.0759737
0.0835248
0.0898101
0.0949708
0.099117
0.102327
0.104645
0.106092
0.106681
0.106371
0.1049
0.101971
0.0981669
-0.0679453
-0.0653729
-0.0543734
-0.0366251
-0.0157097
0.00561042
0.0256594
0.0436352
0.059305
0.0727409
0.0841466
0.0937619
0.101817
0.108517
0.114034
0.118508
0.122051
0.124741
0.126618
0.127705
0.128028
0.12746
0.1253
0.120864
0.116182
-0.0286017
-0.0268693
-0.0165891
0.000269881
0.0200518
0.0400757
0.05876
0.0753753
0.0897368
0.101943
0.112208
0.120775
0.127876
0.133713
0.138462
0.142266
0.145249
0.147505
0.149111
0.150161
0.1508
0.150988
0.149863
0.14691
0.149081
0.0115175
0.0123946
0.021886
0.0377539
0.056296
0.0749288
0.092169
0.10736
0.120362
0.131295
0.140385
0.147875
0.153995
0.158948
0.162907
0.166019
0.168409
0.170182
0.171435
0.172287
0.172898
0.173252
0.172867
0.172157
0.176544
0.0521805
0.0521913
0.0608315
0.0756169
0.0928258
0.109985
0.125714
0.139427
0.151025
0.160649
0.168531
0.174916
0.180029
0.184071
0.187213
0.189601
0.191361
0.192604
0.193431
0.193965
0.194342
0.194544
0.194227
0.193869
0.197761
0.0931535
0.0922916
0.100025
0.113648
0.129444
0.145061
0.159223
0.171414
0.181573
0.189858
0.196506
0.201758
0.205838
0.208939
0.211229
0.212851
0.213928
0.214567
0.21487
0.214952
0.214935
0.214805
0.21427
0.213722
0.216684
0.134202
0.132465
0.139245
0.151637
0.165953
0.179974
0.192527
0.203162
0.211856
0.21878
0.224172
0.228272
0.231295
0.23343
0.234837
0.235654
0.235998
0.235971
0.235666
0.235185
0.234635
0.233989
0.232982
0.231977
0.234048
0.175092
0.172482
0.17827
0.189376
0.202161
0.214544
0.225458
0.234517
0.24173
0.247279
0.251402
0.254334
0.256285
0.257433
0.257934
0.257915
0.257488
0.256747
0.255776
0.254666
0.253506
0.252256
0.250672
0.249116
0.250325
0.215591
0.212115
0.216882
0.226659
0.237876
0.248596
0.257855
0.265329
0.271054
0.275224
0.278075
0.279834
0.280703
0.280854
0.280432
0.279558
0.278335
0.276849
0.275176
0.273395
0.271579
0.269682
0.267482
0.265347
0.26573
0.255472
0.251141
0.254866
0.263285
0.272914
0.281958
0.289561
0.295452
0.299696
0.302492
0.304074
0.304663
0.304452
0.303604
0.302255
0.300518
0.298488
0.296242
0.29385
0.29138
0.288893
0.286338
0.283518
0.280804
0.280395
0.294511
0.289341
0.292014
0.299061
0.307093
0.314467
0.320423
0.324747
0.327525
0.328964
0.329292
0.328724
0.327443
0.325603
0.323331
0.320734
0.317897
0.314892
0.311778
0.308618
0.305463
0.302257
0.298829
0.295549
0.294379
0.332493
0.326502
0.328123
0.333796
0.340241
0.345961
0.350295
0.353078
0.354419
0.354526
0.353625
0.351921
0.349588
0.346773
0.343594
0.340149
0.336517
0.332762
0.328937
0.325098
0.321287
0.317449
0.313436
0.309607
0.307708
0.369207
0.362421
0.362999
0.36731
0.37219
0.376289
0.379038
0.380319
0.380259
0.379071
0.376973
0.374163
0.370807
0.367042
0.362979
0.358707
0.354299
0.349813
0.345296
0.340798
0.336352
0.331907
0.327336
0.32298
0.32038
0.404453
0.3969
0.396455
0.39943
0.402782
0.405304
0.406516
0.406345
0.404933
0.402493
0.399241
0.395364
0.39102
0.386338
0.381421
0.376351
0.371195
0.366003
0.36082
0.355688
0.350635
0.345612
0.340512
0.335654
0.332384
0.438039
0.429753
0.428313
0.42999
0.431864
0.432868
0.432604
0.43104
0.428332
0.424696
0.420338
0.41544
0.410151
0.404592
0.398857
0.393024
0.387152
0.381288
0.37547
0.369734
0.364105
0.358537
0.352939
0.347605
0.343695
0.469784
0.460803
0.458405
0.458834
0.459293
0.458848
0.45718
0.454292
0.450356
0.445584
0.440178
0.434312
0.428127
0.421736
0.415227
0.408671
0.402122
0.395622
0.389203
0.382899
0.376728
0.370649
0.364586
0.358803
0.354287
0.499518
0.489883
0.486574
0.485816
0.484935
0.483122
0.480131
0.475999
0.470907
0.465069
0.458679
0.451905
0.444879
0.437707
0.430472
0.423238
0.416054
0.408958
0.401978
0.395143
0.388466
0.381913
0.375419
0.369216
0.36413
0.527082
0.516838
0.512673
0.510801
0.508665
0.505576
0.501352
0.496063
0.489897
0.483067
0.475764
0.468146
0.460339
0.452443
0.444534
0.436671
0.428899
0.421251
0.413752
0.406426
0.399283
0.392293
0.385404
0.378811
0.373194
0.552329
0.541526
0.536567
0.533662
0.530368
0.526102
0.520745
0.514392
0.507241
0.499503
0.491361
0.482969
0.474446
0.465886
0.45736
0.448921
0.440611
0.432458
0.424485
0.416709
0.409141
0.401754
0.394505
0.387556
0.381449
0.575125
0.563816
0.558132
0.554286
0.549938
0.544605
0.538222
0.530906
0.522864
0.514303
0.505404
0.496313
0.487144
0.477984
0.4689
0.459942
0.451146
0.442537
0.434136
0.425957
0.418006
0.410262
0.402691
0.395418
0.388867
0.59535
0.58359
0.577258
0.57257
0.567282
0.560998
0.553701
0.54553
0.536696
0.527406
0.517834
0.508122
0.498379
0.488687
0.479108
0.469689
0.460462
0.45145
0.44267
0.434133
0.425844
0.417785
0.409929
0.40237
0.395422
0.612898
0.600746
0.593846
0.588423
0.582315
0.575203
0.567112
0.558198
0.548676
0.538752
0.528597
0.518346
0.508105
0.497951
0.487944
0.478125
0.468524
0.459163
0.450054
0.441208
0.432625
0.424294
0.416192
0.408384
0.401091
0.627676
0.615193
0.607813
0.601766
0.594965
0.587154
0.578393
0.568853
0.558751
0.548293
0.537646
0.526942
0.516281
0.505739
0.49537
0.485214
0.4753
0.465644
0.45626
0.447153
0.438324
0.429764
0.421456
0.413438
0.405852
0.639606
0.626857
0.619086
0.612534
0.605171
0.596795
0.587492
0.577446
0.566876
0.555987
0.544943
0.533872
0.522873
0.512017
0.501357
0.49093
0.480762
0.470869
0.461262
0.451945
0.442918
0.434174
0.4257
0.417511
0.409688
0.648627
0.635676
0.627609
0.620673
0.612885
0.604081
0.594368
0.583938
0.573015
0.5618
0.550455
0.539108
0.527853
0.516759
0.505879
0.495247
0.484887
0.474816
0.46504
0.455564
0.446388
0.437506
0.428906
0.420589
0.412586
0.654692
0.641604
0.633338
0.626144
0.618069
0.608977
0.598988
0.588301
0.57714
0.565705
0.554159
0.542626
0.531199
0.519946
0.508918
0.498148
0.48766
0.477468
0.46758
0.457998
0.448721
0.439746
0.431062
0.422658
0.414535
0.657768
0.644612
0.636244
0.628919
0.620699
0.61146
0.601332
0.590514
0.579233
0.567687
0.556039
0.544412
0.532897
0.521564
0.510461
0.499622
0.489069
0.478816
0.46887
0.459235
0.449907
0.440885
0.432159
0.423711
0.415527
0.65784
0.644683
0.636314
0.628985
0.620762
0.61152
0.601389
0.590568
0.579284
0.567737
0.556086
0.544457
0.532941
0.521606
0.510502
0.499661
0.489107
0.478853
0.468907
0.45927
0.449942
0.440919
0.432192
0.423744
0.415558
0.654909
0.641818
0.633545
0.626342
0.618258
0.609156
0.599158
0.588463
0.577294
0.565853
0.554301
0.542762
0.53133
0.520073
0.50904
0.498267
0.487775
0.47758
0.467689
0.458104
0.448825
0.439847
0.431162
0.422756
0.41463
0.648988
0.636031
0.627954
0.621004
0.613199
0.604379
0.594651
0.584208
0.573272
0.562045
0.550691
0.539334
0.528071
0.51697
0.506083
0.495444
0.485079
0.475002
0.465222
0.455742
0.446561
0.437675
0.429073
0.420752
0.412745
0.64011
0.627354
0.619568
0.612996
0.60561
0.597212
0.587888
0.577822
0.567236
0.556331
0.545272
0.534189
0.523178
0.512311
0.501641
0.491206
0.48103
0.47113
0.461516
0.452192
0.44316
0.434411
0.425933
0.417739
0.40991
0.628322
0.615831
0.608431
0.602358
0.595528
0.587689
0.578901
0.569336
0.559212
0.548734
0.538069
0.527348
0.516672
0.506116
0.495735
0.485569
0.475644
0.465979
0.456586
0.447471
0.438635
0.430068
0.421755
0.41373
0.406137
0.613685
0.601522
0.5946
0.589144
0.583001
0.575855
0.567731
0.558787
0.549238
0.539289
0.529112
0.518841
0.508582
0.498412
0.488389
0.478557
0.468944
0.459571
0.450452
0.441595
0.433004
0.424665
0.416556
0.408741
0.401438
0.596277
0.584504
0.578145
0.573419
0.56809
0.561766
0.55443
0.546224
0.537358
0.528039
0.518441
0.508706
0.498941
0.48923
0.479633
0.470198
0.460956
0.451931
0.443139
0.43459
0.426291
0.418222
0.410358
0.402791
0.395832
0.57619
0.564865
0.559151
0.555262
0.550867
0.545488
0.53906
0.531704
0.523625
0.515031
0.506102
0.496984
0.48779
0.478608
0.469504
0.460527
0.451714
0.44309
0.434675
0.426483
0.41852
0.410764
0.403184
0.395902
0.389339
0.553529
0.542709
0.537715
0.534763
0.531416
0.527097
0.521691
0.515292
0.5081
0.500324
0.492149
0.483726
0.475176
0.466591
0.458042
0.449582
0.441253
0.433083
0.425093
0.417303
0.409722
0.402322
0.395062
0.388103
0.381982
0.528415
0.518152
0.513949
0.512024
0.50983
0.506682
0.502403
0.497063
0.490852
0.483981
0.47664
0.468988
0.461151
0.453227
0.445292
0.437407
0.429614
0.421946
0.41443
0.407087
0.399929
0.392925
0.386024
0.37942
0.373787
0.500981
0.491325
0.487975
0.487159
0.486214
0.484338
0.481286
0.477099
0.471957
0.466073
0.459642
0.452831
0.445771
0.438569
0.431306
0.424047
0.41684
0.409723
0.402724
0.39587
0.389177
0.382608
0.376102
0.369886
0.364783
0.471374
0.46237
0.459928
0.460294
0.460684
0.46017
0.458436
0.455489
0.451498
0.446677
0.441227
0.435321
0.429099
0.422675
0.416136
0.409553
0.402979
0.396455
0.390016
0.383692
0.377503
0.371407
0.36533
0.359534
0.355
0.439752
0.431443
0.429954
0.431565
0.433365
0.434294
0.43396
0.432331
0.429565
0.425876
0.421471
0.41653
0.411202
0.405606
0.399839
0.393977
0.388078
0.382189
0.376348
0.370592
0.364943
0.359357
0.353744
0.348396
0.344466
0.406286
0.398708
0.398212
0.401117
0.404389
0.406833
0.40797
0.407729
0.406255
0.403759
0.400455
0.396532
0.392147
0.387427
0.382475
0.377374
0.372188
0.366971
0.361764
0.356609
0.351535
0.346493
0.341376
0.336504
0.333213
0.371155
0.364343
0.364868
0.369105
0.373902
0.377917
0.380586
0.381794
0.381668
0.380419
0.378268
0.375409
0.372009
0.368204
0.364104
0.359799
0.35536
0.350846
0.346304
0.341781
0.337313
0.332848
0.328259
0.323888
0.321266
0.334553
0.328534
0.3301
0.335695
0.342052
0.347685
0.351935
0.354641
0.355912
0.355956
0.354998
0.353242
0.350863
0.348006
0.344788
0.341308
0.337644
0.333859
0.330007
0.326143
0.322308
0.318449
0.314418
0.310572
0.30865
0.296678
0.291478
0.294094
0.30106
0.309001
0.316283
0.322151
0.326395
0.3291
0.330473
0.330742
0.330119
0.328789
0.326905
0.324593
0.321959
0.319089
0.316052
0.31291
0.309724
0.306544
0.303315
0.299868
0.29657
0.295377
0.25774
0.253379
0.257045
0.265381
0.274914
0.283864
0.291375
0.297182
0.30135
0.304077
0.305597
0.30613
0.305868
0.304974
0.303583
0.301807
0.299742
0.297465
0.295042
0.292545
0.290033
0.287454
0.284613
0.281881
0.281447
0.217956
0.214449
0.219155
0.228846
0.239966
0.250586
0.259752
0.267139
0.272785
0.276883
0.279669
0.28137
0.282187
0.28229
0.281824
0.280911
0.279652
0.278132
0.276428
0.274619
0.272777
0.270855
0.268634
0.26648
0.266837
0.177547
0.174906
0.180632
0.19165
0.204335
0.216616
0.227433
0.236403
0.243533
0.249009
0.253066
0.255938
0.257834
0.258934
0.259389
0.25933
0.258865
0.25809
0.257087
0.255948
0.25476
0.253485
0.251879
0.250303
0.251485
0.136742
0.134973
0.14169
0.153993
0.168207
0.182123
0.194576
0.20512
0.21373
0.220578
0.225902
0.22994
0.232908
0.234992
0.236354
0.237129
0.237435
0.237373
0.237035
0.236525
0.235947
0.235274
0.234244
0.233219
0.235262
0.0957724
0.0948771
0.102548
0.11608
0.131772
0.147283
0.161343
0.17344
0.183513
0.191721
0.198299
0.203489
0.207512
0.210562
0.212806
0.214385
0.215423
0.216027
0.216298
0.216349
0.216304
0.216146
0.215588
0.215019
0.217952
0.0548712
0.0548481
0.0634247
0.0781193
0.0952233
0.112275
0.127901
0.141517
0.153028
0.162574
0.170385
0.176706
0.181762
0.185752
0.188847
0.191192
0.192914
0.194121
0.194916
0.195419
0.195768
0.195943