1.275 	2.15223e-18 	-2.76991e-20 	-0.408455
1.825 	2.15223e-18 	-1.39322e-20 	-0.344379
2.375 	2.15223e-18 	1.38775e-18 	-0.296109
2.925 	2.15223e-18 	2.78958e-18 	-0.25225
3.475 	2.15223e-18 	4.53849e-18 	-0.130859
4.025 	2.15223e-18 	6.28755e-18 	-0.0578
4.575 	2.15223e-18 	6.30203e-18 	-0.129954
5.125 	2.15223e-18 	6.31666e-18 	-0.156626
5.675 	2.15223e-18 	6.33144e-18 	-0.0905787
6.225 	2.15223e-18 	4.61166e-18 	-0.0718679
