1.22 	3.45254e-18 	-6.98323e-18 	-0.0597821 	0.0540388 	-7.59614e-22
1.66 	3.45254e-18 	-6.96118e-18 	0.0363016 	-0.473357 	-5.31042e-23
2.1 	3.45254e-18 	-6.93894e-18 	-0.150069 	-0.61699 	-1.34008e-21
2.54 	3.45254e-18 	-8.30431e-18 	0.387143 	-0.0840046 	3.38096e-23
2.98 	3.45254e-18 	-8.28171e-18 	0.648577 	0.393652 	1.36257e-21
3.42 	3.45254e-18 	-6.87115e-18 	0.592194 	0.640603 	9.81997e-22
3.86 	3.45254e-18 	-6.84819e-18 	0.509399 	0.616617 	1.41727e-22
4.3 	3.45254e-18 	-6.82504e-18 	0.702858 	0.179276 	6.94121e-22
4.74 	3.45254e-18 	-5.41391e-18 	0.871039 	-0.247607 	-6.66332e-22
5.18 	3.45254e-18 	-2.61482e-18 	0.866647 	-0.489793 	-3.47116e-22
5.62 	3.45254e-18 	-1.2033e-18 	0.768318 	-0.614154 	1.33505e-22
6.06 	3.45254e-18 	-1.17937e-18 	0.796439 	-0.460205 	2.95717e-22
6.5 	3.45254e-18 	-1.15524e-18 	0.88255 	-0.113388 	-2.8756e-22
