/*--------------------------------*- C++ -*----------------------------------*\
  =========                 |
  \\      /  F ield         | OpenFOAM: The Open Source CFD Toolbox
   \\    /   O peration     | Website:  https://openfoam.org
    \\  /    A nd           | Version:  6.0
     \\/     M anipulation  |
\*---------------------------------------------------------------------------*/
FoamFile
{
    version     2.0;
    format      ascii;
    class       volScalarField;
    location    "9.9";
    object      p;
}
// * * * * * * * * * * * * * * * * * * * * * * * * * * * * * * * * * * * * * //

dimensions      [0 2 -2 0 0 0 0];

internalField   nonuniform List<scalar> 
8000
(
-0.305289
-0.306852
-0.307853
-0.308586
-0.309233
-0.309828
-0.310399
-0.310968
-0.311548
-0.31215
-0.312781
-0.313446
-0.314153
-0.314907
-0.315719
-0.316615
-0.317587
-0.318461
-0.31921
-0.321542
-0.305532
-0.307065
-0.308048
-0.308768
-0.309404
-0.309989
-0.31055
-0.311109
-0.31168
-0.312272
-0.312892
-0.313546
-0.314241
-0.314984
-0.315784
-0.316669
-0.317632
-0.318499
-0.319237
-0.321565
-0.306004
-0.307478
-0.308425
-0.30912
-0.309734
-0.310298
-0.310839
-0.311378
-0.311928
-0.312498
-0.313096
-0.313727
-0.314398
-0.315115
-0.315891
-0.316752
-0.317695
-0.318547
-0.319261
-0.321579
-0.306689
-0.308079
-0.308975
-0.309632
-0.310211
-0.310743
-0.311253
-0.31176
-0.312278
-0.312815
-0.313377
-0.31397
-0.314602
-0.315279
-0.316015
-0.316837
-0.317748
-0.318573
-0.31925
-0.321547
-0.307566
-0.308852
-0.309682
-0.31029
-0.310823
-0.311311
-0.311777
-0.31224
-0.312711
-0.3132
-0.313711
-0.314251
-0.314827
-0.315447
-0.316124
-0.31689
-0.317752
-0.318536
-0.31916
-0.321422
-0.308609
-0.309777
-0.31053
-0.311077
-0.311553
-0.311984
-0.312392
-0.312796
-0.313207
-0.313631
-0.314073
-0.314542
-0.315043
-0.315585
-0.316183
-0.316872
-0.317664
-0.31839
-0.318943
-0.321152
-0.309792
-0.310833
-0.311501
-0.311978
-0.312383
-0.312744
-0.313081
-0.313411
-0.313743
-0.314085
-0.31444
-0.314816
-0.31522
-0.315662
-0.316157
-0.316745
-0.317443
-0.31809
-0.318552
-0.320687
-0.31109
-0.312002
-0.312578
-0.312975
-0.3133
-0.313578
-0.313828
-0.314068
-0.314304
-0.314544
-0.314792
-0.315054
-0.315337
-0.315652
-0.316019
-0.316476
-0.317054
-0.317595
-0.317944
-0.319984
-0.312481
-0.313268
-0.313748
-0.314057
-0.31429
-0.314472
-0.314622
-0.314754
-0.314878
-0.314998
-0.315118
-0.315243
-0.315381
-0.315544
-0.315752
-0.316048
-0.316471
-0.316876
-0.317087
-0.31901
-0.31395
-0.314618
-0.315
-0.315214
-0.315345
-0.315419
-0.315454
-0.315466
-0.315461
-0.315445
-0.315418
-0.315386
-0.315356
-0.315339
-0.315357
-0.315458
-0.31569
-0.31592
-0.315961
-0.317743
-0.315486
-0.316046
-0.31633
-0.316442
-0.316462
-0.316417
-0.316326
-0.316204
-0.316059
-0.315892
-0.315704
-0.315499
-0.31528
-0.315058
-0.314856
-0.314724
-0.314721
-0.314729
-0.314554
-0.316163
-0.317091
-0.317551
-0.317737
-0.317742
-0.317642
-0.317468
-0.317241
-0.316977
-0.316682
-0.316357
-0.316
-0.31561
-0.315188
-0.314743
-0.314293
-0.31389
-0.313601
-0.313322
-0.312863
-0.314247
-0.318771
-0.319142
-0.319227
-0.319118
-0.31889
-0.318579
-0.318209
-0.317797
-0.317348
-0.316862
-0.316334
-0.315757
-0.315128
-0.314447
-0.313728
-0.313016
-0.312384
-0.311739
-0.310893
-0.31196
-0.320543
-0.32083
-0.320812
-0.32058
-0.320217
-0.319761
-0.319242
-0.318678
-0.318075
-0.317431
-0.316737
-0.31598
-0.315148
-0.314231
-0.313229
-0.312178
-0.311144
-0.310035
-0.308653
-0.309247
-0.322432
-0.322636
-0.322507
-0.322144
-0.321634
-0.321026
-0.320352
-0.319634
-0.31888
-0.318084
-0.317234
-0.316309
-0.315287
-0.314142
-0.312857
-0.311445
-0.309953
-0.308272
-0.306161
-0.30604
-0.324469
-0.324584
-0.324335
-0.323827
-0.323159
-0.322387
-0.321552
-0.320678
-0.319772
-0.318831
-0.317835
-0.316757
-0.315563
-0.314208
-0.312651
-0.31087
-0.308878
-0.306527
-0.303476
-0.302306
-0.326691
-0.326705
-0.326319
-0.325651
-0.32481
-0.323863
-0.322856
-0.321818
-0.32076
-0.319674
-0.318539
-0.317321
-0.315971
-0.314427
-0.312617
-0.310479
-0.307978
-0.304905
-0.30075
-0.298135
-0.329142
-0.329035
-0.328492
-0.327643
-0.32661
-0.32547
-0.324278
-0.323066
-0.321848
-0.320614
-0.319342
-0.317989
-0.316497
-0.314784
-0.312748
-0.310277
-0.307276
-0.303465
-0.298084
-0.293537
-0.33187
-0.331612
-0.330885
-0.329832
-0.328585
-0.327233
-0.325839
-0.324439
-0.323048
-0.32166
-0.320248
-0.318769
-0.317157
-0.315318
-0.313126
-0.310418
-0.307007
-0.302462
-0.295619
-0.288431
-0.334925
-0.33448
-0.333539
-0.332253
-0.330767
-0.329181
-0.327565
-0.325961
-0.324385
-0.322835
-0.321286
-0.3197
-0.318021
-0.316172
-0.314054
-0.311532
-0.308422
-0.304195
-0.297342
-0.289122
-0.338362
-0.337685
-0.336493
-0.334945
-0.333192
-0.331349
-0.329492
-0.327667
-0.325895
-0.324174
-0.322491
-0.320818
-0.319127
-0.317393
-0.315611
-0.313827
-0.31218
-0.310919
-0.311074
-0.318922
-0.342237
-0.341276
-0.339792
-0.337949
-0.335903
-0.33378
-0.331664
-0.329604
-0.327623
-0.325725
-0.323903
-0.322144
-0.320445
-0.318818
-0.317319
-0.316072
-0.315321
-0.315457
-0.317327
-0.324863
-0.346607
-0.345302
-0.343484
-0.341313
-0.338946
-0.336522
-0.33413
-0.331823
-0.329623
-0.32754
-0.32557
-0.323713
-0.32198
-0.320407
-0.319073
-0.318116
-0.317759
-0.318308
-0.320198
-0.325339
-0.351527
-0.349815
-0.347617
-0.345084
-0.342372
-0.339628
-0.336946
-0.334379
-0.33195
-0.329666
-0.327527
-0.325537
-0.323713
-0.322093
-0.320752
-0.319801
-0.319391
-0.319696
-0.320914
-0.323734
-0.357052
-0.354863
-0.352239
-0.349314
-0.346231
-0.34315
-0.340165
-0.337324
-0.334646
-0.332135
-0.329788
-0.327603
-0.325594
-0.323793
-0.32225
-0.321039
-0.320241
-0.319924
-0.320174
-0.320992
-0.36323
-0.360494
-0.3574
-0.354052
-0.350578
-0.347143
-0.343837
-0.340701
-0.337745
-0.334961
-0.332338
-0.329868
-0.327555
-0.325417
-0.323484
-0.321795
-0.320386
-0.319272
-0.318494
-0.317771
-0.370107
-0.366752
-0.363144
-0.359348
-0.355463
-0.351654
-0.348005
-0.34454
-0.341255
-0.338128
-0.335137
-0.332265
-0.329507
-0.326872
-0.324378
-0.322046
-0.319893
-0.317918
-0.316145
-0.31424
-0.377717
-0.373673
-0.369513
-0.365245
-0.360929
-0.356724
-0.352697
-0.348852
-0.345163
-0.341595
-0.338115
-0.334702
-0.331348
-0.328063
-0.324863
-0.321771
-0.318801
-0.315959
-0.313264
-0.310442
-0.386082
-0.381284
-0.37654
-0.37178
-0.367012
-0.362377
-0.35792
-0.353618
-0.349422
-0.345287
-0.341174
-0.337066
-0.332966
-0.328893
-0.324876
-0.320944
-0.317124
-0.313435
-0.309891
-0.306307
-0.395211
-0.389601
-0.384245
-0.378976
-0.373728
-0.368616
-0.363654
-0.358787
-0.353952
-0.349096
-0.34419
-0.339233
-0.334248
-0.329275
-0.324358
-0.319543
-0.314866
-0.310358
-0.306029
-0.301767
-0.405089
-0.39862
-0.392631
-0.386835
-0.381069
-0.375412
-0.36984
-0.364273
-0.358637
-0.352889
-0.347026
-0.341074
-0.335088
-0.32913
-0.323265
-0.317549
-0.312027
-0.306732
-0.301668
-0.296772
-0.415679
-0.408314
-0.40168
-0.395334
-0.388997
-0.382699
-0.376382
-0.369946
-0.363327
-0.356512
-0.349534
-0.342464
-0.335388
-0.328394
-0.321561
-0.314951
-0.308609
-0.302564
-0.296806
-0.291305
-0.426911
-0.418629
-0.411341
-0.404416
-0.397432
-0.390369
-0.383139
-0.375643
-0.36785
-0.359795
-0.351569
-0.343286
-0.335065
-0.327015
-0.319221
-0.311742
-0.304614
-0.297858
-0.291447
-0.285367
-0.43868
-0.429477
-0.421532
-0.413983
-0.406252
-0.398267
-0.389929
-0.381169
-0.372014
-0.36257
-0.35299
-0.343434
-0.334049
-0.324951
-0.316223
-0.307912
-0.300044
-0.29262
-0.285596
-0.278969
-0.450846
-0.440735
-0.432127
-0.423895
-0.415287
-0.406194
-0.396536
-0.386307
-0.375621
-0.364668
-0.353667
-0.342816
-0.332276
-0.322162
-0.312544
-0.303451
-0.294891
-0.286848
-0.279253
-0.272122
-0.463225
-0.452237
-0.442958
-0.433961
-0.424319
-0.41391
-0.402715
-0.390827
-0.378472
-0.365932
-0.353481
-0.341346
-0.329689
-0.31861
-0.308158
-0.29834
-0.289142
-0.280531
-0.272412
-0.264826
-0.475591
-0.463775
-0.453812
-0.443944
-0.433087
-0.421144
-0.408204
-0.394498
-0.380377
-0.366213
-0.352324
-0.338948
-0.326232
-0.314253
-0.303032
-0.292551
-0.282776
-0.273652
-0.26506
-0.257073
-0.48768
-0.475098
-0.464428
-0.453564
-0.441294
-0.427602
-0.412735
-0.397092
-0.381157
-0.365376
-0.350097
-0.335546
-0.321847
-0.309044
-0.297126
-0.286051
-0.275761
-0.266182
-0.257171
-0.248844
-0.49919
-0.485917
-0.474507
-0.462503
-0.448617
-0.432979
-0.416042
-0.398395
-0.380645
-0.363298
-0.346704
-0.331068
-0.316475
-0.302933
-0.290397
-0.278799
-0.268061
-0.258089
-0.248716
-0.240115
-0.509785
-0.495908
-0.483714
-0.470416
-0.45472
-0.436971
-0.417872
-0.398207
-0.378692
-0.359864
-0.342059
-0.325443
-0.310057
-0.295867
-0.282796
-0.27075
-0.259635
-0.249334
-0.239662
-0.230854
-0.519108
-0.504718
-0.491688
-0.476939
-0.459262
-0.439285
-0.41799
-0.396348
-0.37516
-0.35497
-0.336079
-0.318601
-0.30253
-0.287789
-0.274271
-0.261859
-0.25044
-0.239879
-0.229972
-0.221026
-0.526783
-0.511977
-0.498054
-0.481707
-0.461915
-0.439648
-0.416182
-0.392659
-0.36993
-0.348523
-0.328686
-0.310476
-0.293834
-0.278646
-0.264774
-0.252079
-0.240435
-0.229685
-0.219611
-0.2106
-0.532432
-0.517305
-0.502432
-0.484363
-0.462369
-0.437813
-0.412264
-0.386999
-0.362896
-0.340438
-0.319809
-0.301003
-0.283913
-0.268386
-0.254257
-0.241368
-0.22958
-0.218716
-0.208546
-0.199545
-0.535681
-0.520331
-0.504456
-0.484572
-0.460346
-0.433567
-0.406075
-0.379253
-0.353968
-0.33064
-0.309383
-0.290126
-0.272716
-0.256962
-0.242677
-0.229688
-0.217842
-0.206942
-0.196752
-0.187835
-0.536172
-0.520694
-0.503781
-0.482031
-0.455604
-0.42673
-0.397487
-0.369325
-0.34307
-0.319068
-0.297353
-0.277797
-0.260197
-0.244335
-0.23
-0.217008
-0.205192
-0.194338
-0.184206
-0.175451
-0.533578
-0.518064
-0.500094
-0.476476
-0.447945
-0.417159
-0.386399
-0.35714
-0.330144
-0.305671
-0.283677
-0.263974
-0.246321
-0.230471
-0.216198
-0.203303
-0.191611
-0.180887
-0.170895
-0.162381
-0.527607
-0.512149
-0.493129
-0.467695
-0.437212
-0.404751
-0.372742
-0.342649
-0.31515
-0.290414
-0.26832
-0.248629
-0.231061
-0.21535
-0.201251
-0.188558
-0.177086
-0.166581
-0.156815
-0.14862
-0.518015
-0.502702
-0.482669
-0.455523
-0.423301
-0.38944
-0.356475
-0.325822
-0.298065
-0.273276
-0.251265
-0.231744
-0.214404
-0.198958
-0.18515
-0.172767
-0.161613
-0.151419
-0.141967
-0.134171
-0.50461
-0.489533
-0.468555
-0.439854
-0.406151
-0.371199
-0.337587
-0.306657
-0.278885
-0.254253
-0.232507
-0.213315
-0.196345
-0.181294
-0.167896
-0.155932
-0.145199
-0.135411
-0.126366
-0.119047
-0.487261
-0.47251
-0.45069
-0.420638
-0.38575
-0.350038
-0.316097
-0.285171
-0.257626
-0.233357
-0.212054
-0.193349
-0.176892
-0.162365
-0.149498
-0.138066
-0.127859
-0.118577
-0.110035
-0.103274
-0.465898
-0.451567
-0.429038
-0.39788
-0.362133
-0.326006
-0.292053
-0.261407
-0.234324
-0.210618
-0.18993
-0.171867
-0.156061
-0.142188
-0.129972
-0.119186
-0.109613
-0.100944
-0.0930081
-0.0868937
-0.440519
-0.426701
-0.403627
-0.371641
-0.33538
-0.299184
-0.265532
-0.235432
-0.209034
-0.186081
-0.166175
-0.148901
-0.133881
-0.120786
-0.10934
-0.0993143
-0.0904856
-0.0825397
-0.0753238
-0.0699519
-0.411186
-0.397978
-0.374545
-0.342033
-0.305613
-0.269691
-0.23664
-0.207338
-0.181834
-0.159813
-0.140842
-0.124494
-0.110387
-0.0981899
-0.0876278
-0.0784727
-0.0704981
-0.0633908
-0.0570145
-0.0524713
-0.378024
-0.365524
-0.341939
-0.309218
-0.272995
-0.237679
-0.205512
-0.177241
-0.152824
-0.131895
-0.113999
-0.0987012
-0.0856206
-0.0744308
-0.0648595
-0.0566813
-0.0496711
-0.0435228
-0.0381039
-0.0344413
-0.341223
-0.329528
-0.306013
-0.273408
-0.237727
-0.203332
-0.172312
-0.145284
-0.122126
-0.102431
-0.0857297
-0.0715886
-0.0596315
-0.0495412
-0.0410539
-0.0339514
-0.0280154
-0.0229503
-0.0186019
-0.0158615
-0.301026
-0.290233
-0.267018
-0.234852
-0.200048
-0.166866
-0.137231
-0.111636
-0.0898876
-0.0715468
-0.05614
-0.0432388
-0.0324789
-0.023558
-0.016228
-0.0102832
-0.00551843
-0.0016551
0.00148403
0.00313101
-0.257733
-0.247937
-0.225253
-0.193841
-0.160227
-0.128526
-0.10049
-0.076493
-0.0562807
-0.0393923
-0.0253549
-0.0137519
-0.00423737
0.00346855
0.00959019
0.0143167
0.0178362
0.0203702
0.0220287
0.0221225
-0.211688
-0.202977
-0.181053
-0.150697
-0.118564
-0.0885863
-0.0623364
-0.0400787
-0.0215056
-0.00614145
0.00648108
0.016762
0.0250223
0.0315081
0.0364087
0.0398916
0.042103
0.0430829
0.0427056
0.0406656
-0.163274
-0.155732
-0.13479
-0.105772
-0.0753848
-0.0473456
-0.0230462
-0.00264742
0.0142041
0.0279961
0.0391908
0.0481735
0.0552417
0.0606057
0.0644173
0.0668121
0.0678183
0.0670687
0.064077
0.0598695
-0.112908
-0.10661
-0.0868584
-0.0594398
-0.0310359
-0.00512505
0.0170804
0.0355154
0.0505737
0.0627544
0.0725194
0.0802519
0.0862457
0.0907098
0.0938088
0.0956963
0.0962708
0.0946609
0.0901508
0.0856097
-0.0610309
-0.0560439
-0.0376737
-0.0120886
0.014123
0.0377405
0.0577268
0.0741034
0.0872974
0.0978154
0.10612
0.112598
0.117557
0.121245
0.123913
0.125841
0.127
0.126382
0.123728
0.127492
-0.00809389
-0.00447539
0.0123395
0.0358849
0.0597249
0.0809101
0.0985713
0.112807
0.124068
0.132862
0.139646
0.144799
0.148627
0.15139
0.153355
0.154789
0.155676
0.155532
0.155277
0.161223
0.0454351
0.0476393
0.0627489
0.0840801
0.105402
0.124044
0.139296
0.151322
0.160592
0.167609
0.172817
0.176586
0.179218
0.180968
0.182092
0.182813
0.183111
0.182685
0.182467
0.187272
0.0990863
0.0998432
0.113123
0.1321
0.150792
0.166809
0.179591
0.189359
0.196591
0.20178
0.205355
0.207669
0.209009
0.209618
0.209733
0.209551
0.209066
0.20805
0.207268
0.210539
0.152393
0.151683
0.163037
0.179556
0.195541
0.208883
0.219162
0.226645
0.231813
0.235145
0.237049
0.237859
0.237842
0.237223
0.23621
0.234973
0.233493
0.231569
0.229905
0.23175
0.204895
0.202714
0.212074
0.226068
0.239307
0.249958
0.257727
0.262922
0.266022
0.267488
0.267705
0.266986
0.265576
0.263681
0.261484
0.25913
0.256582
0.253664
0.251041
0.251521
0.256147
0.252502
0.259833
0.271273
0.281763
0.289737
0.29502
0.297952
0.299005
0.298618
0.297156
0.294907
0.292097
0.288909
0.285508
0.282009
0.27837
0.27444
0.270856
0.270047
0.305715
0.300632
0.305928
0.314821
0.322595
0.327941
0.33079
0.331508
0.330557
0.328357
0.325247
0.321494
0.317303
0.312839
0.308245
0.303617
0.298908
0.293992
0.289474
0.28744
0.353187
0.346706
0.34999
0.356381
0.361508
0.364304
0.364799
0.363378
0.360491
0.356537
0.351832
0.346622
0.341092
0.335389
0.329639
0.32392
0.318183
0.31233
0.306917
0.303723
0.398173
0.390348
0.391673
0.395641
0.398222
0.398577
0.396823
0.39336
0.388627
0.382999
0.376772
0.37017
0.363362
0.356477
0.349625
0.34287
0.336165
0.329432
0.323171
0.318883
0.440304
0.431205
0.430652
0.43231
0.432476
0.430525
0.426652
0.421267
0.414796
0.407593
0.399933
0.392022
0.384011
0.376015
0.368129
0.360405
0.3528
0.345251
0.338197
0.332883
0.479241
0.46895
0.466628
0.466117
0.464029
0.459933
0.454091
0.446923
0.438839
0.430175
0.421187
0.412062
0.402937
0.393914
0.385073
0.376456
0.368024
0.359729
0.35194
0.345675
0.51467
0.503284
0.499324
0.496815
0.492658
0.486599
0.47896
0.470164
0.460609
0.450614
0.440414
0.430184
0.420044
0.410086
0.400375
0.390948
0.38177
0.372801
0.364343
0.357209
0.546309
0.533936
0.528493
0.52418
0.518163
0.510345
0.501095
0.490842
0.479971
0.468785
0.457503
0.446283
0.435238
0.424444
0.41396
0.403811
0.393971
0.384404
0.375346
0.367431
0.573907
0.560667
0.553915
0.548014
0.540366
0.531007
0.520349
0.508824
0.496804
0.484577
0.47235
0.460269
0.448433
0.436912
0.425752
0.414977
0.404562
0.394477
0.384893
0.376293
0.597245
0.583267
0.575397
0.568145
0.559111
0.548446
0.536596
0.523993
0.511001
0.497894
0.484868
0.472057
0.459553
0.447417
0.435687
0.424383
0.413484
0.402962
0.392932
0.383749
0.616141
0.601561
0.59278
0.584426
0.574268
0.562543
0.549726
0.536251
0.522471
0.508651
0.494977
0.481576
0.468532
0.455898
0.443708
0.431976
0.420687
0.409813
0.39942
0.389762
0.630444
0.615408
0.605932
0.596742
0.58573
0.573201
0.559653
0.545516
0.53114
0.516781
0.502617
0.488769
0.475315
0.462305
0.449766
0.437711
0.426127
0.414987
0.404318
0.3943
0.640044
0.6247
0.614757
0.605004
0.593417
0.580349
0.566309
0.551728
0.536952
0.52223
0.507738
0.49359
0.479862
0.466599
0.453827
0.441555
0.429773
0.418454
0.4076
0.397339
0.644865
0.629366
0.619187
0.609151
0.597276
0.583937
0.56965
0.554846
0.539869
0.524966
0.510308
0.496009
0.482143
0.468754
0.455864
0.443483
0.431603
0.420194
0.409247
0.398864
0.644869
0.62937
0.619191
0.609155
0.59728
0.58394
0.569653
0.554849
0.539872
0.524968
0.51031
0.496012
0.482146
0.468756
0.455867
0.443486
0.431605
0.420197
0.409249
0.398866
0.640057
0.624713
0.614769
0.605015
0.593428
0.580359
0.566319
0.551738
0.536961
0.522239
0.507746
0.493598
0.47987
0.466606
0.453834
0.441562
0.42978
0.418461
0.407607
0.397346
0.630465
0.615428
0.605952
0.596761
0.585748
0.573218
0.559669
0.545532
0.531155
0.516795
0.502631
0.488782
0.475328
0.462317
0.449779
0.437723
0.426139
0.414998
0.40433
0.394311
0.61617
0.60159
0.592807
0.584453
0.574293
0.562567
0.549749
0.536272
0.522492
0.508671
0.494997
0.481595
0.46855
0.455916
0.443725
0.431992
0.420703
0.409829
0.399435
0.389777
0.597283
0.583304
0.575433
0.568178
0.559144
0.548476
0.536625
0.524021
0.511028
0.49792
0.484893
0.472081
0.459576
0.447439
0.435709
0.424404
0.413505
0.402983
0.392953
0.383769
0.573953
0.560712
0.553958
0.548055
0.540405
0.531044
0.520385
0.508858
0.496837
0.484609
0.472381
0.460298
0.448461
0.436939
0.425779
0.415003
0.404588
0.394502
0.384918
0.376316
0.546363
0.53399
0.528544
0.524229
0.51821
0.510389
0.501137
0.490882
0.48001
0.468822
0.457538
0.446318
0.435271
0.424477
0.413991
0.403842
0.394001
0.384434
0.375375
0.367459
0.514732
0.503345
0.499383
0.496871
0.492711
0.48665
0.479008
0.47021
0.460653
0.450656
0.440456
0.430223
0.420083
0.410123
0.400412
0.390984
0.381805
0.372835
0.364376
0.357241
0.479311
0.469019
0.466694
0.466181
0.464089
0.45999
0.454146
0.446975
0.438889
0.430224
0.421234
0.412107
0.402981
0.393957
0.385114
0.376496
0.368063
0.359767
0.351978
0.345712
0.440383
0.431282
0.430726
0.432381
0.432543
0.430589
0.426713
0.421325
0.414851
0.407647
0.399985
0.392072
0.384059
0.376063
0.368175
0.36045
0.352844
0.345294
0.338238
0.332923
0.398259
0.390433
0.391754
0.395719
0.398295
0.398647
0.39689
0.393424
0.388688
0.383058
0.376829
0.370225
0.363415
0.356529
0.349676
0.342919
0.336213
0.329479
0.323217
0.318927
0.353281
0.346799
0.350078
0.356466
0.361588
0.36438
0.364872
0.363448
0.360558
0.356602
0.351895
0.346682
0.34115
0.335446
0.329694
0.323974
0.318236
0.312382
0.306967
0.303772
0.305816
0.300732
0.306024
0.314912
0.322682
0.328024
0.330869
0.331584
0.33063
0.328427
0.325315
0.321559
0.317366
0.312901
0.308305
0.303676
0.298965
0.294048
0.289528
0.287493
0.256256
0.252609
0.259937
0.271371
0.281857
0.289826
0.295105
0.298033
0.299083
0.298694
0.297229
0.294978
0.292165
0.288976
0.285572
0.282072
0.278431
0.2745
0.270915
0.270104
0.205012
0.202828
0.212185
0.226173
0.239407
0.250053
0.257818
0.263009
0.266106
0.267569
0.267783
0.267061
0.265649
0.263752
0.261554
0.259197
0.256648
0.253728
0.251104
0.251582
0.152516
0.151805
0.163154
0.179668
0.195648
0.208985
0.219259
0.226737
0.231902
0.23523
0.237132
0.237939
0.23792
0.237299
0.236284
0.235045
0.233563
0.231638
0.229972
0.231815
0.099217
0.0999717
0.113247
0.132219
0.150905
0.166916
0.179694
0.189457
0.196685
0.201871
0.205443
0.207754
0.209091
0.209699
0.209811
0.209627
0.20914
0.208123
0.207339
0.210608
0.0455725
0.0477746
0.0628796
0.0842049
0.105521
0.124157
0.139404
0.151426
0.160692
0.167705
0.17291
0.176676
0.179305
0.181053
0.182175
0.182894
0.183189
0.182762
0.182542
0.187345
-0.00794989
-0.00433358
0.0124766
0.0360159
0.0598496
0.0810289
0.0986849
0.112916
0.124173
0.132963
0.139744
0.144894
0.148719
0.15148
0.153443
0.154874
0.155759
0.155614
0.155357
0.161301
-0.0608806
-0.0558958
-0.0375304
-0.0119515
0.0142535
0.0378649
0.0578458
0.0742176
0.0874072
0.0979214
0.106223
0.112698
0.117654
0.12134
0.124005
0.125931
0.127088
0.126468
0.123813
0.127574
-0.112751
-0.106456
-0.0867091
-0.0592969
-0.0308997
-0.00499513
0.0172046
0.0356347
0.0506885
0.0628652
0.0726268
0.0803561
0.086347
0.0908086
0.0939053
0.0957906
0.0963633
0.0947519
0.0902407
0.0856991
-0.163112
-0.155572
-0.134635
-0.105624
-0.0752431
-0.0472104
-0.0229169
-0.00252323
0.0143237
0.0281117
0.0393027
0.0482822
0.0553475
0.0607089
0.0645182
0.0669109
0.0679154
0.0671642
0.0641715
0.0599634
-0.21152
-0.202811
-0.180893
-0.150543
-0.118417
-0.0884459
-0.0622021
-0.0399497
-0.0213813
-0.00602137
0.00659746
0.016875
0.0251324
0.0316156
0.0365138
0.0399945
0.042204
0.0431823
0.0428036
0.0407629
-0.25756
-0.247766
-0.225087
-0.193681
-0.160075
-0.128381
-0.100351
-0.0763594
-0.0561519
-0.0392678
-0.0252342
-0.0136347
-0.0041232
0.00357996
0.00969913
0.0144234
0.0179409
0.020473
0.02213
0.0222227
-0.300848
-0.290058
-0.266847
-0.234688
-0.199891
-0.166716
-0.137087
-0.111498
-0.0897545
-0.0714181
-0.0560153
-0.0431175
-0.0323609
-0.0234428
-0.0161153
-0.0101729
-0.00541025
-0.00154888
0.00158848
0.00323416
-0.34104
-0.329347
-0.305837
-0.273239
-0.237566
-0.203178
-0.172164
-0.145142
-0.121989
-0.102298
-0.0856011
-0.0714636
-0.0595097
-0.0494223
-0.0409378
-0.0338377
-0.0279039
-0.0228409
-0.0184944
-0.0157554
-0.377837
-0.365339
-0.341759
-0.309045
-0.272829
-0.23752
-0.20536
-0.177095
-0.152683
-0.131758
-0.113866
-0.0985725
-0.0854953
-0.0743085
-0.06474
-0.0565643
-0.0495565
-0.0434103
-0.0379935
-0.0343324
-0.410995
-0.397789
-0.37436
-0.341855
-0.305443
-0.269528
-0.236484
-0.207187
-0.181689
-0.159672
-0.140706
-0.124362
-0.110258
-0.0980643
-0.0875051
-0.0783526
-0.0703805
-0.0632754
-0.0569012
-0.0523598
-0.440325
-0.426509
-0.403439
-0.371459
-0.335206
-0.299017
-0.265372
-0.235278
-0.208885
-0.185938
-0.166036
-0.148765
-0.133749
-0.120658
-0.109214
-0.0991912
-0.0903651
-0.0824215
-0.0752078
-0.0698377
-0.465701
-0.451371
-0.428847
-0.397696
-0.361956
-0.325835
-0.291889
-0.261249
-0.234172
-0.210471
-0.189787
-0.171728
-0.155926
-0.142056
-0.129843
-0.11906
-0.10949
-0.100823
-0.0928895
-0.086777
-0.48706
-0.472312
-0.450496
-0.42045
-0.385569
-0.349864
-0.31593
-0.28501
-0.257471
-0.233207
-0.211908
-0.193208
-0.176754
-0.16223
-0.149366
-0.137937
-0.127733
-0.118454
-0.109914
-0.103154
-0.504408
-0.489332
-0.468359
-0.439664
-0.405967
-0.371022
-0.337417
-0.306493
-0.278727
-0.2541
-0.232358
-0.21317
-0.196204
-0.181156
-0.167762
-0.155801
-0.145071
-0.135285
-0.126242
-0.118925
-0.517811
-0.5025
-0.48247
-0.45533
-0.423114
-0.38926
-0.356302
-0.325656
-0.297904
-0.27312
-0.251114
-0.231596
-0.214261
-0.198818
-0.185013
-0.172633
-0.161482
-0.15129
-0.141841
-0.134047
-0.527402
-0.511945
-0.492929
-0.467499
-0.437023
-0.404568
-0.372567
-0.342479
-0.314987
-0.290255
-0.268166
-0.248479
-0.230915
-0.215207
-0.201111
-0.188421
-0.176952
-0.16645
-0.156686
-0.148494
-0.533372
-0.517859
-0.499893
-0.476279
-0.447753
-0.416974
-0.386221
-0.356968
-0.329978
-0.305509
-0.28352
-0.263821
-0.246172
-0.230326
-0.216056
-0.203164
-0.191475
-0.180753
-0.170764
-0.162252
-0.535965
-0.520488
-0.503578
-0.481832
-0.455412
-0.426543
-0.397307
-0.36915
-0.342901
-0.318904
-0.297194
-0.277642
-0.260045
-0.244187
-0.229856
-0.216866
-0.205054
-0.194202
-0.184072
-0.17532
-0.535474
-0.520125
-0.504254
-0.484373
-0.460152
-0.433379
-0.405893
-0.379077
-0.353797
-0.330474
-0.309221
-0.289969
-0.272562
-0.256812
-0.24253
-0.229544
-0.217701
-0.206804
-0.196616
-0.187701
-0.532225
-0.5171
-0.502229
-0.484164
-0.462174
-0.437624
-0.41208
-0.386821
-0.362723
-0.34027
-0.319645
-0.300843
-0.283757
-0.268234
-0.254107
-0.241222
-0.229437
-0.218576
-0.208408
-0.199409
-0.526577
-0.511772
-0.497851
-0.481508
-0.461719
-0.439457
-0.415997
-0.392479
-0.369755
-0.348353
-0.32852
-0.310314
-0.293676
-0.278492
-0.264622
-0.25193
-0.240289
-0.229542
-0.21947
-0.210462
-0.518903
-0.504515
-0.491487
-0.47674
-0.459067
-0.439094
-0.417804
-0.396167
-0.374984
-0.354799
-0.335912
-0.318437
-0.302369
-0.287632
-0.274118
-0.261708
-0.250292
-0.239734
-0.229829
-0.220886
-0.509581
-0.495706
-0.483513
-0.470217
-0.454525
-0.436779
-0.417685
-0.398025
-0.378514
-0.35969
-0.34189
-0.325277
-0.309895
-0.295708
-0.28264
-0.270597
-0.259484
-0.249187
-0.239517
-0.230711
-0.498988
-0.485717
-0.474308
-0.462306
-0.448423
-0.432788
-0.415855
-0.398212
-0.380466
-0.363123
-0.346533
-0.3309
-0.316311
-0.302772
-0.290239
-0.278644
-0.267908
-0.257939
-0.248569
-0.23997
-0.487481
-0.4749
-0.464231
-0.453369
-0.441101
-0.427411
-0.412547
-0.396909
-0.380977
-0.3652
-0.349924
-0.335376
-0.321681
-0.308881
-0.296966
-0.285893
-0.275606
-0.26603
-0.25702
-0.248696
-0.475394
-0.463579
-0.453617
-0.44375
-0.432895
-0.420955
-0.408017
-0.394314
-0.380197
-0.366035
-0.35215
-0.338776
-0.326064
-0.314088
-0.302869
-0.292391
-0.282618
-0.273497
-0.264907
-0.256922
-0.46303
-0.452043
-0.442766
-0.433769
-0.424129
-0.413722
-0.402528
-0.390643
-0.378291
-0.365753
-0.353306
-0.341173
-0.329519
-0.318443
-0.307993
-0.298178
-0.288982
-0.280374
-0.272257
-0.264672
-0.450653
-0.440544
-0.431937
-0.423705
-0.415099
-0.406007
-0.39635
-0.386123
-0.375439
-0.364489
-0.35349
-0.342641
-0.332104
-0.321993
-0.312376
-0.303286
-0.294728
-0.286687
-0.279094
-0.271965
-0.43849
-0.429288
-0.421344
-0.413796
-0.406066
-0.398082
-0.389745
-0.380986
-0.371832
-0.36239
-0.352812
-0.343258
-0.333875
-0.324779
-0.316053
-0.307745
-0.299878
-0.292457
-0.285434
-0.278809
-0.426723
-0.418442
-0.411155
-0.404231
-0.397248
-0.390186
-0.382956
-0.375461
-0.367669
-0.359616
-0.35139
-0.343108
-0.33489
-0.326841
-0.319048
-0.311571
-0.304446
-0.297691
-0.291282
-0.285203
-0.415493
-0.408129
-0.401496
-0.395152
-0.388815
-0.382518
-0.376201
-0.369766
-0.363147
-0.356332
-0.349355
-0.342286
-0.33521
-0.328217
-0.321386
-0.314777
-0.308437
-0.302393
-0.296638
-0.291138
-0.404906
-0.398438
-0.39245
-0.386655
-0.38089
-0.375233
-0.369661
-0.364094
-0.358457
-0.35271
-0.346846
-0.340895
-0.334908
-0.328951
-0.323087
-0.317372
-0.311851
-0.306558
-0.301495
-0.296601
-0.39503
-0.389422
-0.384066
-0.378798
-0.373551
-0.368439
-0.363477
-0.35861
-0.353774
-0.348917
-0.34401
-0.339053
-0.334067
-0.329094
-0.324177
-0.319362
-0.314687
-0.310179
-0.305852
-0.301591
-0.385903
-0.381107
-0.376363
-0.371605
-0.366837
-0.362203
-0.357746
-0.353442
-0.349246
-0.345109
-0.340994
-0.336885
-0.332784
-0.32871
-0.324692
-0.32076
-0.316941
-0.313252
-0.309709
-0.306126
-0.377539
-0.373497
-0.369338
-0.365071
-0.360757
-0.356552
-0.352524
-0.348678
-0.344988
-0.341418
-0.337936
-0.33452
-0.331164
-0.327877
-0.324676
-0.321583
-0.318613
-0.315771
-0.313077
-0.310256
-0.369931
-0.366577
-0.362971
-0.359176
-0.355292
-0.351483
-0.347834
-0.344368
-0.341081
-0.337952
-0.334958
-0.332083
-0.329322
-0.326684
-0.324187
-0.321854
-0.3197
-0.317725
-0.315952
-0.314048
-0.363056
-0.360321
-0.357228
-0.353881
-0.350409
-0.346973
-0.343667
-0.34053
-0.337572
-0.334785
-0.332159
-0.329685
-0.327368
-0.325226
-0.323289
-0.321598
-0.320188
-0.319073
-0.318295
-0.317574
-0.356878
-0.35469
-0.352068
-0.349144
-0.346063
-0.342982
-0.339996
-0.337154
-0.334474
-0.33196
-0.329608
-0.327419
-0.325405
-0.323599
-0.322052
-0.320837
-0.320036
-0.319718
-0.319968
-0.320789
-0.351353
-0.349643
-0.347447
-0.344915
-0.342204
-0.33946
-0.336778
-0.334209
-0.331777
-0.32949
-0.327347
-0.325352
-0.323522
-0.321897
-0.32055
-0.319594
-0.319181
-0.319483
-0.3207
-0.323522
-0.346433
-0.34513
-0.343314
-0.341144
-0.338779
-0.336355
-0.333963
-0.331653
-0.329451
-0.327363
-0.325388
-0.323526
-0.321786
-0.320207
-0.318866
-0.317903
-0.317541
-0.318087
-0.319976
-0.325119
-0.342063
-0.341104
-0.339623
-0.337781
-0.335736
-0.333613
-0.331496
-0.329433
-0.327449
-0.325547
-0.323719
-0.321955
-0.320248
-0.318614
-0.317107
-0.315854
-0.315096
-0.315227
-0.317095
-0.324632
-0.338188
-0.337514
-0.336324
-0.334777
-0.333025
-0.331181
-0.329323
-0.327496
-0.32572
-0.323994
-0.322305
-0.320625
-0.318927
-0.317185
-0.315395
-0.313602
-0.311948
-0.31068
-0.31083
-0.318678
-0.334751
-0.334309
-0.33337
-0.332086
-0.3306
-0.329013
-0.327395
-0.325788
-0.324209
-0.322653
-0.321097
-0.319504
-0.317817
-0.315961
-0.313833
-0.311303
-0.308183
-0.303947
-0.297084
-0.288855
-0.331696
-0.331442
-0.330718
-0.329666
-0.328418
-0.327065
-0.325669
-0.324266
-0.32287
-0.321476
-0.320058
-0.318571
-0.31695
-0.315103
-0.312902
-0.310185
-0.306764
-0.30221
-0.295358
-0.288163
-0.32897
-0.328867
-0.328326
-0.327478
-0.326444
-0.325303
-0.324108
-0.322893
-0.321669
-0.32043
-0.31915
-0.31779
-0.316289
-0.314567
-0.312522
-0.310042
-0.307032
-0.303213
-0.297823
-0.293271
-0.326522
-0.32654
-0.326156
-0.325488
-0.324647
-0.323697
-0.322687
-0.321645
-0.320582
-0.319489
-0.318347
-0.317121
-0.315763
-0.31421
-0.312391
-0.310244
-0.307734
-0.304654
-0.300492
-0.297871
-0.324304
-0.324422
-0.324175
-0.323667
-0.322998
-0.322225
-0.321386
-0.320507
-0.319596
-0.318648
-0.317644
-0.316559
-0.315356
-0.313993
-0.312426
-0.310637
-0.308637
-0.306278
-0.303221
-0.302047
-0.322272
-0.322479
-0.322352
-0.321989
-0.321478
-0.320867
-0.320189
-0.319467
-0.318707
-0.317904
-0.317047
-0.316114
-0.315083
-0.31393
-0.312637
-0.311217
-0.309716
-0.308028
-0.305912
-0.305785
-0.32039
-0.32068
-0.320662
-0.32043
-0.320065
-0.319607
-0.319084
-0.318516
-0.317907
-0.317257
-0.316555
-0.31579
-0.31495
-0.314024
-0.313014
-0.311956
-0.310914
-0.309798
-0.30841
-0.308999
-0.318625
-0.318998
-0.319085
-0.318974
-0.318745
-0.318432
-0.318058
-0.317641
-0.317186
-0.316694
-0.316159
-0.315574
-0.314938
-0.314249
-0.313521
-0.312803
-0.312163
-0.311511
-0.310659
-0.311719
-0.316954
-0.317416
-0.317602
-0.317606
-0.317505
-0.317328
-0.317098
-0.316829
-0.316528
-0.316197
-0.315833
-0.315436
-0.315007
-0.314554
-0.314096
-0.313686
-0.31339
-0.313104
-0.312639
-0.314016
-0.315359
-0.315919
-0.316204
-0.316315
-0.316334
-0.316285
-0.316191
-0.316065
-0.315914
-0.315741
-0.315547
-0.315335
-0.315109
-0.31488
-0.314671
-0.314532
-0.314522
-0.314522
-0.314341
-0.315943
-0.313832
-0.314501
-0.314884
-0.315097
-0.315226
-0.315297
-0.315329
-0.315336
-0.315327
-0.315305
-0.315272
-0.315234
-0.315197
-0.315173
-0.315184
-0.315278
-0.315504
-0.315727
-0.315761
-0.317536
-0.312375
-0.313162