1.275 	2.15223e-18 	-2.76991e-20 	0.0116069 	0.118091 	-4.74318e-22
1.825 	2.15223e-18 	-1.39322e-20 	0.264142 	-0.334549 	6.40867e-21
2.375 	2.15223e-18 	1.38775e-18 	0.173946 	-0.645726 	-2.12466e-21
2.925 	2.15223e-18 	2.78958e-18 	0.405555 	-0.375012 	-4.68079e-22
3.475 	2.15223e-18 	4.53849e-18 	0.844638 	0.265347 	-1.05253e-21
4.025 	2.15223e-18 	6.28755e-18 	0.88231 	0.501431 	-1.20972e-23
4.575 	2.15223e-18 	6.30203e-18 	0.836295 	0.606694 	9.1521e-22
5.125 	2.15223e-18 	6.31666e-18 	0.92016 	0.361881 	-9.15873e-22
5.675 	2.15223e-18 	6.33144e-18 	1.04046 	-0.111513 	-3.93823e-22
6.225 	2.15223e-18 	4.61166e-18 	1.05622 	-0.292224 	-7.15875e-22
