/*--------------------------------*- C++ -*----------------------------------*\
  =========                 |
  \\      /  F ield         | OpenFOAM: The Open Source CFD Toolbox
   \\    /   O peration     | Website:  https://openfoam.org
    \\  /    A nd           | Version:  6.0
     \\/     M anipulation  |
\*---------------------------------------------------------------------------*/
FoamFile
{
    version     2.0;
    format      ascii;
    class       volScalarField;
    location    "27";
    object      p;
}
// * * * * * * * * * * * * * * * * * * * * * * * * * * * * * * * * * * * * * //

dimensions      [0 2 -2 0 0 0 0];

internalField   nonuniform List<scalar> 
12500
(
-0.253148
-0.25392
-0.254452
-0.254858
-0.255204
-0.255499
-0.255751
-0.25597
-0.256164
-0.256337
-0.256493
-0.256637
-0.256771
-0.256897
-0.25702
-0.25714
-0.25726
-0.257384
-0.257512
-0.257648
-0.257798
-0.257962
-0.2581
-0.258185
-0.258654
-0.253246
-0.254015
-0.254544
-0.254947
-0.25529
-0.255582
-0.25583
-0.256046
-0.256236
-0.256406
-0.256559
-0.256699
-0.256829
-0.256953
-0.257072
-0.257189
-0.257306
-0.257427
-0.257552
-0.257686
-0.257835
-0.257998
-0.258135
-0.25822
-0.25869
-0.25341
-0.254175
-0.2547
-0.255098
-0.255436
-0.255722
-0.255965
-0.256174
-0.256357
-0.256519
-0.256665
-0.256798
-0.256921
-0.257037
-0.257148
-0.257258
-0.257368
-0.257482
-0.257601
-0.257728
-0.257871
-0.258031
-0.258164
-0.258244
-0.258714
-0.25364
-0.2544
-0.25492
-0.255312
-0.255643
-0.25592
-0.256154
-0.256353
-0.256526
-0.256677
-0.256812
-0.256933
-0.257045
-0.257148
-0.257248
-0.257345
-0.257443
-0.257545
-0.257653
-0.25777
-0.257904
-0.258055
-0.258181
-0.258253
-0.258721
-0.253936
-0.254691
-0.255204
-0.255588
-0.255909
-0.256176
-0.256397
-0.256583
-0.256742
-0.256879
-0.256998
-0.257103
-0.257198
-0.257285
-0.257368
-0.257448
-0.257529
-0.257614
-0.257705
-0.257807
-0.257927
-0.258066
-0.258181
-0.25824
-0.258705
-0.254299
-0.255047
-0.255553
-0.255927
-0.256236
-0.256489
-0.256695
-0.256864
-0.257005
-0.257122
-0.257222
-0.257307
-0.25738
-0.257446
-0.257505
-0.257563
-0.257621
-0.257683
-0.257753
-0.257834
-0.257934
-0.258056
-0.258156
-0.258198
-0.258658
-0.254728
-0.255471
-0.255968
-0.25633
-0.256624
-0.25686
-0.257047
-0.257195
-0.257314
-0.257409
-0.257484
-0.257543
-0.25759
-0.257627
-0.257658
-0.257687
-0.257716
-0.257749
-0.25779
-0.257843
-0.257918
-0.258017
-0.258097
-0.258118
-0.25857
-0.255227
-0.255962
-0.256449
-0.256797
-0.257074
-0.25729
-0.257454
-0.257578
-0.25767
-0.257737
-0.257782
-0.25781
-0.257825
-0.257829
-0.257825
-0.257817
-0.25781
-0.257806
-0.257811
-0.257829
-0.257871
-0.257941
-0.257994
-0.257988
-0.258431
-0.255796
-0.256523
-0.256998
-0.25733
-0.257587
-0.257779
-0.257917
-0.258012
-0.258074
-0.258108
-0.258119
-0.25811
-0.258086
-0.25805
-0.258004
-0.257953
-0.257901
-0.257852
-0.257811
-0.257786
-0.257787
-0.25782
-0.257839
-0.257799
-0.25823
-0.256438
-0.257156
-0.257617
-0.25793
-0.258164
-0.258328
-0.258436
-0.258499
-0.258526
-0.258522
-0.258494
-0.258443
-0.258375
-0.258291
-0.258196
-0.258093
-0.257987
-0.257884
-0.257788
-0.257709
-0.257658
-0.257644
-0.25762
-0.257538
-0.257955
-0.257156
-0.257864
-0.258308
-0.2586
-0.258806
-0.258941
-0.259015
-0.259041
-0.259028
-0.258983
-0.25891
-0.258812
-0.258693
-0.258556
-0.258403
-0.25824
-0.258071
-0.257902
-0.25774
-0.257594
-0.257479
-0.257406
-0.257327
-0.257193
-0.257592
-0.257955
-0.25865
-0.259075
-0.259341
-0.259517
-0.259617
-0.259654
-0.25964
-0.259584
-0.259492
-0.25937
-0.25922
-0.259045
-0.258847
-0.25863
-0.258398
-0.258156
-0.25791
-0.257668
-0.257442
-0.257248
-0.257101
-0.256953
-0.256753
-0.257128
-0.25884
-0.259518
-0.25992
-0.260157
-0.260299
-0.260361
-0.260356
-0.260297
-0.260194
-0.260053
-0.259878
-0.259671
-0.259436
-0.259172
-0.258884
-0.258574
-0.258248
-0.257913
-0.257578
-0.257255
-0.256965
-0.256725
-0.256488
-0.256204
-0.256547
-0.259814
-0.260471
-0.260846
-0.26105
-0.261154
-0.261173
-0.261122
-0.261016
-0.260863
-0.260669
-0.260438
-0.260172
-0.259872
-0.259538
-0.259173
-0.258778
-0.25836
-0.257923
-0.257479
-0.257042
-0.256634
-0.256277
-0.255927
-0.255535
-0.255833
-0.260885
-0.261515
-0.261858
-0.262023
-0.262084
-0.262056
-0.261956
-0.261798
-0.261592
-0.261343
-0.261054
-0.260727
-0.26036
-0.259953
-0.259507
-0.259022
-0.258502
-0.257953
-0.257385
-0.256813
-0.256264
-0.255763
-0.255268
-0.254733
-0.254966
-0.262058
-0.262654
-0.262958
-0.26308
-0.263092
-0.263012
-0.262859
-0.262646
-0.262384
-0.262078
-0.26173
-0.261339
-0.260905
-0.260424
-0.259895
-0.259316
-0.258689
-0.258019
-0.257312
-0.256586
-0.255868
-0.25519
-0.254509
-0.253786
-0.253923
-0.263338
-0.263892
-0.264152
-0.264223
-0.26418
-0.264043
-0.263831
-0.263559
-0.263239
-0.262873
-0.262465
-0.262012
-0.261511
-0.260957
-0.260345
-0.259672
-0.258935
-0.258136
-0.257279
-0.256379
-0.255466
-0.254573
-0.253657
-0.252683
-0.252674
-0.264732
-0.265235
-0.265442
-0.265455
-0.26535
-0.265149
-0.264873
-0.264538
-0.264155
-0.263728
-0.263259
-0.262743
-0.262177
-0.261552
-0.260861
-0.260095
-0.259249
-0.258318
-0.257303
-0.256213
-0.255077
-0.253928
-0.252719
-0.251414
-0.25119
-0.266246
-0.266689
-0.266833
-0.266781
-0.266605
-0.266332
-0.265985
-0.265581
-0.26513
-0.264639
-0.264107
-0.263529
-0.262898
-0.262205
-0.261437
-0.260584
-0.259632
-0.258571
-0.257395
-0.256104
-0.254721
-0.253278
-0.251712
-0.249976
-0.249433
-0.267886
-0.268258
-0.268332
-0.268203
-0.267947
-0.267593
-0.267166
-0.266685
-0.266161
-0.2656
-0.265001
-0.264359
-0.263664
-0.262905
-0.262066
-0.26113
-0.260079
-0.258894
-0.25756
-0.256065
-0.25442
-0.252646
-0.25066
-0.248374
-0.247371
-0.269661
-0.269951
-0.269942
-0.269727
-0.26938
-0.268933
-0.268416
-0.267848
-0.267242
-0.266604
-0.265933
-0.265223
-0.264463
-0.263639
-0.262731
-0.26172
-0.260578
-0.259282
-0.2578
-0.256109
-0.254199
-0.252075
-0.249615
-0.246656
-0.245006
-0.271578
-0.271775
-0.271672
-0.271358
-0.270906
-0.270355
-0.269735
-0.269069
-0.268371
-0.267646
-0.266895
-0.266111
-0.265282
-0.264392
-0.263419
-0.262339
-0.26112
-0.259729
-0.258125
-0.256263
-0.254113
-0.251652
-0.248711
-0.24499
-0.242463
-0.273649
-0.27374
-0.273531
-0.273104
-0.272534
-0.271864
-0.271127
-0.27035
-0.269546
-0.268724
-0.267883
-0.267017
-0.266113
-0.265155
-0.264121
-0.262983
-0.261706
-0.260251
-0.258564
-0.256583
-0.254248
-0.251502
-0.24811
-0.243535
-0.239739
-0.275887
-0.27586
-0.275529
-0.274974
-0.274271
-0.273467
-0.272599
-0.271695
-0.270772
-0.26984
-0.268898
-0.267941
-0.266958
-0.265933
-0.264845
-0.263668
-0.262369
-0.260906
-0.259221
-0.257233
-0.254841
-0.251918
-0.248056
-0.242258
-0.236328
-0.278308
-0.278147
-0.277681
-0.276983
-0.27613
-0.275174
-0.274159
-0.273114
-0.272059
-0.271004
-0.26995
-0.268895
-0.267829
-0.266741
-0.265616
-0.264435
-0.26318
-0.261826
-0.26034
-0.258674
-0.256757
-0.254446
-0.251169
-0.245502
-0.238804
-0.280931
-0.280621
-0.280002
-0.279145
-0.278125
-0.277002
-0.275824
-0.274624
-0.273423
-0.272233
-0.271059
-0.2699
-0.268751
-0.267607
-0.266462
-0.265316
-0.264174
-0.263055
-0.262
-0.261093
-0.260497
-0.26048
-0.26144
-0.265086
-0.277891
-0.283781
-0.283303
-0.282514
-0.281479
-0.280275
-0.278969
-0.277614
-0.276245
-0.274886
-0.273552
-0.272251
-0.270984
-0.269752
-0.268557
-0.267405
-0.26631
-0.265303
-0.264436
-0.263799
-0.263542
-0.263908
-0.265263
-0.268113
-0.273893
-0.287328
-0.286882
-0.286215
-0.285237
-0.284007
-0.282602
-0.281099
-0.279552
-0.278003
-0.276477
-0.274993
-0.273559
-0.272183
-0.270869
-0.269627
-0.268472
-0.267433
-0.266557
-0.265916
-0.265623
-0.265844
-0.266818
-0.268871
-0.27238
-0.278124
-0.289284
-0.290264
-0.289383
-0.288196
-0.286753
-0.285132
-0.283416
-0.281667
-0.279929
-0.278229
-0.276589
-0.27502
-0.273533
-0.272137
-0.270847
-0.269686
-0.268691
-0.267916
-0.267441
-0.267379
-0.267877
-0.26913
-0.271377
-0.274843
-0.279871
-0.288609
-0.293957
-0.292835
-0.291416
-0.289743
-0.28789
-0.28595
-0.283989
-0.282054
-0.280176
-0.278376
-0.27667
-0.27507
-0.273587
-0.272242
-0.271058
-0.270077
-0.269351
-0.268955
-0.268982
-0.269549
-0.27079
-0.272847
-0.275826
-0.279807
-0.286189
-0.297991
-0.296597
-0.294925
-0.293004
-0.290906
-0.28873
-0.286549
-0.284411
-0.28235
-0.280388
-0.278541
-0.276821
-0.275242
-0.273822
-0.272588
-0.271574
-0.270827
-0.270407
-0.270383
-0.270832
-0.271832
-0.273452
-0.275716
-0.278568
-0.282869
-0.302397
-0.300698
-0.29875
-0.296564
-0.294206
-0.291786
-0.289378
-0.287033
-0.284785
-0.282655
-0.280658
-0.278806
-0.277112
-0.27559
-0.274262
-0.273156
-0.272307
-0.271757
-0.27155
-0.271729
-0.272328
-0.273365
-0.27482
-0.27658
-0.279133
-0.307204
-0.305164
-0.302915
-0.300449
-0.29782
-0.295146
-0.292506
-0.289948
-0.287506
-0.285199
-0.28304
-0.281037
-0.279198
-0.277534
-0.276058
-0.27479
-0.273753
-0.272971
-0.272467
-0.272259
-0.272352
-0.272737
-0.273375
-0.274139
-0.275287
-0.312435
-0.310017
-0.307446
-0.304683
-0.301774
-0.298839
-0.295959
-0.293181
-0.290536
-0.288038
-0.285696
-0.283511
-0.281488
-0.279629
-0.277941
-0.276435
-0.275122
-0.274014
-0.273119
-0.27244
-0.271967
-0.27168
-0.271539
-0.271423
-0.27147
-0.318112
-0.315279
-0.312363
-0.309291
-0.30609
-0.302886
-0.299759
-0.296752
-0.293889
-0.291178
-0.288622
-0.286215
-0.283956
-0.281839
-0.279868
-0.278043
-0.276371
-0.274854
-0.273494
-0.272286
-0.271219
-0.27027
-0.269408
-0.268528
-0.267714
-0.32425
-0.320965
-0.317683
-0.314289
-0.310788
-0.307308
-0.303924
-0.300672
-0.297569
-0.294615
-0.291803
-0.289122
-0.286563
-0.284119
-0.281786
-0.279563
-0.277453
-0.275458
-0.273576
-0.271804
-0.270133
-0.268548
-0.267027
-0.265482
-0.263985
-0.330857
-0.327086
-0.323419
-0.319694
-0.315884
-0.312117
-0.308462
-0.304945
-0.30157
-0.29833
-0.295209
-0.29219
-0.28926
-0.28641
-0.283637
-0.28094
-0.278323
-0.275792
-0.273348
-0.270994
-0.268724
-0.266533
-0.264409
-0.26228
-0.260219
-0.337933
-0.333643
-0.329577
-0.325511
-0.321384
-0.317318
-0.313373
-0.30956
-0.305872
-0.302292
-0.298796
-0.295365
-0.291984
-0.288648
-0.285357
-0.282115
-0.278934
-0.275824
-0.272793
-0.269849
-0.266994
-0.264229
-0.261549
-0.258895
-0.256349
-0.345469
-0.340634
-0.336155
-0.331742
-0.327288
-0.322907
-0.318643
-0.314495
-0.31044
-0.306452
-0.302505
-0.298579
-0.294665
-0.290762
-0.286881
-0.283035
-0.279243
-0.275524
-0.271892
-0.268361
-0.264939
-0.26163
-0.258434
-0.255302
-0.252318
-0.353447
-0.348042
-0.343143
-0.338376
-0.333584
-0.328865
-0.324247
-0.319711
-0.315222
-0.310749
-0.306264
-0.301756
-0.297223
-0.292679
-0.288145
-0.283646
-0.279211
-0.274866
-0.270631
-0.266523
-0.262554
-0.25873
-0.255052
-0.251474
-0.248085
-0.361834
-0.355844
-0.350519
-0.345394
-0.340247
-0.335161
-0.330142
-0.325153
-0.320151
-0.315103
-0.30999
-0.30481
-0.299579
-0.294326
-0.289087
-0.2839
-0.278803
-0.273825
-0.268994
-0.264326
-0.259833
-0.255522
-0.251389
-0.247393
-0.243621
-0.370587
-0.364002
-0.35825
-0.352759
-0.347239
-0.341745
-0.336266
-0.330747
-0.325142
-0.319424
-0.313588
-0.307651
-0.301651
-0.295633
-0.289651
-0.283754
-0.277986
-0.272382
-0.266968
-0.261761
-0.256769
-0.251996
-0.247437
-0.243046
-0.238912
-0.379646
-0.372463
-0.366286
-0.360423
-0.354502
-0.348552
-0.342541
-0.336404
-0.330098
-0.32361
-0.316959
-0.310188
-0.303356
-0.296533
-0.289784
-0.283168
-0.276734
-0.270516
-0.26454
-0.258818
-0.253354
-0.248147
-0.243186
-0.238422
-0.233947
-0.388936
-0.381162
-0.374565
-0.368319
-0.361962
-0.355496
-0.34887
-0.342017
-0.334906
-0.327551
-0.32
-0.312328
-0.30462
-0.296963
-0.289437
-0.282106
-0.27502
-0.26821
-0.261696
-0.255486
-0.249577
-0.243962
-0.238626
-0.233512
-0.228718
-0.398368
-0.390017
-0.383007
-0.376362
-0.369527
-0.362474
-0.35514
-0.347466
-0.339448
-0.331133
-0.322609
-0.313983
-0.305367
-0.296866
-0.288567
-0.280535
-0.272818
-0.265442
-0.25842
-0.251751
-0.245426
-0.239432
-0.233747
-0.228306
-0.223218
-0.407834
-0.398928
-0.391513
-0.38445
-0.377084
-0.369362
-0.361221
-0.352621
-0.343596
-0.334241
-0.324684
-0.315069
-0.305531
-0.296188
-0.287131
-0.278423
-0.270104
-0.262194
-0.254694
-0.247597
-0.240886
-0.234542
-0.228535
-0.222791
-0.217436
-0.417212
-0.407781
-0.399969
-0.392462
-0.384505
-0.376025
-0.366972
-0.357342
-0.347222
-0.336758
-0.326127
-0.315505
-0.305047
-0.294879
-0.28509
-0.275738
-0.266852
-0.258442
-0.250499
-0.243007
-0.235941
-0.229276
-0.222974
-0.216952
-0.21136
-0.426363
-0.416445
-0.408244
-0.400261
-0.391644
-0.382311
-0.372243
-0.361488
-0.350196
-0.338575
-0.326847
-0.315217
-0.303857
-0.292892
-0.282407
-0.272449
-0.263035
-0.254162
-0.245812
-0.237959
-0.23057
-0.223614
-0.217047
-0.210774
-0.204975
-0.435134
-0.424774
-0.41619
-0.407693
-0.39834
-0.38806
-0.376878
-0.364915
-0.352393
-0.339585
-0.326756
-0.314136
-0.301904
-0.290183
-0.279045
-0.268524
-0.258624
-0.249329
-0.24061
-0.23243
-0.224752
-0.217538
-0.210734
-0.204239
-0.198265
-0.44336
-0.432608
-0.423647
-0.414592
-0.404426
-0.393104
-0.380721
-0.367482
-0.353693
-0.339689
-0.325775
-0.312199
-0.299139
-0.286709
-0.274967
-0.263932
-0.253591
-0.243916
-0.234867
-0.226399
-0.218465
-0.211025
-0.204016
-0.197328
-0.191211
-0.450868
-0.439779
-0.430442
-0.420782
-0.409725
-0.397275
-0.383616
-0.369054
-0.353982
-0.338795
-0.32383
-0.309345
-0.295512
-0.28243
-0.27014
-0.258641
-0.247908
-0.237897
-0.228559
-0.21984
-0.211687
-0.204055
-0.196873
-0.19002
-0.183796
-0.457473
-0.446106
-0.436394
-0.42608
-0.414057
-0.400403
-0.385413
-0.369504
-0.353157
-0.336819
-0.320855
-0.305522
-0.290979
-0.277308
-0.264528
-0.252621
-0.241545
-0.231245
-0.221661
-0.21273
-0.204395
-0.196607
-0.189284
-0.182298
-0.175999
-0.46299
-0.451406
-0.441319
-0.4303
-0.417244
-0.402326
-0.385971
-0.368715
-0.351121
-0.333687
-0.31679
-0.30068
-0.2855
-0.271306
-0.258099
-0.245842
-0.234476
-0.223935
-0.214148
-0.205047
-0.196569
-0.18866
-0.18123
-0.174144
-0.167806
-0.467231
-0.455494
-0.445029
-0.43326
-0.419114
-0.402891
-0.385161
-0.36658
-0.347793
-0.329333
-0.311581
-0.294776
-0.279036
-0.264393
-0.250825
-0.238276
-0.226675
-0.215942
-0.205999
-0.196771
-0.18819
-0.180198
-0.172696
-0.165543
-0.159201
-0.470012
-0.458185
-0.44734
-0.434782
-0.419502
-0.401954
-0.382862
-0.363005
-0.343097
-0.323697
-0.305183
-0.287771
-0.271553
-0.256537
-0.242677
-0.229899
-0.218119
-0.207246
-0.197194
-0.187883
-0.179241
-0.171205
-0.163667
-0.156481
-0.150171
-0.471155
-0.459302
-0.448077
-0.434696
-0.418257
-0.399387
-0.378974
-0.35791
-0.336972
-0.316732
-0.297556
-0.279632
-0.263024
-0.247713
-0.233631
-0.220689
-0.208787
-0.197828
-0.187717
-0.178368
-0.169708
-0.161668
-0.154132
-0.146949
-0.140706
-0.470492
-0.458674
-0.447072
-0.432846
-0.415243
-0.395078
-0.373406
-0.351228
-0.329366
-0.308398
-0.288666
-0.270331
-0.253423
-0.237898
-0.223667
-0.210626
-0.198663
-0.187673
-0.177554
-0.168215
-0.15958
-0.151579
-0.144082
-0.136939
-0.130801
-0.467867
-0.456146
-0.444171
-0.429094
-0.41034
-0.388932
-0.366088
-0.342905
-0.32024
-0.298664
-0.27849
-0.259846
-0.242731
-0.227075
-0.21277
-0.199697
-0.187735
-0.17677
-0.166695
-0.157416
-0.148852
-0.140932
-0.133514
-0.126448
-0.120451
-0.46314
-0.451576
-0.439241
-0.423317
-0.40345
-0.380873
-0.356964
-0.332902
-0.309566
-0.287508
-0.26701
-0.248162
-0.230934
-0.215232
-0.200929
-0.187893
-0.175994
-0.165112
-0.155135
-0.145965
-0.137521
-0.129725
-0.122427
-0.115478
-0.109659
-0.456192
-0.444842
-0.432164
-0.415416
-0.394492
-0.370844
-0.345995
-0.321194
-0.297326
-0.274918
-0.254215
-0.235271
-0.218026
-0.202362
-0.188137
-0.175208
-0.163437
-0.152697
-0.142873
-0.133864
-0.125587
-0.117961
-0.110826
-0.104034
-0.09843
-0.446923
-0.435843
-0.422846
-0.405313
-0.383411
-0.358808
-0.33316
-0.307768
-0.283514
-0.260891
-0.240104
-0.221171
-0.204004
-0.188464
-0.174395
-0.161643
-0.150063
-0.139526
-0.129912
-0.121117
-0.113056
-0.105647
-0.0987184
-0.0921255
-0.0867735
-0.435257
-0.4245
-0.411217
-0.392954
-0.370172
-0.344747
-0.318453
-0.292628
-0.268136
-0.245433
-0.224683
-0.205868
-0.188873
-0.173542
-0.159705
-0.147201
-0.135879
-0.125605
-0.116258
-0.10773
-0.0999377
-0.0927932
-0.0861169
-0.0797666
-0.0747041
-0.421142
-0.41076
-0.397232
-0.37831
-0.354761
-0.328662
-0.301885
-0.275788
-0.251208
-0.22856
-0.207966
-0.189374
-0.172645
-0.157606
-0.144078
-0.131892
-0.120894
-0.110945
-0.101922
-0.093717
-0.0862447
-0.0794145
-0.0730379
-0.0669759
-0.0622405
-0.40455
-0.394593
-0.380869
-0.361374
-0.337189
-0.310575
-0.283483
-0.257276
-0.232759
-0.210298
-0.189976
-0.171709
-0.155337
-0.140673
-0.127529
-0.115731
-0.105121
-0.0955578
-0.0869177
-0.0790917
-0.0719929
-0.0655286
-0.0595016
-0.0537756
-0.0494049
-0.385483
-0.375999
-0.362136
-0.342165
-0.317487
-0.290524
-0.263289
-0.237136
-0.212827
-0.190682
-0.170744
-0.1529
-0.136973
-0.122763
-0.110076
-0.0987339
-0.0885758
-0.0794604
-0.0712619
-0.0638711
-0.057201
-0.051156
-0.0455314
-0.0401922
-0.0362239
-0.363965
-0.355001
-0.341062
-0.320726
-0.295705
-0.268566
-0.24136
-0.21542
-0.191461
-0.169756
-0.150309
-0.132983
-0.117584
-0.103904
-0.0917439
-0.0809222
-0.0712784
-0.0626704
-0.0549717
-0.0480735
-0.0418886
-0.036319
-0.0311537
-0.0262562
-0.0227306
-0.340048
-0.331647
-0.317703
-0.297122
-0.271918
-0.244776
-0.217769
-0.192197
-0.168723
-0.147575
-0.12872
-0.112
-0.0972075
-0.0841277
-0.0725589
-0.0623196
-0.0532492
-0.045206
-0.0380644
-0.0317161
-0.0260743
-0.0210394
-0.0163953
-0.0120019
-0.00896697
-0.313808
-0.306012
-0.29214
-0.271441
-0.246214
-0.219243
-0.192601
-0.167544
-0.144685
-0.124202
-0.106034
-0.0900007
-0.075886
-0.0634709
-0.0525532
-0.0429522
-0.0345093
-0.0270848
-0.020555
-0.0148131
-0.00977321
-0.00533515
-0.00128098
0.00253439
0.00502165
-0.285346
-0.278195
-0.264475
-0.243788
-0.218703
-0.192073
-0.165954
-0.141555
-0.119429
-0.0997135
-0.0823164
-0.0670437
-0.0536707
-0.041977
-0.0317619
-0.0228478
-0.0150796
-0.00832151
-0.00245341
0.00262846
0.00700806
0.010784
0.0141706
0.0173215
0.0192065
-0.254785
-0.248317
-0.234831
-0.214292
-0.18951
-0.163385
-0.137942
-0.114331
-0.0930493
-0.0741931
-0.0576446
-0.0431969
-0.0306205
-0.0196957
-0.0102251
-0.00203614
0.00502051
0.0110746
0.0162401
0.0206153
0.0242801
0.0273274
0.0299612
0.0323547
0.0335987
-0.222268
-0.216518
-0.203353
-0.183095
-0.158775
-0.133313
-0.108688
-0.0859865
-0.0656509
-0.0477371
-0.0321052
-0.0185381
-0.00680388
0.00331476
0.0120102
0.0194483
0.0257704
0.0310977
0.0355351
0.0391715
0.0420787
0.0443387
0.0461384
0.0476787
0.0482158
-0.18796
-0.182959
-0.1702
-0.150356
-0.126652
-0.102002
-0.0783283
-0.0566482
-0.0373497
-0.0204522
-0.00579623
0.0068435
0.0176995
0.0269854
0.0348872
0.0415624
0.0471427
0.051738
0.0554392
0.0583208
0.0604432
0.0618734
0.0627605
0.0632922
0.0628838
-0.15204
-0.147818
-0.135548
-0.11625
-0.0933065
-0.0696097
-0.0470085
-0.0264515
-0.00827235
0.00754339
0.0211725
0.0328464
0.0427974
0.0512349
0.058338
0.0642552
0.0691066
0.0729866
0.0759653
0.0780932
0.0794135
0.0799655
0.0797834
0.0789058
0.0770317
-0.114704
-0.111286
-0.0995882
-0.0809595
-0.0589153
-0.0363005
-0.0148839
0.00445823
0.0214446
0.0361207
0.0486787
0.0593552
0.0683822
0.0759657
0.0822796
0.0874655
0.091634
0.0948638
0.0971992
0.0986596
0.0992618
0.098967
0.0975092
0.0945751
0.0907307
-0.0761596
-0.0735682
-0.0625205
-0.0446797
-0.0236627
-0.00224814
0.017883
0.0359281
0.0516559
0.0651407
0.076588
0.0862389
0.0943255
0.101053
0.106593
0.111088
0.114649
0.117355
0.119246
0.120344
0.120679
0.120124
0.117962
0.113478
0.108736
-0.0366269
-0.0348789
-0.0245551
-0.00761226
0.0122607
0.0323682
0.0511241
0.0677992
0.0822101
0.094457
0.104757
0.113353
0.120479
0.126339
0.131106
0.134928
0.137925
0.140194
0.141812
0.142871
0.143525
0.143725
0.142574
0.13954
0.14186
0.0036749
0.00456407
0.0140946
0.0300375
0.0486603
0.0673659
0.0846678
0.0999094
0.112952
0.123919
0.133037
0.14055
0.146691
0.151661
0.155634
0.158759
0.16116
0.162944
0.164204
0.165065
0.165688
0.16605
0.165643
0.16489
0.169426
0.0445133
0.0445325
0.0532072
0.068059
0.0853384
0.10256
0.118341
0.132096
0.143727
0.153378
0.161282
0.167684
0.172812
0.176866
0.180018
0.182415
0.184184
0.185434
0.186267
0.186807
0.187193
0.187401
0.187066
0.186684
0.1907
0.0856538
0.0847966
0.0925604
0.106241
0.122097
0.137767
0.151972
0.164196
0.174381
0.182686
0.189349
0.194614
0.198703
0.201812
0.204109
0.205735
0.206817
0.207461
0.207768
0.207853
0.207843
0.207716
0.207169
0.206602
0.209668
0.126862
0.125126
0.131931
0.144373
0.15874
0.172804
0.185391
0.196052
0.204764
0.211701
0.217103
0.221209
0.224238
0.226376
0.227786
0.228604
0.228949
0.228923
0.22862
0.228141
0.227595
0.226951
0.225931
0.224911
0.227071
0.167902
0.165289
0.171099
0.182246
0.195073
0.20749
0.21843
0.227507
0.234731
0.240287
0.244415
0.247349
0.2493
0.250448
0.250946
0.250926
0.250497
0.249754
0.248782
0.247672
0.246513
0.245263
0.243667
0.242097
0.243381
0.208543
0.20506
0.209844
0.219654
0.230905
0.24165
0.250928
0.258412
0.264143
0.268314
0.271163
0.27292
0.273785
0.273931
0.273504
0.272625
0.271398
0.269907
0.268229
0.266445
0.264629
0.262729
0.260517
0.258368
0.258816
0.248555
0.244214
0.247952
0.256398
0.266051
0.275114
0.282727
0.288622
0.292865
0.295657
0.297234
0.297815
0.297596
0.296739
0.295382
0.293636
0.291599
0.289346
0.286946
0.284471
0.281981
0.279421
0.276587
0.273859
0.273506
0.287717
0.282532
0.285215
0.292281
0.300331
0.307715
0.313675
0.317996
0.320768
0.322198
0.322516
0.321936
0.320643
0.318791
0.316508
0.313899
0.311052
0.308037
0.304914
0.301746
0.298584
0.295372
0.29193
0.288635
0.287513
0.325811
0.319802
0.321429
0.327116
0.333571
0.339295
0.343625
0.346401
0.34773
0.347823
0.346908
0.345188
0.34284
0.340009
0.336816
0.333357
0.329711
0.325943
0.322107
0.318258
0.314438
0.310592
0.306563
0.30272
0.300859
0.362627
0.35582
0.356401
0.36072
0.365603
0.369699
0.372439
0.373707
0.373631
0.372425
0.370308
0.367479
0.364105
0.360321
0.35624
0.351952
0.347528
0.343027
0.338497
0.333986
0.32953
0.325074
0.320486
0.316115
0.313547
0.397966
0.390388
0.389943
0.39292
0.396269
0.398783
0.399981
0.399792
0.398359
0.395898
0.392623
0.388724
0.384358
0.379655
0.374717
0.369628
0.364454
0.359246
0.354047
0.348901
0.343835
0.3388
0.333682
0.328809
0.325563
0.431634
0.42332
0.421877
0.423551
0.425417
0.426408
0.426125
0.424538
0.421807
0.418145
0.413762
0.408838
0.403525
0.397941
0.392184
0.38633
0.380438
0.374555
0.368719
0.362968
0.357324
0.351742
0.346126
0.340775
0.336883
0.463452
0.454439
0.452036
0.452458
0.452904
0.452441
0.450749
0.447836
0.443872
0.439071
0.433637
0.427743
0.421531
0.415114
0.40858
0.402001
0.39543
0.388909
0.382471
0.376149
0.369962
0.363868
0.357787
0.351986
0.347482
0.493248
0.483579
0.480263
0.479493
0.478595
0.47676
0.473742
0.469581
0.464458
0.458588
0.452168
0.445363
0.438308
0.431108
0.423846
0.416587
0.40938
0.402261
0.395261
0.388407
0.381713
0.375143
0.368631
0.362408
0.357329
0.520864
0.510584
0.50641
0.504522
0.502366
0.499251
0.494997
0.489675
0.483476
0.476613
0.469277
0.461626
0.453788
0.445862
0.437925
0.430036
0.422239
0.414567
0.407046
0.3997
0.392538
0.385531
0.378622
0.37201
0.366395
0.546153
0.535311
0.530342
0.527419
0.524101
0.519807
0.514417
0.50803
0.500843
0.493069
0.484892
0.476466
0.467911
0.45932
0.450764
0.442297
0.43396
0.425783
0.417786
0.40999
0.402402
0.394996
0.387728
0.380758
0.374649
0.568982
0.557631
0.551936
0.54807
0.543696
0.538332
0.531913
0.524561
0.516482
0.507884
0.498948
0.489822
0.480619
0.471426
0.462312
0.453324
0.444501
0.435867
0.427442
0.41924
0.411269
0.403506
0.395914
0.388621
0.382063
0.589229
0.577426
0.571082
0.566372
0.561055
0.554739
0.547405
0.539196
0.530324
0.520995
0.511386
0.501637
0.491859
0.482134
0.472524
0.463074
0.453819
0.444781
0.435976
0.427416
0.419106
0.411027
0.403151
0.39557
0.388613
0.606789
0.594593
0.587681
0.582234
0.576096
0.568951
0.560822
0.551869
0.542308
0.532344
0.52215
0.511863
0.501586
0.491398
0.481358
0.471509
0.46188
0.452491
0.443358
0.434487
0.425884
0.417532
0.40941
0.401579
0.394273
0.62157
0.609042
0.601649
0.595578
0.588746
0.580901
0.572102
0.562521
0.55238
0.541882
0.531196
0.520455
0.509758
0.499181
0.48878
0.478593
0.46865
0.458967
0.449557
0.440426
0.431575
0.422995
0.414667
0.406625
0.399024
0.633494
0.620698
0.612915
0.606339
0.598945
0.590534
0.581193
0.571106
0.560497
0.549568
0.538485
0.527376
0.516341
0.50545
0.494757
0.484299
0.474102
0.464182
0.454549
0.445208
0.436159
0.427395
0.4189
0.410688
0.402849
0.642499
0.629501
0.621422
0.614462
0.606643
0.597804
0.588053
0.577584
0.566621
0.555366
0.543983
0.532598
0.521307
0.510179
0.499266
0.488603
0.478215
0.468116
0.458314
0.448815
0.439616
0.430713
0.422094
0.413753
0.405733
0.648538
0.635404
0.627126
0.619908
0.611804
0.602678
0.592652
0.581926
0.570726
0.559253
0.547668
0.536098
0.524635
0.513349
0.502288
0.491488
0.480971
0.470752
0.460838
0.451232
0.441933
0.432937
0.424234
0.415806
0.407665
0.651579
0.638376
0.629999
0.622651
0.614402
0.605132
0.594968
0.584113
0.572793
0.56121
0.549524
0.537861
0.526311
0.514945
0.50381
0.49294
0.482359
0.472079
0.462109
0.45245
0.4431
0.434058
0.425312
0.416841
0.408639
0.651607
0.638404
0.630026
0.622677
0.614427
0.605155
0.59499
0.584134
0.572813
0.561229
0.549542
0.537878
0.526328
0.514961
0.503825
0.492955
0.482373
0.472093
0.462122
0.452463
0.443113
0.434071
0.425325
0.416853
0.40865
0.648622
0.635486
0.627206
0.619985
0.611877
0.602747
0.592718
0.581989
0.570785
0.559309
0.547723
0.53615
0.524685
0.513397
0.502334
0.491533
0.481014
0.470794
0.460879
0.451272
0.441972
0.432975
0.424271
0.415842
0.4077
0.642639
0.629638
0.621556
0.61459
0.606764
0.597919
0.588163
0.577688
0.56672
0.555461
0.544073
0.532685
0.52139
0.510259
0.499343
0.488678
0.478287
0.468186
0.458382
0.448881
0.439681
0.430776
0.422155
0.413813
0.405791
0.63369
0.620891
0.613102
0.606517
0.599114
0.590695
0.581345
0.571251
0.560635
0.549699
0.538611
0.527497
0.516457
0.505562
0.494865
0.484403
0.474203
0.46428
0.454644
0.4453
0.436249
0.427482
0.418986
0.410772
0.40293
0.62182
0.609289
0.601888
0.595807
0.588964
0.581107
0.572297
0.562707
0.552557
0.542051
0.531358
0.520609
0.509906
0.499324
0.488918
0.478727
0.468779
0.459092
0.449678
0.440544
0.431691
0.423108
0.414777
0.406732
0.399129
0.607094
0.594893
0.587972
0.582512
0.576361
0.569201
0.56106
0.552095
0.542523
0.53255
0.522347
0.512051
0.501767
0.491572
0.481526
0.471671
0.462037
0.452644
0.443506
0.434631
0.426024
0.417669
0.409544
0.40171
0.3944
0.589587
0.577779
0.571424
0.566699
0.561366
0.555034
0.547685
0.539462
0.530577
0.521236
0.511617
0.501859
0.492072
0.482339
0.472721
0.463266
0.454005
0.444961
0.436151
0.427586
0.419271
0.411188
0.403309
0.395724
0.388762
0.569392
0.558035
0.552328
0.548445
0.544053
0.53867
0.532235
0.524867
0.516772
0.508161
0.499214
0.490076
0.480863
0.471662
0.462539
0.453544
0.444713
0.436073
0.427642
0.419435
0.411459
0.403691
0.396095
0.388798
0.382235
0.546615
0.535765
0.530782
0.527841
0.524503
0.520188
0.514779
0.508373
0.50117
0.493381
0.485191
0.476753
0.468187
0.459585
0.45102
0.442545
0.4342
0.426015
0.418012
0.410209
0.402616
0.395205
0.387932
0.380957
0.374842
0.521376
0.511087
0.506898
0.50499
0.502811
0.499673
0.495398
0.490057
0.48384
0.47696
0.469609
0.461945
0.454094
0.446157
0.43821
0.430311
0.422505
0.414825
0.407297
0.399944
0.392776
0.385763
0.378849
0.372232
0.36661
0.493808
0.48413
0.480797
0.480006
0.479083
0.477223
0.474182
0.469999
0.464857
0.458969
0.452532
0.445712
0.438644
0.431431
0.424158
0.416889
0.409672
0.402545
0.395537
0.388675
0.381974
0.375398
0.36888
0.362652
0.357566
0.464059
0.455036
0.452616
0.453014
0.453433
0.452944
0.451227
0.44829
0.444304
0.439484
0.434033
0.428123
0.421896
0.415465
0.40892
0.402329
0.395748
0.389217
0.382771
0.376441
0.370246
0.364145
0.358058
0.352251
0.34774
0.432286
0.423962
0.4225
0.424149
0.425987
0.426948
0.426639
0.425027
0.422273
0.41859
0.414188
0.409247
0.403918
0.39832
0.39255
0.386684
0.380781
0.374888
0.369042
0.363282
0.357631
0.352041
0.346419
0.341061
0.337162
0.398661
0.391072
0.390607
0.393558
0.396877
0.399361
0.40053
0.400314
0.398857
0.396374
0.393079
0.389161
0.384779
0.380061
0.375109
0.370007
0.364821
0.359602
0.354393
0.349238
0.344163
0.339121
0.333996
0.329116
0.325862
0.363363
0.356544
0.357105
0.361396
0.366248
0.370313
0.373022
0.374262
0.37416
0.37293
0.370793
0.367944
0.364552
0.360753
0.356657
0.352355
0.347919
0.343406
0.338866
0.334345
0.329879
0.325415
0.32082
0.316443
0.313866
0.326586
0.320565
0.322171
0.327829
0.334251
0.339942
0.344241
0.346987
0.348289
0.348358
0.34742
0.34568
0.343313
0.340466
0.337257
0.333783
0.330125
0.326345
0.322498
0.318638
0.314809
0.310953
0.306917
0.303066
0.301197
0.288529
0.283331
0.285992
0.293029
0.301045
0.308394
0.314321
0.318612
0.321356
0.32276
0.323055
0.322454
0.321141
0.319271
0.316972
0.314349
0.311488
0.30846
0.305325
0.302147
0.298975
0.295753
0.292303
0.289001
0.287869
0.249401
0.245047
0.248763
0.257178
0.266796
0.275824
0.283402
0.289266
0.293479
0.296245
0.297797
0.298357
0.298118
0.297243
0.295869
0.294108
0.292056
0.28979
0.287379
0.284892
0.282392
0.279822
0.27698
0.274244
0.273881
0.20942
0.205924
0.210685
0.220465
0.23168
0.242389
0.251631
0.259083
0.264783
0.268927
0.271752
0.273485
0.27433
0.274457
0.274013
0.273118
0.271876
0.270372
0.268682
0.266886
0.265059
0.263149
0.260927
0.258771
0.259209
0.168808
0.166182
0.171969
0.183084
0.195875
0.208255
0.219159
0.228202
0.235396
0.240924
0.245026
0.247937
0.249866
0.250995
0.251476
0.25144
0.250996
0.250239
0.249254
0.248132
0.246961
0.245701
0.244096
0.242517
0.243792
0.127794
0.126045
0.132828
0.145237
0.159568
0.173593
0.186144
0.19677
0.205451
0.21236
0.217736
0.221818
0.224825
0.226944
0.228335
0.229137
0.229467
0.229427
0.22911
0.22862
0.228062
0.227407
0.226378
0.22535
0.227499
0.0866099
0.0857389
0.0934798
0.107129
0.122948
0.13858
0.152747
0.164936
0.175089
0.183365
0.190002
0.195243
0.19931
0.2024
0.204678
0.206288
0.207354
0.207983
0.208277
0.208351
0.208329
0.208191
0.207633
0.207058
0.210113
0.0454897
0.0454951
0.0541471
0.0689673
0.0862096
0.103393
0.119137
0.132856
0.144455
0.154077
0.161954
0.168331
0.173437
0.177472
0.180605
0.182985
0.184738
0.185974
0.186794