1.275 	2.15223e-18 	-2.76991e-20 	-0.160623 	0.00671737 	-2.89651e-22
1.825 	2.15223e-18 	-1.39322e-20 	-0.405841 	0.00395769 	4.506e-21
2.375 	2.15223e-18 	-2.66896e-23 	-0.455857 	-0.000809087 	-2.15677e-21
