/*--------------------------------*- C++ -*----------------------------------*\
  =========                 |
  \\      /  F ield         | OpenFOAM: The Open Source CFD Toolbox
   \\    /   O peration     | Website:  https://openfoam.org
    \\  /    A nd           | Version:  6.0
     \\/     M anipulation  |
\*---------------------------------------------------------------------------*/
FoamFile
{
    version     2.0;
    format      ascii;
    class       volScalarField;
    location    "111";
    object      p;
}
// * * * * * * * * * * * * * * * * * * * * * * * * * * * * * * * * * * * * * //

dimensions      [0 2 -2 0 0 0 0];

internalField   nonuniform List<scalar> 
12500
(
-0.458413
-0.460767
-0.462089
-0.46292
-0.463612
-0.46425
-0.464877
-0.465513
-0.466152
-0.466775
-0.467356
-0.467871
-0.468293
-0.468602
-0.468781
-0.468817
-0.468706
-0.468452
-0.468067
-0.467569
-0.46698
-0.466328
-0.465714
-0.465269
-0.464394
-0.448476
-0.450788
-0.45203
-0.452729
-0.45323
-0.453618
-0.453941
-0.454226
-0.454475
-0.45468
-0.454825
-0.454893
-0.45487
-0.454741
-0.454497
-0.454132
-0.453649
-0.453052
-0.452356
-0.451582
-0.450754
-0.449899
-0.449071
-0.448381
-0.447653
-0.438959
-0.441185
-0.442327
-0.44289
-0.443204
-0.443352
-0.443386
-0.443336
-0.443213
-0.443016
-0.442739
-0.442373
-0.441911
-0.441346
-0.440677
-0.439902
-0.439027
-0.438062
-0.43702
-0.435924
-0.434802
-0.433677
-0.432557
-0.431523
-0.430853
-0.429878
-0.431983
-0.433012
-0.433438
-0.433574
-0.433496
-0.433258
-0.432892
-0.432417
-0.431837
-0.431154
-0.430368
-0.429477
-0.428483
-0.427388
-0.426198
-0.42492
-0.423566
-0.422153
-0.420702
-0.419244
-0.417801
-0.416334
-0.414888
-0.414196
-0.421235
-0.423195
-0.424104
-0.424398
-0.424366
-0.424079
-0.423587
-0.422927
-0.42212
-0.421178
-0.420108
-0.418916
-0.417609
-0.416193
-0.414676
-0.413069
-0.411382
-0.40963
-0.40783
-0.406003
-0.404184
-0.402394
-0.400552
-0.398657
-0.397878
-0.413023
-0.414828
-0.415616
-0.415785
-0.415597
-0.415117
-0.414393
-0.413461
-0.412344
-0.411059
-0.40962
-0.408039
-0.406328
-0.4045
-0.402568
-0.400547
-0.398451
-0.396297
-0.394104
-0.391893
-0.389702
-0.387555
-0.385333
-0.382986
-0.38207
-0.405229
-0.406881
-0.407553
-0.407606
-0.407277
-0.406622
-0.405685
-0.404501
-0.403095
-0.401488
-0.399699
-0.397745
-0.395645
-0.393415
-0.391076
-0.388646
-0.386144
-0.383592
-0.381007
-0.378414
-0.375854
-0.373354
-0.370768
-0.367992
-0.366906
-0.397839
-0.399349
-0.399916
-0.399865
-0.399409
-0.398597
-0.397466
-0.396049
-0.394375
-0.392465
-0.390343
-0.388032
-0.385555
-0.382937
-0.3802
-0.377369
-0.374469
-0.371523
-0.368554
-0.365589
-0.362671
-0.359833
-0.356914
-0.35375
-0.35248
-0.390839
-0.392228
-0.392704
-0.392562
-0.391995
-0.391041
-0.389734
-0.388104
-0.386178
-0.383983
-0.381546
-0.378893
-0.376053
-0.373057
-0.369932
-0.36671
-0.363419
-0.360088
-0.356746
-0.353421
-0.350162
-0.34701
-0.343792
-0.340295
-0.338844
-0.384217
-0.385516
-0.385919
-0.3857
-0.385034
-0.383954
-0.382485
-0.380658
-0.378498
-0.376035
-0.373297
-0.370317
-0.367128
-0.363766
-0.360265
-0.35666
-0.352988
-0.349282
-0.345576
-0.341905
-0.338323
-0.334879
-0.331401
-0.327631
-0.326013
-0.37797
-0.379212
-0.379562
-0.37928
-0.378529
-0.377335
-0.375719
-0.373708
-0.371329
-0.368612
-0.365589
-0.362297
-0.358773
-0.355058
-0.351192
-0.347216
-0.343171
-0.339098
-0.335038
-0.331032
-0.327142
-0.323428
-0.319722
-0.315735
-0.313977
-0.372102
-0.373323
-0.37364
-0.373307
-0.372483
-0.371185
-0.369433
-0.367251
-0.364667
-0.361711
-0.358419
-0.354831
-0.350988
-0.346935
-0.342718
-0.338381
-0.333974
-0.329543
-0.325137
-0.320804
-0.316615
-0.312642
-0.308731
-0.304574
-0.302709
-0.366625
-0.367861
-0.368164
-0.367793
-0.366903
-0.365511
-0.363632
-0.361291
-0.358514
-0.355335
-0.351792
-0.347925
-0.343782
-0.33941
-0.334858
-0.330177
-0.32542
-0.32064
-0.315892
-0.311235
-0.306749
-0.302519
-0.29841
-0.294109
-0.292168
-0.361563
-0.362847
-0.363152
-0.36275
-0.361803
-0.360323
-0.358326
-0.355836
-0.352882
-0.349497
-0.345721
-0.341599
-0.337178
-0.33251
-0.327647
-0.322642
-0.317552
-0.312435
-0.307352
-0.30237
-0.297578
-0.293078
-0.288754
-0.28431
-0.282308
-0.35695
-0.358307
-0.358625
-0.358199
-0.357198
-0.355637
-0.35353
-0.350904
-0.347788
-0.344216
-0.340232
-0.335881
-0.331213
-0.32628
-0.321135
-0.315836
-0.310438
-0.305003
-0.299595
-0.294285
-0.289173
-0.284372
-0.27979
-0.275159
-0.273075
-0.352828
-0.354272
-0.354611
-0.354163
-0.353113
-0.351475
-0.349268
-0.346518
-0.343258
-0.339524
-0.33536
-0.330812
-0.325933
-0.320775
-0.315391
-0.309836
-0.304167
-0.298444
-0.292728
-0.287093
-0.281641
-0.276494
-0.271578
-0.266664
-0.264419
-0.349245
-0.35078
-0.351139
-0.35067
-0.349571
-0.347863
-0.345565
-0.342708
-0.339326
-0.335457
-0.331146
-0.326442
-0.321397
-0.316061
-0.310488
-0.30473
-0.298839
-0.292869
-0.286877
-0.280928
-0.27512
-0.269574
-0.264223
-0.258872
-0.25631
-0.346252
-0.347868
-0.348241
-0.347747
-0.346602
-0.344829
-0.342453
-0.339506
-0.336026
-0.332054
-0.327636
-0.32282
-0.317658
-0.312201
-0.306498
-0.300598
-0.294546
-0.288386
-0.282162
-0.275924
-0.269754
-0.263757
-0.257858
-0.251868
-0.248753
-0.343899
-0.345572
-0.345947
-0.345423
-0.344231
-0.3424
-0.339958
-0.336943
-0.333393
-0.329352
-0.324867
-0.319987
-0.314762
-0.309242
-0.303473
-0.297496
-0.291349
-0.285062
-0.278662
-0.272174
-0.26565
-0.259166
-0.252613
-0.245767
-0.241798
-0.34223
-0.343923
-0.34428
-0.343718
-0.342479
-0.340596
-0.338104
-0.335041
-0.33145
-0.327376
-0.322865
-0.317967
-0.312732
-0.307205
-0.30143
-0.29544
-0.289262
-0.282911
-0.276392
-0.269699
-0.262843
-0.255857
-0.248577
-0.240687
-0.235537
-0.341279
-0.342944
-0.343258
-0.342646
-0.341357
-0.33943
-0.3369
-0.333811
-0.330206
-0.32613
-0.321631
-0.316759
-0.311559
-0.306075
-0.300344
-0.294394
-0.288238
-0.281876
-0.275289
-0.268437
-0.261284
-0.253808
-0.245783
-0.236745
-0.23012
-0.341066
-0.342646
-0.342887
-0.342212
-0.340868
-0.338898
-0.336342
-0.333244
-0.329648
-0.325599
-0.321144
-0.31633
-0.311202
-0.305798
-0.300151
-0.294279
-0.288185
-0.281852
-0.275239
-0.268273
-0.260871
-0.252956
-0.244241
-0.234084
-0.225775
-0.341594
-0.343027
-0.343163
-0.342405
-0.340997
-0.338984
-0.336408
-0.333313
-0.329742
-0.32574
-0.321351
-0.31662
-0.311589
-0.306291
-0.300753
-0.294986
-0.288984
-0.282714
-0.276116
-0.269087
-0.2615
-0.253218
-0.243904
-0.232712
-0.222542
-0.342851
-0.344074
-0.344067
-0.343206
-0.34172
-0.339658
-0.33706
-0.333972
-0.330435
-0.32649
-0.32218
-0.317546
-0.312625
-0.307449
-0.302038
-0.2964
-0.290522
-0.284366
-0.277859
-0.27088
-0.26326
-0.254785
-0.244991
-0.232707
-0.220292
-0.344809
-0.345761
-0.345574
-0.344583
-0.343001
-0.340875
-0.338248
-0.335163
-0.331658
-0.327773
-0.323544
-0.319011
-0.314207
-0.309159
-0.303889
-0.298404
-0.292696
-0.286739
-0.280477
-0.273821
-0.266638
-0.258724
-0.249527
-0.237548
-0.224426
-0.34743
-0.348056
-0.34765
-0.346501
-0.344796
-0.342588
-0.339917
-0.336823
-0.333341
-0.329507
-0.325354
-0.320917
-0.316226
-0.311309
-0.306185
-0.30087
-0.29537
-0.289684
-0.28381
-0.27775
-0.271536
-0.265256
-0.259025
-0.253498
-0.254013
-0.35067
-0.350923
-0.350259
-0.348919
-0.347064
-0.344748
-0.342011
-0.338889
-0.335414
-0.331617
-0.327528
-0.323175
-0.318588
-0.313791
-0.308808
-0.303659
-0.298366
-0.292951
-0.287451
-0.281923
-0.276471
-0.271277
-0.266599
-0.263082
-0.264275
-0.354485
-0.354324
-0.353368
-0.351804
-0.349767
-0.347313
-0.344484
-0.341311
-0.337823
-0.334044
-0.33
-0.325715
-0.321213
-0.316518
-0.311654
-0.306648
-0.301529
-0.296339
-0.291131
-0.285987
-0.281027
-0.276425
-0.272396
-0.269267
-0.2691
-0.358836
-0.35823
-0.356949
-0.355128
-0.352876
-0.350255
-0.347306
-0.344057
-0.340531
-0.336748
-0.332726
-0.328484
-0.324041
-0.319418
-0.314637
-0.309727
-0.304723
-0.29967
-0.29463
-0.289682
-0.284929
-0.280502
-0.276533
-0.27314
-0.271538
-0.363695
-0.362617
-0.360982
-0.358873
-0.356376
-0.353558
-0.350462
-0.347111
-0.343523
-0.33971
-0.335683
-0.331452
-0.327031
-0.322435
-0.317683
-0.312804
-0.307831
-0.30281
-0.297799
-0.292867
-0.288093
-0.283563
-0.279349
-0.275465
-0.27262
-0.369041
-0.367472
-0.365458
-0.363033
-0.360263
-0.357223
-0.353954
-0.350476
-0.346799
-0.342927
-0.33886
-0.334601
-0.330152
-0.325524
-0.320732
-0.315801
-0.310763
-0.305662
-0.300549
-0.295483
-0.290524
-0.285731
-0.281142
-0.276738
-0.272933
-0.374869
-0.372792
-0.370376
-0.367614
-0.364549
-0.361263
-0.357798
-0.354168
-0.350374
-0.346407
-0.342258
-0.337917
-0.333378
-0.328646
-0.32373
-0.318654
-0.31345
-0.308159
-0.302831
-0.297517
-0.292268
-0.287128
-0.282127
-0.277235
-0.272709
-0.381182
-0.37858
-0.375746
-0.372629
-0.369251
-0.3657
-0.362018
-0.35821
-0.354265
-0.350161
-0.345875
-0.341387
-0.336682
-0.331759
-0.326627
-0.321308
-0.315837
-0.310259
-0.304622
-0.298979
-0.293377
-0.287856
-0.282447
-0.277126
-0.272065
-0.387989
-0.384847
-0.381581
-0.378096
-0.374391
-0.370561
-0.366641
-0.362626
-0.358489
-0.354195
-0.349706
-0.344991
-0.340031
-0.334821
-0.329373
-0.323714
-0.317885
-0.311936
-0.30592
-0.299892
-0.293903
-0.287994
-0.282197
-0.276499
-0.27103
-0.395304
-0.391603
-0.387895
-0.384036
-0.379995
-0.37587
-0.371689
-0.367431
-0.363052
-0.358502
-0.35373
-0.348697
-0.343383
-0.337785
-0.331922
-0.325832
-0.319563
-0.313175
-0.306729
-0.300284
-0.293892
-0.2876
-0.28144
-0.275407
-0.269609
-0.403137
-0.398861
-0.394703
-0.390463
-0.386079
-0.381644
-0.377174
-0.372629
-0.367946
-0.363061
-0.357913
-0.352461
-0.346687
-0.3406
-0.334229
-0.327625
-0.320851
-0.313974
-0.307064
-0.300183
-0.293386
-0.28672
-0.280218
-0.27388
-0.267797
-0.411493
-0.406623
-0.40201
-0.397389
-0.392654
-0.38789
-0.383094
-0.378206
-0.373145
-0.367832
-0.362205
-0.356225
-0.349886
-0.343211
-0.336249
-0.329064
-0.321733
-0.314333
-0.306939
-0.299616
-0.292419
-0.285392
-0.278565
-0.271941
-0.265595
-0.420365
-0.414887
-0.409817
-0.404812
-0.399716
-0.394596
-0.389429
-0.38413
-0.378602
-0.372759
-0.366541
-0.359923
-0.352917
-0.345567
-0.337941
-0.330122
-0.322199
-0.314257
-0.306372
-0.29861
-0.291021
-0.283645
-0.276507
-0.26961
-0.263012
-0.429735
-0.423636
-0.418108
-0.412719
-0.407247
-0.401738
-0.396141
-0.390348
-0.384252
-0.377767
-0.370844
-0.363481
-0.355713
-0.347612
-0.339267
-0.330779
-0.322244
-0.313752
-0.305378
-0.297184
-0.289215
-0.281503
-0.274067
-0.266905
-0.260061
-0.43957
-0.432841
-0.426858
-0.421081
-0.415212
-0.409268
-0.403169
-0.396789
-0.390013
-0.382767
-0.375026
-0.366817
-0.358208
-0.349296
-0.340194
-0.331014
-0.321859
-0.31282
-0.303967
-0.295355
-0.287019
-0.278984
-0.271261
-0.263841
-0.256757
-0.449818
-0.442457
-0.436024
-0.429852
-0.423557
-0.41712
-0.410435
-0.403359
-0.395784
-0.38766
-0.378994
-0.369851
-0.360334
-0.35057
-0.340687
-0.330808
-0.321039
-0.311464
-0.302146
-0.293131
-0.284444
-0.276099
-0.268101
-0.260431
-0.253116
-0.460411
-0.452423
-0.445544
-0.438967
-0.432208
-0.425208
-0.417837
-0.409949
-0.401455
-0.392337
-0.38265
-0.372501
-0.362029
-0.351385
-0.340715
-0.330143
-0.319772
-0.309678
-0.299915
-0.290515
-0.281493
-0.272855
-0.264594
-0.256685
-0.249149
-0.471262
-0.46266
-0.455342
-0.448343
-0.44107
-0.433424
-0.425259
-0.416437
-0.406902
-0.396686
-0.385896
-0.374686
-0.363229
-0.351698
-0.340246
-0.328997
-0.318045
-0.307456
-0.297269
-0.287504
-0.278166
-0.26925
-0.260741
-0.252603
-0.244861
-0.482266
-0.473069
-0.465321
-0.457877
-0.450029
-0.441643
-0.432567
-0.422687
-0.411997
-0.400592
-0.388636
-0.376329
-0.363876
-0.351464
-0.339249
-0.327347
-0.315841
-0.304782
-0.294196
-0.284089
-0.274455
-0.265279
-0.256538
-0.248184
-0.240255
-0.4933
-0.483537
-0.475364
-0.467444
-0.458951
-0.449721
-0.439612
-0.428555
-0.41661
-0.403941
-0.390775
-0.377356
-0.363912
-0.35064
-0.337689
-0.325167
-0.313138
-0.301639
-0.29068
-0.280255
-0.270345
-0.260929
-0.251974
-0.243421
-0.235324
-0.504222
-0.49393
-0.485337
-0.476904
-0.467686
-0.457501
-0.446239
-0.433894
-0.420608
-0.406622
-0.392224
-0.377695
-0.363283
-0.349182
-0.335534
-0.322427
-0.309911
-0.298004
-0.286701
-0.275982
-0.265821
-0.256186
-0.247037
-0.238302
-0.23006
-0.514878
-0.504098
-0.49509
-0.486098
-0.476066
-0.464815
-0.452284
-0.438555
-0.423862
-0.408528
-0.392896
-0.37728
-0.361934
-0.347048
-0.332745
-0.319097
-0.306132
-0.29385
-0.282233
-0.271249
-0.260861
-0.25103
-0.241709
-0.232812
-0.22445
-0.525097
-0.513878
-0.504455
-0.494851
-0.483914
-0.471485
-0.457583
-0.442392
-0.426249
-0.409558
-0.392712
-0.376046
-0.359815
-0.344194
-0.329286
-0.315141
-0.301768
-0.28915
-0.277252
-0.266031
-0.255443
-0.245442
-0.235971
-0.226934
-0.21848
-0.534695
-0.523091
-0.513252
-0.502979
-0.491043
-0.477333
-0.461972
-0.445263
-0.427652
-0.409618
-0.391597
-0.373934
-0.356875
-0.340577
-0.325119
-0.310526
-0.296789
-0.283871
-0.271727
-0.260302
-0.249542
-0.239398
-0.229803
-0.22065
-0.212131
-0.543483
-0.531551
-0.521291
-0.510287
-0.497262
-0.48218
-0.465291
-0.447033
-0.427959
-0.40862
-0.389479
-0.370885
-0.353066
-0.336154
-0.320204
-0.305216
-0.29116
-0.277985
-0.265631
-0.254035
-0.243135
-0.232877
-0.223185
-0.213941
-0.205386
-0.551263
-0.539062
-0.528374
-0.51658
-0.50238
-0.485851
-0.467389
-0.447577
-0.427072
-0.406484
-0.386295
-0.366846
-0.348342
-0.330885
-0.314504
-0.299175
-0.284849
-0.27146
-0.258935
-0.247203
-0.236196
-0.225855
-0.216094
-0.206787
-0.198228
-0.557832
-0.545424
-0.534301
-0.521656
-0.506211
-0.488178
-0.468125
-0.446779
-0.424898
-0.403137
-0.381986
-0.361767
-0.342658
-0.32473
-0.307982
-0.29237
-0.277825
-0.264266
-0.251612
-0.239783
-0.228704
-0.218313
-0.208514
-0.199172
-0.190641
-0.562991
-0.55044
-0.538872
-0.525322
-0.508574
-0.489006
-0.467369
-0.444538
-0.421357
-0.398515
-0.376499
-0.355603
-0.335974
-0.317651
-0.300605
-0.284769
-0.270058
-0.256378
-0.243638
-0.231751
-0.220638
-0.210231
-0.200425
-0.191079
-0.18261
-0.566547
-0.553914
-0.541892
-0.527393
-0.509302
-0.488191
-0.465006
-0.440762
-0.416377
-0.392562
-0.369786
-0.348314
-0.328254
-0.309615
-0.292341
-0.276343
-0.261521
-0.24777
-0.23499
-0.223087
-0.211979
-0.201593
-0.191814
-0.182496
-0.174122
-0.568311
-0.555658
-0.543177
-0.527694
-0.508241
-0.485608
-0.460937
-0.435374
-0.4099
-0.385229
-0.361808
-0.339862
-0.319466
-0.300593
-0.283162
-0.267066
-0.25219
-0.23842
-0.225648
-0.213774
-0.202712
-0.192385
-0.182668
-0.173411
-0.165168
-0.568108
-0.555494
-0.542553
-0.526066
-0.505254
-0.481145
-0.455076
-0.428311
-0.401876
-0.376478
-0.35253
-0.33022
-0.309581
-0.290558
-0.273044
-0.256917
-0.242048
-0.228313
-0.215598
-0.203798
-0.192825
-0.182597
-0.172979
-0.163819
-0.155742
-0.565777
-0.553262
-0.539864
-0.522368
-0.500225
-0.474712
-0.447355
-0.419522
-0.392265
-0.366276
-0.341927
-0.319362
-0.298579
-0.27949
-0.26197
-0.245879
-0.231077
-0.217433
-0.204827
-0.19315
-0.18231
-0.172223
-0.162741
-0.153715
-0.14584
-0.561175
-0.548816
-0.534971
-0.516478
-0.493057
-0.466237
-0.437723
-0.40897
-0.381043
-0.354602
-0.329978
-0.307272
-0.286442
-0.267376
-0.249926
-0.23394
-0.219269
-0.205774
-0.19333
-0.181824
-0.171163
-0.16126
-0.151954
-0.1431
-0.135463
-0.554179
-0.542032
-0.527758
-0.508299
-0.483674
-0.455666
-0.426145
-0.396632
-0.368191
-0.341444
-0.316675
-0.293938
-0.273161
-0.254205
-0.236904
-0.221094
-0.206617
-0.19333
-0.181102
-0.169819
-0.159385
-0.149709
-0.140621
-0.131978
-0.124616
-0.54469
-0.532807
-0.518131
-0.497755
-0.472023
-0.442967
-0.412603
-0.3825
-0.353705
-0.326799
-0.302012
-0.279359
-0.258734
-0.239975
-0.222902
-0.207339
-0.193122
-0.180102
-0.168147
-0.157139
-0.146981
-0.137578
-0.128749
-0.120358
-0.113309
-0.532631
-0.521064
-0.506022
-0.484797
-0.458074
-0.428127
-0.397094
-0.366576
-0.337592
-0.310671
-0.285996
-0.263539
-0.243164
-0.22469
-0.207922
-0.192678
-0.178787
-0.166097
-0.154471
-0.143791
-0.133958
-0.124875
-0.116351
-0.108253
-0.101553
-0.51795
-0.506751
-0.491388
-0.469398
-0.44182
-0.411152
-0.379634
-0.348879
-0.319869
-0.293078
-0.26864
-0.246488
-0.226461
-0.208358
-0.191976
-0.177122
-0.163622
-0.151323
-0.140084
-0.129786
-0.12033
-0.111615
-0.103441
-0.0956814
-0.0893672
-0.500624
-0.489841
-0.474212
-0.451557
-0.423275
-0.392066
-0.360251
-0.329439
-0.300564
-0.274045
-0.249966
-0.228228
-0.208643
-0.190997
-0.175076
-0.160683
-0.147642
-0.135794
-0.125001
-0.11514
-0.106114
-0.0978162
-0.0900396
-0.0826642
-0.0767732
-0.480655
-0.470336
-0.454505
-0.431299
-0.402474
-0.370912
-0.338991
-0.308299
-0.279717
-0.253606
-0.230006
-0.208785
-0.189734
-0.172627
-0.157243
-0.143381
-0.130863
-0.119529
-0.109239
-0.0998716
-0.0913278
-0.0834995
-0.0761705
-0.069227
-0.0637959
-0.45807
-0.448262
-0.432302
-0.408671
-0.379475
-0.347751
-0.315913
-0.285514
-0.257377
-0.231806
-0.208799
-0.188193
-0.169764
-0.153275
-0.138501
-0.125239
-0.113307
-0.102548
-0.0928197
-0.0840012
-0.0759946
-0.0686886
-0.0618602
-0.0553991
-0.0504643
-0.432926
-0.423674
-0.407663
-0.383742
-0.354353
-0.32266
-0.29109
-0.261153
-0.233606
-0.2087
-0.186392
-0.166495
-0.148771
-0.132976
-0.118881
-0.106282
-0.0949983
-0.0848723
-0.0757632
-0.0675506
-0.0601371
-0.0534092
-0.047138
-0.041214
-0.0368144
-0.405301
-0.396649
-0.380674
-0.356606
-0.327203
-0.295732
-0.264612
-0.235295
-0.208475
-0.184351
-0.162842
-0.143741
-0.126799
-0.111766
-0.0984137
-0.0865383
-0.075961
-0.0665248
-0.058091
-0.0505407
-0.0437774
-0.0376862
-0.032034
-0.0267093
-0.022892
-0.375301
-0.367292
-0.351441
-0.327373
-0.298139
-0.267077
-0.236578
-0.208032
-0.182068
-0.158833
-0.138215
-0.119989
-0.103897
-0.0896896
-0.0771375
-0.06604
-0.0562212
-0.0475271
-0.0398218
-0.0329888
-0.0269332
-0.0215401
-0.0165758
-0.0119246
-0.00874637
-0.343054
-0.335727
-0.320094
-0.296176
-0.267289
-0.236815
-0.207101
-0.179468
-0.154478
-0.13223
-0.112586
-0.0953047
-0.0801249
-0.0667959
-0.0550931
-0.0448194
-0.035804
-0.0278975
-0.0209687
-0.0149049
-0.00961365
-0.00498267
-0.00078363
0.00310719
0.00559391
-0.308708
-0.302102
-0.286782
-0.263164
-0.234798
-0.205083
-0.176308
-0.149717
-0.125808
-0.104637
-0.0860386
-0.0697635
-0.0555468
-0.0431408
-0.0323258
-0.0229111
-0.0147328
-0.00764878
-0.00153468
0.003716
0.00819077
0.0119948
0.0153443
0.018384
0.020149
-0.272432
-0.266583
-0.251672
-0.2285
-0.200823
-0.17203
-0.144335
-0.118905
-0.096174
-0.0761573
-0.058669
-0.0434511
-0.0302388
-0.0187888
-0.00888809
-0.000354347
0.00696752
0.01321
0.0184872
0.0228957
0.0265142
0.0294354
0.0318564
0.0339549
0.034944
-0.234413
-0.229353
-0.214945
-0.192363
-0.165535
-0.137814
-0.111331
-0.0871684
-0.0657015
-0.0469078
-0.0305833
-0.0164642
-0.00428749
0.00618472
0.0151572
0.0228028
0.0292653
0.0346649
0.0391008
0.0426541
0.0453915
0.0473894
0.0488049
0.0498079
0.0497767
-0.194851
-0.190611
-0.176797
-0.154944
-0.129114
-0.102604
-0.0774505
-0.0546527
-0.0345261
-0.0170149
-0.00189943
0.0110879
0.0222079
0.0316921
0.0397369
0.0465043
0.0521257
0.056704
0.060316
0.0630176
0.0648581
0.0658835
0.0661294
0.065614
0.0639993
-0.153962
-0.150567
-0.137436
-0.116442
-0.0917501
-0.0665784
-0.0428609
-0.0215128
-0.00279352
0.0133839
0.0272522
0.0390822
0.0491323
0.0576289
0.0647619
0.0706851
0.0755188
0.0793485
0.0822233
0.0841667
0.0852008
0.085288
0.0841429
0.0814191
0.0776877
-0.111971
-0.109444
-0.0970792
-0.0770653
-0.0536394
-0.0299204
-0.00773352
0.0120895
0.0293429
0.0441413
0.0567292
0.0673796
0.0763494
0.0838622
0.0901058
0.0952331
0.0993643
0.102584
0.104936
0.106447
0.107153
0.106916
0.10497
0.100562
0.0959079
-0.0691144
-0.0674727
-0.0559508
-0.037029
-0.0149835
0.00718148
0.0277548
0.0459875
0.0617236
0.0751032
0.0863799
0.0958281
0.103703
0.110227
0.115587
0.119942
0.123421
0.126128
0.128143
0.129569
0.130566
0.131072
0.130126
0.127191
0.129857
-0.0256247
-0.0248841
-0.0142768
0.003451
0.0240138
0.0445363
0.063425
0.0800115
0.0941868
0.106113
0.11605
0.124272
0.131032
0.136549
0.141009
0.144572
0.14737
0.149517
0.151113
0.152289
0.153216
0.153862
0.153694
0.153188
0.158174
0.0182529
0.0180811
0.0277104
0.0441545
0.0631465
0.0819521
0.0990974
0.113992
0.126571
0.137013
0.145585
0.152559
0.158182
0.162671
0.166208
0.168951
0.171034
0.172574
0.173679
0.17448
0.175122
0.17557
0.175454
0.17532
0.179746
0.062273
0.0611826
0.0697788
0.0848623
0.10221
0.119238
0.134594
0.147762
0.158717
0.167653
0.174839
0.180543
0.185008
0.188443
0.191025
0.192908
0.194224
0.195086
0.195601
0.195891
0.196086
0.196161
0.195807
0.195463
0.19886
0.106191
0.10418
0.111697
0.125356
0.141001
0.156207
0.16974
0.181158
0.19047
0.197885
0.203671
0.20809
0.211379
0.213737
0.215337
0.216325
0.216825
0.216945
0.216784
0.21645
0.216053
0.215561
0.214693
0.213857
0.216278
0.149764
0.146836
0.153238
0.165422
0.179321
0.192673
0.204364
0.21402
0.221683
0.22757
0.231948
0.235075
0.237175
0.238442
0.239039
0.239103
0.238752
0.238084
0.237188
0.236162
0.235096
0.233945
0.232453
0.231021
0.2325
0.192754
0.188915
0.194175
0.20485
0.216975
0.228458
0.238302
0.246196
0.252211
0.256574
0.259548
0.261381
0.26229
0.262458
0.262041
0.261165
0.259939
0.258454
0.256789
0.255028
0.253247
0.251393
0.249236
0.247178
0.247757
0.234926
0.230188
0.23429
0.243434
0.253773
0.263388
0.271392
0.277537
0.281919
0.284771
0.286352
0.286901
0.286625
0.285698
0.284265
0.282444
0.280336
0.278021
0.275572
0.273061
0.270551
0.267983
0.265157
0.262474
0.262191
0.276051
0.270431
0.27337
0.280976
0.289534
0.297294
0.30348
0.307901
0.310675
0.312041
0.31225
0.311533
0.310089
0.308079
0.30564
0.302881
0.299894
0.296753
0.29352
0.29026
0.287024
0.283753
0.280272
0.276977
0.27587
0.315909
0.309428
0.311209
0.317284
0.324081
0.330015
0.334419
0.337152
0.338356
0.338268
0.337137
0.335183
0.332594
0.329524
0.326098
0.322418
0.318568
0.314613
0.31061
0.306615
0.30267
0.298717
0.294606
0.290719
0.288822
0.354286
0.346971
0.347608
0.352175
0.357244
0.361397
0.364066
0.36516
0.36484
0.363344
0.360913
0.357759
0.35406
0.349959
0.345574
0.341
0.33631
0.331564
0.326813
0.322106
0.317477
0.31287
0.308159
0.303705
0.301052
0.390978
0.38286
0.382379
0.385473
0.388863
0.391292
0.392286
0.391802
0.390014
0.387163
0.383481
0.379173
0.374405
0.369312
0.364005
0.358568
0.35307
0.347565
0.342096
0.336706
0.331424
0.326196
0.320917
0.315922
0.312548
0.425792
0.416905
0.415341
0.417011
0.418784
0.419558
0.41895
0.416958
0.41377
0.409625
0.404751
0.39934
0.393553
0.387514
0.381326
0.375067
0.3688
0.36257
0.356418
0.350381
0.34448
0.338668
0.332856
0.327349
0.32329
0.458543
0.448926
0.446325
0.446631
0.446863
0.446065
0.443937
0.440517
0.436004
0.430636
0.424634
0.418182
0.41143
0.404498
0.397478
0.390442
0.383447
0.376535
0.36974
0.363093
0.356612
0.350254
0.343945
0.337956
0.33325
0.489057
0.478755
0.47517
0.474185
0.472963
0.470687
0.467133
0.462373
0.456619
0.450106
0.443047
0.43562
0.427967
0.420197
0.412399
0.404637
0.396963
0.389413
0.382018
0.374803
0.367783
0.360918
0.35415
0.347711
0.3424
0.517174
0.506234
0.501727
0.499536
0.496959
0.493308
0.48843
0.482429
0.475524
0.46795
0.459914
0.451584
0.443095
0.434551
0.426032
0.417599
0.409297
0.401159
0.39321
0.385472
0.377955
0.370626
0.363437
0.356583
0.35071
0.542743
0.531218
0.52586
0.522556
0.518733
0.51382
0.507729
0.500592
0.492635
0.484091
0.47516
0.466005
0.456753
0.447501
0.438324
0.429278
0.420403
0.411727
0.403274
0.39506
0.387091
0.379342
0.371771
0.364537
0.35815
0.565629
0.553573
0.547442
0.543128
0.538178
0.532125
0.52494
0.516778
0.507873
0.498455
0.488719
0.47882
0.468881
0.458992
0.449223
0.439625
0.430235
0.421077
0.412171
0.403529
0.395156
0.38703
0.379119
0.371542
0.36469
0.585708
0.57318
0.56636
0.561148
0.555197
0.548134
0.53998
0.530912
0.521168
0.510977
0.500528
0.489973
0.479426
0.468975
0.458683
0.448598
0.438752
0.429169
0.419863
0.410844
0.402116
0.393659
0.385448
0.377568
0.370306
0.60287
0.589932
0.582513
0.576522
0.569704
0.561767
0.552776
0.542925
0.532456
0.521598
0.510534
0.499412
0.48834
0.477403
0.46666
0.456154
0.445917
0.435967
0.426317
0.416974
0.40794
0.399199
0.390731
0.38259
0.374973
0.61702
0.603734
0.595812
0.589168
0.581624
0.572956
0.563264
0.552757
0.541683
0.530266
0.518688
0.507091
0.495581
0.484237
0.473117
0.462261
0.451696
0.44144
0.431503
0.42189
0.412601
0.403624
0.394942
0.386582
0.37867
0.628074
0.614508
0.606183
0.599017
0.590893
0.58164
0.571388
0.560358
0.5488
0.536936
0.524948
0.512971
0.501111
0.489443
0.478022
0.466886
0.45606
0.44556
0.435395
0.425567
0.416076
0.406911
0.398058
0.389524
0.381378
0.635967
0.622189
0.613564
0.606012
0.597458
0.587772
0.577105
0.565686
0.553768
0.541574
0.52928
0.517022
0.504902
0.492993
0.481349
0.470005
0.458986
0.448306
0.437971
0.427985
0.418344
0.409041
0.400063
0.3914
0.383082
0.640647
0.626726
0.617907
0.610108
0.601277
0.591313
0.580378
0.568708
0.556558
0.544149
0.531657
0.519217
0.506929
0.494865
0.483076
0.471598
0.460455
0.449658
0.439216
0.429127
0.419391
0.410001
0.400942
0.392196
0.383772
0.642075
0.628082
0.619179
0.611273
0.602323
0.592237
0.581183
0.569401
0.557147
0.544642
0.532061
0.51954
0.507176
0.495042
0.483189
0.471652
0.460453
0.449606
0.439116
0.428984
0.419207
0.409778
0.400685
0.391904
0.383439
0.640231
0.626236
0.617358
0.609489
0.600577
0.590526
0.579505
0.567752
0.555523
0.54304
0.530481
0.517978
0.505633
0.493516
0.481679
0.470157
0.458974
0.448141
0.437665
0.427547
0.417784
0.408369
0.399287
0.390517
0.382078
0.635108
0.621182
0.612438
0.60475
0.596034
0.586178
0.575339
0.563755
0.551681
0.539341
0.526912
0.51453
0.502296
0.490283
0.478543
0.467113
0.456014
0.445262
0.434862
0.424816
0.415122
0.405771
0.396747
0.388036
0.379689
0.626713
0.612928
0.604428
0.597062
0.588701
0.579196
0.568691
0.557416
0.545626
0.533548
0.52136
0.5092
0.497171
0.485348
0.473786
0.462521
0.451578
0.440971
0.430709
0.420794
0.411224
0.401988
0.393067
0.384463
0.376273
0.615072
0.601497
0.593348
0.586446
0.578595
0.569598
0.559576
0.548749
0.537373
0.525674
0.513835
0.501998
0.490267
0.478721
0.467417
0.456392
0.445674
0.435279
0.425215
0.415488
0.406097
0.397027
0.388254
0.379804
0.371838
0.600222
0.586926
0.579234
0.572934
0.565748
0.557413
0.548021
0.53778
0.526944
0.515741
0.50436
0.492944
0.481603
0.470419
0.459451
0.448741
0.438317
0.428197
0.418394
0.408912
0.399753
0.390899
0.382321
0.374071
0.366391
0.582217
0.569267
0.562135
0.556573
0.550199
0.542678
0.53406
0.52454
0.514369
0.503778
0.492959
0.482063
0.471203
0.460464
0.449911
0.439588
0.429526
0.419746
0.410261
0.401082
0.392209
0.383622
0.375284
0.367278
0.359947
0.561126
0.548588
0.542114
0.537419
0.532004
0.525443
0.51774
0.509073
0.499688
0.489821
0.479669
0.469387
0.459096
0.448886
0.438824
0.428958
0.419325
0.409947
0.400841
0.392019
0.383486
0.375214
0.36716
0.359443
0.35252
0.537033
0.524968
0.519247
0.515542
0.511227
0.505767
0.499116
0.491429
0.482949
0.473916
0.464531
0.454957
0.445321
0.435718
0.426221
0.416884
0.407744
0.39883
0.390159
0.38175
0.373607
0.365699
0.357974
0.350588
0.344131
0.510033
0.498503
0.493622
0.491026
0.487942
0.48372
0.478252
0.471669
0.464208
0.456113
0.447592
0.438817
0.429919
0.421001
0.412142
0.403399
0.394817
0.386424
0.378246
0.370302
0.362601
0.355105
0.347751
0.340737
0.334801
0.480239
0.4693
0.465342
0.463964
0.462237
0.459382
0.455221
0.449859
0.443527
0.436472
0.428909
0.421018
0.412938
0.40478
0.396627
0.388544
0.380579
0.372767
0.365135
0.357707
0.350497
0.343461
0.336521
0.329918
0.324554
0.447774
0.437479
0.43452
0.434462
0.434209
0.43284
0.430105
0.426077
0.420978
0.415057
0.408541
0.401616
0.394431
0.387103
0.379723
0.372362
0.365073
0.357895
0.350861
0.344
0.337329
0.330797
0.324315
0.318161
0.313416
0.412775
0.403175
0.401282
0.402635
0.403963
0.404194
0.402996
0.400405
0.396636
0.391942
0.386556
0.380674
0.374455
0.368023
0.361478
0.354897
0.348339
0.341849
0.335463
0.329216
0.32313
0.317148
0.311164
0.305494
0.301416
0.375394
0.366534
0.365766
0.368612
0.371618
0.373551
0.37399
0.372934
0.370586
0.367202
0.363024
0.358257
0.353071
0.347598
0.341947
0.3362
0.330425
0.32467
0.318979
0.313391
0.307934
0.302546
0.2971
0.29195
0.288581
0.335792
0.327714
0.328122
0.33253
0.337299
0.341027
0.343195
0.343762
0.342918
0.340921
0.338022
0.334437
0.330344
0.325887
0.321182
0.31632
0.311374
0.3064
0.301447
0.296561
0.291775
0.287022
0.282154
0.277557
0.274937
0.294143
0.286883
0.288509
0.294537
0.301142
0.306744
0.310724
0.312993
0.313728
0.313188
0.311632
0.309287
0.306343
0.302952
0.29924
0.295306
0.291232
0.28708
0.282904
0.278758
0.274681
0.270604
0.266353
0.262339
0.260508
0.250631
0.244223
0.247098
0.254791
0.263292
0.270837
0.276699
0.28074
0.283118
0.284096
0.283939
0.282887
0.281138
0.278857
0.276179
0.273212
0.270045
0.266749
0.263383
0.26001
0.256679
0.253313
0.249716
0.246316
0.245311
0.205452
0.199924
0.204069
0.213458
0.223901
0.233444
0.241248
0.247118
0.251197
0.253744
0.255034
0.255317
0.254804
0.253669
0.252057
0.250087
0.247856
0.245442
0.242913
0.24034
0.237782
0.235162
0.232252
0.229493
0.229352
0.158811
0.154185
0.159612
0.170715
0.183131
0.194714
0.204505
0.212253
0.218077
0.222236
0.225012
0.226665
0.227418
0.227456
0.226935
0.225983
0.224707
0.223192
0.221517
0.219762
0.217997
0.216148
0.213953
0.211858
0.212621
0.110921
0.107217
0.113925
0.126746
0.141152
0.154801
0.166614
0.176276
0.18388
0.189683
0.193974
0.197023
0.199063
0.200292
0.200876
0.200953
0.200638
0.200028
0.19921
0.198276
0.197311
0.196245
0.194785
0.193371
0.195079
0.062005
0.059236
0.0672156
0.0817433
0.0981391
0.113868
0.127724
0.139322
0.148731
0.156201
0.162027
0.166487
0.169827
0.172255
0.173947
0.17505
0.175691
0.175977
0.176002
0.175874
0.175696
0.175406
0.174678
0.173948
0.176646
0.0122929
0.0104678
0.0196976
0.0359063
0.0542777
0.0720849
0.0879893
0.101537
0.112765
0.121914
0.129284
0.135162
0.139805
0.14343
0.146221
0.148338
0.149914
0.151065
0.151898
0.152534
0.153095
0.153534
0.153496
0.153417
0.157155
-0.0379795
-0.0388567
-0.0284082
-0.0105589
0.00975807
0.0296264
0.0475741
0.0630719
0.0761206
0.0869525
0.0958683
0.103164
0.109103
0.113914
0.117788
0.120892
0.123368
0.125338
0.126918
0.128245
0.129464
0.130536
0.131068
0.13153
0.13635
-0.0885713
-0.0885015
-0.076876
-0.0574405
-0.0352237
-0.0133255
0.00664658
0.0240834
0.038947
0.0514565
0.0619127
0.0706173
0.077842
0.083821
0.0887538