/*--------------------------------*- C++ -*----------------------------------*\
  =========                 |
  \\      /  F ield         | OpenFOAM: The Open Source CFD Toolbox
   \\    /   O peration     | Website:  https://openfoam.org
    \\  /    A nd           | Version:  6.0
     \\/     M anipulation  |
\*---------------------------------------------------------------------------*/
FoamFile
{
    version     2.0;
    format      ascii;
    class       volScalarField;
    location    "40";
    object      p;
}
// * * * * * * * * * * * * * * * * * * * * * * * * * * * * * * * * * * * * * //

dimensions      [0 2 -2 0 0 0 0];

internalField   nonuniform List<scalar> 
12500
(
-0.242153
-0.242915
-0.243441
-0.243843
-0.244186
-0.244478
-0.244728
-0.244946
-0.245138
-0.24531
-0.245465
-0.245607
-0.24574
-0.245864
-0.245984
-0.2461
-0.246216
-0.246333
-0.246454
-0.24658
-0.246718
-0.246868
-0.246995
-0.24708
-0.247479
-0.242246
-0.243012
-0.243541
-0.243943
-0.244287
-0.244579
-0.244829
-0.245047
-0.245238
-0.245409
-0.245564
-0.245706
-0.245837
-0.245961
-0.24608
-0.246195
-0.24631
-0.246427
-0.246547
-0.246673
-0.246811
-0.246961
-0.247089
-0.247173
-0.247575
-0.242405
-0.243174
-0.243704
-0.244106
-0.244448
-0.244738
-0.244985
-0.245199
-0.245387
-0.245554
-0.245704
-0.245842
-0.245969
-0.246088
-0.246202
-0.246313
-0.246423
-0.246535
-0.246651
-0.246773
-0.246907
-0.247054
-0.247179
-0.24726
-0.247663
-0.242631
-0.243402
-0.243931
-0.244331
-0.244669
-0.244954
-0.245196
-0.245403
-0.245584
-0.245743
-0.245886
-0.246015
-0.246133
-0.246244
-0.246348
-0.24645
-0.246551
-0.246654
-0.246761
-0.246875
-0.247002
-0.247143
-0.247262
-0.247336
-0.247739
-0.242924
-0.243697
-0.244225
-0.24462
-0.244952
-0.245229
-0.245462
-0.245659
-0.245829
-0.245977
-0.246108
-0.246224
-0.24633
-0.246427
-0.246518
-0.246606
-0.246693
-0.246783
-0.246876
-0.246978
-0.247093
-0.247224
-0.247334
-0.247397
-0.247799
-0.243287
-0.24406
-0.244584
-0.244973
-0.245297
-0.245563
-0.245784
-0.245968
-0.246123
-0.246256
-0.24637
-0.24647
-0.246558
-0.246637
-0.246709
-0.246778
-0.246846
-0.246916
-0.246991
-0.247075
-0.247173
-0.24729
-0.247387
-0.247436
-0.247835
-0.243721
-0.244493
-0.245012
-0.245392
-0.245704
-0.245957
-0.246162
-0.246329
-0.246466
-0.246579
-0.246673
-0.246751
-0.246816
-0.246871
-0.246919
-0.246963
-0.247005
-0.24705
-0.2471
-0.24716
-0.247237
-0.247334
-0.247413
-0.247443
-0.247838
-0.244228
-0.244997
-0.245509
-0.245878
-0.246176
-0.246412
-0.246597
-0.246743
-0.246858
-0.246947
-0.247015
-0.247066
-0.247103
-0.247129
-0.247146
-0.247158
-0.247169
-0.247181
-0.2472
-0.247228
-0.247276
-0.247348
-0.247404
-0.247409
-0.247798
-0.244809
-0.245575
-0.246078
-0.246433
-0.246713
-0.246929
-0.247091
-0.247212
-0.247299
-0.24736
-0.247397
-0.247416
-0.247419
-0.247409
-0.247389
-0.247363
-0.247333
-0.247305
-0.247283
-0.247273
-0.247284
-0.247323
-0.247348
-0.247321
-0.247703
-0.245469
-0.246228
-0.246719
-0.247058
-0.247317
-0.247509
-0.247644
-0.247736
-0.247792
-0.247819
-0.247821
-0.247802
-0.247765
-0.247713
-0.247649
-0.247575
-0.247498
-0.24742
-0.247348
-0.247289
-0.247253
-0.247249
-0.247234
-0.247169
-0.24754
-0.246211
-0.24696
-0.247436
-0.247755
-0.24799
-0.248153
-0.248258
-0.248316
-0.248337
-0.248326
-0.248288
-0.248226
-0.248144
-0.248042
-0.247926
-0.247798
-0.247662
-0.247525
-0.247392
-0.247271
-0.247177
-0.247118
-0.247053
-0.246939
-0.247295
-0.247038
-0.247774
-0.248232
-0.248527
-0.248733
-0.248865
-0.248935
-0.248956
-0.248936
-0.248883
-0.248801
-0.248691
-0.248557
-0.2484
-0.248224
-0.248032
-0.247829
-0.24762
-0.247413
-0.247218
-0.247051
-0.246923
-0.246793
-0.246616
-0.246952
-0.247954
-0.248673
-0.249108
-0.249375
-0.249549
-0.249644
-0.249675
-0.249655
-0.249592
-0.249493
-0.249361
-0.249199
-0.249009
-0.248791
-0.248549
-0.248285
-0.248004
-0.247712
-0.247417
-0.247132
-0.246873
-0.246658
-0.246445
-0.246188
-0.246495
-0.248964
-0.24966
-0.250068
-0.250302
-0.250439
-0.250493
-0.250481
-0.250416
-0.250306
-0.250158
-0.249973
-0.249756
-0.249504
-0.249221
-0.248906
-0.248562
-0.248194
-0.247807
-0.24741
-0.247016
-0.246647
-0.246322
-0.246001
-0.245639
-0.245905
-0.250073
-0.25074
-0.251114
-0.25131
-0.251404
-0.251414
-0.251355
-0.25124
-0.25108
-0.250879
-0.25064
-0.250363
-0.250049
-0.249696
-0.249304
-0.248875
-0.24841
-0.247916
-0.247401
-0.24688
-0.246377
-0.245916
-0.245456
-0.244958
-0.245162
-0.251286
-0.251915
-0.252249
-0.252402
-0.252448
-0.252407
-0.252296
-0.252128
-0.251914
-0.251658
-0.251362
-0.251026
-0.250646
-0.250222
-0.249751
-0.249231
-0.248663
-0.248053
-0.247406
-0.246737
-0.246074
-0.245445
-0.244809
-0.24413
-0.244243
-0.252606
-0.25319
-0.253477
-0.253579
-0.253571
-0.253473
-0.253304
-0.25308
-0.252808
-0.252495
-0.25214
-0.251743
-0.251298
-0.250802
-0.250251
-0.249639
-0.248965
-0.24823
-0.247439
-0.246604
-0.245754
-0.244921
-0.244062
-0.243143
-0.243121
-0.25404
-0.254568
-0.254801
-0.254844
-0.254774
-0.254613
-0.254381
-0.254093
-0.253761
-0.253387
-0.252971
-0.252512
-0.252003
-0.251436
-0.250806
-0.250103
-0.249321
-0.248459
-0.247514
-0.246498
-0.245435
-0.244359
-0.243222
-0.24199
-0.241765
-0.255591
-0.256054
-0.256223
-0.256199
-0.256059
-0.255826
-0.255523
-0.255167
-0.254767
-0.254329
-0.25385
-0.253328
-0.252754
-0.252119
-0.251412
-0.250621
-0.249735
-0.248744
-0.247644
-0.246434
-0.245135
-0.243779
-0.242305
-0.240666
-0.240144
-0.257264
-0.257653
-0.257748
-0.257648
-0.257426
-0.257112
-0.25673
-0.256296
-0.255823
-0.255315
-0.254769
-0.254181
-0.253542
-0.25284
-0.252059
-0.251185
-0.250199
-0.249087
-0.247831
-0.246424
-0.244875
-0.243205
-0.241333
-0.239176
-0.238223
-0.259068
-0.25937
-0.259381
-0.259193
-0.25888
-0.258474
-0.258
-0.25748
-0.256924
-0.256338
-0.255719
-0.255062
-0.254355
-0.253585
-0.252734
-0.251781
-0.250705
-0.24948
-0.24808
-0.246482
-0.24468
-0.242677
-0.240358
-0.237566
-0.236006
-0.261008
-0.261214
-0.261129
-0.260841
-0.260423
-0.259911
-0.259335
-0.258716
-0.258066
-0.257392
-0.256692
-0.255958
-0.25518
-0.254341
-0.253422
-0.252398
-0.251242
-0.249923
-0.248402
-0.24664
-0.244608
-0.242287
-0.239513
-0.236001
-0.233612
-0.263095
-0.263192
-0.262999
-0.262597
-0.26206
-0.261429
-0.260736
-0.260004
-0.259249
-0.258475
-0.257683
-0.256864
-0.256009
-0.2551
-0.254116
-0.253032
-0.251817
-0.250432
-0.24883
-0.246953
-0.244746
-0.242158
-0.23896
-0.234635
-0.23103
-0.265341
-0.265318
-0.265002
-0.264473
-0.263801
-0.263035
-0.262209
-0.261351
-0.260475
-0.259589
-0.258694
-0.257783
-0.256845
-0.255866
-0.254826
-0.253701
-0.252461
-0.251067
-0.249468
-0.247586
-0.245329
-0.242575
-0.23893
-0.233416
-0.227726
-0.267761
-0.267604
-0.267152
-0.266479
-0.265657
-0.264739
-0.263765
-0.262764
-0.261754
-0.260744
-0.259735
-0.258723
-0.257701
-0.256657
-0.255577
-0.254446
-0.253248
-0.251962
-0.25056
-0.249
-0.247218
-0.245077
-0.242017
-0.236642
-0.230226
-0.270376
-0.27007
-0.269465
-0.268631
-0.267643
-0.266557
-0.265419
-0.264261
-0.263104
-0.261957
-0.260825
-0.259708
-0.2586
-0.257498
-0.256397
-0.255299
-0.254213
-0.253161
-0.252191
-0.251391
-0.250932
-0.25109
-0.252278
-0.256238
-0.269379
-0.273208
-0.272735
-0.27196
-0.270949
-0.269776
-0.268507
-0.267191
-0.265863
-0.264546
-0.263253
-0.261992
-0.260765
-0.259573
-0.258418
-0.257308
-0.256261
-0.255309
-0.254508
-0.253954
-0.2538
-0.254299
-0.255821
-0.258879
-0.26493
-0.278663
-0.276283
-0.275622
-0.274659
-0.273454
-0.27208
-0.270612
-0.269104
-0.267594
-0.266109
-0.264664
-0.263269
-0.26193
-0.260654
-0.259451
-0.258338
-0.257346
-0.256524
-0.25595
-0.255738
-0.25606
-0.257161
-0.259371
-0.26307
-0.269051
-0.280489
-0.27963
-0.278759
-0.277587
-0.27617
-0.27458
-0.272899
-0.271188
-0.269487
-0.267826
-0.266224
-0.264692
-0.263241
-0.261882
-0.26063
-0.25951
-0.258562
-0.257842
-0.257435
-0.257453
-0.258052
-0.25943
-0.261826
-0.265472
-0.270718
-0.279721
-0.28328
-0.282171
-0.28077
-0.279123
-0.277302
-0.275396
-0.273472
-0.271573
-0.269732
-0.267968
-0.266298
-0.264732
-0.263286
-0.261978
-0.260837
-0.259904
-0.259235
-0.258907
-0.259018
-0.259685
-0.261048
-0.26325
-0.2664
-0.270581
-0.277208
-0.287263
-0.285887
-0.284235
-0.282341
-0.280274
-0.278133
-0.275988
-0.273886
-0.27186
-0.269932
-0.268119
-0.266434
-0.264891
-0.26351
-0.262319
-0.261355
-0.260668
-0.260319
-0.26038
-0.260931
-0.262052
-0.263811
-0.266236
-0.26927
-0.273787
-0.291611
-0.289935
-0.288008
-0.285851
-0.283527
-0.28114
-0.278767
-0.276457
-0.274242
-0.272146
-0.270183
-0.268366
-0.266709
-0.265227
-0.263945
-0.262893
-0.262107
-0.261632
-0.261513
-0.261794
-0.262511
-0.263682
-0.265286
-0.267209
-0.269947
-0.296353
-0.294341
-0.292117
-0.289681
-0.287086
-0.284447
-0.28184
-0.279316
-0.276907
-0.274634
-0.272509
-0.270541
-0.268741
-0.26712
-0.265694
-0.264484
-0.263514
-0.262811
-0.262397
-0.262292
-0.262501
-0.263012
-0.263787
-0.264695
-0.265998
-0.301514
-0.299129
-0.296585
-0.293855
-0.29098
-0.288079
-0.285233
-0.28249
-0.279877
-0.277413
-0.275105
-0.272959
-0.270977
-0.269166
-0.267533
-0.26609
-0.264849
-0.263824
-0.263022
-0.262446
-0.262085
-0.261918
-0.261902
-0.261913
-0.262087
-0.307114
-0.304321
-0.301434
-0.298397
-0.295231
-0.292062
-0.28897
-0.285996
-0.283166
-0.280491
-0.277972
-0.275606
-0.273393
-0.27133
-0.269419
-0.267664
-0.26607
-0.26464
-0.263375
-0.262271
-0.261312
-0.260476
-0.259728
-0.25896
-0.258253
-0.313171
-0.309931
-0.306681
-0.303324
-0.29986
-0.296415
-0.293066
-0.289849
-0.286781
-0.283864
-0.281092
-0.278458
-0.275952
-0.273567
-0.271302
-0.269156
-0.26713
-0.265226
-0.263442
-0.261773
-0.260208
-0.258729
-0.257313
-0.255869
-0.254463
-0.319691
-0.315971
-0.31234
-0.308653
-0.304881
-0.30115
-0.297531
-0.294051
-0.290714
-0.287515
-0.28444
-0.281474
-0.278604
-0.275822
-0.273124
-0.270511
-0.267985
-0.265549
-0.263206
-0.260953
-0.258787
-0.256698
-0.254672
-0.252634
-0.250655
-0.326677
-0.322444
-0.318415
-0.31439
-0.310302
-0.306274
-0.302366
-0.298593
-0.294947
-0.291413
-0.28797
-0.2846
-0.281289
-0.278029
-0.274822
-0.271672
-0.268587
-0.265577
-0.262648
-0.259806
-0.257052
-0.254385
-0.251798
-0.249231
-0.24676
-0.33412
-0.329346
-0.324907
-0.320536
-0.316123
-0.311782
-0.307559
-0.303454
-0.299447
-0.295513
-0.291627
-0.287772
-0.283936
-0.28012
-0.276332
-0.272585
-0.268895
-0.26528
-0.261752
-0.258323
-0.255
-0.251786
-0.24868
-0.245629
-0.242719
-0.342001
-0.336662
-0.331805
-0.327082
-0.322333
-0.317656
-0.313084
-0.308596
-0.304162
-0.299752
-0.29534
-0.290912
-0.286469
-0.282022
-0.27759
-0.273197
-0.268869
-0.26463
-0.2605
-0.256495
-0.252624
-0.248893
-0.245302
-0.241804
-0.238486
-0.350289
-0.34437
-0.339089
-0.334008
-0.328907
-0.323867
-0.318898
-0.313965
-0.309028
-0.304054
-0.299024
-0.293938
-0.288808
-0.283662
-0.278533
-0.273458
-0.268472
-0.263604
-0.258879
-0.254313
-0.249918
-0.245698
-0.241651
-0.237734
-0.234034
-0.358941
-0.352431
-0.346724
-0.341281
-0.335809
-0.330366
-0.324944
-0.31949
-0.313961
-0.308329
-0.302589
-0.296758
-0.29087
-0.284969
-0.279105
-0.273325
-0.267672
-0.26218
-0.256873
-0.251769
-0.246873
-0.242192
-0.237717
-0.233405
-0.229343
-0.367899
-0.360795
-0.354665
-0.348851
-0.342982
-0.337089
-0.331144
-0.325083
-0.318865
-0.312477
-0.305936
-0.299283
-0.292574
-0.285876
-0.279252
-0.272758
-0.266442
-0.260338
-0.25447
-0.24885
-0.243482
-0.238366
-0.23349
-0.228805
-0.224402
-0.37709
-0.369398
-0.362848
-0.356653
-0.350354
-0.343953
-0.337402
-0.330638
-0.32363
-0.316389
-0.308962
-0.301419
-0.293844
-0.286321
-0.278925
-0.27172
-0.264755
-0.25806
-0.251655
-0.245547
-0.239734
-0.23421
-0.228959
-0.223924
-0.219203
-0.386425
-0.378158
-0.371196
-0.364605
-0.357833
-0.350854
-0.343608
-0.336037
-0.328137
-0.319951
-0.311564
-0.303079
-0.294606
-0.286244
-0.27808
-0.270178
-0.262584
-0.255325
-0.248412
-0.241845
-0.235616
-0.229713
-0.224112
-0.218751
-0.213736
-0.395798
-0.386977
-0.379611
-0.372606
-0.365311
-0.357673
-0.349633
-0.341152
-0.33226
-0.323048
-0.313642
-0.304178
-0.294791
-0.285593
-0.276675
-0.2681
-0.259906
-0.252112
-0.244722
-0.237728
-0.231113
-0.224859
-0.218936
-0.213273
-0.207991
-0.405087
-0.395744
-0.387982
-0.380537
-0.372659
-0.364275
-0.355338
-0.345843
-0.335872
-0.325566
-0.315097
-0.304636
-0.294335
-0.284317
-0.274671
-0.265453
-0.256693
-0.2484
-0.240567
-0.233178
-0.226208
-0.219633
-0.213416
-0.207475
-0.201957
-0.414157
-0.404327
-0.396177
-0.388262
-0.379733
-0.370511
-0.360574
-0.349971
-0.338843
-0.327393
-0.315837
-0.304377
-0.29318
-0.282369
-0.272029
-0.262206
-0.252918
-0.244164
-0.235924
-0.228173
-0.220881
-0.214015
-0.207533
-0.201342
-0.195616
-0.422855
-0.412583
-0.404052
-0.395629
-0.386376
-0.376221
-0.365187
-0.353391
-0.341049
-0.328424
-0.315777
-0.303333
-0.291268
-0.279704
-0.268712
-0.258328
-0.248555
-0.239378
-0.230769
-0.222693
-0.21511
-0.207986
-0.201268
-0.194855
-0.188953
-0.431019
-0.420355
-0.411448
-0.402474
-0.392421
-0.381239
-0.36902
-0.355965
-0.342369
-0.328558
-0.314834
-0.301439
-0.28855
-0.276279
-0.264686
-0.253787
-0.243573
-0.234017
-0.225078
-0.216712
-0.208874
-0.201524
-0.194601
-0.187994
-0.18195
-0.438476
-0.427475
-0.418194
-0.408624
-0.397692
-0.385397
-0.37192
-0.357556
-0.342689
-0.327705
-0.312936
-0.298637
-0.284977
-0.272055
-0.259913
-0.248552
-0.237945
-0.228053
-0.218824
-0.210207
-0.20215
-0.194608
-0.187511
-0.180741
-0.174587
-0.445044
-0.433763
-0.42411
-0.413894
-0.40201
-0.388528
-0.373735
-0.358038
-0.341906
-0.32578
-0.310016
-0.294871
-0.280504
-0.266993
-0.254361
-0.242591
-0.231642
-0.221459
-0.211984
-0.203155
-0.194916
-0.187216
-0.179978
-0.173076
-0.166846
-0.450538
-0.439039
-0.429013
-0.418103
-0.4052
-0.390469
-0.374326
-0.357293
-0.339924
-0.322707
-0.306014
-0.290094
-0.275089
-0.261057
-0.247997
-0.235876
-0.224636
-0.214211
-0.204533
-0.195533
-0.187151
-0.17933
-0.171985
-0.164982
-0.158711
-0.454771
-0.443117
-0.432718
-0.421068
-0.407088
-0.391067
-0.373562
-0.355215
-0.336659
-0.31842
-0.300876
-0.284261
-0.268696
-0.254213
-0.240792
-0.228379
-0.216902
-0.206285
-0.19645
-0.187322
-0.178835
-0.170931
-0.163513
-0.156443
-0.150165
-0.457561
-0.445815
-0.43504
-0.42261
-0.407511
-0.390178
-0.371324
-0.351709
-0.332037
-0.312861
-0.294555
-0.277334
-0.26129
-0.246432
-0.232718
-0.220074
-0.208417
-0.197659
-0.187713
-0.178501
-0.169952
-0.162003
-0.154548
-0.147445
-0.141197
-0.458729
-0.446955
-0.435805
-0.422563
-0.406317
-0.387675
-0.367508
-0.346694
-0.325996
-0.305981
-0.287012
-0.269278
-0.252842
-0.237688
-0.22375
-0.21094
-0.19916
-0.188314
-0.178308
-0.169057
-0.160488
-0.152534
-0.145079
-0.137979
-0.131796
-0.458109
-0.446369
-0.434845
-0.420768
-0.40337
-0.383444
-0.362027
-0.340103
-0.318483
-0.29774
-0.278214
-0.260065
-0.243328
-0.227958
-0.213869
-0.200958
-0.189115
-0.178235
-0.168219
-0.158977
-0.150432
-0.142514
-0.135098
-0.128037
-0.121955
-0.455543
-0.443899
-0.432007
-0.417088
-0.398551
-0.377391
-0.354807
-0.331881
-0.309458
-0.288105
-0.268135
-0.249675
-0.232728
-0.217224
-0.203059
-0.190114
-0.178269
-0.167412
-0.157438
-0.148253
-0.139778
-0.131939
-0.124601
-0.117616
-0.111672
-0.450894
-0.439404
-0.427157
-0.411401
-0.391758
-0.369437
-0.345792
-0.321988
-0.298893
-0.277056
-0.256759
-0.238092
-0.221028
-0.205475
-0.191308
-0.178397
-0.166613
-0.155837
-0.145959
-0.136881
-0.128522
-0.120805
-0.113586
-0.106717
-0.100947
-0.44404
-0.432763
-0.420176
-0.403605
-0.382914
-0.359526
-0.334943
-0.310399
-0.28677
-0.264579
-0.244073
-0.225306
-0.208222
-0.192703
-0.178611
-0.165804
-0.154144
-0.143507
-0.133779
-0.12486
-0.116665
-0.109117
-0.102058
-0.0953445
-0.0897858
-0.434882
-0.423873
-0.410972
-0.393622
-0.371959
-0.34762
-0.322238
-0.297101
-0.273082
-0.250672
-0.230077
-0.211317
-0.194306
-0.178907
-0.164967
-0.152333
-0.140862
-0.130424
-0.120903
-0.112194
-0.104214
-0.0968792
-0.0900248
-0.0835087
-0.0781978
-0.423342
-0.412656
-0.399472
-0.381398
-0.358859
-0.333699
-0.30767
-0.282096
-0.257834
-0.235339
-0.214776
-0.196128
-0.179285
-0.16409
-0.150379
-0.137989
-0.126772
-0.116594
-0.107336
-0.0988918
-0.0911763
-0.0841035
-0.0774988
-0.0712233
-0.0661974
-0.409368
-0.399056
-0.38563
-0.366901
-0.343599
-0.317764
-0.291249
-0.265398
-0.241043
-0.218597
-0.198183
-0.179753
-0.163171
-0.148264
-0.134857
-0.122781
-0.111883
-0.102026
-0.0930891
-0.0849641
-0.0775653
-0.0708037
-0.0644961
-0.0585066
-0.0538029
-0.392933
-0.383044
-0.369425
-0.350125
-0.326187
-0.299836
-0.273001
-0.247035
-0.222736
-0.20047
-0.180322
-0.162211
-0.14598
-0.131443
-0.118415
-0.106722
-0.096208
-0.086734
-0.0781758
-0.0704256
-0.0633969
-0.0569976
-0.0510367
-0.0453806
-0.0410367
-0.374034
-0.364617
-0.35086
-0.331088
-0.306655
-0.279952
-0.252968
-0.227048
-0.20295
-0.180993
-0.161223
-0.143529
-0.127737
-0.113649
-0.101072
-0.08983
-0.0797639
-0.070733
-0.0626122
-0.0552933
-0.0486893
-0.0427057
-0.0371441
-0.0318717
-0.0279251
-0.352697
-0.343797
-0.329966
-0.309829
-0.285052
-0.258168
-0.231206
-0.205491
-0.181735
-0.16021
-0.140924
-0.123742
-0.108471
-0.0949072
-0.0828519
-0.0721257
-0.0625692
-0.054041
-0.0464158
-0.0395852
-0.0334623
-0.0279501
-0.0228443
-0.0180103
-0.0145012
-0.328971
-0.320633
-0.306798
-0.286415
-0.26145
-0.234556
-0.207786
-0.182431
-0.159151
-0.138175
-0.119474
-0.102891
-0.0882203
-0.0752506
-0.0637814
-0.0536325
-0.0446443
-0.0366762
-0.0296036
-0.0233185
-0.0177344
-0.0127527
-0.00816431
-0.00383086
-0.000807058
-0.302931
-0.295196
-0.281433
-0.260929
-0.235937
-0.209207
-0.182793
-0.157944
-0.13527
-0.114952
-0.0969288
-0.0810255
-0.0670267
-0.0547158
-0.0438921
-0.0343761
-0.0260104
-0.0186562
-0.0121906
-0.00650735
-0.00152061
0.00286852
0.006871
0.0106307
0.0131125
-0.274677
-0.267585
-0.253973
-0.233479
-0.208622
-0.182224
-0.156324
-0.132123
-0.110174
-0.0906142
-0.073355
-0.0582048
-0.0449412
-0.0333456
-0.0232188
-0.0143843
-0.00668822
4.49392e-06
0.00581316
0.0108411
0.0151722
0.0189038
0.0222432
0.0253434
0.0272288
-0.24433
-0.237919
-0.22454
-0.204189
-0.179628
-0.153726
-0.128493
-0.10507
-0.0839554
-0.0652465
-0.0488281
-0.0344957
-0.0220222
-0.0111894
-0.00180141
0.00631326
0.0133029
0.0192965
0.0244074
0.0287334
0.0323544
0.035362
0.0379537
0.0403024
0.0415514
-0.212033
-0.206338
-0.193276
-0.173202
-0.149095
-0.123847
-0.0994205
-0.0768973
-0.0567192
-0.0389441
-0.0234345
-0.00997565
0.00166225
0.0116949
0.0203134
0.0276824
0.0339425
0.0392142
0.0436014
0.0471931
0.0500611
0.0522861
0.0540487
0.0555497
0.0560949
-0.177949
-0.173
-0.160342
-0.140676
-0.117176
-0.0927293
-0.0692432
-0.0477312
-0.0285808
-0.0118133
0.00272821
0.0152668
0.0260329
0.0352388
0.0430691
0.0496803
0.0552035
0.0597475
0.063403
0.0662442
0.0683314
0.0697303
0.070584
0.0710806
0.0706851
-0.142255
-0.138082
-0.125911
-0.106783
-0.0840344
-0.0605299
-0.0381058
-0.0177066
0.000334056
0.0160284
0.0295508
0.0411306
0.0509981
0.0593613
0.0663983
0.0722564
0.0770551
0.0808882
0.0838253
0.0859169
0.0872057
0.0877287
0.0875158
0.0866115
0.0847599
-0.105147
-0.101775
-0.0901717
-0.0717059
-0.0498468
-0.0274132
-0.00616276
0.013032
0.0298893
0.0444526
0.0569116
0.0675009
0.0764506
0.0839654
0.0902182
0.0953497
0.0994697
0.102656
0.104954
0.106382
0.106956
0.106633
0.105152
0.102217
0.0984123
-0.0668305
-0.0642812
-0.0533247
-0.0356388
-0.0147965
0.00644803
0.0264242
0.0443322
0.0599405
0.0733209
0.0846768
0.0942473
0.102263
0.108926
0.11441
0.118855
0.122372
0.125038
0.126894
0.127962
0.128268
0.127685
0.125514
0.121072
0.116389
-0.0275253
-0.0258155
-0.0155787
0.00121764
0.0209266
0.0408754
0.0594874
0.0760359
0.0903366
0.102488
0.112703
0.121226
0.128287
0.134089
0.138805
0.14258
0.145536
0.147768
0.149352
0.150381
0.151002
0.151172
0.150032
0.14707
0.149224
0.0125509
0.0134057
0.0228537
0.038659
0.0571287
0.0756872
0.0928562
0.107981
0.120923
0.131803
0.140844
0.14829
0.154371
0.159289
0.163215
0.166298
0.168661
0.17041
0.17164
0.172472
0.173063
0.173399
0.172998
0.172273
0.176639
0.0531662
0.0531553
0.0617522
0.0764755
0.0936129
0.110699
0.126358
0.140006
0.151546
0.161117
0.168952
0.175293
0.180368
0.184375
0.187485
0.189844
0.191578
0.192796
0.193601
0.194113
0.194471
0.194654
0.19432
0.193948
0.197818
0.0940873
0.0932043
0.100895
0.114457
0.130182
0.145728
0.159822
0.171949
0.182051
0.190285
0.196886
0.202097
0.206139
0.209206
0.211464
0.213057
0.214108
0.214724
0.215005
0.215065
0.215029
0.214879
0.214328
0.213764
0.216706
0.13508
0.133323
0.140061
0.152392
0.16664
0.18059
0.193077
0.203651
0.212289
0.219164
0.224511
0.228569
0.231556
0.233657
0.235034
0.235823
0.236141
0.236091
0.235764
0.235263
0.234694
0.234029
0.233006
0.231986
0.234038
0.17591
0.173281
0.179028
0.190074
0.202793
0.215108
0.225958
0.234958
0.242117
0.247617
0.251697
0.25459
0.256505
0.257621
0.258092
0.258046
0.257595
0.256831
0.255838
0.254709
0.25353
0.252262
0.250663
0.249093
0.250283
0.216346
0.212852
0.217578
0.227298
0.23845
0.249104
0.258302
0.265719
0.271393
0.275516
0.278325
0.280046
0.280881
0.281001
0.280551
0.279651
0.278404
0.276896
0.275202
0.273402
0.271569
0.269655
0.26744
0.265292
0.265657
0.256161
0.251812
0.255498
0.263862
0.273428
0.28241
0.289953
0.29579
0.299984
0.302736
0.304279
0.304832
0.304588
0.30371
0.302333
0.300572
0.298519
0.296252
0.29384
0.291352
0.288848
0.286278
0.283443
0.280716
0.28029
0.295131
0.289943
0.292579
0.299573
0.307546
0.314859
0.320759
0.325031
0.327763
0.329159
0.32945
0.328847
0.327535
0.325666
0.323369
0.320748
0.31789
0.314865
0.311732
0.308555
0.305383
0.302162
0.298722
0.295429
0.294244
0.333041
0.327034
0.328619
0.334242
0.34063
0.346293
0.350574
0.353308
0.354604
0.354672
0.353735
0.351998
0.349636
0.346794
0.343591
0.340124
0.336471
0.332697
0.328855
0.324999
0.321173
0.317321
0.313295
0.309455
0.30754
0.369681
0.362879
0.363423
0.367687
0.372513
0.376559
0.379257
0.380492
0.380391
0.379165
0.377034
0.374193
0.37081
0.36702
0.362934
0.358641
0.354214
0.34971
0.345177
0.340663
0.336203
0.331745
0.327162
0.322796
0.320181
0.40485
0.397283
0.396806
0.399736
0.403038
0.40551
0.406675
0.406461
0.40501
0.402536
0.399252
0.395347
0.390977
0.386272
0.381333
0.376244
0.37107
0.365862
0.360664
0.355517
0.350451
0.345416
0.340304
0.335437
0.332153
0.438358
0.430059
0.428589
0.430224
0.432051
0.433009
0.432701
0.431097
0.428354
0.424685
0.420299
0.415375
0.410062
0.404481
0.398727
0.392876
0.386987
0.381108
0.375276
0.369527
0.363886
0.358306
0.352698
0.347354
0.343432
0.470024
0.46103
0.458605
0.458995
0.459411
0.458923
0.457215
0.454291
0.450322
0.44552
0.440088
0.434198
0.427992
0.421581
0.415054
0.408481
0.401917
0.395403
0.388971
0.382655
0.376473
0.370383
0.364311
0.358519
0.353992
0.499676
0.49003
0.486696
0.485903
0.484982
0.483131
0.480103
0.475938
0.470816
0.464951
0.458538
0.451741
0.444696
0.437506
0.430255
0.423006
0.415809
0.4087
0.401709
0.394862
0.388175
0.381612
0.375111
0.368899
0.363803
0.527158
0.516904
0.512717
0.510812
0.508641
0.505517
0.50126
0.495941
0.489749
0.482895
0.475571
0.467933
0.460109
0.452197
0.444273
0.436397
0.428613
0.420954
0.413445
0.406108
0.398956
0.391958
0.385061
0.378461
0.372834
0.552321
0.54151
0.536531
0.533597
0.530272
0.525975
0.520589
0.51421
0.507036
0.499276
0.491116
0.482707
0.474169
0.465595
0.457056
0.448605
0.440284
0.432121
0.424139
0.416355
0.408779
0.401384
0.394128
0.387172
0.381057
0.575034
0.563718
0.558016
0.554145
0.54977
0.54441
0.538001
0.530663
0.522601
0.514022
0.505107
0.496001
0.486818
0.477647
0.468552
0.459583
0.450778
0.442161
0.433752
0.425565
0.417607
0.409856
0.402279
0.395001
0.388442
0.595175
0.583409
0.577062
0.572352
0.567041
0.560734
0.553416
0.545226
0.536375
0.527069
0.517484
0.50776
0.498006
0.488304
0.478716
0.469288
0.460054
0.451035
0.442248
0.433704
0.425409
0.417344
0.409483
0.401919
0.394965
0.612638
0.600482
0.59357
0.588129
0.582002
0.574871
0.566763
0.557833
0.548298
0.538361
0.528195
0.517934
0.507684
0.497522
0.487507
0.477682
0.468075
0.458708
0.449594
0.440742
0.432155
0.423818
0.415713
0.4079
0.400601
0.627332
0.614847
0.607457
0.601396
0.594579
0.586754
0.577979
0.568427
0.558315
0.547848
0.537192
0.526481
0.515813
0.505264
0.49489
0.48473
0.47481
0.46515
0.455761
0.44665
0.437818
0.429254
0.420943
0.41292
0.40533
0.639178
0.626428
0.618651
0.612088
0.604714
0.596328
0.587015
0.57696
0.566383
0.555487
0.544437
0.533362
0.522358
0.511498
0.500834
0.490403
0.480232
0.470336
0.460725
0.451405
0.442376
0.433629
0.425153
0.416961
0.409134
0.648116
0.635165
0.627095
0.620152
0.612357
0.603546
0.593827
0.583393
0.572465
0.561246
0.549899
0.538549
0.527291
0.516196
0.505313
0.494679
0.484318
0.474244
0.464467
0.454989
0.445811
0.436926
0.428325
0.420006
0.412
0.654099
0.641013
0.632746
0.625548
0.61747
0.608376
0.598385
0.587696
0.576534
0.565099
0.553552
0.542019
0.530591
0.519338
0.50831
0.497539
0.487051
0.476858
0.466969
0.457386
0.448109
0.439132
0.430448
0.422043
0.413917
0.657094
0.643941
0.635575
0.62825
0.620031
0.610794
0.600667
0.589852
0.578572
0.567029
0.555383
0.543757
0.532244
0.520913
0.509811
0.498973
0.488421
0.478168
0.468224
0.458588
0.449261
0.440238
0.431512
0.423064
0.414878
0.657087
0.643934
0.635569
0.628244
0.620026
0.61079
0.600664
0.589849
0.578569
0.567027
0.555381
0.543756
0.532244
0.520912
0.509811
0.498973
0.488421
0.478169
0.468224
0.458589
0.449261
0.440239
0.431513
0.423065
0.414879
0.654077
0.640993
0.632726
0.625531
0.617455
0.608363
0.598374
0.587687
0.576527
0.565093
0.553548
0.542015
0.530589
0.519337
0.508309
0.497539
0.487052
0.476859
0.466971
0.457388
0.448111
0.439135
0.430451
0.422046
0.413921
0.648081
0.635131
0.627063
0.620124
0.612332
0.603524
0.593809
0.583377
0.572453
0.561236
0.549891
0.538543
0.527287
0.516193
0.505312
0.494679
0.484319
0.474246
0.464469
0.454993
0.445815
0.436931
0.42833
0.420011
0.412006
0.639129
0.626381
0.618607
0.612049
0.60468
0.596298
0.58699
0.576939
0.566366
0.555474
0.544427
0.533354
0.522353
0.511495
0.500832
0.490404
0.480234
0.470339
0.46073
0.45141
0.442382
0.433636
0.42516
0.416968
0.409142
0.62727
0.614788
0.607402
0.601347
0.594536
0.586717
0.577948
0.568401
0.558294
0.547831
0.537179
0.526471
0.515807
0.505261
0.494889
0.484731
0.474813
0.465155
0.455767
0.446657
0.437826
0.429263
0.420952
0.41293
0.40534
0.612564
0.600413
0.593506
0.58807
0.581951
0.574828
0.566726
0.557803
0.548273
0.538342
0.52818
0.517924
0.507678
0.497519
0.487507
0.477684
0.468079
0.458714
0.449601
0.440751
0.432165
0.42383
0.415725
0.407912
0.400614
0.595091
0.58333
0.576988
0.572286
0.566983
0.560685
0.553375
0.545192
0.536348
0.527048
0.517469
0.507749
0.497999
0.488301
0.478717
0.469292
0.46006
0.451043
0.442258
0.433716
0.425422
0.417358
0.409498
0.401935
0.394981
0.574941
0.56363
0.557935
0.554072
0.549706
0.544356
0.537956
0.530627
0.522572
0.514
0.505091
0.49599
0.486813
0.477645
0.468554
0.459589
0.450786
0.442172
0.433764
0.425579
0.417623
0.409873
0.402297
0.39502
0.388461
0.552221
0.541416
0.536444
0.533519
0.530204
0.525917
0.520542
0.514172
0.507006
0.499254
0.4911
0.482697
0.474164
0.465595
0.45706
0.448613
0.440295
0.432135
0.424155
0.416373
0.408798
0.401404
0.39415
0.387194
0.381079
0.527052
0.516805
0.512625
0.51073
0.50857
0.505457
0.501211
0.495902
0.489719
0.482874
0.475557
0.467926
0.460107
0.4522
0.444281
0.436409
0.428628
0.420971
0.413464
0.40613
0.39898
0.391982
0.385087
0.378487
0.372861
0.499567
0.489928
0.486602
0.485819
0.48491
0.48307
0.480054
0.4759
0.470788
0.464932
0.458526
0.451737
0.444697
0.437513
0.430266
0.423021
0.415828
0.408721
0.401733
0.394888
0.388203
0.381641
0.375141
0.36893
0.363833
0.469914
0.460928
0.458511
0.458911
0.459339
0.458864
0.457168
0.454256
0.450296
0.445504
0.44008
0.434198
0.427997
0.421592
0.41507
0.408502
0.401941
0.395429
0.389001
0.382686
0.376505
0.370417
0.364346
0.358555
0.354027
0.43825
0.429959
0.428497
0.430143
0.431982
0.432953
0.432658
0.431066
0.428333
0.424674
0.420296
0.41538
0.410073
0.404498
0.398749
0.392902
0.387017
0.381141
0.375311
0.369564
0.363924
0.358346
0.352738
0.347395
0.343473
0.404746
0.397188
0.396719
0.39966
0.402974
0.40546
0.406637
0.406435
0.404995
0.402531
0.399255
0.395358
0.390995
0.386295
0.381362
0.376277
0.371106
0.365901
0.360705
0.355561
0.350496
0.345462
0.340351
0.335483
0.332199
0.369584
0.362791
0.363344
0.367618
0.372457
0.376516
0.379227
0.380474
0.380384
0.379168
0.377045
0.374212
0.370836
0.367051
0.36297
0.358682
0.354258
0.349757
0.345226
0.340714
0.336255
0.331798
0.327215
0.322849
0.320234
0.332955
0.326957
0.32855
0.334183
0.340583
0.34626
0.350553
0.353299
0.354607
0.354684
0.353756
0.352026
0.349671
0.346835
0.343637
0.340173
0.336524
0.332752
0.328912
0.325058
0.321233
0.317381
0.313356
0.309515
0.3076
0.295059
0.28988
0.292524
0.299528
0.307512
0.314839
0.320751
0.325034
0.327777
0.329183
0.329482
0.328887
0.327581
0.325718
0.323425
0.320808
0.317953
0.31493
0.311799
0.308623
0.305452
0.302231
0.29879
0.295497
0.29431
0.256106
0.251767
0.25546
0.263833
0.27341
0.282404
0.289959
0.295808
0.300012
0.302773
0.304324
0.304884
0.304646
0.303773
0.302401
0.300643
0.298592
0.296328
0.293917
0.29143
0.288927
0.286356
0.283521
0.280793
0.280365
0.216312
0.212828
0.217561
0.227288
0.238451
0.249116
0.258325
0.265753
0.271437
0.275569
0.278385
0.280113
0.280953
0.281078
0.280631
0.279734
0.27849
0.276983
0.27529
0.273491
0.271658
0.269743
0.267528
0.265378
0.265741
0.175901
0.173282
0.179035
0.190088
0.202815
0.21514
0.226001
0.235011
0.242178
0.247687
0.251774
0.254673
0.256593
0.257713
0.258187
0.258144
0.257694
0.256931
0.255939
0.25481
0.25363
0.252362
0.250761
0.249189
0.250377
0.1351
0.133353
0.140096
0.152433
0.166688
0.180647
0.193142
0.203725
0.212372
0.219253
0.224606
0.22867
0.231661
0.233766
0.235145
0.235936
0.236255
0.236205
0.235878
0.235377
0.234807
0.234141
0.233116
0.232094
0.234142
0.0941403
0.0932673
0.100963
0.114528
0.130258
0.145811
0.159913
0.172047
0.182156
0.190396
0.197003
0.202217
0.206263
0.209332
0.211593
0.213187
0.214238
0.214854
0.215134
0.215193
0.215155
0.215004
0.214451
0.213884
0.216822
0.0532564
0.0532556
0.0618557
0.0765808
0.0937217
0.110813
0.126478
0.140132
0.151677
0.161253
0.169092
0.175436
0.180513
0.184522
0.187633
0.189992
0.191725
0.192943