/*--------------------------------*- C++ -*----------------------------------*\
  =========                 |
  \\      /  F ield         | OpenFOAM: The Open Source CFD Toolbox
   \\    /   O peration     | Website:  https://openfoam.org
    \\  /    A nd           | Version:  6.0
     \\/     M anipulation  |
\*---------------------------------------------------------------------------*/
FoamFile
{
    version     2.0;
    format      ascii;
    class       surfaceScalarField;
    location    "40";
    object      phi;
}
// * * * * * * * * * * * * * * * * * * * * * * * * * * * * * * * * * * * * * //

dimensions      [0 3 -1 0 0 0 0];

internalField   nonuniform List<scalar> 
24700
(
-1.27613e-06
8.97912e-07
3.78214e-07
-4.64205e-06
2.15493e-06
1.21099e-06
-9.70185e-06
2.97649e-06
2.08331e-06
-1.61095e-05
3.4476e-06
2.96004e-06
-2.35676e-05
3.64294e-06
3.81513e-06
-3.18249e-05
3.62565e-06
4.63171e-06
-4.06736e-05
3.44867e-06
5.40001e-06
-4.99453e-05
3.15612e-06
6.11561e-06
-5.95081e-05
2.7847e-06
6.77805e-06
-6.92627e-05
2.36503e-06
7.38955e-06
-7.91394e-05
1.92279e-06
7.95399e-06
-8.90953e-05
1.47967e-06
8.47619e-06
-9.91107e-05
1.0541e-06
8.96134e-06
-0.000109187
6.61711e-07
9.41462e-06
-0.000119344
3.15719e-07
9.84095e-06
-0.000129616
2.7042e-08
1.02449e-05
-0.000140051
-1.95613e-07
1.06308e-05
-0.000150707
-3.45743e-07
1.10024e-05
-0.000161652
-4.19074e-07
1.13632e-05
-0.000172955
-4.13558e-07
1.17168e-05
-0.000184692
-3.29367e-07
1.20662e-05
-0.000196937
-1.68934e-07
1.24145e-05
-0.000209765
6.3127e-08
1.2765e-05
-0.000223247
3.61313e-07
1.31203e-05
7.21026e-07
1.3483e-05
-0.000237451
-1.28406e-06
2.18197e-06
-4.66891e-06
5.53978e-06
-9.75468e-06
8.06225e-06
-1.6192e-05
9.88494e-06
-2.36807e-05
1.11317e-05
-3.19673e-05
1.19122e-05
-4.08416e-05
1.2323e-05
-5.01333e-05
1.24479e-05
-5.97086e-05
1.236e-05
-6.94664e-05
1.21228e-05
-7.93354e-05
1.17918e-05
-8.92709e-05
1.14151e-05
-9.92518e-05
1.1035e-05
-0.000109278
1.06883e-05
-0.000119369
1.04065e-05
-0.000129558
1.02164e-05
-0.000139894
1.01402e-05
-0.000150435
1.01952e-05
-0.000161248
1.03939e-05
-0.000172406
1.07444e-05
-0.000183985
1.12499e-05
-0.000196063
1.19091e-05
-0.000208716
1.27161e-05
-0.000222018
1.36628e-05
1.47426e-05
-0.000236039
-1.29118e-06
3.47316e-06
-4.69169e-06
8.94029e-06
-9.79667e-06
1.31672e-05
-1.62525e-05
1.63407e-05
-2.37551e-05
1.86343e-05
-3.20477e-05
2.02048e-05
-4.09168e-05
2.1192e-05
-5.01889e-05
2.172e-05
-5.9727e-05
2.18981e-05
-6.94268e-05
2.18226e-05
-7.92136e-05
2.15785e-05
-8.90394e-05
2.1241e-05
-9.88804e-05
2.0876e-05
-0.000108734
2.05418e-05
-0.000118616
2.02888e-05
-0.00012856
2.01606e-05
-0.000138613
2.01932e-05
-0.000148834
2.04157e-05
-0.00015929
2.08501e-05
-0.000170057
2.15112e-05
-0.000181214
2.24065e-05
-0.000192841
2.35367e-05
-0.00020502
2.48952e-05
-0.000217829
2.64719e-05
2.82582e-05
-0.000231345
-1.2975e-06
4.77066e-06
-4.71028e-06
1.23531e-05
-9.8275e-06
1.82844e-05
-1.62903e-05
2.28036e-05
-2.37902e-05
2.61342e-05
-3.20658e-05
2.84804e-05
-4.08996e-05
3.00259e-05
-5.01139e-05
3.09343e-05
-5.95671e-05
3.13513e-05
-6.91502e-05
3.14057e-05
-7.87839e-05
3.12122e-05
-8.84152e-05
3.08723e-05
-9.80156e-05
3.04764e-05
-0.000107578
3.01043e-05
-0.000117116
2.98262e-05
-0.000126658
2.97028e-05
-0.00013625
2.97856e-05
-0.000145951
3.01167e-05
-0.00015583
3.07288e-05
-0.000165964
3.1645e-05
-0.000176436
3.28788e-05
-0.000187333
3.44338e-05
-0.000198742
3.63043e-05
-0.000210749
3.84784e-05
4.09464e-05
-0.000223437
-1.30308e-06
6.07374e-06
-4.7247e-06
1.57747e-05
-9.8471e-06
2.34068e-05
-1.63055e-05
2.92619e-05
-2.3786e-05
3.36147e-05
-3.20223e-05
3.67168e-05
-4.07921e-05
3.87956e-05
-4.99123e-05
4.00546e-05
-5.9236e-05
4.06749e-05
-6.86481e-05
4.08178e-05
-7.8063e-05
4.06271e-05
-8.74214e-05
4.02307e-05
-9.66882e-05
3.97432e-05
-0.00010585
3.92665e-05
-0.000114915
3.8891e-05
-0.000123908
3.86958e-05
-0.000132872
3.87492e-05
-0.000141863
3.91081e-05
-0.000150952
3.98178e-05
-0.000160219
4.09119e-05
-0.000169752
4.24117e-05
-0.000179644
4.43262e-05
-0.000189992
4.66517e-05
-0.00020089
4.93763e-05
5.24895e-05
-0.000212433
-1.30797e-06
7.38171e-06
-4.7349e-06
1.92016e-05
-9.85519e-06
2.85271e-05
-1.62975e-05
3.57042e-05
-2.37421e-05
4.10593e-05
-3.19176e-05
4.48922e-05
-4.05958e-05
4.74739e-05
-4.95883e-05
4.9047e-05
-5.87414e-05
4.9828e-05
-6.79332e-05
5.00097e-05
-7.70705e-05
4.97644e-05
-8.60859e-05
4.92461e-05
-9.49359e-05
4.85933e-05
-0.000103599
4.79301e-05
-0.000112076
4.73678e-05
-0.000120386
4.70053e-05
-0.000128566
4.6929e-05
-0.00013667
4.72127e-05
-0.000144769
4.7917e-05
-0.000152946
4.90886e-05
-0.000161294
5.07598e-05
-0.000169916
5.29475e-05
-0.000178916
5.56526e-05
-0.000188406
5.88655e-05
6.25759e-05
-0.000198492
-1.31215e-06
8.69387e-06
-4.74055e-06
2.263e-05
-9.85088e-06
3.36375e-05
-1.62648e-05
4.21181e-05
-2.36567e-05
4.84513e-05
-3.17496e-05
5.29851e-05
-4.03099e-05
5.60342e-05
-4.91428e-05
5.78799e-05
-5.8088e-05
5.87731e-05
-6.70157e-05
5.89374e-05
-7.58237e-05
5.85724e-05
-8.44351e-05
5.78575e-05
-9.27965e-05
5.69546e-05
-0.000100876
5.601e-05
-0.000108665
5.51562e-05
-0.000116172
5.45128e-05
-0.00012343
5.41863e-05
-0.000130487
5.42698e-05
-0.000137412
5.4842e-05
-0.00014429
5.59665e-05
-0.00015122
5.76902e-05
-0.000158314
6.00418e-05
-0.000165693
6.3031e-05
-0.00017348
6.6653e-05
7.09007e-05
-0.000181805
-1.31545e-06
1.00093e-05
-4.74075e-06
2.60553e-05
-9.83209e-06
3.87288e-05
-1.62039e-05
4.849e-05
-2.35249e-05
5.57722e-05
-3.15126e-05
6.09728e-05
-3.99282e-05
6.44497e-05
-4.85708e-05
6.65225e-05
-5.7273e-05
6.74754e-05
-6.58968e-05
6.75612e-05
-7.43305e-05
6.7006e-05
-8.24861e-05
6.60132e-05
-9.02984e-05
6.47669e-05
-9.77236e-05
6.34352e-05
-0.000104739
6.2172e-05
-0.000111345
6.11181e-05
-0.00011756
6.04019e-05
-0.000123429
6.01381e-05
-0.000129014
6.04275e-05
-0.000134402
6.13545e-05
-0.000139697
6.29856e-05
-0.000145022
6.53669e-05
-0.000150513
6.85215e-05
-0.000156315
7.24549e-05
7.71664e-05
-0.00016258
-1.31746e-06
1.13268e-05
-4.73381e-06
2.94717e-05
-9.79508e-06
4.37901e-05
-1.61086e-05
5.48035e-05
-2.33375e-05
6.30011e-05
-3.11947e-05
6.88301e-05
-3.94366e-05
7.26916e-05
-4.78568e-05
7.49427e-05
-5.62811e-05
7.58997e-05
-6.45634e-05
7.58435e-05
-7.25819e-05
7.50245e-05
-8.0237e-05
7.36683e-05
-8.74501e-05
7.198e-05
-9.41631e-05
7.01481e-05
-0.000100338
6.83473e-05
-0.00010596
6.674e-05
-0.000111036
6.54774e-05
-0.000115597
6.46989e-05
-0.0001197
6.45304e-05
-0.000123428
6.50826e-05
-0.00012689
6.64477e-05
-0.000130219
6.86958e-05
-0.000133568
7.18711e-05
-0.00013711
7.59963e-05
8.10833e-05
-0.000141027
-1.31747e-06
1.26442e-05
-4.71703e-06
3.28712e-05
-9.73404e-06
4.88071e-05
-1.59689e-05
6.10383e-05
-2.30799e-05
7.01122e-05
-3.07762e-05
7.65263e-05
-3.88102e-05
8.07256e-05
-4.69712e-05
8.31037e-05
-5.50793e-05
8.40078e-05
-6.29805e-05
8.37447e-05
-7.05433e-05
8.25874e-05
-7.76564e-05
8.07814e-05
-8.42268e-05
7.85504e-05
-9.01803e-05
7.61015e-05
-9.54616e-05
7.36286e-05
-0.000100037
7.13153e-05
-0.000103896
6.93361e-05
-0.000107053
6.78567e-05
-0.000109555
6.70322e-05
-0.000111477
6.70049e-05
-0.00011293
6.79e-05
-0.000114054
6.98205e-05
-0.000115024
7.28413e-05
-0.000116041
7.70128e-05
8.2369e-05
-0.000117327
-1.31449e-06
1.39587e-05
-4.6866e-06
3.62433e-05
-9.64075e-06
5.37612e-05
-1.57708e-05
6.71683e-05
-2.2731e-05
7.70724e-05
-3.02278e-05
8.40231e-05
-3.80112e-05
8.8509e-05
-4.58673e-05
9.09598e-05
-5.36118e-05
9.17523e-05
-6.10845e-05
9.12174e-05
-6.81454e-05
8.96482e-05
-7.46714e-05
8.73074e-05
-8.05557e-05
8.44346e-05
-8.57065e-05
8.12524e-05
-9.00493e-05
7.79714e-05
-9.35285e-05
7.47945e-05
-9.61117e-05
7.19192e-05
-9.77933e-05
6.95383e-05
-9.86002e-05
6.78392e-05
-9.85963e-05
6.7001e-05
-9.78865e-05
6.71902e-05
-9.66194e-05
6.85534e-05
-9.49876e-05
7.12094e-05
-9.32254e-05
7.52506e-05
8.07478e-05
-9.16043e-05
-1.30716e-06
1.52659e-05
-4.63762e-06
3.95738e-05
-9.50465e-06
5.86283e-05
-1.5496e-05
7.31597e-05
-2.22629e-05
8.38392e-05
-2.95101e-05
9.12703e-05
-3.69868e-05
9.59857e-05
-4.44777e-05
9.84508e-05
-5.17961e-05
9.90707e-05
-5.87775e-05
9.81988e-05
-6.52751e-05
9.61457e-05
-7.11561e-05
9.31885e-05
-7.63003e-05
8.95789e-05
-8.05994e-05
8.55514e-05
-8.3958e-05
8.133e-05
-8.62969e-05
7.71334e-05
-8.75573e-05
7.31796e-05
-8.7707e-05
6.9688e-05
-8.67474e-05
6.68796e-05
-8.47218e-05
6.49754e-05
-8.1723e-05
6.41914e-05
-7.78998e-05
6.47303e-05
-7.34614e-05
6.6771e-05
-6.86787e-05
7.04679e-05
7.59503e-05
-6.38811e-05
-1.29389e-06
1.65598e-05
-4.56419e-06
4.28441e-05
-9.31296e-06
6.33771e-05
-1.51222e-05
7.8969e-05
-2.16408e-05
9.03578e-05
-2.85732e-05
9.82027e-05
-3.56691e-05
0.000103082
-4.27137e-05
0.000105495
-4.95201e-05
0.000105877
-5.59221e-05
0.000104601
-6.17688e-05
0.000101992
-6.69207e-05
9.83403e-05
-7.12466e-05
9.39048e-05
-7.46232e-05
8.89281e-05
-7.69355e-05
8.36423e-05
-7.80797e-05
7.82776e-05
-7.79679e-05
7.30679e-05
-7.65359e-05
6.8256e-05
-7.37522e-05
6.40959e-05
-6.96299e-05
6.08531e-05
-6.42389e-05
5.88005e-05
-5.77187e-05
5.821e-05
-5.02883e-05
5.93406e-05
-4.22552e-05
6.24348e-05
6.7712e-05
-3.40169e-05
-1.2729e-06
1.78327e-05
-4.45975e-06
4.60309e-05
-9.05131e-06
6.79686e-05
-1.4624e-05
8.45416e-05
-2.08247e-05
9.65585e-05
-2.73581e-05
0.000104736
-3.39757e-05
0.000109699
-4.04652e-05
0.000111985
-4.66416e-05
0.000112054
-5.23399e-05
0.000110299
-5.74084e-05
0.000107061
-6.17044e-05
0.000102636
-6.50904e-05
9.72907e-05
-6.74316e-05
9.12693e-05
-6.85965e-05
8.48073e-05
-6.84587e-05
7.81397e-05
-6.69009e-05
7.15101e-05
-6.38237e-05
6.51788e-05
-5.91561e-05
5.94283e-05
-5.28705e-05
5.45674e-05
-4.50009e-05
5.09309e-05
-3.56631e-05
4.88722e-05
-2.50746e-05
4.8752e-05
-1.35739e-05
5.09341e-05
5.57728e-05
-1.63464e-06
-1.24239e-06
1.90751e-05
-4.31752e-06
4.91061e-05
-8.70453e-06
7.23556e-05
-1.39738e-05
8.98109e-05
-1.977e-05
0.000102355
-2.57984e-05
0.000110765
-3.18128e-05
0.000115714
-3.76041e-05
0.000117776
-4.29914e-05
0.000117441
-4.78133e-05
0.000115121
-5.19212e-05
0.000111169
-5.51738e-05
0.000105889
-5.7432e-05
9.95489e-05
-5.85561e-05
9.23934e-05
-5.8404e-05
8.46552e-05
-5.68319e-05
7.65676e-05
-5.36973e-05
6.83755e-05
-4.88659e-05
6.03474e-05
-4.22237e-05
5.2786e-05
-3.36937e-05
4.60374e-05
-2.32598e-05
4.0497e-05
-1.09958e-05
3.66082e-05
2.90159e-06
3.48547e-05
1.80753e-05
3.57604e-05
3.98747e-05
3.39734e-05
-1.2007e-06
2.02758e-05
-4.13104e-06
5.20364e-05
-8.25769e-06
7.64823e-05
-1.31439e-05
9.46971e-05
-1.8431e-05
0.000107642
-2.3824e-05
0.000116158
-2.90785e-05
0.000120968
-3.39888e-05
0.000122687
-3.83787e-05
0.000121831
-4.20924e-05
0.000118835
-4.49873e-05
0.000114064
-4.69278e-05
0.000107829
-4.77797e-05
0.000100401
-4.74056e-05
9.20194e-05
-4.56622e-05
8.29118e-05
-4.23976e-05
7.3303e-05
-3.7453e-05
6.34309e-05
-3.06666e-05
5.35611e-05
-2.1884e-05
4.40034e-05
-1.09751e-05
3.51285e-05
2.13873e-06
2.73833e-05
1.74462e-05
2.13008e-05
3.47977e-05
1.75032e-05
5.38424e-05
1.67157e-05
1.97598e-05
7.39573e-05
-1.14651e-06
2.14223e-05
-3.89473e-06
5.47846e-05
-7.69729e-06
8.02848e-05
-1.21082e-05
9.91081e-05
-1.67634e-05
0.000112297
-2.13652e-05
0.000120759
-2.56693e-05
0.000125272
-2.94721e-05
0.000126489
-3.26011e-05
0.00012496
-3.49063e-05
0.00012114
-3.62526e-05
0.00011541
-3.65136e-05
0.00010809
-3.55654e-05
9.94525e-05
-3.32813e-05
8.97353e-05
-2.95273e-05
7.91577e-05
-2.41574e-05
6.79331e-05
-1.70116e-05
5.62851e-05
-7.91607e-06
4.44655e-05
3.31156e-06
3.27758e-05
1.68483e-05
2.15918e-05
3.28392e-05
1.13923e-05
5.1354e-05
2.78593e-06
7.23222e-05
-3.46495e-06
9.54382e-05
-6.40037e-06
-4.83607e-06
0.000120034
-1.07899e-06
2.25013e-05
-3.60439e-06
5.731e-05
-7.01218e-06
8.36926e-05
-1.08439e-05
0.00010294
-1.47266e-05
0.00011618
-1.83567e-05
0.00012439
-2.1486e-05
0.000128401
-2.39096e-05
0.000128913
-2.54561e-05
0.000126506
-2.59789e-05
0.000121663
-2.53494e-05
0.000114781
-2.34513e-05
0.000106192
-2.01744e-05
9.61756e-05
-1.54095e-05
8.49705e-05
-9.04302e-06
7.27912e-05
-9.50571e-07
5.98407e-05
9.00841e-06
4.63261e-05
2.09955e-05
3.24784e-05
3.51952e-05
1.85762e-05
5.18089e-05
4.97807e-06
7.10365e-05
-7.83529e-06
9.30347e-05
-1.92122e-05
0.000117843
-2.82732e-05
0.000145256
-3.38131e-05
-3.41946e-05
0.000174614
-9.97887e-07
2.34992e-05
-3.25752e-06
5.95697e-05
-6.1943e-06
8.66294e-05
-9.33294e-06
0.000106078
-1.22868e-05
0.000119133
-1.47411e-05
0.000126844
-1.6439e-05
0.000130099
-1.71687e-05
0.000129643
-1.67541e-05
0.000126092
-1.5047e-05
0.000119955
-1.19211e-05
0.000111655
-7.26694e-06
0.000101538
-9.87715e-07
8.98964e-05
7.00525e-06
7.69776e-05
1.67973e-05
6.29992e-05
2.84765e-05
4.81614e-05
4.21413e-05
3.26613e-05
5.79097e-05
1.67101e-05
7.59285e-05
5.5733e-07
9.63807e-05
-1.54742e-05
0.000119482
-3.09367e-05
0.000145456
-4.51858e-05
0.000174465
-5.72828e-05
0.000206468
-6.58157e-05
-6.86377e-05
0.000240911
-9.03521e-07
2.44027e-05
-2.85324e-06
6.15194e-05
-5.23867e-06
8.90148e-05
-7.56201e-06
0.000108402
-9.41698e-06
0.000120988
-1.04716e-05
0.000127899
-1.04529e-05
0.00013008
-9.13486e-06
0.000128325
-6.32895e-06
0.000123286
-1.87707e-06
0.000115504
4.3531e-06
0.000105425
1.24715e-05
9.34198e-05
2.25678e-05
7.98001e-05
3.47136e-05
6.48317e-05
4.89646e-05
4.87483e-05
6.53641e-05
3.17619e-05
8.395e-05
1.40754e-05
0.000104764
-4.10426e-06
0.000127868
-2.25467e-05
0.000153362
-4.09679e-05
0.000181403
-5.89779e-05
0.000212215
-7.59972e-05
0.000246055
-9.11232e-05
0.000283092
-0.000102853
-0.000108568
0.000323023
-7.96645e-07
2.51993e-05
-2.39196e-06
6.31147e-05
-4.14272e-06
9.07656e-05
-5.52193e-06
0.000109781
-6.09681e-06
0.000121563
-5.51047e-06
0.000127312
-3.46604e-06
0.000128036
2.85811e-07
0.000124573
5.9561e-06
0.000117615
1.37236e-05
0.000107736
2.37382e-05
9.54101e-05
3.61226e-05
8.10353e-05
5.09717e-05
6.4951e-05
6.83511e-05
4.74523e-05
8.82956e-05
2.88038e-05
0.000110808
9.24983e-06
0.000135858
-1.09754e-05
0.000163393
-3.16387e-05
0.000193342
-5.24964e-05
0.00022565
-7.32755e-05
0.000260308
-9.36358e-05
0.000297407
-0.000113097
0.000337186
-0.000130902
0.000380007
-0.000145674
-0.000154519
0.000425958
-6.78172e-07
2.58775e-05
-1.87448e-06
6.4311e-05
-2.90477e-06
9.17959e-05
-3.20528e-06
0.000110082
-2.30918e-06
0.000120667
1.73349e-07
0.00012483
4.57197e-06
0.000123637
1.11691e-05
0.000117976
2.02092e-05
0.000108575
3.19039e-05
9.60414e-05
4.64346e-05
8.08794e-05
6.3952e-05
6.35179e-05
8.45735e-05
4.43295e-05
0.000108378
2.36479e-05
0.000135399
1.78237e-06
0.000165619
-2.09697e-05
0.000198957
-4.43132e-05
0.000235266
-6.79476e-05
0.000274331
-9.15614e-05
0.000315881
-0.000114826
0.000359627
-0.000137381
0.000405334
-0.000158804
0.000452961
-0.000178529
0.000502848
-0.000195561
-0.00020727
0.000555599
-5.48788e-07
2.64263e-05
-1.30088e-06
6.50631e-05
-1.52182e-06
9.20168e-05
-6.0305e-07
0.000109163
1.96421e-06
0.0001181
6.61088e-06
0.000120183
1.37082e-05
0.00011654
2.35813e-05
0.000108103
3.65186e-05
9.5638e-05
5.27767e-05
7.97834e-05
7.25819e-05
6.10741e-05
9.61292e-05
3.99706e-05
0.000123577
1.68813e-05
0.000155042
-7.81709e-06
0.000190587
-3.37618e-05
0.000230205
-6.05885e-05
0.00027381
-8.79176e-05
0.000321205
-0.000115342
0.000372064
-0.000142421
0.00042591
-0.000168671
0.000482103
-0.000193575
0.000539888
-0.000216588
0.000598535
-0.000237176
0.000657769
-0.000254795
-0.000268526
0.000719025
-4.08507e-07
2.68348e-05
-6.69105e-07
6.53237e-05
1.30254e-08
9.13347e-05
2.29952e-06
0.000106876
6.74885e-06
0.000113651
1.38408e-05
0.000113091
2.39961e-05
0.000106385
3.75912e-05
9.45075e-05
5.49669e-05
7.82623e-05
7.64341e-05
5.83162e-05
0.000102275
3.52335e-05
0.00013274
9.50517e-06
0.000168047
-1.84255e-05
0.00020837
-4.81399e-05
0.000253831
-7.92232e-05
0.000304488
-0.000111245
0.000360309
-0.000143739
0.000421146
-0.00017618
0.000486689
-0.000207964
0.000556391
-0.000238373
0.000629377
-0.000266561
0.000704339
-0.000291551
0.000779468
-0.000312305
0.00085285
-0.000328177
-0.000342512
0.000926836
-2.5623e-07
2.7091e-05
2.63088e-08
6.50411e-05
1.71307e-06
8.96479e-05
5.52684e-06
0.000103062
1.20831e-05
0.000107094
2.19172e-05
0.000103257
3.55061e-05
9.27959e-05
5.3283e-05
7.67307e-05
7.56466e-05
5.58987e-05
0.000102966
3.09966e-05
0.000135583
2.61699e-06
0.000173808
-2.87198e-05
0.00021792
-6.2538e-05
0.000268163
-9.83832e-05
0.00032474
-0.0001358
0.00038781
-0.000174314
0.000457478
-0.000213407
0.000533793
-0.000252495
0.000616717
-0.000290888
0.000706083
-0.000327738
0.000801477
-0.000361956
0.000902002
-0.000392076
0.00100558
-0.000415879
0.00110707
-0.000429675
-0.000429376
0.00119394
-8.99048e-08
2.71809e-05
7.94448e-07
6.41568e-05
3.59899e-06
8.68434e-05
9.11508e-06
9.75464e-05
1.80215e-05
9.81879e-05
3.09149e-05
9.03635e-05
4.83321e-05
7.53786e-05
7.07657e-05
5.42971e-05
9.86719e-05
2.79924e-05
0.000132475
-2.80655e-06
0.000172568
-3.74757e-05
0.00021931
-7.5462e-05
0.000273028
-0.000116256
0.000334013
-0.000159369
0.000402529
-0.000204316
0.000478819
-0.000250604
0.000563127
-0.000297715
0.000655738
-0.000345106
0.000757045
-0.000392195
0.000867673
-0.000438366
0.000988689
-0.000482972
0.00112196
-0.000525345
0.00127098
-0.0005649
0.00144336
-0.000602055
-0.000642232
0.00165622
9.54525e-08
2.70855e-05
1.65156e-06
6.26007e-05
5.70333e-06
8.27916e-05
1.31172e-05
9.01326e-05
2.46403e-05
8.66648e-05
4.0934e-05
7.40698e-05
6.25965e-05
5.37161e-05
9.0177e-05
2.67166e-05
0.000124183
-6.01313e-06
0.00016508
-4.37036e-05
0.000213292
-8.56883e-05
0.000269199
-0.000131369
0.000333133
-0.000180189
0.000405378
-0.000231614
0.00048618
-0.000285119
0.000575759
-0.000340182
0.000674331
-0.000396287
0.000782156
-0.000452931
0.0008996
-0.000509639
0.00102724
-0.000566001
0.00116598
-0.000621716
0.00131729
-0.000676654
0.00148336
-0.000730968
0.00166669
-0.000785386
-0.00083984
0.00186429
3.05039e-07
2.67804e-05
2.61623e-06
6.02895e-05
8.06432e-06
7.73435e-05
1.75957e-05
8.06012e-05
3.20293e-05
7.22312e-05
5.20918e-05
5.40073e-05
7.84398e-05
2.73681e-05
0.000111672
-6.51511e-06
0.00015233
-4.66717e-05
0.000200901
-9.22744e-05
0.000257806
-0.000142594
0.0003234
-0.000196962
0.00039796
-0.000254749
0.000481688
-0.000315343
0.000574716
-0.000378147
0.000677111
-0.000442577
0.000788896
-0.000508073
0.000910079
-0.000574113
0.00104068
-0.000640243
0.00118079
-0.000706106
0.00133056
-0.000771492
0.00149028
-0.00083637
0.00166021
-0.000900894
0.00184003
-0.000965204
-0.00102636
0.00202654
5.45803e-07
2.62346e-05
3.71149e-06
5.71238e-05
1.07276e-05
7.03274e-05
2.26231e-05
6.87057e-05
4.02894e-05
5.45648e-05
6.45159e-05
2.97809e-05
9.60095e-05
-4.1255e-06
0.000135403
-4.59083e-05
0.000183251
-9.452e-05
0.000240026
-0.000149049
0.000306102
-0.00020867
0.00038175
-0.00027261
0.000467125
-0.000340124
0.000562263
-0.000410481
0.000667085
-0.000482968
0.000781398
-0.00055689
0.000904915
-0.00063159
0.00103727
-0.000706464
0.00117802
-0.000780993
0.00132667
-0.000854764
0.00148269
-0.000927505
0.00164541
-0.000999091
0.001814
-0.00106949
0.00198723
-0.00113844
-0.00120199
0.00216286
8.25467e-07
2.54092e-05
4.96241e-06
5.29869e-05
1.37417e-05
6.15481e-05
2.82748e-05
5.41726e-05
4.95225e-05
3.33171e-05
7.83292e-05
9.74201e-07
0.000115438
-4.12344e-05
0.000161492
-9.19626e-05
0.000217027
-0.000150054
0.000282452
-0.000214475
0.000358042
-0.00028426
0.000443915
-0.000358484
0.000540028
-0.000436237
0.000646169
-0.000516622
0.000761963
-0.000598762
0.00088688
-0.000681808
0.00102025
-0.000764962
0.00116129
-0.000847501
0.00130909
-0.000928798
0.00146267
-0.00100834
0.00162094
-0.00108577
0.00178267
-0.00116082
0.00194651
-0.00123333
0.00211094
-0.00130287
-0.0013655
0.00227446
1.15192e-06
2.42572e-05
6.39406e-06
4.77447e-05
1.71542e-05
5.0788e-05
3.46217e-05
3.67051e-05
5.98195e-05
8.11939e-06
9.36328e-05
-3.28392e-05
0.000136818
-8.442e-05
0.000189997
-0.000145141
0.000253638
-0.000213695
0.000328036
-0.000288873
0.000413295
-0.000369519
0.000509309
-0.000454498
0.000615758
-0.000542686
0.00073211
-0.000632974
0.000857629
-0.000724281
0.0009914
-0.000815579
0.00113235
-0.000905915
0.00127929
-0.000994441
0.00143093
-0.00108043
0.0015859
-0.00116331
0.00174277
-0.00124264
0.00190007
-0.00131812
0.00205628
-0.00138955
0.00220993
-0.00145653
-0.00151567
0.0023601
1.53262e-06
2.27246e-05
8.02945e-06
4.12479e-05
2.10067e-05
3.78108e-05
4.17227e-05
1.5989e-05
7.12482e-05
-2.14061e-05
0.000110488
-7.20788e-05
0.000160179
-0.000134111
0.000220877
-0.000205839
0.000292926
-0.000285744
0.000376441
-0.000372387
0.00047128
-0.000464357
0.000577038
-0.000560256
0.000693047
-0.000658696
0.000818395
-0.000758322
0.000951948
-0.000857834
0.00109239
-0.000956025
0.00123829
-0.00105181
0.0013881
-0.00114425
0.00154024
-0.00123258
0.00169314
-0.00131621
0.00184525
-0.00139475
0.00199506
-0.00146793
0.00214117
-0.00153565
0.00228231
-0.00159767
-0.00165138
0.00241803
1.97401e-06
2.07506e-05
9.88754e-06
3.33344e-05
2.53312e-05
2.2367e-05
4.96173e-05
-8.29706e-06
8.38428e-05
-5.56316e-05
0.0001289
-0.000117136
0.000185465
-0.000190676
0.000253968
-0.000274342
0.000334565
-0.000366342
0.000427112
-0.000464934
0.000531147
-0.000568393
0.000645895
-0.000675003
0.000770283
-0.000783085
0.000902984
-0.000891023
0.00104246
-0.000997314
0.00118704
-0.00110061
0.00133497
-0.00119974
0.00148448
-0.00129376
0.00163385
-0.00138195
0.00178147
-0.00146383
0.00192583
-0.00153911
0.00206562
-0.00160772
0.00219968
-0.00166971
0.00232714
-0.00172513
-0.00177215
0.00244791
2.48111e-06
1.82695e-05
1.19817e-05
2.38337e-05
3.0147e-05
4.2018e-06
5.83204e-05
-3.64705e-05
9.7595e-05
-9.49062e-05
0.000148809
-0.00016835
0.00021252
-0.000254387
0.000288969
-0.000350791
0.000378047
-0.000455419
0.000479271
-0.000566158
0.000591788
-0.00068091
0.000714394
-0.000797609
0.000845582
-0.000914273
0.000983609
-0.00102905
0.00112657
-0.00114028
0.00127251
-0.00124654
0.00141946
-0.00134669
0.00156558
-0.00143987
0.00170915
-0.00152552
0.00184868
-0.00160336
0.0019829
-0.00167333
0.00211079
-0.00173561
0.0022316
-0.00179052
0.00234485
-0.00183838
-0.00187814
0.00245084
3.05722e-06
1.52123e-05
1.43188e-05
1.25722e-05
3.54575e-05
-1.69369e-05
6.78177e-05
-6.88307e-05
0.000112448
-0.000139537
0.00017008
-0.000225982
0.000241086
-0.000325393
0.00032544
-0.000435145
0.000422687
-0.000552666
0.000531933
-0.000675405
0.000651875
-0.000800851
0.000780846
-0.000926581
0.000916906
-0.00105033
0.00105794
-0.00117008
0.00120175
-0.00128409
0.0013462
-0.00139099
0.00148927
-0.00148977
0.00162918
-0.00157977
0.00176437
-0.00166072
0.00189364
-0.00173262
0.00201604
-0.00179573
0.00213096
-0.00185054
0.00223807
-0.00189763
0.00233731
-0.00193762
-0.00197012
0.00242929
3.70386e-06
1.15084e-05
1.68983e-05
-6.22268e-07
4.12498e-05
-4.12884e-05
7.8064e-05
-0.000105645
0.000128294
-0.000189767
0.0001925
-0.000290188
0.000270795
-0.000403688
0.000362802
-0.000527153
0.000467644
-0.000657507
0.000583952
-0.000791714
0.000709935
-0.000926834
0.000843467
-0.00106011
0.000982212
-0.00118908
0.00112376
-0.00131163
0.00126575
-0.00142608
0.001406
-0.00153124
0.0015426
-0.00162636
0.00167395
-0.00171112
0.00179883
-0.0017856
0.00191637
-0.00185016
0.00202606
-0.00190543
0.0021277
-0.00195218
0.00222137
-0.0019913
0.00230739
-0.00202363
-0.00204933
0.00238659
4.42067e-06
7.08774e-06
1.97124e-05
-1.5914e-05
4.74936e-05
-6.90696e-05
8.89823e-05
-0.000147134
0.000144975
-0.00024576
0.000215785
-0.000360998
0.000301184
-0.000489086
0.000400364
-0.000626334
0.000511955
-0.000769098
0.000634074
-0.000913833
0.000764436
-0.0010572
0.000900495
-0.00119617
0.0010396
-0.00132819
0.00117917
-0.0014512
0.00131682
-0.00156373
0.00145048
-0.0016649
0.00157847
-0.00175435
0.00169954
-0.00183219
0.00181285
-0.0018989
0.00191796
-0.00195527
0.00201479
-0.00200225
0.00210352
-0.00204091
0.00218457
-0.00207236
0.00225856
-0.00209762
-0.00211725
0.00232648
5.20548e-06
1.88226e-06
2.27458e-05
-3.34543e-05
5.41413e-05
-0.000100465
0.000100464
-0.000193456
0.000162282
-0.000307578
0.000239582
-0.000438297
0.000331705
-0.000581209
0.000437344
-0.000731972
0.000554582
-0.000886336
0.000681011
-0.00104026
0.000813886
-0.00119007
0.000950319
-0.0013326
0.00108747
-0.00146534
0.00122272
-0.00158645
0.00135382
-0.00169483
0.00147895
-0.00179004
0.00159679
-0.0018722
0.0017065
-0.0019419
0.00180769
-0.00200009
0.00190034
-0.00204792
0.00198475
-0.00208665
0.00206143
-0.00211759
0.00213106
-0.00214199
0.00219445
-0.002161
-0.00217543
0.00225262
6.05433e-06
-4.17207e-06
2.59758e-05
-5.33758e-05
6.11287e-05
-0.000135618
0.000112371
-0.000244698
0.000179963
-0.000375171
0.000263477
-0.000521811
0.000361749
-0.000679481
0.000472905
-0.000843128
0.000594466
-0.0010079
0.000723518
-0.00116931
0.000856931
-0.00132348
0.00099159
-0.00146726
0.00112461
-0.00159835
0.00125349
-0.00171533
0.00137625
-0.00181759
0.00149146
-0.00190524
0.00159821
-0.00197895
0.00169614
-0.00203983
0.00178526
-0.00208922
0.00186596
-0.00212861
0.00193882
-0.00215952
0.00200463
-0.0021834
0.00206421
-0.00220157
0.00211845
-0.00221524
-0.00222535
0.00216837
6.96149e-06
-1.11336e-05
2.93727e-05
-7.5787e-05
6.83754e-05
-0.000174621
0.000124537
-0.00030086
0.000197727
-0.00044836
0.000287016
-0.0006111
0.000390664
-0.00078313
0.000506199
-0.000958663
0.000630584
-0.00113228
0.000760466
-0.0012992
0.000892438
-0.00145546
0.0010233
-0.00159813
0.00115028
-0.00172533
0.00127114
-0.00183619
0.00138427
-0.00193073
0.00148871
-0.00200967
0.00158402
-0.00207427
0.00167027
-0.00212607
0.00174786
-0.00216681
0.00181747
-0.00219823
0.00187994
-0.00222199
0.00193617
-0.00223962
0.00198707
-0.00225247
0.00203354
-0.00226171
-0.00226834
0.00207653
7.91942e-06
-1.9053e-05
3.28997e-05
-0.000100767
7.57863e-05
-0.000217507
0.000136774
-0.000361848
0.000215251
-0.000526837
0.000309713
-0.000705562
0.00041779
-0.000891207
0.000536403
-0.00107728
0.000662009
-0.00125789
0.000790911
-0.0014281
0.000919564
-0.00158411
0.00104484
-0.0017234
0.00116421
-0.0018447
0.00127583
-0.00194781
0.00137857
-0.00203347
0.00147192
-0.00210302
0.00155591
-0.00215826
0.001631
-0.00220116
0.00169791
-0.00223371
0.00175752
-0.00225785
0.00181083
-0.00227529
0.00185877
-0.00228757
0.00190228
-0.00229599
0.00194221
-0.00230163
-0.00230549
0.00197936
8.91874e-06
-2.79717e-05
3.65134e-05
-0.000128362
8.3253e-05
-0.000264247
0.000148873
-0.000427468
0.000232195
-0.00061016
0.000331074
-0.00080444
0.000442485
-0.00100262
0.000562769
-0.00119756
0.000687958
-0.00138308
0.000814141
-0.00155428
0.000937787
-0.00170775
0.00105599
-0.0018416
0.00116659
-0.0019553
0.00126822
-0.00204945
0.00136024
-0.00212549
0.00144262
-0.0021854
0.00151579
-0.00223144
0.00158053
-0.00226589
0.00163777
-0.00229096
0.00168855
-0.00230863
0.00173389
-0.00232063
0.00177475
-0.00232843
0.00181199
-0.00233323
0.00184638
-0.00233602
-0.00233772
0.0018786
9.94831e-06
-3.792e-05
4.01644e-05
-0.000158578
9.06559e-05
-0.000314738
0.000160611
-0.000497423
0.00024821
-0.000697759
0.000350616
-0.000906846
0.000464157
-0.00111616
0.000584654
-0.00131806
0.00070783
-0.00150625
0.000829705
-0.00167616
0.000946915
-0.00182496
0.0010569
-0.00195159
0.00115798
-0.00205637
0.00124928
-0.00214075
0.00133066
-0.00220687
0.00140252
-0.00225726
0.00146561
-0.00229454
0.00152095
-0.00232123
0.00156961
-0.00233962
0.00161268
-0.0023517
0.00165117
-0.00235912
0.00168597
-0.00236324
0.00171787
-0.00236513
0.00174754
-0.00236568
-0.0023657
0.00177553
1.09952e-05
-4.89152e-05
4.3798e-05
-0.000191381
9.78672e-05
-0.000368808
0.00017176
-0.000571316
0.000262949
-0.000788948
0.000367889
-0.00101179
0.000482292
-0.00123056
0.000601555
-0.00143732
0.000721228
-0.00162593
0.000837418
-0.00179234
0.000947062
-0.00193461
0.00104805
-0.00205258
0.00113922
-0.00214754
0.00122022
-0.00222175
0.00129134
-0.00227799
0.00135335
-0.00231926
0.00140725
-0.00234844
0.00145419
-0.00236817
0.00149531
-0.00238074
0.00153169
-0.00238807
0.00156428
-0.0023917
0.00159389
-0.00239285
0.00162121
-0.00239245
0.00164678
-0.00239126
-0.00238998
0.00167106
1.20449e-05
-6.09602e-05
4.73553e-05
-0.000226691
0.000104755
-0.000426207
0.000182092
-0.000648653
0.000276089
-0.000882945
0.000382495
-0.00111819
0.000496474
-0.00134454
0.000613124
-0.00155397
0.00072797
-0.00174077
0.000837346
-0.00190172
0.000938606
-0.00203587
0.00103016
-0.00214413
0.00111137
-0.00222875
0.00118236
-0.00229274
0.00124382
-0.00233945
0.00129677
-0.00237221
0.0013424
-0.00239407
0.00138191
-0.00240768
0.00141645
-0.00241528
0.00144703
-0.00241865
0.00147451
-0.00241919
0.00149962
-0.00241795
0.00152292
-0.00241575
0.00154488
-0.00241321
-0.00241093
0.00156583
1.30818e-05
-7.40419e-05
5.07749e-05
-0.000264384
0.000111185
-0.000486617
0.000191389
-0.000728857
0.000287334
-0.00097889
0.0003941
-0.00122496
0.000506405
-0.00145685
0.000619179
-0.00166674
0.000728071
-0.00184966
0.000829772
-0.00200342
0.000922132
-0.00212823
0.0010041
-0.0022261
0.00107555
-0.0023002
0.00113704
-0.00235422
0.00118955
-0.00239196
0.00123429
-0.00241695
0.00127254
-0.00243232
0.00130551
-0.00244065
0.0013343
-0.00244406
0.00135982
-0.00244417
0.00138284
-0.00244221
0.00140398
-0.00243909
0.00142371
-0.00243549
0.0014424
-0.0024319
-0.00242883
0.0014603
1.4089e-05
-8.81309e-05
5.39943e-05
-0.00030429
0.000117029
-0.000549652
0.00019945
-0.000811278
0.000296433
-0.00107587
0.000402455
-0.00133098
0.000511905
-0.0015663
0.000619693
-0.00177453
0.000721729
-0.0019517
0.000815157
-0.00209685
0.000898371
-0.00221144
0.000970858
-0.00229859
0.00103295
-0.00236229
0.00108555
-0.00240682
0.00112987
-0.00243628
0.00116723
-0.00245432
0.00119894
-0.00246402
0.00122615
-0.00246787
0.00124988
-0.00246779
0.00127094
-0.00246524
0.00129
-0.00246128
0.00130758
-0.00245667
0.00132406
-0.00245196
0.00133972
-0.00244757
-0.00244387
0.00135476
1.50492e-05
-0.00010318
5.69522e-05
-0.000346193
0.000122166
-0.000614866
0.0002061
-0.000895211
0.000303187
-0.00117296
0.000407395
-0.00143519
0.000512915
-0.00167182
0.000614785
-0.0018764
0.000709288
-0.0020462
0.00079409
-0.00218165
0.00086814
-0.00228549
0.000931429
-0.00236188
0.000984686
-0.00241555
0.00102908
-0.00245122
0.00106597
-0.00247317
0.00109673
-0.00248508
0.00112263
-0.00248991
0.00114474
-0.00248998
0.00116398
-0.00248703
0.00118106
-0.00248232
0.00119654
-0.00247676
0.00121085
-0.00247098
0.0012243
-0.00246541
0.00123711
-0.00246038