/*--------------------------------*- C++ -*----------------------------------*\
  =========                 |
  \\      /  F ield         | OpenFOAM: The Open Source CFD Toolbox
   \\    /   O peration     | Website:  https://openfoam.org
    \\  /    A nd           | Version:  6.0
     \\/     M anipulation  |
\*---------------------------------------------------------------------------*/
FoamFile
{
    version     2.0;
    format      ascii;
    class       volVectorField;
    location    "40";
    object      U;
}
// * * * * * * * * * * * * * * * * * * * * * * * * * * * * * * * * * * * * * //

dimensions      [0 1 -1 0 0 0 0];

internalField   nonuniform List<vector> 
12500
(
(-0.000257094 0.000124972 -5.32429e-22)
(-0.00151502 0.000209845 7.34628e-21)
(-0.00395579 0.000157811 -1.06398e-20)
(-0.00708156 6.66019e-06 4.87875e-21)
(-0.0106196 -0.000214224 2.92044e-22)
(-0.0143991 -0.000482205 -5.99608e-22)
(-0.0182836 -0.000779503 -8.84492e-21)
(-0.0221714 -0.00109242 4.84986e-21)
(-0.0259916 -0.00141056 3.20274e-21)
(-0.0296976 -0.00172611 3.24814e-21)
(-0.0332616 -0.00203322 -5.49037e-21)
(-0.0366714 -0.00232748 3.18941e-21)
(-0.0399264 -0.00260559 -1.49986e-21)
(-0.0430354 -0.00286511 2.53983e-21)
(-0.046014 -0.00310422 -6.46894e-21)
(-0.0488829 -0.00332171 9.33367e-21)
(-0.0516662 -0.00351686 -1.77666e-21)
(-0.0543902 -0.00368945 -6.58358e-21)
(-0.0570816 -0.00383976 3.36805e-21)
(-0.0597672 -0.00396856 -3.20972e-21)
(-0.0624769 -0.00407718 2.86806e-21)
(-0.0652399 -0.00416751 3.78423e-21)
(-0.0680443 -0.00424129 3.83859e-22)
(-0.0708225 -0.00429952 -1.08047e-20)
(-0.0738571 -0.00434844 5.6977e-21)
(-0.000292807 0.000756274 9.7237e-21)
(-0.00160959 0.00184815 -2.50851e-20)
(-0.00410068 0.00256712 7.38723e-21)
(-0.00726723 0.00299185 4.93041e-21)
(-0.0108367 0.00318478 -3.92504e-21)
(-0.0146389 0.00319718 -2.22742e-20)
(-0.018538 0.00307278 6.61338e-21)
(-0.022433 0.00284838 -1.24733e-20)
(-0.0262534 0.00255478 1.49021e-20)
(-0.0299531 0.00221771 -1.98661e-20)
(-0.0335051 0.0018587 1.05905e-20)
(-0.0368972 0.00149584 3.41905e-21)
(-0.0401294 0.00114426 -8.59778e-21)
(-0.043211 0.000816619 -3.79253e-21)
(-0.0461579 0.000523318 2.77269e-20)
(-0.0489913 0.000272743 -2.44959e-20)
(-0.0517361 7.13576e-05 5.85189e-21)
(-0.0544191 -7.62158e-05 1.01063e-20)
(-0.0570677 -0.000167128 -2.30181e-21)
(-0.0597095 -0.000200268 1.62349e-20)
(-0.0623752 -0.000176369 2.95081e-21)
(-0.0650951 -9.78634e-05 -1.05891e-21)
(-0.0678575 3.31248e-05 -2.04137e-20)
(-0.0705944 0.000216372 1.87574e-20)
(-0.0735908 0.000435564 -3.57621e-20)
(-0.000368646 0.00138859 3.1188e-20)
(-0.00180813 0.00348778 1.0358e-20)
(-0.0043978 0.00497657 -1.35649e-20)
(-0.00763963 0.00597492 5.82079e-21)
(-0.0112628 0.00657862 5.44062e-21)
(-0.015099 0.00686772 2.06263e-20)
(-0.0190145 0.00691198 -2.61672e-20)
(-0.0229096 0.00677136 -4.2511e-21)
(-0.0267157 0.00649705 -1.74761e-20)
(-0.0303877 0.00613268 -1.45706e-20)
(-0.0338996 0.00571551 1.87855e-20)
(-0.0372403 0.00527731 -6.2799e-20)
(-0.0404107 0.00484519 -1.96115e-21)
(-0.0434206 0.00444207 -3.75847e-20)
(-0.046287 0.00408719 -4.41835e-21)
(-0.049032 0.00379629 5.32163e-21)
(-0.0516815 0.00358186 -2.90562e-20)
(-0.0542634 0.00345319 -1.81531e-20)
(-0.0568066 0.00341655 -2.14615e-20)
(-0.05934 0.0034752 3.35814e-20)
(-0.0618958 0.00362923 1.22563e-20)
(-0.0645059 0.0038758 -5.44414e-20)
(-0.0671601 0.00421258 -2.61853e-20)
(-0.0697891 0.0046403 -2.92382e-20)
(-0.0726817 0.00513233 7.88022e-20)
(-0.000484776 0.0020196 -9.71385e-22)
(-0.00211086 0.00512216 -2.39533e-20)
(-0.00484712 0.00737565 -1.1491e-20)
(-0.00819828 0.0089417 7.11913e-21)
(-0.0118968 0.00994966 4.42739e-20)
(-0.0157779 0.0105085 -1.99462e-20)
(-0.0197109 0.0107139 4.24827e-20)
(-0.023599 0.0106491 4.04141e-20)
(-0.0273758 0.0103854 2.45701e-20)
(-0.0309984 0.00998433 -3.68493e-22)
(-0.0344424 0.00949879 4.94086e-20)
(-0.0376982 0.00897428 8.54351e-21)
(-0.0407677 0.0084499 3.76063e-20)
(-0.043662 0.00795907 8.63413e-20)
(-0.0463994 0.00753008 -1.0004e-19)
(-0.0490033 0.00718639 1.50234e-19)
(-0.0515008 0.00694692 3.26385e-20)
(-0.0539217 0.0068261 -7.19382e-20)
(-0.0562966 0.00683409 -1.01905e-20)
(-0.0586566 0.00697675 2.60872e-20)
(-0.0610362 0.00725542 -1.30646e-20)
(-0.0634698 0.00766718 -7.812e-21)
(-0.065949 0.00820971 -7.60611e-21)
(-0.0684033 0.00888514 -3.05941e-20)
(-0.0711265 0.00965617 1.07179e-19)
(-0.000641252 0.00264699 1.62488e-20)
(-0.0025176 0.00674467 -7.54536e-20)
(-0.00544794 0.00975379 9.14544e-20)
(-0.00894175 0.011878 -3.63786e-20)
(-0.0127366 0.0132804 4.35176e-20)
(-0.0166726 0.0140989 3.54808e-20)
(-0.0206236 0.0144552 1.34587e-20)
(-0.0244969 0.0144551 6.6396e-22)
(-0.0282293 0.0141903 7.56065e-20)
(-0.0317808 0.0137399 5.22813e-20)
(-0.0351292 0.0131722 -2.0933e-20)
(-0.0382667 0.0125465 -1.34661e-20)
(-0.0411969 0.0119137 5.67604e-20)
(-0.0439324 0.0113182 1.0678e-20)
(-0.0464928 0.0107974 2.89503e-20)
(-0.0489031 0.0103832 6.92418e-20)
(-0.0511923 0.0101012 -5.97427e-20)
(-0.0533924 0.00997189 4.81759e-20)
(-0.0555362 0.0100099 -1.03769e-19)
(-0.0576576 0.0102244 8.71169e-20)
(-0.0597942 0.0106186 5.63715e-22)
(-0.061984 0.0111901 -6.93352e-20)
(-0.064221 0.011937 2.78755e-20)
(-0.0664335 0.0128634 6.32585e-20)
(-0.068922 0.0139209 -9.31031e-20)
(-0.000838003 0.0032685 8.40475e-20)
(-0.00302777 0.00834869 -8.9234e-20)
(-0.00619878 0.0121004 -1.43471e-20)
(-0.00986747 0.0147698 1.80952e-20)
(-0.0137783 0.0165538 -3.90514e-20)
(-0.0177782 0.0176192 -6.08508e-20)
(-0.0217468 0.0181132 -5.05703e-20)
(-0.0255967 0.0181646 -1.21845e-20)
(-0.0292692 0.0178845 -8.69199e-20)
(-0.0327277 0.0173693 6.92014e-20)
(-0.0359529 0.0167027 -1.0739e-19)
(-0.0389392 0.0159572 5.4259e-20)
(-0.0416923 0.015196 -1.79813e-20)
(-0.0442262 0.0144742 4.16517e-20)
(-0.0465623 0.013839 -1.04668e-19)
(-0.0487275 0.0133309 5.07057e-20)
(-0.0507527 0.0129834 3.7848e-21)
(-0.0526723 0.0128234 2.24601e-20)
(-0.0545223 0.0128712 1.35573e-19)
(-0.0563397 0.0131403 3.00238e-20)
(-0.0581661 0.0136367 -2.72514e-21)
(-0.0600441 0.0143592 8.56058e-21)
(-0.0619711 0.0153071 5.63595e-20)
(-0.0638743 0.0164874 1.60564e-20)
(-0.0660632 0.0178403 5.26647e-20)
(-0.00107483 0.00388184 -5.23678e-20)
(-0.00364023 0.00992758 7.43497e-20)
(-0.00709713 0.0144051 4.66076e-21)
(-0.0109713 0.0176033 -9.07222e-20)
(-0.0150162 0.0197532 1.90704e-19)
(-0.0190871 0.0210502 -6.16298e-20)
(-0.0230715 0.0216672 8.9938e-20)
(-0.0268884 0.0217547 8.22559e-20)
(-0.0304845 0.0214432 -6.80296e-20)
(-0.0338277 0.0208458 -9.89849e-20)
(-0.036902 0.020061 2.70849e-20)
(-0.0397047 0.0191745 -2.85509e-20)
(-0.0422432 0.0182614 -1.26222e-19)
(-0.0445337 0.0173877 1.53292e-19)
(-0.0465992 0.0166106 -7.34839e-20)
(-0.0484684 0.01598 -5.06431e-20)
(-0.0501745 0.0155378 4.79173e-22)
(-0.0517545 0.0153188 4.13511e-20)
(-0.0532478 0.01535 1.70319e-20)
(-0.0546956 0.0156505 -6.6691e-20)
(-0.0561439 0.0162304 7.6127e-20)
(-0.0576412 0.0170909 -1.32164e-19)
(-0.0591895 0.0182338 8.06876e-20)
(-0.0607155 0.01967 -6.17375e-20)
(-0.0625401 0.0213281 1.61744e-20)
(-0.00135135 0.00448475 7.62214e-20)
(-0.0043532 0.0114746 -5.86255e-20)
(-0.00813922 0.0166571 -3.72947e-20)
(-0.0122471 0.0203646 -6.58334e-20)
(-0.0164417 0.0228622 -1.2033e-19)
(-0.0205887 0.0243739 -8.88897e-20)
(-0.0245847 0.0250974 5.53993e-20)
(-0.0283571 0.0252047 -8.38883e-20)
(-0.0318591 0.0248448 1.06445e-19)
(-0.0350636 0.0241468 -1.73206e-19)
(-0.0379589 0.0232233 7.69219e-20)
(-0.0405451 0.0221726 1.62419e-19)
(-0.0428321 0.0210817 -2.28151e-19)
(-0.044838 0.020027 3.25684e-20)
(-0.0465872 0.0190764 4.2368e-20)
(-0.0481104 0.0182894 4.09432e-20)
(-0.0494429 0.0177175 -4.39721e-20)
(-0.0506247 0.0174044 -1.07942e-20)
(-0.0516986 0.0173854 -3.22798e-20)
(-0.0527104 0.0176871 -2.68979e-20)
(-0.053712 0.0183254 -1.4761e-19)
(-0.0547586 0.0193056 -9.96717e-21)
(-0.0558582 0.0206335 1.61506e-21)
(-0.056938 0.0223261 -6.6661e-20)
(-0.0583337 0.0242998 6.86124e-20)
(-0.001667 0.00507485 2.21418e-21)
(-0.00516407 0.0129828 2.39883e-20)
(-0.00931964 0.0188456 2.49761e-20)
(-0.0136864 0.0230399 1.44799e-20)
(-0.018043 0.0258651 1.22489e-19)
(-0.0222676 0.0275731 1.15038e-19)
(-0.0262683 0.028386 -9.34833e-20)
(-0.0299819 0.0284966 -2.84603e-20)
(-0.0333695 0.0280713 -2.52615e-20)
(-0.0364101 0.0272544 1.30308e-19)
(-0.0390968 0.0261716 4.67788e-20)
(-0.041433 0.0249332 -6.8068e-20)
(-0.0434313 0.0236371 -5.76099e-20)
(-0.0451112 0.0223704 1.38774e-19)
(-0.0464989 0.0212113 -3.42131e-20)
(-0.0476266 0.0202295 -4.14696e-20)
(-0.0485317 0.0194871 -5.78478e-20)
(-0.0492568 0.019038 -4.50227e-20)
(-0.0498485 0.0189277 -5.74555e-20)
(-0.0503575 0.0191922 -3.75525e-20)
(-0.0508424 0.0198559 1.56002e-19)
(-0.0513666 0.0209304 -7.68067e-20)
(-0.0519458 0.022428 5.17026e-20)
(-0.0525089 0.0243744 -1.3746e-19)
(-0.0534108 0.0266741 5.5414e-20)
(-0.00202091 0.00564954 -6.84706e-20)
(-0.00606919 0.0144446 -1.78497e-20)
(-0.010631 0.0209593 -1.39333e-19)
(-0.0152775 0.0256151 -6.67694e-20)
(-0.0198039 0.0287457 -1.31767e-19)
(-0.0241034 0.0306311 -1.37414e-20)
(-0.0280974 0.0315166 7.05972e-20)
(-0.0317339 0.0316148 -4.30102e-20)
(-0.0349831 0.0311085 9.26532e-20)
(-0.0378316 0.0301559 -2.25103e-19)
(-0.0402774 0.0288948 -6.52855e-21)
(-0.042328 0.0274463 3.98805e-20)
(-0.0439986 0.0259185 -5.05839e-20)
(-0.0453105 0.0244083 4.60193e-20)
(-0.0462911 0.0230039 -3.51873e-20)
(-0.0469738 0.0217858 -7.53766e-20)
(-0.0473975 0.0208272 1.37454e-19)
(-0.0476073 0.0201936 8.52305e-20)
(-0.0476535 0.0199428 -1.76683e-20)
(-0.0475919 0.0201228 5.62229e-20)
(-0.0474884 0.0207694 -1.10903e-19)
(-0.0474162 0.0219041 1.59783e-19)
(-0.0474006 0.0235487 -2.18179e-19)
(-0.0473742 0.0257418 4.48982e-20)
(-0.0477171 0.0283767 -8.51832e-20)
(-0.00241184 0.00620593 3.72205e-21)
(-0.00706364 0.0158518 -6.09632e-20)
(-0.0120636 0.022986 9.02717e-20)
(-0.0170053 0.0280754 1.85087e-19)
(-0.0217036 0.0314881 -3.05467e-21)
(-0.0260693 0.0335315 2.09567e-20)
(-0.0300393 0.0344737 -7.91832e-20)
(-0.0335746 0.0345457 3.70519e-20)
(-0.0366563 0.0339455 2.55472e-19)
(-0.0392789 0.0328439 -5.79534e-20)
(-0.0414471 0.031389 -6.84466e-20)
(-0.0431726 0.0297116 2.58616e-19)
(-0.0444733 0.0279284 8.4457e-20)
(-0.0453725 0.0261453 4.01915e-20)
(-0.0458985 0.0244599 4.11457e-20)
(-0.0460851 0.022963 1.12052e-19)
(-0.0459726 0.0217393 -4.30442e-20)
(-0.0456076 0.0208674 1.13819e-19)
(-0.0450437 0.0204192 1.53973e-19)
(-0.044342 0.020458 -1.31277e-19)
(-0.0435762 0.0210344 1.9503e-19)
(-0.0428307 0.0221839 6.95861e-20)
(-0.0421422 0.0239435 -2.63973e-19)
(-0.0414501 0.0263694 3.81701e-19)
(-0.0411672 0.0293457 -3.09157e-19)
(-0.00283808 0.00674068 -1.74429e-19)
(-0.00814092 0.0171955 9.50707e-20)
(-0.0136048 0.0249125 -6.37976e-20)
(-0.0188504 0.0304049 -6.0579e-20)
(-0.0237156 0.0340753 -6.54086e-20)
(-0.0281313 0.0362578 -7.09479e-20)
(-0.0320522 0.0372425 1.94577e-20)
(-0.0354545 0.0372775 1.84957e-19)
(-0.0383314 0.0365748 -3.95971e-20)
(-0.0406873 0.0353156 -1.03151e-19)
(-0.0425338 0.0336574 -6.2999e-20)
(-0.043888 0.0317384 -2.5761e-20)
(-0.0447708 0.0296823 7.62524e-20)
(-0.0452073 0.0276024 -4.86717e-20)
(-0.0452266 0.0256045 -1.58823e-19)
(-0.0448628 0.0237887 -1.75236e-19)
(-0.0441561 0.0222512 6.98677e-20)
(-0.0431544 0.0210844 -1.30004e-19)
(-0.0419135 0.020376 1.1291e-19)
(-0.0404995 0.0202076 -3.18772e-19)
(-0.0389941 0.0206492 2.44883e-19)
(-0.0374942 0.021756 -3.23791e-19)
(-0.0360502 0.023586 -6.04444e-21)
(-0.0346116 0.0262214 -1.0895e-19)
(-0.0336336 0.0295401 3.20002e-19)
(-0.0032973 0.00724997 2.67687e-19)
(-0.00929271 0.0184654 3.92557e-20)
(-0.015239 0.0267242 -2.57947e-20)
(-0.0207889 0.0325863 -1.08718e-20)
(-0.0258069 0.0364889 2.0241e-19)
(-0.0302469 0.0387924 6.58464e-20)
(-0.0340838 0.0398077 5.97122e-20)
(-0.037311 0.039799 -4.79823e-20)
(-0.0399356 0.0389904 1.85044e-19)
(-0.041973 0.0375724 -9.09507e-20)
(-0.0434433 0.0357095 5.86828e-20)
(-0.0443694 0.0335453 1.4931e-19)
(-0.0447764 0.0312087 -8.46424e-20)
(-0.0446913 0.028818 9.16845e-20)
(-0.0441439 0.026485 8.65788e-20)
(-0.0431681 0.0243178 2.96175e-20)
(-0.0418036 0.0224229 -7.29604e-20)
(-0.0400982 0.0209061 2.01803e-19)
(-0.038109 0.0198725 -1.87686e-20)
(-0.0359061 0.0194244 -2.16153e-20)
(-0.0335791 0.0196561 2.41568e-19)
(-0.0312382 0.0206484 -1.71802e-19)
(-0.0289497 0.0224897 2.89381e-19)
(-0.0266773 0.0252984 -2.39904e-19)
(-0.0249314 0.0289525 3.08621e-19)
(-0.00378645 0.00772938 -1.29349e-19)
(-0.0105086 0.0196501 2.87058e-20)
(-0.0169469 0.0284048 -2.99018e-20)
(-0.0227917 0.0346007 -1.41453e-19)
(-0.0279378 0.0387091 8.20331e-21)
(-0.0323649 0.0411162 8.05541e-20)
(-0.0360706 0.0421529 -3.27562e-19)
(-0.0390674 0.0420983 2.4451e-19)
(-0.0413782 0.0411872 -2.38003e-19)
(-0.0430309 0.0396177 -1.50078e-19)
(-0.0440555 0.0375592 1.34615e-19)
(-0.0444821 0.0351588 -2.91277e-19)
(-0.0443405 0.0325478 2.45328e-19)
(-0.0436605 0.0298471 -7.79875e-20)
(-0.0424731 0.0271718 -2.22739e-19)
(-0.0408117 0.024635 5.50088e-20)
(-0.038715 0.0223513 -5.16281e-20)
(-0.0362297 0.0204385 1.94564e-20)
(-0.0334132 0.0190187 -6.95786e-20)
(-0.0303378 0.0182171 -2.30907e-19)
(-0.0271003 0.0181559 5.17115e-20)
(-0.0238246 0.0189494 -5.45507e-23)
(-0.0205947 0.0207263 -2.37959e-19)
(-0.0173925 0.0236563 1.67167e-19)
(-0.0148003 0.0276268 -1.44518e-19)
(-0.00430166 0.00817399 5.23714e-20)
(-0.0117759 0.0207369 9.6479e-20)
(-0.0187055 0.0299366 1.34979e-19)
(-0.0248245 0.036427 6.94432e-20)
(-0.0300614 0.0407134 -6.80746e-20)
(-0.0344247 0.0432074 1.62405e-19)
(-0.037937 0.0442591 1.20183e-19)
(-0.0406318 0.0441614 -4.37106e-20)
(-0.0425497 0.0431586 1.56221e-19)
(-0.0437328 0.0414546 -1.60674e-19)
(-0.0442224 0.0392223 -4.71041e-20)
(-0.0440571 0.0366099 4.78122e-20)
(-0.043273 0.0337489 9.4774e-20)
(-0.0419038 0.0307594 1.12333e-21)
(-0.0399825 0.0277564 5.99739e-20)
(-0.0375427 0.0248546 1.10649e-19)
(-0.0346221 0.0221727 -1.88376e-19)
(-0.0312657 0.0198374 2.34152e-19)
(-0.0275296 0.0179853 7.9028e-20)
(-0.0234869 0.0167642 2.78793e-20)
(-0.0192401 0.0163273 -2.83983e-19)
(-0.0149262 0.0168287 4.02035e-20)
(-0.0106478 0.0184498 6.23111e-20)
(-0.00640874 0.0214305 -1.49385e-20)
(-0.00288327 0.0256825 7.10233e-20)
(-0.00483818 0.00857841 4.14251e-21)
(-0.0130795 0.0217123 -2.48559e-19)
(-0.0204881 0.0313002 -6.15842e-21)
(-0.0268474 0.0380421 -6.2671e-20)
(-0.0321236 0.0424769 -4.11877e-19)
(-0.0363563 0.0450414 3.55617e-19)
(-0.0395952 0.0461039 -2.53023e-19)
(-0.0418969 0.0459706 -1.26994e-20)
(-0.0433212 0.044894 -1.19523e-19)
(-0.0439261 0.0430832 2.06658e-19)
(-0.0437656 0.0407126 -2.2242e-19)
(-0.0428889 0.0379302 -1.04133e-19)
(-0.0413397 0.0348648 2.22805e-21)
(-0.0391576 0.0316333 -2.25266e-19)
(-0.0363791 0.0283468 3.07315e-19)
(-0.0330396 0.0251169 -3.55995e-19)
(-0.0291768 0.0220614 6.91831e-22)
(-0.0248339 0.0193102 5.45448e-20)
(-0.0200654 0.0170097 -1.36449e-19)
(-0.0149434 0.0153264 1.3233e-19)
(-0.00957394 0.0144443 -1.87737e-19)
(-0.00410565 0.0145615 -1.24027e-19)
(0.00134083 0.0159248 2.31093e-19)
(0.00673809 0.0188672 -2.52073e-19)
(0.0112957 0.0233461 -4.88183e-21)
(-0.0053904 0.00893704 -2.10453e-19)
(-0.0144019 0.0225618 2.41428e-19)
(-0.0222641 0.0324749 -7.44729e-20)
(-0.0288154 0.0394209 1.43408e-19)
(-0.034063 0.0439721 1.54624e-19)
(-0.03808 0.0465898 -1.36187e-19)
(-0.0409451 0.0476606 -9.03428e-20)
(-0.0427398 0.0475029 -1.08114e-19)
(-0.0435442 0.0463773 9.89604e-20)
(-0.0434338 0.0444971 -6.57482e-21)
(-0.0424769 0.0420378 1.44244e-19)
(-0.0407347 0.0391456 1.42163e-19)
(-0.0382609 0.0359455 -1.69802e-19)
(-0.0351032 0.0325485 3.33446e-19)
(-0.0313042 0.0290583 -2.21082e-19)
(-0.0269037 0.0255789 -3.79592e-20)
(-0.0219414 0.0222211 4.30608e-19)
(-0.0164611 0.0191106 -1.99358e-19)
(-0.0105159 0.0163951 1.27024e-19)
(-0.00417639 0.0142522 2.48084e-19)
(0.00245009 0.0128906 -1.60952e-19)
(0.0092059 0.0125516 1.69561e-20)
(0.0159551 0.0135568 -1.1053e-20)
(0.0226489 0.0163587 -6.59785e-20)
(0.0283545 0.0209889 1.24219e-19)
(-0.00595188 0.00924423 4.8112e-20)
(-0.0157236 0.0232708 -1.53142e-19)
(-0.0239993 0.0334393 8.37074e-20)
(-0.0306782 0.0405372 -1.01358e-21)
(-0.0358113 0.0451692 6.29888e-20)
(-0.0395072 0.0478213 -1.0839e-19)
(-0.0418752 0.0488978 6.20006e-20)
(-0.0430227 0.0487295 1.68805e-19)
(-0.0430516 0.0475847 -5.11972e-21)
(-0.0420556 0.045681 -8.62297e-20)
(-0.0401188 0.0431949 8.67051e-20)
(-0.0373159 0.0402708 -1.99449e-21)
(-0.0337128 0.0370293 -2.74464e-19)
(-0.0293678 0.0335742 1.01771e-19)
(-0.0243332 0.0299999 2.24971e-20)
(-0.0186569 0.0263986 -3.95844e-20)
(-0.0123851 0.0228684 -7.05404e-20)
(-0.00556598 0.019522 2.70381e-19)
(0.00174576 0.0164978 6.5949e-20)
(0.00947954 0.0139712 -1.41246e-19)
(0.0175278 0.0121625 -1.69627e-20)
(0.0257268 0.0113466 1.94466e-19)
(0.0339306 0.0119203 -9.08065e-20)
(0.0420787 0.0144808 3.89965e-20)
(0.0490716 0.0191688 2.63251e-20)
(-0.0065155 0.00949465 -9.63936e-20)
(-0.0170225 0.0238252 9.57796e-20)
(-0.025656 0.0341722 -5.40045e-20)
(-0.0323804 0.0413639 -1.73346e-19)
(-0.0372932 0.0460369 -1.59549e-19)
(-0.0405402 0.0487018 -7.06758e-20)
(-0.0422626 0.0497804 -5.84679e-20)
(-0.0425941 0.0496157 -1.72983e-19)
(-0.041659 0.0484844 -6.98456e-20)
(-0.0395699 0.0466088 6.36361e-20)
(-0.0364275 0.0441673 -9.08918e-20)
(-0.0323213 0.0413035 -9.59904e-20)
(-0.0273313 0.0381346 -9.00445e-20)
(-0.0215294 0.0347579 1.63492e-19)
(-0.0149812 0.0312581 -3.43352e-19)
(-0.00774779 0.0277141 1.96025e-19)
(0.000112152 0.024207 -3.35257e-19)
(0.00853943 0.0208292 -5.16642e-20)
(0.0174707 0.0176976 -1.84068e-19)
(0.0268306 0.0149687 -4.2992e-20)
(0.0365089 0.0128527 -5.24276e-20)
(0.046337 0.0116352 -1.75101e-19)
(0.0561668 0.0117732 -1.9185e-20)
(0.0659462 0.0140237 1.07158e-19)
(0.0743958 0.0186728 -2.78834e-19)
(-0.00707364 0.00968356 8.27122e-20)
(-0.018275 0.0242117 1.08196e-19)
(-0.0271932 0.0346533 3.78946e-19)
(-0.0338616 0.0418748 -6.65469e-20)
(-0.0384268 0.0465443 1.58314e-19)
(-0.0410728 0.0491966 3.77081e-19)
(-0.0419732 0.0502709 -1.02748e-19)
(-0.0412887 0.0501229 1.39049e-19)
(-0.0391658 0.0490381 8.11132e-20)
(-0.0357361 0.0472447 1.46946e-19)
(-0.0311168 0.0449245 -2.94501e-20)
(-0.025413 0.0422225 1.98683e-20)
(-0.0187203 0.0392548 -5.14447e-20)
(-0.0111264 0.036115 2.78211e-19)
(-0.00271428 0.0328809 3.55943e-20)
(0.00643634 0.0296197 2.57926e-19)
(0.0162467 0.0263954 -6.59472e-20)
(0.0266371 0.0232768 2.35784e-19)
(0.0375247 0.0203496 3.30737e-20)
(0.0488181 0.0177341 1.19792e-19)
(0.0603961 0.0156038 -5.16978e-20)
(0.0720813 0.0142165 -9.20015e-21)
(0.0837293 0.0140502 2.8466e-19)
(0.0953321 0.0160121 1.7506e-19)
(0.105444 0.0205579 -7.3052e-20)
(-0.00761831 0.00980706 -2.00558e-19)
(-0.0194557 0.0244188 -2.0332e-19)
(-0.0285664 0.0348643 -2.12492e-19)
(-0.0350563 0.0420459 7.78462e-20)
(-0.039123 0.0466623 -1.56327e-19)
(-0.0409894 0.0492724 -2.32862e-20)
(-0.0408621 0.0503328 -6.13915e-20)
(-0.0389284 0.0502121 -2.54558e-19)
(-0.0353566 0.049205 -3.97277e-20)
(-0.0302964 0.047547 6.52687e-20)
(-0.0238813 0.0454253 -2.04713e-19)
(-0.016232 0.0429892 2.83671e-19)
(-0.00745982 0.0403574 -3.85071e-19)
(0.00232975 0.0376247 9.26758e-20)
(0.0130336 0.034867 -2.35604e-19)
(0.024548 0.0321462 -1.91101e-19)
(0.0367665 0.0295148 -1.08678e-20)
(0.0495775 0.0270211 -2.88548e-20)
(0.0628639 0.0247192 2.27699e-20)
(0.0765004 0.0226828 -1.08944e-19)
(0.0903362 0.0210228 -7.53896e-20)
(0.104169 0.0199225 9.26474e-20)
(0.117856 0.0198099 -2.5622e-19)
(0.131481 0.0216866 8.32919e-20)
(0.1435 0.0261618 5.93341e-20)
(-0.00814127 0.00986232 -3.5605e-20)
(-0.0205376 0.0244374 -5.9112e-20)
(-0.0297277 0.0347902 2.29442e-19)
(-0.0358934 0.0418569 8.53354e-20)
(-0.0392847 0.0463663 1.12919e-19)
(-0.0401646 0.0489011 -1.50791e-19)
(-0.0387723 0.0499349 2.37709e-22)
(-0.0353213 0.0498489 -1.21956e-19)
(-0.0300007 0.0489479 2.25374e-19)
(-0.0229775 0.0474753 7.35402e-20)
(-0.0144003 0.0456261 8.24585e-20)
(-0.00440438 0.0435565 -3.27902e-19)
(0.00688341 0.0413921 4.04283e-19)
(0.0193396 0.0392345 -1.21426e-19)
(0.0328393 0.0371656 -8.68669e-20)
(0.0472517 0.0352515 2.60013e-19)
(0.0624363 0.0335446 1.15982e-19)
(0.0782394 0.0320864 -2.93513e-19)
(0.0944935 0.0309107 -1.22506e-19)
(0.111017 0.030051 3.69642e-19)
(0.127599 0.029547 -2.82422e-19)
(0.143981 0.029465 1.6981e-19)
(0.159988 0.030085 9.49458e-20)
(0.175846 0.0323771 -1.2211e-19)
(0.190071 0.0370174 -1.17917e-19)
(-0.00863411 0.00984755 -1.31027e-19)
(-0.0214917 0.0242607 2.03527e-19)
(-0.030625 0.0344199 8.66661e-20)
(-0.0362948 0.0412933 -1.25149e-19)
(-0.0388056 0.0456392 -2.00326e-20)
(-0.038461 0.0480634 -1.31213e-19)
(-0.0355328 0.0490561 -5.22801e-20)
(-0.03026 0.0490106 5.8629e-20)
(-0.0228516 0.0482415 -1.4638e-20)
(-0.0134905 0.0470012 1.10635e-19)
(-0.00233919 0.0454931 -9.60692e-20)
(0.0104536 0.0438829 2.65754e-19)
(0.0247466 0.0423064 -3.29362e-19)
(0.0403994 0.0408772 2.05365e-19)
(0.0572659 0.039691 2.55116e-19)
(0.0751879 0.0388293 -3.68697e-19)
(0.0939885 0.0383608 -1.12209e-19)
(0.113466 0.0383416 1.89047e-19)
(0.133391 0.0388139 -1.16711e-19)
(0.153499 0.0398036 1.12699e-19)
(0.173485 0.041308 -2.73173e-19)
(0.192971 0.0432738 4.5477e-20)
(0.211675 0.0457479 1.78137e-19)
(0.22997 0.0495044 -2.86668e-19)
(0.246742 0.0551019 7.74885e-20)
(-0.00908802 0.009762 -1.21267e-19)
(-0.0222866 0.023885 3.79932e-19)
(-0.0312009 0.0337473 7.29195e-20)
(-0.0361745 0.0403478 -1.96999e-19)
(-0.0375683 0.0444736 1.41062e-19)
(-0.0357275 0.0467528 7.1571e-20)
(-0.0309566 0.0476911 1.14333e-19)
(-0.0235198 0.0476931 -7.49397e-21)
(-0.0136449 0.0470826 -1.18676e-20)
(-0.00153025 0.0461202 -2.48708e-20)
(0.0126485 0.045018 -1.08752e-19)
(0.0287303 0.0439513 -3.68796e-21)
(0.0465604 0.0430679 2.54073e-19)
(0.0659834 0.0424959 -4.16638e-19)
(0.0868345 0.04235 2.96411e-19)
(0.108932 0.042736 5.99751e-20)
(0.132069 0.0437547 1.06051e-19)
(0.156 0.0455036 -5.46854e-20)
(0.180431 0.0480764 4.85131e-19)
(0.205007 0.0515601 -3.00595e-19)
(0.229278 0.0560082 2.40468e-19)
(0.252649 0.0613715 5.6684e-20)
(0.27454 0.067586 -1.76335e-19)
(0.295265 0.075294 1.49446e-19)
(0.314458 0.0844992 2.31979e-19)
(-0.00949362 0.00960566 -3.53085e-20)
(-0.0228879 0.023309 -1.34004e-19)
(-0.0313917 0.0327715 -2.28963e-19)
(-0.0354365 0.0390216 -1.30477e-19)
(-0.0354422 0.0428743 -1.82473e-20)
(-0.0317969 0.0449792 -5.15008e-20)
(-0.0248384 0.0458559 -2.38452e-19)
(-0.0148561 0.0459187 3.94726e-20)
(-0.00209723 0.0454989 -2.67759e-19)
(0.0132242 0.044864 -2.07627e-20)
(0.0309186 0.044233 -2.56656e-19)
(0.0508115 0.0437889 -9.14014e-20)
(0.0727349 0.0436891 5.24425e-20)
(0.096519 0.0440742 -2.49607e-19)
(0.121985 0.0450759 2.261e-21)
(0.148936 0.0468244 -2.1499e-19)
(0.177152 0.0494568 8.30074e-20)
(0.206376 0.0531252 -3.00276e-19)
(0.2363 0.0580094 -5.15002e-20)
(0.266542 0.0643289 -7.21788e-21)
(0.296592 0.072339 -5.08717e-20)
(0.3257 0.0822957 -5.2225e-20)
(0.352899 0.0946168 -2.62253e-20)
(0.377624 0.110509 -1.04975e-19)
(0.39861 0.128509 -2.25434e-19)
(-0.00984045 0.0093791 6.43191e-20)
(-0.0232568 0.0225342 1.69932e-19)
(-0.0311259 0.0314974 2.04195e-19)
(-0.0339734 0.0373256 -1.63167e-19)
(-0.0322818 0.0408606 3.02544e-19)
(-0.026484 0.0427719 -1.64239e-19)
(-0.0169527 0.0435913 8.91374e-20)
(-0.0040039 0.0437406 1.38892e-19)
(0.0120936 0.0435567 1.26354e-19)
(0.0311072 0.0433106 6.14156e-20)
(0.0528297 0.0432248 9.92435e-20)
(0.0770688 0.0434852 5.76878e-20)
(0.103638 0.0442523 3.8983e-19)
(0.13235 0.0456705 -2.83272e-19)
(0.16301 0.0478763 3.23413e-19)
(0.195411 0.0510077 -1.34417e-19)
(0.229337 0.0552143 2.90173e-19)
(0.264557 0.0606722 -1.37599e-20)
(0.300833 0.0676051 -6.01043e-20)
(0.337929 0.0763154 -1.11494e-20)
(0.375617 0.0872247 2.2886e-19)
(0.413734 0.100979 -2.2493e-19)
(0.452506 0.118871 1.57408e-19)
(0.492653 0.142656 1.75962e-19)
(0.530993 0.166059 3.68172e-20)
(-0.0101163 0.00908291 4.452e-20)
(-0.0233492 0.0215638 -2.43294e-19)
(-0.0303226 0.0299352 -8.82802e-20)
(-0.0316646 0.0352806 8.05266e-20)
(-0.0279252 0.0384664 -2.48161e-19)
(-0.0195849 0.0401808 -4.89694e-20)
(-0.00705423 0.0409655 3.39166e-20)
(0.0093206 0.0412473 1.33894e-19)
(0.0292445 0.0413648 -3.38967e-19)
(0.0524599 0.0415896 2.57557e-20)
(0.0787334 0.0421418 -9.9041e-20)
(0.107844 0.0432036 -3.0086e-19)
(0.139576 0.0449291 2.04953e-19)
(0.173708 0.047453 8.76034e-21)
(0.210016 0.0508978 -6.13257e-21)
(0.248266 0.0553815 2.0653e-19)
(0.288225 0.0610242 -3.65274e-19)
(0.329665 0.0679578 2.89314e-19)
(0.372381 0.0763355 -5.3445e-20)
(0.416216 0.0863433 1.69344e-19)
(0.461091 0.0982047 -2.78711e-19)
(0.507073 0.112211 1.60487e-19)
(0.554652 0.128925 -2.88905e-19)
(0.604754 0.148821 3.00167e-19)
(0.652589 0.165538 -9.30906e-20)
(-0.0103066 0.0087175 2.99947e-19)
(-0.0231143 0.0204028 -4.89524e-20)
(-0.0288904 0.0281008 3.59916e-19)
(-0.0283759 0.0329173 1.66476e-19)
(-0.0221941 0.0357414 1.32993e-20)
(-0.0108781 0.0372777 7.2608e-20)
(0.00511923 0.0380749 1.74999e-20)
(0.025415 0.0385616 2.95491e-19)
(0.0496793 0.0390748 9.51099e-20)
(0.0776183 0.0398811 -1.27495e-20)
(0.108958 0.0411925 2.55529e-20)
(0.143433 0.0431792 9.83022e-20)
(0.180774 0.0459787 8.20018e-20)
(0.220707 0.0497025 1.75377e-19)
(0.262948 0.0544428 -1.99803e-19)
(0.307204 0.0602762 6.03467e-20)
(0.353188 0.067268 1.82835e-20)
(0.40062 0.0754747 8.93692e-20)
(0.44925 0.0849451 2.42557e-19)
(0.498881 0.0957174 -1.58043e-19)
(0.549384 0.107806 1.37259e-20)
(0.600729 0.12119 -2.25319e-19)
(0.653112 0.135928 2.1407e-19)
(0.706976 0.152211 -2.08829e-19)
(0.75747 0.165941 1.92384e-20)
(-0.0103936 0.00828311 -2.50277e-19)
(-0.0224937 0.019058 1.91225e-19)
(-0.0267267 0.0260152 -3.11112e-19)
(-0.0239593 0.0302765 2.68397e-20)
(-0.0148956 0.0327503 2.1865e-19)
(-0.00012792 0.0341546 -3.6406e-19)
(0.0198408 0.035042 2.88583e-19)
(0.0445808 0.0358387 -4.5761e-19)
(0.0737144 0.0368754 9.11652e-20)
(0.106894 0.0384078 1.94616e-20)
(0.143786 0.0406327 1.53496e-19)
(0.184053 0.0436993 -5.09938e-19)
(0.22735 0.0477175 8.80395e-20)
(0.273316 0.0527642 9.32172e-20)
(0.321575 0.0588874 -5.58919e-20)
(0.371744 0.0661095 -3.46679e-19)
(0.423437 0.0744291 1.63202e-19)
(0.476283 0.0838212 3.0574e-19)
(0.529935 0.0942353 -3.23001e-19)
(0.584091 0.105589 2.34585e-19)
(0.638503 0.117757 -3.05128e-19)
(0.692977 0.13055 2.22055e-19)
(0.747418 0.143803 -6.23709e-20)
(0.801894 0.157701 3.56948e-19)
(0.852269 0.170076 -4.10514e-19)
(-0.0103562 0.00777975 3.58777e-20)
(-0.0214207 0.017538 2.82609e-20)
(-0.0237177 0.0237047 6.9235e-20)
(-0.0182543 0.0274087 2.46685e-19)
(-0.00582501 0.029572 -7.69091e-21)
(0.0129096 0.0309227 5.50842e-20)
(0.0373848 0.0320125 2.44874e-19)
(0.0671094 0.0332604 9.87423e-20)
(0.101638 0.0349845 -3.24943e-20)
(0.140548 0.0374225 2.76636e-19)
(0.183417 0.0407469 -3.14829e-19)
(0.229808 0.0450757 4.829e-19)
(0.279265 0.0504803 -1.91548e-19)
(0.33131 0.0569909 3.47572e-19)
(0.385444 0.0646008 -1.17346e-19)
(0.44116 0.0732693 4.2802e-20)
(0.497952 0.0829243 5.1872e-20)
(0.55533 0.0934632 -1.00461e-19)
(0.612835 0.104752 8.40492e-20)
(0.67005 0.116622 5.41219e-20)
(0.726612 0.128864 7.49593e-20)
(0.782202 0.141219 1.59919e-19)
(0.836551 0.153433 -1.30745e-20)
(0.889543 0.165676 -7.33382e-20)
(0.938096 0.177267 2.24882e-19)
(-0.0101694 0.00720749 -2.09747e-19)
(-0.0198204 0.0158537 2.21546e-20)
(-0.0197396 0.0212017 -3.98166e-19)
(-0.0110908 0.024374 -9.50597e-20)
(0.00522895 0.0262993 -1.77759e-19)
(0.0284782 0.0277101 -3.81326e-20)
(0.0580141 0.0291517 -1.90138e-19)
(0.0932633 0.031029 -1.13511e-19)
(0.133688 0.0336394 1.50258e-19)
(0.17876 0.037193 -2.50689e-19)
(0.227934 0.0418273 -6.96037e-20)
(0.280642 0.047617 2.72251e-21)
(0.336282 0.0545825 -4.70122e-19)
(0.394228 0.0626956 1.99847e-19)
(0.453834 0.0718853 -2.91808e-19)
(0.514449 0.0820423 -9.12762e-21)
(0.575438 0.0930237 5.77389e-20)
(0.636194 0.104657 -9.35387e-20)
(0.696157 0.116742 -8.21037e-20)
(0.754827 0.129054 4.13299e-20)
(0.81177 0.141344 4.64637e-20)
(0.866612 0.153338 -3.00792e-19)
(0.919031 0.164764 1.7174e-19)
(0.968854 0.175758 8.78116e-20)
(1.01406 0.186695 2.52928e-20)
(-0.00980442 0.00656697 2.1474e-19)
(-0.0176102 0.0140192 -2.2905e-19)
(-0.0146603 0.018545 3.20943e-19)
(-0.00229306 0.0212426 4.97819e-20)
(0.0184772 0.0230376 -1.52838e-20)
(0.0468107 0.0246599 -1.07686e-19)
(0.0819648 0.0266402 1.61908e-20)
(0.123256 0.0293603 1.63431e-19)
(0.170024 0.0330861 -2.2534e-19)
(0.221595 0.0379878 2.36501e-19)
(0.277269 0.0441541 -2.49491e-20)
(0.336306 0.0516025 1.10016e-20)
(0.397932 0.0602887 3.0734e-19)
(0.461345 0.0701148 4.11921e-19)
(0.525741 0.080937 -1.61137e-19)
(0.590325 0.0925743 2.86689e-19)
(0.654344 0.104816 1.46072e-19)
(0.7171 0.11743 -8.91339e-20)
(0.777974 0.13017 2.83844e-19)
(0.836436 0.142779 -1.0278e-20)
(0.892048 0.155001 -2.74239e-19)
(0.944463 0.166575 2.90682e-19)
(0.993407 0.177255 4.27599e-20)
(1.03875 0.187148 -1.81971e-19)
(1.07939 0.197312 5.70663e-20)
(-0.00922867 0.00586005 -2.99044e-19)
(-0.0147009 0.0120533 3.12311e-19)
(-0.00834212 0.0157814 -1.98127e-19)
(0.00831571 0.0180953 -6.18835e-20)
(0.0341225 0.0199052 -1.38152e-19)
(0.0681176 0.0219284 2.44128e-19)
(0.10943 0.0246703 -1.41637e-19)
(0.157233 0.028477 -6.48351e-20)
(0.210701 0.0335691 -1.85529e-19)
(0.268979 0.0400614 4.80836e-21)
(0.331171 0.0479773 -7.25044e-20)
(0.396335 0.0572611 3.52934e-20)
(0.463497 0.0677898 -3.71428e-19)
(0.531675 0.0793852 1.05809e-19)
(0.599906 0.0918255 -1.27859e-19)
(0.667275 0.104859 -1.03262e-19)
(0.732945 0.118214 3.18732e-20)
(0.796179 0.131613 -1.51238e-19)
(0.856358 0.144783 -6.55532e-20)
(0.912991 0.157462 1.87868e-19)
(0.965715 0.169406 8.03961e-20)
(1.01429 0.180396 -3.41268e-19)
(1.05856 0.190236 2.52176e-19)
(1.09853 0.199025 -4.78876e-20)
(1.13378 0.208188 -9.98068e-20)
(-0.0084066 0.00509057 -1.09195e-19)
(-0.0109986 0.00998063 -5.83774e-20)
(-0.000645423 0.0129667 -1.17065e-20)
(0.020907 0.0150248 8.5127e-20)
(0.0523504 0.0170328 9.25865e-20)
(0.0925744 0.0196832 8.05939e-20)
(0.140544 0.0234414 1.00102e-19)
(0.195247 0.0286017 1.52716e-19)
(0.255651 0.0353218 2.33206e-19)
(0.320678 0.0436417 2.30577e-19)
(0.389198 0.0535011 1.21659e-19)
(0.460042 0.0647543 -3.26436e-20)
(0.53203 0.0771869 8.19481e-21)
(0.604007 0.0905328 -1.12219e-20)