/*--------------------------------*- C++ -*----------------------------------*\
  =========                 |
  \\      /  F ield         | OpenFOAM: The Open Source CFD Toolbox
   \\    /   O peration     | Website:  https://openfoam.org
    \\  /    A nd           | Version:  6.0
     \\/     M anipulation  |
\*---------------------------------------------------------------------------*/
FoamFile
{
    version     2.0;
    format      ascii;
    class       volScalarField;
    location    "71";
    object      p;
}
// * * * * * * * * * * * * * * * * * * * * * * * * * * * * * * * * * * * * * //

dimensions      [0 2 -2 0 0 0 0];

internalField   nonuniform List<scalar> 
4000
(
-0.392565
-0.393296
-0.393696
-0.393938
-0.394189
-0.394516
-0.394956
-0.39552
-0.396204
-0.396998
-0.397891
-0.398874
-0.39994
-0.401085
-0.40231
-0.403611
-0.40499
-0.406466
-0.408059
-0.409632
-0.398224
-0.398702
-0.398975
-0.399166
-0.399413
-0.399787
-0.400325
-0.401039
-0.401925
-0.402971
-0.404163
-0.40549
-0.406942
-0.408513
-0.410197
-0.411988
-0.413884
-0.415905
-0.418076
-0.420211
-0.40375
-0.403973
-0.404115
-0.404247
-0.404482
-0.404892
-0.405514
-0.406362
-0.40743
-0.408705
-0.410171
-0.411812
-0.413616
-0.415572
-0.41767
-0.419903
-0.422262
-0.42477
-0.427453
-0.430095
-0.40908
-0.409049
-0.409055
-0.40912
-0.409332
-0.409762
-0.410452
-0.411413
-0.412638
-0.414113
-0.415819
-0.417738
-0.419852
-0.422146
-0.424608
-0.427225
-0.429986
-0.432911
-0.436031
-0.439118
-0.414162
-0.413879
-0.413743
-0.413731
-0.413904
-0.414338
-0.415072
-0.416118
-0.417471
-0.419112
-0.42102
-0.423173
-0.425549
-0.428129
-0.430895
-0.433831
-0.436924
-0.44019
-0.443662
-0.447127
-0.418949
-0.418419
-0.418137
-0.418035
-0.418153
-0.418567
-0.419317
-0.420417
-0.42186
-0.423627
-0.425693
-0.428031
-0.430615
-0.433421
-0.436428
-0.439613
-0.442962
-0.446484
-0.450216
-0.453986
-0.423404
-0.422638
-0.422206
-0.422002
-0.422044
-0.422409
-0.423143
-0.424259
-0.42575
-0.427597
-0.429769
-0.432238
-0.434972
-0.437941
-0.441118
-0.444478
-0.448001
-0.45169
-0.455584
-0.459583
-0.427502
-0.426516
-0.425932
-0.425611
-0.425553
-0.425839
-0.426519
-0.427608
-0.4291
-0.430974
-0.433199
-0.43574
-0.43856
-0.441624
-0.444898
-0.448354
-0.451966
-0.45573
-0.459682
-0.463827
-0.43123
-0.430045
-0.42931
-0.428857
-0.428674
-0.428846
-0.42943
-0.430444
-0.431885
-0.433731
-0.435949
-0.438499
-0.44134
-0.444429
-0.447726
-0.451197
-0.454811
-0.458553
-0.462452
-0.466654
-0.434586
-0.433233
-0.43235
-0.43175
-0.431416
-0.431439
-0.431882
-0.432771
-0.434106
-0.435865
-0.438014
-0.44051
-0.443304
-0.446347
-0.449591
-0.452993
-0.45652
-0.460139
-0.463868
-0.468025
-0.437586
-0.436101
-0.435075
-0.434316
-0.433804
-0.433641
-0.433899
-0.434612
-0.435785
-0.437399
-0.439418
-0.441795
-0.444476
-0.447403
-0.450517
-0.45377
-0.457117
-0.460507
-0.463936
-0.467923
-0.440261
-0.438684
-0.437525
-0.436595
-0.435881
-0.435497
-0.435528
-0.436016
-0.436973
-0.438385
-0.440216
-0.442414
-0.444918
-0.447662
-0.450575
-0.453594
-0.456667
-0.459716
-0.462696
-0.466356
-0.442661
-0.441033
-0.439751
-0.43864
-0.437703
-0.437068
-0.436832
-0.437052
-0.437748
-0.438908
-0.440498
-0.442462
-0.444734
-0.447233
-0.449876
-0.452582
-0.455283
-0.457869
-0.460228
-0.463347
-0.444852
-0.443214
-0.441819
-0.44052
-0.439342
-0.43843
-0.437898
-0.437815
-0.43821
-0.439078
-0.440385
-0.442072
-0.444063
-0.446264
-0.448574
-0.450889
-0.453117
-0.455108
-0.456649
-0.458949
-0.446922
-0.445308
-0.443807
-0.442313
-0.440881
-0.439675
-0.438825
-0.438415
-0.438483
-0.439031
-0.440025
-0.441401
-0.443073
-0.444931
-0.44685
-0.448698
-0.450348
-0.451606
-0.452118
-0.45325
-0.448975
-0.447407
-0.445804
-0.44411
-0.442416
-0.440906
-0.439728
-0.438977
-0.438706
-0.438918
-0.43958
-0.440622
-0.441945
-0.443419
-0.444893
-0.446198
-0.447166
-0.447553
-0.446847
-0.446425
-0.451129
-0.449615
-0.447906
-0.446007
-0.444048
-0.442233
-0.440726
-0.439636
-0.439024
-0.438896
-0.439217
-0.439909
-0.440856
-0.441907
-0.44288
-0.443565
-0.44375
-0.443148
-0.441105
-0.438784
-0.453516
-0.452042
-0.450218
-0.448108
-0.445885
-0.443771
-0.441944
-0.440525
-0.439579
-0.439116
-0.439092
-0.439418
-0.439961
-0.440545
-0.440953
-0.440934
-0.440226
-0.438518
-0.435055
-0.430579
-0.45627
-0.454802
-0.452842
-0.450515
-0.448032
-0.44563
-0.443499
-0.441767
-0.440501
-0.439707
-0.439334
-0.439279
-0.439388
-0.439462
-0.439253
-0.438469
-0.436792
-0.433839
-0.428725
-0.421831
-0.459525
-0.458005
-0.45588
-0.453328
-0.450587
-0.447911
-0.445494
-0.443466
-0.441892
-0.44077
-0.440037
-0.439576
-0.43922
-0.438755
-0.437928
-0.436448
-0.433985
-0.430065
-0.423593
-0.415115
-0.463398
-0.46175
-0.459423
-0.456631
-0.453635
-0.450695
-0.448008
-0.445697
-0.443818
-0.442357
-0.441239
-0.440332
-0.439461
-0.438418
-0.436973
-0.434901
-0.431998
-0.428077
-0.423112
-0.420132
-0.467991
-0.466123
-0.463546
-0.460497
-0.457242
-0.454044
-0.451091
-0.448499
-0.446305
-0.444479
-0.442929
-0.441512
-0.440048
-0.438339
-0.436186
-0.433415
-0.429901
-0.425594
-0.420622
-0.416554
-0.47338
-0.471188
-0.46831
-0.464978
-0.461453
-0.457991
-0.454769
-0.45188
-0.449343
-0.447104
-0.445054
-0.44304
-0.440883
-0.438401
-0.435429
-0.431836
-0.427549
-0.42256
-0.416964
-0.411381
-0.479616
-0.476995
-0.473756
-0.47011
-0.466294
-0.462553
-0.459041
-0.455825
-0.452894
-0.450172
-0.447531
-0.444814
-0.44185
-0.438481
-0.434578
-0.430054
-0.424874
-0.419051
-0.412672
-0.405942
-0.486728
-0.483574
-0.479914
-0.475918
-0.471782
-0.467732
-0.463894
-0.460298
-0.456901
-0.453602
-0.450259
-0.446717
-0.442826
-0.438461
-0.433537
-0.428013
-0.421895
-0.415222
-0.408088
-0.400527
-0.494727
-0.490942
-0.486803
-0.482417
-0.477925
-0.473526
-0.469307
-0.465257
-0.461296
-0.457301
-0.453126
-0.448629
-0.443694
-0.438239
-0.432232
-0.425681
-0.418631
-0.411154
-0.403353
-0.395234
-0.503611
-0.499107
-0.494436
-0.489619
-0.484729
-0.479927
-0.475252
-0.470647
-0.465998
-0.461166
-0.456014
-0.450431
-0.444344
-0.437729
-0.430605
-0.42303
-0.415085
-0.406864
-0.398473
-0.389929
-0.513368
-0.508071
-0.502819
-0.497534
-0.492195
-0.486919
-0.48169
-0.476401
-0.470912
-0.465083
-0.458802
-0.452006
-0.444679
-0.436856
-0.428611
-0.420038
-0.411244
-0.402337
-0.393417
-0.384513
-0.523974
-0.517822
-0.511953
-0.50616
-0.500315
-0.494474
-0.488563
-0.482432
-0.475927
-0.468927
-0.461368
-0.453246
-0.444614
-0.435564
-0.426212
-0.416681
-0.40709
-0.397545
-0.388132
-0.378881
-0.53539
-0.528337
-0.521823
-0.515483
-0.509059
-0.502537
-0.495786
-0.488626
-0.480911
-0.472564
-0.463588
-0.454053
-0.444078
-0.433804
-0.42338
-0.412941
-0.402602
-0.392458
-0.382577
-0.372974
-0.547561
-0.539575
-0.532394
-0.525463
-0.518368
-0.51102
-0.503241
-0.494841
-0.485713
-0.475852
-0.465345
-0.454338
-0.443009
-0.43154
-0.420091
-0.408797
-0.397758
-0.38705
-0.376716
-0.366752
-0.560401
-0.551466
-0.543602
-0.536025
-0.528143
-0.519793
-0.510769
-0.500907
-0.49017
-0.478649
-0.466525
-0.454019
-0.441356
-0.428736
-0.416319
-0.404225
-0.392534
-0.381295
-0.370522
-0.360197
-0.573792
-0.563909
-0.555348
-0.547054
-0.538241
-0.528684
-0.51818
-0.506631
-0.494107
-0.480813
-0.467024
-0.453025
-0.439068
-0.425356
-0.412035
-0.3992
-0.386901
-0.375163
-0.363971
-0.353291
-0.587579
-0.576764
-0.567489
-0.558388
-0.548472
-0.537477
-0.525251
-0.511805
-0.497348
-0.482207
-0.466743
-0.451284
-0.436095
-0.421362
-0.407204
-0.393684
-0.380826
-0.368624
-0.357033
-0.34602
-0.601565
-0.589849
-0.579839
-0.569817
-0.558598
-0.545922
-0.531738
-0.516215
-0.499719
-0.4827
-0.465586
-0.44873
-0.432383
-0.416706
-0.401781
-0.387637
-0.374267
-0.361639
-0.349677
-0.33836
-0.615509
-0.60294
-0.592165
-0.581084
-0.568342
-0.553737
-0.537383
-0.519643
-0.501052
-0.482167
-0.463463
-0.445291
-0.427875
-0.411335
-0.395716
-0.381008
-0.367176
-0.354165
-0.341864
-0.330282
-0.62913
-0.615769
-0.604186
-0.591887
-0.577392
-0.560626
-0.541926
-0.521881
-0.501188
-0.48049
-0.460283
-0.440893
-0.422504
-0.405189
-0.388949
-0.373741
-0.359501
-0.346152
-0.333552
-0.32175
-0.642109
-0.628028
-0.615584
-0.601893
-0.585416
-0.566285
-0.545114
-0.52273
-0.499977
-0.477557
-0.455957
-0.435462
-0.416202
-0.398202
-0.381418
-0.365775
-0.351186
-0.337547
-0.324692
-0.312723
-0.654098
-0.639375
-0.626005
-0.61074
-0.59207
-0.570413
-0.546704
-0.522004
-0.497281
-0.47326
-0.450395
-0.428917
-0.408896
-0.390303
-0.373056
-0.357048
-0.34217
-0.328298
-0.315237
-0.303157
-0.664719
-0.649439
-0.635071
-0.61805
-0.597005
-0.572717
-0.546465
-0.51953
-0.492966
-0.467493
-0.44351
-0.42118
-0.400511
-0.381424
-0.363797
-0.347498
-0.332399
-0.318351
-0.305138
-0.293008
-0.532163
-0.518074
-0.50519
-0.490484
-0.472679
-0.452289
-0.430234
-0.407485
-0.384895
-0.363081
-0.342418
-0.323084
-0.30512
-0.288488
-0.273102
-0.258861
-0.245664
-0.233388
-0.221848
-0.211268
-0.522991
-0.509475
-0.497438
-0.484158
-0.4683
-0.450113
-0.430235
-0.409441
-0.388485
-0.367974
-0.348315
-0.32974
-0.312343
-0.296132
-0.281059
-0.267048
-0.254018
-0.241868
-0.230433
-0.219872
-0.512737
-0.499878
-0.488642
-0.476637
-0.462558
-0.446449
-0.428704
-0.409895
-0.390658
-0.371556
-0.353013
-0.335299
-0.31856
-0.302848
-0.288153
-0.274429
-0.261617
-0.249638
-0.23835
-0.227858
-0.501738
-0.489612
-0.479136
-0.468263
-0.455772
-0.441579
-0.42587
-0.409026
-0.391548
-0.373934
-0.356598
-0.339838
-0.32384
-0.308698
-0.294441
-0.281057
-0.268508
-0.256738
-0.245632
-0.235251
-0.490304
-0.478978
-0.469231
-0.459356
-0.448263
-0.435794
-0.421982
-0.407034
-0.391311
-0.375229
-0.35917
-0.34344
-0.328254
-0.313746
-0.299983
-0.286983
-0.274735
-0.263207
-0.252311
-0.242077
-0.478713
-0.468237
-0.4592
-0.450209
-0.440332
-0.429386
-0.417297
-0.404133
-0.390119
-0.375574
-0.360832
-0.346188
-0.331876
-0.318057
-0.304833
-0.292256
-0.280341
-0.26908
-0.258415
-0.248356
-0.467204
-0.457614
-0.449272
-0.441072
-0.432247
-0.422625
-0.412069
-0.400539
-0.388146
-0.375106
-0.36169
-0.348167
-0.334772
-0.321686
-0.309041
-0.296919
-0.285362
-0.274388
-0.263965
-0.254098
-0.455975
-0.447289
-0.439633
-0.432151
-0.424238
-0.415753
-0.406534
-0.39647
-0.385574
-0.373969
-0.361856
-0.349461
-0.337008
-0.324688
-0.312652
-0.301008
-0.289827
-0.279151
-0.268975
-0.259307
-0.445185
-0.437403
-0.430425
-0.423608
-0.416493
-0.408982
-0.400911
-0.392132
-0.382585
-0.372314
-0.361445
-0.350158
-0.33865
-0.32711
-0.315701
-0.304553
-0.293759
-0.283384
-0.273451
-0.263975
-0.434951
-0.428058
-0.421749
-0.415559
-0.409155
-0.402481
-0.39539
-0.387717
-0.379358
-0.37029
-0.360578
-0.350347
-0.339762
-0.328998
-0.318221
-0.307574
-0.29717
-0.287095
-0.277394
-0.268091
-0.425354
-0.419318
-0.413669
-0.40808
-0.402323
-0.396378
-0.390121
-0.38339
-0.376054
-0.368047
-0.359377
-0.350123
-0.340411
-0.330396
-0.320238
-0.310086
-0.300068
-0.290285
-0.280802
-0.271648
-0.416436
-0.411218
-0.406214
-0.401209
-0.396055
-0.390757
-0.385217
-0.379283
-0.372815
-0.365718
-0.357962
-0.349581
-0.340665
-0.331347
-0.321774
-0.312096
-0.30245
-0.292949
-0.283672
-0.274643
-0.408208
-0.403759
-0.399385
-0.394951
-0.390369
-0.38566
-0.380746
-0.37549
-0.369751
-0.363421
-0.356441
-0.348812
-0.340593
-0.331893
-0.322848
-0.313606
-0.304306
-0.295074
-0.286
-0.277098
-0.40065
-0.396921
-0.393156
-0.389282
-0.385252
-0.381092
-0.376737
-0.372064
-0.366939
-0.361244
-0.354905
-0.347899
-0.340261
-0.332077
-0.323476
-0.314604
-0.305611
-0.296631
-0.287771
-0.279043
-0.39372
-0.39066
-0.387484
-0.384158
-0.380663
-0.377022
-0.373178
-0.369017
-0.364411
-0.359242
-0.353422
-0.346912
-0.339726
-0.331937
-0.323667
-0.31507
-0.306315
-0.297557
-0.288931
-0.280517
-0.387354
-0.384922
-0.38231
-0.379516
-0.376538
-0.373393
-0.370023
-0.366321
-0.362164
-0.357432
-0.352028
-0.345897
-0.339037
-0.331507
-0.323427
-0.314966
-0.306329
-0.297723
-0.289336
-0.281462
-0.381484
-0.379643
-0.377568
-0.375284
-0.372803
-0.370129
-0.367202
-0.363918
-0.360156
-0.355794
-0.350725
-0.344877
-0.338227
-0.330818
-0.322761
-0.314246
-0.305527
-0.296906
-0.288699
-0.281722
-0.376038
-0.37476
-0.373193
-0.37139
-0.369376
-0.367143
-0.364627
-0.361726
-0.358319
-0.354278
-0.349486
-0.34385
-0.337319
-0.329903
-0.321694
-0.312879
-0.303763
-0.294765
-0.286466
-0.280663
-0.370957
-0.37022
-0.369128
-0.367769
-0.366183
-0.364352
-0.36221
-0.359655
-0.356567
-0.352812
-0.348261
-0.342794
-0.336324
-0.328812
-0.320293
-0.310908
-0.300948
-0.290887
-0.281724
-0.277131
-0.3662
-0.365988
-0.365335
-0.364374
-0.363167
-0.36169
-0.359876
-0.357625
-0.354819
-0.35132
-0.346986
-0.341674
-0.335252
-0.327617
-0.318712
-0.308565
-0.297325
-0.285263
-0.273449
-0.267881
-0.361753
-0.362049
-0.361795
-0.361179
-0.360295
-0.359115
-0.357574
-0.355578
-0.353011
-0.349737
-0.345603
-0.340448
-0.334099
-0.326381
-0.317114
-0.306122
-0.293211
-0.277863
-0.258722
-0.237875
-0.357632
-0.358414
-0.358515
-0.35819
-0.357568
-0.356623
-0.355294
-0.353496
-0.35112
-0.348032
-0.344083
-0.339102
-0.332903
-0.325279
-0.316005
-0.304857
-0.291622
-0.275868
-0.256611
-0.236858
-0.353879
-0.355119
-0.355529
-0.355439
-0.355018
-0.354245
-0.353067
-0.351408
-0.349168
-0.346224
-0.342433
-0.337633
-0.331645
-0.324271
-0.315306
-0.304568
-0.291924
-0.277078
-0.25951
-0.242763
-0.350563
-0.352222
-0.352894
-0.352986
-0.352709
-0.352051
-0.350968
-0.349393
-0.347236
-0.344388
-0.340718
-0.336079
-0.330309
-0.323236
-0.314689
-0.304537
-0.292705
-0.278969
-0.263171
-0.249039
-0.347767
-0.349796
-0.350683
-0.350909
-0.350729
-0.350141
-0.349107
-0.347573
-0.345459
-0.342667
-0.339084
-0.334581
-0.329021
-0.322262
-0.314178
-0.304696
-0.293801
-0.28137
-0.267541
-0.255757
-0.345582
-0.347919
-0.348975
-0.349297
-0.34918
-0.348629
-0.347618
-0.3461
-0.344007
-0.341255
-0.337746
-0.333375
-0.328031
-0.321613
-0.314043
-0.305308
-0.295451
-0.28446
-0.27266
-0.262911
-0.344091
-0.346668
-0.34785
-0.348238
-0.348161
-0.347632
-0.346634
-0.345129
-0.34306
-0.340357
-0.336938
-0.332722
-0.32763
-0.321598
-0.314597
-0.306661
-0.297882
-0.288326
-0.278396
-0.270303
-0.343363
-0.346107
-0.347374
-0.347806
-0.347758
-0.34725
-0.346273
-0.344797
-0.342777
-0.340154
-0.336865
-0.332853
-0.328066
-0.322476
-0.31609
-0.308979
-0.301256
-0.293031
-0.284693
-0.277879
-0.343443
-0.346279
-0.347595
-0.348057
-0.348035
-0.347557
-0.346619
-0.345202
-0.343268
-0.340771
-0.337668
-0.333917
-0.329494
-0.324397
-0.318658
-0.312364
-0.305634
-0.298581
-0.291537
-0.285693
-0.344348
-0.347205
-0.348539
-0.349019
-0.349024
-0.348589
-0.347716
-0.346391
-0.344586
-0.342267
-0.339403
-0.335971
-0.331963
-0.327395
-0.322313
-0.316804
-0.310979
-0.304934
-0.298925
-0.293831
-0.346067
-0.34888
-0.350202
-0.350693
-0.350729
-0.350351
-0.349566
-0.348366
-0.34673
-0.344634
-0.342057
-0.338987
-0.335431
-0.331411
-0.326977
-0.322209
-0.3172
-0.312023
-0.30686
-0.302381
-0.34856
-0.351273
-0.35256
-0.353054
-0.353123
-0.352814
-0.352136
-0.351088
-0.349654
-0.347815
-0.34556
-0.342884
-0.339799
-0.336332
-0.332528
-0.328455
-0.324188
-0.319777
-0.315342
-0.311413
-0.351766
-0.354334
-0.355564
-0.356054
-0.356158
-0.355924
-0.355368
-0.35449
-0.35328
-0.351723
-0.349813
-0.347549
-0.344944
-0.342025
-0.33883
-0.335415
-0.331838
-0.328128
-0.324361
-0.320969
-0.355607
-0.357994
-0.359151
-0.359629
-0.359766
-0.359612
-0.359185
-0.358489
-0.357517
-0.356256
-0.354702
-0.352858
-0.350735
-0.348357
-0.345754
-0.342971
-0.340051
-0.33701
-0.333894
-0.331056
-0.359995
-0.362176
-0.363245
-0.363705
-0.363871
-0.363796
-0.363502
-0.362994
-0.362265
-0.361308
-0.360117
-0.358694
-0.357051
-0.355205
-0.353182
-0.351015
-0.348736
-0.346354
-0.343896
-0.341643
-0.364835
-0.366791
-0.367763
-0.368199
-0.368389
-0.368392
-0.36823
-0.367911
-0.367428
-0.366776
-0.365948
-0.364946
-0.363778
-0.362458
-0.361006
-0.359446
-0.357802
-0.35608
-0.354296
-0.352662
-0.370031
-0.371752
-0.372619
-0.373025
-0.373235
-0.373312
-0.37328
-0.373147
-0.37291
-0.372561
-0.372093
-0.371508
-0.37081
-0.37001
-0.369121
-0.368162
-0.367149
-0.36609
-0.364996
-0.364008
-0.37549
-0.376968
-0.377724
-0.378095
-0.378322
-0.378468
-0.378563
-0.378614
-0.378618
-0.378568
-0.378456
-0.378281
-0.378046
-0.377756
-0.377422
-0.377055
-0.376669
-0.376272
-0.375874
-0.375546
-0.381121
-0.382353
-0.382994
-0.383326
-0.383565
-0.383777
-0.383993
-0.384222
-0.384462
-0.384704
-0.38494
-0.385167
-0.385382
-0.385591
-0.385798
-0.386012
-0.386239
-0.386493
-0.386786
-0.387115
-0.386839
-0.387822
-0.388344
-0.388633
-0.388881
-0.389153
-0.389485
-0.389886
-0.390354
-0.390879
-0.391451
-0.392065
-0.392716
-0.393406
-0.394136
-0.394908
-0.395727
-0.39661
-0.397571
-0.398539
-0.424697
-0.378097
-0.267387
-0.303252
-0.244665
-0.0928627
-0.0745728
-0.156297
-0.12857
-0.0693514
-0.0869314
-0.126965
-0.11467
-0.0725513
-0.0571016
-0.0577787
-0.0652603
-0.056039
-0.0281095
0.0080406
-0.4405
-0.383071
-0.261964
-0.293604
-0.244915
-0.0927682
-0.0748726
-0.154644
-0.1271
-0.0702155
-0.0885768
-0.12921
-0.11618
-0.0729002
-0.0565061
-0.0570149
-0.0646216
-0.0555815
-0.0279142
0.00790133
-0.455257
-0.387393
-0.256643
-0.282185
-0.244876
-0.0925464
-0.0754934
-0.152935
-0.125535
-0.0709311
-0.0900836
-0.131291
-0.117595
-0.073183
-0.0558848
-0.0562166
-0.063955
-0.0550909
-0.0276879
0.00775736
-0.468797
-0.391076
-0.25128
-0.269088
-0.244422
-0.0922072
-0.0764387
-0.151202
-0.12388
-0.0714784
-0.0914281
-0.133174
-0.118901
-0.0734019
-0.0552491
-0.0553952
-0.0632655
-0.0545704
-0.0274309
0.00761066
-0.480985
-0.394154
-0.245731
-0.25452
-0.243362
-0.0917596
-0.0777039
-0.149462
-0.122138
-0.0718405
-0.0925868
-0.134826
-0.120085
-0.0735598
-0.0546097
-0.0545625
-0.0625582
-0.0540234
-0.0271441
0.00746325
-0.491721
-0.39665
-0.239837
-0.238737
-0.241414
-0.0912131
-0.0792789
-0.147723
-0.120313
-0.0720038
-0.093538
-0.136216
-0.121134
-0.07366
-0.0539761
-0.0537298
-0.0618376
-0.0534528
-0.0268284
0.00731683
-0.500939
-0.398558
-0.233413
-0.221973
-0.238212
-0.0905793
-0.0811521
-0.145983
-0.118406
-0.0719586
-0.0942612
-0.137312
-0.122031
-0.0737056
-0.053359
-0.0529087
-0.0611078
-0.0528611
-0.0264848
0.00717295
-0.508615
-0.399844
-0.22626
-0.204385
-0.233316
-0.0898714
-0.0833069
-0.144234
-0.116419
-0.0716991
-0.0947387
-0.138088
-0.122763
-0.0736999
-0.0527679
-0.05211
-0.0603725
-0.0522509
-0.0261146
0.00703298
-0.514775
-0.400467
-0.218196
-0.186029
-0.226259
-0.0891034
-0.085719
-0.142465
-0.114356
-0.0712236
-0.0949553
-0.138521
-0.123315
-0.0736465
-0.0522115
-0.0513441
-0.0596348
-0.0516245
-0.0257191
0.00689815
-0.519489
-0.400408
-0.209112
-0.166894
-0.216616
-0.0882868
-0.0883527
-0.140665
-0.112219
-0.0705354
-0.0948995
-0.138594
-0.123673
-0.0735489
-0.0516978
-0.0506208
-0.0588974
-0.0509838
-0.0252997
0.0067696
-0.522871
-0.399694
-0.199023
-0.146961
-0.204088
-0.0874273
-0.0911581
-0.138821
-0.110014
-0.0696423
-0.094564
-0.138293
-0.123823
-0.0734102
-0.0512338
-0.0499491
-0.0581625
-0.0503311
-0.0248579
0.0066484
-0.525061
-0.39842
-0.188131
-0.126274
-0.188584
-0.0865203
-0.0940703
-0.136924
-0.107751
-0.068556
-0.093946
-0.137614
-0.123752
-0.0732335
-0.0508254
-0.0493371
-0.0574316
-0.0496685
-0.0243957
0.0065356
-0.526198
-0.396766
-0.176856
-0.104998
-0.17028
-0.0855483
-0.0970113
-0.134965
-0.105441
-0.0672867
-0.0930431
-0.136556
-0.123449
-0.0730215
-0.0504775
-0.0487919
-0.0567058
-0.0489974
-0.0239154
0.00643217
-0.52638
-0.394968
-0.165769
-0.0834348
-0.149627
-0.0844795
-0.0998946
-0.132935
-0.103081
-0.0658393
-0.0918521
-0.135126
-0.122905
-0.0727763
-0.0501938
-0.0483197
-0.0559856
-0.0483162
-0.0234172
0.00633899
-0.525617
-0.393142
-0.155317
-0.0619938
-0.127313
-0.08327
-0.102635
-0.130817
-0.100635
-0.0642251
-0.0903859
-0.133335
-0.122112
-0.0724996
-0.0499766
-0.0479261
-0.0552714
-0.0476222
-0.022897
0.00625687
-0.523852
-0.39113
-0.145575
-0.0411347
-0.104177
-0.0818682
-0.105156
-0.128587
-0.0980953
-0.0625093
-0.0887111
-0.131201
-0.121063
-0.0721926
-0.0498272
-0.0476164
-0.0545631
-0.0469248
-0.0223544
0.00618738
-0.521101
-0.389135
-0.137002
-0.0214149
-0.0810959
-0.0802212
-0.107376
-0.126269
-0.0956489
-0.0608358
-0.0869142
-0.12876
-0.119757
-0.0718559
-0.049745
-0.0473903
-0.0538597
-0.0462653
-0.0218136
0.00613447
-0.517329
-0.389215
-0.13234
-0.00364075
-0.0588416
-0.0782733
-0.109139
-0.123986
-0.093685
-0.0592341
-0.0848483
-0.126062
-0.118197
-0.0714892
-0.0497278
-0.0472298
-0.0531567
-0.0456783
-0.0213269
0.00610103
-0.511243
-0.393269
-0.134994
0.011553
-0.0379537
-0.0759736
-0.110364
-0.121749
-0.0919475
-0.0571345
-0.0819063
-0.123059
-0.116401
-0.0710957
-0.0497706
-0.0471394
-0.0524498
-0.044997
-0.0208691
0.00606848
-0.500136
-0.392379
-0.13711
0.0255632
-0.0195594
-0.0740329
-0.111874
-0.118857
-0.0881494
-0.0534711
-0.0779864
-0.119491
-0.114289
-0.0706687
-0.0499138
-0.0473545
-0.0517611
-0.0436907
-0.0201477
0.00598278
-0.424835
-0.341393
-0.112613
0.0965221
0.0642606
-0.073272
-0.125139
-0.0984673
-0.0566281
-0.0283474
-0.0549458
-0.0950727
-0.0974317
-0.0663917
-0.0528932
-0.0520538
-0.0481844
-0.0333439
-0.0143751
0.00526295
-0.295318
-0.229951
-0.0592522
0.0649233
0.016507
-0.0801866
-0.0883724
-0.0505401
-0.0242781
0.00181407
-0.00406351
-0.0360113
-0.059308
-0.0509604
-0.0552249
-0.0612712
-0.0427209
-0.0207423
-0.000484751
0.00816415
-0.201932
-0.163592
-0.066838
0.00781721
-0.00544372
-0.0452433
-0.0426245
-0.0218841
-0.0123666
0.00672912
0.0244608
0.0203632
-0.0144493
-0.0334035
-0.0494734
-0.055202
-0.0301774
-0.0105809
0.00879084
0.0112348
-0.141983
-0.124996
-0.0717142
-0.00727771
0.01487
-0.0205955
-0.0359534
-0.0101274
0.0145111
0.0285971
0.0372984
0.040816
0.00809741
-0.0218153
-0.035146
-0.0376061
-0.0147302
-0.00030316
0.0154761
0.0131253
-0.103824
-0.0966405
-0.0576544
-0.00634376
0.00753505
-0.0194316
-0.0203919
0.00629625
0.0232804
0.0345103
0.0436853
0.0458763
0.0192175
-0.00843147
-0.0166628
-0.0183534
-0.00369746
0.00508782
0.0184098
0.0139622
-0.0757609
-0.0700812
-0.0454556
-0.0165895
-0.00282321
-0.00855045
-0.00727959
0.0106826
0.0261661
0.0349414
0.0400117
0.0430054
0.0288327
0.00549532
-0.00486341
-0.0065146
0.00341594
0.00989159
0.0190136
0.0126031
-0.0547791
-0.0525169
-0.0392239
-0.0195847
-0.00304151
-0.00130383
-0.00135454
0.0106307
0.023907
0.0319961
0.0365123
0.0397951
0.0314949
0.0122517
0.00290616
0.00272509
0.00814818
0.0119398
0.0169693
0.010717
-0.0403102
-0.0401799
-0.0314464
-0.0166913
-0.00298443
0.00022731
-0.000163411
0.00911372
0.0226999
0.0308154
0.0329758
0.0330701
0.0284337
0.0165716
0.0088052
0.00749456
0.010058
0.0127656
0.0142925
0.00857443
-0.0295399
-0.0300124
-0.023875
-0.013544
-0.00422517
-0.000624874
0.0015657
0.0105964
0.0220154
0.0272155
0.0271136
0.0267053
0.0258815
0.0189678
0.0117414
0.00980101
0.0109727
0.0122994
0.0112377
0.00628288
-0.0212319
-0.0218747
-0.0178242
-0.0112739
-0.00480028
0.000329535
0.00462096
0.0110551
0.0184712
0.0223304
0.0231155
0.023546
0.023766
0.0191678
0.012966
0.0106227
0.0105304
0.0108379
0.00882383
0.0045939
-0.0147643
-0.0155779
-0.0132591
-0.00882959
-0.00331944
0.00195118
0.00555843
0.0095118
0.015248
0.0196584
0.0213274
0.0212866
0.0209372
0.017836
0.0129928
0.0105249
0.00981318
0.00969005
0.00732074
0.00338633
-0.00972148
-0.0107019
-0.00929207
-0.00585658
-0.00155571
0.00235004
0.00527185
0.00877373
0.0139549
0.0180822
0.0193265
0.018554
0.0179511
0.0162603
0.0129208
0.0105694
0.00935178
0.00865695
0.00610505
0.00249548
-0.00567784
-0.00665171
-0.00573576
-0.00333262
-0.000403473
0.00257622
0.00555639
0.00894796
0.0130361
0.0160534
0.0168689
0.0162583
0.016026
0.0152986
0.0128284
0.01034
0.00859886
0.00753832
0.00524858
0.00206083
-0.00229457
-0.00325921
-0.00286032
-0.00137765
0.000727981
0.00327874
0.00609109
0.00889837
0.0117854
0.0140332
0.0150716
0.0150525
0.0149297
0.0142626
0.0121114
0.00973431
0.00793345
0.00684316
0.00481343
0.00181929
0.000609248
-0.0004718
-0.000529367
0.000346932
0.00194372
0.00403464
0.006335
0.00851999
0.0107484
0.0127851
0.0140643
0.0141816
0.0137401
0.0129566
0.0113095
0.00939446
0.00767098
0.00641012
0.00440461
0.00158453
0.00315471
0.00185774
0.0014225
0.00184942
0.00299257
0.0045845
0.00640058
0.00826066
0.0102451
0.0120669
0.0131519
0.0131419
0.0126212
0.0120336
0.010875
0.0092318
0.00741906
0.00591336
0.00399951
0.00146243
0.00547225
0.00381334
0.0030092
0.00305243
0.00380076
0.00501428
0.00654644
0.00823583
0.00995769
0.0113931
0.0122342
0.0123194
0.0119869
0.0115146
0.0104822
0.00892375
0.00710206
0.00553655
0.00376593
0.00141812
0.007538
0.00538349
0.00421221
0.00394968
0.00442266
0.00541492
0.00676294
0.00823903
0.00965447
0.0108191
0.0116213
0.0118808
0.0116245
0.0110565
0.0100255
0.00861573
0.00693308
0.0053749
0.0036211
0.00135025
0.00923954
0.00651221
0.00502882
0.00457157
0.00489086
0.00574013
0.00691455
0.00819625
0.00944787
0.0105254
0.0113105
0.0115886
0.0113013
0.0106926
0.0097418
0.00847773
0.00687215
0.00525784
0.00348574
0.00129699
0.0103095
0.00711745
0.00545218
0.0049104
0.0051598
0.00591642
0.00697428
0.00816981
0.00939253
0.0104454
0.0111626
0.01138
0.0110887
0.0105387
0.00967173
0.00845078
0.00681922
0.00514536
0.00340624
0.00129426
-0.219284
-0.228448
-0.237471
-0.246412
-0.255329
-0.264292
-0.273371
-0.282648
-0.292202
-0.302121
-0.312473
-0.323331
-0.334692
-0.346556
-0.358684
-0.370939
-0.382528
-0.393594
-0.402636
-0.413102
-0.145871
-0.150156
-0.154269
-0.158217
-0.162
-0.16562
-0.169079
-0.172374
-0.175506
-0.178476
-0.181285
-0.183949
-0.186485
-0.188954
-0.19142
-0.194085
-0.197116
-0.201126
-0.206617
-0.215799
-0.0951761
-0.0987215
-0.102252
-0.105775
-0.109296
-0.112821
-0.116357
-0.119914
-0.123497
-0.127115
-0.130774
-0.134482
-0.138241
-0.142051
-0.145898
-0.149767
-0.153623
-0.157457
-0.161339
-0.165654
-0.0699888
-0.072332
-0.0746351
-0.0769015
-0.0791335
-0.0813343
-0.0835071
-0.0856547
-0.08778
-0.089886
-0.0919756
-0.0940521
-0.0961196
-0.0981832
-0.100252
-0.102339
-0.104475
-0.106707
-0.109209
-0.112289
-0.0496151
-0.0513141
-0.0530094
-0.0547036
-0.0563988
-0.0580973
-0.0598016
-0.0615139
-0.0632364
-0.064971
-0.0667199
-0.0684847
-0.0702674
-0.0720691
-0.0738914
-0.0757341
-0.0776034
-0.0795046
-0.0815011
-0.083719
-0.0365046
-0.037752
-0.038993
-0.0402285
-0.041459
-0.0426859
-0.0439102
-0.0451332
-0.0463562
-0.0475807
-0.0488083
-0.0500408
-0.0512801
-0.0525283
-0.0537883
-0.0550627
-0.0563599
-0.057689
-0.0591035
-0.0606999
-0.0262608
-0.027186
-0.0281082
-0.029028
-0.029946
-0.0308627
-0.0317789
-0.0326952
-0.0336122
-0.0345305
-0.0354509
-0.0363738
-0.0373001
-0.0382303
-0.0391653
-0.0401056
-0.0410555
-0.0420173
-0.043026
-0.0441336
-0.0187891
-0.0195039
-0.0202163
-0.0209266
-0.021635
-0.022342
-0.0230478
-0.0237529
-0.0244577
-0.0251626
-0.025868
-0.0265744
-0.0272823
-0.0279922
-0.0287046
-0.02942
-0.030141
-0.0308689
-0.0316266
-0.0324444
-0.0129507
-0.0135058
-0.0140587
-0.0146098
-0.0151593
-0.0157075
-0.0162547
-0.0168011
-0.0173472
-0.0178931
-0.0184392
-0.0189859
-0.0195334
-0.020082
-0.0206323
-0.0211842
-0.0217399
-0.0222996
-0.02288
-0.0234994
-0.00845099
-0.00888657
-0.00932025
-0.00975222
-0.0101826
-0.0106117
-0.0110396
-0.0114666
-0.0118928
-0.0123184
-0.0127437
-0.0131688
-0.0135939
-0.0140191
-0.0144449
-0.0148711
-0.0152993
-0.0157293
-0.0161731
-0.0166423
-0.00488624
-0.00522566
-0.0055636
-0.00590023
-0.0062357
-0.00657017
-0.00690376
-0.00723661
-0.00756886
-0.0079006
-0.00823198
-0.00856307
-0.00889401
-0.00922484
-0.00955575
-0.00988669
-0.0102186
-0.0105512
-0.0108931
-0.0112522
-0.00203666
-0.00229874
-0.00256013
-0.00282096
-0.00308138
-0.00334149
-0.00360137
-0.00386109
-0.00412073
-0.00438033
-0.00463993
-0.00489957
-0.00515927
-0.00541901
-0.00567887
-0.00593873
-0.00619916
-0.00645994
-0.00672711
-0.00700625
0.00035575
0.000158782
-3.86729e-05
-0.000236711
-0.00043547
-0.00063501
-0.000835372
-0.00103659
-0.00123867
-0.00144162
-0.00164544
-0.00185009
-0.00205555
-0.00226175
-0.00246867
-0.00267621
-0.00288466
-0.00309389
-0.003308
-0.00353177
0.00244205
0.00229953
0.002155
0.0020084
0.00185966
0.0017088
0.00155588
0.00140094
0.00124407
0.00108536
0.000924912
0.000762861
0.000599332
0.000434473
0.000268407
0.000101311
-6.69029e-05
-0.000236148
-0.000409113
-0.000590325
0.00450859
0.00441182
0.00431053
0.00420482
0.00409473
0.00398044
0.00386215
0.00374007
0.00361442
0.00348543
0.00335336
0.00321846
0.00308099
0.00294122
0.0027994
0.00265579
0.00251052
0.00236366
0.00221361
0.00205605
0.00661675
0.00655151
0.00647843
0.00639794
0.0063104
0.00621629
0.0061161
0.0060103
0.00589937
0.00578377
0.00566397
0.00554042
0.00541357
0.00528384
0.00515165
0.00501737
0.00488133
0.00474362
0.00460352
0.00445676
0.00944318
0.0093705
0.00928614
0.00919115
0.00908649
0.00897312
0.008852
0.00872398
0.00858991
0.00845056
0.00830665
0.00815887
0.00800786
0.00785421
0.00769849
0.00754116
0.00738271
0.00722324
0.00706271
0.00689695
0.0129031
0.0127569
0.0125993
0.0124318
0.0122558
0.0120725
0.0118831
0.0116888
0.0114904
0.0112889
0.0110851
0.0108797
0.0106734
0.0104667
0.0102602
0.0100544
0.00984972
0.00964614
0.00944419
0.0092399
0.0179616
0.0175504
0.017146
0.0167487
0.0163588
0.0159765
0.015602
0.0152355
0.014877
0.0145266
0.0141844
0.0138504
0.0135245
0.0132067
0.0128971
0.0125954
0.0123017
0.0120156
0.0117375
0.0114636
0.0234069
0.0226394
0.0219065
0.0212063
0.0205369
0.0198967
0.019284
0.0186974
0.0181354
0.0175967
0.0170801
0.0165844
0.0161085
0.0156514
0.0152121
0.0147898
0.0143836
0.0139925
0.0136164
0.0132517
0.0377975
0.0369809
0.0361984
0.0354482
0.0347285
0.0340375
0.0333738
0.0327357
0.032122
0.0315312
0.0309622
0.0304138
0.0298849
0.0293745
0.0288817
0.0284056
0.0279453
0.0274999
0.0270694
0.0266497
0.032391
0.0319299
0.0314752
0.0310271
0.030586
0.0301521
0.0297256
0.0293068
0.0288957
0.0284923
0.0280969
0.0277093
0.0273296
0.0269578
0.0265939
0.0262377
0.0258893
0.0255483
0.0252152
0.0248861
0.0274167
0.0272191
0.0270095
0.0267895
0.0265606
0.0263241
0.0260811
0.0258328
0.0255801
0.025324
0.0250653
0.0248047
0.024543
0.0242806
0.0240183
0.0237564
0.0234955
0.0232356
0.0229772
0.0227164
0.0240939
0.023967
0.0238279
0.0236776
0.0235173
0.023348
0.0231704
0.0229857
0.0227945
0.0225978
0.0223962
0.0221904
0.0219813