/*--------------------------------*- C++ -*----------------------------------*\
  =========                 |
  \\      /  F ield         | OpenFOAM: The Open Source CFD Toolbox
   \\    /   O peration     | Website:  https://openfoam.org
    \\  /    A nd           | Version:  6.0
     \\/     M anipulation  |
\*---------------------------------------------------------------------------*/
FoamFile
{
    version     2.0;
    format      ascii;
    class       volScalarField;
    location    "95";
    object      p;
}
// * * * * * * * * * * * * * * * * * * * * * * * * * * * * * * * * * * * * * //

dimensions      [0 2 -2 0 0 0 0];

internalField   nonuniform List<scalar> 
4000
(
-0.431486
-0.433406
-0.434408
-0.435045
-0.435699
-0.436464
-0.437364
-0.438382
-0.439475
-0.440594
-0.441687
-0.442711
-0.443634
-0.444432
-0.445094
-0.44561
-0.44599
-0.44633
-0.446708
-0.446364
-0.441955
-0.443716
-0.444708
-0.445454
-0.446315
-0.447381
-0.448663
-0.450132
-0.451727
-0.453383
-0.455034
-0.45662
-0.458095
-0.459421
-0.460576
-0.461538
-0.462314
-0.463023
-0.463751
-0.463484
-0.45259
-0.454121
-0.455068
-0.455907
-0.45697
-0.458337
-0.460006
-0.461931
-0.464035
-0.466234
-0.468446
-0.470594
-0.472612
-0.474452
-0.476076
-0.47745
-0.478578
-0.479598
-0.48061
-0.480422
-0.463274
-0.464499
-0.465363
-0.466274
-0.467522
-0.469178
-0.471226
-0.4736
-0.476208
-0.478947
-0.481714
-0.484413
-0.486962
-0.489293
-0.491353
-0.493098
-0.494523
-0.495779
-0.496992
-0.496874
-0.473867
-0.474716
-0.475455
-0.476406
-0.477812
-0.479731
-0.482134
-0.484938
-0.48803
-0.491289
-0.494592
-0.497823
-0.500879
-0.503671
-0.506128
-0.508192
-0.509848
-0.511251
-0.512556
-0.512482
-0.48422
-0.484635
-0.485205
-0.486157
-0.487679
-0.48982
-0.492536
-0.495727
-0.499264
-0.503006
-0.50681
-0.510538
-0.514064
-0.517276
-0.520083
-0.522409
-0.524225
-0.525674
-0.526946
-0.526865
-0.494184
-0.49412
-0.494478
-0.495384
-0.496967
-0.499268
-0.502234
-0.50575
-0.509671
-0.513836
-0.518084
-0.522254
-0.526198
-0.529779
-0.532881
-0.535407
-0.537307
-0.538701
-0.539803
-0.53964
-0.503614
-0.503049
-0.503156
-0.503961
-0.505536
-0.50792
-0.511051
-0.514805
-0.519021
-0.523525
-0.528136
-0.532673
-0.536964
-0.540846
-0.544177
-0.546836
-0.548748
-0.549989
-0.550787
-0.550451
-0.512388
-0.511322
-0.511146
-0.511791
-0.51328
-0.515651
-0.518843
-0.522725
-0.527126
-0.53186
-0.536728
-0.541531
-0.546076
-0.550174
-0.553657
-0.556375
-0.558223
-0.559225
-0.559593
-0.558979
-0.520411
-0.518871
-0.51839
-0.518816
-0.520133
-0.522386
-0.52552
-0.529401
-0.533857
-0.538688
-0.543685
-0.548633
-0.553318
-0.557528
-0.561067
-0.56376
-0.565467
-0.566148
-0.565971
-0.564958
-0.527628
-0.525665
-0.524868
-0.52502
-0.526079
-0.528105
-0.531053
-0.534797
-0.539163
-0.543947
-0.548932
-0.553887
-0.55858
-0.562781
-0.566266
-0.568833
-0.570308
-0.570586
-0.569753
-0.568205
-0.534026
-0.531714
-0.530602
-0.530434
-0.531156
-0.532849
-0.535487
-0.538956
-0.543088
-0.54768
-0.552504
-0.557322
-0.561886
-0.565945
-0.569252
-0.571577
-0.572716
-0.572495
-0.570892
-0.568641
-0.539642
-0.537067
-0.535654
-0.53513
-0.535449
-0.536717
-0.538934
-0.542004
-0.54577
-0.550031
-0.554557
-0.559099
-0.563397
-0.56718
-0.570179
-0.572134
-0.572813
-0.571984
-0.569488
-0.566326
-0.544556
-0.541813
-0.540121
-0.53922
-0.539087
-0.539859
-0.541566
-0.544135
-0.547424
-0.551238
-0.555346
-0.55949
-0.563396
-0.566774
-0.569333
-0.570784
-0.570866
-0.569301
-0.565788
-0.561477
-0.548894
-0.546072
-0.544129
-0.542844
-0.542231
-0.542461
-0.543598
-0.545594
-0.548324
-0.551603
-0.555197
-0.558841
-0.562244
-0.565098
-0.567087
-0.567896
-0.567237
-0.564802
-0.560161
-0.554461
-0.552817
-0.549991
-0.547826
-0.546162
-0.545061
-0.544731
-0.545267
-0.54665
-0.548773
-0.551457
-0.554467
-0.557526
-0.560329
-0.562545
-0.563837
-0.563866
-0.562322
-0.558889
-0.553056
-0.545781
-0.556518
-0.553739
-0.551376
-0.549346
-0.547768
-0.546883
-0.546818
-0.547578
-0.549072
-0.551125
-0.553498
-0.555902
-0.55801
-0.559475
-0.559938
-0.559048
-0.556489
-0.551964
-0.544951
-0.536049
-0.560206
-0.557492
-0.554947
-0.552571
-0.550541
-0.549127
-0.548482
-0.548632
-0.549494
-0.550896
-0.552587
-0.554262
-0.555577
-0.556163
-0.555651
-0.553691
-0.549982
-0.544289
-0.536152
-0.525759
-0.564095
-0.561432
-0.558708
-0.556007
-0.553557
-0.551652
-0.550463
-0.550027
-0.550264
-0.550994
-0.551955
-0.552821
-0.553227
-0.552793
-0.551142
-0.547933
-0.542892
-0.535839
-0.526394
-0.514726
-0.56839
-0.565728
-0.562815
-0.559807
-0.556972
-0.554618
-0.552923
-0.551925
-0.551538
-0.551569
-0.551736
-0.551696
-0.551072
-0.549476
-0.546541
-0.541942
-0.535418
-0.526741
-0.515471
-0.502802
-0.573273
-0.570533
-0.567407
-0.564103
-0.560912
-0.558144
-0.555973
-0.554426
-0.553401
-0.552684
-0.551976
-0.550922
-0.549141
-0.546263
-0.541953
-0.535939
-0.528019
-0.518034
-0.505884
-0.493511
-0.578891
-0.575969
-0.572593
-0.568994
-0.565464
-0.562305
-0.55967
-0.557566
-0.555865
-0.554331
-0.552649
-0.55046
-0.547401
-0.543138
-0.537399
-0.529989
-0.520807
-0.50984
-0.497216
-0.48393
-0.585349
-0.582129
-0.578454
-0.574548
-0.570682
-0.567132
-0.564025
-0.56133
-0.558889
-0.556444
-0.553672
-0.550226
-0.545779
-0.540059
-0.532869
-0.524107
-0.513762
-0.501911
-0.488706
-0.474724
-0.59271
-0.58907
-0.585039
-0.580803
-0.576584
-0.572626
-0.56901
-0.565663
-0.562393
-0.558924
-0.554936
-0.550117
-0.544195
-0.536976
-0.528355
-0.518319
-0.506942
-0.494364
-0.480772
-0.466583
-0.601001
-0.596824
-0.592376
-0.587774
-0.583171
-0.578761
-0.574574
-0.570486
-0.566273
-0.561651
-0.556321
-0.550024
-0.542565
-0.53384
-0.523837
-0.512628
-0.500349
-0.48718
-0.473324
-0.459093
-0.610221
-0.605399
-0.600473
-0.595461
-0.590426
-0.585501
-0.580654
-0.57571
-0.570418
-0.564501
-0.557706
-0.549844
-0.540814
-0.530606
-0.519296
-0.507022
-0.493966
-0.480326
-0.466308
-0.452167
-0.620345
-0.614787
-0.609325
-0.603855
-0.598326
-0.592801
-0.587177
-0.581233
-0.574706
-0.567348
-0.558973
-0.549482
-0.538874
-0.527231
-0.514701
-0.501471
-0.487743
-0.473715
-0.459577
-0.445525
-0.631334
-0.624965
-0.618918
-0.612938
-0.606839
-0.600602
-0.594057
-0.586946
-0.579013
-0.570068
-0.560013
-0.548853
-0.536685
-0.523674
-0.510019
-0.495933
-0.48162
-0.467258
-0.453014
-0.439029
-0.643135
-0.635897
-0.629224
-0.622678
-0.615915
-0.60883
-0.60119
-0.592721
-0.583205
-0.572536
-0.560722
-0.547879
-0.534194
-0.519894
-0.505209
-0.490356
-0.475522
-0.46086
-0.446503
-0.432531
-0.655674
-0.647529
-0.640196
-0.633022
-0.625482
-0.617383
-0.608449
-0.598416
-0.58714
-0.574626
-0.561002
-0.546489
-0.531349
-0.515846
-0.500223
-0.484681
-0.46938
-0.454436
-0.439949
-0.425945
-0.668857
-0.659784
-0.651763
-0.643886
-0.635432
-0.626127
-0.615676
-0.603868
-0.590669
-0.576216
-0.560762
-0.544618
-0.528098
-0.511485
-0.495009
-0.478846
-0.463117
-0.447905
-0.433271
-0.419195
-0.68256
-0.672555
-0.663819
-0.655151
-0.64562
-0.634889
-0.622687
-0.6089
-0.593639
-0.577187
-0.559912
-0.542197
-0.524386
-0.506754
-0.489507
-0.472781
-0.456661
-0.441192
-0.426397
-0.412224
-0.696625
-0.685699
-0.67622
-0.666653
-0.655856
-0.643461
-0.629272
-0.613323
-0.595895
-0.577419
-0.558364
-0.53916
-0.520152
-0.501593
-0.48365
-0.466416
-0.449937
-0.434223
-0.41926
-0.404979
-0.710855
-0.699034
-0.688779
-0.678184
-0.665908
-0.651603
-0.635206
-0.616943
-0.597284
-0.576799
-0.556033
-0.535434
-0.51533
-0.495933
-0.477364
-0.459673
-0.442867
-0.426926
-0.411795
-0.397408
-0.725014
-0.712339
-0.701266
-0.689492
-0.675509
-0.659049
-0.640248
-0.619563
-0.597654
-0.575213
-0.552828
-0.530943
-0.509845
-0.489698
-0.470572
-0.452474
-0.435375
-0.419226
-0.403938
-0.389459
-0.738826
-0.72535
-0.713406
-0.700283
-0.684358
-0.665518
-0.64416
-0.620993
-0.596863
-0.57255
-0.548661
-0.525605
-0.503618
-0.482807
-0.463192
-0.444737
-0.427384
-0.411055
-0.395625
-0.381078
-0.751978
-0.737765
-0.724887
-0.710232
-0.692135
-0.670721
-0.646701
-0.621049
-0.594769
-0.568701
-0.543437
-0.519333
-0.496563
-0.475176
-0.45514
-0.436383
-0.418817
-0.402339
-0.386792
-0.37221
-0.764129
-0.749248
-0.735362
-0.718985
-0.698505
-0.674369
-0.64764
-0.61955
-0.591235
-0.563553
-0.537055
-0.512032
-0.488589
-0.466713
-0.446327
-0.427325
-0.409594
-0.393007
-0.377376
-0.362798
-0.77491
-0.759436
-0.744461
-0.72618
-0.703139
-0.676187
-0.646762
-0.616336
-0.586133
-0.557
-0.529422
-0.503613
-0.479606
-0.457332
-0.436671
-0.417487
-0.399643
-0.38299
-0.367315
-0.35279
-0.783939
-0.76795
-0.751802
-0.731448
-0.705715
-0.675919
-0.643878
-0.611267
-0.579357
-0.548952
-0.520456
-0.493997
-0.46954
-0.446962
-0.426105
-0.406804
-0.388906
-0.372237
-0.356563
-0.342142
-0.509562
-0.495393
-0.482657
-0.468356
-0.451156
-0.431494
-0.41022
-0.388259
-0.366436
-0.345359
-0.325401
-0.30674
-0.289423
-0.273411
-0.258622
-0.244956
-0.232313
-0.220571
-0.209545
-0.19946
-0.499331
-0.485743
-0.473831
-0.460922
-0.445647
-0.428187
-0.409112
-0.389143
-0.369005
-0.349286
-0.330391
-0.312548
-0.295857
-0.280326
-0.265908
-0.25253
-0.240111
-0.228551
-0.217684
-0.207673
-0.488083
-0.475164
-0.464027
-0.452352
-0.438817
-0.423416
-0.406475
-0.388515
-0.370132
-0.351872
-0.334147
-0.317225
-0.301253
-0.286283
-0.272306
-0.259279
-0.247141
-0.235814
-0.225156
-0.215274
-0.476163
-0.463991
-0.453592
-0.443002
-0.431007
-0.417484
-0.402564
-0.386574
-0.369975
-0.353241
-0.336773
-0.320861
-0.30569
-0.291354
-0.277883
-0.265263
-0.253457
-0.242409
-0.232001
-0.222298
-0.463886
-0.452529
-0.44284
-0.433202
-0.422547
-0.410696
-0.397636
-0.383528
-0.368692
-0.353515
-0.338363
-0.323532
-0.309232
-0.295596
-0.282687
-0.270524
-0.259094
-0.248364
-0.238243
-0.228764
-0.451532
-0.441042
-0.432047
-0.423246
-0.413743
-0.403347
-0.391954
-0.379592
-0.36645
-0.352818
-0.339009
-0.325307
-0.311935
-0.299052
-0.286756
-0.275093
-0.264079
-0.253703
-0.243899
-0.234681
-0.439338
-0.429755
-0.421444
-0.41339
-0.40487
-0.395718
-0.385781
-0.374992
-0.36343
-0.351288
-0.338814
-0.326262
-0.313855
-0.301769
-0.290125
-0.279001
-0.268436
-0.258441
-0.248978
-0.240051
-0.427503
-0.418845
-0.411215
-0.40384
-0.396164
-0.388059
-0.379364
-0.369954
-0.359821
-0.349072
-0.337886
-0.326475
-0.315048
-0.303784
-0.292824
-0.282267
-0.272177
-0.262586
-0.253482
-0.244864
-0.416178
-0.408451
-0.401501
-0.394758
-0.387813
-0.380587
-0.372929
-0.364692
-0.355812
-0.346323
-0.336339
-0.326025
-0.315564
-0.305129
-0.294869
-0.2849
-0.275303
-0.266132
-0.257397
-0.249098
-0.405474
-0.398668
-0.392396
-0.386256
-0.379958
-0.37347
-0.366668
-0.359404
-0.351584
-0.343193
-0.334291
-0.324995
-0.315456
-0.305833
-0.296271
-0.286896
-0.277803
-0.269062
-0.260703
-0.25272
-0.39546
-0.389552
-0.383957
-0.378401
-0.37269
-0.366831
-0.360729
-0.354254
-0.347303
-0.339833
-0.331864
-0.323474
-0.31478
-0.305921
-0.297034
-0.288245
-0.279658
-0.271351
-0.26337
-0.255696
-0.386168
-0.381129
-0.376205
-0.37122
-0.366057
-0.360743
-0.355217
-0.349371
-0.34311
-0.33638
-0.329178
-0.321554
-0.313597
-0.305425
-0.297163
-0.288933
-0.280839
-0.272966
-0.265371
-0.258
-0.377599
-0.373395
-0.369131
-0.364707
-0.360062
-0.355236
-0.350189
-0.344839
-0.339109
-0.332948
-0.326343
-0.319328
-0.311974
-0.304381
-0.296665
-0.288941
-0.281315
-0.273871
-0.266675
-0.259628
-0.369733
-0.366328
-0.362707
-0.358831
-0.354679
-0.350295
-0.345655
-0.3407
-0.33537
-0.329625
-0.323455
-0.316887
-0.309983
-0.302835
-0.295554
-0.288256
-0.281049
-0.27402
-0.267247
-0.260592
-0.362535
-0.359894
-0.356891
-0.353542
-0.349857
-0.345878
-0.34159
-0.336951
-0.331918
-0.326464
-0.320586
-0.314311
-0.307699
-0.300842
-0.293855
-0.286863
-0.279993
-0.273348
-0.267026
-0.260922
-0.35597
-0.354059
-0.351641
-0.348787
-0.345538
-0.341927
-0.337944
-0.333561
-0.328748
-0.323488
-0.317785
-0.311668
-0.305198
-0.298469
-0.291606
-0.284758
-0.278088
-0.271745
-0.265878
-0.260575
-0.350016
-0.348797
-0.346923
-0.344522
-0.341665
-0.338381
-0.334661
-0.330485
-0.325834
-0.320697
-0.315081
-0.309015
-0.302556
-0.295797
-0.28887
-0.281952
-0.275262
-0.269042
-0.263554
-0.259425
-0.344669
-0.344102
-0.342721
-0.34072
-0.338205
-0.335199
-0.331697
-0.327686
-0.323151
-0.318088
-0.3125
-0.306409
-0.299861
-0.292932
-0.285749
-0.2785
-0.271457
-0.264983
-0.259574
-0.256921
-0.339953
-0.339988
-0.339043
-0.337382
-0.335152
-0.332372
-0.329041
-0.325152
-0.320697
-0.315672
-0.310076
-0.303917
-0.297218
-0.290024
-0.28242
-0.274561
-0.266713
-0.259296
-0.253186
-0.252039
-0.335913
-0.336491
-0.335921
-0.33454
-0.332536
-0.329928
-0.326721
-0.322915
-0.318508
-0.313495
-0.307872
-0.301633
-0.294768
-0.287275
-0.279162
-0.270484
-0.261374
-0.252048
-0.243445
-0.241673
-0.332617
-0.333667
-0.333408
-0.332249
-0.330417
-0.327934
-0.32481
-0.321053
-0.316667
-0.311649
-0.305994
-0.299681
-0.292674
-0.284913
-0.276299
-0.266695
-0.255897
-0.243322
-0.227358
-0.209852
-0.33014
-0.331579
-0.33157
-0.330584
-0.328879
-0.326484
-0.323414
-0.319682
-0.3153
-0.310271
-0.304591
-0.298239
-0.29117
-0.283305
-0.274514
-0.264623
-0.253418
-0.240387
-0.224242
-0.20788
-0.328552
-0.330292
-0.330475
-0.32962
-0.328014
-0.325685
-0.322654
-0.31894
-0.31456
-0.309526
-0.303839
-0.297488
-0.290439
-0.282628
-0.273954
-0.264298
-0.253547
-0.241334
-0.226822
-0.213653
-0.327908
-0.329858
-0.330182
-0.32943
-0.327904
-0.325635
-0.322646
-0.31896
-0.314598
-0.309579
-0.303914
-0.297602
-0.290629
-0.282957
-0.274525
-0.265281
-0.255193
-0.24398
-0.231139
-0.220661
-0.328236
-0.330311
-0.330732
-0.330063
-0.328612
-0.326411
-0.323481
-0.31985
-0.315541
-0.310578
-0.30498
-0.298761
-0.291925
-0.284463
-0.276361
-0.26763
-0.258312
-0.248222
-0.237098
-0.228837
-0.329535
-0.33166
-0.332144
-0.331545
-0.330172
-0.328055
-0.325214
-0.321677
-0.317469
-0.31262
-0.307156
-0.301103
-0.294486
-0.287323
-0.279643
-0.271513
-0.263035
-0.2541
-0.244578
-0.238032
-0.331778
-0.333893
-0.334412
-0.333876
-0.332588
-0.330575
-0.327856
-0.324457
-0.320408
-0.315739
-0.310485
-0.304684
-0.298374
-0.291603
-0.284427
-0.276954
-0.269321
-0.261459
-0.253275
-0.247966
-0.334911
-0.336976
-0.337512
-0.337036
-0.335839
-0.333949
-0.331383
-0.328167
-0.32433
-0.319907
-0.314937
-0.309467
-0.303548
-0.297243
-0.290631
-0.283835
-0.277005
-0.270079
-0.262953
-0.258506
-0.338867
-0.340862
-0.341404
-0.340986
-0.339887
-0.338135
-0.335748
-0.332751
-0.329173
-0.325051
-0.320427
-0.315352
-0.309887
-0.304101
-0.298081
-0.291954
-0.285862
-0.279737
-0.273447
-0.269624
-0.343575
-0.345497
-0.346042
-0.345681
-0.344685
-0.343082
-0.340893
-0.338143
-0.33486
-0.33108
-0.326846
-0.322213
-0.317241
-0.312001
-0.30658
-0.301097
-0.29568
-0.290248
-0.284655
-0.281331
-0.348962
-0.350824
-0.351378
-0.351074
-0.350184
-0.348739
-0.346762
-0.344278
-0.341314
-0.337905
-0.334093
-0.329928
-0.325471
-0.320788
-0.315959
-0.311094
-0.306301
-0.301491
-0.296525
-0.293646
-0.354968
-0.356794
-0.357363
-0.357121
-0.35634
-0.35506
-0.353305
-0.351102
-0.348475
-0.345456
-0.342083
-0.338403
-0.33447
-0.330344
-0.326097
-0.321827
-0.317625
-0.313398
-0.309032
-0.306578
-0.361543
-0.363361
-0.363958
-0.363782
-0.363116
-0.362007
-0.360484
-0.358572
-0.356296
-0.353681
-0.35076
-0.347573
-0.344168
-0.340596
-0.336922
-0.333229
-0.329597
-0.325935
-0.322165
-0.320117
-0.368648
-0.370486
-0.371125
-0.371023
-0.370479
-0.369549
-0.368268
-0.366661
-0.364747
-0.362546
-0.360087
-0.357399
-0.354523
-0.351504
-0.348394
-0.345268
-0.34219
-0.339084
-0.335909
-0.334241
-0.376259
-0.37814
-0.378831
-0.378813
-0.3784
-0.377663
-0.376636
-0.375346
-0.373807
-0.372034
-0.370044
-0.367862
-0.365517
-0.363047
-0.360495
-0.357926
-0.355393
-0.352835
-0.350249
-0.34892
-0.384358
-0.386294
-0.387048
-0.387122
-0.386854
-0.386322
-0.385567
-0.38461
-0.383461
-0.382128
-0.380618
-0.378948
-0.377137
-0.375215
-0.373217
-0.371195
-0.369193
-0.367172
-0.365161
-0.36412
-0.39293
-0.394922
-0.395741
-0.395918
-0.395809
-0.3955
-0.395034
-0.394429
-0.393689
-0.39281
-0.391793
-0.390643
-0.38937
-0.387995
-0.386546
-0.385061
-0.383576
-0.382077
-0.380615
-0.379802
-0.401959
-0.403992
-0.404877
-0.405164
-0.405227
-0.40516
-0.405004
-0.404773
-0.40446
-0.404054
-0.403543
-0.402922
-0.402192
-0.401364
-0.400456
-0.399496
-0.39851
-0.397513
-0.396569
-0.395928
-0.411423
-0.413467
-0.414408
-0.414811
-0.415061
-0.415255
-0.415431
-0.415595
-0.415731
-0.415815
-0.415825
-0.415743
-0.415561
-0.415279
-0.414905
-0.414455
-0.413949
-0.413428
-0.412966
-0.41245
-0.421284
-0.423295
-0.424277
-0.424798
-0.425246
-0.425719
-0.426248
-0.426829
-0.427435
-0.428028
-0.428573
-0.42904
-0.42941
-0.42967
-0.429821
-0.429865
-0.429815
-0.429742
-0.429721
-0.429298
-0.422298
-0.362514
-0.293929
-0.241578
-0.118209
-0.038996
-0.105817
-0.142433
-0.090355
-0.0571438
-0.0818681
-0.11987
-0.0964829
-0.0602678
-0.0641263
-0.0690594
-0.071214
-0.0574705
-0.0446337
-0.000606811
-0.434271
-0.358483
-0.277206
-0.242276
-0.119191
-0.0374606
-0.104159
-0.13964
-0.0902346
-0.0582352
-0.0846376
-0.123681
-0.097987
-0.0607437
-0.0628127
-0.0666099
-0.0694113
-0.0555369
-0.0433668
-0.00107187
-0.447207
-0.355198
-0.262079
-0.243243
-0.120181
-0.0361511
-0.102632
-0.136833
-0.0900423
-0.0592087
-0.0873339
-0.127391
-0.0994623
-0.0611436
-0.0614115
-0.0640826
-0.0675814
-0.0535712
-0.0420357
-0.00152555
-0.460834
-0.35255
-0.249104
-0.244175
-0.121169
-0.0350999
-0.101245
-0.134016
-0.0897741
-0.0600474
-0.0899267
-0.130963
-0.100901
-0.0614663
-0.0599372
-0.0614937
-0.0657328
-0.0515826
-0.0406471
-0.00196477
-0.47471
-0.350173
-0.238453
-0.244512
-0.122138
-0.0343306
-0.0999983
-0.13119
-0.0894274
-0.0607355
-0.0923843
-0.13436
-0.102294
-0.0617114
-0.0584041
-0.0588597
-0.0638738
-0.0495804
-0.0392077
-0.00238648
-0.488308
-0.347519
-0.229859
-0.243425
-0.123059
-0.0338604
-0.0988818
-0.128355
-0.0890011
-0.0612594
-0.0946741
-0.137541
-0.103631
-0.061879
-0.0568258
-0.0561969
-0.062012
-0.0475732
-0.0377241
-0.00278782
-0.501122
-0.344014
-0.222683
-0.239894
-0.123894
-0.0337041
-0.0978773
-0.125512
-0.0884959
-0.0616076
-0.0967635
-0.140469
-0.104902
-0.0619696
-0.0552161
-0.0535217
-0.0601546
-0.0455694
-0.0362027
-0.00316604
-0.512755
-0.339251
-0.216101
-0.232903
-0.124591
-0.0338743
-0.0969608
-0.12266
-0.087914
-0.061772
-0.0986212
-0.143105
-0.106093
-0.0619849
-0.0535877
-0.0508499
-0.0583081
-0.0435768
-0.0346498
-0.00351849
-0.522953
-0.33315
-0.209333
-0.22171
-0.125078
-0.0343827
-0.0961046
-0.119801
-0.0872589
-0.0617479
-0.100218
-0.145415
-0.107192
-0.0619268
-0.0519526
-0.0481966
-0.0564786
-0.0416029
-0.0330713
-0.00384264
-0.531596
-0.326
-0.201832
-0.206098
-0.125255
-0.0352408
-0.0952793
-0.116938
-0.0865364
-0.061535
-0.101526
-0.147366
-0.108185
-0.061798
-0.0503218
-0.0455762
-0.0546715
-0.0396544
-0.0314729
-0.00413603
-0.538665
-0.318378
-0.193359
-0.186494
-0.124979
-0.0364587
-0.0944556
-0.114072
-0.0857561
-0.0611377
-0.102525
-0.148933
-0.109056
-0.0616019
-0.0487051
-0.0430023
-0.0528918
-0.0377379
-0.02986
-0.00439634
-0.544192
-0.31098
-0.183954
-0.163871
-0.124046
-0.0380435
-0.0936058
-0.111209
-0.0849315
-0.0605641
-0.103198
-0.150097
-0.109792
-0.0613419
-0.0471114
-0.0404873
-0.051144
-0.035859
-0.0282376
-0.00462135
-0.548234
-0.304467
-0.173836
-0.139491
-0.122201
-0.0399955
-0.0927042
-0.108353
-0.084069
-0.0598234
-0.103528
-0.150846
-0.110377
-0.0610222
-0.0455485
-0.0380427
-0.0494324
-0.0340233
-0.0266092
-0.00480895
-0.550838
-0.29932
-0.163267
-0.114593
-0.119154
-0.0423048
-0.0917285
-0.105494
-0.0831484
-0.0589258
-0.103505
-0.151176
-0.110799
-0.0606471
-0.044023
-0.0356788
-0.0477602
-0.0322361
-0.0249753
-0.00495665
-0.551959
-0.295622
-0.152338
-0.0901587
-0.114639
-0.0449466
-0.0906618
-0.10261
-0.0821386
-0.057891
-0.103136
-0.151089
-0.111043
-0.0602209
-0.0425402
-0.0334048
-0.0461298
-0.0305019
-0.0233386
-0.00506151
-0.551401
-0.292905
-0.140897
-0.0668343
-0.108468
-0.0478794
-0.0894911
-0.0997171
-0.0811195
-0.0567674
-0.102473
-0.150593
-0.111099
-0.0597482
-0.0411047
-0.0312294
-0.044544
-0.0288222
-0.0217173
-0.00512222
-0.549236
-0.290981
-0.129336
-0.0449821
-0.100585
-0.0510321
-0.0881858
-0.0969765
-0.0804244
-0.0556163
-0.101557
-0.149716
-0.110956
-0.0592331
-0.0397198
-0.0291604
-0.0430114
-0.0271952
-0.0201509
-0.00514417
-0.546538
-0.292008
-0.119984
-0.0247778
-0.0911132
-0.0542616
-0.0866625
-0.0945558
-0.0802814
-0.0543951
-0.100189
-0.148518
-0.110616
-0.0586811
-0.0383881
-0.0272035
-0.0415457
-0.0256296
-0.0186367
-0.00513555
-0.543734
-0.298901
-0.114889
-0.00619296
-0.0803836
-0.0574828
-0.0849126
-0.0918512
-0.0795031
-0.0528294
-0.0978745
-0.146974
-0.110096
-0.0581043
-0.037114
-0.0253589
-0.0401226
-0.0241706
-0.0169739
-0.00506781
-0.534831
-0.302936
-0.10632
0.011014
-0.0695446
-0.0615449
-0.0834629
-0.0870174
-0.0750813
-0.0507631
-0.0950344
-0.1447
-0.109283
-0.0574737
-0.035901
-0.0236339
-0.0386148
-0.0228552
-0.0147827
-0.00482748
-0.456292
-0.277426
-0.0289272
0.0964088
-0.0187105
-0.0942103
-0.0782557
-0.051931
-0.0387859
-0.0376418
-0.0798994
-0.126066
-0.10012
-0.0526899
-0.0283007
-0.0143679
-0.0293332
-0.015642
-0.000805089
-0.00251989
-0.301474
-0.174561
-0.00409678
0.0504904
-0.0224388
-0.077998
-0.0425703
-0.0293005
-0.0199646
-0.00329378
-0.0306266
-0.0730096
-0.0623096
-0.032837
-0.0157847
-0.00899159
-0.0195011
-0.00272857
0.0145425
0.00246741
-0.200144
-0.134572
-0.0394318
0.00720987
-0.007443
-0.0364515
-0.0179556
-0.0172166
-0.0205169
0.00194403
0.00317885
-0.0151934
-0.0158302
-0.0103146
-0.00651834
-0.00816565
-0.00804567
0.00462072
0.0207835
0.0088694
-0.1433
-0.113316
-0.0493953
0.00685391
0.00232836
-0.0305416
-0.0140098
0.0047931
0.00536403
0.0135004
0.0158478
0.010704
0.00837213
0.00340446
-0.00227669
-0.00675544
0.000904401
0.0084799
0.0237728
0.0154223
-0.106326
-0.0871425
-0.0418015
-0.00670757
-0.00970552
-0.0183252
0.00303949
0.011542
0.00728398
0.0165575
0.0257583
0.0228944
0.0177293
0.0115751
0.00599384
0.00183825
0.00664385
0.00710399
0.0180427
0.0150744
-0.0777977
-0.066859
-0.04248
-0.0174854
-0.00723965
-0.00814606
0.00231901
0.0114695
0.012383
0.0179578
0.0266631
0.0244482
0.0192922
0.0146911
0.00955115
0.00668529
0.0101806
0.00986374
0.01422
0.00911746
-0.0588936
-0.0543181
-0.0383457
-0.0168658
-0.00650832
-0.00767599
0.000679493
0.0122337
0.0152146
0.0177171
0.0235479
0.0216679
0.0166002
0.0149802
0.0132607
0.0106721
0.0109722
0.00913662
0.00984572
0.00577893
-0.0456859
-0.0430317
-0.0311837
-0.0165831
-0.00925045
-0.00730936
0.001715
0.0127782
0.0150172
0.0146289
0.0188823
0.0195768
0.0160641
0.0150077
0.013751
0.0108108
0.00992881
0.00850472
0.00734081
0.00391713
-0.0353371
-0.0335199
-0.0259691
-0.0168503
-0.00960328
-0.00461912
0.0024882
0.0100807
0.0121969
0.0126364
0.0169116
0.0184868
0.0146274
0.0127813
0.0127731
0.010818
0.00927432
0.0077912
0.00561084
0.00264401
-0.0273605
-0.0265996
-0.0219421
-0.0149188
-0.00787017
-0.00351816
0.000914527
0.00733224
0.0112686
0.0123605
0.0146749
0.015638
0.0127008
0.0114722
0.0122788
0.0105516
0.00823123
0.00664793
0.0045042
0.00196981
-0.0213337
-0.0211979
-0.0176896
-0.0122124
-0.00717319
-0.0038071
0.000443111
0.0066762
0.0104494
0.0106713
0.0117662
0.013461
0.0121759
0.0107971
0.011072
0.00950186
0.00707763
0.00582167
0.00408049
0.00161659
-0.0165396
-0.0165344
-0.01398
-0.010356
-0.00668916
-0.00308332
0.00101908
0.00561594
0.00839633
0.0090034
0.0104118
0.0123782
0.0114025
0.00946426
0.00951261
0.00865339
0.00655725
0.00536687
0.00369221
0.0012717
-0.012578
-0.0127321
-0.0111739
-0.00863719
-0.00543097
-0.00214419
0.000849192
0.0041501
0.0070446
0.0085027
0.00958139
0.0107464
0.010004
0.00846455
0.00864878
0.00818485
0.00613966
0.00468747
0.0031843
0.00111688
-0.00931421
-0.00968513
-0.00873912
-0.0067635
-0.00425127
-0.0018337
0.000558378
0.00359951
0.00647851
0.00778981
0.00824913
0.00916581
0.00921917
0.0081436
0.0079274
0.00740714
0.00553136
0.00412551
0.00292143
0.0010926
-0.00653178
-0.00708265
-0.00655388
-0.00521673
-0.00347169
-0.00149716
0.000802945
0.0034218
0.00563894
0.00674496
0.00733795
0.00838855
0.00872043
0.00763126
0.00701564
0.00662436
0.00520056
0.00390581
0.00272299
0.000986414
-0.00405703
-0.00484397
-0.00478302
-0.00403503
-0.00269884
-0.000921359
0.00103171
0.00300201
0.00483682
0.00619095
0.00698774
0.00770781
0.00788888
0.00704283
0.00647733
0.0062181
0.00502466
0.00362185
0.0024169
0.000901834
-0.0017895
-0.00298678
-0.00337923
-0.0030076
-0.00193543
-0.000484984
0.00105611
0.00272705
0.00449269
0.00588987
0.00654672
0.00694578
0.00722104
0.00680233
0.00622757
0.00583472
0.00473687
0.00333598
0.00220563
0.000876961
0.000230337
-0.0015001
-0.00226757
-0.00217027
-0.0013859
-0.000220803
0.00116157
0.00273646
0.00428096
0.00545544
0.00608316
0.00654088
0.00695163
0.00664299
0.0058779
0.00537765
0.00454764
0.00329648
0.00210048
0.000796213
0.00190119
-0.00041383
-0.00149177
-0.00161054
-0.00101442
3.24502e-05
0.00132328
0.00272898
0.0040553
0.00516315
0.00589698
0.00636013
0.00670333
0.0064352
0.00564418
0.00513995
0.00447949
0.00326561
0.00199227
0.000731356
0.00295969
0.000177184
-0.00109873
-0.00132677
-0.000779676
0.00022754
0.00139124
0.00264538
0.00395096
0.00514605
0.00588808
0.00617696
0.00643327
0.0063455
0.00567298
0.00512398
0.00439193
0.0031225
0.00191932
0.000753994
-0.251744
-0.260077
-0.268096
-0.275841
-0.28335
-0.290667
-0.29784
-0.30492
-0.31196
-0.319017
-0.326138
-0.33338
-0.340758
-0.34833
-0.356008
-0.363924
-0.371762
-0.380305
-0.389036
-0.402433
-0.171912
-0.176084
-0.180095
-0.183957
-0.187676
-0.19126
-0.194716
-0.198051
-0.20127
-0.204381
-0.20739
-0.21031
-0.213151
-0.215951
-0.218729
-0.221602
-0.224619
-0.228193
-0.232681
-0.240059
-0.113328
-0.116469
-0.119569
-0.122632
-0.125661
-0.128658
-0.131629
-0.134579
-0.13751
-0.140429
-0.143337
-0.146239
-0.149137
-0.152034
-0.154922
-0.157815
-0.160691
-0.163643
-0.16674
-0.170739
-0.0851376
-0.0872184
-0.0892543
-0.091249
-0.0932047
-0.0951251
-0.0970141
-0.0988754
-0.100713
-0.102529
-0.104329
-0.106116
-0.107893
-0.109667
-0.11144
-0.113225
-0.115033
-0.116924
-0.118984
-0.121648
-0.0620075
-0.0634576
-0.0648983
-0.0663322
-0.067761
-0.0691869
-0.0706123
-0.0720395
-0.0734706
-0.0749075
-0.0763525
-0.0778076
-0.0792746
-0.0807561
-0.082253
-0.0837708
-0.0853102
-0.0869018
-0.0885748
-0.0905854
-0.0474493
-0.0484964
-0.0495323
-0.0505579
-0.0515733
-0.0525795
-0.0535775
-0.054568
-0.0555522
-0.0565312
-0.057506
-0.0584783
-0.0594493
-0.0604209
-0.061395
-0.0623753
-0.0633654
-0.0643844
-0.0654637
-0.0667666
-0.0362142
-0.036983
-0.0377466
-0.0385058
-0.039261
-0.0400129
-0.0407623
-0.0415098
-0.042256
-0.0430014
-0.0437466
-0.0444922
-0.0452386
-0.0459863
-0.0467359
-0.0474883
-0.0482454
-0.0490142
-0.0498173
-0.0507367
-0.0281292
-0.0287204
-0.0293077
-0.0298915
-0.0304721
-0.0310498
-0.0316252
-0.0321986
-0.0327703
-0.0333409
-0.0339109
-0.0344806
-0.0350506
-0.0356213
-0.0361936
-0.0367679
-0.0373466
-0.0379323
-0.0385456
-0.0392279
-0.0218463
-0.0223
-0.0227505
-0.0231983
-0.0236435
-0.0240864
-0.0245274
-0.0249668
-0.0254049
-0.0258419
-0.0262784
-0.0267144
-0.0271505
-0.0275869
-0.0280242
-0.0284624
-0.0289036
-0.0293484
-0.0298138
-0.0303218
-0.0170663
-0.0174188
-0.0177687
-0.0181162
-0.0184613
-0.0188045
-0.0191457
-0.0194853
-0.0198234
-0.0201601
-0.0204956
-0.0208302
-0.0211639
-0.0214969
-0.0218295
-0.0221616
-0.0224949
-0.0228287
-0.0231767
-0.0235493
-0.0133175
-0.013589
-0.0138587
-0.0141268
-0.0143934
-0.0146588
-0.0149231
-0.0151864
-0.015449
-0.0157108
-0.0159721
-0.016233
-0.0164935
-0.0167537
-0.0170139
-0.0172738
-0.0175346
-0.0177956
-0.018067
-0.0183534
-0.0103343
-0.0105392
-0.0107432
-0.0109464
-0.0111492
-0.0113515
-0.0115536
-0.0117554
-0.0119571
-0.0121588
-0.0123606
-0.0125624
-0.0127644
-0.0129666
-0.0131691
-0.0133718
-0.0135754
-0.0137793
-0.0139913
-0.0142137
-0.00784077
-0.00798821
-0.00813595
-0.00828408
-0.0084328
-0.00858217
-0.00873225
-0.00888306
-0.00903464
-0.009187
-0.00934015
-0.00949407
-0.00964874
-0.00980412
-0.00996023
-0.0101169
-0.0102746
-0.0104328
-0.0105973
-0.0107695
-0.0056848
-0.00578433
-0.00588574
-0.00598908
-0.00609448
-0.00620192
-0.00631135
-0.00642272
-0.00653596
-0.00665101
-0.00676774
-0.00688605
-0.00700583
-0.0071269
-0.0072492
-0.00737246
-0.007497
-0.00762219
-0.00775238
-0.00788846
-0.00356887
-0.00362788
-0.00369132
-0.00375909
-0.00383119
-0.00390747
-0.00398773
-0.00407177
-0.00415939
-0.00425036
-0.00434447
-0.00444145
-0.00454108
-0.00464308
-0.00474725
-0.00485326
-0.00496122
-0.00507052
-0.00518441
-0.00530347
-0.00142456
-0.00145592
-0.00149502
-0.00154143
-0.00159486
-0.00165481
-0.00172083
-0.00179245
-0.0018692
-0.00195063
-0.00203629
-0.00212575
-0.00221857
-0.00231433
-0.00241267
-0.00251314
-0.00261564
-0.00271957
-0.00282727
-0.00293923
0.00142494
0.00138329
0.00133007
0.00126634
0.00119297
0.00111095
0.0010212
0.000924593
0.00082194
0.000714003
0.000601501
0.000485107
0.000365447
0.000243112
0.000118621
-7.48252e-06
-0.000134938
-0.000263118
-0.000393697
-0.000526981
0.00489729
0.00478017
0.00465176
0.00451355
0.00436682
0.00421286
0.00405287
0.00388791
0.00371894
0.00354685
0.00337241
0.00319636
0.00301934
0.00284194
0.00266466
0.002488
0.00231223
0.00213787
0.00196379
0.00178996
0.00995692
0.00957399
0.00919791
0.00882903
0.0084675
0.00811359
0.00776748
0.00742933
0.00709921
0.00677719
0.00646329
0.00615751
0.00585985
0.00557025
0.00528864
0.00501499
0.00474909
0.00449101
0.00423961
0.00399506
0.015397
0.0146576
0.0139529
0.013281
0.0126398
0.0120278
0.0114433
0.0108848
0.0103509
0.00984027
0.00935168
0.00888396
0.00843599
0.00800677
0.00759532
0.00720075
0.00682214
0.00645887
0.00610933
0.00577383
0.0374841
0.0366629
0.0358755
0.0351199
0.0343945
0.0336975
0.0330274
0.0323826
0.0317618
0.0311636
0.0305868
0.0300302
0.0294928
0.0289736
0.0284717
0.027986
0.0275158
0.0270606
0.0266182
0.0261902
0.0321356
0.0316685
0.0312075
0.0307529
0.030305
0.0298641
0.0294305
0.0290041
0.0285852
0.0281739
0.0277701
0.027374
0.0269855
0.0266047
0.0262314
0.0258657
0.0255073
0.0251565
0.0248118
0.0244745
0.0272425
0.0270383
0.026822
0.0265952
0.0263592
0.0261155
0.0258651
0.0256093
0.0253488
0.0250848
0.0248179
0.024549
0.0242787
0.0240077