/*--------------------------------*- C++ -*----------------------------------*\
  =========                 |
  \\      /  F ield         | OpenFOAM: The Open Source CFD Toolbox
   \\    /   O peration     | Website:  https://openfoam.org
    \\  /    A nd           | Version:  6.0
     \\/     M anipulation  |
\*---------------------------------------------------------------------------*/
FoamFile
{
    version     2.0;
    format      ascii;
    class       surfaceScalarField;
    location    "95";
    object      phi;
}
// * * * * * * * * * * * * * * * * * * * * * * * * * * * * * * * * * * * * * //

dimensions      [0 3 -1 0 0 0 0];

internalField   nonuniform List<scalar> 
7840
(
-6.04552e-06
0.000116238
-0.000110192
-2.11497e-05
0.000256516
-0.000241411
-4.29983e-05
0.000330915
-0.000309067
-6.96838e-05
0.000358729
-0.000332044
-9.96347e-05
0.000354755
-0.000324804
-0.000131568
0.000329925
-0.000297992
-0.000164425
0.000291946
-0.000259089
-0.000197312
0.000245997
-0.000213111
-0.000229451
0.000195409
-0.000163269
-0.000260167
0.000142243
-0.000111527
-0.000288877
8.77549e-05
-5.90456e-05
-0.000315105
3.27197e-05
-6.49146e-06
-0.00033851
-2.23425e-05
4.5748e-05
-0.000358916
-7.70392e-05
9.74447e-05
-0.000376342
-0.00013104
0.000148466
-0.000391038
-0.000184052
0.000198747
-0.000403495
-0.000235811
0.000248269
-0.000414453
-0.000286111
0.000297069
-0.000424895
-0.000334918
0.00034536
-0.000382339
0.000393463
-0.000436019
-5.36917e-06
0.000121607
-1.92227e-05
0.000270369
-3.97324e-05
0.000351425
-6.52589e-05
0.000384256
-9.43517e-05
0.000383848
-0.000125762
0.000361336
-0.000158419
0.000324603
-0.000191393
0.000278971
-0.000223867
0.000227882
-0.000255118
0.000173494
-0.000284515
0.000117152
-0.000311534
5.97389e-05
-0.000335781
1.90397e-06
-0.000357023
-5.57969e-05
-0.000375231
-0.000112832
-0.000390613
-0.00016867
-0.000403635
-0.000222789
-0.00041503
-0.000274716
-0.0004258
-0.000324148
-0.000370968
-0.000437172
-4.43462e-06
0.000126041
-1.64568e-05
0.000282391
-3.48348e-05
0.000369803
-5.82646e-05
0.000407686
-8.54582e-05
0.000411041
-0.000115226
0.000391103
-0.000146499
0.000355877
-0.000178327
0.0003108
-0.000209861
0.000259416
-0.00024034
0.000203973
-0.000269091
0.000145904
-0.000295538
8.6186e-05
-0.000319221
2.55863e-05
-0.000339828
-3.519e-05
-0.000357239
-9.542e-05
-0.000371571
-0.000154339
-0.000383206
-0.000211155
-0.000392818
-0.000265104
-0.000401393
-0.000315573
-0.000362177
-0.000410184
-3.25035e-06
0.000129292
-1.28579e-05
0.000291999
-2.82851e-05
0.00038523
-4.86268e-05
0.000428028
-7.28008e-05
0.000435215
-9.97044e-05
0.000418007
-0.000128294
0.000384466
-0.000157611
0.000340117
-0.000186787
0.000288592
-0.000215037
0.000232223
-0.000241654
0.00017252
-0.00026601
0.000110542
-0.000287573
4.71496e-05
-0.000305934
-1.68297e-05
-0.000320845
-8.05088e-05
-0.000332276
-0.000142907
-0.000340464
-0.000202967
-0.00034596
-0.000259608
-0.000349689
-0.000311843
-0.000358929
-0.000352938
-1.84747e-06
0.000131139
-8.50141e-06
0.000298653
-2.01888e-05
0.000396918
-3.64571e-05
0.000444296
-5.6471e-05
0.000455229
-7.92463e-05
0.000440782
-0.000103785
0.000409005
-0.00012914
0.000365472
-0.00015444
0.000313892
-0.000178887
0.00025667
-0.000201753
0.000195386
-0.00022237
0.00013116
-0.000240139
6.49182e-05
-0.000254542
-2.42665e-06
-0.000265183
-6.98674e-05
-0.000271845
-0.000136246
-0.000274556
-0.000200255
-0.000273684
-0.00026048
-0.000270044
-0.000315483
-0.000364012
-0.000264961
-2.80575e-07
0.00013142
-3.53388e-06
0.000301906
-1.07842e-05
0.000404168
-2.20673e-05
0.000455579
-3.68304e-05
0.000469992
-5.42374e-05
0.000458189
-7.33602e-05
0.000428127
-9.3282e-05
0.000385394
-0.000113143
0.000333753
-0.00013215
0.000275678
-0.000149571
0.000212806
-0.000164717
0.000146305
-0.000176935
7.71367e-05
-0.000185614
6.25286e-06
-0.000190209
-6.52727e-05
-0.000190294
-0.000136161
-0.000185655
-0.000204895
-0.000176413
-0.000269722
-0.000163221
-0.000328674
-0.000379789
-0.000147444
1.37665e-06
0.000130043
1.83331e-06
0.000301449
-4.36968e-07
0.000406438
-5.96936e-06
0.000461111
-1.45181e-05
0.000478541
-2.54222e-05
0.000469093
-3.78468e-05
0.000440552
-5.09243e-05
0.000398471
-6.38237e-05
0.000346652
-7.57726e-05
0.000287626
-8.60515e-05
0.000223085
-9.39739e-05
0.000154227
-9.88646e-05
8.20274e-05
-0.000100047
7.43562e-06
-9.68534e-05
-6.84667e-05
-8.86655e-05
-0.000144349
-7.5013e-05
-0.000218547
-5.57359e-05
-0.000288999
-3.12653e-05
-0.000353145
-0.000408067
-2.98779e-06
3.03486e-06
0.000127008
7.33418e-06
0.00029715
1.03754e-05
0.000403397
1.11421e-05
0.000460345
9.56321e-06
0.00048012
6.10369e-06
0.000472553
1.48327e-06
0.000445172
-3.49814e-06
0.000403453
-8.05355e-06
0.000351208
-1.14452e-05
0.000291018
-1.29841e-05
0.000224624
-1.20078e-05
0.000153251
-7.85061e-06
7.78701e-05
1.85366e-07
-6.00355e-07
1.28421e-05
-8.11234e-05
3.08828e-05
-0.000162389
5.50067e-05
-0.000242671
8.56655e-05
-0.000319658
0.000122702
-0.000390182
-0.000450113
0.000164748
4.5969e-06
0.000122411
1.26686e-05
0.000289078
2.1096e-05
0.00039497
2.84315e-05
0.000453009
3.4295e-05
0.000474257
3.89435e-05
0.000467904
4.29631e-05
0.000441153
4.70688e-05
0.000399347
5.199e-05
0.000346286
5.84193e-05
0.000284589
6.70041e-05
0.000216039
7.8366e-05
0.000141889
9.31344e-05
6.31017e-05
0.000111986
-1.94522e-05
0.000135677
-0.000104814
0.000165047
-0.000191759
0.000200959
-0.000278583
0.000244127
-0.000362826
0.000294699
-0.000440754
-0.000506798
0.000351385
5.96675e-06
0.000116445
1.75284e-05
0.000277517
3.11352e-05
0.000381363
4.49884e-05
0.000439156
5.84272e-05
0.000460818
7.14997e-05
0.000454832
8.46458e-05
0.000428007
9.84811e-05
0.000385512
0.000113667
0.000331101
0.000130844
0.000267412
0.000150615
0.000196268
0.000173555
0.00011895
0.000200243
3.64134e-05
0.000231306
-5.05151e-05
0.00026746
-0.000140969
0.000309544
-0.000233842
0.000358496
-0.000327535
0.000415218
-0.000419548
0.000480153
-0.00050569
-0.000578792
0.000552147
7.05912e-06
0.000109385
2.16285e-05
0.000262947
3.99277e-05
0.000363064
5.99151e-05
0.000419169
8.06969e-05
0.000440036
0.000102126
0.000433403
0.000124491
0.000405642
0.0001483
0.000361702
0.00017414
0.000305261
0.0002026
0.000238952
0.000234241
0.000164627
0.0002696
8.35907e-05
0.000309209
-3.19555e-06
0.000353633
-9.49396e-05
0.000403517
-0.000190853
0.000459628
-0.000289953
0.000522876
-0.000390783
0.000594239
-0.000490911
0.000674389
-0.00058584
-0.000666743
0.000762341
7.80846e-06
0.000101577
2.4737e-05
0.000246019
4.69959e-05
0.000340805
7.24277e-05
0.000393737
9.99732e-05
0.00041249
0.000129318
0.000404059
0.00016061
0.00037435
0.00019425
0.000328062
0.000230752
0.000268758
0.000270661
0.000199043
0.00031451
0.000120778
0.000362814
3.52864e-05
0.000416076
-5.64573e-05
0.000474807
-0.000153671
0.000539563
-0.000255608
0.000610987
-0.000361377
0.000689857
-0.000469653
0.000777079
-0.000578133
0.000873423
-0.000682184
-0.000771387
0.000978067
8.17654e-06
9.34004e-05
2.67047e-05
0.000227491
5.2011e-05
0.000315498
8.19607e-05
0.000363787
0.000115413
0.000379039
0.000151932
0.000367539
0.000191551
0.000334731
0.00023458
0.000285034
0.000281473
0.000221865
0.000332748
0.000147769
0.000388932
6.4593e-05
0.000450543
-2.63242e-05
0.000518072
-0.000123987
0.000591991
-0.000227589
0.000672753
-0.00033637
0.00076083
-0.000449454
0.000856762
-0.000565586
0.000961213
-0.000682584
0.00107486
-0.000795828
-0.000893512
0.00119698
8.15788e-06
8.52425e-05
2.74874e-05
0.000208161
5.48449e-05
0.000288141
8.82595e-05
0.000330373
0.000126604
0.000340694
0.000169388
0.000324754
0.000216574
0.000287545
0.000268413
0.000233195
0.000325333
0.000164945
0.00038785
8.52512e-05
0.000456513
-4.06965e-06
0.000531858
-0.000101669
0.000614378
-0.000206507
0.000704493
-0.000317704
0.000802527
-0.000434405
0.000908713
-0.000555639
0.00102323
-0.000680107
0.00114633
-0.000805677
0.00127834
-0.000927838
-0.00103374
0.00141857
7.7829e-06
7.74596e-05
2.71597e-05
0.000188784
5.56058e-05
0.000259695
9.14487e-05
0.00029453
0.000133679
0.000298464
0.000181833
0.0002766
0.000235866
0.000233513
0.000296026
0.000173035
0.000362756
9.82153e-05
0.000436604
1.14024e-05
0.000518157
-8.56219e-05
0.000607969
-0.000191481
0.000706507
-0.000305046
0.000814088
-0.000425285
0.000930825
-0.000551142
0.00105661
-0.00068142
0.00119112
-0.000814621
0.00133399
-0.00094855
0.00148501
-0.00107885
-0.0011921
0.00164337
7.11807e-06
7.03415e-05
2.59191e-05
0.000169983
5.46504e-05
0.000230963
9.20602e-05
0.00025712
0.000137364
0.00025316
0.000190217
0.000223747
0.000250648
0.000173083
0.000318967
0.000104716
0.000395677
2.15046e-05
0.000481382
-7.43021e-05
0.000576691
-0.000180931
0.000682132
-0.000296922
0.000798059
-0.000420972
0.000924561
-0.000551788
0.0010614
-0.000687979
0.00120795
-0.000827975
0.00136327
-0.000969939
0.00152622
-0.0011115
0.00169584
-0.00124848
-0.00136738
0.00187112
6.26276e-06
6.40788e-05
2.4075e-05
0.000152171
5.25662e-05
0.000202472
9.10087e-05
0.000218677
0.000138946
0.000205223
0.00019625
0.000166443
0.000263104
0.000106228
0.000339942
2.78774e-05
0.000427355
-6.59078e-05
0.000525981
-0.000172928
0.000636391
-0.000291341
0.000758965
-0.000419496
0.000893774
-0.000555781
0.00104048
-0.000698498
0.00119829
-0.000845784
0.00136589
-0.000995575
0.00154155
-0.0011456
0.0017233
-0.00129325
0.00190942
-0.0014346
-0.00155651
0.00209855
5.34164e-06
5.87371e-05
2.20235e-05
0.000135489
5.01194e-05
0.000174376
8.95064e-05
0.00017929
0.000140146
0.000154583
0.000202214
0.000104376
0.000276116
3.23264e-05
0.000362437
-5.84441e-05
0.000461836
-0.000165307
0.000574909
-0.000286001
0.000702038
-0.00041847
0.000843249
-0.000560707
0.000998086
-0.000710618
0.00116553
-0.000865941
0.00134397
-0.00102422
0.00153125
-0.00118286
0.0017248
-0.00133914
0.00192187
-0.00149032
0.00212008
-0.00163281
-0.00175419
0.00231775
4.49233e-06
5.42448e-05
2.02053e-05
0.000119776
4.81693e-05
0.000146412
8.89176e-05
0.000138542
0.000142897
0.000100603
0.000210642
3.66305e-05
0.000292808
-4.98399e-05
0.000390106
-0.000155742
0.000503167
-0.000278368
0.000632377
-0.00041521
0.000777703
-0.000563796
0.000938543
-0.000721548
0.00111363
-0.000885703
0.00130099
-0.0010533
0.001498
-0.00122124
0.00170154
-0.00138639
0.00190813
-0.00154574
0.00211441
-0.0016966
0.00231769
-0.00183609
-0.00195282
0.00251632
3.84897e-06
5.03958e-05
1.90518e-05
0.000104573
4.75583e-05
0.000117906
9.05737e-05
9.55266e-05
0.000149057
4.21196e-05
0.000223912
-3.82243e-05
0.000316003
-0.000141931
0.000426059
-0.000265797
0.000554504
-0.000406813
0.000701269
-0.000561975
0.000865616
-0.000728143
0.00104602
-0.000901957
0.00124016
-0.00107984
0.00144496
-0.00125809
0.00165672
-0.00143301
0.00187139
-0.00160105
0.00208471
-0.00175907
0.00229246
-0.00190434
0.00249048
-0.00203411
-0.00214058
0.00267824
3.52389e-06
4.68719e-05
1.89278e-05
8.91696e-05
4.89971e-05
8.78363e-05
9.55819e-05
4.89419e-05
0.00016013
-2.24282e-05
0.000243852
-0.000121947
0.000347704
-0.000245782
0.000472239
-0.000390332
0.000617415
-0.000551989
0.000782403
-0.000726963
0.00096546
-0.0009112
0.00116391
-0.0011004
0.00137421
-0.00129015
0.00159221
-0.00147609
0.00181333
-0.00165413
0.00203299
-0.00182071
0.00224679
-0.00197287
0.00245082
-0.00210837
0.00264231
-0.0022256
-0.00232266
0.00282439
3.59553e-06
4.32764e-05
2.00892e-05
7.2676e-05
5.29766e-05
5.49489e-05
0.000104678
-2.75931e-06
0.000177042
-9.47926e-05
0.000271456
-0.000216361
0.000388759
-0.000363085
0.000529059
-0.000530633
0.000691534
-0.000714464
0.000874284
-0.000909713
0.00107431
-0.00111123
0.00128764
-0.00131373
0.00150956
-0.00151207
0.00173497
-0.0017015
0.0019588
-0.00187796
0.00217632
-0.00203823
0.00238354
-0.0021801
0.00257749
-0.00230231
0.00275653
-0.00240465
-0.00248722
0.00292109
4.09704e-06
3.91794e-05
2.26533e-05
5.41197e-05
5.97162e-05
1.7886e-05
0.000118152
-6.11946e-05
0.000200058
-0.000176699
0.000306787
-0.000323089
0.000438786
-0.000495084
0.000595397
-0.000687244
0.000774692
-0.000893758
0.000973438
-0.00110846
0.00118724
-0.00132503
0.00141085
-0.00153734
0.00163857
-0.00173979
0.00186475
-0.00192768
0.00208421
-0.00209741
0.00229258
-0.00224661
0.0024866
-0.00237411
0.00266415
-0.00247986
0.0028242
-0.0025647
-0.00263035
0.00296734
5.02116e-06
3.41582e-05
2.66079e-05
3.25329e-05
6.91772e-05
-2.46832e-05
0.000135869
-0.000127886
0.000228818
-0.000269648
0.000349062
-0.000443333
0.000496334
-0.000642356
0.000668868
-0.000859779
0.000863348
-0.00108824
0.00107505
-0.00132016
0.0012982
-0.00154818
0.00152648
-0.00176562
0.00175361
-0.00196692
0.00197385
-0.00214792
0.00218245
-0.00230601
0.0023759
-0.00244006
0.00255201
-0.00255023
0.00270989
-0.00263774
0.00284974
-0.00270455
-0.00275362
0.00297302
6.32968e-06
2.78285e-05
3.18387e-05
7.02385e-06
8.11153e-05
-7.39598e-05
0.00015736
-0.000204131
0.000262474
-0.000374763
0.00039686
-0.000577719
0.000559179
-0.000804676
0.000746251
-0.00104685
0.000953176
-0.00129516
0.00117373
-0.00154071
0.00140096
-0.00177541
0.00162789
-0.00199255
0.00184813
-0.00218717
0.00205645
-0.00235624
0.002249
-0.00249856
0.00242347
-0.00261452
0.00257896
-0.00270572
0.00271581
-0.00277459
0.00283528
-0.00282403
-0.00285766
0.00293932
7.96806e-06
1.98605e-05
3.81706e-05
-2.31786e-05
9.51574e-05
-0.000130947
0.000181938
-0.000290911
0.000299869
-0.000492694
0.000448358
-0.000726208
0.000624657
-0.000980975
0.000823926
-0.00124612
0.00103963
-0.00151086
0.00126421
-0.00176529
0.00148993
-0.00200113
0.00170966
-0.00221228
0.00191752
-0.00239503
0.00210924
-0.00254796
0.00228226
-0.00267158
0.00243564
-0.0027679
0.00256977
-0.00283986
0.00268608
-0.0028909
0.00278666
-0.00292461
-0.00294491
0.00287391
9.87917e-06
9.98132e-06
4.54066e-05
-5.87061e-05
0.000110872
-0.000196412
0.000208809
-0.000388848
0.000339683
-0.000623568
0.000501542
-0.000888066
0.000689934
-0.00116937
0.000898239
-0.00145442
0.00111839
-0.00173102
0.00134187
-0.00198877
0.00156068
-0.00221994
0.00176814
-0.00241974
0.00195936
-0.00258625
0.00213143
-0.00272002
0.00228324
-0.00282339
0.00241518
-0.00289984
0.00252877
-0.00295345
0.00262624
-0.00298836
0.00271014
-0.00300851
-0.00301781
0.00278304
1.20124e-05
-2.03107e-06
5.33547e-05
-0.000100048
0.000127817
-0.000270874
0.000237142
-0.000498173
0.000380536
-0.000766961
0.000554346
-0.00106188
0.000752217
-0.00136724
0.000965778
-0.00166799
0.00118575
-0.00195099
0.00140315
-0.00220617
0.00161031
-0.0024271
0.00180155
-0.00261097
0.00197338
-0.00275808
0.00212439
-0.00287104
0.00225489
-0.00295389
0.00236645
-0.00301139
0.00246138
-0.00304838
0.00254238
-0.00306936
0.0026122
-0.00307834
-0.00307897
0.00267336
1.43264e-05
-1.63574e-05
6.18365e-05
-0.000147559
0.000145557
-0.000354595
0.000266098
-0.000618714
0.00042104
-0.000921903
0.000604751
-0.00124559
0.000808901
-0.00157139
0.00102359
-0.00188268
0.0012388
-0.00216619
0.00144567
-0.00241305
0.00163746
-0.00261889
0.00180989
-0.0027834
0.00196105
-0.00290924
0.00209103
-0.00300102
0.00220136
-0.00306422
0.00229444
-0.00310448
0.00237311
-0.00312704
0.00244021
-0.00313647
0.00249843
-0.00313656
-0.0031306
0.00255007
1.67866e-05
-3.3144e-05
7.06832e-05
-0.000201455
0.000163661
-0.000447573
0.000294837
-0.000749891
0.000459829
-0.00108689
0.000650851
-0.00143661
0.000857701
-0.00177824
0.00106935
-0.00209433
0.00127561
-0.00237245
0.00146837
-0.00260581
0.00164226
-0.00279278
0.00179461
-0.00293575
0.00192511
-0.00303974
0.00203515
-0.00311106
0.00212719
-0.00315625
0.00220415
-0.00318145
0.00226905
-0.00319194
0.00232467
-0.00319209
0.00237345
-0.00318534
-0.00317454
0.00241739
1.93604e-05
-5.25044e-05
7.97252e-05
-0.00026182
0.000181688
-0.000549535
0.000322516
-0.000890719
0.00049559
-0.00125997
0.000690934
-0.00163195
0.000896765
-0.00198407
0.00110146
-0.00229902
0.00129528
-0.00256627
0.00147136
-0.00278189
0.00162597
-0.00294739
0.00175814
-0.00306792
0.00186895
-0.00315056
0.00196083
-0.00320294
0.0020368
-0.00323223
0.00210004
-0.00324468
0.00215348
-0.00324538
0.00219968
-0.00323829
0.00224077
-0.00322642
-0.00321215
0.00227838
2.2012e-05
-7.45164e-05
8.87814e-05
-0.000328589
0.000199182
-0.000659936
0.000348297
-0.00103983
0.000527101
-0.00143877
0.000723563
-0.00182842
0.000924761
-0.00218527
0.00111909
-0.00249335
0.00129781
-0.002745
0.00145569
-0.00293976
0.00159072
-0.00308242
0.00170348
-0.00318067
0.0017962
-0.00324328
0.00187199
-0.00327872
0.00193416
-0.0032944
0.00198586
-0.00329638
0.00202982
-0.00328934
0.00206826
-0.00327673
0.00210295
-0.00326111
-0.00324441
0.0021352
2.46991e-05
-9.92155e-05
9.76549e-05
-0.000401545
0.000215673
-0.000777954
0.000371377
-0.00119554
0.000553294
-0.00162069
0.000747645
-0.00202277
0.000940926
-0.00237855
0.00112215
-0.00267457
0.00128403
-0.00290688
0.00142311
-0.00307884
0.00153907
-0.00319838
0.00163378
-0.00327538
0.0017103
-0.00331981
0.00177211
-0.00334053
0.00182257
-0.00334486
0.00186462
-0.00333843
0.00190066
-0.00332538
0.00193258
-0.00330865
0.0019618
-0.00329033
-0.00327196
0.00198935
2.73718e-05
-0.000126587
0.000106134
-0.000480307
0.000230693
-0.000902513
0.000391018
-0.00135586
0.000573309
-0.00180298
0.000762481
-0.00221194
0.000945055
-0.00256112
0.00111118
-0.0028407
0.00125532
-0.00305101
0.00137578
-0.00319931
0.00147375
-0.00329635
0.00155208
-0.00335371
0.00161435
-0.00338208
0.00166415
-0.00339033
0.00170468
-0.0033854
0.00173858
-0.00337233
0.00176791
-0.0033547
0.0017942
-0.00333494
0.00181857
-0.00331471
-0.0032952
0.00184182
2.99736e-05
-0.000156561
0.000113999
-0.000564332
0.000243793
-0.00103231
0.000406593
-0.00151866
0.000586537
-0.00198292
0.000767777
-0.00239318
0.000937444
-0.00273079
0.00108722
-0.00299048
0.00121342
-0.00317721
0.00131602
-0.00330191
0.0013974
-0.00337773
0.00146111
-0.00341743
0.00151097
-0.00343193
0.00155047
-0.00342983
0.00158254
-0.00341746
0.00160945
-0.00339925
0.00163293
-0.00337817
0.00165419
-0.0033562
0.00167411
-0.00333463
-0.00331437
0.00169327
3.24439e-05
-0.000189005
0.000121033
-0.000652922
0.000254573
-0.00116585
0.000417617
-0.00168171
0.00059264
-0.00215795
0.00076362
-0.00256416
0.000918795
-0.00288596
0.00105163
-0.00312332
0.00116025
-0.00328583
0.00124609
-0.00338775
0.00131244
-0.00344408
0.00136325
-0.00346823
0.00140233
-0.00347101
0.00143295
-0.00346045
0.00145768
-0.0034422
0.00147847
-0.00342003
0.00149668
-0.00339639
0.0015133
-0.00337282
0.00152898
-0.00335031
-0.00332955
0.00154416
3.47201e-05
-0.000223725
0.000127034
-0.000745235
0.000262699
-0.00130151
0.000423769
-0.00184278
0.000591552
-0.00232573
0.000750418
-0.00272303
0.0008901
-0.00302565
0.00100594
-0.00323916
0.00109775
-0.00337764
0.00116814
-0.00345813
0.001221
-0.00349694
0.00126044
-0.00350768
0.00129012
-0.00350069
0.00131298
-0.00348331
0.00133124
-0.00346046
0.0013465
-0.00343528
0.00135984
-0.00340973
0.00137203
-0.00338501
0.00138358
-0.00336186
-0.00334077
0.0013948
3.6742e-05
-0.000260467
0.000131821
-0.000840314
0.00026792
-0.00143761
0.0004249
-0.00199976
0.000583449
-0.00248428
0.000728832
-0.00286841
0.000852532
-0.00314935
0.000951746
-0.00333837
0.00102774
-0.00345363
0.00108402
-0.00351441
0.00112485
-0.00353777
0.00115427
-0.0035371
0.00117567
-0.00352209
0.00119164
-0.00349928
0.00120404
-0.00347286
0.00121417
-0.00344541
0.00122288
-0.00341844
0.00123076
-0.00339289
0.00123819
-0.00336929
-0.003348
0.00124542
3.84542e-05
-0.000298921
0.000135254
-0.000937114
0.00027009
-0.00157245
0.000421041
-0.00215071
0.000568728
-0.00263197
0.000699719
-0.0029994
0.000807368
-0.003257
0.000890605
-0.00342161
0.00095191
-0.00351494
0.000995405
-0.00355791
0.00102547
-0.00356783
0.00104599
-0.00355761
0.00105999
-0.0035361
0.00106972
-0.00350901
0.00107669
-0.00347984
0.00108194
-0.00345065
0.00108614
-0.00342265
0.00108975
-0.0033965
0.00109305
-0.00337259
-0.00335117
0.00109623
3.98086e-05
0.000137226
0.000269148
0.000412355
0.000547913
0.000663996
0.000755844
0.000823933
0.000871691
0.000903611
0.000924035
0.00093655
0.000943841
0.000947778
0.000949604
0.000950128
0.000949878
0.000949202
0.000948322
0.000947372
3.54021e-05
0.000215064
0.000126369
0.000705981
0.000255911
0.00122388
0.000404775
0.00172476
0.0005548
0.00217051
0.000692259
0.00253741
0.000809262
0.00281798
0.000903239
0.00301767
0.000975397
0.00314937
0.00102902
0.00322862
0.00106807
0.00327017
0.00109635
0.00328636
0.001117
0.00328659
0.00113244
0.00327749
0.00114437
0.00326351
0.00115399
0.00324749
0.00116207
0.00323119
0.00116914
0.00321565
0.00117552
0.0032015
0.0031892
0.00118139
3.35117e-05
0.000181553
0.00012209
0.000617403
0.000251731
0.00109424
0.000405239
0.00157125
0.000564982
0.00201077
0.000716322
0.00238607
0.000849664
0.00268464
0.000960636
0.00290669
0.00104902
0.00306099
0.00111723
0.00316041
0.00116889
0.0032185
0.00120783
0.00324743
0.00123746
0.00325696
0.00126052
0.00325442
0.0012791
0.00324494
0.00129465
0.00323194
0.00130818
0.00321765
0.00132039
0.00320344
0.0013317
0.00319019
0.00317851
0.00134238
3.13301e-05
0.000150223
0.000116481
0.000532252
0.000244439
0.000966281
0.000400401
0.00141529
0.000567818
0.00184335
0.00073165
0.00222224
0.000880843
0.00253545
0.0010092
0.00277833
0.00111487
0.00295532
0.0011991
0.00307618
0.0012649
0.0031527
0.00131593
0.00319639
0.00135575
0.00321714
0.00138742
0.00322275
0.00141335
0.00321901
0.00143534
0.00320995
0.00145467
0.00319832
0.00147222
0.00318589
0.0014886
0.00317381
0.00316295
0.00150417
2.89235e-05
0.000121299
0.000109729
0.000451446
0.000234281
0.000841729
0.000390375
0.00125919
0.000563056
0.00167067
0.000737452
0.00204784
0.000901447
0.00237145
0.00104713
0.00263265
0.00117086
0.00283159
0.00127247
0.00297457
0.00135405
0.00307112
0.00141884
0.0031316
0.00147037
0.00316561
0.00151191
0.00318122
0.00154618
0.00318473
0.00157534
0.00318079
0.00160098
0.00317268
0.00162424
0.00316263
0.00164591
0.00315214
0.00314234
0.00166651
2.6361e-05
9.49381e-05
0.000102053
0.000375753
0.000221607
0.000722176
0.000375484
0.00110531
0.000550732
0.00149543
0.00073324
0.00186533
0.000910346
0.00219434
0.00107268
0.00247032
0.00121482
0.00268945
0.00133496
0.00285444
0.00143395
0.00297213
0.00151434
0.00305121
0.00157936
0.00310058
0.00163235
0.00312823
0.00167629
0.00314079
0.00171365
0.00314343
0.00174636
0.00313997
0.00177587
0.00313312
0.00180321
0.0031248
0.00311645
0.00182911
2.3712e-05
7.12261e-05
9.36902e-05
0.000305775
0.000206841
0.000609025
0.000356222
0.000955933
0.00053116
0.00132049
0.000718857
0.00167764
0.000906698
0.0020065
0.00108428
0.00229274
0.00124454
0.00252919
0.00138391
0.00271507
0.00150179
0.00285425
0.00159965
0.00295335
0.00168018
0.00302004
0.00174655
0.00306187
0.00180183
0.00308551
0.00184879
0.00309648
0.00188967
0.00309909
0.00192624
0.00309654
0.00195985
0.00309119
0.00308483
0.00199147
2.10435e-05
5.01826e-05
8.48863e-05
0.000241932
0.000190468
0.000503443
0.000333254
0.000813147
0.000504967
0.00114877
0.000694568
0.00148803
0.000890109
0.00181096
0.00108071
0.00210214
0.00125797
0.00235192
0.00141663
0.0025564
0.00155443
0.00271645
0.00167152
0.00283627
0.00176968
0.00292188
0.00185162
0.00297993
0.00192033
0.0030168
0.00197869
0.00303812
0.00202923
0.00304854
0.00207406
0.00305172
0.00211483
0.00305042
0.00304682
0.00215284
1.84178e-05
3.17648e-05
7.58841e-05
0.000184466
0.000173006
0.000406321
0.000307371
0.000678782
0.00047306
0.000983086
0.000661091
0.0013
0.000860743
0.00161131
0.00106127
0.00190161
0.00125346
0.00215974
0.00143056
0.0023793
0.00158864
0.00255838
0.00172629
0.00269862
0.00184409
0.00280408
0.00194395
0.00288006
0.00202848
0.00293227
0.0021005
0.00296611
0.00216268
0.00298636
0.0022174
0.002997
0.00226664
0.00300118
0.00300141
0.00231205
1.58883e-05
1.58765e-05
6.69069e-05
0.000133447
0.000154963
0.000318265
0.00027943
0.000554316
0.000436566
0.000825949
0.000619569
0.001117
0.000819379
0.0014115
0.00102601
0.00169498
0.00123001
0.00195573
0.0014236
0.00218571
0.00160131
0.00238066
0.00176012
0.00253982
0.00189914
0.00266505
0.00201918
0.00276003
0.00212211
0.00282934
0.0022104
0.00287782
0.00228667
0.00291009
0.00235345
0.00293022
0.00241298
0.00294166
0.00294713
0.00246725
1.34967e-05
2.3798e-06
5.81439e-05
8.88002e-05
0.000136808
0.0002396
0.000250285
0.000440839
0.000396737
0.000679497
0.000571488
0.000942249
0.000767394
0.0012156
0.000975758
0.00148661
0.00118753
0.00174397
0.00139444
0.00197879
0.00158989
0.00218522
0.00176933
0.00236037
0.00193035
0.00250404
0.00207234
0.00261803
0.00219614
0.00270554
0.00230352
0.00277045
0.00239676
0.00281685
0.0024783
0.00284868
0.0025505
0.00286945
0.00288196
0.00261567
1.12684e-05
-8.88856e-06
4.97357e-05
5.03328e-05
0.000118929
0.000170407
0.000220719
0.000339049
0.000354836
0.000545381
0.000518533
0.000778552
0.000706652
0.00102748
0.000912135
0.00128113
0.0011269
0.0015292
0.00134285
0.00176285
0.00155275
0.00197531
0.00175091
0.00216221
0.00193343
0.00232151
0.00209824
0.00245323
0.00224483
0.00255894
0.00237396
0.00264132
0.0024872
0.00270361
0.00258663
0.00274925
0.0026745
0.00278158
0.00280324
0.00275322
9.21031e-06
-1.80989e-05
4.17636e-05
1.77796e-05
0.000101605
0.000110566
0.000191372
0.000249282
0.000312012
0.00042474
0.000462422
0.000628142
0.000639312
0.000850586
0.000837423
0.00108302
0.00105006
0.00131656
0.00126987
0.00154304
0.00148964
0.00175554
0.00170301
0.00194884
0.00190495
0.00211958
0.00209199
0.00226619
0.00226221
0.00238872
0.00241508
0.00248846
0.00255113
0.00256755
0.00267173
0.00262866
0.00277866
0.00267465
0.00270768
0.00287423
7.30973e-06
-2.54086e-05
3.42449e-05
-9.15561e-06
8.49899e-05
5.98209e-05
0.000162698
0.000171573
0.000269211
0.000318228
0.000404726
0.000492627
0.00056759
0.000687723
0.000754297
0.000896312
0.000959763
0.0011111
0.00117782
0.00132498
0.00140185
0.00153151
0.00162545
0.00172524
0.00184295
0.00190207
0.00204983
0.00205931
0.00224286
0.00219569
0.00242014
0.00231118
0.00258097
0.00240673
0.00272562
0.00248401
0.00285508
0.00254518
0.00259153
0.00297123
5.53668e-06
-3.09453e-05
2.71404e-05
-3.07593e-05
6.91217e-05
1.78396e-05
0.00013496
0.000105735
0.000227111
0.000226077
0.000346746
0.000372992
0.000493531
0.000540937
0.000665526
0.000724317
0.00085926
0.000917362
0.00107
0.00111424
0.00129218
0.00130933
0.00151992
0.00149751
0.00174751
0.00167448
0.00196987
0.00183695
0.00218284
0.00198272
0.00238332
0.0021107
0.0025693
0.00222075
0.0027398
0.00231351
0.0028947
0.00239028
0.00245109
0.00303514
3.85078e-06
-3.47961e-05
2.0373e-05
-4.72815e-05
5.39487e-05
-1.57362e-05
0.000108254
5.14299e-05
0.000186139
0.000148192
0.000289452
0.000269678
0.000418856
0.000411534
0.000573688
0.000569484
0.000751938
0.000739113
0.000950342
0.000915838
0.00116464
0.00109504
0.00138989
0.00127225
0.00162093
0.00144344
0.00185269
0.00160518
0.00208059
0.00175482
0.00230074
0.00189055
0.00251008
0.00201141
0.00270641
0.00211718
0.00288834
0.00220835
0.00228326
0.00305617
2.21145e-06
-3.70075e-05
1.3858e-05
-5.8928e-05
3.93855e-05
-4.12637e-05
8.25845e-05
8.2309e-06
0.00014654
8.4236e-05
0.000233535
0.000182684
0.000344922
0.000300146
0.000481011
0.000433396
0.000640988
0.000579136
0.000822931
0.000733895
0.00102391
0.000894055
0.0012402
0.00105597
0.00146753
0.00121611
0.00170142
0.0013713
0.00193744
0.0015188
0.00217148
0.00165651
0.00239991
0.00178298
0.00261962
0.00189747
0.00282813
0.00199984
0.00208648
0.00302491
5.89698e-07
-3.75972e-05
7.53708e-06
-6.58754e-05
2.53752e-05
-5.91018e-05
5.79625e-05
-2.43565e-05
0.000108503
3.36957e-05
0.000179524
0.000111662
0.00027282
0.000206851
0.000389369
0.000316847
0.000529266
0.000439239
0.000691685
0.000571475
0.000874912
0.000710828
0.00107644
0.000854441
0.00129312
0.000999426
0.00152142
0.001143
0.00175757
0.00128265
0.00199786
0.00141621
0.00223874
0.0015421
0.00247689
0.00165932
0.00270927
0.00176746
0.00186092
0.00293483
-1.02166e-06
-3.65756e-05
1.40826e-06
-6.83054e-05
1.19464e-05
-6.964e-05
3.44922e-05
-4.69022e-05
7.22857e-05
-4.09788e-06
0.000127959
5.59888e-05
0.000203542
0.000131268
0.000300429
0.00021996
0.000419334
0.000320335
0.000560248
0.000430561
0.000722437
0.000548639
0.000904476
0.000672402
0.00110434
0.000799559
0.00131957
0.000927779
0.00154741
0.00105481
0.00178504
0.00117858
0.00202973
0.00129741
0.00227895
0.0014101
0.00253029
0.00151612
0.00160901
0.00278219
-2.60257e-06
-3.3973e-05
-4.45856e-06
-6.64494e-05
-7.54359e-07
-7.33442e-05
1.24309e-05
-6.00875e-05
3.83131e-05
-2.998e-05
7.95225e-05
1.47793e-05
0.000138168
7.26225e-05
0.000215851
0.000142277
0.00031365
0.000222535
0.000432096
0.000312115
0.00057115
0.000409585
0.000730223
0.00051333
0.000908222
0.000621559
0.00110367
0.000732331
0.00131487
0.000843607
0.00154013
0.00095332
0.00177812
0.00105943
0.00202838
0.00115984
0.00229198
0.00125253
0.00133153
0.00256946
-4.10688e-06
-2.98661e-05
-9.92499e-06
-6.06313e-05
-1.24665e-05
-7.08027e-05
-7.80733e-06
-6.47466e-05
7.19761e-06
-4.4985e-05
3.5098e-05
-1.31211e-05
7.7963e-05
2.97575e-05
0.000137438
8.28021e-05
0.000214756
0.000145216
0.000310732
0.00021614
0.000425739
0.000294578
0.000559711
0.000379358
0.000712168
0.000469102
0.000882293
0.000562206
0.0010691
0.000656804
0.0012717
0.000750717
0.00148987
0.000841254
0.0017253
0.00092441
0.00198577
0.000992052
0.00102479
0.0022925
-5.47012e-06
-2.4396e-05
-1.48069e-05
-5.12945e-05
-2.28546e-05
-6.2755e-05
-2.57061e-05
-6.18952e-05
-2.03208e-05
-5.03703e-05
-4.28504e-06
-2.91569e-05
2.43468e-05
1.12568e-06
6.71424e-05
4.00065e-05
0.00012533
8.7029e-05
0.000199799
0.000141671
0.000291084
0.000203292
0.00039934
0.000271102
0.000524312
0.00034413
0.000665326
0.000421191
0.000821275
0.000500856
0.000990603
0.000581388
0.00117126
0.000660595
0.00136037
0.000735307
0.00155242
0.000800001
0.000843812
0.0017334
-6.62442e-06
-1.77716e-05
-1.89147e-05
-3.90042e-05
-3.15793e-05
-5.00904e-05
-4.07487e-05
-5.27258e-05
-4.35082e-05
-4.76108e-05
-3.76111e-05
-3.5054e-05
-2.12852e-05
-1.52002e-05
6.8846e-06
1.18367e-05
4.80157e-05
4.5898e-05
0.000102944
8.67426e-05
0.000172209
0.000134027
0.000256018
0.000187293
0.000354201
0.000245948
0.000466146
0.000309246
0.000590751
0.000376251
0.000726397
0.000445743
0.00087104
0.000515952
0.00102256
0.00058379
0.00117967
0.000642885
0.000677353
0.00134613
-7.51118e-06
-1.02604e-05
-2.20925e-05
-2.44229e-05
-3.8371e-05
-3.38119e-05
-5.25343e-05
-3.85624e-05
-6.18009e-05