/*--------------------------------*- C++ -*----------------------------------*\
  =========                 |
  \\      /  F ield         | OpenFOAM: The Open Source CFD Toolbox
   \\    /   O peration     | Website:  https://openfoam.org
    \\  /    A nd           | Version:  6.0
     \\/     M anipulation  |
\*---------------------------------------------------------------------------*/
FoamFile
{
    version     2.0;
    format      ascii;
    class       volVectorField;
    location    "95";
    object      U;
}
// * * * * * * * * * * * * * * * * * * * * * * * * * * * * * * * * * * * * * //

dimensions      [0 1 -1 0 0 0 0];

internalField   nonuniform List<vector> 
4000
(
(-0.00194323 0.0453054 -5.67997e-21)
(-0.00752402 0.0995509 3.05294e-20)
(-0.0164376 0.127791 -3.7105e-20)
(-0.0268309 0.137721 2.82701e-20)
(-0.0377405 0.135226 1.37566e-20)
(-0.0486404 0.124642 -4.15412e-20)
(-0.0591384 0.109019 -3.63632e-21)
(-0.0689501 0.0904047 -1.21859e-21)
(-0.0778728 0.070112 -2.18274e-20)
(-0.0857609 0.0489496 -1.18367e-20)
(-0.0925139 0.0274017 8.76654e-21)
(-0.0980729 0.0057585 3.30659e-20)
(-0.102422 -0.0157988 -2.35093e-21)
(-0.105592 -0.0371474 3.74473e-21)
(-0.107663 -0.0581974 -3.37073e-20)
(-0.108759 -0.078881 2.08465e-20)
(-0.109048 -0.0991465 -2.97049e-20)
(-0.108852 -0.118969 4.52382e-20)
(-0.108683 -0.138394 -5.97733e-23)
(-0.108184 -0.157522 9.805e-21)
(-0.00371236 0.0475038 1.92603e-20)
(-0.0111791 0.105047 -9.97208e-20)
(-0.0207561 0.135644 -6.89422e-20)
(-0.0311366 0.147166 -4.64807e-20)
(-0.0416679 0.145635 -6.02822e-20)
(-0.0520025 0.135504 1.22935e-20)
(-0.0618555 0.119918 -6.97516e-20)
(-0.0710009 0.100999 -1.57557e-20)
(-0.0792637 0.0801125 4.62125e-21)
(-0.0865082 0.0581138 5.13266e-20)
(-0.0926332 0.0355298 -5.70905e-20)
(-0.0975738 0.0126969 7.98288e-20)
(-0.101306 -0.0101485 -6.01918e-20)
(-0.103853 -0.0328173 -7.15278e-20)
(-0.105288 -0.0551413 -9.83854e-20)
(-0.105727 -0.0769627 6.28757e-20)
(-0.105338 -0.0981354 -2.1012e-20)
(-0.104482 -0.118547 -7.42129e-20)
(-0.103743 -0.138168 6.97621e-20)
(-0.10253 -0.156988 -5.27399e-20)
(-0.00557726 0.0493142 1.94787e-19)
(-0.0149869 0.109813 1.0015e-19)
(-0.0251104 0.14271 1.12871e-19)
(-0.0352659 0.155917 9.57075e-21)
(-0.0451453 0.155511 6.24674e-20)
(-0.0545974 0.146017 7.5966e-20)
(-0.0634567 0.130649 -1.43578e-19)
(-0.0715646 0.11159 -7.50958e-20)
(-0.0787812 0.0902574 -1.00354e-19)
(-0.0849857 0.0675495 1.03932e-19)
(-0.0900805 0.0440352 -8.04738e-20)
(-0.0939975 0.0200961 -1.06279e-19)
(-0.0967051 -0.0039786 -4.0537e-20)
(-0.098217 -0.0279348 3.68514e-20)
(-0.0985966 -0.0515252 -1.00463e-20)
(-0.0979486 -0.0744992 1.39102e-20)
(-0.0964341 -0.0966092 1.69336e-19)
(-0.0944374 -0.117647 -2.49593e-20)
(-0.0926078 -0.1375 -1.72877e-19)
(-0.0901954 -0.156028 2.27862e-19)
(-0.00748658 0.0506336 7.05269e-20)
(-0.0188461 0.113622 -9.49663e-20)
(-0.0293763 0.148699 -2.37369e-20)
(-0.0390793 0.163657 4.72515e-20)
(-0.0480184 0.164535 1.30674e-19)
(-0.0562524 0.155871 2.84295e-19)
(-0.0637466 0.140921 2.79307e-19)
(-0.0704199 0.121913 2.49363e-20)
(-0.0761744 0.100312 1.7273e-19)
(-0.0809109 0.0770571 2.65898e-19)
(-0.0845403 0.0527554 -2.1134e-19)
(-0.0869947 0.0278295 3.14935e-19)
(-0.0882365 0.00261559 -7.55626e-20)
(-0.0882687 -0.022574 1.72713e-20)
(-0.0871409 -0.0474181 7.56224e-20)
(-0.0849422 -0.0715741 1.01569e-19)
(-0.081819 -0.0946885 -1.61356e-19)
(-0.0781626 -0.116446 -1.35659e-19)
(-0.0746755 -0.136629 -2.36837e-19)
(-0.0705486 -0.154944 3.44582e-19)
(-0.0093792 0.051371 -3.65149e-20)
(-0.0226416 0.116264 -3.7505e-19)
(-0.0334258 0.153328 -1.11101e-19)
(-0.0424493 0.170066 -2.70405e-19)
(-0.050161 0.17237 1.0379e-19)
(-0.0568387 0.164729 -1.61826e-19)
(-0.0625889 0.150409 5.89421e-20)
(-0.0674168 0.131668 -3.46814e-19)
(-0.0712753 0.110007 1.8583e-19)
(-0.0740934 0.0864025 -2.19455e-19)
(-0.0757965 0.0614966 -1.95541e-19)
(-0.0763215 0.0357454 -2.23615e-19)
(-0.0756275 0.00952234 2.01931e-19)
(-0.0737075 -0.0168138 -1.85993e-19)
(-0.0705956 -0.0428795 2.55841e-19)
(-0.0663617 -0.0682484 7.42969e-20)
(-0.0611314 -0.0924602 1.8525e-19)
(-0.0552845 -0.115078 7.91158e-20)
(-0.049566 -0.135752 -3.22837e-19)
(-0.043223 -0.153995 5.19949e-19)
(-0.0111878 0.0514566 1.66835e-19)
(-0.0262501 0.11756 1.05011e-20)
(-0.0371331 0.156341 6.83042e-20)
(-0.0452661 0.174833 2.36259e-19)
(-0.0514826 0.178674 -3.38385e-20)
(-0.0562819 0.172242 3.8667e-19)
(-0.0599191 0.158768 1.75369e-19)
(-0.0624946 0.140522 1.51994e-20)
(-0.0640202 0.119032 4.51491e-19)
(-0.0644608 0.095307 1.50204e-19)
(-0.0637632 0.0700181 7.27306e-20)
(-0.0618748 0.0436468 2.26051e-19)
(-0.0587564 0.0165917 2.09295e-19)
(-0.0543937 -0.0107581 3.84942e-19)
(-0.0488063 -0.0379748 -3.44423e-19)
(-0.0420452 -0.0645644 4.9074e-19)
(-0.0342125 -0.0899664 9.83489e-21)
(-0.0256602 -0.11361 -6.27435e-19)
(-0.0171629 -0.134975 8.17612e-19)
(-0.00815088 -0.153336 3.35208e-19)
(-0.0128436 0.0508508 -9.79989e-20)
(-0.0295476 0.117382 -1.81243e-19)
(-0.0403818 0.157525 -3.72712e-19)
(-0.0474447 0.17768 -1.11308e-20)
(-0.0519352 0.183124 6.63801e-20)
(-0.0545696 0.178055 -4.77497e-19)
(-0.055755 0.165631 -3.56375e-19)
(-0.0556948 0.148108 -5.01306e-20)
(-0.0544676 0.127032 -4.55743e-19)
(-0.0520824 0.103435 -3.19344e-19)
(-0.0485144 0.0780138 -9.32055e-20)
(-0.0437284 0.0512673 -3.0323e-19)
(-0.037693 0.0236064 -4.63029e-21)
(-0.030392 -0.00456741 -4.09082e-19)
(-0.0218353 -0.0328054 1.71386e-19)
(-0.0120587 -0.0605699 -1.95933e-19)
(-0.00114352 -0.0872175 1.5321e-19)
(0.0105972 -0.112038 -1.93768e-19)
(0.0223753 -0.134306 -5.57225e-19)
(0.0344488 -0.153001 -1.66912e-19)
(-0.0142828 0.0495501 -3.87397e-20)
(-0.0324195 0.115666 -4.18163e-20)
(-0.0430736 0.156734 3.15278e-19)
(-0.0489305 0.178379 -5.17328e-19)
(-0.0515173 0.185424 7.54052e-20)
(-0.0517544 0.181826 -3.02849e-19)
(-0.0502007 0.170623 1.40852e-19)
(-0.0471675 0.154034 6.46566e-19)
(-0.0428081 0.133606 -3.97298e-20)
(-0.0371828 0.11039 -4.90672e-19)
(-0.0303028 0.0851025 8.52892e-20)
(-0.0221569 0.0582529 1.69418e-20)
(-0.0127282 0.0302543 -1.07032e-19)
(-0.00200591 0.00150332 6.17258e-21)
(0.0100035 -0.0275543 9.17053e-19)
(0.0232717 -0.0563678 -1.27215e-19)
(0.0377305 -0.0842399 -2.58963e-19)
(0.0531094 -0.110331 -4.67108e-19)
(0.0686274 -0.133679 4.74123e-19)
(0.0841103 -0.152915 2.00215e-19)
(-0.0154528 0.0475906 1.8672e-19)
(-0.0347705 0.112424 -2.4697e-19)
(-0.0451357 0.153903 3.48044e-19)
(-0.0497023 0.176774 3.5146e-19)
(-0.0502728 0.185336 3.23026e-19)
(-0.0479501 0.183244 6.57179e-19)
(-0.0434396 0.17338 4.28773e-19)
(-0.0371636 0.157895 -9.28542e-19)
(-0.0293558 0.138323 4.79381e-19)
(-0.020135 0.115725 3.81544e-19)
(-0.00955427 0.0908302 -7.41645e-21)
(0.00236755 0.0641558 4.36557e-19)
(0.0156268 0.0361102 3.44733e-19)
(0.0302223 0.00707298 -1.83976e-19)
(0.0461434 -0.0225343 6.3714e-19)
(0.0633607 -0.0521793 -7.88844e-19)
(0.0818077 -0.0811496 3.19314e-19)
(0.101251 -0.108504 4.09437e-19)
(0.120943 -0.133033 -9.25914e-20)
(0.140176 -0.152966 8.07544e-19)
(-0.0163181 0.0450474 3.84685e-19)
(-0.0365338 0.10775 2.05713e-20)
(-0.0465256 0.14906 -1.36712e-19)
(-0.0497713 0.172799 -1.42714e-19)
(-0.0482823 0.182694 -6.70903e-19)
(-0.0433159 0.182058 9.60082e-20)
(-0.0357133 0.173577 2.72442e-19)
(-0.0260073 0.159307 -1.33465e-19)
(-0.0145161 0.140749 1.10867e-19)
(-0.00142163 0.118965 -2.62954e-20)
(0.0131763 0.0946917 -1.4554e-19)
(0.0292248 0.0684511 1.41735e-19)
(0.0466954 0.0406445 -6.17717e-19)
(0.0655702 0.0116286 5.95144e-19)
(0.0858281 -0.0182128 -5.20738e-19)
(0.10743 -0.0483912 1.59463e-19)
(0.130299 -0.0782204 3.71478e-19)
(0.154226 -0.106704 -7.42267e-20)
(0.178522 -0.132395 -2.53997e-19)
(0.201883 -0.153084 -1.69901e-19)
(-0.0168653 0.0420303 -4.83388e-19)
(-0.0376783 0.101812 -3.04764e-20)
(-0.047234 0.142332 1.01728e-19)
(-0.0491755 0.166491 2.60221e-19)
(-0.0456483 0.177434 -3.66624e-19)
(-0.0380305 0.178101 -3.2158e-19)
(-0.0272839 0.170956 7.5698e-19)
(-0.0140467 0.157933 -4.17683e-19)
(0.00127774 0.140482 -2.72751e-19)
(0.018442 0.11965 -3.97935e-19)
(0.0372974 0.0961745 2.65762e-19)
(0.0577549 0.0705824 -2.19015e-21)
(0.0797602 0.0432676 -5.01751e-19)
(0.103275 0.0145645 -8.35869e-19)
(0.128265 -0.0151837 6.38811e-19)
(0.154672 -0.0455468 -5.25034e-19)
(0.182396 -0.0758994 7.43845e-19)
(0.21123 -0.105245 -2.07389e-19)
(0.24057 -0.131931 4.38102e-19)
(0.268507 -0.153298 -1.44805e-18)
(-0.0171049 0.0386757 -9.89239e-19)
(-0.038212 0.0948488 6.45241e-19)
(-0.0472835 0.13394 8.69149e-20)
(-0.0479684 0.157998 1.71453e-20)
(-0.0424717 0.169603 -3.96228e-19)
(-0.0322551 0.171319 5.83393e-19)
(-0.0183804 0.165365 6.42646e-20)
(-0.00158185 0.153532 -1.20795e-19)
(0.0176562 0.1372 -3.94713e-19)
(0.0390221 0.117386 4.27477e-19)
(0.0623191 0.0948225 1.1007e-18)
(0.0874234 0.0700341 -2.41911e-19)
(0.114254 0.0434111 5.60095e-19)
(0.142753 0.0152717 -6.68798e-19)
(0.172862 -0.0140754 -6.48706e-19)
(0.204502 -0.0442583 3.88215e-19)
(0.237528 -0.0747318 6.4829e-19)
(0.27171 -0.104551 -2.10289e-18)
(0.306542 -0.13191 2.47526e-19)
(0.339575 -0.153695 3.25296e-19)
(-0.0170716 0.035135 7.34583e-19)
(-0.0381808 0.0871451 2.43336e-19)
(-0.0467208 0.124187 1.24739e-18)
(-0.0462036 0.147574 6.42844e-20)
(-0.0388231 0.159375 -1.38943e-19)
(-0.0260872 0.161791 -6.63583e-19)
(-0.00913367 0.156787 5.62985e-19)
(0.0112227 0.146 1.02192e-18)
(0.0344256 0.130719 6.88444e-19)
(0.0601056 0.111917 5.03158e-19)
(0.0880223 0.0903105 4.39961e-19)
(0.118019 0.0664203 -7.89551e-19)
(0.14999 0.0406341 -2.51775e-19)
(0.183848 0.0132623 -1.87617e-19)
(0.219507 -0.0154082 2.01275e-18)
(0.256844 -0.0450507 -3.43018e-21)
(0.295653 -0.0752009 -5.07321e-19)
(0.335633 -0.105006 -1.6059e-19)
(0.376377 -0.132565 1.45703e-18)
(0.41506 -0.154302 1.87179e-19)
(-0.0168208 0.0315618 -3.53699e-20)
(-0.0376611 0.0790115 -6.91385e-19)
(-0.0456049 0.113434 -1.02516e-18)
(-0.0439126 0.135565 -2.84897e-19)
(-0.0347082 0.147043 1.5776e-19)
(-0.0195108 0.149737 3.27954e-20)
(0.000493606 0.145366 9.07399e-19)
(0.0244301 0.135403 -1.1265e-18)
(0.0516855 0.121034 -4.30378e-19)
(0.081843 0.103177 -8.7886e-19)
(0.114625 0.0825203 -7.57539e-19)
(0.149843 0.0595771 -6.79472e-19)
(0.187359 0.0347342 1.70116e-19)
(0.227049 0.00830291 -2.23919e-19)
(0.26877 -0.0194357 9.71455e-19)
(0.312331 -0.0481798 -5.31775e-19)
(0.357426 -0.0775301 -1.6843e-18)
(0.403627 -0.106748 -3.40446e-19)
(0.450591 -0.133903 8.31012e-19)
(0.49541 -0.154917 -6.91507e-19)
(-0.0164217 0.0280987 -1.16794e-19)
(-0.0367464 0.0707558 8.48536e-19)
(-0.0439876 0.102068 -1.0782e-18)
(-0.0410795 0.122384 2.48856e-19)
(-0.0300333 0.133007 -5.1253e-19)
(-0.0123479 0.135519 1.14323e-18)
(0.010771 0.131415 -8.20377e-19)
(0.038413 0.122004 9.44436e-19)
(0.0699265 0.108363 -8.98672e-19)
(0.10486 0.0913449 3.89565e-19)
(0.1429 0.0716041 -1.86961e-19)
(0.183824 0.0496399 -4.79778e-19)
(0.227443 0.0258404 -6.01248e-19)
(0.273563 0.000525137 6.03498e-19)
(0.321948 -0.0260165 -5.09297e-19)
(0.372284 -0.0534859 -1.12428e-18)
(0.424117 -0.0815245 1.17366e-18)
(0.476832 -0.109512 -1.49662e-18)
(0.530069 -0.135563 6.72988e-19)
(0.581256 -0.155003 1.18407e-20)
(-0.0159481 0.024864 -1.06791e-18)
(-0.0355282 0.062656 -1.14558e-18)
(-0.0418909 0.0904759 1.31831e-19)
(-0.0376144 0.108479 -1.09799e-18)
(-0.0245729 0.117743 -9.73869e-20)
(-0.00422065 0.11962 -8.0856e-19)
(0.0222449 0.11541 -1.86106e-19)
(0.0539025 0.106267 -5.47031e-19)
(0.0900799 0.0931611 5.03147e-21)
(0.130296 0.0768746 -2.41501e-19)
(0.174199 0.0580232 2.09089e-20)
(0.221504 0.0370907 -7.09142e-19)
(0.271935 0.0144667 7.95013e-19)
(0.325177 -0.00951715 -1.12753e-18)
(0.380834 -0.0345547 4.067e-19)
(0.438402 -0.0603358 1.73349e-20)
(0.497222 -0.0865197 -6.46023e-19)
(0.556433 -0.112598 1.61541e-18)
(0.61555 -0.136824 -3.82732e-19)
(0.672835 -0.153757 -2.35573e-19)
(-0.0154664 0.0219418 1.19705e-18)
(-0.0340741 0.0549359 6.43053e-19)
(-0.0392817 0.0790037 5.95833e-19)
(-0.0333293 0.0942974 8.83665e-20)
(-0.0179494 0.101772 8.02961e-19)
(0.00546522 0.102615 1.15849e-18)
(0.0357472 0.0979645 9.50392e-19)
(0.0719829 0.0888391 8.75078e-20)
(0.113487 0.0761082 7.04601e-19)
(0.15974 0.0604854 1.09456e-18)
(0.210322 0.042546 -2.85463e-19)
(0.264839 0.0227562 4.81779e-19)
(0.322861 0.00150509 3.89401e-19)
(0.383872 -0.0208656 4.01957e-19)
(0.447238 -0.0440348 2.40552e-18)
(0.512191 -0.0676806 -9.0438e-19)
(0.577811 -0.0914706 -5.27163e-20)
(0.642977 -0.115001 1.05477e-18)
(0.706976 -0.136774 -5.96953e-19)
(0.769347 -0.150363 2.81903e-19)
(-0.015024 0.0193749 -9.66513e-19)
(-0.0324055 0.0477474 6.09201e-20)
(-0.0360513 0.0679338 -7.65492e-19)
(-0.0279246 0.0802461 -9.87358e-20)
(-0.00963057 0.085614 5.59347e-19)
(0.0175042 0.0851205 -1.66703e-18)
(0.0523526 0.0797806 -3.73374e-21)
(0.0940112 0.0705018 7.79839e-19)
(0.141767 0.0580636 7.37167e-19)
(0.195028 0.0431158 -3.24376e-19)
(0.253243 0.026194 1.09703e-19)
(0.315829 0.00774359 2.51699e-19)
(0.382108 -0.011854 -1.19672e-19)
(0.451269 -0.0322573 -1.36092e-18)
(0.522354 -0.0531458 3.43842e-19)
(0.594273 -0.074204 9.58974e-19)
(0.665828 -0.095123 -1.37139e-18)
(0.735674 -0.115613 6.65125e-19)
(0.802888 -0.134494 1.7847e-19)
(0.868408 -0.144222 8.63928e-19)
(-0.014638 0.0171625 -1.40825e-19)
(-0.0304805 0.0411607 -6.72214e-19)
(-0.0320035 0.0574629 3.08566e-19)
(-0.0209911 0.0666639 1.36899e-21)
(0.00104556 0.0697471 -1.34076e-18)
(0.0328351 0.067746 2.09062e-19)
(0.0732798 0.061592 -4.03314e-20)
(0.121462 0.0521045 2.72446e-19)
(0.176595 0.0399877 -1.25116e-18)
(0.237938 0.0258335 -9.16186e-20)
(0.304718 0.0101367 -3.00959e-19)
(0.376053 -0.00668532 2.62464e-19)
(0.450906 -0.0242714 9.03848e-19)
(0.528079 -0.0422998 -1.39554e-19)
(0.606227 -0.0604749 5.69829e-20)
(0.683915 -0.0785193 3.54382e-19)
(0.759683 -0.0961852 -9.20965e-20)
(0.83205 -0.113308 7.28157e-19)
(0.900108 -0.128945 -4.22764e-19)
(0.965612 -0.134953 -6.41426e-19)
(-0.0142887 0.0152632 1.31889e-19)
(-0.0281846 0.0351657 3.28481e-20)
(-0.0268558 0.0476936 2.68997e-19)
(-0.012031 0.0537975 6.56909e-19)
(0.0148207 0.0545708 3.68266e-19)
(0.0524497 0.0510437 3.85344e-20)
(0.0997469 0.0440966 -4.40413e-19)
(0.155719 0.0344836 1.12219e-19)
(0.219418 0.0228452 5.98319e-19)
(0.289849 0.00971803 -1.0166e-18)
(0.365888 -0.00445 7.70351e-19)
(0.446237 -0.0192827 -5.83445e-19)
(0.529409 -0.0344597 4.97095e-19)
(0.61376 -0.049703 -1.07621e-18)
(0.697554 -0.0647684 1.18814e-18)
(0.779052 -0.0794423 -1.27089e-18)
(0.856595 -0.0935623 -3.30582e-19)
(0.928656 -0.107039 1.02647e-18)
(0.994588 -0.118879 -3.48156e-19)
(1.05504 -0.123094 1.4425e-19)
(-0.0139175 0.013604 -9.92351e-20)
(-0.0253331 0.0296834 9.35016e-19)
(-0.0202546 0.0386383 -4.5479e-21)
(-0.000494908 0.0417938 -5.79122e-19)
(0.032447 0.0403843 -3.88735e-19)
(0.0772821 0.0354692 7.12602e-19)
(0.132811 0.027903 -2.82237e-19)
(0.197863 0.0183901 -3.553e-20)
(0.271202 0.00751244 5.93363e-19)
(0.351438 -0.00425343 -7.36952e-19)
(0.436972 -0.0165213 8.2183e-20)
(0.525987 -0.0289794 -9.65454e-19)
(0.616498 -0.041376 5.09531e-19)
(0.706434 -0.0535062 -1.45656e-18)
(0.793753 -0.0652017 2.31598e-18)
(0.876563 -0.0763235 -4.30424e-19)
(0.953216 -0.0867611 4.309e-19)
(1.02241 -0.0963766 -1.11646e-18)
(1.08372 -0.10434 1.80041e-20)
(1.13197 -0.113269 1.11601e-18)
(-0.0134313 0.0120924 -2.99701e-19)
(-0.0216822 0.0245868 2.57787e-19)
(-0.0118006 0.0302375 -9.51588e-19)
(0.0141727 0.0307097 1.40692e-18)
(0.0546156 0.0273844 -1.01555e-18)
(0.108105 0.0213674 5.2491e-20)
(0.173233 0.0135009 -1.09786e-18)
(0.248507 0.00444404 7.85738e-19)
(0.33225 -0.00528462 -1.11855e-19)
(0.42253 -0.0152853 -6.97301e-19)
(0.517161 -0.025259 -4.08604e-19)
(0.613763 -0.0349906 4.33647e-19)
(0.709873 -0.044331 2.85375e-19)
(0.803098 -0.0531808 -1.25226e-18)
(0.891258 -0.0614737 4.54133e-19)
(0.972521 -0.0691628 -6.60126e-19)
(1.04549 -0.0762047 8.47696e-20)
(1.10927 -0.0825253 -5.31291e-19)
(1.16366 -0.087791 1.79419e-19)
(1.20688 -0.0936276 -7.44764e-19)
(-0.0127106 0.010632 8.53271e-19)
(-0.0169487 0.0197291 -5.16823e-19)
(-0.00107777 0.0223896 4.25206e-19)
(0.0324911 0.0205393 -5.36223e-19)
(0.0818976 0.0156866 8.98339e-19)
(0.145455 0.00898512 -1.60377e-20)
(0.221391 0.00126322 -1.10139e-19)
(0.307718 -0.00687442 -8.19877e-20)
(0.40215 -0.0149924 5.02369e-19)
(0.502091 -0.0227966 8.56591e-19)
(0.604709 -0.0301109 -5.04734e-19)
(0.707085 -0.0368525 4.92324e-19)
(0.806398 -0.0430069 8.93651e-19)
(0.900117 -0.0486019 -6.24659e-19)
(0.986158 -0.0536847 -1.24234e-18)
(1.06299 -0.0583027 2.25455e-18)
(1.12966 -0.0624898 -4.01576e-19)
(1.18581 -0.0662593 -1.21536e-19)
(1.2317 -0.0694815 1.2605e-18)
(1.26713 -0.0731251 -2.96452e-19)
(-0.0116218 0.00913761 -1.38611e-18)
(-0.0108309 0.0149739 -9.2147e-19)
(0.0123192 0.0149878 -3.53446e-19)
(0.0549113 0.0112526 6.82356e-19)
(0.11471 0.00536406 -1.54135e-18)
(0.189601 -0.00149331 7.99257e-19)
(0.27726 -0.00852403 1.01482e-19)
(0.375019 -0.0152045 1.03024e-19)
(0.479835 -0.021218 -1.05166e-18)
(0.588369 -0.026417 -3.7085e-19)
(0.697166 -0.0307881 -6.52384e-19)
(0.80289 -0.0344134 6.29835e-19)
(0.902574 -0.0374312 1.73747e-19)
(0.993805 -0.0399989 3.30745e-20)
(1.07486 -0.0422628 7.83046e-19)
(1.14473 -0.0443377 -8.03722e-19)
(1.2031 -0.046296 -3.00284e-20)
(1.25023 -0.0481654 3.15882e-20)
(1.28691 -0.0498573 1.1617e-19)
(1.3139 -0.0520272 5.30876e-19)
(-0.0100282 0.0075466 4.40922e-19)
(-0.0030285 0.0102214 1.1337e-18)
(0.0287644 0.0079578 9.09129e-19)
(0.0817974 0.00284109 -3.13746e-19)
(0.1533 -0.0035045 1.09314e-18)
(0.24054 -0.00989947 -9.17546e-20)
(0.340435 -0.0156202 -1.30142e-19)
(0.449458 -0.0202705 7.7483e-20)
(0.563704 -0.0237028 1.06177e-18)
(0.679097 -0.025964 6.24317e-19)
(0.791679 -0.02724 1.83331e-19)
(0.897927 -0.0277954 1.38073e-20)
(0.995003 -0.0279176 -1.17993e-18)
(1.08091 -0.0278704 1.02784e-18)
(1.15453 -0.0278628 1.67436e-19)
(1.21557 -0.0280329 -2.8536e-19)
(1.26442 -0.0284473 -1.16685e-18)
(1.30199 -0.0291078 -8.54437e-20)
(1.32955 -0.0299276 4.35674e-19)
(1.34847 -0.0313584 -8.01027e-20)
(-0.00779822 0.00582592 -1.11423e-18)
(0.00674164 0.00542932 4.65998e-19)
(0.0485853 0.00128896 -2.27767e-18)
(0.113416 -0.00464389 9.34694e-19)
(0.197746 -0.0107929 -7.46246e-19)
(0.298012 -0.0160404 5.5099e-19)
(0.410166 -0.0197961 -8.57398e-19)
(0.529684 -0.0218561 7.89812e-20)
(0.65177 -0.0223026 -4.4274e-20)
(0.771718 -0.0214228 2.303e-19)
(0.885302 -0.019622 3.28329e-19)
(0.989115 -0.0173406 -6.1923e-19)
(1.08077 -0.0149838 3.30989e-19)
(1.15897 -0.0128741 2.96844e-19)
(1.22338 -0.0112286 1.2341e-18)
(1.27451 -0.0101569 -5.45798e-19)
(1.31345 -0.00967544 -3.36436e-19)
(1.34168 -0.00972529 5.58487e-19)
(1.36084 -0.0101814 2.69908e-19)
(1.37255 -0.0114171 -5.56122e-19)
(-0.00481118 0.00397422 9.72964e-19)
(0.0187347 0.000622532 9.37313e-19)
(0.0720518 -0.00494589 2.71631e-19)
(0.149926 -0.0110659 1.14435e-18)
(0.247952 -0.0163021 5.6426e-19)
(0.36151 -0.0196786 -1.01778e-18)
(0.485406 -0.0208217 1.54295e-18)
(0.614043 -0.0197991 -7.59081e-19)
(0.741817 -0.0169836 7.56209e-19)
(0.863616 -0.0129312 9.72298e-19)
(0.975272 -0.00826088 -5.55107e-19)
(1.07385 -0.00355045 1.06276e-19)
(1.15771 0.000735198 5.7396e-19)
(1.22646 0.00427927 3.96902e-19)
(1.28066 0.0069161 8.88569e-19)
(1.32159 0.00861146 -3.681e-19)
(1.35096 0.00943028 -5.46441e-20)
(1.37065 0.00950758 5.1628e-19)
(1.38253 0.00900732 -1.16471e-19)
(1.38827 0.00762135 -2.15359e-21)
(-0.000959446 0.00201992 -5.01615e-19)
(0.0331694 -0.00410516 -1.8425e-18)
(0.0993641 -0.0105852 4.34843e-19)
(0.191368 -0.0161971 -3.31394e-19)
(0.303641 -0.0197581 -7.6766e-19)
(0.43029 -0.0205376 -5.5028e-19)
(0.564848 -0.01848 -3.39224e-19)
(0.700673 -0.0140071 8.23068e-19)
(0.831556 -0.00782756 -4.87931e-19)
(0.952319 -0.000766198 -5.01421e-19)
(1.05923 0.00638636 -6.21933e-19)
(1.15018 0.0129826 -1.0205e-19)
(1.22451 0.0185737 -7.57436e-20)
(1.28283 0.0229176 -1.38269e-18)
(1.32657 0.0259523 6.48819e-19)
(1.3577 0.0277515 -8.55635e-19)
(1.37835 0.0284765 2.48997e-19)
(1.39064 0.0283392 -1.91236e-18)
(1.39651 0.027538 5.79994e-19)
(1.39757 0.0258218 6.96594e-19)
(0.00385101 1.7065e-05 -1.2652e-19)
(0.0502212 -0.00859746 8.9452e-19)
(0.13064 -0.0153862 5.76619e-20)
(0.237648 -0.0197304 1.3864e-19)
(0.364345 -0.0208318 -2.82096e-19)
(0.503381 -0.0183299 -5.48706e-21)
(0.646978 -0.0125971 -6.93302e-21)
(0.787608 -0.00447972 -1.69328e-19)
(0.918787 0.00496396 6.04298e-19)
(1.03569 0.0146804 2.30612e-19)
(1.13541 0.0237833 1.03734e-18)
(1.21691 0.0316435 -2.80018e-19)
(1.28069 0.0379087 1.91284e-19)
(1.32832 0.0424707 -2.04635e-20)
(1.362 0.0454064 5.20206e-19)
(1.38419 0.0469111 3.07507e-19)
(1.39728 0.0472401 7.15236e-19)
(1.40347 0.0466688 -1.14255e-18)
(1.40461 0.0454158 1.40689e-18)
(1.40217 0.0433022 -4.45539e-19)
(0.0097001 -0.00195938 -1.15928e-18)
(0.0700144 -0.0126464 -3.64509e-19)
(0.165897 -0.0190419 2.83084e-19)
(0.288516 -0.0213045 1.79034e-19)
(0.429391 -0.0191729 1.86236e-19)
(0.579603 -0.0127958 1.86473e-19)
(0.730144 -0.00307663 -4.70544e-19)
(0.872901 0.00867467 -1.90321e-19)
(1.00155 0.0210804 6.13751e-20)
(1.11204 0.0329389 -5.64836e-19)
(1.20265 0.0433695 -2.50346e-19)
(1.27358 0.0518556 1.5055e-18)
(1.32647 0.0582108 -3.90293e-19)
(1.36376 0.0625015 -5.19626e-19)
(1.38824 0.0649574 -2.34982e-19)
(1.40264 0.0658909 1.68656e-19)
(1.40945 0.0656358 1.91625e-19)
(1.41079 0.0645102 -9.15095e-19)
(1.40833 0.0627413 1.29691e-18)
(1.40339 0.060229 -1.12343e-18)
(0.0166522 -0.00381792 -1.28503e-19)
(0.0926134 -0.0160052 3.63813e-20)
(0.205043 -0.0212038 -4.88031e-20)
(0.343553 -0.0205368 7.02127e-19)
(0.497912 -0.0144502 4.03287e-20)
(0.657614 -0.00374233 2.57715e-19)
(0.812652 0.0100758 -5.38218e-19)
(0.954752 0.0252387 -1.86299e-20)
(1.07824 0.0401277 7.38747e-19)
(1.18025 0.0535068 1.00216e-19)
(1.26044 0.0646115 -6.30804e-19)
(1.32034 0.0731225 -5.56949e-20)
(1.36259 0.0790686 -4.98436e-19)
(1.39033 0.0827079 5.01444e-19)
(1.40671 0.0844173 6.73668e-19)
(1.41459 0.0846073 -7.33274e-20)
(1.41637 0.0836672 -8.51583e-20)
(1.41397 0.0819343 2.59343e-19)
(1.4089 0.079636 -8.11498e-19)
(1.40225 0.0767521 7.26027e-19)
(0.0247532 -0.00545404 1.32378e-19)
(0.118014 -0.0184009 -8.44344e-19)
(0.247858 -0.0215052 2.25275e-19)
(0.402174 -0.0170566 -7.06158e-19)
(0.568871 -0.00638792 2.4372e-19)
(0.735977 0.00892892 -9.01142e-19)
(0.892863 0.0267449 3.62914e-19)
(1.03162 0.044903 -1.16377e-19)
(1.14768 0.0616652 -5.10466e-21)
(1.2397 0.0758917 1.14682e-19)
(1.30881 0.0870394 -4.14367e-19)
(1.35778 0.0950492 -5.83133e-19)
(1.39008 0.100189 -1.15671e-19)
(1.40934 0.102905 -5.18986e-20)
(1.41886 0.1037 -1.30425e-19)
(1.42143 0.103054 -4.14315e-20)
(1.41929 0.101388 -1.23746e-19)
(1.41412 0.0990365 -1.05951e-19)
(1.40719 0.0962237 -3.05161e-19)
(1.39941 0.0930003 4.79887e-19)
(0.0340272 -0.00675328 3.11599e-19)
(0.146134 -0.0195474 -3.46854e-19)
(0.293991 -0.0195849 7.48498e-19)
(0.463632 -0.0105353 -3.24979e-19)
(0.641103 0.00520648 8.68335e-19)
(0.81324 0.0252087 1.49062e-20)
(0.9693 0.0467144 4.33678e-19)
(1.10228 0.0672944 -1.18019e-19)
(1.20915 0.0852422 4.77354e-19)
(1.29025 0.0996451 3.12924e-20)
(1.34819 0.110266 1.10937e-18)
(1.38677 0.117343 -7.6013e-19)
(1.41011 0.121384 1.0435e-19)
(1.42206 0.122999 1.94567e-19)
(1.42592 0.122785 9.77994e-19)
(1.42431 0.121268 -3.49951e-19)
(1.4192 0.11887 -6.78578e-20)
(1.41203 0.115909 -3.48588e-19)
(1.40383 0.112606 -3.32961e-20)
(1.39536 0.109067 1.72791e-19)
(0.0444717 -0.00759425 -1.46411e-19)
(0.176809 -0.0191575 4.2771e-19)
(0.342963 -0.0151078 -4.43782e-19)
(0.527047 -0.000710421 1.72618e-19)
(0.713377 0.0204262 -2.11089e-19)
(0.888022 0.0449814 7.67382e-19)
(1.04071 0.0696874 -1.08889e-19)
(1.16588 0.0920075 2.5704e-19)
(1.26234 0.110429 -1.53788e-19)
(1.33216 0.124381 -5.21655e-21)
(1.37927 0.13399 1.67918e-19)
(1.40832 0.139802 -1.29297e-19)
(1.42382 0.142543 3.32667e-19)
(1.42966 0.142953 -1.6646e-19)
(1.42898 0.141694 -7.10522e-19)
(1.42414 0.139301 7.00976e-19)
(1.41684 0.136183 -3.09774e-19)
(1.40827 0.132629 2.46482e-19)
(1.39924 0.12886 4.18633e-19)
(1.39035 0.125014 1.71937e-19)
(0.0560545 -0.00785198 3.65798e-19)
(0.20979 -0.0169548 -7.55044e-19)
(0.39418 -0.00778354 1.43461e-19)
(0.591445 0.0125973 -1.05441e-19)
(0.784457 0.03926 -4.28515e-19)
(0.959079 0.0680377 -3.34316e-19)
(1.10614 0.0953124 -6.66428e-20)
(1.22193 0.118633 -5.88732e-19)
(1.30727 0.136836 -3.59025e-20)
(1.36591 0.149782 -1.07991e-19)
(1.40289 0.157989 -2.89585e-19)
(1.42346 0.162295 -6.48071e-20)
(1.43227 0.163611 -2.17726e-19)
(1.43311 0.162769 -3.56468e-19)
(1.42887 0.160458 3.6054e-19)
(1.4216 0.157203 4.6568e-20)
(1.41273 0.153382 9.26716e-20)
(1.4032 0.149248 -4.0353e-19)
(1.39366 0.14503 -1.17241e-20)
(1.38457 0.140873 -6.11512e-19)
(0.0687103 -0.00740183 3.95153e-19)
(0.244742 -0.0126856 2.65123e-19)
(0.446944 0.00261827 -4.319e-19)
(0.655795 0.0294742 6.73241e-19)
(0.853166 0.0615962 -7.40618e-20)
(1.02536 0.0940931 2.50669e-19)
(1.16488 0.123208 8.66512e-20)
(1.27022 0.146779 3.03177e-19)
(1.34423 0.164124 -2.37444e-19)
(1.39216 0.175595 7.79511e-20)
(1.41993 0.182102 -7.43238e-20)
(1.43312 0.184741 -3.11606e-20)
(1.43637 0.184566 6.0987e-20)
(1.43322 0.18246 -1.10674e-19)
(1.42624 0.17911 -3.30161e-20)
(1.41718 0.175011 -1.01733e-19)
(1.40721 0.170502 -1.63689e-19)
(1.39706 0.165797 1.06223e-19)
(1.38723 0.161139 -1.41776e-19)
(1.37807 0.156651 6.1785e-19)
(0.0823403 -0.00612399 -1.95201e-19)
(0.281254 -0.00613064 -5.58131e-19)
(0.500487 0.0162557 -7.42217e-20)
(0.719063 0.04991 -2.18862e-20)
(0.918433 0.0872338 -2.51071e-19)
(1.08603 0.122809 -4.11578e-19)
(1.21653 0.152985 1.33368e-19)
(1.31081 0.176081 -1.83136e-19)
(1.37368 0.192005 -2.02725e-19)
(1.41163 0.201624 1.12102e-19)
(1.43123 0.206215 -8.4114e-20)
(1.43816 0.207092 -1.68203e-19)
(1.43686 0.205399 -4.27849e-21)
(1.43059 0.202039 1.13742e-19)
(1.42156 0.197669 -1.13774e-19)
(1.41122 0.192744 1.57971e-19)
(1.40051 0.187554 4.31191e-20)
(1.38999 0.182281 1.05609e-19)
(1.38003 0.177182 2.02022e-19)
(1.37089 0.172337 -1.73334e-19)
(0.0968116 -0.00390817 1.85413e-19)
(0.318847 0.0028842 -1.42534e-20)
(0.553992 0.0332062 8.53659e-20)
(0.780245 0.0738007 -1.14164e-19)
(0.97933 0.115897 1.08166e-20)
(1.14047 0.153811 3.95281e-19)
(1.26091 0.184259 -2.58136e-19)
(1.34394 0.206212 1.08815e-19)
(1.39615 0.220237 9.55943e-20)
(1.42505 0.227714 -2.65275e-19)
(1.43755 0.230246 2.48042e-19)
(1.43926 0.229311 2.39354e-21)
(1.43435 0.226104 -1.72111e-19)
(1.42568 0.221509 2.06856e-19)
(1.41514 0.21614 -8.14595e-20)
(1.40393 0.2104 6.19642e-20)
(1.39275 0.20453 -6.94603e-20)
(1.38204 0.198685 -2.82559e-20)
(1.37207 0.19314 -2.37342e-19)
(1.36303 0.187903 7.33335e-20)
(0.11196 -0.000658403 -6.10614e-20)
(0.356991 0.0144801 1.66932e-19)
(0.606627 0.0534655 2.6576e-20)
(0.838417 0.100961 1.0955e-19)
(1.0351 0.147258 5.2528e-20)
(1.18828 0.186716 2.46853e-20)
(1.29802 0.216671 1.37909e-19)
(1.36997 0.236886 -1.65275e-20)
(1.41226 0.248622 6.02178e-20)
(1.43311 0.253745 9.60677e-20)
(1.43957 0.254133 4.60191e-20)
(1.43703 0.251373 3.29065e-20)
(1.42928 0.246668 1.32977e-19)
(1.41882 0.240863 -1.28659e-19)
(1.40723 0.23451 2.74535e-20)
(1.39544 0.227959 -2.56e-20)
(1.384 0.221405 3.95058e-20)
(1.37324 0.214979 3.30114e-20)
(1.36335 0.208976 6.82151e-20)
(1.35445 0.20331 2.54616e-21)
(0.127595 0.00370264 3.63263e-20)
(0.395119 0.0287174 3.31125e-20)
(0.657579 0.0769428 -4.60944e-20)
(0.892751 0.131123 2.88153e-20)
(1.08514 0.180937 1.62353e-20)
(1.22924 0.221123 -5.07082e-20)
(1.32802 0.249868 1.65739e-20)
(1.38934 0.267832 3.18013e-21)
(1.42257 0.276975 2.8368e-20)
(1.43642 0.279603 -7.61433e-20)
(1.43784 0.277807 -2.04866e-22)
(1.4319 0.273233 2.0916e-20)
(1.422 0.267058 -1.66868e-20)
(1.41026 0.260064 1.68522e-20)
(1.39796 0.25274 4.37797e-20)
(1.38583 0.245379 -2.48759e-20)
(1.3743 0.238131 6.96512e-21)
(1.3636 0.231113 2.7099e-20)
(1.35385 0.224637 -4.4399e-20)
(1.34514 0.218503 2.15132e-20)
(0.0930993 -0.00364957 6.31617e-20)
(0.301129 -0.0269827 -3.47303e-20)
(0.517292 -0.0735204 4.10025e-20)
(0.723132 -0.128869 -3.05194e-20)
(0.903264 -0.183412 -1.37244e-20)
(1.04882 -0.231098 4.22718e-21)
(1.15787 -0.268716 -1.34664e-20)
(1.23365 -0.295581 4.84959e-20)
(1.28216 -0.312721 -4.02753e-20)
(1.31012 -0.321981 9.11661e-21)
(1.32366 -0.325371 -7.08587e-21)
(1.32775 -0.324682 -4.54869e-20)
(1.32608 -0.321339 4.40178e-20)
(1.32116 -0.316379 1.68036e-20)
(1.31465 -0.310512 -1.60977e-20)
(1.30758 -0.304198 3.82848e-20)
(1.30058 -0.297711 -6.02256e-22)
(1.294 -0.29123 -3.65527e-20)
(1.28806 -0.2851 2.65485e-20)
(1.28291 -0.279284 8.62439e-21)
(0.0793533 -0.00042819 -2.2592e-20)
(0.265903 -0.0157192 6.16075e-20)
(0.467714 -0.0538907 7.20329e-20)
(0.666979 -0.102578 -3.47438e-20)
(0.847855 -0.153169 6.01047e-20)
(0.999723 -0.199662 9.69394e-20)
(1.11828 -0.238268 -5.35439e-21)
(1.20455 -0.267484 -1.69607e-20)
(1.26293 -0.287577 8.4712e-20)
(1.29925 -0.299835 4.15348e-20)
(1.31934 -0.305938 -7.52414e-21)
(1.32824 -0.307538 6.22159e-20)
(1.3299 -0.306043 -6.55131e-20)
(1.3272 -0.302542 1.04899e-19)
(1.32209 -0.29782 -1.69478e-20)
(1.31587 -0.292413 5.08509e-20)
(1.30934 -0.286657 9.59496e-21)
(1.30299 -0.28077 3.53626e-20)
(1.29713 -0.275097 -3.32053e-20)
(1.29199 -0.269717 9.17567e-21)
(0.0663306 0.00183254 -3.36843e-20)
(0.231449 -0.00685062 7.40138e-20)
(0.417695 -0.0373086 5.52763e-20)
(0.608358 -0.0792349 -8.80286e-21)
(0.787792 -0.125233 9.20205e-20)
(0.944234 -0.169661 -7.17414e-20)
(1.07135 -0.208426 -7.14173e-21)
(1.16798 -0.239371 6.47883e-20)
(1.23677 -0.262046 2.19034e-20)
(1.28237 -0.27715 2.94741e-20)
(1.31006 -0.285969 -4.29182e-20)
(1.3248 -0.289945 1.19278e-19)
(1.3307 -0.290418 2.24664e-20)
(1.33094 -0.288492 -1.02895e-19)
(1.32778 -0.285011 1.56394e-19)
(1.3228 -0.280579 -1.83185e-19)
(1.31701 -0.275599 -8.5353e-20)
(1.31108 -0.270334 1.52686e-20)
(1.30544 -0.265135 8.10223e-20)
(1.3004 -0.260186 -1.52279e-19)
(0.0541832 0.00322724 -7.08963e-20)
(0.198281 -0.00025637 -1.66702e-19)
(0.368078 -0.0237801 -1.46873e-19)
(0.548271 -0.0590318 -2.01014e-19)
(0.723975 -0.0999425 -1.19025e-19)
(0.882924 -0.141484 -2.5221e-19)
(1.01721 -0.179537 3.20754e-20)
(1.12366 -0.211487 -1.42825e-19)
(1.20305 -0.236256 -1.5279e-20)
(1.25868 -0.253955 2.39045e-20)
(1.29502 -0.265425 -5.38085e-20)