/*--------------------------------*- C++ -*----------------------------------*\
  =========                 |
  \\      /  F ield         | OpenFOAM: The Open Source CFD Toolbox
   \\    /   O peration     | Website:  https://openfoam.org
    \\  /    A nd           | Version:  6.0
     \\/     M anipulation  |
\*---------------------------------------------------------------------------*/
FoamFile
{
    version     2.0;
    format      ascii;
    class       surfaceScalarField;
    location    "59";
    object      phi;
}
// * * * * * * * * * * * * * * * * * * * * * * * * * * * * * * * * * * * * * //

dimensions      [0 3 -1 0 0 0 0];

internalField   nonuniform List<scalar> 
24700
(
-5.76588e-07
8.22454e-05
-8.16688e-05
-2.8483e-06
0.000205252
-0.00020298
-7.0071e-06
0.000295243
-0.000291084
-1.29784e-05
0.000358572
-0.000352601
-2.05118e-05
0.000400785
-0.000393252
-2.92581e-05
0.000426677
-0.000417931
-3.88267e-05
0.000440245
-0.000430676
-4.88256e-05
0.000444703
-0.000434704
-5.88862e-05
0.00044254
-0.00043248
-6.86765e-05
0.000435605
-0.000425815
-7.7908e-05
0.00042521
-0.000415978
-8.6338e-05
0.000412235
-0.000403805
-9.37698e-05
0.000397227
-0.000389795
-0.000100053
0.000380491
-0.000374208
-0.000105083
0.000362164
-0.000357134
-0.000108802
0.000342278
-0.000338558
-0.000111201
0.000320815
-0.000318416
-0.000112317
0.000297744
-0.000296627
-0.000112238
0.00027305
-0.00027313
-0.000111094
0.000246758
-0.000247902
-0.000109059
0.000218939
-0.000220974
-0.000106338
0.000189719
-0.00019244
-0.000103159
0.000159271
-0.00016245
-9.97656e-05
0.000127797
-0.00013119
9.55001e-05
-9.88622e-05
-9.64035e-05
-9.12202e-08
8.23367e-05
-1.20902e-06
0.000206369
-3.77561e-06
0.000297809
-7.89129e-06
0.000362688
-1.34335e-05
0.000406328
-2.01414e-05
0.000433385
-2.76822e-05
0.000447786
-3.56979e-05
0.000452719
-4.38367e-05
0.000450679
-5.17717e-05
0.00044354
-5.92113e-05
0.000432649
-6.59041e-05
0.000418927
-7.16409e-05
0.000402964
-7.62556e-05
0.000385106
-7.96251e-05
0.000365533
-8.16703e-05
0.000344323
-8.2356e-05
0.000321501
-8.16915e-05
0.000297079
-7.97301e-05
0.000271089
-7.65674e-05
0.000243595
-7.23383e-05
0.00021471
-6.72119e-05
0.000184592
-6.13849e-05
0.000153444
-5.50801e-05
0.000121492
8.89621e-05
-4.85421e-05
3.89474e-07
8.19472e-05
4.3198e-07
0.000206327
-5.12465e-07
0.000298754
-2.71286e-06
0.000364888
-6.17248e-06
0.000409787
-1.07197e-05
0.000437932
-1.60806e-05
0.000453147
-2.19329e-05
0.000458572
-2.79432e-05
0.000456689
-3.37901e-05
0.000449387
-3.91791e-05
0.000438038
-4.38499e-05
0.000423598
-4.758e-05
0.000406694
-5.01864e-05
0.000387712
-5.15264e-05
0.000366873
-5.14973e-05
0.000344294
-5.00366e-05
0.00032004
-4.71224e-05
0.000294165
-4.27726e-05
0.000266739
-3.70451e-05
0.000237868
-3.00363e-05
0.000207701
-2.188e-05
0.000176436
-1.27457e-05
0.00014431
-2.84466e-06
0.000111591
7.85506e-05
7.56683e-06
8.61423e-07
8.10858e-05
2.06172e-06
0.000205127
2.75922e-06
0.000298056
2.52511e-06
0.000365122
1.23378e-06
0.000411079
-1.03201e-06
0.000440198
-4.05895e-06
0.000456174
-7.56256e-06
0.000462075
-1.12295e-05
0.000460356
-1.47462e-05
0.000452904
-1.78165e-05
0.000441109
-2.0172e-05
0.000425954
-2.15779e-05
0.0004081
-2.18348e-05
0.000387969
-2.07802e-05
0.000365818
-1.82877e-05
0.000341801
-1.42675e-05
0.00031602
-8.66526e-06
0.000288563
-1.46326e-06
0.000259537
7.31943e-06
0.000229085
1.76247e-05
0.000197396
2.93529e-05
0.000164708
4.23583e-05
0.000131305
5.64349e-05
9.75141e-05
6.36826e-05
7.1303e-05
1.31911e-06
7.97666e-05
3.66247e-06
0.000202783
6.00645e-06
0.000295712
7.77418e-06
0.000363355
8.72318e-06
0.00041013
8.84869e-06
0.000440072
8.30238e-06
0.00045672
7.32863e-06
0.000463049
6.21764e-06
0.000461467
5.27282e-06
0.000453848
4.78934e-06
0.000441592
5.04111e-06
0.000425702
6.27361e-06
0.000406867
8.70054e-06
0.000385542
1.25028e-05
0.000362016
1.78287e-05
0.000336475
2.47949e-05
0.000309053
3.34864e-05
0.000279871
4.39564e-05
0.000249067
5.62239e-05
0.000216818
7.02689e-05
0.000183351
8.60252e-05
0.000148951
0.000103369
0.000113961
0.000122095
7.87876e-05
4.38862e-05
0.000141892
1.75561e-06
7.8011e-05
5.21156e-06
0.000199327
9.18601e-06
0.000291738
1.29689e-05
0.000359572
1.62089e-05
0.00040689
1.88163e-05
0.000437465
2.08807e-05
0.000454656
2.2604e-05
0.000461326
2.42501e-05
0.000459821
2.61086e-05
0.00045199
2.84701e-05
0.00043923
3.1611e-05
0.000422561
3.57841e-05
0.000402694
4.12145e-05
0.000380112
4.80984e-05
0.000355132
5.66035e-05
0.00032797
6.68701e-05
0.000298787
7.90119e-05
0.00026773
9.31153e-05
0.000234964
0.000109236
0.000200697
0.000127391
0.000165196
0.000147549
0.000128794
0.000169606
9.1904e-05
0.000193359
5.50347e-05
1.87913e-05
0.000218454
2.16323e-06
7.58478e-05
6.68292e-06
0.000194808
1.22468e-05
0.000286174
1.80299e-05
0.000353788
2.35821e-05
0.000401337
2.87336e-05
0.000432313
3.35121e-05
0.000449877
3.80751e-05
0.000456763
4.26568e-05
0.00045524
4.75289e-05
0.000447118
5.29734e-05
0.000433786
5.92648e-05
0.00041627
6.66592e-05
0.0003953
7.53892e-05
0.000371382
8.56625e-05
0.000344859
9.76621e-05
0.000315971
0.000111548
0.000284901
0.000127459
0.000251819
0.000145511
0.000216912
0.000165794
0.000180414
0.000188363
0.000142627
0.000213219
0.000103938
0.000240284
6.48391e-05
0.000269354
2.59644e-05
-1.18859e-05
0.000300031
2.53346e-06
7.33143e-05
8.04723e-06
0.000189294
1.51301e-05
0.000279091
2.28639e-05
0.000346055
3.07128e-05
0.000393488
3.8433e-05
0.000424593
4.59923e-05
0.000442318
5.35022e-05
0.000449253
6.11638e-05
0.000447578
6.9227e-05
0.000439055
7.79604e-05
0.000425052
8.76321e-05
0.000406598
9.84968e-05
0.000384435
0.00011079
0.000359089
0.000124727
0.000330923
0.000140499
0.000300198
0.000158284
0.000267116
0.000178239
0.000231864
0.000200507
0.000194644
0.000225209
0.000155712
0.000252434
0.000115401
0.000282221
7.41515e-05
0.000314519
3.25413e-05
0.000349129
-8.64525e-06
-4.836e-05
0.000385603
2.8574e-06
7.04569e-05
9.27323e-06
0.000182878
1.77723e-05
0.000270592
2.73679e-05
0.000336459
3.74542e-05
0.000383402
4.77219e-05
0.000414326
5.8082e-05
0.000431958
6.85996e-05
0.000438735
7.94402e-05
0.000436737
9.08275e-05
0.000427667
0.000103012
0.000412868
0.000116251
0.000393359
0.000130793
0.000369894
0.000146871
0.000343011
0.000164701
0.000313092
0.000184483
0.000280415
0.000206403
0.000245197
0.000230633
0.000207634
0.000257337
0.00016794
0.000286664
0.000126385
0.00031874
8.33256e-05
0.000353638
3.92528e-05
0.000391342
-5.16258e-06
0.000431662
-4.89649e-05
-9.07966e-05
0.000474098
3.1262e-06
6.73307e-05
1.03292e-05
0.000175675
2.01078e-05
0.000260814
3.14337e-05
0.000325133
4.36493e-05
0.000371187
5.63907e-05
0.000401584
6.95169e-05
0.000418831
8.30475e-05
0.000425204
9.71104e-05
0.000422674
0.0001119
0.000412878
0.000127644
0.000397124
0.000144583
0.00037642
0.000162955
0.000351521
0.000182988
0.000322978
0.000204893
0.000291187
0.000228873
0.000256436
0.000255116
0.000218954
0.000283806
0.000178943
0.000315125
0.000136622
0.000349245
9.22644e-05
0.000386325
4.62458e-05
0.000426479
-9.0119e-07
0.000469727
-4.84111e-05
0.000515897
-9.51348e-05
-0.000139334
0.000564434
3.33159e-06
6.39991e-05
1.1185e-05
0.000167822
2.20726e-05
0.000249926
3.4954e-05
0.000312252
4.914e-05
0.000357001
6.42248e-05
0.000386499
8.00222e-05
0.000403034
9.65088e-05
0.000408718
0.000113774
0.000405409
0.000131979
0.000394673
0.000151328
0.000377775
0.000172039
0.000355708
0.000194337
0.000329224
0.000218436
0.000298879
0.000244545
0.000265078
0.000272859
0.000228122
0.00030357
0.000188243
0.000336867
0.000145645
0.000372945
0.000100545
0.000411997
5.32123e-05
0.000454213
4.02996e-06
0.000499748
-4.64366e-05
0.000548667
-9.73298e-05
0.000600819
-0.000147287
-0.000194107
0.000655593
3.46639e-06
6.05328e-05
1.18138e-05
0.000159474
2.3609e-05
0.000238131
3.78299e-05
0.000298031
5.37776e-05
0.000341053
7.10188e-05
0.000369258
8.93309e-05
0.000384722
0.000108651
0.000389397
0.000129032
0.000385029
0.000150602
0.000373103
0.000173534
0.000354843
0.000198026
0.000331216
0.000224283
0.000302967
0.000252507
0.000270655
0.000282895
0.00023469
0.000315639
0.000195378
0.000350928
0.000152954
0.000388954
0.000107618
0.00042992
5.95784e-05
0.000474039
9.09411e-06
0.000521526
-4.34575e-05
0.000572579
-9.74894e-05
0.000627308
-0.000152059
0.000685594
-0.000205573
-0.000255274
0.000746761
3.52512e-06
5.70076e-05
1.21945e-05
0.000150805
2.46703e-05
0.000225655
3.99791e-05
0.000282722
5.74354e-05
0.000323597
7.65942e-05
0.000350099
9.72071e-05
0.000364109
0.000119178
0.000367426
0.000142525
0.000361682
0.000167343
0.000348285
0.000193778
0.000328408
0.000222003
0.000302992
0.000252202
0.000272768
0.000284564
0.000238292
0.000319276
0.000199978
0.000356522
0.000158132
0.000396489
0.000112987
0.000439371
6.47361e-05
0.000485376
1.35741e-05
0.000534727
-4.0257e-05
0.000587664
-9.6395e-05
0.000644419
-0.000154244
0.000705148
-0.000212788
0.000769766
-0.000270191
-0.000323037
0.000837529
3.50457e-06
5.35031e-05
1.23142e-05
0.000141995
2.52258e-05
0.000212743
4.13452e-05
0.000266603
6.00228e-05
0.000304919
8.08192e-05
0.000329303
0.000103472
0.000341456
0.000127861
0.000343037
0.000153974
0.000335569
0.000181876
0.000320383
0.000211687
0.000298597
0.000243557
0.000271122
0.000277653
0.000238672
0.00031415
0.000201795
0.000353227
0.000160902
0.000395063
0.000116296
0.000439842
6.82073e-05
0.000487759
1.68198e-05
0.00053902
-3.76877e-05
0.000593857
-9.50938e-05
0.000652519
-0.000155057
0.000715259
-0.000216984
0.000782267
-0.000279796
0.00085349
-0.000341415
-0.000397662
0.000928115
3.40446e-06
5.00986e-05
1.21702e-05
0.000133229
2.52665e-05
0.000199647
4.19066e-05
0.000249963
6.14995e-05
0.000285326
8.36294e-05
0.000307173
0.000108033
0.000317052
0.000134577
0.000316494
0.000163226
0.00030692
0.000194024
0.000289585
0.000227068
0.000265554
0.00026249
0.0002357
0.000300445
0.000200717
0.0003411
0.00016114
0.000384628
0.000117374
0.000431207
6.97169e-05
0.000481022
1.8393e-05
0.000534262
-3.64206e-05
0.000591132
-9.45577e-05
0.000651853
-0.000155814
0.000716665
-0.000219869
0.000785817
-0.000286136
0.000859508
-0.000353487
0.000937702
-0.000419608
-0.000479475
0.00101952
3.22801e-06
4.68706e-05
1.17725e-05
0.000124685
2.48093e-05
0.00018661
4.16853e-05
0.000233086
6.18897e-05
0.000265122
8.5048e-05
0.000284015
0.000110912
0.000291188
0.000139346
0.00028806
0.000170306
0.00027596
0.000203822
0.000256069
0.000239979
0.000229397
0.000278899
0.000196779
0.000320733
0.000158883
0.000365647
0.000116227
0.000413815
6.92053e-05
0.000465419
1.81129e-05
0.000520642
-3.68296e-05
0.000579667
-9.54463e-05
0.000642683
-0.000157573
0.00070988
-0.000223012
0.000781459
-0.000291448
0.000857624
-0.0003623
0.000938537
-0.0004344
0.00102415
-0.000505219
-0.000568838
0.00111351
2.98259e-06
4.3888e-05
1.11458e-05
0.000116522
2.39019e-05
0.000173854
4.07547e-05
0.000216234
6.12936e-05
0.000244583
8.52036e-05
0.000260105
0.000112269
0.000264123
0.000142366
0.000257963
0.000175456
0.00024287
0.00021157
0.000219955
0.000250791
0.000190175
0.000293248
0.000154323
0.000339095
0.000113036
0.000388506
6.68156e-05
0.000441665
1.60466e-05
0.000498756
-3.89783e-05
0.000559959
-9.80326e-05
0.000625441
-0.000160928
0.000695353
-0.000227485
0.000769825
-0.000297484
0.000848973
-0.000370597
0.0009329
-0.000446228
0.00102167
-0.000523173
0.00111518
-0.000598723
-0.000666073
0.00121241
2.68013e-06
4.12079e-05
1.03309e-05
0.000108871
2.26254e-05
0.00016156
3.92442e-05
0.000199615
5.98954e-05
0.000223932
8.43416e-05
0.000235658
0.000112416
0.000236048
0.000144028
0.000226351
0.00017916
0.000207738
0.000217858
0.000181257
0.000260225
0.000147808
0.000306403
0.000108145
0.000356565
6.28741e-05
0.000410899
1.24808e-05
0.000469601
-4.2655e-05
0.000532855
-0.000102232
0.000600824
-0.000166002
0.000673639
-0.000233743
0.00075138
-0.000305226
0.000834078
-0.000380181
0.000921709
-0.000458227
0.00101421
-0.000538727
0.00111147
-0.000620437
0.00121327
-0.000700517
-0.000771353
0.00131855
2.33735e-06
3.88705e-05
9.38479e-06
0.000101823
2.10948e-05
0.00014985
3.73403e-05
0.000183369
5.79649e-05
0.000203307
8.28267e-05
0.000210797
0.000111827
0.000207048
0.000144927
0.000193251
0.000182149
0.000170516
0.000223575
0.00013983
0.00026934
0.000102044
0.000319615
5.78696e-05
0.000374597
7.89135e-06
0.000434494
-4.74162e-05
0.000499504
-0.000107664
0.000569796
-0.000172524
0.000645494
-0.0002417
0.000726654
-0.000314903
0.000813246
-0.000391819
0.000905146
-0.000472081
0.00100213
-0.000555212
0.0011039
-0.000640499
0.00121012
-0.000726652
0.00132036
-0.000810759
-0.00088455
0.00143356
1.97548e-06
3.6895e-05
8.37995e-06
9.54189e-05
1.94562e-05
0.000138773
3.52818e-05
0.000167544
5.58503e-05
0.000182739
8.11325e-05
0.000185514
0.000111117
0.000177063
0.000145836
0.000158532
0.000185372
0.00013098
0.000229861
9.53421e-05
0.000279479
5.24253e-05
0.000334438
2.91115e-06
0.000394958
-5.2629e-05
0.000461254
-0.000113712
0.000533509
-0.000179919
0.000611847
-0.000250862
0.000696311
-0.000326164
0.000786834
-0.000405426
0.00088322
-0.000488205
0.000985132
-0.000573992
0.00109209
-0.00066217
0.00120351
-0.000751919
0.00131876
-0.000841897
0.00143718
-0.000929188
-0.00100507
0.00155771
1.61951e-06
3.52755e-05
7.40095e-06
8.96375e-05
1.7881e-05
0.000128293
3.33491e-05
0.000152076
5.39614e-05
0.000162126
7.98172e-05
0.000159659
0.000111011
0.000145869
0.000147663
0.00012188
0.000189934
8.87098e-05
0.000238021
4.72546e-05
0.000292156
-1.70925e-06
0.00035258
-5.75135e-05
0.000419528
-0.000119577
0.000493197
-0.000187381
0.000573715
-0.000260437
0.000661116
-0.000338263
0.000755303
-0.000420351
0.000856028
-0.00050615
0.000962867
-0.000595044
0.00107522
-0.000686341
0.00119229
-0.00077925
0.0013132
-0.000872821
0.00143697
-0.000965674
0.00156274
-0.00105496
-0.00113173
0.0016894
1.29664e-06
3.39789e-05
6.53959e-06
8.43945e-05
1.65544e-05
0.000118279
3.18461e-05
0.000136784
5.27422e-05
0.00014123
7.94842e-05
0.000132917
0.000112287
0.000113066
0.000151373
8.27936e-05
0.000196989
4.30937e-05
0.000249402
-5.15797e-06
0.000308885
-6.11928e-05
0.000375699
-0.000124327
0.000450057
-0.000193935
0.000532097
-0.00026942
0.00062184
-0.00035018
0.000719163
-0.000435586
0.000823766
-0.000524955
0.000935152
-0.000617536
0.00105261
-0.000712505
0.00117523
-0.000808962
0.00130192
-0.000905932
0.00143143
-0.00100234
0.00156254
-0.00109678
0.00169412
-0.00118654
-0.00126262
0.00182501
1.0343e-06
3.29446e-05
5.88805e-06
7.95408e-05
1.56626e-05
0.000108504
3.10768e-05
0.00012137
5.26354e-05
0.000119671
8.07308e-05
0.000104821
0.000115707
7.80896e-05
0.000157897
4.0604e-05
0.000207631
-6.64017e-06
0.000265233
-6.27603e-05
0.000331001
-0.000126961
0.000405174
-0.0001985
0.000487899
-0.000276661
0.000579192
-0.000360713
0.000678902
-0.00044989
0.000786676
-0.000543361
0.000901944
-0.000640222
0.0010239
-0.000739491
0.00115151
-0.000840112
0.00128352
-0.000940973
0.00141851
-0.00104093
0.00155497
-0.00113879
0.00169141
-0.00123322
0.00182656
-0.00132169
-0.00139528
0.00195922
8.57742e-07
3.20868e-05
5.53113e-06
7.48674e-05
1.53765e-05
9.86586e-05
3.13198e-05
0.000105427
5.40434e-05
9.69478e-05
8.40934e-05
7.47713e-05
0.000121944
4.02385e-05
0.000168032
-5.48372e-06
0.000222759
-6.13667e-05
0.000286479
-0.00012648
0.000359472
-0.000199953
0.000441904
-0.000280933
0.000533791
-0.000368547
0.000634955
-0.000461877
0.000744996
-0.00055993
0.000863268
-0.000661632
0.000988871
-0.000765825
0.00112066
-0.000871278
0.00125725
-0.000976707
0.00139709
-0.00108081
0.00153843
-0.00118228
0.00167951
-0.00127986
0.0018186
-0.00137231
0.00195435
-0.00145744
-0.00152675
0.00208582
7.87604e-07
3.12992e-05
5.53872e-06
7.01163e-05
1.58371e-05
8.83602e-05
3.28033e-05
8.84604e-05
5.72914e-05
7.24598e-05
8.99955e-05
4.20672e-05
0.000131511
-1.27666e-06
0.000182358
-5.63305e-05
0.000242978
-0.000121988
0.000313715
-0.000197217
0.00039477
-0.000281009
0.000486169
-0.000372332
0.000587718
-0.000470096
0.000698969
-0.000573128
0.000819203
-0.000680165
0.000947426
-0.000789855
0.00108238
-0.000900781
0.00122258
-0.00101148
0.00136636
-0.00112049
0.00151193
-0.00122637
0.0016574
-0.00132775
0.00180088
-0.00142334
0.00194031
-0.00151175
0.00207322
-0.00159035
-0.00165094
0.00219742
8.37559e-07
3.04617e-05
5.95906e-06
6.49948e-05
1.71426e-05
7.71767e-05
3.56852e-05
6.99178e-05
6.25988e-05
4.55461e-05
9.87102e-05
5.95576e-06
0.000144712
-4.72785e-05
0.000201176
-0.000112795
0.000268538
-0.00018935
0.000347065
-0.000275744
0.000436813
-0.000370757
0.000537584
-0.000473103
0.000648895
-0.000581406
0.000769954
-0.000694187
0.000899664
-0.000809876
0.00103665
-0.000926839
0.00117929
-0.00104342
0.00132578
-0.00115798
0.00147426
-0.00126896
0.00162283
-0.00137494
0.00176972
-0.00147464
0.00191336
-0.00156699
0.00205267
-0.00165105
0.00218808
-0.00172577
-0.00178699
0.00232412
1.01516e-06
2.94465e-05
6.81844e-06
5.91915e-05
1.93454e-05
6.46497e-05
4.00456e-05
4.92177e-05
7.00668e-05
1.55249e-05
0.000110342
-3.43195e-05
0.000161626
-9.8562e-05
0.000224492
-0.000175661
0.000299307
-0.000264166
0.000386191
-0.000362628
0.000484969
-0.000469535
0.000595139
-0.000583273
0.000715849
-0.000702116
0.000845904
-0.000824242
0.000983792
-0.000947764
0.00112774
-0.00107079
0.00127578
-0.00119146
0.00142587
-0.00130807
0.00157595
-0.00141905
0.00172409
-0.00152308
0.00186856
-0.00161911
0.00200795
-0.00170638
0.00214131
-0.00178441
0.00226843
-0.00185288
-0.00190866
0.0023901
1.31918e-06
2.81273e-05
8.11691e-06
5.23938e-05
2.24475e-05
5.0319e-05
4.58832e-05
2.5782e-05
7.96772e-05
-1.82691e-05
0.000124831
-7.94731e-05
0.000182111
-0.000155842
0.000252032
-0.000245581
0.000334817
-0.000346951
0.000430354
-0.000458165
0.000538154
-0.000577335
0.00065733
-0.000702449
0.000786603
-0.000831389
0.000924333
-0.000961972
0.00106859
-0.00109202
0.00121722
-0.00121942
0.00136799
-0.00134223
0.00151867
-0.00145874
0.00166713
-0.00156751
0.00181151
-0.00166745
0.00195019
-0.00175779
0.00208195
-0.00183814
0.00220593
-0.0019084
0.00232168
-0.00196862
-0.00201667
0.00242968
1.74271e-06
2.63846e-05
9.83482e-06
4.43017e-05
2.64101e-05
3.37437e-05
5.31286e-05
-9.3643e-07
9.13097e-05
-5.64503e-05
0.000141974
-0.000130138
0.000205841
-0.000219708
0.000283291
-0.000323031
0.00037432
-0.000437981
0.000478499
-0.000562344
0.000594941
-0.000693777
0.000722312
-0.000829819
0.000858862
-0.000967939
0.0010025
-0.00110561
0.00115091
-0.00124043
0.00130165
-0.00137015
0.00145228
-0.00149287
0.00160053
-0.00160699
0.00174435
-0.00171133
0.00188202
-0.00180513
0.00201223
-0.001888
0.00213402
-0.00195993
0.00224687
-0.00202124
0.0023506
-0.00207235
-0.0021121
0.00244603
2.27466e-06
2.411e-05
1.19377e-05
3.46386e-05
3.11636e-05
1.45179e-05
6.16602e-05
-3.14331e-05
0.000104766
-9.95564e-05
0.000161464
-0.000186836
0.000232351
-0.000290596
0.000317593
-0.000408273
0.000416872
-0.00053726
0.000529354
-0.000674826
0.000653689
-0.000818112
0.000788047
-0.000964178
0.000930204
-0.0011101
0.00107766
-0.00125307
0.00122776
-0.00139053
0.00137788
-0.00152028
0.00152555
-0.00164054
0.00166857
-0.00175001
0.00180511
-0.00184787
0.00193377
-0.00193378
0.00205358
-0.00200781
0.00216402
-0.00207037
0.00226494
-0.00212216
0.00235654
-0.00216395
-0.00219538
0.00243983
2.90196e-06
2.1208e-05
1.43831e-05
2.31575e-05
3.66198e-05
-7.71881e-06
7.1324e-05
-6.61373e-05
0.000119799
-0.000148031
0.00018292
-0.000249956
0.000261083
-0.000368759
0.000354151
-0.000501341
0.000461403
-0.000644511
0.000581526
-0.000794949
0.000712655
-0.00094924
0.000852453
-0.00110398
0.000998246
-0.00125589
0.00114719
-0.00140201
0.00129643
-0.00153977
0.00144329
-0.00166714
0.0015854
-0.00178265
0.00172079
-0.0018854
0.00184799
-0.00197507
0.00196599
-0.00205178
0.00207428
-0.0021161
0.00217277
-0.00216886
0.00226171
-0.0022111
0.00234166
-0.00224391
-0.00226752
0.0024138
3.61176e-06
1.75962e-05
1.71264e-05
9.64279e-06
4.26838e-05
-3.32761e-05
8.19507e-05
-0.000105404
0.000136133
-0.000202213
0.000205922
-0.000319746
0.000291427
-0.000454265
0.000392115
-0.000602028
0.000506781
-0.000759177
0.000633577
-0.000921745
0.000770094
-0.00108576
0.000913513
-0.00124739
0.00106078
-0.00140316
0.00120882
-0.00155004
0.00135471
-0.00168567
0.00149589
-0.00180832
0.00163023
-0.00191698
0.00175614
-0.00201131
0.00187256
-0.00209149
0.00197898
-0.0021582
0.00207533
-0.00221245
0.00216193
-0.00225546
0.0022394
-0.00228857
0.00230857
-0.00231308
-0.00232964
0.00237069
4.39283e-06
1.32034e-05
2.01259e-05
-6.09026e-06
4.92616e-05
-6.24119e-05
9.33679e-05
-0.000149511
0.000153483
-0.000262328
0.000230032
-0.000396295
0.000322746
-0.000546979
0.000430608
-0.00070989
0.000551859
-0.000880429
0.000684079
-0.00105396
0.000824332
-0.00122601
0.000969372
-0.00139243
0.00111588
-0.00154966
0.00126068
-0.00169485
0.00140096
-0.00182595
0.00153441
-0.00194176
0.00165927
-0.00204185
0.00177443
-0.00212646
0.00187931
-0.00219637
0.00197387
-0.00225276
0.00205846
-0.00229705
0.00213377
-0.00233076
0.00220067
-0.00235547
0.00226018
-0.0023726
-0.00238304
0.00231358
5.23628e-06
7.96714e-06
2.33441e-05
-2.41981e-05
5.62645e-05
-9.53323e-05
0.000105406
-0.000198652
0.000171563
-0.000328485
0.000254805
-0.000479537
0.000354391
-0.000646565
0.000468743
-0.000824243
0.000595502
-0.00100719
0.000731669
-0.00119013
0.000873831
-0.00136817
0.00101842
-0.00153702
0.00116198
-0.00169322
0.00130142
-0.00183429
0.00143417
-0.0019587
0.00155829
-0.00206589
0.00167254
-0.00215609
0.00177627
-0.00223019
0.00186943
-0.00228953
0.00195239
-0.00233572
0.00202587
-0.00237053
0.00209081
-0.00239571
0.00214827
-0.00241293
0.00219936
-0.00242369
-0.002429
0.00224531
6.13536e-06
1.83179e-06
2.67483e-05
-4.4811e-05
6.36083e-05
-0.000132192
0.000117897
-0.000252941
0.000190082
-0.00040067
0.000279785
-0.00056924
0.000385708
-0.000752487
0.000505647
-0.000944182
0.00063662
-0.00113816
0.000775088
-0.0013286
0.000917247
-0.00151033
0.00105934
-0.00167911
0.00119795
-0.00183183
0.0013302
-0.00196654
0.00145391
-0.00208241
0.00156765
-0.00217963
0.00167067
-0.00225912
0.00176286
-0.00232238
0.0018446
-0.00237127
0.00191663
-0.00240775
0.00197994
-0.00243384
0.00203564
-0.00245141
0.00208488
-0.00246216
0.00212877
-0.00246758
-0.00246868
0.00216846
7.08475e-06
-5.25296e-06
3.03081e-05
-6.80344e-05
7.12107e-05
-0.000173095
0.000130673
-0.000312404
0.000208747
-0.000478744
0.000304515
-0.000665007
0.000416044
-0.000864017
0.000540469
-0.00106861
0.000674199
-0.00127189
0.000813225
-0.00146763
0.000953479
-0.00165058
0.00109118
-0.00181681
0.00122308
-0.00196374
0.00134671
-0.00209016
0.00146036
-0.00219607
0.00156314
-0.00228241
0.00165484
-0.00235081
0.0017358
-0.00240335
0.00180679
-0.00244225
0.00186883
-0.00246979
0.00192307
-0.00248808
0.00197072
-0.00249905
0.00201291
-0.00250436
0.00205072
-0.00250539
-0.00250313
0.00208517
8.07951e-06
-1.33325e-05
3.39932e-05
-9.39481e-05
7.89867e-05
-0.000218088
0.000143559
-0.000376976
0.000227253
-0.000562438
0.000328527
-0.000766281
0.000444758
-0.000980248
0.000572408
-0.00119626
0.00070733
-0.00140681
0.000845157
-0.00160545
0.000981709
-0.00178714
0.00111333
-0.00194844
0.00123714
-0.00208755
0.00135113
-0.00220414
0.00145415
-0.00229909
0.00154585
-0.00237411
0.00162652
-0.00243148
0.0016969
-0.00247373
0.00175804
-0.0025034
0.00181115
-0.0025229
0.00185747
-0.0025344
0.00189819
-0.00253978
0.00193442
-0.00254059
0.00196713
-0.0025381
-0.00253321
0.00199721
9.114e-06
-2.24465e-05
3.77701e-05
-0.000122604
8.68448e-05
-0.000267163
0.000156367
-0.000446498
0.000245284
-0.000651355
0.000351354
-0.000872351
0.000471231
-0.00110013
0.000600732
-0.00132576
0.000735244
-0.00154132
0.000870182
-0.00174039
0.00100142
-0.00191837
0.00112559
-0.00207261
0.00124028
-0.00220223
0.00134402
-0.00230789
0.00143625
-0.00239132
0.00151713
-0.00245499
0.00158737
-0.00250172
0.00164803
-0.00253438
0.00170034
-0.00255571
0.0017456
-0.00256817
0.00178508
-0.00257388
0.00181992
-0.00257461
0.00185111
-0.00257179
0.00187953
-0.00256652
-0.00255959
0.00190591
1.01811e-05
-3.26276e-05
4.16007e-05
-0.000154024
9.46843e-05
-0.000320247
0.000168901
-0.000520715
0.000262517
-0.00074497
0.000372536
-0.000982371
0.000494889
-0.00122248
0.000624808
-0.00145568
0.000757339
-0.00167385
0.000887839
-0.00187089
0.00101239
-0.00204293
0.00112806
-0.00218828
0.00123297
-0.00230715
0.00132626
-0.00240117
0.00140789
-0.00247295
0.00147848
-0.00252559
0.00153908
-0.00256232
0.00159096
-0.00258626
0.00163548
-0.00260022
0.00167394
-0.00260663
0.00170756
-0.0026075
0.00173739
-0.00260444
0.00176432
-0.00259872
0.00178909
-0.00259129
-0.00258281
0.00181231
1.12718e-05
-4.38994e-05
4.54411e-05
-0.000188193
0.000102395
-0.000377201
0.000180954
-0.000599274
0.000278628
-0.000842644
0.000391639
-0.00109538
0.000515221
-0.00134606
0.000644126
-0.00158458
0.000773201
-0.00180293
0.000897911
-0.0019956
0.0010147
-0.00215971
0.00112115
-0.00229473
0.00121599
-0.00240198
0.00129891
-0.0024841
0.00137039
-0.00254443
0.00143141
-0.00258661
0.00148327
-0.00261417
0.00152735
-0.00263035
0.00156506
-0.00263793
0.00159765
-0.00263923
0.00162626
-0.0026361
0.00165181
-0.00263
0.00167509
-0.002622
0.00169671
-0.00261291
-0.00260325
0.00171716
1.23748e-05
-5.62742e-05
4.92414e-05
-0.00022506
0.000109859
-0.000437818
0.000192313
-0.000681729
0.000293303
-0.000943634
0.000408263
-0.00121034
0.000531802
-0.0014696
0.000658312
-0.00171109
0.000782608
-0.00192722
0.000900412
-0.00211341
0.00100865
-0.00226795
0.00110549
-0.00239157
0.00119025
-0.00248675
0.00126317
-0.00255701
0.00132512
-0.00260639
0.00137739
-0.00263887
0.00142141
-0.00265819
0.00145863
-0.00266757
0.00149041
-0.00266971
0.00151795
-0.00266676
0.00154224
-0.00266039
0.00156411
-0.00265187
0.00158421
-0.0026421
0.00160304
-0.00263174
-0.0026212
0.00162099
1.3477e-05
-6.97511e-05
5.29473e-05
-0.00026453
0.000116952
-0.000501823
0.000202769
-0.000767546
0.000306249
-0.00104711
0.000422069
-0.00132616
0.000544306
-0.00159183
0.000667145
-0.00183393
0.000785524
-0.0020456
0.000895562
-0.00222344
0.000994742
-0.00236713
0.00108185
-0.00247868
0.00115678
-0.00256167
0.00122023
-0.00262046
0.00127339
-0.00265955
0.00131775
-0.00268323
0.00135481
-0.00269525
0.00138602
-0.00269878
0.00141265
-0.00269634
0.0014358
-0.0026899
0.00145633
-0.00268093
0.00147497
-0.0026705
0.00149223
-0.00265936
0.00150854
-0.00264805
-0.00263685
0.00152419
1.45636e-05
-8.43147e-05
5.65012e-05
-0.000306468
0.000123551
-0.000568873
0.000212121
-0.000856116
0.000317204
-0.0011522
0.00043278
-0.00144174
0.000552517
-0.00171157
0.00067055
-0.00195197
0.000782086
-0.00215714
0.00088375
-0.00232511
0.000973635
-0.00245701
0.00105113
-0.00255618
0.00111665
-0.00262719
0.00117125
-0.00267506
0.0012164
-0.0027047
0.00125367
-0.00272049
0.00128458
-0.00272617
0.00131052
-0.00272472
0.00133266
-0.00271848
0.00135196
-0.0027092
0.00136918
-0.00269815
0.00138491
-0.00268623
0.0013996
-0.00267405
0.00141356
-0.00266201
-0.00265031
0.00142703
1.56188e-05
-9.99335e-05
5.98443e-05
-0.000350693
0.000129535
-0.000638564
0.000220187
-0.000946767
0.000325952
-0.00125796
0.000440199
-0.00155598
0.000556332
-0.00182771
0.000668588
-0.00206422
0.000772574
-0.00226113
0.000865494
-0.00241803
0.000946066
-0.00253758
0.00101425
-0.00262436
0.00107088
-0.00268382
0.00111735
-0.00272153
0.00115525
-0.0027426
0.00118619
-0.00275144
0.00121167
-0.00275165
0.00123297
-0.00274601
0.00125114
-0.00273665
0.00126702
-0.00272508
0.00128125
-0.00271239
0.00129433
-0.00269931
0.0013066
-0.00268633
0.00131834
-0.00267374
-0.00266168
0.0013297
1.66262e-05
-0.00011656
6.29184e-05
-0.000396985
0.000134792
-0.000710438
0.000226807
-0.00103878
0.000332323
-0.00136348
0.000444209
-0.00166787
0.000555755
-0.00193925
0.000661441
-0.00216991
0.000757382
-0.00235707
0.000841399
-0.00250205
0.000912818
-0.002609
0.000972105
-0.00268365
0.00102047
-0.00273219
0.00105949
-0.00276055
0.00109086
-0.00277397
0.00111617
-0.00277675
0.00113683
-0.00277231
0.00115401
-0.00276319
0.00116863
-0.00275127
0.00118141
-0.00273786
0.0011929
-0.00272388
0.00120349
-0.0027099
0.00121347
-0.00269631
0.00122304
-0.00268331
-0.00267097
0.00123234
1.75692e-05
-0.000134129
6.56682e-05
-0.000445084
0.000139221
-0.00078399
0.000231853
-0.00113142
0.000336204
-0.00146783
0.000444774
-0.00177644
0.000550886
-0.00204536
0.000649393
-0.00226842
0.000736985
-0.00244466
0.000812116
-0.00257718
0.000874678
-0.00267157
0.000925575
-0.00273455
0.000966292
-0.0027729
0.00099855
-0.00279281
0.00102405
-0.00279947
0.00104433
-0.00279703
0.00106069
-0.00278866
0.00107416
-0.00277666
0.00108556
-0.00276267
0.00109549
-0.0027478
0.0011044
-0.00273279
0.00111261
-0.00271811
0.00112037
-0.00270406
0.00112781
-0.00269076
-0.00267821
0.00113504
1.84318e-05
-0.000152561
6.80431e-05
-0.000494696
0.000142735
-0.000858682
0.00023523
-0.00122391
0.000337537
-0.00157013
0.000441931
-0.00188083
0.000541909
-0.00214534
0.000632801
-0.00235931
0.000711913
-0.00252377
0.000778315
-0.00264358
0.000832411
-0.00272566
0.000875463
-0.0027776
0.000909155
-0.0028066
0.000935274
-0.00281893
0.000955489
-0.00281968
0.000971244
-0.00281279
0.000983713
-0.00280113
0.000993813
-0.00278676
0.00100223
-0.00277109
0.00100949
-0.00275505
0.00101594
-0.00273924
0.00102185
-0.00272403
0.0010274
-0.00270961
0.00103273
-0.00269608
-0.00268338
0.0010379
1.91989e-05
-0.00017176
6.99981e-05
-0.000545495
0.000145268
-0.000933952
0.000236875
-0.00131552
0.000336318
-0.00166958
0.000435784
-0.0019803
0.000529076
-0.00223864
0.000612073
-0.0024423
0.000682716
-0.00259441
0.000740653
-0.00270152
0.000786732
-0.00277174
0.000822493
-0.00281336
0.00084975
-0.00283385
0.000870296
-0.00283947
0.000885731
-0.00283512
0.000897384
-0.00282444
0.000906303
-0.00281005
0.000913283
-0.00279374
0.000918908
-0.00277671
0.000923601
-0.00275974
0.000927664
-0.0027433
0.000931309
-0.00272767
0.000934684
-0.00271299
0.000937885
-0.00269928
-0.00268647
0.000940975
1.98564e-05
-0.000191616
7.14959e-05
-0.000597134
0.000146769
-0.00100923
0.000236764
-0.00140551
0.00033259
-0.0017654
0.000426493
-0.0020742
0.000512686
-0.00232483
0.000587649
-0.00251727
0.000649948
-0.00265671
0.000699758
-0.00275133
0.000738296
-0.00281028
0.000767309
-0.00284237
0.000788673
-0.00285522
0.000804145
-0.00285495
0.000815227
-0.0028462