/*--------------------------------*- C++ -*----------------------------------*\
  =========                 |
  \\      /  F ield         | OpenFOAM: The Open Source CFD Toolbox
   \\    /   O peration     | Website:  https://openfoam.org
    \\  /    A nd           | Version:  6.0
     \\/     M anipulation  |
\*---------------------------------------------------------------------------*/
FoamFile
{
    version     2.0;
    format      ascii;
    class       surfaceScalarField;
    location    "20.4";
    object      phi;
}
// * * * * * * * * * * * * * * * * * * * * * * * * * * * * * * * * * * * * * //

dimensions      [0 3 -1 0 0 0 0];

internalField   nonuniform List<scalar> 
15760
(
-2.93362e-06
2.94025e-06
-6.63571e-09
-1.03575e-05
7.47371e-06
-4.98688e-08
-2.11844e-05
1.09402e-05
-1.13209e-07
-3.45316e-05
1.35353e-05
-1.88208e-07
-4.9693e-05
1.54301e-05
-2.68643e-07
-6.61182e-05
1.67756e-05
-3.50471e-07
-8.33912e-05
1.77043e-05
-4.31344e-07
-0.000101212
1.83315e-05
-5.10156e-07
-0.000119383
1.87573e-05
-5.86645e-07
-0.00013779
1.90682e-05
-6.61066e-07
-0.000156395
1.93386e-05
-7.33937e-07
-0.000175221
1.96316e-05
-8.0585e-07
-0.000194343
1.99996e-05
-8.77353e-07
-0.000213879
2.04851e-05
-9.48865e-07
-0.000233979
2.11203e-05
-1.02064e-06
-0.000254814
2.19279e-05
-1.09277e-06
-0.00027657
2.29209e-05
-1.16515e-06
-0.000299435
2.41031e-05
-1.23755e-06
-0.000323597
2.54715e-05
-1.30952e-06
2.70226e-05
-1.38054e-06
-0.000349239
-2.91529e-06
5.85554e-06
-1.0292e-05
1.48504e-05
-2.10451e-05
2.16934e-05
-3.42914e-05
2.67816e-05
-4.9323e-05
3.04616e-05
-6.55856e-05
3.30383e-05
-8.26586e-05
3.47773e-05
-0.000100237
3.59095e-05
-0.000118114
3.66343e-05
-0.00013617
3.71241e-05
-0.000154358
3.7527e-05
-0.000172696
3.7969e-05
-0.000191251
3.85556e-05
-0.000210139
3.93724e-05
-0.000229504
4.04858e-05
-0.000249519
4.19431e-05
-0.000270371
4.37728e-05
-0.000292253
4.59844e-05
-0.000315355
4.8574e-05
5.15354e-05
-0.000339868
-2.88166e-06
8.73721e-06
-1.01708e-05
2.21395e-05
-2.07859e-05
3.23085e-05
-3.38426e-05
3.98383e-05
-4.86286e-05
4.52477e-05
-6.45831e-05
4.89928e-05
-8.1276e-05
5.14702e-05
-9.83901e-05
5.30236e-05
-0.000115706
5.39503e-05
-0.000133089
5.45071e-05
-0.000150478
5.49156e-05
-0.000167874
5.53655e-05
-0.000185336
5.6017e-05
-0.000202965
5.70022e-05
-0.000220905
5.84253e-05
-0.000239325
6.03627e-05
-0.000258414
6.28626e-05
-0.000278375
6.5945e-05
-0.000299409
6.9608e-05
7.38442e-05
-0.000321718
-2.83522e-06
1.15724e-05
-1.00014e-05
2.93057e-05
-2.04211e-05
4.27283e-05
-3.32081e-05
5.26252e-05
-4.76445e-05
5.96841e-05
-6.31599e-05
6.45082e-05
-7.9311e-05
6.76213e-05
-9.57642e-05
6.94768e-05
-0.00011228
7.04665e-05
-0.000128703
7.09298e-05
-0.000144948
7.11607e-05
-0.000160996
7.14135e-05
-0.000176885
7.19055e-05
-0.000192702
7.28193e-05
-0.000208579
7.43026e-05
-0.000224684
7.6468e-05
-0.000241213
7.93908e-05
-0.000258376
8.31087e-05
-0.000276397
8.76283e-05
9.29436e-05
-0.000295496
-2.77911e-06
1.43515e-05
-9.79324e-06
3.63198e-05
-1.99687e-05
5.29037e-05
-3.2417e-05
6.50736e-05
-4.6414e-05
7.36811e-05
-6.13782e-05
7.94723e-05
-7.68505e-05
8.30937e-05
-9.24769e-05
8.51032e-05
-0.000107994
8.59832e-05
-0.000123216
8.61522e-05
-0.00013803
8.59748e-05
-0.000152386
8.57695e-05
-0.000166294
8.58134e-05
-0.000179819
8.63444e-05
-0.000193078
8.75615e-05
-0.000206233
8.96226e-05
-0.000219483
9.26417e-05
-0.00023306
9.66852e-05
-0.00024721
0.000101778
0.000107923
-0.00026219
-2.71658e-06
1.70681e-05
-9.55582e-06
4.31591e-05
-1.94466e-05
6.27944e-05
-3.14983e-05
7.71253e-05
-4.49805e-05
8.71633e-05
-5.93006e-05
9.37924e-05
-7.3983e-05
9.77761e-05
-8.86512e-05
9.97714e-05
-0.000103013
0.000100345
-0.00011685
9.99896e-05
-0.000130012
9.91366e-05
-0.00014241
9.81675e-05
-0.000154017
9.74205e-05
-0.000164867
9.7194e-05
-0.000175052
9.77467e-05
-0.000184724
9.92944e-05
-0.000194087
0.000102005
-0.000203391
0.000105989
-0.000212922
0.00011131
0.000117988
-0.000222987
-2.65037e-06
1.97185e-05
-9.29674e-06
4.98054e-05
-1.88686e-05
7.23662e-05
-3.04736e-05
8.87303e-05
-4.33764e-05
0.000100066
-5.6975e-05
0.000107391
-7.07785e-05
0.00011158
-8.43877e-05
0.000113381
-9.7481e-05
0.000113438
-0.000109803
0.000112312
-0.000121161
0.000110494
-0.000131418
0.000108425
-0.000140501
0.000106504
-0.0001484
0.000105093
-0.000155172
0.000104519
-0.000160949
0.000105072
-0.000165935
0.00010699
-0.000170402
0.000110457
-0.000174685
0.000115593
0.000122466
-0.000179163
-2.58203e-06
2.23005e-05
-9.01964e-06
5.62431e-05
-1.82402e-05
8.15868e-05
-2.93504e-05
9.98406e-05
-4.16125e-05
0.000112328
-5.44183e-05
0.000120197
-6.72648e-05
0.000124426
-7.97335e-05
0.000125849
-9.14743e-05
0.000125179
-0.000102195
0.000123032
-0.000111655
0.000119954
-0.000119666
0.000116436
-0.000126097
0.000112934
-0.000130879
0.000109875
-0.000134023
0.000107662
-0.000135622
0.000106671
-0.000135871
0.000107239
-0.000135063
0.000109649
-0.000133592
0.000114121
0.000120806
-0.000131932
-2.51149e-06
2.4812e-05
-8.72258e-06
6.24541e-05
-1.75553e-05
9.04195e-05
-2.81159e-05
0.000110401
-3.96674e-05
0.00012388
-5.16002e-05
0.00013213
-6.34047e-05
0.000136231
-7.46489e-05
0.000137093
-8.49593e-05
0.00013549
-9.40097e-05
0.000132083
-0.000101514
0.000127458
-0.000107227
0.000122149
-0.000110951
0.000116658
-0.000112549
0.000111473
-0.00011196
0.000107074
-0.000109226
0.000103937
-0.000104509
0.000102522
-9.81128e-05
0.000103253
-9.04954e-05
0.000106504
0.00011257
-8.22591e-05
-2.43676e-06
2.72488e-05
-8.39716e-06
6.84145e-05
-1.67936e-05
9.88159e-05
-2.67324e-05
0.00012034
-3.748e-05
0.000134627
-4.84308e-05
0.00014308
-5.90759e-05
0.000146876
-6.89777e-05
0.000146995
-7.77484e-05
0.00014426
-8.50358e-05
0.00013937
-9.05145e-05
0.000132937
-9.38848e-05
0.00012552
-9.48796e-05
0.000117653
-9.32796e-05
0.000109873
-8.89385e-05
0.000102733
-8.18163e-05
9.68148e-05
-7.20181e-05
9.27238e-05
-5.98348e-05
9.10697e-05
-4.57821e-05
9.24512e-05
9.74054e-05
-3.06175e-05
-2.35411e-06
2.96029e-05
-8.02867e-06
7.40891e-05
-1.59212e-05
0.000106708
-2.51365e-05
0.000129555
-3.49466e-05
0.000144438
-4.47542e-05
0.000152888
-5.40585e-05
0.00015618
-6.24257e-05
0.000155362
-6.94655e-05
0.0001513
-7.48126e-05
0.000144717
-7.81151e-05
0.000136239
-7.90295e-05
0.000126434
-7.72248e-05
0.000115848
-7.23976e-05
0.000105046
-6.43008e-05
9.46358e-05
-5.27867e-05
8.53007e-05
-3.78659e-05
7.78029e-05
-1.97778e-05
7.29816e-05
9.27361e-07
7.17461e-05
7.50144e-05
2.33184e-05
-2.25846e-06
3.18614e-05
-7.59738e-06
7.9428e-05
-1.48922e-05
0.000114003
-2.32422e-05
0.000137905
-3.19241e-05
0.000153119
-4.03508e-05
0.000161315
-4.80345e-05
0.000163864
-5.45543e-05
0.000161882
-5.95295e-05
0.000156275
-6.25983e-05
0.000147786
-6.34012e-05
0.000137042
-6.15715e-05
0.000124604
-5.67331e-05
0.00011101
-4.85107e-05
9.68231e-05
-3.65554e-05
8.26806e-05
-2.0594e-05
6.93392e-05
-5.03381e-07
5.77123e-05
2.35831e-05
4.8895e-05
5.11318e-05
4.41974e-05
4.51043e-05
8.10419e-05
-2.14424e-06
3.40056e-05
-7.08091e-06
8.43647e-05
-1.36534e-05
0.000120576
-2.09476e-05
0.000145199
-2.82393e-05
0.000160411
-3.49491e-05
0.000168024
-4.06023e-05
0.000169517
-4.47952e-05
0.000166075
-4.71666e-05
0.000158647
-4.73735e-05
0.000147993
-4.50721e-05
0.000134741
-3.99015e-05
0.000119434
-3.14744e-05
0.000102583
-1.93767e-05
8.47254e-05
-3.18316e-06
6.6487e-05
1.75003e-05
4.86558e-05
4.29549e-05
3.22577e-05
7.32147e-05
1.86353e-05
0.000107846
9.56572e-06
7.32139e-06
0.000145629
-2.00629e-06
3.60119e-05
-6.45707e-06
8.88155e-05
-1.21498e-05
0.000126268
-1.81442e-05
0.000151194
-2.3704e-05
0.000165971
-2.82475e-05
0.000172568
-3.1306e-05
0.000172575
-3.24893e-05
0.000167258
-3.14569e-05
0.000157614
-2.78948e-05
0.000144431
-2.14944e-05
0.000128341
-1.19333e-05
0.000109873
1.14092e-06
8.95087e-05
1.81242e-05
6.77421e-05
3.94578e-05
4.51534e-05
6.56067e-05
2.25068e-05
9.69941e-05
8.70308e-07
0.000133861
-1.82314e-05
0.000175983
-3.25567e-05
-3.88419e-05
0.000222147
-1.84078e-06
3.78527e-05
-5.70657e-06
9.26812e-05
-1.03303e-05
0.000130892
-1.47276e-05
0.000155591
-1.81317e-05
0.000169375
-1.99411e-05
0.000174377
-1.9676e-05
0.00017231
-1.69442e-05
0.000164527
-1.14154e-05
0.000152085
-2.8004e-06
0.000135816
9.16604e-06
0.000116374
2.47426e-05
9.42962e-05
4.42e-05
7.00513e-05
6.78426e-05
4.40995e-05
9.60298e-05
1.69663e-05
0.000129187
-1.06506e-05
0.000167784
-3.77266e-05
0.000212236
-6.26837e-05
0.000262623
-8.29437e-05
-9.41705e-05
0.000317952
-1.64556e-06
3.94982e-05
-4.81435e-06
9.585e-05
-8.15119e-06
0.000134229
-1.06039e-05
0.000158044
-1.13513e-05
0.000170122
-9.7459e-06
0.000172772
-5.26945e-06
0.000167834
2.49989e-06
0.000156757
1.39093e-05
0.000140676
2.92454e-05
0.00012048
4.87434e-05
9.68761e-05
7.25951e-05
7.04444e-05
0.00010096
4.16862e-05
0.000133984
1.10755e-05
0.000171829
-2.08781e-05
0.000214711
-5.35332e-05
0.000262943
-8.5959e-05
0.000316934
-0.000116675
0.000377042
-0.000143051
-0.000159866
0.000442737
-1.41986e-06
4.09181e-05
-3.76885e-06
9.8199e-05
-5.57519e-06
0.000136035
-5.69118e-06
0.00015816
-3.21166e-06
0.000167643
2.58872e-06
0.000166972
1.23023e-05
0.00015812
2.64195e-05
0.00014264
4.53454e-05
0.00012175
6.94061e-05
9.64192e-05
9.88455e-05
6.74367e-05
0.000133819
3.54709e-05
0.000174385
1.11984e-06
0.000220505
-3.50438e-05
0.000272052
-7.24255e-05
0.000328857
-0.000110339
0.000390778
-0.000147879
0.00045781
-0.000183707
0.00053022
-0.000215461
-0.000237754
0.000608107
-1.16311e-06
4.20812e-05
-2.55862e-06
9.95945e-05
-2.56587e-06
0.000136043
8.8832e-08
0.000155505
6.42662e-06
0.000161305
1.72861e-05
0.000156112
3.33732e-05
0.000142033
5.52907e-05
0.000120723
8.35508e-05
9.349e-05
0.000118573
6.13968e-05
0.000160671
2.53389e-05
0.000210026
-1.38844e-05
0.000266658
-5.55121e-05
0.000330386
-9.87721e-05
0.000400798
-0.000142837
0.000477232
-0.000186772
0.000558812
-0.00022946
0.000644559
-0.000269454
0.000733726
-0.000304628
-0.000331152
0.000827125
-8.72989e-07
4.29542e-05
-1.16685e-06
9.98884e-05
9.22475e-07
0.000133953
6.82574e-06
0.000149602
1.77121e-05
0.000150419
3.45679e-05
0.000139256
5.82494e-05
0.000118352
8.95123e-05
8.94597e-05
0.000129021
5.3981e-05
0.000177343
1.30755e-05
0.000234924
-3.22424e-05
0.00030206
-8.10209e-05
0.000378847
-0.000132299
0.000465113
-0.000185038
0.000560326
-0.00023805
0.000663474
-0.000289921
0.00077292
-0.000338905
0.000886232
-0.000382766
0.00100031
-0.000418709
-0.000446642
0.0011158
-5.4324e-07
4.34974e-05
4.35025e-07
9.89101e-05
4.9567e-06
0.000129432
1.46393e-05
0.000139919
3.08291e-05
0.000134229
5.46884e-05
0.000115397
8.72511e-05
8.57891e-05
0.000129451
4.72603e-05
0.000182127
1.30475e-06
0.000246019
-5.08166e-05
0.000321748
-0.000107971
0.000409795
-0.000169068
0.000510474
-0.000232978
0.000623901
-0.000298465
0.00074994
-0.000364088
0.000888091
-0.000428072
0.00103723
-0.000488043
0.00119472
-0.000540255
0.00135333
-0.000577322
-0.000583799
0.00149049
-1.62593e-07
4.366e-05
2.29135e-06
9.64562e-05
9.63323e-06
0.00012209
2.36934e-05
0.000125859
4.6018e-05
0.000111904
7.79628e-05
8.34521e-05
0.000120747
4.3005e-05
0.000175475
-7.468e-06
0.000243139
-6.63597e-05
0.000324609
-0.000132286
0.000420617
-0.00020398
0.000531764
-0.000280214
0.000658537
-0.000359752
0.000801385
-0.000441313
0.000960867
-0.00052357
0.00113795
-0.000605154
0.00133456
-0.000684654
0.00155486
-0.000760559
0.00180912
-0.000831574
-0.0008944
0.00211972
2.88742e-07
4.33713e-05
4.46864e-06
9.22763e-05
1.50864e-05
0.000111472
3.42052e-05
0.00010674
6.35849e-05
8.25246e-05
0.000104775
4.22617e-05
0.000159161
-1.13811e-05
0.000227972
-7.62785e-05
0.000312265
-0.000150652
0.000412904
-0.000232925
0.000530539
-0.000321615
0.000665605
-0.000415281
0.000818348
-0.000512495
0.000988893
-0.000611858
0.00117737
-0.000712045
0.00138411
-0.000811893
0.00160996
-0.000910509
0.0018568
-0.0010074
0.0021277
-0.00110247
-0.00118815
0.00242144
8.34469e-07
4.25368e-05
7.04658e-06
8.60642e-05
2.14748e-05
9.70437e-05
4.64267e-05
8.17885e-05
8.38746e-05
4.50766e-05
0.000135542
-9.40526e-06
0.000202926
-7.87654e-05
0.000287286
-0.000160638
0.0003896
-0.000252967
0.000510525
-0.00035385
0.000650364
-0.000461454
0.000809053
-0.000573969
0.000986182
-0.000689624
0.00118105
-0.000806725
0.00139274
-0.000923733
0.0016202
-0.00103936
0.00186234
-0.00115265
0.00211805
-0.0012631
0.002386
-0.00137041
-0.00146612
0.00266397
1.50285e-06
4.1034e-05
1.01154e-05
7.74516e-05
2.89716e-05
7.81875e-05
6.06203e-05
5.01398e-05
0.000107226
-1.52943e-06
0.000170634
-7.28129e-05
0.00025236
-0.000160492
0.000353546
-0.000261824
0.000474891
-0.000374312
0.000616593
-0.000495552
0.000778311
-0.000623172
0.000959169
-0.000754827
0.00115779
-0.000888244
0.00137237
-0.0010213
0.00160076
-0.00115213
0.00184058
-0.00127917
0.0020892
-0.00140127
0.00234381
-0.00151771
0.00260145
-0.00162805
-0.00172516
0.00286049
2.32289e-06
3.87111e-05
1.37645e-05
6.601e-05
3.77405e-05
5.42116e-05
7.70182e-05
1.08621e-05
0.000133905
-5.84167e-05
0.000210276
-0.000149183
0.000307518
-0.000257734
0.000426455
-0.00038076
0.000567249
-0.000515106
0.000729353
-0.000657656
0.000911493
-0.000805312
0.00111172
-0.00095505
0.00132749
-0.00110402
0.00155585
-0.00124966
0.00179352
-0.0013898
0.00203707
-0.00152272
0.00228301
-0.00164722
0.00252787
-0.00176257
0.00276832
-0.0018685
-0.00195992
0.00300308
3.32108e-06
3.539e-05
1.80714e-05
5.12597e-05
4.79119e-05
2.4371e-05
9.57787e-05
-3.70047e-05
0.000164034
-0.000126672
0.000254438
-0.000239587
0.000368047
-0.000371344
0.000505103
-0.000517817
0.000664943
-0.000674947
0.00084598
-0.000838692
0.00104576
-0.00100509
0.0012611
-0.00117039
0.00148831
-0.00133123
0.00172337
-0.00148472
0.0019622
-0.00162863
0.00220086
-0.00176138
0.00243567
-0.00188202
0.0026633
-0.00199021
0.00288094
-0.00208614
-0.00216683
0.00308786
4.51869e-06
3.08713e-05
2.30918e-05
3.26866e-05
5.95625e-05
-1.20997e-05
0.000116949
-9.43914e-05
0.000197532
-0.000207255
0.000302758
-0.000344812
0.000433088
-0.000501674
0.000587881
-0.00067261
0.000765345
-0.000852411
0.000962608
-0.00103596
0.0011759
-0.00121838
0.00140081
-0.00139531
0.00163266
-0.00156307
0.00186673
-0.0017188
0.00209865
-0.00186055
0.00232453
-0.00198726
0.00254113
-0.00209862
0.00274592
-0.002195
0.0029371
-0.00227732
-0.00234441
0.00311467
5.92989e-06
2.49414e-05
2.8853e-05
9.76348e-06
7.26989e-05
-5.59456e-05
0.000140439
-0.000162131
0.000234081
-0.000300897
0.000354496
-0.000465227
0.000501244
-0.000648422
0.000672487
-0.000843852
0.000865043
-0.00104497
0.00107461
-0.00124552
0.00129613
-0.0014399
0.00152418
-0.00162336
0.00175345
-0.00179234
0.00197907
-0.00194442
0.00219692
-0.0020784
0.00240374
-0.00219409
0.00259726
-0.00229214
0.0027761
-0.00237384
0.00293969
-0.00244091
-0.00249364
0.00308893
7.56091e-06
1.73805e-05
3.53495e-05
-1.80251e-05
8.72486e-05
-0.000107845
0.000166004
-0.000240886
0.000273102
-0.000407995
0.000408532
-0.000600657
0.000570621
-0.000810512
0.000756052
-0.00102928
0.000960099
-0.00124901
0.00117706
-0.00146248
0.00140079
-0.00166363
0.00162529
-0.00184786
0.00184515
-0.00201219
0.0020559
-0.00215517
0.00225423
-0.00227672
0.00243797
-0.00237783
0.00260607
-0.00246024
0.0027584
-0.00252617
0.00289555
-0.00257806
-0.00261729
0.0030192
9.40972e-06
7.97077e-06
4.25412e-05
-5.11566e-05
0.000103056
-0.000168359
0.000193242
-0.000331073
0.000313767
-0.00052852
0.000463398
-0.000750288
0.000638923
-0.000986037
0.000835357
-0.00122572
0.00104643
-0.00146009
0.00126526
-0.00168131
0.00148506
-0.00188343
0.00169978
-0.00206258
0.00190449
-0.00221691
0.00209568
-0.00234636
0.00227121
-0.00245225
0.00243022
-0.00253684
0.0025729
-0.00260292
0.00270022
-0.00265349
0.00281368
-0.00269151
-0.00271906
0.00291545
1.1466e-05
-3.4952e-06
5.03527e-05
-9.00433e-05
0.000119881
-0.000237887
0.000221601
-0.000432794
0.000355023
-0.000661942
0.000517358
-0.000912623
0.000703621
-0.0011723
0.000907116
-0.00142921
0.00112023
-0.0016732
0.00133532
-0.0018964
0.00154551
-0.00209363
0.00174529
-0.00226236
0.00193076
-0.00240238
0.00209968
-0.00251528
0.00225128
-0.00260385
0.00238597
-0.00267153
0.00250499
-0.00272194
0.00261012
-0.00275862
0.00270336
-0.00278475
-0.0028028
0.00278709
1.37108e-05
-1.7206e-05
5.8673e-05
-0.000135006
0.000137403
-0.000316617
0.000250392
-0.000545782
0.000395637
-0.000807188
0.000568513
-0.0010855
0.00076215
-0.00136594
0.000968288
-0.00163535
0.00117836
-0.00188327
0.00138452
-0.00210256
0.00158043
-0.00228954
0.00176162
-0.00244354
0.00192555
-0.00256631
0.0020714
-0.00266114
0.00219972
-0.00273216
0.00231194
-0.00278375
0.00241006
-0.00282007
0.0024963
-0.00284486
0.00257286
-0.00286131
-0.00287196
0.00264202
1.61164e-05
-3.33224e-05
6.73567e-05
-0.000186246
0.000155229
-0.00040449
0.000278813
-0.000669366
0.000434268
-0.000962643
0.00061494
-0.00126617
0.000812137
-0.00156313
0.00101637
-0.00183958
0.00121866
-0.00208556
0.00141159
-0.00229549
0.00158984
-0.00246779
0.00175036
-0.00260407
0.00189212
-0.00270807
0.00201563
-0.00278465
0.00212249
-0.00283902
0.00221489
-0.00287614
0.00229521
-0.00290039
0.00236581
-0.00291545
0.00242881
-0.00292431
-0.0029294
0.00248626
1.86459e-05
-5.19683e-05
7.62253e-05
-0.000243825
0.000172903
-0.000501167
0.000305993
-0.000802456
0.00046955
-0.0011262
0.000654842
-0.00145146
0.000851603
-0.00175989
0.00104961
-0.0020376
0.0012401
-0.00227605
0.00141659
-0.00247198
0.00157522
-0.00262641
0.00171448
-0.00274332
0.00183473
-0.00282832
0.00193763
-0.00288755
0.0020255
-0.00292689
0.00210092
-0.00295157
0.0021664
-0.00296587
0.00222419
-0.00297324
0.00227619
-0.00297632
-0.0029773
0.00232409
2.12534e-05
-7.32217e-05
8.50719e-05
-0.000307644
0.000189923
-0.000606018
0.000331033
-0.000943565
0.000500184
-0.00129535
0.000686689
-0.00163797
0.000879123
-0.00195233
0.00106713
-0.0022256
0.00124271
-0.00245163
0.00140079
-0.00263006
0.00153909
-0.00276472
0.00165762
-0.00286185
0.00175792
-0.00292863
0.00184244
-0.00297207
0.00191393
-0.00299839
0.00197508
-0.00301272
0.00202829
-0.00301908
0.00207555
-0.0030205
0.00211848
-0.00301925
-0.00301723
0.00215842
2.38844e-05
-9.71062e-05
9.36671e-05
-0.000377426
0.00020577
-0.000718122
0.000353065
-0.00109086
0.000525036
-0.00146732
0.000709332
-0.00182226
0.000893909
-0.0021369
0.00106887
-0.00240056
0.00122748
-0.00261024
0.00136627
-0.00276885
0.00148457
-0.00288302
0.00158367
-0.00296095
0.00166602
-0.00301098
0.00173454
-0.00304058
0.0017921
-0.00305595
0.00184131
-0.00306192
0.0018843
-0.00306207
0.00192278
-0.00305898
0.00195805
-0.00305453
-0.0030503
0.00199112
2.64776e-05
-0.000123584
0.000101769
-0.000452718
0.00021993
-0.000836283
0.000371308
-0.00124224
0.000543215
-0.00163923
0.000722073
-0.00200112
0.00089581
-0.00231064
0.00105552
-0.00256028
0.00119605
-0.00275076
0.0013156
-0.0028884
0.00141492
-0.00298234
0.00149634
-0.00304237
0.00156287
-0.00307751
0.00161762
-0.00309533
0.00166339
-0.00310173
0.00170253
-0.00310106
0.00173689
-0.00309642
0.00176785
-0.00308994
0.00179643
-0.00308311
-0.00307725
0.00182338
2.89665e-05
-0.00015255
0.000109135
-0.000532886
0.000231926
-0.000959075
0.000385114
-0.00139542
0.00055412
-0.00180823
0.000724672
-0.00217167
0.000885245
-0.00247122
0.00102834
-0.00270337
0.00115049
-0.00287291
0.0012515
-0.00298941
0.00133331
-0.00306415
0.00139894
-0.00310799
0.00145168
-0.00313026
0.00149462
-0.00313827
0.00153034
-0.00313744
0.00156087
-0.00313159
0.00158774
-0.00312329
0.00161207
-0.00311426
0.00163462
-0.00310567
-0.00309855
0.00165592
3.12828e-05
-0.000183833
0.000115531
-0.000617134
0.000241346
-0.00108489
0.000394012
-0.00154809
0.000557466
-0.00197169
0.000717318
-0.00233152
0.000863082
-0.00261698
0.000988908
-0.00282919
0.00109304
-0.00297705
0.00117666
-0.00307303
0.00124258
-0.00313007
0.00129425
-0.00315966
0.00133502
-0.00317103
0.00136777
-0.00317102
0.0013948
-0.00316447
0.0014178
-0.0031546
0.00143801
-0.0031435
0.00145629
-0.00313254
0.00147323
-0.0031226
-0.00311451
0.00148919
3.33591e-05
-0.000217192
0.000120749
-0.000704524
0.000247863
-0.001212
0.00039772
-0.00169795
0.00055327
-0.00212724
0.000700555
-0.00247881
0.000830502
-0.00274693
0.000939016
-0.00293771
0.00102592
-0.00306395
0.00109349
-0.0031406
0.00114517
-0.00318175
0.00118456
-0.00319905
0.00121488
-0.00320135
0.00123874
-0.00319488
0.00125809
-0.00318382
0.00127434
-0.00317084
0.00128844
-0.00315761
0.00130107
-0.00314517
0.00131266
-0.00313419
-0.00312532
0.00132347
3.51355e-05
-0.000252328
0.000124619
-0.000794007
0.000251265
-0.00133865
0.000396165
-0.00184285
0.000541827
-0.0022729
0.000675205
-0.00261219
0.000788881
-0.0028606
0.000880484
-0.00302931
0.000951202
-0.00313466
0.00100416
-0.00319356
0.00104312
-0.00322071
0.00107167
-0.0032276
0.00109279
-0.00322247
0.00110875
-0.00321084
0.00112118
-0.00319625
0.00113121
-0.00318086
0.00113958
-0.00316598
0.0011468
-0.00315239
0.0011532
-0.00314059
-0.00313107
0.00115895
3.65493e-05
-0.000288877
0.000126992
-0.00088445
0.000251415
-0.00146307
0.000389417
-0.00198085
0.000523601
-0.00240709
0.000642216
-0.0027308
0.000739605
-0.00295799
0.000815003
-0.00310471
0.000870711
-0.00319037
0.000910425
-0.00323327
0.000938033
-0.00324832
0.000956946
-0.00324652
0.000969838
-0.00323536
0.000978645
-0.00321965
0.000984693
-0.0032023
0.000988865
-0.00318504
0.000991745
-0.00316886
0.000993716
-0.00315436
0.000995021
-0.0031419
-0.00313182
0.000995777
3.75561e-05
-0.000326433
0.000127787
-0.000974681
0.00024831
-0.0015836
0.000377734
-0.00211027
0.000499248
-0.0025286
0.000602664
-0.00283422
0.000684085
-0.00303941
0.000744162
-0.00316479
0.000786055
-0.00323227
0.000813789
-0.00326101
0.000831205
-0.00326574
0.000841452
-0.00325676
0.000846865
-0.00324078
0.00084906
-0.00322184
0.000849096
-0.00320234
0.000847661
-0.0031836
0.000845201
-0.0031664
0.000842011
-0.00315117
0.000838273
-0.00313816
-0.00312762
0.000834069
3.81191e-05
-0.000364552
0.00012696
-0.00106352
0.000242036
-0.00169867
0.000361484
-0.00222972
0.000469503
-0.00263662
0.000557627
-0.00292234
0.00062363
-0.00310542
0.000669353
-0.00321051
0.00069857
-0.00326148
0.00071544
-0.00327788
0.000723629
-0.00327392
0.000725972
-0.00325911
0.000724469
-0.00323927
0.00072044
-0.00321781
0.000714721
-0.00319662
0.000707838
-0.00317672
0.000700134
-0.00315869
0.000691836
-0.00314288
0.000683085
-0.00312941
-0.00311847
0.00067394
3.82137e-05
-0.000402766
0.000124515
-0.00114982
0.000232756
-0.00180691
0.000341118
-0.00233808
0.000435144
-0.00273064
0.000508145
-0.00299534
0.000559421
-0.00315669
0.00059177
-0.00324286
0.000609357
-0.00327907
0.000616317
-0.00328484
0.000616061
-0.00327367
0.000611089
-0.00325414
0.000603084
-0.00323127
0.000593106
-0.00320784
0.000581804
-0.00318532
0.000569577
-0.00316449
0.000556687
-0.0031458
0.000543312
-0.0031295
0.000529566
-0.00311566
-0.0031044
0.000515495
3.78271e-05
-0.000440593
0.000120496
-0.00123249
0.000220698
-0.00190711
0.000317139
-0.00243453
0.000396947
-0.00281045
0.000455189
-0.00305358
0.000492503
-0.00319401
0.000512418
-0.00326277
0.000519304
-0.00328596
0.000517153
-0.00328268
0.000509073
-0.00326559
0.000497232
-0.00324229
0.000483024
-0.00321706
0.000467288
-0.0031921
0.000450519
-0.00316855
0.000433016
-0.00314699
0.000414977
-0.00312777
0.000396545
-0.00311107
0.000377816
-0.00309693
-0.00308542
0.00035883
3.69583e-05
-0.000477551
0.000114984
-0.00131052
0.000206138
-0.00199827
0.000290073
-0.00251846
0.000355659
-0.00287604
0.000399636
-0.00309756
0.000423774
-0.00321814
0.00043213
-0.00327113
0.00042912
-0.00328295
0.000418514
-0.00327208
0.000403095
-0.00325017
0.000384717
-0.00322392
0.00036452
-0.00319686
0.000343158
-0.00317074
0.000321
-0.00314639
0.000298264
-0.00312425
0.0002751
-0.0031046
0.000251624
-0.00308759
0.000227922
-0.00307323
-0.00306153
0.000204034
3.56174e-05
-0.000513169
0.000108087
-0.00138299
0.000189375
-0.00207956
0.000260444
-0.00258953
0.000311979
-0.00292757
0.000342263
-0.00312785
0.000354001
-0.00322988
0.000351586
-0.00326871
0.000339367
-0.00327073
0.000320834
-0.00325355
0.000298449
-0.00322778
0.000273778
-0.00319925
0.000247741
-0.00317082
0.000220842
-0.00314384
0.000193347
-0.00311889
0.000165408
-0.00309631
0.000137137
-0.00307633
0.000108628
-0.00305908
7.99626e-05
-0.00304457
-0.00303276
5.11887e-05
3.38241e-05
-0.000546993
9.9935e-05
-0.0014491
0.000170728
-0.00215035
0.000228758
-0.00264756
0.000266541
-0.00296536
0.000283749
-0.00314505
0.000283823
-0.00322996
0.00027134
-0.00325623
0.000250486
-0.00324987
0.00022445
-0.00322751
0.00019538
-0.00319871
0.000164589
-0.00316846
0.000132813
-0.00313905
0.000100435
-0.00311146
6.76377e-05
-0.0030861
3.45187e-05
-0.00306319
1.15292e-06
-0.00304296
-3.238e-05
-0.00302555
-6.59961e-05
-0.00301095
-0.00299911
-9.96368e-05
3.16063e-05
-0.000578599
9.06734e-05
-0.00150816
0.000150514
-0.00221019
0.000195493
-0.00269254
0.000219917
-0.00298978
0.000224679
-0.00314982
0.000213775
-0.00321905
0.000191838
-0.00323429
0.000162829
-0.00322086
0.000129622
-0.0031943
9.40764e-05
-0.00316317
5.72841e-05
-0.00313166
1.98337e-05
-0.0031016
-1.79906e-05
-0.00307364
-5.60701e-05
-0.00304802
-9.43555e-05
-0.00302491
-0.000132805
-0.00300452
-0.000171353
-0.002987
-0.000209908
-0.0029724
-0.00296063
-0.000248393
2.89989e-05
-0.000607598
8.04558e-05
-0.00155962
0.000129044
-0.00225878
0.000161091
-0.00272459
0.000172614
-0.0030013
0.000165553
-0.00314275
0.000144304
-0.00319781
0.000113448
-0.00320344
7.66791e-05
-0.0031841
3.65622e-05
-0.00315419
-5.30874e-06
-0.0031213
-4.80268e-05
-0.00308895
-9.11211e-05
-0.0030585
-0.000134381
-0.00303038
-0.000177738
-0.00300466
-0.000221186
-0.00298146
-0.000264716
-0.00296099
-0.000308278
-0.00294344
-0.000351767
-0.00292891
-0.00291731
-0.000395082
2.60422e-05
-0.00063364
6.94401e-05
-0.00160302
0.000106618
-0.00229596
0.000125956
-0.00274392
0.000125077
-0.00300042
0.000106802
-0.00312448
7.57834e-05
-0.00316679
3.6472e-05
-0.00316412
-7.72762e-06
-0.0031399
-5.45518e-05
-0.00310736
-0.000102642
-0.00307321
-0.000151246
-0.00304034
-0.000199982
-0.00300977
-0.000248691
-0.00298167
-0.000297342
-0.00295601
-0.000345965
-0.00293284
-0.000394589
-0.00291236
-0.000443184
-0.00289485
-0.000491631
-0.00288046
-0.00286916
-0.00053979
2.27803e-05
-0.000656421
5.77843e-05
-0.00163802
8.35168e-05
-0.00232169
9.04543e-05
-0.00275086
7.76974e-05
-0.00298767
4.87928e-05
-0.00309557
8.53091e-06
-0.00312652
-3.88286e-05
-0.00311676
-9.01839e-05
-0.00308854
-0.000143555
-0.00305399
-0.000197792
-0.00301897
-0.000252272
-0.00298586
-0.000306677
-0.00295536
-0.000360877
-0.00292747
-0.000414863
-0.00290202
-0.000468698
-0.002879
-0.000522454
-0.0028586
-0.000576133
-0.00284117
-0.000629603
-0.00282699
-0.00281609
-0.000682665
1.92606e-05
-0.000675681
4.56435e-05
-0.00166441
6.0005e-05
-0.00233605
5.49149e-05
-0.00274577
3.082e-05
-0.00296357
-8.15366e-06
-0.0030566
-5.71764e-05
-0.0030775
-0.000112222
-0.00306172
-0.000170495
-0.00303027
-0.000230281
-0.00299421
-0.000290616
-0.00295863
-0.000350983
-0.00292549
-0.000411111
-0.00289523
-0.000470879
-0.0028677
-0.000530278
-0.00284262
-0.000589393
-0.00281989
-0.000648343
-0.00279965
-0.000707179
-0.00278233
-0.000765768
-0.0027684
-0.00275805
-0.000823816
1.55319e-05
-0.000691213
3.31676e-05
-0.00168204
3.63258e-05
-0.00233921
1.96334e-05
-0.00272908
-1.52526e-05
-0.00292869
-6.37569e-05
-0.0030081
-0.000121091
-0.00302017
-0.000183492
-0.00299932
-0.000248465
-0.0029653
-0.000314545
-0.00292813
-0.000380938
-0.00289224
-0.000447218
-0.00285921
-0.00051315
-0.0028293
-0.000578602
-0.00280225
-0.000643544
-0.00277768
-0.000708055
-0.00275538
-0.000772293
-0.00273542
-0.000836376
-0.00271825
-0.000900184
-0.00270459
-0.00269495
-0.000963283
1.16437e-05
-0.000702857
2.04996e-05
-0.0016909
1.27025e-05
-0.00233141
-1.51259e-05
-0.00270125
-6.02525e-05
-0.00288356
-0.000117767
-0.00295058
-0.000182986
-0.00295495
-0.000252426
-0.00292988
-0.000323886
-0.00289383
-0.000396134
-0.00285588
-0.000468533
-0.00281984
-0.00054075
-0.002787
-0.00061258
-0.00275747
-0.00068388
-0.00273095
-0.00075457
-0.00270699
-0.000824687
-0.00268526
-0.000894398
-0.0026657
-0.000963896
-0.00264875
-0.00103309
-0.0026354
-0.00262659
-0.00110145
7.64515e-06
-0.000710502
7.77358e-06
-0.00169103
-1.06625e-05
-0.00231297
-4.91287e-05
-0.00266279
-0.000103944
-0.00282874
-0.000169961
-0.00288456
-0.000242649
-0.00288226
-0.000318813
-0.00285371
-0.000396534
-0.00281611
-0.000474798
-0.00277761
-0.000553119
-0.00274152
-0.000631263
-0.00270885
-0.000709074
-0.00267966
-0.00078641
-0.00265361
-0.000863139
-0.00263026
-0.000939221
-0.00260918
-0.0010148
-0.00259012
-0.00109016
-0.00257339
-0.00116528
-0.00256027
-0.00255206
-0.00123981
3.58417e-06
-0.000714086
-4.8863e-06
-0.00168256
-3.35881e-05
-0.00228427
-8.21692e-05
-0.0026142
-0.00014612
-0.00276479
-0.000220139
-0.00281055
-0.000299881
-0.00280252
-0.000382441
-0.00277115
-0.000466165
-0.00273239
-0.000550246
-0.00269353
-0.000634348
-0.00265742
-0.000718349
-0.00262485
-0.000802178
-0.00259583
-0.000885733
-0.00257006
-0.000968866
-0.00254713
-0.00105146
-0.00252658
-0.00113362
-0.00250797
-0.00121573
-0.00249129
-0.001298
-0.002478
-0.00246904
-0.00138102
-4.93999e-07
-0.000713592
-1.7368e-05
-0.00166568
-5.59158e-05
-0.00224573
-0.000114071
-0.00255605
-0.000186605
-0.00269226
-0.000268128
-0.00272902
-0.000354501
-0.00271615
-0.000443099
-0.00268256
-0.000532517
-0.00264297
-0.000622138
-0.00260391
-0.000711777
-0.00256778
-0.000801446
-0.00253518
-0.000891214
-0.00250606
-0.000981114
-0.00248016
-0.00107109
-0.00245715
-0.00116103
-0.00243664
-0.00125095
-0.00241805
-0.00134118
-0.00240106
-0.00143229
-0.00238688
-0.00237431
-0.00152702
-4.54762e-06
-0.000709045
-2.95729e-05
-0.00164066
-7.75113e-05
-0.00219779
-0.000144691
-0.00248887
-0.000225258
-0.00261169
-0.000313787
-0.00264049
-0.000406354
-0.00262358
-0.000500597
-0.00258831
-0.000595328
-0.00254824
-0.000690093
-0.00250915
-0.000784836
-0.00247304
-0.000879707
-0.00244031
-0.000974957
-0.00241081
-0.00107088
-0.00238424
-0.00116774
-0.00236029
-0.00126575
-0.00233863
-0.00136503
-0.00231878
-0.00146614
-0.00229995
-0.00157132
-0.00228169
-0.00227539
-0.00167024
-8.52738e-06
-0.000700517
-4.13977e-05
-0.00160779
-9.82434e-05
-0.00214094
-0.000173893
-0.00241322
-0.000261955