/*--------------------------------*- C++ -*----------------------------------*\
  =========                 |
  \\      /  F ield         | OpenFOAM: The Open Source CFD Toolbox
   \\    /   O peration     | Website:  https://openfoam.org
    \\  /    A nd           | Version:  6.0
     \\/     M anipulation  |
\*---------------------------------------------------------------------------*/
FoamFile
{
    version     2.0;
    format      ascii;
    class       surfaceScalarField;
    location    "48";
    object      phi;
}
// * * * * * * * * * * * * * * * * * * * * * * * * * * * * * * * * * * * * * //

dimensions      [0 3 -1 0 0 0 0];

internalField   nonuniform List<scalar> 
24700
(
-1.2289e-06
7.69766e-07
4.59139e-07
-4.47277e-06
1.10382e-06
2.14005e-06
-9.34676e-06
5.56799e-07
4.31719e-06
-1.55114e-05
-6.0839e-07
6.77303e-06
-2.26731e-05
-2.18305e-06
9.34473e-06
-3.05827e-05
-4.00884e-06
1.19184e-05
-3.90329e-05
-5.96812e-06
1.44184e-05
-4.78558e-05
-7.97534e-06
1.67982e-05
-5.6919e-05
-9.96989e-06
1.90331e-05
-6.61234e-05
-1.19098e-05
2.11142e-05
-7.53994e-05
-1.37667e-05
2.30427e-05
-8.47047e-05
-1.55219e-05
2.48272e-05
-9.40214e-05
-1.71631e-05
2.64798e-05
-0.000103353
-1.86828e-05
2.80146e-05
-0.000112723
-2.00768e-05
2.94467e-05
-0.000122171
-2.13431e-05
3.07906e-05
-0.000131749
-2.24821e-05
3.20608e-05
-0.000141524
-2.34963e-05
3.32709e-05
-0.000151568
-2.43901e-05
3.44342e-05
-0.000161961
-2.51704e-05
3.55634e-05
-0.000172786
-2.58464e-05
3.66713e-05
-0.000184127
-2.64301e-05
3.77707e-05
-0.000196065
-2.69362e-05
3.88745e-05
-0.00020868
-2.73795e-05
3.99945e-05
-2.77737e-05
4.1142e-05
-0.000222048
-1.25482e-06
2.02458e-06
-4.56387e-06
4.41287e-06
-9.53282e-06
5.52575e-06
-1.58146e-05
5.67335e-06
-2.31092e-05
5.11161e-06
-3.11624e-05
4.04438e-06
-3.97627e-05
2.63212e-06
-4.8738e-05
1.00003e-06
-5.79531e-05
-7.54799e-07
-6.73058e-05
-2.55712e-06
-7.67243e-05
-4.34824e-06
-8.61644e-05
-6.08183e-06
-9.56066e-05
-7.72091e-06
-0.000105054
-9.23559e-06
-0.000114529
-1.06018e-05
-0.000124072
-1.18003e-05
-0.000133737
-1.28168e-05
-0.000143591
-1.36416e-05
-0.000153712
-1.42698e-05
-0.000164181
-1.47014e-05
-0.000175086
-1.49416e-05
-0.000186515
-1.50012e-05
-0.000198555
-1.4896e-05
-0.00021129
-1.4644e-05
-1.42609e-05
-0.000224803
-1.28086e-06
3.30544e-06
-4.65393e-06
7.78594e-06
-9.71392e-06
1.05858e-05
-1.61048e-05
1.20642e-05
-2.35193e-05
1.25261e-05
-3.16967e-05
1.22218e-05
-4.04198e-05
1.13552e-05
-4.95117e-05
1.00919e-05
-5.88321e-05
8.56565e-06
-6.82746e-05
6.88534e-06
-7.77631e-05
5.14028e-06
-8.72496e-05
3.40466e-06
-9.67113e-05
1.74084e-06
-0.000106149
2.01655e-07
-0.000115582
-1.16815e-06
-0.000125051
-2.33117e-06
-0.000134611
-3.25713e-06
-0.00014433
-3.9229e-06
-0.000154287
-4.31286e-06
-0.000164569
-4.41905e-06
-0.000175269
-4.24143e-06
-0.000186482
-3.78831e-06
-0.000198302
-3.07623e-06
-0.00021082
-2.12544e-06
-9.53838e-07
-0.000224127
-1.30647e-06
4.61191e-06
-4.7409e-06
1.12204e-05
-9.88588e-06
1.57307e-05
-1.63755e-05
1.85539e-05
-2.38941e-05
2.00447e-05
-3.21736e-05
2.05013e-05
-4.09904e-05
2.0172e-05
-5.01611e-05
1.92626e-05
-5.95395e-05
1.79441e-05
-6.9013e-05
1.63588e-05
-7.84996e-05
1.46269e-05
-8.79456e-05
1.28506e-05
-9.73228e-05
1.11181e-05
-0.000106627
9.50574e-06
-0.000115875
8.07992e-06
-0.000125104
6.89757e-06
-0.000134367
6.00638e-06
-0.000143735
5.44458e-06
-0.000153288
5.24048e-06
-0.000163119
5.41201e-06
-0.000173327
5.96632e-06
-0.000184014
6.89912e-06
-0.000195285
8.19467e-06
-0.000207242
9.83126e-06
1.17896e-05
-0.000219985
-1.33112e-06
5.94303e-06
-4.82276e-06
1.4712e-05
-1.00445e-05
2.09525e-05
-1.66198e-05
2.51292e-05
-2.42242e-05
2.76491e-05
-3.25817e-05
2.88589e-05
-4.14613e-05
2.90516e-05
-5.06725e-05
2.84738e-05
-6.00617e-05
2.73332e-05
-6.95087e-05
2.58059e-05
-7.89241e-05
2.40423e-05
-8.82464e-05
2.21728e-05
-9.74398e-05
2.03116e-05
-0.000106493
1.85591e-05
-0.000115418
1.70045e-05
-0.000124246
1.57254e-05
-0.000133028
1.47889e-05
-0.000141834
1.42505e-05
-0.000150747
1.41538e-05
-0.000159864
1.45292e-05
-0.000169292
1.53939e-05
-0.000179143
1.67499e-05
-0.000189533
1.85845e-05
-0.000200578
2.08762e-05
2.36052e-05
-0.000212393
-1.35425e-06
7.29728e-06
-4.89733e-06
1.82551e-05
-1.01852e-05
2.62404e-05
-1.68306e-05
3.17745e-05
-2.44997e-05
3.53182e-05
-3.29086e-05
3.72678e-05
-4.18185e-05
3.79614e-05
-5.10311e-05
3.76864e-05
-6.03846e-05
3.66867e-05
-6.97502e-05
3.51715e-05
-7.90291e-05
3.33212e-05
-8.81501e-05
3.12938e-05
-9.70679e-05
2.92294e-05
-0.000105762
2.72531e-05
-0.000114235
2.54772e-05
-0.000122511
2.40019e-05
-0.000130638
2.29156e-05
-0.000138681
2.22938e-05
-0.000146726
2.21984e-05
-0.000154873
2.2676e-05
-0.000163236
2.37571e-05
-0.00017194
2.5454e-05
-0.000181115
2.776e-05
-0.000190896
3.06564e-05
3.41248e-05
-0.000201415
-1.37517e-06
8.67246e-06
-4.96206e-06
2.1842e-05
-1.03028e-05
3.15811e-05
-1.69992e-05
3.8471e-05
-2.47087e-05
4.30277e-05
-3.31394e-05
4.56985e-05
-4.20449e-05
4.68669e-05
-5.12188e-05
4.68603e-05
-6.04907e-05
4.59587e-05
-6.97222e-05
4.44029e-05
-7.88037e-05
4.24027e-05
-8.76527e-05
4.01428e-05
-9.6212e-05
3.77887e-05
-0.000104449
3.54899e-05
-0.000112354
3.33825e-05
-0.000119943
3.15907e-05
-0.000127253
3.02261e-05
-0.000134347
2.93873e-05
-0.000141307
2.91582e-05
-0.000148237
2.96061e-05
-0.000155259
3.07795e-05
-0.000162511
3.27059e-05
-0.00017014
3.53892e-05
-0.000178302
3.88177e-05
4.29772e-05
-0.000187154
-1.39306e-06
1.00655e-05
-5.01382e-06
2.54627e-05
-1.03906e-05
3.69578e-05
-1.7115e-05
4.51954e-05
-2.48363e-05
5.0749e-05
-3.32551e-05
5.41174e-05
-4.21179e-05
5.57297e-05
-5.12107e-05
5.59531e-05
-6.03543e-05
5.51022e-05
-6.94001e-05
5.34487e-05
-7.82272e-05
5.12298e-05
-8.67399e-05
4.86556e-05
-9.48671e-05
4.59158e-05
-0.000102561
4.31838e-05
-0.000109798
4.06196e-05
-0.000116579
3.83719e-05
-0.000122931
3.65778e-05
-0.000128905
3.53618e-05
-0.000134581
3.48342e-05
-0.000140064
3.50882e-05
-0.000145481
3.61966e-05
-0.000150983
3.82083e-05
-0.000156739
4.11448e-05
-0.000162928
4.50072e-05
4.97905e-05
-0.000169742
-1.40687e-06
1.14724e-05
-5.04875e-06
2.91046e-05
-1.04407e-05
4.23498e-05
-1.71649e-05
5.19196e-05
-2.48634e-05
5.84474e-05
-3.32307e-05
6.24847e-05
-4.2007e-05
6.4506e-05
-5.09715e-05
6.49175e-05
-5.99367e-05
6.40674e-05
-6.87441e-05
6.22561e-05
-7.72608e-05
5.97465e-05
-8.53774e-05
5.67722e-05
-9.30066e-05
5.3545e-05
-0.000100083
5.02607e-05
-0.000106566
4.71025e-05
-0.000112438
4.42437e-05
-0.000117708
4.18482e-05
-0.000122416
4.00696e-05
-0.000126631
3.90488e-05
-0.000130454
3.89109e-05
-0.000134018
3.97606e-05
-0.000137486
4.16769e-05
-0.000141049
4.47075e-05
-0.000144917
4.88756e-05
5.41931e-05
-0.00014932
-1.41527e-06
1.28877e-05
-5.06208e-06
3.27514e-05
-1.0443e-05
4.77307e-05
-1.71322e-05
5.86088e-05
-2.47658e-05
6.6081e-05
-3.30336e-05
7.07526e-05
-4.16711e-05
7.31435e-05
-5.04518e-05
7.36983e-05
-5.91813e-05
7.27969e-05
-6.7692e-05
7.07668e-05
-7.58394e-05
6.78939e-05
-8.34998e-05
6.44325e-05
-9.0569e-05
6.06142e-05
-9.69628e-05
5.66544e-05
-0.000102618
5.27578e-05
-0.000107496
4.91213e-05
-0.000111584
4.59361e-05
-0.000114901
4.33868e-05
-0.000117501
4.16493e-05
-0.000119477
4.0887e-05
-0.000120962
4.12455e-05
-0.00012213
4.28443e-05
-0.000123192
4.57701e-05
-0.000124397
5.00805e-05
5.58164e-05
-0.00012602
-1.41671e-06
1.43044e-05
-5.04817e-06
3.63829e-05
-1.03857e-05
5.30683e-05
-1.69969e-05
6.522e-05
-2.45137e-05
7.35978e-05
-3.26229e-05
7.88618e-05
-4.1057e-05
8.15776e-05
-4.95858e-05
8.22271e-05
-5.80096e-05
8.12207e-05
-6.61534e-05
7.89105e-05
-7.38623e-05
7.56028e-05
-8.09992e-05
7.15694e-05
-8.74429e-05
6.7058e-05
-9.30887e-05
6.23003e-05
-9.785e-05
5.7519e-05
-0.000101661
5.29327e-05
-0.000104484
4.87583e-05
-0.000106309
4.52125e-05
-0.000107169
4.25094e-05
-0.00010714
4.08572e-05
-0.000106346
4.04515e-05
-0.000104968
4.14662e-05
-0.00010324
4.40421e-05
-0.000101449
4.82897e-05
5.42967e-05
-9.99291e-05
-1.40941e-06
1.57138e-05
-5.00063e-06
3.99741e-05
-1.02553e-05
5.83229e-05
-1.67358e-05
7.17005e-05
-2.40718e-05
8.09338e-05
-3.19488e-05
8.67388e-05
-4.00984e-05
8.97272e-05
-4.82888e-05
9.04176e-05
-5.63174e-05
8.92493e-05
-6.4004e-05
8.65971e-05
-7.11858e-05
8.27846e-05
-7.7714e-05
7.80977e-05
-8.34521e-05
7.2796e-05
-8.8275e-05
6.71232e-05
-9.20715e-05
6.13155e-05
-9.47474e-05
5.56086e-05
-9.62316e-05
5.02426e-05
-9.64833e-05
4.54642e-05
-9.55015e-05
4.15275e-05
-9.33349e-05
3.86905e-05
-9.00923e-05
3.7209e-05
-8.59516e-05
3.73255e-05
-8.11647e-05
3.92552e-05
-7.60608e-05
4.31858e-05
4.9279e-05
-7.10432e-05
-1.39146e-06
1.71052e-05
-4.91256e-06
4.34952e-05
-1.00368e-05
6.34471e-05
-1.63231e-05
7.79868e-05
-2.34e-05
8.80106e-05
-3.09535e-05
9.42924e-05
-3.87164e-05
9.749e-05
-4.64575e-05
9.81587e-05
-5.39738e-05
9.67657e-05
-6.1083e-05
9.37063e-05
-6.76175e-05
8.93191e-05
-7.34203e-05
8.39005e-05
-7.83421e-05
7.77178e-05
-8.22403e-05
7.10213e-05
-8.49801e-05
6.40552e-05
-8.64378e-05
5.70664e-05
-8.65072e-05
5.0312e-05
-8.51083e-05
4.40653e-05
-8.21988e-05
3.86181e-05
-7.77892e-05
3.42809e-05
-7.19581e-05
3.13779e-05
-6.48685e-05
3.02358e-05
-5.67812e-05
3.1168e-05
-4.80667e-05
3.44712e-05
4.04205e-05
-3.92081e-05
-1.36099e-06
1.84662e-05
-4.77706e-06
4.69113e-05
-9.71507e-06
6.83852e-05
-1.57315e-05
8.40032e-05
-2.24549e-05
9.47341e-05
-2.95733e-05
0.000101411
-3.68216e-05
0.000104738
-4.39716e-05
0.000105309
-5.08226e-05
0.000103617
-5.71931e-05
0.000100077
-6.29148e-05
9.50408e-05
-6.78267e-05
8.88124e-05
-7.17716e-05
8.16627e-05
-7.45939e-05
7.38436e-05
-7.61393e-05
6.56006e-05
-7.62572e-05
5.71843e-05
-7.48064e-05
4.88612e-05
-7.16641e-05
4.0923e-05
-6.67398e-05
3.36938e-05
-5.99932e-05
2.75343e-05
-5.1457e-05
2.28417e-05
-4.12621e-05
2.00409e-05
-2.96634e-05
1.95693e-05
-1.70648e-05
2.18727e-05
2.7394e-05
-4.03836e-06
-1.31633e-06
1.97826e-05
-4.58773e-06
5.01827e-05
-9.27553e-06
7.3073e-05
-1.49342e-05
8.96619e-05
-2.11928e-05
0.000100993
-2.77412e-05
0.000107959
-3.4318e-05
0.000111315
-4.06988e-05
0.00011169
-4.66871e-05
0.000109605
-5.21055e-05
0.000105495
-5.67885e-05
9.97238e-05
-6.05766e-05
9.26004e-05
-6.33106e-05
8.43968e-05
-6.4829e-05
7.5362e-05
-6.49651e-05
6.57367e-05
-6.35482e-05
5.57674e-05
-6.0407e-05
4.57199e-05
-5.53777e-05
3.58936e-05
-4.83178e-05
2.66339e-05
-3.91269e-05
1.83435e-05
-2.77755e-05
1.14903e-05
-1.43406e-05
6.60603e-06
9.51926e-07
4.27676e-06
1.76808e-05
5.14382e-06
9.89147e-06
3.51833e-05
-1.25622e-06
2.10388e-05
-4.33937e-06
5.32658e-05
-8.70559e-06
7.74392e-05
-1.39068e-05
9.48631e-05
-1.95718e-05
0.000106658
-2.53918e-05
0.000113779
-3.11083e-05
0.000117032
-3.6501e-05
0.000117082
-4.13784e-05
0.000114482
-4.55691e-05
0.000109686
-4.89137e-05
0.000103068
-5.12587e-05
9.49454e-05
-5.24502e-05
8.55883e-05
-5.2329e-05
7.52408e-05
-5.07266e-05
6.41343e-05
-4.74634e-05
5.25041e-05
-4.2349e-05
4.06055e-05
-3.51876e-05
2.87323e-05
-2.57893e-05
1.72356e-05
-1.39903e-05
6.5445e-06
3.14388e-07
-2.81439e-06
1.71247e-05
-1.02042e-05
3.62746e-05
-1.48732e-05
5.73551e-05
-1.59366e-05
-1.23762e-05
7.96227e-05
-1.18003e-06
2.22188e-05
-4.02857e-06
5.61144e-05
-7.99578e-06
8.14064e-05
-1.26294e-05
9.94967e-05
-1.75556e-05
0.000111584
-2.24652e-05
0.000118689
-2.71004e-05
0.000121667
-3.12435e-05
0.000121225
-3.4707e-05
0.000117946
-3.73253e-05
0.000112304
-3.89469e-05
0.00010469
-3.94279e-05
9.54264e-05
-3.86253e-05
8.47857e-05
-3.63914e-05
7.30069e-05
-3.2568e-05
6.03109e-05
-2.69819e-05
4.69179e-05
-1.94414e-05
3.30651e-05
-9.73697e-06
1.90278e-05
2.35324e-06
5.14534e-06
1.70474e-05
-8.14969e-06
3.4529e-05
-2.02959e-05
5.48939e-05
-3.05691e-05
7.8072e-05
-3.80513e-05
0.000103711
-4.15761e-05
-3.96837e-05
0.000131019
-1.08785e-06
2.33067e-05
-3.65413e-06
5.86807e-05
-7.14068e-06
8.48929e-05
-1.10878e-05
0.000103444
-1.51161e-05
0.000115612
-1.89116e-05
0.000122484
-2.22139e-05
0.000124969
-2.48041e-05
0.000123815
-2.64955e-05
0.000119637
-2.71258e-05
0.000112934
-2.65501e-05
0.000104114
-2.46348e-05
9.35111e-05
-2.12512e-05
8.14022e-05
-1.62703e-05
6.8026e-05
-9.55611e-06
5.35967e-05
-9.58874e-07
3.83207e-05
9.69134e-06
2.24148e-05
2.25905e-05
6.12873e-06
3.79624e-05
-1.02266e-05
5.60531e-05
-2.62404e-05
7.71082e-05
-4.1351e-05
0.000101324
-5.4785e-05
0.000128758
-6.54856e-05
0.000159177
-7.19947e-05
-7.23057e-05
0.000191799
-9.8059e-07
2.42873e-05
-3.2172e-06
6.09173e-05
-6.13932e-06
8.78151e-05
-9.2753e-06
0.00010658
-1.22348e-05
0.000118572
-1.46944e-05
0.000124944
-1.63852e-05
0.00012666
-1.70813e-05
0.000124512
-1.65912e-05
0.000119147
-1.47505e-05
0.000111094
-1.14158e-05
0.00010078
-6.46061e-06
8.85558e-05
2.30122e-07
7.47114e-05
8.76398e-06
5.94921e-05
1.92468e-05
4.31139e-05
3.17893e-05
2.57781e-05
4.6516e-05
7.6882e-06
6.35749e-05
-1.09302e-05
8.3149e-05
-2.98007e-05
0.000105463
-4.85547e-05
0.000130781
-6.66689e-05
0.000159373
-8.33767e-05
0.000191436
-9.75484e-05
0.000226918
-0.000107477
-0.000110546
0.000265159
-8.59849e-07
2.51471e-05
-2.72106e-06
6.27785e-05
-4.99476e-06
9.00888e-05
-7.19121e-06
0.000108776
-8.90298e-06
0.000120283
-9.79058e-06
0.000125832
-9.56944e-06
0.000126439
-7.99913e-06
0.000122941
-4.875e-06
0.000116023
-2.19714e-08
0.000106241
6.70985e-06
9.4048e-05
1.54482e-05
7.98175e-05
2.63008e-05
6.38588e-05
3.93575e-05
4.64354e-05
5.46931e-05
2.77783e-05
7.23712e-05
8.1e-06
9.24519e-05
-1.23925e-05
0.000115003
-3.3481e-05
0.000140115
-5.49129e-05
0.000167925
-7.63646e-05
0.000198633
-9.73775e-05
0.00023251
-0.000117254
0.000269855
-0.000134893
0.000310846
-0.000148467
-0.000154788
0.000355088
-7.27683e-07
2.58748e-05
-2.17031e-06
6.42211e-05
-3.71267e-06
9.16311e-05
-4.83961e-06
0.000109903
-5.11931e-06
0.000120563
-4.18843e-06
0.000124901
-1.73864e-06
0.000123989
2.49411e-06
0.000118708
8.73751e-06
0.00010978
1.7188e-05
9.77901e-05
2.80139e-05
8.32222e-05
4.13558e-05
6.64755e-05
5.73268e-05
4.78878e-05
7.60105e-05
2.77518e-05
9.74592e-05
6.32955e-06
0.000121694
-1.61347e-05
0.000148705
-3.94035e-05
0.000178459
-6.32346e-05
0.000210911
-8.73658e-05
0.000246036
-0.00011149
0.000283862
-0.000135203
0.000324522
-0.000157914
0.000368292
-0.000178664
0.00041555
-0.000195725
-0.000205552
0.000466314
-5.86209e-07
2.6461e-05
-1.56968e-06
6.52046e-05
-2.29915e-06
9.23606e-05
-2.22563e-06
0.00010983
-8.84958e-07
0.000119222
2.11831e-06
0.000121898
7.12504e-06
0.000118982
1.44325e-05
0.000111401
2.43021e-05
9.991e-05
3.69635e-05
8.51287e-05
5.26164e-05
6.75693e-05
7.14294e-05
4.76625e-05
9.35371e-05
2.57801e-05
0.000119035
2.25384e-06
0.000147973
-2.26085e-05
0.000180348
-4.85097e-05
0.000216096
-7.51519e-05
0.000255089
-0.000102228
0.000297134
-0.00012941
0.000341986
-0.000156342
0.000389391
-0.000182609
0.000439158
-0.00020768
0.000491279
-0.000230785
0.000546103
-0.00025055
-0.000263612
0.000604163
-4.37089e-07
2.68981e-05
-9.22478e-07
6.569e-05
-7.57685e-07
9.21958e-05
6.49136e-07
0.000108423
3.80283e-06
0.000116069
9.13921e-06
0.000116561
1.70403e-05
0.000111081
2.7846e-05
0.000100595
4.18611e-05
8.58949e-05
5.93597e-05
6.76302e-05
8.05854e-05
4.63436e-05
0.000105749
2.24986e-05
0.000135025
-3.49569e-06
0.000168542
-3.12627e-05
0.000206373
-6.04398e-05
0.000248525
-9.06616e-05
0.000294919
-0.000121546
0.000345374
-0.000152682
0.00039958
-0.000183617
0.000457088
-0.00021385
0.000517301
-0.000242822
0.000579521
-0.0002699
0.000643085
-0.000294348
0.000707736
-0.000315201
-0.000330652
0.000774776
-2.80983e-07
2.71791e-05
-2.28873e-07
6.56379e-05
9.14077e-07
9.10528e-05
3.79185e-06
0.000105545
8.95822e-06
0.000110902
1.68972e-05
0.000108622
2.80398e-05
9.99384e-05
4.27761e-05
8.58591e-05
6.14625e-05
6.72085e-05
8.44256e-05
4.46671e-05
0.000111962
1.88076e-05
0.000144335
-9.87431e-06
0.00018177
-4.09316e-05
0.00022445
-7.39424e-05
0.000272499
-0.000108489
0.000325974
-0.000144137
0.000384843
-0.000180415
0.000448958
-0.000216797
0.000518015
-0.000252673
0.000591486
-0.000287321
0.000668544
-0.00031988
0.000747968
-0.000349324
0.000828085
-0.000374465
0.000907123
-0.000394239
-0.000410726
0.000987197
-1.17033e-07
2.72961e-05
5.15644e-07
6.50052e-05
2.72729e-06
8.88412e-05
7.22315e-06
0.000101049
1.46137e-05
0.000103512
2.5438e-05
9.77978e-05
4.01823e-05
8.51941e-05
5.92921e-05
6.67492e-05
8.31796e-05
4.3321e-05
0.000112226
1.56203e-05
0.000146783
-1.57495e-05
0.000187168
-5.02591e-05
0.000233661
-8.74245e-05
0.000286501
-0.000126782
0.000345878
-0.000167867
0.000411935
-0.000210193
0.000484754
-0.000253234
0.000564355
-0.000296399
0.000650676
-0.000338994
0.000743529
-0.000380175
0.000842514
-0.000418864
0.000946793
-0.000453603
0.00105445
-0.000482124
0.00116066
-0.000500445
-0.000503518
0.00125345
5.69976e-08
2.72391e-05
1.32054e-06
6.37416e-05
4.70305e-06
8.54587e-05
1.09794e-05
9.47729e-05
2.08237e-05
9.36676e-05
3.48355e-05
8.37859e-05
5.35601e-05
6.64695e-05
7.75002e-05
4.28092e-05
0.000107122
1.36991e-05
0.000142858
-2.01154e-05
0.000185103
-5.79951e-05
0.000234216
-9.93719e-05
0.000290512
-0.00014372
0.000354262
-0.000190533
0.000425701
-0.000239305
0.000505029
-0.000289521
0.000592435
-0.000340641
0.000688135
-0.000392099
0.000792435
-0.000443294
0.000905853
-0.000493593
0.00102932
-0.000542335
0.00116455
-0.000588832
0.00131484
-0.000632415
0.00148757
-0.000673173
-0.000715221
0.00169928
2.4667e-07
2.69924e-05
2.20365e-06
6.17847e-05
6.87665e-06
8.07857e-05
1.51175e-05
8.6532e-05
2.76694e-05
8.11157e-05
4.51962e-05
6.62592e-05
6.83026e-05
4.33631e-05
9.75454e-05
1.35665e-05
0.000133437
-2.21928e-05
0.000176446
-6.31241e-05
0.00022699
-0.00010854
0.000285436
-0.000157817
0.000352089
-0.000210373
0.0004272
-0.000265643
0.000510962
-0.000323068
0.00060353
-0.000382088
0.000705038
-0.00044215
0.000815646
-0.000502707
0.000935597
-0.000563245
0.00106531
-0.000623309
0.00120553
-0.000682555
0.0013575
-0.000740797
0.00152318
-0.000798098
0.00170497
-0.000854966
-0.000910589
0.00190034
4.58074e-07
2.65344e-05
3.18617e-06
5.90566e-05
9.29102e-06
7.46808e-05
1.9707e-05
7.6116e-05
3.52499e-05
6.55729e-05
5.66483e-05
4.48607e-05
8.45634e-05
1.5448e-05
0.000119597
-2.1467e-05
0.000162292
-6.48875e-05
0.000213126
-0.000113959
0.000272507
-0.00016792
0.00034076
-0.00022607
0.000418123
-0.000287736
0.000504744
-0.000352264
0.000600683
-0.000419007
0.000705922
-0.000487328
0.000820384
-0.000556612
0.000943959
-0.000626281
0.00107654
-0.000695824
0.00121805
-0.000764826
0.00136852
-0.000833016
0.00152802
-0.000900304
0.00169669
-0.000966767
0.00187416
-0.00103243
-0.00109398
0.00205755
6.99242e-07
2.58351e-05
4.29433e-06
5.54615e-05
1.19976e-05
6.69776e-05
2.4829e-05
6.32846e-05
4.36776e-05
4.67243e-05
6.93336e-05
1.92047e-05
0.000102506
-1.77241e-05
0.000143824
-6.27858e-05
0.000193837
-0.0001149
0.000252998
-0.000173119
0.000321653
-0.000236575
0.000400029
-0.000304446
0.000488222
-0.00037593
0.000586196
-0.000450238
0.000693782
-0.000526593
0.000810687
-0.000604232
0.000936508
-0.000682433
0.00107075
-0.000760528
0.00121286
-0.000837933
0.00136222
-0.000914179
0.00151814
-0.000988935
0.00167986
-0.00106203
0.00184646
-0.00113337
0.0020167
-0.00120267
-0.00126586
0.00218858
9.79031e-07
2.48561e-05
5.55659e-06
5.08839e-05
1.50512e-05
5.7483e-05
3.05679e-05
4.77678e-05
5.30658e-05
2.42264e-05
8.33886e-05
-1.11181e-05
0.000122276
-5.66119e-05
0.000170364
-0.000110873
0.000228167
-0.000172703
0.000296066
-0.000241019
0.00037429
-0.000314798
0.000462895
-0.000393051
0.00056176
-0.000474795
0.000670583
-0.000559061
0.000788884
-0.000644893
0.000916018
-0.000731367
0.0010512
-0.000817615
0.00119352
-0.00090285
0.00134198
-0.000986386
0.00149547
-0.00106767
0.00165282
-0.00114629
0.00181276
-0.00122197
0.0019739
-0.00129452
0.00213476
-0.00136353
-0.00142511
0.00229401
1.30638e-06
2.35497e-05
7.00112e-06
4.51892e-05
1.85047e-05
4.59794e-05
3.70026e-05
2.92699e-05
6.35154e-05
-2.28641e-06
9.89249e-05
-4.65276e-05
0.000143979
-0.000101666
0.000199279
-0.000166173
0.000265263
-0.000238687
0.000342179
-0.000317936
0.000430068
-0.000402687
0.000528742
-0.000491725
0.000637786
-0.000583839
0.000756557
-0.000677833
0.000884206
-0.000772542
0.0010197
-0.00086686
0.00116185
-0.000959768
0.00130936
-0.00105036
0.00146086
-0.00113788
0.00161491
-0.00122172
0.00177006
-0.00130143
0.00192481
-0.00137672
0.00207768
-0.00144739
0.00222727
-0.00151312
-0.00157064
0.00237281
1.68956e-06
2.18602e-05
8.65335e-06
3.82254e-05
2.24041e-05
3.22286e-05
4.41977e-05
7.47635e-06
7.51008e-05
-3.31895e-05
0.000116009
-8.74363e-05
0.000167644
-0.0001533
0.000230527
-0.000229056
0.000304957
-0.000313118
0.000390982
-0.000403961
0.000488377
-0.000500082
0.000596637
-0.000599984
0.000714981
-0.000702183
0.000842374
-0.000805227
0.000977566
-0.000907733
0.00111913
-0.00100842
0.00126552
-0.00110616
0.00141512
-0.00119997
0.00156632
-0.00128908
0.00171749
-0.0013729
0.00186712
-0.00145105
0.00201373
-0.00152333
0.00215598
-0.00158965
0.00229273
-0.00164987
-0.00170156
0.00242365
2.13555e-06
1.97246e-05
1.05338e-05
2.98272e-05
2.6784e-05
1.59784e-05
5.21955e-05
-1.79351e-05
8.7858e-05
-6.88519e-05
0.000134648
-0.000134226
0.000193211
-0.000211863
0.000263933
-0.000299778
0.000346903
-0.000396088
0.000441891
-0.000498948
0.00054833
-0.000606521
0.000665328
-0.000716982
0.000791688
-0.000828543
0.000925957
-0.000939496
0.00106649
-0.00104826
0.0012115
-0.00115344
0.00135918
-0.00125383
0.0015077
-0.00134849
0.00165534
-0.00143672
0.00180051
-0.00151806
0.00194176
-0.0015923
0.00207785
-0.00165942
0.00220774
-0.00171954
0.00233067
-0.0017728
-0.00181758
0.00244669
2.64957e-06
1.7075e-05
1.26563e-05
1.98205e-05
3.16639e-05
-3.02926e-06
6.10105e-05
-4.72818e-05
0.000101776
-0.000109618
0.000154773
-0.000187223
0.000220515
-0.000277605
0.000299178
-0.000378441
0.000390566
-0.000487476
0.000494092
-0.000602473
0.000608777
-0.000721207
0.00073329
-0.000841495
0.000865994
-0.000961246
0.00100503
-0.00107853
0.00114839
-0.00119163
0.00129405
-0.00129909
0.00144
-0.00139979
0.0015844
-0.00149289
0.00172557
-0.00157789
0.00186207
-0.00165456
0.00199273
-0.00172296
0.00211664
-0.00178333
0.00223317
-0.00183607
0.00234197
-0.0018816
-0.00191905
0.00244344
3.23483e-06
1.38402e-05
1.50271e-05
8.02819e-06
3.70458e-05
-2.5048e-05
7.06251e-05
-8.08611e-05
0.000116792
-0.000155784
0.000176238
-0.000246669
0.000249276
-0.000350643
0.000335795
-0.00046496
0.000435231
-0.000586912
0.000546566
-0.000713809
0.00066836
-0.000843001
0.000798813
-0.000971948
0.000935859
-0.00109829
0.00107728
-0.00121995
0.00122082
-0.00133516
0.00136429
-0.00144257
0.00150569
-0.00154119
0.00164325
-0.00163046
0.00177553
-0.00171016
0.00190137
-0.00178041
0.00201997
-0.00184156
0.00213084
-0.00189419
0.00223375
-0.00193899
0.00232878
-0.00197663
-0.0020069
0.00241663
3.89243e-06
9.94777e-06
1.76445e-05
-5.72386e-06
4.29137e-05
-5.03172e-05
8.09881e-05
-0.000118935
0.000132788
-0.000207584
0.000198817
-0.000312699
0.000279108
-0.000430935
0.000373181
-0.000559032
0.000480027
-0.000693758
0.000598141
-0.000831922
0.000725587
-0.000970448
0.000860111
-0.00110647
0.00099927
-0.00123745
0.00114058
-0.00136126
0.00128164
-0.00147623
0.00142029
-0.00158121
0.00155464
-0.00167554
0.00168319
-0.001759
0.0018048
-0.00183177
0.00191873
-0.00189433
0.00202458
-0.00194742
0.00212228
-0.00199189
0.00221201
-0.00202872
0.00229418
-0.0020588
-0.00208243
0.00236971
4.62148e-06
5.32629e-06
2.04986e-05
-2.1601e-05
4.9233e-05
-7.90516e-05
9.20148e-05
-0.000161717
0.000149593
-0.000265162
0.000222207
-0.000385313
0.000309526
-0.000518254
0.000410619
-0.000660125
0.000523969
-0.000807109
0.000647547
-0.0009555
0.000778929
-0.00110183
0.000915453
-0.001243
0.00105439
-0.00137639
0.00119312
-0.00149999
0.00132927
-0.00161237
0.0014608
-0.00171275
0.00158613
-0.00180087
0.0017041
-0.00187697
0.00181398
-0.00194166
0.00191547
-0.00199582
0.00200859
-0.00204053
0.00209363
-0.00207694
0.0021711
-0.00210619
0.00224169
-0.00212939
-0.00214714
0.0023064
5.41914e-06
-9.28537e-08
2.35718e-05
-3.97537e-05
5.59514e-05
-0.000111431
0.000103589
-0.000209354
0.000166987
-0.000328561
0.000246038
-0.000464364
0.000339964
-0.000612179
0.00044731
-0.00076747
0.000566007
-0.000925806
0.000693499
-0.00108299
0.000826917
-0.00123525
0.000963283
-0.00137936
0.00109971
-0.00151282
0.00123359
-0.00163387
0.00136271
-0.00174149
0.00148533
-0.00183537
0.00160024
-0.00191578
0.00170672
-0.00198345
0.0018045
-0.00203943
0.00189367
-0.00208499
0.00197462
-0.00212149
0.00204796
-0.00215028
0.00211443
-0.00217266
0.00217485
-0.00218981
-0.00220259
0.0022303
6.28076e-06
-6.37361e-06
2.68392e-05
-6.03121e-05
6.29995e-05
-0.000147591
0.000115563
-0.000261918
0.000184706
-0.000397704
0.000269886
-0.000549544
0.000369797
-0.00071209
0.000482408
-0.000880082
0.000605084
-0.00104848
0.000734774
-0.00121268
0.000868245
-0.00136872
0.00100233
-0.00151344
0.00113413
-0.00164462
0.0012612
-0.00176093
0.00138163
-0.00186192
0.00149408
-0.00194783
0.0015978
-0.0020195
0.00169251
-0.00207816
0.00177837
-0.00212528
0.00185582
-0.00216245
0.00192557
-0.00219123
0.00198842
-0.00221313
0.00204525
-0.00222949
0.00209697
-0.00224153
-0.0022502
0.00214458
7.19991e-06
-1.35735e-05
3.02685e-05
-8.33807e-05
7.02924e-05
-0.000187615
0.000127765
-0.00031939
0.000202449
-0.000472388
0.000293283
-0.000640377
0.000398368
-0.000817175
0.000515067
-0.000996781
0.000640194
-0.00117361
0.000770279
-0.00134277
0.000901844
-0.00150028
0.00103167
-0.00164327
0.00115702
-0.00176997
0.00127573
-0.00187965
0.00138631
-0.0019725
0.0014879
-0.00204941
0.0015802
-0.00211179
0.00166336
-0.00216133
0.00173791
-0.00219984
0.0018046
-0.00222914
0.00186431
-0.00225094
0.00191798
-0.00226679
0.00196653
-0.00227805
0.00201087
-0.00228586
-0.00229124
0.0020519
8.16846e-06
-2.1742e-05
3.3821e-05
-0.000109033
7.77309e-05
-0.000231525
0.000139999
-0.000381658
0.000219887
-0.000552277
0.000315738
-0.000736228
0.000425015
-0.000926452
0.000544475
-0.00111624
0.000670439
-0.00129957
0.000799121
-0.00147145
0.000926942
-0.00162811
0.0010508
-0.00176713
0.00116822
-0.00188739
0.00127748
-0.00198891
0.00137756
-0.00207258
0.00146808
-0.00213993
0.00154918
-0.00219289
0.0016214
-0.00223355
0.00168556
-0.00226399
0.00174258
-0.00228617
0.00179348
-0.00230184
0.00183923
-0.00231254
0.00188075
-0.00231956
0.00191886
-0.00232397
-0.00232675
0.00195437
9.1765e-06
-3.09185e-05
3.74514e-05
-0.000137308
8.5203e-05
-0.000279277
0.000152052
-0.000448507
0.000236676
-0.000636901
0.000336759
-0.000836311
0.000449106
-0.0010388
0.000569904
-0.00123704
0.000695072
-0.00142474
0.000820645
-0.00159702
0.000943095
-0.00175056
0.00105957
-0.0018836
0.00116802
-0.00199584
0.00126718
-0.00208807
0.00135654
-0.00216194
0.0014362
-0.00221958
0.00150667
-0.00226337
0.0015688
-0.00229569
0.0016236
-0.00231879
0.00167212
-0.00233468
0.00171539
-0.00234511
0.00175437
-0.00235152
0.00178991
-0.0023551
0.00182276
-0.00235682
-0.00235757
0.00185358
1.02124e-05
-4.11309e-05
4.11089e-05
-0.000168205
9.25869e-05
-0.000330755
0.0001637
-0.00051962
0.000252465
-0.000725666
0.000355867
-0.000939714
0.000470064
-0.001153
0.000590741
-0.00135771
0.00071354
-0.00154754
0.000834461
-0.00171794
0.000950181
-0.00186628
0.00105823
-0.00199165
0.00115703
-0.00209464
0.00124586
-0.0021769
0.00132467
-0.00224075
0.00139396
-0.00228888
0.0014546
-0.002324
0.00150761
-0.0023487
0.00155412
-0.0023653
0.00159523
-0.00237579
0.00163194
-0.00238182
0.00166514
-0.00238473
0.0016956
-0.00238556
0.00172395
-0.00238517
-0.00238435
0.00175072
1.12629e-05
-5.23938e-05
4.47378e-05
-0.00020168
9.97535e-05
-0.000385771
0.000174712
-0.000594579
0.000266911
-0.000817865
0.000372621
-0.00104542
0.000487394
-0.00126777
0.000606517
-0.00147684
0.000725492
-0.00166652
0.000840442
-0.00183289
0.000948378
-0.00197421
0.0010473
-0.00209057
0.00113617
-0.00218351
0.00121474
-0.00225548
0.00128344
-0.00230945
0.0013431
-0.00234853
0.00139478
-0.00237568
0.00143967
-0.00239359
0.00147892
-0.00240455
0.00151361
-0.00241048
0.00154467
-0.00241288
0.0015729
-0.00241296
0.00159897
-0.00241163
0.00162341
-0.00240961
-0.00240757
0.00164663
1.23133e-05
-6.47071e-05
4.82785e-05
-0.000237645
0.00010657
-0.000444062
0.000184864
-0.000672873
0.000279697
-0.000912697
0.000386636
-0.00115236
0.000500705
-0.00138184
0.000616919
-0.00159305
0.00073079
-0.00178039
0.000838704
-0.00194081
0.000938113
-0.00207362
0.00102754
-0.00218001
0.00110648
-0.00226245
0.00117517
-0.00232417
0.00123439
-0.00236866
0.00128521
-0.00239935
0.00132886
-0.00241934
0.00136658
-0.0024313
0.00139949
-0.00243746
0.00142861
-0.00243959
0.00145477
-0.00243905
0.00147869
-0.00243688
0.00150091
-0.00243385
0.00152186
-0.00243056
-0.00242758
0.00154188
1.33476e-05
-7.80547e-05
5.16695e-05
-0.000275967
0.000112904
-0.000505296
0.00019394
-0.00075391
0.000290534
-0.00100929
0.000397597
-0.00125942
0.000509724
-0.00149397
0.0006218
-0.00170513
0.000729493
-0.00188808
0.000829573
-0.00204089
0.000920003
-0.00216405
0.00099986
-0.00225986
0.00106913
-0.00233172
0.00112846
-0.0023835
0.00117892
-0.00241912
0.00122176
-0.00244219
0.00125827
-0.00245585
0.00128967
-0.0024627
0.00131704
-0.00246483
0.00134129
-0.00246384
0.00136317
-0.00246093
0.00138326
-0.00245697
0.00140203
-0.00245262
0.00141982
-0.00244836
-0.00244464
0.00143688
1.43489e-05
-9.24036e-05
5.48485e-05
-0.000316466
0.000118627
-0.000569075
0.000201745
-0.000837027
0.000299184
-0.00110673
0.000405271
-0.00136551
0.000514299
-0.00160299
0.000621165
-0.00181199
0.00072183
-0.00198875
0.000813537
-0.00213259
0.000894801
-0.00224531
0.000965231
-0.00233029
0.00102527
-0.00239175
0.00107588
-0.00243412
0.00111835
-0.00246159
0.00115402
-0.00247786
0.00118419
-0.00248602
0.00121003
-0.00248854
0.00123252
-0.00248732
0.00125247
-0.00248379
0.00127052
-0.00247898
0.00128717
-0.00247362
0.00130278
-0.00246823
0.00131764
-0.00246321
-0.0024589
0.0013319
1.53002e-05
-0.000107704
5.77545e-05
-0.000358921
0.000123622
-0.000634942
0.000208107
-0.000921513
0.000305459
-0.00120408
0.000409511
-0.00146956
0.000514395
-0.00170788
0.000615162
-0.00191276
0.000708172
-0.00208176
0.000791204
-0.00221563
0.000863331
-0.00231744
0.000924655
-0.00239162
0.000975996
-0.00244309
0.00101858
-0.00247671
0.00105382
-0.00249682
0.00108307
-0.00250712
0.00110761
-0.00251056
0.00112852
-0.00250945
0.00114667
-0.00250547
0.00116277
-0.00249989