/*--------------------------------*- C++ -*----------------------------------*\
  =========                 |
  \\      /  F ield         | OpenFOAM: The Open Source CFD Toolbox
   \\    /   O peration     | Website:  https://openfoam.org
    \\  /    A nd           | Version:  6.0
     \\/     M anipulation  |
\*---------------------------------------------------------------------------*/
FoamFile
{
    version     2.0;
    format      ascii;
    class       volVectorField;
    location    "48";
    object      U;
}
// * * * * * * * * * * * * * * * * * * * * * * * * * * * * * * * * * * * * * //

dimensions      [0 1 -1 0 0 0 0];

internalField   nonuniform List<vector> 
12500
(
(-0.000246564 7.0838e-05 -5.64718e-22)
(-0.00145185 -0.000289649 7.81033e-21)
(-0.00379361 -0.0010112 -1.13113e-20)
(-0.00679059 -0.00196633 5.18578e-21)
(-0.0101776 -0.00305819 3.0944e-22)
(-0.0137877 -0.00421625 -6.3619e-22)
(-0.0174873 -0.00539018 -9.39815e-21)
(-0.0211765 -0.0065455 5.15261e-21)
(-0.0247859 -0.00765989 3.4039e-21)
(-0.0282699 -0.00871992 3.45073e-21)
(-0.031602 -0.00971854 -5.83274e-21)
(-0.0347708 -0.010653 3.3877e-21)
(-0.0377771 -0.0115234 -1.59309e-21)
(-0.0406309 -0.0123316 2.69807e-21)
(-0.0433496 -0.0130806 -6.87048e-21)
(-0.0459558 -0.0137741 9.90852e-21)
(-0.0484757 -0.0144161 -1.88424e-21)
(-0.0509379 -0.0150113 -6.99113e-21)
(-0.0533715 -0.0155646 3.5786e-21)
(-0.0558058 -0.0160813 -3.40997e-21)
(-0.0582731 -0.0165676 3.04537e-21)
(-0.0608055 -0.0170301 4.01443e-21)
(-0.0633912 -0.0174756 4.08504e-22)
(-0.0659581 -0.0179096 -1.14673e-20)
(-0.0688058 -0.0183431 6.0445e-21)
(-0.00028335 0.000683096 1.03488e-20)
(-0.00154947 0.00130015 -2.66877e-20)
(-0.00395265 0.0013252 7.85456e-21)
(-0.00700662 0.000924348 5.24294e-21)
(-0.010445 0.000226227 -4.17363e-21)
(-0.014101 -0.000670805 -2.3685e-20)
(-0.0178409 -0.00169095 7.03103e-21)
(-0.0215651 -0.00277685 -1.32628e-20)
(-0.0252042 -0.00388583 1.58427e-20)
(-0.0287127 -0.00498647 -2.11177e-20)
(-0.0320644 -0.00605578 1.12537e-20)
(-0.0352481 -0.007077 3.63792e-21)
(-0.0382648 -0.00803795 -9.13657e-21)
(-0.0411251 -0.00892984 -4.02654e-21)
(-0.0438469 -0.00974649 2.94612e-20)
(-0.0464536 -0.0104839 -2.60293e-20)
(-0.0489723 -0.0111398 6.22115e-21)
(-0.0514326 -0.0117141 1.07388e-20)
(-0.0538648 -0.0122081 -2.43778e-21)
(-0.0562995 -0.012625 1.72392e-20)
(-0.0587704 -0.0129704 3.13843e-21)
(-0.061311 -0.0132513 -1.13341e-21)
(-0.06391 -0.0134751 -2.16877e-20)
(-0.0664944 -0.0136465 1.99218e-20)
(-0.0693699 -0.0137874 -3.79855e-20)
(-0.000359997 0.00130551 3.32102e-20)
(-0.00175088 0.00291432 1.10209e-20)
(-0.00426442 0.00369491 -1.44428e-20)
(-0.00741075 0.00385349 6.19995e-21)
(-0.0109237 0.00355136 5.78523e-21)
(-0.0146376 0.00291531 2.19441e-20)
(-0.0184201 0.00204708 -2.78435e-20)
(-0.0221727 0.00102721 -4.53176e-21)
(-0.025827 -8.10247e-05 -1.85976e-20)
(-0.0293384 -0.00122799 -1.5503e-20)
(-0.0326812 -0.00237458 1.9974e-20)
(-0.0358449 -0.0034898 -6.67997e-20)
(-0.0388314 -0.00454893 -2.09438e-21)
(-0.0416521 -0.00553222 -3.99842e-20)
(-0.0443257 -0.006424 -4.70178e-21)
(-0.0468768 -0.00721215 5.65407e-21)
(-0.049334 -0.00788788 -3.09173e-20)
(-0.0517283 -0.00844559 -1.93174e-20)
(-0.0540919 -0.00888283 -2.28302e-20)
(-0.0564573 -0.00920039 3.57148e-20)
(-0.0588606 -0.00940254 1.30302e-20)
(-0.0613375 -0.00949702 -5.79404e-20)
(-0.0638779 -0.00949129 -2.78642e-20)
(-0.0664074 -0.00938911 -3.11315e-20)
(-0.0692395 -0.00922381 8.38341e-20)
(-0.000477456 0.00193605 -1.02595e-21)
(-0.0020579 0.00454686 -2.55e-20)
(-0.00473056 0.0060882 -1.22468e-20)
(-0.0080038 0.0068078 7.59581e-21)
(-0.0116131 0.00690052 4.71353e-20)
(-0.0153958 0.00652215 -2.12216e-20)
(-0.0192218 0.0058007 4.52203e-20)
(-0.022995 0.00484014 4.30254e-20)
(-0.0266488 0.00372445 2.61505e-20)
(-0.03014 0.0025216 -3.86126e-22)
(-0.0334445 0.00128692 5.25887e-20)
(-0.0365528 6.57987e-05 9.09788e-21)
(-0.0394678 -0.00110427 4.00306e-20)
(-0.042202 -0.00219223 9.19264e-20)
(-0.0447755 -0.0031725 -1.06514e-19)
(-0.0472142 -0.00402437 1.59973e-19)
(-0.0495484 -0.00473179 3.47588e-20)
(-0.0518115 -0.00528325 -7.66336e-20)
(-0.0540379 -0.00567174 -1.08476e-20)
(-0.0562629 -0.00589493 2.77673e-20)
(-0.0585255 -0.00595556 -1.39312e-20)
(-0.0608649 -0.00586135 -8.35057e-21)
(-0.0632729 -0.00561972 -8.12151e-21)
(-0.0656734 -0.00523294 -3.2631e-20)
(-0.0683895 -0.00474635 1.14217e-19)
(-0.000636549 0.00257238 1.73199e-20)
(-0.00247193 0.00619105 -8.03916e-20)
(-0.00535194 0.00849433 9.74463e-20)
(-0.00878547 0.00977294 -3.87472e-20)
(-0.0125117 0.0102561 4.6371e-20)
(-0.0163721 0.0101291 3.78188e-20)
(-0.0202409 0.00954646 1.43453e-20)
(-0.0240253 0.00863561 7.31094e-22)
(-0.0276615 0.00750125 8.05723e-20)
(-0.0311087 0.00622962 5.57307e-20)
(-0.0343446 0.00489229 -2.22861e-20)
(-0.0373614 0.00354912 -1.43429e-20)
(-0.0401631 0.00225056 6.05072e-20)
(-0.0427637 0.00103929 1.13781e-20)
(-0.0451846 -4.86909e-05 3.0883e-20)
(-0.0474535 -0.000983466 7.38274e-20)
(-0.049603 -0.00174094 -6.36602e-20)
(-0.0516686 -0.0023028 5.13216e-20)
(-0.053688 -0.00265661 -1.10645e-19)
(-0.0556997 -0.00279597 9.28979e-20)
(-0.0577468 -0.00272127 6.10237e-22)
(-0.0598729 -0.00243957 -7.39931e-20)
(-0.0620727 -0.00195764 2.97068e-20)
(-0.0642682 -0.0012755 6.74856e-20)
(-0.0667941 -0.000451128 -9.93372e-20)
(-0.000837921 0.00321185 8.96266e-20)
(-0.00299376 0.00783932 -9.51534e-20)
(-0.0061284 0.0109015 -1.52768e-20)
(-0.00975396 0.0127336 1.93035e-20)
(-0.0136154 0.0135998 -4.1625e-20)
(-0.0175607 0.0137153 -6.48444e-20)
(-0.0214696 0.0132611 -5.39036e-20)
(-0.025254 0.0123881 -1.29854e-20)
(-0.0288541 0.0112215 -9.26257e-20)
(-0.0322324 0.00986559 7.38191e-20)
(-0.0353687 0.00840799 -1.1448e-19)
(-0.0382572 0.00692297 5.78725e-20)
(-0.0409036 0.00547403 -1.91351e-20)
(-0.0433232 0.00411577 4.44108e-20)
(-0.045539 0.00289511 -1.1162e-19)
(-0.0475806 0.0018519 5.41326e-20)
(-0.0494828 0.00101924 4.06739e-21)
(-0.051284 0.000423307 2.39605e-20)
(-0.0530254 8.32572e-05 1.44683e-19)
(-0.0547495 1.07829e-05 3.2095e-20)
(-0.0565044 0.000209059 -2.87188e-21)
(-0.0583392 0.000672696 9.14865e-21)
(-0.0602526 0.00139653 6.01825e-20)
(-0.0621648 0.00238394 1.71772e-20)
(-0.0644249 0.00356368 5.63178e-20)
(-0.00108197 0.00385148 -5.58411e-20)
(-0.0036234 0.00948335 7.92797e-20)
(-0.00705835 0.013297 4.97639e-21)
(-0.0109054 0.0156734 -9.67391e-20)
(-0.0149181 0.0169125 2.03415e-19)
(-0.0189527 0.0172595 -6.57177e-20)
(-0.0228964 0.0169218 9.59414e-20)
(-0.0266675 0.0160734 8.77306e-20)
(-0.0302112 0.0148595 -7.25516e-20)
(-0.033494 0.0134021 -1.05587e-19)
(-0.0364986 0.0118044 2.88992e-20)
(-0.0392216 0.010155 -3.04719e-20)
(-0.0416703 0.00853022 -1.34691e-19)
(-0.0438615 0.00699682 1.63651e-19)
(-0.0458198 0.00561308 -7.84594e-20)
(-0.0475765 0.00442961 -5.40667e-20)
(-0.0491687 0.00348951 5.49083e-22)
(-0.0506379 0.00282825 4.42122e-20)
(-0.0520291 0.00247323 1.81934e-20)
(-0.0533897 0.00244314 -7.12333e-20)
(-0.0547735 0.00274639 8.14215e-20)
(-0.0562366 0.00338078 -1.41259e-19)
(-0.0577829 0.00434418 8.62893e-20)
(-0.0593313 0.00564509 -6.60076e-20)
(-0.0612482 0.0071984 1.72589e-20)
(-0.00136877 0.00448794 8.13599e-20)
(-0.0043598 0.0111139 -6.25763e-20)
(-0.00813838 0.015667 -3.97988e-20)
(-0.0122335 0.0185752 -7.02665e-20)
(-0.0164099 0.0201747 -1.28416e-19)
(-0.0205349 0.0207405 -9.48534e-20)
(-0.0245051 0.0205063 5.91508e-20)
(-0.0282466 0.0196687 -8.95644e-20)
(-0.0317112 0.0183921 1.13641e-19)
(-0.0348699 0.0168154 -1.8494e-19)
(-0.0377094 0.0150571 8.21468e-20)
(-0.0402286 0.0132191 1.73462e-19)
(-0.0424366 0.0113906 -2.43705e-19)
(-0.0443518 0.00965037 3.47993e-20)
(-0.046 0.00806845 4.52893e-20)
(-0.0474142 0.00670687 4.37484e-20)
(-0.0486335 0.00561995 -4.69511e-20)
(-0.0497026 0.00485397 -1.14892e-20)
(-0.0506705 0.0044465 -3.45353e-20)
(-0.0515899 0.00442541 -2.87412e-20)
(-0.0525213 0.00480663 -1.5794e-19)
(-0.0535295 0.00559327 -1.06882e-20)
(-0.054625 0.0067884 1.74723e-21)
(-0.055726 0.00840813 -7.13471e-20)
(-0.0572209 0.0103531 7.35313e-20)
(-0.00169798 0.00511746 2.37826e-21)
(-0.00520061 0.0127208 2.56052e-20)
(-0.00936287 0.0179965 2.6675e-20)
(-0.0137286 0.0214206 1.5437e-20)
(-0.0180772 0.0233659 1.30782e-19)
(-0.0222894 0.024137 1.22859e-19)
(-0.0262735 0.0239934 -9.98233e-20)
(-0.0299654 0.0231531 -3.04282e-20)
(-0.0333244 0.0217992 -2.69882e-20)
(-0.0363278 0.0200865 1.3921e-19)
(-0.0389661 0.0181474 5.0013e-20)
(-0.0412413 0.0160968 -7.27172e-20)
(-0.0431646 0.0140358 -6.1591e-20)
(-0.0447553 0.0120551 1.48353e-19)
(-0.0460405 0.0102363 -3.65806e-20)
(-0.0470542 0.00865367 -4.43651e-20)
(-0.0478375 0.00737376 -6.18808e-20)
(-0.0484378 0.00645534 -4.8186e-20)
(-0.0489081 0.00594841 -6.15234e-20)
(-0.0493068 0.00589271 -4.02131e-20)
(-0.0497022 0.00631464 1.67063e-19)
(-0.050169 0.00722569 -8.22919e-20)
(-0.0507264 0.00863724 5.54032e-20)
(-0.0512935 0.0105765 -1.47386e-19)
(-0.0522852 0.0129301 5.93816e-20)
(-0.00206873 0.00573579 -7.31381e-20)
(-0.00614191 0.0142927 -1.90851e-20)
(-0.0107235 0.0202692 -1.48849e-19)
(-0.0153774 0.02419 -7.1355e-20)
(-0.0199011 0.0264648 -1.40781e-19)
(-0.0241918 0.0274274 -1.46837e-20)
(-0.028172 0.0273621 7.54354e-20)
(-0.0317889 0.0265075 -4.59938e-20)
(-0.0350115 0.0250639 9.90369e-20)
(-0.0378236 0.0232009 -2.40665e-19)
(-0.0402211 0.0210636 -7.0024e-21)
(-0.0422091 0.0187784 4.26483e-20)
(-0.0438009 0.0164575 -5.41e-20)
(-0.045017 0.0142026 4.92407e-20)
(-0.0458849 0.0121069 -3.76729e-20)
(-0.0464395 0.0102567 -8.07214e-20)
(-0.0467227 0.00873197 1.47207e-19)
(-0.0467845 0.00760552 9.13117e-20)
(-0.0466815 0.00694225 -1.89293e-20)
(-0.0464781 0.00679696 6.02896e-20)
(-0.0462509 0.00721031 -1.18916e-19)
(-0.0460863 0.00820623 1.71374e-19)
(-0.0460142 0.00980885 -2.34025e-19)
(-0.0459566 0.0120615 4.81335e-20)
(-0.0463621 0.0148378 -9.15769e-20)
(-0.0024795 0.00633812 3.98277e-21)
(-0.00717788 0.015817 -6.52064e-20)
(-0.0122089 0.0224671 9.64782e-20)
(-0.0171621 0.0268624 1.9784e-19)
(-0.0218573 0.0294489 -3.28826e-21)
(-0.026211 0.0305894 2.24068e-20)
(-0.0301623 0.0305917 -8.46888e-20)
(-0.0336723 0.0297139 3.95917e-20)
(-0.0367206 0.0281722 2.73287e-19)
(-0.0392994 0.026149 -6.19873e-20)
(-0.0414106 0.0238007 -7.32668e-20)
(-0.0430631 0.0212637 2.768e-19)
(-0.0442723 0.0186597 9.04689e-20)
(-0.0450598 0.0161001 4.30573e-20)
(-0.0454534 0.0136887 4.41129e-20)
(-0.0454877 0.0115238 1.20056e-19)
(-0.0452052 0.00969894 -4.61168e-20)
(-0.0446571 0.00830254 1.22066e-19)
(-0.0439033 0.00741677 1.65137e-19)
(-0.0430137 0.00711507 -1.40778e-19)
(-0.042074 0.00745692 2.09233e-19)
(-0.0411837 0.00848402 7.47459e-20)
(-0.0403858 0.0102394 -2.83425e-19)
(-0.0396082 0.0127895 4.09966e-19)
(-0.0393417 0.0159974 -3.32366e-19)
(-0.00292801 0.00691903 -1.86546e-19)
(-0.00830053 0.01728 1.01629e-19)
(-0.013804 0.0245708 -6.82172e-20)
(-0.0190601 0.0294149 -6.47502e-20)
(-0.0239151 0.0322943 -6.99725e-20)
(-0.0283078 0.0335995 -7.58839e-20)
(-0.0321966 0.0336611 2.079e-20)
(-0.0355586 0.0327551 1.97888e-19)
(-0.038386 0.0311119 -4.23241e-20)
(-0.0406807 0.0289252 -1.10383e-19)
(-0.0424515 0.0263605 -6.74614e-20)
(-0.043712 0.0235621 -2.75695e-20)
(-0.0444803 0.0206594 8.17717e-20)
(-0.0447788 0.0177716 -5.21355e-20)
(-0.0446352 0.0150114 -1.70199e-19)
(-0.0440836 0.012488 -1.87871e-19)
(-0.0431658 0.0103083 7.49288e-20)
(-0.0419332 0.0085769 -1.39427e-19)
(-0.0404479 0.00739536 1.21221e-19)
(-0.0387847 0.00685939 -3.42137e-19)
(-0.0370385 0.0070525 2.62932e-19)
(-0.0353232 0.00804078 -3.47755e-19)
(-0.0336977 0.00989434 -6.52636e-21)
(-0.0320992 0.0127129 -1.17125e-19)
(-0.0310722 0.0163532 3.44275e-19)
(-0.00341106 0.00747249 2.86341e-19)
(-0.00949943 0.0186663 4.2011e-20)
(-0.0154901 0.026559 -2.76164e-20)
(-0.0210436 0.0318228 -1.1619e-20)
(-0.0260368 0.0349747 2.16598e-19)
(-0.0304342 0.0364326 7.04998e-20)
(-0.0342161 0.036548 6.39648e-20)
(-0.0373778 0.0356136 -5.13739e-20)
(-0.0399259 0.0338721 1.982e-19)
(-0.0418736 0.0315267 -9.73911e-20)
(-0.0432379 0.0287499 6.28289e-20)
(-0.0440381 0.0256916 1.6005e-19)
(-0.0442956 0.0224864 -9.07053e-20)
(-0.0440341 0.0192586 9.83535e-20)
(-0.0432812 0.0161276 9.28989e-20)
(-0.0420697 0.0132114 3.17639e-20)
(-0.0404398 0.0106285 -7.82986e-20)
(-0.0384421 0.00849954 2.16634e-19)
(-0.0361394 0.00694648 -2.01388e-20)
(-0.0336103 0.00609042 -2.32212e-20)
(-0.0309583 0.00604434 2.59536e-19)
(-0.0283128 0.00690651 -1.84653e-19)
(-0.0257509 0.0087847 3.1111e-19)
(-0.0232237 0.0118254 -2.58037e-19)
(-0.021344 0.015887 3.32089e-19)
(-0.00392448 0.00799191 -1.38446e-19)
(-0.0107615 0.0199594 3.07566e-20)
(-0.0172443 0.0284087 -3.20356e-20)
(-0.0230792 0.0340591 -1.51389e-19)
(-0.0281778 0.037462 8.77787e-21)
(-0.0325334 0.0390609 8.6288e-20)
(-0.0361508 0.0392276 -3.50799e-19)
(-0.0390457 0.0382697 2.61937e-19)
(-0.0412411 0.0364407 -2.54985e-19)
(-0.0427631 0.0339512 -1.60801e-19)
(-0.0436385 0.0309787 1.44328e-19)
(-0.0438934 0.0276764 -3.12394e-19)
(-0.0435535 0.0241808 2.63191e-19)
(-0.0426449 0.0206188 -8.36364e-20)
(-0.0411952 0.0171129 -2.39028e-19)
(-0.0392358 0.0137865 5.90288e-20)
(-0.0368052 0.0107671 -5.538e-20)
(-0.0339515 0.00818908 2.08961e-20)
(-0.0307368 0.00619429 -7.46921e-20)
(-0.0272417 0.00493097 -2.48148e-19)
(-0.0235773 0.0045463 5.55542e-20)
(-0.0198889 0.00517911 -1.75382e-23)
(-0.0162737 0.00698768 -2.56029e-19)
(-0.0127016 0.0101834 1.79879e-19)
(-0.00987211 0.014639 -1.55577e-19)
(-0.00446304 0.00847029 5.60769e-20)
(-0.0120712 0.021142 1.0334e-19)
(-0.0190398 0.0300954 1.44544e-19)
(-0.0251279 0.036095 7.43989e-20)
(-0.0302861 0.039725 -7.29163e-20)
(-0.0345393 0.0414538 1.73993e-19)
(-0.0379191 0.0416719 1.28799e-19)
(-0.0404637 0.0407005 -4.67856e-20)
(-0.0422144 0.0388025 1.67493e-19)
(-0.043212 0.0361943 -1.72277e-19)
(-0.0434944 0.0330564 -5.04975e-20)
(-0.0430964 0.0295428 5.1275e-20)
(-0.0420496 0.0257895 1.01778e-19)
(-0.0403834 0.0219221 1.18324e-21)
(-0.0381267 0.0180625 6.44621e-20)
(-0.0353105 0.014335 1.18881e-19)
(-0.0319709 0.0108717 -2.02424e-19)
(-0.0281534 0.0078162 2.51681e-19)
(-0.0239178 0.00532742 8.50433e-20)
(-0.0193448 0.00357984 3.00422e-20)
(-0.0145512 0.00275756 -3.05498e-19)
(-0.00969741 0.0030475 4.32612e-20)
(-0.00490226 0.00467289 6.70427e-20)
(-0.000158395 0.00793312 -1.6093e-20)
(0.00372522 0.0127345 7.64998e-20)
(-0.0050205 0.00890043 4.47289e-21)
(-0.01341 0.022196 -2.66266e-19)
(-0.0208457 0.0315934 -6.55487e-21)
(-0.0271456 0.0378997 -6.71366e-20)
(-0.0323031 0.0417301 -4.41339e-19)
(-0.0363769 0.043577 3.81137e-19)
(-0.039428 0.0438483 -2.71227e-19)
(-0.0415187 0.042878 -1.35705e-20)
(-0.0427105 0.040937 -1.28214e-19)
(-0.0430602 0.0382462 2.21765e-19)
(-0.0426189 0.0349877 -2.38746e-19)
(-0.0414316 0.0313144 -1.11825e-19)
(-0.0395376 0.0273593 2.44827e-21)
(-0.0369717 0.0232435 -2.42111e-19)
(-0.0337662 0.019084 3.3034e-19)
(-0.0299529 0.0150012 -3.82775e-19)
(-0.0255671 0.0111251 7.16419e-22)
(-0.0206519 0.00760243 5.86822e-20)
(-0.0152642 0.00460265 -1.46813e-19)
(-0.00948283 0.00232177 1.4239e-19)
(-0.00342817 0.000979547 -2.02032e-19)
(0.00272613 0.000815458 -1.33511e-19)
(0.00884 0.00213168 2.488e-19)
(0.0148958 0.00534357 -2.71397e-19)
(0.0199482 0.0104182 -5.3055e-21)
(-0.00558971 0.00927524 -2.25535e-19)
(-0.0147573 0.0231033 2.58698e-19)
(-0.0226275 0.0328766 -7.97781e-20)
(-0.0290831 0.039441 1.53682e-19)
(-0.0341633 0.0434414 1.65713e-19)
(-0.0379628 0.0453926 -1.45971e-19)
(-0.0405738 0.0457195 -9.69426e-20)
(-0.0420842 0.0447677 -1.15995e-19)
(-0.0425767 0.0428156 1.06168e-19)
(-0.0421261 0.040088 -7.01636e-21)
(-0.040798 0.0367677 1.54875e-19)
(-0.0386493 0.0330053 1.52696e-19)
(-0.0357295 0.0289291 -1.82471e-19)
(-0.0320812 0.0246533 3.58461e-19)
(-0.0277426 0.0202864 -2.37718e-19)
(-0.0227496 0.0159393 -4.09198e-20)
(-0.0171393 0.0117335 4.63327e-19)
(-0.0109545 0.00781014 -2.14499e-19)
(-0.00424995 0.00433917 1.3673e-19)
(0.00289778 0.00152845 2.67071e-19)
(0.0103673 -0.00037412 -1.73278e-19)
(0.0179743 -0.00107849 1.8247e-20)
(0.0255601 -0.000193773 -1.18941e-20)
(0.033084 0.00284193 -7.10698e-20)
(0.0394359 0.00809262 1.33644e-19)
(-0.00616277 0.00958808 5.1585e-20)
(-0.0160903 0.0238464 -1.64191e-19)
(-0.0243474 0.0339191 8.97628e-20)
(-0.0308866 0.0406864 -1.07307e-21)
(-0.0357952 0.044821 6.75411e-20)
(-0.0392059 0.0468597 -1.16267e-19)
(-0.0412426 0.0472433 6.65076e-20)
(-0.0420206 0.0463285 1.81123e-19)
(-0.0416447 0.0444011 -5.50227e-21)
(-0.0402083 0.0416898 -9.26379e-20)
(-0.0377929 0.0383777 9.32071e-20)
(-0.0344694 0.0346136 -2.1066e-21)
(-0.0302991 0.0305206 -2.95128e-19)
(-0.0253357 0.0262047 1.09454e-19)
(-0.0196269 0.0217638 2.42239e-20)
(-0.0132168 0.0172953 -4.26614e-20)
(-0.00614878 0.0129056 -7.59444e-20)
(0.00153006 0.00872068 2.91126e-19)
(0.00976361 0.00489873 7.10607e-20)
(0.0184759 0.00164427 -1.52101e-19)
(0.0275455 -0.000782445 -1.82558e-20)
(0.0367801 -0.00205328 2.09431e-19)
(0.0460077 -0.00168922 -9.77979e-20)
(0.0551744 0.00104612 4.19798e-20)
(0.0629794 0.00635702 2.82685e-20)
(-0.00673125 0.00983316 -1.03375e-19)
(-0.0173845 0.0244097 1.02678e-19)
(-0.025965 0.0346964 -5.79059e-20)
(-0.0324983 0.0416039 -1.85889e-19)
(-0.0371219 0.0458312 -1.71108e-19)
(-0.0400073 0.0479358 -7.5874e-20)
(-0.0413115 0.048374 -6.27457e-20)
(-0.0411771 0.0475136 -1.85722e-19)
(-0.0397317 0.0456476 -7.50012e-20)
(-0.0370878 0.0430092 6.83268e-20)
(-0.0333436 0.0397833 -9.76526e-20)
(-0.0285851 0.0361175 -1.03207e-19)
(-0.0228878 0.0321308 -9.68539e-20)
(-0.0163191 0.0279224 1.75954e-19)
(-0.00894025 0.0235792 -3.69542e-19)
(-0.000808914 0.0191836 2.1106e-19)
(0.00801868 0.014823 -3.61052e-19)
(0.0174842 0.0106002 -5.5662e-20)
(0.0275229 0.00664864 -1.98284e-19)
(0.0380536 0.00315062 -4.63202e-20)
(0.0489523 0.000354564 -5.64757e-20)
(0.0600201 -0.00140009 -1.88596e-19)
(0.0710779 -0.00156509 -2.06339e-20)
(0.0820804 0.000785798 1.15379e-19)
(0.0915238 0.00604163 -2.99985e-19)
(-0.00728653 0.0100059 8.87299e-20)
(-0.0186141 0.0247793 1.16057e-19)
(-0.027437 0.0351864 4.06429e-19)
(-0.0338562 0.0421639 -7.13969e-20)
(-0.0380607 0.0464354 1.69827e-19)
(-0.0402612 0.0485786 4.04635e-19)
(-0.0406482 0.0490649 -1.10266e-19)
(-0.0393917 0.0482726 1.49281e-19)
(-0.0366418 0.0465029 8.7124e-20)
(-0.0325304 0.0439943 1.57885e-19)
(-0.0271723 0.040935 -3.16904e-20)
(-0.0206693 0.0374737 2.1336e-20)
(-0.0131125 0.0337283 -5.54179e-20)
(-0.00458553 0.0297938 2.99409e-19)
(0.00483251 0.0257494 3.82962e-20)
(0.0150649 0.0216647 2.77806e-19)
(0.026035 0.0176082 -7.1058e-20)
(0.0376631 0.0136563 2.54044e-19)
(0.0498643 0.00990828 3.56363e-20)
(0.0625414 0.00650615 1.29068e-19)
(0.0755583 0.00365718 -5.56886e-20)
(0.0887053 0.00167053 -9.86567e-21)
(0.101802 0.00111833 3.06525e-19)
(0.114846 0.00310409 1.88387e-19)
(0.126152 0.00823204 -7.85902e-20)
(-0.00781998 0.0101031 -2.15167e-19)
(-0.0197526 0.0249448 -2.18096e-19)
(-0.0287181 0.0353708 -2.27936e-19)
(-0.0348944 0.0423407 8.35066e-20)
(-0.0385228 0.0466013 -1.67734e-19)
(-0.0398537 0.0487498 -2.49926e-20)
(-0.0391108 0.0492718 -6.58977e-20)
(-0.0364911 0.0485567 -2.73406e-19)
(-0.0321668 0.0469139 -4.27248e-20)
(-0.026288 0.0445884 7.01633e-20)
(-0.0189863 0.0417738 -2.20199e-19)
(-0.010379 0.0386227 3.05163e-19)
(-0.000573604 0.0352558 -4.14445e-19)
(0.0103282 0.0317689 9.97971e-20)
(0.0222265 0.0282389 -2.53746e-19)
(0.0350202 0.0247295 -2.05891e-19)
(0.048604 0.0212961 -1.17166e-20)
(0.0628659 0.0179933 -3.11007e-20)
(0.077686 0.0148855 2.45441e-20)
(0.0929326 0.0120646 -1.17383e-19)
(0.10844 0.00967126 -8.12053e-20)
(0.123971 0.00793483 9.97532e-20)
(0.139339 0.00737563 -2.7581e-19)
(0.154636 0.0092126 8.96205e-20)
(0.168069 0.0142534 6.39473e-20)
(-0.00832317 0.0101232 -3.8199e-20)
(-0.0207722 0.0248989 -6.34121e-20)
(-0.0297599 0.0352361 2.46137e-19)
(-0.035542 0.0421146 9.1556e-20)
(-0.0384124 0.0463033 1.21185e-19)
(-0.0386617 0.0484183 -1.61849e-19)
(-0.0365462 0.0489588 2.38075e-22)
(-0.0322892 0.0483248 -1.31028e-19)
(-0.0260841 0.0468343 2.42152e-19)
(-0.0180985 0.0447399 7.90781e-20)
(-0.00847954 0.0422421 8.87598e-20)
(0.00264028 0.0395004 -3.52795e-19)
(0.0151373 0.0366424 4.35199e-19)
(0.0288909 0.0337702 -1.30726e-19)
(0.0437788 0.0309665 -9.35798e-20)
(0.0596716 0.0282985 2.8015e-19)
(0.0764292 0.0258207 1.24996e-19)
(0.093897 0.023579 -3.16314e-19)
(0.111904 0.0216158 -1.31992e-19)
(0.130263 0.0199801 3.98259e-19)
(0.148749 0.0187383 -3.04144e-19)
(0.167068 0.0179991 1.82852e-19)
(0.184996 0.0181313 1.02087e-19)
(0.20276 0.0203401 -1.3129e-19)
(0.21864 0.0255571 -1.26568e-19)
(-0.00878789 0.010066 -1.40583e-19)
(-0.0216445 0.0246381 2.18364e-19)
(-0.030511 0.0347744 9.29808e-20)
(-0.035722 0.0414733 -1.34264e-19)
(-0.037625 0.0455253 -2.14793e-20)
(-0.0365505 0.0475645 -1.4081e-19)
(-0.0327874 0.0481032 -5.61303e-20)
(-0.0265844 0.047551 6.29843e-20)
(-0.0181551 0.0462344 -1.56893e-20)
(-0.00768372 0.0444138 1.18983e-19)
(0.00466793 0.0422979 -1.03355e-19)
(0.0187529 0.040055 2.85946e-19)
(0.0344317 0.0378227 -3.54574e-19)
(0.0515655 0.0357147 2.21103e-19)
(0.0700088 0.0338269 2.74814e-19)
(0.0896034 0.0322406 -3.97241e-19)
(0.110172 0.0310254 -1.20904e-19)
(0.13151 0.0302398 2.03712e-19)
(0.153384 0.029932 -1.25725e-19)
(0.175527 0.0301406 1.2135e-19)
(0.197621 0.0308873 -2.94043e-19)
(0.219259 0.0321606 4.90021e-20)
(0.240106 0.0340977 1.9145e-19)
(0.26053 0.0377317 -3.07824e-19)
(0.279207 0.0439553 8.29393e-20)
(-0.00920596 0.0099329 -1.3009e-19)
(-0.0223389 0.0241625 4.07576e-19)
(-0.0309151 0.0339838 7.82148e-20)
(-0.0353496 0.0404138 -2.11336e-19)
(-0.0360448 0.0442637 1.51353e-19)
(-0.0333713 0.0461851 7.68422e-20)
(-0.0276504 0.0467019 1.22784e-19)
(-0.0191562 0.0462326 -7.99298e-21)
(-0.00812163 0.0451112 -1.27194e-20)
(0.00525275 0.0436055 -2.6731e-20)
(0.0207906 0.0419319 -1.16999e-19)
(0.0383306 0.0402679 -4.03171e-21)
(0.0577178 0.0387622 2.73458e-19)
(0.0787955 0.0375427 -4.48666e-19)
(0.101397 0.0367225 3.19216e-19)
(0.125337 0.0364062 6.46092e-20)
(0.150405 0.0366925 1.14262e-19)
(0.176352 0.0376778 -5.88833e-20)
(0.20288 0.0394569 5.22442e-19)
(0.22963 0.0421228 -3.23566e-19)
(0.256148 0.0457461 2.58694e-19)
(0.281823 0.0503145 6.08719e-20)
(0.30603 0.0558549 -1.89395e-19)
(0.329077 0.063302 1.60411e-19)
(0.350414 0.0731353 2.48413e-19)
(-0.00956887 0.00972583 -3.78545e-20)
(-0.0228224 0.0234751 -1.43735e-19)
(-0.03091 0.0328692 -2.45568e-19)
(-0.0343302 0.0389433 -1.39936e-19)
(-0.0335422 0.0425294 -1.95602e-20)
(-0.028958 0.0442956 -5.5241e-20)
(-0.0209315 0.0447763 -2.56003e-19)
(-0.00976219 0.0443972 4.23735e-20)
(0.00429642 0.0434982 -2.87737e-19)
(0.0210267 0.0423526 -2.23463e-20)
(0.0402362 0.0411828 -2.76014e-19)
(0.0617474 0.0401734 -9.83502e-20)
(0.0853883 0.039482 5.64581e-20)
(0.110984 0.0392476 -2.68694e-19)
(0.138348 0.0395991 2.42982e-21)
(0.167277 0.040663 -2.31517e-19)
(0.19754 0.0425706 8.94004e-20)
(0.22887 0.0454675 -3.23269e-19)
(0.260953 0.0495257 -5.53932e-20)
(0.293402 0.0549571 -7.63697e-21)
(0.325708 0.0620135 -5.46307e-20)
(0.357122 0.0709575 -5.60136e-20)
(0.386663 0.0822569 -2.80823e-20)
(0.413792 0.0973945 -1.1221e-19)
(0.437106 0.115591 -2.40141e-19)
(-0.00986721 0.00944739 6.90275e-20)
(-0.023058 0.0225819 1.82242e-19)
(-0.0304254 0.0314414 2.18967e-19)
(-0.0325572 0.0370798 -1.74956e-19)
(-0.0299721 0.0403493 3.2454e-19)
(-0.0231251 0.0419338 -1.76184e-19)
(-0.0124046 0.0423763 9.56547e-20)
(0.00186285 0.0421079 1.49164e-19)
(0.0194009 0.0414719 1.35749e-19)
(0.0399709 0.0407442 6.60227e-20)
(0.0633596 0.0401498 1.06691e-19)
(0.0893676 0.0398754 6.20379e-20)
(0.1178 0.0400808 4.19466e-19)
(0.148456 0.0409078 -3.04841e-19)
(0.181129 0.0424887 3.48137e-19)
(0.215596 0.0449553 -1.44647e-19)
(0.25162 0.0484489 3.12326e-19)
(0.288952 0.0531335 -1.47971e-20)
(0.327333 0.059217 -6.46694e-20)
(0.366503 0.0669806 -1.18067e-20)
(0.406214 0.0768183 2.45446e-19)
(0.44627 0.0893402 -2.40266e-19)
(0.486833 0.10581 1.68521e-19)
(0.528549 0.128144 1.86929e-19)
(0.567863 0.150694 3.86226e-20)
(-0.0100898 0.00909997 4.77728e-20)
(-0.023003 0.0214906 -2.60784e-19)
(-0.0293817 0.029717 -9.46397e-20)
(-0.0299104 0.0348516 8.64e-20)
(-0.0251719 0.0377665 -2.66107e-19)
(-0.0156673 0.0391599 -5.25066e-20)
(-0.00182223 0.0395817 3.63986e-20)
(0.0160054 0.0394655 1.43811e-19)
(0.0375109 0.0391552 -3.63992e-19)
(0.0624275 0.0389255 2.76947e-20)
(0.0905114 0.0389985 -1.0642e-19)
(0.121529 0.0395563 -3.23507e-19)
(0.155249 0.0407515 2.20395e-19)
(0.191431 0.0427153 9.46931e-21)
(0.229827 0.0455655 -6.64695e-21)
(0.270179 0.0494127 2.22257e-19)
(0.312224 0.0543679 -3.92869e-19)
(0.355701 0.0605508 3.11074e-19)
(0.40037 0.0680992 -5.75543e-20)
(0.446037 0.0771793 1.81337e-19)
(0.492577 0.0879912 -2.98594e-19)
(0.540005 0.100798 1.71264e-19)
(0.588726 0.116133 -3.07201e-19)
(0.639581 0.13458 3.17365e-19)
(0.687653 0.150348 -9.89807e-20)
(-0.010223 0.00868542 3.21454e-19)
(-0.0226079 0.0202099 -5.24004e-20)
(-0.027688 0.0277177 3.85687e-19)
(-0.0262551 0.0322979 1.78449e-19)
(-0.0189617 0.0348406 1.43127e-20)
(-0.00636017 0.0360571 7.78512e-20)
(0.0110813 0.0365017 1.87763e-20)
(0.0329666 0.0366077 3.17109e-19)
(0.0589534 0.0367156 1.0213e-19)
(0.0887341 0.0370941 -1.37169e-20)
(0.122019 0.0379562 2.74225e-20)
(0.158521 0.0394712 1.05591e-19)
(0.197951 0.0417738 8.81447e-20)
(0.240003 0.0449721 1.88626e-19)
(0.284362 0.0491524 -2.14899e-19)
(0.330702 0.0543842 6.48731e-20)
(0.378693 0.0607242 1.97487e-20)
(0.428016 0.0682186 9.60261e-20)
(0.478377 0.0769049 2.60092e-19)
(0.529532 0.0868087 -1.69744e-19)
(0.581304 0.0979323 1.44375e-20)
(0.633612 0.110244 -2.40141e-19)
(0.686581 0.123789 2.27302e-19)
(0.740596 0.138814 -2.20363e-19)
(0.790842 0.151663 2.10804e-20)
(-0.0102497 0.00820503 -2.68153e-19)
(-0.021815 0.0187501 2.0489e-19)
(-0.0252417 0.0254703 -3.3332e-19)
(-0.0214419 0.029467 2.87432e-20)
(-0.0111461 0.031646 2.3436e-19)
(0.00503519 0.0327293 -3.90278e-19)
(0.0265829 0.0332724 3.09516e-19)
(0.0530515 0.0337047 -4.90948e-19)
(0.0840466 0.0343585 9.78066e-20)
(0.119201 0.0354906 2.09217e-20)
(0.158158 0.0372971 1.64927e-19)
(0.200551 0.0399255 -5.47885e-19)
(0.246003 0.043482 9.46091e-20)
(0.294115 0.0480388 1.00197e-19)
(0.34447 0.0536376 -6.00563e-20)
(0.39664 0.0602939 -3.7244e-19)
(0.450194 0.0679983 1.75386e-19)
(0.504713 0.0767178 3.28006e-19)
(0.559804 0.0863943 -3.46031e-19)
(0.615121 0.0969392 2.50988e-19)
(0.670373 0.108222 -3.25418e-19)
(0.725329 0.120056 2.36541e-19)
(0.779849 0.132273 -6.58022e-20)
(0.833972 0.145076 3.76322e-19)
(0.883689 0.156621 -4.30709e-19)
(-0.010149 0.00765946 3.8387e-20)
(-0.0205579 0.017122 3.02638e-20)
(-0.0219285 0.0230058 7.40597e-20)
(-0.0153089 0.0264165 2.64159e-19)
(-0.00151805 0.0282711 -8.27185e-21)
(0.0187657 0.0292989 5.89719e-20)
(0.0449595 0.0300529 2.62471e-19)
(0.0765526 0.0309531 1.05891e-19)
(0.113078 0.0323177 -3.4891e-20)
(0.154084 0.0343838 2.96888e-19)
(0.199116 0.0373217 -3.38038e-19)
(0.247701 0.0412461 5.18592e-19)
(0.299339 0.0462234 -2.05767e-19)
(0.353505 0.0522777 3.73331e-19)
(0.409649 0.0593953 -1.26067e-19)
(0.467215 0.0675283 4.59649e-20)
(0.525646 0.0765977 5.56817e-20)
(0.584406 0.0864944 -1.07558e-19)
(0.642994 0.09708 9.00649e-20)
(0.700957 0.108184 5.79485e-20)
(0.757902 0.119601 7.99638e-20)
(0.81349 0.131078 1.69725e-19)
(0.867437 0.142368 -1.43232e-20)
(0.919619 0.153642 -7.76779e-20)
(0.967118 0.16443 2.35197e-19)
(-0.00989602 0.00704905 -2.24423e-19)
(-0.0187612 0.0153383 2.37037e-20)
(-0.0176235 0.0203605 -4.26078e-19)
(-0.0076844 0.0232127 -1.0171e-19)
(0.0101359 0.0248167 -1.9034e-19)
(0.0350768 0.0259044 -4.08005e-20)
(0.0664744 0.0270201 -2.03705e-19)
(0.10373 0.0285681 -1.21715e-19)
(0.146276 0.0308439 1.61113e-19)
(0.193547 0.034055 -2.68873e-19)
(0.244956 0.0383345 -7.46786e-20)
(0.299885 0.0437519 2.96665e-21)
(0.357681 0.0503207 -5.04659e-19)
(0.417659 0.058005 2.14525e-19)
(0.47912 0.0667261 -3.13143e-19)
(0.54136 0.0763671 -9.75977e-21)
(0.603694 0.0867789 6.17876e-20)
(0.665476 0.0977847 -1.00229e-19)
(0.726115 0.109183 -8.78983e-20)
(0.785087 0.120753 4.39587e-20)
(0.841948 0.132251 4.92349e-20)
(0.896325 0.143415 -3.18982e-19)
(0.947905 0.153987 1.81968e-19)
(0.996535 0.164101 9.21498e-20)
(1.04034 0.174241 2.56824e-20)
(-0.00946131 0.00637442 2.2962e-19)
(-0.0163413 0.0134144 -2.44862e-19)
(-0.0121931 0.0175761 3.43257e-19)
(0.00160912 0.0199307 5.33654e-20)
(0.0240276 0.0213952 -1.63607e-20)
(0.0542011 0.0226972 -1.15213e-19)
(0.0913604 0.0243646 1.73272e-20)
(0.13479 0.026776 1.75096e-19)
(0.183788 0.0301934 -2.415e-19)
(0.237636 0.0347819 2.53598e-19)
(0.295577 0.0406232 -2.67946e-20)
(0.356813 0.0477269 1.18275e-20)
(0.420507 0.0560398 3.2963e-19)
(0.485798 0.0654546 4.41796e-19)
(0.551822 0.0758192 -1.72859e-19)
(0.617735 0.0869452 3.07117e-19)
(0.682743 0.0986173 1.56112e-19)
(0.74612 0.110602 -9.53999e-20)
(0.807232 0.122654 3.02771e-19)
(0.865544 0.134524 -1.14022e-20)
(0.920631 0.145966 -2.9154e-19)
(0.972168 0.156735 3.08075e-19)
(1.01991 0.166605 4.47328e-20)
(1.06378 0.175681 -1.91616e-19)
(1.10278 0.185045 6.01092e-20)
(-0.00881171 0.00563727 -3.19537e-19)
(-0.013208 0.0113695 3.33815e-19)
(-0.00549843 0.0147014 -2.11747e-19)
(0.0127491 0.0166551 -6.60644e-20)
(0.0403593 0.0181303 -1.47774e-19)
(0.0763456 0.0198404 2.61233e-19)
(0.119803 0.0222857 -1.51581e-19)
(0.169863 0.0258067 -6.94364e-20)
(0.225648 0.0306173 -1.9871e-19)
(0.286245 0.0368239 5.14456e-21)
(0.35069 0.04444 -7.77234e-20)
(0.417972 0.0533992 3.78197e-20)
(0.487051 0.0635675 -3.98156e-19)
(0.556882 0.074756 1.13438e-19)
(0.626446 0.0867344 -1.36984e-19)
(0.69479 0.0992446 -1.10439e-19)
(0.761048 0.112013 3.40128e-20)
(0.824473 0.124765 -1.61451e-19)
(0.884452 0.137232 -6.96017e-20)
(0.940512 0.149163 1.9996e-19)
(0.992322 0.160329 8.50514e-20)
(1.03968 0.17053 -3.61342e-19)
(1.08249 0.179589 2.66231e-19)
(1.1208 0.187612 -5.04863e-20)
(1.15429 0.195981 -1.0458e-19)
(-0.00791081 0.0048412 -1.16507e-19)
(-0.00926584 0.00922891 -6.22921e-20)
(0.00260103 0.0117941 -1.24415e-20)
(0.0259066 0.0134814 9.10398e-20)
(0.0593137 0.0151566 9.89776e-20)
(0.101679 0.0175061 8.61371e-20)
(0.151925 0.0209878 1.07102e-19)
(0.208984 0.0258872 1.63406e-19)
(0.271761 0.0323516 2.49659e-19)
(0.339104 0.0404095 2.46884e-19)