/*--------------------------------*- C++ -*----------------------------------*\
  =========                 |
  \\      /  F ield         | OpenFOAM: The Open Source CFD Toolbox
   \\    /   O peration     | Website:  https://openfoam.org
    \\  /    A nd           | Version:  6.0
     \\/     M anipulation  |
\*---------------------------------------------------------------------------*/
FoamFile
{
    version     2.0;
    format      ascii;
    class       surfaceScalarField;
    location    "69";
    object      phi;
}
// * * * * * * * * * * * * * * * * * * * * * * * * * * * * * * * * * * * * * //

dimensions      [0 3 -1 0 0 0 0];

internalField   nonuniform List<scalar> 
7840
(
3.73092e-05
-0.000313618
0.000129192
-0.000951085
0.000254806
-0.00156407
0.000392967
-0.00210715
0.000525902
-0.00254914
0.000641942
-0.00288013
0.000735804
-0.00310814
0.000807181
-0.00325142
0.000858777
-0.00333124
0.000894568
-0.0033672
0.000918596
-0.00337499
0.000934335
-0.00336602
0.000944462
-0.00334797
0.000950893
-0.00332569
0.00095493
-0.00330209
0.000957432
-0.00327887
0.000958963
-0.00325699
0.000959894
-0.00323702
0.000960456
-0.00321924
-0.00320391
0.000960777
3.8288e-05
-0.000351906
0.000129871
-0.00104267
0.00025146
-0.00168566
0.00038096
-0.00223665
0.000501286
-0.00266947
0.000602392
-0.00298124
0.000680756
-0.0031865
0.000737438
-0.0033081
0.000775934
-0.00336974
0.000800486
-0.00339175
0.000815044
-0.00338954
0.000822791
-0.00337377
0.000826059
-0.00335124
0.000826441
-0.00332607
0.000824981
-0.00330063
0.000822346
-0.00327623
0.000818972
-0.00325362
0.000815143
-0.00323319
0.000811033
-0.00321513
-0.00319961
0.000806735
3.88348e-05
-0.000390741
0.000128975
-0.00113281
0.000245054
-0.00180174
0.000364578
-0.00235618
0.000471549
-0.00277644
0.000557678
-0.00306736
0.000621096
-0.00324992
0.000664008
-0.00335101
0.000690464
-0.0033962
0.000704791
-0.00340608
0.000710733
-0.00339549
0.000711144
-0.00337418
0.000708015
-0.00334811
0.000702648
-0.0033207
0.000695866
-0.00329384
0.000688185
-0.00326855
0.00067994
-0.00324537
0.000671349
-0.0032246
0.000662547
-0.00320633
-0.00319066
0.000653604
3.89266e-05
-0.000429667
0.000126512
-0.00122039
0.00023575
-0.00191098
0.000344253
-0.00246468
0.000437423
-0.00286961
0.000508768
-0.00313871
0.000557917
-0.00329907
0.000587987
-0.00338108
0.000603375
-0.00341158
0.000608346
-0.00341105
0.000606366
-0.00339351
0.000599946
-0.00336776
0.000590758
-0.00333892
0.000579849
-0.00330979
0.00056786
-0.00328185
0.000555184
-0.00325587
0.000542076
-0.00323227
0.000528711
-0.00321124
0.000515193
-0.00319281
-0.00317705
0.000501576
3.85517e-05
-0.000468219
0.000122523
-0.00130436
0.000223764
-0.00201222
0.000320456
-0.00256137
0.000399631
-0.00294879
0.000456555
-0.00319563
0.000492169
-0.00333468
0.000510283
-0.0033992
0.000515461
-0.00341676
0.000511797
-0.00340739
0.000502442
-0.00338415
0.000489568
-0.00335488
0.000474558
-0.00332391
0.000458244
-0.00329348
0.000441114
-0.00326472
0.000423464
-0.00323822
0.000405492
-0.00321429
0.000387333
-0.00319308
0.000369077
-0.00317456
-0.00315874
0.000350767
3.77086e-05
-0.000505928
0.000117084
-0.00138374
0.000209353
-0.00210449
0.000293683
-0.0026457
0.00035887
-0.00301397
0.000401853
-0.00323862
0.000424683
-0.00335751
0.000431661
-0.00340617
0.000427371
-0.00341247
0.000415665
-0.00339568
0.00039936
-0.00336785
0.00038031
-0.00333583
0.000359646
-0.00330324
0.000338015
-0.00327185
0.000315783
-0.00324249
0.000293169
-0.00321561
0.000270323
-0.00319145
0.000247355
-0.00317011
0.000224341
-0.00315154
-0.00313572
0.000201324
3.64062e-05
-0.000542334
0.000110297
-0.00145763
0.000192802
-0.00218699
0.000264422
-0.00271732
0.00031579
-0.00306534
0.000345383
-0.00326821
0.000356162
-0.00336829
0.000352744
-0.00340276
0.000339616
-0.00339934
0.000320345
-0.00337641
0.000297413
-0.00334491
0.000272388
-0.00331081
0.000246181
-0.00327704
0.000219288
-0.00324496
0.000191976
-0.00321518
0.000164399
-0.00318803
0.000136668
-0.00316372
0.000108876
-0.00314232
8.10925e-05
-0.00312376
-0.00310799
5.33605e-05
3.46619e-05
-0.000576996
0.000102282
-0.00152525
0.000174406
-0.00225912
0.000233148
-0.00277606
0.000270984
-0.00310318
0.000287773
-0.003285
0.000287199
-0.00336772
0.000274038
-0.00338959
0.000252602
-0.00337791
0.000226144
-0.00334995
0.000196829
-0.0033156
0.000165969
-0.00327995
0.000134292
-0.00324536
0.00010217
-0.00321283
6.97871e-05
-0.0031828
3.72447e-05
-0.00315549
4.62172e-06
-0.00313109
-2.80057e-05
-0.00310969
-6.05664e-05
-0.0030912
-0.00307554
-9.30131e-05
3.2501e-05
-0.000609497
9.31739e-05
-0.00158592
0.000154463
-0.0023204
0.000200307
-0.00282191
0.000224984
-0.00312786
0.000229568
-0.00328958
0.000218288
-0.00335644
0.000195957
-0.00336726
0.000166652
-0.0033486
0.000133303
-0.0033166
9.77831e-05
-0.00328008
6.11825e-05
-0.00324335
2.40771e-05
-0.00320825
-1.32592e-05
-0.0031755
-5.071e-05
-0.00314535
-8.82206e-05
-0.00311798
-0.000125742
-0.00309357
-0.000163211
-0.00307222
-0.000200552
-0.00305386
-0.00303839
-0.000237707
2.9955e-05
-0.000639452
8.31158e-05
-0.00163909
0.000133264
-0.00237055
0.000166314
-0.00285496
0.000178263
-0.0031398
0.000171234
-0.00328255
0.000149842
-0.00333504
0.000118838
-0.00333626
8.20235e-05
-0.00331179
4.20134e-05
-0.00327659
4.15803e-07
-0.00323848
-4.18686e-05
-0.00320106
-8.43844e-05
-0.00316574
-0.000126935
-0.00313295
-0.000169458
-0.00310282
-0.000211942
-0.0030755
-0.000254368
-0.00305115
-0.000296684
-0.0030299
-0.000338804
-0.00301174
-0.00299654
-0.000380654
2.70607e-05
-0.000666512
7.22546e-05
-0.00168428
0.00011109
-0.00240939
0.000131546
-0.00287541
0.000131238
-0.0031395
0.00011317
-0.00326449
8.22055e-05
-0.00330408
4.29582e-05
-0.00329701
-1.06825e-06
-0.00326776
-4.75628e-05
-0.0032301
-9.51532e-05
-0.00319089
-0.000143095
-0.00315312
-0.000191027
-0.00311781
-0.000238808
-0.00308517
-0.00028642
-0.00305521
-0.000333889
-0.00302803
-0.000381229
-0.00300381
-0.000428401
-0.00298273
-0.000475307
-0.00296483
-0.00295
-0.000521846
2.38585e-05
-0.000690371
6.07376e-05
-0.00172116
8.82053e-05
-0.00243686
9.63487e-05
-0.00288355
8.42761e-05
-0.00312742
5.57192e-05
-0.00323593
1.56742e-05
-0.00326404
-3.14434e-05
-0.00324989
-8.24372e-05
-0.00321677
-0.000135281
-0.00317725
-0.000188811
-0.00313736
-0.000242411
-0.00309952
-0.000295787
-0.00306443
-0.000348836
-0.00303212
-0.000401569
-0.00300248
-0.000454051
-0.00297555
-0.000506331
-0.00295153
-0.00055839
-0.00293067
-0.000610114
-0.00291311
-0.00289875
-0.000661364
2.03919e-05
-0.000710763
4.87104e-05
-0.00174948
6.48579e-05
-0.002453
6.10318e-05
-0.00287973
3.77016e-05
-0.00310409
-8.18278e-07
-0.00319741
-4.94965e-05
-0.00321536
-0.000104157
-0.00319523
-0.000161911
-0.00315901
-0.000220999
-0.00311816
-0.00028044
-0.00307792
-0.00033972
-0.00304024
-0.000398594
-0.00300556
-0.000456974
-0.00297374
-0.000514889
-0.00294456
-0.000572433
-0.002918
-0.000629703
-0.00289426
-0.00068671
-0.00287366
-0.000743328
-0.00285649
-0.00284272
-0.000799359
1.6706e-05
-0.000727469
3.6314e-05
-0.00176908
4.12792e-05
-0.00245797
2.58764e-05
-0.00286433
-8.19891e-06
-0.00307002
-5.61791e-05
-0.00314943
-0.000113077
-0.00315846
-0.000174985
-0.00313333
-0.000239318
-0.00309468
-0.000304562
-0.00305292
-0.000369899
-0.00301258
-0.000434902
-0.00297524
-0.000499351
-0.00294111
-0.000563161
-0.00290993
-0.000626353
-0.00288137
-0.000689043
-0.00285531
-0.000751376
-0.00283192
-0.000813418
-0.00281162
-0.000875037
-0.00279487
-0.00278182
-0.000935938
1.28474e-05
-0.000740316
2.36846e-05
-0.00177992
1.76828e-05
-0.00245197
-8.86445e-06
-0.00283778
-5.31694e-05
-0.00302571
-0.000110126
-0.00309247
-0.000174856
-0.00309373
-0.000243735
-0.00306445
-0.000314476
-0.00302394
-0.000385792
-0.0029816
-0.000457013
-0.00294136
-0.000527787
-0.00290446
-0.000597917
-0.00287098
-0.000667296
-0.00284055
-0.000735917
-0.00281275
-0.000803885
-0.00278734
-0.00087139
-0.00276442
-0.000938567
-0.00274445
-0.0010053
-0.00272814
-0.00271598
-0.00107114
8.86253e-06
-0.000749179
1.09513e-05
-0.00178201
-5.73487e-06
-0.00243528
-4.29625e-05
-0.00280055
-9.69802e-05
-0.0029717
-0.000162443
-0.00302701
-0.00023463
-0.00302154
-0.000310212
-0.00298887
-0.000387182
-0.00294697
-0.00046447
-0.00290432
-0.000541546
-0.00286429
-0.000618137
-0.00282787
-0.000694066
-0.00279505
-0.000769202
-0.00276541
-0.000843481
-0.00273847
-0.00091696
-0.00271386
-0.000989839
-0.00269154
-0.00106233
-0.00267195
-0.00113435
-0.00265612
-0.00264498
-0.00120535
4.79763e-06
-0.000753976
-1.76452e-06
-0.00177545
-2.87949e-05
-0.00240825
-7.62133e-05
-0.00275313
-0.000139426
-0.00290848
-0.000212933
-0.0029535
-0.000292206
-0.00294227
-0.000374212
-0.00290686
-0.000457212
-0.00286397
-0.00054034
-0.00282119
-0.000623203
-0.00278142
-0.000705616
-0.00274546
-0.000787447
-0.00271322
-0.000868555
-0.0026843
-0.000948814
-0.00265821
-0.0010282
-0.00263448
-0.00110687
-0.00261286
-0.00118515
-0.00259368
-0.00126302
-0.00257825
-0.00256784
-0.00134015
6.97329e-07
-0.000754674
-1.43505e-05
-0.0017604
-5.13366e-05
-0.00237127
-0.000108436
-0.00269603
-0.000180324
-0.0028366
-0.000261414
-0.00287241
-0.000347396
-0.00285629
-0.000435526
-0.00281873
-0.000524321
-0.00277517
-0.000613102
-0.00273241
-0.000701618
-0.00269291
-0.000789794
-0.00265728
-0.000877577
-0.00262544
-0.000964867
-0.00259701
-0.00105151
-0.00257157
-0.00113739
-0.0025486
-0.00122262
-0.00252763
-0.00130762
-0.00250867
-0.00139262
-0.00249325
-0.00248213
-0.00147834
-3.39624e-06
-0.000751277
-2.67054e-05
-0.00173709
-7.32193e-05
-0.00232475
-0.000139476
-0.00262978
-0.000219516
-0.00275655
-0.000307726
-0.0027842
-0.000400024
-0.00276399
-0.000493943
-0.00272481
-0.000588235
-0.00268088
-0.000682399
-0.00263824
-0.000776328
-0.00259898
-0.000870078
-0.00256353
-0.000963743
-0.00253177
-0.00105736
-0.0025034
-0.00115087
-0.00247806
-0.00124415
-0.00245533
-0.0013372
-0.00243458
-0.00143041
-0.00241547
-0.00152436
-0.0023993
-0.00238459
-0.0016219
-7.44444e-06
-0.000743833
-3.87404e-05
-0.0017058
-9.4324e-05
-0.00226917
-0.000169204
-0.0025549
-0.000256877
-0.00266888
-0.00035174
-0.00268934
-0.000449941
-0.00266579
-0.000549271
-0.00262548
-0.000648685
-0.00258147
-0.000747834
-0.00253909
-0.000846732
-0.00250008
-0.000945575
-0.00246469
-0.00104465
-0.0024327
-0.00114426
-0.00240378
-0.0012447
-0.00237762
-0.00134616
-0.00235386
-0.00144875
-0.00233199
-0.00155307
-0.00231115
-0.00166151
-0.00229086
-0.00228335
-0.00176275
-1.14005e-05
-0.000732432
-5.03601e-05
-0.00166684
-0.000114532
-0.002205
-0.0001975
-0.00247193
-0.000292294
-0.00257409
-0.000393348
-0.00258828
-0.000497036
-0.0025621
-0.000601373
-0.00252114
-0.000705481
-0.00247736
-0.00080911
-0.00243546
-0.000912331
-0.00239686
-0.00101538
-0.00236164
-0.00111862
-0.00232946
-0.00122255
-0.00229986
-0.00132781
-0.00227236
-0.00143527
-0.0022464
-0.0015458
-0.00222145
-0.00165975
-0.00219719
-0.00177808
-0.00217254
-0.00214008
-0.00192135
-1.52572e-05
-0.000717175
-6.15421e-05
-0.00162055
-0.000133816
-0.00213272
-0.000224346
-0.0023814
-0.000325761
-0.00247267
-0.000432559
-0.00248149
-0.000541324
-0.00245334
-0.000650276
-0.00241219
-0.000758667
-0.00236897
-0.000866308
-0.00232782
-0.000973264
-0.0022899
-0.0010797
-0.0022552
-0.00118583
-0.00222333
-0.0012919
-0.0021938
-0.00139814
-0.00216611
-0.00150479
-0.00213976
-0.00161189
-0.00211435
-0.00171969
-0.00208939
-0.00182891
-0.00206332
-0.00203247
-0.00193652
-1.89785e-05
-0.000698197
-7.22199e-05
-0.00156731
-0.000152102
-0.00205284
-0.000249679
-0.00228382
-0.000357236
-0.00236512
-0.00046935
-0.00236937
-0.00058281
-0.00233988
-0.000696013
-0.00229899
-0.000808329
-0.00225665
-0.000919623
-0.00221653
-0.00102997
-0.00217955
-0.00113953
-0.00214564
-0.00124846
-0.0021144
-0.00135689
-0.00208536
-0.00146494
-0.00205807
-0.00157261
-0.00203209
-0.00167989
-0.00200707
-0.00178673
-0.00198255
-0.0018924
-0.00195765
-0.00193153
-0.00199334
-2.2545e-05
-0.000675652
-8.23592e-05
-0.0015075
-0.00016936
-0.00196584
-0.000273485
-0.0021797
-0.000386728
-0.00225187
-0.000503759
-0.00225234
-0.000621554
-0.00222208
-0.000738673
-0.00218187
-0.00085458
-0.00214075
-0.000969173
-0.00210194
-0.00108253
-0.0020662
-0.00119476
-0.00203341
-0.00130599
-0.00200318
-0.00141628
-0.00197508
-0.00152563
-0.00194872
-0.00163398
-0.00192374
-0.00174118
-0.00189987
-0.00184696
-0.00187677
-0.00195063
-0.00185398
-0.00183107
-0.00205109
-2.59416e-05
-0.00064971
-9.19362e-05
-0.0014415
-0.000185572
-0.0018722
-0.000295765
-0.0020695
-0.000414266
-0.00213337
-0.000535841
-0.00213076
-0.000657649
-0.00210027
-0.000778395
-0.00206112
-0.000897627
-0.00202151
-0.00101528
-0.00198428
-0.00113144
-0.00195004
-0.0012462
-0.00191865
-0.00135964
-0.00188973
-0.0014718
-0.00186291
-0.00158268
-0.00183784
-0.00169219
-0.00181423
-0.00180019
-0.00179186
-0.00190644
-0.00177052
-0.00201052
-0.0017499
-0.00172976
-0.00211184
-2.91566e-05
-0.000620554
-0.000100935
-0.00136972
-0.000200734
-0.0017724
-0.000316537
-0.0019537
-0.000439889
-0.00201002
-0.000565662
-0.00200499
-0.000691185
-0.00197475
-0.000815295
-0.00193701
-0.000937621
-0.00189919
-0.00105813
-0.00186377
-0.00117692
-0.00183126
-0.00129408
-0.00180149
-0.00140969
-0.00177412
-0.00152379
-0.00174881
-0.00163637
-0.00172527
-0.00174737
-0.00170324
-0.00185668
-0.00168254
-0.00196417
-0.00166303
-0.00206963
-0.00164444
-0.00162662
-0.00217276
-3.21814e-05
-0.000588372
-0.000109347
-0.00129256
-0.000214847
-0.0016669
-0.000335821
-0.00183273
-0.000463642
-0.0018822
-0.00059329
-0.00187534
-0.000722253
-0.00184579
-0.000849494
-0.00180977
-0.000974711
-0.00177397
-0.00109791
-0.00174057
-0.0012192
-0.00170997
-0.00133868
-0.001682
-0.00145645
-0.00165636
-0.00157254
-0.00163272
-0.00168698
-0.00161083
-0.00179974
-0.00159047
-0.00191079
-0.0015715
-0.00202005
-0.00155377
-0.00212744
-0.00153705
-0.00152126
-0.0022328
-3.50094e-05
-0.000553363
-0.000117166
-0.0012104
-0.000227919
-0.00155615
-0.000353642
-0.001707
-0.000485568
-0.00175027
-0.000618787
-0.00174212
-0.000750935
-0.00171364
-0.000881087
-0.00167962
-0.00100901
-0.00164605
-0.00113475
-0.00161483
-0.00125842
-0.0015863
-0.00138016
-0.00156027
-0.00150006
-0.00153646
-0.00161818
-0.00151459
-0.00173459
-0.00149442
-0.00184928
-0.00147578
-0.00196227
-0.00145851
-0.00207355
-0.00144249
-0.00218311
-0.00142749
-0.00141349
-0.00229089
-3.76354e-05
-0.000515727
-0.00012439
-0.00112364
-0.000239959
-0.00144058
-0.000370024
-0.00157694
-0.000505709
-0.00161459
-0.000642206
-0.00160563
-0.000777293
-0.00157855
-0.00091015
-0.00154676
-0.0010406
-0.00151559
-0.00116873
-0.0014867
-0.00129468
-0.00146035
-0.00141859
-0.00143636
-0.00154057
-0.00141447
-0.00166073
-0.00139443
-0.00177914
-0.00137602
-0.00189583
-0.00135908
-0.00201087
-0.00134348
-0.00212428
-0.00132908
-0.00223608
-0.00131568
-0.00130329
-0.00234628
-4.00554e-05
-0.000475672
-0.000131018
-0.00103268
-0.000250973
-0.00132063
-0.00038499
-0.00144292
-0.000524097
-0.00147548
-0.000663592
-0.00146613
-0.000801381
-0.00144076
-0.000936736
-0.00141141
-0.00106954
-0.00138279
-0.00119991
-0.00135633
-0.00132801
-0.00133225
-0.00145399
-0.00131038
-0.001578
-0.00129046
-0.00170015
-0.00127228
-0.00182053
-0.00125564
-0.00193922
-0.00124038
-0.0020563
-0.0012264
-0.00217183
-0.00121355
-0.00228585
-0.00120165
-0.00119074
-0.00239841
-4.22659e-05
-0.000433406
-0.000137047
-0.000937901
-0.000260971
-0.0011967
-0.000398556
-0.00130534
-0.00054076
-0.00133328
-0.000682977
-0.00132391
-0.000823232
-0.00130051
-0.000960881
-0.00127376
-0.00109586
-0.00124781
-0.00122831
-0.00122388
-0.00135842
-0.00120215
-0.00148636
-0.00118244
-0.00161229
-0.00116453
-0.00173634
-0.00114823
-0.00185863
-0.00113335
-0.00197926
-0.00111976
-0.00209831
-0.00110735
-0.00221588
-0.00109598
-0.00233204
-0.0010855
-0.00107596
-0.00244682
-4.42639e-05
-0.000389142
-0.000142478
-0.000839687
-0.000269956
-0.00106923
-0.000410738
-0.00116455
-0.000555718
-0.0011883
-0.000700386
-0.00117925
-0.000842872
-0.00115802
-0.000982607
-0.00113403
-0.00111957
-0.00111084
-0.00125394
-0.00108952
-0.0013859
-0.00107018
-0.00151566
-0.00105268
-0.00164339
-0.00103681
-0.00176923
-0.00102239
-0.00189332
-0.00100926
-0.00201576
-0.000997309
-0.00213668
-0.000986428
-0.00225617
-0.000976496
-0.00237431
-0.000967366
-0.000959108
-0.00249116
-4.60462e-05
-0.000343096
-0.000147308
-0.000738425
-0.000277934
-0.0009386
-0.000421543
-0.00102095
-0.000568985
-0.00104086
-0.000715835
-0.0010324
-0.000860313
-0.00101354
-0.00100192
-0.000992418
-0.00114068
-0.000972086
-0.00127677
-0.000953426
-0.00141043
-0.000936529
-0.00154185
-0.000921256
-0.00167122
-0.000907433
-0.00179871
-0.000894899
-0.00192445
-0.000883518
-0.00204858
-0.000873181
-0.00217121
-0.000863795
-0.00229246
-0.000855251
-0.0024124
-0.000847418
-0.000840378
-0.00253113
-4.76102e-05
-0.000295486
-0.000151535
-0.0006345
-0.000284906
-0.000805228
-0.00043098
-0.000874872
-0.000580572
-0.000891265
-0.000729331
-0.000883637
-0.000875562
-0.000867312
-0.00101882
-0.000849159
-0.00115916
-0.000831743
-0.0012968
-0.000815791
-0.00143196
-0.000801367
-0.00156487
-0.000788348
-0.00169572
-0.000776583
-0.00182468
-0.000765934
-0.00195192
-0.000756285
-0.00207756
-0.000747542
-0.00220173
-0.000739622
-0.00232455
-0.000732429
-0.00244612
-0.000725852
-0.000719974
-0.00256652
-4.89531e-05
-0.000246533
-0.000155156
-0.000528297
-0.000290872
-0.000669513
-0.000439051
-0.000726693
-0.000590481
-0.000739835
-0.00074088
-0.000733239
-0.00088862
-0.000719572
-0.00103331
-0.000704472
-0.00117502
-0.000690027
-0.001314
-0.000676819
-0.00145047
-0.000664892
-0.00158468
-0.000654141
-0.00171682
-0.000644441
-0.00184708
-0.000635676
-0.00197562
-0.000627748
-0.00210258
-0.00062058
-0.0022281
-0.000614102
-0.00235229
-0.000608231
-0.00247527
-0.000602877
-0.000598117
-0.00259713
-5.00724e-05
-0.00019646
-0.000158169
-0.0004202
-0.000295831
-0.000531851
-0.000445757
-0.000576767
-0.000598717
-0.000586875
-0.000750481
-0.000581474
-0.000899483
-0.00057057
-0.00104537
-0.000558588
-0.00118824
-0.000547156
-0.00132834
-0.00053672
-0.00146592
-0.000527309
-0.00160122
-0.000518838
-0.00173446
-0.000511206
-0.00186581
-0.000504321
-0.00199545
-0.000498106
-0.00212354
-0.000492499
-0.0022502
-0.000487443
-0.00237556
-0.000482871
-0.00249972
-0.000478712
-0.000475035
-0.0026228
-5.09659e-05
-0.000145494
-0.000160572
-0.000310595
-0.000299782
-0.00039264
-0.0004511
-0.000425449
-0.000605278
-0.000432696
-0.000758134
-0.000428619
-0.000908146
-0.000420558
-0.00105499
-0.000411745
-0.00119879
-0.000403357
-0.0013398
-0.000395713
-0.00147827
-0.000388832
-0.00161446
-0.000382648
-0.00174858
-0.000377086
-0.00188082
-0.000372079
-0.00201136
-0.00036757
-0.00214035
-0.000363511
-0.00226793
-0.000359862
-0.00239423
-0.000356571
-0.00251935
-0.000353587
-0.000350965
-0.00264343
-5.16316e-05
-9.38628e-05
-0.00016236
-0.000199866
-0.000302724
-0.000252277
-0.000455077
-0.000273096
-0.000610164
-0.000277609
-0.000763836
-0.000274947
-0.000914604
-0.00026979
-0.00106217
-0.000264181
-0.00120667
-0.00025886
-0.00134835
-0.000254024
-0.00148751
-0.000249681
-0.00162436
-0.000245789
-0.00175915
-0.000242299
-0.00189206
-0.000239168
-0.00202327
-0.000236358
-0.00215295
-0.000233839
-0.00228122
-0.000231584
-0.00240823
-0.000229561
-0.00253408
-0.000227736
-0.000226149
-0.0026589
-5.20681e-05
-4.17948e-05
-0.000163533
-8.84007e-05
-0.000304653
-0.000111157
-0.000457687
-0.000120062
-0.000613373
-0.000121923
-0.000767583
-0.000120738
-0.000918851
-0.000118521
-0.00106689
-0.000116139
-0.00121185
-0.0001139
-0.001354
-0.000111881
-0.00149359
-0.000110083
-0.0016309
-0.000108486
-0.00176613
-0.000107068
-0.00189949
-0.00010581
-0.00203115
-0.000104695
-0.00216128
-0.00010371
-0.00229002
-0.000102843
-0.0024175
-0.000102078
-0.00254384
-0.000101401
-0.000100833
-0.00266915
-5.22741e-05
1.04794e-05
-0.000164089
2.34141e-05
-0.000305569
3.03238e-05
-0.00045893
3.3298e-05
-0.000614903
3.40504e-05
-0.000769373
3.37314e-05
-0.000920884
3.29898e-05
-0.00106916
3.21339e-05
-0.00121434
3.1286e-05
-0.00135671
3.04841e-05
-0.00149652
2.9735e-05
-0.00163405
2.90357e-05
-0.0017695
2.83815e-05
-0.00190307
2.77675e-05
-0.00203496
2.71897e-05
-0.00216531
2.66444e-05
-0.00229428
2.61285e-05
-0.002422
2.56389e-05
-0.00254857
2.51727e-05
2.4729e-05
-0.00267414
-5.22496e-05
6.2729e-05
-0.000164027
0.000135191
-0.000305472
0.000171769
-0.000458804
0.000186629
-0.000614754
0.000190001
-0.000769205
0.000188182
-0.0009207
0.000184484
-0.00106896
0.000180392
-0.00121413
0.000176458
-0.00135648
0.000172837
-0.00149629
0.000169541
-0.0016338
0.000166547
-0.00176924
0.000163821
-0.00190281
0.000161336
-0.00203468
0.000159065
-0.00216503
0.00015699
-0.00229399
0.000155091
-0.0024217
0.000153348
-0.00254827
0.000151739
0.000150283
-0.00267382
-5.19941e-05
0.000114723
-0.000163346
0.000246543
-0.000304361
0.000312783
-0.000457308
0.000339577
-0.000612925
0.000345618
-0.000767078
0.000342335
-0.000918297
0.000335704
-0.00106629
0.00032839
-0.00121122
0.000321378
-0.00135332
0.000314943
-0.00149289
0.000309106
-0.00163016
0.000303818
-0.00176536
0.000299023
-0.00189869
0.000294666
-0.00203033
0.000290702
-0.00216043
0.000287094
-0.00228915
0.000283808
-0.00241661
0.000280807
-0.00254292
0.000278049
0.000275574
-0.00266821
-5.1508e-05
0.000166231
-0.000162048
0.000357083
-0.000302234
0.00045297
-0.000454443
0.000491786
-0.000609416
0.00050059
-0.000762992
0.000495911
-0.000913678
0.000486391
-0.00106117
0.000475881
-0.0012056
0.000465809
-0.00134723
0.000456571
-0.00148632
0.0004482
-0.00162313
0.000440624
-0.00175787
0.00043376
-0.00189073
0.000427531
-0.0020219
0.00042187
-0.00215153
0.000416724
-0.00227977
0.000412045
-0.00240673
0.000407776
-0.00253254
0.00040386
0.000400349
-0.00265732
-5.07923e-05
0.000217023
-0.000160132
0.000466423
-0.000299095
0.000591932
-0.000450209
0.000642901
-0.000604225
0.000654607
-0.000756948
0.000648633
-0.000906845
0.000636288
-0.00105359
0.000622622
-0.00119729
0.000609515
-0.00133821
0.000597492
-0.00147661
0.000586597
-0.00161273
0.000576741
-0.00174678
0.000567811
-0.00187896
0.000559708
-0.00200943
0.000552345
-0.00213836
0.000545653
-0.00226589
0.00053957
-0.00239213
0.000534021
-0.0025172
0.00052893
0.000524364
-0.00264122
-4.98484e-05
0.000266872
-0.000157602
0.000574177
-0.000294942
0.000729272
-0.000444605
0.000792564
-0.000597355
0.000807356
-0.000748947
0.000800225
-0.0008978
0.000785141
-0.00104355
0.000768373
-0.0011863
0.000752266
-0.00132629
0.000737481
-0.00146377
0.000724079
-0.00159898
0.00071195
-0.00173213
0.000700959
-0.0018634
0.000690981
-0.00199297
0.00068191
-0.00212097
0.00067366
-0.00224756
0.000666158
-0.00237285
0.000659312
-0.00249695
0.000653026
0.000647376
-0.00261996
-4.86781e-05
0.00031555
-0.000154459
0.000679957
-0.000289778
0.000864591
-0.000437632
0.000940419
-0.000588805
0.000958529
-0.000738991
0.000950411
-0.000886549
0.000932699
-0.00103107
0.000912898
-0.00117264
0.000893835
-0.00131148
0.000876319
-0.00144783
0.00086043
-0.00158192
0.000846042
-0.00171396
0.000832995
-0.00184412
0.00082114
-0.00197256
0.000810353
-0.00209944
0.000800533
-0.00222487
0.000791592
-0.00234898
0.000783426
-0.00247188
0.00077592
0.000769151
-0.00259365
-4.72836e-05
0.000362833
-0.000150704
0.000783378
-0.000283602
0.000997489
-0.000429289
0.00108611
-0.000578572
0.00110781
-0.000727079
0.00109892
-0.000873093
0.00107871
-0.00101616
0.00105597
-0.00115633
0.001034
-0.0012938
0.00101379
-0.00142882
0.000995446
-0.00156159
0.000978816
-0.00169232
0.00096372
-0.00182117
0.000949988
-0.00194829
0.000937477
-0.00207383
0.000926069
-0.0021979
0.000915666
-0.00232063
0.000906153
-0.0024421
0.000897393
0.000889461
-0.00256241
-4.5667e-05
0.0004085
-0.000146342
0.000884053
-0.000276415
0.00112756
-0.000419572
0.00122926
-0.000566654
0.00125489
-0.000713209
0.00124547
-0.000857435
0.00122294
-0.00099882
0.00119735
-0.00113737
0.00117256
-0.00127329
0.00114971
-0.00140677
0.00112893
-0.00153804
0.00111008
-0.00166727
0.00109295
-0.00179462
0.00107734
-0.00192024
0.0010631
-0.00204425
0.00105008
-0.00216677
0.00103819
-0.00228791
0.00102729
-0.00240776
0.00101724
0.00100809
-0.00252639
-4.38311e-05
0.000452332
-0.000141373
0.000981594
-0.000268216
0.00125441
-0.000408477
0.00136952
-0.000553043
0.00139946
-0.000697374
0.0013898
-0.000839572
0.00136514
-0.000979053
0.00133683
-0.00111579
0.0013093
-0.00124994
0.00128386
-0.00138172
0.00126071
-0.0015113
0.00123967
-0.00163887
0.00122052
-0.00176456
0.00120303
-0.00188851
0.00118704
-0.00201083
0.0011724
-0.00213163
0.00115898
-0.002251
0.00114666
-0.00236902
0.00113526
0.00112483
-0.00248576
-4.17785e-05
0.00049411
-0.000135799
0.00107561
-0.000259001
0.00137761
-0.000395996
0.00150652
-0.00053773
0.00154119
-0.000679565
0.00153164
-0.000819495
0.00150507
-0.000956859
0.00147419
-0.00109158
0.00144402
-0.0012238
0.00141608
-0.00135369
0.0013906
-0.00148144
0.00136741
-0.00160719
0.00134627
-0.00173108
0.00132692
-0.00185322
0.00130918
-0.0019737
0.00129288
-0.00209262
0.00127791
-0.00221006
0.0012641
-0.0023261
0.00125129
0.00123949
-0.00244076
-3.9512e-05
0.000533622
-0.000129621
0.00116572
-0.000248766
0.00149675
-0.000382118
0.00163987
-0.000520696
0.00167977
-0.000659763
0.00167071
-0.000797189
0.00164249
-0.000932226
0.00160923
-0.00106475
0.00157654
-0.00119486
0.00154619
-0.00132272
0.00151846
-0.00144848
0.00149318
-0.0015723
0.00147008
-0.00169426
0.00144889
-0.00181448
0.0014294
-0.00193302
0.00141142
-0.00204995
0.00139484
-0.00216534
0.0013795
-0.00227925
0.00136519
0.00135192
-0.00239167
-3.70346e-05
0.000570657
-0.000122841
0.00125153
-0.000237504
0.00161142
-0.000366826
0.00176919
-0.000501921
0.00181487
-0.000637941
0.00180673
-0.000772627
0.00177718
-0.000905131
0.00174174
-0.00103527
0.00170668
-0.00116311
0.00167403
-0.0012888
0.00164415
-0.00141247
0.00161685
-0.00153425
0.00159185
-0.00165421
0.00156886
-0.00177243
0.00154762
-0.00188896
0.00152795
-0.00200384
0.00150972
-0.00211711
0.00149276
-0.00222878
0.00147687
0.00146199
-0.00233884
-3.43498e-05
0.000605007
-0.000115458
0.00133264
-0.000225207
0.00172117
-0.000350103
0.00189409
-0.000481375
0.00194614
-0.000614065
0.00193942
-0.00074577
0.00190888
-0.000875536
0.0018715
-0.00100312
0.00183426
-0.00112854
0.00179946
-0.00125193
0.00176754
-0.00137341
0.00173833
-0.00149308
0.00171151
-0.00161099
0.00168677
-0.0017272
0.00166383
-0.00184171
0.00164247
-0.00195454
0.00162254
-0.00206567
0.00160389
-0.00217508
0.00158628
0.00156962
-0.00228272
-3.14615e-05
0.000636468
-0.000107474
0.00140865
-0.000211865
0.00182556
-0.000331924
0.00201415
-0.000459021
0.00207324
-0.000588087
0.00206848
-0.000716565
0.00203736
-0.000843383
0.00199832
-0.000968225
0.0019591
-0.00109109
0.00192232
-0.00121207
0.00188852
-0.00133127
0.00185754
-0.00144879
0.00182903
-0.00156465
0.00180263
-0.00167888
0.00177805
-0.00179145
0.00175504
-0.00190231
0.0017334
-0.0020114
0.00171298
-0.00211864
0.00169352
0.00167484
-0.00222386
-2.83747e-05
0.000664843
-9.88907e-05
0.00147917
-0.000197469
0.00192414
-0.000312263
0.00212894
-0.000434817
0.00219579
-0.000559952
0.00219362
-0.000684943
0.00216235
-0.000808595
0.00212197
-0.000930514
0.00208102
-0.00105066
0.00204247
-0.00116912
0.00200698
-0.00128598
0.0019744
-0.00140132
0.00194436
-0.00151517
0.00191648
-0.00162752
0.0018904
-0.0017383
0.00186582
-0.00184742
0.00184252
-0.00195472
0.00182029
-0.00206001
0.0017988
0.00177782
-0.00216298
-2.50962e-05
0.000689939
-8.97131e-05
0.00154378
-0.00018201
0.00201643
-0.000291093
0.00223802
-0.000408717
0.00231342
-0.000529593
0.00231449
-0.000650823
0.00228358
-0.000771072
0.00224222
-0.000889866
0.00219981
-0.00100713
0.00215973
-0.00112293
0.00212278
-0.00123737
0.00208884
-0.00135052
0.00205751
-0.00146241
0.00202838
-0.00157304
0.00200103
-0.00168232
0.0019751
-0.00179011
0.00195031
-0.00189615
0.00192633
-0.00200004
0.00190269
0.00187894
-0.00210115
-2.16345e-05
0.000711573
-7.99502e-05
0.0016021
-0.000165485
0.00210197
-0.000268391
0.00234093
-0.000380673
0.0024257
-0.00049694
0.00243076
-0.000614108
0.00240075
-0.000730691
0.0023588
-0.000846126
0.00231525
-0.000960299
0.0022739
-0.00107327
0.00223575
-0.00118516
0.00220073
-0.00129607
0.00216842
-0.00140607
0.00213837
-0.00151515
0.00211011
-0.00162324
0.00208319
-0.00173019
0.00205727
-0.00183573
0.00203187
-0.00193916
0.00200612
0.00197916
-0.00203939
-1.80016e-05
0.000729575
-6.96173e-05
0.00165371
-0.000147899
0.00218025
-0.00024414
0.00243717
-0.000350643
0.0025322
-0.000461925
0.00254204
-0.000574704
0.00251353
-0.00068733
0.00247143
-0.000799143
0.00242706
-0.000909989
0.00238475
-0.00101994
0.0023457
-0.00112913
0.00230992
-0.00123773
0.00227702
-0.00134586
0.00224651
-0.00145362
0.00221787
-0.00156102
0.00219059
-0.00166803
0.00216428
-0.00177461
0.00213845
-0.00188002
0.00211153
0.00207982
-0.00198069
-1.42128e-05
0.000743788
-5.87384e-05
0.00169824
-0.000129266
0.00225078
-0.000218334
0.00252624
-0.000318595
0.00263246
-0.000424485
0.00264793
-0.000532515
0.00262156
-0.000640847
0.00257976
-0.000748703
0.00253492
-0.00085587
0.00249192
-0.000962403
0.00245223
-0.00106846
0.00241598
-0.00117424
0.0023828
-0.00127997
0.00235224
-0.00138589
0.00232379
-0.00149219
0.0022969
-0.00159894
0.00227103
-0.00170638
0.00224589
-0.00181526
0.0022204
0.0021871
-0.00192254
-1.02876e-05
0.000754075
-4.73476e-05
0.0017353
-0.000109618
0.00231305
-0.000190985
0.0026076
-0.000284516
0.00272599
-0.000384582
0.002748
-0.000487474
0.00272445
-0.000591148
0.00268344
-0.000694687
0.00263845
-0.000797816
0.00259505
-0.00090059
0.00255501
-0.00100324
0.00251863
-0.0011061
0.00248567
-0.00120967
0.0024558
-0.00131458
0.0024287
-0.0014217
0.00240401
-0.0015319
0.00238124
-0.00164555
0.00235954
-0.00176363
0.00233848
0.00233029
-0.00190682
-6.26298e-06
0.000760338
-3.55121e-05
0.00176455
-8.90273e-05
0.00236656
-0.000162155
0.00268073
-0.000248446
0.00281228
-0.000342231
0.00284178
-0.000439573
0.00282179
-0.000538193
0.00278206
-0.000637004
0.00273727
-0.00073563
0.00269367
-0.000834069
0.00265345
-0.000932508
0.00261706
-0.00103122
0.00258438
-0.00113053
0.0025551
-0.00123072
0.00252889
-0.00133203