1.275 	2.15223e-18 	-2.76991e-20 	0.0281132 	0.081532 	-4.76612e-22
1.825 	2.15223e-18 	-1.39322e-20 	0.215242 	-0.394087 	6.18735e-21
2.375 	2.15223e-18 	1.38775e-18 	-0.00364785 	-0.63232 	-1.97268e-21
2.925 	2.15223e-18 	2.78958e-18 	0.480958 	-0.281855 	-4.31412e-22
3.475 	2.15223e-18 	4.53849e-18 	0.864901 	0.339099 	-1.11168e-21
4.025 	2.15223e-18 	6.28755e-18 	0.843481 	0.54179 	3.12391e-23
4.575 	2.15223e-18 	6.30203e-18 	0.827988 	0.567263 	7.9676e-22
5.125 	2.15223e-18 	6.31666e-18 	0.930446 	0.299621 	-9.73551e-22
5.675 	2.15223e-18 	6.33144e-18 	1.0456 	-0.172708 	-4.10354e-22
6.225 	2.15223e-18 	4.61166e-18 	1.03328 	-0.352803 	-6.83552e-22
