/*--------------------------------*- C++ -*----------------------------------*\
  =========                 |
  \\      /  F ield         | OpenFOAM: The Open Source CFD Toolbox
   \\    /   O peration     | Website:  https://openfoam.org
    \\  /    A nd           | Version:  6.0
     \\/     M anipulation  |
\*---------------------------------------------------------------------------*/
FoamFile
{
    version     2.0;
    format      ascii;
    class       surfaceScalarField;
    location    "24.7";
    object      phi;
}
// * * * * * * * * * * * * * * * * * * * * * * * * * * * * * * * * * * * * * //

dimensions      [0 3 -1 0 0 0 0];

internalField   nonuniform List<scalar> 
15760
(
-2.77193e-06
2.80475e-06
-3.28209e-08
-9.81195e-06
7.08218e-06
-4.21619e-08
-2.00961e-05
1.02954e-05
-1.12182e-08
-3.27829e-05
1.26399e-05
4.69425e-08
-4.71939e-05
1.42888e-05
1.22209e-07
-6.27955e-05
1.53943e-05
2.07305e-07
-7.91812e-05
1.60884e-05
2.97251e-07
-9.60551e-05
1.64851e-05
3.88845e-07
-0.000113218
1.66824e-05
4.80194e-07
-0.000130552
1.67642e-05
5.70316e-07
-0.000148013
1.68023e-05
6.588e-07
-0.000165616
1.68574e-05
7.45563e-07
-0.000183427
1.69801e-05
8.30686e-07
-0.000201553
1.72116e-05
9.1429e-07
-0.000220133
1.75838e-05
9.96453e-07
-0.00023933
1.81198e-05
1.07719e-06
-0.000259321
1.88339e-05
1.15647e-06
-0.000280286
1.97316e-05
1.23422e-06
-0.000302409
2.08123e-05
1.31012e-06
2.20759e-05
1.38385e-06
-0.000325869
-2.76263e-06
5.56737e-06
-9.77666e-06
1.40962e-05
-2.00172e-05
2.05359e-05
-3.26409e-05
2.52636e-05
-4.69665e-05
2.86143e-05
-6.24565e-05
3.08843e-05
-7.87001e-05
3.2332e-05
-9.53962e-05
3.31812e-05
-0.000112339
3.36253e-05
-0.000129406
3.38308e-05
-0.000146544
3.39407e-05
-0.000163764
3.4077e-05
-0.000181125
3.43417e-05
-0.000198733
3.48188e-05
-0.000216722
3.55738e-05
-0.000235257
3.66548e-05
-0.000254516
3.80922e-05
-0.000274683
3.98989e-05
-0.000295946
4.20751e-05
4.46202e-05
-0.00031849
-2.74325e-06
8.31062e-06
-9.70297e-06
2.10559e-05
-1.98529e-05
3.06859e-05
-3.2346e-05
3.77567e-05
-4.6496e-05
4.27643e-05
-6.17587e-05
4.61471e-05
-7.77147e-05
4.8288e-05
-9.40526e-05
4.95191e-05
-0.000110555
5.01277e-05
-0.000127086
5.03618e-05
-0.000143581
5.04356e-05
-0.000160037
5.05327e-05
-0.000176504
5.08087e-05
-0.000193077
5.13923e-05
-0.00020989
5.23866e-05
-0.000227104
5.38684e-05
-0.0002449
5.58885e-05
-0.000263472
5.84709e-05
-0.000283016
6.16193e-05
6.53349e-05
-0.000303731
-2.71537e-06
1.1026e-05
-9.5954e-06
2.7936e-05
-1.96116e-05
4.0702e-05
-3.19121e-05
5.00572e-05
-4.58036e-05
5.66559e-05
-6.07331e-05
6.10766e-05
-7.62691e-05
6.3824e-05
-9.20855e-05
6.53356e-05
-0.000107948
6.59901e-05
-0.000123702
6.61156e-05
-0.000139263
6.59965e-05
-0.000154609
6.58788e-05
-0.000169774
6.59733e-05
-0.000184839
6.64579e-05
-0.00019993
6.74777e-05
-0.000215207
6.91447e-05
-0.000230855
7.15365e-05
-0.000247079
7.4695e-05
-0.000264093
7.86332e-05
8.33569e-05
-0.000282115
-2.68092e-06
1.37069e-05
-9.45954e-06
3.47146e-05
-1.93037e-05
5.05462e-05
-3.1356e-05
6.21095e-05
-4.49154e-05
7.02152e-05
-5.9418e-05
7.55792e-05
-7.44184e-05
7.88244e-05
-8.95726e-05
8.04898e-05
-0.000104625
8.10422e-05
-0.000119396
8.08866e-05
-0.000133775
8.03758e-05
-0.000147715
7.98184e-05
-0.000161224
7.94827e-05
-0.000174366
7.95999e-05
-0.000187252
8.03638e-05
-0.000200037
8.19301e-05
-0.000212914
8.44131e-05
-0.000226102
8.78826e-05
-0.000239839
9.23704e-05
9.78932e-05
-0.000254375
-2.64182e-06
1.63487e-05
-9.30051e-06
4.13733e-05
-1.89387e-05
6.01844e-05
-3.06928e-05
7.38636e-05
-4.38543e-05
8.33767e-05
-5.78484e-05
8.95734e-05
-7.22149e-05
9.31908e-05
-8.65901e-05
9.4865e-05
-0.000100693
9.51454e-05
-0.000114316
9.45096e-05
-0.000127316
9.3376e-05
-0.000139612
9.2114e-05
-0.00015118
9.1051e-05
-0.000162056
9.04756e-05
-0.000172331
9.06386e-05
-0.000182151
9.17498e-05
-0.000191711
9.39739e-05
-0.000201252
9.74232e-05
-0.000211045
0.000102163
0.000108234
-0.000221385
-2.59936e-06
1.89481e-05
-9.12141e-06
4.78953e-05
-1.85214e-05
6.95844e-05
-2.99301e-05
8.52723e-05
-4.26321e-05
9.60787e-05
-5.60437e-05
0.000102985
-6.96906e-05
0.000106838
-8.31896e-05
0.000108364
-9.6234e-05
0.00010819
-0.000108583
0.000106859
-0.000120058
0.00010485
-0.000130534
0.00010259
-0.000139949
0.000100465
-0.000148298
9.8825e-05
-0.000155643
9.7984e-05
-0.000162113
9.82198e-05
-0.000167904
9.97643e-05
-0.000173274
0.000102794
-0.000178541
0.00010743
0.000113756
-0.000184063
-2.55381e-06
2.15019e-05
-8.92161e-06
5.42631e-05
-1.80491e-05
7.87119e-05
-2.90617e-05
9.62849e-05
-4.124e-05
0.000108257
-5.39936e-05
0.000115739
-6.68375e-05
0.000119682
-7.93716e-05
0.000120898
-9.12643e-05
0.000120083
-0.000102243
0.000117837
-0.000112086
0.000114693
-0.000120623
0.000111128
-0.000127741
0.000107584
-0.000133386
0.00010447
-0.000137576
0.000102173
-0.000140408
0.000101052
-0.000142069
0.000101426
-0.000142838
0.000103562
-0.000143081
0.000107673
0.00011392
-0.000143245
-2.50397e-06
2.40059e-05
-8.6956e-06
6.04547e-05
-1.75084e-05
8.75246e-05
-2.80634e-05
0.00010684
-3.96398e-05
0.000119833
-5.16451e-05
0.000127744
-6.35885e-05
0.000131625
-7.50577e-05
0.000132367
-8.57011e-05
0.000130726
-9.52155e-05
0.000127352
-0.00010334
0.000122817
-0.000109853
0.000117642
-0.000114584
0.000112314
-0.000117415
0.000107301
-0.000118305
0.000103063
-0.000117302
0.00010005
-0.000114569
9.86921e-05
-0.000110391
9.93844e-05
-0.000105192
0.000102475
0.000108256
-9.95285e-05
-2.44707e-06
2.64529e-05
-8.43232e-06
6.644e-05
-1.6874e-05
9.59663e-05
-2.68892e-05
0.000116855
-3.77586e-05
0.000130703
-4.88924e-05
0.000138878
-5.98001e-05
0.000142533
-7.00649e-05
0.000142632
-7.93225e-05
0.000139984
-8.72469e-05
0.000135276
-9.35416e-05
0.000129112
-9.79381e-05
0.000122039
-0.000100201
0.000114577
-0.000100143
0.000107243
-9.76433e-05
0.000100564
-9.26809e-05
9.50872e-05
-8.5365e-05
9.13761e-05
-7.59709e-05
8.99903e-05
-6.49725e-05
9.14763e-05
9.63416e-05
-5.30584e-05
-2.37889e-06
2.88318e-05
-8.1155e-06
7.21766e-05
-1.61088e-05
0.00010396
-2.54712e-05
0.000126218
-3.54863e-05
0.000140718
-4.55714e-05
0.000148963
-5.52427e-05
0.000152204
-6.40873e-05
0.000151477
-7.17385e-05
0.000147635
-7.7859e-05
0.000141397
-8.21283e-05
0.000133381
-8.42386e-05
0.000124149
-8.38973e-05
0.000114236
-8.08407e-05
0.000104186
-7.48589e-05
9.45817e-05
-6.58339e-05
8.60622e-05
-5.37907e-05
7.9333e-05
-3.89581e-05
7.51577e-05
-2.18379e-05
7.43562e-05
7.77702e-05
-3.26654e-06
-2.29424e-06
3.1126e-05
-7.72496e-06
7.76074e-05
-1.51661e-05
0.000111401
-2.37222e-05
0.000134774
-3.2679e-05
0.000149675
-4.14623e-05
0.000157746
-4.95998e-05
0.000160342
-5.669e-05
0.000158567
-6.23752e-05
0.00015332
-6.6321e-05
0.000145342
-6.82004e-05
0.000135261
-6.7684e-05
0.000123633
-6.44384e-05
0.00011099
-5.81345e-05
9.78822e-05
-4.84706e-05
8.49178e-05
-3.52152e-05
7.28068e-05
-1.82731e-05
6.23908e-05
2.2236e-06
5.4661e-05
2.57917e-05
5.07881e-05
5.21079e-05
5.1454e-05
-2.18769e-06
3.33137e-05
-7.23881e-06
8.26585e-05
-1.39939e-05
0.000118156
-2.15424e-05
0.000142322
-2.91675e-05
0.0001573
-3.63007e-05
0.000164879
-4.24812e-05
0.000166522
-4.73227e-05
0.000163408
-5.04849e-05
0.000156482
-5.16508e-05
0.000146508
-5.0507e-05
0.000134117
-4.67296e-05
0.000119855
-3.99744e-05
0.000104235
-2.98765e-05
8.77844e-05
-1.60643e-05
7.11055e-05
1.80384e-06
5.49387e-05
2.39674e-05
4.02273e-05
5.0447e-05
2.81814e-05
8.08556e-05
2.03795e-05
1.884e-05
0.000114123
-2.05449e-06
3.53682e-05
-6.63609e-06
8.72401e-05
-1.25397e-05
0.000124059
-1.8828e-05
0.00014861
-2.47711e-05
0.000163243
-2.97968e-05
0.000169905
-3.34489e-05
0.000170174
-3.53524e-05
0.000165312
-3.5186e-05
0.000156316
-3.26582e-05
0.00014398
-2.7488e-05
0.000128947
-1.93863e-05
0.000111754
-8.04046e-06
9.28892e-05
6.89806e-06
7.28458e-05
2.58163e-05
5.21872e-05
4.91214e-05
3.16336e-05
7.71833e-05
1.21653e-05
0.000110213
-4.84867e-06
0.000148022
-1.7429e-05
-2.27019e-05
0.000189564
-1.89129e-06
3.72595e-05
-5.89915e-06
9.12479e-05
-1.07558e-05
0.000128916
-1.54803e-05
0.000153335
-1.93124e-05
0.000167075
-2.16595e-05
0.000172252
-2.20535e-05
0.000170568
-2.01162e-05
0.000163375
-1.55343e-05
0.000151734
-8.0384e-06
0.000136485
2.61316e-06
0.000118295
1.66511e-05
9.77156e-05
3.43129e-05
7.52274e-05
5.58624e-05
5.12963e-05
8.16113e-05
2.64384e-05
0.00011193
1.31483e-06
0.000147231
-2.31354e-05
0.000187887
-4.55045e-05
0.000233992
-6.3534e-05
-7.34371e-05
0.000284727
-1.6965e-06
3.8956e-05
-5.01479e-06
9.45662e-05
-8.60217e-06
0.000132503
-1.14117e-05
0.000156145
-1.26297e-05
0.000168293
-1.16182e-05
0.00017124
-7.87076e-06
0.000166821
-9.79288e-07
0.000156483
9.38763e-06
0.000141367
2.34988e-05
0.000122373
4.15698e-05
0.000100224
6.37703e-05
7.5515e-05
9.02349e-05
4.87629e-05
0.000121079
2.04518e-05
0.000156429
-8.9115e-06
0.000196459
-3.87146e-05
0.000241428
-6.8105e-05
0.000291699
-9.57752e-05
0.000347623
-0.000119459
-0.000134644
0.00040883
-1.46995e-06
4.0426e-05
-3.97341e-06
9.70697e-05
-6.04545e-06
0.000134575
-6.54641e-06
0.000156646
-4.5806e-06
0.000166327
5.66152e-07
0.000166094
9.47334e-06
0.000157914
2.26169e-05
0.00014334
4.03866e-05
0.000123597
6.3092e-05
9.96679e-05
9.09608e-05
7.23552e-05
0.000124132
4.23438e-05
0.000162648
1.02472e-05
0.000206451
-2.3351e-05
0.000255394
-5.78555e-05
0.000309282
-9.26016e-05
0.000367931
-0.000126754
0.000431293
-0.000159137
0.000499612
-0.000187777
-0.000208142
0.00057311
-1.21167e-06
4.16376e-05
-2.76559e-06
9.86236e-05
-3.05311e-06
0.000134863
-8.12192e-07
0.000154405
4.96606e-06
0.000160549
1.51069e-05
0.000155953
3.03014e-05
0.000142719
5.11372e-05
0.000122504
7.8111e-05
9.66235e-05
0.000111628
6.6151e-05
0.000151988
3.19949e-05
0.000199364
-5.03188e-06
0.000253767
-4.41562e-05
0.000315013
-8.45971e-05
0.000382684
-0.000125526
0.000456107
-0.000166025
0.000534379
-0.000205026
0.000616467
-0.000241226
0.000701565
-0.000272875
-0.000297166
0.000790588
-9.19995e-07
4.25576e-05
-1.37668e-06
9.90803e-05
4.16379e-07
0.00013307
5.87425e-06
0.000148947
1.61506e-05
0.000150273
3.22158e-05
0.000139888
5.49097e-05
0.000120025
8.49723e-05
9.24412e-05
0.000123054
5.85422e-05
0.000169709
1.94957e-05
0.000225379
-2.36751e-05
0.000290359
-7.00114e-05
0.000364749
-0.000118546
0.000448389
-0.000168238
0.000540764
-0.0002179
0.000640866
-0.000266127
0.000747041
-0.000311201
0.000856784
-0.000350968
0.000966838
-0.000382929
-0.000408226
0.0010779
-5.89415e-07
4.31471e-05
2.19546e-07
9.82714e-05
4.42545e-06
0.000128864
1.36259e-05
0.000139746
2.91484e-05
0.00013475
5.21369e-05
0.000116899
8.3608e-05
8.85542e-05
0.00012448
5.15692e-05
0.000175582
7.44023e-06
0.000237648
-4.25708e-05
0.000311305
-9.73318e-05
0.000397048
-0.000155755
0.000495222
-0.00021672
0.000605981
-0.000278998
0.00072924
-0.000341159
0.000864548
-0.000401435
0.0010108
-0.000457456
0.00116531
-0.000505474
0.00132055
-0.000538173
-0.000540908
0.00145323
-2.09422e-07
4.33565e-05
2.06501e-06
9.59969e-05
9.06594e-06
0.000121863
2.25997e-05
0.000126212
4.41907e-05
0.000113159
7.51746e-05
8.59154e-05
0.000116753
4.69754e-05
0.00017002
-1.69742e-06
0.000235962
-5.85022e-05
0.000315456
-0.000122065
0.000409258
-0.000191133
0.000518007
-0.000264504
0.000642254
-0.000340967
0.000782535
-0.000419278
0.000939526
-0.00049815
0.00111435
-0.000576257
0.00130912
-0.000652232
0.00152827
-0.000724616
0.00178235
-0.000792258
-0.000852634
0.00209408
2.39036e-07
4.31175e-05
4.22398e-06
9.2012e-05
1.4468e-05
0.000111619
3.30067e-05
0.000107674
6.15757e-05
8.45902e-05
0.000101704
4.57868e-05
0.000154763
-6.08303e-06
0.000221974
-6.89084e-05
0.000304402
-0.00014093
0.000402933
-0.000220596
0.000518263
-0.000306463
0.000650891
-0.000397132
0.000801157
-0.000491233
0.000969308
-0.000587429
0.00115562
-0.000684466
0.00136063
-0.000781259
0.00158539
-0.000876995
0.00183204
-0.000971264
0.00210386
-0.00106408
-0.00114806
0.00239928
7.79085e-07
4.23384e-05
6.77442e-06
8.60166e-05
2.07872e-05
9.76063e-05
4.50945e-05
8.33664e-05
8.16436e-05
4.80411e-05
0.000132138
-4.70778e-06
0.000198067
-7.20121e-05
0.000280693
-0.000151534
0.000381016
-0.000241253
0.000499737
-0.000339318
0.000637228
-0.000443953
0.000793517
-0.000553422
0.000968316
-0.000666032
0.00116106
-0.000780177
0.001371
-0.000894406
0.00159726
-0.00100752
0.00183893
-0.00111866
0.00209507
-0.0012274
0.00236449
-0.0013335
-0.0014284
0.00264483
1.43866e-06
4.08997e-05
9.80572e-06
7.76496e-05
2.81955e-05
7.92165e-05
5.9125e-05
5.24369e-05
0.000104735
2.43153e-06
0.000166854
-6.68273e-05
0.000247001
-0.000152159
0.000346335
-0.000250868
0.000465599
-0.000360517
0.00060506
-0.000478779
0.000764474
-0.000603367
0.000943085
-0.000732033
0.00113966
-0.000862604
0.00135254
-0.000993057
0.00157974
-0.00112161
0.00181901
-0.00124679
0.00206786
-0.00136751
0.00232357
-0.00148311
0.00258324
-0.00159317
-0.00169032
0.00284515
2.24676e-06
3.86529e-05
1.34075e-05
6.64888e-05
3.68575e-05
5.57665e-05
7.53332e-05
1.39612e-05
0.000131122
-5.3357e-05
0.000206091
-0.000141796
0.000301645
-0.000247713
0.000418646
-0.000367869
0.000557329
-0.0004992
0.000717243
-0.000638693
0.00089724
-0.000783364
0.00109551
-0.000930303
0.00130968
-0.00107677
0.00153691
-0.00122029
0.00177407
-0.00135877
0.00201783
-0.00149055
0.00226477
-0.00161445
0.00251143
-0.00172977
0.00275445
-0.00183619
-0.00192836
0.00299249
3.2302e-06
3.54227e-05
1.76585e-05
5.20606e-05
4.69073e-05
2.65177e-05
9.38849e-05
-3.30165e-05
0.000160941
-0.000120413
0.000249843
-0.000230699
0.000361686
-0.000359555
0.000496778
-0.000502961
0.000654557
-0.000656979
0.000833564
-0.000817701
0.00103149
-0.000981295
0.00124532
-0.00114413
0.00147149
-0.00130294
0.00170611
-0.00145491
0.0019452
-0.00159786
0.00218485
-0.00173019
0.00242136
-0.00185097
0.00265138
-0.00195979
0.00287199
-0.0020568
-0.00213874
0.00308236
4.41078e-06
3.1012e-05
2.26166e-05
3.38547e-05
5.84265e-05
-9.29218e-06
0.000114838
-8.9428e-05
0.000194132
-0.000199707
0.000297781
-0.000334348
0.000426313
-0.000488087
0.000579185
-0.000655833
0.000754738
-0.000832532
0.00095025
-0.00101321
0.00116211
-0.00119315
0.00138607
-0.00136809
0.00161753
-0.0015344
0.00185191
-0.00168928
0.00208481
-0.00183076
0.00231236
-0.00195774
0.00253123
-0.00206984
0.00273878
-0.00216734
0.00293308
-0.0022511
-0.00231969
0.00311404
5.80338e-06
2.52086e-05
2.8312e-05
1.13462e-05
7.14283e-05
-5.24085e-05
0.000138114
-0.000156114
0.000230396
-0.000291988
0.000349199
-0.000453151
0.000494178
-0.000633067
0.000663627
-0.000825281
0.000854522
-0.00102343
0.00106273
-0.00122142
0.00128334
-0.00141376
0.00151105
-0.0015958
0.00174063
-0.00176398
0.00196722
-0.00191588
0.00218667
-0.00205021
0.00239565
-0.00216672
0.00259177
-0.00226595
0.00277349
-0.00234907
0.00294013
-0.00241773
-0.00247202
0.00309245
7.41499e-06
1.77936e-05
3.47419e-05
-1.59808e-05
8.58474e-05
-0.000103514
0.000163483
-0.00023375
0.000269179
-0.000397684
0.000403008
-0.000586981
0.000563427
-0.000793485
0.000747279
-0.00100913
0.00095001
-0.00122616
0.00116608
-0.00143749
0.00138947
-0.00163715
0.00161426
-0.00182059
0.00183503
-0.00198476
0.00204731
-0.00212815
0.00224767
-0.00225057
0.00243383
-0.00235288
0.0026046
-0.00243672
0.00275971
-0.00250418
0.00289963
-0.00255765
-0.00259834
0.00302595
9.24431e-06
8.54929e-06
4.18694e-05
-4.86059e-05
0.000101535
-0.000163179
0.000190558
-0.000322773
0.000309674
-0.000516801
0.000457772
-0.000735078
0.000631797
-0.000967511
0.000826945
-0.00120428
0.00103712
-0.00143633
0.00125557
-0.00165594
0.00147559
-0.00185718
0.00169114
-0.00203614
0.00189727
-0.00219088
0.00209035
-0.00232123
0.00226812
-0.00242834
0.00242959
-0.00251435
0.00257481
-0.00258194
0.00270465
-0.00263402
0.00282049
-0.00267349
-0.00270232
0.00292448
1.12817e-05
-2.73238e-06
4.9622e-05
-8.69462e-05
0.000118258
-0.000231816
0.000218796
-0.00042331
0.000350846
-0.00064885
0.000511772
-0.000896005
0.000696773
-0.00115251
0.000899337
-0.00140684
0.001112
-0.00164899
0.00132721
-0.00187115
0.00153813
-0.0020681
0.00173918
-0.00223719
0.00192639
-0.00237809
0.00209737
-0.00249221
0.00225123
-0.0025822
0.00238824
-0.00265136
0.00250955
-0.00270325
0.00261684
-0.00274131
0.00271206
-0.00276871
-0.00278785
0.00279758
1.35089e-05
-1.62412e-05
5.78915e-05
-0.000131329
0.000135704
-0.000309628
0.00024752
-0.000535126
0.000391475
-0.000792805
0.000563122
-0.00106765
0.000755788
-0.00134518
0.000961383
-0.00161244
0.00117145
-0.00185906
0.00137819
-0.00207789
0.00157521
-0.00226512
0.00175796
-0.00241994
0.00192378
-0.00254391
0.00207171
-0.00264014
0.00220215
-0.00271264
0.00231646
-0.00276567
0.00241655
-0.00280334
0.00250458
-0.00282934
0.00258274
-0.00284687
-0.00285843
0.00265333
1.58988e-05
-3.21401e-05
6.65351e-05
-0.000181965
0.000153483
-0.000396576
0.000275937
-0.00065758
0.000430227
-0.000947095
0.000609897
-0.00124732
0.000806447
-0.00154173
0.00101053
-0.00181652
0.00121322
-0.00206176
0.00140708
-0.00227175
0.00158672
-0.00244476
0.00174896
-0.00258218
0.00189261
-0.00268756
0.00201808
-0.00276561
0.00212686
-0.00282142
0.00222105
-0.00285987
0.00230302
-0.0028853
0.00237508
-0.0029014
0.00243937
-0.00291116
-0.00291701
0.00249794
1.84153e-05
-5.05554e-05
7.53768e-05
-0.000238927
0.000171144
-0.000492344
0.000303181
-0.000789616
0.000465736
-0.00110965
0.000650286
-0.00143187
0.000846734
-0.00173818
0.00104495
-0.00201474
0.00123618
-0.00225298
0.00141386
-0.00244944
0.00157402
-0.00260491
0.00171501
-0.00272317
0.00183707
-0.00280962
0.00194174
-0.00287028
0.00203127
-0.00291095
0.00210821
-0.00293681
0.00217505
-0.00295214
0.00223402
-0.00296037
0.00228705
-0.00296419
-0.00296581
0.00233586
2.1013e-05
-7.15684e-05
8.42116e-05
-0.000302125
0.00018819
-0.000596322
0.000328353
-0.000929779
0.000496697
-0.00127799
0.000682734
-0.00161791
0.000875174
-0.00193062
0.0010637
-0.00220327
0.00124027
-0.00242955
0.0013997
-0.00260887
0.00153957
-0.00274479
0.00165976
-0.00284336
0.00176171
-0.00291157
0.00184778
-0.00295635
0.00192069
-0.00298386
0.0019831
-0.00299922
0.00203741
-0.00300644
0.00208564
-0.0030086
0.00212942
-0.00300797
-0.0030065
0.0021701
2.3638e-05
-9.52064e-05
9.28116e-05
-0.000371299
0.000204101
-0.000707611
0.000350582
-0.00107626
0.00052196
-0.00144937
0.000706061
-0.00180201
0.000890928
-0.00211548
0.00106666
-0.00237899
0.00122642
-0.00258931
0.00136662
-0.00274907
0.00148645
-0.00286462
0.00158709
-0.00294399
0.0016709
-0.00299538
0.00174075
-0.0030262
0.00179951
-0.00304262
0.00184976
-0.00304946
0.00189365
-0.00305034
0.00193293
-0.00304787
0.00196891
-0.00304395
-0.0030402
0.00200261
2.62294e-05
-0.000121436
0.000100936
-0.000446005
0.000218362
-0.000825038
0.000369078
-0.00122698
0.000540613
-0.00162091
0.00071953
-0.00198093
0.000893797
-0.00228975
0.00105445
-0.00253965
0.00119622
-0.00273107
0.00131716
-0.00287002
0.00141793
-0.00296539
0.00150073
-0.0030268
0.00156853
-0.00306319
0.00162442
-0.00308208
0.00167119
-0.00308939
0.0017112
-0.00308947
0.00174631
-0.00308546
0.00177794
-0.0030795
0.00180713
-0.00307314
-0.0030677
0.00183463
2.87211e-05
-0.000150157
0.00010834
-0.000525625
0.000230493
-0.00094719
0.000383185
-0.00137967
0.000552034
-0.00178976
0.000722869
-0.00215176
0.000884156
-0.00245104
0.0010283
-0.00268379
0.00115171
-0.00285448
0.00125407
-0.00297237
0.00133719
-0.00304851
0.00140404
-0.00309364
0.00145788
-0.00311703
0.00150178
-0.00312599
0.00153834
-0.00312594
0.0015696
-0.00312074
0.00159712
-0.00311298
0.00162203
-0.00310441
0.00164511
-0.00309622
-0.00308949
0.0016669
3.10449e-05
-0.000181202
0.000114792
-0.000609372
0.000240077
-0.00107247
0.000392416
-0.00153201
0.000555914
-0.00195325
0.000716234
-0.00231208
0.000862843
-0.00259764
0.000989773
-0.00281073
0.00109514
-0.00295985
0.00118
-0.00305723
0.0012471
-0.00311561
0.00129984
-0.00314638
0.00134156
-0.00315874
0.00137513
-0.00315956
0.00140287
-0.00315368
0.0014265
-0.00314437
0.00144728
-0.00313375
0.00146607
-0.0031232
0.00148349
-0.00311364
-0.0031059
0.0014999
3.31331e-05
-0.000214335
0.00012008
-0.000696319
0.000246781
-0.00119918
0.000396475
-0.0016817
0.000552246
-0.00210902
0.000700144
-0.00245998
0.000831018
-0.00272852
0.000940645
-0.00292035
0.00102872
-0.00304793
0.00109743
-0.00312594
0.00115016
-0.00316833
0.00119048
-0.0031867
0.00122161
-0.00318988
0.00124618
-0.00318413
0.00126616
-0.00317366
0.00128296
-0.00316117
0.00129757
-0.00314836
0.00131066
-0.0031363
0.00132269
-0.00312567
-0.00311712
0.00133391
3.49256e-05
-0.000249261
0.000124031
-0.000785424
0.000250384
-0.00132553
0.000395277
-0.0018266
0.000541308
-0.00225506
0.000675406
-0.00259408
0.000790048
-0.00284316
0.000882739
-0.00301304
0.000954552
-0.00311974
0.00100854
-0.00317993
0.00104843
-0.00320822
0.00107779
-0.00321607
0.00109961
-0.00321171
0.00111619
-0.00320071
0.00112918
-0.00318664
0.0011397
-0.00317169
0.00114853
-0.00315719
0.00115618
-0.00314395
0.00116299
-0.00313248
-0.00312326
0.00116913
3.63592e-05
-0.00028562
0.000126495
-0.00087556
0.000250743
-0.00144978
0.000388878
-0.00196473
0.000523551
-0.00238973
0.000642955
-0.00271348
0.000741319
-0.00294152
0.000817756
-0.00308948
0.000874475
-0.00317646
0.000915113
-0.00322057
0.000943539
-0.00323665
0.000963164
-0.00323569
0.000976678
-0.00322522
0.000986033
-0.00321007
0.000992576
-0.00319318
0.000997204
-0.00317632
0.00100051
-0.0031605
0.00100288
-0.00314633
0.00100457
-0.00313417
-0.00312439
0.0010057
3.73887e-05
-0.000323008
0.000127387
-0.000965558
0.000247849
-0.00157024
0.000377526
-0.00209441
0.000499621
-0.00251183
0.000603866
-0.00281773
0.000686246
-0.0030239
0.0007473
-0.00315053
0.000790116
-0.00321927
0.000818679
-0.00324913
0.000836819
-0.00325479
0.000847697
-0.00324657
0.000853665
-0.00323119
0.000856355
-0.00321276
0.000856845
-0.00319367
0.000855832
-0.00317531
0.000853772
-0.00315844
0.000850964
-0.00314352
0.000847594
-0.0031308
-0.00312054
0.000843746
3.79769e-05
-0.000360985
0.000126659
-0.00105424
0.000241778
-0.00168536
0.000361581
-0.00221421
0.000470247
-0.00262049
0.000559215
-0.00290669
0.000626143
-0.00309083
0.000672778
-0.00319717
0.000702835
-0.00324933
0.000720447
-0.00326674
0.000729284
-0.00326363
0.000732192
-0.00324948
0.000731192
-0.00323019
0.000727617
-0.00320918
0.000722319
-0.00318838
0.000715834
-0.00316882
0.000708508
-0.00315111
0.000700575
-0.00313559
0.000692177
-0.0031224
-0.00311174
0.000683374
3.80981e-05
-0.000399084
0.000124313
-0.00114045
0.000232692
-0.00179374
0.00034149
-0.00232301
0.000436206
-0.00271521
0.000510048
-0.00298054
0.000562206
-0.00314299
0.000595398
-0.00323036
0.000613749
-0.00326768
0.000621378
-0.00327437
0.000621705
-0.00326395
0.000617247
-0.00324502
0.000609702
-0.00322264
0.000600148
-0.00319963
0.000589242
-0.00317747
0.000577391
-0.00315697
0.000564864
-0.00313858
0.000551839
-0.00312256
0.000538432
-0.00310899
-0.003098
0.000524689
3.7739e-05
-0.000436823
0.00012039
-0.00122311
0.000220813
-0.00189416
0.000317753
-0.00241995
0.000398275
-0.00279573
0.000457341
-0.0030396
0.000495488
-0.00318114
0.000516182
-0.00325106
0.000523763
-0.00327526
0.000522219
-0.00327283
0.000514669
-0.0032564
0.000503301
-0.00323365
0.000489521
-0.00320886
0.000474183
-0.00318429
0.00045779
-0.00316108
0.000440647
-0.00313983
0.000422956
-0.00312089
0.000404861
-0.00310447
0.000386459
-0.00309059
-0.00307933
0.00036779
3.68977e-05
-0.00047372
0.000114969
-0.00130118
0.000206413
-0.0019856
0.000290895
-0.00250443
0.000357205
-0.00286204
0.000401978
-0.00308438
0.0004269
-0.00320606
0.000435974
-0.00326013
0.000433599
-0.00327289
0.000423547
-0.00326278
0.000408617
-0.00324147
0.000390678
-0.00321571
0.000370883
-0.00318907
0.000349899
-0.00316331
0.000328101
-0.00313928
0.000305711
-0.00311744
0.000282882
-0.00309806
0.000259731
-0.00308132
0.000236345
-0.0030672
-0.00305575
0.000212764
3.55838e-05
-0.000509304
0.000108157
-0.00137375
0.000189794
-0.00206724
0.00026144
-0.00257608
0.000313696
-0.00291429
0.000344745
-0.00311542
0.000357217
-0.00321853
0.000355466
-0.00325838
0.00034383
-0.00326125
0.000325809
-0.00324476
0.000303877
-0.00321954
0.000279618
-0.00319145
0.000253963
-0.00316341
0.000227425
-0.00313677
0.000200276
-0.00311213
0.000172671
-0.00308983
0.000144723
-0.00307012
0.000116528
-0.00305312
8.81686e-05
-0.00303884
-0.00302727
5.96909e-05
3.38164e-05
-0.00054312
0.000100083
-0.00144002
0.00017127
-0.00213843
0.000229898
-0.0026347
0.00026839
-0.00295279
0.000286328
-0.00313336
0.000287088
-0.00321929
0.00027522
-0.00324651
0.000254906
-0.00324094
0.000229345
-0.0032192
0.000200701
-0.0031909
0.0001703
-0.00316105
0.00013889
-0.003132
0.000106858
-0.00310474
7.43945e-05
-0.00307967
4.1598e-05
-0.00305704
8.5453e-06
-0.00303706
-2.46835e-05
-0.00301989
-5.80041e-05
-0.00300552
-0.00299392
-9.13587e-05
3.16229e-05
-0.000574743
9.089e-05
-0.00149928
0.00015116
-0.0021987
0.000196747
-0.00268029
0.000221864
-0.0029779
0.000227319
-0.00313882
0.000217058
-0.00320903
0.000195692
-0.00322514
0.000167185
-0.00321243
0.000134424
-0.00318643
9.92813e-05
-0.00315575
6.28613e-05
-0.00312463
2.57617e-05
-0.0030949
-1.17279e-05
-0.00306725
-4.94849e-05
-0.00304191
-8.7458e-05
-0.00301906
-0.000125604
-0.00299892
-0.000163858
-0.00298164
-0.000202127
-0.00296726
-0.00295571
-0.000240336
2.90381e-05
-0.000603781
8.07329e-05
-0.00155098
0.000129777
-0.00224774
0.000162434
-0.00271295
0.000174628
-0.0029901
0.000168225
-0.00313241
0.000147578
-0.00318838
0.000117255
-0.00319482
8.09572e-05
-0.00317613
4.1261e-05
-0.00314674
-2.25967e-07
-0.00311427
-4.25864e-05
-0.00308227
-8.53424e-05
-0.00305215
-0.000128278
-0.00302431
-0.000171323
-0.00299886
-0.000214468
-0.00297592
-0.000257704
-0.00295568
-0.00030098
-0.00293836
-0.000344193
-0.00292404
-0.00291266
-0.000387241
2.61018e-05
-0.000629883
6.97693e-05
-0.00159465
0.000107421
-0.0022854
0.000127365
-0.00273289
0.000127133
-0.00298986
0.00010948
-0.00311476
7.90275e-05
-0.00315793
4.02169e-05
-0.00315601
-3.53875e-06
-0.00313238
-4.99629e-05
-0.00310031
-9.76848e-05
-0.00306654
-0.000145944
-0.00303401
-0.000194353
-0.00300374
-0.000242747
-0.00297592
-0.000291094
-0.00295052
-0.000339423
-0.00292759
-0.000387762
-0.00290734
-0.00043608
-0.00289004
-0.000484259
-0.00287586
-0.00286476
-0.000532159
2.28584e-05
-0.000652742
5.81574e-05
-0.00162995
8.43759e-05
-0.00231161
9.19094e-05
-0.00274042
7.9774e-05
-0.00297773
5.14593e-05
-0.00308645
1.17297e-05
-0.0031182
-3.51578e-05
-0.00310912
-8.60918e-05
-0.00308144
-0.00013908
-0.00304733
-0.000192963
-0.00301266
-0.000247108
-0.00297987
-0.000301195
-0.00294965
-0.00035509
-0.00292202
-0.000408781
-0.00289683
-0.00046233
-0.00287404
-0.000515808
-0.00285386
-0.000569217
-0.00283664
-0.000622427
-0.00282265
-0.00281195
-0.000675238
1.93548e-05
-0.000672096
4.60527e-05
-0.00165664
6.09059e-05
-0.00232647
5.63989e-05
-0.00273592
3.28998e-05
-0.00295423
-5.51478e-06
-0.00304803
-5.40349e-05
-0.00306968
-0.000108634
-0.00305452
-0.000166505
-0.00302357
-0.000225923
-0.00298791
-0.000285915
-0.00295267
-0.000345957
-0.00291982
-0.000405775
-0.00288983
-0.000465245
-0.00286255
-0.000524357
-0.00283771
-0.000583193
-0.0028152
-0.000641873
-0.00279518
-0.000700447
-0.00277806
-0.000758782
-0.00276432
-0.00275414
-0.000816587
1.564e-05
-0.000687736
3.36059e-05
-0.00167461
3.72566e-05
-0.00233012
2.11321e-05
-0.00271979
-1.31836e-05
-0.00291991
-6.11577e-05
-0.00300006
-0.000118016
-0.00301282
-0.000179992
-0.00299255
-0.000244581
-0.00295898
-0.000310306
-0.00292218
-0.000376365
-0.00288661
-0.00044233
-0.00285386
-0.000507958
-0.0028242
-0.00057312
-0.00279739
-0.000637782
-0.00277305
-0.000702021
-0.00275097
-0.000765996
-0.00273121
-0.000829823
-0.00271423
-0.000893384
-0.00270076
-0.00269128
-0.000956247
1.17636e-05
-0.0006995
2.09604e-05
-0.00168381
1.36528e-05
-0.00232281
-1.36246e-05
-0.00269252
-5.8206e-05
-0.00287533
-0.000115217
-0.00294305
-0.000179984
-0.00294806
-0.000249018
-0.00292351
-0.000320109
-0.00288789
-0.000392015
-0.00285028
-0.00046409
-0.00281454
-0.000535997
-0.00278195
-0.000607531
-0.00275267
-0.000678546
-0.00272638
-0.000748962
-0.00270264
-0.000818814
-0.00268111
-0.000888269
-0.00266175
-0.000957517
-0.00264499
-0.00102647
-0.0026318
-0.00262316
-0.0010946
7.77489e-06
-0.000707275
8.25109e-06
-0.00168428
-9.70156e-06
-0.00230486
-4.76348e-05
-0.00265458
-0.000101929
-0.00282104
-0.000167468
-0.00287751
-0.000239725
-0.0028758
-0.000315501
-0.00284774
-0.000392867
-0.00281053
-0.000470798
-0.00277235
-0.000548804
-0.00273653
-0.000626646
-0.00270411
-0.000704167
-0.00267515
-0.000781222
-0.00264932
-0.000857682
-0.00262618
-0.000933505
-0.00260529
-0.00100883
-0.00258643
-0.00108395
-0.00256987
-0.00115883
-0.00255691
-0.00254886
-0.00123313
3.72179e-06
-0.000710997
-4.39729e-06
-0.00167616
-3.26241e-05
-0.00227663
-8.06909e-05
-0.00260652
-0.000144144
-0.00275759
-0.000217708
-0.00280394
-0.000297039
-0.00279647
-0.000379227
-0.00276555
-0.000462609
-0.00272714
-0.000546367
-0.00268859
-0.000630162
-0.00265273
-0.000713867
-0.00262041
-0.000797411
-0.00259161
-0.000880691
-0.00256604
-0.000963558
-0.00254331
-0.0010459
-0.00252295
-0.00112781
-0.00250452
-0.00120967
-0.00248801
-0.0012917
-0.00247488
-0.00246608
-0.00137448
-3.50245e-07
-0.000710646
-1.6872e-05
-0.00165964
-5.4955e-05
-0.00223855
-0.000112615
-0.00254885
-0.000184674
-0.00268553
-0.000265762
-0.00272286
-0.000351743
-0.00271049
-0.000439984
-0.00267731
-0.000529072
-0.00263806
-0.00061838
-0.00259928
-0.00070772
-0.00256339
-0.000797101
-0.00253103
-0.00088659
-0.00250212
-0.000976218
-0.00247641
-0.00106593
-0.0024536
-0.00115562
-0.00243326
-0.00124528
-0.00241486
-0.00133526
-0.00239803
-0.00142613
-0.00238401
-0.0023716
-0.00152061
-4.39934e-06
-0.000706247
-2.90739e-05
-0.00163497
-7.65592e-05
-0.00219106
-0.000143262
-0.00248215
-0.000223375
-0.00260541
-0.00031149
-0.00263474
-0.000403682
-0.0026183
-0.000497582
-0.00258341
-0.000591994
-0.00254365
-0.000686456
-0.00250482
-0.00078091
-0.00246894
-0.000875502
-0.00243643
-0.00097048
-0.00240714
-0.00106613
-0.00238076
-0.00116274
-0.00235699
-0.00126049
-0.00233551
-0.00135952
-0.00231583
-0.00146037
-0.00229718
-0.0015653
-0.00227909
-0.0022729
-0.00166399
-8.37604e-06
-0.000697871
-4.0899e-05
-0.00160244
-9.73041e-05
-0.00213466
-0.000172495
-0.00240696
-0.000260123