1.22 	3.45254e-18 	-6.98323e-18 	0.118336 	-0.00964399 	-1.54972e-21
1.66 	3.45254e-18 	-6.96118e-18 	0.290735 	0.51217 	-1.32186e-22
2.1 	3.45254e-18 	-6.93894e-18 	0.0302338 	0.720012 	-2.19835e-21
2.54 	3.45254e-18 	-8.30431e-18 	0.465567 	0.326585 	1.40239e-22
2.98 	3.45254e-18 	-8.28171e-18 	0.820823 	-0.295675 	2.04756e-21
3.42 	3.45254e-18 	-6.87115e-18 	0.896921 	-0.540546 	1.59194e-21
3.86 	3.45254e-18 	-6.84819e-18 	0.805338 	-0.669354 	2.71145e-22
4.3 	3.45254e-18 	-6.82504e-18 	0.836853 	-0.526086 	8.92107e-22
4.74 	3.45254e-18 	-5.41391e-18 	0.935585 	-0.0871015 	-9.58072e-22
5.18 	3.45254e-18 	-2.61482e-18 	1.03769 	0.187528 	-6.7755e-22
5.62 	3.45254e-18 	-1.2033e-18 	1.02262 	0.442212 	3.13866e-22
6.06 	3.45254e-18 	-1.17937e-18 	0.960156 	0.575307 	7.00166e-22
6.5 	3.45254e-18 	-1.15524e-18 	0.957246 	0.448996 	-3.48054e-22
