/*--------------------------------*- C++ -*----------------------------------*\
  =========                 |
  \\      /  F ield         | OpenFOAM: The Open Source CFD Toolbox
   \\    /   O peration     | Website:  https://openfoam.org
    \\  /    A nd           | Version:  6.0
     \\/     M anipulation  |
\*---------------------------------------------------------------------------*/
FoamFile
{
    version     2.0;
    format      ascii;
    class       surfaceScalarField;
    location    "18";
    object      phi;
}
// * * * * * * * * * * * * * * * * * * * * * * * * * * * * * * * * * * * * * //

dimensions      [0 3 -1 0 0 0 0];

internalField   nonuniform List<scalar> 
24700
(
-1.53401e-06
1.77583e-06
-2.41827e-07
-5.54759e-06
4.6201e-06
-6.06518e-07
-1.1563e-05
6.89407e-06
-8.78657e-07
-1.91774e-05
8.69149e-06
-1.07706e-06
-2.80534e-05
1.00933e-05
-1.2173e-06
-3.7912e-05
1.1171e-05
-1.31243e-06
-4.85262e-05
1.19875e-05
-1.3733e-06
-5.97152e-05
1.25978e-05
-1.40877e-06
-7.13395e-05
1.30503e-05
-1.42603e-06
-8.32959e-05
1.33872e-05
-1.43082e-06
-9.55138e-05
1.36455e-05
-1.42762e-06
-0.000107951
1.38573e-05
-1.41986e-06
-0.000120592
1.40505e-05
-1.41009e-06
-0.000133441
1.42493e-05
-1.40014e-06
-0.000146524
1.44742e-05
-1.39126e-06
-0.000159882
1.47427e-05
-1.3842e-06
-0.000173572
1.50691e-05
-1.37932e-06
-0.00018766
1.54647e-05
-1.37669e-06
-0.000202222
1.59379e-05
-1.37611e-06
-0.000217339
1.64946e-05
-1.37718e-06
-0.000233098
1.7138e-05
-1.37935e-06
-0.000249585
1.78687e-05
-1.38191e-06
-0.000266885
1.86848e-05
-1.38408e-06
-0.000285083
1.9583e-05
-1.38495e-06
2.05622e-05
-1.38357e-06
-0.000304262
-1.52479e-06
3.30062e-06
-5.51499e-06
8.6103e-06
-1.14949e-05
1.2874e-05
-1.90627e-05
1.62593e-05
-2.7881e-05
1.89116e-05
-3.76704e-05
2.09604e-05
-4.82032e-05
2.25202e-05
-5.92972e-05
2.36919e-05
-7.08115e-05
2.45646e-05
-8.2641e-05
2.52167e-05
-9.47131e-05
2.57176e-05
-0.000106984
2.61278e-05
-0.000119434
2.65008e-05
-0.000132068
2.6883e-05
-0.000144908
2.73145e-05
-0.000157995
2.78297e-05
-0.000171383
2.8457e-05
-0.000185138
2.92195e-05
-0.000199335
3.0135e-05
-0.000214056
3.12157e-05
-0.000229387
3.24692e-05
-0.000245416
3.38978e-05
-0.00026223
3.54989e-05
-0.000279914
3.72671e-05
3.92008e-05
-0.000298553
-1.50807e-06
4.80869e-06
-5.45546e-06
1.25577e-05
-1.13699e-05
1.87884e-05
-1.88508e-05
2.37401e-05
-2.75609e-05
2.76217e-05
-3.72198e-05
3.06194e-05
-4.7598e-05
3.28984e-05
-5.85109e-05
3.46048e-05
-6.98144e-05
3.5868e-05
-8.13998e-05
3.68022e-05
-9.31906e-05
3.75084e-05
-0.000105138
3.80757e-05
-0.00011722
3.85826e-05
-0.000129435
3.90982e-05
-0.000141803
3.96824e-05
-0.00015436
4.03868e-05
-0.000167159
4.12551e-05
-0.000180262
4.23227e-05
-0.000193744
4.36173e-05
-0.000207688
4.51592e-05
-0.000222179
4.69607e-05
-0.000237308
4.90271e-05
-0.000253165
5.13557e-05
-0.000269837
5.39393e-05
5.67764e-05
-0.000287413
-1.48463e-06
6.29332e-06
-5.37153e-06
1.64446e-05
-1.11928e-05
2.46097e-05
-1.85496e-05
3.10969e-05
-2.71046e-05
3.61767e-05
-3.65759e-05
4.00907e-05
-4.67314e-05
4.30538e-05
-5.7383e-05
4.52564e-05
-6.83819e-05
4.6867e-05
-7.96145e-05
4.80348e-05
-9.0998e-05
4.8892e-05
-0.000102478
4.95557e-05
-0.000114025
5.01296e-05
-0.000125632
5.07051e-05
-0.000137312
5.13627e-05
-0.000149097
5.21718e-05
-0.000161034
5.3192e-05
-0.000173184
5.44727e-05
-0.00018562
5.6053e-05
-0.000198423
5.79621e-05
-0.000211682
6.02195e-05
-0.000225489
6.28343e-05
-0.000239938
6.58051e-05
-0.000255123
6.91241e-05
7.27897e-05
-0.000271136
-1.45558e-06
7.74891e-06
-5.2667e-06
2.02557e-05
-1.09706e-05
3.03136e-05
-1.81702e-05
3.82966e-05
-2.65281e-05
4.45346e-05
-3.57606e-05
4.93232e-05
-4.56323e-05
5.29255e-05
-5.59506e-05
5.55747e-05
-6.65612e-05
5.74775e-05
-7.73436e-05
5.88171e-05
-8.82075e-05
5.9756e-05
-9.90903e-05
6.04385e-05
-0.000109954
6.0993e-05
-0.000120782
6.15337e-05
-0.000131581
6.21615e-05
-0.000142374
6.2965e-05
-0.000153203
6.40207e-05
-0.000164124
6.53935e-05
-0.000175207
6.7136e-05
-0.000186534
6.92888e-05
-0.000198194
7.18802e-05
-0.000210286
7.49257e-05
-0.000222908
7.84272e-05
-0.000236161
8.23776e-05
8.67761e-05
-0.000250148
-1.42222e-06
9.17112e-06
-5.14511e-06
2.39786e-05
-1.07112e-05
3.58797e-05
-1.77254e-05
4.53108e-05
-2.585e-05
5.26592e-05
-3.47993e-05
5.82726e-05
-4.43345e-05
6.24607e-05
-5.42578e-05
6.5498e-05
-6.44082e-05
6.7628e-05
-7.46573e-05
6.90663e-05
-8.49059e-05
7.00046e-05
-9.50812e-05
7.06137e-05
-0.000105134
7.10461e-05
-0.000115039
7.14383e-05
-0.000124789
7.19121e-05
-0.000134401
7.2576e-05
-0.000143905
7.35252e-05
-0.000153353
7.48419e-05
-0.000162812
7.65946e-05
-0.000172361
7.88382e-05
-0.000182094
8.16131e-05
-0.000192113
8.49442e-05
-0.000202525
8.88395e-05
-0.000213443
9.32956e-05
9.83134e-05
-0.00022498
-1.38592e-06
1.0557e-05
-5.0111e-06
2.76038e-05
-1.0423e-05
4.12916e-05
-1.72285e-05
5.21163e-05
-2.50897e-05
6.05204e-05
-3.3719e-05
6.69019e-05
-4.28736e-05
7.16153e-05
-5.23506e-05
7.4975e-05
-6.19819e-05
7.72592e-05
-7.16303e-05
7.87147e-05
-8.11864e-05
7.95607e-05
-9.05656e-05
7.99929e-05
-9.97067e-05
8.01872e-05
-0.00010857
8.03018e-05
-0.000117138
8.04796e-05
-0.000125411
8.08495e-05
-0.000133413
8.15269e-05
-0.000141185
8.26137e-05
-0.000148788
8.41975e-05
-0.0001563
8.6351e-05
-0.000163818
8.91306e-05
-0.000171449
9.25752e-05
-0.000179313
9.67035e-05
-0.000187536
0.000101519
0.000107028
-0.00019625
-1.348e-06
1.1905e-05
-4.8688e-06
3.11246e-05
-1.01141e-05
4.65369e-05
-1.66923e-05
5.86945e-05
-2.42655e-05
6.80936e-05
-3.25443e-05
7.51807e-05
-4.12827e-05
8.03536e-05
-5.02723e-05
8.39646e-05
-5.9338e-05
8.6325e-05
-6.83336e-05
8.77103e-05
-7.71386e-05
8.83657e-05
-8.56558e-05
8.85101e-05
-9.38096e-05
8.8341e-05
-0.000101545
8.80375e-05
-0.000108829
8.77633e-05
-0.000115648
8.76681e-05
-0.00012201
8.78887e-05
-0.000127945
8.85491e-05
-0.000133507
8.97594e-05
-0.000138771
9.16146e-05
-0.000143833
9.41926e-05
-0.000148809
9.75519e-05
-0.000153834
0.000101728
-0.000159053
0.000106738
0.000112596
-0.000164621
-1.3096e-06
1.32146e-05
-4.72168e-06
3.45367e-05
-9.79082e-06
5.1606e-05
-1.61268e-05
6.50305e-05
-2.33918e-05
7.53585e-05
-3.1295e-05
8.3084e-05
-3.95878e-05
8.86464e-05
-4.80571e-05
9.24339e-05
-5.65212e-05
9.47891e-05
-6.48252e-05
9.60143e-05
-7.28374e-05
9.63779e-05
-8.04472e-05
9.61199e-05
-8.75638e-05
9.54576e-05
-9.41155e-05
9.45892e-05
-0.00010005
9.36979e-05
-0.000105336
9.29542e-05
-0.000109965
9.25174e-05
-0.000113951
9.25355e-05
-0.000117337
9.31448e-05
-0.00012019
9.44676e-05
-0.000122607
9.66101e-05
-0.000124713
9.96581e-05
-0.000126658
0.000103672
-0.000128611
0.000108691
0.000114746
-0.000130762
-1.27152e-06
1.44862e-05
-4.57209e-06
3.78373e-05
-9.4575e-06
5.64914e-05
-1.55384e-05
7.11114e-05
-2.2477e-05
8.22972e-05
-2.99823e-05
9.05893e-05
-3.78035e-05
9.64675e-05
-4.57243e-05
0.000100355
-5.35573e-05
0.000102622
-6.11398e-05
0.000103597
-6.83296e-05
0.000103568
-7.50031e-05
0.000102793
-8.10535e-05
0.000101508
-8.63909e-05
9.99265e-05
-9.09428e-05
9.82498e-05
-9.46566e-05
9.6668e-05
-9.75019e-05
9.53627e-05
-9.94741e-05
9.45077e-05
-0.000100598
9.42688e-05
-0.000100932
9.48014e-05
-0.000100569
9.62473e-05
-9.96403e-05
9.87294e-05
-9.83131e-05
0.000102345
-9.67888e-05
0.000107167
0.000113255
-9.52978e-05
-1.23416e-06
1.57203e-05
-4.42096e-06
4.10241e-05
-9.11539e-06
6.11859e-05
-1.49281e-05
7.69241e-05
-2.1522e-05
8.88911e-05
-2.86061e-05
9.76734e-05
-3.5929e-05
0.00010379
-4.32725e-05
0.000107698
-5.04455e-05
0.000109795
-5.72789e-05
0.00011043
-6.36217e-05
0.00010991
-6.93382e-05
0.00010851
-7.43063e-05
0.000106476
-7.84174e-05
0.000104038
-8.15776e-05
0.00010141
-8.37103e-05
9.88007e-05
-8.47597e-05
9.64121e-05
-8.46964e-05
9.44445e-05
-8.3523e-05
9.30955e-05
-8.12805e-05
9.25588e-05
-7.80537e-05
9.30206e-05
-7.39768e-05
9.46525e-05
-6.92349e-05
9.76032e-05
-6.40651e-05
0.000101997
0.000107942
-5.87512e-05
-1.19743e-06
1.69177e-05
-4.26759e-06
4.40942e-05
-8.76227e-06
6.56805e-05
-1.42913e-05
8.24532e-05
-2.05181e-05
9.51179e-05
-2.71527e-05
0.000104308
-3.39445e-05
0.000110582
-4.06751e-05
0.000114429
-4.71516e-05
0.000116272
-5.32013e-05
0.00011648
-5.86665e-05
0.000115376
-6.34018e-05
0.000113245
-6.72716e-05
0.000110346
-7.01497e-05
0.000106916
-7.19205e-05
0.000103181
-7.24818e-05
9.93619e-05
-7.17492e-05
9.56796e-05
-6.96633e-05
9.23586e-05
-6.61974e-05
8.96296e-05
-6.13674e-05
8.77288e-05
-5.52417e-05
8.68949e-05
-4.79509e-05
8.73617e-05
-3.96956e-05
8.93478e-05
-3.07511e-05
9.30526e-05
9.86577e-05
-2.14671e-05
-1.16077e-06
1.80785e-05
-4.10955e-06
4.7043e-05
-8.39233e-06
6.99633e-05
-1.36169e-05
8.76778e-05
-1.94468e-05
0.000100948
-2.55937e-05
0.000110455
-3.18091e-05
0.000116798
-3.78762e-05
0.000120496
-4.3603e-05
0.000121999
-4.88157e-05
0.000121692
-5.33533e-05
0.000119913
-5.7064e-05
0.000116956
-5.98018e-05
0.000113084
-6.14259e-05
0.00010854
-6.18006e-05
0.000103556
-6.07985e-05
9.83598e-05
-5.83049e-05
9.31859e-05
-5.42258e-05
8.82795e-05
-4.84984e-05
8.39021e-05
-4.1104e-05
8.03344e-05
-3.20836e-05
7.78745e-05
-2.1554e-05
7.68322e-05
-9.72362e-06
7.75174e-05
3.09372e-06
8.02352e-05
8.52803e-05
1.64711e-05
-1.12316e-06
1.92017e-05
-3.94287e-06
4.98627e-05
-7.99633e-06
7.40168e-05
-1.28876e-05
9.2569e-05
-1.82797e-05
0.00010634
-2.3886e-05
0.000116061
-2.94607e-05
0.000122372
-3.47906e-05
0.000125826
-3.96865e-05
0.000126894
-4.39768e-05
0.000125983
-4.75008e-05
0.000123437
-5.01045e-05
0.00011956
-5.16365e-05
0.000114616
-5.19457e-05
0.000108849
-5.0881e-05
0.000102491
-4.82924e-05
9.57712e-05
-4.4036e-05
8.89296e-05
-3.79815e-05
8.2225e-05
-3.00242e-05
7.59448e-05
-2.01012e-05
7.04114e-05
-8.21282e-06
6.59861e-05
5.5526e-06
6.30667e-05
2.09921e-05
6.2078e-05
3.77594e-05
6.34679e-05
6.76979e-05
5.53418e-05
-1.08324e-06
2.02849e-05
-3.76227e-06
5.25418e-05
-7.56217e-06
7.78167e-05
-1.20809e-05
9.70878e-05
-1.69797e-05
0.000111239
-2.19727e-05
0.000121054
-2.68174e-05
0.000127217
-3.13043e-05
0.000130313
-3.52494e-05
0.000130839
-3.84853e-05
0.000129219
-4.08558e-05
0.000125808
-4.22093e-05
0.000120913
-4.23945e-05
0.000114801
-4.12571e-05
0.000107712
-3.86369e-05
9.98707e-05
-3.43686e-05
9.15029e-05
-2.82841e-05
8.2845e-05
-2.0219e-05
7.41599e-05
-1.00248e-05
6.57506e-05
2.41286e-06
5.79737e-05
1.71479e-05
5.12511e-05
3.41395e-05
4.60752e-05
5.32101e-05
4.30073e-05
7.39965e-05
4.26815e-05
4.57968e-05
9.58976e-05
-1.03945e-06
2.13244e-05
-3.56163e-06
5.50639e-05
-7.07567e-06
8.13307e-05
-1.11705e-05
0.000101183
-1.55029e-05
0.000115571
-1.97866e-05
0.000125338
-2.37806e-05
0.000131211
-2.72796e-05
0.000133812
-3.01044e-05
0.000133664
-3.20942e-05
0.000131208
-3.30994e-05
0.000126813
-3.29755e-05
0.000120789
-3.15776e-05
0.000113403
-2.87556e-05
0.000104889
-2.43501e-05
9.54652e-05
-1.81908e-05
8.53436e-05
-1.00958e-05
7.47501e-05
1.24033e-07
6.39401e-05
1.26561e-05
5.32185e-05
2.76681e-05
4.29618e-05
4.52784e-05
3.36408e-05
6.55135e-05
2.58401e-05
8.82491e-05
2.02717e-05
0.000113132
1.77986e-05
1.94456e-05
0.000139483
-9.90196e-07
2.23146e-05
-3.33449e-06
5.74082e-05
-6.52165e-06
8.45179e-05
-1.01276e-05
0.000104788
-1.38014e-05
0.000119245
-1.72531e-05
0.00012879
-2.0241e-05
0.000134199
-2.25616e-05
0.000136132
-2.40394e-05
0.000135142
-2.45197e-05
0.000131689
-2.38608e-05
0.000126154
-2.1928e-05
0.000118856
-1.85878e-05
0.000110063
-1.37022e-05
0.000100004
-7.12382e-06
8.88868e-05
1.30905e-06
7.69107e-05
1.17755e-05
6.42836e-05
2.44728e-05
5.12428e-05
3.96117e-05
3.80795e-05
5.74036e-05
2.51699e-05
7.80326e-05
1.30118e-05
0.000101608
2.26454e-06
0.000128091
-6.21112e-06
0.00015718
-1.129e-05
-1.15223e-05
0.000188148
-9.3399e-07
2.32486e-05
-3.07452e-06
5.95487e-05
-5.88486e-06
8.73282e-05
-8.92301e-06
0.000107827
-1.18258e-05
0.000122148
-1.42951e-05
0.000131259
-1.60842e-05
0.000135988
-1.69873e-05
0.000137035
-1.68292e-05
0.000134984
-1.54582e-05
0.000130318
-1.27387e-05
0.000123435
-8.54594e-06
0.000114664
-2.76036e-06
0.000104277
4.73774e-06
9.25058e-05
1.40739e-05
7.95506e-05
2.53855e-05
6.5599e-05
3.88284e-05
5.08407e-05
5.45822e-05
3.5489e-05
7.28533e-05
1.98084e-05
9.38708e-05
4.15243e-06
0.000117868
-1.09851e-05
0.000145038
-2.49057e-05
0.000175455
-3.66278e-05
0.000208924
-4.4759e-05
-4.73302e-05
0.000244732
-8.69566e-07
2.41181e-05
-2.77589e-06
6.14551e-05
-5.15076e-06
8.97031e-05
-7.52842e-06
0.000110204
-9.5277e-06
0.000124147
-1.08363e-05
0.000132567
-1.11967e-05
0.000136349
-1.03945e-05
0.000136233
-8.24869e-06
0.000132838
-4.60445e-06
0.000126673
6.72741e-07
0.000118157
7.70173e-06
0.000107635
1.65898e-05
9.53893e-05
2.74366e-05
8.1659e-05
4.0339e-05
6.66482e-05
5.53969e-05
5.05411e-05
7.27211e-05
3.35166e-05
9.24423e-05
1.57678e-05
0.000114722
-2.47168e-06
0.000139762
-2.08873e-05
0.0001678
-3.90228e-05
0.000199086
-5.61919e-05
0.000233813
-7.13553e-05
0.000271954
-8.28998e-05
-8.82861e-05
0.00031291
-7.95906e-07
2.4914e-05
-2.43337e-06
6.30925e-05
-4.30578e-06
9.15755e-05
-5.91699e-06
0.000111815
-6.86092e-06
0.000125091
-6.80416e-06
0.000132511
-5.47065e-06
0.000135015
-2.62932e-06
0.000133392
1.91533e-06
0.000128294
8.32998e-06
0.000120259
1.67572e-05
0.00010973
2.73182e-05
9.70737e-05
4.01151e-05
8.25924e-05
5.52321e-05
6.6542e-05
7.27376e-05
4.91428e-05
9.26871e-05
3.05916e-05
0.00011513
1.10741e-05
0.000140117
-9.21957e-06
0.000167719
-3.00738e-05
0.000198044
-5.12123e-05
0.000231259
-7.22375e-05
0.000267597
-9.253e-05
0.00030733
-0.000111089
0.000350636
-0.000126205
-0.000134821
0.000397171
-7.12167e-07
2.56262e-05
-2.0421e-06
6.44225e-05
-3.33708e-06
9.28705e-05
-4.06313e-06
0.000112542
-3.78174e-06
0.00012481
-2.13032e-06
0.000130859
1.19449e-06
0.00013169
6.4499e-06
0.000128136
1.38564e-05
0.000120887
2.36037e-05
0.000110511
3.58546e-05
9.74795e-05
5.07453e-05
8.2183e-05
6.83852e-05
6.49524e-05
8.8855e-05
4.60722e-05
0.000112204
2.57939e-05
0.000138448
4.3475e-06
0.00016757
-1.80481e-05
0.000199525
-4.11741e-05
0.000234249
-6.47984e-05
0.000271688
-8.86514e-05
0.000311832
-0.000112381
0.000354764
-0.000135462
0.000400709
-0.000157034
0.000450013
-0.000175509
-0.00018753
0.000502721
-6.17494e-07
2.62437e-05
-1.5971e-06
6.54021e-05
-2.23154e-06
9.35049e-05
-1.94115e-06
0.000112251
-2.46989e-07
0.000123115
3.25121e-06
0.000127361
8.89339e-06
0.000126048
1.69731e-05
0.000120057
2.7747e-05
0.000110113
4.14405e-05
9.68179e-05
5.82498e-05
8.06702e-05
7.83414e-05
6.20914e-05
0.000101849
4.14449e-05
0.000128868
1.90536e-05
0.000159447
-4.78536e-06
0.000193582
-2.97878e-05
0.000231206
-5.56719e-05
0.000272181
-8.21493e-05
0.000316299
-0.000108916
0.000363291
-0.000135643
0.000412862
-0.000161952
0.000464763
-0.000187363
0.000518916
-0.000211187
0.000575596
-0.000232189
-0.000247255
0.000635321
-5.1075e-07
2.67544e-05
-1.09242e-06
6.59837e-05
-9.74288e-07
9.33868e-05
4.77037e-07
0.0001108
3.78898e-06
0.000119804
9.40798e-06
0.000121742
1.77197e-05
0.000117736
2.90637e-05
0.000108713
4.37437e-05
9.54332e-05
6.20321e-05
7.85295e-05
8.41719e-05
5.85304e-05
0.000110375
3.58886e-05
0.000140816
1.1004e-05
0.000175625
-1.57564e-05
0.000214881
-4.40405e-05
0.000258588
-7.34949e-05
0.000306667
-0.000103751
0.000358931
-0.000134413
0.000415059
-0.000165045
0.000474578
-0.000195162
0.000536853
-0.000224227
0.000601126
-0.000251636
0.000666642
-0.000276703
0.000733029
-0.000298575
-0.00031571
0.000801483
-3.90202e-07
2.71447e-05
-5.20248e-07
6.61138e-05
4.53032e-07
9.24135e-05
3.22465e-06
0.000108028
8.37826e-06
0.00011465
1.64144e-05
0.000113706
2.77724e-05
0.000106378
4.28467e-05
9.36384e-05
6.19959e-05
7.6284e-05
8.55485e-05
5.49769e-05
0.000113803
3.02755e-05
0.000147028
2.66434e-06
0.000185451
-2.74197e-05
0.00022926
-5.95646e-05
0.000278582
-9.33626e-05
0.000333477
-0.00012839
0.000393912
-0.000164187
0.000459736
-0.000200237
0.000530632
-0.000235941
0.000606054
-0.000270584
0.000685137
-0.000303311
0.000766599
-0.000333097
0.00084866
-0.000358764
0.000929369
-0.000379284
-0.000396937
0.0010106
-2.53219e-07
2.73979e-05
1.29969e-07
6.57306e-05
2.0739e-06
9.04696e-05
6.3426e-06
0.000103759
1.3583e-05
0.00010741
2.43564e-05
0.000102932
3.91627e-05
9.15721e-05
5.84561e-05
7.43449e-05
8.26553e-05
5.20848e-05
0.000112148
2.54845e-05
0.00014729
-4.86682e-06
0.000188406
-3.84515e-05
0.000235782
-7.47956e-05
0.000289662
-0.000113445
0.000350244
-0.000153944
0.00041767
-0.000195816
0.000492024
-0.000238541
0.000573321
-0.000281535
0.000661489
-0.000324108
0.000756322
-0.000365417
0.000857388
-0.000404376
0.000963801
-0.00043951
0.00107355
-0.000468513
0.00118158
-0.000487312
-0.000490576
0.00127522
-9.65671e-08
2.74944e-05
8.71309e-07
6.47627e-05
3.91702e-06
8.74239e-05
9.88008e-06
9.77964e-05
1.94766e-05
9.7813e-05
3.33341e-05
8.90749e-05
5.20163e-05
7.28899e-05
7.60393e-05
5.03219e-05
0.000105881
2.22435e-05
0.000141981
-1.06164e-05
0.000184747
-4.76324e-05
0.000234543
-8.82476e-05
0.000291693
-0.000131946
0.000356477
-0.000178229
0.000429133
-0.000226599
0.000509864
-0.000276547
0.000598859
-0.000327536
0.000696329
-0.000379004
0.00080257
-0.000430349
0.000918086
-0.000480933
0.00104379
-0.000530085
0.00118139
-0.000577102
0.00133415
-0.000621281
0.00150947
-0.00066263
-0.000704991
0.00172389
8.54869e-08
2.7409e-05
1.7226e-06
6.31256e-05
6.02018e-06
8.31263e-05
1.38986e-05
8.9918e-05
2.61476e-05
8.5564e-05
4.34636e-05
7.17589e-05
6.64748e-05
4.98787e-05
9.57559e-05
2.10408e-05
0.000131834
-1.3835e-05
0.000175191
-5.39731e-05
0.000226256
-9.86977e-05
0.000285406
-0.000147397
0.000352956
-0.000199496
0.000429162
-0.000254435
0.000514223
-0.000311661
0.000608295
-0.000370618
0.00071151
-0.000430752
0.000824021
-0.000491515
0.00094606
-0.000552389
0.00107804
-0.000612912
0.00122068
-0.000672727
0.00137522
-0.000731637
0.00154362
-0.000789684
0.00172831
-0.000847322
-0.000903469
0.00192679
2.98373e-07
2.71106e-05
2.70336e-06
6.07206e-05
8.42362e-06
7.7406e-05
1.84639e-05
7.98777e-05
3.369e-05
7.03379e-05
5.48669e-05
5.0582e-05
8.26834e-05
2.20622e-05
0.000117763
-1.40389e-05
0.000160667
-5.67388e-05
0.000211889
-0.000105195
0.000271848
-0.000158657
0.000340882
-0.000216431
0.000419237
-0.00027785
0.000507066
-0.000342264
0.000604431
-0.000409026
0.000711313
-0.0004775
0.000827628
-0.000547066
0.000953255
-0.000617142
0.00108807
-0.000687207
0.001232
-0.000756837
0.00138502
-0.00082575
0.00154722
-0.00089384
0.00171871
-0.000961174
0.00189914
-0.00102774
-0.00109002
0.00208569
5.48782e-07
2.65618e-05
3.83594e-06
5.74335e-05
1.11718e-05
7.00702e-05
2.36466e-05
6.74029e-05
4.22013e-05
5.17831e-05
6.76659e-05
2.51174e-05
0.000100779
-1.10513e-05
0.000142197
-5.54566e-05
0.000192487
-0.000107029
0.000252119
-0.000164827
0.000321453
-0.000227991
0.000400726
-0.000295704
0.00049004
-0.000367165
0.000589362
-0.000441585
0.000698518
-0.000518183
0.00081721
-0.000596192
0.000945023
-0.000674879
0.00108145
-0.000753569
0.00122591
-0.000831666
0.00137776
-0.000908686
0.0015363
-0.000984287
0.00170073
-0.00105828
0.00187013
-0.00113057
0.00204323
-0.00120084
-0.00126486
0.00221807
8.43747e-07
2.57181e-05
5.14331e-06
5.31339e-05
1.43091e-05
6.09044e-05
2.9515e-05
5.2197e-05
5.17727e-05
2.95254e-05
8.19671e-05
-5.0769e-06
0.000120871
-4.9955e-05
0.000169145
-0.00010373
0.000227326
-0.00016521
0.000295812
-0.000233313
0.000374842
-0.000307021
0.00046448
-0.000385342
0.000564609
-0.000467293
0.00067492
-0.000551897
0.000794927
-0.000638189
0.000923971
-0.000725236
0.00106125
-0.000812156
0.00120583
-0.000898147
0.00135667
-0.00098251
0.00151266
-0.00106467
0.00167258
-0.00114421
0.00183514
-0.00122084
0.00199893
-0.00129436
0.00216242
-0.00136434
-0.00142678
0.00232434
1.19016e-06
2.45279e-05
6.64738e-06
4.76767e-05
1.78766e-05
4.96752e-05
3.61295e-05
3.39441e-05
6.24786e-05
3.1763e-06
9.78472e-05
-4.04455e-05
0.000143016
-9.51238e-05
0.000198614
-0.000159328
0.000265098
-0.000231694
0.000342733
-0.000310948
0.000431566
-0.000395854
0.000531413
-0.00048519
0.000641855
-0.000577735
0.00076224
-0.000672282
0.000891701
-0.00076765
0.00102918
-0.000862717
0.00117347
-0.000956448
0.00132325
-0.00104792
0.0014771
-0.00113636
0.00163355
-0.00122113
0.00179113
-0.00130178
0.0019483
-0.00137801
0.00210356
-0.00144962
0.00225547
-0.00151625
-0.00157459
0.00240329
1.59431e-06
2.29336e-05
8.36734e-06
4.09037e-05
2.19086e-05
3.61339e-05
4.3536e-05
1.23167e-05
7.4367e-05
-2.76547e-05
0.000115338
-8.14167e-05
0.000167202
-0.000146988
0.000230507
-0.000222633
0.00030557
-0.000306758
0.00039245
-0.000397827
0.000490925
-0.000494329
0.000600486
-0.000594751
0.000720341
-0.000697591
0.00084944
-0.00080138
0.000986504
-0.000904714
0.00113008
-0.00100629
0.00127859
-0.00110496
0.00143038
-0.00119972
0.0015838
-0.00128978
0.00173721
-0.00137454
0.00188903
-0.00145361
0.00203778
-0.00152676
0.0021821
-0.00159393
0.00232082
-0.00165497
-0.00170739
0.00245361
2.06147e-06
2.08721e-05
1.03182e-05
3.26469e-05
2.64288e-05
2.00234e-05
5.17603e-05
-1.30149e-05
8.74505e-05
-6.33448e-05
0.000134415
-0.000128381
0.00019333
-0.000205903
0.000264603
-0.000293906
0.000348338
-0.000390493
0.00044431
-0.0004938
0.000551951
-0.00060197
0.000670355
-0.000713155
0.000798308
-0.000825544
0.00093433
-0.000937402
0.00107674
-0.00104712
0.00122373
-0.00115328
0.00137343
-0.00125466
0.001524
-0.00135029
0.00167368
-0.00143945
0.00182083
-0.00152169
0.00196399
-0.00159677
0.0021019
-0.00166467
0.0022335
-0.00172554
0.00235802
-0.00177949
-0.0018249
0.00247553
2.5956e-06
1.82765e-05
1.25098e-05
2.27327e-05
3.14486e-05
1.08459e-06
6.08037e-05
-4.237e-05
0.0001017
-0.000104241
0.000154985
-0.000181666
0.000221201
-0.000272119
0.000300542
-0.000373247
0.00039282
-0.000482771
0.000497446
-0.000598426
0.000613433
-0.000717957
0.000739427
-0.00083915
0.000873765
-0.000959881
0.00101455
-0.00107819
0.00115975
-0.00119232
0.00130727
-0.00130081
0.00145511
-0.00140249
0.00160135
-0.00149653
0.0017443
-0.0015824
0.0018825
-0.00165988
0.00201475
-0.00172902
0.00214014
-0.00179006
0.00225803
-0.00184343
0.00236807
-0.00188953
-0.00192751
0.00247069
3.19919e-06
1.50773e-05
1.49457e-05
1.09862e-05
3.69647e-05
-2.09345e-05
7.06397e-05
-7.6045e-05
0.000117039
-0.00015064
0.000176885
-0.000241513
0.000250516
-0.000345749
0.00033783
-0.000460561
0.000438267
-0.000583208
0.000550799
-0.000710958
0.000673966
-0.000841124
0.000805938
-0.000971122
0.000944615
-0.00109856
0.00108774
-0.00122131
0.001233
-0.00133759
0.0013782
-0.001446
0.00152127
-0.00154557
0.00166044
-0.0016357
0.00179421
-0.00171618
0.00192145
-0.00178712
0.00204133
-0.0018489
0.00215335
-0.00190209
0.00225731
-0.00194739
0.00235328
-0.0019855
-0.00201621
0.00244198
3.87312e-06
1.12042e-05
1.76229e-05
-2.76358e-06
4.29584e-05
-4.627e-05
8.12125e-05
-0.000114299
0.000133342
-0.000202769
0.000199879
-0.00030805
0.000280872
-0.000426742
0.000375846
-0.000555535
0.000483786
-0.000691148
0.000603167
-0.000830339
0.000732025
-0.000969981
0.000868066
-0.00110716
0.00100881
-0.0012393
0.00115172
-0.00136422
0.00129437
-0.00148024
0.00143454
-0.00158618
0.00157033
-0.00168136
0.00170021
-0.00176558
0.00182304
-0.00183901
0.00193807
-0.00190215
0.0020449
-0.00195573
0.00214348
-0.00200066
0.00223398
-0.00203789
0.00231684
-0.00206837
-0.00209236
0.002393
4.61662e-06
6.58758e-06
2.05317e-05
-1.86786e-05
4.93944e-05
-7.51327e-05
9.24356e-05
-0.00015734
0.000150436
-0.00026077
0.000223657
-0.000381271
0.000311778
-0.000514862
0.000413861
-0.000657619
0.000528376
-0.000805662
0.000653261
-0.000955225
0.000786057
-0.00110278
0.000924055
-0.00124516
0.00106449
-0.00137973
0.00120468
-0.00150441
0.00134222
-0.00161778
0.00147507
-0.00171902
0.00160159
-0.00180788
0.00172062
-0.00188461
0.00183146
-0.00194984
0.00193378
-0.00200447
0.00202762
-0.00204958
0.0021133
-0.00208634
0.00219133
-0.00211593
0.00226241
-0.00213945
-0.00215753
0.00232759
5.42727e-06
1.16031e-06
2.36552e-05
-3.69065e-05
5.62213e-05
-0.000107699
0.000104193
-0.000205312
0.0001681
-0.000324677
0.000247849
-0.00046102
0.00034266
-0.000609673
0.000451067
-0.000766026
0.000570972
-0.000925568
0.000699781
-0.00108403
0.000834578
-0.00123757
0.000972337
-0.00138292
0.00111013
-0.00151752
0.0012453
-0.00163958
0.00137561
-0.00174809
0.00149931
-0.00184272
0.00161517
-0.00192375
0.00172248
-0.00199192
0.00182096
-0.00204833
0.00191074
-0.00209424
0.00199221
-0.00213105
0.002066
-0.00216012
0.00213286
-0.00218279
0.00219364
-0.00220023
-0.00221331
0.00224941
6.3009e-06
-5.14059e-06
2.69695e-05
-5.75751e-05
6.33712e-05
-0.000144101
0.000116339
-0.000258279
0.000186069
-0.000394408
0.000272025
-0.000546975
0.00037289
-0.000710539
0.00048661
-0.000879745
0.000610509
-0.00104947
0.00074149
-0.00121501
0.000876272
-0.00137235
0.00101163
-0.00151828
0.00114464
-0.00165053
0.00127282
-0.00176776
0.00139423
-0.0018695
0.00150754
-0.00195603
0.00161198
-0.00202819
0.0017073
-0.00208724
0.00179366
-0.00213469
0.00187154
-0.00217212
0.00194165
-0.00220115
0.00200481
-0.00222328
0.00206191
-0.0022399
0.00211388
-0.00225219
-0.00226115
0.00216172
7.23157e-06
-1.23722e-05
3.04436e-05
-8.07872e-05
7.07605e-05
-0.000184418
0.000128702
-0.000316221
0.000204043
-0.000469749
0.000295717
-0.000638649
0.000401806
-0.000816628
0.000519636
-0.000997575
0.000645973
-0.0011758
0.000777293
-0.00134633
0.000910069
-0.00150513
0.00104104
-0.00164925
0.00116742
-0.00177691
0.00128704
-0.00188738
0.0013984
-0.00198086
0.00150064
-0.00205826
0.00159346
-0.00212101
0.00167705
-0.00217084
0.00175195
-0.00220958
0.00181892
-0.00223909
0.00187887
-0.0022611
0.00193274
-0.00227716
0.00198148
-0.00228863
0.00202599
-0.0022967
-0.00230235
0.00206718
8.21146e-06
-2.05836e-05
3.40393e-05
-0.000106615
7.82907e-05
-0.000228669
0.000141086
-0.000379016
0.000221691
-0.000550354
0.000318433
-0.000735391
0.000428742
-0.000926937
0.000549329
-0.00111816
0.000676461
-0.00130294
0.000806294
-0.00147617
0.000935203
-0.00163404
0.00106004
-0.00177409
0.00117833
-0.0018952
0.00128831
-0.00199737
0.00138898
-0.00208153
0.00147996
-0.00214925
0.00156143
-0.00220248
0.00163394
-0.00224335
0.00169831
-0.00227396
0.00175552
-0.0022963
0.00180657
-0.00231215
0.00185245
-0.00232304
0.00189408
-0.00233027
0.00193231
-0.00233493
-0.00233796
0.00196792
9.23089e-06
-2.98145e-05
3.77119e-05
-0.000135096
8.585e-05
-0.000276807
0.000153278
-0.000446444
0.000238667
-0.000635743
0.000339674
-0.000836398
0.000453061
-0.00104032
0.000574957
-0.00124006
0.000701226
-0.0014292
0.000827844
-0.00160279
0.000951243
-0.00175744
0.00106854
-0.00189139
0.00117767
-0.00200433
0.00127739
-0.00209708
0.00136717
-0.00217131
0.00144714
-0.00222921
0.00151785
-0.00227319
0.00158016
-0.00230565
0.00163508
-0.00232888
0.0016837
-0.00234492
0.00172706
-0.0023555
0.00176612
-0.0023621
0.00180174
-0.00236589
0.00183465
-0.00236784
-0.00236884
0.00186553
1.02783e-05
-4.00928e-05
4.14104e-05
-0.000166228
9.3316e-05
-0.000328713
0.000165052
-0.00051818
0.000254617
-0.000725308
0.000358959
-0.00094074
0.00047418
-0.00115555
0.000595906
-0.00136178
0.000719715
-0.00155301
0.000841561
-0.00172463
0.000958085
-0.00187396
0.0010668
-0.0020001
0.00116612
-0.00210365
0.00125534
-0.0021863
0.00133444
-0.00225041
0.00140394
-0.00229871
0.0014647
-0.00233395
0.00151781
-0.00235876
0.00156438
-0.00237546
0.00160554
-0.00238607
0.00164229
-0.00239225
0.00167553
-0.00239533
0.00170601
-0.00239637
0.00173439
-0.00239622
-0.00239564
0.00176119
1.13402e-05
-5.1433e-05
4.50786e-05
-0.000199966
0.000100558
-0.000384192
0.000176175
-0.000593797
0.000269197
-0.000818329
0.000375843
-0.00104739
0.000491606
-0.00127131
0.000611706
-0.00148188
0.000731588
-0.0016729
0.000847333
-0.00184038
0.000955927
-0.00198255
0.00105536
-0.00209954
0.00114461
-0.0021929
0.00122346
-0.00226514
0.00129233
-0.00231929
0.00135209
-0.00235847
0.00140383
-0.0023857
0.00144875
-0.00240368
0.00148802
-0.00241473
0.00152271
-0.00242077
0.00155378
-0.00242332
0.00158202
-0.00242357
0.00160809
-0.00242244
0.00163251
-0.00242064
-0.00241884
0.00165571
1.24019e-05
-6.3835e-05
4.86564e-05
-0.000236221
0.000107443
-0.000442979
0.000186421
-0.000672775
0.000282083
-0.000913992
0.00038994
-0.00115524
0.000504946
-0.00138631
0.000622051
-0.00159899
0.000736715
-0.00178756
0.000845292
-0.00194896
0.000945219
-0.00208248
0.00103503
-0.00218935
0.00111423
-0.0022721
0.00118308
-0.00233399
0.00124238
-0.00237858
0.00129324
-0.00240933
0.0013369
-0.00242936
0.0013746
-0.00244138
0.00140749
-0.00244762
0.00143659
-0.00244986
0.00146273
-0.00244946
0.00148662
-0.00244746
0.00150881
-0.00244463
0.00152973
-0.00244156
-0.0024388
0.00154969
1.34471e-05
-7.7282e-05
5.20813e-05
-0.000274855
0.000113836
-0.000504733
0.000195571
-0.00075451
0.000292989
-0.00101141
0.000400933
-0.00126319
0.00051393
-0.00149931
0.000626799
-0.00171186
0.000735168
-0.00189593
0.000835782
-0.00204957
0.000926605
-0.0021733
0.00100672
-0.00226947
0.00107615
-0.00234152
0.00113556
-0.0023934
0.00118604
-0.00242906
0.00122886
-0.00245215
0.00126534
-0.00246583
0.0012967
-0.00247274
0.00132402
-0.00247495
0.00134823
-0.00247407
0.00137006
-0.00247129
0.0013901
-0.00246751
0.00140881
-0.00246335
0.00142654
-0.00245928
-0.00245577
0.00144351
1.44587e-05
-9.17407e-05
5.52904e-05
-0.000315687
0.000119608
-0.000569051
0.000203428
-0.000838331
0.000301673
-0.00110965
0.000408592
-0.00137011
0.000518409
-0.00160913
0.000625967
-0.00181941
0.00072719
-0.00199715
0.000819312
-0.00214169
0.000900855
-0.00225485
0.00097145
-0.00234007
0.00103156
-0.00240163
0.00108219
-0.00244403
0.00112462
-0.0024715
0.00116024
-0.00248777
0.00119035
-0.00249594
0.00121612
-0.00249851
0.00123855
-0.00249737
0.00125844
-0.00249395
0.00127642
-0.00248928
0.00129299
-0.00248408
0.00130852
-0.00247888
0.00132328
-0.00247404
-0.00246992
0.00133743
1.54192e-05
-0.00010716
5.8222e-05
-0.00035849
0.000124639
-0.000635468
0.000209821
-0.000923513
0.000307946
-0.00120778
0.000412771
-0.00147493
0.000518357
-0.00171471
0.00061971
-0.00192077
0.000713168
-0.00209061
0.000796506
-0.00222503
0.000868815
-0.00232716
0.000930222
-0.00240147
0.000981572
-0.00245298
0.00102412
-0.00248658
0.00105929
-0.00250667
0.00108847
-0.00251695
0.00111293
-0.0025204
0.00113375
-0.00251933
0.00115182
-0.00251544
0.00116783
-0.00250997
0.00118232
-0.00250377
0.0011957
-0.00249746
0.00120825
-0.00249143
0.0012202
-0.00248598
-0.00248137
0.00123165