/*--------------------------------*- C++ -*----------------------------------*\
  =========                 |
  \\      /  F ield         | OpenFOAM: The Open Source CFD Toolbox
   \\    /   O peration     | Website:  https://openfoam.org
    \\  /    A nd           | Version:  6.0
     \\/     M anipulation  |
\*---------------------------------------------------------------------------*/
FoamFile
{
    version     2.0;
    format      ascii;
    class       volVectorField;
    location    "18";
    object      U;
}
// * * * * * * * * * * * * * * * * * * * * * * * * * * * * * * * * * * * * * //

dimensions      [0 1 -1 0 0 0 0];

internalField   nonuniform List<vector> 
12500
(
(-0.000316684 0.00050016 -8.41806e-22)
(-0.00183209 0.00127975 1.20567e-20)
(-0.00474718 0.00187141 -1.75911e-20)
(-0.00846964 0.00231266 8.12162e-21)
(-0.0126837 0.00263267 4.8965e-22)
(-0.017196 0.00285567 -1.01057e-21)
(-0.0218534 0.00300252 -1.4989e-20)
(-0.0265429 0.00309102 8.26121e-21)
(-0.0311865 0.00313631 5.4816e-21)
(-0.0357331 0.0031512 5.58497e-21)
(-0.0401527 0.00314652 -9.48221e-21)
(-0.0444318 0.00313139 5.53045e-21)
(-0.0485698 0.00311344 -2.61098e-21)
(-0.0525759 0.00309902 4.43688e-21)
(-0.0564668 0.00309332 -1.13414e-20)
(-0.0602646 0.0031005 1.64197e-20)
(-0.0639951 0.0031238 -3.13375e-21)
(-0.0676862 0.00316562 -1.16507e-20)
(-0.0713664 0.00322754 5.97631e-21)
(-0.0750648 0.00331043 -5.7126e-21)
(-0.0788161 0.00341438 5.11802e-21)
(-0.0826549 0.00353881 6.77327e-21)
(-0.0865444 0.0036836 6.90952e-22)
(-0.0903598 0.00384966 -1.94231e-20)
(-0.0945916 0.00402864 1.0929e-20)
(-0.000366407 0.00125489 1.53705e-20)
(-0.00195506 0.00322341 -4.11681e-20)
(-0.00491747 0.00472216 1.22135e-20)
(-0.00866737 0.00584439 8.2074e-21)
(-0.0128926 0.00666167 -6.57479e-21)
(-0.0174022 0.00723337 -3.75349e-20)
(-0.0220451 0.00761108 1.12053e-20)
(-0.0267099 0.00783922 -2.12462e-20)
(-0.0313197 0.00795584 2.55065e-20)
(-0.0358242 0.00799359 -3.41564e-20)
(-0.0401943 0.00798042 1.829e-20)
(-0.0444168 0.00794022 5.92839e-21)
(-0.0484915 0.00789334 -1.49663e-20)
(-0.052428 0.00785698 -6.63056e-21)
(-0.0562432 0.00784553 4.86042e-20)
(-0.0599596 0.00787082 -4.30833e-20)
(-0.0636032 0.00794225 1.03184e-20)
(-0.0672026 0.00806703 1.78793e-20)
(-0.0707865 0.00825025 -4.09296e-21)
(-0.0743846 0.008495 2.88946e-20)
(-0.0780324 0.00880218 5.27451e-21)
(-0.0817651 0.00917082 -1.87652e-21)
(-0.0855465 0.00960144 -3.65956e-20)
(-0.0892507 0.0100977 3.37366e-20)
(-0.0933689 0.0106357 -6.85699e-20)
(-0.000461799 0.00199981 4.93014e-20)
(-0.0021918 0.00514267 1.70005e-20)
(-0.00524659 0.00753752 -2.24258e-20)
(-0.00905084 0.00933197 9.68839e-21)
(-0.013299 0.0106392 9.11417e-21)
(-0.0178047 0.0115532 3.47561e-20)
(-0.0224207 0.0121557 -4.43347e-20)
(-0.0270383 0.0125175 -7.23806e-21)
(-0.031583 0.0126993 -2.99068e-20)
(-0.0360063 0.0127533 -2.50511e-20)
(-0.0402801 0.0127244 3.24387e-20)
(-0.0443923 0.0126513 -1.08871e-19)
(-0.0483434 0.0125668 -3.41461e-21)
(-0.0521435 0.0124993 -6.56491e-20)
(-0.0558103 0.0124723 -7.75142e-21)
(-0.0593666 0.0125056 9.35451e-21)
(-0.0628393 0.0126149 -5.12533e-20)
(-0.0662577 0.0128126 -3.21186e-20)
(-0.0696517 0.0131075 -3.80843e-20)
(-0.0730519 0.0135052 5.97448e-20)
(-0.076495 0.0140078 2.18862e-20)
(-0.080018 0.0146141 -9.73382e-20)
(-0.0835857 0.0153253 -4.69494e-20)
(-0.0870699 0.0161484 -5.2574e-20)
(-0.090964 0.0170434 1.51045e-19)
(-0.000601868 0.0027293 -1.53204e-21)
(-0.00254025 0.00702323 -3.93111e-20)
(-0.00573216 0.0102965 -1.89979e-20)
(-0.00961783 0.0127489 1.18476e-20)
(-0.0139012 0.0145341 7.41587e-20)
(-0.0184024 0.0157797 -3.36102e-20)
(-0.0229798 0.0165972 7.19734e-20)
(-0.0275291 0.0170828 6.88222e-20)
(-0.0319789 0.0173196 4.20457e-20)
(-0.0362832 0.0173789 -6.38216e-22)
(-0.0404157 0.0173224 8.52998e-20)
(-0.0443658 0.0172032 1.48078e-20)
(-0.048135 0.0170669 6.54356e-20)
(-0.0517342 0.0169528 1.50791e-19)
(-0.0551819 0.0168939 -1.75306e-19)
(-0.0585019 0.0169182 2.64117e-19)
(-0.0617221 0.0170482 5.75856e-20)
(-0.0648729 0.0173018 -1.2722e-19)
(-0.0679856 0.0176921 -1.80936e-20)
(-0.0710926 0.0182278 4.63927e-20)
(-0.0742325 0.0189124 -2.33024e-20)
(-0.0774449 0.019745 -1.39766e-20)
(-0.0806963 0.020728 -1.36413e-20)
(-0.0838555 0.0218721 -5.49904e-20)
(-0.087419 0.0231211 2.05214e-19)
(-0.000785225 0.00343827 2.56909e-20)
(-0.00299739 0.00885195 -1.2384e-19)
(-0.00637074 0.0129794 1.51196e-19)
(-0.010365 0.0160703 -6.055e-20)
(-0.0146963 0.018317 7.2887e-20)
(-0.0191935 0.0198797 5.97738e-20)
(-0.0237219 0.0208984 2.27992e-20)
(-0.0281831 0.0214945 1.12498e-21)
(-0.0325098 0.0217723 1.29358e-19)
(-0.0366595 0.021822 8.98553e-20)
(-0.0406082 0.0217216 -3.61439e-20)
(-0.0443471 0.0215384 -2.33547e-20)
(-0.047879 0.0213306 9.87253e-20)
(-0.0512161 0.0211485 1.86367e-20)
(-0.0543776 0.021035 5.07057e-20)
(-0.0573885 0.0210264 1.21702e-19)
(-0.0602779 0.0211527 -1.05338e-19)
(-0.0630778 0.0214381 8.52109e-20)
(-0.0658216 0.0219006 -1.84006e-19)
(-0.0685437 0.0225527 1.54909e-19)
(-0.0712856 0.0234002 1.0153e-21)
(-0.0740903 0.0244429 -1.23916e-19)
(-0.0769271 0.0256851 4.99339e-20)
(-0.0796612 0.0271419 1.13603e-19)
(-0.0827935 0.0287409 -1.78214e-19)
(-0.00101017 0.0041223 1.32899e-19)
(-0.00355949 0.0106172 -1.4647e-19)
(-0.00715782 0.0155688 -2.37197e-20)
(-0.0112879 0.0192736 3.0115e-20)
(-0.0156803 0.021961 -6.54046e-20)
(-0.0201746 0.0238225 -1.02517e-19)
(-0.024645 0.0250256 -8.56649e-20)
(-0.0289998 0.0257154 -2.07477e-20)
(-0.0331775 0.0260171 -1.48719e-19)
(-0.0371394 0.0260388 1.18917e-19)
(-0.0408647 0.0258742 -1.85355e-19)
(-0.0443467 0.0256047 9.40113e-20)
(-0.0475898 0.0253007 -3.12971e-20)
(-0.0506073 0.0250237 7.27196e-20)
(-0.0534196 0.0248265 -1.83351e-19)
(-0.056053 0.0247544 8.90908e-20)
(-0.0585379 0.0248456 6.66321e-21)
(-0.0609083 0.025131 3.96957e-20)
(-0.0631998 0.0256351 2.40358e-19)
(-0.0654499 0.0263749 5.33878e-20)
(-0.0677034 0.0273597 -4.83479e-21)
(-0.0700081 0.028591 1.52979e-20)
(-0.0723371 0.0300757 1.00935e-19)
(-0.0745521 0.0318346 2.88054e-20)
(-0.0771599 0.033779 1.00807e-19)
(-0.00127478 0.00477778 -8.28045e-20)
(-0.00422211 0.0123088 1.22039e-19)
(-0.00808782 0.0180491 7.70464e-21)
(-0.0123804 0.0223387 -1.50991e-19)
(-0.0168473 0.0254422 3.19376e-19)
(-0.0213405 0.0275809 -1.03822e-19)
(-0.0257447 0.0289484 1.52328e-19)
(-0.0299767 0.0297126 1.40042e-19)
(-0.0339813 0.0300184 -1.16373e-19)
(-0.0377249 0.0299909 -1.70101e-19)
(-0.0411902 0.0297389 4.6734e-20)
(-0.0443731 0.0293571 -4.94551e-20)
(-0.0472797 0.028928 -2.19528e-19)
(-0.0499248 0.028524 2.67542e-19)
(-0.05233 0.0282081 -1.28689e-19)
(-0.0545224 0.0280353 -8.89891e-20)
(-0.0565343 0.0280525 8.1732e-22)
(-0.0584017 0.0282987 7.30581e-20)
(-0.0601629 0.0288057 3.02036e-20)
(-0.0618588 0.029597 -1.1852e-19)
(-0.063539 0.0306865 1.3562e-19)
(-0.0652566 0.0320787 -2.3608e-19)
(-0.0669903 0.0337845 1.44419e-19)
(-0.0685989 0.0358325 -1.10855e-19)
(-0.0705973 0.038117 3.05456e-20)
(-0.00157697 0.00540188 1.20547e-19)
(-0.00498023 0.0139187 -9.62323e-20)
(-0.00915404 0.020407 -6.16494e-20)
(-0.013635 0.0252481 -1.09554e-19)
(-0.0181892 0.0287396 -2.01502e-19)
(-0.0226832 0.031131 -1.49725e-19)
(-0.0270136 0.0326407 9.38127e-20)
(-0.0311071 0.0334581 -1.42788e-19)
(-0.0349162 0.0337463 1.82058e-19)
(-0.0384131 0.0336467 -2.97569e-19)
(-0.0415847 0.0332819 1.32713e-19)
(-0.0444298 0.0327592 2.81363e-19)
(-0.0469566 0.0321727 -3.96704e-19)
(-0.0491812 0.0316055 5.68226e-20)
(-0.051126 0.031131 7.41854e-20)
(-0.0528197 0.0308141 7.19466e-20)
(-0.0542957 0.0307113 -7.74665e-20)
(-0.0555922 0.0308711 -1.90689e-20)
(-0.0567506 0.0313341 -5.71555e-20)
(-0.057816 0.032132 -4.77925e-20)
(-0.0588429 0.0332854 -2.62917e-19)
(-0.0598921 0.0348039 -1.78062e-20)
(-0.0609489 0.0367043 2.88578e-21)
(-0.0618706 0.039025 -1.19588e-19)
(-0.0631833 0.0416441 1.30825e-19)
(-0.00191459 0.0059925 3.49167e-21)
(-0.00582828 0.0154399 3.93554e-20)
(-0.0103485 0.0226315 4.12788e-20)
(-0.0150418 0.0279869 2.41028e-20)
(-0.0196949 0.0318352 2.05101e-19)
(-0.0241906 0.0344527 1.93734e-19)
(-0.0284392 0.0360809 -1.58298e-19)
(-0.0323788 0.036929 -4.8422e-20)
(-0.0359709 0.0371774 -4.31976e-20)
(-0.0391941 0.0369819 2.23839e-19)
(-0.0420403 0.0364781 8.06923e-20)
(-0.0445118 0.0357848 -1.17885e-19)
(-0.0466189 0.0350069 -1.00153e-19)
(-0.0483789 0.0342377 2.42099e-19)
(-0.0498153 0.0335607 -5.98675e-20)
(-0.0509576 0.033051 -7.27965e-20)
(-0.0518405 0.0327758 -1.01888e-19)
(-0.0525041 0.0327942 -7.95132e-20)
(-0.0529929 0.0331575 -1.01759e-19)
(-0.0533566 0.0339078 -6.67139e-20)
(-0.0536559 0.0350752 2.77763e-19)
(-0.0539602 0.036677 -1.37047e-19)
(-0.0542637 0.0387387 9.24605e-20)
(-0.0544246 0.041312 -2.4643e-19)
(-0.0549839 0.0442596 1.05241e-19)
(-0.00228544 0.00654816 -1.08283e-19)
(-0.00676016 0.0168673 -2.92798e-20)
(-0.011662 0.0247134 -2.30304e-19)
(-0.0165888 0.0305427 -1.11077e-19)
(-0.0213498 0.0347142 -2.20589e-19)
(-0.0258459 0.0375293 -2.31332e-20)
(-0.0300031 0.0392513 1.19522e-19)
(-0.0337721 0.0401078 -7.31697e-20)
(-0.0371246 0.0402945 1.58413e-19)
(-0.040047 0.0399803 -3.86574e-19)
(-0.042537 0.0393124 -1.12618e-20)
(-0.0446004 0.0384196 6.9052e-20)
(-0.0462501 0.0374164 -8.7908e-20)
(-0.0475048 0.0364055 8.02798e-20)
(-0.0483886 0.0354801 -6.1544e-20)
(-0.0489314 0.0347257 -1.32293e-19)
(-0.0491689 0.0342204 2.42008e-19)
(-0.0491427 0.0340354 1.50505e-19)
(-0.0489004 0.0342346 -3.12427e-20)
(-0.0484962 0.0348733 9.98097e-20)
(-0.047998 0.0359944 -1.97329e-19)
(-0.0474853 0.0376266 2.85035e-19)
(-0.0469638 0.0398079 -3.90033e-19)
(-0.046295 0.0426083 8.04352e-20)
(-0.046041 0.0458768 -1.62126e-19)
(-0.00268728 0.00706781 5.8756e-21)
(-0.00776913 0.0181963 -1.00044e-19)
(-0.0130834 0.0266448 1.49188e-19)
(-0.0182607 0.0329048 3.07898e-19)
(-0.0231348 0.0373639 -5.10029e-21)
(-0.0276264 0.0403473 3.52772e-20)
(-0.0316788 0.0421386 -1.34008e-19)
(-0.0352573 0.042982 6.30486e-20)
(-0.038345 0.043087 4.36639e-19)
(-0.0409374 0.0426341 -9.9498e-20)
(-0.0430384 0.0417798 -1.18004e-19)
(-0.0446586 0.0406618 4.47627e-19)
(-0.0458134 0.0394022 1.46717e-19)
(-0.0465229 0.0381122 7.00838e-20)
(-0.0468118 0.0368935 7.19498e-20)
(-0.04671 0.0358415 1.96604e-19)
(-0.0462532 0.0350454 -7.57899e-20)
(-0.0454842 0.0345896 2.00828e-19)
(-0.0444531 0.0345527 2.72471e-19)
(-0.0432187 0.035006 -2.32963e-19)
(-0.0418565 0.0360091 3.46934e-19)
(-0.0404577 0.0376072 1.2409e-19)
(-0.0390417 0.0398563 -4.71707e-19)
(-0.0374777 0.0428509 6.83458e-19)
(-0.0363565 0.0464303 -5.86112e-19)
(-0.00311779 0.00755061 -2.75839e-19)
(-0.00884771 0.0194232 1.55998e-19)
(-0.0145998 0.028419 -1.05423e-19)
(-0.0200391 0.0350639 -1.00786e-19)
(-0.0250256 0.0397735 -1.09446e-19)
(-0.0295019 0.0428955 -1.19412e-19)
(-0.0334305 0.0447323 3.29415e-20)
(-0.0367928 0.0455434 3.14566e-19)
(-0.0395851 0.0455503 -6.76838e-20)
(-0.0418128 0.0449429 -1.77051e-19)
(-0.0434876 0.0438856 -1.08563e-19)
(-0.0446253 0.0425224 -4.4588e-20)
(-0.0452444 0.0409818 1.32367e-19)
(-0.0453666 0.039381 -8.4817e-20)
(-0.045017 0.037829 -2.77734e-19)
(-0.0442249 0.0364296 -3.07402e-19)
(-0.0430258 0.0352832 1.229e-19)
(-0.0414625 0.0344873 -2.29399e-19)
(-0.0395867 0.0341367 1.9973e-19)
(-0.0374614 0.0343222 -5.65337e-19)
(-0.03517 0.0351245 4.35383e-19)
(-0.0328166 0.0366109 -5.77035e-19)
(-0.0304371 0.0388633 -1.08366e-20)
(-0.0279129 0.0420096 -1.9512e-19)
(-0.0258743 0.0458848 6.05723e-19)
(-0.00357449 0.00799576 4.23244e-19)
(-0.00998745 0.0205443 6.43713e-20)
(-0.0161959 0.0300295 -4.25991e-20)
(-0.0219014 0.0370114 -1.80909e-20)
(-0.026992 0.041933 3.38608e-19)
(-0.0314341 0.0451641 1.10755e-19)
(-0.0352114 0.0470244 1.00959e-19)
(-0.0383231 0.0477872 -8.15678e-20)
(-0.0407802 0.0476842 3.16033e-19)
(-0.0425998 0.0469131 -1.56087e-19)
(-0.0438023 0.0456439 1.01113e-19)
(-0.0444095 0.0440251 2.58194e-19)
(-0.0444441 0.0421888 -1.4697e-19)
(-0.0439297 0.0402561 1.59676e-19)
(-0.0428918 0.0383408 1.51276e-19)
(-0.0413591 0.0365534 5.19326e-20)
(-0.0393659 0.0350035 -1.28357e-19)
(-0.036954 0.0338015 3.55842e-19)
(-0.034176 0.0330593 -3.32148e-20)
(-0.0310977 0.0328893 -3.84052e-20)
(-0.0278102 0.0333982 4.29252e-19)
(-0.0244315 0.0346823 -3.06062e-19)
(-0.0210163 0.0368589 5.16562e-19)
(-0.017464 0.0401016 -4.29272e-19)
(-0.014458 0.0442504 5.82724e-19)
(-0.00405467 0.00840222 -2.04469e-19)
(-0.0111787 0.0215556 4.70025e-20)
(-0.017854 0.0314693 -4.93629e-20)
(-0.0238206 0.0387382 -2.35155e-19)
(-0.0289969 0.0438327 1.37369e-20)
(-0.0333752 0.0471436 1.35442e-19)
(-0.0369622 0.0490076 -5.53887e-19)
(-0.0397769 0.04971 4.15506e-19)
(-0.0418462 0.0494916 -4.06379e-19)
(-0.0432006 0.0485559 -2.57441e-19)
(-0.0438703 0.0470765 2.3179e-19)
(-0.0438849 0.045204 -5.03565e-19)
(-0.043272 0.0430718 4.25653e-19)
(-0.0420581 0.0408018 -1.35807e-19)
(-0.0402693 0.0385099 -3.89177e-19)
(-0.037934 0.03631 9.64376e-20)
(-0.0350847 0.0343184 -9.07948e-20)
(-0.0317617 0.0326561 3.43459e-20)
(-0.0280165 0.0314515 -1.22998e-19)
(-0.023917 0.0308398 -4.09192e-19)
(-0.0195606 0.0309575 9.1847e-20)
(-0.0150798 0.0319376 -1.71121e-22)
(-0.01055 0.0339439 -4.24586e-19)
(-0.00589399 0.0372125 2.98811e-19)
(-0.00186647 0.0416019 -2.72555e-19)
(-0.00455522 0.00876865 8.2773e-20)
(-0.0124104 0.0224524 1.58136e-19)
(-0.0195532 0.0327308 2.22789e-19)
(-0.0257649 0.0402347 1.15336e-19)
(-0.0309964 0.0454617 -1.138e-19)
(-0.0352678 0.0488241 2.73023e-19)
(-0.0386107 0.0506741 2.03117e-19)
(-0.0410655 0.0513088 -7.43153e-20)
(-0.042677 0.0509762 2.66611e-19)
(-0.0434901 0.0498845 -2.75439e-19)
(-0.0435469 0.0482091 -8.11263e-20)
(-0.0428856 0.0461005 8.26358e-20)
(-0.0415404 0.0436907 1.64291e-19)
(-0.0395418 0.0410997 1.97843e-21)
(-0.0369181 0.0384415 1.04674e-19)
(-0.0336975 0.0358299 1.93843e-19)
(-0.0299112 0.0333834 -3.30976e-19)
(-0.0255974 0.0312299 4.12534e-19)
(-0.0208057 0.0295111 1.39575e-19)
(-0.0156039 0.0283841 4.94054e-20)
(-0.0100946 0.0280173 -5.04129e-19)
(-0.00442367 0.0285865 7.1473e-20)
(0.00131107 0.0303152 1.11131e-19)
(0.00715933 0.0335226 -2.67514e-20)
(0.0122721 0.0381053 1.33878e-19)
(-0.00507261 0.00909324 6.45678e-21)
(-0.0136699 0.023229 -4.07308e-19)
(-0.0212695 0.0338053 -1.02303e-20)
(-0.0276971 0.0414896 -1.04095e-19)
(-0.0329386 0.0468079 -6.88187e-19)
(-0.0370436 0.0501935 5.97557e-19)
(-0.0400706 0.0520143 -4.27443e-19)
(-0.0420826 0.0525782 -2.16462e-20)
(-0.0431438 0.0521399 -2.03867e-19)
(-0.0433151 0.050911 3.54013e-19)
(-0.0426518 0.0490676 -3.82595e-19)
(-0.0412026 0.0467582 -1.79819e-19)
(-0.0390097 0.0441114 3.76483e-21)
(-0.0361097 0.0412422 -3.91781e-19)
(-0.0325346 0.0382593 5.36227e-19)
(-0.0283142 0.0352716 -6.23169e-19)
(-0.0234797 0.0323944 1.20272e-21)
(-0.0180675 0.0297567 9.59933e-20)
(-0.0121247 0.0275076 -2.40932e-19)
(-0.00571797 0.0258213 2.34315e-19)
(0.00104716 0.0248967 -3.33111e-19)
(0.00801277 0.0249558 -2.20636e-19)
(0.0150594 0.0262938 4.11983e-19)
(0.0222069 0.0293384 -4.50318e-19)
(0.0284853 0.0340503 -9.20279e-21)
(-0.00560273 0.00937375 -3.32172e-19)
(-0.0149425 0.0238788 3.95474e-19)
(-0.0229755 0.0346824 -1.2292e-19)
(-0.029575 0.04249 2.38079e-19)
(-0.034764 0.0478567 2.58298e-19)
(-0.0386241 0.0512373 -2.28812e-19)
(-0.0412414 0.0530154 -1.52454e-19)
(-0.0427034 0.0535093 -1.83463e-19)
(-0.0430947 0.0529805 1.6874e-19)
(-0.0424934 0.0516432 -1.13454e-20)
(-0.0409692 0.0496734 2.48029e-19)
(-0.0385831 0.0472173 2.45399e-19)
(-0.0353873 0.0443981 -2.94228e-19)
(-0.0314265 0.041324 5.79685e-19)
(-0.0267392 0.0380951 -3.85667e-19)
(-0.0213596 0.0348108 -6.63619e-20)
(-0.0153213 0.0315774 7.55725e-19)
(-0.00866099 0.028517 -3.5085e-19)
(-0.00142474 0.0257772 2.24219e-19)
(0.00632254 0.0235408 4.39045e-19)
(0.0144742 0.0220292 -2.85497e-19)
(0.0228627 0.0215083 3.0139e-20)
(0.0313496 0.0223528 -1.97388e-20)
(0.0399272 0.0251263 -1.17869e-19)
(0.047476 0.0298873 2.33149e-19)
(-0.00614088 0.00960758 7.59132e-20)
(-0.0162118 0.0243942 -2.50524e-19)
(-0.02464 0.0353507 1.37911e-19)
(-0.0313503 0.0432214 -1.72452e-21)
(-0.0364053 0.0485914 1.05124e-19)
(-0.0399196 0.051938 -1.81892e-19)
(-0.0420089 0.0536607 1.04617e-19)
(-0.0427856 0.0540886 2.86324e-19)
(-0.0423555 0.0534896 -8.77313e-21)
(-0.040815 0.0520811 -1.47542e-19)
(-0.0382491 0.0500395 1.489e-19)
(-0.0347324 0.047508 -3.45358e-21)
(-0.0303292 0.044605 -4.75214e-19)
(-0.025095 0.0414307 1.76772e-19)
(-0.0190778 0.0380747 3.91591e-20)
(-0.0123204 0.0346236 -6.9166e-20)
(-0.00486304 0.0311691 -1.23827e-19)
(0.00325275 0.0278183 4.75606e-19)
(0.0119786 0.0247061 1.16327e-19)
(0.0212493 0.0220097 -2.4983e-19)
(0.0309574 0.019959 -3.01241e-20)
(0.0409278 0.0188509 3.45743e-19)
(0.0510084 0.0191379 -1.61766e-19)
(0.0611747 0.0215438 6.96524e-20)
(0.0701313 0.0262638 4.92995e-20)
(-0.00668175 0.00979188 -1.51952e-19)
(-0.0174591 0.0247672 1.56776e-19)
(-0.0262283 0.0357978 -8.8944e-20)
(-0.0329694 0.0436678 -2.87403e-19)
(-0.0377869 0.0489937 -2.66206e-19)
(-0.0408301 0.0522759 -1.18429e-19)
(-0.0422449 0.0539303 -9.86495e-20)
(-0.0421693 0.0542974 -2.93159e-19)
(-0.0407308 0.0536522 -1.18999e-19)
(-0.0380439 0.0522162 1.08955e-19)
(-0.0342099 0.0501668 -1.56143e-19)
(-0.0293178 0.0476461 -1.65434e-19)
(-0.0234458 0.0447683 -1.55803e-19)
(-0.0166627 0.041627 2.83969e-19)
(-0.00902987 0.0383016 -5.9821e-19)
(-0.000603506 0.0348649 3.42727e-19)
(0.00856327 0.0313906 -5.87769e-19)
(0.0184171 0.0279639 -9.08435e-20)
(0.0289 0.0246959 -3.2463e-19)
(0.0399405 0.0217411 -7.60441e-20)
(0.0514273 0.0193154 -9.29369e-20)
(0.0631782 0.0177216 -3.11246e-19)
(0.0750335 0.0174708 -3.42358e-20)
(0.0869743 0.0194592 1.91377e-19)
(0.0975168 0.0240564 -5.22243e-19)
(-0.00721941 0.00992378 1.3034e-19)
(-0.0186637 0.0249894 1.76906e-19)
(-0.0277014 0.0360107 6.23815e-19)
(-0.0343723 0.0438128 -1.10222e-19)
(-0.0388249 0.0490442 2.63926e-19)
(-0.0412446 0.0522297 6.32277e-19)
(-0.0418078 0.0538022 -1.73225e-19)
(-0.0406785 0.0541139 2.35586e-19)
(-0.0380053 0.0534481 1.38007e-19)
(-0.0339209 0.0520315 2.51209e-19)
(-0.0285427 0.0500444 -5.04816e-20)
(-0.0219748 0.04763 3.42733e-20)
(-0.01431 0.0449012 -8.90167e-20)
(-0.00563293 0.0419479 4.82813e-19)
(0.00397786 0.0388425 6.19377e-20)
(0.0144475 0.0356462 4.50569e-19)
(0.0257023 0.0324156 -1.15584e-19)
(0.0376675 0.0292117 4.1446e-19)
(0.0502642 0.0261136 5.83621e-20)
(0.0634032 0.0232375 2.118e-19)
(0.0769594 0.0207582 -9.16716e-20)
(0.090738 0.0189459 -1.64895e-20)
(0.104577 0.0183263 5.07106e-19)
(0.118498 0.019954 3.12679e-19)
(0.130849 0.024395 -1.366e-19)
(-0.00774733 0.0100005 -3.15726e-19)
(-0.0198023 0.0250526 -3.32062e-19)
(-0.0290163 0.035977 -3.49517e-19)
(-0.0354926 0.0436404 1.28936e-19)
(-0.0394266 0.0487245 -2.60501e-19)
(-0.0410406 0.0517791 -3.90325e-20)
(-0.0405421 0.0532546 -1.03425e-19)
(-0.0381205 0.0535159 -4.3099e-19)
(-0.0339451 0.0528551 -6.75895e-20)
(-0.028166 0.0515056 1.11482e-19)
(-0.0209159 0.049653 -3.51102e-19)
(-0.0123137 0.0474442 4.88519e-19)
(-0.00246774 0.0449948 -6.65553e-19)
(0.00852025 0.0423957 1.60757e-19)
(0.0205516 0.0397181 -4.09992e-19)
(0.0335274 0.0370181 -3.33691e-19)
(0.0473457 0.0343413 -1.90725e-20)
(0.0618991 0.0317293 -5.0743e-20)
(0.0770728 0.0292297 4.00576e-20)
(0.0927415 0.026912 -1.92569e-19)
(0.108748 0.0248877 -1.3362e-19)
(0.124867 0.0233482 1.64678e-19)
(0.140928 0.0227622 -4.56483e-19)
(0.157043 0.0242821 1.48727e-19)
(0.171467 0.0286499 1.10946e-19)
(-0.00825834 0.0100195 -5.59755e-20)
(-0.0208494 0.0249492 -9.63488e-20)
(-0.0301249 0.0356854 3.77282e-19)
(-0.0362568 0.0431367 1.41197e-19)
(-0.0394895 0.0480191 1.87992e-19)
(-0.0400835 0.0509075 -2.52502e-19)
(-0.0382778 0.0522706 4.74916e-22)
(-0.0342863 0.0524857 -2.06326e-19)
(-0.0282982 0.051855 3.83112e-19)
(-0.02048 0.0506199 1.25574e-19)
(-0.0109787 0.0489727 1.41422e-19)
(7.27261e-05 0.0470673 -5.64325e-19)
(0.0125508 0.045026 6.98448e-19)
(0.0263358 0.0429466 -2.10422e-19)
(0.0413072 0.0409062 -1.51058e-19)
(0.0573384 0.0389653 4.53763e-19)
(0.0742929 0.0371707 2.03136e-19)
(0.0920201 0.0355575 -5.15449e-19)
(0.110353 0.0341547 -2.15919e-19)
(0.129109 0.0329935 6.53036e-19)
(0.148068 0.0321164 -5.00406e-19)
(0.166945 0.0315992 3.01625e-19)
(0.185524 0.0317601 1.6921e-19)
(0.20405 0.0337246 -2.18052e-19)
(0.220858 0.0383255 -2.19665e-19)
(-0.00874455 0.00997864 -2.05836e-19)
(-0.0217762 0.0246729 3.32071e-19)
(-0.0309735 0.0351269 1.42426e-19)
(-0.0365825 0.0422916 -2.07024e-19)
(-0.0388998 0.0469174 -3.33293e-20)
(-0.0382251 0.0496053 -2.19552e-19)
(-0.0348287 0.0508415 -8.78976e-20)
(-0.0289491 0.0510163 9.91825e-20)
(-0.0207944 0.0504416 -2.49091e-20)
(-0.0105461 0.0493674 1.88749e-19)
(0.00163519 0.0479946 -1.64601e-19)
(0.0156032 0.0464858 4.57218e-19)
(0.0312198 0.0449734 -5.68759e-19)
(0.0483476 0.0435668 3.55859e-19)
(0.0668438 0.0423565 4.43634e-19)
(0.0865528 0.0414185 -6.43219e-19)
(0.1073 0.0408152 -1.96397e-19)
(0.128886 0.0405968 3.31894e-19)
(0.151079 0.0408009 -2.05465e-19)
(0.173614 0.0414528 1.99115e-19)
(0.196174 0.0425566 -4.83794e-19)
(0.218354 0.044076 8.06684e-20)
(0.239821 0.0461049 3.17301e-19)
(0.26095 0.0495921 -5.11998e-19)
(0.280473 0.0552985 1.43494e-19)
(-0.00919708 0.009876 -1.90267e-19)
(-0.0225502 0.0242182 6.19169e-19)
(-0.0315017 0.0342951 1.19684e-19)
(-0.0363781 0.0410996 -3.25517e-19)
(-0.0375311 0.045417 2.34603e-19)
(-0.0353014 0.0478736 1.19839e-19)
(-0.0299913 0.0489731 1.92279e-19)
(-0.0218634 0.0491176 -1.25962e-20)
(-0.0111443 0.0486287 -2.01973e-20)
(0.00196961 0.0477647 -4.25117e-20)
(0.0173043 0.0467348 -1.86332e-19)
(0.0347005 0.0457109 -6.34756e-21)
(0.0540052 0.0448369 4.38522e-19)
(0.075064 0.0442361 -7.21759e-19)
(0.0977128 0.044017 5.15148e-19)
(0.12177 0.0442788 1.04576e-19)
(0.147026 0.0451144 1.85493e-19)
(0.173234 0.0466133 -9.60776e-20)
(0.200099 0.0488623 8.53966e-19)
(0.227258 0.0519446 -5.30568e-19)
(0.254257 0.0559194 4.25703e-19)
(0.280476 0.0607593 1.00716e-19)
(0.30528 0.0664603 -3.14017e-19)
(0.328966 0.0738837 2.66757e-19)
(0.351024 0.0833585 4.29169e-19)
(-0.00960578 0.00970992 -5.523e-20)
(-0.0231347 0.0235813 -2.18284e-19)
(-0.0316413 0.0331874 -3.75614e-19)
(-0.0355402 0.0395621 -2.15371e-19)
(-0.0352425 0.0435249 -3.02971e-20)
(-0.0311316 0.0457273 -8.59946e-20)
(-0.023543 0.0466888 -4.00795e-19)
(-0.0127639 0.0468227 6.67766e-20)
(0.000959656 0.0464585 -4.54527e-19)
(0.0174151 0.0458614 -3.54181e-20)
(0.0364134 0.0452475 -4.39474e-19)
(0.0577802 0.044796 -1.57108e-19)
(0.081346 0.0446598 9.05045e-20)
(0.106938 0.0449737 -4.32208e-19)
(0.134374 0.0458623 3.91544e-21)
(0.16345 0.0474471 -3.74808e-19)
(0.193938 0.0498543 1.45211e-19)
(0.225573 0.0532242 -5.26715e-19)
(0.258037 0.0577222 -9.06533e-20)
(0.29094 0.0635543 -1.26399e-20)
(0.323765 0.0709662 -8.99127e-20)
(0.355751 0.0802151 -9.23669e-20)
(0.385891 0.091757 -4.61558e-20)
(0.413599 0.107046 -1.8631e-19)
(0.437416 0.125197 -4.12941e-19)
(-0.00995889 0.00947888 1.00998e-19)
(-0.0234876 0.02276 2.76638e-19)
(-0.0313151 0.0318052 3.34773e-19)
(-0.0339533 0.0376877 -2.69189e-19)
(-0.0318776 0.0412601 5.02575e-19)
(-0.0255169 0.0431977 -2.7432e-19)
(-0.0152417 0.0440345 1.49774e-19)
(-0.00136647 0.0441927 2.34632e-19)
(0.0158407 0.0440078 2.14409e-19)
(0.0361473 0.0437492 1.04715e-19)
(0.0593442 0.0436362 1.69869e-19)
(0.0852355 0.0438508 9.91496e-20)
(0.113629 0.0445485 6.72513e-19)
(0.144327 0.0458669 -4.90395e-19)
(0.177124 0.0479345 5.61839e-19)
(0.211799 0.0508785 -2.34242e-19)
(0.248114 0.0548358 5.07336e-19)
(0.285818 0.059966 -2.40026e-20)
(0.324649 0.0664723 -1.05659e-19)
(0.364343 0.0746322 -1.94905e-20)
(0.404642 0.0848379 4.04091e-19)
(0.445337 0.0977006 -3.97111e-19)
(0.48657 0.114496 2.79119e-19)
(0.528972 0.137214 3.1112e-19)
(0.568716 0.160226 6.60027e-20)
(-0.0102423 0.00918122 6.98738e-20)
(-0.0235602 0.0217531 -3.95546e-19)
(-0.0304354 0.0301542 -1.44648e-19)
(-0.0314882 0.0354934 1.32995e-19)
(-0.0272636 0.0386542 -4.11955e-19)
(-0.0182405 0.0403344 -8.16735e-20)
(-0.00482779 0.0410798 5.69561e-20)
(0.0126284 0.0413193 2.261e-19)
(0.0338321 0.0413912 -5.74942e-19)
(0.0585226 0.0415654 4.39053e-20)
(0.0864608 0.0420592 -1.69466e-19)
(0.117417 0.0430506 -5.16929e-19)
(0.151162 0.0446882 3.53442e-19)
(0.187457 0.0470996 1.51936e-20)
(0.226056 0.0503984 -1.06869e-20)
(0.266699 0.0546913 3.5993e-19)
(0.309121 0.0600853 -6.38361e-19)
(0.353059 0.0666959 5.07064e-19)
(0.398268 0.0746573 -9.39383e-20)
(0.444543 0.0841327 2.97941e-19)
(0.491756 0.0953207 -4.91505e-19)
(0.539907 0.108483 2.83112e-19)
(0.58939 0.12416 -5.09307e-19)
(0.641055 0.142994 5.27834e-19)
(0.689808 0.159215 -1.67385e-19)
(-0.0104392 0.0088151 4.69425e-19)
(-0.0232967 0.0205612 -7.93795e-20)
(-0.0289038 0.028245 5.89192e-19)
(-0.0280017 0.0330049 2.74492e-19)
(-0.0212126 0.0357527 2.21735e-20)
(-0.00907004 0.0372056 1.21186e-19)
(0.00797214 0.0379191 2.94167e-20)
(0.0295289 0.038325 4.98587e-19)
(0.0552661 0.0387607 1.613e-19)
(0.0848822 0.0394917 -2.17336e-20)
(0.118092 0.0407271 4.36922e-20)
(0.154612 0.0426326 1.68799e-19)
(0.194152 0.0453395 1.41386e-19)
(0.23641 0.048952 3.03575e-19)
(0.281068 0.0535524 -3.46943e-19)
(0.327797 0.0592064 1.05136e-19)
(0.376264 0.0659665 3.19758e-20)
(0.426143 0.0738749 1.56564e-19)
(0.477134 0.0829653 4.25786e-19)
(0.528982 0.0932599 -2.78304e-19)
(0.581503 0.104759 2.39925e-20)
(0.634604 0.117427 -3.96891e-19)
(0.688399 0.131308 3.76889e-19)
(0.743285 0.146691 -3.66522e-19)
(0.794337 0.159984 3.52864e-20)
(-0.0105295 0.00837871 -3.91526e-19)
(-0.0226332 0.0191869 3.10655e-19)
(-0.0266106 0.0260932 -5.09112e-19)
(-0.0233377 0.0302575 4.41861e-20)
(-0.0135227 0.0326147 3.62653e-19)
(0.00223838 0.0338987 -6.07404e-19)
(0.0234382 0.0346704 4.8426e-19)
(0.0496408 0.0353607 -7.71907e-19)
(0.0804589 0.0363013 1.54501e-19)
(0.115531 0.0377467 3.31688e-20)
(0.154502 0.0398905 2.62622e-19)
(0.19701 0.0428767 -8.75827e-19)
(0.242675 0.0468085 1.51762e-19)
(0.291097 0.0517539 1.61301e-19)
(0.341856 0.0577509 -9.70382e-20)
(0.394518 0.0648104 -6.03824e-19)
(0.448644 0.0729187 2.85071e-19)
(0.503808 0.0820383 5.35307e-19)
(0.559607 0.0921068 -5.66648e-19)
(0.615683 0.103032 4.12268e-19)
(0.671735 0.11468 -5.36533e-19)
(0.72752 0.126859 3.91004e-19)
(0.782888 0.139396 -1.09306e-19)
(0.837883 0.152518 6.26287e-19)
(0.888445 0.164481 -7.26864e-19)
(-0.0104896 0.00787043 5.59995e-20)
(-0.0214978 0.0176349 4.58402e-20)
(-0.0234354 0.0237204 1.13025e-19)
(-0.017329 0.027296 4.06115e-19)
(-0.00398296 0.0293134 -1.28035e-20)
(0.0159336 0.0305186 9.17796e-20)
(0.0418466 0.0314733 4.1065e-19)
(0.0732525 0.0326019 1.66491e-19)
(0.10969 0.0342235 -5.51002e-20)
(0.15071 0.0365744 4.71e-19)
(0.195862 0.0398229 -5.38454e-19)
(0.244669 0.0440809 8.29248e-19)
(0.29663 0.0494111 -3.30216e-19)
(0.351213 0.0558339 6.01356e-19)
(0.407865 0.0633309 -2.03699e-19)
(0.466018 0.0718496 7.45319e-20)
(0.525107 0.0813057 9.05775e-20)
(0.584583 0.0915853 -1.75761e-19)
(0.643933 0.102545 1.47468e-19)
(0.702691 0.11401 9.51524e-20)
(0.760453 0.125769 1.31848e-19)
(0.816868 0.137567 2.8101e-19)
(0.871639 0.149148 -2.3541e-20)
(0.924645 0.160693 -1.29196e-19)
(0.972963 0.171859 3.96807e-19)
(-0.0102922 0.00728919 -3.27482e-19)
(-0.0198109 0.0159134 3.59455e-20)
(-0.0192487 0.0211549 -6.50469e-19)
(-0.00979978 0.0241756 -1.56337e-19)
(0.00762207 0.0259358 -2.94453e-19)
(0.0322607 0.0271874 -6.34895e-20)
(0.0634571 0.0284863 -3.18701e-19)
(0.100617 0.0302429 -1.91376e-19)
(0.143176 0.0327555 2.54534e-19)
(0.19057 0.0362314 -4.26643e-19)
(0.242209 0.0408024 -1.18982e-19)
(0.297473 0.0465352 4.73896e-21)
(0.3557 0.0534394 -8.10312e-19)
(0.416201 0.0614751 3.45689e-19)
(0.478262 0.070558 -5.06434e-19)
(0.54117 0.0805662 -1.5886e-20)
(0.604225 0.0913447 1.00735e-19)
(0.666767 0.102711 -1.63698e-19)
(0.728191 0.114458 -1.44011e-19)
(0.787959 0.12636 7.24485e-20)
(0.845616 0.138168 8.14521e-20)
(0.900776 0.149616 -5.28507e-19)
(0.953119 0.16044 3.02164e-19)
(1.00249 0.170774 1.53791e-19)
(1.04704 0.181235 4.37624e-20)
(-0.00990661 0.00663502 3.3503e-19)
(-0.0174857 0.014035 -3.70972e-19)
(-0.0139136 0.0184328 5.23966e-19)
(-0.000570399 0.020963 8.20649e-20)
(0.021505 0.022583 -2.53039e-20)
(0.0514505 0.0240428 -1.79262e-19)
(0.0884977 0.0258838 2.71047e-20)
(0.131932 0.0284922 2.75344e-19)
(0.181051 0.0321337 -3.81571e-19)
(0.235134 0.036974 4.0246e-19)
(0.293419 0.0430935 -4.26877e-20)
(0.355101 0.050499 1.88334e-20)
(0.41933 0.059133 5.29512e-19)
(0.485234 0.0688833 7.12399e-19)
(0.551934 0.0795919 -2.79585e-19)
(0.618571 0.0910642 4.98877e-19)
(0.684335 0.103079 2.54745e-19)
(0.748485 0.115395 -1.55922e-19)
(0.810371 0.127763 4.97149e-19)
(0.869446 0.139928 -1.83789e-20)
(0.925272 0.151638 -4.81692e-19)
(0.977516 0.162647 5.10854e-19)
(1.02593 0.172721 7.47031e-20)
(1.07043 0.181963 -3.19809e-19)
(1.11005 0.191584 1.01183e-19)
(-0.00929873 0.00590971 -4.66172e-19)
(-0.0144297 0.0120178 5.05708e-19)
(-0.00728907 0.0155996 -3.23161e-19)
(0.010538 0.017737 -1.01502e-19)
(0.0378679 0.0193706 -2.28566e-19)
(0.0737078 0.0212376 4.06459e-19)
(0.117149 0.023853 -2.3716e-19)
(0.16732 0.0275658 -1.09209e-19)
(0.223338 0.0325939 -3.14044e-19)
(0.284283 0.0390449 8.14393e-21)
(0.349182 0.0469306 -1.23885e-19)
(0.417011 0.0561813 6.05903e-20)
(0.486715 0.0666581 -6.39876e-19)
(0.557231 0.0781665 1.82913e-19)
(0.627524 0.0904694 -2.21795e-19)
(0.696621 0.103302 -1.79598e-19)
(0.763639 0.116384 5.55493e-20)
(0.827816 0.129433 -2.64328e-19)
(0.888525 0.142177 -1.14622e-19)
(0.945282 0.154357 3.29594e-19)
(0.997747 0.165744 1.40988e-19)
(1.04572 0.176134 -5.99872e-19)
(1.08909 0.185347 4.43531e-19)
(1.12791 0.193483 -8.42216e-20)
(1.16191 0.202041 -1.76724e-19)
(-0.00843183 0.00511756 -1.69943e-19)
(-0.0105466 0.00988746 -9.43673e-20)
(0.00076655 0.0127119 -1.89832e-20)
(0.0236972 0.0145901 1.39916e-19)
(0.056893 0.0164287 1.53085e-19)
(0.0991993 0.0189378 1.34022e-19)
(0.149529 0.0225906 1.67571e-19)
(0.206807 0.0276816 2.56992e-19)
(0.269929 0.0343621 3.94554e-19)
(0.33773 0.0426613 3.91997e-19)
(0.408989 0.0525034 2.07833e-19)
(0.482444 0.0637251 -5.60136e-20)
(0.556827 0.0760936 1.40385e-20)
(0.630901 0.089325 -1.94076e-20)
(0.70351 0.103104 1.66941e-19)
(0.773615 0.117103 -4.51104e-20)
(0.84033 0.130999 4.99971e-19)
(0.902945 0.144488 -2.24228e-19)