/*--------------------------------*- C++ -*----------------------------------*\
  =========                 |
  \\      /  F ield         | OpenFOAM: The Open Source CFD Toolbox
   \\    /   O peration     | Website:  https://openfoam.org
    \\  /    A nd           | Version:  6.0
     \\/     M anipulation  |
\*---------------------------------------------------------------------------*/
FoamFile
{
    version     2.0;
    format      ascii;
    class       volVectorField;
    location    "9.4";
    object      U;
}
// * * * * * * * * * * * * * * * * * * * * * * * * * * * * * * * * * * * * * //

dimensions      [0 1 -1 0 0 0 0];

internalField   nonuniform List<vector> 
8000
(
(-0.000859264 0.000975143 -4.0774e-21)
(-0.00453923 0.00235484 2.17994e-20)
(-0.0112301 0.00330663 -2.65407e-20)
(-0.0194126 0.00395628 2.02217e-20)
(-0.0283436 0.00438707 9.86281e-21)
(-0.037631 0.0046602 -2.96205e-20)
(-0.0470001 0.00482335 -2.62428e-21)
(-0.0562752 0.00491388 -9.40671e-22)
(-0.06536 0.00496131 -1.54457e-20)
(-0.074213 0.00498921 -8.3896e-21)
(-0.0828322 0.00501644 6.23613e-21)
(-0.0912433 0.00505809 2.38297e-20)
(-0.0994901 0.00512596 -1.74985e-21)
(-0.107626 0.00522901 2.59013e-21)
(-0.115716 0.0053734 -2.41411e-20)
(-0.123852 0.00556227 1.49056e-20)
(-0.132112 0.00579635 -2.14466e-20)
(-0.140309 0.0060783 3.24811e-20)
(-0.148078 0.0064121 -3.56243e-23)
(-0.157271 0.00676195 7.17828e-21)
(-0.000989684 0.0028768 1.35394e-20)
(-0.00480634 0.0069709 -6.92323e-20)
(-0.0115126 0.00981701 -4.7874e-20)
(-0.0196373 0.0117787 -3.25457e-20)
(-0.0284602 0.0130967 -4.19119e-20)
(-0.0376011 0.0139484 9.19106e-21)
(-0.0467928 0.0144724 -4.84609e-20)
(-0.0558647 0.0147781 -1.0928e-20)
(-0.0647226 0.0149522 3.39206e-21)
(-0.0733267 0.0150644 3.63078e-20)
(-0.0816752 0.0151711 -3.97116e-20)
(-0.0897939 0.0153174 5.53206e-20)
(-0.0977269 0.0155393 -4.15095e-20)
(-0.105528 0.015864 -4.9354e-20)
(-0.113263 0.0163108 -6.82607e-20)
(-0.121024 0.0168901 4.34747e-20)
(-0.128894 0.0176047 -1.42342e-20)
(-0.136687 0.0184635 -5.17183e-20)
(-0.14403 0.0194798 4.89324e-20)
(-0.152775 0.0205463 -3.68509e-20)
(-0.00124405 0.0046998 1.32407e-19)
(-0.00532945 0.0114138 6.86658e-20)
(-0.0120685 0.0161002 7.72588e-20)
(-0.0200822 0.0193417 6.44004e-21)
(-0.028695 0.0215265 4.27379e-20)
(-0.0375495 0.0229418 5.33971e-20)
(-0.0463938 0.0238136 -9.70952e-20)
(-0.0550667 0.0243201 -5.152e-20)
(-0.0634791 0.024604 -6.72473e-20)
(-0.0715937 0.0247799 7.17742e-20)
(-0.0794097 0.0249413 -5.49082e-20)
(-0.0869532 0.0251638 -7.08374e-20)
(-0.0942686 0.0255078 -2.58278e-20)
(-0.101411 0.0260206 2.45562e-20)
(-0.108446 0.0267362 -6.98093e-21)
(-0.115469 0.0276737 9.78602e-21)
(-0.122571 0.0288404 1.1501e-19)
(-0.129572 0.0302533 -1.59864e-20)
(-0.136077 0.0319388 -1.17535e-19)
(-0.143944 0.0337185 1.57309e-19)
(-0.00161112 0.00639751 4.61718e-20)
(-0.00608999 0.0155791 -6.51125e-20)
(-0.0128842 0.0220174 -1.63835e-20)
(-0.0207447 0.0264849 3.06005e-20)
(-0.0290584 0.0295015 8.69506e-20)
(-0.0375013 0.0314551 1.90536e-19)
(-0.0458439 0.032652 1.86368e-19)
(-0.0539384 0.0333356 1.55584e-20)
(-0.0617039 0.0337009 1.14561e-19)
(-0.0691066 0.0339065 1.75573e-19)
(-0.0761476 0.0340817 -1.40617e-19)
(-0.0828533 0.0343328 2.08072e-19)
(-0.0892686 0.0347462 -4.74803e-20)
(-0.0954493 0.0353908 1.17933e-20)
(-0.101464 0.036318 4.96888e-20)
(-0.107412 0.0375595 6.63037e-20)
(-0.113394 0.0391298 -1.04009e-19)
(-0.119241 0.041058 -8.71504e-20)
(-0.12453 0.0433903 -1.54865e-19)
(-0.131124 0.0458783 2.28367e-19)
(-0.00207551 0.00793171 -2.40909e-20)
(-0.00706229 0.0193786 -2.46973e-19)
(-0.0139412 0.0274484 -7.31259e-20)
(-0.0216205 0.0330665 -1.78246e-19)
(-0.0295645 0.036865 6.73729e-20)
(-0.0374912 0.0393199 -1.06399e-19)
(-0.0451994 0.0408097 3.66574e-20)
(-0.0525595 0.0416365 -2.25778e-19)
(-0.0595009 0.0420443 1.19202e-19)
(-0.0659955 0.0422323 -1.42313e-19)
(-0.0720464 0.0423649 -1.26772e-19)
(-0.0776809 0.0425789 -1.42264e-19)
(-0.0829442 0.0429879 1.29349e-19)
(-0.0878936 0.0436848 -1.16422e-19)
(-0.0926 0.0447424 1.62252e-19)
(-0.0971696 0.0462095 4.71426e-20)
(-0.101716 0.0481133 1.16975e-19)
(-0.106087 0.0505005 5.1575e-20)
(-0.109828 0.0534466 -2.041e-19)
(-0.114802 0.0566376 3.37502e-19)
(-0.00261926 0.0092748 1.06508e-19)
(-0.00821587 0.0227452 8.10349e-21)
(-0.0152166 0.0322973 4.38821e-20)
(-0.0227036 0.0389699 1.53123e-19)
(-0.0302286 0.0434847 -2.34316e-20)
(-0.0375585 0.0463918 2.48928e-19)
(-0.0445259 0.0481317 1.1064e-19)
(-0.0510235 0.0490585 9.28839e-21)
(-0.0569939 0.0494593 2.85027e-19)
(-0.062416 0.0495707 9.36327e-20)
(-0.0672961 0.0495901 4.44618e-20)
(-0.0716621 0.0496841 1.41156e-19)
(-0.0755599 0.0499943 1.29667e-19)
(-0.0790481 0.0506407 2.37353e-19)
(-0.0822008 0.0517219 -2.12201e-19)
(-0.0851312 0.0533101 3.0136e-19)
(-0.0879706 0.0554522 4.56686e-21)
(-0.090589 0.0582211 -3.86576e-19)
(-0.0925027 0.0617354 5.02439e-19)
(-0.0955671 0.0656236 2.12221e-19)
(-0.00322364 0.0104111 -6.27464e-20)
(-0.00951807 0.0256351 -1.14074e-19)
(-0.016685 0.0364965 -2.37281e-19)
(-0.0239855 0.0441074 -7.0472e-21)
(-0.0310642 0.049257 4.05798e-20)
(-0.0377421 0.0525546 -3.03258e-19)
(-0.0438903 0.0544919 -2.25172e-19)
(-0.0494277 0.0554663 -3.21698e-20)
(-0.0543129 0.0558021 -2.85342e-19)
(-0.0585336 0.0557684 -1.97899e-19)
(-0.0621002 0.0555921 -5.77194e-20)
(-0.0650418 0.0554682 -1.86129e-19)
(-0.067404 0.0555665 -2.89624e-21)
(-0.0692466 0.0560364 -2.47998e-19)
(-0.0706468 0.0570076 1.04795e-19)
(-0.0717254 0.0585831 -1.19478e-19)
(-0.0726346 0.0608392 9.21742e-20)
(-0.0732746 0.0638863 -1.16685e-19)
(-0.0731374 0.0679049 -3.35264e-19)
(-0.0740674 0.0724819 -1.02554e-19)
(-0.00387092 0.0113368 -2.3226e-20)
(-0.0109366 0.028029 -2.51852e-20)
(-0.0183192 0.0400077 1.99015e-19)
(-0.0254538 0.0484228 -3.23992e-19)
(-0.032079 0.0541105 4.75214e-20)
(-0.0380732 0.0577248 -1.87287e-19)
(-0.0433503 0.0597973 8.85193e-20)
(-0.0478589 0.0607599 3.98366e-19)
(-0.0515767 0.0609667 -2.53943e-20)
(-0.0545025 0.0607132 -2.9776e-19)
(-0.0566518 0.0602514 5.41126e-20)
(-0.0580548 0.059801 1.03919e-20)
(-0.0587567 0.0595591 -6.16667e-20)
(-0.0588171 0.0597059 5.8277e-21)
(-0.0583153 0.0604064 5.41492e-19)
(-0.0573794 0.0618033 -7.69375e-20)
(-0.0561842 0.0640141 -1.50999e-19)
(-0.0546689 0.0672026 -2.71869e-19)
(-0.0523121 0.0716358 2.7718e-19)
(-0.0509467 0.0768848 1.20742e-19)
(-0.00454588 0.0120592 1.16833e-19)
(-0.0124416 0.0299307 -1.52972e-19)
(-0.0200915 0.0428213 2.16191e-19)
(-0.0270908 0.0518915 2.17592e-19)
(-0.03327 0.0580067 2.00558e-19)
(-0.0385671 0.0618531 4.06846e-19)
(-0.0429423 0.0639913 2.63288e-19)
(-0.0463773 0.0648785 -5.66085e-19)
(-0.0488723 0.0648908 2.89738e-19)
(-0.0504398 0.0643427 2.2766e-19)
(-0.0511017 0.0635045 -3.1264e-21)
(-0.05089 0.062616 2.55497e-19)
(-0.0498483 0.0618977 1.99763e-19)
(-0.0480343 0.0615597 -1.08475e-19)
(-0.0455274 0.0618056 3.68174e-19)
(-0.0424614 0.0628254 -4.56614e-19)
(-0.0390339 0.0647922 1.83282e-19)
(-0.0352301 0.067943 2.36349e-19)
(-0.0305324 0.0726641 -5.55714e-20)
(-0.026771 0.0785504 4.79003e-19)
(-0.00523692 0.0125949 2.35232e-19)
(-0.0140074 0.0313637 1.21638e-20)
(-0.0219733 0.0449539 -8.4346e-20)
(-0.0288708 0.0545181 -8.9019e-20)
(-0.034618 0.0609389 -4.12355e-19)
(-0.0392139 0.0649242 5.83461e-20)
(-0.0426674 0.0670543 1.65578e-19)
(-0.0449975 0.067803 -7.95993e-20)
(-0.0462301 0.0675596 6.57016e-20)
(-0.0463943 0.0666497 -1.73982e-20)
(-0.0455208 0.0653539 -8.60308e-20)
(-0.043644 0.0639243 8.15897e-20)
(-0.0408053 0.0625983 -3.56503e-19)
(-0.0370585 0.0616115 3.41559e-19)
(-0.0324799 0.0612053 -2.96808e-19)
(-0.0272056 0.0616233 9.1643e-20)
(-0.0214542 0.0631073 2.09373e-19)
(-0.0152621 0.0659923 -4.3565e-20)
(-0.00813666 0.0708257 -1.45363e-19)
(-0.00192794 0.077283 -9.90279e-20)
(-0.00593657 0.012967 -2.93088e-19)
(-0.0156123 0.0323666 -1.91111e-20)
(-0.0239339 0.0464423 6.16743e-20)
(-0.0307571 0.0563319 1.58372e-19)
(-0.0360816 0.0629285 -2.23617e-19)
(-0.0399682 0.0669544 -1.95134e-19)
(-0.0424774 0.0690023 4.55672e-19)
(-0.0436684 0.0695549 -2.51715e-19)
(-0.0435971 0.0690068 -1.62487e-19)
(-0.0423125 0.0676859 -2.33401e-19)
(-0.0398568 0.0658741 1.54637e-19)
(-0.0362684 0.0638258 -4.04113e-21)
(-0.0315871 0.0617855 -2.89134e-19)
(-0.0258607 0.0600049 -4.7426e-19)
(-0.0191592 0.0587575 3.61389e-19)
(-0.0116164 0.0583398 -2.93711e-19)
(-0.00346748 0.0590733 4.16852e-19)
(0.00519772 0.0614164 -1.16846e-19)
(0.0148246 0.0661286 2.47978e-19)
(0.0235016 0.0730451 -8.3458e-19)
(-0.00664135 0.0132021 -5.93717e-19)
(-0.0172387 0.0329875 3.88916e-19)
(-0.0259393 0.0473381 5.28897e-20)
(-0.0326978 0.057381 1.02116e-20)
(-0.0375904 0.0640193 -2.39399e-19)
(-0.0407397 0.0679861 3.52019e-19)
(-0.0422601 0.0698819 3.85344e-20)
(-0.0422543 0.0701924 -7.22715e-20)
(-0.0408113 0.0693104 -2.31733e-19)
(-0.038004 0.0675588 2.50674e-19)
(-0.0338898 0.0652113 6.36141e-19)
(-0.0285142 0.0625134 -1.40611e-19)
(-0.0219168 0.0597037 3.17889e-19)
(-0.01414 0.0570361 -3.76308e-19)
(-0.00524467 0.054802 -3.61329e-19)
(0.00464204 0.0533421 2.17494e-19)
(0.015274 0.0530585 3.60879e-19)
(0.0265097 0.0545539 -1.16885e-18)
(0.0387284 0.0588573 1.36934e-19)
(0.049896 0.0660666 1.85072e-19)
(-0.00735103 0.0133273 4.39651e-19)
(-0.0188705 0.0332776 1.44317e-19)
(-0.0279486 0.0476998 7.51524e-19)
(-0.034622 0.0577249 3.85682e-20)
(-0.0390389 0.0642704 -8.35427e-20)
(-0.0413844 0.0680813 -3.9757e-19)
(-0.0418278 0.0697633 3.38128e-19)
(-0.0405177 0.069802 6.06336e-19)
(-0.0375791 0.0685844 4.04358e-19)
(-0.0331124 0.066422 2.91625e-19)
(-0.0271944 0.0635728 2.51429e-19)
(-0.0198822 0.0602634 -4.52624e-19)
(-0.0112198 0.0567123 -1.42355e-19)
(-0.00124702 0.0531573 -1.04418e-19)
(0.00998292 0.0498866 1.12237e-18)
(0.0223517 0.0472631 -3.56183e-21)
(0.0356071 0.0457549 -2.80566e-19)
(0.0495602 0.0461143 -8.91332e-20)
(0.0645157 0.0496954 8.06083e-19)
(0.0782436 0.056983 1.01152e-19)
(-0.00806724 0.0133674 -2.18547e-20)
(-0.0204908 0.0332852 -4.15215e-19)
(-0.0299109 0.0475862 -6.17062e-19)
(-0.0364353 0.0574269 -1.71463e-19)
(-0.0402817 0.063749 9.46136e-20)
(-0.0416978 0.0673128 2.04106e-20)
(-0.0409085 0.0687309 5.40419e-19)
(-0.0381088 0.0684881 -6.70374e-19)
(-0.0334616 0.0669643 -2.54969e-19)
(-0.0270974 0.0644575 -5.14012e-19)
(-0.0191167 0.061206 -4.38187e-19)
(-0.00959402 0.0574102 -3.8787e-19)
(0.00141479 0.0532572 9.69272e-20)
(0.013864 0.0489506 -1.25844e-19)
(0.027701 0.0447488 5.40833e-19)
(0.0428118 0.0410032 -2.96761e-19)
(0.0589377 0.0382108 -9.31928e-19)
(0.0758468 0.0372499 -1.88733e-19)
(0.0937785 0.0398357 4.60527e-19)
(0.110241 0.0469746 -3.99162e-19)
(-0.00879176 0.0133422 -7.01484e-20)
(-0.0220784 0.0330507 5.07123e-19)
(-0.0317608 0.0470498 -6.46362e-19)
(-0.0380151 0.0565473 1.49523e-19)
(-0.0411282 0.0625224 -3.07314e-19)
(-0.0414107 0.0657573 6.84106e-19)
(-0.039142 0.0668748 -4.88888e-19)
(-0.0345626 0.0663617 5.59396e-19)
(-0.0278729 0.0645927 -5.29957e-19)
(-0.0192348 0.0618545 2.26403e-19)
(-0.008776 0.0583669 -1.09809e-19)
(0.0034044 0.0543038 -2.75564e-19)
(0.0172281 0.049816 -3.40692e-19)
(0.0326295 0.0450608 3.4008e-19)
(0.0495396 0.0402426 -2.84946e-19)
(0.0678338 0.0356609 -6.24119e-19)
(0.0872359 0.0317834 6.50467e-19)
(0.107468 0.0295492 -8.29981e-19)
(0.128737 0.0310244 3.7474e-19)
(0.148274 0.0378554 1.46556e-20)
(-0.00952447 0.013265 -6.34163e-19)
(-0.0236033 0.0326033 -6.83974e-19)
(-0.0334141 0.046132 7.89066e-20)
(-0.0392071 0.0551388 -6.58402e-19)
(-0.0413409 0.0606541 -5.82021e-20)
(-0.0401886 0.0634899 -4.83994e-19)
(-0.0360821 0.064285 -1.10915e-19)
(-0.0293046 0.0635324 -3.23978e-19)
(-0.0200916 0.0616071 3.3623e-21)
(-0.00863618 0.0587903 -1.41503e-19)
(0.00490403 0.0552905 1.03484e-20)
(0.0203979 0.0512626 -4.08605e-19)
(0.0377314 0.0468269 4.51284e-19)
(0.0567983 0.0420945 -6.39484e-19)
(0.0774874 0.0372044 2.27228e-19)
(0.0996341 0.0323718 8.82762e-21)
(0.122917 0.027968 -3.61489e-19)
(0.146991 0.0248838 8.9901e-19)
(0.172078 0.0254501 -2.13805e-19)
(0.195236 0.0320123 -1.39752e-19)
(-0.0102612 0.0131416 7.11133e-19)
(-0.025023 0.0319581 3.83732e-19)
(-0.0347639 0.0448611 3.5668e-19)
(-0.039822 0.0532435 5.32491e-20)
(-0.0406331 0.0582005 4.81816e-19)
(-0.0376329 0.0605826 6.94018e-19)
(-0.0312027 0.0610499 5.6752e-19)
(-0.0216642 0.0601075 5.10654e-20)
(-0.00928503 0.058137 4.15546e-19)
(0.00571204 0.0554228 6.41776e-19)
(0.0231366 0.0521736 -1.66141e-19)
(0.0428174 0.0485393 2.79414e-19)
(0.0645893 0.0446264 2.2553e-19)
(0.0882811 0.040516 2.2989e-19)
(0.113704 0.0362922 1.35988e-18)
(0.140613 0.0320781 -5.09906e-19)
(0.168593 0.0280996 -3.085e-20)
(0.197184 0.0250662 5.92443e-19)
(0.226654 0.025395 -3.3608e-19)
(0.254189 0.0321121 1.66321e-19)
(-0.0109918 0.0129702 -5.74361e-19)
(-0.0262785 0.0311165 3.64593e-20)
(-0.0356759 0.0432513 -4.58746e-19)
(-0.0396327 0.0508931 -5.95871e-20)
(-0.0386695 0.0552132 3.3542e-19)
(-0.0332852 0.057107 -9.98594e-19)
(-0.0239079 0.0572615 -8.36628e-22)
(-0.0108945 0.0561985 4.64512e-19)
(0.00545808 0.0543126 4.35843e-19)
(0.0248969 0.0519 -1.92218e-19)
(0.0471944 0.0491816 6.32847e-20)
(0.0721291 0.0463195 1.46671e-19)
(0.0994671 0.0434297 -6.96013e-20)
(0.128945 0.0405944 -7.80008e-19)
(0.160255 0.0378786 1.97391e-19)
(0.193015 0.0353478 5.44419e-19)
(0.226657 0.033088 -7.76283e-19)
(0.260514 0.0315314 3.78306e-19)
(0.29487 0.032973 1.01546e-19)
(0.327593 0.0410625 5.13189e-19)
(-0.0116983 0.0127423 -8.43633e-20)
(-0.0272907 0.0300674 -4.01718e-19)
(-0.0359859 0.0413051 1.84897e-19)
(-0.0383727 0.0481119 9.29252e-22)
(-0.035067 0.0517419 -8.04391e-19)
(-0.0266332 0.0531408 1.25677e-19)
(-0.0135457 0.0530248 -2.37798e-20)
(0.00380423 0.0519358 1.62075e-19)
(0.0250888 0.0502845 -7.41746e-19)
(0.05002 0.0483844 -5.20053e-20)
(0.0783243 0.0464768 -1.74248e-19)
(0.109717 0.0447495 1.54831e-19)
(0.143879 0.0433507 5.23288e-19)
(0.180431 0.0424007 -8.08909e-20)
(0.21891 0.0420048 3.15237e-20)
(0.258736 0.042258 2.05967e-19)
(0.299089 0.0432195 -5.11701e-20)
(0.338926 0.0451491 4.16805e-19)
(0.37828 0.050262 -2.4198e-19)
(0.416166 0.0627658 -3.77782e-19)
(-0.0123535 0.0124433 7.85231e-20)
(-0.0279576 0.0287897 1.93643e-20)
(-0.0354973 0.0390169 1.60945e-19)
(-0.0357357 0.0449212 3.93956e-19)
(-0.0293981 0.0478419 2.20955e-19)
(-0.0171195 0.0487761 2.29554e-20)
(0.000575378 0.0484701 -2.63336e-19)
(0.0232547 0.0474846 6.75886e-20)
(0.0505498 0.0462455 3.54852e-19)
(0.0821236 0.0450814 -6.01162e-19)
(0.117639 0.0442519 4.53524e-19)
(0.156734 0.0439695 -3.41758e-19)
(0.198992 0.0444184 2.90026e-19)
(0.243923 0.0457732 -6.25775e-19)
(0.290941 0.0482221 6.88865e-19)
(0.339321 0.0519827 -7.36904e-19)
(0.38806 0.0572916 -1.91781e-19)
(0.435753 0.0646695 6.01604e-19)
(0.481466 0.0768084 -2.03452e-19)
(0.52284 0.097913 9.19403e-20)
(-0.0129198 0.0120549 -5.92731e-20)
(-0.0281534 0.027257 5.59626e-19)
(-0.0339803 0.0363783 -2.38734e-21)
(-0.0313777 0.0413458 -3.47337e-19)
(-0.0211966 0.0435807 -2.33282e-19)
(-0.00415392 0.0441295 4.27525e-19)
(0.019163 0.043765 -1.693e-19)
(0.0482639 0.0430621 -2.13088e-20)
(0.0827142 0.0424539 3.5248e-19)
(0.122095 0.042272 -4.37861e-19)
(0.16597 0.0427763 4.79643e-20)
(0.213861 0.0441781 -5.69034e-19)
(0.265232 0.046661 2.99612e-19)
(0.319488 0.0504055 -8.57215e-19)
(0.375984 0.0556195 1.36528e-18)
(0.434048 0.062581 -2.50534e-19)
(0.493005 0.071722 2.5986e-19)
(0.552393 0.0841069 -6.7474e-19)
(0.612481 0.102804 6.41022e-21)
(0.664666 0.126283 7.46209e-19)
(-0.0133493 0.0115573 -1.79336e-19)
(-0.0277272 0.0254417 1.54846e-19)
(-0.0311733 0.0333842 -5.70935e-19)
(-0.0249201 0.0374216 8.44424e-19)
(-0.00996682 0.0390468 -6.09536e-19)
(0.0128693 0.0393505 3.14762e-20)
(0.0429127 0.039125 -6.56949e-19)
(0.0795794 0.0389494 4.69655e-19)
(0.122321 0.0392502 -6.7129e-20)
(0.170579 0.0403417 -4.14292e-19)
(0.223749 0.0424543 -2.41668e-19)
(0.281162 0.0457551 2.55402e-19)
(0.342086 0.0503655 1.68791e-19)
(0.405737 0.0563771 -7.4648e-19)
(0.471318 0.0638672 2.69634e-19)
(0.538069 0.0729119 -3.96916e-19)
(0.605326 0.0835993 4.8296e-20)
(0.672702 0.096172 -3.3438e-19)
(0.740667 0.11169 1.31896e-19)
(0.802683 0.128313 -4.9312e-19)
(-0.0135833 0.0109309 5.10684e-19)
(-0.0265048 0.0233212 -3.09515e-19)
(-0.0267855 0.0300409 2.54994e-19)
(-0.0159573 0.0332035 -3.21851e-19)
(0.00480383 0.0343579 5.39265e-19)
(0.0345493 0.0346291 -9.37963e-21)
(0.0724728 0.0348175 -6.56168e-20)
(0.117839 0.0354921 -4.86686e-20)
(0.169912 0.0370528 2.99461e-19)
(0.227908 0.0397704 5.09042e-19)
(0.290959 0.0438126 -3.00727e-19)
(0.358112 0.0492629 2.92223e-19)
(0.42834 0.0561357 5.33332e-19)
(0.50058 0.064389 -3.73978e-19)
(0.573782 0.0739337 -7.57283e-19)
(0.646967 0.0846373 1.38287e-18)
(0.71928 0.0963153 -2.4707e-19)
(0.790071 0.108752 -7.9443e-20)
(0.859219 0.122108 8.46565e-19)
(0.922746 0.136971 -1.82276e-19)
(-0.0135531 0.0101599 -8.30775e-19)
(-0.0242901 0.0208841 -5.53037e-19)
(-0.0205019 0.026374 -2.1227e-19)
(-0.00406618 0.0287746 4.09632e-19)
(0.0236267 0.0296686 -9.24989e-19)
(0.0614493 0.0302005 4.79088e-19)
(0.1084 0.0311613 6.07139e-20)
(0.163506 0.0330879 6.13452e-20)
(0.225749 0.0363266 -6.27505e-19)
(0.294008 0.0410711 -2.21606e-19)
(0.36705 0.0473889 -3.90407e-19)
(0.44354 0.0552416 3.76841e-19)
(0.522087 0.0645034 1.06575e-19)
(0.601304 0.0749777 2.04976e-20)
(0.679872 0.0864114 4.87884e-19)
(0.756603 0.0985045 -4.95119e-19)
(0.830493 0.110911 -2.01771e-20)
(0.900762 0.123257 1.40212e-20)
(0.966935 0.135255 6.90413e-20)
(1.02734 0.149287 3.71874e-19)
(-0.0131815 0.00923412 2.64417e-19)
(-0.0208696 0.018136 6.80945e-19)
(-0.0119913 0.022436 5.46414e-19)
(0.0111802 0.0242544 -1.88429e-19)
(0.0469888 0.0251779 6.5561e-19)
(0.0940596 0.026348 -5.52321e-20)
(0.151103 0.0285206 -7.78312e-20)
(0.216802 0.0321685 4.63091e-20)
(0.289728 0.0375462 6.3396e-19)
(0.368312 0.0447277 3.72428e-19)
(0.450853 0.0536378 1.08761e-19)
(0.535575 0.0640793 6.84005e-21)
(0.620704 0.0757619 -7.19434e-19)
(0.70456 0.0883299 6.25135e-19)
(0.785635 0.101388 1.06445e-19)
(0.862661 0.114523 -1.76209e-19)
(0.934647 0.127317 -7.56659e-19)
(1.00091 0.139389 -6.21587e-20)
(1.06097 0.150245 2.95684e-19)
(1.11495 0.163252 -5.87508e-20)
(-0.0123833 0.00815152 -6.70272e-19)
(-0.0160163 0.0151052 2.80449e-19)
(-0.000915332 0.0183145 -1.36985e-18)
(0.0301954 0.0198069 5.61344e-19)
(0.0753243 0.0211341 -4.47765e-19)
(0.132755 0.0234029 3.30187e-19)
(0.200789 0.0272957 -5.13165e-19)
(0.277629 0.0331761 4.71009e-20)
(0.361307 0.0411555 -2.64496e-20)
(0.449695 0.0511376 1.37987e-19)
(0.540563 0.0628593 1.99043e-19)
(0.631691 0.0759342 -3.761e-19)
(0.720987 0.0898975 1.9931e-19)
(0.806597 0.104249 1.82474e-19)
(0.886996 0.118493 7.83785e-19)
(0.96104 0.132164 -3.41484e-19)
(1.02797 0.144853 -2.24077e-19)
(1.08741 0.156246 3.75641e-19)
(1.13921 0.165862 1.96665e-19)
(1.18453 0.177314 -3.75343e-19)
(-0.0110675 0.00692003 5.86638e-19)
(-0.00949607 0.0118476 5.65598e-19)
(0.0130592 0.0141382 1.63408e-19)
(0.0533579 0.0156459 6.88163e-19)
(0.108981 0.0178374 3.3836e-19)
(0.177746 0.0217391 -6.10086e-19)
(0.2574 0.0279065 9.24362e-19)
(0.345512 0.0365329 -4.54942e-19)
(0.439455 0.0475246 4.54155e-19)
(0.53647 0.0605593 5.87311e-19)
(0.633806 0.0751475 -3.35575e-19)
(0.728881 0.0906993 6.38161e-20)
(0.819439 0.106589 3.54342e-19)
(0.903665 0.122213 2.48973e-19)
(0.980249 0.137033 5.70808e-19)
(1.0484 0.150607 -2.29773e-19)
(1.1078 0.162604 -2.9455e-20)
(1.15855 0.172827 3.54805e-19)
(1.20099 0.18095 -7.69843e-20)
(1.23681 0.190359 -7.21639e-23)
(-0.00913878 0.00555915 -3.02725e-19)
(-0.00107503 0.00845065 -1.11264e-18)
(0.0302449 0.0100807 2.62164e-19)
(0.0809862 0.0120365 -1.9964e-19)
(0.148183 0.0156348 -4.61264e-19)
(0.229032 0.0217593 -3.2972e-19)
(0.320561 0.0307668 -2.0372e-19)
(0.419562 0.0426046 4.94614e-19)
(0.522659 0.0569054 -2.93739e-19)
(0.626468 0.0730716 -3.00972e-19)
(0.727815 0.0903677 -3.7988e-19)
(0.823941 0.108014 -6.26749e-20)
(0.91267 0.125269 -4.30872e-20)
(0.992485 0.141492 -8.73425e-19)
(1.06254 0.156183 4.21111e-19)
(1.12259 0.168997 -5.54153e-19)
(1.1729 0.179742 1.71706e-19)
(1.21413 0.188372 -1.30865e-18)
(1.24712 0.194783 3.94982e-19)
(1.27377 0.201887 4.93652e-19)
(-0.00649981 0.0041012 -7.60969e-20)
(0.00947176 0.00503519 5.42161e-19)
(0.0509168 0.00636183 3.48051e-20)
(0.11331 0.00929163 8.37361e-20)
(0.192992 0.0149094 -1.70299e-19)
(0.28636 0.0238732 -2.89089e-21)
(0.389551 0.0362513 -4.42739e-21)
(0.498473 0.0516601 -1.02928e-19)
(0.608989 0.0693947 3.65199e-19)
(0.717193 0.0885537 1.40992e-19)
(0.819692 0.108169 6.39443e-19)
(0.913829 0.12732 -1.74123e-19)
(0.997796 0.145229 1.21172e-19)
(1.07064 0.161305 -1.52836e-20)
(1.13217 0.175169 3.34542e-19)
(1.18282 0.186638 2.03489e-19)
(1.22348 0.195699 4.87237e-19)
(1.2553 0.202469 -7.85256e-19)
(1.27955 0.207062 9.84178e-19)
(1.29816 0.21186 -3.11261e-19)
(-0.00305419 0.00259211 -7.05739e-19)
(0.0223495 0.0017564 -2.20689e-19)
(0.0752913 0.00324449 1.72223e-19)
(0.150441 0.00776324 1.0866e-19)
(0.24327 0.0160617 1.11742e-19)
(0.349186 0.0284683 1.13118e-19)
(0.463296 0.044659 -2.83476e-19)
(0.58058 0.0638362 -1.17007e-19)
(0.696233 0.0849142 3.64309e-20)
(0.806046 0.106695 -3.46745e-19)
(0.906712 0.128032 -1.56446e-19)
(0.995995 0.147954 9.44611e-19)
(1.07275 0.165744 -2.43911e-19)
(1.13678 0.180955 -3.3435e-19)
(1.18868 0.193398 -1.57363e-19)
(1.22956 0.203095 1.0968e-19)
(1.26084 0.210222 1.3205e-19)
(1.28409 0.215046 -6.32411e-19)
(1.30081 0.217857 9.11735e-19)
(1.31286 0.220549 -7.89088e-19)
(0.00128999 0.00109191 -7.95117e-20)
(0.0377313 -0.0011976 2.272e-20)
(0.103506 0.00102885 -2.93013e-20)
(0.192344 0.00782768 4.26688e-19)
(0.298653 0.0194853 2.37446e-20)
(0.41668 0.0358774 1.56886e-19)
(0.54041 0.0561806 -3.26308e-19)
(0.663962 0.0791173 -1.18509e-20)
(0.782082 0.103216 4.52983e-19)
(0.89058 0.127037 6.29429e-20)
(0.986595 0.149351 -3.93702e-19)
(1.06863 0.16925 -3.4644e-20)
(1.13642 0.186182 -3.21535e-19)
(1.19064 0.199924 3.20732e-19)
(1.23265 0.210521 4.42896e-19)
(1.26414 0.218206 -4.8709e-20)
(1.28695 0.223329 -5.88569e-20)
(1.30285 0.226276 1.79367e-19)
(1.31344 0.227449 -5.73789e-19)
(1.32046 0.228341 5.06375e-19)
(0.00661571 -0.000325246 8.02874e-20)
(0.0557455 -0.00360885 -5.16711e-19)
(0.135597 4.25334e-05 1.38181e-19)
(0.238812 0.00986724 -4.29797e-19)
(0.358542 0.0255396 1.4791e-19)
(0.487732 0.0463485 -5.49329e-19)
(0.619266 0.0708751 2.2167e-19)
(0.746591 0.097334 -7.06912e-20)
(0.864337 0.123913 -2.92504e-21)
(0.96873 0.149034 7.2016e-20)
(1.05771 0.171515 -2.61874e-19)
(1.13077 0.190629 -3.73121e-19)
(1.18862 0.206079 -7.61007e-20)
(1.23283 0.217913 -3.41611e-20)
(1.26537 0.22642 -8.65049e-20)
(1.2884 0.232028 -2.80504e-20)
(1.30396 0.235219 -8.39476e-20)
(1.31388 0.236455 -7.26205e-20)
(1.31973 0.236196 -2.14762e-19)
(1.32303 0.235626 3.39829e-19)
(0.012992 -0.00157168 1.92221e-19)
(0.0764615 -0.00523469 -2.13595e-19)
(0.171484 0.000627954 4.60036e-19)
(0.289458 0.0142487 -1.98881e-19)
(0.422106 0.0345231 5.31665e-19)
(0.561018 0.0600209 7.85704e-21)
(0.698115 0.0886644 2.67127e-19)
(0.826496 0.118185 -7.18363e-20)
(0.9411 0.146533 2.98229e-19)
(1.03897 0.172133 2.1256e-20)
(1.11914 0.193986 7.07628e-19)
(1.18221 0.211655 -4.87844e-19)
(1.22991 0.225155 6.59564e-20)
(1.26452 0.234819 1.25378e-19)
(1.28853 0.24116 6.51809e-19)
(1.30429 0.244756 -2.34007e-19)
(1.31393 0.246177 -4.6207e-20)
(1.31918 0.245914 -2.43353e-19)
(1.32148 0.244447 -2.51784e-20)
(1.32215 0.242721 1.21467e-19)
(0.0204687 -0.00254753 -9.18676e-20)
(0.0998782 -0.005815 2.65993e-19)
(0.210955 0.00312707 -2.73165e-19)
(0.343706 0.0213013 1.07564e-19)
(0.488314 0.0466502 -1.29326e-19)
(0.635068 0.0769138 4.73915e-19)
(0.775209 0.109343 -6.6304e-20)
(0.901923 0.141276 1.62202e-19)
(1.01091 0.170574 -9.5812e-20)
(1.10038 0.195825 -2.70662e-21)
(1.17063 0.216343 1.08645e-19)
(1.22342 0.232051 -8.41425e-20)
(1.26133 0.243302 2.17909e-19)
(1.28722 0.250691 -1.08751e-19)
(1.30384 0.254911 -4.76081e-19)
(1.31362 0.256644 4.72667e-19)
(1.31859 0.256495 -2.12217e-19)
(1.32032 0.254951 1.69345e-19)
(1.32006 0.252484 2.92511e-19)
(1.3189 0.249857 1.20099e-19)
(0.0290712 -0.003143 2.28791e-19)
(0.125913 -0.00508149 -4.71668e-19)
(0.253659 0.00786454 9.014e-20)
(0.400812 0.0312951 -6.55673e-20)
(0.555985 0.062035 -2.65143e-19)
(0.708367 0.0969268 -2.08065e-19)
(0.84893 0.132605 -4.10211e-20)
(0.971446 0.166163 -3.70557e-19)
(1.07279 0.195557 -2.26501e-20)
(1.1526 0.219693 -6.8774e-20)
(1.21249 0.238296 -1.86321e-19)
(1.25526 0.251687 -4.14566e-20)
(1.28417 0.260538 -1.42196e-19)
(1.30244 0.265668 -2.36541e-19)
(1.31291 0.267893 2.41702e-19)
(1.31793 0.267948 3.29211e-20)
(1.31933 0.266434 6.55888e-20)
(1.31848 0.263805 -2.76994e-19)
(1.31641 0.260514 -7.14451e-21)
(1.31402 0.257178 -4.25769e-19)
(0.0387954 -0.00324153 2.50079e-19)
(0.154396 -0.00276864 1.6702e-19)
(0.299111 0.0151303 -2.69976e-19)
(0.459886 0.0444239 4.21548e-19)
(0.623854 0.0806848 -4.56373e-20)
(0.779451 0.119854 1.57608e-19)
(0.917891 0.158077 5.45932e-20)
(1.03403 0.192399 1.93124e-19)
(1.12627 0.221063 -1.51247e-19)
(1.19576 0.243424 5.0326e-20)
(1.24538 0.259678 -4.82336e-20)
(1.27881 0.27054 -2.10281e-20)
(1.29977 0.276962 4.0238e-20)
(1.31161 0.279928 -7.39356e-20)
(1.31711 0.280325 -2.26087e-20)
(1.31844 0.278892 -6.92523e-20)
(1.31718 0.276197 -1.12372e-19)
(1.31448 0.272646 7.26184e-20)
(1.31117 0.268668 -9.91406e-20)
(1.30796 0.264755 4.28916e-19)
(0.0496048 -0.00272377 -1.24611e-19)
(0.185067 0.00137417 -3.53748e-19)
(0.346704 0.0251632 -4.71319e-20)
(0.519933 0.0607926 -1.30355e-20)
(0.690644 0.102502 -1.58819e-19)
(0.846993 0.145404 -2.60897e-19)
(0.980998 0.185352 8.53177e-20)
(1.08904 0.219566 -1.17241e-19)
(1.17126 0.246751 -1.31154e-19)
(1.23032 0.266808 7.30113e-20)
(1.27021 0.280419 -5.51093e-20)
(1.29524 0.288661 -1.11326e-19)
(1.30937 0.29271 -3.60849e-21)
(1.31594 0.293652 7.54077e-20)
(1.31754 0.292396 -7.6688e-20)
(1.31607 0.28965 1.06436e-19)
(1.31288 0.285927 2.87105e-20)
(1.30889 0.281579 7.19853e-20)
(1.30474 0.277014 1.39858e-19)
(1.301 0.272608 -1.19806e-19)
(0.0614274 -0.00147237 1.18901e-19)
(0.217577 0.00757006 -1.02251e-20)
(0.395725 0.0381362 5.36671e-20)
(0.579902 0.0804103 -7.26403e-20)
(0.755131 0.127293 6.13883e-21)
(0.909864 0.173227 2.5236e-19)
(1.03747 0.214019 -1.65638e-19)
(1.13621 0.247294 7.01887e-20)
(1.20801 0.272359 6.18926e-20)
(1.25696 0.289714 -1.73526e-19)
(1.28793 0.300512 1.62996e-19)
(1.30563 0.306137 1.48645e-21)
(1.31407 0.307921 -1.14629e-19)
(1.31643 0.306996 1.3812e-19)
(1.31503 0.304252 -5.47598e-20)
(1.3115 0.30034 4.18413e-20)
(1.30693 0.295709 -4.68153e-20)
(1.30205 0.290654 -1.87879e-20)
(1.29736 0.285571 -1.63287e-19)
(1.29328 0.280717 5.00904e-20)
(0.0741552 0.000622958 -3.99014e-20)
(0.251498 0.0160025 1.07503e-19)
(0.445388 0.0541456 1.68336e-20)
(0.638733 0.103191 7.04302e-20)
(0.816205 0.154786 3.36761e-20)
(0.967171 0.20294 1.5796e-20)
(1.08684 0.243688 8.93573e-20)
(1.17554 0.275266 -1.08075e-20)
(1.23698 0.297693 3.93834e-20)
(1.27647 0.312075 6.32134e-20)
(1.2995 0.319991 3.04848e-20)
(1.31097 0.323064 2.18823e-20)
(1.31478 0.322717 8.8698e-20)
(1.31384 0.320082 -8.58556e-20)
(1.31019 0.315992 1.84158e-20)
(1.30516 0.311033 -1.7249e-20)
(1.29965 0.30558 2.66605e-20)
(1.29419 0.29988 2.23348e-20)
(1.28916 0.294321 4.65761e-20)
(1.28488 0.289038 1.91005e-21)
(0.0876455 0.00366008 2.36686e-20)
(0.286336 0.0268048 2.16198e-20)
(0.494861 0.0732046 -2.9976e-20)
(0.695406 0.128959 1.87379e-20)
(0.872909 0.184647 1.0597e-20)
(1.01826 0.234145 -3.29871e-20)
(1.12889 0.273995 1.08759e-20)
(1.20728 0.303222 1.98797e-21)
(1.25877 0.322614 1.87474e-20)
(1.28965 0.333861 -5.03065e-20)
(1.30579 0.338901 -1.57727e-22)
(1.31209 0.339525 1.39366e-20)
(1.31221 0.337191 -1.11084e-20)
(1.30876 0.332986 1.12382e-20)
(1.30345 0.32767 2.93303e-20)
(1.29738 0.321751 -1.66945e-20)
(1.29123 0.315536 4.64726e-21)
(1.28542 0.309231 1.82867e-20)
(1.28021 0.303217 -3.01174e-20)
(1.27583 0.297507 1.4481e-20)
(0.101724 0.00771948 6.56791e-20)
(0.321542 0.0400512 -3.58085e-20)
(0.5433 0.0952403 4.2228e-20)
(0.748982 0.157458 -3.1438e-20)
(0.924465 0.2165 -1.41111e-20)
(1.06272 0.266446 4.28164e-21)
(1.16363 0.304612 -1.38516e-20)
(1.23181 0.330947 4.98075e-20)
(1.27402 0.34702 -4.14959e-20)
(1.29725 0.355057 9.74835e-21)
(1.30755 0.357282 -7.25769e-21)
(1.30965 0.355583 -4.73433e-20)
(1.30692 0.351399 4.59436e-20)
(1.3016 0.345746 1.75115e-20)
(1.29511 0.339298 -1.7411e-20)
(1.28834 0.332483 4.09077e-20)
(1.2818 0.325544 -5.96791e-22)
(1.2758 0.318656 -3.97014e-20)
(1.27052 0.312197 2.94001e-20)
(1.26612 0.30605 9.30112e-21)
(0.116188 0.0128598 -2.30263e-20)
(0.356537 0.0557514 6.67101e-20)
(0.589884 0.120097 7.72045e-20)
(0.798632 0.188366 -3.64853e-20)
(0.970276 0.249939 6.34414e-20)
(1.10032 0.299457 1.00485e-19)
(1.19124 0.335244 -5.56863e-21)
(1.24961 0.358257 -1.73085e-20)
(1.28337 0.370831 8.53414e-20)
(1.29996 0.375655 4.16515e-20)
(1.30543 0.37516 -7.58221e-21)
(1.30421 0.371268 6.22009e-20)
(1.29931 0.365361 -6.67932e-20)
(1.29264 0.358361 1.0407e-19)
(1.28537 0.350852 -1.73622e-20)
(1.27817 0.343185 4.98672e-20)
(1.27142 0.335547 9.02722e-21)
(1.26536 0.328088 3.57109e-20)
(1.26009 0.321184 -3.39709e-20)
(1.25575 0.314583 8.26132e-21)
(0.130814 0.0191138 -3.58396e-20)
(0.390727 0.073847 8.45484e-20)
(0.633837 0.14754 6.2928e-20)
(0.843653 0.221305 -9.56411e-21)
(1.00992 0.284544 9.83539e-20)
(1.13102 0.33281 -7.37614e-20)
(1.21198 0.365625 -5.82177e-21)
(1.26118 0.384996 6.50024e-20)
(1.28742 0.393975 2.06159e-20)
(1.29839 0.395635 2.89789e-20)
(1.29994 0.392536 -4.28445e-20)
(1.29616 0.386582 1.11951e-19)
(1.28969 0.379063 2.09765e-20)
(1.28211 0.370799 -9.93262e-20)
(1.27435 0.362282 1.45507e-19)
(1.26692 0.353793 -1.71802e-19)
(1.26012 0.34547 -7.90516e-20)
(1.2541 0.337444 1.31042e-20)
(1.24892 0.330092 7.67636e-20)
(1.24469 0.32302 -1.45259e-19)
(0.14536 0.0264857 -8.01454e-20)
(0.423527 0.094212 -1.89365e-19)
(0.674461 0.177265 -1.64092e-19)
(0.883482 0.25586 -2.23386e-19)
(1.04315 0.31989 -1.27e-19)
(1.15489 0.366153 -2.63423e-19)
(1.22623 0.39551 3.34877e-20)
(1.26703 0.411018 -1.40292e-19)
(1.28673 0.41638 -1.5468e-20)
(1.29303 0.414961 2.31262e-20)
(1.2915 0.409387 -5.09806e-20)