/*--------------------------------*- C++ -*----------------------------------*\
  =========                 |
  \\      /  F ield         | OpenFOAM: The Open Source CFD Toolbox
   \\    /   O peration     | Website:  https://openfoam.org
    \\  /    A nd           | Version:  6.0
     \\/     M anipulation  |
\*---------------------------------------------------------------------------*/
FoamFile
{
    version     2.0;
    format      ascii;
    class       volVectorField;
    location    "77";
    object      U;
}
// * * * * * * * * * * * * * * * * * * * * * * * * * * * * * * * * * * * * * //

dimensions      [0 1 -1 0 0 0 0];

internalField   nonuniform List<vector> 
4000
(
(0.137887 0.00919928 9.55319e-20)
(0.421238 0.0458539 -5.24387e-20)
(0.692911 0.10477 6.20293e-20)
(0.930419 0.166853 -4.6192e-20)
(1.1195 0.221239 -2.06629e-20)
(1.25689 0.263099 6.36559e-21)
(1.34778 0.291485 -2.01872e-20)
(1.40167 0.307937 7.23822e-20)
(1.42882 0.315097 -6.01966e-20)
(1.43819 0.315699 1.41487e-20)
(1.43664 0.312051 -1.05193e-20)
(1.42892 0.30587 -6.8333e-20)
(1.41812 0.298325 6.62514e-20)
(1.40606 0.290155 2.52032e-20)
(1.39381 0.281806 -2.49797e-20)
(1.38197 0.27353 5.86602e-20)
(1.37086 0.265447 -8.95384e-22)
(1.36064 0.257668 -5.66773e-20)
(1.3514 0.250524 4.18197e-20)
(1.3432 0.243706 1.3303e-20)
(0.154039 0.0157313 -3.35438e-20)
(0.458319 0.0649667 9.68528e-20)
(0.739457 0.133799 1.12451e-19)
(0.976606 0.201758 -5.32712e-20)
(1.15856 0.258138 9.23661e-20)
(1.28553 0.299144 1.46057e-19)
(1.36561 0.325057 -8.21359e-21)
(1.41004 0.338428 -2.51259e-20)
(1.42983 0.34255 1.23479e-19)
(1.43395 0.340481 6.02462e-20)
(1.42894 0.334626 -1.0943e-20)
(1.4191 0.326672 8.99079e-20)
(1.40709 0.317708 -9.63518e-20)
(1.39442 0.308388 1.50384e-19)
(1.38192 0.299086 -2.50108e-20)
(1.37004 0.290001 7.20528e-20)
(1.35903 0.281219 1.30701e-20)
(1.349 0.272841 5.13441e-20)
(1.33998 0.265212 -4.87587e-20)
(1.33202 0.257879 1.21915e-20)
(0.17003 0.023475 -5.21923e-20)
(0.493714 0.0865581 1.21013e-19)
(0.782224 0.16538 9.04745e-20)
(1.01716 0.238588 -1.37989e-20)
(1.19091 0.296131 1.41832e-19)
(1.30731 0.335561 -1.07296e-19)
(1.3771 0.358515 -8.31579e-21)
(1.41299 0.368551 9.3748e-20)
(1.42642 0.369549 2.96486e-20)
(1.42624 0.364818 4.18601e-20)
(1.41855 0.356803 -6.18882e-20)
(1.40718 0.347125 1.62326e-19)
(1.39438 0.336778 3.04519e-20)
(1.38138 0.326327 -1.43802e-19)
(1.36883 0.316077 2.1147e-19)
(1.35705 0.306179 -2.49489e-19)
(1.34624 0.296687 -1.14942e-19)
(1.33647 0.287703 1.92749e-20)
(1.32771 0.279572 1.11205e-19)
(1.32005 0.271695 -2.1245e-19)
(0.185608 0.0324042 -1.14549e-19)
(0.526871 0.110431 -2.71917e-19)
(0.820641 0.199139 -2.36947e-19)
(1.05173 0.276886 -3.214e-19)
(1.21653 0.334775 -1.83213e-19)
(1.32246 0.371981 -3.79443e-19)
(1.38266 0.391579 4.82935e-20)
(1.41096 0.3981 -2.02374e-19)
(1.41904 0.39594 -2.24152e-20)
(1.41541 0.388586 3.34224e-20)
(1.40571 0.378468 -7.38582e-20)
(1.39331 0.367117 9.35583e-20)
(1.38008 0.355421 1.66732e-19)
(1.367 0.343856 -2.33697e-19)
(1.35455 0.332662 3.87659e-20)
(1.343 0.321947 1.09925e-19)
(1.33248 0.311738 1.84374e-19)
(1.32303 0.302142 -1.59001e-19)
(1.31459 0.293499 -7.67129e-21)
(1.30727 0.285058 1.88872e-19)
(0.200521 0.0424624 -2.1465e-19)
(0.557284 0.136331 5.93319e-19)
(0.854239 0.234661 -1.03849e-19)
(1.08008 0.31618 1.3983e-19)
(1.23546 0.373634 -1.36108e-19)
(1.33124 0.408053 4.20574e-19)
(1.38265 0.423988 -6.69508e-20)
(1.40436 0.42689 3.95354e-20)
(1.40801 0.421585 -2.11467e-20)
(1.40173 0.411669 6.6333e-20)
(1.39062 0.399517 4.31259e-20)
(1.37762 0.386548 5.60954e-20)
(1.36425 0.373538 -1.57065e-19)
(1.3513 0.360876 2.32293e-19)
(1.33912 0.348745 -1.7702e-19)
(1.3279 0.337212 3.505e-20)
(1.31774 0.326286 -1.14847e-19)
(1.30867 0.316075 2.536e-20)
(1.30061 0.306912 2.90118e-20)
(1.2937 0.297897 -2.63871e-19)
(0.214527 0.0535633 1.38696e-20)
(0.584503 0.163949 -2.97341e-19)
(0.882649 0.27149 1.6581e-19)
(1.10209 0.355985 -5.75734e-19)
(1.24782 0.412281 2.80095e-19)
(1.33396 0.443437 -4.80201e-19)
(1.37747 0.455488 -3.77655e-19)
(1.39355 0.454727 -1.45829e-20)
(1.39365 0.446327 -1.29597e-19)
(1.38541 0.43393 -4.08523e-19)
(1.37343 0.419819 -5.26592e-20)
(1.36019 0.405288 -3.99566e-19)
(1.34696 0.390999 7.13954e-20)
(1.33431 0.377262 -5.90709e-20)
(1.32252 0.364204 3.50951e-20)
(1.31173 0.351858 -2.79146e-19)
(1.30202 0.340216 1.12982e-20)
(1.2934 0.329395 5.43456e-20)
(1.28577 0.319709 -1.33999e-19)
(1.27931 0.310117 1.1617e-19)
(0.227396 0.0655925 -1.20808e-19)
(0.608144 0.192938 5.4097e-19)
(0.905604 0.309148 5.49834e-21)
(1.11772 0.395815 -4.6968e-19)
(1.25383 0.450299 3.58017e-19)
(1.33096 0.47781 1.51796e-19)
(1.36748 0.485834 3.03072e-20)
(1.37886 0.481422 -2.60604e-19)
(1.37623 0.47001 4.23618e-19)
(1.36667 0.455227 -2.54208e-19)
(1.35426 0.439239 8.86043e-20)
(1.34112 0.423204 4.3608e-19)
(1.32824 0.407676 -3.9766e-19)
(1.31607 0.392889 4.39532e-19)
(1.30479 0.378919 -2.86375e-19)
(1.29452 0.36577 -5.56494e-20)
(1.28534 0.353421 6.87486e-20)
(1.27723 0.341998 9.04077e-20)
(1.27008 0.33179 1.26729e-19)
(1.26414 0.321628 7.5405e-20)
(0.238919 0.0784095 4.76773e-20)
(0.627894 0.22291 -4.83479e-19)
(0.922935 0.34714 8.60671e-20)
(1.12704 0.435193 1.13366e-18)
(1.25372 0.487287 -1.03942e-19)
(1.32257 0.510861 3.19267e-19)
(1.35304 0.514788 2.00816e-19)
(1.36062 0.506785 3.23572e-20)
(1.35598 0.492467 -2.39412e-19)
(1.34565 0.475407 3.9396e-19)
(1.33322 0.457628 -4.97074e-20)
(1.32046 0.440152 6.1903e-19)
(1.30815 0.423429 2.43888e-19)
(1.2966 0.40762 1.56224e-19)
(1.28596 0.39276 -3.26351e-19)
(1.2763 0.378824 6.98367e-20)
(1.26771 0.365783 2.589e-19)
(1.26018 0.353771 7.0729e-20)
(1.25356 0.34305 -3.21775e-19)
(1.24821 0.332336 -8.18028e-20)
(0.248911 0.0918513 -2.67879e-19)
(0.643513 0.253458 8.65339e-19)
(0.934564 0.38497 -4.71758e-19)
(1.13018 0.473651 -4.37075e-19)
(1.24778 0.522862 -3.82721e-19)
(1.30916 0.542292 -3.26293e-19)
(1.33448 0.54212 -4.08306e-19)
(1.33909 0.530626 5.17488e-19)
(1.33311 0.513532 -3.76874e-19)
(1.3225 0.494311 -3.14959e-20)
(1.31041 0.474833 -1.28251e-21)
(1.29828 0.455983 -7.44745e-20)
(1.28672 0.438113 -1.97711e-19)
(1.27595 0.42132 -2.26387e-19)
(1.26604 0.405597 -1.21501e-20)
(1.25709 0.390898 -5.12769e-20)
(1.24918 0.377186 -1.32268e-19)
(1.24227 0.364603 -4.35924e-20)
(1.23626 0.353381 4.20516e-20)
(1.23155 0.342146 -2.95699e-19)
(0.257216 0.105736 4.66264e-19)
(0.654839 0.284154 4.85927e-19)
(0.940499 0.422142 -3.03121e-19)
(1.12735 0.510741 1.86593e-19)
(1.23633 0.556662 3.28094e-19)
(1.29107 0.571823 -7.20352e-20)
(1.31213 0.567608 8.08213e-20)
(1.31453 0.552758 9.71156e-20)
(1.30782 0.533034 1.62906e-19)
(1.29737 0.511777 -1.95058e-19)
(1.28592 0.490696 9.47944e-20)
(1.27466 0.470544 -7.11894e-20)
(1.26403 0.451581 3.10891e-19)
(1.25416 0.433846 1.45224e-19)
(1.24511 0.417296 -3.21183e-19)
(1.23695 0.401862 1.82605e-19)
(1.22978 0.387506 8.99461e-20)
(1.22357 0.374376 -1.77348e-19)
(1.21822 0.362673 4.77751e-19)
(1.21422 0.35096 -3.59018e-19)
(0.263707 0.119866 -3.42724e-19)
(0.661779 0.314567 -4.48295e-19)
(0.940825 0.458175 3.18809e-19)
(1.11879 0.546035 -2.93254e-19)
(1.21973 0.588347 -2.37754e-20)
(1.26865 0.59919 -3.37542e-19)
(1.2863 0.591039 2.75682e-19)
(1.28721 0.572996 5.3791e-19)
(1.28028 0.550803 -7.50536e-19)
(1.27038 0.527642 3.84302e-20)
(1.25985 0.505059 3.18374e-20)
(1.24966 0.483681 -1.62551e-19)
(1.24012 0.463684 1.06627e-19)
(1.23129 0.445056 -5.00701e-20)
(1.22321 0.42772 3.51734e-19)
(1.21593 0.411588 -3.79711e-19)
(1.20957 0.396619 -1.42335e-19)
(1.20413 0.382967 3.59481e-19)
(1.1995 0.370808 -5.66856e-19)
(1.19629 0.358672 3.58271e-19)
(0.26829 0.134033 7.16505e-19)
(0.664315 0.344266 6.40958e-19)
(0.935698 0.492605 -1.06665e-19)
(1.1048 0.579136 -1.43365e-20)
(1.19832 0.6176 -3.34209e-19)
(1.24227 0.624146 1.41368e-19)
(1.25729 0.612211 7.38895e-19)
(1.25734 0.591164 -6.54989e-19)
(1.25068 0.566674 4.35549e-19)
(1.24166 0.541747 -4.25099e-20)
(1.2323 0.517765 2.8266e-19)
(1.22336 0.49524 -6.02969e-20)
(1.21506 0.474274 1.77506e-19)
(1.20741 0.454806 2.46221e-19)
(1.2004 0.436731 -1.2512e-19)
(1.19411 0.419941 1.76081e-19)
(1.18864 0.404392 -2.72117e-19)
(1.18402 0.390244 6.86978e-19)
(1.1802 0.377652 -4.5144e-19)
(1.17783 0.365151 3.27378e-19)
(0.270906 0.148023 -3.5708e-19)
(0.662492 0.372829 -6.67327e-19)
(0.925334 0.524995 -4.6159e-19)
(1.08572 0.609672 -3.76442e-20)
(1.17248 0.644133 1.14356e-19)
(1.21227 0.646465 -6.31933e-20)
(1.2254 0.630937 -4.19164e-19)
(1.22516 0.607095 -1.934e-19)
(1.21918 0.580488 -3.6899e-19)
(1.21134 0.553936 -2.05813e-19)
(1.20335 0.528662 1.0054e-19)
(1.19584 0.505073 -4.82576e-19)
(1.18893 0.483205 -1.28766e-19)
(1.18258 0.462955 -1.34279e-19)
(1.17677 0.44419 -4.14764e-19)
(1.17155 0.426785 1.86141e-19)
(1.16705 0.410691 -1.04962e-20)
(1.16331 0.396067 1.90374e-19)
(1.16037 0.383055 -8.01405e-20)
(1.15893 0.370247 -3.26884e-19)
(0.271531 0.161621 8.25656e-19)
(0.656423 0.399852 7.17912e-19)
(0.910006 0.554939 9.15807e-19)
(1.06192 0.637307 -9.43429e-20)
(1.14262 0.667685 -3.55585e-19)
(1.17901 0.665942 1.03022e-18)
(1.19091 0.647045 -5.41146e-19)
(1.1909 0.620632 6.18852e-19)
(1.18596 0.592097 -1.21963e-19)
(1.17954 0.564065 4.04792e-19)
(1.17311 0.53761 4.32067e-20)
(1.16716 0.51304 2.28874e-19)
(1.16178 0.490336 -5.40096e-20)
(1.15687 0.469363 2.51746e-19)
(1.15237 0.44996 -2.39161e-19)
(1.14833 0.431986 -2.74718e-21)
(1.14488 0.41538 1.18406e-19)
(1.1421 0.400293 2.07806e-19)
(1.1401 0.386866 -4.57692e-20)
(1.13963 0.373815 1.41555e-19)
(0.270172 0.174614 -2.56621e-19)
(0.646274 0.424955 -7.34972e-19)
(0.890033 0.582064 -4.49279e-19)
(1.03379 0.66174 -7.99882e-19)
(1.10911 0.688025 8.84862e-19)
(1.14284 0.682395 -6.61777e-19)
(1.15412 0.660381 4.33432e-19)
(1.15477 0.631635 -1.42416e-19)
(1.15117 0.601367 -2.06e-19)
(1.14639 0.572005 -1.49441e-19)
(1.14167 0.544478 7.62465e-20)
(1.13742 0.51901 1.32322e-19)
(1.13367 0.495537 1.34666e-19)
(1.13032 0.473894 -1.52371e-19)
(1.12727 0.453903 -1.47169e-19)
(1.12453 0.435403 4.69319e-19)
(1.12222 0.418317 -1.75827e-20)
(1.12047 0.402778 -2.4076e-19)
(1.11947 0.388951 -6.95736e-21)
(1.11996 0.375749 -8.80192e-20)
(0.266871 0.186795 1.17512e-18)
(0.632265 0.447785 5.59905e-19)
(0.865775 0.606039 5.21192e-19)
(1.00176 0.682707 -3.20779e-19)
(1.07238 0.704952 4.66613e-20)
(1.1041 0.695666 4.74242e-19)
(1.1153 0.670812 7.52466e-20)
(1.117 0.639985 1.8127e-19)
(1.115 0.608185 2.11615e-19)
(1.11202 0.577645 4.51045e-20)
(1.10913 0.549159 1.51574e-19)
(1.10667 0.522877 -4.06805e-21)
(1.10466 0.498693 -5.03647e-20)
(1.10297 0.476427 -2.74522e-19)
(1.10151 0.455884 5.33838e-20)
(1.1002 0.436891 3.37709e-21)
(1.09915 0.419351 8.08405e-22)
(1.09851 0.403364 1.84803e-20)
(1.09855 0.389151 -8.62182e-20)
(1.10007 0.375918 1.13944e-19)
(0.2617 0.19797 -8.65599e-19)
(0.614662 0.468025 -7.53503e-19)
(0.837624 0.62657 3.79405e-19)
(0.966255 0.699983 -4.84779e-19)
(1.03282 0.718299 -3.07452e-20)
(1.06316 0.705625 1.00598e-19)
(1.07475 0.678226 -8.8196e-20)
(1.07782 0.64558 -5.72381e-20)
(1.07763 0.612458 -2.02603e-19)
(1.07658 0.580898 -1.2099e-19)
(1.0756 0.55157 2.62931e-20)
(1.075 0.524555 -1.99987e-19)
(1.07478 0.499718 5.08582e-20)
(1.07485 0.476864 -6.79453e-20)
(1.07509 0.455792 2.14698e-20)
(1.07539 0.436323 1.02808e-19)
(1.07575 0.418335 5.90029e-20)
(1.07634 0.401867 5.26727e-20)
(1.07759 0.387184 6.18197e-21)
(1.08043 0.373945 -6.73872e-20)
(0.254762 0.207959 8.48188e-19)
(0.59377 0.485393 1.07828e-20)
(0.806002 0.64341 -6.72233e-20)
(0.927725 0.71338 8.51969e-20)
(0.99085 0.727929 3.97566e-19)
(1.02036 0.712168 -2.66643e-19)
(1.03275 0.682539 1.89701e-19)
(1.03746 0.648344 -2.21243e-19)
(1.03924 0.614116 1.24508e-19)
(1.04021 0.581701 -7.64922e-20)
(1.04119 0.551652 5.99879e-20)
(1.04247 0.523987 3.36086e-20)
(1.04406 0.498544 -5.01348e-20)
(1.04594 0.475118 2.74756e-21)
(1.04798 0.453513 7.3872e-20)
(1.05005 0.433564 -8.80106e-20)
(1.05203 0.415121 2.55417e-20)
(1.05412 0.398075 6.57858e-21)
(1.05702 0.382617 -3.30063e-20)
(1.06175 0.369122 3.39771e-20)
(0.246184 0.2166 -1.73871e-19)
(0.569928 0.499647 1.79618e-19)
(0.771352 0.656353 1.80832e-19)
(0.886625 0.722751 -2.78254e-19)
(0.946891 0.733739 1.60891e-19)
(0.976064 0.715218 -2.74011e-19)
(0.989601 0.683688 -8.37163e-21)
(0.996161 0.648231 -3.92524e-20)
(1.00002 0.613125 -3.28459e-20)
(1.00307 0.580033 3.6316e-20)
(1.00602 0.549393 -4.66941e-20)
(1.00913 0.52116 -4.62433e-20)
(1.01248 0.495138 -2.85692e-20)
(1.0161 0.471106 6.9262e-21)
(1.01993 0.448874 -5.74831e-21)
(1.02384 0.428315 1.00093e-20)
(1.02765 0.409268 -2.16903e-20)
(1.03167 0.391378 -3.97085e-21)
(1.03691 0.374611 1.84279e-20)
(1.04382 0.360472 -4.18655e-21)
(0.236116 0.223752 -6.22689e-20)
(0.543502 0.510589 1.66358e-19)
(0.734133 0.665238 -2.25117e-19)
(0.843419 0.727984 3.08545e-19)
(0.901359 0.735655 5.18838e-20)
(0.930629 0.714725 -1.46019e-19)
(0.945603 0.68164 -3.44472e-20)
(0.954185 0.645218 4.67556e-20)
(0.960213 0.609484 -4.18346e-20)
(0.965345 0.575921 -1.25403e-20)
(0.970224 0.544858 1.08304e-20)
(0.975086 0.516183 -8.97781e-21)
(0.980036 0.489645 2.40268e-20)
(0.985153 0.464971 -3.45213e-20)
(0.990474 0.441931 3.45914e-20)
(0.995912 0.420382 -6.39983e-20)
(1.00136 0.400103 8.57213e-20)
(1.00734 0.380379 -7.74343e-20)
(1.01495 0.360908 -3.73358e-20)
(1.02299 0.345389 8.50027e-20)
(0.22473 0.229295 1.42327e-19)
(0.514878 0.518059 6.16849e-20)
(0.694814 0.669943 8.546e-20)
(0.798574 0.729004 7.81949e-20)
(0.854677 0.733633 -7.60797e-20)
(0.884421 0.710661 1.89854e-20)
(0.901074 0.676377 3.05446e-20)
(0.91181 0.639303 -2.1009e-20)
(0.92006 0.603211 2.86146e-21)
(0.927286 0.569422 -2.60427e-20)
(0.934052 0.538171 5.65161e-20)
(0.940565 0.509291 -1.67473e-20)
(0.946922 0.482482 5.73953e-20)
(0.953204 0.457411 -8.77908e-20)
(0.959456 0.433762 1.92102e-19)
(0.96563 0.411265 -3.5832e-20)
(0.971753 0.389472 -1.00307e-20)
(0.9786 0.36698 1.47946e-19)
(0.987037 0.341661 -6.94527e-20)
(0.991494 0.316398 4.62379e-20)
(0.212209 0.233133 9.17098e-20)
(0.484457 0.521942 -2.71966e-19)
(0.653871 0.670392 -1.40754e-20)
(0.752555 0.725771 -7.49409e-20)
(0.807265 0.727653 2.11524e-20)
(0.837808 0.703017 -3.67846e-20)
(0.856339 0.667895 4.53352e-20)
(0.869332 0.630487 8.25764e-21)
(0.879847 0.594316 -8.89033e-21)
(0.889177 0.560558 5.82094e-21)
(0.897821 0.529379 4.16229e-20)
(0.905963 0.500585 7.78974e-20)
(0.913676 0.473879 4.31324e-20)
(0.920995 0.448952 -1.08955e-19)
(0.9279 0.425537 -3.9506e-20)
(0.93432 0.403437 5.03818e-21)
(0.940383 0.382369 2.86593e-20)
(0.946775 0.361569 7.22083e-21)
(0.95344 0.340249 2.71147e-19)
(0.955197 0.320773 -1.86985e-19)
(0.19875 0.235191 -1.00771e-19)
(0.452646 0.522157 9.02673e-20)
(0.611776 0.666541 -4.06685e-20)
(0.705823 0.718273 4.09132e-21)
(0.759537 0.717722 6.64888e-20)
(0.791154 0.691803 -9.1542e-20)
(0.81172 0.656205 1.05307e-19)
(0.827047 0.618777 -3.92376e-20)
(0.839857 0.582804 1.13801e-19)
(0.8513 0.549325 6.67231e-20)
(0.861831 0.518447 -2.40119e-19)
(0.871631 0.489953 -2.38552e-20)
(0.880782 0.463544 3.64194e-19)
(0.889318 0.438922 -4.53018e-19)
(0.897211 0.415828 4.20891e-19)
(0.904384 0.394053 1.53452e-19)
(0.910916 0.373294 -5.31011e-19)
(0.917277 0.352907 2.66019e-19)
(0.923287 0.332556 -5.036e-20)
(0.925056 0.314936 6.37269e-20)
(0.184555 0.235415 -3.61231e-20)
(0.419854 0.518665 -5.30615e-20)
(0.569001 0.658387 3.59917e-20)
(0.658832 0.706532 -8.80618e-20)
(0.711899 0.703869 -3.33253e-19)
(0.744818 0.67705 -3.29265e-20)
(0.76754 0.641331 -1.09959e-19)
(0.78525 0.604195 -9.51031e-21)
(0.800368 0.568693 -2.71632e-19)
(0.813922 0.535745 -2.80055e-19)
(0.826332 0.505411 -2.06379e-19)
(0.837779 0.477463 -1.08698e-20)
(0.848355 0.451614 -4.97802e-19)
(0.858113 0.427587 -1.62501e-20)
(0.867053 0.405159 2.50004e-19)
(0.875139 0.38416 -2.46106e-19)
(0.882462 0.364354 -1.99278e-19)
(0.889402 0.345248 1.93595e-19)
(0.89577 0.326627 -1.36286e-19)
(0.898369 0.310603 2.68765e-20)
(0.169832 0.233778 8.48863e-20)
(0.38649 0.511464 6.50337e-20)
(0.526006 0.645963 -1.52799e-20)
(0.612021 0.690599 -1.10259e-19)
(0.664749 0.686151 1.93606e-19)
(0.699152 0.658805 3.75433e-19)
(0.724113 0.623311 -4.46012e-20)
(0.744234 0.586766 -3.88762e-21)
(0.761662 0.551995 6.43166e-20)
(0.777326 0.519811 1.79292e-19)
(0.791623 0.490232 2.72111e-19)
(0.804744 0.463027 -2.30419e-19)
(0.816799 0.437916 2.16984e-19)
(0.827856 0.414639 -8.37986e-20)
(0.83794 0.392985 2.63819e-19)
(0.847046 0.372794 -1.03866e-19)
(0.855297 0.353858 -2.68903e-19)
(0.863074 0.335791 1.56826e-19)
(0.870219 0.318512 -2.32644e-19)
(0.873927 0.303806 -2.62279e-19)
(0.154789 0.230272 7.95896e-20)
(0.352955 0.500586 1.23927e-19)
(0.483239 0.629337 -1.27271e-19)
(0.565818 0.670556 -7.73419e-21)
(0.618468 0.664645 2.18908e-20)
(0.654492 0.637138 2.12965e-19)
(0.681742 0.6022 -3.06273e-19)
(0.704273 0.566534 2.89752e-19)
(0.723992 0.532741 -3.39085e-20)
(0.741746 0.501538 7.90655e-20)
(0.757919 0.472912 1.36607e-19)
(0.772718 0.44663 -2.61497e-19)
(0.786276 0.422423 1.19023e-19)
(0.798687 0.400048 1.16281e-19)
(0.810002 0.379309 4.42551e-20)
(0.820251 0.360055 -2.26068e-19)
(0.82958 0.34209 7.60841e-19)
(0.838363 0.325088 -4.32971e-19)
(0.846436 0.309002 7.79722e-19)
(0.851298 0.295316 -5.01723e-20)
(0.139634 0.22491 7.11766e-20)
(0.319638 0.486098 3.3019e-19)
(0.441131 0.608608 1.2832e-19)
(0.520632 0.646513 2.41459e-19)
(0.573422 0.639455 7.11051e-20)
(0.611161 0.612138 -4.14525e-19)
(0.640715 0.578074 6.52177e-19)
(0.665632 0.543557 3.48641e-19)
(0.687606 0.510975 1.71151e-20)
(0.707414 0.480956 4.53535e-19)
(0.725439 0.453461 8.02284e-20)
(0.741904 0.428259 4.67371e-20)
(0.756966 0.405091 2.72383e-19)
(0.770744 0.383726 -1.04894e-19)
(0.783319 0.363978 -1.05437e-19)
(0.79475 0.3457 6.42095e-19)
(0.805211 0.328711 -5.3267e-19)
(0.815062 0.312727 1.91855e-20)
(0.824126 0.297723 6.80197e-19)
(0.830166 0.284925 -7.05537e-22)
(0.124567 0.217725 -7.41837e-19)
(0.286915 0.4681 -1.02197e-19)
(0.400096 0.583908 -1.59624e-19)
(0.476851 0.618606 -1.28594e-19)
(0.529957 0.61071 -3.43349e-19)
(0.569468 0.583916 1.16566e-19)
(0.601308 0.551027 -1.71571e-19)
(0.62856 0.517914 5.73533e-20)
(0.65273 0.48676 -2.48872e-19)
(0.674541 0.458112 -2.27533e-19)
(0.694375 0.431912 5.77347e-20)
(0.712475 0.407932 -3.8004e-19)
(0.729024 0.385924 3.11028e-19)
(0.744166 0.36567 -1.13564e-19)
(0.758005 0.346991 3.46168e-19)
(0.770628 0.329745 -7.48119e-19)
(0.782228 0.313759 -1.43422e-19)
(0.793145 0.298782 -2.70521e-19)
(0.803196 0.284797 -7.2391e-19)
(0.810395 0.272803 -1.18319e-19)
(0.109785 0.208769 1.16809e-19)
(0.255145 0.446718 -7.39627e-21)
(0.360523 0.555399 -2.01175e-19)
(0.434843 0.587 7.24326e-20)
(0.488403 0.57856 -1.47446e-19)
(0.529702 0.552608 -1.44486e-21)
(0.563778 0.521175 1.98721e-19)
(0.593291 0.489703 -3.00654e-19)
(0.619578 0.460179 1.14442e-19)
(0.643318 0.433075 -6.79715e-20)
(0.664899 0.408319 2.10782e-20)
(0.684585 0.385689 -3.39817e-19)
(0.702581 0.36495 -4.12228e-19)
(0.719053 0.345893 -1.65119e-20)
(0.73413 0.32835 4.60533e-19)
(0.747923 0.312181 2.01745e-20)
(0.760635 0.297224 5.83807e-19)
(0.772585 0.283257 -8.54646e-19)
(0.783594 0.270263 4.51811e-19)
(0.791921 0.259043 7.86753e-19)
(0.0954734 0.198111 -1.16646e-19)
(0.224666 0.422112 6.19781e-20)
(0.322781 0.523272 4.11159e-19)
(0.394953 0.551887 1.04393e-19)
(0.449065 0.543182 -1.37407e-19)
(0.492132 0.518367 1.10766e-19)
(0.528366 0.488652 4.34317e-19)
(0.56004 0.459043 -3.54431e-19)
(0.588345 0.431335 3.30108e-20)
(0.613925 0.405935 -1.30325e-19)
(0.637174 0.382761 4.69951e-19)
(0.658377 0.361599 3.37202e-19)
(0.677759 0.342227 -4.85163e-20)
(0.69551 0.32445 -5.08578e-19)
(0.711777 0.308106 2.72698e-20)
(0.726693 0.293063 -6.37525e-20)
(0.740467 0.279168 2.99486e-19)
(0.753397 0.266227 4.87187e-19)
(0.765318 0.254216 4.24921e-19)
(0.774728 0.243767 -7.12324e-19)
(0.0818096 0.185839 -7.64325e-20)
(0.195796 0.394465 3.25117e-19)
(0.287212 0.487743 -3.13484e-19)
(0.3575 0.51348 4.45347e-19)
(0.412227 0.504772 -2.38577e-19)
(0.45701 0.48137 1.75942e-19)
(0.495297 0.453615 4.41041e-19)
(0.529011 0.426073 -5.34979e-19)
(0.559215 0.400352 2.44386e-19)
(0.586526 0.376803 3.08921e-19)
(0.611347 0.355337 -4.17669e-19)
(0.63398 0.33575 -2.73273e-20)
(0.654673 0.317837 -3.33394e-19)
(0.673633 0.301415 5.38318e-19)
(0.691025 0.286332 -2.90752e-19)
(0.707 0.272462 3.11713e-19)
(0.721771 0.259667 -5.51906e-20)
(0.735615 0.247775 1.94258e-19)
(0.748391 0.236754 4.52739e-20)
(0.758829 0.227091 -1.12734e-19)
(0.0689588 0.172053 -2.41162e-19)
(0.168828 0.363985 -5.46341e-19)
(0.254131 0.449056 1.43091e-19)
(0.322777 0.472019 -4.62401e-19)
(0.378151 0.46355 -4.41084e-19)
(0.424568 0.441813 -3.18872e-19)
(0.464776 0.41624 2.47651e-19)
(0.500387 0.390949 1.9033e-19)
(0.532355 0.367373 -6.13007e-22)
(0.561273 0.345808 -1.65523e-19)
(0.587553 0.326164 -3.01982e-19)
(0.611516 0.308252 2.71763e-19)
(0.633428 0.291882 -9.28726e-20)
(0.653512 0.276885 -4.59513e-19)
(0.671951 0.263122 2.98799e-19)
(0.688909 0.250474 -2.23877e-19)
(0.7046 0.238817 -9.09217e-20)
(0.719283 0.228001 -2.55767e-19)
(0.73285 0.217987 -2.29763e-19)
(0.744251 0.209138 5.97648e-20)
(0.0570733 0.156872 2.09839e-19)
(0.144032 0.330906 1.07361e-19)
(0.223825 0.407476 1.66724e-19)
(0.291053 0.427762 -5.76503e-19)
(0.347074 0.419753 6.16349e-19)
(0.395013 0.399911 -8.07748e-23)
(0.436989 0.376718 3.93793e-21)
(0.474338 0.353847 -3.75963e-19)
(0.507917 0.332556 3.51215e-19)
(0.538303 0.313097 -2.45387e-19)
(0.565916 0.29538 7.18537e-20)
(0.591095 0.279232 -3.26729e-19)
(0.614122 0.264482 -1.55868e-19)
(0.635234 0.250976 -7.43924e-20)
(0.65463 0.238587 5.57833e-19)
(0.672485 0.227208 -2.73039e-19)
(0.689012 0.216727 -2.47307e-19)
(0.704454 0.207017 2.52436e-19)
(0.718741 0.198029 -2.07571e-19)
(0.731031 0.190029 1.62174e-19)
(0.0462918 0.140424 4.58455e-19)
(0.12165 0.29548 -2.77728e-19)
(0.196554 0.363289 4.06587e-20)
(0.262566 0.380988 4.84331e-19)
(0.319209 0.373638 1.94466e-19)
(0.368535 0.355894 2.39342e-19)
(0.412105 0.33526 2.382e-19)
(0.451014 0.314957 5.04674e-19)
(0.486038 0.296077 -1.14843e-19)
(0.517739 0.278831 2.76041e-19)
(0.546549 0.263133 4.00306e-19)
(0.572819 0.248831 1.47444e-19)
(0.596846 0.23577 2.6595e-19)
(0.618881 0.223815 9.64775e-20)
(0.639134 0.212852 5.5698e-20)
(0.657792 0.202784 -4.04472e-20)
(0.675065 0.193517 3.28306e-19)
(0.691181 0.18494 2.02081e-19)
(0.706113 0.177002 -1.83517e-19)
(0.719209 0.169887 1.73972e-19)
(0.0367376 0.122852 -3.06415e-19)
(0.101898 0.257978 3.3025e-20)
(0.172543 0.316802 -8.84369e-20)
(0.237528 0.331993 -2.70201e-19)
(0.294743 0.325476 -1.41535e-19)
(0.345299 0.310009 -2.59698e-19)
(0.390272 0.292088 1.22365e-19)
(0.430549 0.274483 -4.66929e-19)
(0.466839 0.258124 2.76744e-19)
(0.499693 0.243185 -3.80732e-19)
(0.529551 0.229589 -2.35748e-19)
(0.556778 0.217203 -3.12146e-19)
(0.581682 0.205892 7.16187e-20)
(0.604525 0.19554 -7.03541e-20)
(0.62553 0.186049 8.35997e-20)
(0.64489 0.177334 4.51464e-20)
(0.662814 0.169313 8.96012e-20)
(0.679517 0.161897 -7.48906e-19)
(0.695014 0.155032 3.72764e-19)
(0.708824 0.148838 -2.23542e-19)
(0.0285183 0.10431 1.02887e-19)
(0.084961 0.21869 2.07385e-19)
(0.151992 0.268336 -1.35397e-19)
(0.216121 0.281089 3.34292e-19)
(0.273838 0.275553 -5.27602e-20)
(0.325449 0.262515 3.871e-19)
(0.371617 0.247439 7.59594e-20)
(0.413058 0.232643 -7.83751e-20)
(0.450425 0.218898 2.85963e-19)
(0.484259 0.206346 2.1778e-19)
(0.515009 0.194922 8.10402e-20)
(0.54305 0.184512 1.05633e-19)
(0.5687 0.175004 5.27852e-20)
(0.592232 0.166302 -2.25319e-19)
(0.613876 0.158322 -3.11094e-20)
(0.633834 0.150994 2.33943e-19)
(0.65231 0.144251 -1.59808e-19)
(0.66951 0.138018 -7.9995e-21)
(0.685488 0.132246 -3.33765e-19)
(0.699912 0.12701 6.72483e-19)
(0.021725 0.0849592 2.78898e-19)
(0.0709963 0.177918 -3.32452e-19)
(0.135064 0.218229 1.56742e-19)
(0.198497 0.228601 -2.2049e-19)
(0.256629 0.224168 1.95736e-19)
(0.309103 0.213682 -3.38787e-19)
(0.356248 0.201559 -2.47799e-19)
(0.398638 0.189663 1.8893e-20)
(0.436883 0.178609 -3.37151e-19)
(0.471518 0.168511 -2.10026e-19)
(0.502996 0.159315 -3.62598e-19)
(0.531702 0.150932 -1.21185e-20)
(0.557962 0.143272 -1.40987e-19)
(0.582057 0.136257 3.55654e-19)
(0.604224 0.129822 2.44527e-19)
(0.62467 0.12391 -8.22975e-20)
(0.643596 0.118468 -7.44948e-20)
(0.661201 0.11344 -3.63691e-21)
(0.677573 0.10878 9.16869e-21)
(0.692507 0.104531 1.33741e-19)
(0.0164308 0.06497 -6.96431e-20)
(0.0601296 0.135976 -2.39762e-19)
(0.121892 0.166827 -1.49355e-19)
(0.184779 0.174862 -9.34224e-20)
(0.243224 0.171628 -1.93572e-19)
(0.296358 0.163792 3.30913e-19)
(0.344251 0.154706 -3.61324e-20)
(0.387368 0.145779 -7.9579e-20)
(0.426286 0.137476 2.93087e-21)
(0.461534 0.129883 2.33069e-19)
(0.493571 0.122961 -2.21381e-19)
(0.522788 0.116643 2.1616e-19)
(0.549517 0.110864 1.01018e-19)
(0.574045 0.105568 -1.84513e-19)
(0.596615 0.100704 4.03876e-20)
(0.617437 0.0962306 1.18214e-19)
(0.63671 0.0921107 4.08362e-20)
(0.654627 0.088302 -2.88502e-20)
(0.671304 0.0847682 -2.47947e-19)
(0.686635 0.0815312 1.97538e-19)
(0.0126912 0.0445184 6.35785e-20)
(0.0524552 0.0931878 7.68487e-20)
(0.112575 0.11449 2.14731e-20)
(0.175057 0.120217 -1.63214e-20)
(0.233704 0.118248 4.64177e-20)
(0.287286 0.11313 7.09065e-20)
(0.335689 0.10714 2.6842e-20)
(0.379305 0.101233 3.28648e-20)
(0.418685 0.0957238 -6.96362e-20)
(0.454356 0.0906723 1.30313e-19)
(0.486779 0.0860554 -3.07719e-20)
(0.516349 0.0818315 -2.4156e-21)
(0.543403 0.077959 3.10598e-20)
(0.568231 0.0744014 3.50069e-20)
(0.591081 0.0711271 -9.40829e-20)
(0.612166 0.0681099 6.19976e-20)
(0.63168 0.0653255 4.04838e-20)
(0.649813 0.0627474 3.45744e-20)
(0.666703 0.0603504 7.39922e-20)
(0.682316 0.0581439 3.05668e-20)
(0.010543 0.0237849 -1.30935e-20)
(0.0480358 0.0498846 2.72406e-20)
(0.107179 0.0615795 -3.80774e-20)
(0.169392 0.065015 2.39308e-20)
(0.228123 0.0643494 1.40111e-20)
(0.281934 0.0619888 6.18935e-21)
(0.330607 0.0591299 1.47948e-20)
(0.374489 0.0562719 -4.23432e-20)
(0.414117 0.0535811 2.69541e-20)
(0.450016 0.051093 9.42025e-21)
(0.482649 0.0488005 -5.16674e-22)
(0.512412 0.0466868 5.76852e-20)
(0.539645 0.0447348 -1.75153e-20)
(0.564639 0.0429288 -1.67358e-20)
(0.587644 0.0412555 -1.60853e-20)
(0.608875 0.0397036 2.5137e-21)
(0.628525 0.0382629 -2.14054e-20)
(0.646779 0.0369216 4.14184e-21)
(0.663788 0.0356673 8.0184e-22)
(0.679564 0.034502 -2.70155e-21)
(0.0100042 0.00295269 8.35521e-21)
(0.0469018 0.00640031 -4.45144e-20)
(0.105736 0.00846471 5.30193e-20)
(0.167814 0.0096094 -3.98293e-20)
(0.226508 0.0102563 -1.85461e-20)
(0.280326 0.010664 5.55754e-20)
(0.329024 0.0109458 4.60627e-21)
(0.372938 0.0111453 1.24585e-21)
(0.412599 0.0112804 2.58474e-20)
(0.448531 0.011362 1.33237e-20)
(0.481195 0.0113995 -1.05498e-20)
(0.51099 0.0114009 -3.67965e-20)
(0.538254 0.0113734 3.52239e-21)
(0.563279 0.0113228 -3.19514e-21)
(0.586315 0.0112536 3.42223e-20)
(0.607575 0.0111699 -2.05788e-20)
(0.627254 0.011075 2.81477e-20)
(0.645534 0.0109719 -4.22019e-20)
(0.662567 0.0108615 5.03075e-23)
(0.678385 0.0107413 -8.87589e-21)
(0.011074 -0.0177946 -2.78821e-20)
(0.0490512 -0.0369296 1.40988e-19)
(0.108242 -0.0444858 9.4929e-20)
(0.170319 -0.045646 6.26115e-20)
(0.228855 -0.0437064 7.814e-20)
(0.28246 -0.0405488 -1.88571e-20)
(0.33094 -0.0371413 8.63602e-20)
(0.37465 -0.0338966 1.75649e-20)
(0.414129 -0.030946 -7.77616e-21)
(0.449898 -0.0283034 -6.12798e-20)
(0.482418 -0.0259437 6.35159e-20)
(0.512084 -0.0238339 -8.61828e-20)
(0.539232 -0.0219428 6.25565e-20)
(0.564152 -0.0202435 7.15222e-20)
(0.587092 -0.0187132 9.43574e-20)
(0.608267 -0.017333 -6.21062e-20)
(0.627867 -0.0160857 1.7479e-20)
(0.646077 -0.014954 6.52196e-20)
(0.66304 -0.0139238 -6.16475e-20)
(0.678779 -0.0130022 4.65822e-20)
(0.0137326 -0.0382741 -2.71392e-19)
(0.0544495 -0.0797711 -1.35954e-19)
(0.114662 -0.0969044 -1.51158e-19)
(0.176876 -0.100398 -1.19226e-20)
(0.235135 -0.0972148 -8.14095e-20)
(0.288309 -0.0913546 -9.90329e-20)
(0.33633 -0.0848614 1.7611e-19)
(0.379606 -0.0786046 8.91762e-20)
(0.418689 -0.0728663 1.09865e-19)
(0.454102 -0.0676867 -1.18911e-19)
(0.486301 -0.0630257 8.81035e-20)
(0.515677 -0.0588259 1.07481e-19)
(0.542563 -0.0550324 3.80488e-20)
(0.567244 -0.0515973 -3.59217e-20)
(0.589966 -0.0484803 7.54924e-21)
(0.610938 -0.0456472 -1.54673e-20)
(0.630355 -0.0430675 -1.50711e-19)
(0.648399 -0.040709 2.36129e-20)
(0.6652 -0.0385458 1.46164e-19)
(0.680739 -0.0365929 -1.96418e-19)
(0.0179414 -0.0583059 -8.99325e-20)
(0.0630302 -0.121794 1.32048e-19)
(0.124925 -0.148428 3.03567e-20)
(0.187418 -0.154299 -5.77562e-20)
(0.245291 -0.149949 -1.61789e-19)
(0.297823 -0.141462 -3.45196e-19)
(0.34515 -0.131948 -3.28013e-19)
(0.387763 -0.122732 -2.36571e-20)
(0.42624 -0.114252 -1.90056e-19)
(0.461107 -0.106574 -2.83868e-19)
(0.492813 -0.0996459 2.19263e-19)
(0.521743 -0.0933859 -3.23726e-19)
(0.548223 -0.0877161 6.425e-20)
(0.572533 -0.0825684 -2.06664e-20)
(0.594913 -0.0778849 -6.73352e-20)
(0.61557 -0.0736169 -8.49337e-20)
(0.634699 -0.0697202 1.3828e-19)
(0.652483 -0.0661477 1.10299e-19)
(0.669029 -0.0628641 1.88927e-19)
(0.684253 -0.0598977 -2.83e-19)
(0.0236434 -0.0777143 4.87444e-20)
(0.0746949 -0.162677 4.73167e-19)
(0.138928 -0.1987 1.35184e-19)
(0.20185 -0.207005 3.26361e-19)
(0.259238 -0.201593 -1.22553e-19)
(0.310926 -0.190584 1.86978e-19)
(0.357332 -0.178138 -5.92559e-20)
(0.399061 -0.166039 3.78109e-19)
(0.436729 -0.154878 -1.94727e-19)
(0.470863 -0.144757 2.28518e-19)
(0.501908 -0.135608 1.97864e-19)
(0.530238 -0.127329 2.11465e-19)
(0.556172 -0.119819 -1.88703e-19)
(0.579983 -0.11299 1.61993e-19)
(0.601901 -0.106768 -2.24667e-19)
(0.622132 -0.101089 -6.15751e-20)
(0.640869 -0.0958965 -1.47305e-19)
(0.658302 -0.0911275 -6.21597e-20)
(0.674504 -0.0867401 2.47685e-19)
(0.689299 -0.0827849 -4.0989e-19)
(0.0307637 -0.0963303 -1.97133e-19)
(0.0893139 -0.202105 -2.24635e-20)
(0.156534 -0.247373 -7.83799e-20)
(0.220045 -0.258182 -2.74513e-19)
(0.276864 -0.251842 4.5897e-20)
(0.32752 -0.238443 -4.28424e-19)
(0.372787 -0.223178 -1.80003e-19)
(0.41342 -0.208289 -1.40287e-20)
(0.450081 -0.194528 -4.50058e-19)
(0.483304 -0.182031 -1.39162e-19)
(0.513525 -0.170721 -6.36902e-20)
(0.541108 -0.160475 -2.07337e-19)
(0.566361 -0.15117 -1.84008e-19)