/*--------------------------------*- C++ -*----------------------------------*\
  =========                 |
  \\      /  F ield         | OpenFOAM: The Open Source CFD Toolbox
   \\    /   O peration     | Website:  https://openfoam.org
    \\  /    A nd           | Version:  6.0
     \\/     M anipulation  |
\*---------------------------------------------------------------------------*/
FoamFile
{
    version     2.0;
    format      ascii;
    class       surfaceScalarField;
    location    "65";
    object      phi;
}
// * * * * * * * * * * * * * * * * * * * * * * * * * * * * * * * * * * * * * //

dimensions      [0 3 -1 0 0 0 0];

internalField   nonuniform List<scalar> 
7840
(
3.7272e-05
-0.000289211
0.000130346
-0.000894833
0.000259324
-0.00149021
0.000403282
-0.00202792
0.000544002
-0.00247375
0.000668947
-0.00281419
0.000771923
-0.003054
0.000851913
-0.00320912
0.000911203
-0.0032995
0.000953613
-0.00334423
0.000983216
-0.00335904
0.00100362
-0.00335563
0.00101766
-0.00334201
0.0010274
-0.00332334
0.00103428
-0.00330278
0.00103924
-0.00328219
0.00104291
-0.00326266
0.00104571
-0.00324482
0.00104789
-0.00322905
-0.00321568
0.00104961
3.84556e-05
-0.000327666
0.000131721
-0.000988099
0.000257252
-0.00161574
0.000392966
-0.00216363
0.000521147
-0.00260193
0.000630838
-0.00292388
0.000717676
-0.00314084
0.000782141
-0.00327358
0.00082744
-0.00334479
0.000857761
-0.00337455
0.000877142
-0.00337843
0.000888922
-0.00336741
0.000895592
-0.00334868
0.000898881
-0.00332663
0.000899935
-0.00330383
0.000899497
-0.00328175
0.000898051
-0.00326121
0.000895915
-0.00324269
0.000893289
-0.00322642
-0.00321267
0.000890274
3.92066e-05
-0.000366873
0.000131481
-0.00108037
0.000251975
-0.00173624
0.000377975
-0.00228963
0.000492721
-0.00271668
0.000587014
-0.00301817
0.00065824
-0.00321207
0.000708151
-0.00332349
0.000740621
-0.00337726
0.000759996
-0.00339392
0.000770147
-0.00338858
0.000774088
-0.00337135
0.00077396
-0.00334855
0.000771184
-0.00332385
0.000766666
-0.00329931
0.00076098
-0.00327606
0.000754497
-0.00325473
0.000747466
-0.00323565
0.000740037
-0.00321899
-0.00320492
0.000732287
3.94965e-05
-0.000406369
0.000129616
-0.00117049
0.000243635
-0.00185026
0.00035874
-0.00240474
0.000459486
-0.00281742
0.000538512
-0.0030972
0.000594808
-0.00326836
0.000631156
-0.00335984
0.000651865
-0.00339797
0.000661277
-0.00340334
0.000663003
-0.0033903
0.00065971
-0.00336806
0.000653206
-0.00334205
0.000644638
-0.00331528
0.000634713
-0.00328939
0.00062387
-0.00326522
0.000612396
-0.00324325
0.000600482
-0.00322374
0.00058825
-0.00320676
-0.00319243
0.000575757
3.93084e-05
-0.000445678
0.000126157
-0.00125734
0.000232441
-0.00195654
0.000335746
-0.00250804
0.000422214
-0.00290389
0.000486307
-0.00316129
0.000528437
-0.00331049
0.00055218
-0.00338358
0.000562084
-0.00340788
0.000562356
-0.00340361
0.000556298
-0.00338424
0.00054623
-0.00335799
0.000533653
-0.00332947
0.00051948
-0.00330111
0.000504256
-0.00327416
0.000488311
-0.00324928
0.000471865
-0.00322681
0.000455073
-0.00320695
0.000438032
-0.00318972
-0.00317519
0.00042079
3.86373e-05
-0.000484315
0.000121174
-0.00133988
0.000218652
-0.00205402
0.00030951
-0.0025989
0.000381651
-0.00297603
0.000431286
-0.00321092
0.000460043
-0.00333925
0.000472075
-0.00339562
0.000472005
-0.00340781
0.000463816
-0.00339542
0.000450475
-0.0033709
0.000433972
-0.00334149
0.000415537
-0.00331103
0.000395887
-0.00328146
0.00037543
-0.00325371
0.000354415
-0.00322826
0.000333008
-0.0032054
0.000311334
-0.00318527
0.000289479
-0.00316787
-0.00315319
0.000267486
3.7489e-05
-0.000521804
0.000114763
-0.00141715
0.000202559
-0.00214181
0.00028055
-0.00267689
0.000338498
-0.00303398
0.000374239
-0.00324667
0.000390408
-0.00335542
0.00039154
-0.00339675
0.000382203
-0.00339847
0.000366102
-0.00337932
0.000345865
-0.00335067
0.000323176
-0.0033188
0.000299032
-0.00328689
0.000273987
-0.00325642
0.000248341
-0.00322806
0.000222273
-0.00320219
0.000195909
-0.00317904
0.000169351
-0.00315871
0.000142677
-0.00314119
-0.00312645
0.000115933
3.58791e-05
-0.000557683
0.000107047
-0.00148832
0.00018447
-0.00221924
0.000249372
-0.00274179
0.000293399
-0.00307801
0.000315858
-0.00326913
0.000320186
-0.00335975
0.00031114
-0.0033877
0.000293133
-0.00338046
0.000269558
-0.00335574
0.000242715
-0.00332382
0.000214018
-0.0032901
0.000184266
-0.00325714
0.000153879
-0.00322603
0.00012307
-0.00319725
9.19605e-05
-0.00317108
6.06403e-05
-0.00314772
2.9195e-05
-0.00312727
-2.29803e-06
-0.0031097
-0.00309496
-3.37887e-05
3.3832e-05
-0.000591515
9.81625e-05
-0.00155265
0.000164699
-0.00228577
0.000216454
-0.00279355
0.000246931
-0.00310848
0.000256738
-0.00327893
0.000249927
-0.00335294
0.000231334
-0.00336911
0.000205152
-0.00335428
0.000174449
-0.00332504
0.000141217
-0.00329059
0.000106634
-0.00325552
7.13365e-05
-0.00322184
3.56382e-05
-0.00319033
-3.1931e-07
-0.0031613
-3.64653e-05
-0.00313494
-7.27406e-05
-0.00311144
-0.000109074
-0.00309094
-0.000145384
-0.00307339
-0.00305873
-0.000181611
3.13791e-05
-0.000622894
8.82585e-05
-0.00160953
0.000143554
-0.00234107
0.000182242
-0.00283223
0.000199609
-0.00312585
0.00019739
-0.00327671
0.000180083
-0.00333563
0.000152493
-0.00334152
0.000118545
-0.00332033
8.09818e-05
-0.00328748
4.15175e-05
-0.00325113
1.128e-06
-0.00321513
-3.96808e-05
-0.00318103
-8.06789e-05
-0.00314933
-0.000121782
-0.00312019
-0.000162963
-0.00309376
-0.000204194
-0.00307021
-0.000245416
-0.00304971
-0.00028654
-0.00303227
-0.00301778
-0.000327488
2.85574e-05
-0.000651452
7.74882e-05
-0.00165846
0.000121333
-0.00238492
0.000147143
-0.00285804
0.000151886
-0.00313059
0.000138251
-0.00326308
0.000111034
-0.00330841
7.49219e-05
-0.00330541
3.35435e-05
-0.00327896
-1.06713e-05
-0.00324326
-5.62588e-05
-0.00320554
-0.000102411
-0.00316898
-0.000148725
-0.00313472
-0.00019503
-0.00310303
-0.000241288
-0.00307394
-0.000287512
-0.00304753
-0.000333706
-0.00302402
-0.000379825
-0.00300359
-0.000425768
-0.00298632
-0.00297212
-0.00047143
2.54086e-05
-0.00067686
6.60064e-05
-0.00169906
9.8318e-05
-0.00241723
0.000111526
-0.00287125
0.00010416
-0.00312323
7.96946e-05
-0.00323861
4.30987e-05
-0.00327182
-1.12335e-06
-0.00326119
-4.96543e-05
-0.00323042
-0.00010036
-0.00319256
-0.000151999
-0.0031539
-0.0002039
-0.00311708
-0.000255736
-0.00308288
-0.00030738
-0.00305138
-0.000358822
-0.00302249
-0.000410113
-0.00299624
-0.000461294
-0.00297284
-0.000512341
-0.00295255
-0.000563135
-0.00293553
-0.00292172
-0.000613535
2.19774e-05
-0.000698838
5.3966e-05
-0.00173105
7.4773e-05
-0.00243803
7.57261e-05
-0.00287221
5.67783e-05
-0.00310428
2.20424e-05
-0.00320388
-2.3448e-05
-0.00322633
-7.54196e-05
-0.00320921
-0.000130869
-0.00317497
-0.00018794
-0.00313548
-0.000245585
-0.00309626
-0.000303246
-0.00305941
-0.00036065
-0.00302548
-0.000417689
-0.00299434
-0.000474372
-0.00296581
-0.00053078
-0.00293983
-0.000586997
-0.00291662
-0.000643033
-0.00289651
-0.000698757
-0.00287981
-0.00286651
-0.000753966
1.83109e-05
-0.000717149
4.15157e-05
-0.00175425
5.09439e-05
-0.00244746
4.00421e-05
-0.0028613
1.0049e-05
-0.00307429
-3.44236e-05
-0.0031594
-8.83637e-05
-0.00317239
-0.000147762
-0.00314982
-0.000209927
-0.00311281
-0.000273258
-0.00307215
-0.000336881
-0.00303263
-0.000400333
-0.00299596
-0.000463374
-0.00296244
-0.0005259
-0.00293182
-0.000587917
-0.00290379
-0.000649521
-0.00287823
-0.00071085
-0.00285529
-0.000771961
-0.0028354
-0.000832723
-0.00281904
-0.0028064
-0.000892834
1.44571e-05
-0.000731606
2.87988e-05
-0.00176859
2.70573e-05
-0.00244572
4.74365e-06
-0.00283899
-3.5756e-05
-0.00303379
-8.94531e-05
-0.00310571
-0.000151427
-0.00311041
-0.000217954
-0.00308329
-0.000286644
-0.00304412
-0.000356136
-0.00300266
-0.000425713
-0.00296306
-0.000494997
-0.00292668
-0.000563772
-0.00289366
-0.000631918
-0.00286367
-0.000699413
-0.0028363
-0.000766346
-0.0028113
-0.000832893
-0.00278874
-0.000899182
-0.00276911
-0.000965092
-0.00275313
-0.00274131
-0.00103018
1.04646e-05
-0.00074207
1.59509e-05
-0.00177408
3.3205e-06
-0.00243309
-2.99278e-05
-0.00280574
-8.03947e-05
-0.00298332
-0.000142821
-0.00304328
-0.000212431
-0.0030408
-0.000285796
-0.00300992
-0.00036082
-0.0029691
-0.000436363
-0.00292712
-0.000511857
-0.00288756
-0.000587006
-0.00285153
-0.000661623
-0.00281904
-0.000735568
-0.00278973
-0.000808765
-0.0027631
-0.000881256
-0.00273881
-0.000953223
-0.00271678
-0.00102487
-0.00269746
-0.00109611
-0.00268189
-0.00267103
-0.00116639
6.38136e-06
-0.000748452
3.09933e-06
-0.0017708
-2.00781e-05
-0.00240991
-6.37574e-05
-0.00276206
-0.000123652
-0.00292342
-0.000194322
-0.00297261
-0.000271177
-0.00296395
-0.000351088
-0.00293001
-0.000432234
-0.00288795
-0.000513687
-0.00284566
-0.000595022
-0.00280623
-0.000676035
-0.00277052
-0.000756587
-0.00273849
-0.000836535
-0.00270978
-0.000915746
-0.00268389
-0.000994179
-0.00266037
-0.00107199
-0.00263897
-0.00114947
-0.00261998
-0.00122661
-0.00260475
-0.00259457
-0.00130307
2.25369e-06
-0.000750705
-9.63841e-06
-0.00175891
-4.297e-05
-0.00237658
-9.65561e-05
-0.00270848
-0.000165339
-0.00285464
-0.000243772
-0.00289418
-0.000327478
-0.00288024
-0.000413622
-0.00284387
-0.000500645
-0.00280093
-0.000587816
-0.00275849
-0.000674853
-0.00271919
-0.000761665
-0.00268371
-0.000848195
-0.00265196
-0.000934343
-0.00262363
-0.00101996
-0.00259828
-0.00110492
-0.00257541
-0.00118932
-0.00255456
-0.00127358
-0.00253572
-0.00135791
-0.00252042
-0.0025095
-0.00144298
-1.87462e-06
-0.000748831
-2.21565e-05
-0.00173862
-6.52082e-05
-0.00233353
-0.000128162
-0.00264552
-0.000205292
-0.00277751
-0.000291007
-0.00280846
-0.000381156
-0.00279009
-0.000473188
-0.00275184
-0.000565785
-0.00270833
-0.000658399
-0.00266588
-0.000750894
-0.0026267
-0.000843314
-0.00259129
-0.000935744
-0.00255953
-0.00102823
-0.00253115
-0.00112071
-0.0025058
-0.00121306
-0.00248305
-0.00130531
-0.00246232
-0.00139779
-0.00244324
-0.00149111
-0.00242711
-0.00241254
-0.00158806
-5.96344e-06
-0.000742867
-3.43622e-05
-0.00171022
-8.66684e-05
-0.00228122
-0.000158442
-0.00257375
-0.000243383
-0.00269257
-0.000335898
-0.00271595
-0.000432067
-0.00269392
-0.000529599
-0.0026543
-0.00062739
-0.00261054
-0.000725046
-0.00256822
-0.000822557
-0.00252919
-0.000920101
-0.00249374
-0.00101795
-0.00246168
-0.00111642
-0.00243268
-0.0012158
-0.00240642
-0.0013163
-0.00238255
-0.00141804
-0.00236058
-0.00152161
-0.00233967
-0.00162936
-0.00231936
-0.00231181
-0.0017301
-9.96458e-06
-0.000732903
-4.6157e-05
-0.00167403
-0.000107227
-0.00222015
-0.000187272
-0.00249371
-0.000279496
-0.00260035
-0.000378337
-0.00261711
-0.000480098
-0.00259216
-0.000582722
-0.00255168
-0.000685275
-0.00250799
-0.00078747
-0.00246603
-0.000889354
-0.0024273
-0.00099115
-0.00239195
-0.0010932
-0.00235963
-0.00119599
-0.00232989
-0.00130017
-0.00230224
-0.00140659
-0.00227613
-0.00151614
-0.00225103
-0.0016292
-0.00222661
-0.00174671
-0.00220184
-0.0021693
-0.00188922
-1.38698e-05
-0.000719033
-5.75156e-05
-0.00163039
-0.000126855
-0.00215081
-0.000214631
-0.00240593
-0.000313626
-0.00250135
-0.000418332
-0.0025124
-0.000525267
-0.00248523
-0.000632584
-0.00244436
-0.000739486
-0.00240109
-0.000845752
-0.00235976
-0.000951427
-0.00232163
-0.00105667
-0.0022867
-0.00116167
-0.00225462
-0.00126666
-0.0022249
-0.00137189
-0.00219702
-0.00147755
-0.00217047
-0.00158371
-0.00214487
-0.0016906
-0.00211972
-0.00179898
-0.00209347
-0.00206245
-0.00190582
-1.76418e-05
-0.000701391
-6.83694e-05
-0.00157966
-0.000145476
-0.00207371
-0.000240455
-0.00231095
-0.000345728
-0.00239608
-0.000455862
-0.00240227
-0.000567581
-0.00237351
-0.000679222
-0.00233272
-0.000790111
-0.0022902
-0.000900084
-0.00224979
-0.0010092
-0.00221251
-0.00111761
-0.0021783
-0.00122546
-0.00214677
-0.00133289
-0.00211747
-0.00143999
-0.00208992
-0.00154676
-0.0020637
-0.0016532
-0.00203844
-0.00175924
-0.00201368
-0.00186416
-0.00198855
-0.0019622
-0.00196441
-2.12603e-05
-0.000680131
-7.8682e-05
-0.00152224
-0.000163055
-0.00198933
-0.000264727
-0.00220928
-0.000375812
-0.00228499
-0.000490964
-0.00228712
-0.000607101
-0.00225737
-0.000722726
-0.0022171
-0.000837263
-0.00217566
-0.000950589
-0.00213646
-0.00106276
-0.00210033
-0.0011739
-0.00206716
-0.00128409
-0.00203658
-0.00139341
-0.00200815
-0.00150186
-0.00198147
-0.00160936
-0.0019562
-0.00171577
-0.00193203
-0.0018208
-0.00190865
-0.00192377
-0.00188558
-0.00186239
-0.00202358
-2.47095e-05
-0.000655421
-8.84282e-05
-0.00145852
-0.000179576
-0.00189819
-0.000287449
-0.00210141
-0.000403905
-0.00216854
-0.000523695
-0.00216733
-0.000643919
-0.00213715
-0.000763234
-0.00209778
-0.000881153
-0.00205774
-0.000997592
-0.00202002
-0.00111261
-0.00198531
-0.00122632
-0.00195346
-0.00133877
-0.00192412
-0.00145002
-0.0018969
-0.00156004
-0.00187146
-0.00166874
-0.00184749
-0.001776
-0.00182477
-0.00188156
-0.00180309
-0.00198499
-0.00178214
-0.00176168
-0.0020857
-2.79769e-05
-0.000627444
-9.7591e-05
-0.0013889
-0.000195031
-0.00180075
-0.000308636
-0.0019878
-0.000430048
-0.00204712
-0.00055412
-0.00204325
-0.000678129
-0.00201314
-0.000800867
-0.00197504
-0.00092193
-0.00193668
-0.00104127
-0.00190068
-0.00115897
-0.00186761
-0.00127512
-0.00183732
-0.00138978
-0.00180945
-0.001503
-0.00178368
-0.00161476
-0.0017597
-0.00172499
-0.00173725
-0.0018336
-0.00171616
-0.00194043
-0.00169626
-0.00204528
-0.0016773
-0.0016591
-0.00214785
-3.10533e-05
-0.000596391
-0.00010616
-0.0013138
-0.000209422
-0.00169748
-0.00032831
-0.00186891
-0.000454285
-0.00192115
-0.00058231
-0.00191523
-0.000709823
-0.00188563
-0.000835744
-0.00184912
-0.000959746
-0.00181268
-0.00108182
-0.00177861
-0.00120206
-0.00174737
-0.00132057
-0.00171881
-0.00143742
-0.0016926
-0.00155267
-0.00166844
-0.00166632
-0.00164605
-0.00177836
-0.00162522
-0.00188872
-0.0016058
-0.00199735
-0.00158763
-0.00210416
-0.00157049
-0.00155428
-0.00220899
-3.39317e-05
-0.000562459
-0.000114129
-0.0012336
-0.000222756
-0.00158886
-0.000346495
-0.00174518
-0.000476662
-0.00179098
-0.000608326
-0.00178356
-0.000739081
-0.00175487
-0.000867963
-0.00172024
-0.000994716
-0.00168592
-0.00111937
-0.00165396
-0.00124203
-0.00162471
-0.00136282
-0.00159801
-0.00148184
-0.00157358
-0.00159916
-0.00155112
-0.0017148
-0.0015304
-0.0018288
-0.00151123
-0.00194113
-0.00149346
-0.00205181
-0.00147695
-0.00216081
-0.00146149
-0.00144703
-0.00226806
-3.66064e-05
-0.000525853
-0.000121496
-0.00114871
-0.00023504
-0.00147531
-0.000363215
-0.001617
-0.000497218
-0.00165698
-0.000632225
-0.00164856
-0.000765971
-0.00162113
-0.000897602
-0.00158861
-0.00102692
-0.0015566
-0.001154
-0.00152688
-0.00127897
-0.00149974
-0.00140197
-0.00147502
-0.00152311
-0.00145244
-0.00164248
-0.00143175
-0.00176015
-0.00141273
-0.00187617
-0.00139521
-0.00199057
-0.00137906
-0.0021034
-0.00136413
-0.00221466
-0.00135023
-0.00133734
-0.00232435
-3.90732e-05
-0.00048678
-0.000128257
-0.00105953
-0.000246282
-0.00135729
-0.000378494
-0.00148479
-0.000515989
-0.00151948
-0.00065405
-0.0015105
-0.000790545
-0.00148463
-0.000924715
-0.00145444
-0.00105643
-0.00142489
-0.00118578
-0.00139753
-0.00131292
-0.00137259
-0.00143802
-0.00134992
-0.00156121
-0.00132925
-0.0016826
-0.00131036
-0.00180227
-0.00129306
-0.00192031
-0.00127717
-0.00203677
-0.00126259
-0.00215173
-0.00124917
-0.00226523
-0.00123673
-0.00122528
-0.00237729
-4.13284e-05
-0.000445451
-0.000134413
-0.000966442
-0.000256491
-0.00123521
-0.000392348
-0.00134893
-0.000533002
-0.00137883
-0.000673837
-0.00136966
-0.000812839
-0.00134563
-0.000949339
-0.00131794
-0.00108326
-0.00129097
-0.00121472
-0.00126607
-0.0013439
-0.00124341
-0.00147099
-0.00122283
-0.00159612
-0.00120412
-0.00171943
-0.00118705
-0.00184103
-0.00117146
-0.00196102
-0.00115719
-0.00207948
-0.00114413
-0.00219649
-0.00113216
-0.00231213
-0.00112109
-0.00111097
-0.00242643
-4.33685e-05
-0.000402083
-0.00013996
-0.000869851
-0.000265672
-0.0011095
-0.000404792
-0.00120981
-0.000548279
-0.00123534
-0.000691609
-0.00122633
-0.00083288
-0.00120436
-0.000971498
-0.00117932
-0.00110743
-0.00115504
-0.00124083
-0.00113267
-0.0013719
-0.00111234
-0.00150082
-0.00109391
-0.00162777
-0.00107717
-0.00175289
-0.00106193
-0.00187631
-0.00104804
-0.00199813
-0.00103536
-0.00211847
-0.0010238
-0.00223741
-0.00101321
-0.00235505
-0.00100345
-0.000994592
-0.00247143
-4.51906e-05
-0.000356892
-0.000144898
-0.000770143
-0.000273828
-0.000980567
-0.000415837
-0.0010678
-0.000561835
-0.00108934
-0.000707385
-0.00108078
-0.000850682
-0.00106106
-0.0009912
-0.0010388
-0.00112895
-0.0010173
-0.0012641
-0.000997514
-0.00139688
-0.00097956
-0.00152749
-0.000963299
-0.0016561
-0.000948552
-0.00178288
-0.000935151
-0.00190797
-0.000922953
-0.00203149
-0.000911845
-0.00215355
-0.00090173
-0.00227427
-0.000892492
-0.00239372
-0.000883997
-0.00087632
-0.002512
-4.67918e-05
-0.0003101
-0.000149225
-0.00066771
-0.000280962
-0.00084883
-0.000425489
-0.000923278
-0.00057368
-0.000941151
-0.000721174
-0.000933288
-0.000866252
-0.000915984
-0.00100845
-0.000896608
-0.0011478
-0.000877945
-0.00128451
-0.000860799
-0.00141882
-0.000845255
-0.00155093
-0.000831189
-0.00168104
-0.000818445
-0.00180931
-0.000806878
-0.0019359
-0.000796364
-0.00206094
-0.000786804
-0.00218456
-0.000778113
-0.00230686
-0.000770187
-0.00242795
-0.000762912
-0.000756365
-0.0025479
-4.81692e-05
-0.000261931
-0.000152937
-0.000562942
-0.000287075
-0.000714692
-0.000433753
-0.0007766
-0.000583819
-0.000791085
-0.000732982
-0.000784125
-0.000879592
-0.000769374
-0.00102323
-0.000752965
-0.00116398
-0.000737199
-0.00130205
-0.00072273
-0.00143768
-0.000709622
-0.0015711
-0.000697767
-0.00170252
-0.000687033
-0.0018321
-0.000677298
-0.00196
-0.000668458
-0.00208638
-0.000660429
-0.00221135
-0.000653138
-0.00233504
-0.000646496
-0.00245755
-0.000640407
-0.000634946
-0.00257897
-4.93203e-05
-0.000212611
-0.000156033
-0.000456229
-0.000292165
-0.00057856
-0.00044063
-0.000628135
-0.000592256
-0.000639459
-0.000742809
-0.000633572
-0.0008907
-0.000621483
-0.00103556
-0.000608109
-0.00117747
-0.000595284
-0.00131668
-0.000583522
-0.00145343
-0.000572868
-0.00158796
-0.000563236
-0.00172048
-0.000554517
-0.00185117
-0.000546612
-0.00198019
-0.000539438
-0.00210769
-0.000532926
-0.00223381
-0.000527015
-0.00235868
-0.000521634
-0.00248238
-0.000516704
-0.000512294
-0.00260503
-5.0243e-05
-0.000162368
-0.000158509
-0.000347963
-0.000296232
-0.000440837
-0.000446121
-0.000478246
-0.000598991
-0.000486589
-0.000750655
-0.000481908
-0.000899572
-0.000472565
-0.0010454
-0.000462279
-0.00118826
-0.000452428
-0.00132838
-0.000443395
-0.00146604
-0.000435211
-0.00160147
-0.00042781
-0.00173488
-0.000421109
-0.00186646
-0.000415032
-0.00199638
-0.000409515
-0.0021248
-0.000404508
-0.00225185
-0.000399963
-0.00237766
-0.000395824
-0.00250233
-0.000392033
-0.000388645
-0.00262598
-5.09352e-05
-0.000111433
-0.000160364
-0.000238534
-0.000299274
-0.000301927
-0.000450226
-0.000327294
-0.000604025
-0.00033279
-0.000756518
-0.000329415
-0.000906203
-0.00032288
-0.00105276
-0.00031572
-0.00119632
-0.000308866
-0.00133714
-0.000302577
-0.00147548
-0.000296874
-0.00161158
-0.000291709
-0.00174566
-0.000287027
-0.00187792
-0.000282776
-0.00200852
-0.000278912
-0.00213763
-0.0002754
-0.00226538
-0.000272209
-0.00239191
-0.000269298
-0.00251731
-0.00026663
-0.000264242
-0.00264171
-5.13955e-05
-6.00373e-05
-0.000161594
-0.000128336
-0.00030129
-0.000162231
-0.000452943
-0.000175641
-0.000607355
-0.000178379
-0.000760396
-0.000176373
-0.000910589
-0.000172688
-0.00105763
-0.000168677
-0.00120166
-0.000164836
-0.00134294
-0.000161302
-0.00148173
-0.000158085
-0.00161828
-0.00015516
-0.00175281
-0.000152497
-0.00188551
-0.000150069
-0.00201657
-0.000147854
-0.00214614
-0.000145832
-0.00227436
-0.000143986
-0.00240136
-0.000142295
-0.00252726
-0.000140738
-0.000139335
-0.00265216
-5.16229e-05
-8.41444e-06
-0.000162199
-1.77591e-05
-0.000302278
-2.21523e-05
-0.000454272
-2.36464e-05
-0.00060898
-2.36709e-05
-0.000762288
-2.30656e-05
-0.000912726
-2.22496e-05
-0.00106
-2.14002e-05
-0.00120426
-2.05795e-05
-0.00134576
-1.98041e-05
-0.00148477
-1.90755e-05
-0.00162153
-1.83912e-05
-0.00175628
-1.77479e-05
-0.00188921
-1.71429e-05
-0.00202049
-1.65733e-05
-0.00215029
-1.60368e-05
-0.00227874
-1.55314e-05
-0.00240598
-1.50543e-05
-0.00253212
-1.46021e-05
-1.41753e-05
-0.00265728
-5.16169e-05
4.32024e-05
-0.000162179
9.28028e-05
-0.000302239
0.000117908
-0.000454213
0.000128328
-0.000608902
0.000131018
-0.000762191
0.000130223
-0.000912612
0.000128171
-0.00105987
0.00012586
-0.00120411
0.000123662
-0.0013456
0.000121679
-0.00148459
0.00011992
-0.00162135
0.000118365
-0.00175609
0.000116989
-0.001889
0.000115773
-0.00202027
0.000114697
-0.00215006
0.000113749
-0.0022785
0.000112915
-0.00240574
0.000112179
-0.00253187
0.000111527
0.000110979
-0.00265702
-5.13777e-05
9.45802e-05
-0.000161533
0.000202958
-0.000301172
0.000257547
-0.000452766
0.000279922
-0.000607119
0.000285371
-0.000760106
0.000283211
-0.000910248
0.000278313
-0.00105724
0.000272855
-0.00120123
0.000267646
-0.00134246
0.000262912
-0.00148121
0.000258669
-0.00161772
0.000254876
-0.00175221
0.000251483
-0.00188489
0.000248446
-0.00201591
0.000245725
-0.00214545
0.00024329
-0.00227365
0.000241113
-0.00240063
0.000239161
-0.00252651
0.000237401
0.000235871
-0.0026514
-5.09057e-05
0.000145486
-0.000160262
0.000312314
-0.000299078
0.000396363
-0.00044993
0.000430774
-0.000603632
0.000439073
-0.000756035
0.000435613
-0.000905634
0.000427912
-0.00105211
0.000419333
-0.0011956
0.000411131
-0.00133634
0.000403657
-0.00147461
0.000396938
-0.00161065
0.000390913
-0.00174467
0.000385506
-0.00187687
0.000380647
-0.00200743
0.000376278
-0.00213649
0.000372351
-0.0022642
0.000368825
-0.00239069
0.000365649
-0.00251606
0.000362771
0.000360246
-0.00264043
-5.02019e-05
0.000195688
-0.000158367
0.000420478
-0.000295958
0.000533954
-0.000445707
0.000580524
-0.000598441
0.000591807
-0.000749977
0.000587149
-0.000898774
0.000576709
-0.00104449
0.00056505
-0.00118724
0.00055388
-0.00132726
0.000543682
-0.00146483
0.0005345
-0.00160016
0.000526249
-0.00173349
0.00051883
-0.00186499
0.000512149
-0.00199484
0.000506128
-0.00212319
0.000500703
-0.00225018
0.000495819
-0.00237594
0.000491407
-0.00250057
0.000487397
0.000483858
-0.00262418
-4.9268e-05
0.000244956
-0.00015585
0.000527061
-0.000291813
0.000669917
-0.000440097
0.000728809
-0.000591548
0.000743258
-0.000741936
0.000737536
-0.000889671
0.000724444
-0.00103438
0.000709759
-0.00117616
0.000695657
-0.00131524
0.00068276
-0.00145186
0.000671129
-0.00158628
0.000660664
-0.00171869
0.000651237
-0.00184927
0.000642734
-0.0019782
0.000635055
-0.00210562
0.000628122
-0.00223166
0.000621865
-0.00235646
0.000616201
-0.0024801
0.00061104
0.00060646
-0.0026027
-4.81058e-05
0.000293062
-0.000152715
0.00063167
-0.000286645
0.000803846
-0.000433102
0.000875266
-0.000582953
0.000893109
-0.000731912
0.000886495
-0.000878331
0.000870864
-0.00102179
0.000853222
-0.00116237
0.000836232
-0.00130028
0.000820667
-0.00143576
0.00080661
-0.00156904
0.000793942
-0.00170031
0.000782515
-0.00182977
0.000772188
-0.00195756
0.000762845
-0.00208383
0.000754391
-0.00220871
0.000746743
-0.00233231
0.000739806
-0.00245474
0.000733471
0.000727816
-0.0025761
-4.67179e-05
0.000339779
-0.000148964
0.000733916
-0.000280455
0.000935338
-0.000424719
0.00101953
-0.000572654
0.00104104
-0.000719908
0.00103375
-0.000864758
0.00101571
-0.00100674
0.000995202
-0.00114589
0.000975383
-0.00128241
0.000957189
-0.00141653
0.000940732
-0.00154847
0.000925881
-0.00167842
0.000912461
-0.00180654
0.000900311
-0.00193299
0.000889296
-0.00205791
0.000879305
-0.00218141
0.000870245
-0.00230361
0.000862008
-0.00242461
0.000854465
0.000847695
-0.00254448
-4.51069e-05
0.000384886
-0.000144599
0.000833408
-0.000273245
0.00106398
-0.000414949
0.00116123
-0.000560651
0.00118675
-0.00070592
0.00117902
-0.000848953
0.00115875
-0.000989221
0.00113547
-0.00112673
0.00111289
-0.00126166
0.00109212
-0.00139423
0.0010733
-0.00152463
0.00105629
-0.00165306
0.00104089
-0.00177966
0.00102692
-0.00190459
0.00101422
-0.00202796
0.00100267
-0.00214988
0.000992175
-0.00227048
0.000982604
-0.00238983
0.000973815
0.000965876
-0.00250801
-4.32756e-05
0.000428162
-0.000139625
0.000929757
-0.000265014
0.00118937
-0.000403788
0.00130001
-0.000546936
0.00132989
-0.000689946
0.00132203
-0.000830914
0.00129971
-0.000969247
0.0012738
-0.00110491
0.00124855
-0.00123805
0.00122526
-0.00136887
0.00120412
-0.00149757
0.00118498
-0.0016243
0.00116762
-0.00174922
0.00115183
-0.00187244
0.00113745
-0.00199409
0.00112432
-0.00211427
0.00111235
-0.00223308
0.00110141
-0.00235059
0.00109132
0.00108215
-0.00246686
-4.12273e-05
0.000469389
-0.000134043
0.00102257
-0.000255761
0.00131109
-0.000391228
0.00143547
-0.000531501
0.00147017
-0.000671974
0.0014625
-0.000810636
0.00143838
-0.000946815
0.00140998
-0.00108043
0.00138216
-0.0012116
0.00135643
-0.00134051
0.00133303
-0.00146733
0.0013118
-0.00159221
0.0012925
-0.00171529
0.00127491
-0.00183668
0.00125883
-0.00195646
0.00124411
-0.00207474
0.00123063
-0.00219159
0.00121826
-0.00230708
0.00120682
0.00119633
-0.00242126
-3.89651e-05
0.000508354
-0.000127855
0.00111146
-0.000245481
0.00142872
-0.00037726
0.00156725
-0.00051433
0.00160724
-0.000651989
0.00160016
-0.000788104
0.00157449
-0.000921915
0.00154379
-0.00105328
0.00151353
-0.00118231
0.00148546
-0.00130914
0.00145987
-0.00143395
0.00143661
-0.00155686
0.00141541
-0.00167798
0.00139603
-0.00179741
0.00137826
-0.00191522
0.00136192
-0.00203147
0.00134689
-0.00214624
0.00133303
-0.00225958
0.00132015
0.00130825
-0.0023715
-3.64928e-05
0.000544847
-0.000121064
0.00119603
-0.000234172
0.00154182
-0.000361872
0.00169495
-0.000495405
0.00174077
-0.000629966
0.00173472
-0.000763292
0.00170782
-0.000894526
0.00167503
-0.00102347
0.00164247
-0.00115018
0.00161217
-0.0012748
0.00158449
-0.00139747
0.00155927
-0.0015183
0.00153624
-0.00163738
0.00151511
-0.00175477
0.00149565
-0.00187053
0.00147768
-0.0019847
0.00146105
-0.00209731
0.00144564
-0.00220838
0.00143123
0.00141777
-0.00231791
-3.38142e-05
0.000578661
-0.000113672
0.00127589
-0.000221826
0.00164998
-0.000345045
0.00181817
-0.000474697
0.00187042
-0.000605873
0.0018659
-0.000736166
0.00183811
-0.000864612
0.00180347
-0.000990946
0.00176881
-0.0011152
0.00173642
-0.00123748
0.00170677
-0.0013579
0.0016797
-0.00147657
0.00165491
-0.00159355
0.00163209
-0.00170889
0.00161099
-0.00182259
0.00159138
-0.00193466
0.00157313
-0.00204509
0.00155608
-0.00215388
0.00154001
0.00152484
-0.00226095
-3.09343e-05
0.000609596
-0.000105682
0.00135064
-0.000208436
0.00175273
-0.000326759
0.0019365
-0.000452174
0.00199584
-0.000579665
0.00199339
-0.000706675
0.00196512
-0.000832119
0.00192892
-0.000955664
0.00189235
-0.0010773
0.00185806
-0.00119711
0.00182658
-0.00131521
0.0017978
-0.00143168
0.00177137
-0.00154655
0.00174697
-0.00165986
0.00172429
-0.00177156
0.00170309
-0.00188162
0.00168319
-0.00198998
0.00166443
-0.00209655
0.00164658
0.00162946
-0.00220116
-2.78587e-05
0.000637454
-9.70973e-05
0.00141988
-0.000193995
0.00184963
-0.000306992
0.00204949
-0.000427797
0.00211664
-0.00055129
0.00211688
-0.000674753
0.00208859
-0.000796972
0.00205114
-0.000917538
0.00201292
-0.0010364
0.00197692
-0.00115363
0.00194382
-0.00126933
0.0019135
-0.00138356
0.00188561
-0.00149637
0.00185977
-0.00160773
0.00183565
-0.00171759
0.00181295
-0.00182585
0.00179145
-0.00193237
0.00177095
-0.00203694
0.00175114
0.0017318
-0.00213928
-2.45949e-05
0.000662049
-8.79253e-05
0.00148321
-0.000178499
0.0019402
-0.000285721
0.00215671
-0.000401523
0.00223245
-0.000520688
0.00223604
-0.000640323
0.00220822
-0.000759077
0.00216989
-0.000876458
0.0021303
-0.000992375
0.00209283
-0.00110689
0.00205833
-0.0012201
0.00202671
-0.00133208
0.00199759
-0.00144286
0.00197055
-0.00155243
0.00194522
-0.00166071
0.00192123
-0.00176757
0.00189831
-0.00187276
0.00187614
-0.00197588
0.00185426
0.00183225
-0.00207632
-2.11526e-05
0.000683202
-7.81775e-05
0.00154023
-0.000161948
0.00202397
-0.000262925
0.00225769
-0.000373309
0.00234283
-0.00048779
0.00235053
-0.000603294
0.00232372
-0.000718317
0.00228491
-0.000832275
0.00224426
-0.000945038
0.0022056
-0.00105666
0.00216996
-0.00116726
0.0021373
-0.00127692
0.00210725
-0.00138573
0.00207936
-0.00149368
0.00205317
-0.0016007
0.00202825
-0.00170665
0.00200426
-0.00181126
0.00198074
-0.00191385
0.00195685
0.00193175
-0.00201334
-1.75446e-05
0.000700746
-6.78719e-05
0.00159056
-0.00014435
0.00210045
-0.000238594
0.00235194
-0.000343119
0.00244735
-0.000452535
0.00245994
-0.000563576
0.00243477
-0.000674574
0.00239591
-0.000784842
0.00235453
-0.000894211
0.00231497
-0.00100274
0.00227848
-0.00111056
0.00224512
-0.00121782
0.00221452
-0.00132467
0.00218621
-0.0014312
0.00215969
-0.00153741
0.00213447
-0.0016433
0.00211015
-0.00174881
0.00208625
-0.00185322
0.00206127
0.00203164
-0.00195312
-1.37872e-05
0.000714534
-5.70351e-05
0.00163381
-0.000125725
0.00216914
-0.000212726
0.00243894
-0.000310926
0.00254555
-0.000414867
0.00256388
-0.000521082
0.00254098
-0.000627714
0.00250254
-0.000733957
0.00246077
-0.000839579
0.00242059
-0.000944621
0.00238352
-0.00104923
0.00234973
-0.00115362
0.0023189
-0.00125799
0.00229059
-0.00136261
0.00226431
-0.00146768
0.00223953
-0.00157326
0.00221572
-0.00167958
0.00219257
-0.00178734
0.00216903
0.00213793
-0.00189363
-9.90089e-06
0.000724435
-4.57045e-05
0.00166961
-0.000106108
0.00222954
-0.000185342
0.00251817
-0.000276725
0.00263694
-0.000374754
0.00266191
-0.00047575
0.00264198
-0.000577651
0.00260444
-0.000679508
0.00256263
-0.000781024
0.0025221
-0.000882238
0.00248474
-0.000983366
0.00245086
-0.00108475
0.00242029
-0.00118685
0.00239269
-0.00129032
0.00236778
-0.00139598
0.00234519
-0.0015047
0.00232445
-0.00161687
0.00230474
-0.00173344
0.0022856
0.00227871
-0.00187421
-5.92308e-06
0.000730358
-3.39497e-05
0.00169764
-8.55787e-05
0.00228117
-0.000156507
0.0025891
-0.000240562
0.00272099
-0.000332219
0.00275357
-0.00042758
0.00273734
-0.000524351
0.00270121
-0.000621412
0.00265969
-0.000718356
0.00261905
-0.000815163
0.00258154
-0.000912003
0.0025477
-0.00100914
0.00251742
-0.00110687
0.00249043
-0.00120549