/*--------------------------------*- C++ -*----------------------------------*\
  =========                 |
  \\      /  F ield         | OpenFOAM: The Open Source CFD Toolbox
   \\    /   O peration     | Website:  https://openfoam.org
    \\  /    A nd           | Version:  6.0
     \\/     M anipulation  |
\*---------------------------------------------------------------------------*/
FoamFile
{
    version     2.0;
    format      ascii;
    class       volVectorField;
    location    "65";
    object      U;
}
// * * * * * * * * * * * * * * * * * * * * * * * * * * * * * * * * * * * * * //

dimensions      [0 1 -1 0 0 0 0];

internalField   nonuniform List<vector> 
4000
(
(0.108035 0.00796959 7.03285e-20)
(0.338645 0.0410411 -3.84001e-20)
(0.568949 0.0969529 4.53124e-20)
(0.780355 0.159342 -3.37345e-20)
(0.958666 0.217841 -1.51262e-20)
(1.09734 0.266645 4.61044e-21)
(1.19703 0.303317 -1.48222e-20)
(1.26312 0.328063 5.32326e-20)
(1.30294 0.342644 -4.42995e-20)
(1.32385 0.349393 1.041e-20)
(1.33209 0.350571 -7.74374e-21)
(1.33242 0.348054 -5.03112e-20)
(1.32819 0.343245 4.87656e-20)
(1.32158 0.33712 1.85293e-20)
(1.31398 0.330316 -1.84075e-20)
(1.30621 0.323229 4.31546e-20)
(1.29876 0.316083 -6.64784e-22)
(1.29191 0.309038 -4.16951e-20)
(1.28583 0.302465 3.08018e-20)
(1.28069 0.296216 9.69266e-21)
(0.122786 0.0133573 -2.46695e-20)
(0.374047 0.0573516 7.13732e-20)
(0.615661 0.122581 8.26572e-20)
(0.829613 0.19102 -3.90832e-20)
(1.00354 0.251971 6.79028e-20)
(1.13359 0.300272 1.07472e-19)
(1.22308 0.334539 -5.98253e-21)
(1.27935 0.355992 -1.84776e-20)
(1.31086 0.367146 9.09974e-20)
(1.32534 0.370774 4.43665e-20)
(1.32896 0.369324 -8.03663e-21)
(1.32618 0.364694 6.60974e-20)
(1.31995 0.358223 -7.07775e-20)
(1.31213 0.350793 1.10248e-19)
(1.30384 0.342953 -1.83599e-20)
(1.29572 0.335027 5.258e-20)
(1.28812 0.327184 9.44914e-21)
(1.28126 0.319565 3.74535e-20)
(1.27525 0.312542 -3.56215e-20)
(1.2702 0.30583 8.67612e-21)
(0.137651 0.019876 -3.83764e-20)
(0.408511 0.0760761 9.01455e-20)
(0.659558 0.150795 6.71469e-20)
(0.874066 0.224715 -1.02101e-20)
(1.04213 0.287256 1.04968e-19)
(1.16291 0.334244 -7.88958e-20)
(1.24234 0.365529 -6.14079e-21)
(1.28948 0.383383 6.92728e-20)
(1.31363 0.391017 2.19217e-20)
(1.32268 0.391566 3.08327e-20)
(1.32259 0.387593 -4.55532e-20)
(1.31742 0.380964 1.18841e-19)
(1.30976 0.372928 2.2177e-20)
(1.30114 0.364263 -1.05166e-19)
(1.29245 0.35543 1.53763e-19)
(1.28416 0.346687 -1.81249e-19)
(1.27656 0.338156 -8.31145e-20)
(1.26979 0.329964 1.39089e-20)
(1.2639 0.322483 8.04646e-20)
(1.25901 0.315288 -1.52124e-19)
(0.152388 0.0275257 -8.54378e-20)
(0.441455 0.0970779 -2.0204e-19)
(0.699958 0.181281 -1.75301e-19)
(0.913182 0.260004 -2.3833e-19)
(1.07423 0.323266 -1.35551e-19)
(1.18542 0.368207 -2.80908e-19)
(1.25518 0.39604 3.57319e-20)
(1.29401 0.410082 -1.49369e-19)
(1.31178 0.414171 -1.64926e-20)
(1.31636 0.411721 2.46056e-20)
(1.31336 0.405339 -5.4152e-20)
(1.30645 0.396821 6.78848e-20)
(1.29782 0.387305 1.20905e-19)
(1.28872 0.377462 -1.69767e-19)
(1.27985 0.367668 2.75495e-20)
(1.27157 0.358122 7.90051e-20)
(1.26408 0.348908 1.32205e-19)
(1.25749 0.340145 -1.14022e-19)
(1.25178 0.332198 -5.46197e-21)
(1.2471 0.324503 1.3402e-19)
(0.166748 0.0362759 -1.60645e-19)
(0.472323 0.120156 4.42009e-19)
(0.736267 0.213668 -7.76191e-20)
(0.946568 0.296437 1.03778e-19)
(1.09975 0.359579 -1.01311e-19)
(1.20133 0.401825 3.12038e-19)
(1.26199 0.425839 -4.95727e-20)
(1.29341 0.435941 2.93959e-20)
(1.30578 0.436518 -1.52095e-20)
(1.30677 0.431172 4.86374e-20)
(1.30159 0.422501 3.1511e-20)
(1.29346 0.412198 4.0209e-20)
(1.28426 0.401276 -1.13675e-19)
(1.27497 0.390301 1.66934e-19)
(1.26611 0.379574 -1.2697e-19)
(1.25797 0.369237 2.44354e-20)
(1.25069 0.359343 -8.1666e-20)
(1.24434 0.350009 1.76262e-20)
(1.23888 0.341591 1.9961e-20)
(1.23447 0.333386 -1.8419e-19)
(0.180482 0.0460656 1.10489e-20)
(0.500607 0.145051 -2.2205e-19)
(0.767997 0.247537 1.23225e-19)
(0.973956 0.333548 -4.28991e-19)
(1.1187 0.395778 2.08263e-19)
(1.21089 0.434779 -3.5693e-19)
(1.26318 0.454703 -2.79531e-19)
(1.28814 0.460816 -1.07021e-20)
(1.29603 0.457953 -9.51746e-20)
(1.29423 0.449834 -2.97851e-19)
(1.2875 0.438996 -3.76813e-20)
(1.27864 0.427003 -2.87643e-19)
(1.26919 0.414742 5.18014e-20)
(1.25993 0.402678 -4.18232e-20)
(1.25125 0.391039 2.46562e-20)
(1.24336 0.379922 -1.95685e-19)
(1.23638 0.369354 9.33291e-21)
(1.23035 0.359453 3.87347e-20)
(1.2252 0.35056 -9.18268e-20)
(1.22112 0.34184 7.98135e-20)
(0.19335 0.0568037 -9.07906e-20)
(0.525854 0.171453 4.0514e-19)
(0.794762 0.282438 3.58033e-21)
(0.995201 0.370864 -3.5122e-19)
(1.13123 0.431457 2.66495e-19)
(1.21443 0.466764 1.12405e-19)
(1.25917 0.482421 2.27304e-20)
(1.27859 0.484556 -1.90695e-19)
(1.2829 0.478362 3.10006e-19)
(1.27903 0.467606 -1.83233e-19)
(1.27129 0.45472 6.53692e-20)
(1.26209 0.441129 3.11449e-19)
(1.25268 0.427591 -2.81403e-19)
(1.24365 0.414476 3.09859e-19)
(1.23529 0.401948 -2.01298e-19)
(1.22777 0.390064 -3.93245e-20)
(1.22117 0.378831 4.7921e-20)
(1.21553 0.368369 6.14255e-20)
(1.21074 0.359 8.51773e-20)
(1.20705 0.349772 5.09773e-20)
(0.205125 0.0683713 3.60266e-20)
(0.547678 0.19901 -3.63259e-19)
(0.816284 0.317896 6.45438e-20)
(1.01026 0.407917 8.47348e-19)
(1.1375 0.466226 -7.79485e-20)
(1.21229 0.497488 2.36285e-19)
(1.25034 0.508784 1.47979e-19)
(1.26516 0.507008 2.44006e-20)
(1.26668 0.497619 -1.73348e-19)
(1.26139 0.484367 2.84578e-19)
(1.25313 0.469553 -3.42514e-20)
(1.24393 0.45445 4.37254e-19)
(1.2348 0.439695 1.69803e-19)
(1.22618 0.425568 1.07211e-19)
(1.21828 0.412177 -2.2355e-19)
(1.21121 0.399542 4.74595e-20)
(1.20508 0.387656 1.74899e-19)
(1.19989 0.376645 4.60774e-20)
(1.19552 0.366805 -2.13816e-19)
(1.19229 0.357081 -5.36599e-20)
(0.215601 0.0806239 -2.01713e-19)
(0.565767 0.227334 6.50599e-19)
(0.832388 0.353425 -3.54321e-19)
(1.01919 0.444244 -3.26965e-19)
(1.13778 0.499713 -2.85403e-19)
(1.20483 0.526675 -2.41635e-19)
(1.23708 0.53359 -2.99514e-19)
(1.24816 0.528015 3.76848e-19)
(1.24764 0.515587 -2.70803e-19)
(1.24151 0.499987 -2.21562e-20)
(1.23313 0.483362 -1.80041e-21)
(1.22424 0.466834 -5.24097e-20)
(1.21561 0.45092 -1.36383e-19)
(1.20756 0.435822 -1.53465e-19)
(1.20023 0.421595 -8.2211e-21)
(1.19373 0.408231 -3.43805e-20)
(1.18813 0.395711 -8.59946e-20)
(1.18345 0.384165 -2.7142e-20)
(1.17958 0.373864 2.86117e-20)
(1.17687 0.36367 -1.86253e-19)
(0.224599 0.0933947 3.51851e-19)
(0.579884 0.256019 3.65113e-19)
(0.842994 0.388538 -2.27053e-19)
(1.02213 0.4794 1.39959e-19)
(1.13237 0.531562 2.43132e-19)
(1.19241 0.55406 -5.13217e-20)
(1.21975 0.556642 5.99429e-20)
(1.22792 0.547416 6.89979e-20)
(1.22602 0.532121 1.15061e-19)
(1.21954 0.514324 -1.35914e-19)
(1.21143 0.496005 6.63424e-20)
(1.20311 0.478136 -4.69845e-20)
(1.19517 0.461124 2.08562e-19)
(1.18784 0.445099 9.312e-20)
(1.1812 0.430071 -2.10084e-19)
(1.17535 0.416004 1.16807e-19)
(1.17037 0.402873 5.79282e-20)
(1.16627 0.390811 -1.08632e-19)
(1.16295 0.380065 2.94022e-19)
(1.16082 0.369437 -2.1775e-19)
(0.231965 0.106499 -2.58597e-19)
(0.589872 0.284641 -3.36594e-19)
(0.848113 0.422753 2.37124e-19)
(1.01927 0.512958 -2.18462e-19)
(1.12158 0.561439 -1.93882e-20)
(1.17541 0.579395 -2.43622e-19)
(1.1987 0.577747 2.01213e-19)
(1.20471 0.565051 3.77929e-19)
(1.20204 0.547071 -5.2638e-19)
(1.19566 0.527231 2.71093e-20)
(1.18813 0.507334 2.12552e-20)
(1.18061 0.488209 -1.08099e-19)
(1.17354 0.470162 7.36294e-20)
(1.16707 0.453257 -3.21772e-20)
(1.16124 0.437466 2.17899e-19)
(1.15613 0.42273 -2.34999e-19)
(1.15184 0.409014 -8.33701e-20)
(1.14839 0.396458 2.15338e-19)
(1.14568 0.385288 -3.27117e-19)
(1.14421 0.374274 2.06346e-19)
(0.237582 0.119738 5.3814e-19)
(0.595647 0.312775 4.77857e-19)
(0.847836 0.455605 -8.00541e-20)
(1.01088 0.544517 -1.035e-20)
(1.10578 0.589035 -2.45289e-19)
(1.1542 0.602446 1.04239e-19)
(1.17425 0.596721 5.22063e-19)
(1.1788 0.580758 -4.59983e-19)
(1.1759 0.560287 2.9554e-19)
(1.17 0.538559 -2.69353e-20)
(1.16333 0.5172 1.84343e-19)
(1.15682 0.496903 -4.38044e-20)
(1.15079 0.477886 1.12313e-19)
(1.14532 0.460155 1.48494e-19)
(1.14041 0.443644 -8.03973e-20)
(1.13614 0.428273 1.02568e-19)
(1.13262 0.414002 -1.49231e-19)
(1.12988 0.400976 3.79787e-19)
(1.12785 0.3894 -2.4106e-19)
(1.12711 0.378053 1.73471e-19)
(0.241362 0.132905 -2.63962e-19)
(0.597201 0.339999 -4.92897e-19)
(0.842328 0.486651 -3.40643e-19)
(0.997269 0.573703 -2.54018e-20)
(1.08535 0.614064 8.22393e-20)
(1.12915 0.622995 -4.514e-20)
(1.14673 0.613389 -2.96207e-19)
(1.15045 0.594384 -1.31642e-19)
(1.14777 0.57162 -2.43768e-19)
(1.1427 0.54816 -1.24274e-19)
(1.13712 0.525455 6.18217e-20)
(1.13181 0.504073 -2.95159e-19)
(1.12698 0.484151 -7.19515e-20)
(1.12264 0.465647 -7.21545e-20)
(1.11878 0.448462 -2.27376e-19)
(1.11545 0.432497 1.01212e-19)
(1.11276 0.417702 -3.22944e-22)
(1.1108 0.404222 9.66726e-20)
(1.10954 0.392252 -4.08425e-20)
(1.10959 0.380624 -1.50895e-19)
(0.243256 0.145788 6.10042e-19)
(0.594594 0.365906 5.30982e-19)
(0.831818 0.515475 6.63356e-19)
(0.978782 0.600174 -6.87688e-20)
(1.06067 0.636265 -2.44729e-19)
(1.10063 0.640845 7.20971e-19)
(1.11644 0.627587 -3.63943e-19)
(1.11989 0.605781 4.07085e-19)
(1.11785 0.580929 -7.63446e-20)
(1.11388 0.555893 2.54258e-19)
(1.10962 0.531957 2.81421e-20)
(1.10567 0.509574 1.27625e-19)
(1.10217 0.488814 -2.90967e-20)
(1.0991 0.469593 1.31798e-19)
(1.0964 0.451783 -1.12218e-19)
(1.09411 0.435263 4.75375e-21)
(1.09235 0.419975 5.63691e-20)
(1.09123 0.406053 9.25726e-20)
(1.0908 0.393693 -1.58063e-20)
(1.0917 0.381841 5.32098e-20)
(0.243249 0.158175 -1.87812e-19)
(0.587949 0.390105 -5.29902e-19)
(0.816588 0.541695 -3.22759e-19)
(0.955802 0.623623 -5.66753e-19)
(1.03215 0.655407 6.13282e-19)
(1.069 0.655818 -4.38399e-19)
(1.0837 0.639169 2.80231e-19)
(1.08737 0.614813 -9.64836e-20)
(1.08631 0.588081 -1.22527e-19)
(1.08369 0.561628 -8.70676e-20)
(1.08091 0.536575 4.52095e-20)
(1.07846 0.513276 6.32644e-20)
(1.07642 0.491742 5.40906e-20)
(1.07474 0.471855 -7.05568e-20)
(1.07334 0.453464 -5.40679e-20)
(1.07221 0.43643 1.74879e-19)
(1.07147 0.420678 -1.71485e-20)
(1.07126 0.406325 -7.24507e-20)
(1.07172 0.393584 3.35486e-21)
(1.07347 0.381591 -1.59456e-20)
(0.24136 0.169859 8.36229e-19)
(0.57745 0.412237 3.93863e-19)
(0.796972 0.564966 3.67939e-19)
(0.928736 0.643779 -2.19951e-19)
(1.00019 0.671289 2.81025e-20)
(1.03463 0.667758 3.15151e-19)
(1.04879 0.648004 4.34061e-20)
(1.05311 0.621363 9.38791e-20)
(1.05333 0.592964 1.04593e-19)
(1.05226 0.565251 1.14789e-20)
(1.0511 0.539198 5.90712e-20)
(1.05025 0.515064 -8.98092e-21)
(1.04979 0.492814 -2.78349e-20)
(1.04962 0.472305 -9.14705e-20)
(1.04963 0.453368 2.29774e-20)
(1.0498 0.43585 4.20107e-21)
(1.0502 0.419655 -5.26254e-21)
(1.05098 0.404871 5.5999e-21)
(1.05237 0.391757 -1.93003e-21)
(1.05504 0.379728 1.24995e-20)
(0.237642 0.180644 -6.0178e-19)
(0.563329 0.431971 -5.20792e-19)
(0.77334 0.584983 2.52098e-19)
(0.898013 0.660406 -3.12816e-19)
(0.965218 0.683739 -2.25329e-20)
(0.99788 0.676534 4.67049e-20)
(1.01202 0.65398 -5.07347e-20)
(1.01735 0.625328 -4.03539e-20)
(1.01909 0.595479 -9.46469e-20)
(1.01972 0.566671 -5.89121e-20)
(1.02028 0.539734 -9.82651e-21)
(1.02113 0.514849 -4.7447e-20)
(1.0223 0.491938 1.59799e-20)
(1.02373 0.470839 -1.77077e-20)
(1.0253 0.451377 1.05837e-20)
(1.02692 0.433389 -5.57164e-21)
(1.02859 0.416757 -1.51602e-20)
(1.03049 0.401509 -2.01484e-20)
(1.03296 0.38794 1.31627e-21)
(1.03682 0.375888 3.62628e-20)
(0.232177 0.190346 5.6563e-19)
(0.545866 0.449013 1.71365e-20)
(0.746097 0.601484 -5.20521e-20)
(0.864077 0.67331 6.22789e-20)
(0.927642 0.692615 2.24913e-19)
(0.95911 0.68204 -1.60929e-19)
(0.97367 0.65701 7.56603e-20)
(0.980319 0.626628 -9.9374e-20)
(0.983771 0.595553 2.99914e-20)
(0.986222 0.565819 -2.5635e-20)
(0.988574 0.53812 -1.32955e-20)
(0.99114 0.512564 -1.68184e-20)
(0.993984 0.489038 1.39894e-20)
(0.997067 0.467369 -1.05703e-20)
(1.00029 0.447378 -9.82234e-20)
(1.00353 0.428916 9.11764e-20)
(1.00669 0.411839 -6.36577e-20)
(1.00994 0.39604 -4.36677e-20)
(1.01391 0.381737 4.69919e-20)
(1.01945 0.369425 -6.04475e-20)
(0.225077 0.198798 -1.18314e-19)
(0.525377 0.463108 1.25339e-19)
(0.715674 0.614251 9.2864e-20)
(0.827382 0.682331 -1.40923e-19)
(0.887891 0.697809 6.94843e-20)
(0.918685 0.684195 -1.20058e-19)
(0.934053 0.657029 -1.30894e-20)
(0.942268 0.62521 -1.18501e-21)
(0.947576 0.593144 -1.15713e-20)
(0.951916 0.562661 -6.14712e-20)
(0.956078 0.534331 3.09142e-21)
(0.960349 0.508186 -1.01817e-20)
(0.964822 0.484075 7.81595e-20)
(0.969518 0.461804 -2.21417e-19)
(0.9744 0.441202 2.06453e-19)
(0.979338 0.422148 1.14169e-19)
(0.984188 0.404493 -2.96256e-20)
(0.989207 0.387909 1.67814e-20)
(0.995318 0.372393 2.05443e-19)
(1.00286 0.359463 -8.47257e-20)
(0.216479 0.205851 -3.74798e-20)
(0.502212 0.474041 9.46829e-20)
(0.68252 0.623107 -1.10169e-19)
(0.788394 0.687351 1.48552e-19)
(0.846387 0.69924 -6.65343e-21)
(0.876971 0.682943 -2.71346e-20)
(0.893473 0.653994 6.7351e-21)
(0.903455 0.621046 -3.45737e-20)
(0.910723 0.588239 3.61639e-20)
(0.916988 0.557214 3.08853e-20)
(0.922939 0.528416 2.13529e-20)
(0.92884 0.501802 -2.19805e-22)
(0.934803 0.477165 7.92056e-20)
(0.940905 0.454258 -8.33155e-20)
(0.947182 0.432871 9.7096e-20)
(0.953558 0.412868 -2.00554e-19)
(0.959941 0.394046 2.29063e-19)
(0.96679 0.375757 -1.98063e-19)
(0.975118 0.357734 -1.28971e-19)
(0.983783 0.343486 2.27713e-19)
(0.206541 0.21138 5.82782e-20)
(0.476743 0.481641 6.83301e-21)
(0.6471 0.62792 2.07281e-20)
(0.747579 0.688284 -6.0745e-21)
(0.803559 0.696858 -1.62775e-20)
(0.834338 0.678251 9.73264e-21)
(0.852247 0.647884 -1.02698e-19)
(0.864156 0.614124 6.81801e-20)
(0.873463 0.58085 7.57837e-20)
(0.881671 0.549523 -1.13307e-19)
(0.889383 0.520483 1.41379e-19)
(0.896828 0.493624 -5.24675e-20)
(0.904108 0.468686 1.11257e-19)
(0.9113 0.445364 -1.76463e-19)
(0.918453 0.423361 3.70394e-19)
(0.925525 0.402419 -8.12613e-20)
(0.932542 0.382122 -2.25142e-20)
(0.940204 0.361179 2.50981e-19)
(0.949321 0.337605 -1.21339e-19)
(0.954766 0.314011 5.87996e-20)
(0.195437 0.215282 -1.34358e-20)
(0.449359 0.485777 -3.40269e-20)
(0.609886 0.628598 -2.70814e-20)
(0.705407 0.685078 8.45257e-21)
(0.75983 0.690635 -9.55305e-21)
(0.791158 0.670103 -1.24355e-19)
(0.810701 0.638688 1.86988e-19)
(0.824663 0.604439 1.44632e-20)
(0.836069 0.570976 -2.12903e-20)
(0.846245 0.539602 5.3204e-21)
(0.855718 0.510574 6.99151e-20)
(0.864688 0.483752 1.22492e-19)
(0.873233 0.458872 7.2381e-20)
(0.881389 0.435647 -1.74172e-19)
(0.88914 0.413821 -5.2615e-20)
(0.896422 0.393202 -5.36513e-21)
(0.903343 0.373523 3.53625e-20)
(0.910522 0.354076 5.82797e-21)
(0.91791 0.334131 3.85992e-19)
(0.92072 0.315871 -2.68961e-19)
(0.183354 0.217472 7.97428e-20)
(0.42046 0.486356 1.15458e-20)
(0.571349 0.625087 -9.16403e-20)
(0.662341 0.677716 2.57389e-19)
(0.71562 0.680572 7.10978e-20)
(0.747796 0.658505 -1.83048e-19)
(0.769158 0.626409 1.77826e-19)
(0.78527 0.591991 -4.52162e-20)
(0.798822 0.558617 1.64358e-19)
(0.810985 0.527442 7.9951e-20)
(0.822236 0.498652 -3.5891e-19)
(0.832765 0.472078 -4.03797e-20)
(0.842657 0.447451 5.09648e-19)
(0.851945 0.424492 -6.26296e-19)
(0.860608 0.402956 5.79979e-19)
(0.868572 0.382643 2.03499e-19)
(0.875907 0.36327 -7.19151e-19)
(0.883031 0.344245 3.5055e-19)
(0.889772 0.325253 -7.07454e-20)
(0.892534 0.308762 8.42676e-20)
(0.170489 0.217893 -2.16233e-19)
(0.390451 0.483325 -2.27941e-19)
(0.531959 0.617373 1.55616e-19)
(0.618838 0.666209 -2.09181e-19)
(0.67134 0.66669 -6.01408e-19)
(0.704617 0.643478 -2.68358e-20)
(0.72794 0.611065 -1.81804e-19)
(0.746271 0.576793 4.26865e-21)
(0.761995 0.543783 -3.74884e-19)
(0.776153 0.513055 -3.82622e-19)
(0.789182 0.484739 -2.65263e-19)
(0.801267 0.458651 -1.17255e-20)
(0.812502 0.434526 -6.5279e-19)
(0.822937 0.412106 -9.07141e-21)
(0.832575 0.391176 3.2076e-19)
(0.841381 0.371573 -3.18259e-19)
(0.849436 0.353075 -2.48498e-19)
(0.85708 0.335235 2.39856e-19)
(0.864132 0.317858 -1.71244e-19)
(0.867648 0.302891 3.32873e-20)
(0.157044 0.216507 1.90908e-19)
(0.359738 0.47667 1.47983e-19)
(0.49218 0.605477 -9.65645e-21)
(0.575343 0.6506 -1.39054e-19)
(0.62739 0.64904 3.15549e-19)
(0.661971 0.625065 5.27161e-19)
(0.68736 0.592688 -5.64308e-20)
(0.707955 0.558866 6.48662e-21)
(0.725864 0.52648 1.00164e-19)
(0.742024 0.49643 2.38151e-19)
(0.756844 0.468799 3.49033e-19)
(0.770514 0.44339 -2.85635e-19)
(0.783145 0.419946 2.7894e-19)
(0.794803 0.398222 -9.86756e-20)
(0.805512 0.378016 3.28617e-19)
(0.815271 0.359175 -1.28238e-19)
(0.824188 0.341503 -3.22009e-19)
(0.832606 0.324649 1.92405e-19)
(0.840374 0.30854 -2.77176e-19)
(0.844918 0.294815 -3.14819e-19)
(0.143224 0.213301 9.78502e-20)
(0.328719 0.466414 1.71617e-19)
(0.452462 0.589457 -1.79615e-19)
(0.532288 0.630965 3.95573e-21)
(0.584156 0.627692 3.08999e-20)
(0.620199 0.603328 2.6092e-19)
(0.647722 0.571328 -3.83069e-19)
(0.670594 0.538245 3.63671e-19)
(0.690681 0.506732 -3.68955e-20)
(0.708832 0.477578 9.94414e-20)
(0.725436 0.450826 1.63196e-19)
(0.740701 0.426273 -3.11475e-19)
(0.754754 0.403672 1.4737e-19)
(0.767689 0.382791 1.41021e-19)
(0.779557 0.363442 5.24623e-20)
(0.790385 0.345481 -2.68843e-19)
(0.800309 0.328726 9.05437e-19)
(0.809666 0.312876 -5.09091e-19)
(0.818299 0.297896 9.23295e-19)
(0.823925 0.285141 -5.97276e-20)
(0.129232 0.208281 7.51074e-20)
(0.297786 0.452612 4.16899e-19)
(0.413241 0.569405 1.51482e-19)
(0.490086 0.607404 3.07929e-19)
(0.542009 0.602744 8.28093e-20)
(0.579628 0.578351 -5.00771e-19)
(0.609317 0.547051 7.79386e-19)
(0.634454 0.514984 4.07057e-19)
(0.656691 0.484577 1.78418e-20)
(0.676804 0.456521 5.28062e-19)
(0.695174 0.430825 8.74854e-20)
(0.712024 0.407285 5.50902e-20)
(0.727506 0.38566 3.16303e-19)
(0.741736 0.365731 -1.19212e-19)
(0.754791 0.347319 -1.24216e-19)
(0.766731 0.330283 7.39862e-19)
(0.777717 0.314455 -6.17241e-19)
(0.788074 0.299572 2.34055e-20)
(0.797636 0.285616 7.83431e-19)
(0.804368 0.273704 -7.57343e-22)
(0.11527 0.201474 -9.04887e-19)
(0.267315 0.435356 -1.45669e-19)
(0.374932 0.545444 -2.03779e-19)
(0.449132 0.580048 -1.57725e-19)
(0.5013 0.574319 -4.05172e-19)
(0.540566 0.550241 1.38434e-19)
(0.572418 0.519947 -1.96244e-19)
(0.599782 0.489154 5.91296e-20)
(0.62412 0.460072 -2.84229e-19)
(0.646148 0.433301 -2.6661e-19)
(0.666248 0.408825 5.86384e-20)
(0.684657 0.386439 -4.352e-19)
(0.701553 0.365911 3.49884e-19)
(0.717075 0.347034 -1.26799e-19)
(0.731326 0.329636 3.94702e-19)
(0.74439 0.31358 -8.52018e-19)
(0.756447 0.298706 -1.62165e-19)
(0.767806 0.284781 -3.06534e-19)
(0.778296 0.271794 -8.23026e-19)
(0.786121 0.260649 -1.33286e-19)
(0.101532 0.192927 1.46291e-19)
(0.237666 0.414765 -1.53204e-20)
(0.337931 0.517728 -2.32188e-19)
(0.409797 0.549057 8.241e-20)
(0.46236 0.542561 -1.66898e-19)
(0.503306 0.519124 -2.01095e-21)
(0.537285 0.490125 2.26681e-19)
(0.566811 0.460848 -3.39566e-19)
(0.593179 0.433294 1.31663e-19)
(0.617057 0.407983 -7.66812e-20)
(0.638829 0.384875 2.15953e-20)
(0.658752 0.363771 -3.81117e-19)
(0.677026 0.344449 -4.63446e-19)
(0.693812 0.32671 -1.78425e-20)
(0.709234 0.310394 5.16988e-19)
(0.723403 0.295365 2.37982e-20)
(0.736508 0.281472 6.55061e-19)
(0.748839 0.268512 -9.56016e-19)
(0.760232 0.256468 5.07915e-19)
(0.769122 0.246064 8.78458e-19)
(0.088204 0.182705 -1.3221e-19)
(0.209182 0.390989 7.08257e-20)
(0.302611 0.486443 4.63113e-19)
(0.372432 0.514615 1.15201e-19)
(0.4255 0.507642 -1.54389e-19)
(0.468121 0.48515 1.22522e-19)
(0.504161 0.457714 4.81717e-19)
(0.53576 0.430179 -3.91517e-19)
(0.564066 0.404342 3.63965e-20)
(0.589709 0.38065 -1.43217e-19)
(0.613079 0.359049 5.17628e-19)
(0.634451 0.339344 3.70338e-19)
(0.654047 0.321326 -5.35829e-20)
(0.672048 0.304809 -5.61525e-19)
(0.6886 0.289638 2.98024e-20)
(0.70383 0.275685 -6.96895e-20)
(0.717937 0.262809 3.30505e-19)
(0.731191 0.250829 5.37979e-19)
(0.743445 0.239724 4.70022e-19)
(0.753358 0.230059 -7.86364e-19)
(0.0754641 0.17089 -8.38013e-20)
(0.182184 0.364208 3.57296e-19)
(0.26932 0.451799 -3.47334e-19)
(0.337361 0.476932 4.8583e-19)
(0.391009 0.469753 -2.63096e-19)
(0.435265 0.44849 1.90184e-19)
(0.473271 0.422866 4.81211e-19)
(0.50683 0.397279 -5.80131e-19)
(0.536962 0.373333 2.64527e-19)
(0.564269 0.351408 3.34823e-19)
(0.589144 0.33144 -4.54527e-19)
(0.611885 0.313243 -3.16212e-20)
(0.63273 0.296621 -3.64447e-19)
(0.651881 0.281401 5.85639e-19)
(0.6695 0.267438 -3.17419e-19)
(0.685733 0.25461 3.40813e-19)
(0.70078 0.242787 -6.13784e-20)
(0.714896 0.231812 2.11294e-19)
(0.727957 0.221655 4.84895e-20)
(0.73884 0.212747 -1.23289e-19)
(0.0634784 0.157581 -2.58949e-19)
(0.156969 0.334624 -5.93285e-19)
(0.238377 0.414033 1.55957e-19)
(0.304882 0.436241 -5.0113e-19)
(0.359151 0.429107 -4.75586e-19)
(0.404971 0.409334 -3.42438e-19)
(0.444822 0.385749 2.66658e-19)
(0.480207 0.3623 2.05052e-19)
(0.512036 0.340403 -1.22085e-21)
(0.540887 0.32038 -1.78772e-19)
(0.567161 0.30216 -3.23553e-19)
(0.591173 0.285571 2.91707e-19)
(0.613181 0.27043 -1.00235e-19)
(0.633401 0.256579 -4.96254e-19)
(0.652013 0.243883 3.23148e-19)
(0.669176 0.232228 -2.4259e-19)
(0.685092 0.221498 -9.88177e-20)
(0.699999 0.211556 -2.77031e-19)
(0.713806 0.202364 -2.50506e-19)
(0.725596 0.19424 6.49236e-20)
(0.0524007 0.142891 2.25959e-19)
(0.133811 0.302465 1.16689e-19)
(0.210076 0.373408 1.79277e-19)
(0.275268 0.392796 -6.13942e-19)
(0.330169 0.385939 6.57249e-19)
(0.377451 0.367893 2.1429e-21)
(0.419004 0.346551 5.02644e-21)
(0.456061 0.325411 -4.00822e-19)
(0.489441 0.305706 3.74359e-19)
(0.519701 0.287707 -2.60789e-19)
(0.547254 0.271342 7.80916e-20)
(0.572429 0.25645 -3.49251e-19)
(0.595499 0.242868 -1.66366e-19)
(0.616696 0.230451 -7.94981e-20)
(0.636214 0.219077 5.98306e-19)
(0.654225 0.208643 -2.93526e-19)
(0.67093 0.199046 -2.65281e-19)
(0.686552 0.190166 2.7249e-19)
(0.701038 0.18196 -2.23891e-19)
(0.713663 0.174656 1.74722e-19)
(0.042371 0.126947 4.83834e-19)
(0.112956 0.26798 -2.92451e-19)
(0.184679 0.330206 4.35472e-20)
(0.248764 0.346874 5.11844e-19)
(0.304277 0.3405 2.03816e-19)
(0.352897 0.324391 2.52315e-19)
(0.395984 0.305477 2.51198e-19)
(0.434543 0.286797 5.32757e-19)
(0.469313 0.269413 -1.21913e-19)
(0.500837 0.253547 2.9164e-19)
(0.529535 0.239129 4.23714e-19)
(0.555751 0.226016 1.56138e-19)
(0.579773 0.214063 2.82566e-19)
(0.601846 0.203141 1.02568e-19)
(0.622176 0.193141 6.00826e-20)
(0.640945 0.183972 -4.35563e-20)
(0.658352 0.175543 3.50664e-19)
(0.674608 0.167756 2.16239e-19)
(0.6897 0.160559 -1.96481e-19)
(0.70308 0.154112 1.85698e-19)
(0.0335145 0.10989 -3.21837e-19)
(0.0946242 0.231438 3.58703e-20)
(0.162419 0.284729 -9.29804e-20)
(0.225584 0.298766 -2.82906e-19)
(0.281668 0.293058 -1.49475e-19)
(0.331476 0.279072 -2.72374e-19)
(0.375914 0.262744 1.27066e-19)
(0.41579 0.246658 -4.89932e-19)
(0.451776 0.231705 2.89659e-19)
(0.484405 0.218068 -4.00171e-19)
(0.514105 0.205681 -2.48394e-19)
(0.541232 0.194419 -3.28908e-19)
(0.566087 0.184156 7.53921e-20)
(0.588926 0.174782 -7.43329e-20)
(0.609965 0.166203 8.88065e-20)
(0.629394 0.158339 4.78721e-20)
(0.647412 0.151114 9.51188e-20)
(0.664219 0.144445 -7.95592e-19)
(0.679841 0.138282 3.96064e-19)
(0.693885 0.132728 -2.3759e-19)
(0.0259404 0.0918719 1.0682e-19)
(0.0790049 0.193124 2.15641e-19)
(0.143498 0.237297 -1.40744e-19)
(0.205914 0.24878 3.47603e-19)
(0.262506 0.243895 -5.55681e-20)
(0.313335 0.23219 4.02606e-19)
(0.358924 0.218584 7.81493e-20)
(0.399917 0.205205 -8.17233e-20)
(0.436935 0.19278 2.97645e-19)
(0.470501 0.181453 2.27419e-19)
(0.501051 0.171167 8.44611e-20)
(0.52895 0.161817 1.10842e-19)
(0.554511 0.153299 5.55617e-20)
(0.577999 0.14552 -2.36263e-19)
(0.599639 0.138402 -3.28571e-20)
(0.619628 0.131878 2.46541e-19)
(0.638161 0.125887 -1.68495e-19)
(0.655432 0.120361 -7.94905e-21)
(0.671502 0.115254 -3.52975e-19)
(0.686116 0.110626 7.11558e-19)
(0.0197412 0.0730524 2.87278e-19)
(0.0662584 0.153339 -3.44363e-19)
(0.128084 0.188243 1.61757e-19)
(0.189912 0.197239 -2.28562e-19)
(0.24693 0.193305 2.0198e-19)
(0.298594 0.184012 -3.50513e-19)
(0.345121 0.17324 -2.56706e-19)
(0.387024 0.162661 1.93176e-20)
(0.424879 0.152843 -3.4994e-19)
(0.459206 0.143893 -2.18375e-19)
(0.490446 0.135767 -3.78003e-19)
(0.518973 0.12838 -1.27007e-20)
(0.545108 0.121651 -1.46966e-19)
(0.569122 0.115505 3.71697e-19)
(0.59125 0.109882 2.56173e-19)
(0.611693 0.104729 -8.6052e-20)
(0.630643 0.0999975 -7.78402e-20)
(0.648289 0.0956354 -3.55386e-21)
(0.664724 0.091602 9.59835e-21)
(0.679803 0.0879321 1.40773e-19)
(0.0149917 0.0536006 -7.18224e-20)
(0.0565138 0.112396 -2.4627e-19)
(0.116315 0.137914 -1.53562e-19)
(0.177701 0.144473 -9.61082e-20)
(0.235049 0.141594 -1.99218e-19)
(0.287354 0.134814 3.41307e-19)
(0.334595 0.126964 -3.67212e-20)
(0.377188 0.119258 -8.21799e-20)
(0.415681 0.112107 3.2649e-21)
(0.450586 0.105588 2.4148e-19)
(0.48235 0.099667 -2.2948e-19)
(0.511355 0.0942837 2.24462e-19)
(0.537926 0.0893782 1.05309e-19)
(0.562341 0.0848975 -1.92129e-19)
(0.58484 0.0807964 4.20294e-20)
(0.605627 0.0770371 1.23571e-19)
(0.624895 0.073585 4.29962e-20)
(0.642824 0.0704031 -2.99159e-20)
(0.659538 0.0674593 -2.60058e-19)
(0.674974 0.0647712 2.07241e-19)
(0.0117487 0.0336919 6.49856e-20)
(0.0498686 0.0706173 7.88174e-20)
(0.108291 0.0866654 2.21328e-20)
(0.169378 0.0908252 -1.67162e-20)
(0.226949 0.0890725 4.76041e-20)
(0.279686 0.0848787 7.28175e-20)
(0.32741 0.0800132 2.76036e-20)
(0.370471 0.0752331 3.37172e-20)
(0.409394 0.0707934 -7.17323e-20)
(0.444691 0.0667427 1.34367e-19)
(0.47681 0.0630603 -3.17578e-20)
(0.506137 0.0597094 -2.55742e-21)
(0.533003 0.056653 3.2227e-20)
(0.55769 0.0538589 3.63438e-20)
(0.58044 0.0512993 -9.77619e-20)
(0.601462 0.048951 6.43132e-20)
(0.620944 0.0467931 4.21658e-20)
(0.639066 0.044803 3.60215e-20)
(0.655968 0.04296 7.72737e-20)
(0.671648 0.0412716 3.20066e-20)
(0.0100503 0.013506 -1.3327e-20)
(0.046388 0.0283323 2.77066e-20)
(0.104083 0.0348592 -3.87683e-20)
(0.165005 0.036642 2.43676e-20)
(0.222685 0.0360596 1.43043e-20)
(0.275641 0.0344955 6.39175e-21)
(0.323611 0.032652 1.5133e-20)
(0.366912 0.0308287 -4.33779e-20)
(0.406055 0.0291271 2.76599e-20)
(0.441553 0.0275676 9.66603e-21)
(0.473854 0.0261437 -5.67195e-22)
(0.503348 0.0248423 5.94526e-20)
(0.530366 0.0236503 -1.80385e-20)
(0.555193 0.0225561 -1.72806e-20)
(0.578073 0.0215497 -1.66251e-20)
(0.599216 0.0206228 2.58167e-21)
(0.618809 0.0197678 -2.22266e-20)
(0.637031 0.0189765 4.25295e-21)
(0.654031 0.0182409 8.35613e-22)
(0.669839 0.0175629 -2.82039e-21)
(0.00991539 -0.0067746 8.47467e-21)
(0.0461046 -0.0141255 -4.51172e-20)
(0.103723 -0.0171379 5.37849e-20)
(0.164612 -0.0177255 -4.04243e-20)
(0.222284 -0.0171236 -1.88663e-20)
(0.275244 -0.0160437 5.6502e-20)
(0.323221 -0.0148529 4.70571e-21)
(0.36653 -0.0137091 1.30626e-21)
(0.405683 -0.012664 2.64074e-20)
(0.441189 -0.0117248 1.3651e-20)
(0.473499 -0.0108838 -1.07815e-20)
(0.503001 -0.0101298 -3.78135e-20)
(0.530027 -0.00945241 3.58914e-21)
(0.554862 -0.00884226 -3.30498e-21)
(0.57775 -0.00829156 3.52843e-20)
(0.5989 -0.00779379 -2.12386e-20)
(0.6185 -0.00734311 2.91329e-20)
(0.636728 -0.00693345 -4.36788e-20)
(0.653735 -0.00655962 5.13188e-23)
(0.669554 -0.00622366 -9.20583e-21)
(0.011344 -0.0269666 -2.81837e-20)
(0.0490182 -0.0564214 1.42269e-19)
(0.107212 -0.0689583 9.58752e-20)
(0.168201 -0.0719253 6.34089e-20)
(0.225748 -0.0701547 7.91814e-20)
(0.278493 -0.0664463 -1.91901e-20)
(0.326239 -0.0622343 8.77395e-20)
(0.369326 -0.0581341 1.79484e-20)
(0.408276 -0.0543513 -7.84586e-21)
(0.443599 -0.0509211 -6.25785e-20)
(0.475744 -0.0478219 6.49338e-20)
(0.505096 -0.0450186 -8.81964e-20)
(0.531986 -0.042477 6.40979e-20)
(0.556697 -0.0401671 7.34298e-20)
(0.57947 -0.0380634 9.71317e-20)
(0.600514 -0.0361445 -6.38257e-20)
(0.620017 -0.0343912 1.80473e-20)
(0.638159 -0.0327831 6.74288e-20)
(0.65508 -0.0313022 -6.37633e-20)
(0.67079 -0.0299557 4.8147e-20)
(0.014317 -0.0468875 -2.72891e-19)
(0.0550957 -0.0982221 -1.37002e-19)
(0.114515 -0.120235 -1.52371e-19)
(0.17574 -0.125606 -1.2014e-20)
(0.233046 -0.122713 -8.21804e-20)
(0.285365 -0.11642 -1.00584e-19)
(0.332643 -0.109225 1.78049e-19)
(0.37528 -0.102201 9.06235e-20)
(0.413818 -0.0957068 1.11693e-19)
(0.448767 -0.0898088 -1.21241e-19)
(0.480574 -0.0844715 8.98709e-20)
(0.50962 -0.0796364 1.09708e-19)
(0.536231 -0.075246 3.87184e-20)
(0.560685 -0.0712499 -3.67444e-20)
(0.583222 -0.0676051 7.88458e-21)
(0.604048 -0.0642756 -1.58411e-20)
(0.623351 -0.0612285 -1.55225e-19)
(0.641313 -0.0584293 2.40898e-20)
(0.658057 -0.0558484 1.50864e-19)
(0.673544 -0.0535018 -2.02794e-19)
(0.0187963 -0.0663576 -8.9932e-20)
(0.0642716 -0.139198 1.33021e-19)
(0.125563 -0.170607 3.07377e-20)
(0.187163 -0.178422 -5.76558e-20)
(0.244124 -0.174479 -1.62728e-19)
(0.29581 -0.165677 -3.48385e-19)
(0.342388 -0.155563 -3.31523e-19)
(0.384352 -0.145666 -2.38814e-20)
(0.42227 -0.136506 -1.92753e-19)
(0.456658 -0.128178 -2.88255e-19)
(0.487958 -0.120636 2.2343e-19)
(0.516544 -0.113798 -3.29607e-19)
(0.542735 -0.107584 6.55802e-20)
(0.566804 -0.101924 -2.09818e-20)
(0.588986 -0.096758 -6.90524e-20)
(0.609481 -0.0920351 -8.72813e-20)
(0.628483 -0.0877092 1.41675e-19)
(0.646173 -0.0837309 1.13226e-19)
(0.662652 -0.0800616 1.94541e-19)
(0.677802 -0.0767325 -2.91353e-19)
(0.0247249 -0.085202 4.87822e-20)
(0.0764479 -0.179028 4.73787e-19)
(0.140253 -0.219718 1.35611e-19)
(0.202377 -0.23003 3.27802e-19)
(0.258896 -0.225142 -1.22654e-19)
(0.309752 -0.213934 1.88411e-19)
(0.355408 -0.200987 -5.93622e-20)
(0.39648 -0.188292 3.81966e-19)
(0.433579 -0.176527 -1.96599e-19)
(0.467224 -0.165823 2.31517e-19)
(0.497851 -0.156122 2.00907e-19)
(0.525826 -0.147322 2.14899e-19)
(0.55146 -0.13932 -1.922e-19)
(0.575018 -0.132027 1.65018e-19)
(0.596728 -0.125366 -2.29294e-19)
(0.616785 -0.119274 -6.30404e-20)
(0.635384 -0.11369 -1.50997e-19)
(0.652712 -0.108549 -6.40589e-20)
(0.668839 -0.103807 2.54298e-19)
(0.683543 -0.09952 -4.2127e-19)
(0.032028 -0.103252 -1.96325e-19)
(0.0914952 -0.217398 -2.27989e-20)
(0.158448 -0.267223 -7.82059e-20)
(0.221256 -0.2801 -2.74752e-19)
(0.277252 -0.274397 4.65788e-20)
(0.327094 -0.260913 -4.29954e-19)
(0.371615 -0.245249 -1.80718e-19)
(0.411587 -0.229849 -1.40012e-20)
(0.447673 -0.215558 -4.5406e-19)
(0.480399 -0.202545 -1.40868e-19)
(0.510194 -0.190744 -6.44268e-20)