1.275 	2.15223e-18 	-2.76991e-20 	-0.318803
1.825 	2.15223e-18 	-1.39322e-20 	-0.306066
2.375 	2.15223e-18 	1.38775e-18 	-0.314979
2.925 	2.15223e-18 	2.78958e-18 	-0.295372
3.475 	2.15223e-18 	4.53849e-18 	-0.322978
4.025 	2.15223e-18 	6.28755e-18 	-0.211465
4.575 	2.15223e-18 	6.30203e-18 	-0.136482
5.125 	2.15223e-18 	6.31666e-18 	-0.128901
5.675 	2.15223e-18 	6.33144e-18 	-0.157149
6.225 	2.15223e-18 	4.61166e-18 	-0.110349
