/*--------------------------------*- C++ -*----------------------------------*\
  =========                 |
  \\      /  F ield         | OpenFOAM: The Open Source CFD Toolbox
   \\    /   O peration     | Website:  https://openfoam.org
    \\  /    A nd           | Version:  6.0
     \\/     M anipulation  |
\*---------------------------------------------------------------------------*/
FoamFile
{
    version     2.0;
    format      ascii;
    class       surfaceScalarField;
    location    "18";
    object      phi;
}
// * * * * * * * * * * * * * * * * * * * * * * * * * * * * * * * * * * * * * //

dimensions      [0 3 -1 0 0 0 0];

internalField   nonuniform List<scalar> 
7840
(
3.53052e-05
-0.000254902
0.000125086
-0.000801174
0.00025195
-0.00134956
0.000396825
-0.00185631
0.000542148
-0.00228763
0.000674901
-0.00262708
0.000787754
-0.0028749
0.000878444
-0.0030426
0.000948246
-0.00314682
0.00100035
-0.00320462
0.00103854
-0.00323083
0.00106643
-0.00323692
0.00108697
-0.00323114
0.00110242
-0.00321899
0.00111441
-0.00320396
0.00112403
-0.0031882
0.00113203
-0.00317299
0.0011389
-0.00315911
0.00114497
-0.00314704
-0.00313724
0.00115041
3.67018e-05
-0.000291604
0.000127383
-0.000891856
0.000251925
-0.00147411
0.000389789
-0.00199417
0.000523539
-0.00242138
0.000641476
-0.00274501
0.000738042
-0.00297146
0.000812571
-0.00311713
0.00086744
-0.00320169
0.000906389
-0.00324357
0.000933323
-0.00325776
0.000951652
-0.00325525
0.000964036
-0.00324353
0.000972394
-0.00322735
0.00097804
-0.00320961
0.000981843
-0.003192
0.000984378
-0.00317553
0.000986024
-0.00316076
0.000987019
-0.00314803
-0.0031377
0.000987478
3.76891e-05
-0.000329293
0.000128097
-0.000982264
0.000248647
-0.00159466
0.000377835
-0.00212336
0.000498843
-0.00254239
0.000601554
-0.00284773
0.000682171
-0.00305208
0.000741433
-0.00317639
0.000782562
-0.00324281
0.000809613
-0.00327062
0.000826434
-0.00327458
0.000836164
-0.00326498
0.000841125
-0.00324849
0.000842916
-0.00322914
0.000842585
-0.00320928
0.000840808
-0.00319023
0.000838026
-0.00317274
0.000834529
-0.00315726
0.000830496
-0.003144
-0.00313321
0.000826008
3.8231e-05
-0.000367524
0.000127187
-0.00107122
0.000242204
-0.00170967
0.000361336
-0.00224249
0.000468799
-0.00264985
0.00055621
-0.00293514
0.00062144
-0.00311731
0.000666407
-0.00322135
0.000694931
-0.00327134
0.000711191
-0.00328688
0.000718849
-0.00328224
0.000720731
-0.00326686
0.000718819
-0.00324658
0.000714421
-0.00322474
0.00070836
-0.00320322
0.000701157
-0.00318302
0.000693148
-0.00316474
0.000684558
-0.00314867
0.000675525
-0.00313497
-0.0031238
0.000666109
3.83032e-05
-0.000405827
0.00012466
-0.00115758
0.000232766
-0.00181778
0.000340748
-0.00235048
0.000434186
-0.00274329
0.000506483
-0.00300743
0.000557024
-0.00316785
0.000588674
-0.00325301
0.000605634
-0.0032883
0.000612046
-0.00329329
0.000611313
-0.00328151
0.000605923
-0.00326148
0.000597544
-0.0032382
0.000587223
-0.00321442
0.000575601
-0.00319159
0.000563071
-0.00317049
0.00054989
-0.00315155
0.000536236
-0.00313501
0.00052222
-0.00312095
-0.00310947
0.000507887
3.78938e-05
-0.000443721
0.000120563
-0.00124025
0.000220564
-0.00191778
0.000316575
-0.00244649
0.000395779
-0.00282249
0.000453334
-0.00306499
0.000489956
-0.00320447
0.000509229
-0.00327228
0.000515545
-0.00329462
0.000512898
-0.00329065
0.000504385
-0.00327299
0.000492162
-0.00324925
0.000477606
-0.00322364
0.000461549
-0.00319836
0.000444477
-0.00317452
0.000426684
-0.0031527
0.000408367
-0.00313324
0.000389667
-0.00311631
0.000370677
-0.00310196
-0.00309023
0.00035144
3.70024e-05
-0.000480723
0.000114976
-0.00131822
0.000205873
-0.00200868
0.000289343
-0.00252996
0.000354322
-0.00288747
0.000397636
-0.0031083
0.000421127
-0.00322796
0.000428892
-0.00328004
0.000425363
-0.00329109
0.000414304
-0.00327959
0.000398488
-0.00325718
0.000379755
-0.00323052
0.000359232
-0.00320312
0.000337566
-0.0031767
0.000315119
-0.00315207
0.000292105
-0.00312969
0.000268674
-0.00310981
0.00024494
-0.00309258
0.000220987
-0.00307801
-0.0030661
0.000196857
3.56394e-05
-0.000516363
0.00010801
-0.00139059
0.000188997
-0.00208966
0.000259577
-0.00260054
0.000310509
-0.0029384
0.00034016
-0.00313795
0.000351293
-0.0032391
0.000348335
-0.00327708
0.000335639
-0.00327839
0.00031669
-0.00326064
0.000293937
-0.00323442
0.000268933
-0.00320551
0.000242588
-0.00317677
0.000215398
-0.00314951
0.000187626
-0.0031243
0.000159421
-0.00310148
0.000130892
-0.00308128
0.000102133
-0.00306382
7.32264e-05
-0.0030491
-0.00303709
4.42191e-05
3.3825e-05
-0.000550188
9.97963e-05
-0.00145656
0.000170252
-0.00216012
0.000227779
-0.00265806
0.000264972
-0.0029756
0.000281577
-0.00315456
0.000281088
-0.00323861
0.000268102
-0.0032641
0.000246808
-0.0032571
0.000220387
-0.00323422
0.000190972
-0.00320501
0.000159866
-0.00317441
0.000127797
-0.00314471
9.51402e-05
-0.00311685
6.20763e-05
-0.00309124
2.87002e-05
-0.00306811
-4.91424e-06
-0.00304766
-3.86881e-05
-0.00303005
-7.25375e-05
-0.00301525
-0.00300323
-0.000106403
3.15875e-05
-0.000581775
9.04795e-05
-0.00151545
0.000149955
-0.00221959
0.000194426
-0.00270254
0.000218277
-0.00299945
0.000222468
-0.00315875
0.000211038
-0.00322718
0.000188635
-0.00324169
0.000159217
-0.00322768
0.00012565
-0.00320065
8.97787e-05
-0.00316914
5.26864e-05
-0.00313732
1.49546e-05
-0.00310697
-2.31377e-05
-0.00307876
-6.14744e-05
-0.0030529
-0.000100008
-0.00302957
-0.000138698
-0.00300897
-0.000177479
-0.00299127
-0.000216259
-0.00297647
-0.00296452
-0.000254962
2.8962e-05
-0.000610737
8.0214e-05
-0.00156671
0.000128418
-0.0022678
0.000159958
-0.00273408
0.000170927
-0.00301042
0.000163327
-0.00315115
0.000141586
-0.00320544
0.000110295
-0.0032104
7.31446e-05
-0.00319053
3.26875e-05
-0.00316019
-9.49288e-06
-0.00312696
-5.24983e-05
-0.00309431
-9.58638e-05
-0.00306361
-0.000139382
-0.00303524
-0.000182988
-0.0030093
-0.000226676
-0.00298588
-0.000270439
-0.00296521
-0.000314226
-0.00294748
-0.000357933
-0.00293277
-0.002921
-0.000401458
2.59888e-05
-0.000636726
6.91575e-05
-0.00160987
0.000105938
-0.00230458
0.000124775
-0.00275291
0.000123363
-0.003009
0.000104578
-0.00313236
7.30995e-05
-0.00317396
3.33815e-05
-0.00317069
-1.11775e-05
-0.00314597
-5.83245e-05
-0.00311305
-0.000106711
-0.00307857
-0.000155591
-0.00304543
-0.00020459
-0.00301461
-0.00025355
-0.00298628
-0.000302441
-0.0029604
-0.000351297
-0.00293703
-0.000400147
-0.00291636
-0.00044896
-0.00289867
-0.000497617
-0.00288411
-0.00287264
-0.000545978
2.27124e-05
-0.000659439
5.74676e-05
-0.00164463
8.27954e-05
-0.00232991
8.92412e-05
-0.00275936
7.59743e-05
-0.00299574
4.65882e-05
-0.00310298
5.89348e-06
-0.00313326
-4.18485e-05
-0.00312294
-9.35439e-05
-0.00309427
-0.000147223
-0.00305937
-0.000201745
-0.00302405
-0.000256492
-0.00299068
-0.000311152
-0.00295995
-0.000365596
-0.00293184
-0.000419816
-0.00290618
-0.000473876
-0.00288297
-0.000527851
-0.00286239
-0.000581741
-0.00284478
-0.000635416
-0.00283043
-0.00281938
-0.000688674
1.918e-05
-0.000678619
4.5299e-05
-0.00167075
5.92531e-05
-0.00234386
5.36833e-05
-0.00275379
2.9101e-05
-0.00297116
-1.03278e-05
-0.00306355
-5.97583e-05
-0.00308383
-0.000115166
-0.00306754
-0.000173762
-0.00303568
-0.000233843
-0.00299929
-0.000294454
-0.00296344
-0.00035508
-0.00293006
-0.000415456
-0.00289957
-0.00047546
-0.00287183
-0.000535087
-0.00284656
-0.000594421
-0.00282363
-0.000653584
-0.00280322
-0.000712626
-0.00278573
-0.000771414
-0.00277165
-0.00276114
-0.000829652
1.54404e-05
-0.000694059
3.28013e-05
-0.00168811
3.5553e-05
-0.00234661
1.83949e-05
-0.00273663
-1.69563e-05
-0.0029358
-6.58913e-05
-0.00301461
-0.000123611
-0.00302611
-0.000186355
-0.00300479
-0.000251637
-0.00297039
-0.000318002
-0.00293292
-0.000384661
-0.00289678
-0.000451194
-0.00286352
-0.000517367
-0.0028334
-0.000583051
-0.00280615
-0.000648214
-0.00278139
-0.000712938
-0.00275891
-0.000777383
-0.00273878
-0.000841667
-0.00272145
-0.000905667
-0.00270765
-0.00269786
-0.000968951
1.15431e-05
-0.000705602
2.01166e-05
-0.00169668
1.1917e-05
-0.00233841
-1.63618e-05
-0.00270835
-6.1932e-05
-0.00289023
-0.000119855
-0.00295669
-0.000185438
-0.00296053
-0.000255205
-0.00293503
-0.000326962
-0.00289864
-0.000399485
-0.0028604
-0.000472143
-0.00282412
-0.000544606
-0.00279106
-0.000616672
-0.00276134
-0.000688198
-0.00273462
-0.000759105
-0.00271049
-0.00082943
-0.00268859
-0.000899343
-0.00266886
-0.000969036
-0.00265176
-0.00103842
-0.00263826
-0.00262932
-0.00110696
7.5371e-06
-0.000713139
7.37873e-06
-0.00169653
-1.14536e-05
-0.00231958
-5.03542e-05
-0.00266945
-0.000105592
-0.002835
-0.000171997
-0.00289029
-0.000245031
-0.0028875
-0.000321507
-0.00285855
-0.000399513
-0.00282063
-0.000478043
-0.00278187
-0.000556616
-0.00274555
-0.000635001
-0.00271268
-0.000713043
-0.00268329
-0.0007906
-0.00265707
-0.000867543
-0.00263354
-0.00094383
-0.0026123
-0.00101961
-0.00259309
-0.00109516
-0.00257621
-0.00117047
-0.00256295
-0.00255461
-0.00124518
3.47021e-06
-0.000716609
-5.28887e-06
-0.00168777
-3.43787e-05
-0.00229049
-8.3378e-05
-0.00262045
-0.000147732
-0.00277064
-0.000222119
-0.0028159
-0.000302191
-0.00280742
-0.000385049
-0.00277569
-0.000469048
-0.00273663
-0.000553386
-0.00269753
-0.000637733
-0.0026612
-0.000721969
-0.00262844
-0.000806024
-0.00259924
-0.000889798
-0.00257329
-0.000973142
-0.0025502
-0.00105594
-0.0025295
-0.0011383
-0.00251073
-0.0012206
-0.00249391
-0.00130306
-0.00248049
-0.00247141
-0.00138626
-6.12422e-07
-0.000715997
-1.77746e-05
-0.0016706
-5.67009e-05
-0.00225156
-0.000115258
-0.00256189
-0.000188176
-0.00269772
-0.000270049
-0.00273403
-0.000356736
-0.00272074
-0.000445621
-0.00268681
-0.000535304
-0.00264695
-0.000625174
-0.00260766
-0.00071505
-0.00257132
-0.000804948
-0.00253854
-0.000894939
-0.00250925
-0.000985054
-0.00248318
-0.00107524
-0.00246002
-0.00116539
-0.00243935
-0.00125549
-0.00242062
-0.00134592
-0.00240349
-0.00143723
-0.00238918
-0.00237648
-0.00153216
-4.66923e-06
-0.000711328
-2.99805e-05
-0.00164529
-7.82869e-05
-0.00220326
-0.000145852
-0.00249433
-0.000226786
-0.00261679
-0.000315648
-0.00264516
-0.000408515
-0.00262787
-0.000503032
-0.00259229
-0.000598018
-0.00255196
-0.000693023
-0.00251266
-0.000787996
-0.00247635
-0.00088309
-0.00244345
-0.000978556
-0.00241378
-0.00107469
-0.00238705
-0.00117176
-0.00236294
-0.00126997
-0.00234114
-0.00136945
-0.00232114
-0.00147076
-0.00230218
-0.00157615
-0.00228379
-0.00227739
-0.00167524
-8.65098e-06
-0.000702677
-4.18036e-05
-0.00161214
-9.9006e-05
-0.00214606
-0.000175025
-0.00241831
-0.000263436
-0.00252838
-0.000358802
-0.0025498
-0.000457413
-0.00252926
-0.000557148
-0.00249256
-0.000657006
-0.00245211
-0.000756649
-0.00241301
-0.000856092
-0.00237691
-0.000955534
-0.00234401
-0.0010553
-0.00231401
-0.00115585
-0.0022865
-0.00125781
-0.00226099
-0.001362
-0.00223694
-0.0014693
-0.00221385
-0.0015801
-0.00219138
-0.00169535
-0.00216853
-0.00213825
-0.00183449
-1.25471e-05
-0.00069013
-5.32128e-05
-0.00157147
-0.00011882
-0.00208045
-0.000202748
-0.00233438
-0.000298113
-0.00243301
-0.00039951
-0.0024484
-0.000503439
-0.00242533
-0.000607989
-0.00238801
-0.000712305
-0.00234779
-0.000816121
-0.0023092
-0.000919457
-0.00227357
-0.00102245
-0.00224101
-0.0011253
-0.00221117
-0.0012282
-0.00218359
-0.00133142
-0.00215777
-0.00143513
-0.00213323
-0.00153942
-0.00210956
-0.00164451
-0.00208629
-0.0017511
-0.00206195
-0.00203303
-0.00185632
-1.63192e-05
-0.00067381
-6.41356e-05
-0.00152366
-0.000137646
-0.00200694
-0.000228948
-0.00224308
-0.000330765
-0.0023312
-0.000437747
-0.00234142
-0.000546595
-0.00231648
-0.000655588
-0.00227901
-0.000763997
-0.00223938
-0.000871622
-0.00220157
-0.000978502
-0.00216669
-0.00108476
-0.00213475
-0.00119055
-0.00210538
-0.001296
-0.00207814
-0.00140119
-0.00205258
-0.00150614
-0.00202828
-0.00161083
-0.00200487
-0.00171519
-0.00198193
-0.00181854
-0.0019586
-0.00193406
-0.00191751
-1.99457e-05
-0.000653865
-7.4532e-05
-0.00146907
-0.000155445
-0.00192602
-0.000253604
-0.00214492
-0.000361395
-0.00222341
-0.000473543
-0.00222927
-0.000586938
-0.00220309
-0.000700028
-0.00216592
-0.000812192
-0.00212722
-0.000923273
-0.00209049
-0.00103331
-0.00205665
-0.00114241
-0.00202565
-0.00125066
-0.00199713
-0.00135813
-0.00197067
-0.00146481
-0.00194589
-0.00157064
-0.00192245
-0.00167547
-0.00190004
-0.00177903
-0.00187837
-0.00188065
-0.00185698
-0.00183545
-0.00197927
-2.34092e-05
-0.000630455
-8.43728e-05
-0.00140811
-0.000172194
-0.0018382
-0.00027671
-0.00204041
-0.000390026
-0.00211009
-0.000506949
-0.00211235
-0.000624553
-0.00208548
-0.000741442
-0.00204903
-0.000857088
-0.00201157
-0.00097138
-0.0019762
-0.00108437
-0.00194367
-0.00119613
-0.00191389
-0.00130675
-0.00188651
-0.00141625
-0.00186117
-0.00152462
-0.00183753
-0.00163177
-0.00181529
-0.00173758
-0.00179424
-0.00184178
-0.00177417
-0.00194399
-0.00175478
-0.00173583
-0.00204361
-2.66959e-05
-0.00060376
-9.36379e-05
-0.00134117
-0.000187881
-0.00174396
-0.000298277
-0.00193001
-0.000416693
-0.00199168
-0.000538028
-0.00199101
-0.00065953
-0.00196398
-0.000779944
-0.00192862
-0.000898831
-0.00189269
-0.00101612
-0.00185891
-0.00113187
-0.00182791
-0.00124618
-0.00179958
-0.00135911
-0.00177358
-0.00147068
-0.0017496
-0.00158089
-0.00172732
-0.00168967
-0.00170651
-0.00179693
-0.00168698
-0.00190251
-0.00166859
-0.00200622
-0.00165107
-0.00163428
-0.00210777
-2.97955e-05
-0.000573964
-0.000102314
-0.00126865
-0.000202505
-0.00164377
-0.000318323
-0.00181419
-0.000441436
-0.00186856
-0.000566843
-0.00186561
-0.000691956
-0.00183887
-0.000815651
-0.00180492
-0.000937568
-0.00177077
-0.00105768
-0.0017388
-0.00117606
-0.00170953
-0.00129281
-0.00168282
-0.00140802
-0.00165838
-0.00152171
-0.00163591
-0.0016339
-0.00161513
-0.00174457
-0.00159584
-0.00185367
-0.00157788
-0.00196113
-0.00156112
-0.00206687
-0.00154534
-0.00153042
-0.00217072
-3.26996e-05
-0.000541264
-0.000110392
-0.00119095
-0.000216067
-0.00153809
-0.000336867
-0.00169339
-0.000464296
-0.00174113
-0.000593455
-0.00173645
-0.000721909
-0.00171041
-0.000848656
-0.00167818
-0.000973408
-0.00164602
-0.00109618
-0.00161603
-0.00121707
-0.00158864
-0.00133619
-0.0015637
-0.00145363
-0.00154094
-0.00156947
-0.00152007
-0.00168373
-0.00150086
-0.00179643
-0.00148313
-0.00190757
-0.00146674
-0.00201714
-0.00145155
-0.00212513
-0.00143735
-0.0014241
-0.00223145
-3.5402e-05
-0.000505862
-0.000117868
-0.00110849
-0.000228573
-0.00142739
-0.000353932
-0.00156803
-0.000485312
-0.00160975
-0.000617916
-0.00160384
-0.000749454
-0.00157888
-0.000879033
-0.0015486
-0.00100643
-0.00151862
-0.00113171
-0.00149076
-0.00125497
-0.00146537
-0.00137637
-0.0014423
-0.00149601
-0.0014213
-0.00161398
-0.0014021
-0.00173033
-0.00138451
-0.00184512
-0.00136834
-0.00195839
-0.00135348
-0.00207016
-0.00133978
-0.00218045
-0.00132705
-0.00131529
-0.00228926
-3.78971e-05
-0.000467965
-0.000124736
-0.00102165
-0.000240029
-0.0013121
-0.000369536
-0.00143852
-0.000504514
-0.00147478
-0.000640269
-0.00146809
-0.000774639
-0.00144451
-0.000906836
-0.0014164
-0.0010367
-0.00138875
-0.00116431
-0.00136315
-0.00128983
-0.00133986
-0.0014134
-0.00131874
-0.00153515
-0.00129955
-0.00165519
-0.00128207
-0.0017736
-0.00126609
-0.00189047
-0.00125148
-0.00200584
-0.0012381
-0.0021198
-0.00122583
-0.00223237
-0.00121448
-0.00120408
-0.00234359
-4.01807e-05
-0.000427785
-0.000130995
-0.000930836
-0.00025044
-0.00119265
-0.000383696
-0.00130527
-0.000521931
-0.00133654
-0.000660545
-0.00132947
-0.000797502
-0.00130755
-0.0009321
-0.0012818
-0.00106424
-0.00125662
-0.00119403
-0.00123336
-0.00132164
-0.00121224
-0.00144725
-0.00119313
-0.001571
-0.0011758
-0.00169302
-0.00116005
-0.00181342
-0.0011457
-0.00193228
-0.00113261
-0.0020497
-0.00112068
-0.00216575
-0.00110978
-0.00228051
-0.00109973
-0.00109059
-0.002394
-4.22486e-05
-0.000385536
-0.00013664
-0.000836444
-0.00025981
-0.00106948
-0.000396425
-0.00116865
-0.000537581
-0.00119538
-0.00067877
-0.00118828
-0.000818066
-0.00116825
-0.000954847
-0.00114502
-0.00108906
-0.0011224
-0.00122085
-0.00110157
-0.0013504
-0.00108269
-0.00147791
-0.00106562
-0.00160353
-0.00105018
-0.0017274
-0.00103617
-0.00184966
-0.00102344
-0.00197041
-0.00101187
-0.00208974
-0.00100135
-0.00220776
-0.000991756
-0.00232454
-0.000982948
-0.000974989
-0.00244014
-4.40972e-05
-0.000341439
-0.00014167
-0.000738872
-0.000268142
-0.000943008
-0.000407731
-0.00102907
-0.000551478
-0.00105164
-0.000694959
-0.0010448
-0.000836345
-0.00102687
-0.000975086
-0.00100628
-0.00111117
-0.000986322
-0.00124476
-0.000967975
-0.00137608
-0.000951371
-0.00150531
-0.000936386
-0.00163265
-0.000922845
-0.00175823
-0.000910586
-0.0018822
-0.000899471
-0.00200468
-0.000889388
-0.00212578
-0.000880245
-0.0022456
-0.00087193
-0.00236424
-0.000864315
-0.000857472
-0.00248175
-4.57232e-05
-0.000295716
-0.000146081
-0.000638514
-0.000275436
-0.000813653
-0.00041762
-0.000886882
-0.000563632
-0.000905626
-0.000709122
-0.000899312
-0.000852347
-0.000883643
-0.000992818
-0.000865811
-0.00113056
-0.000848581
-0.00126576
-0.000832772
-0.00139865
-0.000818484
-0.00152943
-0.000805603
-0.0016583
-0.00079398
-0.00178541
-0.000783472
-0.00191092
-0.000773961
-0.00203496
-0.000765352
-0.00215764
-0.00075756
-0.00227908
-0.000750488
-0.00239937
-0.000744025
-0.000738248
-0.0025186
-4.71234e-05
-0.000248592
-0.00014987
-0.000535767
-0.000281693
-0.000681831
-0.000426097
-0.000742477
-0.000574048
-0.000757676
-0.000721264
-0.000752096
-0.000866074
-0.000738833
-0.00100804
-0.000723845
-0.00114722
-0.000709404
-0.00128382
-0.000696173
-0.00141807
-0.000684228
-0.00155021
-0.00067347
-0.00168041
-0.000663773
-0.00180887
-0.000655017
-0.00193573
-0.000647104
-0.00206113
-0.000639951
-0.0021852
-0.00063349
-0.00230805
-0.000627634
-0.00242978
-0.000622293
-0.000617539
-0.00255049
-4.82951e-05
-0.000200297
-0.000153034
-0.000431029
-0.00028691
-0.000547954
-0.000433162
-0.000596225
-0.000582729
-0.000608109
-0.000731385
-0.000603439
-0.000877522
-0.000592696
-0.00102074
-0.000580623
-0.00116113
-0.000569017
-0.00129891
-0.000558397
-0.00143432
-0.000548816
-0.00156759
-0.000540195
-0.00169894
-0.000532429
-0.00182853
-0.000525426
-0.00195653
-0.000519103
-0.00208309
-0.000513396
-0.00220833
-0.000508246
-0.00233238
-0.000503585
-0.00245533
-0.000499341
-0.000495578
-0.00257729
-4.92356e-05
-0.000151062
-0.000155569
-0.000324696
-0.000291087
-0.000412436
-0.000438816
-0.000448496
-0.000589675
-0.00045725
-0.000739486
-0.000453628
-0.000886688
-0.000445494
-0.00103092
-0.000436391
-0.00117228
-0.000427655
-0.00131101
-0.000419669
-0.00144736
-0.000412469
-0.00158156
-0.000405994
-0.00171382
-0.000400166
-0.00184433
-0.000394913
-0.00197326
-0.000390176
-0.00210075
-0.000385903
-0.00222695
-0.000382052
-0.00235196
-0.00037857
-0.0024759
-0.000375403
-0.000372604
-0.00259887
-4.99429e-05
-0.000101119
-0.000157473
-0.000217165
-0.000294222
-0.000275687
-0.000443057
-0.000299661
-0.000594886
-0.000305422
-0.000745564
-0.00030295
-0.000893568
-0.00029749
-0.00103856
-0.000291397
-0.00118066
-0.000285558
-0.0013201
-0.000280223
-0.00145716
-0.000275416
-0.00159206
-0.000271094
-0.00172502
-0.000267206
-0.00185623
-0.000263704
-0.00198586
-0.000260546
-0.00211406
-0.000257701
-0.00224097
-0.000255139
-0.00236672
-0.000252824
-0.0024914
-0.00025072
-0.000248865
-0.00261514
-5.04153e-05
-5.07034e-05
-0.000158744
-0.000108837
-0.000296313
-0.000138117
-0.000445885
-0.000150089
-0.00059836
-0.000152947
-0.000749617
-0.000151693
-0.000898157
-0.00014895
-0.00104366
-0.000145894
-0.00118625
-0.000142968
-0.00132618
-0.000140296
-0.0014637
-0.000137888
-0.00159907
-0.000135724
-0.0017325
-0.000133778
-0.00186418
-0.000132025
-0.00199428
-0.000130446
-0.00212296
-0.000129023
-0.00225036
-0.000127742
-0.00237659
-0.000126585
-0.00250178
-0.000125535
-0.00012461
-0.00262603
-5.06517e-05
-5.17106e-08
-0.000159379
-1.099e-07
-0.000297358
-1.37936e-07
-0.000447299
-1.48087e-07
-0.000600097
-1.49002e-07
-0.000751644
-1.45853e-07
-0.000900452
-1.41283e-07
-0.00104621
-1.36444e-07
-0.00118905
-1.31752e-07
-0.00132922
-1.27324e-07
-0.00146698
-1.23173e-07
-0.00160259
-1.19283e-07
-0.00173625
-1.15633e-07
-0.00186816
-1.12205e-07
-0.0019985
-1.0898e-07
-0.00212742
-1.05943e-07
-0.00225506
-1.03082e-07
-0.00238154
-1.00379e-07
-0.00250698
-9.78132e-08
-9.5387e-08
-0.00263149
-5.06517e-05
5.06e-05
-0.000159379
0.000108617
-0.000297358
0.000137841
-0.000447299
0.000149793
-0.000600097
0.000152649
-0.000751644
0.000151401
-0.000900452
0.000148667
-0.00104621
0.000145622
-0.00118905
0.000142705
-0.00132922
0.000140041
-0.00146698
0.000137642
-0.00160259
0.000135486
-0.00173625
0.000133547
-0.00186816
0.000131801
-0.0019985
0.000130228
-0.00212742
0.000128811
-0.00225505
0.000127536
-0.00238154
0.000126385
-0.00250698
0.000125339
0.000124419
-0.00263149
-5.04153e-05
0.000101015
-0.000158744
0.000216946
-0.000296313
0.000275411
-0.000445885
0.000299365
-0.00059836
0.000305124
-0.000749617
0.000302658
-0.000898157
0.000297207
-0.00104366
0.000291124
-0.00118625
0.000285294
-0.00132618
0.000279968
-0.0014637
0.000275169
-0.00159907
0.000270855
-0.0017325
0.000266975
-0.00186418
0.000263479
-0.00199428
0.000260328
-0.00212296
0.000257489
-0.00225035
0.000254933
-0.00237659
0.000252623
-0.00250178
0.000250524
0.000248674
-0.00262603
-4.9943e-05
0.000150958
-0.000157473
0.000324476
-0.000294222
0.00041216
-0.000443057
0.0004482
-0.000594885
0.000456952
-0.000745563
0.000453336
-0.000893568
0.000445211
-0.00103856
0.000436118
-0.00118066
0.000427392
-0.0013201
0.000419414
-0.00145716
0.000412223
-0.00159206
0.000405755
-0.00172502
0.000399935
-0.00185623
0.000394689
-0.00198586
0.000389957
-0.00211406
0.000385691
-0.00224097
0.000381846
-0.00236672
0.000378369
-0.0024914
0.000375208
0.000372414
-0.00261514
-4.92357e-05
0.000200194
-0.000155569
0.000430809
-0.000291087
0.000547678
-0.000438816
0.000595928
-0.000589674
0.000607811
-0.000739485
0.000603147
-0.000886687
0.000592413
-0.00103092
0.00058035
-0.00117228
0.000568753
-0.00131101
0.000558141
-0.00144735
0.000548569
-0.00158155
0.000539955
-0.00171382
0.000532198
-0.00184433
0.000525201
-0.00197326
0.000518885
-0.00210075
0.000513183
-0.00222694
0.00050804
-0.00235196
0.000503384
-0.0024759
0.000499145
0.000495387
-0.00259887
-4.82952e-05
0.000248489
-0.000153034
0.000535548
-0.00028691
0.000681555
-0.000433162
0.00074218
-0.000582728
0.000757377
-0.000731384
0.000751803
-0.000877521
0.000738549
-0.00102074
0.000723571
-0.00116113
0.000709139
-0.0012989
0.000695918
-0.00143432
0.000683981
-0.00156759
0.000673231
-0.00169893
0.000663541
-0.00182853
0.000654792
-0.00195653
0.000646885
-0.00208308
0.000639739
-0.00220833
0.000633283
-0.00233237
0.000627433
-0.00245533
0.000622097
0.000617348
-0.00257729
-4.71237e-05
0.000295613
-0.00014987
0.000638294
-0.000281693
0.000813377
-0.000426097
0.000886584
-0.000574047
0.000905327
-0.000721263
0.000899018
-0.000866072
0.000883359
-0.00100804
0.000865537
-0.00114722
0.000848317
-0.00128381
0.000832516
-0.00141807
0.000818236
-0.0015502
0.000805364
-0.00168041
0.000793747
-0.00180886
0.000783246
-0.00193572
0.000773742
-0.00206112
0.000765139
-0.00218519
0.000757353
-0.00230805
0.000750287
-0.00242978
0.000743829
0.000738057
-0.00255049
-4.57235e-05
0.000341336
-0.000146081
0.000738652
-0.000275436
0.000942732
-0.00041762
0.00102877
-0.000563631
0.00105134
-0.000709121
0.00104451
-0.000852346
0.00102658
-0.000992816
0.00100601
-0.00113056
0.000986057
-0.00126576
0.000967718
-0.00139864
0.000951123
-0.00152943
0.000936146
-0.00165829
0.000922612
-0.00178541
0.00091036
-0.00191091
0.000899251
-0.00203495
0.000889175
-0.00215764
0.000880038
-0.00227908
0.000871729
-0.00239937
0.000864118
0.000857281
-0.00251859
-4.40975e-05
0.000385434
-0.00014167
0.000836225
-0.000268142
0.0010692
-0.000407731
0.00116836
-0.000551477
0.00119508
-0.000694958
0.00118799
-0.000836343
0.00116797
-0.000975083
0.00114475
-0.00111117
0.00112214
-0.00124476
0.00110131
-0.00137607
0.00108244
-0.00150531
0.00106538
-0.00163264
0.00104994
-0.00175822
0.00103594
-0.00188219
0.00102322
-0.00200467
0.00101165
-0.00212577
0.00100114
-0.0022456
0.000991554
-0.00236423
0.000982752
0.000974797
-0.00248175
-4.22489e-05
0.000427683
-0.000136641
0.000930617
-0.000259811
0.00119237
-0.000396425
0.00130497
-0.00053758
0.00133624
-0.000678769
0.00132918
-0.000818064
0.00130726
-0.000954844
0.00128153
-0.00108905
0.00125635
-0.00122084
0.0012331
-0.00135039
0.00121199
-0.0014779
0.00119289
-0.00160352
0.00117556
-0.0017274
0.00115982
-0.00184965
0.00114548
-0.0019704
0.0011324
-0.00208974
0.00112048
-0.00220776
0.00110957
-0.00232454
0.00109953
0.0010904
-0.00244014
-4.01811e-05
0.000467864
-0.000130995
0.00102143
-0.000250441
0.00131182
-0.000383696
0.00143823
-0.00052193
0.00147447
-0.000660544
0.00146779
-0.0007975
0.00144422
-0.000932097
0.00141612
-0.00106423
0.00138848
-0.00119402
0.00136289
-0.00132164
0.00133961
-0.00144725
0.0013185
-0.001571
0.00129931
-0.00169302
0.00128184
-0.00181341
0.00126587
-0.00193228
0.00125126
-0.00204969
0.00123789
-0.00216575
0.00122563
-0.0022805
0.00121428
0.00120389
-0.00239399
-3.78976e-05
0.000505762
-0.000124737
0.00110827
-0.00024003
0.00142711
-0.000369536
0.00156773
-0.000504514
0.00160945
-0.000640267
0.00160355
-0.000774637
0.00157859
-0.000906832
0.00154832
-0.00103669
0.00151835
-0.00116431
0.0014905
-0.00128982
0.00146512
-0.00141339
0.00144206
-0.00153514
0.00142106
-0.00165518
0.00140188
-0.00177359
0.00138429
-0.00189046
0.00136813
-0.00200583
0.00135327
-0.00211979
0.00133958
-0.00223236
0.00132686
0.0013151
-0.00234357
-3.54025e-05
0.000541164
-0.000117869
0.00119074
-0.000228574
0.00153782
-0.000353932
0.00169309
-0.000485311
0.00174083
-0.000617915
0.00173615
-0.000749451
0.00171013
-0.000879029
0.0016779
-0.00100643
0.00164575
-0.0011317
0.00161577
-0.00125497
0.00158839
-0.00137636
0.00156346
-0.001496
0.0015407
-0.00161397
0.00151984
-0.00173032
0.00150064
-0.00184511
0.00148292
-0.00195837
0.00146653
-0.00207014
0.00145135
-0.00218044
0.00143715
0.00142391
-0.00228925
-3.27003e-05
0.000573864
-0.000110394
0.00126843
-0.000216068
0.00164349
-0.000336868
0.00181389
-0.000464296
0.00186826
-0.000593454
0.00186531
-0.000721907
0.00183858
-0.000848652
0.00180464
-0.000973404
0.0017705
-0.00109617
0.00173854
-0.00121706
0.00170928
-0.00133618
0.00168258
-0.00145362
0.00165815
-0.00156946
0.00163568
-0.00168372
0.0016149
-0.00179642
0.00159562
-0.00190756
0.00157767
-0.00201713
0.00156092
-0.00212511
0.00154514
0.00153023
-0.00223144
-2.97962e-05
0.000603661
-0.000102315
0.00134095
-0.000202506
0.00174368
-0.000318323
0.00192971
-0.000441435
0.00199137
-0.000566842
0.00199071
-0.000691953
0.00196369
-0.000815647
0.00192834
-0.000937563
0.00189241
-0.00105767
0.00185865
-0.00117605
0.00182766
-0.00129281
0.00179933
-0.00140801
0.00177335
-0.0015217
0.00174937
-0.00163389
0.00172709
-0.00174456
0.00170629
-0.00185366
0.00168677
-0.00196112
0.00166838
-0.00206685
0.00165087
0.00163409
-0.00217071
-2.66968e-05
0.000630357
-9.36394e-05
0.00140789
-0.000187883
0.00183793
-0.000298278
0.0020401
-0.000416693
0.00210978
-0.000538027
0.00211205
-0.000659527
0.00208519
-0.000779941
0.00204875
-0.000898826
0.0020113
-0.00101611
0.00197593
-0.00113187
0.00194341
-0.00124617
0.00191364
-0.0013591
0.00188627
-0.00147067
0.00186094
-0.00158088
0.0018373
-0.00168966
0.00181507
-0.00179692
0.00179403
-0.0019025
0.00177396
-0.0020062
0.00175458
0.00173564
-0.00210775
-2.34101e-05
0.000653767
-8.43746e-05
0.00146886
-0.000172196
0.00192575
-0.000276711
0.00214462
-0.000390026
0.0022231
-0.000506948
0.00222897
-0.000624551
0.00220279
-0.000741438
0.00216564
-0.000857083
0.00212694
-0.000971373
0.00209023
-0.00108436
0.0020564
-0.00119612
0.0020254
-0.00130674
0.00199689
-0.00141624
0.00197044
-0.00152461
0.00194567
-0.00163176
0.00192223
-0.00173756
0.00189983
-0.00184177
0.00187817
-0.00194397
0.00185678
0.00183525
-0.00204359
-1.99468e-05
0.000673714
-7.45341e-05
0.00152344
-0.000155447
0.00200666
-0.000253605
0.00224278
-0.000361396
0.00233089
-0.000473542
0.00234112
-0.000586935
0.00231619
-0.000700025
0.00227873
-0.000812187
0.00223911
-0.000923266
0.0022013
-0.0010333
0.00216644
-0.0011424
0.0021345
-0.00125065
0.00210514
-0.00135811
0.00207791
-0.0014648
0.00205235
-0.00157063
0.00202805
-0.00167546
0.00200466
-0.00177901
0.00198172
-0.00188063
0.0019584
0.00193387
-0.00197924
-1.63205e-05
0.000690035
-6.41381e-05
0.00157126
-0.000137649
0.00208017
-0.00022895
0.00233408
-0.000330766
0.00243271
-0.000437747
0.0024481
-0.000546594
0.00242503
-0.000655585
0.00238772
-0.000763992
0.00234751
-0.000871616
0.00230893
-0.000978494
0.00227331
-0.00108475
0.00224076
-0.00119054
0.00221093
-0.00129599
0.00218335
-0.00140118
0.00215754
-0.00150613
0.002133
-0.00161081
0.00210934
-0.00171517
0.00208608
-0.00181852
0.00206174
0.00203283
-0.00191748
-1.25485e-05
0.000702583
-5.32156e-05
0.00161193
-0.000118823
0.00214578
-0.000202751
0.00241801
-0.000298114
0.00252807
-0.00039951
0.00254949
-0.000503438
0.00252896
-0.000607987
0.00249227
-0.0007123
0.00245183
-0.000816115
0.00241274
-0.000919449
0.00237665
-0.00102244
0.00234375
-0.00112528
0.00231377
-0.00122819
0.00228626
-0.0013314
0.00226075
-0.00143512
0.00223672
-0.0015394
0.00221363
-0.00164449
0.00219117
-0.00175107
0.00216833
0.00213805
-0.00185629
-8.65257e-06
0.000711236
-4.18069e-05
0.00164508
-9.901e-05
0.00220298
-0.000175029
0.00249402
-0.000263439
0.00261648
-0.000358803
0.00264486
-0.000457412
0.00262757
-0.000557145
0.002592
-0.000657002
0.00255168
-0.000756643
0.00251238
-0.000856084
0.00247609
-0.000955525
0.00244319
-0.00105529
0.00241353
-0.00115584
0.00238681
-0.00125779
0.00236271
-0.00136198
0.00234091
-0.00146928
0.00232092
-0.00158007
0.00230196
-0.00169532
0.00228357
0.00227719
-0.00183445
-4.67101e-06
0.000715907
-2.99843e-05
0.0016704
-7.82916e-05
0.00225129
-0.000145856
0.00256159
-0.000226789
0.00269741
-0.00031565
0.00273372
-0.000408516
0.00272044
-0.000503031
0.00268652
-0.000598015
0.00264667
-0.000693018
0.00260739
-0.000787989
0.00257106
-0.000883081
0.00253828
-0.000978545
0.002509
-0.00107467
0.00248293