/*--------------------------------*- C++ -*----------------------------------*\
  =========                 |
  \\      /  F ield         | OpenFOAM: The Open Source CFD Toolbox
   \\    /   O peration     | Website:  https://openfoam.org
    \\  /    A nd           | Version:  6.0
     \\/     M anipulation  |
\*---------------------------------------------------------------------------*/
FoamFile
{
    version     2.0;
    format      ascii;
    class       surfaceScalarField;
    location    "7.4";
    object      phi;
}
// * * * * * * * * * * * * * * * * * * * * * * * * * * * * * * * * * * * * * //

dimensions      [0 3 -1 0 0 0 0];

internalField   nonuniform List<scalar> 
15760
(
-7.40064e-06
7.23769e-06
1.62956e-07
-2.53539e-05
1.7546e-05
4.07289e-07
-5.10478e-05
2.51031e-05
5.90766e-07
-8.24685e-05
3.06934e-05
7.27229e-07
-0.000118138
3.48413e-05
8.27765e-07
-0.000156973
3.79339e-05
9.01455e-07
-0.000198188
4.02598e-05
9.55457e-07
-0.00024122
4.20368e-05
9.9515e-07
-0.000285676
4.34314e-05
1.02435e-06
-0.000331293
4.45722e-05
1.04559e-06
-0.000377914
4.55599e-05
1.06045e-06
-0.000425458
4.64744e-05
1.06983e-06
-0.000473912
4.73798e-05
1.07421e-06
-0.000523313
4.83275e-05
1.07387e-06
-0.000573741
4.93589e-05
1.06902e-06
-0.000625308
5.05069e-05
1.05988e-06
-0.00067815
5.17947e-05
1.04676e-06
-0.000732411
5.32312e-05
1.02991e-06
-0.000788238
5.48175e-05
1.00967e-06
5.65923e-05
9.8664e-07
-0.000845817
-7.16933e-06
1.4407e-05
-2.46102e-05
3.49868e-05
-4.96092e-05
5.01022e-05
-8.02077e-05
6.12919e-05
-0.000114957
6.95909e-05
-0.000152789
7.57655e-05
-0.000192919
8.039e-05
-0.000234781
8.38987e-05
-0.000277973
8.66238e-05
-0.000322224
8.88226e-05
-0.000367361
9.06968e-05
-0.000413292
9.24061e-05
-0.000459992
9.40793e-05
-0.000507485
9.58206e-05
-0.000555841
9.77146e-05
-0.000605163
9.98288e-05
-0.000655581
0.000102213
-0.00070724
0.00010489
-0.000760285
0.000107863
0.000111209
-0.000814902
-6.71914e-06
2.11261e-05
-2.31591e-05
5.14268e-05
-4.67975e-05
7.37405e-05
-7.5783e-05
9.02775e-05
-0.000108726
0.000102534
-0.000144583
0.000111623
-0.000182579
0.000118386
-0.000222139
0.000123458
-0.000262846
0.000127331
-0.000304409
0.000130385
-0.000346631
0.000132919
-0.000389397
0.000135172
-0.000432655
0.000137337
-0.000476407
0.000139573
-0.000520703
0.00014201
-0.000565631
0.000144756
-0.00061131
0.000147893
-0.000657881
0.000151461
-0.000705495
0.000155477
0.000160054
-0.000754339
-6.07932e-06
2.72055e-05
-2.10885e-05
6.6436e-05
-4.27728e-05
9.54248e-05
-6.94332e-05
0.000116938
-9.97638e-05
0.000132864
-0.000132762
0.000144621
-0.000167662
0.000153285
-0.000203881
0.000159678
-0.000240984
0.000164434
-0.000278649
0.000168051
-0.000316649
0.000170919
-0.000354834
0.000173356
-0.000393115
0.000175619
-0.000431465
0.000177922
-0.000469902
0.000180447
-0.000508492
0.000183347
-0.000547344
0.000186744
-0.000586597
0.000190714
-0.00062641
0.00019529
0.000200626
-0.000666983
-5.29087e-06
3.24963e-05
-1.8522e-05
7.96671e-05
-3.77622e-05
0.000114665
-6.14988e-05
0.000140674
-8.85306e-05
0.000159896
-0.000117907
0.000173998
-0.000148878
0.000184256
-0.000180855
0.000191655
-0.00021338
0.000196959
-0.0002461
0.000200771
-0.000278749
0.000203568
-0.000311132
0.00020574
-0.000343121
0.000207608
-0.000374644
0.000209446
-0.000405686
0.00021149
-0.000436286
0.000213947
-0.000466537
0.000216995
-0.000496581
0.000220758
-0.000526598
0.000225307
0.000230845
-0.000556817
-4.40343e-06
3.68998e-05
-1.56108e-05
9.08745e-05
-3.20452e-05
0.000131099
-5.24011e-05
0.00016103
-7.55973e-05
0.000183092
-0.000100745
0.000199145
-0.000127118
0.000210629
-0.000154125
0.000218662
-0.000181286
0.000224121
-0.000208216
0.0002277
-0.000234605
0.000229957
-0.000260213
0.000231348
-0.000284862
0.000232256
-0.000308431
0.000233015
-0.000330863
0.000233922
-0.000352165
0.000235248
-0.000372413
0.000237243
-0.000391757
0.000240102
-0.000410411
0.000243961
0.000249092
-0.000428659
-3.47134e-06
4.03711e-05
-1.25223e-05
9.99255e-05
-2.59342e-05
0.000144511
-4.2615e-05
0.000177711
-6.16116e-05
0.000202089
-8.21055e-05
0.000219639
-0.000103401
0.000231925
-0.00012491
0.000240171
-0.000146138
0.000245348
-0.000166666
0.000248229
-0.000186146
0.000249436
-0.000204286
0.000249488
-0.000220854
0.000248824
-0.000235677
0.000247838
-0.000248646
0.000246891
-0.000259727
0.000246329
-0.000268976
0.000246492
-0.000276553
0.000247679
-0.000282722
0.00025013
0.000254227
-0.000287856
-2.54964e-06
4.29208e-05
-9.42851e-06
0.000106804
-1.97531e-05
0.000154836
-3.26373e-05
0.000190595
-4.72561e-05
0.000216708
-6.28665e-05
0.00023525
-7.88114e-05
0.000247869
-9.45146e-05
0.000255874
-0.000109472
0.000260305
-0.000123241
0.000261998
-0.000135435
0.00026163
-0.000145715
0.000259768
-0.000153793
0.000256902
-0.000159434
0.000253479
-0.000162469
0.000249925
-0.000162811
0.000246671
-0.000160484
0.000244166
-0.000155654
0.000242849
-0.000148649
0.000243125
0.00024555
-0.000139972
-1.69003e-06
4.46108e-05
-6.49316e-06
0.000111607
-1.38146e-05
0.000162157
-2.29515e-05
0.000199732
-3.32002e-05
0.000226956
-4.38947e-05
0.000245944
-5.44231e-05
0.000258398
-6.42304e-05
0.000265682
-7.28139e-05
0.000268889
-7.97173e-05
0.000268901
-8.45237e-05
0.000266437
-8.68518e-05
0.000262096
-8.63565e-05
0.000256407
-8.27362e-05
0.000249859
-7.57486e-05
0.000242938
-6.52373e-05
0.00023616
-5.11729e-05
0.000230101
-3.37089e-05
0.000225385
-1.32398e-05
0.000222656
0.000222756
9.55387e-06
-9.37203e-07
4.5548e-05
-3.86019e-06
0.00011453
-8.39624e-06
0.000166693
-1.39918e-05
0.000205328
-2.00491e-05
0.000233013
-2.59769e-05
0.000251872
-3.12136e-05
0.000263635
-3.52347e-05
0.000269703
-3.75517e-05
0.000271206
-3.77061e-05
0.000269056
-3.52635e-05
0.000263994
-2.98087e-05
0.000256642
-2.09451e-05
0.000247544
-8.30149e-06
0.000237215
8.44986e-06
0.000226186
2.9559e-05
0.000215051
5.51413e-05
0.000204519
8.50892e-05
0.000195437
0.000118959
0.000188786
0.000185862
0.000155853
-3.25715e-07
4.58737e-05
-1.64279e-06
0.000115848
-3.71931e-06
0.00016877
-6.1069e-06
0.000207715
-8.2919e-06
0.000235198
-9.75007e-06
0.00025333
-9.97194e-06
0.000263856
-8.47163e-06
0.000268202
-4.78602e-06
0.00026752
1.53109e-06
0.000262739
1.09167e-05
0.000254608
2.38061e-05
0.000243752
4.06369e-05
0.000230713
6.18461e-05
0.000216006
8.78542e-05
0.000200178
0.000119028
0.000183877
0.000155609
0.000167938
0.000197589
0.000153457
0.00024452
0.000141855
0.000135116
0.000295266
1.22435e-07
4.57513e-05
8.55036e-08
0.000115884
7.04554e-08
0.000168785
4.71657e-07
0.000207314
1.74689e-06
0.000233923
4.36663e-06
0.00025071
8.79167e-06
0.000259431
1.54659e-05
0.000261528
2.48187e-05
0.000258168
3.72717e-05
0.000250286
5.32492e-05
0.000238631
7.3189e-05
0.000223812
9.75522e-05
0.00020635
0.000126827
0.000186731
0.000161523
0.000165483
0.000202132
0.000143268
0.00024906
0.00012101
0.000302462
0.000100055
0.000361964
8.23535e-05
7.0873e-05
0.000426207
3.99474e-07
4.53518e-05
1.2973e-06
0.000114987
2.91732e-06
0.000167165
5.6553e-06
0.000204576
9.947e-06
0.000229632
1.62292e-05
0.000244428
2.4925e-05
0.000250736
3.64406e-05
0.000250012
5.11707e-05
0.000243437
6.95067e-05
0.00023195
9.18488e-05
0.000216289
0.00011862
0.000197041
0.000150283
0.000174687
0.000187349
0.000149665
0.000230388
0.000122444
0.000280006
9.36494e-05
0.000336779
6.42373e-05
0.000401078
3.57563e-05
0.000472699
1.07316e-05
-6.56862e-06
0.000550141
5.12708e-07
4.48391e-05
2.01511e-06
0.000113484
4.86451e-06
0.000164315
9.51512e-06
0.000199926
1.64196e-05
0.000222727
2.6009e-05
0.000234839
3.86889e-05
0.000238056
5.48439e-05
0.000233857
7.48451e-05
0.000223436
9.90595e-05
0.000207735
0.000127862
0.000187486
0.000161651
0.000163252
0.000200864
0.000135474
0.000246
0.000104529
0.000297635
7.08092e-05
0.000356429
3.48557e-05
0.000423082
-2.41567e-06
0.00049818
-3.93419e-05
0.000581779
-7.28676e-05
-9.71689e-05
0.000672379
4.84495e-07
4.43546e-05
2.31172e-06
0.000111657
6.05609e-06
0.000160571
1.22867e-05
0.000193695
2.15165e-05
0.000213497
3.42064e-05
0.000222149
5.07768e-05
0.000221485
7.16197e-05
0.000213014
9.71089e-05
0.000197947
0.000127609
0.000177235
0.000163484
0.000151611
0.000205108
0.000121628
0.000252878
8.77037e-05
0.000307234
5.01732e-05
0.000368682
9.36089e-06
0.000437825
-3.42872e-05
0.000515361
-7.99514e-05
0.000601989
-0.00012597
0.000698036
-0.000168915
-0.000201343
0.00080221
3.51178e-07
4.40034e-05
2.3068e-06
0.000109701
6.7307e-06
0.000156147
1.43608e-05
0.000186065
2.58167e-05
0.000202041
4.16331e-05
0.000206332
6.22879e-05
0.00020083
8.82226e-05
0.00018708
0.000119855
0.000166315
0.000157585
0.000139506
0.000201795
0.0001074
0.000252853
7.05695e-05
0.000311109
2.94478e-05
0.000376903
-1.56208e-05
0.000450584
-6.43199e-05
0.000532546
-0.000116249
0.000623273
-0.000170679
0.000723339
-0.000226035
0.000833191
-0.000278766
-0.000320059
0.000951907
1.60793e-07
4.38426e-05
2.15916e-06
0.000107703
7.2062e-06
0.0001511
1.62581e-05
0.000177013
3.00895e-05
0.00018821
4.93579e-05
0.000187064
7.4649e-05
0.000175539
0.000106505
0.000155224
0.000145437
0.000127383
0.000191927
9.30154e-05
0.000246417
5.29107e-05
0.000309291
7.69548e-06
0.000380858
-4.21187e-05
0.000461329
-9.60921e-05
0.000550815
-0.000153806
0.000649348
-0.000214782
0.000756944
-0.000278274
0.000873683
-0.000342774
0.000999708
-0.000404792
-0.000454766
0.00113441
-3.05591e-08
4.38732e-05
2.05458e-06
0.000105618
7.85508e-06
0.0001453
1.85887e-05
0.00016628
3.52325e-05
0.000171566
5.86167e-05
0.00016368
8.94868e-05
0.000144669
0.000128537
0.000116174
0.000176419
7.95004e-05
0.000233737
3.56971e-05
0.000301023
-1.43753e-05
0.0003787
-6.99816e-05
0.000467038
-0.000130457
0.000566102
-0.000195157
0.000675708
-0.000263412
0.000795399
-0.000334473
0.000924495
-0.00040737
0.00106221
-0.000480493
0.00120777
-0.000550352
-0.000607486
0.00136049
-1.63576e-07
4.40368e-05
2.18979e-06
0.000103265
9.0722e-06
0.000138417
2.19982e-05
0.000153354
4.21894e-05
0.000151375
7.06944e-05
0.000135175
0.000108462
0.000106902
0.000156375
6.82611e-05
0.000215256
2.06197e-05
0.000285847
-3.48942e-05
0.000368775
-9.73038e-05
0.000464501
-0.000165707
0.000573252
-0.000239208
0.000694955
-0.000316859
0.00082914
-0.000397597
0.000974855
-0.000480188
0.0011306
-0.000563118
0.00129438
-0.000644269
0.00146382
-0.000719792
-0.000781111
0.00163744
-1.81369e-07
4.42181e-05
2.75436e-06
0.000100329
1.12383e-05
0.000129933
2.71066e-05
0.000137485
5.18578e-05
0.000126624
8.67908e-05
0.000100242
0.000133081
6.06114e-05
0.00019181
9.53207e-06
0.000263958
-5.15282e-05
0.000350373
-0.000121309
0.000451728
-0.000198658
0.000568464
-0.000282443
0.000700742
-0.000371487
0.000848394
-0.00046451
0.00101086
-0.000560069
0.00118716
-0.000656478
0.00137568
-0.000751647
0.00157382
-0.000842404
0.00177581
-0.000921788
-0.000969502
0.00196421
-3.56949e-08
4.42538e-05
3.9119e-06
9.63812e-05
1.46833e-05
0.000119162
3.44481e-05
0.000117721
6.49984e-05
9.60734e-05
0.000107893
5.73473e-05
0.000164525
3.97952e-06
0.000236136
-6.2079e-05
0.000323791
-0.000139184
0.000428333
-0.000225852
0.00055033
-0.000320655
0.000690031
-0.000422144
0.000847349
-0.000528804
0.00102188
-0.000639041
0.001213
-0.000751187
0.00142006
-0.000863536
0.00164278
-0.000974373
0.0018823
-0.00108192
0.00214464
-0.00118413
-0.00127126
0.00244639
3.1154e-07
4.39423e-05
5.79089e-06
9.09019e-05
1.96638e-05
0.000105289
4.44295e-05
9.29549e-05
8.21688e-05
5.8334e-05
0.000134678
4.83782e-06
0.000203516
-6.48586e-05
0.00028999
-0.000148553
0.000395105
-0.000244298
0.000519497
-0.000350244
0.000663376
-0.000464534
0.000826488
-0.000585256
0.00100812
-0.000710433
0.00120713
-0.00083806
0.00142211
-0.000966167
0.00165149
-0.00109292
0.00189383
-0.00121671
0.00214825
-0.00133633
0.00241508
-0.00145096
-0.00155148
0.0026953
8.82336e-07
4.30599e-05
8.4712e-06
8.3313e-05
2.63407e-05
8.74196e-05
5.72972e-05
6.19984e-05
0.000103678
1.19528e-05
0.000167458
-5.89418e-05
0.000250256
-0.000147657
0.00035329
-0.000251586
0.00047729
-0.000368298
0.000622424
-0.000495378
0.00078824
-0.00063035
0.00097365
-0.000770666
0.00117697
-0.000913757
0.00139603
-0.00105711
0.00162826
-0.0011984
0.0018709
-0.00133556
0.00212112
-0.00146693
0.00237614
-0.00159135
0.00263329
-0.00170811
-0.00180972
0.00289153
1.68613e-06
4.13738e-05
1.19897e-05
7.30095e-05
3.47843e-05
6.46249e-05
7.31399e-05
2.36428e-05
0.000129586
-4.44929e-05
0.000206167
-0.000135523
0.000304408
-0.000245897
0.000425214
-0.000372393
0.000568779
-0.000511862
0.000734496
-0.000661096
0.000920946
-0.0008168
0.00112594
-0.000975655
0.00134661
-0.00113443
0.00157962
-0.00129012
0.00182132
-0.0014401
0.00206796
-0.00158219
0.00231583
-0.00171481
0.00256139
-0.00183691
0.00280135
-0.00194807
-0.00204321
0.00303485
2.72211e-06
3.86517e-05
1.63467e-05
5.93849e-05
4.49859e-05
3.59857e-05
9.19037e-05
-2.32749e-05
0.000159717
-0.000112307
0.000250389
-0.000226195
0.000365125
-0.000360634
0.000504255
-0.000511523
0.00066712
-0.000674728
0.000852043
-0.000846018
0.00105638
-0.00102113
0.00127666
-0.00119594
0.00150884
-0.00136661
0.00174852
-0.00152981
0.00199128
-0.00168286
0.00223287
-0.00182378
0.00246941
-0.00195135
0.00269751
-0.00206501
0.00291436
-0.00216492
-0.00224828
0.00311942
3.98357e-06
3.46681e-05
2.15174e-05
4.1851e-05
5.68757e-05
6.27489e-07
0.000113417
-7.98164e-05
0.0001937
-0.000192589
0.00029939
-0.000331885
0.000431108
-0.000492352
0.000588287
-0.000668702
0.00076911
-0.00085555
0.000970566
-0.00104747
0.00118864
-0.00123921
0.0014186
-0.0014259
0.00165538
-0.00160338
0.0018939
-0.00176833
0.00212945
-0.00191841
0.0023579
-0.00205223
0.00257587
-0.00216932
0.00278082
-0.00226996
0.002971
-0.00235509
-0.00242388
0.0031466
5.46193e-06
2.92062e-05
2.74623e-05
1.98507e-05
7.034e-05
-4.22503e-05
0.000137414
-0.00014689
0.000230985
-0.000286161
0.000352159
-0.000453058
0.000500649
-0.000640842
0.000674669
-0.000842721
0.000870968
-0.00105185
0.00108505
-0.00126156
0.00131156
-0.00146571
0.0015447
-0.00165905
0.00177878
-0.00183746
0.00200858
-0.00199813
0.00222967
-0.00213951
0.00243866
-0.00226122
0.00263317
-0.00236384
0.00281188
-0.00244866
0.00297432
-0.00251753
-0.00257109
0.00312152
7.14911e-06
2.20571e-05
3.41326e-05
-7.13282e-06
8.52299e-05
-9.33476e-05
0.000163542
-0.000225203
0.000270863
-0.000393482
0.000407422
-0.000589617
0.000571688
-0.000805108
0.000760357
-0.00103139
0.000968574
-0.00126007
0.00119038
-0.00148336
0.00141927
-0.00169461
0.00164885
-0.00188863
0.00187333
-0.00206194
0.00208793
-0.00221273
0.00228911
-0.00234069
0.00247462
-0.00244672
0.00264338
-0.0025326
0.00279537
-0.00260065
0.00293132
-0.00265349
-0.0026928
0.00305303
9.03771e-06
1.30194e-05
4.14708e-05
-3.95659e-05
0.000101359
-0.000153236
0.00019136
-0.000315204
0.000312462
-0.000514584
0.000463669
-0.000740825
0.000641882
-0.000983321
0.000842071
-0.00123158
0.00105776
-0.00147576
0.00128174
-0.00170734
0.00150683
-0.00191969
0.00172655
-0.00210834
0.00193564
-0.00227103
0.00213032
-0.00240741
0.00230831
-0.00251869
0.00246873
-0.00260714
0.00261181
-0.00267568
0.00273866
-0.0027275
0.00285092
-0.00276574
-0.00279274
0.00295087
1.11192e-05
1.90023e-06
4.94045e-05
-7.78512e-05
0.000118493
-0.000222325
0.000220327
-0.000417038
0.000354745
-0.000649001
0.00051918
-0.00090526
0.000708706
-0.00117285
0.000916507
-0.00143938
0.00113468
-0.00169393
0.00135517
-0.00192784
0.0015707
-0.00213521
0.00177534
-0.00231298
0.00196489
-0.00246059
0.00213693
-0.00257945
0.00229063
-0.00267238
0.00242641
-0.00274292
0.00254562
-0.0027949
0.00265019
-0.00283206
0.00274227
-0.00285782
-0.00287481
0.00282433
1.33806e-05
-1.14804e-05
5.78388e-05
-0.000122309
0.000136341
-0.000300827
0.000249793
-0.000530489
0.000396524
-0.000795732
0.000572092
-0.00108083
0.000769611
-0.00137037
0.000980601
-0.00165037
0.00119612
-0.00190944
0.00140786
-0.00213959
0.00160906
-0.00233641
0.00179487
-0.0024988
0.00196255
-0.00262826
0.00211115
-0.00272806
0.0022412
-0.00280243
0.00235425
-0.00285596
0.00245241
-0.00289306
0.00253805
-0.0029177
0.00261351
-0.00293328
-0.00294247
0.00268117
1.58019e-05
-2.72823e-05
6.66491e-05
-0.000173157
0.000154544
-0.000388722
0.000279002
-0.000654947
0.000436501
-0.000953232
0.000620506
-0.00126483
0.00082221
-0.00157207
0.0010318
-0.00185995
0.00123983
-0.00211748
0.0014384
-0.00233816
0.0016218
-0.0025198
0.00178666
-0.00266366
0.00193179
-0.00277339
0.00205767
-0.00285394
0.00216596
-0.00291073
0.00225896
-0.00294896
0.00233922
-0.00297331
0.00240921
-0.0029877
0.00247122
-0.00299529
-0.0029986
0.00252734
1.83534e-05
-4.56358e-05
7.56768e-05
-0.00023048
0.000172676
-0.000485721
0.000307116
-0.000789387
0.000473331
-0.00111945
0.000662619
-0.00145412
0.000864479
-0.00177393
0.00106826
-0.00206373
0.00126466
-0.00231388
0.00144675
-0.00252025
0.00161029
-0.00268333
0.00175353
-0.00280691
0.00187678
-0.00289664
0.0019817
-0.00295886
0.00207074
-0.00299976
0.0021466
-0.00302483
0.00221195
-0.00303867
0.00226918
-0.00304492
0.0023203
-0.00304641
-0.00304537
0.00236707
2.09949e-05
-6.66307e-05
8.47306e-05
-0.000294216
0.00019026
-0.00059125
0.000333256
-0.000932383
0.000505716
-0.00129191
0.000696864
-0.00164527
0.000894915
-0.00197198
0.00108899
-0.00225781
0.00127055
-0.00249544
0.00143406
-0.00268377
0.00157696
-0.00282623
0.0016991
-0.00292905
0.00180203
-0.00299957
0.00188827
-0.0030451
0.00196072
-0.0030722
0.0020222
-0.00308631
0.00207527
-0.00309173
0.00212205
-0.0030917
0.00216425
-0.00308862
-0.0030844
0.00220328
2.36762e-05
-9.03069e-05
9.35917e-05
-0.000364131
0.000206787
-0.000704445
0.000356552
-0.00108215
0.000532492
-0.00146785
0.000722029
-0.00183481
0.000912639
-0.00216259
0.00109384
-0.00243901
0.00125836
-0.00265996
0.00140234
-0.00282775
0.00152488
-0.00294878
0.00162723
-0.00303139
0.00171187
-0.00308421
0.00178186
-0.00311509
0.00184022
-0.00313057
0.00188971
-0.0031358
0.0019326
-0.00313463
0.00197072
-0.00312981
0.00200544
-0.00312334
-0.00311679
0.00203784
2.63386e-05
-0.000116645
0.000102024
-0.000439816
0.000221743
-0.000824164
0.000376206
-0.00123661
0.000552719
-0.00164436
0.000737338
-0.00201943
0.000917406
-0.00234266
0.00108341
-0.00260501
0.00122967
-0.00280622
0.0013541
-0.00295217
0.00145731
-0.00305198
0.00154162
-0.0031157
0.00161016
-0.00315275
0.00166618
-0.00317111
0.00171266
-0.00317705
0.00175209
-0.00317523
0.00178644
-0.00316897
0.00181718
-0.00316056
0.00184541
-0.00315158
-0.0031433
0.00187192
2.89172e-05
-0.000145563
0.000109783
-0.000520682
0.000234641
-0.000949022
0.000391538
-0.00139351
0.00056574
-0.00181856
0.000742472
-0.00219616
0.00090955
-0.00250974
0.00105886
-0.00275432
0.00118651
-0.00293387
0.00129206
-0.00305772
0.00137739
-0.00313731
0.0014456
-0.00318391
0.00150013
-0.00320728
0.00154422
-0.0032152
0.00158061
-0.00321344
0.00161148
-0.0032061
0.00163847
-0.00319595
0.00166275
-0.00318484
0.00168516
-0.00317399
-0.00316442
0.00170628
3.13443e-05
-0.000176907
0.000116635
-0.000605973
0.000245053
-0.00107744
0.000402035
-0.00155049
0.000571205
-0.00198773
0.000737545
-0.0023625
0.000889872
-0.00266206
0.00102176
-0.00288621
0.00113109
-0.00304321
0.00121889
-0.00314552
0.00128801
-0.00320643
0.00134201
-0.00323791
0.0013844
-0.00324967
0.00141824
-0.00324904
0.00144596
-0.00324116
0.00146939
-0.00322954
0.00148986
-0.00321642
0.00150829
-0.00320327
0.00152531
-0.00319101
-0.00318044
0.00154133
3.35518e-05
-0.000210459
0.000122362
-0.000694784
0.00025263
-0.00120771
0.000407372
-0.00170523
0.000569069
-0.00214943
0.000723039
-0.00251647
0.000859506
-0.00279853
0.000973856
-0.00300056
0.00106564
-0.00313499
0.00113707
-0.00321696
0.00119166
-0.00326102
0.00123317
-0.00327942
0.00126501
-0.00328151
0.00128994
-0.00327396
0.00131005
-0.00326128
0.00132685
-0.00324634
0.00134138
-0.00323095
0.00135437
-0.00321625
0.00136627
-0.00320291
-0.00319154
0.00137737
3.54749e-05
-0.000245934
0.000126779
-0.000786088
0.000257119
-0.00133805
0.000407418
-0.00185553
0.000559562
-0.00230157
0.000699717
-0.00265662
0.000819785
-0.0029186
0.000916958
-0.00309773
0.000992234
-0.00321026
0.00104875
-0.00327347
0.00109039
-0.00330267
0.00112093
-0.00330996
0.00114351
-0.00330409
0.00116057
-0.00329102
0.00117385
-0.00327456
0.00118458
-0.00325706
0.00119356
-0.00323994
0.00120134
-0.00322403
0.00120828
-0.00320985
-0.00319783
0.00121457
3.70591e-05
-0.000282993
0.000129745
-0.000878774
0.000258389
-0.00146669
0.00040224
-0.00199938
0.000543147
-0.00244248
0.000668542
-0.00278202
0.000772139
-0.0030222
0.000852819
-0.00317841
0.000912782
-0.00327023
0.000955794
-0.00331648
0.000985904
-0.00333278
0.00100671
-0.00333076
0.00102106
-0.00331844
0.00103102
-0.00330099
0.00103804
-0.00328158
0.00104308
-0.0032621
0.00104675
-0.00324361
0.00104949
-0.00322677
0.00105155
-0.00321191
-0.00319936
0.00105307
3.82469e-05
-0.00032124
0.000131145
-0.000971672
0.000256379
-0.00159193
0.000392022
-0.00213503
0.000520408
-0.00257087
0.000630532
-0.00289214
0.000717935
-0.0031096
0.000783004
-0.00324348
0.000828875
-0.0033161
0.000859694
-0.0033473
0.000879483
-0.00335257
0.000891578
-0.00334286
0.000898478
-0.00332534
0.000901923
-0.00330443
0.000903066
-0.00328273
0.000902655
-0.00326169
0.000901179
-0.00324214
0.000898955
-0.00322454
0.000896182
-0.00320914
-0.00319614
0.000892963
3.90021e-05
-0.000360242
0.000130928
-0.0010636
0.000251157
-0.00171215
0.000377117
-0.00226099
0.000492075
-0.00268582
0.000586775
-0.00298684
0.000658512
-0.00318134
0.00070895
-0.00329392
0.000741905
-0.00334905
0.000761691
-0.00336709
0.00077217
-0.00336305
0.000776357
-0.00334704
0.0007764
-0.00332538
0.00077373
-0.00330176
0.000769261
-0.00327826
0.00076357
-0.00325599
0.000757032
-0.0032356
0.000749894
-0.0032174
0.000742309
-0.00320155
-0.00318818
0.000734352
3.92959e-05
-0.000399538
0.000129085
-0.00115339
0.000242868
-0.00182594
0.000357956
-0.00237607
0.000458916
-0.00278678
0.000538321
-0.00306625
0.000595075
-0.00323809
0.000631882
-0.00333073
0.000653004
-0.00337017
0.000662757
-0.00337684
0.000664747
-0.00336504
0.000661647
-0.00334394
0.00065527
-0.00331901
0.000646771
-0.00329327
0.000636865
-0.00326835
0.000625995
-0.00324512
0.000614448
-0.00322405
0.000602418
-0.00320537
0.000590026
-0.00318916
-0.00317549
0.000577331
3.91117e-05
-0.000438649
0.000125648
-0.00123992
0.000231721
-0.00193201
0.000335028
-0.00247938
0.000421707
-0.00287346
0.000486152
-0.00313069
0.000528692
-0.00328063
0.000552836
-0.00335487
0.000563093
-0.00338043
0.00056365
-0.0033774
0.000557808
-0.0033592
0.000547891
-0.00333403
0.000535408
-0.00330652
0.000521279
-0.00327914
0.000506052
-0.00325312
0.000490064
-0.00322914
0.000473537
-0.00320752
0.000456624
-0.00318846
0.000439426
-0.00317196
-0.00315805
0.000421992
3.84444e-05
-0.000477094
0.000120685
-0.00132216
0.000217976
-0.0020293
0.000308851
-0.00257026
0.000381199
-0.00294581
0.00043116
-0.00318065
0.000460286
-0.00330976
0.000472671
-0.00336725
0.000472903
-0.00338066
0.000464956
-0.00336945
0.000451794
-0.00334603
0.000435413
-0.00331764
0.000417048
-0.00328816
0.000397422
-0.00325951
0.000376951
-0.00323265
0.000355883
-0.00320807
0.00033439
-0.00318603
0.000312597
-0.00316667
0.000290592
-0.00314996
-0.00313588
0.000268418
3.73003e-05
-0.000514394
0.000114295
-0.00139916
0.000201927
-0.00211693
0.000279948
-0.00264828
0.000338098
-0.00300396
0.000374143
-0.0032167
0.000390644
-0.00332626
0.000392089
-0.0033687
0.000383017
-0.00337159
0.000367124
-0.00335356
0.000347038
-0.00332595
0.000324449
-0.00329506
0.00030036
-0.00326407
0.000275328
-0.00323448
0.000249659
-0.00320698
0.000223534
-0.00318194
0.000197083
-0.00315958
0.000170411
-0.00314
0.000143597
-0.00312314
-0.00310897
0.000116687
3.56951e-05
-0.000550089
0.000106601
-0.00147006
0.000183882
-0.00219421
0.000248826
-0.00271322
0.00029305
-0.00304818
0.000315793
-0.00323944
0.000320426
-0.00333089
0.00031166
-0.00335993
0.000293888
-0.00335382
0.000270497
-0.00333016
0.000243787
-0.00329924
0.000215176
-0.00326645
0.000185469
-0.00323436
0.000155089
-0.0032041
0.000124253
-0.00317615
9.30854e-05
-0.00315078
6.16813e-05
-0.00312818
3.01284e-05
-0.00310844
-1.4935e-06
-0.00309152
-0.00307733
-3.31326e-05
3.36536e-05
-0.000583743
9.7741e-05
-0.00153415
0.000164156
-0.00226063
0.000215966
-0.00276503
0.000246637
-0.00307886
0.000256711
-0.00324951
0.000250181
-0.00332436
0.000231844
-0.0033416
0.000205875
-0.00332785
0.000175339
-0.00329963
0.000142228
-0.00326613
0.000107725
-0.00323194
7.24681e-05
-0.0031991
3.6775e-05
-0.00316841
7.90441e-07
-0.00314016
-3.54106e-05
-0.00311457
-7.17648e-05
-0.00309182
-0.000108197
-0.00307201
-0.000144624
-0.00305509
-0.00304097
-0.000180982
3.12071e-05
-0.00061495
8.7863e-05
-0.00159081
0.000143059
-0.00231583
0.000181813
-0.00280378
0.000199373
-0.00309642
0.000197409
-0.00324755
0.000180364
-0.00330732
0.000153012
-0.00331424
0.000119263
-0.0032941
8.18561e-05
-0.00326222
4.25078e-05
-0.00322678
2.19616e-06
-0.00319163
-3.85709e-05
-0.00315834
-7.95611e-05
-0.00312742
-0.000120687
-0.00309904
-0.000161918
-0.00307334
-0.000203221
-0.00305052
-0.000244533
-0.0030307
-0.000285761
-0.00301387
-0.00299991
-0.000326824
2.83931e-05
-0.000643343
7.71211e-05
-0.00163954
0.000120888
-0.00235959
0.000146777
-0.00282967
0.000151714
-0.00310135
0.000138324
-0.00323416
0.000111356
-0.00328035
7.54698e-05
-0.00327836
3.4281e-05
-0.00325291
-9.78188e-06
-0.00321816
-5.52535e-05
-0.00318131
-0.000101325
-0.00314556
-0.000147591
-0.00311207
-0.000193881
-0.00308113
-0.000240155
-0.00305276
-0.000286421
-0.00302708
-0.000332679
-0.00300426
-0.000378878
-0.0029845
-0.000424911
-0.00296783
-0.00295415
-0.000470673
2.52532e-05
-0.000668596
6.56702e-05
-0.00167995
9.79261e-05
-0.00239185
0.000111227
-0.00284297
0.000104055
-0.00309418
7.98301e-05
-0.00320994
4.34752e-05
-0.00324399
-5.29212e-07
-0.00323435
-4.88745e-05
-0.00320457
-9.94281e-05
-0.00316761
-0.000150946
-0.00312979
-0.000202758
-0.00309375
-0.000254537
-0.00306029
-0.000306154
-0.00302951
-0.000357601
-0.00300132
-0.000408924
-0.00297576
-0.000460158
-0.00295303
-0.000511274
-0.00293339
-0.000562146
-0.00291696
-0.00290366
-0.000612631
2.18322e-05
-0.000690428
5.36631e-05
-0.00171178
7.44373e-05
-0.00241262
7.54963e-05
-0.00284403
5.67472e-05
-0.00307543
2.22482e-05
-0.00317544
-2.30063e-05
-0.00319874
-7.47635e-05
-0.0031826
-0.000130027
-0.0031493
-0.000186941
-0.00311069
-0.000244456
-0.00307227
-0.000302016
-0.00303619
-0.000359347
-0.00300296
-0.000416344
-0.00297251
-0.000473016
-0.00294464
-0.000529441
-0.00291933
-0.000585699
-0.00289677
-0.000641791
-0.00287729
-0.00069758
-0.00286117
-0.00284838
-0.00075286
1.81772e-05
-0.000708606
4.12484e-05
-0.00173486
5.06667e-05
-0.00242204
3.98848e-05
-0.00283325
1.00952e-05
-0.00304564
-3.41411e-05
-0.0031312
-8.78472e-05
-0.00314503
-0.000147031
-0.00312341
-0.000209006
-0.00308733
-0.000272172
-0.00304753
-0.000335653
-0.00300879
-0.000398986
-0.00297285
-0.000461935
-0.00294001
-0.000524398
-0.00291005
-0.000586381
-0.00288266
-0.000647984
-0.00285773
-0.000709336
-0.00283542
-0.000770489
-0.00281614
-0.000831302
-0.00280036
-0.00278822
-0.000891469
1.4336e-05
-0.000722942
2.85688e-05
-0.00174909
2.68403e-05
-0.00242031
4.66081e-06
-0.00281107
-3.56296e-05
-0.00300535
-8.90894e-05
-0.00307774
-0.000150829
-0.00308329
-0.000217138
-0.0030571
-0.000285631
-0.00301883
-0.000354947
-0.00297821
-0.000424367
-0.00293937
-0.000493513
-0.00290371
-0.00056217
-0.00287135
-0.000630226
-0.00284199
-0.00069766
-0.00281523
-0.000764564
-0.00279082
-0.000831112
-0.00276887
-0.000897422
-0.00274983
-0.000963365
-0.00273441
-0.00272309
-0.00102849
1.03571e-05
-0.000733299
1.57595e-05
-0.00175449
3.16466e-06
-0.00240772
-2.99356e-05
-0.00277797
-8.0187e-05
-0.0029551
-0.000142373
-0.00301555
-0.000211746
-0.00301392
-0.000284889
-0.00298396
-0.000359707
-0.00294402
-0.000435061
-0.00290285
-0.00051038
-0.00286406
-0.000585368
-0.00282872
-0.00065984
-0.00279688
-0.000733661
-0.00276817
-0.000806762
-0.00274213
-0.000879188
-0.0027184
-0.000951123
-0.00269693
-0.00102277
-0.00267819
-0.00109402
-0.00266316
-0.00265279
-0.00116432
6.2881e-06
-0.000739587
2.94724e-06
-0.00175115
-2.0173e-05
-0.0023846
-6.3691e-05
-0.00273445
-0.000123364
-0.00289543
-0.000193791
-0.00294513
-0.000270405
-0.00293731
-0.000350087
-0.00290428
-0.000431018
-0.00286309
-0.000512267
-0.0028216
-0.000593408
-0.00278291
-0.000674236
-0.00274789
-0.000754613
-0.00271651
-0.0008344
-0.00268839
-0.00091347
-0.00266306
-0.000991792
-0.00264007
-0.00106953
-0.0026192
-0.00114696
-0.00260075
-0.00122408
-0.00258604
-0.00257634
-0.00130053
2.17514e-06
-0.000741762
-9.75139e-06
-0.00173922
-4.30053e-05
-0.00235134
-9.64176e-05
-0.00268104
-0.000164972
-0.00282687
-0.000243159
-0.00286694
-0.00032662
-0.00285385
-0.000412529
-0.00281837
-0.000499326
-0.00277629
-0.000586279
-0.00273465
-0.000673104
-0.00269609
-0.000759706
-0.00266129
-0.000846029
-0.00263018
-0.000931975
-0.00260244
-0.0010174
-0.00257763
-0.00110219
-0.00255529
-0.00118645
-0.00253493
-0.00127061
-0.00251659
-0.00135487
-0.00250178
-0.00249136
-0.00143985
-1.93834e-06
-0.000739824
-2.22312e-05
-0.00171893
-6.51862e-05
-0.00230839
-0.000127955
-0.00261827
-0.000204852
-0.00274998
-0.000290318
-0.00278147
-0.000380219
-0.00276394
-0.00047201
-0.00272658
-0.000564371
-0.00268393
-0.000656754
-0.00264227
-0.000749019
-0.00260383
-0.000841205
-0.0025691
-0.000933397
-0.00253799
-0.00102563
-0.0025102
-0.00111786
-0.00248541
-0.00120997
-0.00246317
-0.00130198
-0.00244292
-0.00139426
-0.00242431
-0.00148741
-0.00240863
-0.00239459
-0.00158418
-6.01252e-06
-0.000733811
-3.44002e-05
-0.00169054
-8.65925e-05
-0.0022562
-0.000158172
-0.00254669
-0.000242876
-0.00266527
-0.00033514
-0.00268921
-0.000431058
-0.00266803
-0.000528345
-0.00262929
-0.000625894
-0.00258638
-0.000723309
-0.00254485
-0.000820577
-0.00250656
-0.000917872
-0.00247181
-0.00101546
-0.0024404
-0.00111365
-0.00241201
-0.00121273
-0.00238633
-0.00131289
-0.00236301
-0.00141427
-0.00234155
-0.00151745
-0.00232113
-0.00162478
-0.0023013
-0.00229394
-0.00172544
-9.99961e-06
-0.000723812
-4.61607e-05
-0.00165438
-0.000107102
-0.00219525
-0.000186945
-0.00246685
-0.00027893
-0.00257329
-0.000377519
-0.00259062
-0.000479029
-0.00256652
-0.000581405
-0.00252691
-0.000683713