/*--------------------------------*- C++ -*----------------------------------*\
  =========                 |
  \\      /  F ield         | OpenFOAM: The Open Source CFD Toolbox
   \\    /   O peration     | Website:  https://openfoam.org
    \\  /    A nd           | Version:  6.0
     \\/     M anipulation  |
\*---------------------------------------------------------------------------*/
FoamFile
{
    version     2.0;
    format      ascii;
    class       volScalarField;
    location    "20";
    object      p;
}
// * * * * * * * * * * * * * * * * * * * * * * * * * * * * * * * * * * * * * //

dimensions      [0 2 -2 0 0 0 0];

internalField   nonuniform List<scalar> 
12500
(
-0.264948
-0.265793
-0.266373
-0.266814
-0.267192
-0.267516
-0.267797
-0.268046
-0.268271
-0.268477
-0.268669
-0.268851
-0.269026
-0.269197
-0.269367
-0.269538
-0.269713
-0.269894
-0.270084
-0.270287
-0.27051
-0.270754
-0.270958
-0.271092
-0.27177
-0.265024
-0.265865
-0.266443
-0.266881
-0.267256
-0.267577
-0.267855
-0.2681
-0.268321
-0.268523
-0.268711
-0.268889
-0.26906
-0.269226
-0.269391
-0.269557
-0.269728
-0.269904
-0.27009
-0.270287
-0.270506
-0.270746
-0.270947
-0.271076
-0.271752
-0.265177
-0.266012
-0.266584
-0.267017
-0.267386
-0.267701
-0.267972
-0.26821
-0.268424
-0.268618
-0.268798
-0.268968
-0.26913
-0.269288
-0.269443
-0.2696
-0.269761
-0.269928
-0.270104
-0.270292
-0.270503
-0.270735
-0.270929
-0.271049
-0.27172
-0.265406
-0.266232
-0.266797
-0.267222
-0.267583
-0.267888
-0.26815
-0.268377
-0.268579
-0.268762
-0.26893
-0.269087
-0.269236
-0.269379
-0.269521
-0.269663
-0.269809
-0.269962
-0.270123
-0.270298
-0.270495
-0.270716
-0.270898
-0.271005
-0.271669
-0.26571
-0.266526
-0.267081
-0.267496
-0.267845
-0.268138
-0.268386
-0.268599
-0.268787
-0.268953
-0.269104
-0.269244
-0.269374
-0.269499
-0.269622
-0.269744
-0.26987
-0.270002
-0.270144
-0.270299
-0.270478
-0.270682
-0.270849
-0.270938
-0.271592
-0.26609
-0.266892
-0.267436
-0.267838
-0.268173
-0.268451
-0.268681
-0.268876
-0.269044
-0.26919
-0.26932
-0.269437
-0.269544
-0.269645
-0.269742
-0.269839
-0.269938
-0.270044
-0.27016
-0.270289
-0.270444
-0.270626
-0.270773
-0.270839
-0.271481
-0.266543
-0.267332
-0.267861
-0.268249
-0.268566
-0.268825
-0.269034
-0.269207
-0.269351
-0.269472
-0.269575
-0.269664
-0.269742
-0.269813
-0.269878
-0.269943
-0.270009
-0.270082
-0.270164
-0.270262
-0.270386
-0.27054
-0.270661
-0.270698
-0.271326
-0.267071
-0.267844
-0.268357
-0.268727
-0.269025
-0.26926
-0.269445
-0.269591
-0.269707
-0.269798
-0.269869
-0.269925
-0.269967
-0.270001
-0.270028
-0.270053
-0.270079
-0.27011
-0.270151
-0.270209
-0.270295
-0.270414
-0.270503
-0.270505
-0.271116
-0.267673
-0.268429
-0.268925
-0.269274
-0.269548
-0.269757
-0.269914
-0.270028
-0.270111
-0.270167
-0.270201
-0.270217
-0.270218
-0.270208
-0.27019
-0.270167
-0.270143
-0.270125
-0.270116
-0.270124
-0.270163
-0.270239
-0.270288
-0.27025
-0.270839
-0.26835
-0.269088
-0.269564
-0.26989
-0.270138
-0.270317
-0.27044
-0.270519
-0.270564
-0.270579
-0.270571
-0.270542
-0.270495
-0.270434
-0.270363
-0.270283
-0.270202
-0.270124
-0.270054
-0.270003
-0.269984
-0.270006
-0.270007
-0.269919
-0.270485
-0.269105
-0.269823
-0.270277
-0.270577
-0.270794
-0.270939
-0.271025
-0.271065
-0.271067
-0.271037
-0.270981
-0.270901
-0.2708
-0.270682
-0.270548
-0.270405
-0.270255
-0.270106
-0.269965
-0.269841
-0.269752
-0.269709
-0.269649
-0.269502
-0.27004
-0.269938
-0.270635
-0.271064
-0.271335
-0.271518
-0.271625
-0.27167
-0.271666
-0.271621
-0.271542
-0.271433
-0.271297
-0.271136
-0.270953
-0.270751
-0.270534
-0.270307
-0.270076
-0.26985
-0.26964
-0.269465
-0.269343
-0.269207
-0.268988
-0.269492
-0.270855
-0.271527
-0.271929
-0.272167
-0.272311
-0.272376
-0.272376
-0.272324
-0.272229
-0.272096
-0.271931
-0.271734
-0.271509
-0.271256
-0.270978
-0.270679
-0.270364
-0.270039
-0.269714
-0.269402
-0.269125
-0.268903
-0.268674
-0.268365
-0.268826
-0.271859
-0.272504
-0.272873
-0.273074
-0.273176
-0.273195
-0.273146
-0.273042
-0.272893
-0.272704
-0.272478
-0.272218
-0.271924
-0.271597
-0.271238
-0.27085
-0.270437
-0.270007
-0.269568
-0.269137
-0.268737
-0.268394
-0.268045
-0.267622
-0.268028
-0.272954
-0.273567
-0.273901
-0.27406
-0.274115
-0.274084
-0.273981
-0.273822
-0.273615
-0.273367
-0.273079
-0.272753
-0.272388
-0.271984
-0.27154
-0.271058
-0.270541
-0.269994
-0.269428
-0.268857
-0.268311
-0.267818
-0.26732
-0.266748
-0.267077
-0.274147
-0.274722
-0.275015
-0.275127
-0.27513
-0.275043
-0.274883
-0.274665
-0.274398
-0.274088
-0.273736
-0.273344
-0.272908
-0.272426
-0.271896
-0.271317
-0.270689
-0.270017
-0.269309
-0.268581
-0.267863
-0.267188
-0.2665
-0.265732
-0.265952
-0.275443
-0.275975
-0.276219
-0.276278
-0.276223
-0.276075
-0.275853
-0.275571
-0.275241
-0.274868
-0.274452
-0.273993
-0.273486
-0.272928
-0.272312
-0.271636
-0.270896
-0.270093
-0.269233
-0.268329
-0.267412
-0.266518
-0.26559
-0.264565
-0.264626
-0.276849
-0.277329
-0.277519
-0.277517
-0.277397
-0.277182
-0.276891
-0.276542
-0.276145
-0.275706
-0.275225
-0.274699
-0.274124
-0.273491
-0.272793
-0.272022
-0.271171
-0.270236
-0.269217
-0.268121
-0.266979
-0.265826
-0.264601
-0.263238
-0.263065
-0.278371
-0.278791
-0.278918
-0.278848
-0.278655
-0.278364
-0.277998
-0.277576
-0.277108
-0.2766
-0.276051
-0.275459
-0.274816
-0.274112
-0.273336
-0.272475
-0.271518
-0.270452
-0.269271
-0.267975
-0.266585
-0.265134
-0.26355
-0.261747
-0.261235
-0.280018
-0.280368
-0.280423
-0.280276
-0.28
-0.279624
-0.279175
-0.278672
-0.278126
-0.277544
-0.276925
-0.276265
-0.275555
-0.274782
-0.273932
-0.272988
-0.27193
-0.270741
-0.269402
-0.267901
-0.266248
-0.264466
-0.262458
-0.260098
-0.2591
-0.281798
-0.282069
-0.282041
-0.281805
-0.281435
-0.280965
-0.280422
-0.279828
-0.279196
-0.278534
-0.277839
-0.277107
-0.276329
-0.275488
-0.274567
-0.273545
-0.272397
-0.271094
-0.269609
-0.267911
-0.265993
-0.263859
-0.261375
-0.258335
-0.256661
-0.283722
-0.283902
-0.283779
-0.283443
-0.282967
-0.282389
-0.28174
-0.281045
-0.280317
-0.279564
-0.278786
-0.277977
-0.277126
-0.276217
-0.275228
-0.274136
-0.272909
-0.271511
-0.269901
-0.268033
-0.265873
-0.263399
-0.260432
-0.256625
-0.254042
-0.285802
-0.285879
-0.285649
-0.285199
-0.284602
-0.283903
-0.283135
-0.282325
-0.281489
-0.280635
-0.279764
-0.27887
-0.277941
-0.276962
-0.275909
-0.274756
-0.273469
-0.272004
-0.27031
-0.26832
-0.26597
-0.263205
-0.259782
-0.255115
-0.25123
-0.288053
-0.288013
-0.287662
-0.287083
-0.286351
-0.285515
-0.284613
-0.283674
-0.282717
-0.28175
-0.280775
-0.279788
-0.278777
-0.277728
-0.276619
-0.275425
-0.274112
-0.272637
-0.27094
-0.268938
-0.266527
-0.263575
-0.259673
-0.253777
-0.247722
-0.290493
-0.29032
-0.289833
-0.289109
-0.288226
-0.287237
-0.286186
-0.285104
-0.284012
-0.28292
-0.281832
-0.280744
-0.279649
-0.278534
-0.277385
-0.276184
-0.274911
-0.273539
-0.272036
-0.27035
-0.268406
-0.26606
-0.262737
-0.256968
-0.250123
-0.293141
-0.29282
-0.292179
-0.291294
-0.290242
-0.289085
-0.287869
-0.28663
-0.285391
-0.284163
-0.282953
-0.281759
-0.280579
-0.279406
-0.278235
-0.277065
-0.275899
-0.274756
-0.273673
-0.27273
-0.272082
-0.27199
-0.272837
-0.276271
-0.288762
-0.296024
-0.295533
-0.294721
-0.293657
-0.29242
-0.291078
-0.289684
-0.288275
-0.286877
-0.285504
-0.284165
-0.282863
-0.281598
-0.280372
-0.279191
-0.278068
-0.277032
-0.276133
-0.275458
-0.27515
-0.275446
-0.276702
-0.27941
-0.284947
-0.298014
-0.299166
-0.298484
-0.297481
-0.29622
-0.294781
-0.293239
-0.291653
-0.290064
-0.288498
-0.286974
-0.285503
-0.28409
-0.282741
-0.281466
-0.280278
-0.279206
-0.278295
-0.277614
-0.277272
-0.27743
-0.27832
-0.280259
-0.283615
-0.289127
-0.299931
-0.302596
-0.301699
-0.300483
-0.299007
-0.29735
-0.295595
-0.293806
-0.292027
-0.290287
-0.288607
-0.287
-0.285475
-0.284042
-0.282716
-0.281518
-0.280484
-0.279666
-0.279142
-0.279019
-0.279441
-0.280596
-0.282714
-0.286016
-0.290818
-0.299215
-0.306346
-0.305203
-0.303753
-0.302045
-0.300154
-0.298174
-0.296172
-0.294195
-0.292276
-0.290436
-0.288691
-0.287051
-0.285529
-0.284144
-0.282918
-0.281891
-0.281114
-0.280657
-0.280612
-0.281089
-0.282218
-0.284136
-0.286945
-0.29071
-0.296777
-0.310445
-0.309026
-0.307318
-0.30536
-0.303221
-0.301004
-0.298781
-0.296602
-0.294499
-0.292496
-0.290607
-0.288845
-0.287224
-0.285759
-0.284476
-0.283408
-0.282599
-0.282107
-0.281998
-0.282345
-0.283223
-0.284696
-0.286788
-0.289439
-0.29346
-0.314924
-0.313193
-0.311205
-0.308979
-0.30658
-0.304116
-0.301665
-0.299278
-0.296986
-0.294814
-0.292773
-0.290877
-0.289135
-0.287561
-0.286176
-0.285006
-0.284084
-0.28345
-0.283145
-0.283211
-0.283679
-0.284566
-0.285852
-0.287426
-0.289738
-0.319809
-0.317732
-0.315439
-0.312929
-0.310256
-0.307538
-0.304853
-0.302251
-0.299765
-0.297413
-0.295206
-0.293153
-0.29126
-0.289535
-0.287993
-0.286649
-0.285526
-0.284647
-0.284034
-0.283702
-0.283659
-0.283892
-0.284367
-0.284959
-0.285903
-0.325125
-0.322664
-0.320043
-0.317234
-0.314278
-0.311297
-0.30837
-0.305547
-0.302855
-0.300308
-0.297913
-0.295672
-0.293585
-0.291656
-0.28989
-0.288295
-0.286883
-0.285665
-0.284649
-0.283838
-0.283223
-0.282785
-0.282486
-0.282212
-0.282082
-0.330892
-0.32801
-0.325039
-0.321918
-0.318668
-0.315415
-0.31224
-0.309184
-0.30627
-0.303505
-0.30089
-0.298418
-0.296084
-0.293885
-0.291821
-0.289894
-0.288109
-0.286469
-0.284977
-0.28363
-0.282416
-0.281316
-0.280302
-0.279273
-0.278303
-0.337125
-0.333785
-0.330444
-0.326997
-0.323444
-0.319913
-0.316477
-0.313173
-0.310014
-0.306998
-0.304118
-0.30136
-0.298715
-0.296174
-0.293734
-0.291394
-0.289157
-0.287026
-0.285003
-0.283084
-0.281263
-0.279527
-0.277857
-0.27617
-0.274529
-0.343831
-0.339999
-0.336268
-0.332487
-0.328623
-0.324801
-0.321091
-0.317516
-0.314078
-0.310767
-0.307566
-0.304457
-0.301426
-0.298464
-0.295567
-0.292737
-0.28998
-0.287302
-0.284708
-0.2822
-0.279777
-0.277435
-0.275163
-0.272895
-0.270697
-0.351009
-0.346653
-0.342519
-0.338394
-0.33421
-0.330085
-0.32608
-0.322202
-0.318442
-0.314779
-0.311189
-0.307652
-0.304153
-0.300688
-0.297257
-0.293868
-0.290533
-0.287265
-0.284075
-0.280972
-0.277961
-0.275043
-0.272216
-0.269425
-0.266743
-0.35865
-0.353743
-0.349193
-0.344718
-0.340203
-0.335759
-0.331429
-0.327206
-0.323067
-0.318982
-0.314925
-0.310875
-0.306825
-0.302775
-0.298738
-0.294731
-0.290773
-0.286887
-0.283089
-0.279395
-0.275813
-0.27235
-0.269006
-0.265735
-0.262615
-0.366734
-0.361254
-0.356279
-0.351448
-0.34659
-0.341803
-0.33711
-0.332488
-0.3279
-0.323313
-0.3187
-0.314049
-0.309362
-0.304653
-0.299947
-0.295274
-0.290663
-0.286142
-0.281735
-0.27746
-0.273329
-0.269349
-0.265522
-0.261803
-0.258276
-0.375227
-0.369158
-0.363754
-0.358561
-0.353345
-0.348182
-0.343078
-0.337989
-0.332872
-0.327691
-0.322429
-0.317087
-0.311682
-0.306248
-0.300823
-0.29545
-0.290167
-0.285008
-0.28
-0.275161
-0.270504
-0.266035
-0.261752
-0.257614
-0.253702
-0.384085
-0.377417
-0.371584
-0.366022
-0.360427
-0.354848
-0.34927
-0.343635
-0.337895
-0.332023
-0.326017
-0.319898
-0.313705
-0.307491
-0.301311
-0.295217
-0.289256
-0.283465
-0.27787
-0.27249
-0.267332
-0.262401
-0.25769
-0.253155
-0.248879
-0.393245
-0.385978
-0.379717
-0.373779
-0.367776
-0.36173
-0.355604
-0.349332
-0.34287
-0.336206
-0.329364
-0.32239
-0.31535
-0.308316
-0.301357
-0.294536
-0.287903
-0.281495
-0.275335
-0.269438
-0.263807
-0.25844
-0.253327
-0.248418
-0.243799
-0.402632
-0.394772
-0.388089
-0.381763
-0.375316
-0.36874
-0.361982
-0.354973
-0.347683
-0.34013
-0.332366
-0.324472
-0.31654
-0.30866
-0.300916
-0.293373
-0.286084
-0.27908
-0.272381
-0.265994
-0.259917
-0.254143
-0.248654
-0.243394
-0.238455
-0.412153
-0.403716
-0.396617
-0.389888
-0.382952
-0.375773
-0.368287
-0.360435
-0.352213
-0.343678
-0.334921
-0.326056
-0.317203
-0.308468
-0.299943
-0.291695
-0.283772
-0.2762
-0.268992
-0.262146
-0.255652
-0.249498
-0.24366
-0.238072
-0.232839
-0.421698
-0.412707
-0.405201
-0.398047
-0.390568
-0.382703
-0.374388
-0.365585
-0.356333
-0.346735
-0.336926
-0.327058
-0.317271
-0.307687
-0.298398
-0.289471
-0.280944
-0.272837
-0.265151
-0.257877
-0.250997
-0.244492
-0.238332
-0.232442
-0.226942
-0.431144
-0.42163
-0.413723
-0.406118
-0.398034
-0.389392
-0.380141
-0.370284
-0.359913
-0.349186
-0.338286
-0.327398
-0.316682
-0.306267
-0.296243
-0.286669
-0.277574
-0.268966
-0.260837
-0.253168
-0.245934
-0.239109
-0.232654
-0.226487
-0.220751
-0.440348
-0.430349
-0.422051
-0.413961
-0.405201
-0.395685
-0.385395
-0.374388
-0.362824
-0.35092
-0.338909
-0.327003
-0.315378
-0.304161
-0.293439
-0.283258
-0.273635
-0.264565
-0.256029
-0.248
-0.240444
-0.233329
-0.22661
-0.220193
-0.214252
-0.449156
-0.438718
-0.430034
-0.42142
-0.411907
-0.401421
-0.389992
-0.377753
-0.364939
-0.351832
-0.338708
-0.325805
-0.313303
-0.301327
-0.289951
-0.279207
-0.269098
-0.259607
-0.250704
-0.242349
-0.234505
-0.227133
-0.220179
-0.213541
-0.207426
-0.457402
-0.446575
-0.43751
-0.428326
-0.417982
-0.40643
-0.393776
-0.38024
-0.36614
-0.351823
-0.337605
-0.323739
-0.310406
-0.297721
-0.285742
-0.274484
-0.263936
-0.254067
-0.244835
-0.236193
-0.228095
-0.220499
-0.213341
-0.206511
-0.200256
-0.464908
-0.453749
-0.444303
-0.434501
-0.423247
-0.410544
-0.396591
-0.381712
-0.366313
-0.350802
-0.335527
-0.320749
-0.306642
-0.293305
-0.280777
-0.269059
-0.25812
-0.247917
-0.238397
-0.229507
-0.221192
-0.213406
-0.206077
-0.199085
-0.192723
-0.471489
-0.460057
-0.450231
-0.439762
-0.427521
-0.413592
-0.398287
-0.382043
-0.365355
-0.348687
-0.332408
-0.31678
-0.301964
-0.288038
-0.275024
-0.262899
-0.25162
-0.24113
-0.231367
-0.222267
-0.213773
-0.205832
-0.198365
-0.191244
-0.184809
-0.476959
-0.465315
-0.455108
-0.44392
-0.430626
-0.415411
-0.398723
-0.381116
-0.363173
-0.345402
-0.328188
-0.311784
-0.296332
-0.281887
-0.268449
-0.255976
-0.24441
-0.233682
-0.223719
-0.214453
-0.205818
-0.19776
-0.190188
-0.182969
-0.176497
-0.481129
-0.469336
-0.458745
-0.446793
-0.432389
-0.41585
-0.397769
-0.378826
-0.359683
-0.340883
-0.322816
-0.305718
-0.289709
-0.274819
-0.261023
-0.248263
-0.236465
-0.225548
-0.215433
-0.206042
-0.197307
-0.189169
-0.181529
-0.174246
-0.167772
-0.483813
-0.471935
-0.460959
-0.448202
-0.432646
-0.414764
-0.395308
-0.37508
-0.354812
-0.335073
-0.316244
-0.298544
-0.282061
-0.266802
-0.252718
-0.239734
-0.22776
-0.216708
-0.206488
-0.197017
-0.188225
-0.180046
-0.172373
-0.165061
-0.158622
-0.484834
-0.472934
-0.461572
-0.447977
-0.431246
-0.412027
-0.391239
-0.3698
-0.3485
-0.327923
-0.308436
-0.290228
-0.273361
-0.257812
-0.243511
-0.230367
-0.218277
-0.207143
-0.196867
-0.187364
-0.178557
-0.170378
-0.16271
-0.155405
-0.149037
-0.484022
-0.472164
-0.460417
-0.445965
-0.428054
-0.407528
-0.385474
-0.362917
-0.340696
-0.319394
-0.299358
-0.280744
-0.263583
-0.247826
-0.233383
-0.220145
-0.207999
-0.196838
-0.186559
-0.17707
-0.168293
-0.160156
-0.152532
-0.145271
-0.13901
-0.481224
-0.469467
-0.457342
-0.442025
-0.422952
-0.401173
-0.377943
-0.354382
-0.331361
-0.309457
-0.288986
-0.27007
-0.252709
-0.236828
-0.222317
-0.209053
-0.196913
-0.185782
-0.175552
-0.166128
-0.157427
-0.149375
-0.141834
-0.134655
-0.128539
-0.4763
-0.464705
-0.452213
-0.436039
-0.415841
-0.392888
-0.368591
-0.344155
-0.320469
-0.298091
-0.277303
-0.258192
-0.240726
-0.224806
-0.210303
-0.197082
-0.185012
-0.17397
-0.163843
-0.154533
-0.145956
-0.138034
-0.130618
-0.12356
-0.117625
-0.469131
-0.457755
-0.444914
-0.427907
-0.406645
-0.382618
-0.357383
-0.332212
-0.308002
-0.285284
-0.2643
-0.245102
-0.227627
-0.211753
-0.197335
-0.184228
-0.172292
-0.161398
-0.151431
-0.142287
-0.133882
-0.126135
-0.118886
-0.111991
-0.106275
-0.459619
-0.448517
-0.435353
-0.417554
-0.395309
-0.370326
-0.344297
-0.318544
-0.293957
-0.271033
-0.249976
-0.230799
-0.21341
-0.197668
-0.183414
-0.170491
-0.158754
-0.148069
-0.138317
-0.129393
-0.12121
-0.113685
-0.106648
-0.0999576
-0.0944971
-0.44769
-0.436915
-0.423461
-0.404927
-0.381799
-0.355997
-0.329329
-0.303152
-0.278339
-0.255347
-0.234337
-0.215288
-0.198082
-0.182557
-0.168544
-0.155876
-0.144404
-0.133989
-0.12451
-0.115859
-0.107951
-0.100696
-0.0939163
-0.0874742
-0.0823072
-0.433293
-0.422898
-0.409196
-0.389998
-0.366105
-0.339635
-0.312493
-0.286055
-0.261167
-0.238242
-0.217399
-0.198584
-0.181653
-0.16643
-0.152734
-0.140393
-0.129251
-0.119168
-0.11002
-0.101699
-0.0941164
-0.0871815
-0.0807076
-0.0745595
-0.0697238
-0.416404
-0.406438
-0.392538
-0.372765
-0.348239
-0.321261
-0.293815
-0.267282
-0.242469
-0.219744
-0.199185
-0.180706
-0.164142
-0.149304
-0.136001
-0.124055
-0.113309
-0.10362
-0.0948626
-0.0869264
-0.0797237
-0.0731606
-0.0670423
-0.0612363
-0.0567695
-0.397025
-0.387535
-0.373495
-0.353248
-0.328234
-0.300917
-0.273341
-0.246875
-0.222284
-0.199889
-0.179727
-0.161683
-0.145575
-0.1312
-0.118363
-0.106882
-0.0965959
-0.087362
-0.079053
-0.0715589
-0.0647914
-0.0586538
-0.0529441
-0.047531
-0.0434711
-0.375183
-0.366215
-0.3521
-0.331492
-0.306142
-0.278661
-0.251129
-0.22489
-0.200665
-0.178723
-0.159065
-0.14155
-0.125981
-0.112146
-0.0998445
-0.0888932
-0.0791299
-0.0704111
-0.0626095
-0.055615
-0.0493393
-0.0436836
-0.0384396
-0.0334746
-0.029862
-0.350932
-0.34253
-0.328413
-0.307563
-0.28204
-0.254569
-0.227251
-0.201396
-0.177672
-0.1563
-0.137247
-0.120351
-0.105399
-0.0921743
-0.0804739
-0.0701139
-0.0609324
-0.0527865
-0.0455495
-0.0391122
-0.0333866
-0.0282723
-0.0235561
-0.0191018
-0.0159848
-0.32435
-0.316557
-0.302514
-0.281552
-0.256017
-0.228733
-0.201795
-0.176473
-0.153378
-0.132687
-0.114333
-0.0981349
-0.0838719
-0.0713227
-0.0602829
-0.0505703
-0.0420249
-0.0345058
-0.0278884
-0.0220649
-0.0169484
-0.0124378
-0.0083186
-0.00444893
-0.00188477
-0.29554
-0.288396
-0.274508
-0.253567
-0.228187
-0.201258
-0.174861
-0.150213
-0.127867
-0.107957
-0.0903882
-0.0749625
-0.0614522
-0.0496347
-0.0393072
-0.0302905
-0.0224284
-0.0155839
-0.00963612
-0.0044803
-3.1349e-05
0.00380992
0.00725445
0.010453
0.0124096
-0.264628
-0.258169
-0.244522
-0.223737
-0.198674
-0.172267
-0.146564
-0.12272
-0.101234
-0.0821978
-0.0654906
-0.0509017
-0.0381991
-0.0271606
-0.0175871
-0.00930461
-0.0021626
0.00396962
0.00920693
0.0136485
0.0173752
0.0204803
0.0231649
0.0255998
0.0269094
-0.231759
-0.226021
-0.2127
-0.192207
-0.167621
-0.141895
-0.117027
-0.0941092
-0.0735846
-0.0555052
-0.0397275
-0.0260311
-0.0141814
-0.00395907
0.00482991
0.0123526
0.0187517
0.0241491
0.0286503
0.0323452
0.0353067
0.037617
0.0394599
0.0410346
0.0416301
-0.1971
-0.192114
-0.179205
-0.159139
-0.135183
-0.110287
-0.0863874
-0.0645083
-0.0450362
-0.0279871
-0.0131979
-0.000440358
0.0105206
0.0199004
0.0278866
0.034638
0.040287
0.0449444
0.0487016
0.051634
0.0538026
0.0552745
0.0561953
0.0567519
0.0563932
-0.160831
-0.156626
-0.144215
-0.124706
-0.101528
-0.077602
-0.0547931
-0.0340537
-0.015716
0.000237706
0.0139876
0.0257683
0.035814
0.0443361
0.051515
0.0575001
0.0624125
0.0663471
0.0693744
0.0715455
0.0729036
0.0734869
0.0733259
0.0724624
0.0706267
-0.123151
-0.119752
-0.107922
-0.0890954
-0.0668327
-0.0440065
-0.0223997
-0.00289145
0.0142386
0.0290394
0.0417062
0.0524787
0.0615906
0.0692497
0.0756313
0.0808777
0.0851003
0.0883782
0.0907561
0.0922535
0.0928861
0.0926123
0.0911654
0.0882448
0.0844304
-0.0842682
-0.081698
-0.0705269
-0.0525019
-0.031283
-0.00967493
0.0106293
0.0288245
0.0446816
0.0582781
0.0698227
0.079559
0.0877211
0.0945153
0.100116
0.104665
0.108274
0.111023
0.112952
0.114084
0.114446
0.113908
0.111762
0.107316
0.10262
-0.0444049
-0.0426799
-0.032242
-0.0151287
0.00492928
0.0252127
0.0441248
0.0609344
0.0754606
0.0878067
0.0981922
0.106864
0.114057
0.119976
0.124796
0.128665
0.131705
0.134014
0.135667
0.136759
0.137439
0.137662
0.136556
0.133603
0.135831
-0.00378115
-0.00291685
0.00671805
0.0228176
0.0416087
0.060473
0.0779146
0.0932756
0.10642
0.117474
0.126667
0.134246
0.140444
0.145465
0.149485
0.152651
0.15509
0.156908
0.158202
0.159093
0.159742
0.160133
0.159775
0.159091
0.163559
0.0373691
0.0373619
0.0461311
0.0611254
0.0785568
0.0959206
0.111825
0.125684
0.137404
0.14713
0.155098
0.161556
0.166734
0.170832
0.174023
0.176455
0.178257
0.179537
0.1804
0.180967
0.181379
0.181613
0.181323
0.180995
0.184961
0.0788105
0.0779254
0.0857737
0.099583
0.115575
0.13137
0.145683
0.157998
0.168258
0.176627
0.183345
0.188656
0.192786
0.195932
0.19826
0.199917
0.201026
0.201695
0.202027
0.202137
0.202149
0.202048
0.201539
0.201018
0.204043
0.120307
0.118542
0.125422
0.137979
0.152466
0.166639
0.179319
0.190057
0.198833
0.205823
0.211269
0.215413
0.218474
0.220641
0.222077
0.222919
0.223286
0.223281
0.222997
0.222539
0.222012
0.221389
0.220402
0.21942
0.221545
0.161623
0.158981
0.164855
0.176103
0.189035
0.201546
0.212565
0.221706
0.228982
0.23458
0.238743
0.241706
0.243682
0.244851
0.245369
0.245366
0.244954
0.244227
0.24327
0.242175
0.241031
0.239799
0.23823
0.236691
0.237944
0.202527
0.199013
0.203852
0.213751
0.225092
0.235916
0.245259
0.252795
0.258566
0.262769
0.265644
0.267421
0.268304
0.268465
0.26805
0.267183
0.265967
0.264487
0.26282
0.261047
0.259241
0.257354
0.255163
0.25304
0.253458
0.242788
0.238415
0.242198
0.25072
0.26045
0.269578
0.277242
0.283177
0.28745
0.290265
0.291858
0.292453
0.292243
0.291395
0.290044
0.288304
0.286272
0.284025
0.281632
0.279163
0.276679
0.274128
0.27131
0.268602
0.26822
0.282185
0.276967
0.279686
0.286816
0.294928
0.302365
0.308364
0.312714
0.315506
0.316949
0.317276
0.316701
0.315411
0.31356
0.311278
0.30867
0.305823
0.302808
0.299687
0.296521
0.293361
0.290153
0.286723
0.283442
0.282292
0.320498
0.314457
0.316111
0.321849
0.328354
0.334118
0.338477
0.34127
0.342609
0.342708
0.341793
0.340071
0.337719
0.334884
0.331686
0.328222
0.324572
0.3208
0.316961
0.31311
0.309288
0.305442
0.30142
0.297587
0.2957
0.357519
0.350679
0.351278
0.355638
0.36056
0.364684
0.367441
0.368717
0.368643
0.367433
0.36531
0.362472
0.359088
0.355294
0.351203
0.346904
0.342472
0.337962
0.333425
0.328908
0.324446
0.319987
0.315402
0.311037
0.308443
0.393047
0.385437
0.385002
0.38801
0.391386
0.393917
0.395122
0.394932
0.393492
0.39102
0.387732
0.383818
0.379437
0.374718
0.369765
0.364661
0.359473
0.354253
0.349043
0.343887
0.338812
0.333771
0.328652
0.32378
0.320509
0.42689
0.418543
0.417103
0.418798
0.420681
0.421678
0.421394
0.419798
0.417052
0.413372
0.408969
0.404025
0.39869
0.393086
0.387309
0.381436
0.375527
0.369627
0.363777
0.358012
0.352357
0.346765
0.341144
0.335792
0.331876
0.458867
0.449821
0.447414
0.447848
0.448302
0.447836
0.446134
0.443204
0.439218
0.434393
0.428934
0.423014
0.416776
0.410333
0.403776
0.397173
0.390581
0.38404
0.377585
0.371247
0.365045
0.358937
0.352848
0.347043
0.342516
0.488807
0.479105
0.475778
0.475013
0.474114
0.472268
0.469232
0.465046
0.459896
0.453996
0.447545
0.440709
0.433623
0.426394
0.419105
0.411819
0.404587
0.397446
0.390425
0.383551
0.37684
0.370254
0.363731
0.357502
0.3524
0.516552
0.506239
0.502048
0.500158
0.497992
0.494859
0.49058
0.485228
0.478996
0.472097
0.464725
0.457039
0.449167
0.441208
0.43324
0.425321
0.417496
0.409799
0.402254
0.394886
0.387704
0.380679
0.373757
0.367136
0.361498
0.541954
0.53108
0.526089
0.523157
0.519823
0.515503
0.510083
0.503659
0.496434
0.48862
0.480404
0.471938
0.463345
0.454717
0.446127
0.437628
0.429261
0.421055
0.413032
0.405212
0.397602
0.390176
0.382892
0.375911
0.369781
0.56488
0.553498
0.547777
0.543896
0.539499
0.534105
0.52765
0.520257
0.512134
0.503493
0.494514
0.485345
0.4761
0.466869
0.457717
0.448695
0.439838
0.431174
0.422721
0.414493
0.406498
0.398713
0.391104
0.383798
0.37722
0.585211
0.573377
0.567002
0.562272
0.556928
0.550576
0.543201
0.534948
0.526028
0.516652
0.506996
0.497203
0.487381
0.477614
0.467964
0.458478
0.449188
0.440117
0.431283
0.422695
0.414359
0.406257
0.398361
0.390766
0.383789
0.602839
0.590612
0.583666
0.578195
0.572026
0.56484
0.556667
0.547665
0.538054
0.528041
0.517798
0.507462
0.497139
0.486908
0.476827
0.466938
0.457273
0.447851
0.438686
0.429786
0.421156
0.41278
0.404637
0.396791
0.389465
0.617673
0.605115
0.597685
0.591587
0.58472
0.576832
0.567984
0.558353
0.548159
0.537609
0.526872
0.516081
0.505336
0.494714
0.48427
0.474043
0.464062
0.454344
0.444901
0.43574
0.426862
0.418256
0.409905
0.401848
0.394228
0.629635
0.616809
0.608988
0.602381
0.59495
0.586494
0.577102
0.566963
0.556299
0.545316
0.53418
0.523021
0.511936
0.500999
0.490262
0.479763
0.469527
0.45957
0.449904
0.440532
0.431454
0.422664
0.414146
0.405918
0.39806
0.638663
0.625635
0.617517
0.610525
0.602667
0.593781
0.583979
0.573455
0.562437
0.551127
0.53969
0.528253
0.516912
0.505737
0.494779
0.484074
0.473646
0.46351
0.453675
0.444143
0.434916
0.425986
0.417343
0.408985
0.400947
0.644711
0.631547
0.623229
0.615979
0.607834
0.598661
0.588583
0.577802
0.566546
0.555017
0.543378
0.531755
0.520242
0.508908
0.497802
0.486959
0.476402
0.466146
0.456198
0.44656
0.437232
0.428209
0.419481
0.411037
0.402878
0.647746
0.634514
0.626096
0.618716
0.610427
0.601109
0.590893
0.579982
0.568607
0.556968
0.545228
0.533512
0.521913
0.510499
0.499318
0.488406
0.477785
0.467468
0.457464
0.447772
0.438394
0.429324
0.420554
0.412066
0.403846
0.647753
0.634521
0.626103
0.618723
0.610433
0.601115
0.590898
0.579988
0.568612
0.556973
0.545233
0.533516
0.521917
0.510502
0.499322
0.488409
0.477788
0.467471
0.457466
0.447775
0.438396
0.429326
0.420557
0.412068
0.403848
0.644733
0.631569
0.62325
0.615999
0.607853
0.598678
0.588599
0.577817
0.56656
0.55503
0.543391
0.531767
0.520253
0.508919
0.497812
0.486969
0.476411
0.466155
0.456206
0.446568
0.43724
0.428216
0.419488
0.411044
0.402884
0.6387
0.625671
0.617551
0.610558
0.602698
0.59381
0.584006
0.573481
0.562461
0.551149
0.539711
0.528273
0.516931
0.505755
0.494796
0.48409
0.473661
0.463524
0.453688
0.444157
0.434928
0.425998
0.417354
0.408996
0.400957
0.629686
0.616859
0.609036
0.602427
0.594993
0.586534
0.57714
0.566998
0.556332
0.545347
0.534209
0.523048
0.511962
0.501024
0.490285
0.479785
0.469548
0.45959
0.449923
0.44055
0.431472
0.42268
0.414162
0.405933
0.398075
0.617738
0.605178
0.597747
0.591645
0.584775
0.576883
0.568032
0.558398
0.548202
0.537649
0.526909
0.516116
0.505369
0.494745
0.484299
0.474071
0.464088
0.454369
0.444925
0.435763
0.426884
0.418277
0.409926
0.401867
0.394247
0.602918
0.590689
0.583741
0.578266
0.572092
0.564903
0.556725
0.54772
0.538105
0.528089
0.517843
0.507505
0.49718
0.486946
0.476863
0.466972
0.457305
0.447882
0.438715
0.429814
0.421183
0.412805
0.404661
0.396814
0.389488
0.585303
0.573467
0.567089
0.562354
0.557006
0.550649
0.543269
0.535011
0.526088
0.516708
0.507049
0.497252
0.487428
0.477658
0.468006
0.458518
0.449226
0.440154
0.431317
0.422728
0.414391
0.406287
0.39839
0.390794
0.383816
0.564985
0.5536
0.547875
0.543989
0.539587
0.534187
0.527727
0.520329
0.512202
0.503557
0.494574
0.485401
0.476154
0.466919
0.457765
0.44874
0.439882
0.431215
0.42276
0.414531
0.406534
0.398747
0.391137
0.38383
0.37725
0.54207
0.531193
0.526198
0.523261
0.519921
0.515596
0.510169
0.50374
0.49651
0.488691
0.480471
0.472002
0.463405
0.454774
0.44618
0.437679
0.429309
0.421101
0.413076
0.405254
0.397642
0.390215
0.382929
0.375947
0.369815
0.516679
0.506363
0.502168
0.500272
0.4981
0.49496
0.490675
0.485317
0.479079
0.472175
0.464799
0.457109
0.449233
0.44127
0.433298
0.425376
0.417549
0.409849
0.402302
0.394931
0.387748
0.380721
0.373798
0.367175
0.361536
0.488945
0.479239
0.475908
0.475137
0.47423
0.472377
0.469334
0.465142
0.459986
0.454081
0.447624
0.440784
0.433694
0.426461
0.419168
0.411879
0.404644
0.3975
0.390477
0.383601
0.376887
0.3703
0.363775
0.357544
0.352441
0.459014
0.449965
0.447553
0.44798
0.448426
0.447953
0.446244
0.443307
0.439314
0.434484
0.429019
0.423094
0.416852
0.410405
0.403844
0.397238
0.390642
0.384099
0.377641
0.3713
0.365096
0.358986
0.352895
0.347088
0.342559
0.427046
0.418695
0.417249
0.418938
0.420813
0.421802
0.42151
0.419907
0.417154
0.413468
0.409059
0.40411
0.398771
0.393162
0.387381
0.381504
0.375592
0.369689
0.363836
0.358069
0.352411
0.346816
0.341194
0.33584
0.331922
0.39321
0.385595
0.385155
0.388156
0.391524
0.394047
0.395244
0.395046
0.3936
0.391121
0.387827
0.383907
0.379521
0.374798
0.36984
0.364733
0.359542
0.354318
0.349105
0.343946
0.338869
0.333825
0.328704
0.323831
0.320558
0.357688
0.350843
0.351437
0.35579
0.360703
0.364819
0.367568
0.368836
0.368754
0.367538
0.365408
0.362565
0.359176
0.355377
0.351282
0.346979
0.342543
0.33803
0.33349
0.32897
0.324506
0.320044
0.315457
0.31109
0.308494
0.320672
0.314626
0.316274
0.322006
0.328502
0.334257
0.338608
0.341393
0.342725
0.342816
0.341895
0.340167
0.33781
0.334971
0.331767
0.328299
0.324646
0.32087
0.317028
0.313174
0.30935
0.305501
0.301477
0.297641
0.295752
0.282362
0.277139
0.279853
0.286976
0.29508
0.302507
0.308498
0.31284
0.315624
0.31706
0.31738
0.3168
0.315504
0.313649
0.311362
0.308749
0.305899
0.30288
0.299756
0.296587
0.293424
0.290214
0.286781
0.283498
0.282347
0.242968
0.23859
0.242368
0.250882
0.260603
0.269723
0.277379
0.283306
0.287571
0.290378
0.291965
0.292554
0.292339
0.291485
0.290129
0.288386
0.286349
0.284099
0.281702
0.27923
0.276744
0.27419
0.27137
0.268659
0.268275
0.202707
0.199189
0.204022
0.213914
0.225247
0.236063
0.245397
0.252925
0.258688
0.262884
0.265752
0.267523
0.2684
0.268556
0.268137
0.267266
0.266045
0.264561
0.262891
0.261115
0.259306
0.257417
0.255223
0.253098
0.253514
0.161803
0.159156
0.165025
0.176267
0.189191
0.201694
0.212704
0.221837
0.229105
0.234696
0.238852
0.241809
0.243779
0.244943
0.245457
0.245449
0.245033
0.244302
0.243342
0.242244
0.241097
0.239862
0.23829
0.236749
0.238
0.120485
0.118715
0.125591
0.138141
0.152621
0.166786
0.179457
0.190187
0.198955
0.205938
0.211378
0.215516
0.218571
0.220734
0.222164
0.223002
0.223365
0.223357
0.22307
0.222608
0.222078
0.221452
0.220463
0.219479
0.221602
0.0789855
0.0780956
0.0859393
0.0997428
0.115728
0.131515
0.14582
0.158127
0.16838
0.176742
0.183453
0.188758
0.192883
0.196023
0.198347
0.2
0.201104
0.20177
0.202099
0.202206
0.202215
0.202111
0.201599
0.201076
0.2041
0.0375396
0.0375276
0.0462925
0.0612816
0.0787063
0.0960627
0.111959
0.125811
0.137523
0.147243
0.155205
0.161657
0.166829
0.170922
0.174109
0.176537
0.178335
0.179612
0.18047