/*--------------------------------*- C++ -*----------------------------------*\
  =========                 |
  \\      /  F ield         | OpenFOAM: The Open Source CFD Toolbox
   \\    /   O peration     | Website:  https://openfoam.org
    \\  /    A nd           | Version:  6.0
     \\/     M anipulation  |
\*---------------------------------------------------------------------------*/
FoamFile
{
    version     2.0;
    format      ascii;
    class       volVectorField;
    location    "20";
    object      U;
}
// * * * * * * * * * * * * * * * * * * * * * * * * * * * * * * * * * * * * * //

dimensions      [0 1 -1 0 0 0 0];

internalField   nonuniform List<vector> 
12500
(
(-0.000292757 0.000371305 -5.82798e-22)
(-0.00170324 0.000968165 8.03795e-21)
(-0.00442417 0.00143375 -1.16414e-20)
(-0.00790273 0.00179181 5.33801e-21)
(-0.0118401 0.00206088 3.19748e-22)
(-0.0160518 0.00225674 -6.5636e-22)
(-0.0203916 0.00239356 -9.67805e-21)
(-0.0247513 0.00248392 5.30688e-21)
(-0.029056 0.00253891 3.50423e-21)
(-0.0332568 0.00256827 3.55443e-21)
(-0.0373253 0.00258055 -6.00873e-21)
(-0.0412492 0.00258322 3.49085e-21)
(-0.0450289 0.00258275 -1.64183e-21)
(-0.0486745 0.00258473 2.78027e-21)
(-0.0522032 0.00259389 -7.08304e-21)
(-0.0556379 0.00261419 1.02228e-20)
(-0.0590049 0.00264882 -1.94606e-21)
(-0.0623328 0.00270027 -7.21199e-21)
(-0.0656506 0.00277035 3.68947e-21)
(-0.0689878 0.00286021 -3.51745e-21)
(-0.0723792 0.0029703 3.1441e-21)
(-0.0758598 0.00310046 4.15137e-21)
(-0.0793943 0.00325102 4.21613e-22)
(-0.0828585 0.00342335 -1.18547e-20)
(-0.086735 0.0036097 6.26264e-21)
(-0.000336753 0.00107403 1.06374e-20)
(-0.00181436 0.0027834 -2.74433e-20)
(-0.00458172 0.00409896 8.08238e-21)
(-0.00808991 0.00509378 5.39389e-21)
(-0.0120426 0.00582488 -4.29417e-21)
(-0.0162571 0.00634052 -2.43675e-20)
(-0.0205888 0.0066837 7.23514e-21)
(-0.0249307 0.00689228 -1.36457e-20)
(-0.0292089 0.00699941 1.63041e-20)
(-0.0333752 0.00703404 -2.1736e-20)
(-0.0374019 0.00702146 1.15897e-20)
(-0.0412771 0.00698366 3.74071e-21)
(-0.0450017 0.00693971 -9.41045e-21)
(-0.0485859 0.00690598 -4.15371e-21)
(-0.0520474 0.00689638 3.03541e-20)
(-0.0554093 0.0069225 -2.6821e-20)
(-0.0586985 0.00699371 6.40568e-21)
(-0.061944 0.0071173 1.10676e-20)
(-0.0651752 0.00729851 -2.52614e-21)
(-0.0684221 0.00754066 1.77932e-20)
(-0.0717205 0.0078449 3.23718e-21)
(-0.0751059 0.00821057 -1.15289e-21)
(-0.0785437 0.00863841 -2.23827e-20)
(-0.0819087 0.0091324 2.05862e-20)
(-0.0856842 0.00966901 -3.92948e-20)
(-0.00042398 0.00176975 3.41162e-20)
(-0.002035 0.00458059 1.13311e-20)
(-0.00489526 0.0067372 -1.48369e-20)
(-0.00846328 0.00836118 6.36535e-21)
(-0.0124475 0.00954757 5.9521e-21)
(-0.0166689 0.0103767 2.25613e-20)
(-0.0209858 0.0109203 -2.86207e-20)
(-0.0252935 0.011241 -4.6473e-21)
(-0.0295203 0.0113939 -1.91144e-20)
(-0.0336195 0.011427 -1.59385e-20)
(-0.0375644 0.0113822 2.0554e-20)
(-0.0413443 0.0112959 -6.87063e-20)
(-0.0449604 0.0111999 -2.14427e-21)
(-0.0484239 0.0111212 -4.11276e-20)
(-0.051753 0.0110831 -4.83742e-21)
(-0.0549716 0.0111051 5.82529e-21)
(-0.0581072 0.011203 -3.18066e-20)
(-0.0611898 0.0113889 -1.98753e-20)
(-0.0642499 0.0116721 -2.35051e-20)
(-0.0673187 0.0120582 3.67852e-20)
(-0.0704331 0.0125493 1.34387e-20)
(-0.0736306 0.0131445 -5.96486e-20)
(-0.0768776 0.0138451 -2.87032e-20)
(-0.0800471 0.014658 -3.20687e-20)
(-0.083624 0.0155437 8.65683e-20)
(-0.000553805 0.00245434 -1.06454e-21)
(-0.00236375 0.00634895 -2.6202e-20)
(-0.00536315 0.00933218 -1.25636e-20)
(-0.00902121 0.011573 7.78372e-21)
(-0.0130534 0.0132036 4.84209e-20)
(-0.017286 0.0143362 -2.18172e-20)
(-0.0215818 0.0150701 4.64614e-20)
(-0.02584 0.0154931 4.41967e-20)
(-0.0299915 0.0156814 2.68723e-20)
(-0.033992 0.0157019 -4.05737e-22)
(-0.0378166 0.0156127 5.4042e-20)
(-0.0414557 0.0154648 9.34362e-21)
(-0.0449119 0.0153023 4.11375e-20)
(-0.0481972 0.0151634 9.44566e-20)
(-0.0513307 0.0150808 -1.09452e-19)
(-0.0543371 0.015082 1.64383e-19)
(-0.0572453 0.0151897 3.57258e-20)
(-0.0600865 0.0154217 -7.87235e-20)
(-0.0628928 0.0157912 -1.11631e-20)
(-0.0656972 0.0163071 2.85644e-20)
(-0.0685388 0.0169728 -1.4306e-20)
(-0.0714576 0.0177874 -8.55461e-21)
(-0.0744219 0.0187532 -8.33214e-21)
(-0.0773023 0.0198806 -3.35363e-20)
(-0.0805863 0.0211139 1.1764e-19)
(-0.000725344 0.00312407 1.77715e-20)
(-0.00279862 0.0080785 -8.25217e-20)
(-0.00598292 0.0118687 1.00013e-19)
(-0.00976112 0.0147093 -3.97816e-20)
(-0.0138578 0.0167692 4.75822e-20)
(-0.0181064 0.0181912 3.87884e-20)
(-0.0223757 0.0191022 1.47129e-20)
(-0.0265696 0.0196139 7.17949e-22)
(-0.0306232 0.0198235 8.26581e-20)
(-0.034495 0.0198162 5.71542e-20)
(-0.0381625 0.0196663 -2.28961e-20)
(-0.0416178 0.0194387 -1.47307e-20)
(-0.044865 0.0191901 6.20566e-20)
(-0.047917 0.0189697 1.16758e-20)
(-0.0507942 0.0188199 3.16509e-20)
(-0.0535225 0.018777 7.57302e-20)
(-0.0561322 0.0188709 -6.5362e-20)
(-0.0586562 0.0191256 5.27246e-20)
(-0.0611288 0.0195594 -1.13544e-19)
(-0.0635854 0.0201847 9.53439e-20)
(-0.0660679 0.0210073 6.1888e-22)
(-0.06862 0.0220268 -7.59033e-20)
(-0.0712129 0.0232471 3.05316e-20)
(-0.0737142 0.0246828 6.92943e-20)
(-0.0766156 0.0262619 -1.02203e-19)
(-0.000937512 0.00377568 9.19199e-20)
(-0.00333706 0.00976026 -9.7578e-20)
(-0.00675128 0.0143327 -1.56931e-20)
(-0.0106793 0.017752 1.97784e-20)
(-0.0148571 0.0202222 -4.26938e-20)
(-0.0191266 0.0219163 -6.65284e-20)
(-0.0233643 0.0229878 -5.52819e-20)
(-0.0274805 0.0235716 -1.33198e-20)
(-0.0314147 0.0237853 -9.50287e-20)
(-0.0351296 0.0237317 7.56323e-20)
(-0.0386054 0.0235007 -1.17402e-19)
(-0.0418365 0.023171 5.93076e-20)
(-0.0448282 0.0228117 -1.96745e-20)
(-0.0475951 0.022483 4.55433e-20)
(-0.0501588 0.0222375 -1.1445e-19)
(-0.0525465 0.0221203 5.54289e-20)
(-0.05479 0.0221696 4.1284e-21)
(-0.0569245 0.0224164 2.45613e-20)
(-0.0589868 0.0228851 1.48296e-19)
(-0.0610153 0.0235928 3.28403e-20)
(-0.0630559 0.0245486 -2.98233e-21)
(-0.0651568 0.0257536 9.36789e-21)
(-0.0672933 0.0272141 6.16917e-20)
(-0.0693301 0.02895 1.75643e-20)
(-0.0717648 0.0308731 5.78347e-20)
(-0.00118908 0.00440645 -5.72734e-20)
(-0.00397598 0.0113863 8.13021e-20)
(-0.00766397 0.0167118 5.09333e-21)
(-0.0117708 0.0206844 -9.9177e-20)
(-0.0160455 0.0235427 2.08445e-19)
(-0.0203409 0.0254886 -6.73663e-20)
(-0.0245424 0.0267014 9.82923e-20)
(-0.0285677 0.0273383 8.99011e-20)
(-0.0323625 0.0275364 -7.43546e-20)
(-0.035894 0.0274152 -1.08185e-19)
(-0.0391457 0.0270798 2.9599e-20)
(-0.0421145 0.026622 -3.11975e-20)
(-0.0448078 0.026123 -1.37958e-19)
(-0.0472414 0.0256543 1.67531e-19)
(-0.0494381 0.0252785 -8.03147e-20)
(-0.0514265 0.0250504 -5.53625e-20)
(-0.0532404 0.0250172 5.04155e-22)
(-0.054917 0.025218 4.51853e-20)
(-0.0564963 0.0256845 1.86291e-20)
(-0.0580204 0.0264401 -7.29357e-20)
(-0.0595397 0.0274986 8.32376e-20)
(-0.0611086 0.028864 -1.44585e-19)
(-0.0627078 0.0305462 8.82581e-20)
(-0.0641997 0.0325723 -6.7594e-20)
(-0.0660899 0.0348374 1.75445e-20)
(-0.0014787 0.00501412 8.33441e-20)
(-0.00471177 0.0129499 -6.40885e-20)
(-0.00871564 0.0189948 -4.07614e-20)
(-0.0130287 0.0234919 -7.19431e-20)
(-0.0174154 0.0267129 -1.31497e-19)
(-0.0217406 0.0288879 -9.7137e-20)
(-0.0259008 0.0302207 6.05234e-20)
(-0.0298224 0.03089 -9.16476e-20)
(-0.0334582 0.0310511 1.16295e-19)
(-0.0367809 0.0308395 -1.89227e-19)
(-0.039778 0.0303743 8.40353e-20)
(-0.0424493 0.02976 1.7745e-19)
(-0.044804 0.0290893 -2.49261e-19)
(-0.0468595 0.0284446 3.5579e-20)
(-0.0486397 0.027899 4.62871e-20)
(-0.0501747 0.0275174 4.47493e-20)
(-0.0514997 0.0273566 -4.80619e-20)
(-0.0526544 0.0274654 -1.18088e-20)
(-0.0536821 0.0278844 -3.52592e-20)
(-0.0546293 0.0286451 -2.94105e-20)
(-0.055552 0.0297679 -1.61361e-19)
(-0.0565118 0.0312619 -1.08955e-20)
(-0.0574967 0.0331423 1.75863e-21)
(-0.0583681 0.0354458 -7.29185e-20)
(-0.0596427 0.0380511 7.51554e-20)
(-0.00180494 0.00559687 2.40823e-21)
(-0.00554026 0.014445 2.62102e-20)
(-0.00989964 0.0211721 2.72871e-20)
(-0.0144442 0.0261614 1.58328e-20)
(-0.0189555 0.0297173 1.33833e-19)
(-0.023313 0.0320967 1.25667e-19)
(-0.0274253 0.0335272 -1.02125e-19)
(-0.0312295 0.0342073 -3.10729e-20)
(-0.0346866 0.0343096 -2.75905e-20)
(-0.0377754 0.0339844 1.42328e-19)
(-0.0404884 0.0333635 5.1082e-20)
(-0.0428285 0.0325632 -7.43516e-20)
(-0.044807 0.0316871 -6.29188e-20)
(-0.0464428 0.0308278 1.5157e-19)
(-0.0477607 0.030069 -3.73623e-20)
(-0.0487919 0.0294859 -4.52832e-20)
(-0.0495731 0.0291461 -6.31868e-20)
(-0.0501463 0.0291092 -4.91714e-20)
(-0.050558 0.0294266 -6.27531e-20)
(-0.0508596 0.0301404 -4.10322e-20)
(-0.0511138 0.0312802 1.70456e-19)
(-0.0513909 0.0328626 -8.3913e-20)
(-0.051688 0.0349114 5.64927e-20)
(-0.0518678 0.0374757 -1.50225e-19)
(-0.0524619 0.040419 6.05086e-20)
(-0.00216628 0.00615316 -7.48458e-20)
(-0.00645661 0.0158663 -1.94909e-20)
(-0.0112078 0.0232347 -1.5223e-19)
(-0.0160057 0.0286812 -7.29228e-20)
(-0.0206512 0.0325419 -1.43918e-19)
(-0.0250402 0.0351 -1.50036e-20)
(-0.0290955 0.0366053 7.70987e-20)
(-0.0327662 0.0372751 -4.69523e-20)
(-0.0360229 0.0372977 1.01171e-19)
(-0.0388518 0.0368368 -2.45776e-19)
(-0.0412507 0.0360356 -7.12143e-21)
(-0.0432262 0.0350209 4.35433e-20)
(-0.044792 0.0339059 -5.52288e-20)
(-0.0459683 0.0327929 5.02479e-20)
(-0.0467809 0.0317755 -3.84014e-20)
(-0.0472613 0.0309396 -8.22739e-20)
(-0.0474473 0.030364 1.50057e-19)
(-0.0473829 0.0301205 9.30495e-20)
(-0.0471179 0.0302736 -1.92757e-20)
(-0.0467087 0.0308784 6.13794e-20)
(-0.0462253 0.0319775 -1.21081e-19)
(-0.0457486 0.0335985 1.74487e-19)
(-0.045287 0.0357776 -2.38267e-19)
(-0.0447072 0.0385812 4.90435e-20)
(-0.0445617 0.0418591 -9.32686e-20)
(-0.00256105 0.00668156 4.06002e-21)
(-0.00745517 0.0172088 -6.65861e-20)
(-0.01263 0.0251742 9.86035e-20)
(-0.0176984 0.0310404 2.02128e-19)
(-0.022483 0.0351744 -3.32301e-21)
(-0.026898 0.0378849 2.28789e-20)
(-0.0308826 0.0394427 -8.64297e-20)
(-0.0343995 0.0400826 4.04638e-20)
(-0.0374303 0.040007 2.78836e-19)
(-0.0399698 0.0393912 -6.32585e-20)
(-0.042022 0.0383885 -7.46935e-20)
(-0.0435977 0.0371343 2.82239e-19)
(-0.0447134 0.03575 9.21472e-20)
(-0.0453905 0.0343465 4.38577e-20)
(-0.0456552 0.0330261 4.48785e-20)
(-0.0455394 0.031885 1.22267e-19)
(-0.0450811 0.0310137 -4.69862e-20)
(-0.0443257 0.0304975 1.24163e-19)
(-0.0433257 0.0304155 1.68002e-19)
(-0.0421427 0.0308395 -1.43283e-19)
(-0.0408544 0.0318287 2.12862e-19)
(-0.039554 0.0334269 7.59368e-20)
(-0.0382636 0.0356879 -2.8811e-19)
(-0.0368578 0.0387019 4.16591e-19)
(-0.0359175 0.0423085 -3.37457e-19)
(-0.00298737 0.00718056 -1.90583e-19)
(-0.00852922 0.0184673 1.03848e-19)
(-0.0141538 0.0269825 -6.96695e-20)
(-0.0195038 0.0332284 -6.61634e-20)
(-0.0244258 0.0376032 -7.13898e-20)
(-0.0288548 0.0404398 -7.74385e-20)
(-0.0327484 0.0420292 2.12507e-20)
(-0.0360846 0.0426223 2.01843e-19)
(-0.0388576 0.0424338 -4.32324e-20)
(-0.0410719 0.0416492 -1.1256e-19)
(-0.042739 0.0404295 -6.87235e-20)
(-0.0438747 0.0389171 -2.81149e-20)
(-0.0444984 0.0372396 8.31331e-20)
(-0.044633 0.0355145 -5.30962e-20)
(-0.0443052 0.0338517 -1.7326e-19)
(-0.0435463 0.0323564 -1.9115e-19)
(-0.0423943 0.0311303 7.62011e-20)
(-0.0408946 0.0302726 -1.41822e-19)
(-0.039102 0.0298793 1.23127e-19)
(-0.0370824 0.0300416 -3.47693e-19)
(-0.034922 0.0308401 2.67111e-19)
(-0.0327272 0.0323408 -3.53204e-19)
(-0.0305368 0.0346227 -6.59565e-21)
(-0.0282376 0.0378085 -1.18897e-19)
(-0.0264496 0.041733 3.49039e-19)
(-0.00344304 0.00764838 2.92418e-19)
(-0.00967077 0.0196362 4.28438e-20)
(-0.0157642 0.0286506 -2.81454e-20)
(-0.021399 0.0352344 -1.18759e-20)
(-0.0264485 0.0398163 2.20863e-19)
(-0.0308706 0.0427535 7.18174e-20)
(-0.0346434 0.0443559 6.51057e-20)
(-0.0377623 0.0448889 -5.23361e-20)
(-0.0402357 0.0445784 2.01799e-19)
(-0.0420795 0.0436178 -9.92179e-20)
(-0.0433133 0.0421742 6.40141e-20)
(-0.0439591 0.0403945 1.62788e-19)
(-0.0440402 0.0384104 -9.23145e-20)
(-0.0435812 0.0363435 9.99388e-20)
(-0.0426091 0.0343089 9.4368e-20)
(-0.0411548 0.0324191 3.22961e-20)
(-0.0392549 0.0307856 -7.95603e-20)
(-0.0369543 0.0295209 2.19992e-19)
(-0.0343087 0.0287388 -2.04761e-20)
(-0.0313875 0.0285528 -2.35941e-20)
(-0.0282849 0.0290697 2.63344e-19)
(-0.0251219 0.0303846 -1.87316e-19)
(-0.0219562 0.0326113 3.15478e-19)
(-0.0186922 0.0359174 -2.616e-19)
(-0.0160026 0.0401414 3.36048e-19)
(-0.0039254 0.00808283 -1.41247e-19)
(-0.0108702 0.020709 3.12841e-20)
(-0.0174432 0.0301687 -3.26105e-20)
(-0.0233564 0.0370462 -1.54344e-19)
(-0.0285128 0.0418011 8.95751e-21)
(-0.0328958 0.0448142 8.78238e-20)
(-0.0365061 0.0464136 -3.57203e-19)
(-0.0393582 0.0468781 2.66591e-19)
(-0.0414766 0.046443 -2.59494e-19)
(-0.0428897 0.0453081 -1.63646e-19)
(-0.0436274 0.0436446 1.46723e-19)
(-0.0437186 0.0416015 -3.17472e-19)
(-0.0431915 0.0393122 2.67359e-19)
(-0.0420734 0.0368994 -8.50121e-20)
(-0.0403921 0.0344806 -2.42766e-19)
(-0.0381777 0.0321721 5.99662e-20)
(-0.0354653 0.0300929 -5.62977e-20)
(-0.0322983 0.028367 2.12174e-20)
(-0.0287317 0.0271253 -7.58512e-20)
(-0.0248373 0.0265049 -2.51624e-19)
(-0.0207163 0.0266432 5.63605e-20)
(-0.0165043 0.027672 -1.05972e-22)
(-0.0122806 0.0297517 -2.5925e-19)
(-0.00797217 0.0331107 1.82105e-19)
(-0.00432236 0.0376048 -1.57296e-19)
(-0.00443125 0.00848118 5.71745e-20)
(-0.0121162 0.0216779 1.05235e-19)
(-0.0191692 0.0315256 1.47209e-19)
(-0.0253431 0.0386504 7.56969e-20)
(-0.0305733 0.0435434 -7.42227e-20)
(-0.034871 0.0466086 1.77035e-19)
(-0.0382615 0.0481918 1.30988e-19)
(-0.0407807 0.0485842 -4.76836e-20)
(-0.0424705 0.0480294 1.70239e-19)
(-0.0433738 0.0467322 -1.75093e-19)
(-0.0435317 0.0448659 -5.13498e-20)
(-0.042982 0.0425796 5.21049e-20)
(-0.0417591 0.0400055 1.03202e-19)
(-0.0398941 0.0372646 1.23908e-21)
(-0.0374166 0.0344731 6.52942e-20)
(-0.0343569 0.0317473 1.20525e-19)
(-0.0307484 0.0292093 -2.05184e-19)
(-0.0266326 0.0269906 2.55024e-19)
(-0.0220626 0.0252366 8.60257e-20)
(-0.0171107 0.0241074 3.03423e-20)
(-0.0118836 0.0237732 -3.09244e-19)
(-0.00653125 0.0244094 4.37561e-20)
(-0.0011553 0.0262356 6.78709e-20)
(0.00428978 0.0295628 -1.62887e-20)
(0.00896807 0.0342826 7.73464e-20)
(-0.0049567 0.00884018 4.46468e-21)
(-0.0133953 0.0225343 -2.7106e-19)
(-0.0209173 0.0327084 -6.76052e-21)
(-0.0273208 0.0400316 -6.83183e-20)
(-0.0325766 0.0450264 -4.48862e-19)
(-0.0367262 0.0481205 3.87482e-19)
(-0.0398214 0.0496769 -2.75667e-19)
(-0.041921 0.0499987 -1.3884e-20)
(-0.043086 0.0493369 -1.30182e-19)
(-0.0433753 0.0479001 2.2505e-19)
(-0.0428428 0.0458623 -2.42198e-19)
(-0.0415368 0.0433714 -1.13379e-19)
(-0.0394996 0.0405558 2.37489e-21)
(-0.0367681 0.037532 -2.45217e-19)
(-0.0333755 0.0344108 3.34526e-19)
(-0.0293536 0.0313041 -3.87515e-19)
(-0.0247356 0.0283313 7.60864e-22)
(-0.0195612 0.0256261 5.93572e-20)
(-0.0138812 0.023342 -1.48526e-19)
(-0.0077667 0.0216579 1.44061e-19)
(-0.00132805 0.0207757 -2.04352e-19)
(0.00527224 0.0209183 -1.35007e-19)
(0.0119103 0.0223774 2.51534e-19)
(0.0186022 0.0255717 -2.74372e-19)
(0.024393 0.030455 -5.3105e-21)
(-0.00549714 0.00915612 -2.29464e-19)
(-0.0146918 0.0232682 2.63188e-19)
(-0.0226587 0.0337027 -8.1211e-20)
(-0.0292456 0.041172 1.56261e-19)
(-0.0344618 0.0462308 1.68474e-19)
(-0.0383811 0.0493307 -1.48373e-19)
(-0.0410837 0.0508516 -9.83286e-20)
(-0.0426527 0.0511084 -1.1772e-19)
(-0.0431694 0.0503592 1.07759e-19)
(-0.0427101 0.0488158 -7.20439e-21)
(-0.041343 0.0466527 1.57023e-19)
(-0.0391284 0.0440148 1.54742e-19)
(-0.0361187 0.0410259 -1.84821e-19)
(-0.0323588 0.0377953 3.62872e-19)
(-0.0278882 0.0344252 -2.40604e-19)
(-0.0227429 0.0310185 -4.12556e-20)
(-0.0169586 0.0276858 4.6855e-19)
(-0.0105749 0.0245544 -2.16938e-19)
(-0.00364154 0.0217779 1.3822e-19)
(0.00377202 0.0195447 2.69948e-19)
(0.0115541 0.0180813 -1.75136e-19)
(0.019532 0.0176563 1.84575e-20)
(0.0275622 0.0186423 -1.20456e-20)
(0.0356336 0.0215935 -7.17822e-20)
(0.042644 0.0265597 1.34906e-19)
(-0.00604721 0.00942496 5.24374e-20)
(-0.015988 0.0238688 -1.66752e-19)
(-0.0243608 0.0344927 9.11303e-20)
(-0.0310679 0.0420522 -1.12835e-21)
(-0.0361601 0.0471347 6.85733e-20)
(-0.0397452 0.0502162 -1.17964e-19)
(-0.0419332 0.0516939 6.74796e-20)
(-0.0428325 0.0518943 1.83737e-19)
(-0.042546 0.0510829 -5.59357e-21)
(-0.0411678 0.049475 -9.38078e-20)
(-0.038782 0.0472453 9.42822e-20)
(-0.0354623 0.0445364 -2.18373e-21)
(-0.031273 0.0414667 -2.98555e-19)
(-0.02627 0.0381375 1.10684e-19)
(-0.0205023 0.0346408 2.44455e-20)
(-0.0140142 0.0310661 -4.30162e-20)
(-0.00684797 0.0275097 -7.67441e-20)
(0.000952054 0.0240843 2.94073e-19)
(0.00933408 0.0209314 7.17052e-20)
(0.0182286 0.0182354 -1.53643e-19)
(0.0275231 0.016233 -1.84671e-20)
(0.0370372 0.0152265 2.11546e-19)
(0.0466133 0.0156686 -9.87852e-20)
(0.0562228 0.0182747 4.2421e-20)
(0.0645913 0.0232306 2.85378e-20)
(-0.00660083 0.00964256 -1.0498e-19)
(-0.0172638 0.0243251 1.04339e-19)
(-0.0259872 0.0350617 -5.87792e-20)
(-0.0327328 0.0426512 -1.88658e-19)
(-0.0375951 0.0477142 -1.73652e-19)
(-0.0407178 0.0507514 -7.68216e-20)
(-0.0422417 0.0521778 -6.36293e-20)
(-0.0423013 0.0523318 -1.88147e-19)
(-0.0410212 0.0514869 -7.59989e-20)
(-0.0385142 0.0498627 6.92671e-20)
(-0.0348803 0.0476352 -9.88684e-20)
(-0.0302082 0.044946 -1.04355e-19)
(-0.0245759 0.0419091 -9.79021e-20)
(-0.0180528 0.0386192 1.77773e-19)
(-0.0107015 0.0351575 -3.73315e-19)
(-0.00257955 0.0315994 2.13156e-19)
(0.00625799 0.0280231 -3.64509e-19)
(0.0157552 0.0245192 -5.61674e-20)
(0.025851 0.0212055 -2.00155e-19)
(0.0364701 0.0182448 -4.67463e-20)
(0.0474965 0.0158614 -5.7013e-20)
(0.0587429 0.0143661 -1.90439e-19)
(0.0700442 0.0142738 -2.08634e-20)
(0.0813768 0.0164751 1.16556e-19)
(0.0912808 0.0213319 -3.02873e-19)
(-0.00715129 0.00980493 9.00488e-20)
(-0.0184969 0.0246259 1.17747e-19)
(-0.0274977 0.0353931 4.12277e-19)
(-0.0341792 0.0429479 -7.23626e-20)
(-0.0386824 0.0479446 1.72186e-19)
(-0.0411881 0.0509091 4.10106e-19)
(-0.0418687 0.0522745 -1.11746e-19)
(-0.0408847 0.052392 1.51207e-19)
(-0.0383825 0.0515435 8.81657e-20)
(-0.0344933 0.0499543 1.59757e-19)
(-0.0293335 0.0478039 -3.19785e-20)
(-0.0230067 0.0452344 2.16178e-20)
(-0.0156063 0.042359 -5.59165e-20)
(-0.00721756 0.0392681 3.0237e-19)
(0.00207982 0.0360355 3.86784e-20)
(0.0122093 0.0327249 2.80317e-19)
(0.0230952 0.0293963 -7.16759e-20)
(0.0346605 0.0261157 2.56296e-19)
(0.0468235 0.0229684 3.59623e-20)
(0.0594918 0.0200786 1.30238e-19)
(0.0725365 0.0176308 -5.62088e-20)
(0.0857587 0.015905 -1.00239e-20)
(0.0989911 0.0154348 3.09563e-19)
(0.112252 0.0172737 1.90383e-19)
(0.123913 0.0219855 -7.93702e-20)
(-0.0076913 0.00990848 -2.18176e-19)
(-0.0196629 0.0247611 -2.21079e-19)
(-0.0288479 0.0354712 -2.31031e-19)
(-0.0353401 0.0429221 8.46478e-20)
(-0.0393295 0.0478021 -1.69966e-19)
(-0.0410349 0.0506629 -2.53193e-20)
(-0.0406607 0.0519559 -6.67278e-20)
(-0.0383935 0.0520452 -2.76658e-19)
(-0.0344006 0.0512224 -4.31763e-20)
(-0.0288309 0.0497199 7.09097e-20)
(-0.0218165 0.0477224 -2.22386e-19)
(-0.0134762 0.0453762 3.08201e-19)
(-0.00391899 0.042797 -4.18332e-19)
(0.00675241 0.0400761 1.0068e-19)
(0.0184378 0.0372858 -2.55944e-19)
(0.0310367 0.0344838 -2.07623e-19)
(0.0444449 0.0317188 -1.1816e-20)
(0.0585528 0.029036 -3.13612e-20)
(0.0732432 0.0264882 2.47326e-20)
(0.0883882 0.024152 -1.18424e-19)
(0.103828 0.0221475 -8.19568e-20)
(0.119335 0.0206768 1.00738e-19)
(0.134735 0.0202192 -2.78616e-19)
(0.150136 0.0219315 9.05739e-20)
(0.16382 0.0265637 6.46025e-20)
(-0.00821304 0.00995014 -3.8692e-20)
(-0.0207349 0.0247215 -6.41723e-20)
(-0.0299891 0.035282 2.49389e-19)
(-0.036142 0.0425563 9.27184e-20)
(-0.0394348 0.0472666 1.22679e-19)
(-0.0401258 0.0499905 -1.63818e-19)
(-0.0384513 0.0511978 2.96175e-22)
(-0.0346233 0.0512659 -1.32464e-19)
(-0.0288295 0.0504966 2.44798e-19)
(-0.0212353 0.0491306 7.9878e-20)
(-0.0119876 0.04736 8.95699e-20)
(-0.00121954 0.0453381 -3.56093e-19)
(0.0109445 0.0431874 4.39063e-19)
(0.0243838 0.0410058 -1.31841e-19)
(0.0389759 0.0388716 -9.43188e-20)
(0.0545925 0.0368467 2.82396e-19)
(0.0710948 0.0349798 1.25998e-19)
(0.08833 0.0333091 -3.18856e-19)
(0.106129 0.0318672 -1.33129e-19)
(0.124307 0.0306904 4.01698e-19)
(0.142643 0.0298278 -3.06968e-19)
(0.160849 0.0293634 1.84593e-19)
(0.178711 0.0296258 1.03238e-19)
(0.196473 0.0317481 -1.32777e-19)
(0.2125 0.036584 -1.28138e-19)
(-0.00870812 0.00992753 -1.42298e-19)
(-0.0216836 0.0244997 2.21114e-19)
(-0.0308674 0.0348146 9.41564e-20)
(-0.0365032 0.0418372 -1.35947e-19)
(-0.0388863 0.0463235 -2.17511e-20)
(-0.0383153 0.0488771 -1.42461e-19)
(-0.0350587 0.0499855 -5.67334e-20)
(-0.0293534 0.0500394 6.3678e-20)
(-0.0214065 0.0493509 -1.59136e-20)
(-0.0113989 0.0481697 1.20092e-19)
(0.000508691 0.0466964 -1.04287e-19)
(0.0141698 0.0450935 2.88535e-19)
(0.0294452 0.0434938 -3.57587e-19)
(0.0461963 0.042007 2.22968e-19)
(0.0642786 0.040725 2.77005e-19)
(0.083535 0.0397247 -4.00353e-19)
(0.103789 0.0390707 -1.21853e-19)
(0.124839 0.0388154 2.05334e-19)
(0.14645 0.0389993 -1.26767e-19)
(0.168357 0.0396509 1.22461e-19)
(0.190241 0.0407778 -2.96837e-19)
(0.211697 0.0423473 4.94137e-20)
(0.232397 0.0444577 1.9365e-19)
(0.252719 0.0480614 -3.11684e-19)
(0.271433 0.0539505 8.3957e-20)
(-0.00916741 0.00983886 -1.31568e-19)
(-0.0224763 0.0240902 4.12382e-19)
(-0.0314226 0.0340617 7.9143e-20)
(-0.0363331 0.0407575 -2.13806e-19)
(-0.03756 0.0449671 1.53125e-19)
(-0.0354434 0.0473193 7.77509e-20)
(-0.0302846 0.0483189 1.24101e-19)
(-0.0223452 0.0483689 -8.09852e-21)
(-0.0118509 0.047791 -1.29021e-20)
(0.00100185 0.0468436 -2.70359e-20)
(0.0160392 0.045736 -1.18056e-19)
(0.0331012 0.0446404 -3.99837e-21)
(0.0520345 0.0437012 2.75759e-19)
(0.0726834 0.0430423 -4.52239e-19)
(0.0948829 0.042774 3.21742e-19)
(0.11845 0.0429969 6.51109e-20)
(0.143174 0.0438063 1.1514e-19)
(0.168807 0.0452943 -5.94036e-20)
(0.195051 0.0475506 5.26886e-19)
(0.221544 0.0506616 -3.26485e-19)
(0.247828 0.0546886 2.61232e-19)
(0.273284 0.0596039 6.16021e-20)
(0.297282 0.0653992 -1.91665e-19)
(0.32013 0.072926 1.62448e-19)
(0.341377 0.0825339 2.52056e-19)
(-0.00958074 0.00968286 -3.82142e-20)
(-0.0230765 0.0234896 -1.45394e-19)
(-0.0315874 0.0330205 -2.48394e-19)
(-0.0355304 0.0393173 -1.41488e-19)
(-0.0353179 0.0432024 -1.97808e-20)
(-0.0313336 0.0453288 -5.58227e-20)
(-0.0239121 0.0462173 -2.58712e-19)
(-0.0133404 0.0462816 4.28718e-20)
(0.000136129 0.0458519 -2.90529e-19)
(0.016305 0.0451936 -2.25359e-20)
(0.0349772 0.044523 -2.78497e-19)
(0.0559783 0.0440202 -9.91716e-20)
(0.0791386 0.0438387 5.69115e-20)
(0.104286 0.0441146 -2.70865e-19)
(0.131236 0.0449744 2.45068e-21)
(0.159787 0.0465419 -2.33351e-19)
(0.189711 0.0489465 9.0117e-20)
(0.220743 0.052332 -3.25974e-19)
(0.252564 0.0568689 -5.59182e-20)
(0.284785 0.0627683 -7.7838e-21)
(0.316888 0.070281 -5.52006e-20)
(0.348109 0.0796677 -5.6611e-20)
(0.377441 0.0913827 -2.83115e-20)
(0.40431 0.106857 -1.13671e-19)
(0.427353 0.125161 -2.43927e-19)
(-0.00993656 0.00945862 6.98266e-20)
(-0.0234425 0.0226965 1.8429e-19)
(-0.031286 0.0316928 2.2142e-19)
(-0.0339817 0.0375252 -1.76862e-19)
(-0.0320069 0.0410472 3.28108e-19)
(-0.0257912 0.0429349 -1.78064e-19)
(-0.0157048 0.043723 9.66836e-20)
(-0.00206177 0.0438343 1.5069e-19)
(0.0148701 0.0436049 1.37061e-19)
(0.0348585 0.0433044 6.66376e-20)
(0.0576949 0.0431529 1.0766e-19)
(0.0831839 0.0433331 6.25918e-20)
(0.111134 0.0440017 4.22967e-19)
(0.14135 0.0452981 -3.07357e-19)
(0.173627 0.0473528 3.50955e-19)
(0.207746 0.0502962 -1.4586e-19)
(0.243475 0.0542689 3.1493e-19)
(0.280564 0.0594355 -1.49091e-20)
(0.318756 0.0660055 -6.52314e-20)
(0.357791 0.0742645 -1.20136e-20)
(0.397419 0.0846146 2.48153e-19)
(0.43744 0.0976796 -2.43371e-19)
(0.478016 0.114746 1.70616e-19)
(0.519799 0.137757 1.89842e-19)
(0.559171 0.160943 3.94069e-20)
(-0.0102213 0.00916524 4.8314e-20)
(-0.023527 0.0217112 -2.63569e-19)
(-0.0304325 0.0300856 -9.56805e-20)
(-0.0315603 0.0353988 8.7365e-20)
(-0.0274577 0.0385332 -2.6898e-19)
(-0.0186039 0.0401863 -5.30316e-20)
(-0.00540793 0.0409043 3.67716e-20)
(0.0117845 0.0411164 1.45226e-19)
(0.0326778 0.0411613 -3.67566e-19)
(0.0570123 0.0413095 2.79417e-20)
(0.08455 0.041779 -1.07415e-19)
(0.115063 0.0427488 -3.26352e-19)
(0.148325 0.0443691 2.22323e-19)
(0.1841 0.0467693 9.51648e-21)
(0.222147 0.0500656 -6.66637e-21)
(0.262211 0.0543678 2.24118e-19)
(0.304034 0.0597871 -3.96338e-19)
(0.347359 0.0664437 3.13907e-19)
(0.39195 0.0744777 -5.8027e-20)
(0.437615 0.0840594 1.83455e-19)
(0.484234 0.0953952 -3.01988e-19)
(0.531826 0.108757 1.73541e-19)
(0.580807 0.124691 -3.11701e-19)
(0.632048 0.143802 3.22565e-19)
(0.680562 0.160195 -1.00339e-19)
(-0.0104186 0.00880172 3.24762e-19)
(-0.0232755 0.0205357 -5.29199e-20)
(-0.0289305 0.0282112 3.89798e-19)
(-0.0281256 0.0329654 1.80368e-19)
(-0.0214851 0.0357069 1.44686e-20)
(-0.00954271 0.0371519 7.86744e-20)
(0.00724801 0.0378556 1.89868e-20)
(0.0285026 0.0382497 3.20292e-19)
(0.053888 0.0386722 1.03124e-19)
(0.0831045 0.039389 -1.38317e-20)
(0.115869 0.0406102 2.76997e-20)
(0.151903 0.0425027 1.06589e-19)
(0.19092 0.0451996 8.89398e-20)
(0.232623 0.0488072 1.9027e-19)
(0.276703 0.0534106 -2.16767e-19)
(0.322839 0.0590787 6.54726e-20)
(0.370706 0.0658679 1.98607e-20)
(0.41999 0.0738247 9.69415e-20)
(0.470402 0.0829874 2.62911e-19)
(0.5217 0.0933833 -1.71439e-19)
(0.573714 0.105017 1.47219e-20)
(0.626366 0.117858 -2.43454e-19)
(0.679789 0.131955 2.30746e-19)
(0.734394 0.147573 -2.24179e-19)
(0.785295 0.161016 2.11495e-20)
(-0.0105092 0.00836707 -2.70891e-19)
(-0.0226257 0.0191742 2.07032e-19)
(-0.0266723 0.0260871 -3.36842e-19)
(-0.0235241 0.0302621 2.90412e-20)
(-0.0138902 0.0326293 2.3683e-19)
(0.00163361 0.0339205 -3.94356e-19)
(0.0225407 0.034696 3.1269e-19)
(0.0483965 0.0353863 -4.95898e-19)
(0.0788159 0.0363234 9.87891e-20)
(0.113441 0.0377625 2.11103e-20)
(0.151921 0.0398984 1.6646e-19)
(0.193899 0.0428766 -5.52991e-19)
(0.239004 0.0468023 9.54762e-20)
(0.286844 0.0517459 1.01114e-19)
(0.337009 0.0577484 -6.06275e-20)
(0.389077 0.064824 -3.76056e-19)
(0.44262 0.0729628 1.77049e-19)
(0.497225 0.0821311 3.31496e-19)
(0.552503 0.09227 -3.50006e-19)
(0.608107 0.10329 2.54036e-19)
(0.66375 0.115061 -3.29903e-19)
(0.719201 0.127393 2.39911e-19)
(0.774323 0.140113 -6.70004e-20)
(0.829166 0.153439 3.83149e-19)
(0.879669 0.165543 -4.3899e-19)
(-0.0104704 0.00786038 3.87597e-20)
(-0.0215075 0.0176332 3.05557e-20)
(-0.0235397 0.0237369 7.48083e-20)
(-0.0175903 0.0273358 2.66926e-19)
(-0.00446372 0.0293757 -8.3571e-21)
(0.0151724 0.0305994 5.95983e-20)
(0.0407456 0.0315675 2.65185e-19)
(0.0717552 0.0327038 1.06967e-19)
(0.107743 0.0343281 -3.52288e-20)
(0.148268 0.0366772 2.99822e-19)
(0.192882 0.039921 -3.41319e-19)
(0.241121 0.0441731 5.23597e-19)
(0.292493 0.049499 -2.0773e-19)
(0.346478 0.0559215 3.76973e-19)
(0.402536 0.0634258 -1.27282e-19)
(0.460113 0.0719628 4.64268e-20)
(0.518656 0.0814517 5.62603e-20)
(0.577631 0.0917819 -1.08856e-19)
(0.636537 0.102813 9.11078e-20)
(0.69492 0.114372 5.86351e-20)
(0.752385 0.126249 8.10788e-20)
(0.808588 0.138188 1.72502e-19)
(0.863241 0.149934 -1.43822e-20)
(0.916223 0.161664 -7.90107e-20)
(0.964585 0.17297 2.40212e-19)
(-0.0102756 0.00728115 -2.26657e-19)
(-0.0198425 0.015922 2.39624e-20)
(-0.0194047 0.0211906 -4.30491e-19)
(-0.0101504 0.0242442 -1.02772e-19)
(0.00700844 0.0260355 -1.92332e-19)
(0.0313183 0.027313 -4.1233e-20)
(0.0621234 0.0286313 -2.05823e-19)
(0.0988344 0.0304001 -1.22957e-19)
(0.140893 0.0329181 1.62762e-19)
(0.187742 0.0363939 -2.71604e-19)
(0.238804 0.0409611 -7.5429e-20)
(0.293469 0.0466888 2.98235e-21)
(0.351092 0.0535896 -5.09758e-19)
(0.410994 0.0616268 2.16716e-19)
(0.47248 0.0707201 -3.16448e-19)
(0.53485 0.0807508 -9.89257e-21)
(0.597419 0.0915675 6.25637e-20)
(0.65954 0.10299 -1.01414e-19)
(0.720616 0.114815 -8.89833e-20)
(0.780121 0.126815 4.46652e-20)
(0.837602 0.138744 5.01186e-20)
(0.892677 0.150332 -3.24493e-19)
(0.945025 0.161314 1.85162e-19)
(0.994485 0.171823 9.41526e-20)
(1.03918 0.182433 2.66239e-20)
(-0.00989471 0.0066298 2.31909e-19)
(-0.0175454 0.0140541 -2.4736e-19)
(-0.0141321 0.0184859 3.46807e-19)
(-0.00102571 0.0210555 5.39293e-20)
(0.0207386 0.0227122 -1.65289e-20)
(0.0503029 0.024202 -1.16426e-19)
(0.0869046 0.0260649 1.75077e-20)
(0.129836 0.0286867 1.76922e-19)
(0.178405 0.0323338 -2.44009e-19)
(0.231901 0.0371737 2.56211e-19)
(0.289577 0.0432891 -2.70574e-20)
(0.350642 0.0506898 1.19039e-20)
(0.414266 0.0593222 3.33139e-19)
(0.479591 0.0690777 4.46616e-19)
(0.545756 0.0798022 -1.74718e-19)
(0.611917 0.091305 3.10783e-19)
(0.677276 0.103367 1.5824e-19)
(0.741102 0.115751 -9.6604e-20)
(0.802752 0.128208 3.07239e-19)
(0.861682 0.140482 -1.13121e-20)
(0.917456 0.152321 -2.96357e-19)
(0.969736 0.163476 3.13698e-19)
(1.01827 0.173709 4.58245e-20)
(1.06295 0.183123 -1.95723e-19)
(1.10281 0.192906 6.13457e-20)
(-0.00929419 0.00590834 -3.22731e-19)
(-0.0145247 0.0120485 3.37212e-19)
(-0.00758177 0.0156695 -2.13927e-19)
(0.00996208 0.0178502 -6.67529e-20)
(0.036929 0.0195231 -1.49324e-19)
(0.0723328 0.0214212 2.6398e-19)
(0.115274 0.0240581 -1.53186e-19)
(0.164889 0.027783 -7.0174e-20)
(0.220312 0.032815 -2.00835e-19)
(0.280636 0.039264 5.1892e-21)
(0.344906 0.047145 -7.8542e-20)
(0.412118 0.0563922 3.82561e-20)
(0.481235 0.0668709 -4.02572e-19)
(0.551213 0.0783909 1.14687e-19)
(0.621033 0.0907192 -1.38603e-19)
(0.689734 0.103594 -1.11896e-19)
(0.756446 0.116738 3.45172e-20)
(0.82041 0.129871 -1.63773e-19)
(0.881 0.142718 -7.08486e-20)
(0.937732 0.155023 2.03247e-19)
(0.99026 0.16655 8.67761e-20)
(1.03837 0.177094 -3.68407e-19)
(1.08194 0.18647 2.71898e-19)
(1.12103 0.194777 -5.15389e-20)
(1.15532 0.203508 -1.07238e-19)
(-0.00843773 0.00512107 -1.17682e-19)
(-0.010685 0.00993084 -6.29432e-20)
(0.000387406 0.0127982 -1.2578e-20)
(0.0229847 0.0147217 9.19871e-20)
(0.055763 0.0165995 1.00021e-19)
(0.0975772 0.0191381 8.70573e-20)
(0.147353 0.0228098 1.08241e-19)
(0.204029 0.0279096 1.65158e-19)
(0.266517 0.034591 2.52342e-19)
(0.333674 0.0428863 2.49583e-19)
(0.404301 0.0527239 1.31765e-19)
(0.477155 0.0639452 -3.53726e-20)
(0.55099 0.076322 8.84206e-21)
(0.624587 0.089575 -1.21608e-20)
(0.696804 0.103393 1.04344e-19)
(0.766612 0.117451 -2.81085e-20)
(0.83313 0.131427 3.10649e-19)
(0.895646 0.145017 -1.38936e-19)