/*--------------------------------*- C++ -*----------------------------------*\
  =========                 |
  \\      /  F ield         | OpenFOAM: The Open Source CFD Toolbox
   \\    /   O peration     | Website:  https://openfoam.org
    \\  /    A nd           | Version:  6.0
     \\/     M anipulation  |
\*---------------------------------------------------------------------------*/
FoamFile
{
    version     2.0;
    format      ascii;
    class       volVectorField;
    location    "20.7";
    object      U;
}
// * * * * * * * * * * * * * * * * * * * * * * * * * * * * * * * * * * * * * //

dimensions      [0 1 -1 0 0 0 0];

internalField   nonuniform List<vector> 
8000
(
(-0.000503414 0.000560883 -3.54543e-21)
(-0.0027417 0.00140542 1.89512e-20)
(-0.00686799 0.00201118 -2.30503e-20)
(-0.0119272 0.00243261 1.75525e-20)
(-0.0174244 0.00271102 8.54758e-21)
(-0.0230819 0.00288015 -2.56676e-20)
(-0.0287021 0.00296898 -2.26875e-21)
(-0.0341579 0.00300213 -8.05262e-22)
(-0.0393794 0.00300038 -1.33239e-20)
(-0.0443382 0.00298119 -7.21874e-21)
(-0.0490362 0.00295917 5.3833e-21)
(-0.0534966 0.00294629 2.04672e-20)
(-0.0577578 0.00295219 -1.53246e-21)
(-0.0618671 0.00298429 2.19313e-21)
(-0.0658776 0.00304792 -2.06163e-20)
(-0.069848 0.00314635 1.27032e-20)
(-0.0738368 0.00328095 -1.82021e-20)
(-0.0778595 0.00345208 2.75451e-20)
(-0.0818772 0.00365984 -3.08669e-23)
(-0.0861919 0.00389733 5.95031e-21)
(-0.000590947 0.00170597 1.17737e-20)
(-0.00295266 0.00424686 -6.01694e-20)
(-0.00715354 0.00604341 -4.15589e-20)
(-0.0122495 0.00726795 -2.82232e-20)
(-0.0177527 0.00805133 -3.63079e-20)
(-0.0233902 0.00849973 7.99026e-21)
(-0.0289682 0.00870334 -4.19133e-20)
(-0.0343624 0.00873804 -9.41425e-21)
(-0.0395048 0.00866723 2.9745e-21)
(-0.0443687 0.00854386 3.13276e-20)
(-0.0489569 0.0084119 -3.41738e-20)
(-0.0532935 0.00830741 4.75372e-20)
(-0.0574178 0.00825936 -3.55987e-20)
(-0.0613783 0.00829017 -4.22162e-20)
(-0.0652292 0.00841608 -5.81787e-20)
(-0.0690307 0.00864727 3.71542e-20)
(-0.0728433 0.00898823 -1.20181e-20)
(-0.0766841 0.0094405 -4.37622e-20)
(-0.0805138 0.010005 4.13777e-20)
(-0.0846377 0.0106612 -3.07527e-20)
(-0.000765758 0.00283342 1.15094e-19)
(-0.00337444 0.00704453 5.96062e-20)
(-0.00772565 0.010012 6.70341e-20)
(-0.0128969 0.0120234 5.57793e-21)
(-0.018414 0.0132976 3.705e-20)
(-0.0240137 0.014012 4.62422e-20)
(-0.0295099 0.014317 -8.40337e-20)
(-0.034784 0.0143389 -4.45014e-20)
(-0.0397719 0.0141832 -5.79569e-20)
(-0.0444498 0.0139379 6.18699e-20)
(-0.0488224 0.0136763 -4.7256e-20)
(-0.0529159 0.013459 -6.08006e-20)
(-0.056771 0.0133347 -2.21384e-20)
(-0.0604383 0.0133417 2.10323e-20)
(-0.0639746 0.0135081 -5.84824e-21)
(-0.067443 0.0138521 8.4319e-21)
(-0.0709081 0.0143822 9.75992e-20)
(-0.0743902 0.0151022 -1.37016e-20)
(-0.0778495 0.0160146 -9.92213e-20)
(-0.0815988 0.017085 1.30813e-19)
(-0.00102588 0.00393275 4.00454e-20)
(-0.00400282 0.00977187 -5.6565e-20)
(-0.00857937 0.0138779 -1.41894e-20)
(-0.0138644 0.0166498 2.65279e-20)
(-0.0194039 0.0183919 7.53253e-20)
(-0.0249496 0.0193509 1.64918e-19)
(-0.0303267 0.0197358 1.61148e-19)
(-0.0354249 0.0197219 1.33876e-20)
(-0.0401864 0.0194556 9.88201e-20)
(-0.0445914 0.0190597 1.51257e-19)
(-0.0486476 0.0186365 -1.20864e-19)
(-0.0523837 0.0182712 1.78872e-19)
(-0.0558428 0.0180334 -4.05028e-20)
(-0.0590782 0.0179787 1.02174e-20)
(-0.0621504 0.0181488 4.23004e-20)
(-0.0651271 0.0185716 5.62131e-20)
(-0.0680788 0.0192617 -8.84626e-20)
(-0.0710312 0.0202264 -7.38354e-20)
(-0.073945 0.0214718 -1.30676e-19)
(-0.0771444 0.0229493 1.90223e-19)
(-0.00136856 0.00499474 -2.09221e-20)
(-0.0048316 0.0124048 -2.14166e-19)
(-0.00970698 0.0176053 -6.33471e-20)
(-0.0151437 0.0211017 -1.54369e-19)
(-0.0207148 0.0232808 5.83513e-20)
(-0.0261915 0.024456 -9.20278e-20)
(-0.0314143 0.0248925 3.16482e-20)
(-0.0362846 0.0248124 -1.94914e-19)
(-0.0407522 0.0244017 1.02827e-19)
(-0.044803 0.0238166 -1.22624e-19)
(-0.0484486 0.0231881 -1.09053e-19)
(-0.0517203 0.0226267 -1.22105e-19)
(-0.0546641 0.0222238 1.10838e-19)
(-0.0573368 0.0220538 -9.9515e-20)
(-0.0598031 0.0221747 1.38573e-19)
(-0.0621371 0.022627 4.005e-20)
(-0.0644173 0.0234341 9.91368e-20)
(-0.0666773 0.0246099 4.35136e-20)
(-0.0688795 0.0261669 -1.72278e-19)
(-0.0713659 0.0280417 2.80349e-19)
(-0.00179042 0.00601166 9.22333e-20)
(-0.00585263 0.0149222 7.09502e-21)
(-0.0110975 0.0211621 3.79949e-20)
(-0.0167222 0.0253385 1.32575e-19)
(-0.0223332 0.0279169 -2.02954e-20)
(-0.0277263 0.0292742 2.15284e-19)
(-0.0327617 0.0297287 9.55514e-20)
(-0.0373548 0.0295468 8.0326e-21)
(-0.0414659 0.0289518 2.45699e-19)
(-0.0450874 0.0281314 8.05067e-20)
(-0.0482353 0.0272447 3.81912e-20)
(-0.0509439 0.0264272 1.21211e-19)
(-0.0532624 0.0257933 1.11104e-19)
(-0.0552508 0.0254388 2.02832e-19)
(-0.056979 0.0254407 -1.81295e-19)
(-0.0585285 0.0258563 2.56271e-19)
(-0.059988 0.0267219 3.36556e-21)
(-0.0614019 0.0280626 -3.27569e-19)
(-0.0627376 0.0299016 4.2465e-19)
(-0.0643616 0.0321615 1.75908e-19)
(-0.00228758 0.00697721 -5.43553e-20)
(-0.00705569 0.0173058 -9.86657e-20)
(-0.0127359 0.0245202 -2.05314e-19)
(-0.0185812 0.0293245 -6.08466e-21)
(-0.0242376 0.0322591 3.50339e-20)
(-0.0295311 0.0337606 -2.62167e-19)
(-0.0343455 0.034197 -1.94497e-19)
(-0.0386139 0.0338754 -2.78225e-20)
(-0.042309 0.0330531 -2.46018e-19)
(-0.045431 0.0319471 -1.70335e-19)
(-0.048001 0.0307429 -4.96416e-20)
(-0.0500563 0.0296003 -1.59844e-19)
(-0.0516485 0.0286577 -2.60524e-21)
(-0.052841 0.0280342 -2.12271e-19)
(-0.0537087 0.0278299 8.92937e-20)
(-0.0543414 0.0281238 -1.01875e-19)
(-0.0548404 0.0289712 7.80442e-20)
(-0.0552637 0.0304151 -9.93075e-20)
(-0.0555883 0.0324964 -2.83825e-19)
(-0.0562157 0.0351257 -8.62417e-20)
(-0.0028557 0.00788623 -2.00067e-20)
(-0.00842824 0.0195397 -2.17259e-20)
(-0.0146022 0.027655 1.72141e-19)
(-0.020694 0.0330287 -2.80125e-19)
(-0.0263956 0.0362726 4.10959e-20)
(-0.0315685 0.0378792 -1.6181e-19)
(-0.0361249 0.0382616 7.64659e-20)
(-0.0400192 0.0377637 3.43688e-19)
(-0.0432387 0.0366727 -2.20479e-20)
(-0.0457931 0.0352315 -2.56392e-19)
(-0.047709 0.033649 4.65877e-20)
(-0.0490266 0.032108 9.03289e-21)
(-0.0497994 0.0307705 -5.264e-20)
(-0.0500929 0.029781 5.32564e-21)
(-0.0499867 0.0292666 4.62469e-19)
(-0.049579 0.0293339 -6.58521e-20)
(-0.0489854 0.0300656 -1.28458e-19)
(-0.0482813 0.0315318 -2.30482e-19)
(-0.0474591 0.033802 2.35125e-19)
(-0.0469691 0.0367798 1.01357e-19)
(-0.00348986 0.00873423 1.01014e-19)
(-0.00995495 0.0216095 -1.32161e-19)
(-0.0166707 0.0305439 1.86847e-19)
(-0.0230241 0.0364237 1.8809e-19)
(-0.0287603 0.0399282 1.73387e-19)
(-0.0337821 0.0416017 3.51588e-19)
(-0.0380348 0.0418982 2.27357e-19)
(-0.041498 0.0411933 -4.88551e-19)
(-0.0441765 0.0397993 2.49855e-19)
(-0.0460914 0.0379803 1.96061e-19)
(-0.0472755 0.0359646 -2.78401e-21)
(-0.0477721 0.0339549 2.19471e-19)
(-0.0476351 0.0321351 1.71102e-19)
(-0.0469314 0.0306756 -9.30754e-20)
(-0.0457434 0.0297338 3.14504e-19)
(-0.0441774 0.0294508 -3.89866e-19)
(-0.0423641 0.0299462 1.56047e-19)
(-0.0403997 0.0313307 2.00681e-19)
(-0.0382994 0.0337182 -4.67609e-20)
(-0.036582 0.0370149 4.02978e-19)
(-0.00418444 0.00951681 2.02998e-19)
(-0.011617 0.0235011 1.05244e-20)
(-0.0189078 0.0331655 -7.28568e-20)
(-0.025523 0.0394839 -7.69556e-20)
(-0.0312675 0.0432 -3.56367e-19)
(-0.0360915 0.0449061 5.04645e-20)
(-0.039979 0.0450922 1.42977e-19)
(-0.0429387 0.0441605 -6.87697e-20)
(-0.0449963 0.042443 5.67273e-20)
(-0.0461867 0.0402192 -1.5042e-20)
(-0.0465505 0.0377311 -7.40994e-20)
(-0.046134 0.0351961 7.03518e-20)
(-0.0449915 0.0328165 -3.05865e-19)
(-0.043189 0.0307865 2.9322e-19)
(-0.04081 0.0292954 -2.53978e-19)
(-0.0379671 0.0285245 7.8454e-20)
(-0.0348062 0.0286412 1.78519e-19)
(-0.0314467 0.029814 -3.71345e-20)
(-0.0279347 0.0322238 -1.23532e-19)
(-0.0248846 0.0357961 -8.39582e-20)
(-0.00493271 0.010229 -2.52864e-19)
(-0.0133915 0.0251995 -1.66337e-20)
(-0.0212718 0.0354978 5.3251e-20)
(-0.028128 0.0421839 1.36907e-19)
(-0.0338323 0.0460635 -1.93284e-19)
(-0.0383884 0.0477734 -1.68664e-19)
(-0.0418239 0.0478354 3.93675e-19)
(-0.0441814 0.046673 -2.17534e-19)
(-0.0455117 0.0446323 -1.40324e-19)
(-0.0458664 0.0420016 -2.01345e-19)
(-0.0452961 0.0390299 1.3329e-19)
(-0.0438517 0.0359418 -3.60479e-21)
(-0.0415877 0.0329511 -2.48914e-19)
(-0.0385682 0.030271 -4.07183e-19)
(-0.0348755 0.0281202 3.10212e-19)
(-0.0306261 0.026723 -2.51342e-19)
(-0.0259793 0.0263045 3.56352e-19)
(-0.0210789 0.0271107 -9.98239e-20)
(-0.0160098 0.0294205 2.09834e-19)
(-0.0115169 0.0332059 -7.12165e-19)
(-0.00572657 0.010865 -5.1212e-19)
(-0.0152504 0.0266879 3.3579e-19)
(-0.023711 0.0375164 4.56678e-20)
(-0.030761 0.0444956 8.83313e-21)
(-0.0363469 0.0484918 -2.07036e-19)
(-0.0405321 0.0501836 3.04453e-19)
(-0.043393 0.0501208 3.32332e-20)
(-0.0450109 0.0487439 -6.24306e-20)
(-0.0454655 0.0464075 -2.00385e-19)
(-0.0448295 0.0434026 2.16607e-19)
(-0.0431669 0.0399771 5.49173e-19)
(-0.0405358 0.0363546 -1.21322e-19)
(-0.036993 0.0327506 2.74152e-19)
(-0.0326009 0.0293871 -3.2384e-19)
(-0.0274392 0.0265047 -3.10518e-19)
(-0.0216255 0.024367 1.86702e-19)
(-0.0153304 0.0232623 3.08464e-19)
(-0.0087201 0.0235329 -9.99563e-19)
(-0.00192263 0.0255945 1.17369e-19)
(0.00414094 0.0295065 1.59597e-19)
(-0.00655623 0.0114177 3.79224e-19)
(-0.0171602 0.0279469 1.24739e-19)
(-0.0261635 0.0391933 6.498e-19)
(-0.0333273 0.0463869 3.34365e-20)
(-0.0386795 0.0504533 -7.22663e-20)
(-0.0423484 0.0521115 -3.44125e-19)
(-0.0444642 0.0519367 2.92647e-19)
(-0.0451512 0.0503833 5.2504e-19)
(-0.0445224 0.0478102 3.49809e-19)
(-0.0426756 0.044506 2.52547e-19)
(-0.0396935 0.0407109 2.17721e-19)
(-0.0356461 0.036638 -3.90969e-19)
(-0.0305968 0.0324928 -1.22469e-19)
(-0.0246097 0.0284923 -9.02012e-20)
(-0.0177632 0.0248839 9.66582e-19)
(-0.010175 0.0219579 -3.31051e-21)
(-0.00202448 0.0200595 -2.40891e-19)
(0.00650412 0.0196394 -7.59659e-20)
(0.015243 0.0212929 6.91317e-19)
(0.0230421 0.0252209 9.07306e-20)
(-0.00741009 0.011879 -1.87026e-20)
(-0.0190816 0.0289549 -3.58735e-19)
(-0.0285565 0.0404971 -5.33676e-19)
(-0.0357151 0.0478203 -1.48496e-19)
(-0.0406731 0.0519092 8.19965e-20)
(-0.0436284 0.0535227 1.76573e-20)
(-0.0447686 0.0532603 4.68262e-19)
(-0.0442643 0.0515889 -5.80754e-19)
(-0.0422658 0.0488703 -2.20906e-19)
(-0.0389007 0.0453875 -4.45198e-19)
(-0.0342756 0.041369 -3.79196e-19)
(-0.0284796 0.0370101 -3.35771e-19)
(-0.0215905 0.0324953 8.39535e-20)
(-0.0136818 0.0280206 -1.09012e-19)
(-0.00483711 0.0238188 4.67092e-19)
(0.00482208 0.0201822 -2.56009e-19)
(0.0151072 0.0174901 -8.0254e-19)
(0.0258217 0.0162943 -1.61921e-19)
(0.0367745 0.0174055 3.96089e-19)
(0.0465348 0.0212296 -3.45044e-19)
(-0.00827474 0.0122406 -6.05055e-20)
(-0.0209694 0.0296886 4.38743e-19)
(-0.0308066 0.0413934 -5.59554e-19)
(-0.0377957 0.0487535 1.29337e-19)
(-0.0421464 0.0528135 -2.66402e-19)
(-0.0441293 0.0543723 5.93399e-19)
(-0.0439917 0.0540543 -4.24111e-19)
(-0.0419527 0.0523395 4.85226e-19)
(-0.0382022 0.0495935 -4.60068e-19)
(-0.0329014 0.0460951 1.96308e-19)
(-0.0261868 0.0420607 -9.52671e-20)
(-0.0181748 0.0376663 -2.39205e-19)
(-0.00896856 0.0330686 -2.95576e-19)
(0.00133508 0.0284292 2.9453e-19)
(0.0126335 0.0239438 -2.46671e-19)
(0.0247888 0.0198723 -5.39367e-19)
(0.0375941 0.0165845 5.61525e-19)
(0.050843 0.014694 -7.16375e-19)
(0.0643559 0.0152348 3.22216e-19)
(0.0763914 0.0188707 8.13213e-21)
(-0.00913521 0.0124941 -5.48556e-19)
(-0.0227722 0.0301245 -5.92283e-19)
(-0.0328188 0.0418465 6.82548e-20)
(-0.0394232 0.0491415 -5.71165e-19)
(-0.0428935 0.0531148 -5.08315e-20)
(-0.0435753 0.0546065 -4.20145e-19)
(-0.0417763 0.0542671 -9.63864e-20)
(-0.0377642 0.0525923 -2.817e-19)
(-0.0317691 0.0499548 2.50492e-21)
(-0.0239882 0.0466345 -1.23261e-19)
(-0.0145923 0.0428415 8.75496e-21)
(-0.00373413 0.0387374 -3.55215e-19)
(0.00844446 0.0344541 3.91532e-19)
(0.021805 0.0301155 -5.5554e-19)
(0.0362023 0.0258651 1.96845e-19)
(0.051457 0.0218979 7.48219e-21)
(0.0673189 0.0185151 -3.13539e-19)
(0.0835578 0.0163114 7.77493e-19)
(0.100056 0.0164945 -1.85723e-19)
(0.114796 0.0199882 -1.20409e-19)
(-0.00997517 0.0126324 6.15764e-19)
(-0.0244328 0.0302409 3.32486e-19)
(-0.0344866 0.0418227 3.09278e-19)
(-0.040433 0.0489413 4.6172e-20)
(-0.0426828 0.0527628 4.18205e-19)
(-0.0416573 0.05417 6.02796e-19)
(-0.0377239 0.0538413 4.9355e-19)
(-0.031197 0.0522906 4.41758e-20)
(-0.0223457 0.0499039 3.61461e-19)
(-0.0114032 0.0469691 5.58525e-19)
(0.00142215 0.0437012 -1.4489e-19)
(0.0159345 0.0402603 2.43172e-19)
(0.0319401 0.0367676 1.96355e-19)
(0.0492377 0.0333223 1.9977e-19)
(0.0676099 0.0300206 1.18207e-18)
(0.086798 0.0269795 -4.43073e-19)
(0.106462 0.0243791 -2.70757e-20)
(0.126298 0.0226809 5.1422e-19)
(0.146292 0.0231324 -2.91635e-19)
(0.164308 0.0268306 1.44158e-19)
(-0.010777 0.0126499 -4.97948e-19)
(-0.025887 0.0300198 3.18972e-20)
(-0.0356895 0.0412941 -3.98599e-19)
(-0.0406393 0.0481175 -5.18844e-20)
(-0.041254 0.051717 2.91786e-19)
(-0.0380304 0.0530185 -8.68649e-19)
(-0.0313936 0.052729 -6.44024e-22)
(-0.0217022 0.0513837 4.04264e-19)
(-0.00926154 0.0493862 3.79836e-19)
(0.00566067 0.0470416 -1.67234e-19)
(0.0228174 0.0445817 5.51501e-20)
(0.0419651 0.0421833 1.27914e-19)
(0.0628474 0.0399815 -6.0562e-20)
(0.0851805 0.0380813 -6.79544e-19)
(0.108642 0.0365673 1.72041e-19)
(0.132843 0.0355091 4.73756e-19)
(0.157283 0.0349643 -6.75164e-19)
(0.181482 0.0351699 3.29339e-19)
(0.205513 0.037248 8.84945e-20)
(0.227472 0.0422829 4.48278e-19)
(-0.0115215 0.012543 -7.35157e-20)
(-0.0270621 0.029448 -3.48894e-19)
(-0.0362904 0.0402425 1.60549e-19)
(-0.039831 0.0466502 7.43574e-22)
(-0.0383126 0.0499581 -6.99718e-19)
(-0.032308 0.0511345 1.09194e-19)
(-0.0222982 0.0509143 -2.07374e-20)
(-0.00868317 0.0498546 1.41262e-19)
(0.00819764 0.0483794 -6.46627e-19)
(0.0280434 0.0468161 -4.53398e-20)
(0.0505688 0.0454231 -1.5194e-19)
(0.0754813 0.0444103 1.3515e-19)
(0.102458 0.0439543 4.56353e-19)
(0.131124 0.04421 -7.05495e-20)
(0.161025 0.0453199 2.73455e-20)
(0.19159 0.0474081 1.79799e-19)
(0.222043 0.0505421 -4.43925e-20)
(0.251504 0.0548755 3.63369e-19)
(0.279864 0.061538 -2.10495e-19)
(0.305819 0.0713063 -3.33535e-19)
(-0.0121868 0.0123093 6.81956e-20)
(-0.0278742 0.0285189 1.66397e-20)
(-0.0361307 0.0386629 1.39904e-19)
(-0.0377652 0.0445416 3.42658e-19)
(-0.0335236 0.0474996 1.92285e-19)
(-0.0240561 0.0485447 2.00629e-20)
(-0.00989954 0.0484376 -2.29551e-19)
(0.00850415 0.0477539 5.88453e-20)
(0.03078 0.0469359 3.09499e-19)
(0.0565919 0.0463313 -5.24474e-19)
(0.0856154 0.0462241 3.95786e-19)
(0.117513 0.0468595 -2.98242e-19)
(0.151909 0.0484649 2.53159e-19)
(0.188368 0.051272 -5.46146e-19)
(0.226365 0.0555408 6.011e-19)
(0.265225 0.0615756 -6.43049e-19)
(0.303983 0.0697213 -1.67364e-19)
(0.341314 0.0806091 5.26131e-19)
(0.376051 0.0962334 -1.77423e-19)
(0.40499 0.11676 7.92412e-20)
(-0.0127469 0.011948 -5.16088e-20)
(-0.0282247 0.027232 4.87045e-19)
(-0.0350257 0.0365662 -2.04165e-21)
(-0.0341625 0.041822 -3.02353e-19)
(-0.026506 0.0443972 -2.0334e-19)
(-0.0127889 0.0453353 3.72524e-19)
(0.00639121 0.0454166 -1.4755e-19)
(0.0305423 0.0452293 -1.85878e-20)
(0.0592423 0.0452245 3.07521e-19)
(0.0921047 0.0457573 -3.82035e-19)
(0.12875 0.0471189 4.19023e-20)
(0.168785 0.0495626 -4.96773e-19)
(0.211787 0.0533286 2.61682e-19)
(0.257304 0.0586727 -7.48982e-19)
(0.304861 0.065904 1.19376e-18)
(0.35397 0.0754362 -2.18668e-19)
(0.40417 0.0879043 2.28811e-19)
(0.455313 0.104711 -5.93927e-19)
(0.507872 0.128883 3.35213e-21)
(0.553841 0.156306 6.77522e-19)
(-0.0131694 0.0114576 -1.56344e-19)
(-0.0279962 0.0255929 1.35077e-19)
(-0.0327603 0.0339806 -4.97471e-19)
(-0.0287022 0.0385535 7.35799e-19)
(-0.0168307 0.0407557 -5.31221e-19)
(0.00202914 0.0416606 2.74185e-20)
(0.0272044 0.0420604 -5.72837e-19)
(0.0581321 0.0425455 4.09572e-19)
(0.094313 0.043561 -5.85113e-20)
(0.135271 0.0454481 -3.61479e-19)
(0.180524 0.0484735 -2.10983e-19)
(0.229566 0.0528516 2.22923e-19)
(0.281864 0.0587632 1.47497e-19)
(0.33687 0.0663723 -6.52995e-19)
(0.394051 0.0758432 2.35672e-19)
(0.452933 0.0873517 -3.48056e-19)
(0.513166 0.101106 4.21984e-20)
(0.574748 0.117544 -2.9643e-19)
(0.638514 0.137835 1.22226e-19)
(0.697222 0.158052 -4.4586e-19)
(-0.0134131 0.0108368 4.45094e-19)
(-0.027049 0.0236133 -2.69576e-19)
(-0.0290861 0.0309522 2.2213e-19)
(-0.0210234 0.034831 -2.80435e-19)
(-0.00402567 0.0367302 4.70067e-19)
(0.0209702 0.0377447 -8.2211e-21)
(0.0531883 0.0386688 -5.72269e-20)
(0.0919554 0.0400809 -4.24321e-20)
(0.136643 0.042402 2.6118e-19)
(0.186619 0.0459344 4.4414e-19)
(0.24122 0.0508879 -2.6236e-19)
(0.29974 0.0573981 2.55113e-19)
(0.361436 0.06554 4.66166e-19)
(0.425549 0.0753369 -3.26856e-19)
(0.491344 0.0867664 -6.64582e-19)
(0.558153 0.0997552 1.21583e-18)
(0.625419 0.114163 -2.17044e-19)
(0.692783 0.129822 -7.06454e-20)
(0.760445 0.147056 7.62926e-19)
(0.823225 0.164992 -1.60976e-19)
(-0.0134266 0.0100835 -7.24613e-19)
(-0.0252193 0.0213119 -4.82379e-19)
(-0.0237225 0.0275459 -1.85176e-19)
(-0.0107302 0.0307824 3.5726e-19)
(0.0124099 0.0325234 -8.06553e-19)
(0.0446166 0.0338744 4.17695e-19)
(0.0849652 0.0356172 5.29379e-20)
(0.13261 0.0382996 5.35355e-20)
(0.186715 0.0422941 -5.47128e-19)
(0.246404 0.0478345 -1.9322e-19)
(0.310734 0.0550394 -3.40655e-19)
(0.378703 0.06393 3.29046e-19)
(0.449266 0.0744433 9.34757e-20)
(0.521371 0.0864429 1.83409e-20)
(0.594013 0.099726 4.29572e-19)
(0.666272 0.114024 -4.34966e-19)
(0.737353 0.128993 -1.81129e-20)
(0.80662 0.14423 1.08969e-20)
(0.87375 0.159577 5.94419e-20)
(0.93587 0.176599 3.38909e-19)
(-0.0131469 0.00919648 2.30715e-19)
(-0.0223194 0.0187157 5.94222e-19)
(-0.016361 0.0238466 4.7686e-19)
(0.00259554 0.0265677 -1.64374e-19)
(0.032981 0.0283817 5.71705e-19)
(0.0735194 0.030388 -4.8169e-20)
(0.123068 0.0333347 -6.78513e-20)
(0.180521 0.0377121 4.03934e-20)
(0.244732 0.0438114 5.52684e-19)
(0.314473 0.0517598 3.24766e-19)
(0.388422 0.0615455 9.48413e-20)
(0.465196 0.0730399 5.81609e-21)
(0.543391 0.0860172 -6.29654e-19)
(0.621647 0.100175 5.47112e-19)
(0.698705 0.11515 9.39608e-20)
(0.773459 0.130533 -1.54597e-19)
(0.844988 0.145879 -6.71597e-19)
(0.912583 0.160733 -5.69933e-20)
(0.975717 0.174632 2.65628e-19)
(1.0336 0.190715 -5.42925e-20)
(-0.0124994 0.00817684 -5.85455e-19)
(-0.0181403 0.015864 2.44955e-19)
(-0.00667455 0.0199619 -1.19594e-18)
(0.0193755 0.0223792 4.89815e-19)
(0.0581643 0.0245902 -3.90629e-19)
(0.108147 0.0276627 2.87989e-19)
(0.167867 0.0322798 -4.47402e-19)
(0.235843 0.0388357 4.10707e-20)
(0.310499 0.0474955 -2.30654e-20)
(0.390142 0.0582328 1.20354e-19)
(0.472989 0.0708621 1.73853e-19)
(0.557232 0.0850716 -3.28586e-19)
(0.641117 0.100458 1.74001e-19)
(0.723032 0.116558 1.59886e-19)
(0.801577 0.132885 6.91278e-19)
(0.875614 0.148946 -3.00128e-19)
(0.94429 0.164273 -1.99778e-19)
(1.00705 0.17846 3.36126e-19)
(1.06348 0.190946 1.79738e-19)
(1.11417 0.205573 -3.37645e-19)
(-0.0113994 0.00703059 5.12829e-19)
(-0.0124578 0.0128123 4.94493e-19)
(0.00566991 0.0160256 1.42662e-19)
(0.0400116 0.0184427 6.00879e-19)
(0.0883702 0.0214685 2.95188e-19)
(0.148831 0.0261019 -5.32143e-19)
(0.219497 0.0329159 8.05999e-19)
(0.298376 0.0421551 -3.9665e-19)
(0.383339 0.0538018 3.95984e-19)
(0.472138 0.0676224 5.12435e-19)
(0.562487 0.0832153 -2.92863e-19)
(0.652179 0.100064 5.56251e-20)
(0.739202 0.117588 3.10352e-19)
(0.821838 0.135195 2.18749e-19)
(0.898737 0.152321 5.04183e-19)
(0.968939 0.168463 -2.01579e-19)
(1.03187 0.1832 -2.47258e-20)
(1.08734 0.19623 3.18711e-19)
(1.1353 0.207081 -6.84688e-20)
(1.17712 0.219643 3.29479e-22)
(-0.00975414 0.0057715 -2.64731e-19)
(-0.00503984 0.00963822 -9.73031e-19)
(0.0209956 0.0122032 2.29139e-19)
(0.064859 0.0150191 -1.74439e-19)
(0.123902 0.0193661 -4.02676e-19)
(0.195708 0.0261216 -2.87504e-19)
(0.277791 0.0356856 -1.77618e-19)
(0.367507 0.0480852 4.31372e-19)
(0.462067 0.0630539 -2.56192e-19)
(0.558624 0.080098 -2.62368e-19)
(0.654428 0.0985709 -3.31941e-19)
(0.746989 0.11775 -5.47936e-20)
(0.834215 0.136909 -3.70792e-20)
(0.914506 0.155381 -7.68222e-19)
(0.986791 0.172599 3.7268e-19)
(1.05051 0.188124 -4.9007e-19)
(1.10557 0.201651 1.54162e-19)
(1.15223 0.213025 -1.17356e-18)
(1.19096 0.221984 3.53682e-19)
(1.2235 0.232049 4.47927e-19)
(-0.00746614 0.00442372 -6.64752e-20)
(0.0043433 0.00644568 4.7471e-19)
(0.0395975 0.00869508 3.04335e-20)
(0.0941972 0.0124041 7.32333e-20)
(0.164915 0.0186555 -1.48891e-19)
(0.248674 0.0281331 -2.4498e-21)
(0.34224 0.0409835 -3.82566e-21)
(0.44219 0.0569357 -8.98511e-20)
(0.545017 0.0754082 3.18681e-19)
(0.647317 0.0956085 1.23227e-19)
(0.746007 0.116641 5.59555e-19)
(0.838526 0.137611 -1.52582e-19)
(0.922955 0.15771 1.06586e-19)
(0.998069 0.176276 -1.38932e-20)
(1.0633 0.192826 2.95333e-19)
(1.11867 0.207057 1.80833e-19)
(1.16464 0.218838 4.36082e-19)
(1.20201 0.228186 -7.04498e-19)
(1.2317 0.235083 8.86893e-19)
(1.25559 0.242509 -2.81055e-19)
(-0.00443677 0.00302399 -6.18792e-19)
(0.0159076 0.0033691 -1.93166e-19)
(0.0617219 0.0057388 1.50976e-19)
(0.1282 0.0109254 9.51855e-20)
(0.21138 0.0197211 9.75323e-20)
(0.307351 0.0325227 9.88823e-20)
(0.411976 0.0491271 -2.47476e-19)
(0.520973 0.0688813 -1.0235e-19)
(0.630149 0.0908356 3.17417e-20)
(0.735682 0.113888 -3.0324e-19)
(0.834395 0.13693 -1.37218e-19)
(0.923936 0.158967 8.293e-19)
(1.00285 0.179199 -2.13927e-19)
(1.07051 0.197068 -2.951e-19)
(1.12704 0.212252 -1.40188e-19)
(1.1731 0.224648 9.70185e-20)
(1.20973 0.234324 1.18494e-19)
(1.23816 0.241469 -5.6802e-19)
(1.25971 0.246288 8.22362e-19)
(1.27621 0.251197 -7.12893e-19)
(-0.000570501 0.00162314 -7.00394e-20)
(0.0298426 0.000574848 2.00654e-20)
(0.0875453 0.00360754 -2.55816e-20)
(0.166905 0.0109347 3.73799e-19)
(0.263054 0.0229421 2.05888e-20)
(0.371066 0.0396263 1.37278e-19)
(0.485789 0.060329 -2.85209e-19)
(0.602086 0.0839419 -1.04037e-20)
(0.715213 0.109123 3.9627e-19)
(0.821184 0.134495 5.52544e-20)
(0.917042 0.158814 -3.45354e-19)
(1.00096 0.181089 -3.03393e-20)
(1.07219 0.200642 -2.83947e-19)
(1.13091 0.217104 2.82678e-19)
(1.17794 0.230382 3.92871e-19)
(1.2146 0.240596 -4.3317e-20)
(1.24239 0.248013 -5.28545e-20)
(1.26287 0.252969 1.61118e-19)
(1.27754 0.255833 -5.18242e-19)
(1.28816 0.258526 4.56414e-19)
(0.00422057 0.000286669 7.03242e-20)
(0.0462984 -0.00173961 -4.53714e-19)
(0.117154 0.00260459 1.21429e-19)
(0.210195 0.0127948 -3.76646e-19)
(0.319462 0.0286716 1.2951e-19)
(0.438863 0.0497031 -4.80991e-19)
(0.56219 0.0746752 1.94023e-19)
(0.683565 0.101978 -6.17684e-20)
(0.797949 0.129902 -2.50705e-21)
(0.901537 0.156873 6.32401e-20)
(0.991938 0.18163 -2.30371e-19)
(1.06813 0.203311 -3.28995e-19)
(1.13026 0.221459 -6.75028e-20)
(1.17933 0.235966 -3.03053e-20)
(1.21688 0.246995 -7.69071e-20)
(1.24472 0.254885 -2.50666e-20)
(1.26468 0.260069 -7.50434e-20)
(1.27848 0.262991 -6.50833e-20)
(1.28767 0.26412 -1.93753e-19)
(1.29383 0.264971 3.07502e-19)
(0.0100119 -0.000905536 1.6917e-19)
(0.0653719 -0.00334927 -1.87876e-19)
(0.150523 0.00305351 4.04334e-19)
(0.257773 0.0168616 -1.74524e-19)
(0.379894 0.0372123 4.66448e-19)
(0.509537 0.0629128 6.64367e-21)
(0.639503 0.0921153 2.34281e-19)
(0.763413 0.12271 -6.27528e-20)
(0.876295 0.152692 2.61904e-19)
(0.974908 0.180424 1.89501e-20)
(1.05775 0.204767 6.23754e-19)
(1.1248 0.225103 -4.30606e-19)
(1.17717 0.241275 5.80096e-20)
(1.21664 0.253471 1.10733e-19)
(1.24532 0.262103 5.80289e-19)
(1.26536 0.267696 -2.08503e-19)
(1.27874 0.270801 -4.13504e-20)
(1.2872 0.271924 -2.19144e-19)
(1.29218 0.271575 -2.3109e-20)
(1.29513 0.270957 1.09683e-19)
(0.0168615 -0.00186041 -8.12146e-20)
(0.0870942 -0.00400791 2.34583e-19)
(0.187504 0.00528455 -2.40159e-19)
(0.309161 0.0234634 9.48626e-20)
(0.44343 0.048793 -1.13403e-19)
(0.581703 0.0793 4.16272e-19)
(0.715987 0.112467 -5.7981e-20)
(0.839763 0.145745 1.42875e-19)
(0.948548 0.176968 -8.41297e-20)
(1.04004 0.204588 -2.2098e-21)
(1.11384 0.227727 9.61457e-20)
(1.17106 0.246108 -7.45091e-20)
(1.21368 0.259917 1.93288e-19)
(1.24415 0.269631 -9.63576e-20)
(1.26496 0.275877 -4.24475e-19)
(1.27841 0.279316 4.22075e-19)
(1.2865 0.280566 -1.90231e-19)
(1.29084 0.280147 1.51914e-19)
(1.29274 0.278575 2.63492e-19)
(1.29341 0.276811 1.08258e-19)
(0.0248047 -0.00247383 2.02086e-19)
(0.11142 -0.00345677 -4.16445e-19)
(0.227815 0.00961849 7.96824e-20)
(0.363701 0.0328793 -5.78065e-20)
(0.508972 0.06355 -2.33165e-19)
(0.653878 0.0987902 -1.83004e-19)
(0.789964 0.135439 -3.59733e-20)
(0.911018 0.17063 -3.26317e-19)
(1.01347 0.202211 -1.98809e-20)
(1.09625 0.228885 -6.0647e-20)
(1.16022 0.250155 -1.64663e-19)
(1.20753 0.266142 -3.65841e-20)
(1.24094 0.277374 -1.26066e-19)
(1.26336 0.284587 -2.10463e-19)
(1.27747 0.288568 2.1557e-19)
(1.28558 0.290059 2.97362e-20)
(1.28955 0.289697 5.92611e-20)
(1.29082 0.28798 -2.48453e-19)
(1.29051 0.28541 -6.20411e-21)
(1.28963 0.282754 -3.83464e-19)
(0.0338498 -0.00263364 2.21569e-19)
(0.138219 -0.00143524 1.47782e-19)
(0.271036 0.016349 -2.38273e-19)
(0.420581 0.04532 3.72084e-19)
(0.575307 0.0815161 -4.0114e-20)
(0.724581 0.121199 1.39e-19)
(0.859933 0.160659 4.81292e-20)
(0.975939 0.196894 1.70537e-19)
(1.07032 0.227956 -1.33538e-19)
(1.14341 0.252952 4.45178e-20)
(1.19734 0.271841 -4.27343e-20)
(1.23518 0.285159 -1.88108e-20)
(1.26027 0.293749 3.57625e-20)
(1.27576 0.298547 -6.59099e-20)
(1.28437 0.300445 -2.02628e-20)
(1.28827 0.300214 -6.19994e-20)
(1.28913 0.298469 -1.00796e-19)
(1.28818 0.295664 6.50743e-20)
(1.28633 0.292277 -8.93226e-20)
(1.2844 0.288916 3.85976e-19)
(0.0439738 -0.00222346 -1.1065e-19)
(0.167272 0.0023072 -3.13453e-19)
(0.316622 0.0257252 -4.17288e-20)
(0.478863 0.0609125 -1.13578e-20)
(0.641171 0.102619 -1.40423e-19)
(0.792425 0.146248 -2.30573e-19)
(0.924654 0.187713 7.54838e-20)
(1.03368 0.22409 -1.03725e-19)
(1.1188 0.253822 -1.1625e-19)
(1.1818 0.276536 6.47733e-20)
(1.22597 0.292689 -4.89569e-20)
(1.25513 0.303208 -9.90892e-20)
(1.27296 0.309198 -3.35901e-21)
(1.28268 0.311735 6.71207e-20)
(1.2869 0.311757 -6.85035e-20)
(1.28758 0.310018 9.50617e-20)
(1.28615 0.307087 2.55681e-20)
(1.28361 0.303362 6.44612e-20)
(1.28071 0.299295 1.25688e-19)
(1.27809 0.295353 -1.07678e-19)
(0.0551195 -0.00112723 1.05695e-19)
(0.198272 0.00799827 -9.34357e-21)
(0.363912 0.0379365 4.74258e-20)
(0.537531 0.0796911 -6.43671e-20)
(0.705323 0.126688 5.29263e-21)
(0.856187 0.173596 2.23386e-19)
(0.983192 0.216176 -1.46754e-19)
(1.08379 0.251816 6.2177e-20)
(1.15898 0.279514 5.48351e-20)
(1.21198 0.299488 -1.54149e-19)
(1.24705 0.312691 1.44886e-19)
(1.2685 0.320395 1.28466e-21)
(1.28018 0.323899 -1.02149e-19)
(1.28524 0.324357 1.2314e-19)
(1.28604 0.322702 -4.88854e-20)
(1.28431 0.319644 3.73882e-20)
(1.28123 0.315685 -4.18134e-20)
(1.2776 0.311165 -1.67217e-20)
(1.274 0.306516 -1.46489e-19)
(1.27094 0.30207 4.48701e-20)
(0.0671943 0.000765769 -3.56403e-20)
(0.230827 0.0158306 9.56449e-20)
(0.412159 0.0530997 1.49122e-20)
(0.595537 0.101595 6.25548e-20)
(0.766607 0.153468 2.98507e-20)
(0.914865 0.202857 1.39928e-20)
(1.03492 0.245639 7.93408e-20)
(1.12613 0.279733 -9.62844e-21)
(1.19122 0.304819 3.49968e-20)
(1.23469 0.321735 5.6242e-20)
(1.26152 0.331892 2.71485e-20)
(1.27633 0.336844 1.9495e-20)
(1.28295 0.338015 7.90672e-20)
(1.28431 0.336579 -7.65404e-20)
(1.28252 0.333427 1.64325e-20)
(1.27903 0.329204 -1.53937e-20)
(1.27479 0.324337 2.3816e-20)
(1.27043 0.319112 1.99577e-20)
(1.26639 0.313944 4.16933e-20)
(1.26304 0.309037 1.75394e-21)
(0.0800705 0.00355568 2.11283e-20)
(0.264475 0.0259503 1.92995e-20)
(0.460557 0.0712506 -2.67176e-20)
(0.65185 0.126472 1.66953e-20)
(0.823999 0.182636 9.43375e-21)
(0.967694 0.233629 -2.93471e-20)
(1.0795 0.275722 9.68641e-21)
(1.16083 0.307563 1.74658e-21)
(1.21604 0.32959 1.67108e-20)
(1.2507 0.34325 -4.48134e-20)
(1.2703 0.350359 -1.40062e-22)
(1.27954 0.352673 1.2426e-20)
(1.28208 0.351679 -9.90202e-21)
(1.28059 0.348521 1.0019e-20)
(1.27688 0.344026 2.61549e-20)
(1.27213 0.338757 -1.48848e-20)
(1.26711 0.333068 4.14194e-21)
(1.26228 0.327198 1.63149e-20)
(1.25797 0.32155 -2.69007e-20)
(1.25447 0.316197 1.29121e-20)
(0.0935878 0.00732697 5.88973e-20)
(0.298693 0.0384477 -3.20329e-20)
(0.508275 0.0923408 3.77215e-20)
(0.705501 0.154087 -2.80684e-20)
(0.876642 0.213824 -1.2591e-20)
(1.01414 0.265509 3.80605e-21)
(1.11684 0.306085 -1.23607e-20)
(1.18819 0.33508 4.44603e-20)
(1.23405 0.353726 -3.7028e-20)
(1.2608 0.364039 8.68938e-21)
(1.27419 0.36816 -6.4756e-21)
(1.27886 0.367979 -4.22004e-20)
(1.27821 0.364984 4.09393e-20)
(1.27458 0.360258 1.55917e-20)
(1.26948 0.354541 -1.55118e-20)
(1.26387 0.348315 3.64208e-20)
(1.25834 0.341864 -5.33338e-22)
(1.25324 0.335386 -3.53447e-20)
(1.24879 0.329277 2.61874e-20)
(1.24522 0.32348 8.25887e-21)
(0.107556 0.0121438 -2.06383e-20)
(0.332921 0.0533509 5.98554e-20)
(0.554487 0.116238 6.91633e-20)
(0.755618 0.184135 -3.26323e-20)
(0.923861 0.246631 5.67812e-20)
(1.05391 0.298105 8.98698e-20)
(1.14702 0.336424 -4.94859e-21)
(1.20865 0.362102 -1.54347e-20)
(1.2459 0.377157 7.62484e-20)
(1.2657 0.384111 3.71827e-20)
(1.27391 0.385349 -6.74979e-21)
(1.27492 0.382825 5.54447e-20)
(1.27182 0.377982 -5.94712e-20)
(1.26662 0.371817 9.26093e-20)
(1.26057 0.364974 -1.54512e-20)
(1.2544 0.357854 4.42736e-20)
(1.24858 0.350679 7.98385e-21)
(1.24336 0.343615 3.16931e-20)
(1.23888 0.337056 -3.01677e-20)
(1.23532 0.330804 7.26335e-21)
(0.12176 0.0180457 -3.21214e-20)
(0.366573 0.0706209 7.62346e-20)
(0.598405 0.142729 5.66383e-20)
(0.801446 0.216252 -8.58365e-21)
(0.965159 0.280637 8.82657e-20)
(1.08685 0.331044 -6.59242e-20)
(1.17028 0.366471 -5.17405e-21)
(1.2227 0.388475 5.82231e-20)
(1.2522 0.399826 1.84996e-20)
(1.26606 0.40347 2.58843e-20)
(1.27002 0.401957 -3.82252e-20)
(1.26818 0.397241 9.96871e-20)
(1.26327 0.390688 1.86186e-20)
(1.25698 0.383188 -8.83163e-20)
(1.2503 0.375292 1.29056e-19)
(1.24383 0.367323 -1.52286e-19)
(1.23788 0.359447 -6.99245e-20)
(1.23265 0.351812 1.15858e-20)
(1.22821 0.344801 6.79193e-20)
(1.22473 0.338084 -1.28043e-19)
(0.135968 0.0250446 -7.23025e-20)
(0.399065 0.0901508 -1.70565e-19)
(0.639303 0.171531 -1.47482e-19)
(0.842368 0.250031 -2.00843e-19)
(1.00021 0.315419 -1.13967e-19)
(1.113 0.363972 -2.36347e-19)
(1.18694 0.395981 3.00292e-20)
(1.23085 0.414065 -1.25561e-19)