1.275 	2.15223e-18 	-2.76991e-20 	-0.150732 	0.00674225 	-2.80136e-22
1.825 	2.15223e-18 	-1.39322e-20 	-0.353356 	0.00748192 	4.15505e-21
2.375 	2.15223e-18 	-2.66896e-23 	-0.458308 	0.00345474 	-2.10664e-21
