/*--------------------------------*- C++ -*----------------------------------*\
  =========                 |
  \\      /  F ield         | OpenFOAM: The Open Source CFD Toolbox
   \\    /   O peration     | Website:  https://openfoam.org
    \\  /    A nd           | Version:  6.0
     \\/     M anipulation  |
\*---------------------------------------------------------------------------*/
FoamFile
{
    version     2.0;
    format      ascii;
    class       volScalarField;
    location    "6.2";
    object      p;
}
// * * * * * * * * * * * * * * * * * * * * * * * * * * * * * * * * * * * * * //

dimensions      [0 2 -2 0 0 0 0];

internalField   nonuniform List<scalar> 
8000
(
-0.331273
-0.334438
-0.336395
-0.337863
-0.339271
-0.340707
-0.34222
-0.343837
-0.345563
-0.347387
-0.349296
-0.351272
-0.353296
-0.355351
-0.357427
-0.359527
-0.36161
-0.363498
-0.365246
-0.368394
-0.331901
-0.334969
-0.336875
-0.338315
-0.339702
-0.341122
-0.342622
-0.34423
-0.345947
-0.347766
-0.349669
-0.351641
-0.353661
-0.355713
-0.357786
-0.359883
-0.361965
-0.363853
-0.365592
-0.368734
-0.333135
-0.336013
-0.337821
-0.339202
-0.340547
-0.341934
-0.343409
-0.344997
-0.346698
-0.348503
-0.350395
-0.352357
-0.354369
-0.356413
-0.358479
-0.36057
-0.36265
-0.364537
-0.366259
-0.369387
-0.334908
-0.337516
-0.33918
-0.340476
-0.341756
-0.343092
-0.344527
-0.346081
-0.347754
-0.349535
-0.351406
-0.35335
-0.355345
-0.357374
-0.359426
-0.361504
-0.363576
-0.365459
-0.367155
-0.370255
-0.33713
-0.3394
-0.340882
-0.342067
-0.343259
-0.344525
-0.345901
-0.347404
-0.349034
-0.350775
-0.352612
-0.354523
-0.356489
-0.358491
-0.360516
-0.362569
-0.364623
-0.366495
-0.368153
-0.37121
-0.339691
-0.341577
-0.342845
-0.343894
-0.344975
-0.346148
-0.347443
-0.348875
-0.35044
-0.352122
-0.353904
-0.355764
-0.357682
-0.359638
-0.36162
-0.363631
-0.365651
-0.3675
-0.369109
-0.372106
-0.342476
-0.34395
-0.344982
-0.345872
-0.346819
-0.347874
-0.349063
-0.350398
-0.351872
-0.35347
-0.355171
-0.356955
-0.358801
-0.360688
-0.362603
-0.364551
-0.366517
-0.368327
-0.369874
-0.372793
-0.345369
-0.346426
-0.347209
-0.347922
-0.348711
-0.349622
-0.350677
-0.351884
-0.353237
-0.354719
-0.35631
-0.357987
-0.359731
-0.36152
-0.363342
-0.3652
-0.367087
-0.368839
-0.370311
-0.373136
-0.348266
-0.348924
-0.349454
-0.349973
-0.350583
-0.351322
-0.352212
-0.353259
-0.354456
-0.355788
-0.357233
-0.358771
-0.36038
-0.362039
-0.363736
-0.365474
-0.367255
-0.368924
-0.370306
-0.373028
-0.351082
-0.351375
-0.351657
-0.351973
-0.352383
-0.352923
-0.353616
-0.354469
-0.355475
-0.356621
-0.357885
-0.359247
-0.360686
-0.362182
-0.363721
-0.365308
-0.36695
-0.368508
-0.369785
-0.372397
-0.353755
-0.353733
-0.353781
-0.353886
-0.354078
-0.354395
-0.354862
-0.355487
-0.356268
-0.357192
-0.358241
-0.359394
-0.36063
-0.361929
-0.363278
-0.36468
-0.36615
-0.367564
-0.368711
-0.371207
-0.356249
-0.355973
-0.355807
-0.355697
-0.355658
-0.35573
-0.355943
-0.356313
-0.356838
-0.357511
-0.358316
-0.359231
-0.360236
-0.36131
-0.362438
-0.363623
-0.364884
-0.366112
-0.367088
-0.369449
-0.35856
-0.358093
-0.357735
-0.357411
-0.35713
-0.35694
-0.35688
-0.35697
-0.357217
-0.357617
-0.358156
-0.358813
-0.359568
-0.360396
-0.361279
-0.362218
-0.36323
-0.364216
-0.364951
-0.367122
-0.36071
-0.360114
-0.359586
-0.359051
-0.358521
-0.358058
-0.357709
-0.357505
-0.35746
-0.357574
-0.357836
-0.358228
-0.358723
-0.359296
-0.359918
-0.360583
-0.361302
-0.361975
-0.362357
-0.364217
-0.36275
-0.362078
-0.361398
-0.360654
-0.359873
-0.35913
-0.358485
-0.35798
-0.357638
-0.357464
-0.357451
-0.357578
-0.357817
-0.358133
-0.358488
-0.358856
-0.359234
-0.359505
-0.359373
-0.360706
-0.364752
-0.364042
-0.363224
-0.362272
-0.361238
-0.360214
-0.359273
-0.358469
-0.357833
-0.357379
-0.357099
-0.356973
-0.356967
-0.357034
-0.357119
-0.357172
-0.35716
-0.356931
-0.356094
-0.356578
-0.366809
-0.366082
-0.36513
-0.363969
-0.362682
-0.361377
-0.360145
-0.35905
-0.358132
-0.35741
-0.356878
-0.356514
-0.356276
-0.356105
-0.355922
-0.355643
-0.355194
-0.35438
-0.35266
-0.351906
-0.369027
-0.36828
-0.367187
-0.365814
-0.364274
-0.362694
-0.36118
-0.359805
-0.35862
-0.357645
-0.356878
-0.356291
-0.355834
-0.355432
-0.354979
-0.354348
-0.353408
-0.351906
-0.349127
-0.346677
-0.371517
-0.370725
-0.369476
-0.367881
-0.366087
-0.364238
-0.362451
-0.360812
-0.359375
-0.358164
-0.357177
-0.356384
-0.355725
-0.355111
-0.354412
-0.353455
-0.352024
-0.349741
-0.345596
-0.340799
-0.37439
-0.373506
-0.372074
-0.370245
-0.368193
-0.36608
-0.364031
-0.362141
-0.360466
-0.359034
-0.357842
-0.356859
-0.356027
-0.35526
-0.354436
-0.353394
-0.351912
-0.349515
-0.344875
-0.338772
-0.377747
-0.376707
-0.375056
-0.372975
-0.370659
-0.368282
-0.36598
-0.363848
-0.361947
-0.360302
-0.358912
-0.357746
-0.356756
-0.35588
-0.355046
-0.354202
-0.353336
-0.352479
-0.35205
-0.35666
-0.381677
-0.380402
-0.378488
-0.376132
-0.37354
-0.370898
-0.368345
-0.365977
-0.363853
-0.361994
-0.360397
-0.359032
-0.357858
-0.356826
-0.3559
-0.355072
-0.354397
-0.354017
-0.354321
-0.357969
-0.38625
-0.384654
-0.382427
-0.379767
-0.376883
-0.373968
-0.371162
-0.368557
-0.366204
-0.364118
-0.362291
-0.360689
-0.359273
-0.358002
-0.356851
-0.355822
-0.354969
-0.354394
-0.354293
-0.355771
-0.391522
-0.389515
-0.38692
-0.383925
-0.380729
-0.377528
-0.37446
-0.371605
-0.369005
-0.366665
-0.364563
-0.362663
-0.360918
-0.359289
-0.357749
-0.356293
-0.354944
-0.353743
-0.352779
-0.352335
-0.397533
-0.395024
-0.392008
-0.388644
-0.385111
-0.381607
-0.378258
-0.375132
-0.372253
-0.369609
-0.367166
-0.364877
-0.362692
-0.360567
-0.358472
-0.356396
-0.354339
-0.352306
-0.350347
-0.348342
-0.404313
-0.401216
-0.397724
-0.393957
-0.390061
-0.38623
-0.382575
-0.379141
-0.375929
-0.37291
-0.370033
-0.367242
-0.364484
-0.36172
-0.358922
-0.35608
-0.353195
-0.350265
-0.347333
-0.34417
-0.411881
-0.408115
-0.404101
-0.399898
-0.395612
-0.391425
-0.387424
-0.383626
-0.380005
-0.37651
-0.373079
-0.369652
-0.366182
-0.36264
-0.359014
-0.355309
-0.351537
-0.347713
-0.343878
-0.339821
-0.420249
-0.415743
-0.411163
-0.406497
-0.401792
-0.397209
-0.392806
-0.388565
-0.38443
-0.380332
-0.376203
-0.371992
-0.367669
-0.363227
-0.358679
-0.354052
-0.349378
-0.344691
-0.340033
-0.335258
-0.429419
-0.42411
-0.418931
-0.413776
-0.408618
-0.403589
-0.398705
-0.393912
-0.389127
-0.384271
-0.379287
-0.374142
-0.368836
-0.363395
-0.357861
-0.352285
-0.346717
-0.341207
-0.335793
-0.330389
-0.439379
-0.433216
-0.427412
-0.421744
-0.416093
-0.410545
-0.405075
-0.399589
-0.393989
-0.388203
-0.382198
-0.375977
-0.369581
-0.36307
-0.356516
-0.349989
-0.343553
-0.33726
-0.331142
-0.325154
-0.450097
-0.443041
-0.436595
-0.430389
-0.424188
-0.418027
-0.411832
-0.405482
-0.398881
-0.391984
-0.3848
-0.377382
-0.369815
-0.362194
-0.354613
-0.347155
-0.339883
-0.332849
-0.326069
-0.31952
-0.461518
-0.453543
-0.446443
-0.439669
-0.432844
-0.425942
-0.418852
-0.411442
-0.403642
-0.395457
-0.386956
-0.378248
-0.369462
-0.360721
-0.35213
-0.343773
-0.335708
-0.327973
-0.320568
-0.313477
-0.473553
-0.464649
-0.456888
-0.449502
-0.441954
-0.434155
-0.425972
-0.417289
-0.408093
-0.398461
-0.388535
-0.37848
-0.368459
-0.358613
-0.349047
-0.339837
-0.331024
-0.322632
-0.314639
-0.30703
-0.486077
-0.476251
-0.467822
-0.459766
-0.451367
-0.442484
-0.432987
-0.422817
-0.412044
-0.400838
-0.389415
-0.37799
-0.366749
-0.355836
-0.345345
-0.335334
-0.325825
-0.316822
-0.308276
-0.300183
-0.498927
-0.488201
-0.479096
-0.470291
-0.460883
-0.450705
-0.439667
-0.427806
-0.415305
-0.402436
-0.389484
-0.376701
-0.364281
-0.352355
-0.340999
-0.330245
-0.320095
-0.310528
-0.301472
-0.292934
-0.511895
-0.500309
-0.490515
-0.480857
-0.470259
-0.458557
-0.445757
-0.432028
-0.417689
-0.403111
-0.388638
-0.374539
-0.361
-0.34813
-0.335977
-0.324543
-0.313808
-0.303729
-0.294207
-0.285275
-0.524733
-0.512343
-0.501836
-0.491202
-0.479211
-0.465757
-0.450993
-0.43526
-0.419019
-0.402732
-0.38678
-0.371433
-0.356853
-0.343117
-0.330239
-0.318192
-0.306933
-0.296397
-0.286458
-0.277185
-0.537156
-0.524029
-0.512775
-0.50102
-0.487423
-0.472002
-0.455111
-0.437286
-0.419129
-0.401174
-0.383819
-0.367313
-0.351782
-0.337265
-0.323738
-0.311149
-0.299429
-0.288493
-0.27819
-0.268636
-0.548839
-0.535054
-0.52301
-0.509973
-0.494563
-0.476988
-0.457853
-0.437903
-0.417866
-0.398324
-0.379666
-0.362106
-0.345725
-0.330517
-0.316425
-0.303366
-0.291252
-0.279978
-0.269368
-0.259597
-0.559433
-0.545077
-0.532187
-0.517704
-0.500288
-0.480416
-0.458979
-0.436927
-0.415092
-0.394076
-0.374237
-0.355741
-0.338617
-0.322815
-0.308243
-0.294792
-0.282356
-0.270807
-0.25995
-0.250028
-0.568567
-0.55373
-0.539934
-0.523843
-0.504262
-0.482004
-0.458266
-0.43419
-0.410681
-0.388331
-0.367451
-0.348147
-0.330395
-0.3141
-0.299138
-0.285376
-0.272692
-0.260937
-0.249897
-0.239894
-0.575858
-0.560634
-0.545867
-0.528025
-0.506164
-0.481491
-0.455517
-0.429545
-0.404519
-0.380999
-0.359232
-0.339257
-0.320996
-0.304315
-0.289057
-0.27507
-0.262216
-0.250325
-0.239171
-0.229158
-0.580923
-0.565406
-0.549608
-0.529898
-0.505698
-0.478649
-0.450559
-0.422863
-0.39651
-0.372001
-0.349508
-0.329006
-0.310363
-0.293405
-0.27795
-0.263828
-0.250886
-0.238935
-0.227737
-0.217788
-0.583393
-0.567675
-0.550795
-0.52914
-0.502602
-0.473278
-0.443249
-0.414039
-0.386569
-0.361264
-0.338218
-0.317338
-0.298443
-0.281324
-0.265775
-0.251611
-0.238668
-0.226734
-0.215568
-0.205758
-0.582917
-0.567088
-0.549092
-0.525464
-0.496652
-0.465217
-0.433472
-0.402986
-0.374627
-0.34873
-0.325308
-0.304204
-0.285191
-0.26803
-0.252496
-0.238389
-0.225533
-0.213698
-0.202642
-0.193048
-0.579178
-0.563327
-0.544205
-0.518626
-0.48767
-0.45434
-0.421139
-0.38964
-0.360631
-0.334353
-0.310737
-0.289565
-0.270572
-0.253493
-0.238084
-0.224136
-0.211461
-0.199811
-0.188947
-0.179648
-0.5719
-0.556114
-0.535884
-0.508432
-0.475519
-0.440561
-0.406192
-0.373957
-0.344546
-0.3181
-0.294473
-0.273394
-0.254563
-0.237692
-0.222523
-0.208838
-0.196441
-0.185063
-0.174478
-0.165553
-0.560855
-0.545222
-0.523934
-0.494741
-0.460113
-0.423828
-0.388603
-0.355918
-0.326354
-0.299955
-0.276502
-0.255677
-0.23715
-0.220615
-0.205803
-0.19249
-0.180469
-0.169457
-0.159239
-0.150766
-0.545873
-0.530482
-0.50822
-0.47747
-0.441412
-0.404129
-0.368371
-0.335525
-0.306058
-0.279918
-0.256821
-0.23641
-0.21833
-0.202262
-0.187927
-0.175096
-0.163554
-0.153002
-0.143243
-0.1353
-0.526842
-0.511784
-0.488665
-0.456588
-0.419421
-0.381489
-0.345525
-0.312805
-0.283677
-0.258004
-0.235444
-0.215605
-0.198115
-0.182643
-0.168906
-0.156669
-0.145711
-0.13572
-0.126516
-0.119184
-0.503717
-0.489085
-0.465259
-0.432121
-0.39419
-0.355966
-0.320121
-0.287806
-0.259254
-0.234247
-0.212396
-0.193284
-0.176524
-0.161777
-0.148758
-0.137229
-0.126963
-0.117639
-0.109094
-0.10246
-0.476515
-0.462404
-0.43805
-0.404149
-0.365815
-0.327654
-0.292245
-0.260602
-0.232849
-0.208699
-0.187722
-0.169483
-0.153586
-0.13969
-0.127506
-0.116799
-0.107335
-0.0987875
-0.0910148
-0.0851758
-0.445321
-0.431829
-0.407147
-0.372802
-0.334431
-0.296683
-0.26201
-0.23129
-0.204545
-0.181427
-0.161477
-0.144247
-0.129339
-0.116411
-0.105178
-0.0954023
-0.086849
-0.0791936
-0.0723127
-0.067353
-0.410279
-0.397507
-0.372716
-0.338257
-0.300213
-0.263211
-0.229558
-0.199993
-0.174445
-0.152518
-0.133732
-0.117635
-0.103829
-0.0919767
-0.0817978
-0.0730593
-0.0655263
-0.058883
-0.0530107
-0.0489795
-0.371596
-0.359644
-0.334977
-0.300739
-0.263373
-0.227433
-0.19506
-0.166858
-0.142677
-0.12208
-0.104576
-0.0897138
-0.077104
-0.0664188
-0.0573866
-0.0497821
-0.0433782
-0.0378703
-0.0331177
-0.0300532
-0.329536
-0.318502
-0.294198
-0.260511
-0.224158
-0.189571
-0.158712
-0.13206
-0.109391
-0.0902414
-0.0741156
-0.0605695
-0.0492271
-0.0397763
-0.0319619
-0.025572
-0.0203928
-0.0161377
-0.0126423
-0.0107152
-0.28441
-0.274392
-0.250688
-0.217872
-0.182846
-0.149877
-0.120742
-0.0957986
-0.0747652
-0.057156
-0.0424793
-0.0303043
-0.0202742
-0.0121007
-0.00555324
-0.000436655
0.00344494
0.00631949
0.00828334
0.00860617
-0.236578
-0.227666
-0.204797
-0.173154
-0.139745
-0.108629
-0.0814003
-0.0583025
-0.0390021
-0.0230009
-0.00981435
0.000970043
0.00968288
0.0165772
0.021848
0.0256682
0.0281904
0.0294565
0.0293236
0.0274507
-0.186432
-0.178712
-0.156902
-0.126717
-0.095184
-0.0661333
-0.0409683
-0.0198297
-0.00233934
0.0120112
0.0236996
0.0331226
0.0405855
0.0463047
0.0504366
0.0531222
0.0543925
0.0538728
0.0510575
0.0469627
-0.1344
-0.127949
-0.107407
-0.0789381
-0.0495158
-0.0227134
0.000250181
0.0193304
0.0349444
0.0476102
0.0578039
0.0659188
0.072256
0.07703
0.0804101
0.0825553
0.0833621
0.0819405
0.0775607
0.0731361
-0.0809303
-0.0758141
-0.0567336
-0.0302122
-0.00310361
0.0212918
0.041935
0.058868
0.0725395
0.0834737
0.0921462
0.0989528
0.104209
0.108167
0.111084
0.113248
0.114624
0.11418
0.111657
0.115666
-0.0264795
-0.0227569
-0.00531008
0.0190612
0.043683
0.065539
0.0837621
0.0984704
0.110136
0.119282
0.126376
0.131806
0.135886
0.13888
0.141061
0.1427
0.143779
0.143802
0.14371
0.149924
0.0284798
0.030763
0.0464278
0.0684794
0.0904743
0.109687
0.125412
0.137833
0.147438
0.154745
0.16021
0.164209
0.167049
0.168993
0.170299
0.171195
0.171656
0.171377
0.171307
0.17635
0.0834747
0.0842859
0.098047
0.117644
0.136907
0.153401
0.166573
0.176663
0.184166
0.189589
0.193369
0.195867
0.197374
0.198141
0.198404
0.198367
0.198021
0.197131
0.196478
0.199948
0.138037
0.137357
0.149121
0.166166
0.182627
0.196359
0.206951
0.214688
0.220067
0.223579
0.225641
0.226592
0.226704
0.226206
0.225309
0.224187
0.222816
0.220994
0.219437
0.221449
0.191705
0.189531
0.199235
0.213666
0.227292
0.238252
0.246264
0.251651
0.254907
0.256503
0.256833
0.256214
0.254896
0.253088
0.250977
0.248708
0.246243
0.243402
0.240863
0.241479
0.244034
0.240374
0.247985
0.25978
0.270576
0.278786
0.284247
0.287313
0.28847
0.288168
0.286777
0.284591
0.281839
0.278707
0.275361
0.27192
0.268338
0.264461
0.260939
0.260238
0.294591
0.289472
0.294989
0.304162
0.312167
0.317681
0.320649
0.321448
0.320555
0.318397
0.31532
0.311595
0.30743
0.302993
0.298427
0.293831
0.289154
0.284271
0.279793
0.277843
0.342965
0.336429
0.339879
0.346481
0.351771
0.354675
0.355234
0.353846
0.350974
0.347024
0.342318
0.337103
0.33157
0.325867
0.32012
0.31441
0.308684
0.302842
0.297451
0.294317
0.388766
0.380869
0.38231
0.386428
0.38911
0.389517
0.387779
0.384306
0.379549
0.373891
0.36763
0.360996
0.354158
0.347249
0.340377
0.333609
0.326895
0.320156
0.313899
0.30965
0.43163
0.422441
0.421961
0.423712
0.423925
0.421977
0.418075
0.412642
0.406113
0.398848
0.391126
0.383157
0.375092
0.36705
0.359125
0.351368
0.343736
0.336165
0.329099
0.323806
0.471217
0.460823
0.458533
0.458065
0.455975
0.451839
0.44593
0.438679
0.430506
0.421753
0.412679
0.403473
0.394273
0.385184
0.376285
0.367618
0.359144
0.350812
0.342998
0.336737
0.507217
0.495714
0.491752
0.489242
0.485041
0.478904
0.471163
0.462255
0.452585
0.442476
0.432168
0.421836
0.411603
0.401562
0.391778
0.382286
0.373052
0.364034
0.355538
0.348393
0.53935
0.526849
0.521373
0.517021
0.510924
0.502993
0.493614
0.483223
0.472214
0.460892
0.449483
0.438145
0.426991
0.416099
0.405527
0.395301
0.385393
0.375766
0.36666
0.358721
0.567365
0.553987
0.547176
0.541205
0.533446
0.523947
0.513135
0.50145
0.489272
0.476893
0.464523
0.452308
0.44035
0.428718
0.417459
0.406596
0.396103
0.385949
0.376307
0.367672
0.591047
0.576923
0.568973
0.561623
0.552454
0.541626
0.529602
0.516821
0.503655
0.490382
0.477198
0.464242
0.451605
0.439348
0.42751
0.416108
0.405124
0.394525
0.38443
0.375202
0.610214
0.595483
0.586604
0.578132
0.567818
0.555913
0.542906
0.529238
0.515272
0.501274
0.487433
0.473877
0.46069
0.447927
0.435621
0.423785
0.412403
0.401446
0.390982
0.381273
0.624718
0.609525
0.599939
0.590616
0.579432
0.566711
0.55296
0.538621
0.524049
0.509503
0.495164
0.481154
0.467552
0.454407
0.441746
0.429582
0.417901
0.406673
0.395929
0.385854
0.634447
0.618944
0.608882
0.598986
0.587219
0.573949
0.559699
0.544909
0.52993
0.515017
0.500344
0.48603
0.472149
0.458747
0.445849
0.433465
0.421583
0.410174
0.399241
0.38892
0.639329
0.623669
0.613368
0.603184
0.591123
0.577578
0.563078
0.548062
0.532879
0.517781
0.502941
0.488474
0.474453
0.460923
0.447906
0.435411
0.423429
0.411928
0.400901
0.390456
0.639324
0.623665
0.613364
0.60318
0.591119
0.577575
0.563074
0.548059
0.532876
0.517778
0.502938
0.488471
0.474451
0.46092
0.447903
0.435409
0.423426
0.411926
0.400899
0.390454
0.634434
0.618931
0.60887
0.598974
0.587207
0.573938
0.559689
0.5449
0.529921
0.515008
0.500336
0.486022
0.472141
0.45874
0.445842
0.433458
0.421576
0.410167
0.399235
0.388914
0.624695
0.609503
0.599918
0.590596
0.579414
0.566693
0.552944
0.538605
0.524034
0.509489
0.49515
0.481141
0.467539
0.454394
0.441734
0.42957
0.41789
0.406662
0.395918
0.385843
0.610183
0.595452
0.586574
0.578105
0.567792
0.555888
0.542883
0.529216
0.515251
0.501254
0.487414
0.473858
0.460672
0.44791
0.435604
0.423769
0.412388
0.401431
0.390968
0.381259
0.591007
0.576884
0.568935
0.561588
0.55242
0.541595
0.529572
0.516793
0.503628
0.490356
0.477173
0.464218
0.451582
0.439325
0.427488
0.416088
0.405104
0.394505
0.384411
0.375184
0.567316
0.553939
0.54713
0.541161
0.533405
0.523909
0.513099
0.501415
0.489239
0.476862
0.464492
0.452279
0.440322
0.428691
0.417433
0.406571
0.396079
0.385925
0.376284
0.36765
0.539292
0.526792
0.521318
0.516969
0.510876
0.502948
0.493571
0.483182
0.472175
0.460855
0.449447
0.438111
0.426958
0.416067
0.405496
0.395272
0.385364
0.375738
0.366633
0.358694
0.507151
0.495649
0.491689
0.489183
0.484986
0.478852
0.471114
0.462208
0.45254
0.442433
0.432127
0.421796
0.411565
0.401525
0.391742
0.382252
0.373019
0.364001
0.355507
0.348363
0.471142
0.460749
0.458462
0.457998
0.455912
0.451779
0.445874
0.438626
0.430456
0.421705
0.412632
0.403428
0.39423
0.385142
0.376244
0.367579
0.359106
0.350775
0.342963
0.336703
0.431546
0.422359
0.421882
0.423637
0.423855
0.421911
0.418013
0.412583
0.406056
0.398793
0.391074
0.383107
0.375044
0.367004
0.35908
0.351325
0.343694
0.336124
0.32906
0.323768
0.388673
0.380778
0.382223
0.386345
0.389033
0.389444
0.387709
0.384241
0.379487
0.373831
0.367573
0.360941
0.354105
0.347197
0.340328
0.333561
0.326849
0.320111
0.313856
0.309608
0.342863
0.336329
0.339783
0.346391
0.351686
0.354595
0.355158
0.353774
0.350906
0.346958
0.342255
0.337043
0.331512
0.325811
0.320066
0.314357
0.308633
0.302793
0.297403
0.294271
0.294481
0.289365
0.294885
0.304064
0.312075
0.317595
0.320567
0.32137
0.320481
0.318326
0.315252
0.31153
0.307367
0.302932
0.298368
0.293775
0.2891
0.284218
0.279741
0.277793
0.243916
0.240259
0.247874
0.259675
0.270477
0.278692
0.284158
0.287228
0.28839
0.288091
0.286704
0.28452
0.281771
0.278641
0.275298
0.271859
0.268279
0.264403
0.260883
0.260185
0.191579
0.189407
0.199116
0.213553
0.227186
0.238152
0.246169
0.251561
0.254821
0.256421
0.256754
0.256138
0.254824
0.253018
0.25091
0.248642
0.24618
0.24334
0.240803
0.241421
0.137902
0.137225
0.148994
0.166046
0.182513
0.196252
0.206849
0.214592
0.219976
0.223492
0.225557
0.226511
0.226626
0.226131
0.225237
0.224117
0.222749
0.220929
0.219373
0.221387
0.0833326
0.0841461
0.0979126
0.117517
0.136787
0.153287
0.166465
0.176561
0.184069
0.189496
0.19328
0.195781
0.197292
0.198061
0.198327
0.198293
0.197949
0.197061
0.19641
0.199883
0.0283298
0.0306155
0.0462858
0.0683447
0.0903472
0.109566
0.125298
0.137725
0.147335
0.154647
0.160116
0.164118
0.166962
0.168908
0.170217
0.171116
0.17158
0.171303
0.171235
0.17628
-0.0266371
-0.022912
-0.0054594
0.0189195
0.043549
0.0654124
0.0836422
0.0983564
0.110027
0.119178
0.126276
0.13171
0.135794
0.138791
0.140974
0.142617
0.143698
0.143724
0.143634
0.14985
-0.0810953
-0.0759766
-0.0568901
-0.0303609
-0.0032442
0.0211589
0.0418091
0.0587483
0.0724253
0.0833645
0.0920414
0.098852
0.104111
0.108073
0.110993
0.11316
0.114539
0.114097
0.111575
0.115587
-0.134572
-0.128118
-0.107571
-0.0790937
-0.0496629
-0.0228526
0.000118281
0.019205
0.0348248
0.0474957
0.057694
0.065813
0.072154
0.0769313
0.0803145
0.0824624
0.0832717
0.0818521
0.0774737
0.07305
-0.186612
-0.178889
-0.157072
-0.126879
-0.0953376
-0.0662785
-0.041106
-0.0199607
-0.00246432
0.0118916
0.0235848
0.033012
0.0404787
0.0462014
0.0503364
0.0530247
0.0542974
0.0537797
0.0509659
0.0468719
-0.236764
-0.22785
-0.204974
-0.173323
-0.139904
-0.10878
-0.0815437
-0.0584388
-0.0391323
-0.0231255
-0.00993403
0.000854791
0.0095716
0.0164695
0.0217434
0.0255665
0.0280912
0.0293595
0.0292284
0.0273567
-0.284603
-0.274582
-0.250872
-0.218047
-0.183012
-0.150034
-0.120891
-0.0959403
-0.0749004
-0.0572855
-0.0426036
-0.030424
-0.0203897
-0.0122126
-0.00566178
-0.000542206
0.00334208
0.00621907
0.00818505
0.00850942
-0.329735
-0.318699
-0.294388
-0.260692
-0.22433
-0.189734
-0.158867
-0.132207
-0.109531
-0.0903755
-0.0742443
-0.0606935
-0.0493468
-0.0398922
-0.0320742
-0.0256811
-0.0204991
-0.0162413
-0.0127436
-0.0108147
-0.371801
-0.359846
-0.335173
-0.300926
-0.26355
-0.227601
-0.195219
-0.16701
-0.142822
-0.122218
-0.104709
-0.0898419
-0.0772276
-0.0665384
-0.0575025
-0.0498947
-0.0434877
-0.037977
-0.0332219
-0.0301554
-0.410489
-0.397714
-0.372918
-0.33845
-0.300395
-0.263385
-0.229722
-0.200149
-0.174595
-0.152661
-0.133869
-0.117767
-0.103956
-0.0920998
-0.0819171
-0.073175
-0.0656389
-0.0589926
-0.0531177
-0.0490842
-0.445536
-0.432042
-0.407354
-0.372999
-0.334619
-0.296861
-0.262179
-0.231451
-0.204698
-0.181573
-0.161618
-0.144383
-0.12947
-0.116538
-0.1053
-0.0955211
-0.0869645
-0.079306
-0.0724222
-0.0674601
-0.476736
-0.462622
-0.438261
-0.404352
-0.366008
-0.327837
-0.292418
-0.260767
-0.233007
-0.208849
-0.187867
-0.169622
-0.15372
-0.139819
-0.127632
-0.116921
-0.107453
-0.0989024
-0.0911268
-0.0852852
-0.503942
-0.489307
-0.465475
-0.432328
-0.394387
-0.356153
-0.320298
-0.287975
-0.259415
-0.234402
-0.212544
-0.193426
-0.176661
-0.16191
-0.148886
-0.137354
-0.127084
-0.117756
-0.109208
-0.102572
-0.527071
-0.51201
-0.488886
-0.456799
-0.419622
-0.38168
-0.345707
-0.312978
-0.283842
-0.258162
-0.235595
-0.21575
-0.198255
-0.182779
-0.169037
-0.156796
-0.145834
-0.13584
-0.126632
-0.119298
-0.546104
-0.530712
-0.508444
-0.477685
-0.441617
-0.404325
-0.368557
-0.335702
-0.306226
-0.280079
-0.256976
-0.236558
-0.218474
-0.2024
-0.188061
-0.175225
-0.16368
-0.153124
-0.143361
-0.135416
-0.56109
-0.545455
-0.524161
-0.49496
-0.460322
-0.424027
-0.388792
-0.356098
-0.326526
-0.300119
-0.276659
-0.255828
-0.237295
-0.220755
-0.205939
-0.192622
-0.180597
-0.169581
-0.159359
-0.150883
-0.572137
-0.556349
-0.536114
-0.508653
-0.475731
-0.440762
-0.406384
-0.37414
-0.34472
-0.318267
-0.294633
-0.273548
-0.254711
-0.237835
-0.222661
-0.208972
-0.196571
-0.18519
-0.174601
-0.165672
-0.579417
-0.563564
-0.544437
-0.51885
-0.487884
-0.454545
-0.421333
-0.389826
-0.360808
-0.334522
-0.310899
-0.289721
-0.270723
-0.253639
-0.238225
-0.224272
-0.211593
-0.199939
-0.189072
-0.179769
-0.583157
-0.567326
-0.549326
-0.52569
-0.49687
-0.465424
-0.433669
-0.403175
-0.374806
-0.348902
-0.325473
-0.304362
-0.285343
-0.268178
-0.252638
-0.238527
-0.225667
-0.213828
-0.202768
-0.193171
-0.583634
-0.567913
-0.551029
-0.529368
-0.502821
-0.473487
-0.443449
-0.41423
-0.386751
-0.361438
-0.338385
-0.317499
-0.298597
-0.281473
-0.26592
-0.251751
-0.238804
-0.226866
-0.215696
-0.205882
-0.581164
-0.565645
-0.549843
-0.530127
-0.505918
-0.47886
-0.450761
-0.423056
-0.396694
-0.372177
-0.349677
-0.329169
-0.31052
-0.293556
-0.278096
-0.263969
-0.251023
-0.239068
-0.227866
-0.217913
-0.576097
-0.560871
-0.546102
-0.528253
-0.506385
-0.481704
-0.45572
-0.429739
-0.404705
-0.381177
-0.359403
-0.339421
-0.321155
-0.304468
-0.289204
-0.275213
-0.262354
-0.25046
-0.239301
-0.229285
-0.568805
-0.553966
-0.540168
-0.524071
-0.504483
-0.482217
-0.45847
-0.434385
-0.410868
-0.38851
-0.367624
-0.348313
-0.330555
-0.314255
-0.299287
-0.28552
-0.272832
-0.261073
-0.250029
-0.240022
-0.559669
-0.545311
-0.532419
-0.517931
-0.500509
-0.480629
-0.459184
-0.437124
-0.41528
-0.394256
-0.374411
-0.355908
-0.338778
-0.322971
-0.308393
-0.294937
-0.282497
-0.270944
-0.260083
-0.250158
-0.549072
-0.535286
-0.523239
-0.510199
-0.494782
-0.477201
-0.458059
-0.4381
-0.418055
-0.398506
-0.379841
-0.362274
-0.345887
-0.330674
-0.316576
-0.303513
-0.291395
-0.280116
-0.269502
-0.259727
-0.537386
-0.524257
-0.513002
-0.501243
-0.487641
-0.472214
-0.455316
-0.437483
-0.419319
-0.401357
-0.383995
-0.367482
-0.351946
-0.337423
-0.323892
-0.311297
-0.299573
-0.288633
-0.278326
-0.268768
-0.524961
-0.512568
-0.502059
-0.491422
-0.479427
-0.465967
-0.451198
-0.435458
-0.419209
-0.402915
-0.386957
-0.371604
-0.357018
-0.343277
-0.330393
-0.318342
-0.307078
-0.296537
-0.286594
-0.277317
-0.512118
-0.500531
-0.490734
-0.481075
-0.470473
-0.458766
-0.44596
-0.432225
-0.41788
-0.403296
-0.388816
-0.374711
-0.361166
-0.348291
-0.336132
-0.324694
-0.313954
-0.303871
-0.294345
-0.285408
-0.499146
-0.488419
-0.479312
-0.470504
-0.461094
-0.450911
-0.439869
-0.428002
-0.415496
-0.40262
-0.389662
-0.376873
-0.364448
-0.352517
-0.341156
-0.330397
-0.320242
-0.310671
-0.301611
-0.293069
-0.486293
-0.476464
-0.468034
-0.459976
-0.451574
-0.442688
-0.433187
-0.423012
-0.412234
-0.401023
-0.389594
-0.378163
-0.366917
-0.355999
-0.345504
-0.335487
-0.325974
-0.316966
-0.308417
-0.300319
-0.473764
-0.464858
-0.457095
-0.449708
-0.442157
-0.434356
-0.426169
-0.417483
-0.408282
-0.398645
-0.388714
-0.378654
-0.368628
-0.358777
-0.349207
-0.339992
-0.331175
-0.322779
-0.314781
-0.307168
-0.461725
-0.453748
-0.446646
-0.43987
-0.433043
-0.42614
-0.419047
-0.411634
-0.40383
-0.39564
-0.387135
-0.378423
-0.369632
-0.360886
-0.352291
-0.34393
-0.33586
-0.328121
-0.320712
-0.313617
-0.4503
-0.443242
-0.436794
-0.430587
-0.424384
-0.41822
-0.412023
-0.405671
-0.399067
-0.392167
-0.384978
-0.377557
-0.369986
-0.362361
-0.354776
-0.347313
-0.340037
-0.332998
-0.326215
-0.319661
-0.439577
-0.433413
-0.427607
-0.421937
-0.416284
-0.410735
-0.405263
-0.399775
-0.394173
-0.388385
-0.382376
-0.376152
-0.369753
-0.363239
-0.356681
-0.35015
-0.343709
-0.337412
-0.33129
-0.325298
-0.429613
-0.424303
-0.419122
-0.413965
-0.408806
-0.403775
-0.39889
-0.394095
-0.389308
-0.384451
-0.379464
-0.374317
-0.369009
-0.363565
-0.358028
-0.352448
-0.346877
-0.341362
-0.335944
-0.330535
-0.420439
-0.415932
-0.41135
-0.406682
-0.401976
-0.397391
-0.392987
-0.388745
-0.384609
-0.380509
-0.37638
-0.372167
-0.367843
-0.363399
-0.358848
-0.354218
-0.349541
-0.34485
-0.340187
-0.335408
-0.412068
-0.408301
-0.404284
-0.40008
-0.395792
-0.391603
-0.387601
-0.383802
-0.380181
-0.376686
-0.373254
-0.369827
-0.366356
-0.362813
-0.359185
-0.355478
-0.351704
-0.347876
-0.344037
-0.339975
-0.404497
-0.401398
-0.397905
-0.394135
-0.390238
-0.386405
-0.382749
-0.379314
-0.376102
-0.373083
-0.370206
-0.367416
-0.364659
-0.361894
-0.359096
-0.356253
-0.353366
-0.350433
-0.347497
-0.344329
-0.397714
-0.395204
-0.392186
-0.388819
-0.385284
-0.381778
-0.378429
-0.375302
-0.372423
-0.36978
-0.367338
-0.365051
-0.362867
-0.360744
-0.35865
-0.356574
-0.354516
-0.35248
-0.350516
-0.348506
-0.391701
-0.389692
-0.387096
-0.384099
-0.3809
-0.377698
-0.374628
-0.371773
-0.369173
-0.366834
-0.364734
-0.362836
-0.361094
-0.359468
-0.35793
-0.356476
-0.355127
-0.353924
-0.352957
-0.352506
-0.386428
-0.38483
-0.382601
-0.379939
-0.377052
-0.374135
-0.371328
-0.368722
-0.366369
-0.364286
-0.36246
-0.360863
-0.359451
-0.358184
-0.357036
-0.356011
-0.355159
-0.354584
-0.35448
-0.355951
-0.381854
-0.380578
-0.378661
-0.376302
-0.373707
-0.371063
-0.368509
-0.366141
-0.364017
-0.362161
-0.360566
-0.359206
-0.358037
-0.357011
-0.35609
-0.355267
-0.354596
-0.354218
-0.35452
-0.35816
-0.377925
-0.376882
-0.375229
-0.373145
-0.370826
-0.368446
-0.366143
-0.364011
-0.362111
-0.360468
-0.359081
-0.357921
-0.356937
-0.356067
-0.355241
-0.354404
-0.353544
-0.352692
-0.352264
-0.356869
-0.374568
-0.373681
-0.372247
-0.370415
-0.36836
-0.366244
-0.364194
-0.362303
-0.36063
-0.359201
-0.358013
-0.357036
-0.35621
-0.355451
-0.354636
-0.353602
-0.352131
-0.349742
-0.345113
-0.339018
-0.371697
-0.370901
-0.369649
-0.368051
-0.366254
-0.364403
-0.362615
-0.360976
-0.35954
-0.358332
-0.35735
-0.356563
-0.355911
-0.355306
-0.354618
-0.35367
-0.352251
-0.349979
-0.345847
-0.34106
-0.369208
-0.368456
-0.367361
-0.365984
-0.364441
-0.36286
-0.361344
-0.35997
-0.358787
-0.357815
-0.357053
-0.356473
-0.356025
-0.355632
-0.355189
-0.35457
-0.353642
-0.352153
-0.349388
-0.346948
-0.366991
-0.366259
-0.365303
-0.36414
-0.36285
-0.361544
-0.360311
-0.359216
-0.358301
-0.357583
-0.357057
-0.3567
-0.356471
-0.356309
-0.356138
-0.355872
-0.355436
-0.354634
-0.352929
-0.352186
-0.364935
-0.364221
-0.363399
-0.362443
-0.361407
-0.36038
-0.359439
-0.358637
-0.358004
-0.357554
-0.357281
-0.357163
-0.357166
-0.357244
-0.357341
-0.357407
-0.357408
-0.357194
-0.356371
-0.356867
-0.362934
-0.362256
-0.361572
-0.360825
-0.360041
-0.359297
-0.358653
-0.35815
-0.357811
-0.357642
-0.357636
-0.357772
-0.358021
-0.358348
-0.358714
-0.359096
-0.359487
-0.359773
-0.359657
-0.361002
-0.360895
-0.360292
-0.359759
-0.359221
-0.35869
-0.358225
-0.357877
-0.357675
-0.357634
-0.357754
-0.358024
-0.358424
-0.35893
-0.359514
-0.360149
-0.360827
-0.36156
-0.362247
-0.362646
-0.364518
-0.358744
-0.358269
-0.357906
-0.35758
-0.357297
-0.357107
-0.357048
-0.35714
-0.357392
-0.357798
-0.358345
-0.359012
-0.359777
-0.360617
-0.361512
-0.362464
-0.36349
-0.364491
-0.365243
-0.367426
-0.35643
-0.356145
-0.355975
-0.355863
-0.355822
-0.355894
-0.356109
-0.356482
-0.357013
-0.357692
-0.358505
-0.359429
-0.360445
-0.361531
-0.362671
-0.36387
-0.365145
-0.366388
-0.36738
-0.369752
-0.353931
-0.353901
-0.353945
-0.354047
-0.354238
-0.354556
-0.355024
-0.355654
-0.35644
-0.357371
-0.358428
-0.359591
-0.360838
-0.362148
-0.363509
-0.364925
-0.366409
-0.367837
-0.369
-0.371507
-0.351252
-0.351537
-0.351815
-0.352128
-0.352537
-0.353078
-0.353774
-0.354631
-0.355643
-0.356795
-0.358068
-0.359439
-0.360889
-0.362396
-0.363947
-0.365547
-0.367203
-0.368775
-0.370068
-0.37269
-0.348428
-0.349077