/*--------------------------------*- C++ -*----------------------------------*\
  =========                 |
  \\      /  F ield         | OpenFOAM: The Open Source CFD Toolbox
   \\    /   O peration     | Website:  https://openfoam.org
    \\  /    A nd           | Version:  6.0
     \\/     M anipulation  |
\*---------------------------------------------------------------------------*/
FoamFile
{
    version     2.0;
    format      ascii;
    class       volScalarField;
    location    "75";
    object      p;
}
// * * * * * * * * * * * * * * * * * * * * * * * * * * * * * * * * * * * * * //

dimensions      [0 2 -2 0 0 0 0];

internalField   nonuniform List<scalar> 
8000
(
-0.403154
-0.404469
-0.405059
-0.405247
-0.405287
-0.405273
-0.40527
-0.405314
-0.405417
-0.405584
-0.405816
-0.406113
-0.406478
-0.406916
-0.407434
-0.408048
-0.40876
-0.409456
-0.410046
-0.411688
-0.40294
-0.404805
-0.405714
-0.406122
-0.406347
-0.406488
-0.406602
-0.406719
-0.406846
-0.406982
-0.407122
-0.407266
-0.407416
-0.40758
-0.407768
-0.408004
-0.408295
-0.408524
-0.408622
-0.409808
-0.403118
-0.405514
-0.406733
-0.40736
-0.407772
-0.408067
-0.408297
-0.408483
-0.408624
-0.40871
-0.408731
-0.408684
-0.408571
-0.408401
-0.408192
-0.407975
-0.407764
-0.407443
-0.406964
-0.407613
-0.403844
-0.406725
-0.408237
-0.409077
-0.409679
-0.410133
-0.410481
-0.410737
-0.410886
-0.41091
-0.410791
-0.410519
-0.410095
-0.409531
-0.408851
-0.408097
-0.407291
-0.406321
-0.405165
-0.405186
-0.405262
-0.408559
-0.410334
-0.411382
-0.412175
-0.412795
-0.413272
-0.413605
-0.413768
-0.413726
-0.413452
-0.412927
-0.412148
-0.411128
-0.409898
-0.408513
-0.407006
-0.405273
-0.403321
-0.402609
-0.407496
-0.411114
-0.413114
-0.414359
-0.415346
-0.416144
-0.416765
-0.417191
-0.41738
-0.417281
-0.416848
-0.416052
-0.414882
-0.413349
-0.411489
-0.409372
-0.407047
-0.404418
-0.401529
-0.399969
-0.410628
-0.414455
-0.416632
-0.418062
-0.419245
-0.420232
-0.421017
-0.421561
-0.421801
-0.421664
-0.421084
-0.420014
-0.41843
-0.416336
-0.413772
-0.41082
-0.407549
-0.403874
-0.399885
-0.397346
-0.414696
-0.418601
-0.420902
-0.422498
-0.423877
-0.425066
-0.426037
-0.426728
-0.427051
-0.426908
-0.426209
-0.42488
-0.422878
-0.420193
-0.416863
-0.412982
-0.408635
-0.403754
-0.398483
-0.394815
-0.419678
-0.423524
-0.425885
-0.427624
-0.429192
-0.430591
-0.431768
-0.432637
-0.43308
-0.432973
-0.432193
-0.430639
-0.428238
-0.424958
-0.420826
-0.415939
-0.410399
-0.404152
-0.397401
-0.392441
-0.425494
-0.429143
-0.431497
-0.433346
-0.435086
-0.436694
-0.438088
-0.439155
-0.439753
-0.439723
-0.438911
-0.437179
-0.43442
-0.430569
-0.425631
-0.419696
-0.412876
-0.405122
-0.3967
-0.390272
-0.432009
-0.435332
-0.437608
-0.439523
-0.441405
-0.443202
-0.444807
-0.446081
-0.44685
-0.446929
-0.446126
-0.444268
-0.441205
-0.436835
-0.431125
-0.424146
-0.416005
-0.406652
-0.396397
-0.388324
-0.439048
-0.441932
-0.444056
-0.445981
-0.447956
-0.449904
-0.45169
-0.45315
-0.454085
-0.454279
-0.453509
-0.451563
-0.448251
-0.443424
-0.437007
-0.429034
-0.419595
-0.408624
-0.396438
-0.386555
-0.446409
-0.448764
-0.450664
-0.452531
-0.454534
-0.456568
-0.458478
-0.460075
-0.461135
-0.461417
-0.460669
-0.458644
-0.455114
-0.449888
-0.44284
-0.43396
-0.423308
-0.410787
-0.396666
-0.384848
-0.453885
-0.455652
-0.457259
-0.458992
-0.460938
-0.462973
-0.464922
-0.466574
-0.467685
-0.46799
-0.467213
-0.465079
-0.461328
-0.455729
-0.448115
-0.438426
-0.426685
-0.412759
-0.396812
-0.382993
-0.461287
-0.462438
-0.463692
-0.465208
-0.467001
-0.468934
-0.470815
-0.472415
-0.473473
-0.473704
-0.472812
-0.4705
-0.466482
-0.460501
-0.452354
-0.441936
-0.429238
-0.414101
-0.396534
-0.380723
-0.468463
-0.468999
-0.46985
-0.471067
-0.472606
-0.474324
-0.476019
-0.477447
-0.478331
-0.478371
-0.477254
-0.474668
-0.470308
-0.463901
-0.455219
-0.444127
-0.430589
-0.414444
-0.395534
-0.37782
-0.475311
-0.475257
-0.475667
-0.476509
-0.477697
-0.479089
-0.480478
-0.481611
-0.482198
-0.481927
-0.480472
-0.477507
-0.472719
-0.465824
-0.456585
-0.444849
-0.43057
-0.413614
-0.393681
-0.374218
-0.481785
-0.481185
-0.481129
-0.48153
-0.482279
-0.483244
-0.484219
-0.484943
-0.48512
-0.484428
-0.48253
-0.479094
-0.473801
-0.466364
-0.456545
-0.444184
-0.429229
-0.411593
-0.390875
-0.369828
-0.487901
-0.486805
-0.486268
-0.486177
-0.486417
-0.48687
-0.487338
-0.487559
-0.487232
-0.486027
-0.483604
-0.479627
-0.473784
-0.465794
-0.455428
-0.442525
-0.427008
-0.408755
-0.387218
-0.364618
-0.493727
-0.492184
-0.49116
-0.49054
-0.490217
-0.490094
-0.489985
-0.489629
-0.488721
-0.486932
-0.483921
-0.479363
-0.472962
-0.464475
-0.453716
-0.440575
-0.425
-0.406794
-0.385225
-0.362273
-0.499378
-0.497422
-0.495911
-0.49474
-0.493819
-0.493078
-0.492339
-0.491349
-0.489803
-0.487369
-0.483719
-0.478543
-0.471585
-0.462655
-0.45166
-0.438617
-0.423663
-0.40701
-0.389306
-0.374554
-0.504996
-0.502646
-0.500645
-0.498912
-0.497376
-0.495989
-0.494588
-0.492921
-0.490684
-0.487552
-0.483207
-0.477368
-0.469819
-0.460432
-0.449191
-0.436201
-0.421695
-0.406043
-0.389951
-0.375821
-0.51074
-0.507988
-0.505495
-0.503197
-0.501039
-0.498994
-0.496905
-0.494524
-0.491548
-0.487659
-0.482556
-0.47599
-0.467794
-0.457897
-0.446345
-0.433298
-0.419024
-0.403884
-0.388353
-0.373657
-0.516764
-0.513583
-0.51059
-0.507727
-0.504948
-0.502234
-0.499436
-0.496302
-0.492531
-0.487815
-0.481879
-0.47451
-0.465589
-0.455104
-0.443147
-0.42991
-0.415658
-0.400703
-0.385378
-0.370401
-0.52321
-0.519551
-0.516044
-0.512617
-0.509215
-0.505824
-0.502288
-0.498352
-0.493719
-0.488097
-0.481238
-0.472979
-0.463253
-0.4521
-0.439656
-0.426133
-0.411788
-0.396893
-0.381706
-0.366667
-0.530192
-0.525992
-0.521949
-0.517956
-0.513926
-0.509838
-0.505525
-0.500726
-0.495149
-0.488525
-0.480649
-0.47141
-0.460801
-0.448917
-0.43593
-0.422067
-0.407579
-0.392714
-0.377692
-0.362828
-0.537791
-0.532979
-0.528375
-0.523807
-0.519134
-0.514316
-0.509171
-0.503428
-0.496808
-0.489078
-0.480086
-0.469785
-0.458232
-0.445571
-0.432009
-0.417785
-0.403141
-0.388302
-0.373462
-0.358855
-0.546055
-0.540557
-0.535364
-0.530204
-0.524861
-0.519263
-0.513208
-0.506421
-0.498646
-0.4897
-0.479498
-0.468064
-0.455521
-0.442061
-0.427916
-0.413329
-0.398528
-0.383715
-0.369056
-0.354732
-0.554994
-0.548742
-0.542932
-0.537156
-0.531099
-0.52465
-0.517585
-0.509634
-0.500581
-0.490307
-0.478809
-0.466189
-0.452632
-0.438369
-0.423649
-0.408706
-0.39375
-0.378951
-0.36445
-0.350375
-0.564586
-0.557524
-0.551067
-0.544642
-0.53781
-0.530415
-0.522216
-0.512963
-0.502501
-0.490794
-0.477931
-0.464092
-0.449516
-0.434464
-0.419185
-0.4039
-0.388787
-0.373987
-0.359608
-0.34573
-0.574774
-0.566859
-0.55973
-0.552612
-0.544924
-0.536463
-0.526982
-0.516278
-0.504276
-0.491044
-0.476765
-0.461695
-0.446116
-0.430301
-0.414489
-0.398875
-0.383604
-0.368782
-0.354485
-0.340747
-0.585471
-0.576677
-0.568852
-0.560985
-0.552336
-0.542662
-0.531735
-0.519422
-0.505759
-0.490928
-0.475208
-0.458918
-0.442367
-0.425826
-0.409511
-0.393584
-0.378154
-0.363291
-0.349037
-0.33539
-0.596552
-0.586871
-0.578328
-0.569642
-0.559903
-0.548846
-0.536295
-0.522222
-0.506793
-0.490315
-0.473155
-0.455676
-0.438199
-0.420977
-0.404194
-0.387971
-0.372382
-0.357464
-0.34322
-0.32963
-0.607858
-0.597299
-0.588016
-0.578421
-0.567441
-0.554816
-0.54046
-0.524489
-0.507218
-0.489074
-0.470499
-0.451883
-0.433538
-0.415685
-0.39847
-0.381973
-0.36623
-0.351247
-0.336992
-0.323437
-0.619194
-0.607785
-0.597733
-0.587123
-0.57473
-0.560341
-0.54401
-0.526027
-0.50687
-0.487074
-0.467135
-0.44745
-0.428302
-0.409875
-0.392268
-0.375521
-0.359634
-0.344585
-0.330307
-0.316779
-0.630326
-0.618108
-0.607255
-0.595505
-0.581514
-0.565168
-0.546713
-0.526642
-0.50559
-0.484188
-0.462959
-0.442285
-0.42241
-0.403468
-0.385513
-0.368544
-0.35253
-0.337421
-0.323117
-0.309622
-0.640985
-0.628014
-0.61632
-0.603289
-0.587509
-0.56903
-0.548336
-0.526139
-0.503225
-0.480292
-0.457867
-0.436296
-0.415774
-0.396382
-0.378126
-0.360969
-0.344851
-0.329695
-0.315373
-0.301926
-0.65087
-0.637213
-0.624628
-0.610167
-0.592413
-0.571651
-0.548646
-0.524334
-0.499628
-0.475267
-0.451756
-0.429392
-0.408308
-0.388533
-0.370029
-0.352722
-0.33653
-0.321351
-0.307027
-0.293652
-0.659653
-0.645383
-0.631852
-0.615807
-0.595914
-0.572762
-0.547424
-0.521053
-0.494663
-0.469
-0.444528
-0.421478
-0.399924
-0.379839
-0.361143
-0.343733
-0.327503
-0.312329
-0.298029
-0.284759
-0.666983
-0.652181
-0.637644
-0.619868
-0.597702
-0.5721
-0.544462
-0.516135
-0.4882
-0.461383
-0.436085
-0.412466
-0.390537
-0.370219
-0.351394
-0.333933
-0.317709
-0.302577
-0.288332
-0.275208
-0.672501
-0.657252
-0.641646
-0.622011
-0.597478
-0.569425
-0.539573
-0.509435
-0.480123
-0.452314
-0.426334
-0.40227
-0.380066
-0.359598
-0.340714
-0.323259
-0.307092
-0.292045
-0.277895
-0.264962
-0.675841
-0.66023
-0.6435
-0.621903
-0.594963
-0.564515
-0.532589
-0.500823
-0.470323
-0.4417
-0.415192
-0.390808
-0.368436
-0.347906
-0.329038
-0.311655
-0.295602
-0.280689
-0.266681
-0.253988
-0.676648
-0.660762
-0.642861
-0.619237
-0.589906
-0.557179
-0.523365
-0.490186
-0.458709
-0.429458
-0.40258
-0.378011
-0.355581
-0.335084
-0.316312
-0.299072
-0.283196
-0.268472
-0.254658
-0.242263
-0.674583
-0.658507
-0.639407
-0.613735
-0.58209
-0.547257
-0.511784
-0.477431
-0.445201
-0.415516
-0.388433
-0.363815
-0.341444
-0.321079
-0.30249
-0.285472
-0.269841
-0.255367
-0.241806
-0.229766
-0.669334
-0.653155
-0.632847
-0.605158
-0.571334
-0.53462
-0.49775
-0.462484
-0.429734
-0.399816
-0.372695
-0.34817
-0.325978
-0.305851
-0.287538
-0.270823
-0.255512
-0.241355
-0.22811
-0.216489
-0.660626
-0.644429
-0.622936
-0.593311
-0.557501
-0.519172
-0.481196
-0.445291
-0.412261
-0.382312
-0.355325
-0.331038
-0.309151
-0.28937
-0.271431
-0.255107
-0.240195
-0.226426
-0.213567
-0.20243
-0.648226
-0.632099
-0.609472
-0.578047
-0.540493
-0.500854
-0.462081
-0.42582
-0.392753
-0.362978
-0.336296
-0.312394
-0.290939
-0.271619
-0.254155
-0.238314
-0.223885
-0.21058
-0.198181
-0.187595
-0.631954
-0.615987
-0.592311
-0.559269
-0.520259
-0.47964
-0.440392
-0.404059
-0.371198
-0.341799
-0.315595
-0.292227
-0.271335
-0.252591
-0.235708
-0.220447
-0.206588
-0.193829
-0.181967
-0.172
-0.611685
-0.595969
-0.571362
-0.536933
-0.496789
-0.455539
-0.416143
-0.380022
-0.347603
-0.318782
-0.293226
-0.27054
-0.250342
-0.232292
-0.216098
-0.201517
-0.188319
-0.176191
-0.164949
-0.15567
-0.587354
-0.571985
-0.546596
-0.511048
-0.470116
-0.428594
-0.389374
-0.353742
-0.321998
-0.293948
-0.269207
-0.247348
-0.227975
-0.210739
-0.195344
-0.181544
-0.169104
-0.157697
-0.147163
-0.138642
-0.558955
-0.544032
-0.518041
-0.481672
-0.440316
-0.39888
-0.360155
-0.325278
-0.29443
-0.267338
-0.24357
-0.222681
-0.204261
-0.187958
-0.173471
-0.160557
-0.148973
-0.138386
-0.128656
-0.120972
-0.526548
-0.512174
-0.485783
-0.448914
-0.407505
-0.366508
-0.328581
-0.294712
-0.264967
-0.239007
-0.216366
-0.19658
-0.179236
-0.163979
-0.150511
-0.138587
-0.127961
-0.118296
-0.109476
-0.102717
-0.490253
-0.476533
-0.449963
-0.41293
-0.371835
-0.331618
-0.294776
-0.262148
-0.233699
-0.209031
-0.187655
-0.169097
-0.152944
-0.138842
-0.126496
-0.115664
-0.106099
-0.0974653
-0.0896684
-0.0839136
-0.450249
-0.43729
-0.410778
-0.37392
-0.333499
-0.294381
-0.25889
-0.227717
-0.200735
-0.177504
-0.157515
-0.140295
-0.125434
-0.112584
-0.101458
-0.0918164
-0.0834143
-0.0759271
-0.0692663
-0.0645599
-0.406774
-0.394681
-0.36847
-0.332124
-0.292721
-0.255002
-0.221102
-0.191573
-0.16621
-0.144537
-0.126039
-0.110248
-0.0967615
-0.085245
-0.075421
-0.0670589
-0.0599224
-0.0537003
-0.0482829
-0.0446562
-0.360115
-0.348992
-0.323328
-0.287822
-0.249759
-0.21371
-0.181615
-0.153896
-0.13028
-0.110266
-0.0933406
-0.079044
-0.0669917
-0.0568653
-0.0484053
-0.0413952
-0.0356134
-0.0307687
-0.0267265
-0.0243378
-0.310608
-0.300555
-0.275679
-0.241327
-0.204902
-0.170766
-0.140664
-0.114894
-0.0931281
-0.0748507
-0.0595524
-0.0467919
-0.0362057
-0.0275013
-0.0204449
-0.0148374
-0.010477
-0.00713474
-0.00473987
-0.00404821
-0.258629
-0.24974
-0.225886
-0.192981
-0.158462
-0.126456
-0.0985063
-0.0748011
-0.0549646
-0.0384729
-0.0248274
-0.0136079
-0.00447977
0.00281189
0.00846354
0.0126511
0.015529
0.0171332
0.0172995
0.0156817
-0.204588
-0.196949
-0.174338
-0.143149
-0.110779
-0.0810889
-0.055428
-0.0338813
-0.0160324
-0.00135136
0.0106503
0.0203744
0.0281274
0.0341248
0.0385221
0.0414602
0.0429636
0.0426353
0.0399519
0.0359592
-0.148922
-0.14261
-0.121446
-0.0922171
-0.062207
-0.0349948
-0.0117386
0.00757049
0.0233836
0.036237
0.0466156
0.0549157
0.0614381
0.0663947
0.0699532
0.0722699
0.0732229
0.0718744
0.0674836
0.0630795
-0.0920904
-0.0871704
-0.0676368
-0.040582
-0.0131137
0.0114844
0.0322376
0.0492387
0.0629666
0.0739612
0.0827049
0.0895959
0.0949491
0.0990171
0.102057
0.104361
0.105873
0.105502
0.102991
0.107312
-0.0345548
-0.0310829
-0.0133423
0.0113543
0.0361298
0.0580031
0.0761734
0.0908065
0.102401
0.111494
0.118557
0.12398
0.128076
0.13111
0.133355
0.135086
0.136269
0.13638
0.136408
0.143008
0.023209
0.0251901
0.0410011
0.0631893
0.0851537
0.104219
0.119747
0.131967
0.141389
0.148542
0.153885
0.157796
0.16058
0.1625
0.163815
0.164751
0.165272
0.165054
0.165097
0.170479
0.0807273
0.081189
0.0949616
0.114526
0.133596
0.149799
0.162649
0.172426
0.179647
0.184827
0.188405
0.190742
0.192129
0.192813
0.193033
0.19299
0.192664
0.191809
0.191241
0.194973
0.137532
0.136461
0.148115
0.164978
0.181105
0.194422
0.204583
0.211912
0.216924
0.220115
0.221905
0.22263
0.222563
0.221928
0.220939
0.219763
0.218371
0.216549
0.215043
0.217253
0.193167
0.190563
0.200051
0.214171
0.227343
0.237782
0.245272
0.25017
0.252986
0.254195
0.254191
0.253291
0.251742
0.24975
0.247501
0.245135
0.242608
0.239731
0.237207
0.237963
0.247189
0.243069
0.250373
0.261747
0.271988
0.279591
0.284454
0.286964
0.28762
0.286876
0.2851
0.282585
0.279556
0.276198
0.272674
0.269098
0.265417
0.26147
0.257929
0.257317
0.299174
0.29357
0.298701
0.307364
0.314734
0.319572
0.321882
0.322073
0.32063
0.317984
0.314481
0.310387
0.305908
0.301208
0.29643
0.291666
0.286858
0.281874
0.277346
0.275439
0.348716
0.341675
0.344678
0.3507
0.355292
0.357468
0.357325
0.355289
0.35183
0.347357
0.342191
0.336577
0.3307
0.324706
0.318717
0.31281
0.306926
0.30096
0.295491
0.292361
0.395434
0.387018
0.387967
0.391452
0.393393
0.393037
0.390566
0.386417
0.381048
0.374842
0.368098
0.36104
0.353835
0.346612
0.339477
0.33249
0.325596
0.31871
0.312354
0.308077
0.438971
0.429259
0.428253
0.429337
0.428782
0.426052
0.421402
0.415277
0.408119
0.400292
0.392072
0.383663
0.375216
0.366845
0.358639
0.350647
0.342818
0.335085
0.327901
0.322552
0.478998
0.46808
0.465247
0.464096
0.461229
0.456304
0.449644
0.441697
0.432892
0.423571
0.41399
0.404337
0.394747
0.385318
0.376128
0.367215
0.358533
0.350028
0.342082
0.335744
0.515214
0.503194
0.498684
0.49549
0.490519
0.483603
0.475119
0.465523
0.455225
0.444551
0.433738
0.422959
0.412333
0.401948
0.391869
0.382125
0.372677
0.363478
0.354841
0.347603
0.547348
0.534342
0.528327
0.523307
0.516461
0.507775
0.497673
0.486611
0.474989
0.463114
0.451209
0.43943
0.427886
0.416654
0.405787
0.395309
0.385185
0.375376
0.366123
0.35808
0.575159
0.561295
0.553967
0.547358
0.538886
0.528667
0.517164
0.504836
0.492069
0.479156
0.466305
0.453662
0.441326
0.429361
0.417814
0.406702
0.395996
0.385661
0.375872
0.367128
0.598442
0.583856
0.575423
0.56748
0.557647
0.546146
0.533474
0.520087
0.506364
0.492583
0.478942
0.465578
0.452578
0.440002
0.427886
0.416245
0.405054
0.394281
0.384041
0.374704
0.617025
0.601861
0.592543
0.583538
0.572621
0.560101
0.546499
0.532272
0.517788
0.503317
0.489048
0.475109
0.461582
0.448519
0.43595
0.423888
0.412312
0.401189
0.390588
0.380774
0.630768
0.615177
0.605209
0.595422
0.58371
0.570443
0.55616
0.541315
0.526273
0.511295
0.496565
0.482203
0.468287
0.454865
0.441962
0.429589
0.417728
0.406348
0.395478
0.385307
0.639571
0.623708
0.61333
0.603053
0.590843
0.577107
0.562395
0.547162
0.531768
0.51647
0.501448
0.486818
0.472655
0.459005
0.44589
0.433318
0.421275
0.40973
0.398685
0.388281
0.643368
0.627392
0.61685
0.606379
0.593971
0.58005
0.565166
0.549777
0.53424
0.518812
0.503669
0.488928
0.474663
0.460916
0.447711
0.435054
0.422933
0.411316
0.400194
0.389684
0.642132
0.626202
0.615745
0.605378
0.593076
0.579252
0.564457
0.549145
0.533676
0.518307
0.503217
0.488523
0.474299
0.460589
0.447416
0.434788
0.422694
0.4111
0.399998
0.38951
0.635869
0.620146
0.610021
0.600057
0.588164
0.574722
0.560272
0.54527
0.530079
0.514961
0.500096
0.485606
0.471567
0.458027
0.445009
0.432524
0.420559
0.409082
0.398099
0.38776
0.624627
0.609268
0.599718
0.590451
0.579266
0.566487
0.552638
0.538178
0.523473
0.508793
0.494325
0.480195
0.466485
0.453245
0.440505
0.428276
0.416544
0.405276
0.394509
0.384445
0.608487
0.593646
0.584909
0.576626
0.566442
0.554602
0.541606
0.527914
0.5139
0.499843
0.48594
0.472324
0.459083
0.446274
0.433931
0.42207
0.410672
0.399706
0.389249
0.379582
0.587569
0.573393
0.565699
0.558676
0.549778
0.539144
0.527246
0.514542
0.501419
0.488167
0.474993
0.462041
0.449406
0.437154
0.425327
0.413942
0.402978
0.392404
0.382347
0.373196
0.562027
0.548658
0.542221
0.536723
0.529383
0.520213
0.509648
0.498147
0.486108
0.473835
0.46155
0.449406
0.437512
0.425939
0.414741
0.403938
0.393507
0.383414
0.373844
0.365322
0.532051
0.519622
0.514642
0.510917
0.505392
0.497932
0.488926
0.478832
0.46806
0.456934
0.445689
0.434494
0.423467
0.412693
0.402232
0.392116
0.382312
0.372784
0.363785
0.356
0.497865
0.486497
0.483157
0.481433
0.477964
0.472444
0.465209
0.456714
0.447386
0.437564
0.427504
0.417388
0.407351
0.397487
0.38787
0.378538
0.369454
0.360574
0.352224
0.345274
0.459725
0.449529
0.447992
0.448474
0.44728
0.443914
0.438647
0.431931
0.424208
0.415839
0.407097
0.398186
0.389251
0.380403
0.371728
0.363274
0.354997
0.346847
0.339218
0.333196
0.417918
0.408993
0.409398
0.412266
0.413545
0.412524
0.409406
0.404632
0.398663
0.391882
0.384583
0.376988
0.369261
0.361527
0.353886
0.346396
0.339012
0.331668
0.324828
0.319818
0.372763
0.365193
0.367654
0.37306
0.376983
0.378478
0.377667
0.374983
0.370902
0.365829
0.360083
0.353906
0.34748
0.340947
0.334423
0.32798
0.321566
0.315101
0.309113
0.305195
0.324606
0.31846
0.323065
0.33113
0.337838
0.341995
0.343629
0.343162
0.341083
0.337823
0.333725
0.329054
0.32401
0.318754
0.313419
0.308093
0.302723
0.297204
0.292126
0.289372
0.273819
0.269153
0.27596
0.286771
0.296375
0.30331
0.307504
0.309358
0.309377
0.308017
0.305645
0.302549
0.298953
0.295034
0.290947
0.286797
0.282533
0.278025
0.273906
0.272386
0.2208
0.217654
0.226689
0.240299
0.252875
0.262677
0.269517
0.273774
0.275965
0.276569
0.275981
0.274512
0.272408
0.269868
0.267069
0.264137
0.261027
0.257579
0.254465
0.254249
0.165968
0.164366
0.175626
0.192049
0.207639
0.220363
0.22991
0.236625
0.241038
0.243649
0.244879
0.245066
0.244478
0.243336
0.24184
0.240144
0.238212
0.235855
0.233774
0.234932
0.109764
0.109714
0.123164
0.142375
0.160984
0.176653
0.188936
0.19814
0.204799
0.209436
0.212496
0.214341
0.215262
0.215502
0.215288
0.214802
0.214024
0.212742
0.211694
0.214312
0.0526454
0.0541392
0.0697112
0.0916471
0.113242
0.131846
0.146866
0.158562
0.167467
0.174124
0.179
0.182479
0.184873
0.186449
0.187459
0.18812
0.188425
0.18813
0.18804
0.192183
-0.00491774
-0.00190183
0.0156934
0.0402524
0.064761
0.0862571
0.103986
0.118152
0.129282
0.137931
0.144587
0.149652
0.153455
0.156274
0.158387
0.160036
0.161195
0.161548
0.162077
0.167872
-0.0624447
-0.0579432
-0.0384533
-0.011411
0.0159037
0.0402156
0.0605986
0.0771896
0.0905009
0.101096
0.109474
0.116052
0.121164
0.125094
0.128133
0.13057
0.132387
0.133069
0.133598
0.140644
-0.11945
-0.113513
-0.092285
-0.0629357
-0.0329585
-0.00593678
0.0170211
0.035974
0.0514117
0.0638996
0.0739482
0.0819816
0.0883374
0.0932881
0.0971101
0.100113
0.102262
0.102473
0.100472
0.10524
-0.175447
-0.168138
-0.145354
-0.113908
-0.0814465
-0.0518499
-0.0264181
-0.00518176
0.0123178
0.0266413
0.0383011
0.0477196
0.0552205
0.0610356
0.0653508
0.0683437
0.0699136
0.069112
0.0651332
0.0610976
-0.229965
-0.221356
-0.197219
-0.163918
-0.129181
-0.0971708
-0.0693856
-0.0459557
-0.0264611
-0.0103493
0.00289449
0.0136971
0.0223867
0.0291961
0.0342956
0.0378421
0.0398774
0.0399912
0.0375901
0.0337531
-0.282538
-0.272711
-0.247444
-0.212558
-0.175786
-0.141551
-0.111551
-0.0860278
-0.0646045
-0.0467378
-0.0319045
-0.0196605
-0.0096509
-0.00160434
0.0046883
0.00941573
0.0127476
0.0147205
0.0151289
0.0135856
-0.332724
-0.32177
-0.29561
-0.259436
-0.220901
-0.184655
-0.152601
-0.125099
-0.101823
-0.0822427
-0.0658245
-0.0521047
-0.0406998
-0.0313011
-0.0236613
-0.0175699
-0.0128116
-0.0091478
-0.00651501
-0.00570032
-0.380109
-0.368126
-0.341323
-0.304181
-0.26418
-0.226167
-0.192245
-0.162901
-0.137871
-0.116643
-0.0986787
-0.0834996
-0.0707008
-0.0599475
-0.0509663
-0.0435288
-0.037402
-0.0322838
-0.0280295
-0.0254837
-0.424318
-0.411408
-0.384218
-0.346445
-0.305306
-0.265798
-0.230221
-0.199197
-0.172537
-0.149754
-0.130315
-0.113731
-0.0995823
-0.087517
-0.0772439
-0.0685202
-0.0610991
-0.0546603
-0.0490822
-0.0453281
-0.465019
-0.451286
-0.423965
-0.385913
-0.343987
-0.303286
-0.266294
-0.233779
-0.205636
-0.181419
-0.160601
-0.142693
-0.127266
-0.113956
-0.102463
-0.0925359
-0.0839186
-0.0762792
-0.0695187
-0.0647461
-0.50193
-0.487479
-0.46028
-0.422305
-0.379964
-0.338396
-0.300258
-0.266466
-0.237013
-0.211501
-0.189425
-0.170297
-0.153687
-0.139225
-0.126605
-0.115572
-0.105869
-0.0971539
-0.0893201
-0.0835607
-0.534825
-0.519762
-0.492923
-0.455384
-0.413012
-0.370926
-0.331933
-0.297102
-0.266533
-0.239889
-0.216694
-0.196471
-0.178792
-0.163287
-0.149646
-0.137615
-0.126938
-0.117269
-0.108479
-0.101775
-0.563539
-0.547966
-0.52171
-0.484953
-0.442941
-0.400706
-0.361171
-0.325559
-0.294087
-0.266491
-0.242333
-0.221155
-0.202535
-0.186108
-0.171563
-0.158645
-0.147104
-0.136599
-0.126976
-0.119413
-0.587973
-0.571989
-0.546513
-0.510865
-0.469603
-0.427595
-0.38785
-0.351734
-0.319589
-0.291235
-0.266283
-0.2443
-0.224877
-0.207655
-0.192326
-0.178637
-0.166346
-0.155119
-0.14478
-0.136458
-0.608091
-0.59179
-0.567265
-0.533026
-0.49289
-0.451491
-0.411877
-0.375547
-0.342973
-0.314067
-0.288499
-0.265869
-0.245786
-0.227902
-0.211913
-0.19757
-0.184639
-0.172799
-0.161852
-0.152864
-0.623927
-0.607401
-0.583961
-0.551392
-0.512738
-0.472323
-0.433188
-0.396944
-0.364194
-0.334951
-0.308952
-0.285838
-0.265242
-0.246828
-0.230303
-0.215422
-0.20196
-0.189609
-0.178155
-0.168583
-0.63558
-0.618916
-0.59666
-0.565977
-0.529127
-0.490057
-0.451747
-0.415895
-0.383227
-0.353867
-0.327626
-0.304193
-0.283232
-0.264423
-0.247485
-0.232179
-0.21829
-0.205527
-0.193659
-0.183584
-0.643213
-0.626496
-0.605487
-0.576852
-0.542084
-0.504697
-0.467549
-0.432392
-0.40007
-0.370816
-0.344524
-0.320938
-0.299758
-0.280687
-0.263456
-0.247836
-0.233621
-0.220541
-0.20835
-0.197853
-0.647048
-0.630363
-0.610627
-0.584144
-0.551685
-0.516283
-0.480615
-0.446453
-0.414738
-0.385813
-0.35966
-0.336087
-0.314833
-0.29563
-0.278224
-0.262398
-0.247957
-0.234649
-0.222223
-0.211384
-0.647361
-0.630793
-0.612322
-0.588037
-0.558052
-0.524891
-0.490999
-0.458117
-0.427265
-0.398889
-0.373066
-0.349668
-0.328484
-0.309274
-0.291808
-0.27588
-0.261307
-0.247859
-0.235282
-0.224181
-0.644475
-0.628109
-0.610868
-0.588768
-0.561356
-0.53064
-0.49878
-0.467445
-0.437703
-0.410094
-0.384784
-0.361722
-0.340745
-0.321653
-0.304236
-0.288307
-0.273693
-0.260187
-0.24754
-0.236256
-0.638747
-0.622672
-0.606604
-0.586621
-0.561811
-0.533682
-0.504069
-0.474521
-0.446121
-0.419486
-0.394872
-0.372299
-0.351665
-0.332807
-0.315547
-0.299711
-0.285145
-0.271661
-0.259019
-0.247628
-0.630564
-0.614869
-0.599904
-0.581922
-0.559677
-0.534208
-0.507003
-0.479447
-0.452603
-0.42714
-0.403394
-0.381461
-0.361299
-0.34279
-0.325786
-0.310135
-0.295699
-0.282312
-0.269747
-0.258324
-0.620326
-0.605102
-0.59116
-0.575029
-0.555248
-0.532442
-0.507748
-0.482349
-0.457246
-0.433138
-0.410425
-0.389277
-0.369711
-0.351659
-0.335007
-0.319628
-0.3054
-0.292181
-0.27976
-0.268376
-0.608439
-0.593777
-0.58078
-0.566324
-0.54885
-0.528642
-0.506496
-0.483368
-0.460161
-0.437571
-0.416046
-0.395818
-0.376968
-0.359476
-0.343267
-0.328242
-0.314297
-0.301312
-0.2891
-0.277824
-0.5953
-0.581287
-0.569164
-0.556195
-0.540828
-0.523089
-0.503464
-0.482668
-0.461472
-0.440539
-0.42034
-0.401163
-0.383141
-0.366308
-0.350629
-0.336034
-0.322442
-0.309755
-0.29781
-0.286708
-0.581289
-0.568007
-0.556696
-0.545027
-0.531542
-0.516089
-0.498891
-0.480426
-0.461313
-0.442146
-0.423396
-0.405386
-0.388301
-0.372221
-0.357153
-0.343062
-0.329888
-0.317558
-0.305936
-0.295069
-0.56676
-0.554282
-0.543734
-0.533191
-0.521347
-0.507955
-0.493032
-0.476841
-0.459831
-0.442503
-0.425301
-0.408564
-0.392514
-0.377276
-0.362899
-0.34938
-0.336687
-0.324769
-0.31352
-0.302947
-0.552031
-0.540419
-0.530598
-0.521024
-0.510587
-0.499006
-0.486159
-0.472123
-0.457183
-0.441726
-0.426144
-0.410767
-0.395844
-0.381532
-0.36792
-0.355039
-0.342885
-0.331432
-0.320601
-0.310377
-0.53738
-0.526683
-0.517565
-0.50883
-0.499578
-0.48955
-0.478543
-0.466495
-0.453538
-0.439939
-0.426013
-0.412065
-0.398345
-0.385038
-0.372262
-0.360082
-0.348524
-0.337583
-0.327213
-0.317384
-0.523045
-0.513293
-0.504864
-0.496864
-0.488602
-0.479875
-0.470454
-0.460184
-0.449074
-0.43727
-0.425
-0.41252
-0.400067
-0.387833
-0.375961
-0.364544
-0.353633
-0.343251
-0.333379
-0.323985
-0.509214
-0.500424
-0.492675
-0.485331
-0.477895
-0.470238
-0.462145
-0.453419
-0.443976
-0.433857
-0.4232
-0.412197
-0.401051
-0.389948
-0.379041
-0.368444
-0.358233
-0.348453
-0.339113
-0.330187
-0.496033
-0.488205
-0.481131
-0.474386
-0.467643
-0.460854
-0.453846
-0.446417
-0.438429
-0.429844
-0.420714
-0.411159
-0.401334
-0.391403
-0.381515
-0.371793
-0.362331
-0.353195
-0.344418
-0.335982
-0.483606
-0.476726
-0.470321
-0.464134
-0.457984
-0.451894
-0.44575
-0.439376
-0.432616
-0.42538
-0.417649
-0.409474
-0.400955
-0.392215
-0.383386
-0.374588
-0.365923
-0.357473
-0.34929
-0.341358
-0.471999
-0.466041
-0.460295
-0.454637
-0.449003
-0.443477
-0.43801
-0.432467
-0.426706
-0.420613
-0.414121
-0.40722
-0.399954
-0.392398
-0.384651
-0.376819
-0.368997
-0.361273
-0.353717
-0.346301
-0.461248
-0.456174
-0.451071
-0.445918
-0.440742
-0.435678
-0.430732
-0.425826
-0.420847
-0.415685
-0.410248
-0.404484
-0.398382
-0.391972
-0.385309
-0.378469
-0.371533
-0.364581
-0.357693
-0.35081
-0.451367
-0.447131
-0.442644
-0.437971
-0.433209
-0.428526
-0.42398
-0.419548
-0.41516
-0.410726
-0.406152
-0.401362
-0.396307
-0.390969
-0.385362
-0.379524
-0.373508
-0.367376
-0.361211
-0.3549
-0.442355
-0.438902
-0.434998
-0.430774
-0.426384
-0.42202
-0.417782
-0.413695
-0.409736
-0.405847
-0.401949
-0.39796
-0.393808
-0.389441
-0.384831
-0.379978
-0.374903
-0.36964
-0.36427
-0.358634
-0.434211
-0.431476
-0.428108
-0.424296
-0.420239
-0.416142
-0.412139
-0.408298
-0.404639
-0.40114
-0.397749
-0.394391
-0.390986
-0.387459
-0.383754
-0.379836
-0.375695
-0.371338
-0.366843
-0.362043
-0.426936
-0.424844
-0.421956
-0.418512
-0.414744
-0.410869
-0.407045
-0.403374
-0.399915
-0.396683
-0.393653
-0.390768
-0.387952
-0.385121
-0.382197
-0.379122
-0.375864
-0.372418
-0.368867
-0.365224
-0.420535
-0.419001
-0.416531
-0.413404
-0.409883
-0.406188
-0.402496
-0.398939
-0.395606
-0.392545
-0.389759
-0.387212
-0.384838
-0.382551
-0.38026
-0.377889
-0.375393
-0.37277
-0.370131
-0.367953
-0.41502
-0.413947
-0.411827
-0.408968
-0.405651
-0.402101
-0.398505
-0.39502
-0.391761
-0.3888
-0.386168
-0.383849
-0.381788
-0.3799
-0.378083
-0.376237
-0.374293
-0.372243
-0.370256
-0.369941
-0.410399
-0.409682
-0.407844
-0.405206
-0.402058
-0.398623
-0.3951
-0.39166
-0.388439
-0.385531
-0.382988
-0.380813
-0.378963
-0.377352
-0.375861
-0.374353
-0.372695
-0.370776
-0.368657
-0.369533
-0.40667
-0.406199
-0.404577
-0.402119
-0.399113
-0.395776
-0.392314
-0.388908
-0.385709
-0.382828
-0.380333
-0.378244
-0.37653
-0.375105
-0.373828
-0.372494
-0.370826
-0.368365
-0.364039
-0.358334
-0.403812
-0.403476
-0.402008
-0.399698
-0.396816
-0.393574
-0.390176
-0.386809
-0.383633
-0.380773
-0.37831
-0.37628
-0.374666
-0.373399
-0.372342
-0.371292
-0.369978
-0.367994
-0.364481
-0.360199
-0.401777
-0.401474
-0.400105
-0.397917
-0.395151
-0.392009
-0.38869
-0.385382
-0.382251
-0.379426
-0.377002
-0.375027
-0.373505
-0.372391
-0.371583
-0.37093
-0.370235
-0.369195
-0.367151
-0.365258
-0.400493
-0.400131
-0.398814
-0.396729
-0.394078
-0.39105
-0.387834
-0.384617
-0.381564
-0.378807
-0.376446
-0.374542
-0.373115
-0.372145
-0.37157
-0.37129
-0.371177
-0.371
-0.370267
-0.370417
-0.399862
-0.399369
-0.398067
-0.39607
-0.393537
-0.390639
-0.387557
-0.38447
-0.381537
-0.378891
-0.376634
-0.374833
-0.373521
-0.372698
-0.372335
-0.372378
-0.372762
-0.373327
-0.373767
-0.375582
-0.399771
-0.399097
-0.397782
-0.395863
-0.393452
-0.390703
-0.387785
-0.384866
-0.3821
-0.379616
-0.377512
-0.375859
-0.374698
-0.374046
-0.373896
-0.374233
-0.37504
-0.376226
-0.377637
-0.380652
-0.4001
-0.399218
-0.397872
-0.396026
-0.393742
-0.391159
-0.388432
-0.385719
-0.383163
-0.380888
-0.378987
-0.377532
-0.376566
-0.376116
-0.376195
-0.376809
-0.377973
-0.379645
-0.381758
-0.385497
-0.400727
-0.399634
-0.398252
-0.396476
-0.394326
-0.391922
-0.389409
-0.386932
-0.384623
-0.382597
-0.380942
-0.379726
-0.378995
-0.378778
-0.379097
-0.379973
-0.381433
-0.383458
-0.386013
-0.390084
-0.401537
-0.40025
-0.398839
-0.397137
-0.395126
-0.392913
-0.39063
-0.38841
-0.386373
-0.384625
-0.383246
-0.382298
-0.381825
-0.381857
-0.382419
-0.383533
-0.38523
-0.387494
-0.390279
-0.394418
-0.402427
-0.400983
-0.399559
-0.397938
-0.396071
-0.394057
-0.392014
-0.390063
-0.388312
-0.386854
-0.385764
-0.385095
-0.384886
-0.385166
-0.385956
-0.387276
-0.389151
-0.391559
-0.394427
-0.398485
-0.403304
-0.401756
-0.400342
-0.398814
-0.397099
-0.395288
-0.393488
-0.391807
-0.390343
-0.389176
-0.38837
-0.387973
-0.388016
-0.388525
-0.389514
-0.391
-0.392999
-0.395477
-0.398331
-0.402244
-0.404092
-0.402503
-0.401132