/*--------------------------------*- C++ -*----------------------------------*\
  =========                 |
  \\      /  F ield         | OpenFOAM: The Open Source CFD Toolbox
   \\    /   O peration     | Website:  https://openfoam.org
    \\  /    A nd           | Version:  6.0
     \\/     M anipulation  |
\*---------------------------------------------------------------------------*/
FoamFile
{
    version     2.0;
    format      ascii;
    class       volScalarField;
    location    "21";
    object      p;
}
// * * * * * * * * * * * * * * * * * * * * * * * * * * * * * * * * * * * * * //

dimensions      [0 2 -2 0 0 0 0];

internalField   nonuniform List<scalar> 
4000
(
-0.468423
-0.454517
-0.442206
-0.42865
-0.412655
-0.394703
-0.375599
-0.356162
-0.337095
-0.318892
-0.301839
-0.286054
-0.271544
-0.258249
-0.246074
-0.234915
-0.224671
-0.215216
-0.206356
-0.198387
-0.476366
-0.462022
-0.448889
-0.433883
-0.415937
-0.395833
-0.374646
-0.353363
-0.332753
-0.313305
-0.295265
-0.2787
-0.263569
-0.249776
-0.237197
-0.225706
-0.215188
-0.205499
-0.196426
-0.188344
-0.482464
-0.46778
-0.453774
-0.437188
-0.417187
-0.394902
-0.371685
-0.34867
-0.326662
-0.30612
-0.287236
-0.270022
-0.25439
-0.240204
-0.227317
-0.215582
-0.204872
-0.195022
-0.185809
-0.177689
-0.486346
-0.471421
-0.456494
-0.438225
-0.416114
-0.391682
-0.366547
-0.341958
-0.318725
-0.29726
-0.277689
-0.259965
-0.243954
-0.229488
-0.216392
-0.204506
-0.193689
-0.183757
-0.174479
-0.166395
-0.487655
-0.472586
-0.456699
-0.436682
-0.412466
-0.385982
-0.35909
-0.333122
-0.308862
-0.286658
-0.266566
-0.248479
-0.232219
-0.217586
-0.204387
-0.192446
-0.181611
-0.171677
-0.162412
-0.154442
-0.486058
-0.470941
-0.45407
-0.432284
-0.406027
-0.377644
-0.349205
-0.322082
-0.297012
-0.274264
-0.253821
-0.235522
-0.219146
-0.204468
-0.191273
-0.179377
-0.168616
-0.158765
-0.149595
-0.141818
-0.481253
-0.466182
-0.448326
-0.4248
-0.396627
-0.366552
-0.336811
-0.30878
-0.283127
-0.260038
-0.239422
-0.221063
-0.204709
-0.190108
-0.177031
-0.165283
-0.15469
-0.145011
-0.136021
-0.128515
-0.472984
-0.458051
-0.439237
-0.414051
-0.384143
-0.352627
-0.321856
-0.293181
-0.267182
-0.243956
-0.223344
-0.205084
-0.188891
-0.174493
-0.161649
-0.150156
-0.13983
-0.130413
-0.121691
-0.114534
-0.461045
-0.446341
-0.426625
-0.39991
-0.368499
-0.335828
-0.304321
-0.275272
-0.249165
-0.226009
-0.205581
-0.187577
-0.171685
-0.157618
-0.145125
-0.133995
-0.124037
-0.114979
-0.106615
-0.0998873
-0.445287
-0.430904
-0.410372
-0.38231
-0.349667
-0.316152
-0.284216
-0.255067
-0.229089
-0.206206
-0.186138
-0.168546
-0.153096
-0.139489
-0.127466
-0.116812
-0.107327
-0.0987255
-0.0908167
-0.0845978
-0.425623
-0.411652
-0.390425
-0.361235
-0.327667
-0.293637
-0.261578
-0.232601
-0.206983
-0.184571
-0.165036
-0.148008
-0.133139
-0.12012
-0.108686
-0.0986212
-0.0897168
-0.0816778
-0.0743269
-0.0687052
-0.402031
-0.388565
-0.366789
-0.33673
-0.302562
-0.268352
-0.236478
-0.207935
-0.182899
-0.161147
-0.142309
-0.125992
-0.111838
-0.0995318
-0.0888064
-0.0794431
-0.0712291
-0.0638625
-0.0571817
-0.0522524
-0.374552
-0.361686
-0.339534
-0.308889
-0.274461
-0.240407
-0.209012
-0.181153
-0.156909
-0.135995
-0.118007
-0.10254
-0.0892267
-0.0777519
-0.0678488
-0.0592982
-0.051884
-0.0453046
-0.0394127
-0.0352631
-0.343293
-0.331122
-0.308788
-0.277859
-0.243516
-0.209942
-0.179308
-0.152366
-0.129106
-0.109191
-0.0921944
-0.0777008
-0.065344
-0.0548102
-0.0458363
-0.038205
-0.0317009
-0.0260286
-0.0210439
-0.0177289
-0.308424
-0.297043
-0.274737
-0.243835
-0.209915
-0.177132
-0.147521
-0.12171
-0.0996081
-0.0808364
-0.0649521
-0.0515393
-0.0402363
-0.0307369
-0.0227863
-0.0161733
-0.0106891
-0.00604801
-0.00208489
0.000350401
-0.270172
-0.259674
-0.237616
-0.207054
-0.173885
-0.142185
-0.113837
-0.0893483
-0.0685564
-0.0510508
-0.0363806
-0.0241342
-0.0139606
-0.00556731
0.00128592
0.00679784
0.0111651
0.0146567
0.0174601
0.0188488
-0.228818
-0.219295
-0.197707
-0.167794
-0.135686
-0.105338
-0.0784683
-0.0554701
-0.0361186
-0.0199799
-0.00660165
0.00441714
0.0134109
0.0206505
0.0263535
0.0307028
0.0338786
0.0360947
0.037475
0.0373747
-0.184691
-0.176231
-0.155335
-0.126366
-0.09561
-0.066857
-0.0416566
-0.0202936
-0.00248941
0.0122069
0.0242438
0.0340075
0.0418088
0.0478863
0.0524236
0.0555821
0.0575018
0.0582228
0.057641
0.0554853
-0.138161
-0.130844
-0.110856
-0.0831121
-0.0539732
-0.0270339
-0.00367111
0.0159326
0.0321031
0.0453048
0.0559829
0.0645103
0.0711754
0.0761827
0.0796788
0.0817937
0.0825538
0.0816057
0.0784906
0.0742199
-0.0896312
-0.0835324
-0.0646574
-0.0383972
-0.0111151
0.0138167
0.0351939
0.0529293
0.06739
0.0790538
0.0883668
0.0957004
0.10134
0.10549
0.108308
0.109943
0.110296
0.108525
0.103933
0.0992993
-0.0395336
-0.0347169
-0.0171443
0.00739739
0.0326106
0.0553654
0.0746274
0.0903954
0.103071
0.113142
0.121056
0.127189
0.131839
0.13525
0.137662
0.139352
0.140293
0.139511
0.136745
0.140229
0.0116908
0.0151683
0.031266
0.0538811
0.0768424
0.0972763
0.114312
0.128026
0.138845
0.147259
0.153711
0.15857
0.162135
0.164658
0.166401
0.167622
0.168312
0.168002
0.16758
0.173209
0.0635814
0.0656742
0.080147
0.100658
0.121217
0.139213
0.153934
0.165521
0.174422
0.181122
0.186055
0.18958
0.191991
0.193539
0.194473
0.195012
0.19514
0.194565
0.194189
0.198714
0.115675
0.11635
0.129072
0.147336
0.165374
0.180847
0.193187
0.202594
0.209525
0.214459
0.217813
0.21993
0.221093
0.221539
0.221497
0.221164
0.220535
0.219388
0.218468
0.221506
0.167508
0.166746
0.17762
0.193528
0.208963
0.221856
0.231777
0.238973
0.243906
0.24704
0.248775
0.249435
0.249283
0.248538
0.247404
0.246049
0.244455
0.242427
0.24065
0.242301
0.218627
0.216422
0.225377
0.238857
0.251644
0.261934
0.269425
0.274402
0.277329
0.278652
0.278749
0.277924
0.27642
0.274435
0.272152
0.269711
0.267079
0.264084
0.261375
0.261697
0.268586
0.264946
0.271942
0.28296
0.293089
0.300787
0.305865
0.308644
0.30958
0.309103
0.307567
0.305255
0.302388
0.299147
0.295691
0.292137
0.288443
0.284462
0.280817
0.279883
0.316955
0.311904
0.316931
0.325489
0.332987
0.338133
0.340845
0.341471
0.340457
0.338214
0.335074
0.331297
0.327085
0.322601
0.317984
0.31333
0.308592
0.303651
0.299094
0.296966
0.363323
0.356898
0.359976
0.366112
0.371041
0.373708
0.374129
0.37267
0.369771
0.365818
0.361123
0.355925
0.350408
0.344716
0.338971
0.333253
0.327514
0.321658
0.316228
0.312966
0.407298
0.399553
0.400731
0.404517
0.406971
0.407262
0.405491
0.402041
0.39734
0.391755
0.385574
0.379019
0.372254
0.365408
0.358588
0.351858
0.345174
0.338459
0.332201
0.32787
0.448514
0.439516
0.43887
0.440412
0.440516
0.43856
0.434721
0.429395
0.422997
0.415873
0.408293
0.400458
0.392519
0.384588
0.376758
0.369082
0.361518
0.354005
0.346972
0.341638
0.48663
0.47646
0.474092
0.473525
0.471433
0.467384
0.461623
0.454555
0.446581
0.438029
0.429151
0.42013
0.411102
0.402167
0.393402
0.384853
0.376481
0.368239
0.360488
0.354224
0.521331
0.510083
0.506121
0.503609
0.4995
0.493534
0.486016
0.477356
0.467944
0.45809
0.448027
0.437925
0.427904
0.418054
0.40844
0.399098
0.389996
0.381095
0.372689
0.365573
0.552335
0.540116
0.534709
0.530438
0.524515
0.516829
0.507736
0.497651
0.486951
0.475932
0.464809
0.453739
0.442832
0.432164
0.421792
0.411745
0.401994
0.392508
0.383515
0.375635
0.579389
0.566316
0.559633
0.553814
0.546298
0.537106
0.526636
0.515305
0.50348
0.491442
0.479394
0.46748
0.455799
0.444419
0.433387
0.422725
0.412412
0.402418
0.392911
0.384359
0.602275
0.588475
0.580701
0.573564
0.564694
0.554224
0.542586
0.530201
0.517424
0.504524
0.491693
0.479064
0.466729
0.454746
0.443156
0.431976
0.421189
0.410768
0.400823
0.3917
0.620808
0.606416
0.597752
0.58954
0.57957
0.568063
0.55548
0.542239
0.528691
0.515092
0.501627
0.48842
0.475555
0.463085
0.451043
0.439444
0.428275
0.417508
0.407209
0.39762
0.634839
0.619996
0.610654
0.601626
0.590821
0.578528
0.565227
0.551339
0.537206
0.523079
0.509133
0.495489
0.482223
0.469384
0.457
0.445085
0.433627
0.422599
0.41203
0.402087
0.644254
0.629109
0.61931
0.609732
0.598365
0.585545
0.571762
0.55744
0.542914
0.528432
0.514164
0.500226
0.48669
0.473604
0.460992
0.448864
0.437212
0.42601
0.415259
0.405078
0.648979
0.633682
0.623653
0.613798
0.60215
0.589064
0.57504
0.560499
0.545776
0.531116
0.516686
0.5026
0.48893
0.47572
0.462992
0.450758
0.439009
0.427719
0.416876
0.406577
0.648975
0.633678
0.623649
0.613795
0.602146
0.589061
0.575037
0.560496
0.545773
0.531113
0.516684
0.502598
0.488928
0.475717
0.46299
0.450756
0.439007
0.427717
0.416874
0.406574
0.644243
0.629098
0.6193
0.609722
0.598356
0.585535
0.571753
0.557431
0.542906
0.528424
0.514156
0.500218
0.486683
0.473597
0.460984
0.448857
0.437205
0.426003
0.415252
0.405072
0.634821
0.619979
0.610637
0.601609
0.590805
0.578513
0.565213
0.551325
0.537192
0.523065
0.50912
0.495476
0.48221
0.469371
0.456988
0.445073
0.433615
0.422588
0.412018
0.402076
0.620783
0.606391
0.597727
0.589517
0.579548
0.568042
0.555459
0.542219
0.528671
0.515073
0.501608
0.488402
0.475537
0.463067
0.451026
0.439427
0.428258
0.417492
0.407193
0.397604
0.602243
0.588443
0.580669
0.573533
0.564665
0.554196
0.54256
0.530175
0.517399
0.504499
0.491669
0.479041
0.466706
0.454724
0.443134
0.431954
0.421168
0.410747
0.400803
0.39168
0.579349
0.566276
0.559594
0.553777
0.546262
0.537072
0.526603
0.515273
0.50345
0.491412
0.479365
0.467452
0.455771
0.444391
0.43336
0.422698
0.412386
0.402393
0.392886
0.384334
0.552287
0.540069
0.534663
0.530394
0.524473
0.516788
0.507697
0.497614
0.486915
0.475896
0.464774
0.453705
0.442799
0.432132
0.421761
0.411713
0.401964
0.392478
0.383486
0.375606
0.521276
0.510029
0.506068
0.503558
0.499451
0.493487
0.485971
0.477313
0.467902
0.458049
0.447987
0.437885
0.427866
0.418016
0.408403
0.399062
0.38996
0.38106
0.372655
0.36554
0.486566
0.476397
0.474032
0.473467
0.471378
0.467331
0.461572
0.454505
0.446532
0.437982
0.429105
0.420086
0.411058
0.402124
0.393361
0.384812
0.376441
0.368199
0.360449
0.354186
0.448443
0.439446
0.438802
0.440346
0.440454
0.4385
0.434663
0.429339
0.422942
0.41582
0.408242
0.400408
0.39247
0.38454
0.376711
0.369036
0.361472
0.353961
0.346929
0.341596
0.407219
0.399475
0.400655
0.404444
0.406902
0.407195
0.405427
0.401979
0.39728
0.391696
0.385517
0.378963
0.372199
0.365355
0.358536
0.351807
0.345124
0.338409
0.332152
0.327823
0.363235
0.356812
0.359893
0.366032
0.370964
0.373635
0.374058
0.372602
0.369704
0.365754
0.36106
0.355864
0.350348
0.344658
0.338914
0.333197
0.327459
0.321604
0.316175
0.312915
0.316859
0.311809
0.31684
0.325401
0.332903
0.338053
0.340768
0.341396
0.340385
0.338144
0.335005
0.33123
0.32702
0.322537
0.317921
0.313268
0.308532
0.303593
0.299036
0.296909
0.268482
0.264843
0.271843
0.282865
0.292998
0.300699
0.30578
0.308562
0.309501
0.309026
0.307493
0.305182
0.302317
0.299078
0.295623
0.292071
0.288378
0.284398
0.280754
0.279822
0.218514
0.21631
0.225269
0.238754
0.251545
0.26184
0.269334
0.274314
0.277244
0.278569
0.278669
0.277846
0.276343
0.27436
0.272079
0.269639
0.267009
0.264015
0.261307
0.261631
0.167387
0.166626
0.177504
0.193417
0.208857
0.221754
0.231679
0.238878
0.243814
0.246951
0.248688
0.249351
0.249201
0.248458
0.247326
0.245972
0.244379
0.242353
0.240577
0.242231
0.115544
0.116221
0.128948
0.147217
0.16526
0.180737
0.193082
0.202492
0.209427
0.214364
0.21772
0.21984
0.221004
0.221452
0.221413
0.221081
0.220454
0.219309
0.21839
0.221431
0.0634419
0.0655363
0.0800135
0.100531
0.121095
0.139096
0.153822
0.165413
0.174317
0.18102
0.185956
0.189483
0.191896
0.193447
0.194383
0.194924
0.195053
0.19448
0.194105
0.198633
0.0115422
0.0150213
0.0311237
0.0537449
0.0767123
0.0971516
0.114192
0.12791
0.138733
0.147151
0.153606
0.158467
0.162034
0.16456
0.166305
0.167528
0.16822
0.167911
0.167491
0.173122
-0.0396914
-0.034873
-0.0172955
0.00725267
0.0324724
0.055233
0.0745002
0.0902727
0.102953
0.113027
0.120944
0.127079
0.131733
0.135145
0.13756
0.139252
0.140194
0.139414
0.136649
0.140135
-0.0897984
-0.0836977
-0.0648176
-0.0385506
-0.0112615
0.0136764
0.0350593
0.0527994
0.0672644
0.0789319
0.0882482
0.0955848
0.101227
0.105379
0.1082
0.109836
0.110191
0.108421
0.10383
0.0991966
-0.138337
-0.131019
-0.111025
-0.0832741
-0.054128
-0.027182
-0.00381334
0.0157955
0.0319705
0.0451762
0.0558578
0.0643883
0.0710562
0.0760659
0.0795642
0.081681
0.0824428
0.081496
0.0783818
0.0741113
-0.184877
-0.176414
-0.155513
-0.126537
-0.095773
-0.067013
-0.0418064
-0.020438
-0.00262899
0.0120715
0.0241122
0.0338791
0.0416833
0.0477635
0.0523031
0.0554637
0.0573851
0.0581078
0.0575272
0.0553721
-0.229013
-0.219488
-0.197894
-0.167973
-0.135858
-0.105502
-0.0786257
-0.0556217
-0.0362651
-0.0201219
-0.0067398
0.00428248
0.0132794
0.0205218
0.0262273
0.0305788
0.0337566
0.0359746
0.0373565
0.0372572
-0.270376
-0.259876
-0.237812
-0.207242
-0.174065
-0.142357
-0.114002
-0.0895071
-0.0687098
-0.0511996
-0.0365252
-0.0242751
-0.0140981
-0.00570185
0.00115407
0.00666842
0.0110379
0.0145315
0.0173368
0.0187268
-0.308637
-0.297254
-0.274942
-0.244032
-0.210103
-0.177312
-0.147694
-0.121876
-0.0997684
-0.0809917
-0.065103
-0.0516863
-0.0403797
-0.0308772
-0.0229237
-0.0163081
-0.0108214
-0.00617808
-0.00221285
0.000223949
-0.343515
-0.331342
-0.309002
-0.278064
-0.243712
-0.210129
-0.179488
-0.152539
-0.129273
-0.109353
-0.0923516
-0.0778539
-0.0654933
-0.0549561
-0.0459791
-0.038345
-0.0318383
-0.0261635
-0.0211766
-0.0178599
-0.374782
-0.361914
-0.339756
-0.309102
-0.274665
-0.240602
-0.209199
-0.181333
-0.157083
-0.136163
-0.11817
-0.102699
-0.0893818
-0.0779033
-0.067997
-0.0594434
-0.0520264
-0.0454443
-0.03955
-0.0353985
-0.402269
-0.388801
-0.367019
-0.336951
-0.302773
-0.268555
-0.236672
-0.208122
-0.18308
-0.161322
-0.142478
-0.126157
-0.111999
-0.0996888
-0.0889599
-0.0795935
-0.0713764
-0.0640071
-0.0573236
-0.0523923
-0.425869
-0.411896
-0.390662
-0.361464
-0.327886
-0.293846
-0.26178
-0.232795
-0.20717
-0.184752
-0.165211
-0.148179
-0.133305
-0.120282
-0.108845
-0.0987766
-0.0898691
-0.0818272
-0.0744735
-0.0688496
-0.445539
-0.431154
-0.410617
-0.382546
-0.349894
-0.316369
-0.284424
-0.255267
-0.229282
-0.206393
-0.186319
-0.168722
-0.153268
-0.139657
-0.12763
-0.116972
-0.107484
-0.0988797
-0.090968
-0.0847467
-0.461304
-0.446598
-0.426876
-0.400153
-0.368733
-0.336051
-0.304536
-0.275479
-0.249364
-0.226202
-0.205768
-0.187759
-0.171862
-0.157791
-0.145294
-0.134161
-0.1242
-0.115138
-0.106771
-0.100041
-0.473248
-0.458314
-0.439494
-0.4143
-0.384383
-0.352857
-0.322077
-0.293393
-0.267387
-0.244154
-0.223537
-0.205272
-0.189073
-0.174671
-0.161823
-0.150326
-0.139997
-0.130577
-0.121851
-0.114692
-0.481522
-0.46645
-0.448589
-0.425055
-0.396873
-0.366788
-0.337037
-0.308998
-0.283338
-0.260242
-0.23962
-0.221256
-0.204897
-0.190291
-0.17721
-0.165459
-0.154862
-0.14518
-0.136186
-0.128677
-0.486332
-0.471213
-0.454337
-0.432544
-0.406278
-0.377886
-0.349438
-0.322306
-0.297228
-0.274474
-0.254025
-0.235719
-0.219339
-0.204656
-0.191457
-0.179558
-0.168792
-0.158939
-0.149765
-0.141985
-0.487933
-0.472862
-0.45697
-0.436947
-0.412722
-0.386228
-0.359328
-0.333351
-0.309084
-0.286873
-0.266774
-0.248682
-0.232417
-0.21778
-0.204576
-0.192631
-0.181792
-0.171855
-0.162587
-0.154614
-0.486627
-0.471699
-0.456769
-0.438494
-0.416375
-0.391934
-0.366789
-0.342192
-0.318951
-0.297479
-0.277902
-0.260173
-0.244157
-0.229686
-0.216586
-0.204696
-0.193876
-0.183939
-0.174658
-0.166571
-0.482747
-0.46806
-0.454051
-0.437459
-0.417451
-0.395157
-0.371932
-0.348909
-0.326893
-0.306345
-0.287455
-0.270235
-0.254597
-0.240407
-0.227515
-0.215777
-0.205063
-0.19521
-0.185994
-0.17787
-0.47665
-0.462304
-0.449168
-0.434156
-0.416204
-0.396092
-0.374896
-0.353606
-0.332988
-0.313534
-0.295487
-0.278917
-0.263782
-0.249984
-0.2374
-0.225906
-0.215384
-0.205691
-0.196615
-0.18853
-0.468707
-0.4548
-0.442485
-0.428925
-0.412924
-0.394965
-0.375853
-0.356409
-0.337334
-0.319125
-0.302066
-0.286276
-0.271761
-0.258461
-0.246282
-0.235119
-0.224871
-0.215413
-0.206549
-0.198578
0.080961
0.0529461
0.0323205
0.022496
0.0137137
0.00184757
-0.0114723
-0.024338
-0.0364528
-0.0482289
-0.059908
-0.0714624
-0.0827995
-0.0938779
-0.104706
-0.115308
-0.125709
-0.135938
-0.146028
-0.156025
0.0238894
0.00997572
-0.00223489
-0.00963666
-0.0151571
-0.0215838
-0.0290758
-0.036611
-0.0436027
-0.0501078
-0.0563519
-0.0624308
-0.0683186
-0.0739681
-0.0793592
-0.0844935
-0.089376
-0.0940067
-0.0983805
-0.10249
0.00964273
0.00349913
-0.00202383
-0.00665116
-0.0108156
-0.0150849
-0.0196347
-0.0242886
-0.0288506
-0.0332775
-0.0376267
-0.0419527
-0.0462694
-0.0505687
-0.0548441
-0.0590979
-0.0633377
-0.0675716
-0.0718069
-0.0760506
0.00121593
-0.00259708
-0.00634115
-0.0100148
-0.0136123
-0.017172
-0.0207319
-0.0242871
-0.0278059
-0.0312666
-0.0346693
-0.0380234
-0.0413345
-0.044602
-0.0478235
-0.0509977
-0.0541253
-0.0572075
-0.0602458
-0.0632413
-0.00529335
-0.00836856
-0.011188
-0.0138007
-0.0163718
-0.018957
-0.0215363
-0.0240868
-0.0266035
-0.0290897
-0.0315497
-0.0339869
-0.036404
-0.0388032
-0.0411866
-0.0435565
-0.0459152
-0.0482653
-0.0506091
-0.0529494
-0.0102002
-0.0126697
-0.0147767
-0.0166468
-0.0185053
-0.020421
-0.0223603
-0.0242864
-0.0261912
-0.0280818
-0.0299646
-0.0318415
-0.033712
-0.0355759
-0.0374334
-0.0392851
-0.0411316
-0.0429733
-0.0448108
-0.0466445
-0.0132662
-0.0151835
-0.0167612
-0.0181538
-0.0195563
-0.0210203
-0.0225127
-0.0239999
-0.025474
-0.0269408
-0.0284058
-0.0298704
-0.031334
-0.0327956
-0.0342553
-0.0357134
-0.0371701
-0.0386259
-0.0400811
-0.041536
-0.0150887
-0.0165648
-0.0177961
-0.0189018
-0.0200192
-0.021184
-0.0223727
-0.023561
-0.0247423
-0.02592
-0.027098
-0.0282774
-0.0294575
-0.0306376
-0.0318173
-0.0329967
-0.0341757
-0.0353545
-0.0365332
-0.0377118
-0.016191
-0.0173084
-0.0182993
-0.0192217
-0.0201477
-0.0210996
-0.0220669
-0.0230359
-0.0240019
-0.0249661
-0.0259305
-0.0268959
-0.0278618
-0.0288278
-0.0297936
-0.0307592
-0.0317245
-0.0326897
-0.0336546
-0.0346194
-0.0169733
-0.0177949
-0.0185984
-0.0193882
-0.0201764
-0.0209702
-0.0217693
-0.0225702
-0.0233708
-0.0241707
-0.0249703
-0.02577
-0.0265697
-0.0273692
-0.0281683
-0.0289671
-0.0297655
-0.0305635
-0.0313611
-0.0321585
-0.017634
-0.0182257
-0.0188725
-0.0195466
-0.0202189
-0.0208833
-0.0215446
-0.0222066
-0.0228697
-0.0235329
-0.0241957
-0.0248579
-0.0255196
-0.026181
-0.0268421
-0.0275027
-0.028163
-0.028823
-0.0294828
-0.0301424
-0.0182365
-0.0186591
-0.0191723
-0.0197355
-0.0202993
-0.0208494
-0.021392
-0.0219341
-0.0224779
-0.0230225
-0.023567
-0.0241109
-0.0246545
-0.0251981
-0.0257416
-0.0262852
-0.0268288
-0.0273727
-0.0279169
-0.0284613
-0.0187509
-0.0190411
-0.0194355
-0.0198923
-0.0203532
-0.0207989
-0.021235
-0.02167
-0.0221071
-0.0225456
-0.0229846
-0.0234237
-0.023863
-0.0243028
-0.0247434
-0.0251849
-0.0256274
-0.026071
-0.0265157
-0.0269618
-0.0191507
-0.0193187
-0.0196024
-0.0199612
-0.0203281
-0.0206784
-0.0210175
-0.021355
-0.021695
-0.0220375
-0.0223812
-0.022726
-0.0230721
-0.0234199
-0.0237698
-0.024122
-0.0244765
-0.0248337
-0.0251935
-0.0255562
-0.0194308
-0.0194521
-0.01961
-0.0198642
-0.020133
-0.0203832
-0.0206195
-0.0208541
-0.0210929
-0.0213363
-0.0215834
-0.0218339
-0.0220881
-0.0223468
-0.0226102
-0.0228788
-0.0231527
-0.023432
-0.0237168
-0.0240071
-0.0197309
-0.0196178
-0.0196147
-0.0197078
-0.019828
-0.019941
-0.0200468
-0.020156
-0.020275
-0.0204051
-0.0205456
-0.0206963
-0.020857
-0.0210283
-0.0212103
-0.021403
-0.0216063
-0.0218201
-0.022044
-0.0222777
-0.019555
-0.0193421
-0.0190798
-0.0188544
-0.0186886
-0.0185704
-0.0184854
-0.0184277
-0.0183975
-0.0183955
-0.0184216
-0.0184743
-0.0185523
-0.018654
-0.0187783
-0.0189237
-0.019089
-0.019273
-0.0194743
-0.0196917
-0.0169142
-0.0164333
-0.0159193
-0.0155024
-0.0151938
-0.014967
-0.0148015
-0.0146882
-0.0146241
-0.0146068
-0.0146334
-0.0147002
-0.0148037
-0.0149406
-0.0151078
-0.0153025
-0.015522
-0.0157639
-0.0160259
-0.0163058
-0.005358
-0.00171248
-0.000438228
-0.00106465
-0.00212019
-0.00292009
-0.0034753
-0.00397169
-0.00450747
-0.00508621
-0.00568251
-0.00628012
-0.00687571
-0.00747077
-0.00806615
-0.00866115
-0.00925443
-0.00984478
-0.0104313
-0.0110134
0.00654636
0.0187455
0.0224793
0.0198913
0.0161035
0.013368
0.0115902
0.0101249
0.00863657
0.00710488
0.00560389
0.00417733
0.00282748
0.00154164
0.000309808
-0.000872422
-0.00200695
-0.00309561
-0.00414075
-0.00514495
0.119289
0.119815
0.120891
0.122509
0.124668
0.127382
0.130673
0.134561
0.139065
0.144185
0.149909
0.156177
0.162879
0.169776
0.176456
0.182114
0.18524
0.182804
0.16822
0.126553
0.110081
0.110466
0.111196
0.112291
0.113713
0.115483
0.117535
0.119899
0.122447
0.125204
0.127922
0.130598
0.132743
0.134269
0.134197
0.132173
0.126138
0.114804
0.0930704
0.0552039
0.0991923
0.0993991
0.0997647
0.100302
0.100976
0.101782
0.102643
0.103532
0.104317
0.104935
0.105161
0.104863
0.103654
0.10127
0.0970577
0.0905191
0.0806769
0.0668824
0.0484403
0.0256376
0.0873168
0.0873535
0.0873982
0.0874517
0.0874915
0.0874892
0.087382
0.0871054
0.0865548
0.0856248
0.0841562
0.0819828
0.0788758
0.0745966
0.0688758
0.0614698
0.0522354
0.0410761
0.0279327
0.0119513
0.0751543
0.0750647
0.0748722
0.0745724
0.074152
0.0735769
0.0728004
0.0717541
0.0703657
0.0685373
0.0661776
0.063162
0.0593969
0.0547537
0.0491863
0.0426
0.0350081
0.0262194
0.0159702
0.00333783
0.0632874
0.063121
0.0627814
0.0622642
0.061562
0.0606466
0.0594866
0.058029
0.0562295
0.0540214
0.0513616
0.0481799
0.0444506
0.0401107
0.03516
0.0295182
0.0231522
0.0158373
0.0073187
-0.00309536
0.0521204
0.0519168
0.0515057
0.0508834
0.0500462
0.0489756
0.0476527
0.0460436
0.0441242
0.0418552
0.039218
0.0361738
0.0327148
0.0287979
0.0244174
0.0195021
0.014019
0.0078173
0.000749561
-0.00764367
0.041882
0.0416685
0.0412389
0.0405899
0.0397202
0.0386185
0.0372755
0.0356711
0.0337931
0.031618
0.0291369
0.0263243
0.0231754
0.0196586
0.0157721
0.0114736
0.00676203
0.00156419
-0.00418194
-0.010769
0.0326637
0.0324564
0.0320402
0.0314116
0.0305701
0.0295091
0.0282246
0.0267051
0.0249449
0.022929
0.0206532
0.0181001
0.0152689
0.0121408
0.00872346
0.00499912
0.000988537
-0.00333297
-0.00795502
-0.0129798
0.0244641
0.0242714
0.0238849
0.0233008
0.0225184
0.0215337
0.0203458
0.0189481
0.0173395
0.0155109
0.0134623
0.0111832
0.00867795
0.00593664
0.00297295
-0.000219067
-0.00360843
-0.00718952
-0.0108922
-0.0146596
0.0172287
0.017054
0.0167038
0.0161742
0.015464
0.0145705
0.0134949
0.0122341
0.0107903
0.00915918
0.0073449
0.0053427
0.00316091
0.00079475
-0.00173996
-0.00444467
-0.00728386
-0.0102343
-0.0131888
-0.015997
0.0108777
0.0107214
0.0104086
0.00993495
0.00929958
0.0085007
0.00754097
0.00641979
0.00514162
0.00370546
0.00211839
0.000379723
-0.00149865
-0.00351703
-0.00565698
-0.00791711
-0.0102611
-0.0126608
-0.0149974
-0.0170847
0.00532636
0.00518652
0.00490744
0.00448504
0.00391882
0.00320842
0.00235823
0.00136983
0.000249451
-0.00100226
-0.00237739
-0.00387524
-0.0054822
-0.00719428
-0.00898774
-0.0108543
-0.0127545
-0.0146611
-0.0164617
-0.0179699
0.000498763
0.000371255
0.000117732
-0.00026542
-0.000777638
-0.00141735
-0.00217752
-0.0030533
-0.00403537
-0.00512058
-0.00630032
-0.00757506
-0.0089344
-0.0103767
-0.0118773
-0.013419
-0.0149479
-0.0164223
-0.0177309
-0.0187113
-0.00366067
-0.00378208
-0.00402256
-0.00438535
-0.00486871
-0.00546939
-0.00617715
-0.006983
-0.00787137
-0.00883242
-0.00985001
-0.0109208
-0.0120353
-0.0132029
-0.0144144
-0.0156687
-0.0169063
-0.0180559
-0.0189509
-0.019394
-0.00717997
-0.00730255
-0.00754463
-0.00790974
-0.00839546
-0.00899884
-0.00970775
-0.0105117
-0.0113885
-0.0123202
-0.0132728
-0.0142247
-0.0151402
-0.0160199
-0.0168586
-0.0177078
-0.0185663
-0.0194157
-0.0200178
-0.0200288
-0.0100583
-0.0101879
-0.0104446
-0.0108325
-0.0113497
-0.0119957
-0.0127607
-0.0136383
-0.0146076
-0.015651
-0.0167242
-0.0177846
-0.0187466
-0.0195413
-0.0200721
-0.0203428
-0.0203957
-0.0204279
-0.0204322
-0.0200043
-0.0122716
-0.01241
-0.0126887
-0.0131108
-0.0136775
-0.0143897
-0.0152467
-0.0162473
-0.0173874
-0.0186598
-0.0200459
-0.0215093
-0.022974
-0.0243042
-0.0252715
-0.0255648
-0.024862
-0.0230604
-0.0205517
-0.0182075
-0.0137812
-0.0139267
-0.014227
-0.0146822
-0.0152981
-0.0160756
-0.0170253
-0.0181504
-0.0194695
-0.0209892
-0.0227392
-0.0247247
-0.0269738
-0.0294343
-0.0319992
-0.0342483
-0.0353887
-0.0338657
-0.0278114
-0.0158832
-0.0145459
-0.0146978
-0.0150107
-0.0154869
-0.0161318
-0.0169507
-0.0179561
-0.0191607
-0.0205893
-0.0222687
-0.0242475
-0.0265831
-0.0293725
-0.0327323
-0.0368231
-0.0417417
-0.0472924
-0.0520683
-0.0510241
-0.0283021
0.129717
0.130291
0.131574
0.13347
0.136124
0.139436
0.143648
0.148617
0.154722
0.161752
0.170297
0.180038
0.191914
0.20542
0.222135
0.241193
0.265455
0.293282
0.33013
0.372513
0.129681
0.130255
0.131537
0.133433
0.136086
0.139396
0.143606
0.148572
0.154673
0.161699
0.170236
0.179967
0.191827
0.205311
0.221989
0.240997
0.265166
0.292858
0.329473
0.371462
0.129608
0.130182
0.131463
0.133358
0.136008
0.139316
0.143522
0.148483
0.154576
0.161591
0.170114
0.179825
0.191653
0.205094
0.221697
0.240603
0.26459
0.292011
0.328162
0.369366
0.129499
0.130073
0.131353
0.133245
0.135892
0.139196
0.143396
0.148348
0.154431
0.161431
0.169931
0.179612
0.191392
0.20477
0.221261
0.240016
0.263729
0.290747
0.326202
0.366237
0.129354
0.129928
0.131206
0.133095
0.135738
0.139036
0.143228
0.14817
0.154238
0.161217
0.169688
0.17933
0.191046
0.204339
0.220683
0.239237
0.262589
0.289074
0.323602
0.362089
0.129174
0.129747
0.131022
0.132909
0.135546
0.138837
0.143019
0.147948
0.153997
0.160952
0.169387
0.178978
0.190617
0.203804
0.219966
0.238271
0.261174
0.287002
0.320375
0.356945
0.128957
0.12953
0.130803
0.132685
0.135317
0.138599
0.14277
0.147683
0.15371
0.160635
0.169027
0.178558
0.190105
0.203166
0.219115
0.237124
0.259493
0.284543
0.316534
0.350832
0.128705
0.129278
0.130548
0.132426
0.135051
0.138324
0.142481
0.147375
0.153378
0.160267
0.16861
0.178072
0.189515
0.202429
0.218133
0.235799
0.257554
0.281711
0.312095
0.343782
0.128419
0.128991
0.130258
0.132132
0.134748
0.138011
0.142152
0.147026
0.153001
0.159851
0.168139
0.177522
0.188848
0.201594
0.217026
0.234304
0.255368
0.278522
0.307078
0.335833
0.128098
0.12867
0.129934
0.131802
0.13441
0.137661
0.141786
0.146637
0.15258
0.159386
0.167614
0.176909
0.188108
0.200666
0.215799
0.232646
0.252947
0.274995
0.301504
0.327028
0.127742
0.128316
0.129576
0.131439
0.134037
0.137276
0.141382
0.146208
0.152118
0.158875
0.167038
0.176235
0.187296
0.199647
0.214459
0.230831
0.250305
0.271145
0.295397
0.317414
0.127354
0.127928
0.129185
0.131043
0.133631
0.136855
0.140942
0.145742
0.151615
0.158319
0.166412
0.175503
0.186417
0.198542
0.213013
0.228866
0.247457
0.266993
0.288785
0.307043
0.126932
0.127508
0.128762
0.130614
0.133191
0.136401
0.140467
0.145238
0.151072
0.157721
0.165738
0.174716
0.185475
0.197355
0.211468
0.226759
0.24442
0.262557
0.281698
0.295971
0.126478
0.127056
0.128307
0.130153
0.132719
0.135915
0.139958
0.144699
0.150491
0.157081
0.165019
0.173875
0.184471
0.19609
0.20983
0.22452
0.241212
0.257854
0.274174
0.28425
0.125992
0.126573
0.127821
0.129662
0.132216
0.135396
0.139416
0.144125
0.149874
0.156401
0.164256
0.172984
0.183409
0.194751
0.208107
0.222156
0.237853
0.252904
0.266255
0.271928
0.125475
0.126059
0.127306
0.129141
0.131683
0.134847
0.138841
0.143517
0.149219
0.15568
0.163447
0.172039
0.182287
0.193336
0.206297
0.21967
0.234356
0.24772
0.257996
0.259045
0.124927
0.125516
0.126762
0.128591
0.131121
0.134268
0.138236
0.142877
0.148531
0.154923
0.162598
0.171049
0.181112
0.191855
0.20441
0.217073
0.230739
0.242318
0.249456
0.245632
0.12435
0.124946
0.126192
0.128019
0.13054
0.133672
0.137617
0.142228
0.147837
0.154165
0.161754
0.170066
0.179949
0.190381
0.202534
0.214454
0.227098
0.236752
0.240683
0.23159
0.123743
0.124348
0.125598
0.127426
0.12994
0.133065
0.136993
0.141581
0.147155
0.153429
0.160943
0.169128
0.178843
0.188969
0.200726
0.211877
0.223498
0.231065
0.231697
0.216252
0.123103
0.12371
0.124954
0.126772
0.129262
0.132359
0.13624
0.140774
0.146264
0.152441
0.159802
0.167802
0.177237
0.186993
0.198218
0.208586
0.219115
0.224778
0.222581
0.199908
0.123091
0.123699
0.124942
0.126759
0.129249
0.132345
0.136225
0.140759
0.146247
0.152423
0.159782
0.167779
0.177211
0.186964
0.198185
0.208548
0.219071
0.224726
0.222518
0.199831
0.123732
0.124337
0.125587
0.127414
0.129928
0.133052
0.136979
0.141566
0.147139
0.153412
0.160923
0.169106
0.178819
0.188941
0.200695
0.211841
0.223456
0.231016
0.231638
0.216179
0.124339
0.124935
0.126181
0.128008
0.130528
0.13366
0.137604
0.142214
0.147822
0.154148
0.161735
0.170045
0.179927
0.190355
0.202504
0.21442
0.227059
0.236705
0.240627
0.231522
0.124917
0.125506
0.126751
0.128581
0.13111
0.134257
0.138224
0.142864
0.148516
0.154907
0.162581
0.17103
0.181091
0.19183
0.204382
0.217041
0.230702
0.242273
0.249403
0.245568
0.125465
0.126049
0.127296
0.129131
0.131673
0.134836
0.138829
0.143504
0.149205
0.155665
0.16343
0.172021
0.182267
0.193313
0.20627
0.21964
0.234321
0.247679
0.257946
0.258985
0.125983
0.126563
0.127812
0.129652
0.132207
0.135386
0.139405
0.144113
0.149861
0.156387
0.164241
0.172966
0.18339
0.194729
0.208082
0.222128
0.237821
0.252865
0.266209
0.271872
0.126469
0.127047
0.128299
0.130144
0.13271
0.135905
0.139947
0.144688
0.150479
0.157068
0.165005
0.173859
0.184453
0.19607
0.209807
0.224494
0.241182
0.257818
0.274131
0.284197
0.126924
0.1275
0.128754
0.130605
0.133182
0.136392
0.140457
0.145228
0.151061
0.157709
0.165725
0.174701
0.185458
0.197336
0.211446
0.226735
0.244392
0.262523
0.281659
0.295922
0.127347
0.127921
0.129178
0.131035
0.133623
0.136847
0.140933
0.145732
0.151604
0.158308
0.1664
0.17549
0.186402
0.198525
0.212993
0.228843
0.247431
0.266962
0.288748
0.306999
0.127736
0.128309
0.12957
0.131432
0.13403
0.137268
0.141374
0.1462
0.152109
0.158865
0.167027
0.176223
0.187282
0.199632
0.214441
0.23081
0.250281
0.271117
0.295364
0.317373
0.128092
0.128664
0.129928
0.131796
0.134403
0.137654
0.141778
0.146629
0.152572
0.159377
0.167604
0.176898
0.188095
0.200652
0.215783
0.232627
0.252926
0.274969
0.301474
0.326991
0.128413
0.128986