/*--------------------------------*- C++ -*----------------------------------*\
  =========                 |
  \\      /  F ield         | OpenFOAM: The Open Source CFD Toolbox
   \\    /   O peration     | Website:  https://openfoam.org
    \\  /    A nd           | Version:  6.0
     \\/     M anipulation  |
\*---------------------------------------------------------------------------*/
FoamFile
{
    version     2.0;
    format      ascii;
    class       volVectorField;
    location    "2.7";
    object      U;
}
// * * * * * * * * * * * * * * * * * * * * * * * * * * * * * * * * * * * * * //

dimensions      [0 1 -1 0 0 0 0];

internalField   nonuniform List<vector> 
8000
(
(-0.00482944 0.00512795 -4.70402e-21)
(-0.0231319 0.0112714 2.52122e-20)
(-0.0537595 0.0146645 -3.10267e-20)
(-0.0883233 0.0162936 2.37957e-20)
(-0.123096 0.0167609 1.18423e-20)
(-0.156402 0.0164539 -3.56247e-20)
(-0.187186 0.0156212 -3.23908e-21)
(-0.21483 0.0144169 -1.2559e-21)
(-0.239001 0.0129389 -1.94126e-20)
(-0.259537 0.0112564 -1.06796e-20)
(-0.27639 0.0094266 7.82728e-21)
(-0.289604 0.00750488 3.02888e-20)
(-0.299309 0.0055479 -2.20509e-21)
(-0.305713 0.00361345 3.27555e-21)
(-0.309076 0.00175771 -3.05925e-20)
(-0.309676 3.06967e-05 1.87891e-20)
(-0.307895 -0.00153065 -2.65597e-20)
(-0.304539 -0.00291078 4.01091e-20)
(-0.300351 -0.00411146 -4.90514e-23)
(-0.292715 -0.00510961 8.5596e-21)
(-0.00537515 0.0150072 1.56181e-20)
(-0.023853 0.0330449 -8.04674e-20)
(-0.0538868 0.0430515 -5.63571e-20)
(-0.0875852 0.0478817 -3.87917e-20)
(-0.121419 0.0492854 -5.06839e-20)
(-0.153786 0.0483955 1.05415e-20)
(-0.183668 0.0459425 -5.97352e-20)
(-0.210462 0.0423828 -1.39802e-20)
(-0.233841 0.038007 3.76331e-21)
(-0.253639 0.033019 4.54497e-20)
(-0.269803 0.0275874 -5.05291e-20)
(-0.282364 0.0218736 7.0734e-20)
(-0.291435 0.016043 -5.3264e-20)
(-0.297201 0.0102659 -6.32246e-20)
(-0.2999 0.00470998 -8.65384e-20)
(-0.299787 -0.000471566 5.56306e-20)
(-0.297226 -0.00516112 -1.75256e-20)
(-0.293009 -0.00930216 -6.35154e-20)
(-0.287921 -0.012889 5.97531e-20)
(-0.279408 -0.0158414 -4.52893e-20)
(-0.00641002 0.0241525 1.53915e-19)
(-0.0252208 0.0534649 8.10022e-20)
(-0.0541028 0.0699609 9.16498e-20)
(-0.086113 0.0780964 7.83486e-21)
(-0.118102 0.0806355 5.13018e-20)
(-0.148614 0.0793927 6.46544e-20)
(-0.176702 0.0755526 -1.19298e-19)
(-0.201796 0.0698634 -6.4315e-20)
(-0.223577 0.062803 -8.60289e-20)
(-0.241881 0.0547044 9.0657e-20)
(-0.256644 0.0458383 -7.00418e-20)
(-0.267877 0.0364601 -9.1967e-20)
(-0.275663 0.0268321 -3.41334e-20)
(-0.280149 0.0172275 3.20089e-20)
(-0.281532 0.00792355 -8.41341e-21)
(-0.280027 -0.00081619 1.2677e-20)
(-0.275956 -0.00877412 1.44345e-19)
(-0.270085 -0.0158241 -2.16277e-20)
(-0.263275 -0.0219218 -1.43892e-19)
(-0.253101 -0.0268971 1.90961e-19)
(-0.00783043 0.0321361 5.52899e-20)
(-0.0271007 0.0717152 -7.60654e-20)
(-0.0543433 0.0944717 -1.98617e-20)
(-0.083926 0.106052 3.70096e-20)
(-0.113234 0.110027 1.05764e-19)
(-0.141021 0.108788 2.34345e-19)
(-0.166449 0.103927 2.32263e-19)
(-0.188995 0.0964676 2.06806e-20)
(-0.208362 0.0870664 1.4623e-19)
(-0.224387 0.076178 2.26066e-19)
(-0.237 0.0641626 -1.81817e-19)
(-0.246192 0.0513526 2.70075e-19)
(-0.252014 0.0380874 -6.3294e-20)
(-0.254567 0.0247264 1.50927e-20)
(-0.253998 0.0116466 6.39895e-20)
(-0.250472 -0.00077344 8.47089e-20)
(-0.244252 -0.0121929 -1.35071e-19)
(-0.236056 -0.0223743 -1.11497e-19)
(-0.226837 -0.031183 -1.92498e-19)
(-0.214399 -0.0383038 2.81691e-19)
(-0.00949657 0.0386166 -2.83668e-20)
(-0.0293102 0.0871041 -2.9669e-19)
(-0.0545273 0.115759 -8.91256e-20)
(-0.0810689 0.130915 -2.1814e-19)
(-0.106967 0.13668 8.26313e-20)
(-0.131242 0.135889 -1.32729e-19)
(-0.153197 0.130476 4.74841e-20)
(-0.172377 0.121712 -2.88089e-19)
(-0.188515 0.110424 1.53937e-19)
(-0.201462 0.09718 -1.84522e-19)
(-0.211147 0.0824188 -1.65573e-19)
(-0.21755 0.0665306 -1.88746e-19)
(-0.220697 0.0499081 1.71086e-19)
(-0.220653 0.0329713 -1.55736e-19)
(-0.217516 0.0161763 2.15258e-19)
(-0.211401 8.99494e-06 6.14608e-20)
(-0.202503 -0.0150518 1.51772e-19)
(-0.191464 -0.0286135 6.39052e-20)
(-0.179329 -0.0403859 -2.5944e-19)
(-0.164249 -0.0498302 4.15349e-19)
(-0.0112488 0.0433647 1.3034e-19)
(-0.0316394 0.0991088 8.21994e-21)
(-0.0545723 0.133139 5.40364e-20)
(-0.0776233 0.151932 1.88658e-19)
(-0.0995359 0.15984 -2.82896e-20)
(-0.119636 0.159977 3.12658e-19)
(-0.137399 0.154538 1.42437e-19)
(-0.152462 0.145004 1.21463e-20)
(-0.164603 0.13236 3.73152e-19)
(-0.173695 0.117285 1.25386e-19)
(-0.179681 0.100285 6.03936e-20)
(-0.182543 0.0817948 1.89274e-19)
(-0.182299 0.0622361 1.74999e-19)
(-0.178993 0.0420597 3.20878e-19)
(-0.172693 0.0217683 -2.86964e-19)
(-0.163474 0.00192853 4.03329e-19)
(-0.151467 -0.0168493 4.14516e-21)
(-0.137217 -0.0339882 -5.07982e-19)
(-0.121835 -0.0489769 6.53717e-19)
(-0.103952 -0.0609615 2.61566e-19)
(-0.0129261 0.0462791 -7.62395e-20)
(-0.0338745 0.107411 -1.42469e-19)
(-0.0544078 0.146108 -2.95774e-19)
(-0.0737139 0.168476 -9.29343e-21)
(-0.0912562 0.17881 5.30732e-20)
(-0.106691 0.180331 -3.84675e-19)
(-0.119693 0.175395 -2.89434e-19)
(-0.130012 0.165648 -4.06967e-20)
(-0.137489 0.152218 -3.74783e-19)
(-0.142037 0.135885 -2.64354e-19)
(-0.143623 0.117224 -7.74896e-20)
(-0.14225 0.096704 -2.52068e-19)
(-0.137946 0.0747604 -3.85081e-21)
(-0.130755 0.051847 -3.39528e-19)
(-0.120736 0.0284751 1.41641e-19)
(-0.107946 0.00524814 -1.6199e-19)
(-0.0924712 -0.0171272 1.22918e-19)
(-0.0747464 -0.0378921 -1.59503e-19)
(-0.0559059 -0.0562686 -4.45276e-19)
(-0.0351913 -0.0710021 -1.3198e-19)
(-0.0143853 0.0473907 -3.06855e-20)
(-0.0358209 0.111923 -3.30375e-20)
(-0.0539866 0.154388 2.49875e-19)
(-0.069507 0.180089 -4.10867e-19)
(-0.0825192 0.192998 5.97616e-20)
(-0.0930139 0.19627 -2.4229e-19)
(-0.100884 0.192313 1.13899e-19)
(-0.106018 0.182882 5.25206e-19)
(-0.108339 0.169221 -3.11849e-20)
(-0.107814 0.152208 -4.01657e-19)
(-0.104451 0.132484 7.11027e-20)
(-0.0982872 0.110553 1.37102e-20)
(-0.0893757 0.0868575 -8.74288e-20)
(-0.0777803 0.0618366 6.47861e-21)
(-0.0635697 0.0359772 7.5189e-19)
(-0.0468047 0.00987031 -1.0611e-19)
(-0.0275486 -0.0157394 -2.09078e-19)
(-0.00613309 -0.0399528 -3.70809e-19)
(0.0163388 -0.0617182 3.77736e-19)
(0.0399076 -0.0793268 1.56317e-19)
(-0.0155171 0.0468536 1.46755e-19)
(-0.0373256 0.112787 -1.94783e-19)
(-0.0532927 0.157948 2.74481e-19)
(-0.0651991 0.186532 2.77787e-19)
(-0.0737612 0.201978 2.55957e-19)
(-0.0792867 0.207216 5.2439e-19)
(-0.0818979 0.204603 3.44471e-19)
(-0.0816393 0.195937 -7.48802e-19)
(-0.0785393 0.182542 3.88054e-19)
(-0.0726384 0.16538 3.10197e-19)
(-0.0639983 0.145159 -4.60596e-21)
(-0.0526989 0.12242 3.55809e-19)
(-0.0388298 0.0976146 2.81234e-19)
(-0.0224818 0.0711622 -1.51075e-19)
(-0.00374228 0.0435065 5.17433e-19)
(0.0173136 0.0151861 -6.40609e-19)
(0.0406234 -0.01308 2.56079e-19)
(0.0659433 -0.0403222 3.25784e-19)
(0.0922568 -0.0652499 -7.32487e-20)
(0.118824 -0.0856956 6.24814e-19)
(-0.016258 0.0449247 3.02878e-19)
(-0.038294 0.110368 1.63507e-20)
(-0.0523434 0.157022 -1.07859e-19)
(-0.0609969 0.187823 -1.12995e-19)
(-0.0654186 0.205541 -5.32537e-19)
(-0.0661958 0.212766 7.5064e-20)
(-0.0636771 0.211702 2.18104e-19)
(-0.0580783 0.204122 -1.05715e-19)
(-0.0495513 0.191388 8.82621e-20)
(-0.038226 0.174524 -2.17038e-20)
(-0.02423 0.154294 -1.17736e-19)
(-0.00769231 0.13128 1.12985e-19)
(0.0112614 0.105947 -5.01466e-19)
(0.0325156 0.0786988 4.8093e-19)
(0.0559685 0.0499318 -4.19876e-19)
(0.0815338 0.0201127 1.29662e-19)
(0.109141 -0.0101144 2.94756e-19)
(0.138612 -0.0397841 -6.1788e-20)
(0.169066 -0.067427 -2.01372e-19)
(0.198981 -0.0904512 -1.31407e-19)
(-0.0165963 0.0419325 -3.80864e-19)
(-0.0387006 0.10521 -2.39446e-20)
(-0.0511884 0.152091 8.01396e-20)
(-0.0570924 0.184253 2.05353e-19)
(-0.0578733 0.203752 -2.89481e-19)
(-0.0543438 0.212759 -2.54663e-19)
(-0.0470618 0.213255 6.01947e-19)
(-0.0364176 0.20692 -3.31325e-19)
(-0.0226981 0.195107 -2.17317e-19)
(-0.00613406 0.17887 -3.18071e-19)
(0.0130749 0.159014 2.12739e-19)
(0.0347518 0.136156 -2.76402e-21)
(0.0587418 0.110775 -4.027e-19)
(0.0849163 0.083265 -6.6993e-19)
(0.113172 0.0539847 5.11126e-19)
(0.143425 0.0233279 -4.15922e-19)
(0.175597 -0.00815814 5.8939e-19)
(0.209546 -0.0395711 -1.66074e-19)
(0.244562 -0.0693208 3.36398e-19)
(0.278412 -0.0944286 -1.11464e-18)
(-0.0165712 0.0382412 -7.79023e-19)
(-0.0385906 0.0979811 5.07502e-19)
(-0.049903 0.143843 6.85092e-20)
(-0.0536366 0.176379 1.338e-20)
(-0.0513967 0.196964 -3.11692e-19)
(-0.0441567 0.207332 4.59018e-19)
(-0.0326522 0.209191 5.17132e-20)
(-0.0174373 0.204078 -9.59301e-20)
(0.00106706 0.19329 -3.10623e-19)
(0.0225292 0.177875 3.37977e-19)
(0.046681 0.158656 8.71334e-19)
(0.0733059 0.136268 -1.92603e-19)
(0.102234 0.111202 4.41997e-19)
(0.133338 0.0838473 -5.29062e-19)
(0.166529 0.0545348 -5.10053e-19)
(0.201732 0.0236012 3.07944e-19)
(0.238856 -0.00849987 5.08268e-19)
(0.277753 -0.0409595 -1.63873e-18)
(0.317888 -0.072106 1.97518e-19)
(0.356469 -0.0985767 2.50559e-19)
(-0.016266 0.0342142 5.78212e-19)
(-0.0380714 0.0894083 1.90388e-19)
(-0.0485755 0.133108 9.7812e-19)
(-0.0507132 0.164977 5.00393e-20)
(-0.0460987 0.185814 -1.09032e-19)
(-0.0357986 0.196939 -5.19636e-19)
(-0.0206831 0.199776 4.41097e-19)
(-0.00144285 0.195683 7.97972e-19)
(0.0213844 0.185866 5.40407e-19)
(0.0473806 0.17133 3.91368e-19)
(0.0762245 0.152887 3.40872e-19)
(0.107676 0.131173 -6.20848e-19)
(0.141566 0.106682 -2.00703e-19)
(0.177781 0.0797974 -1.44878e-19)
(0.216241 0.0508367 1.57446e-18)
(0.256873 0.0201021 -5.53803e-21)
(0.299544 -0.0120228 -3.92425e-19)
(0.34403 -0.0448278 -1.19236e-19)
(0.389922 -0.0765816 1.12304e-18)
(0.43412 -0.103478 1.45571e-19)
(-0.0157944 0.0301812 -2.84906e-20)
(-0.0372922 0.0802026 -5.42728e-19)
(-0.0472868 0.120775 -8.0311e-19)
(-0.0483122 0.150974 -2.22333e-19)
(-0.0418867 0.171171 1.22621e-19)
(-0.0291067 0.182335 2.58376e-20)
(-0.0109255 0.185623 7.05909e-19)
(0.0118708 0.182205 -8.77697e-19)
(0.0386616 0.173167 -3.35055e-19)
(0.0689714 0.159445 -6.84479e-19)
(0.10245 0.141811 -5.91368e-19)
(0.138852 0.120885 -5.27261e-19)
(0.178016 0.0971502 1.31466e-19)
(0.21983 0.070989 -1.71843e-19)
(0.264202 0.0427154 7.49858e-19)
(0.311005 0.012624 -4.15107e-19)
(0.360001 -0.0189378 -1.29635e-18)
(0.410792 -0.0513464 -2.56812e-19)
(0.46299 -0.0828328 6.3216e-19)
(0.513551 -0.109022 -5.20375e-19)
(-0.0152835 0.0264121 -9.20097e-20)
(-0.0364138 0.0709966 6.63417e-19)
(-0.0460802 0.107708 -8.419e-19)
(-0.0463029 0.135357 1.94892e-19)
(-0.0384357 0.154055 -3.98148e-19)
(-0.0235522 0.164514 8.85569e-19)
(-0.00263399 0.167661 -6.34671e-19)
(0.0234879 0.164488 7.30466e-19)
(0.0541545 0.155949 -6.9202e-19)
(0.0888681 0.14289 3.01117e-19)
(0.127272 0.126029 -1.44502e-19)
(0.169122 0.105949 -3.67777e-19)
(0.214243 0.0831186 -4.60254e-19)
(0.262487 0.0579183 4.64433e-19)
(0.313672 0.0306728 -3.90848e-19)
(0.367529 0.00169236 -8.60157e-19)
(0.423615 -0.0286771 8.97299e-19)
(0.481249 -0.059881 -1.13615e-18)
(0.539916 -0.0901603 5.08816e-19)
(0.597107 -0.114378 6.07084e-21)
(-0.0148521 0.0230989 -8.34571e-19)
(-0.0355709 0.0622929 -8.93984e-19)
(-0.0449277 0.0946678 1.03137e-19)
(-0.0444098 0.119077 -8.51977e-19)
(-0.035177 0.135543 -7.3616e-20)
(-0.0182402 0.144616 -6.24713e-19)
(0.0054409 0.14705 -1.42987e-19)
(0.0350417 0.143683 -4.18706e-19)
(0.0699068 0.13534 6.55355e-21)
(0.109542 0.122772 -1.83134e-19)
(0.153588 0.106627 1.6993e-20)
(0.201772 0.087446 -5.40578e-19)
(0.253851 0.0656791 6.08738e-19)
(0.309546 0.0417072 -8.58251e-19)
(0.368478 0.0158744 3.1049e-19)
(0.430111 -0.0114783 1.26438e-20)
(0.493694 -0.0399825 -4.87795e-19)
(0.558183 -0.0691382 1.2204e-18)
(0.622784 -0.0972913 -2.87471e-19)
(0.686052 -0.118297 -1.74758e-19)
(-0.0145905 0.0203465 9.33791e-19)
(-0.0348348 0.0544314 5.01412e-19)
(-0.0436991 0.0822517 4.63341e-19)
(-0.0422018 0.102965 6.87807e-20)
(-0.0313144 0.116655 6.22483e-19)
(-0.0119621 0.123806 8.94092e-19)
(0.0149552 0.125061 7.29017e-19)
(0.0486562 0.121132 6.78282e-20)
(0.0885108 0.112733 5.38162e-19)
(0.134025 0.10052 8.33645e-19)
(0.184798 0.0850722 -2.15481e-19)
(0.240456 0.0668867 3.66252e-19)
(0.30058 0.0463915 2.9596e-19)
(0.364634 0.0239691 3.06583e-19)
(0.431911 -1.75924e-05 1.82262e-18)
(0.501499 -0.0251983 -6.85221e-19)
(0.572266 -0.0511793 -3.8687e-20)
(0.642798 -0.0775143 7.917e-19)
(0.711937 -0.102786 -4.45641e-19)
(0.779735 -0.119583 2.09965e-19)
(-0.0145426 0.0181723 -7.52573e-19)
(-0.034185 0.0475769 4.70451e-20)
(-0.0421459 0.0708554 -5.93309e-19)
(-0.0391046 0.0876635 -7.5534e-20)
(-0.02588 0.0982639 4.30856e-19)
(-0.0033096 0.103156 -1.28115e-18)
(0.0277807 0.102928 -1.93991e-21)
(0.0666584 0.0982043 5.9615e-19)
(0.112702 0.0896056 5.5994e-19)
(0.165365 0.0777062 -2.47614e-19)
(0.224117 0.0630196 8.30966e-20)
(0.28836 0.0459988 1.90374e-19)
(0.357362 0.0270493 -9.12371e-20)
(0.430195 0.00654797 -1.0286e-18)
(0.505714 -0.0151369 2.5962e-19)
(0.582567 -0.0376265 7.22779e-19)
(0.659245 -0.0605273 -1.0321e-18)
(0.734049 -0.083468 4.99708e-19)
(0.805542 -0.10537 1.33137e-19)
(0.875362 -0.117414 6.37354e-19)
(-0.0146952 0.0165157 -1.09179e-19)
(-0.0334969 0.0417269 -5.22696e-19)
(-0.0399085 0.0606616 2.39259e-19)
(-0.0344436 0.073585 2.08273e-22)
(-0.0178306 0.0810159 -1.03434e-18)
(0.00915679 0.083533 1.61921e-19)
(0.0457447 0.081714 -3.03124e-20)
(0.0912106 0.0761318 2.07402e-19)
(0.144871 0.0673348 -9.50807e-19)
(0.206024 0.0558281 -6.87826e-20)
(0.273874 0.0420665 -2.27447e-19)
(0.347457 0.02646 1.98692e-19)
(0.425586 0.00938458 6.83319e-19)
(0.506839 -0.00880219 -1.05432e-19)
(0.589582 -0.0277487 4.30472e-20)
(0.672037 -0.0470999 2.67231e-19)
(0.752382 -0.0665062 -6.96006e-20)
(0.828779 -0.0857006 5.43015e-19)
(0.899819 -0.103865 -3.20358e-19)
(0.968114 -0.111331 -4.74999e-19)
(-0.0149774 0.0152558 1.02558e-19)
(-0.032549 0.03674 2.55726e-20)
(-0.0365467 0.0516562 2.09047e-19)
(-0.0275116 0.0609045 5.08806e-19)
(-0.00616692 0.0652969 2.83809e-19)
(0.0267215 0.0655309 2.9014e-20)
(0.0703659 0.0622094 -3.36634e-19)
(0.123963 0.0558779 8.62633e-20)
(0.186647 0.0470328 4.54472e-19)
(0.257415 0.0361206 -7.71408e-19)
(0.335055 0.0235413 5.83855e-19)
(0.418099 0.00965644 -4.41672e-19)
(0.504816 -0.00519952 3.76205e-19)
(0.593259 -0.0207078 -8.13877e-19)
(0.681346 -0.0365572 8.97326e-19)
(0.766979 -0.0524424 -9.59595e-19)
(0.848161 -0.068084 -2.48554e-19)
(0.923059 -0.0832806 7.67841e-19)
(0.990607 -0.0971417 -2.62802e-19)
(1.05239 -0.102011 1.05342e-19)
(-0.0152703 0.0142372 -7.7312e-20)
(-0.0310481 0.0323791 7.27053e-19)
(-0.031584 0.0436684 -4.43467e-21)
(-0.0176409 0.0495875 -4.48707e-19)
(0.00995783 0.0512399 -2.99332e-19)
(0.0503632 0.0494601 5.48627e-19)
(0.102663 0.0448955 -2.1701e-19)
(0.165837 0.0380809 -2.73701e-20)
(0.238679 0.0294719 4.51417e-19)
(0.319724 0.0194608 -5.61436e-19)
(0.407205 0.00838747 6.23088e-20)
(0.499061 -0.00344827 -7.3334e-19)
(0.593 -0.015775 3.86601e-19)
(0.686612 -0.0283389 -1.10477e-18)
(0.777516 -0.0408957 1.75428e-18)
(0.863509 -0.0532061 -3.25595e-19)
(0.942695 -0.0650385 3.23352e-19)
(1.0136 -0.0761309 -8.39912e-19)
(1.07566 -0.0855895 1.60316e-20)
(1.12528 -0.0945917 8.29784e-19)
(-0.0154242 0.013298 -2.34127e-19)
(-0.0286619 0.0283648 2.01416e-19)
(-0.0245526 0.0364323 -7.39932e-19)
(-0.00425944 0.039451 1.09179e-18)
(0.0311712 0.0387823 -7.86109e-19)
(0.0806839 0.0353957 4.00529e-20)
(0.143093 0.0299876 -8.43558e-19)
(0.216991 0.0230862 6.02435e-19)
(0.300661 0.0151071 -8.65892e-20)
(0.392027 0.0063806 -5.33204e-19)
(0.488671 -0.00282896 -3.1151e-19)
(0.58792 -0.0123071 3.29232e-19)
(0.686987 -0.0218746 2.16869e-19)
(0.783153 -0.0313738 -9.52843e-19)
(0.873951 -0.0406583 3.45723e-19)
(0.95732 -0.0495841 -5.00731e-19)
(1.03172 -0.0580031 6.30845e-20)
(1.0962 -0.0657392 -4.00893e-19)
(1.15054 -0.0724177 1.33593e-19)
(1.19397 -0.0787901 -5.57749e-19)
(-0.0152784 0.0122955 6.665e-19)
(-0.025052 0.0244297 -4.02293e-19)
(-0.0150254 0.0296586 3.30598e-19)
(0.0130842 0.0302474 -4.15784e-19)
(0.0578718 0.0277578 6.97037e-19)
(0.117924 0.0232752 -1.3496e-20)
(0.191607 0.0175335 -8.50119e-20)
(0.276942 0.0110448 -6.34099e-20)
(0.371535 0.0041698 3.85346e-19)
(0.472592 -0.00284381 6.55031e-19)
(0.577012 -0.00983448 -3.8748e-19)
(0.681573 -0.0167031 3.76044e-19)
(0.783151 -0.0233909 6.82251e-19)
(0.87894 -0.029859 -4.77941e-19)
(0.966642 -0.0360725 -9.47249e-19)
(1.04458 -0.0419886 1.71538e-18)
(1.11177 -0.0475515 -3.06514e-19)
(1.16787 -0.0526926 -9.27617e-20)
(1.21321 -0.0572516 9.47787e-19)
(1.24822 -0.0616494 -2.24265e-19)
(-0.0146782 0.011125 -1.08607e-18)
(-0.0198991 0.0203637 -7.21724e-19)
(-0.00263102 0.0231027 -2.76426e-19)
(0.0347258 0.0217514 5.32333e-19)
(0.0902624 0.0179992 -1.19913e-18)
(0.162036 0.0130112 6.1896e-19)
(0.247773 0.007532 7.8199e-20)
(0.344742 0.00202961 7.77218e-20)
(0.449743 -0.00322126 -8.11149e-19)
(0.559204 -0.00809095 -2.86796e-19)
(0.669397 -0.0125559 -5.02834e-19)
(0.776707 -0.0166619 4.8357e-19)
(0.877904 -0.0204888 1.33196e-19)
(0.970375 -0.024121 2.34951e-20)
(1.05226 -0.0276241 5.98226e-19)
(1.12249 -0.0310322 -6.14445e-19)
(1.18076 -0.0343443 -2.27216e-20)
(1.22742 -0.037528 2.49241e-20)
(1.26335 -0.0404735 8.94051e-20)
(1.28969 -0.043475 4.00694e-19)
(-0.0134858 0.00972822 3.46236e-19)
(-0.0129163 0.0160431 8.90056e-19)
(0.012945 0.0166168 7.13439e-19)
(0.0609056 0.0138328 -2.4531e-19)
(0.128398 0.00942467 8.51088e-19)
(0.212764 0.00458671 -7.06833e-20)
(0.310894 2.79075e-05 -1.0134e-19)
(0.419145 -0.00387506 5.92156e-20)
(0.533425 -0.00698237 8.21312e-19)
(0.649416 -0.00932795 4.81365e-19)
(0.762908 -0.0110615 1.40633e-19)
(0.870133 -0.0123921 1.02717e-20)
(0.968055 -0.0135376 -9.09426e-19)
(1.05454 -0.0146856 7.90651e-19)
(1.1284 -0.0159693 1.28505e-19)
(1.18933 -0.0174577 -2.19316e-19)
(1.23779 -0.0191602 -8.91495e-19)
(1.27476 -0.0210364 -6.36342e-20)
(1.30163 -0.022983 3.30951e-19)
(1.31996 -0.0252282 -5.99992e-20)
(-0.0115841 0.00809253 -8.79771e-19)
(-0.00385375 0.011442 3.67664e-19)
(0.0319642 0.010178 -1.79178e-18)
(0.0917853 0.00649819 7.3262e-19)
(0.172218 0.00208932 -5.8424e-19)
(0.269692 -0.00189302 4.31939e-19)
(0.380074 -0.00484225 -6.69003e-19)
(0.498693 -0.00654009 6.11045e-20)
(0.620554 -0.00704293 -3.39763e-20)
(0.740723 -0.00659451 1.78058e-19)
(0.85475 -0.00554083 2.54724e-19)
(0.959029 -0.00425092 -4.80673e-19)
(1.05103 -0.00305363 2.55643e-19)
(1.12936 -0.00219691 2.29056e-19)
(1.19369 -0.00183055 9.49975e-19)
(1.24453 -0.00200892 -4.20855e-19)
(1.28304 -0.0027078 -2.58017e-19)
(1.31077 -0.00384273 4.26292e-19)
(1.32945 -0.00528305 2.03785e-19)
(1.34078 -0.00725464 -4.23342e-19)
(-0.00887456 0.00624399 7.71849e-19)
(0.00750115 0.00662702 7.4355e-19)
(0.0546366 0.0038916 2.13529e-19)
(0.127451 -9.94994e-05 9.01746e-19)
(0.221552 -0.00380622 4.43579e-19)
(0.332252 -0.00619839 -7.97539e-19)
(0.454243 -0.00685936 1.20904e-18)
(0.581764 -0.00581091 -5.94754e-19)
(0.709019 -0.00336857 5.91265e-19)
(0.830691 -1.87527e-05 7.59669e-19)
(0.942419 0.00369821 -4.32719e-19)
(1.04111 0.00728575 8.28656e-20)
(1.12502 0.0103564 4.46357e-19)
(1.1937 0.0126615 3.08044e-19)
(1.24772 0.0140905 6.86757e-19)
(1.28839 0.0146488 -2.85283e-19)
(1.31746 0.0144261 -4.31632e-20)
(1.33688 0.0135683 3.9463e-19)
(1.34854 0.0122372 -8.93476e-20)
(1.35415 0.0102206 -2.00972e-21)
(-0.005273 0.00423758 -3.98793e-19)
(0.0213248 0.00174226 -1.46384e-18)
(0.081114 -0.00202553 3.44609e-19)
(0.1679 -0.005681 -2.62146e-19)
(0.276094 -0.00794292 -6.05925e-19)
(0.399709 -0.00801312 -4.31853e-19)
(0.532148 -0.00576879 -2.66733e-19)
(0.666612 -0.00155683 6.47695e-19)
(0.796714 0.00399905 -3.83908e-19)
(0.91709 0.010165 -3.91967e-19)
(1.02385 0.0162415 -4.8772e-19)
(1.11472 0.0216653 -8.04748e-20)
(1.18901 0.0260598 -5.98202e-20)
(1.24725 0.0292397 -1.07576e-18)
(1.29089 0.0311831 5.02079e-19)
(1.32191 0.0319875 -6.63237e-19)
(1.34248 0.0318242 1.91162e-19)
(1.35476 0.0309048 -1.466e-18)
(1.36069 0.0294182 4.45224e-19)
(1.36183 0.0271787 5.31147e-19)
(-0.000705958 0.00214844 -1.00128e-19)
(0.0377551 -0.00300993 7.14994e-19)
(0.111476 -0.00727245 4.57165e-20)
(0.213011 -0.00987785 1.10462e-19)
(0.335381 -0.00993174 -2.24962e-19)
(0.471135 -0.00699235 -3.32144e-21)
(0.612373 -0.00134105 -5.20358e-21)
(0.751425 0.00627776 -1.33844e-19)
(0.881639 0.0149135 4.76885e-19)
(0.998015 0.0236179 1.82747e-19)
(1.0975 0.0316001 8.15654e-19)
(1.17893 0.0383108 -2.21536e-19)
(1.24271 0.0434584 1.49899e-19)
(1.29038 0.0469762 -1.56665e-20)
(1.32414 0.0489652 4.04273e-19)
(1.34644 0.0496299 2.38209e-19)
(1.3597 0.0492239 5.5128e-19)
(1.36611 0.0480142 -8.78144e-19)
(1.36752 0.0462072 1.07757e-18)
(1.36534 0.0436653 -3.41017e-19)
(0.00489049 6.54063e-05 -9.32599e-19)
(0.0568853 -0.00738705 -2.91017e-19)
(0.145714 -0.0114947 2.27385e-19)
(0.262526 -0.0122757 1.43565e-19)
(0.398763 -0.00936794 1.46994e-19)
(0.545418 -0.0028216 1.49295e-19)
(0.693384 0.00657597 -3.73344e-19)
(0.834417 0.017641 -1.51667e-19)
(0.962027 0.0291195 4.89685e-20)
(1.072 0.039921 -4.46505e-19)
(1.16243 0.0492554 -1.96525e-19)
(1.2334 0.0566736 1.18586e-18)
(1.28645 0.0620339 -3.07012e-19)
(1.32398 0.0654273 -4.07144e-19)
(1.34874 0.0670925 -1.82696e-19)
(1.36348 0.0673389 1.31838e-19)
(1.37067 0.0664907 1.47924e-19)
(1.37242 0.0648538 -7.03892e-19)
(1.37041 0.0626419 9.9425e-19)
(1.36583 0.0597779 -8.60164e-19)
(0.0115691 -0.00191267 -1.05201e-19)
(0.0787556 -0.0111213 3.0036e-20)
(0.183714 -0.0143124 -3.86614e-20)
(0.316028 -0.0124547 5.64687e-19)
(0.465408 -0.00587939 3.11434e-20)
(0.621295 0.00473695 2.07018e-19)
(0.773606 0.0180256 -4.2987e-19)
(0.913939 0.0323668 -1.48014e-20)
(1.03644 0.0462731 5.88522e-19)
(1.13805 0.0586146 7.91783e-20)
(1.21823 0.0687043 -5.00338e-19)
(1.27837 0.0762719 -4.32367e-20)
(1.32099 0.0813722 -3.9137e-19)
(1.34918 0.0842718 3.95106e-19)
(1.36606 0.0853438 5.26992e-19)
(1.37446 0.0849878 -5.7403e-20)
(1.37678 0.0835793 -6.54319e-20)
(1.37495 0.081443 2.00216e-19)
(1.37042 0.0787925 -6.2179e-19)
(1.36418 0.0756152 5.57381e-19)
(0.0193674 -0.00367893 1.06285e-19)
(0.103343 -0.0139311 -6.83336e-19)
(0.225243 -0.0153436 1.82643e-19)
(0.372938 -0.0100233 -5.68982e-19)
(0.534323 0.000836994 1.95795e-19)
(0.697414 0.0158167 -7.25303e-19)
(0.85152 0.0329343 2.91397e-19)
(0.98858 0.0501903 -9.28021e-20)
(1.10382 0.0659746 -3.79839e-21)
(1.19565 0.0792383 9.09767e-20)
(1.265 0.0894944 -3.30476e-19)
(1.31443 0.0967117 -4.61962e-19)
(1.34733 0.101166 -9.05908e-20)
(1.36723 0.103297 -4.05e-20)
(1.37742 0.103596 -1.02143e-19)
(1.38066 0.102528 -3.22805e-20)
(1.37919 0.1005 -9.60573e-20)
(1.37467 0.0978336 -8.19739e-20)
(1.36835 0.0947407 -2.3427e-19)
(1.36101 0.0912671 3.67126e-19)
(0.0283032 -0.00511985 2.54024e-19)
(0.130555 -0.0155305 -2.82294e-19)
(0.269948 -0.0142238 6.087e-19)
(0.432534 -0.00464365 -2.63264e-19)
(0.604401 0.0109921 7.03507e-19)
(0.772411 0.0304368 1.08804e-20)
(0.925752 0.0511216 3.50591e-19)
(1.05723 0.0707758 -9.40264e-20)
(1.16354 0.087805 3.83256e-19)
(1.24473 0.101363 2.48102e-20)
(1.30316 0.111244 8.84506e-19)
(1.34244 0.117691 -6.05433e-19)
(1.36657 0.121204 8.37234e-20)
(1.37933 0.122378 1.54766e-19)
(1.38398 0.121794 7.67122e-19)
(1.38314 0.11996 -2.74287e-19)
(1.37878 0.117287 -5.27482e-20)
(1.37231 0.114084 -2.68476e-19)
(1.36474 0.110558 -2.47783e-20)
(1.3567 0.106801 1.32378e-19)
(0.0383693 -0.00611695 -1.20843e-19)
(0.160218 -0.0156382 3.50852e-19)
(0.317358 -0.010622 -3.61449e-19)
(0.493968 0.00394988 1.41959e-19)
(0.674474 0.0246934 -1.70851e-19)
(0.844992 0.0485072 6.24066e-19)
(0.995146 0.0723222 -8.73991e-20)
(1.1191 0.0937478 2.0854e-19)
(1.21532 0.111356 -1.23944e-19)
(1.28552 0.124611 -3.31706e-21)
(1.33339 0.133646 1.34871e-19)
(1.36335 0.13899 -1.02695e-19)
(1.37978 0.14135 2.64284e-19)
(1.38655 0.141448 -1.31708e-19)
(1.38675 0.139924 -5.57422e-19)
(1.38274 0.137303 5.48279e-19)
(1.37622 0.133983 -2.4047e-19)
(1.36838 0.130247 1.9109e-19)
(1.35998 0.1263 3.22135e-19)
(1.35151 0.122263 1.31677e-19)
(0.0495303 -0.00654932 3.01265e-19)
(0.192084 -0.0139866 -6.2135e-19)
(0.366892 -0.0042547 1.18581e-19)
(0.55631 0.0159383 -8.66011e-20)
(0.743377 0.0419438 -3.49801e-19)
(0.913992 0.0698423 -2.72582e-19)
(1.0588 0.0962114 -5.40073e-20)
(1.17373 0.118719 -4.78028e-19)
(1.25918 0.136249 -2.82468e-20)
(1.31851 0.148665 -8.69396e-20)
(1.35647 0.156464 -2.32494e-19)
(1.3781 0.160456 -5.21989e-20)
(1.38796 0.161524 -1.73655e-19)
(1.3898 0.16048 -2.81788e-19)
(1.38648 0.157995 2.83362e-19)
(1.38008 0.154585 3.55456e-20)
(1.37201 0.150622 7.05891e-20)
(1.3632 0.146359 -3.12993e-19)
(1.35428 0.142 -9.70385e-21)
(1.34557 0.137675 -4.68277e-19)
(0.0617193 -0.00629706 3.27739e-19)
(0.225823 -0.0103323 2.19318e-19)
(0.417882 0.00510136 -3.55671e-19)
(0.618583 0.0314114 5.54724e-19)
(0.81 0.062647 -6.04944e-20)
(0.978423 0.0941803 2.05683e-19)
(1.11606 0.12243 7.0804e-20)
(1.22094 0.14531 2.46873e-19)
(1.29541 0.162148 -1.93161e-19)
(1.34429 0.173262 6.26749e-20)
(1.37322 0.179522 -5.99305e-20)
(1.38759 0.181987 -2.49638e-20)
(1.39195 0.181679 4.84759e-20)
(1.38983 0.179464 -8.74641e-20)
(1.3838 0.176016 -2.55706e-20)
(1.37562 0.171825 -7.92491e-20)
(1.36644 0.167226 -1.26756e-19)
(1.35701 0.162437 8.25148e-20)
(1.34777 0.157671 -1.0837e-19)
(1.33897 0.153039 4.72203e-19)
(0.0748379 -0.00524542 -1.62621e-19)
(0.261039 -0.00446579 -4.63329e-19)
(0.469595 0.0175996 -6.16216e-20)
(0.679808 0.0503656 -1.75982e-20)
(0.873334 0.0866191 -2.07528e-19)
(1.0375 0.121203 -3.3907e-19)
(1.16654 0.150603 1.09461e-19)
(1.26077 0.173165 -1.50114e-19)
(1.32441 0.18876 -1.65442e-19)
(1.36355 0.198194 9.08245e-20)
(1.38444 0.202688 -6.80157e-20)
(1.39261 0.203512 -1.34744e-19)
(1.39246 0.201786 -2.65204e-21)
(1.38722 0.198396 9.06205e-20)
(1.37913 0.193994 -8.92899e-20)
(1.36966 0.18903 1.23964e-19)
(1.35974 0.183798 3.4133e-20)
(1.34991 0.178482 8.2058e-20)
(1.34052 0.173306 1.54879e-19)
(1.33172 0.168342 -1.32352e-19)
(0.0887563 -0.00328925 1.54817e-19)
(0.297271 0.00377897 -1.25677e-20)
(0.521256 0.0333163 7.05707e-20)
(0.73904 0.0727071 -9.48396e-20)
(0.932505 0.113602 8.70064e-21)
(1.09063 0.150554 3.26243e-19)
(1.21007 0.180358 -2.13009e-19)
(1.29343 0.201956 8.89162e-20)
(1.34671 0.215834 7.75564e-20)
(1.37696 0.223288 -2.15394e-19)
(1.39083 0.225858 2.00141e-19)
(1.39382 0.224978 1.67476e-21)
(1.39004 0.221821 -1.36878e-19)
(1.3824 0.217265 1.63953e-19)
(1.37279 0.21192 -6.4034e-20)
(1.36243 0.206191 4.84733e-20)
(1.35201 0.200324 -5.44753e-20)
(1.34198 0.194475 -2.23063e-20)
(1.33255 0.188881 -1.81856e-19)
(1.32382 0.183554 5.5938e-20)
(0.103316 -0.000337493 -5.1385e-20)
(0.334014 0.0145161 1.39643e-19)
(0.572078 0.0522472 2.20842e-20)
(0.795403 0.0982585 9.13425e-20)
(0.986785 0.143279 4.35176e-20)
(1.13742 0.181855 2.0431e-20)
(1.24662 0.211332 1.13869e-19)
(1.31926 0.231383 -1.38067e-20)
(1.36284 0.243152 4.91015e-20)
(1.38516 0.248404 7.80437e-20)
(1.39303 0.248948 3.70111e-20)
(1.39176 0.246335 2.62462e-20)
(1.38514 0.241755 1.05641e-19)
(1.37568 0.236047 -1.02177e-19)
(1.36499 0.229771 2.16301e-20)
(1.35403 0.223279 -1.98529e-20)
(1.34334 0.216772 3.08742e-20)
(1.33323 0.210382 2.56405e-20)
(1.32386 0.204359 5.22357e-20)
(1.31525 0.198635 1.91362e-21)
(0.118332 0.00368263 3.05362e-20)
(0.370728 0.027802 2.78482e-20)
(0.621289 0.0743069 -3.86719e-20)
(0.84811 0.126768 2.41529e-20)
(1.0356 0.175287 1.35112e-20)
(1.17765 0.214718 -4.21927e-20)
(1.27633 0.243178 1.37019e-20)
(1.33865 0.261176 2.60278e-21)
(1.37335 0.270524 2.32346e-20)
(1.38873 0.273417 -6.19774e-20)
(1.39157 0.27188 -6.93031e-23)
(1.38688 0.267534 1.67403e-20)
(1.37806 0.261547 -1.33598e-20)
(1.36729 0.254705 1.3422e-20)
(1.35586 0.247507 3.43851e-20)
(1.34454 0.240251 -1.9363e-20)
(1.33374 0.233095 5.52787e-21)
(1.32367 0.226153 2.07886e-20)
(1.31441 0.219688 -3.38425e-20)
(1.30598 0.213534 1.64277e-20)
(0.1336 0.00882206 8.37111e-20)
(0.406861 0.0436309 -4.58724e-20)
(0.668156 0.0993326 5.41631e-20)
(0.896484 0.15792 -4.02737e-20)
(1.07854 0.209234 -1.79026e-20)
(1.21124 0.248754 5.54875e-21)
(1.29943 0.275567 -1.7364e-20)
(1.35203 0.291086 6.20082e-20)
(1.37876 0.297776 -5.12694e-20)
(1.38817 0.298212 1.20106e-20)
(1.38688 0.294577 -8.93527e-21)
(1.3795 0.288513 -5.70175e-20)
(1.36906 0.281143 5.49982e-20)
(1.35737 0.273186 2.06605e-20)
(1.3455 0.265072 -2.04309e-20)
(1.33401 0.257049 4.7574e-20)
(1.32322 0.249235 -8.57119e-22)
(1.31327 0.24173 -4.52863e-20)
(1.30419 0.234808 3.31851e-20)
(1.29598 0.228192 1.03426e-20)
(0.1489 0.0151072 -2.94095e-20)
(0.441861 0.0619348 8.47542e-20)
(0.712003 0.12709 9.82241e-20)
(0.939967 0.191349 -4.63992e-20)
(1.11532 0.244704 8.03635e-20)
(1.23823 0.283579 1.26359e-19)
(1.3162 0.308187 -7.08546e-21)
(1.35983 0.320883 -2.13523e-20)
(1.37954 0.32475 1.05165e-19)
(1.38393 0.322677 5.09784e-20)
(1.37931 0.316953 -9.02048e-21)
(1.3699 0.309201 7.51058e-20)
(1.3583 0.300476 -7.94281e-20)
(1.34603 0.291419 1.23784e-19)
(1.33394 0.282395 -2.04476e-20)
(1.32244 0.273599 5.80975e-20)
(1.31178 0.265117 1.02156e-20)
(1.30203 0.25704 4.06393e-20)
(1.29318 0.24965 -3.86144e-20)
(1.28523 0.242544 9.55814e-21)
(0.164001 0.0225375 -4.56909e-20)
(0.475189 0.0825825 1.06004e-19)
(0.752224 0.157281 7.9098e-20)
(0.978113 0.226646 -1.19813e-20)
(1.14578 0.281273 1.22995e-19)
(1.25873 0.318816 -9.26696e-20)
(1.32698 0.340741 -6.63639e-21)
(1.36247 0.35035 8.03431e-20)
(1.37611 0.351288 2.53755e-20)
(1.37636 0.346696 3.53646e-20)
(1.36915 0.338914 -5.19443e-20)
(1.35826 0.329512 1.34999e-19)
(1.34591 0.319462 2.47804e-20)
(1.33334 0.30932 -1.18011e-19)
(1.32121 0.29939 1.7158e-19)
(1.30984 0.289819 -2.01024e-19)
(1.29939 0.280662 -9.12107e-20)
(1.28991 0.272006 1.57591e-20)
(1.28135 0.264135 8.7437e-20)
(1.27371 0.256518 -1.6572e-19)
(0.178668 0.0310845 -1.00389e-19)
(0.506341 0.105384 -2.38014e-19)
(0.788299 0.189551 -2.0721e-19)
(1.01059 0.263375 -2.79886e-19)
(1.16986 0.31851 -1.58885e-19)
(1.27294 0.354099 -3.27673e-19)
(1.3321 0.372948 4.17238e-20)
(1.36036 0.379279 -1.72427e-19)
(1.36885 0.377237 -1.89404e-20)
(1.36578 0.370148 2.82415e-20)
(1.35663 0.360354 -6.16545e-20)
(1.34473 0.349347 7.70444e-20)
(1.33197 0.338002 1.36153e-19)
(1.31934 0.326793 -1.91256e-19)
(1.30734 0.315962 3.08225e-20)
(1.29621 0.305615 8.76341e-20)