1.275 	2.15223e-18 	-2.76991e-20 	-0.138592 	0.00154437 	-2.54176e-22
1.825 	2.15223e-18 	-1.39322e-20 	-0.264378 	-0.0115895 	3.4313e-21
2.375 	2.15223e-18 	-2.66896e-23 	-0.332322 	-0.0138336 	-1.61863e-21
