1.275 	2.15223e-18 	-2.76991e-20 	-0.298129 	0.0102237 	-3.46111e-22
1.825 	2.15223e-18 	-1.39322e-20 	-0.546067 	0.000303399 	5.19956e-21
2.375 	2.15223e-18 	1.38775e-18 	-0.332549 	-0.00650189 	-1.93969e-21
2.925 	2.15223e-18 	2.78958e-18 	-0.243255 	-0.00660928 	-1.73747e-23
3.475 	2.15223e-18 	4.53849e-18 	0.00705097 	-0.00700661 	-3.5185e-23
4.025 	2.15223e-18 	6.28755e-18 	0.167441 	-0.00578975 	1.06732e-22
4.575 	2.15223e-18 	6.30203e-18 	0.356173 	-0.00516564 	-5.26812e-22
5.125 	2.15223e-18 	6.31666e-18 	0.49308 	-0.00393291 	5.94701e-22
5.675 	2.15223e-18 	6.33144e-18 	0.599155 	-0.00297193 	1.06871e-22
6.225 	2.15223e-18 	4.61166e-18 	0.67433 	-0.00231586 	2.2195e-22
