/*--------------------------------*- C++ -*----------------------------------*\
  =========                 |
  \\      /  F ield         | OpenFOAM: The Open Source CFD Toolbox
   \\    /   O peration     | Website:  https://openfoam.org
    \\  /    A nd           | Version:  6.0
     \\/     M anipulation  |
\*---------------------------------------------------------------------------*/
FoamFile
{
    version     2.0;
    format      ascii;
    class       surfaceScalarField;
    location    "29";
    object      phi;
}
// * * * * * * * * * * * * * * * * * * * * * * * * * * * * * * * * * * * * * //

dimensions      [0 3 -1 0 0 0 0];

internalField   nonuniform List<scalar> 
7840
(
3.47743e-05
-0.000247172
0.000123599
-0.000779559
0.000249716
-0.00131654
0.000394559
-0.00181542
0.000540796
-0.00224275
0.00067534
-0.00258155
0.000790603
-0.00283105
0.000884004
-0.0030017
0.000956543
-0.00310929
0.00101121
-0.00317034
0.00105172
-0.00319939
0.00108163
-0.00320786
0.00110394
-0.00320401
0.00112094
-0.00319342
0.0011343
-0.00317969
0.00114517
-0.00316502
0.00115433
-0.00315076
0.00116229
-0.00313773
0.0011694
-0.00312646
-0.00311744
0.00117583
3.62205e-05
-0.000283393
0.000126124
-0.000869462
0.000250217
-0.00144063
0.000388401
-0.00195361
0.000523367
-0.00237772
0.000643274
-0.00270145
0.000742273
-0.00293004
0.000819396
-0.00307882
0.000876788
-0.00316668
0.000918047
-0.0032116
0.000947024
-0.00322837
0.000967134
-0.00322797
0.000981072
-0.00321795
0.000990806
-0.00320316
0.000997694
-0.00318658
0.00100264
-0.00316997
0.00100625
-0.00315437
0.00100892
-0.0031404
0.00101089
-0.00312843
-0.00311884
0.0010123
3.72651e-05
-0.000320658
0.00012708
-0.000959277
0.000247467
-0.00156102
0.00037728
-0.00208342
0.000499737
-0.00250017
0.000604518
-0.00280623
0.00068753
-0.00301306
0.000749237
-0.00314053
0.000792672
-0.00321011
0.000821795
-0.00324072
0.000840429
-0.003247
0.000851738
-0.00323928
0.000858088
-0.0032243
0.000861123
-0.00320619
0.000861931
-0.00318738
0.000861218
-0.00316925
0.000859445
-0.0031526
0.000856916
-0.00313787
0.000853819
-0.00312533
-0.00311526
0.000850238
3.78701e-05
-0.000358528
0.00012642
-0.00104783
0.000241539
-0.00167613
0.000361551
-0.00220343
0.00047063
-0.00260925
0.000560151
-0.00289576
0.000627696
-0.0030806
0.000674943
-0.00318777
0.000705567
-0.00324074
0.000723686
-0.00325884
0.000732965
-0.00325628
0.000736263
-0.00324258
0.00073561
-0.00322364
0.000732355
-0.00320294
0.000727355
-0.00318238
0.000721153
-0.00316305
0.000714102
-0.00314555
0.000706437
-0.00313021
0.000698301
-0.0031172
-0.00310672
0.000689755
3.80094e-05
-0.000396537
0.000124142
-0.00113396
0.000232588
-0.00178458
0.000341656
-0.0023125
0.000436821
-0.00270442
0.00051122
-0.00297015
0.00056397
-0.00313335
0.000597734
-0.00322154
0.000616603
-0.00325961
0.000624691
-0.00326693
0.000625419
-0.00325701
0.000621317
-0.00323847
0.000614094
-0.00321642
0.000604837
-0.00319368
0.000594214
-0.00317176
0.000582635
-0.00315147
0.000570371
-0.00313328
0.000557604
-0.00311744
0.00054445
-0.00310404
-0.00309322
0.000530956
3.76691e-05
-0.000434206
0.000120287
-0.00121658
0.000220836
-0.00188513
0.000318094
-0.00240976
0.000399087
-0.00278541
0.000458703
-0.00302977
0.000497414
-0.00317206
0.000518639
-0.00324276
0.000526695
-0.00326766
0.000525568
-0.0032658
0.000518387
-0.00324983
0.000507347
-0.00322743
0.000493868
-0.00320294
0.000478813
-0.00317862
0.000462689
-0.00315564
0.000445806
-0.00313459
0.000428369
-0.00311584
0.000410523
-0.00309959
0.000392366
-0.00308589
-0.00307479
0.000373937
3.6847e-05
-0.000471053
0.000114931
-0.00129466
0.000206552
-0.00197675
0.000291388
-0.00249459
0.00035818
-0.0028522
0.00040349
-0.00307508
0.000428945
-0.00319752
0.000438511
-0.00325233
0.000436574
-0.00326573
0.000426906
-0.00325613
0.000412315
-0.00323524
0.000394683
-0.0032098
0.000375173
-0.00318343
0.000354458
-0.00315791
0.000332919
-0.0031341
0.00031078
-0.00311245
0.000288197
-0.00309326
0.000265287
-0.00307668
0.000242137
-0.00306274
-0.00305144
0.000218788
3.5552e-05
-0.000506605
0.000108179
-0.00136729
0.000190036
-0.00205861
0.000262064
-0.00256662
0.000314804
-0.00290494
0.000346372
-0.00310665
0.000359346
-0.00321049
0.000358052
-0.00325103
0.000346819
-0.00325449
0.000329153
-0.00323847
0.000307539
-0.00321362
0.00028357
-0.00318583
0.000258186
-0.00315805
0.000231907
-0.00313163
0.000205007
-0.0031072
0.000177645
-0.00308509
0.000149935
-0.00306555
0.000121973
-0.00304872
9.38423e-05
-0.00303461
-0.00302319
6.55888e-05
3.38029e-05
-0.000540408
0.000100161
-0.00143365
0.000171603
-0.00213005
0.00023063
-0.00262565
0.000269603
-0.00294391
0.000288039
-0.00312509
0.000289271
-0.00321172
0.000277828
-0.00323959
0.000257889
-0.00323455
0.00023266
-0.00321324
0.000204315
-0.00318528
0.00017419
-0.00315571
0.000143039
-0.0031269
0.000111257
-0.00309985
7.90344e-05
-0.00307497
4.64733e-05
-0.00305253
1.36509e-05
-0.00303273
-1.93521e-05
-0.00301572
-5.24515e-05
-0.00300151
-0.00299005
-8.55896e-05
3.1627e-05
-0.000572035
9.10183e-05
-0.00149304
0.000151572
-0.0021906
0.000197568
-0.00267164
0.000223156
-0.0029695
0.000229087
-0.00313102
0.00021927
-0.00320191
0.000198301
-0.00321862
0.000170145
-0.0032064
0.000137697
-0.00318079
0.000102838
-0.00315042
6.66819e-05
-0.00311955
2.98328e-05
-0.00309005
-7.41582e-06
-0.0030626
-4.49391e-05
-0.00303745
-8.26841e-05
-0.00301478
-0.000120607
-0.00299481
-0.000158642
-0.00297768
-0.000196697
-0.00296345
-0.00295205
-0.000234697
2.90584e-05
-0.000601094
8.09059e-05
-0.00154489
0.000130255
-0.00223995
0.000163325
-0.00270471
0.000175978
-0.00298216
0.000170029
-0.00312507
0.0001498
-0.00318168
0.000119849
-0.00318867
8.38812e-05
-0.00317043
4.44812e-05
-0.00314139
3.26595e-06
-0.0031092
-3.88399e-05
-0.00307745
-8.13534e-05
-0.00304754
-0.000124055
-0.0030199
-0.000166873
-0.00299463
-0.000209797
-0.00297186
-0.000252817
-0.00295179
-0.000295881
-0.00293462
-0.000338887
-0.00292045
-0.00290921
-0.000381733
2.61372e-05
-0.000627231
6.99812e-05
-0.00158873
0.000107953
-0.00227792
0.00012831
-0.00272507
0.000128523
-0.00298237
0.000111303
-0.00310785
8.12437e-05
-0.00315162
4.27835e-05
-0.00315021
-6.60051e-07
-0.00312699
-4.68016e-05
-0.00309525
-9.42621e-05
-0.00306174
-0.000142275
-0.00302943
-0.000190448
-0.00299936
-0.000238616
-0.00297173
-0.000286742
-0.00294651
-0.000334856
-0.00292375
-0.000382985
-0.00290366
-0.000431098
-0.00288651
-0.000479076
-0.00287247
-0.0028615
-0.000526781
2.29072e-05
-0.000650138
5.84025e-05
-0.00162422
8.49513e-05
-0.00230447
9.28941e-05
-0.00273301
8.1189e-05
-0.00297066
5.32849e-05
-0.00307994
1.39274e-05
-0.00311226
-3.26286e-05
-0.00310365
-8.32657e-05
-0.00307635
-0.000135983
-0.00304253
-0.000189613
-0.00300811
-0.000243519
-0.00297553
-0.000297376
-0.00294551
-0.00035105
-0.00291806
-0.000404527
-0.00289303
-0.000457867
-0.00287041
-0.000511141
-0.00285038
-0.000564351
-0.0028333
-0.000617366
-0.00281945
-0.00280888
-0.000669989
1.94157e-05
-0.000669554
4.63257e-05
-0.00165113
6.15153e-05
-0.00231966
5.7411e-05
-0.00272891
3.43261e-05
-0.00294758
-3.69802e-06
-0.00304192
-5.18656e-05
-0.00306409
-0.00010615
-0.00304937
-0.000163737
-0.00301876
-0.000222894
-0.00298337
-0.00028264
-0.00294836
-0.000342449
-0.00291572
-0.000402044
-0.00288591
-0.000461298
-0.0028588
-0.000520201
-0.00283413
-0.000578834
-0.00281177
-0.000637315
-0.0027919
-0.000695695
-0.00277492
-0.000753842
-0.00276131
-0.00275126
-0.000811464
1.57114e-05
-0.000685265
3.39017e-05
-0.00166932
3.78914e-05
-0.00232365
2.21609e-05
-0.00271318
-1.17569e-05
-0.00291366
-5.93594e-05
-0.00299432
-0.000115883
-0.00300757
-0.000177559
-0.00298769
-0.000241875
-0.00295445
-0.000307347
-0.0029179
-0.000373168
-0.00288254
-0.000438905
-0.00284998
-0.000504315
-0.0028205
-0.000569265
-0.00279385
-0.000633723
-0.00276967
-0.000697764
-0.00274773
-0.000761546
-0.00272812
-0.000825184
-0.00271128
-0.000888561
-0.00269793
-0.00268857
-0.000951248
1.18441e-05
-0.000697109
2.12743e-05
-0.00167875
1.43055e-05
-0.00231668
-1.25881e-05
-0.00268629
-5.67878e-05
-0.00286946
-0.000113445
-0.00293766
-0.000177893
-0.00294312
-0.00024664
-0.00291895
-0.000317469
-0.00288362
-0.000389129
-0.00284624
-0.000460972
-0.0028107
-0.000532657
-0.0027783
-0.000603976
-0.00274918
-0.000674784
-0.00272304
-0.000745
-0.00269945
-0.000814658
-0.00267808
-0.000883924
-0.00265885
-0.000952989
-0.00264221
-0.00102177
-0.00262915
-0.00262062
-0.00108972
7.86292e-06
-0.000704972
8.57885e-06
-0.00167947
-9.03764e-06
-0.00229907
-4.65982e-05
-0.00264872
-0.000100527
-0.00281553
-0.000165728
-0.00287246
-0.000237681
-0.00287117
-0.000313182
-0.00284345
-0.000390294
-0.00280651
-0.000467987
-0.00276855
-0.000545767
-0.00273292
-0.00062339
-0.00270068
-0.000700701
-0.00267187
-0.000777552
-0.00264619
-0.000853815
-0.00262319
-0.000929447
-0.00260244
-0.00100459
-0.00258371
-0.00107952
-0.00256728
-0.00115423
-0.00255444
-0.00254649
-0.00122836
3.81602e-06
-0.000708788
-4.05946e-06
-0.0016716
-3.19546e-05
-0.00227117
-7.96606e-05
-0.00260102
-0.000142763
-0.00275243
-0.000216005
-0.00279922
-0.000295045
-0.00279213
-0.000376969
-0.00276152
-0.000460106
-0.00272337
-0.000543633
-0.00268502
-0.000627207
-0.00264935
-0.000710699
-0.00261718
-0.000794035
-0.00258854
-0.000877113
-0.00256311
-0.000959786
-0.00254052
-0.00104194
-0.00252029
-0.00112366
-0.00250198
-0.00120534
-0.0024856
-0.0012872
-0.00247258
-0.00246389
-0.0013698
-2.51087e-07
-0.000708537
-1.65275e-05
-0.00165532
-5.42849e-05
-0.00223341
-0.000111597
-0.00254371
-0.000183319
-0.00268071
-0.0002641
-0.00271844
-0.000349802
-0.00270643
-0.000437789
-0.00267354
-0.00052664
-0.00263452
-0.000615725
-0.00259593
-0.000704849
-0.00256022
-0.000794022
-0.00252801
-0.000883307
-0.00249925
-0.000972737
-0.00247368
-0.00106225
-0.002451
-0.00115175
-0.00243079
-0.00124123
-0.00241251
-0.00133102
-0.0023958
-0.00142171
-0.00238189
-0.0023696
-0.00151601
-4.29643e-06
-0.000704241
-2.87257e-05
-0.00163089
-7.58925e-05
-0.00218625
-0.000142259
-0.00247734
-0.000222051
-0.00260091
-0.000309872
-0.00263062
-0.000401797
-0.0026145
-0.000495452
-0.00257988
-0.000589636
-0.00254033
-0.000683881
-0.00250169
-0.000778126
-0.00246598
-0.000872515
-0.00243362
-0.000967295
-0.00240447
-0.00106275
-0.00237823
-0.00115917
-0.00235459
-0.00125673
-0.00233323
-0.00135557
-0.00231367
-0.00145624
-0.00229514
-0.00156096
-0.00227717
-0.00227106
-0.0016595
-8.27047e-06
-0.00069597
-4.05497e-05
-0.00159861
-9.66443e-05
-0.00213015
-0.000171512
-0.00240247
-0.000258832
-0.00251359
-0.000353203
-0.00253624
-0.000450912
-0.00251679
-0.000549819
-0.00248097
-0.000648905
-0.00244125
-0.000747816
-0.00240278
-0.000846557
-0.00236724
-0.000945322
-0.00233486
-0.00104443
-0.00230536
-0.00114434
-0.00227832
-0.00124566
-0.00225326
-0.00134923
-0.00222966
-0.0014559
-0.002207
-0.00156608
-0.00218495
-0.00168073
-0.00216252
-0.00213273
-0.00181907
-1.2162e-05
-0.000683808
-5.19668e-05
-0.00155881
-0.000116499
-0.00206562
-0.000199321
-0.00231965
-0.000293643
-0.00241927
-0.00039409
-0.0024358
-0.000497155
-0.00241372
-0.000600911
-0.00237722
-0.000704483
-0.00233768
-0.000807594
-0.00229967
-0.000910255
-0.00226458
-0.0010126
-0.00223251
-0.00111482
-0.00220314
-0.00121713
-0.00217601
-0.00131976
-0.00215063
-0.00142291
-0.00212651
-0.00152666
-0.00210325
-0.00163122
-0.00208039
-0.0017373
-0.00205644
-0.00202797
-0.00184206
-1.59323e-05
-0.000667876
-6.29034e-05
-0.00151183
-0.000135373
-0.00199315
-0.000225614
-0.00222941
-0.000326433
-0.00231845
-0.000432506
-0.00232972
-0.000540526
-0.0023057
-0.000648755
-0.00226899
-0.000756449
-0.00222998
-0.000863396
-0.00219272
-0.000969628
-0.00215834
-0.00107527
-0.00212687
-0.00118046
-0.00209795
-0.00128534
-0.00207114
-0.00138998
-0.00204599
-0.0014944
-0.00202209
-0.00159857
-0.00199907
-0.00170245
-0.00197651
-0.00180534
-0.00195356
-0.00192939
-0.00190392
-1.95593e-05
-0.000648317
-7.33181e-05
-0.00145808
-0.000153225
-0.00191324
-0.000250364
-0.00213227
-0.000357201
-0.00221162
-0.000468478
-0.00221845
-0.000581079
-0.0021931
-0.000693435
-0.00215663
-0.000804911
-0.00211851
-0.00091534
-0.00208229
-0.00102476
-0.00204892
-0.00113326
-0.00201836
-0.00124095
-0.00199026
-0.00134787
-0.00196421
-0.00145404
-0.00193982
-0.00155938
-0.00191675
-0.00166375
-0.00189471
-0.00176686
-0.00187339
-0.00186808
-0.00185234
-0.00183115
-0.00196632
-2.30252e-05
-0.000625291
-8.31808e-05
-0.00139792
-0.00017003
-0.00182639
-0.000273567
-0.00202873
-0.000385968
-0.00209922
-0.000502057
-0.00210236
-0.000618898
-0.00207626
-0.000735081
-0.00204045
-0.000850065
-0.00200352
-0.00096373
-0.00196863
-0.00107612
-0.00193653
-0.00118732
-0.00190716
-0.0012974
-0.00188019
-0.00140639
-0.00185522
-0.00151427
-0.00183194
-0.00162096
-0.00181006
-0.00172633
-0.00178934
-0.00183012
-0.00176959
-0.00193195
-0.00175052
-0.00173188
-0.00203122
-2.63159e-05
-0.000598976
-9.24702e-05
-0.00133177
-0.000185774
-0.00173309
-0.00029523
-0.00191928
-0.000412767
-0.00198168
-0.000533302
-0.00198182
-0.00065407
-0.00195549
-0.000773805
-0.00192071
-0.000892055
-0.00188527
-0.00100874
-0.00185194
-0.00112392
-0.00182135
-0.00123769
-0.0017934
-0.0013501
-0.00176777
-0.00146119
-0.00174414
-0.00157093
-0.0017222
-0.00167928
-0.00170171
-0.00178613
-0.00168249
-0.00189133
-0.0016644
-0.00199468
-0.00164717
-0.00163066
-0.0020959
-2.94207e-05
-0.000569555
-0.000101172
-0.00126001
-0.000200455
-0.00163381
-0.000315369
-0.00180437
-0.000437639
-0.00185941
-0.000562277
-0.00185719
-0.000686683
-0.00183109
-0.000809723
-0.00179767
-0.000931026
-0.00176397
-0.00105056
-0.00173241
-0.00116839
-0.00170352
-0.00128462
-0.00167717
-0.00139933
-0.00165306
-0.00151256
-0.00163091
-0.00162431
-0.00161044
-0.00173457
-0.00159145
-0.00184328
-0.00157378
-0.00195038
-0.0015573
-0.00205578
-0.00154177
-0.00152711
-0.00215932
-3.23308e-05
-0.000537224
-0.000109277
-0.00118307
-0.000214075
-0.00152901
-0.000334004
-0.00168444
-0.000460622
-0.00173279
-0.00058904
-0.00172877
-0.000716813
-0.00170331
-0.000842927
-0.00167156
-0.000967087
-0.00163981
-0.0010893
-0.0016102
-0.00120966
-0.00158316
-0.00132828
-0.00155854
-0.00144525
-0.00153609
-0.00156064
-0.00151552
-0.00167449
-0.0014966
-0.00178679
-0.00147914
-0.00189756
-0.00146301
-0.00200679
-0.00144807
-0.00211445
-0.00143411
-0.00142109
-0.00222048
-3.50396e-05
-0.000502184
-0.000116779
-0.00110133
-0.000226637
-0.00141915
-0.000351155
-0.00155992
-0.000481753
-0.00160219
-0.000613642
-0.00159688
-0.000744522
-0.00157243
-0.00087349
-0.00154259
-0.00100032
-0.00151298
-0.00112505
-0.00148547
-0.00124781
-0.0014604
-0.00136873
-0.00143763
-0.00148791
-0.00141691
-0.00160545
-0.00139798
-0.0017214
-0.00138065
-0.00183581
-0.00136473
-0.00194872
-0.0013501
-0.00206016
-0.00133663
-0.00217015
-0.00132412
-0.00131257
-0.00227867
-3.75415e-05
-0.000464643
-0.000123674
-0.0010152
-0.000238146
-0.00130468
-0.000366841
-0.00143122
-0.000501064
-0.00146797
-0.000636127
-0.00146182
-0.000769861
-0.0014387
-0.000901465
-0.00141099
-0.00103077
-0.00138368
-0.00115787
-0.00135838
-0.00128289
-0.00133537
-0.00140599
-0.00131453
-0.0015273
-0.00129559
-0.00164693
-0.00127836
-0.00176496
-0.00126262
-0.00188146
-0.00124823
-0.0019965
-0.00123507
-0.00211013
-0.001223
-0.00222241
-0.00121184
-0.00120163
-0.00233335
-3.98319e-05
-0.000424811
-0.000129958
-0.00092507
-0.000248607
-0.00118603
-0.000381076
-0.00129875
-0.00051858
-0.00133047
-0.000656525
-0.00132387
-0.000792864
-0.00130236
-0.000926887
-0.00127696
-0.00105848
-0.00125208
-0.00118777
-0.00122909
-0.00131491
-0.00120824
-0.00144007
-0.00118936
-0.0015634
-0.00117227
-0.00168502
-0.00115673
-0.00180504
-0.0011426
-0.00192355
-0.00112971
-0.00204065
-0.00111797
-0.00215639
-0.00110725
-0.00227086
-0.00109738
-0.0010884
-0.00238408
-4.19064e-05
-0.000382905
-0.000135627
-0.000831349
-0.000258023
-0.00106364
-0.000393875
-0.0011629
-0.000534321
-0.00119002
-0.00067486
-0.00118333
-0.000813555
-0.00116367
-0.000949777
-0.00114074
-0.00108346
-0.00111839
-0.00121476
-0.0010978
-0.00134385
-0.00107915
-0.00147092
-0.00106229
-0.00159613
-0.00104706
-0.00171962
-0.00103324
-0.00184152
-0.0010207
-0.00196193
-0.00100931
-0.00208095
-0.000998954
-0.00219867
-0.000989525
-0.00231518
-0.000980872
-0.000973059
-0.00243052
-4.37614e-05
-0.000339143
-0.000140679
-0.000734432
-0.000266397
-0.000937918
-0.000405244
-0.00102406
-0.000548301
-0.00104696
-0.000691148
-0.00104049
-0.000831949
-0.00102287
-0.000970144
-0.00100255
-0.00110572
-0.000982819
-0.00123883
-0.000964685
-0.00136969
-0.000948281
-0.00149851
-0.000933484
-0.00162544
-0.000920123
-0.00175065
-0.000908035
-0.00187426
-0.000897082
-0.00199642
-0.000887155
-0.00211721
-0.000878159
-0.00223675
-0.000869985
-0.00235512
-0.000862505
-0.00085579
-0.00247239
-4.53932e-05
-0.00029375
-0.00014511
-0.000634716
-0.000273728
-0.000809299
-0.000415189
-0.000882595
-0.000560527
-0.000901623
-0.000705398
-0.000895614
-0.000848051
-0.000880213
-0.000987989
-0.000862609
-0.00112523
-0.000845579
-0.00125996
-0.000829952
-0.00139241
-0.000815834
-0.00152278
-0.000803116
-0.00165125
-0.000791646
-0.001778
-0.000781285
-0.00190317
-0.000771914
-0.00202689
-0.000763438
-0.00214928
-0.000755772
-0.00227044
-0.000748821
-0.00239047
-0.000742474
-0.000736806
-0.00250946
-4.67986e-05
-0.000246951
-0.000148916
-0.000532598
-0.000280018
-0.000678197
-0.000423714
-0.000738898
-0.000571006
-0.000754331
-0.000717615
-0.000749005
-0.000861864
-0.000735964
-0.00100331
-0.000721165
-0.001142
-0.000706891
-0.00127813
-0.000693813
-0.00141196
-0.00068201
-0.00154369
-0.000671388
-0.00167351
-0.000661819
-0.00180161
-0.000653186
-0.00192814
-0.00064539
-0.00205323
-0.000638349
-0.00217701
-0.000631993
-0.00229959
-0.000626238
-0.00242107
-0.000620993
-0.00061633
-0.00254155
-4.79748e-05
-0.000198977
-0.000152095
-0.000428478
-0.000285263
-0.000545029
-0.00043082
-0.000593341
-0.00057974
-0.000605412
-0.0007278
-0.000600944
-0.000873385
-0.000590379
-0.00101609
-0.000578458
-0.001156
-0.000566986
-0.00129332
-0.000556488
-0.00142831
-0.000547023
-0.00156119
-0.000538511
-0.00169216
-0.000530849
-0.0018214
-0.000523944
-0.00194907
-0.000517716
-0.00207532
-0.000512098
-0.00220028
-0.000507033
-0.00232407
-0.000502454
-0.00244677
-0.000498287
-0.000494597
-0.00256851
-4.8919e-05
-0.000150058
-0.000154642
-0.000322755
-0.000289463
-0.000410208
-0.000436507
-0.000446297
-0.000586728
-0.00045519
-0.000735952
-0.000451721
-0.000882611
-0.00044372
-0.00102634
-0.000434733
-0.00116722
-0.000426099
-0.0013055
-0.000418206
-0.00144143
-0.000411094
-0.00157524
-0.000404702
-0.00170714
-0.000398953
-0.0018373
-0.000393776
-0.00196591
-0.00038911
-0.0020931
-0.000384905
-0.00221902
-0.000381119
-0.00234377
-0.000377699
-0.00246747
-0.000374591
-0.000371848
-0.00259022
-4.96292e-05
-0.000100428
-0.000156556
-0.000215829
-0.000292615
-0.000274148
-0.000440774
-0.000298139
-0.000591972
-0.000303992
-0.000742069
-0.000301623
-0.000889535
-0.000296254
-0.00103403
-0.000290241
-0.00117565
-0.000284472
-0.00131466
-0.000279201
-0.0014513
-0.000274454
-0.00158581
-0.00027019
-0.00171841
-0.000266356
-0.00184928
-0.000262906
-0.00197859
-0.000259798
-0.0021065
-0.000257
-0.00223313
-0.000254482
-0.00235862
-0.000252209
-0.00248307
-0.000250145
-0.000248328
-0.00260659
-5.01036e-05
-5.03248e-05
-0.000157833
-0.0001081
-0.000294718
-0.000137263
-0.000443619
-0.000149238
-0.000595468
-0.000152143
-0.000746149
-0.000150943
-0.000894155
-0.000148249
-0.00103916
-0.000145237
-0.00118128
-0.000142349
-0.00132077
-0.000139712
-0.00145789
-0.000137338
-0.00159287
-0.000135205
-0.00172594
-0.000133289
-0.00185728
-0.000131565
-0.00198707
-0.000130012
-0.00211545
-0.000128615
-0.00224258
-0.000127358
-0.00236856
-0.000126225
-0.00249351
-0.000125196
-0.000124292
-0.00261755
-5.03411e-05
1.62542e-08
-0.000158472
3.07341e-08
-0.00029577
3.51248e-08
-0.000445042
3.47268e-08
-0.000597218
3.25563e-08
-0.00074819
2.99821e-08
-0.000896466
2.74689e-08
-0.00104173
2.51072e-08
-0.0011841
2.28839e-08
-0.00132383
2.07781e-08
-0.00146119
1.87792e-08
-0.00159641
1.68837e-08
-0.00172971
1.50902e-08
-0.00186129
1.33974e-08
-0.00199132
1.18036e-08
-0.00211994
1.03076e-08
-0.00224731
8.90731e-09
-0.00237354
7.59729e-09
-0.00249874
6.3665e-09
5.21833e-09
-0.00262304
-5.03413e-05
5.03575e-05
-0.000158472
0.000108162
-0.00029577
0.000137334
-0.000445043
0.000149308
-0.000597219
0.000152208
-0.000748192
0.000151003
-0.000896468
0.000148304
-0.00104173
0.000145287
-0.0011841
0.000142395
-0.00132383
0.000139754
-0.00146119
0.000137375
-0.00159641
0.000135239
-0.00172972
0.000133319
-0.0018613
0.000131591
-0.00199132
0.000130036
-0.00211994
0.000128636
-0.00224731
0.000127376
-0.00237354
0.00012624
-0.00249875
0.000125209
0.000124303
-0.00262304
-5.01041e-05
0.000100462
-0.000157834
0.000215891
-0.00029472
0.00027422
-0.000443622
0.00029821
-0.000595473
0.000304058
-0.000746154
0.000301684
-0.000894161
0.00029631
-0.00103917
0.000290292
-0.00118129
0.000284518
-0.00132078
0.000279244
-0.0014579
0.000274493
-0.00159288
0.000270224
-0.00172595
0.000266387
-0.00185729
0.000262933
-0.00198708
0.000259822
-0.00211546
0.000257021
-0.00224259
0.0002545
-0.00236857
0.000252224
-0.00249352
0.000250158
0.000248339
-0.00261756
-4.96301e-05
0.000150092
-0.000156558
0.000322819
-0.000292619
0.000410281
-0.000440779
0.00044637
-0.000591979
0.000455258
-0.000742078
0.000451783
-0.000889545
0.000443777
-0.00103404
0.000434785
-0.00117567
0.000426147
-0.00131467
0.00041825
-0.00145131
0.000411133
-0.00158583
0.000404738
-0.00171842
0.000398985
-0.00184929
0.000393804
-0.00197861
0.000389134
-0.00210651
0.000384927
-0.00223315
0.000381138
-0.00235864
0.000377715
-0.00248309
0.000374605
0.000371859
-0.00260661
-4.89202e-05
0.000199012
-0.000154646
0.000428545
-0.000289469
0.000545104
-0.000436515
0.000593416
-0.000586739
0.000605482
-0.000735964
0.000601008
-0.000882624
0.000590438
-0.00102635
0.000578511
-0.00116724
0.000567035
-0.00130552
0.000556533
-0.00144145
0.000547063
-0.00157526
0.000538547
-0.00170716
0.000530882
-0.00183733
0.000523974
-0.00196593
0.000517741
-0.00209313
0.00051212
-0.00221904
0.000507053
-0.0023438
0.000502471
-0.00246749
0.000498301
0.000494609
-0.00259024
-4.79763e-05
0.000246988
-0.000152099
0.000532668
-0.000285271
0.000678276
-0.000430831
0.000738976
-0.000579753
0.000754404
-0.000727816
0.000749071
-0.000873403
0.000736025
-0.00101611
0.000721221
-0.00115602
0.000706942
-0.00129335
0.000693859
-0.00142833
0.000682052
-0.00156121
0.000671426
-0.00169219
0.000661853
-0.00182143
0.000653217
-0.0019491
0.000645417
-0.00207536
0.000638372
-0.00220032
0.000632013
-0.0023241
0.000626255
-0.00244681
0.000621008
0.000616343
-0.00256854
-4.68005e-05
0.000293789
-0.000148922
0.000634789
-0.000280027
0.000809382
-0.000423727
0.000882676
-0.000571022
0.000901699
-0.000717634
0.000895683
-0.000861886
0.000880276
-0.00100333
0.000862667
-0.00114202
0.000845632
-0.00127816
0.00083
-0.00141199
0.000815878
-0.00154372
0.000803156
-0.00167355
0.000791682
-0.00180165
0.000781317
-0.00192817
0.000771943
-0.00205326
0.000763463
-0.00217704
0.000755794
-0.00229963
0.00074884
-0.00242111
0.00074249
0.000736819
-0.00254159
-4.53954e-05
0.000339184
-0.000145116
0.000734509
-0.000273739
0.000938005
-0.000415204
0.00102414
-0.000560546
0.00104704
-0.000705421
0.00104056
-0.000848077
0.00102293
-0.000988017
0.00100261
-0.00112526
0.000982875
-0.00126
0.000964736
-0.00139244
0.000948327
-0.00152282
0.000933526
-0.00165129
0.00092016
-0.00177805
0.000908068
-0.00190322
0.000897112
-0.00202693
0.000887182
-0.00214932
0.000878183
-0.00227049
0.000870006
-0.00239052
0.000862522
0.000855804
-0.00250951
-4.3764e-05
0.000382948
-0.000140686
0.000831431
-0.000266409
0.00106373
-0.000405261
0.00116299
-0.000548323
0.0011901
-0.000691174
0.00118341
-0.000831978
0.00116374
-0.000970177
0.00114081
-0.00110575
0.00111845
-0.00123887
0.00109785
-0.00136974
0.00107919
-0.00149855
0.00106234
-0.00162548
0.0010471
-0.00175069
0.00103328
-0.00187432
0.00102073
-0.00199647
0.00100933
-0.00211726
0.000998979
-0.00223681
0.000989547
-0.00235517
0.000980891
0.000973075
-0.00247245
-4.19094e-05
0.000424858
-0.000135635
0.000925157
-0.000258037
0.00118613
-0.000393895
0.00129885
-0.000534347
0.00133055
-0.00067489
0.00132395
-0.000813589
0.00130244
-0.000949815
0.00127703
-0.00108351
0.00125214
-0.0012148
0.00122915
-0.0013439
0.00120829
-0.00147097
0.00118941
-0.00159618
0.00117231
-0.00171968
0.00115677
-0.00184157
0.00114263
-0.00196199
0.00112975
-0.00208101
0.001118
-0.00219874
0.00110727
-0.00231524
0.0010974
0.00108842
-0.00243059
-3.98352e-05
0.000464693
-0.000129967
0.00101529
-0.000248623
0.00130479
-0.000381099
0.00143133
-0.000518609
0.00146806
-0.000656558
0.0014619
-0.000792902
0.00143878
-0.00092693
0.00141106
-0.00105853
0.00138374
-0.00118782
0.00135844
-0.00131496
0.00133543
-0.00144012
0.00131458
-0.00156346
0.00129564
-0.00168508
0.0012784
-0.00180511
0.00126266
-0.00192362
0.00124826
-0.00204072
0.00123509
-0.00215646
0.00122302
-0.00227093
0.00121187
0.00120165
-0.00238416
-3.75451e-05
0.000502238
-0.000123684
0.00110143
-0.000238164
0.00141927
-0.000366866
0.00156003
-0.000501096
0.00160229
-0.000636164
0.00159697
-0.000769903
0.00157252
-0.000901512
0.00154267
-0.00103083
0.00151305
-0.00115792
0.00148553
-0.00128295
0.00146046
-0.00140605
0.00143768
-0.00152737
0.00141696
-0.001647
0.00139803
-0.00176503
0.00138069
-0.00188154
0.00136477
-0.00199658
0.00135014
-0.00211021
0.00133666
-0.0022225
0.00132415
0.00131259
-0.00233344
-3.50435e-05
0.000537281
-0.000116791
0.00118318
-0.000226656
0.00152913
-0.000351183
0.00168456
-0.000481788
0.0017329
-0.000613684
0.00172887
-0.000744569
0.0017034
-0.000873542
0.00167164
-0.00100038
0.00163989
-0.00112511
0.00161027
-0.00124787
0.00158322
-0.0013688
0.0015586
-0.00148798
0.00153614
-0.00160552
0.00151557
-0.00172148
0.00149664
-0.0018359
0.00147918
-0.00194881
0.00146305
-0.00206025
0.0014481
-0.00217024
0.00143414
0.00142111
-0.00227877
-3.2335e-05
0.000569616
-0.00010929
0.00126013
-0.000214097
0.00163394
-0.000334034
0.00180449
-0.00046066
0.00185952
-0.000589085
0.00185729
-0.000716864
0.00183118
-0.000842985
0.00179776
-0.00096715
0.00176405
-0.00108936
0.00173248
-0.00120973
0.00170359
-0.00132836
0.00167723
-0.00144533
0.00165312
-0.00156073
0.00163096
-0.00167457
0.00161049
-0.00178688
0.00159149
-0.00189766
0.00157382
-0.00200689
0.00155733
-0.00211455
0.0015418
0.00152714
-0.00222058
-2.94252e-05
0.000599042
-0.000101186
0.00133189
-0.000200479
0.00173323
-0.000315402
0.00191942
-0.000437681
0.0019818
-0.000562326
0.00198194
-0.00068674
0.0019556
-0.000809786
0.00192081
-0.000931095
0.00188536
-0.00105063
0.00185202
-0.00116847
0.00182142
-0.00128471
0.00179347
-0.00139942
0.00176784
-0.00151265
0.00174419
-0.00162441
0.00172225
-0.00173467
0.00170175
-0.00184339
0.00168254
-0.00195049
0.00166443
-0.00205589
0.0016472
0.00163068
-0.00215943
-2.63208e-05
0.000625362
-9.24846e-05
0.00139805
-0.0001858
0.00182655
-0.000295265
0.00202888
-0.000412813
0.00209935
-0.000533356
0.00210248
-0.000654132
0.00207637
-0.000773874
0.00204055
-0.00089213
0.00200362
-0.00100882
0.00196871
-0.00112401
0.00193661
-0.00123778
0.00190724
-0.0013502
0.00188025
-0.00146129
0.00185529
-0.00157104
0.001832
-0.00167939
0.00181011
-0.00178624
0.00178939
-0.00189145
0.00176964
-0.0019948
0.00175055
0.00173191
-0.00209602
-2.30303e-05
0.000648393
-8.31961e-05
0.00145822
-0.000170057
0.00191341
-0.000273605
0.00213243
-0.000386017
0.00221176
-0.000502115
0.00221858
-0.000618964
0.00219322
-0.000735154
0.00215674
-0.000850146
0.00211861
-0.000963817
0.00208238
-0.00107621
0.00204901
-0.00118742
0.00201844
-0.0012975
0.00199034
-0.0014065
0.00196428
-0.00151438
0.00193988
-0.00162108
0.00191681
-0.00172645
0.00189476
-0.00183025
0.00187344
-0.00193208
0.00185238
0.00183118
-0.00203136
-1.95646e-05
0.000667957
-7.33344e-05
0.00151199
-0.000153254
0.00199333
-0.000250405
0.00222958
-0.000357253
0.00231861
-0.00046854
0.00232987
-0.00058115
0.00230583
-0.000693515
0.0022691
-0.000804998
0.00223009
-0.000915434
0.00219282
-0.00102486
0.00215844
-0.00113337
0.00212695
-0.00124106
0.00209803
-0.00134799
0.00207121
-0.00145417
0.00204606
-0.00155951
0.00202215
-0.00166388
0.00199913
-0.001767
0.00197656
-0.00186822
0.0019536
0.00192943
-0.00196647
-1.59378e-05
0.000683895
-6.29205e-05
0.00155897
-0.000135404
0.00206581
-0.000225658
0.00231983
-0.000326489
0.00241944
-0.000432573
0.00243595
-0.000540602
0.00241386
-0.00064884
0.00237734
-0.000756542
0.00233779
-0.000863496
0.00229977
-0.000969736
0.00226468
-0.00107538
0.0022326
-0.00118058
0.00220323
-0.00128546
0.00217609
-0.00139011
0.00215071
-0.00149454
0.00212658
-0.00159872
0.00210331
-0.00170261
0.00208044
-0.0018055
0.00205649
0.00202801
-0.00190408
-1.21677e-05
0.000696063
-5.19847e-05
0.00159879
-0.000116532
0.00213036
-0.000199368
0.00240267
-0.000293703
0.00251378
-0.000394161
0.00253641
-0.000497237
0.00251694
-0.000601002
0.00248111
-0.000704582
0.00244137
-0.000807701
0.00240289
-0.00091037
0.00236734
-0.00101273
0.00233496
-0.00111495
0.00230545
-0.00121726
0.00227841
-0.0013199
0.00225334
-0.00142306
0.00222974
-0.00152682
0.00220707
-0.00163139
0.00218501
-0.00173747
0.00216258
0.00213278
-0.00184224
-8.27631e-06
0.000704339
-4.05682e-05
0.00163108
-9.66783e-05
0.00218647
-0.000171561
0.00247755
-0.000258895
0.00260111
-0.000353278
0.00263079
-0.000450998
0.00261466
-0.000549916
0.00258002
-0.00064901
0.00254047
-0.00074793
0.00250181
-0.000846679
0.00246609
-0.000945452
0.00243373
-0.00104457
0.00240457
-0.00114448
0.00237832
-0.00124582
0.00235468
-0.00134939
0.00233331
-0.00145607
0.00231375
-0.00156626
0.00229521
-0.00168092
0.00227723
0.00227112
-0.00181926
-4.30234e-06
0.000708642
-2.87448e-05
0.00165552
-7.59279e-05
0.00223365
-0.000142311
0.00254394
-0.000222118
0.00268092
-0.000309952
0.00271862
-0.000401889
0.0027066
-0.000495555
0.00267369
-0.000589748
0.00263466
-0.000684002
0.00259607
-0.000778256
0.00256035
-0.000872653
0.00252813
-0.000967441
0.00249936
-0.00106291
0.00247379
-0.00115933