/*--------------------------------*- C++ -*----------------------------------*\
  =========                 |
  \\      /  F ield         | OpenFOAM: The Open Source CFD Toolbox
   \\    /   O peration     | Website:  https://openfoam.org
    \\  /    A nd           | Version:  6.0
     \\/     M anipulation  |
\*---------------------------------------------------------------------------*/
FoamFile
{
    version     2.0;
    format      ascii;
    class       volScalarField;
    location    "96";
    object      p;
}
// * * * * * * * * * * * * * * * * * * * * * * * * * * * * * * * * * * * * * //

dimensions      [0 2 -2 0 0 0 0];

internalField   nonuniform List<scalar> 
8000
(
-0.435971
-0.435715
-0.435406
-0.43507
-0.434866
-0.434937
-0.435357
-0.436146
-0.437291
-0.438767
-0.440543
-0.442592
-0.44489
-0.44742
-0.450166
-0.453112
-0.456244
-0.459547
-0.463009
-0.466617
-0.44158
-0.440849
-0.440275
-0.439782
-0.439473
-0.439491
-0.439915
-0.44077
-0.442047
-0.443721
-0.445759
-0.448131
-0.450809
-0.45377
-0.456991
-0.460451
-0.464128
-0.468018
-0.472121
-0.476265
-0.446692
-0.445524
-0.444698
-0.444046
-0.443624
-0.443573
-0.443979
-0.44487
-0.446243
-0.448073
-0.450326
-0.45297
-0.455971
-0.4593
-0.46293
-0.466831
-0.470976
-0.475367
-0.480018
-0.484633
-0.451242
-0.449683
-0.448618
-0.447806
-0.447258
-0.447118
-0.447476
-0.448367
-0.449793
-0.45173
-0.454146
-0.457003
-0.460265
-0.463896
-0.467862
-0.47213
-0.476663
-0.481467
-0.486571
-0.491592
-0.455192
-0.453291
-0.452003
-0.451028
-0.450339
-0.450084
-0.450358
-0.451206
-0.452634
-0.454623
-0.457141
-0.460147
-0.463601
-0.467463
-0.471692
-0.476248
-0.481089
-0.486218
-0.491678
-0.497044
-0.458525
-0.45634
-0.454848
-0.453705
-0.452858
-0.452456
-0.452606
-0.45336
-0.454732
-0.45671
-0.459261
-0.462346
-0.465918
-0.469934
-0.474348
-0.479114
-0.484182
-0.489548
-0.49527
-0.500922
-0.461253
-0.458843
-0.457169
-0.455855
-0.45483
-0.454248
-0.454227
-0.45483
-0.456083
-0.457978
-0.460488
-0.463574
-0.467186
-0.471275
-0.475792
-0.480685
-0.485898
-0.491418
-0.497308
-0.50319
-0.463404
-0.460837
-0.459006
-0.457518
-0.456295
-0.455498
-0.455257
-0.45565
-0.456713
-0.458452
-0.460842
-0.463845
-0.467412
-0.47149
-0.476025
-0.48096
-0.486235
-0.491825
-0.497793
-0.503851
-0.465028
-0.462375
-0.460414
-0.458754
-0.457316
-0.45627
-0.45576
-0.455882
-0.456689
-0.458194
-0.460383
-0.46322
-0.466656
-0.470635
-0.4751
-0.479989
-0.485241
-0.490814
-0.49677
-0.502947
-0.466194
-0.463527
-0.461467
-0.459638
-0.45797
-0.456646
-0.455825
-0.455623
-0.456108
-0.457309
-0.459219
-0.461809
-0.465031
-0.468826
-0.473133
-0.477889
-0.483027
-0.488494
-0.49434
-0.500566
-0.466985
-0.464377
-0.46225
-0.460259
-0.458353
-0.456728
-0.455562
-0.454991
-0.455102
-0.455939
-0.457507
-0.45978
-0.462713
-0.466247
-0.470315
-0.47485
-0.479781
-0.485042
-0.490658
-0.49683
-0.467502
-0.46502
-0.462857
-0.460712
-0.458566
-0.456629
-0.455098
-0.454129
-0.453831
-0.454263
-0.45544
-0.457346
-0.459935
-0.463145
-0.466905
-0.471137
-0.475766
-0.480704
-0.485936
-0.491885
-0.467861
-0.465563
-0.46339
-0.461103
-0.458721
-0.45647
-0.454569
-0.453193
-0.452472
-0.45248
-0.453246
-0.454757
-0.456969
-0.459815
-0.463212
-0.46707
-0.471298
-0.475779
-0.480421
-0.485881
-0.468193
-0.466122
-0.463958
-0.461539
-0.458931
-0.456378
-0.454117
-0.452346
-0.451212
-0.450805
-0.451163
-0.452279
-0.454106
-0.456569
-0.459567
-0.462987
-0.466712
-0.470579
-0.474379
-0.47897
-0.468646
-0.466822
-0.464678
-0.462135
-0.459315
-0.456481
-0.453888
-0.451752
-0.450237
-0.449447
-0.449426
-0.450169
-0.451623
-0.453697
-0.456269
-0.459191
-0.462303
-0.465386
-0.468073
-0.471327
-0.469377
-0.467795
-0.465667
-0.463008
-0.459994
-0.456909
-0.454024
-0.451571
-0.449726
-0.4486
-0.448245
-0.448649
-0.449749
-0.451435
-0.453551
-0.455907
-0.458288
-0.460414
-0.461751
-0.463199
-0.470548
-0.469176
-0.467048
-0.464275
-0.461089
-0.457789
-0.454662
-0.451948
-0.449832
-0.44843
-0.447788
-0.447887
-0.448647
-0.449929
-0.451541
-0.453245
-0.454771
-0.455787
-0.455641
-0.454943
-0.47232
-0.471093
-0.468939
-0.46605
-0.462712
-0.459237
-0.455919
-0.453006
-0.450679
-0.449053
-0.448164
-0.447977
-0.448387
-0.449223
-0.450254
-0.451195
-0.451727
-0.451493
-0.449805
-0.446823
-0.474838
-0.473667
-0.471444
-0.468435
-0.464962
-0.461348
-0.457889
-0.454827
-0.45234
-0.450528
-0.44941
-0.44893
-0.448953
-0.449276
-0.449631
-0.449693
-0.449099
-0.447454
-0.444042
-0.438721
-0.47822
-0.476993
-0.474651
-0.471508
-0.467911
-0.464185
-0.460621
-0.45745
-0.454832
-0.452847
-0.451491
-0.450679
-0.450253
-0.449983
-0.449584
-0.448724
-0.447033
-0.444057
-0.438944
-0.431913
-0.482551
-0.481144
-0.478623
-0.475323
-0.4716
-0.467775
-0.464125
-0.460859
-0.458113
-0.455938
-0.454302
-0.453091
-0.452124
-0.451166
-0.449941
-0.448164
-0.445557
-0.441859
-0.436872
-0.432653
-0.487879
-0.486162
-0.483394
-0.479905
-0.47604
-0.472112
-0.468372
-0.465003
-0.462103
-0.45969
-0.457698
-0.455988
-0.454366
-0.452597
-0.450437
-0.447654
-0.444059
-0.439527
-0.434096
-0.428717
-0.49422
-0.492068
-0.488979
-0.485259
-0.481223
-0.477167
-0.473314
-0.469804
-0.466697
-0.463968
-0.461518
-0.459188
-0.456777
-0.454071
-0.450866
-0.446989
-0.442326
-0.436828
-0.430561
-0.423838
-0.501565
-0.498862
-0.49538
-0.491377
-0.487129
-0.482908
-0.478896
-0.475187
-0.47179
-0.46864
-0.465605
-0.462515
-0.459178
-0.455413
-0.451067
-0.446038
-0.440276
-0.433788
-0.426671
-0.419022
-0.509895
-0.506538
-0.502592
-0.498256
-0.493748
-0.489308
-0.485074
-0.481081
-0.477286
-0.473582
-0.469814
-0.465812
-0.461412
-0.456481
-0.450931
-0.444726
-0.437882
-0.430455
-0.42256
-0.414223
-0.519185
-0.515087
-0.510617
-0.505896
-0.501074
-0.496354
-0.491814
-0.487427
-0.483097
-0.478678
-0.47401
-0.46894
-0.463351
-0.457171
-0.450382
-0.443015
-0.435141
-0.426856
-0.418285
-0.409466
-0.529414
-0.524503
-0.519457
-0.514306
-0.509116
-0.504038
-0.499086
-0.494166
-0.489131
-0.483815
-0.478069
-0.47178
-0.464893
-0.457408
-0.449376
-0.440885
-0.432046
-0.422979
-0.413809
-0.404584
-0.54056
-0.53478
-0.529119
-0.523497
-0.517877
-0.512348
-0.50685
-0.501225
-0.495289
-0.488876
-0.481871
-0.474226
-0.465959
-0.457143
-0.447889
-0.438327
-0.428593
-0.418812
-0.409099
-0.399502
-0.552599
-0.545905
-0.539601
-0.53347
-0.527349
-0.521253
-0.515044
-0.50851
-0.501452
-0.493734
-0.485303
-0.47619
-0.466491
-0.456346
-0.445911
-0.435341
-0.424777
-0.414336
-0.404114
-0.394144
-0.565492
-0.557853
-0.550886
-0.544206
-0.537497
-0.530687
-0.523568
-0.515893
-0.507482
-0.498259
-0.488257
-0.477596
-0.466446
-0.454998
-0.443438
-0.431927
-0.420594
-0.409538
-0.39883
-0.388481
-0.579178
-0.570575
-0.562932
-0.555654
-0.548247
-0.540544
-0.532284
-0.52322
-0.513225
-0.502318
-0.490633
-0.478379
-0.465789
-0.453087
-0.440467
-0.428079
-0.416033
-0.404401
-0.393227
-0.382492
-0.593563
-0.583991
-0.575662
-0.567723
-0.559476
-0.55067
-0.541015
-0.530305
-0.518514
-0.505777
-0.492337
-0.478482
-0.464489
-0.450596
-0.436986
-0.423787
-0.41108
-0.398908
-0.387285
-0.376171
-0.608516
-0.597985
-0.588956
-0.580272
-0.571016
-0.560864
-0.549546
-0.536949
-0.523178
-0.508506
-0.493281
-0.47785
-0.462514
-0.447503
-0.432976
-0.419029
-0.405711
-0.393036
-0.380985
-0.369505
-0.623862
-0.612399
-0.602651
-0.593114
-0.582645
-0.570886
-0.557639
-0.542935
-0.527046
-0.510382
-0.49338
-0.476428
-0.459825
-0.443776
-0.428406
-0.413773
-0.399892
-0.386751
-0.374297
-0.362477
-0.639384
-0.627026
-0.616533
-0.606008
-0.594098
-0.58046
-0.565036
-0.548047
-0.529949
-0.511283
-0.492552
-0.474156
-0.456373
-0.439371
-0.423231
-0.407974
-0.393582
-0.380015
-0.367187
-0.355062
-0.654818
-0.641619
-0.63034
-0.618667
-0.605069
-0.589289
-0.571471
-0.55207
-0.531726
-0.511093
-0.490711
-0.470967
-0.452101
-0.434233
-0.4174
-0.401581
-0.38673
-0.372781
-0.359615
-0.347226
-0.66986
-0.655884
-0.643766
-0.630764
-0.615226
-0.597061
-0.576681
-0.554797
-0.532226
-0.5097
-0.487771
-0.46679
-0.446945
-0.428302
-0.41085
-0.394535
-0.37928
-0.364995
-0.351532
-0.338928
-0.684166
-0.669489
-0.656466
-0.641937
-0.624216
-0.603462
-0.580411
-0.556034
-0.531302
-0.506996
-0.483645
-0.461549
-0.440832
-0.421507
-0.403516
-0.386771
-0.371172
-0.356604
-0.34289
-0.330124
-0.697365
-0.682066
-0.66806
-0.651806
-0.631682
-0.608187
-0.582418
-0.5556
-0.52882
-0.502874
-0.478243
-0.455161
-0.433687
-0.413776
-0.395329
-0.378226
-0.362346
-0.34755
-0.333637
-0.320769
-0.709063
-0.693225
-0.678151
-0.659979
-0.637271
-0.610947
-0.582482
-0.553329
-0.524654
-0.497231
-0.471477
-0.447546
-0.425432
-0.405035
-0.386219
-0.368835
-0.352741
-0.337778
-0.323721
-0.310814
-0.718853
-0.702562
-0.686331
-0.666069
-0.64065
-0.611477
-0.580403
-0.549072
-0.518687
-0.489971
-0.463259
-0.438624
-0.415991
-0.395214
-0.37612
-0.358534
-0.342301
-0.327236
-0.313096
-0.300217
-0.726325
-0.709665
-0.692195
-0.669705
-0.641509
-0.609538
-0.576004
-0.542696
-0.510814
-0.481004
-0.453508
-0.428317
-0.405293
-0.384246
-0.364968
-0.347268
-0.330972
-0.315874
-0.301718
-0.288936
-0.731081
-0.714135
-0.695353
-0.670542
-0.639572
-0.604926
-0.569135
-0.534088
-0.500941
-0.470247
-0.442148
-0.416555
-0.393273
-0.372069
-0.35271
-0.334986
-0.31871
-0.303653
-0.289551
-0.276939
-0.732742
-0.715593
-0.695447
-0.668273
-0.634603
-0.597468
-0.559673
-0.523152
-0.488991
-0.45763
-0.429114
-0.403278
-0.379872
-0.358631
-0.339297
-0.321646
-0.305476
-0.290538
-0.276565
-0.2642
-0.730962
-0.713689
-0.692154
-0.662636
-0.626408
-0.587029
-0.547519
-0.509814
-0.474897
-0.443094
-0.41435
-0.388432
-0.365045
-0.34389
-0.324692
-0.307213
-0.291241
-0.276505
-0.262741
-0.2507
-0.725434
-0.708118
-0.6852
-0.653417
-0.614839
-0.57351
-0.532607
-0.494019
-0.458612
-0.426593
-0.397814
-0.37198
-0.348754
-0.327813
-0.308866
-0.291665
-0.275986
-0.261538
-0.248067
-0.23643
-0.715901
-0.698623
-0.674364
-0.640457
-0.599794
-0.55685
-0.514894
-0.475734
-0.440106
-0.408098
-0.379478
-0.353894
-0.330976
-0.310381
-0.291803
-0.274987
-0.2597
-0.24563
-0.23254
-0.221389
-0.702161
-0.685004
-0.659487
-0.623652
-0.581218
-0.537021
-0.494367
-0.45495
-0.419368
-0.387597
-0.359327
-0.334161
-0.3117
-0.291583
-0.273496
-0.257177
-0.242383
-0.228786
-0.216168
-0.205583
-0.684072
-0.667126
-0.640469
-0.602954
-0.559101
-0.514036
-0.471041
-0.431679
-0.396407
-0.365093
-0.337365
-0.312783
-0.290927
-0.271423
-0.253949
-0.238241
-0.224045
-0.21102
-0.198969
-0.189029
-0.66156
-0.644916
-0.617276
-0.578372
-0.533481
-0.48794
-0.444961
-0.405958
-0.371249
-0.340609
-0.313607
-0.289772
-0.268668
-0.249912
-0.233176
-0.218195
-0.204706
-0.192356
-0.180973
-0.171763
-0.634613
-0.618369
-0.589935
-0.549967
-0.504436
-0.458813
-0.416199
-0.377847
-0.343945
-0.314184
-0.288086
-0.265157
-0.244948
-0.227071
-0.211199
-0.197061
-0.184392
-0.172826
-0.162219
-0.153833
-0.603289
-0.587546
-0.558536
-0.517854
-0.472089
-0.426769
-0.384853
-0.347429
-0.314563
-0.285876
-0.26085
-0.238976
-0.2198
-0.20293
-0.188042
-0.174865
-0.163127
-0.152462
-0.142751
-0.135289
-0.567708
-0.552575
-0.523226
-0.482196
-0.436601
-0.391957
-0.351053
-0.314813
-0.283196
-0.255759
-0.23196
-0.21128
-0.193263
-0.177521
-0.163732
-0.151628
-0.140935
-0.131289
-0.122599
-0.116149
-0.528057
-0.513641
-0.484209
-0.443204
-0.398171
-0.354555
-0.314953
-0.280134
-0.249955
-0.223928
-0.201493
-0.182129
-0.165385
-0.150879
-0.138296
-0.127372
-0.117834
-0.109332
-0.101782
-0.0963856
-0.484578
-0.47099
-0.44174
-0.401128
-0.357034
-0.314773
-0.276739
-0.243549
-0.214977
-0.190497
-0.169542
-0.151596
-0.136218
-0.123039
-0.111753
-0.102106
-0.0938357
-0.0866025
-0.0803031
-0.0759901
-0.43757
-0.424919
-0.396119
-0.356261
-0.313459
-0.272852
-0.236622
-0.205245
-0.178424
-0.155606
-0.136223
-0.119772
-0.105828
-0.0940394
-0.0841212
-0.0758335
-0.0689278
-0.0630848
-0.0581794
-0.0551446
-0.387381
-0.375773
-0.347687
-0.308926
-0.267745
-0.22906
-0.194842
-0.165436
-0.140482
-0.119414
-0.10167
-0.0867633
-0.0742924
-0.0639342
-0.0554307
-0.0485607
-0.0430942
-0.0387786
-0.0355758
-0.0343624
-0.334399
-0.323936
-0.296821
-0.25948
-0.220217
-0.183694
-0.151667
-0.124362
-0.101368
-0.0821096
-0.0660366
-0.0526842
-0.0416815
-0.0327454
-0.0256577
-0.0202203
-0.016251
-0.0137094
-0.0128379
-0.0141018
-0.27905
-0.269826
-0.243924
-0.208302
-0.171225
-0.137073
-0.107393
-0.0822965
-0.0613327
-0.0439181
-0.0295129
-0.0176715
-0.00805122
-0.000409675
0.00543049
0.00963486
0.0122507
0.0128502
0.0107863
0.00711133
-0.221785
-0.213885
-0.189424
-0.155792
-0.121137
-0.0895395
-0.0623377
-0.039545
-0.0206718
-0.00512829
0.00762137
0.0180179
0.0263989
0.0330057
0.0380333
0.0416696
0.0438128
0.0434693
0.0397723
0.0359039
-0.163079
-0.156577
-0.133762
-0.10236
-0.0703338
-0.0414459
-0.0168381
0.0035665
0.0202871
0.0339164
0.0449875
0.0539422
0.0611321
0.0668416
0.0713603
0.0750148
0.0777683
0.0784746
0.0768251
0.082236
-0.103409
-0.0983694
-0.0773851
-0.0484221
-0.0191976
0.00685072
0.0287685
0.046711
0.0612182
0.0728788
0.0822147
0.0896579
0.0955566
0.100207
0.103913
0.106979
0.109381
0.110569
0.111557
0.119361
-0.043266
-0.0397411
-0.0207441
0.00560605
0.0318894
0.0549969
0.0741501
0.0895714
0.101813
0.111456
0.119005
0.124881
0.129424
0.132925
0.135674
0.137922
0.139641
0.140486
0.141473
0.147972
0.0168605
0.0188332
0.0357145
0.0593147
0.0825533
0.102649
0.118987
0.131845
0.141781
0.149359
0.155066
0.1593
0.162386
0.1646
0.166208
0.167434
0.168269
0.168446
0.168794
0.173579
0.0764879
0.0768856
0.0915532
0.112305
0.132432
0.149477
0.162975
0.173252
0.180863
0.186351
0.19018
0.192725
0.194288
0.195121
0.195462
0.1955
0.195214
0.194368
0.193726
0.196934
0.135144
0.133959
0.146347
0.16419
0.181177
0.195165
0.205829
0.21353
0.218818
0.222213
0.224151
0.224983
0.224986
0.224391
0.223406
0.222194
0.220713
0.218755
0.217046
0.218746
0.192373
0.189613
0.199687
0.2146
0.228456
0.239415
0.247278
0.252437
0.255429
0.25675
0.25681
0.255932
0.25437
0.25233
0.249999
0.247509
0.244809
0.241722
0.238947
0.239229
0.247734
0.243424
0.251181
0.263184
0.273954
0.281943
0.287069
0.289744
0.290493
0.289786
0.288004
0.285446
0.282342
0.278879
0.275217
0.271468
0.267574
0.263391
0.25958
0.258516
0.30081
0.294989
0.30046
0.309607
0.317373
0.322485
0.324963
0.32524
0.323822
0.321153
0.31759
0.313404
0.308805
0.30396
0.299009
0.294043
0.289006
0.283779
0.278979
0.276641
0.351206
0.34393
0.347175
0.353557
0.358433
0.360789
0.360738
0.358723
0.355236
0.350695
0.345428
0.339688
0.333662
0.327497
0.321317
0.315196
0.309079
0.302873
0.297135
0.293594
0.398552
0.389891
0.390999
0.394741
0.396873
0.396622
0.394182
0.390007
0.384568
0.37826
0.371389
0.364183
0.356811
0.349405
0.342069
0.334866
0.327744
0.320629
0.314012
0.309342
0.442505
0.432544
0.431632
0.43289
0.432452
0.429767
0.425101
0.418914
0.41166
0.40371
0.395345
0.386776
0.378155
0.369596
0.36119
0.352986
0.34494
0.33699
0.329558
0.323838
0.482751
0.47159
0.468799
0.467755
0.464948
0.460025
0.453317
0.445284
0.436365
0.426909
0.417178
0.407361
0.397596
0.387983
0.3786
0.369485
0.3606
0.351895
0.343716
0.337031
0.519006
0.506756
0.502251
0.499114
0.494162
0.487217
0.478664
0.468968
0.45855
0.447737
0.436775
0.425835
0.415042
0.404483
0.394222
0.384291
0.374657
0.365277
0.356425
0.348868
0.551019
0.537803
0.531768
0.526769
0.519913
0.511179
0.500998
0.489834
0.478091
0.466083
0.454035
0.442106
0.430408
0.419015
0.407983
0.397336
0.387046
0.377075
0.367629
0.359299
0.57857
0.56452
0.557158
0.550548
0.542049
0.531773
0.520191
0.507763
0.494884
0.481848
0.468868
0.456091
0.443616
0.43151
0.419817
0.408557
0.397708
0.387233
0.377275
0.36828
0.601475
0.586733
0.57826
0.570304
0.560436
0.548879
0.536133
0.522657
0.508835
0.494948
0.481197
0.467717
0.4546
0.441904
0.429665
0.4179
0.406589
0.395699
0.385317
0.37577
0.619582
0.604297
0.594943
0.585919
0.574969
0.5624
0.548736
0.534435
0.519871
0.505315
0.490957
0.476925
0.463304
0.450145
0.437479
0.425318
0.413647
0.402432
0.391718
0.381737
0.632778
0.617103
0.607107
0.597304
0.585566
0.572262
0.557932
0.543034
0.527933
0.512894
0.498098
0.48367
0.469686
0.456194
0.443221
0.430777
0.418847
0.4074
0.396447
0.386156
0.640985
0.625078
0.614684
0.604397
0.592171
0.578414
0.563675
0.548411
0.532983
0.517649
0.502588
0.487918
0.473715
0.460023
0.446865
0.43425
0.422166
0.410579
0.399485
0.389009
0.644161
0.628183
0.617639
0.607167
0.594756
0.58083
0.565941
0.550544
0.534998
0.519561
0.504407
0.489654
0.475376
0.461616
0.448397
0.435725
0.42359
0.411959
0.400821
0.390287
0.642304
0.626413
0.615968
0.605609
0.593317
0.579507
0.564726
0.549431
0.533978
0.518627
0.503553
0.488875
0.474666
0.460971
0.447813
0.435199
0.423117
0.411535
0.400452
0.389989
0.635445
0.619801
0.609701
0.599752
0.587879
0.574466
0.560051
0.545088
0.529938
0.514862
0.500041
0.485594
0.471598
0.4581
0.445126
0.432682
0.420757
0.409318
0.398386
0.38812
0.623656
0.608414
0.598899
0.589649
0.578492
0.565754
0.551957
0.537555
0.522914
0.5083
0.4939
0.479838
0.466197
0.453027
0.440356
0.428196
0.416528
0.405325
0.39464
0.384695
0.607041
0.592352
0.583654
0.575385
0.565231
0.553439
0.540508
0.52689
0.512958
0.498988
0.485175
0.47165
0.458502
0.445786
0.433538
0.421771
0.410463
0.399586
0.38924
0.379736
0.585744
0.571752
0.564092
0.557072
0.548198
0.537614
0.525786
0.513169
0.500142
0.486993
0.473927
0.461086
0.448565
0.436428
0.424717
0.41345
0.4026
0.392137
0.382219
0.373272
0.559941
0.546781
0.540366
0.53485
0.527519
0.518392
0.507897
0.496487
0.484552
0.472394
0.46023
0.448213
0.436449
0.42501
0.413948
0.403285
0.392989
0.383028
0.373622
0.365341
0.529844
0.517643
0.512663
0.508886
0.503344
0.495909
0.486964
0.476957
0.466292
0.455286
0.44417
0.433112
0.422228
0.411602
0.401295
0.391335
0.381686
0.37231
0.363496
0.355984
0.495694
0.484569
0.481194
0.479371
0.475845
0.470322
0.463129
0.454709
0.445481
0.435777
0.425847
0.415873
0.405986
0.39628
0.386828
0.377666
0.368754
0.360045
0.351898
0.34525
0.457769
0.447822
0.446202
0.446522
0.445218
0.441806
0.436551
0.429887
0.422248
0.413986
0.405369
0.396596
0.387812
0.379125
0.370623
0.362349
0.354258
0.346294
0.338884
0.333188
0.416371
0.407694
0.407954
0.41058
0.411678
0.410556
0.407404
0.40265
0.396739
0.390044
0.382854
0.375387
0.367803
0.360226
0.352757
0.345454
0.338265
0.33112
0.32451
0.31985
0.371834
0.364503
0.366743
0.371809
0.375462
0.376783
0.375881
0.373169
0.369107
0.364089
0.358426
0.352356
0.346056
0.339668
0.333308
0.327049
0.320836
0.314578
0.308829
0.305279
0.324518
0.318595
0.322885
0.330493
0.336823
0.340716
0.342186
0.341629
0.339518
0.33627
0.332217
0.327619
0.322673
0.317538
0.312349
0.307194
0.302021
0.296714
0.291878
0.289512
0.274805
0.270339
0.276721
0.286938
0.296036
0.302599
0.306538
0.308227
0.308148
0.306741
0.304363
0.301294
0.297752
0.293916
0.289941
0.285936
0.281852
0.277548
0.273669
0.272558
0.223103
0.220124
0.228611
0.241468
0.25339
0.262692
0.269171
0.273171
0.275183
0.275669
0.275007
0.273503
0.271395
0.268881
0.266141
0.263306
0.260338
0.257068
0.254175
0.25439
0.169836
0.168362
0.178935
0.194425
0.209193
0.221272
0.230332
0.236683
0.240822
0.243227
0.244302
0.244373
0.2437
0.242502
0.24098
0.239297
0.237427
0.235176
0.23327
0.234892
0.115449
0.11548
0.128089
0.146171
0.163768
0.178628
0.190283
0.199002
0.205278
0.209608
0.212415
0.214046
0.214782
0.21486
0.21451
0.213922
0.213081
0.211764
0.210766
0.21386
0.0603959
0.0619198
0.0764844
0.0970768
0.117452
0.135066
0.149304
0.16038
0.168784
0.175022
0.179536
0.18269
0.184779
0.186054
0.186764
0.187124
0.187103
0.186405
0.186001
0.190687
0.00514343
0.00813212
0.0245444
0.0475304
0.0705965
0.0909066
0.107687
0.12109
0.131589
0.139701
0.145878
0.150495
0.153854
0.156207
0.157819
0.158949
0.159567
0.159188
0.158769
0.164624
-0.0498381
-0.0454259
-0.0273016
-0.00207389
0.0235614
0.0464804
0.0657406
0.0814208
0.0939753
0.10392
0.111719
0.117753
0.122326
0.12568
0.128061
0.129744
0.130676
0.129828
0.126981
0.13068
-0.104077
-0.0982961
-0.0786204
-0.0513361
-0.0232859
0.00212707
0.0237828
0.041677
0.0562348
0.0679678
0.0773402
0.0847325
0.0904337
0.0946474
0.0975343
0.0992424
0.0996516
0.0978651
0.0932018
0.0886564
-0.157118
-0.15003
-0.128984
-0.0998579
-0.0695777
-0.0418114
-0.0178631
0.00217036
0.0186781
0.0321638
0.0430946
0.0518558
0.0587416
0.0639593
0.0676587
0.0699743
0.0709256
0.0701298
0.0671102
0.0629531
-0.208508
-0.200189
-0.177973
-0.147247
-0.114951
-0.0849974
-0.0588773
-0.0367891
-0.018385
-0.00316896
0.00933444
0.0195274
0.0277306
0.0341888
0.0390905
0.0426036
0.0448717
0.0459253
0.045632
0.0437223
-0.257819
-0.248352
-0.225182
-0.193124
-0.159056
-0.127106
-0.0989555
-0.0749118
-0.0546751
-0.0377601
-0.0236823
-0.0120203
-0.00242646
0.00537914
0.0116207
0.0164881
0.0201697
0.0228813
0.0247171
0.0250089
-0.304652
-0.294127
-0.27023
-0.23713
-0.20156
-0.167833
-0.137817
-0.111938
-0.0899535
-0.0713951
-0.0557738
-0.0426538
-0.0316671
-0.0225097
-0.0149331
-0.00873047
-0.00369438
0.000449949
0.00385684
0.00576643
-0.34864
-0.337154
-0.312765
-0.27893
-0.242154
-0.206896
-0.175207
-0.147638
-0.124014
-0.103893
-0.086789
-0.0722561
-0.0599127
-0.0494385
-0.0405685
-0.0330824
-0.0267585
-0.0213035
-0.0165898
-0.0135089
-0.389463
-0.377116
-0.352469
-0.31822
-0.280558
-0.244043
-0.210898
-0.181808
-0.156677
-0.135098
-0.116595
-0.10072
-0.0870819
-0.0753505
-0.0652506
-0.0565546
-0.0490321
-0.0423776
-0.0364869
-0.0323918
-0.426845
-0.413739
-0.389067
-0.354731
-0.316522
-0.279048
-0.244689
-0.214271
-0.187787
-0.164877
-0.145081
-0.127957
-0.113109
-0.100202
-0.0889562
-0.0791401
-0.0705208
-0.0627837
-0.0558209
-0.050743
-0.460566
-0.446804
-0.42233
-0.388234
-0.349829
-0.311713
-0.276407
-0.244877
-0.217215
-0.193118
-0.172155
-0.153892
-0.137937
-0.123953
-0.111658
-0.100819
-0.0912052
-0.0824982
-0.0745734
-0.068556
-0.490464
-0.476146
-0.452078
-0.41854
-0.380296
-0.341875
-0.305907
-0.273499
-0.244852
-0.219731
-0.197741
-0.178464
-0.161517
-0.146565
-0.133324
-0.121564
-0.111056
-0.101486
-0.0927103
-0.0858305
-0.516436
-0.501663
-0.478187
-0.445508
-0.407782
-0.369399
-0.33307
-0.300036
-0.270612
-0.244642
-0.221777
-0.201621
-0.183804
-0.167998
-0.15392
-0.141342
-0.13004
-0.11971
-0.110188
-0.102532
-0.538442
-0.52331
-0.500588
-0.469045
-0.432182
-0.394185
-0.357808
-0.324411
-0.294431
-0.267798
-0.244216
-0.223323
-0.204764
-0.188221
-0.173416
-0.160123
-0.148126
-0.137132
-0.126958
-0.118603
-0.556505
-0.541109
-0.519273
-0.489109
-0.453434
-0.416166
-0.380056
-0.34657
-0.316263
-0.28916
-0.265027
-0.243542
-0.224371
-0.207208
-0.191785
-0.177879
-0.165282
-0.153713
-0.142974
-0.133992
-0.57071
-0.555142
-0.534294
-0.505711
-0.471519
-0.43531
-0.399783
-0.366483
-0.336084
-0.308708
-0.284194
-0.262263
-0.24261
-0.224945
-0.209011
-0.19459
-0.181484
-0.169426
-0.158203
-0.148661
-0.581201
-0.565551
-0.54576
-0.518914
-0.486462
-0.451619
-0.41698
-0.384144
-0.353889
-0.326441
-0.301714
-0.279484
-0.259477
-0.241426
-0.225085
-0.210244
-0.196716
-0.184249
-0.17262
-0.162585
-0.588176
-0.572534
-0.553838
-0.528834
-0.498332
-0.465132
-0.431672
-0.399568
-0.369693
-0.342371
-0.317602
-0.295217
-0.274983
-0.256657
-0.24001
-0.224841
-0.210973
-0.198173
-0.186211
-0.175751
-0.591883
-0.576339
-0.558746
-0.535638
-0.507245
-0.475922
-0.443907
-0.412795
-0.383529
-0.356531
-0.331885
-0.309487
-0.289149
-0.270655
-0.253798
-0.238388
-0.224258
-0.211197
-0.198971
-0.188151
-0.592609
-0.577253
-0.56075
-0.539542
-0.513356
-0.484099
-0.453764
-0.423883
-0.395448
-0.368966
-0.344607
-0.322333
-0.302008
-0.28345
-0.266473
-0.250903
-0.236586
-0.22333
-0.210904
-0.199787
-0.590677
-0.575601
-0.560153
-0.540803
-0.516865
-0.489808
-0.461348
-0.432915
-0.405518
-0.379736
-0.35582
-0.333804
-0.313605
-0.295079
-0.278068
-0.262415
-0.247979
-0.234588
-0.222021
-0.210666
-0.586432
-0.571727
-0.557289
-0.539714
-0.518007
-0.493227
-0.466791
-0.439993
-0.413823
-0.388914
-0.365592
-0.343961
-0.323994
-0.305592
-0.288625
-0.272959
-0.258466
-0.244996
-0.23234
-0.220803
-0.580233
-0.565989
-0.552508
-0.536596
-0.517048
-0.494563
-0.470252
-0.445236
-0.42046
-0.396585
-0.373997
-0.352871
-0.333238
-0.315045
-0.298195
-0.282578
-0.268085
-0.254585
-0.241888
-0.230219
-0.572441
-0.558747
-0.54617
-0.531786
-0.514283
-0.494052
-0.47191
-0.448786
-0.425542
-0.402842
-0.381121
-0.360612
-0.341407
-0.3235
-0.306834
-0.291324
-0.27688
-0.263393
-0.250694
-0.23894
-0.563412
-0.550351
-0.538626
-0.525628
-0.510021
-0.491952
-0.471971
-0.4508
-0.429193
-0.40779
-0.387051
-0.367264
-0.348574
-0.331026
-0.314602
-0.299248
-0.284896
-0.271459
-0.258792
-0.246995
-0.553484
-0.541131
-0.530215
-0.51846
-0.504575
-0.488536
-0.470654
-0.45145
-0.431549
-0.411538
-0.391884
-0.372912
-0.354817
-0.337694
-0.321565
-0.30641
-0.292185
-0.278827
-0.266217
-0.25441
-0.54297
-0.531392
-0.52125
-0.510602
-0.498259
-0.484082
-0.468194
-0.450926
-0.432759
-0.414207
-0.395719
-0.377643
-0.360214
-0.343573
-0.327785
-0.312864
-0.298795
-0.285538
-0.273003
-0.261213
-0.532155
-0.521403
-0.512008
-0.502347
-0.491367
-0.478869
-0.464834
-0.449424
-0.43298
-0.41592
-0.398658
-0.381544
-0.364843
-0.348734
-0.333325
-0.318667
-0.304774
-0.291632
-0.279181
-0.267424
-0.521286
-0.511399
-0.50273
-0.493955
-0.484172
-0.473164
-0.460815
-0.447151
-0.432377
-0.41681
-0.400806
-0.384702
-0.368777
-0.353243
-0.338246
-0.323872
-0.310167
-0.297145
-0.284777
-0.27306
-0.510575
-0.501574
-0.493615
-0.485643
-0.476911
-0.467212
-0.456371
-0.444314
-0.431123
-0.417014
-0.402273
-0.387205
-0.37209
-0.357163
-0.3426
-0.328524
-0.315012
-0.302107
-0.289811
-0.278128
-0.500194
-0.492082
-0.484821
-0.477588
-0.469783
-0.461228
-0.45172
-0.441112
-0.429391
-0.416672
-0.403168
-0.389139
-0.374851
-0.36055
-0.346435
-0.332662
-0.319341
-0.306542
-0.294297
-0.282628
-0.490274
-0.483037
-0.476462
-0.469921
-0.462948
-0.455394
-0.447053
-0.437735
-0.427349
-0.415928
-0.403606
-0.390591
-0.377127
-0.363454
-0.349791
-0.336319
-0.323176
-0.310463
-0.29824
-0.286553
-0.48091
-0.474519
-0.468617
-0.462736
-0.45652
-0.449852
-0.442533
-0.434348
-0.425156
-0.414917
-0.403697
-0.391648
-0.378979
-0.365921
-0.352699
-0.339514
-0.326532
-0.31388
-0.301642
-0.289894
-0.472156
-0.466572
-0.461329
-0.456086
-0.450574
-0.444702
-0.438282
-0.43109
-0.42295
-0.413768
-0.403549
-0.392393
-0.380469
-0.367989
-0.35518
-0.342258
-0.32941
-0.316788
-0.304501
-0.292648
-0.464032
-0.459205
-0.454608
-0.44999
-0.445147
-0.440005
-0.434386
-0.428065
-0.420844
-0.41259
-0.403259
-0.392902
-0.381648
-0.369689
-0.357247
-0.344547
-0.331797
-0.319175
-0.306807
-0.29482
-0.456517
-0.4524
-0.448434
-0.444434
-0.440239
-0.43578
-0.430886
-0.425336
-0.418917
-0.411468
-0.402907
-0.39324
-0.382563
-0.371044
-0.358897
-0.346359
-0.33366
-0.321001
-0.308535
-0.296422
-0.449559
-0.446108
-0.44276
-0.439374
-0.435813
-0.432006
-0.427783
-0.422923
-0.417206
-0.410452
-0.402545
-0.393457
-0.383249
-0.372065
-0.360116
-0.347651
-0.334929
-0.322189
-0.309619
-0.297466
-0.44308
-0.440258
-0.437518
-0.43474
-0.431804
-0.428625
-0.425031
-0.4208
-0.415707
-0.409553
-0.402198
-0.393579
-0.383724
-0.372755
-0.360875
-0.348353
-0.335491
-0.322589
-0.309903
-0.297874
-0.436977
-0.434765
-0.43262
-0.430443
-0.428119
-0.425547
-0.422548
-0.418899
-0.414367
-0.408739
-0.40185
-0.393604
-0.383993
-0.373109
-0.361142
-0.34838
-0.335182
-0.321948
-0.309082
-0.297473
-0.431145
-0.429536
-0.427975
-0.426382
-0.424649
-0.422657
-0.42022
-0.417112
-0.413092
-0.407935
-0.40145
-0.393505
-0.384048
-0.373127
-0.360903
-0.347662
-0.333815
-0.319891
-0.306578
-0.295633
-0.425483
-0.424486
-0.423492
-0.422456
-0.42128
-0.419831
-0.417917
-0.415308
-0.41176
-0.407034
-0.400913
-0.393227
-0.38387
-0.372826
-0.360191
-0.346202
-0.331254
-0.315939
-0.301379
-0.291101
-0.419916
-0.419546
-0.419099
-0.418578
-0.41791
-0.416952
-0.415509
-0.413352
-0.410236
-0.405908
-0.400133
-0.392698
-0.38344
-0.372263
-0.359159
-0.344246
-0.327783
-0.31015
-0.292505
-0.280684
-0.414402
-0.41468
-0.414751
-0.41469
-0.414464
-0.41393
-0.412893
-0.41113
-0.408397
-0.404438
-0.398998
-0.391834
-0.382727
-0.371493
-0.35799
-0.342129
-0.323851
-0.302788
-0.277749
-0.25152
-0.408949
-0.40989
-0.41044
-0.410773
-0.410912
-0.410719
-0.410009
-0.40857
-0.406162
-0.402534
-0.397424
-0.390571
-0.381728
-0.370665
-0.35718
-0.341124
-0.32242
-0.30078
-0.275328
-0.249944
-0.40362
-0.405224
-0.406203
-0.406855
-0.407273
-0.407332
-0.406862
-0.405665
-0.403515
-0.400168
-0.395368
-0.388855
-0.380378
-0.369704
-0.356635
-0.341052
-0.322945
-0.302116
-0.278112
-0.255683
-0.398525
-0.400772
-0.402124
-0.403017
-0.403626
-0.403847
-0.403528
-0.402489
-0.400522
-0.397394
-0.392864
-0.386683
-0.378612
-0.368432
-0.355967
-0.341142
-0.323984
-0.304318
-0.282052
-0.262492
-0.393821
-0.396666
-0.398326
-0.399384
-0.400103
-0.400404
-0.400157
-0.399201
-0.397346
-0.394378
-0.390072
-0.3842
-0.376546
-0.366916
-0.355176
-0.341302
-0.32537
-0.307269
-0.28724
-0.270531
-0.389692
-0.393063
-0.394963
-0.396117
-0.396879
-0.397195
-0.396958
-0.39603
-0.394237
-0.391388
-0.38728
-0.381711
-0.374498
-0.365488
-0.354598
-0.341868
-0.327427
-0.311257
-0.293818
-0.279817
-0.38633
-0.390133
-0.392202
-0.393396
-0.39415
-0.394438
-0.394177
-0.393248
-0.391499
-0.388761
-0.384856
-0.379619
-0.372902
-0.364602
-0.354691
-0.343266
-0.330497
-0.316437
-0.301631
-0.290042
-0.383915
-0.388034
-0.390205
-0.391393
-0.392108
-0.392349
-0.392055
-0.391127
-0.389436
-0.386835
-0.383177
-0.37833
-0.37219
-0.3647
-0.35588
-0.345862
-0.334838
-0.322888
-0.310524
-0.300988
-0.382594
-0.3869
-0.389107
-0.390258
-0.390917
-0.391111
-0.390798
-0.389899
-0.388305
-0.385893
-0.382547
-0.378169
-0.372692
-0.366097
-0.358439
-0.349865
-0.340558
-0.330586
-0.320366
-0.312549
-0.38246
-0.386822
-0.389005
-0.390095
-0.390695
-0.390854
-0.390549
-0.389718
-0.388273
-0.386114
-0.383152
-0.379316
-0.374572
-0.368929
-0.362454
-0.355293
-0.347602
-0.339416
-0.33103
-0.324672
-0.383551
-0.387837
-0.38994
-0.390953
-0.391495
-0.391637
-0.39137
-0.390652
-0.389408
-0.38756
-0.385041
-0.381804
-0.377836
-0.373159
-0.367844
-0.362019
-0.355809
-0.349206
-0.342399
-0.337319
-0.38584
-0.389927
-0.391901
-0.392823
-0.39331
-0.39345
-0.39325